ITEM: TIMESTEP
29000
ITEM: NUMBER OF ATOMS
7500
ITEM: BOX BOUNDS xy xz yz pp pp pp
0.0000000000000000e+00 3.9579999999999998e+01 0.0000000000000000e+00
0.0000000000000000e+00 3.9579999999999998e+01 0.0000000000000000e+00
-2.3448800563695471e-02 5.9723448800564178e+01 0.0000000000000000e+00
ITEM: ATOMS id type x y z
1 2 39.2632 39.6259 0.141851
2 2 3.78147 -0.170642 0.135102
3 2 7.83065 -0.0521313 0.331407
4 2 11.9118 -0.140374 0.224824
5 2 16.0281 39.3952 -0.0847409
6 2 19.8743 -0.0848365 0.206657
7 2 23.8073 -0.0935119 0.229973
8 2 27.7751 39.5066 0.184327
9 2 31.653 39.3796 0.382289
10 2 35.5187 39.659 0.291835
11 2 39.5166 3.88907 0.254084
12 2 3.80991 3.98911 0.2237
13 2 7.93093 3.97936 0.28362
14 2 12.0376 3.81349 0.153969
15 2 15.6522 3.88611 0.198337
16 2 19.8601 3.87465 0.165316
17 2 23.5855 3.86025 0.231285
18 2 27.5756 4.11018 0.341531
19 2 31.6214 4.05047 0.133508
20 2 35.5156 3.91579 0.239915
21 2 39.6005 7.9211 0.079237
22 2 4.09947 7.74227 0.260691
23 2 7.86439 7.543 0.0296721
24 2 11.881 7.85313 60.0155
25 2 15.8596 7.97273 0.272815
26 2 19.5887 7.96937 0.266458
27 2 23.6436 7.90238 0.195948
28 2 27.5599 8.00999 0.152782
29 2 31.6069 7.97676 0.262896
30 2 35.6879 7.78973 0.382985
31 2 39.5083 11.8974 0.207348
32 2 3.77345 11.6676 0.340553
33 2 7.84276 11.8794 0.355573
34 2 11.9205 11.7249 0.26709
35 2 15.5945 11.8507 0.268681
36 2 19.8844 11.9496 0.361627
37 2 23.6872 11.7048 0.156651
38 2 27.6918 11.9788 0.32501
39 2 31.539 11.7993 0.325812
40 2 35.5075 11.9008 0.235062
41 2 39.5111 15.8061 0.18488
42 2 3.73701 15.7297 0.244232
43 2 7.75662 15.8249 0.28484
44 2 11.9235 15.7255 0.0823159
45 2 15.7487 15.7945 0.22327
46 2 19.6672 15.7474 0.298179
47 2 23.7837 15.8263 0.242194
48 2 27.5862 15.8507 -0.0106008
49 2 31.653 15.8594 0.244882
50 2 35.5011 15.7931 0.185241
51 2 39.666 19.8031 0.364627
52 2 3.85121 19.8341 0.262838
53 2 7.99651 19.5919 0.194234
54 2 11.9024 19.84 0.317382
55 2 15.5871 19.7006 0.338112
56 2 19.8346 19.6046 0.127663
57 2 23.6851 19.7465 0.407446
58 2 27.6455 19.8648 0.181739
59 2 31.3962 19.6688 0.118822
60 2 35.499 19.5911 -0.0366512
61 2 39.5072 23.6227 0.266263
62 2 3.97177 23.5596 -0.0186585
63 2 7.80979 23.7862 0.17982
64 2 11.6963 23.834 0.299445
65 2 15.7868 23.7573 0.247874
66 2 19.5891 23.6759 0.224172
67 2 23.7503 23.6048 0.310535
68 2 27.7481 23.5183 0.190878
69 2 31.6536 23.6369 0.316099
70 2 35.5396 23.4685 0.175237
71 2 39.5656 27.595 0.249642
72 2 3.68642 27.6698 0.174872
73 2 7.82422 27.6899 0.356175
74 2 11.6514 27.7436 0.303541
75 2 15.7631 27.7531 0.365685
76 2 19.7405 27.8549 0.24178
77 2 23.6174 27.7376 0.154657
78 2 27.8842 27.6028 0.156503
79 2 31.6192 27.3874 0.361239
80 2 35.7242 27.5002 0.208274
81 2 39.3523 31.6564 0.301134
82 2 3.9496 31.5658 0.222558
83 2 7.7839 31.8192 0.395202
84 2 11.8377 31.6945 0.189759
85 2 15.7566 31.5413 0.356161
86 2 19.7023 31.6772 0.256598
87 2 23.8292 31.7669 0.224528
88 2 27.7177 31.5768 0.340365
89 2 31.5726 31.7308 0.439435
90 2 35.528 31.5863 0.490889
91 2 39.4913 35.7793 0.0456744
92 2 4.04148 35.4192 0.380797
93 2 7.83409 35.5 0.214914
94 2 11.9763 35.5686 0.1755
95 2 15.9962 35.3898 0.314466
96 2 19.7389 35.7797 0.303862
97 2 23.8909 35.6475 0.178086
98 2 27.4744 35.5959 0.306091
99 2 31.7178 35.6562 0.348826
100 2 35.6773 35.5361 0.255577
101 2 39.5193 -0.110216 4.18941
102 2 3.76933 39.485 4.11642
103 2 7.80933 -0.0139268 3.85604
104 2 11.8648 -0.131886 4.05097
105 2 15.8072 -0.203095 4.21551
106 2 19.7493 39.6176 4.32467
107 2 23.728 39.5765 4.27919
108 2 27.5366 39.778 4.21726
109 2 31.6936 -0.158196 4.22404
110 2 35.5501 39.4297 4.28319
111 2 39.5273 3.70612 4.09517
112 2 3.94319 3.77419 4.1029
113 2 7.95511 3.87904 4.21813
114 2 11.8593 3.73791 4.17058
115 2 15.7376 3.70225 4.07323
116 2 19.5451 3.77004 4.23234
117 2 23.6923 3.96517 4.36217
118 2 27.7023 4.13999 4.22376
119 2 31.5036 3.90739 4.21617
120 2 35.4519 3.91638 4.14413
121 2 -0.174986 7.75642 4.16612
122 2 3.88096 7.71475 4.13078
123 2 7.7858 7.98322 4.26875
124 2 11.9656 7.83237 4.22428
125 2 15.8323 7.79804 4.32064
126 2 19.7483 7.99175 4.34993
127 2 23.6353 7.90244 4.29356
128 2 27.5294 7.97415 4.32547
129 2 31.6398 7.70541 4.28648
130 2 35.4808 7.76184 4.24317
131 2 39.619 11.7776 4.08485
132 2 4.00724 11.6754 4.32779
133 2 7.94207 11.8116 4.04534
134 2 11.8194 11.8345 4.20771
135 2 15.7315 11.9175 4.39637
136 2 19.6221 11.8217 4.12831
137 2 23.5559 11.9693 3.99459
138 2 27.6722 11.6083 4.26406
139 2 31.5424 11.6006 4.1548
140 2 35.492 11.8317 4.26032
141 2 39.6455 15.7438 4.2833
142 2 4.13605 15.7847 4.19877
143 2 7.97194 15.7835 4.20566
144 2 11.825 15.6543 4.19943
145 2 15.7536 15.9874 4.19327
146 2 19.8543 15.624 4.20277
147 2 23.8152 15.6394 4.26865
148 2 27.6457 15.6204 4.13581
149 2 31.504 15.5766 4.18838
150 2 35.5233 15.6445 4.14674
151 2 0.0690955 19.6998 4.04319
152 2 3.89989 19.7201 4.375
153 2 7.95571 19.6886 4.10827
154 2 11.9293 19.8768 4.20596
155 2 15.7591 19.8852 4.33878
156 2 19.7971 19.7125 4.12586
157 2 23.7064 19.553 4.11262
158 2 27.6929 19.7591 4.31711
159 2 31.7244 19.6067 4.21874
160 2 35.7566 19.6648 4.27316
161 2 39.5617 23.6862 4.21133
162 2 3.91412 23.6075 4.22974
163 2 7.61287 23.5769 4.11125
164 2 11.7392 23.7777 4.34689
165 2 15.9049 23.6123 4.19924
166 2 19.7069 23.8431 4.2143
167 2 23.5148 23.6941 4.25693
168 2 27.6407 23.7385 4.2829
169 2 31.6662 23.3813 4.29724
170 2 35.5854 23.4835 4.30251
171 2 39.5984 27.7098 4.31283
172 2 3.95163 27.5516 4.2794
173 2 7.84532 27.5508 4.18482
174 2 11.8297 27.5156 4.11082
175 2 15.7366 27.7115 4.38637
176 2 19.8516 27.5985 4.3519
177 2 23.7159 27.5974 4.11426
178 2 27.6699 27.6481 4.39719
179 2 31.6807 27.3631 4.31457
180 2 35.7471 27.4403 4.40014
181 2 -0.180526 31.5391 4.27455
182 2 3.89121 31.4716 4.2379
183 2 7.9788 31.6884 4.25024
184 2 11.8346 31.5213 4.10436
185 2 15.8121 31.5941 4.01579
186 2 19.7487 31.5008 4.27128
187 2 23.7635 31.7536 4.34492
188 2 27.5597 31.4864 4.23819
189 2 31.6792 31.5733 4.34922
190 2 35.5605 31.4716 4.34397
191 2 0.0266342 35.4133 4.15356
192 2 4.01347 35.4086 4.36116
193 2 7.78036 35.7359 4.24042
194 2 11.9368 35.6652 4.25981
195 2 15.7264 35.4286 4.31066
196 2 19.7729 35.6619 4.05674
197 2 23.6992 35.5303 4.17915
198 2 27.4496 35.5529 4.17949
199 2 31.4479 35.6964 4.15414
200 2 35.5816 35.5647 4.32609
201 2 39.4792 39.6487 8.04943
202 2 3.99618 39.5187 8.12476
203 2 7.88834 39.4354 8.18489
204 2 11.7907 -0.241268 8.18697
205 2 15.8106 -0.200745 8.23043
206 2 19.7704 39.3917 8.22836
207 2 23.8114 39.5373 8.11162
208 2 27.6828 0.0938217 8.27511
209 2 31.5793 39.3324 8.21823
210 2 35.7391 39.4297 8.21762
211 2 39.4699 3.82742 8.06897
212 2 3.70387 3.92775 8.12393
213 2 7.71983 3.92129 7.87435
214 2 11.611 3.88798 8.09381
215 2 15.7776 3.80351 8.17541
216 2 19.6294 3.91735 8.08825
217 2 23.7418 3.87978 8.1947
218 2 27.6787 3.92824 8.32764
219 2 31.6604 3.87506 8.26829
220 2 35.5683 3.92879 8.28725
221 2 39.3865 7.9581 8.19704
222 2 3.88127 7.80795 8.1091
223 2 7.85556 7.9147 8.21668
224 2 11.8239 7.88889 8.12385
225 2 15.6506 7.76049 8.0964
226 2 19.7538 7.89602 8.18358
227 2 23.62 7.93505 8.26117
228 2 27.6799 7.97755 8.30287
229 2 31.6598 7.79824 8.30355
230 2 35.534 7.73823 8.26387
231 2 39.708 11.7943 8.02128
232 2 3.71367 11.6866 8.06297
233 2 8.01573 11.6843 8.1864
234 2 11.6968 11.786 8.03807
235 2 15.9085 11.813 8.28449
236 2 19.6059 11.7983 8.17018
237 2 23.6284 11.8519 8.25344
238 2 27.7069 11.5562 8.08934
239 2 31.5717 11.7446 8.34899
240 2 35.7123 11.7175 8.15729
241 2 39.6712 15.5253 8.14273
242 2 3.86106 15.6684 8.29935
243 2 7.71504 15.682 8.23608
244 2 11.8823 15.765 8.11141
245 2 15.8881 15.9378 8.19548
246 2 19.8686 15.7782 8.11171
247 2 23.7828 15.5301 8.15983
248 2 27.7077 15.9425 8.17736
249 2 31.663 15.8055 8.38544
250 2 35.557 15.6994 8.30652
251 2 39.4002 19.435 8.03177
252 2 3.73994 19.6096 8.20679
253 2 7.83661 19.4833 8.29134
254 2 11.8111 19.9516 8.23843
255 2 15.7107 19.6 8.13451
256 2 19.9442 19.7438 8.18933
257 2 23.6043 19.9426 8.35086
258 2 27.3641 19.6929 8.00054
259 2 31.5289 19.6145 8.14398
260 2 35.7597 19.4621 8.06759
261 2 39.632 23.5834 8.11466
262 2 3.79537 23.5056 8.20652
263 2 7.60907 23.6435 8.44276
264 2 11.6234 23.7097 8.14283
265 2 15.6724 23.5887 8.18154
266 2 19.575 23.5661 8.20451
267 2 23.6915 23.7386 8.27912
268 2 27.4443 23.518 8.16591
269 2 31.5154 23.4525 8.22481
270 2 35.7194 23.5775 8.2923
271 2 -0.0976597 27.5458 8.36429
272 2 3.85258 27.7628 8.2892
273 2 8.02986 27.6098 8.12108
274 2 11.6751 27.7464 8.21327
275 2 15.6465 27.6331 8.11189
276 2 19.7858 27.6218 8.33219
277 2 23.6619 27.5568 8.32037
278 2 27.7585 27.6254 8.27714
279 2 31.4256 27.4785 8.21859
280 2 35.5361 27.5021 8.34138
281 2 -0.057732 31.5195 8.26694
282 2 3.87455 31.4464 8.16147
283 2 7.86576 31.6157 8.27776
284 2 11.6884 31.5758 8.08888
285 2 15.5738 31.6125 8.22722
286 2 19.4971 31.4769 8.15066
287 2 23.6657 31.7091 8.32856
288 2 27.6201 31.3785 8.14828
289 2 31.7133 31.4736 8.2698
290 2 35.3148 31.6448 8.18454
291 2 39.5739 35.3136 8.07468
292 2 3.79907 35.6329 8.24153
293 2 7.69362 35.581 8.33709
294 2 11.658 35.4128 8.173
295 2 15.8355 35.3141 8.13487
296 2 19.7729 35.6829 8.06866
297 2 23.9211 35.5572 8.38568
298 2 27.7224 35.4287 8.224
299 2 31.6191 35.5945 8.15438
300 2 35.6117 35.4242 8.29727
301 2 39.5644 39.5124 12.1735
302 2 3.89521 39.3692 12.1182
303 2 7.84127 39.5009 12.1802
304 2 11.7708 39.316 12.2194
305 2 15.7952 39.296 12.2267
306 2 19.7704 -0.346283 11.9791
307 2 23.6816 -0.184012 12.3124
308 2 27.6839 -0.162693 12.0796
309 2 31.4911 -0.174016 12.3363
310 2 35.5508 39.5097 12.2885
311 2 39.514 3.76606 12.1881
312 2 3.922 3.90536 12.2323
313 2 7.82639 3.90995 12.0409
314 2 11.8059 3.76135 12.2817
315 2 15.72 3.80461 12.158
316 2 19.688 3.68154 12.0423
317 2 23.7184 3.7305 12.2742
318 2 27.6987 4.15655 12.1779
319 2 31.7211 3.79192 12.3608
320 2 35.4948 3.97922 12.3093
321 2 39.5545 7.65191 12.2619
322 2 4.03835 7.67901 12.2509
323 2 7.75255 7.70616 12.1956
324 2 11.6871 7.77389 12.1907
325 2 15.4624 7.74469 12.0164
326 2 19.6372 7.70206 12.2269
327 2 23.5819 7.65206 12.0969
328 2 27.6845 7.93987 12.2705
329 2 31.5254 7.91037 12.3791
330 2 35.7177 7.83968 12.3213
331 2 39.6892 11.9875 12.2704
332 2 3.83805 11.5648 12.162
333 2 7.86664 11.5667 12.2817
334 2 11.6788 11.8429 12.1719
335 2 15.9064 11.7846 12.1191
336 2 19.8373 11.4807 12.1402
337 2 23.7238 11.7256 12.1549
338 2 27.6353 11.9445 12.2452
339 2 31.7159 11.606 12.2547
340 2 35.586 11.7365 12.1202
341 2 39.5059 15.7166 12.0669
342 2 3.9835 15.6222 12.2389
343 2 7.83735 15.653 12.2028
344 2 11.8216 15.5898 12.0922
345 2 15.8222 15.4829 12.1063
346 2 19.6522 15.7807 12.2032
347 2 23.6555 15.6824 12.2751
348 2 27.691 15.5506 12.2119
349 2 31.748 15.6332 12.0543
350 2 35.6707 15.7572 12.362
351 2 0.00920623 19.4712 12.1293
352 2 3.94348 19.659 12.1123
353 2 7.96121 19.8327 12.2109
354 2 11.6817 19.7149 12.2564
355 2 15.6206 19.6046 12.2448
356 2 19.5602 19.8189 12.1161
357 2 23.6927 19.6252 12.361
358 2 27.8561 19.6614 12.0018
359 2 31.5568 19.5045 12.206
360 2 35.494 19.6632 12.1889
361 2 -0.0780163 23.4305 12.1809
362 2 3.73423 23.5264 12.1827
363 2 7.768 23.6124 12.3707
364 2 11.8418 23.8727 12.2308
365 2 15.4815 23.5258 12.1743
366 2 19.6006 23.547 12.0679
367 2 23.6346 23.7316 12.6274
368 2 27.7701 23.5808 12.2325
369 2 31.6658 23.6092 12.1731
370 2 35.5513 23.389 12.1088
371 2 39.4714 27.6363 12.2854
372 2 3.84789 27.5163 12.1259
373 2 7.98569 27.6301 12.2748
374 2 11.9982 27.7477 12.1535
375 2 15.7066 27.5035 11.9494
376 2 19.5226 27.467 12.2977
377 2 23.7264 27.5535 12.1588
378 2 27.6232 27.7144 12.3002
379 2 31.4708 27.5494 12.0286
380 2 35.7027 27.4249 12.2335
381 2 0.0393343 31.3625 12.1282
382 2 3.94682 31.5356 12.2497
383 2 7.77279 31.5084 12.1467
384 2 12.0279 31.3921 12.2129
385 2 15.7909 31.619 12.1263
386 2 19.5827 31.6814 12.4077
387 2 23.6392 31.5056 12.1061
388 2 27.6504 31.5537 12.2281
389 2 31.7476 31.5334 12.4479
390 2 35.4994 31.5818 12.0576
391 2 39.4122 35.2505 12.1573
392 2 3.68622 35.5959 12.1052
393 2 7.63157 35.4568 12.2678
394 2 11.8861 35.4738 12.1701
395 2 15.8603 35.3271 12.173
396 2 19.8115 35.3577 12.2035
397 2 23.8077 35.3383 12.1512
398 2 27.7243 35.4024 12.3566
399 2 31.565 35.5128 12.2369
400 2 35.6895 35.5518 12.1773
401 2 -0.0479663 39.4415 16.3419
402 2 3.80991 39.5655 16.2307
403 2 7.78374 39.2933 16.0851
404 2 11.6816 0.160894 16.3228
405 2 15.8087 39.5213 16.2997
406 2 19.7672 39.5565 16.2876
407 2 23.9667 -0.106952 16.2313
408 2 27.8906 39.478 16.1485
409 2 31.6391 39.4554 16.1917
410 2 35.6539 39.3382 16.2888
411 2 39.8346 3.71683 16.1973
412 2 3.85933 3.74293 16.1493
413 2 7.77215 3.82693 16.2137
414 2 11.885 3.8405 16.1857
415 2 15.8321 3.7528 16.162
416 2 19.9217 3.8519 16.2106
417 2 23.7977 3.80536 16.1619
418 2 27.685 4.0045 16.3256
419 2 31.4763 3.68596 16.0606
420 2 35.6682 3.77864 16.1905
421 2 -0.146416 8.00497 16.1834
422 2 3.95033 7.85004 16.1439
423 2 7.83801 7.97985 16.1422
424 2 11.8662 7.80675 16.1876
425 2 15.8226 7.65499 16.0165
426 2 19.8946 7.54296 16.142
427 2 23.6158 7.58413 16.1505
428 2 27.7267 7.74072 16.2149
429 2 31.8308 7.86444 16.298
430 2 35.7219 7.73334 16.2523
431 2 39.6842 11.6556 16.2279
432 2 3.88297 11.6783 16.293
433 2 8.02474 11.9306 16.1388
434 2 11.8219 11.6993 16.1671
435 2 15.708 11.6516 15.9876
436 2 19.7069 11.4982 16.1364
437 2 23.805 11.5363 16.1149
438 2 27.6923 11.5946 16.2544
439 2 31.6428 11.6642 16.2127
440 2 35.6353 11.8435 16.3328
441 2 0.0664265 15.6827 16.1876
442 2 4.03849 15.8351 16.3135
443 2 7.97725 15.7861 16.2854
444 2 12.0113 15.6983 16.2166
445 2 15.9254 15.6417 16.1908
446 2 19.7092 15.7162 16.2956
447 2 23.8092 15.493 16.0832
448 2 27.7186 15.6237 16.1021
449 2 31.4896 15.4727 15.9512
450 2 35.4807 15.4499 16.2538
451 2 39.5449 19.5896 16.3728
452 2 3.99363 19.5114 16.1387
453 2 7.87792 19.7244 16.13
454 2 11.7764 19.7616 16.2347
455 2 15.7836 19.5558 15.983
456 2 19.7908 19.6805 16.1685
457 2 23.6888 19.6549 16.1768
458 2 27.8047 19.4461 15.9723
459 2 31.7348 19.5142 16.2592
460 2 35.6472 19.5011 16.1115
461 2 39.4391 23.6647 16.3548
462 2 3.72539 23.8929 16.2358
463 2 7.91439 23.6846 16.2523
464 2 11.8601 23.7358 16.1042
465 2 15.7095 23.8198 16.296
466 2 19.9502 23.6034 16.0249
467 2 23.8014 23.464 16.2524
468 2 27.8086 23.5313 16.2385
469 2 31.6236 23.5345 16.3453
470 2 35.6275 23.558 16.1343
471 2 0.0752252 27.4891 16.0594
472 2 3.9065 27.5097 16.0423
473 2 7.96975 27.4419 16.1709
474 2 11.9367 27.7598 16.0794
475 2 15.7113 27.703 16.3477
476 2 19.7413 27.4946 16.0957
477 2 23.7616 27.3545 16.1075
478 2 27.7606 27.6102 16.2877
479 2 31.5559 27.5321 16.0813
480 2 35.798 27.6974 16.1269
481 2 0.0235393 31.5193 16.0767
482 2 3.9912 31.5577 16.2884
483 2 8.11676 31.5817 16.2216
484 2 12.0449 31.6441 16.3163
485 2 16.0897 31.3607 16.0971
486 2 19.9376 31.4846 16.1812
487 2 23.744 31.5119 16.252
488 2 27.5682 31.2393 15.9926
489 2 31.7201 31.4265 16.3087
490 2 35.843 31.5222 16.288
491 2 -0.078034 35.6479 16.1434
492 2 3.96443 35.457 16.1234
493 2 8.04626 35.4596 16.2229
494 2 11.8241 35.6393 16.136
495 2 15.8723 35.5495 16.2631
496 2 19.9954 35.4144 16.0906
497 2 23.754 35.1968 16.1768
498 2 27.7291 35.5775 16.3943
499 2 31.6697 35.5042 16.2949
500 2 35.481 35.2656 16.288
501 2 0.0967147 39.4357 20.1503
502 2 4.03019 39.5803 20.1449
503 2 7.88882 39.4031 20.2197
504 2 11.9834 39.3423 20.2257
505 2 15.8916 39.3676 20.0283
506 2 19.7681 39.6772 20.0741
507 2 23.7242 39.4985 20.0909
508 2 27.7182 39.3974 20.123
509 2 31.6631 39.4779 20.221
510 2 35.6667 39.5302 20.1834
511 2 -0.000177374 3.84569 20.2008
512 2 4.0448 3.92704 20.1943
513 2 8.07042 3.93091 20.1761
514 2 11.8868 3.74295 20.1663
515 2 15.9726 3.96835 20.0325
516 2 19.8037 3.85066 20.1392
517 2 23.8622 3.76664 20.324
518 2 27.908 4.04142 20.2996
519 2 31.7946 3.75477 20.1194
520 2 35.8251 3.83917 20.2599
521 2 0.121216 7.80841 20.1012
522 2 4.05838 7.82821 20.34
523 2 7.92148 7.64144 19.9943
524 2 11.9345 7.8375 20.0221
525 2 16.0554 7.85201 20.0925
526 2 19.8527 7.66412 20.1733
527 2 23.9264 7.9059 20.1897
528 2 27.7606 7.94383 20.101
529 2 31.8267 7.82532 20.3356
530 2 35.6372 7.75616 20.2795
531 2 0.121736 11.499 20.1515
532 2 3.9764 11.7547 20.1879
533 2 7.85618 11.663 20.0723
534 2 11.9389 11.5363 20.1911
535 2 15.9005 11.7475 20.1643
536 2 19.9202 11.6631 19.9289
537 2 23.9584 11.9336 20.2121
538 2 27.7888 11.8245 20.3096
539 2 31.5311 11.8201 20.3549
540 2 35.9494 11.8778 20.1903
541 2 0.152829 15.669 20.1412
542 2 3.93201 15.6758 20.0925
543 2 7.87672 15.562 20.2417
544 2 11.9103 15.6427 20.1054
545 2 15.8379 15.7326 20.0998
546 2 20.0033 15.5527 20.162
547 2 23.9891 15.8242 20.1242
548 2 27.7698 15.5743 20.0806
549 2 31.6787 15.7626 20.2363
550 2 35.7839 15.6493 20.2654
551 2 39.5225 19.6594 20.0211
552 2 4.17591 19.6979 20.2247
553 2 8.19007 19.5364 20.2834
554 2 12.031 19.6847 20.134
555 2 15.7186 19.6918 20.1863
556 2 19.6276 19.711 20.2158
557 2 23.9548 19.472 20.1114
558 2 27.7193 19.6302 20.0274
559 2 31.5147 19.8028 20.1571
560 2 35.5202 19.7419 20.1535
561 2 39.687 23.7042 20.0205
562 2 4.07141 23.7608 20.3461
563 2 8.20374 23.7282 20.224
564 2 12.1742 23.7149 20.3361
565 2 15.9502 23.8076 20.0906
566 2 19.7169 23.6658 20.1094
567 2 23.8082 23.5367 20.0393
568 2 27.7332 23.8418 20.1769
569 2 31.6938 23.7965 20.1791
570 2 35.7191 23.8532 20.1307
571 2 39.6692 27.7056 20.1907
572 2 4.13816 27.6029 20.103
573 2 7.93109 27.54 20.0625
574 2 11.8856 27.5609 20.2948
575 2 15.8009 27.4929 20.1661
576 2 19.4607 27.6232 20.134
577 2 23.5037 27.4514 20.1062
578 2 27.3928 27.7688 20.1829
579 2 31.421 27.8195 20.118
580 2 35.6372 27.7246 20.1696
581 2 39.5643 31.6843 20.293
582 2 3.73328 31.3881 20.2667
583 2 7.97868 31.3704 20.1523
584 2 12.0502 31.6316 20.2453
585 2 15.7352 31.5923 20.0787
586 2 19.8261 31.5892 20.3617
587 2 23.7565 31.4764 20.2913
588 2 27.7203 31.5561 19.8872
589 2 31.4925 31.6862 20.1623
590 2 35.7474 31.5251 20.2671
591 2 0.0823022 35.4149 20.0664
592 2 4.11697 35.4774 20.0643
593 2 8.02991 35.4813 20.1245
594 2 12.0813 35.489 20.1536
595 2 15.9471 35.3741 20.2228
596 2 19.8438 35.6137 20.2541
597 2 23.6751 35.7799 20.16
598 2 27.8062 35.4908 20.2174
599 2 31.8965 35.4169 20.2188
600 2 35.6542 35.4273 20.1619
601 2 0.160744 39.5263 24.0181
602 2 3.9575 39.4128 24.2695
603 2 7.77025 39.5988 24.1255
604 2 12.1357 0.0738068 23.9578
605 2 16.031 -0.0817097 24.057
606 2 19.9511 39.5639 23.9634
607 2 23.9105 39.6622 24.0334
608 2 27.985 39.5833 24.0707
609 2 31.8287 39.63 24.1893
610 2 35.6268 39.5086 24.2515
611 2 39.6653 3.91993 24.1168
612 2 4.14084 4.02575 24.1182
613 2 8.06346 3.84467 24.1736
614 2 11.9408 3.92577 24.0692
615 2 16.0712 3.84383 24.2334
616 2 19.888 4.17432 24.1616
617 2 23.9051 3.99023 24.1636
618 2 27.873 4.11405 24.1362
619 2 31.7259 3.88275 24.2758
620 2 35.9274 3.95808 24.2034
621 2 0.179684 8.01419 23.9849
622 2 4.12548 7.75923 24.2326
623 2 8.21351 7.83151 24.1117
624 2 12.1704 7.7892 24.0332
625 2 15.951 7.85593 24.1235
626 2 19.8908 8.14734 24.105
627 2 23.8597 8.10217 24.053
628 2 27.7444 7.84377 24.3096
629 2 31.9001 7.87339 24.0279
630 2 35.7587 8.04467 24.1371
631 2 39.6398 11.7929 24.267
632 2 4.18131 11.8323 24.1816
633 2 8.13512 11.7575 24.2269
634 2 12.2137 11.7607 24.112
635 2 16.1754 11.8036 23.9779
636 2 19.9116 11.9005 24.0055
637 2 23.784 11.9716 23.9542
638 2 27.8131 11.7996 24.1914
639 2 31.7584 11.8717 24.1184
640 2 35.6927 11.8048 24.1483
641 2 39.4621 15.8521 24.1368
642 2 3.84584 15.7466 24.1592
643 2 7.99401 15.732 24.2698
644 2 12.1074 15.6819 24.1757
645 2 15.9878 15.755 23.9769
646 2 19.9634 15.7218 24.0256
647 2 23.9943 15.9541 24.2009
648 2 27.7425 15.9223 24.078
649 2 31.8078 15.6706 24.0235
650 2 35.7448 16.003 24.0744
651 2 0.306936 19.9069 24.0238
652 2 3.9168 19.7887 24.1341
653 2 7.81075 19.5829 24.037
654 2 11.8186 19.6386 24.1922
655 2 15.993 19.7482 24.0565
656 2 19.6201 19.6663 24.1032
657 2 23.7103 19.766 24.1064
658 2 27.9994 19.8187 23.9285
659 2 31.735 19.7592 23.9818
660 2 35.8176 19.6851 24.0283
661 2 0.174388 23.6653 24.0551
662 2 4.07736 23.7285 24.2066
663 2 8.01943 23.5924 24.0259
664 2 12.0376 23.5138 24.2059
665 2 15.9371 23.79 24.2895
666 2 19.8862 23.7188 24.0064
667 2 23.8382 23.6111 23.9959
668 2 27.8141 23.6443 24.2297
669 2 31.8402 23.736 24.0941
670 2 35.785 23.6003 24.1749
671 2 39.6259 27.7547 24.2819
672 2 4.17752 27.6783 24.0878
673 2 7.98274 27.5992 24.2321
674 2 11.8689 27.7203 24.0433
675 2 15.8144 27.7325 24.1844
676 2 19.8814 27.5535 24.1927
677 2 23.7161 27.6385 24.1025
678 2 27.6582 27.7108 24.275
679 2 31.5751 27.6414 24.091
680 2 35.548 27.8645 24.1169
681 2 0.032078 31.6283 24.381
682 2 4.22459 31.5242 24.1387
683 2 8.23231 31.6481 24.1613
684 2 12.1418 31.6072 24.1261
685 2 16.0151 31.5526 24.2655
686 2 19.7913 31.7229 24.1675
687 2 23.8379 31.6711 24.1219
688 2 27.7657 31.6505 24.2298
689 2 31.6284 31.7155 24.0987
690 2 35.6882 31.7198 24.1706
691 2 0.103965 35.6861 24.2305
692 2 4.03314 35.3589 24.2381
693 2 8.17949 35.6402 24.1879
694 2 12.1634 35.5424 24.0882
695 2 15.9963 35.7343 24.3196
696 2 19.9222 35.5647 24.0488
697 2 23.8963 35.5426 24.2727
698 2 27.9039 35.6628 24.2764
699 2 31.8204 35.6756 24.1124
700 2 35.859 35.6145 24.1062
701 2 0.119755 39.854 27.9999
702 2 4.06781 0.11961 28.0258
703 2 8.03672 39.7256 28.1174
704 2 12.0093 39.8615 28.0865
705 2 15.9583 39.4784 28.0879
706 2 19.9176 39.6755 27.9861
707 2 23.9224 39.4939 28.1372
708 2 27.9333 39.6765 28.117
709 2 31.7878 39.4475 28.0573
710 2 35.7395 39.6315 28.0286
711 2 0.147822 4.13967 28.0981
712 2 4.09541 4.07997 28.1142
713 2 7.9416 3.89662 28.1017
714 2 12.0538 4.13266 28.2022
715 2 15.9011 3.92119 28.2928
716 2 20.1586 3.99541 27.9625
717 2 23.953 3.7692 28.1271
718 2 27.9084 4.01245 28.3327
719 2 31.9355 4.13192 28.1653
720 2 35.7763 3.93947 28.0683
721 2 0.223308 8.0692 28.0002
722 2 4.28162 7.8249 28.0944
723 2 8.12033 7.99386 28.2359
724 2 11.9467 7.98384 28.096
725 2 15.7975 7.78024 28.2602
726 2 19.8671 8.08256 28.2076
727 2 23.7556 7.97184 28.0456
728 2 27.8981 7.97966 28.2627
729 2 31.7903 8.06069 28.142
730 2 35.7489 8.02197 28.1005
731 2 0.0746325 12.0155 28.1804
732 2 4.02229 11.955 28.2016
733 2 8.09226 11.9124 28.1596
734 2 11.9009 11.9672 28.0714
735 2 15.8636 11.8272 28.1144
736 2 19.8083 11.9332 28.2534
737 2 23.9414 11.9622 28.1148
738 2 27.9502 11.7484 28.1388
739 2 31.8579 11.8663 28.2307
740 2 35.5659 11.8042 28.1905
741 2 -0.0579639 15.749 28.2622
742 2 4.11854 15.941 28.0409
743 2 8.17509 15.7264 28.0254
744 2 12.0918 15.7818 28.1267
745 2 16.1468 15.7905 27.9844
746 2 19.9641 15.6847 28.118
747 2 23.923 15.8657 28.0553
748 2 27.7817 15.7782 28.0479
749 2 31.6592 16.0357 28.0218
750 2 35.7024 15.7613 28.059
751 2 0.0709717 19.786 28.181
752 2 3.94393 19.6239 28.0302
753 2 8.16056 19.7614 28.018
754 2 11.9645 19.7682 27.9837
755 2 15.7862 19.8062 28.2382
756 2 19.7309 19.7566 28.1508
757 2 23.6922 19.6789 28.0516
758 2 27.853 19.9957 27.9318
759 2 31.7567 19.7417 28.0334
760 2 35.5042 20.0729 27.8264
761 2 -0.134096 23.729 28.2298
762 2 4.09076 23.7545 28.1595
763 2 8.15526 23.5986 28.1718
764 2 12.1055 23.7487 28.1155
765 2 15.87 23.7606 28.229
766 2 19.9526 23.8586 28.17
767 2 23.9728 23.6544 28.0559
768 2 27.7874 23.8112 28.0858
769 2 31.7242 23.7568 28.2333
770 2 35.6726 23.6846 28.1009
771 2 39.7096 27.7822 28.1436
772 2 4.25263 27.6031 27.96
773 2 8.08907 27.7336 28.233
774 2 11.8863 27.6033 28.1938
775 2 15.9923 27.7558 27.9936
776 2 20.0748 27.6023 27.9432
777 2 23.7737 27.8317 28.1296
778 2 27.8936 27.5183 28.201
779 2 31.9019 27.7778 28.0068
780 2 35.6977 27.6334 27.9999
781 2 0.107165 31.4618 28.0986
782 2 4.09507 31.9075 28.0164
783 2 7.92394 31.8686 28.055
784 2 12.021 31.5578 28.0419
785 2 16.1616 31.7548 28.1333
786 2 20.0727 31.7303 27.9584
787 2 23.9736 31.7136 28.0494
788 2 27.8544 31.6011 28.2373
789 2 31.7533 31.7723 28.1224
790 2 35.6375 31.7519 27.9873
791 2 0.119578 35.7819 28.1949
792 2 3.97716 35.8719 28.191
793 2 7.93545 35.7664 28.1881
794 2 11.9427 35.7818 27.9185
795 2 15.98 35.562 28.1671
796 2 19.7443 35.7824 28.1733
797 2 23.8826 35.6176 28.1739
798 2 27.7829 35.7734 28.1642
799 2 31.6128 35.6691 28.1283
800 2 35.8692 35.5601 28.0849
801 2 0.221477 39.5814 32.2674
802 2 4.06918 0.254346 32.1331
803 2 8.1206 -0.0651041 32.0501
804 2 12.026 39.7392 31.9891
805 2 16.0183 0.146764 32.0622
806 2 20.0172 0.181992 32.1154
807 2 23.862 39.7255 31.9496
808 2 28.0193 39.6987 32.1945
809 2 32.0004 39.6503 32.0095
810 2 35.7559 39.4985 32.2971
811 2 0.199469 3.96901 32.1069
812 2 4.00236 4.19475 32.2536
813 2 8.11694 4.12838 32.212
814 2 12.0318 4.05328 32.131
815 2 16.0116 3.96566 32.1705
816 2 19.9958 4.10107 31.8927
817 2 23.997 4.15665 31.9415
818 2 27.8399 4.18392 32.0963
819 2 31.6907 4.13218 32.1913
820 2 35.8814 3.96591 32.0366
821 2 39.5993 7.98746 32.0797
822 2 4.25683 7.89582 32.0205
823 2 7.81905 8.11086 31.9872
824 2 11.9369 8.13622 32.2825
825 2 15.8851 7.89521 32.2082
826 2 20.1452 7.99239 31.9323
827 2 23.9615 7.95427 32.03
828 2 27.7545 8.01215 32.2366
829 2 31.6874 8.11198 32.2524
830 2 35.7685 8.0125 31.9682
831 2 -0.0119768 11.9466 32.2354
832 2 3.9424 11.8878 32.123
833 2 7.87607 12.1151 32.0926
834 2 11.8494 12.1922 32.2331
835 2 16.074 11.9006 32.3008
836 2 19.9539 11.7944 32.1386
837 2 23.8839 11.8182 32.1042
838 2 27.6628 11.9754 31.9063
839 2 31.6237 11.9071 32.1562
840 2 35.6678 11.8127 32.1745
841 2 0.0348543 15.9279 31.9932
842 2 3.92669 15.7922 32.1547
843 2 8.08341 15.8857 32.0952
844 2 11.9252 16.0141 32.1581
845 2 15.8996 15.8655 32.131
846 2 19.7991 15.9542 32.3206
847 2 24.0085 15.999 32.0095
848 2 27.8112 15.8697 32.1353
849 2 31.9314 15.9276 31.914
850 2 35.7451 15.9787 31.9922
851 2 0.109555 19.8295 32.0721
852 2 3.84066 19.8686 32.1643
853 2 7.77388 19.9233 32.1025
854 2 11.9896 19.9319 32.2024
855 2 16.0587 19.8724 32.0855
856 2 19.7539 20.0164 32.1231
857 2 23.9079 19.8876 32.3318
858 2 27.8367 19.9951 32.2383
859 2 31.5591 19.9051 32.0367
860 2 35.8403 19.8202 32.0246
861 2 0.0458005 23.8894 32.157
862 2 4.17513 23.9677 32.1156
863 2 7.95371 23.8418 32.2149
864 2 11.8577 23.8511 32.1305
865 2 16.03 23.8197 32.1528
866 2 19.7333 23.7044 32.2843
867 2 23.7631 23.709 32.004
868 2 27.8615 23.8106 32.1492
869 2 31.8147 23.782 32.056
870 2 35.6517 23.9351 32.2075
871 2 0.0294443 27.845 31.9065
872 2 3.9152 27.7866 32.0479
873 2 7.91908 27.7969 32.1566
874 2 11.9125 27.9273 32.0526
875 2 15.9972 27.8153 31.9714
876 2 19.8279 27.6153 32.0298
877 2 23.9151 27.923 32.0557
878 2 27.6727 27.7472 32.0078
879 2 31.7044 27.8923 32.1597
880 2 35.5913 28.1213 31.9498
881 2 0.142183 31.7198 31.9592
882 2 4.09048 31.7803 32.2275
883 2 8.01743 31.9491 32.0239
884 2 11.8103 31.8465 32.1378
885 2 16.0591 31.573 32.1226
886 2 19.9688 31.7127 31.9936
887 2 23.8773 31.7004 32.1862
888 2 27.7541 31.7519 32.1689
889 2 31.6234 31.6715 32.175
890 2 35.6052 31.9583 32.2273
891 2 0.199285 35.8581 31.9259
892 2 4.06448 35.7997 31.97
893 2 8.0652 35.6549 31.9578
894 2 11.9448 35.8678 31.8756
895 2 16.1158 35.8532 32.0469
896 2 19.8513 35.7193 32.1764
897 2 23.9093 35.7943 32.1121
898 2 27.7821 35.6611 32.2212
899 2 31.6932 35.8155 32.1966
900 2 35.7352 35.631 32.119
901 2 0.314997 0.170165 36.0243
902 2 4.09206 0.156603 35.9749
903 2 8.12984 0.00943796 36.0797
904 2 11.8579 0.00038255 36.1682
905 2 15.8522 0.0231666 35.8859
906 2 19.8801 0.245766 36.159
907 2 24.1099 39.7658 35.9541
908 2 27.9464 39.8721 35.8493
909 2 31.8423 0.275874 36.0956
910 2 35.8861 0.142165 36.0704
911 2 0.00889445 4.11008 36.0463
912 2 3.93495 4.01088 35.9758
913 2 7.99557 4.23934 36.1085
914 2 12.015 4.15816 36.0041
915 2 16.0249 4.14528 36.1056
916 2 20.0437 4.11784 36.0532
917 2 23.865 4.11222 36.0984
918 2 27.9372 4.10681 36.2254
919 2 31.8059 4.16838 36.201
920 2 35.5991 4.18526 35.9467
921 2 0.00212615 8.16234 36.0327
922 2 3.98742 7.98009 36.2056
923 2 8.03935 8.11191 36.0091
924 2 11.8999 8.02473 36.2393
925 2 15.9619 7.83545 36.0477
926 2 19.8478 8.0935 35.9515
927 2 23.8879 8.11375 36.0681
928 2 27.7444 8.09592 36.1291
929 2 31.7919 7.97227 35.9149
930 2 35.5617 8.2196 36.0561
931 2 0.0980057 11.9429 36.1884
932 2 4.10612 11.902 36.1196
933 2 8.01758 12.1597 35.809
934 2 12.196 12.1783 35.9398
935 2 15.9543 11.8986 36.1282
936 2 19.9223 11.8663 36.1181
937 2 23.7063 12.0869 36.0909
938 2 27.6865 12.0076 36.1281
939 2 31.786 12.1765 36.1985
940 2 35.7455 12.0811 35.9952
941 2 0.0543071 15.8354 36.0651
942 2 4.02519 15.7065 36.2025
943 2 7.7944 15.8777 36.1878
944 2 11.9192 16.0257 36.1525
945 2 15.9545 16.0411 36.169
946 2 20.2142 15.7331 36.1852
947 2 24.038 16.0366 36.1324
948 2 27.9673 16.0614 36.1529
949 2 32.0076 15.9796 35.9662
950 2 35.7466 15.8068 36.1723
951 2 -0.130329 19.9016 36.1376
952 2 3.6991 19.764 36.0621
953 2 7.72633 19.8121 36.2662
954 2 11.9658 19.8468 35.9302
955 2 15.8656 19.7393 36.2417
956 2 19.7127 19.8316 36.0449
957 2 23.5956 20.0841 36.0827
958 2 27.7836 19.8658 36.1471
959 2 31.7366 19.8305 35.9956
960 2 35.6343 19.7813 36.0252
961 2 -0.0721526 23.8501 35.973
962 2 3.77857 23.8704 36.1884
963 2 7.81298 23.803 36.0542
964 2 11.776 23.9745 35.9067
965 2 15.6374 23.8902 35.909
966 2 19.6362 23.7685 36.0003
967 2 23.6796 23.8138 36.1431
968 2 27.7522 23.9742 35.9686
969 2 31.7891 23.6795 36.2189
970 2 35.4509 23.9862 36.1428
971 2 -0.00203488 27.9243 36.2405
972 2 3.86743 28.0425 36.0553
973 2 8.09157 27.8113 35.9693
974 2 11.9759 27.8138 36.1926
975 2 15.8053 27.9187 36.0231
976 2 19.8717 27.6834 36.1032
977 2 23.6533 27.9187 36.0125
978 2 27.7297 27.8479 36.0864
979 2 31.4892 27.8694 36.0435
980 2 35.6137 27.9614 35.9564
981 2 0.0878309 31.915 36.1074
982 2 3.8582 31.8852 36.1727
983 2 7.84057 31.8093 36.0648
984 2 11.8686 31.8962 36.0931
985 2 15.832 31.8663 35.9303
986 2 19.9495 31.687 35.9358
987 2 23.8192 31.9279 36.0819
988 2 27.6057 31.6713 36.2599
989 2 31.6223 31.8927 36.2744
990 2 35.7338 31.8454 35.9747
991 2 0.0253487 35.7532 36.2072
992 2 4.07539 35.6976 36.082
993 2 7.84786 35.8579 36.015