ITEM: TIMESTEP
29500
ITEM: NUMBER OF ATOMS
7500
ITEM: BOX BOUNDS xy xz yz pp pp pp
0.0000000000000000e+00 3.9579999999999998e+01 0.0000000000000000e+00
0.0000000000000000e+00 3.9579999999999998e+01 0.0000000000000000e+00
-3.5692821006410469e-02 5.9735692821007042e+01 0.0000000000000000e+00
ITEM: ATOMS id type x y z
1 2 39.6387 39.3183 0.316702
2 2 3.85111 -0.0107874 0.339218
3 2 7.90772 -0.0196283 0.316082
4 2 11.6972 -0.0420573 0.106588
5 2 15.733 39.5496 0.236012
6 2 19.7219 0.00496524 0.20606
7 2 23.5255 -0.103798 0.276434
8 2 27.5754 39.5604 0.132806
9 2 31.3044 39.4773 0.223165
10 2 35.6172 39.5428 0.366842
11 2 39.4422 3.87628 0.488845
12 2 3.90313 3.88597 0.0793296
13 2 7.83701 3.98379 0.285857
14 2 11.8596 3.69514 0.0357977
15 2 15.6956 3.8719 0.32304
16 2 19.639 3.93368 0.301946
17 2 23.5358 3.94388 0.292519
18 2 27.5064 3.81594 0.336738
19 2 31.6286 3.63641 0.280618
20 2 35.4739 3.75306 0.211102
21 2 39.4186 7.81152 0.226457
22 2 3.96993 7.8886 0.289195
23 2 7.77645 7.90046 0.30158
24 2 11.8838 7.92568 59.8955
25 2 15.9037 7.92094 0.131538
26 2 19.6624 7.81178 0.00105191
27 2 23.6884 7.90283 0.268814
28 2 27.708 7.63758 0.143484
29 2 31.529 7.61542 0.174552
30 2 35.5481 7.95566 0.197201
31 2 39.6647 11.9199 0.358765
32 2 3.91326 11.7567 0.149605
33 2 7.91196 11.7925 0.139524
34 2 11.8653 11.8119 0.172867
35 2 15.6691 11.8745 0.154879
36 2 19.5542 11.8285 0.096781
37 2 23.5945 11.7195 0.476669
38 2 27.5965 11.5817 0.211545
39 2 31.5375 11.7507 0.184411
40 2 35.5964 11.928 0.282829
41 2 39.6638 15.9386 0.133865
42 2 4.09192 15.8275 0.346724
43 2 8.0414 15.6609 0.135169
44 2 11.9114 15.9224 0.336557
45 2 15.7246 15.7897 0.172706
46 2 19.8511 15.7696 0.243845
47 2 23.6906 15.6535 0.1791
48 2 27.6886 15.5342 0.121993
49 2 31.5136 15.715 0.141985
50 2 35.4581 15.9938 0.324194
51 2 39.2872 19.6656 0.209812
52 2 3.69987 19.812 0.291857
53 2 7.69 19.7055 0.188005
54 2 11.7811 19.6407 0.31051
55 2 15.6875 19.7917 0.265852
56 2 19.6554 19.6935 0.285993
57 2 23.5798 19.6855 0.209792
58 2 27.5877 19.5471 0.238673
59 2 31.5118 19.5701 0.130648
60 2 35.5316 19.7507 0.229723
61 2 39.4078 23.5117 0.133897
62 2 3.91943 23.6885 0.283653
63 2 7.66834 23.7635 0.24771
64 2 11.8533 23.7036 0.186579
65 2 15.7677 23.7725 0.0886525
66 2 19.867 23.7758 0.388665
67 2 23.5762 23.6558 0.0548091
68 2 27.5179 23.805 0.226875
69 2 31.4792 23.7262 0.0302804
70 2 35.4891 23.7193 0.296061
71 2 39.389 27.7806 0.385982
72 2 3.78594 27.5848 0.224922
73 2 7.70436 27.6296 0.268576
74 2 11.6666 27.81 0.174339
75 2 15.6916 27.6944 0.201985
76 2 19.7275 27.4593 0.226001
77 2 23.6205 27.7105 0.339191
78 2 27.6154 27.6472 0.152349
79 2 31.5897 27.5727 0.355717
80 2 35.4872 27.5431 0.160777
81 2 39.5228 31.4834 0.359746
82 2 3.8523 31.6096 0.302544
83 2 7.794 31.6491 0.223302
84 2 11.9584 31.6816 0.207926
85 2 15.7373 31.5902 0.340468
86 2 19.7799 31.6048 0.207242
87 2 23.5617 31.6448 0.0783281
88 2 27.4756 31.5575 0.228438
89 2 31.5139 31.5489 0.142257
90 2 35.5976 31.7997 0.25567
91 2 39.4898 35.379 0.195852
92 2 3.97816 35.6767 0.105324
93 2 7.64751 35.7828 0.152134
94 2 11.6317 35.8414 0.117169
95 2 15.6338 35.4929 0.224309
96 2 19.6986 35.5386 0.048554
97 2 23.6186 35.6078 0.217802
98 2 27.635 35.5309 0.223759
99 2 31.6239 35.7087 0.207754
100 2 35.2333 35.5126 0.291226
101 2 39.6242 -0.119377 4.28271
102 2 3.72533 39.5563 4.26131
103 2 7.92146 0.0192952 4.56528
104 2 11.7536 -0.0160531 4.2055
105 2 15.8475 -0.232392 4.04291
106 2 19.8147 39.3669 4.18311
107 2 23.737 39.6062 4.26749
108 2 27.6218 39.4749 4.07906
109 2 31.3869 -0.149596 4.3133
110 2 35.4692 39.3539 4.3179
111 2 39.296 3.87896 4.27106
112 2 3.80777 3.92045 4.08123
113 2 7.71685 3.75232 4.36743
114 2 11.899 3.97415 4.14309
115 2 15.9236 4.12613 4.04684
116 2 19.7766 3.91676 4.2215
117 2 23.6447 3.9539 4.31313
118 2 27.4938 3.86139 4.25047
119 2 31.6413 3.95092 4.31444
120 2 35.5727 3.72651 4.15239
121 2 0.0172496 7.73126 4.17125
122 2 3.9285 7.86242 4.17219
123 2 7.84735 7.76313 4.30163
124 2 11.8898 8.00567 4.10215
125 2 15.6309 7.98896 4.12305
126 2 19.6477 7.92751 4.23415
127 2 23.6433 7.78457 4.17537
128 2 27.6665 7.73689 4.20242
129 2 31.3999 7.95623 4.25232
130 2 35.5812 8.05476 4.27681
131 2 39.5165 11.816 4.22759
132 2 3.85768 11.8235 4.15508
133 2 8.0056 11.6007 4.16898
134 2 11.8939 12.0363 4.36841
135 2 16.0005 11.9206 4.11301
136 2 19.9347 11.8085 4.21326
137 2 23.7954 11.7948 4.25737
138 2 27.5275 11.7687 4.18544
139 2 31.6405 11.8764 4.07385
140 2 35.6483 11.9353 4.10738
141 2 39.2738 15.7384 4.3162
142 2 3.90354 15.5787 4.01012
143 2 7.87525 15.6642 4.30703
144 2 11.7956 15.8818 4.38075
145 2 15.8259 15.7005 4.273
146 2 19.7644 15.73 4.25153
147 2 23.4972 15.7394 4.15937
148 2 27.6311 15.7369 4.15037
149 2 31.61 15.7272 4.17742
150 2 35.4894 15.7325 4.19587
151 2 0.0320555 19.7084 4.22792
152 2 3.80212 19.4853 4.11199
153 2 7.67434 19.8831 4.2379
154 2 11.6863 19.7576 3.96787
155 2 15.7954 19.6397 4.09192
156 2 19.5001 19.642 4.01739
157 2 23.8715 19.6805 4.17729
158 2 27.405 19.7557 4.09357
159 2 31.437 19.732 4.22238
160 2 35.2611 19.7827 4.20471
161 2 39.6514 23.5949 4.31987
162 2 3.85574 23.7205 4.23491
163 2 7.86976 23.7927 4.28786
164 2 11.8383 23.5658 4.2117
165 2 15.6531 23.4188 4.07874
166 2 19.8438 23.6434 4.10528
167 2 23.7878 23.6119 4.33622
168 2 27.6023 23.5285 4.1563
169 2 31.4878 23.6515 4.19747
170 2 35.4945 23.7692 4.18342
171 2 39.2006 27.7262 4.14695
172 2 3.73645 27.5936 4.31183
173 2 7.79035 27.8761 4.43117
174 2 11.6015 27.7134 4.23862
175 2 15.8098 27.5523 4.2275
176 2 19.7095 27.713 4.11628
177 2 23.6154 27.7851 4.31762
178 2 27.5996 27.5807 4.15672
179 2 31.5892 27.5815 4.17513
180 2 35.4041 27.5379 4.13029
181 2 0.0633667 31.5414 4.22205
182 2 3.87065 31.7195 4.26039
183 2 7.91779 31.6386 4.18454
184 2 11.6513 31.6322 4.39604
185 2 15.9245 31.6097 4.17805
186 2 19.5396 31.8569 4.2361
187 2 23.5874 31.5423 4.28819
188 2 27.5779 31.6548 4.09038
189 2 31.3614 31.3505 4.13827
190 2 35.4042 31.4672 4.09675
191 2 -0.252515 35.6253 4.24808
192 2 3.80366 35.5046 4.22653
193 2 7.93924 35.5471 4.24113
194 2 11.7028 35.462 4.38012
195 2 15.6012 35.3478 4.18892
196 2 19.8738 35.7367 4.19797
197 2 23.581 35.5609 4.43001
198 2 27.5919 35.4736 4.06048
199 2 31.6354 35.4113 4.22915
200 2 35.5391 35.6252 4.31708
201 2 39.5613 39.3449 8.22184
202 2 3.75995 39.4826 8.17079
203 2 7.85672 39.5349 8.28263
204 2 11.854 -0.0594611 8.095
205 2 15.8802 -0.178113 8.00788
206 2 19.8752 39.3422 8.31891
207 2 23.7829 39.3368 8.32289
208 2 27.7413 0.00642087 8.34196
209 2 31.5237 39.3545 8.08286
210 2 35.4653 39.4878 8.38576
211 2 39.4705 3.57777 8.16849
212 2 3.91807 3.80294 8.29377
213 2 8.00271 3.91511 8.23785
214 2 11.8768 3.94952 8.27413
215 2 15.8904 3.76345 8.24529
216 2 19.6952 3.88205 8.02218
217 2 23.8403 3.78945 8.14542
218 2 27.5544 3.86827 8.4435
219 2 31.521 4.07554 8.14507
220 2 35.55 3.89572 8.10264
221 2 39.5455 7.91335 8.14227
222 2 3.98569 7.77073 8.34314
223 2 7.78235 7.79109 8.16045
224 2 11.7586 7.72385 8.1798
225 2 15.8214 7.91304 8.08986
226 2 19.6875 7.78873 8.16354
227 2 23.5929 7.8345 8.35333
228 2 27.6604 7.95819 8.0272
229 2 31.6489 7.8851 8.13602
230 2 35.6609 7.77109 8.18098
231 2 39.5117 11.7449 8.20009
232 2 3.82549 11.715 8.16547
233 2 7.84037 11.676 8.13922
234 2 11.8708 11.8174 8.38417
235 2 15.8913 11.846 8.11918
236 2 19.8344 11.795 8.26452
237 2 23.6881 11.6959 8.25463
238 2 27.7876 11.8391 8.23178
239 2 31.6145 11.6469 8.20344
240 2 35.844 11.8491 8.03667
241 2 39.4439 15.8054 8.14896
242 2 3.85363 15.6422 8.15863
243 2 7.84874 15.7822 8.0682
244 2 11.8427 15.6297 8.25637
245 2 15.7315 15.8673 8.17277
246 2 19.8094 15.5711 8.30296
247 2 23.5825 15.7411 8.18226
248 2 27.5742 15.6924 8.28081
249 2 31.4922 15.6868 7.97339
250 2 35.5582 15.6682 7.96984
251 2 39.5838 19.6988 8.43924
252 2 4.01234 19.8001 8.38052
253 2 7.7031 19.5497 8.12146
254 2 11.8292 19.5641 8.19234
255 2 15.7222 19.6984 8.17506
256 2 19.5592 19.6865 8.11066
257 2 23.6049 19.5968 8.11349
258 2 27.5656 19.5255 8.18291
259 2 31.5479 19.7254 8.20401
260 2 35.5728 19.5552 8.12306
261 2 39.4855 23.5984 8.29718
262 2 4.06758 23.7177 8.08102
263 2 7.75258 23.8958 8.18964
264 2 11.8747 23.5294 8.16713
265 2 15.7471 23.63 8.1655
266 2 19.4324 23.8402 8.18353
267 2 23.656 23.6361 7.95432
268 2 27.5464 23.8067 8.39072
269 2 31.7427 23.5233 8.28
270 2 35.5585 23.5158 8.19608
271 2 -0.0734139 27.5203 8.28998
272 2 4.0413 27.5374 8.20531
273 2 7.82759 27.7069 8.28252
274 2 11.7756 27.5502 8.32202
275 2 15.9289 27.501 8.06443
276 2 19.7918 27.6324 8.30404
277 2 23.5564 27.7723 8.07351
278 2 27.5839 27.7105 8.29686
279 2 31.8279 27.5979 8.29374
280 2 35.6713 27.5625 7.96713
281 2 0.0332762 31.6618 8.17791
282 2 3.90316 31.5508 8.22733
283 2 8.05992 31.6015 8.15879
284 2 12.1311 31.4464 8.15262
285 2 15.807 31.4669 8.24441
286 2 19.7507 31.5497 8.22864
287 2 23.8712 31.5154 8.21781
288 2 27.696 31.545 8.29234
289 2 31.6586 31.4223 7.94502
290 2 35.6429 31.597 8.20314
291 2 39.4879 35.5624 8.2237
292 2 4.02497 35.4495 8.18502
293 2 7.95804 35.55 8.10745
294 2 11.9946 35.5247 8.21938
295 2 15.8209 35.5094 8.23063
296 2 19.71 35.4444 8.18792
297 2 23.6028 35.4129 8.20973
298 2 27.5633 35.3594 7.97743
299 2 31.7636 35.4332 8.26604
300 2 35.5536 35.4247 8.21652
301 2 39.6347 39.5563 12.0366
302 2 3.80372 39.5598 12.1886
303 2 7.89888 39.5316 12.2001
304 2 11.9097 39.498 12.0736
305 2 15.9581 39.5399 12.0058
306 2 19.9523 -0.128885 12.16
307 2 23.8841 -0.298266 12.2022
308 2 27.8552 0.00409238 12.0485
309 2 31.6928 0.0357404 12.3611
310 2 35.345 39.4849 12.1384
311 2 39.4485 4.0345 12.2607
312 2 3.91586 3.99865 12.1428
313 2 7.8687 3.70183 12.1015
314 2 11.7768 3.92307 12.0751
315 2 15.7853 3.81735 12.2735
316 2 19.7513 3.74769 12.2048
317 2 23.9683 3.96021 12.3616
318 2 27.6443 3.85294 12.3137
319 2 31.5261 3.75097 12.2128
320 2 35.4318 3.83655 12.1287
321 2 39.6724 7.80282 12.2872
322 2 3.94834 8.01571 12.2107
323 2 7.94711 7.85409 12.0414
324 2 12.1121 7.95014 12.1602
325 2 15.8802 7.64471 12.2822
326 2 19.7123 7.71447 12.2018
327 2 23.5867 7.62944 12.2885
328 2 27.8009 7.62166 12.068
329 2 31.6639 7.96137 12.1121
330 2 35.5717 7.83521 12.2506
331 2 39.5695 11.8478 12.3125
332 2 3.9157 11.8891 12.0829
333 2 7.81168 11.832 12.162
334 2 11.8113 11.6742 12.1276
335 2 15.7083 11.7222 12.1276
336 2 19.7458 11.5774 12.0986
337 2 23.6019 11.4632 12.0821
338 2 27.7367 11.6713 12.1309
339 2 31.7585 11.8924 12.1395
340 2 35.6685 11.8574 12.1264
341 2 39.5682 15.7146 12.2844
342 2 4.01669 15.6372 12.3064
343 2 7.81524 15.6675 12.1826
344 2 11.7587 15.5575 12.1741
345 2 15.7799 15.6952 12.2463
346 2 19.9349 15.6468 12.1586
347 2 23.817 15.6875 12.1367
348 2 27.6322 15.5125 12.2672
349 2 31.6505 15.8711 12.375
350 2 35.5747 15.6479 12.148
351 2 -0.0989761 19.5092 12.3613
352 2 3.91623 19.6281 12.1485
353 2 7.6806 19.5799 12.1868
354 2 11.7789 19.6531 12.2725
355 2 15.6941 19.7866 12.1988
356 2 19.7825 19.5697 12.1672
357 2 23.7406 19.6236 12.1642
358 2 27.7175 19.8683 12.2702
359 2 31.6753 19.5291 12.2092
360 2 35.4515 19.5799 12.0348
361 2 -0.274713 23.4219 12.2107
362 2 3.80144 23.6861 12.1167
363 2 7.73026 23.6551 12.1678
364 2 11.6275 23.7383 12.1615
365 2 15.5871 23.8056 12.2064
366 2 19.9445 23.5587 12.2186
367 2 23.5937 23.6283 12.0226
368 2 27.6338 23.668 12.1585
369 2 31.8055 23.5784 12.2063
370 2 35.5902 23.5768 12.1601
371 2 39.5599 27.4041 12.0335
372 2 3.9621 27.6091 12.1791
373 2 7.80575 27.5551 12.0246
374 2 11.7312 27.5104 12.2134
375 2 15.7695 27.7307 12.2669
376 2 19.8001 27.455 12.1169
377 2 23.7053 27.7589 12.075
378 2 27.8936 27.4364 12.3169
379 2 31.848 27.5889 12.2023
380 2 35.5313 27.6953 12.0885
381 2 0.104853 31.5925 12.0103
382 2 3.99237 31.6275 12.0967
383 2 7.96327 31.7488 12.2294
384 2 11.926 31.7039 12.3808
385 2 15.8737 31.3979 12.3233
386 2 19.9541 31.4468 12.2019
387 2 23.735 31.3944 12.3161
388 2 27.7639 31.6449 12.3582
389 2 31.6846 31.5873 11.9697
390 2 35.5984 31.6769 12.1198
391 2 39.6165 35.7245 12.2057
392 2 4.21829 35.5991 12.0936
393 2 7.94792 35.5813 12.1045
394 2 11.8493 35.531 12.1305
395 2 15.8649 35.517 12.173
396 2 19.7442 35.4107 12.1559
397 2 23.9102 35.4716 12.249
398 2 27.7418 35.5705 12.2432
399 2 31.6308 35.543 12.0544
400 2 35.6472 35.4326 12.2331
401 2 0.152915 39.5364 16.1063
402 2 4.07162 39.5952 16.2027
403 2 7.95531 39.6363 16.0886
404 2 11.8834 -0.000946021 16.0311
405 2 15.9001 39.7204 15.7833
406 2 19.9414 39.2828 16.1868
407 2 23.7293 -0.175289 16.3001
408 2 27.4142 39.3678 16.2684
409 2 31.6053 39.5027 16.1859
410 2 35.7581 39.4805 16.0894
411 2 39.5229 3.84258 16.3858
412 2 4.15635 3.98659 16.0825
413 2 7.90207 4.02152 16.2177
414 2 11.8359 3.78192 15.9645
415 2 15.7181 3.83699 16.2625
416 2 19.8098 3.70297 16.1487
417 2 23.6978 3.9831 16.075
418 2 27.6685 3.71788 16.1861
419 2 31.8566 4.02293 16.2715
420 2 35.632 3.96016 15.9923
421 2 0.0220406 7.88096 16.1727
422 2 4.08894 7.73626 16.1096
423 2 8.0158 7.6726 16.0558
424 2 11.8598 7.85084 16.2496
425 2 15.8645 7.86427 16.1897
426 2 19.6775 7.74065 15.9057
427 2 23.6148 7.99902 16.211
428 2 27.7667 7.72542 16.2736
429 2 31.4863 7.95262 16.1524
430 2 35.5823 7.96274 16.1296
431 2 39.6608 11.6424 16.0188
432 2 4.09495 11.6885 16.2655
433 2 8.09664 11.7096 16.1978
434 2 11.9585 11.7145 16.1225
435 2 15.7706 11.9897 16.1082
436 2 19.8528 11.7624 16.1901
437 2 23.7422 11.8014 16.2542
438 2 27.7942 11.6772 16.2298
439 2 31.6196 11.7927 16.2779
440 2 35.5714 11.8433 16.0927
441 2 -0.0243216 15.561 16.3574
442 2 3.8921 15.7638 16.2319
443 2 8.01029 15.6504 16.1359
444 2 11.8152 15.6687 16.2753
445 2 15.8225 15.8486 16.0502
446 2 19.9494 15.7218 16.0135
447 2 24.0097 15.5353 15.9567
448 2 27.852 15.7958 16.1977
449 2 31.7768 15.7885 16.1451
450 2 35.612 15.7191 16.1548
451 2 39.414 19.5861 16.2287
452 2 3.94503 19.7618 16.2955
453 2 8.01591 19.6908 16.244
454 2 11.7835 19.8445 16.3606
455 2 15.7621 19.7718 16.423
456 2 19.9937 19.6672 16.2875
457 2 23.8983 19.6827 16.2472
458 2 27.6939 19.7972 16.3373
459 2 31.6416 19.977 16.1346
460 2 35.5611 19.8757 16.2498
461 2 39.5254 23.6232 16.2022
462 2 3.78 23.5986 15.9404
463 2 7.71746 23.686 16.1571
464 2 11.8272 23.7756 16.1302
465 2 15.841 23.6747 16.2331
466 2 19.6135 23.6483 16.2448
467 2 23.5328 23.6231 15.9308
468 2 27.7567 23.7612 16.1352
469 2 31.7855 23.7658 16.111
470 2 35.7594 23.6572 16.2745
471 2 0.0430455 27.7046 16.2673
472 2 3.84848 27.46 16.2265
473 2 7.78448 27.7008 16.3385
474 2 11.9282 27.4444 16.3076
475 2 16.0272 27.7153 16.1821
476 2 19.7106 27.3835 16.1698
477 2 23.8758 27.4113 16.2072
478 2 27.8413 27.9218 16.096
479 2 31.7198 27.7673 16.2377
480 2 35.7376 27.7534 15.9662
481 2 -0.206552 31.4633 15.9927
482 2 4.05062 31.5401 15.9856
483 2 7.8723 31.3892 15.9749
484 2 11.7826 31.5828 16.2972
485 2 15.9255 31.5791 16.247
486 2 19.6511 31.4765 16.1003
487 2 23.7447 31.5909 16.3347
488 2 27.7156 31.6769 16.2202
489 2 31.7274 31.7619 16.1235
490 2 35.5637 31.8351 16.015
491 2 0.0564863 35.5559 16.003
492 2 3.9647 35.3331 16.1248
493 2 7.85075 35.4497 16.3106
494 2 11.8992 35.6056 16.2715
495 2 16.0027 35.6279 16.173
496 2 19.6962 35.6727 16.2454
497 2 23.6034 35.3966 16.3951
498 2 27.7728 35.7873 16.1499
499 2 31.7559 35.5458 16.0837
500 2 35.7307 35.6815 16.1232
501 2 0.200738 39.6744 20.1623
502 2 4.0643 39.466 20.031
503 2 8.05514 39.5411 20.2012
504 2 11.9507 39.4789 20.1845
505 2 15.9137 39.6528 20.1407
506 2 19.9784 39.5427 20.3399
507 2 23.9232 39.6933 20.2425
508 2 27.894 39.8015 20.352
509 2 31.8048 39.5587 20.1688
510 2 35.7941 39.3934 20.0956
511 2 0.108524 3.98453 20.1586
512 2 4.06261 3.75934 20.1262
513 2 8.12123 3.90268 20.0501
514 2 11.8485 3.77774 20.0516
515 2 16.0211 3.91809 20.1122
516 2 19.9621 4.08627 20.1217
517 2 23.7375 4.16023 20.2238
518 2 27.6663 3.9845 20.3997
519 2 31.8531 3.97554 20.0362
520 2 35.7263 3.92202 20.0005
521 2 0.104353 7.95013 20.2945
522 2 4.03233 7.80572 20.2075
523 2 8.13988 7.81773 20.0657
524 2 11.9591 7.99987 20.0785
525 2 15.8344 7.89013 20.1703
526 2 19.7451 8.09773 20.1161
527 2 23.7571 7.97651 20.1867
528 2 27.6472 7.81154 20.1428
529 2 31.8041 7.79195 20.1015
530 2 35.8684 8.11033 20.1956
531 2 0.0680156 11.8826 20.0421
532 2 4.1669 11.8208 20.1795
533 2 7.99278 11.8341 20.3243
534 2 12.1366 11.9276 20.3041
535 2 15.9908 11.7696 20.073
536 2 19.8852 11.9034 20.0039
537 2 23.768 11.7582 20.3343
538 2 27.8687 11.7748 20.2162
539 2 31.7662 11.8063 20.1721
540 2 35.495 11.8982 20.157
541 2 -0.177363 15.8111 20.1703
542 2 3.99028 15.8004 20.1305
543 2 8.03897 15.6601 20.269
544 2 12.0959 15.8632 20.2556
545 2 16.1334 15.6923 20.0961
546 2 20.0969 15.9759 20.0957
547 2 23.7792 15.8739 20.1757
548 2 27.7565 15.8098 20.1212
549 2 31.7457 15.7879 20.2013
550 2 35.6098 15.7757 20.1644
551 2 39.7591 19.6948 20.2476
552 2 3.93082 19.7304 20.201
553 2 7.96047 19.9553 20.3503
554 2 11.8986 19.5922 20.1186
555 2 15.9296 19.6734 20.2267
556 2 20.0418 19.8972 20.0614
557 2 23.9498 19.8566 19.9817
558 2 27.9214 19.7921 20.2845
559 2 31.9392 19.5509 20.0857
560 2 35.798 19.8353 20.198
561 2 39.5644 23.8268 20.201
562 2 4.06432 23.8046 20.0227
563 2 7.91904 23.6501 20.2752
564 2 11.8006 23.7816 20.1038
565 2 15.8403 23.7749 20.1666
566 2 19.6943 23.6572 20.2507
567 2 23.7743 23.6696 20.1597
568 2 28.0131 23.8942 20.0314
569 2 31.6414 23.9546 20.1406
570 2 35.6893 23.9168 20.0574
571 2 39.6408 27.8308 20.0938
572 2 4.06362 27.6975 20.172
573 2 8.01179 27.7057 20.0138
574 2 11.9909 27.6772 20.1325
575 2 16.1515 27.898 20.166
576 2 19.936 27.5673 20.1811
577 2 23.9308 27.6402 20.2493
578 2 27.8057 27.6695 20.1391
579 2 31.945 27.8593 20.1374
580 2 35.704 27.7083 20.157
581 2 39.7727 31.6783 20.0856
582 2 4.03866 31.534 20.0497
583 2 8.07647 31.6525 20.1152
584 2 11.9572 31.7599 19.9681
585 2 15.8201 31.5804 20.084
586 2 19.8469 31.664 20.1569
587 2 23.717 31.6118 20.1527
588 2 27.771 31.557 20.1845
589 2 31.9237 31.7412 20.0069
590 2 35.755 31.7145 20.2336
591 2 0.0441033 35.5522 20.2791
592 2 3.8394 35.4748 20.2335
593 2 7.90149 35.4662 20.1684
594 2 11.8916 35.6669 20.271
595 2 15.9178 35.6427 20.2953
596 2 19.8318 35.6378 20.2562
597 2 23.7354 35.6274 20.2636
598 2 27.7016 35.5877 20.0606
599 2 31.8953 35.568 19.966
600 2 35.881 35.6049 20.1771
601 2 0.0281263 39.6408 24.1692
602 2 4.02308 39.6262 24.2156
603 2 8.03998 39.6366 23.9729
604 2 11.7037 -0.11363 24.195
605 2 15.7156 -0.00344265 24.1159
606 2 19.8972 39.6222 24.1479
607 2 23.7982 39.7436 24.1903
608 2 27.7542 39.4726 24.1809
609 2 31.7611 39.584 24.107
610 2 35.8736 39.6708 24.101
611 2 39.4888 4.16982 24.0572
612 2 4.12659 3.94309 24.2423
613 2 8.09995 3.8506 24.1321
614 2 12.026 3.91318 24.0271
615 2 15.9807 4.10198 24.1422
616 2 19.7341 3.91316 24.2799
617 2 23.5896 4.11531 24.2083
618 2 27.896 4.07738 24.2095
619 2 31.818 4.01416 24.2447
620 2 35.643 3.99159 24.1175
621 2 0.0643139 8.04971 24.1691
622 2 4.0727 7.98332 24.0858
623 2 8.06644 7.90022 24.0138
624 2 11.952 7.84207 23.9406
625 2 15.9982 7.89301 24.011
626 2 19.8706 7.79996 24.0374
627 2 23.7166 8.0699 24.3241
628 2 27.8517 8.02232 24.1864
629 2 31.6875 7.88329 24.2927
630 2 35.8872 8.07356 24.0605
631 2 39.6185 11.947 24.2283
632 2 3.95402 11.9731 24.0365
633 2 7.85624 11.7966 24.1334
634 2 11.9676 11.7536 24.1138
635 2 15.926 11.9158 24.1193
636 2 19.8853 11.9415 24.1613
637 2 23.7784 11.8744 24.0619
638 2 27.8632 11.8101 24.2086
639 2 31.5875 11.9 24.15
640 2 35.6686 12.0696 24.1857
641 2 39.5942 15.7703 23.9555
642 2 4.26723 15.7689 24.1675
643 2 8.00239 15.9892 24.1746
644 2 11.9806 15.7054 24.1303
645 2 15.9249 15.5782 24.0849
646 2 19.9096 15.8384 24.1668
647 2 23.786 15.8112 24.0495
648 2 27.77 15.7005 24.1581
649 2 31.6468 15.8018 24.1453
650 2 35.599 15.8799 24.2017
651 2 -0.088073 19.8114 24.0944
652 2 4.16772 19.7284 24.0088
653 2 8.27046 19.826 24.1705
654 2 12.1441 19.8444 24.1672
655 2 15.9415 19.7806 24.148
656 2 19.9521 19.8425 24.1598
657 2 23.9674 19.7218 24.1102
658 2 27.9822 19.6461 24.1634
659 2 31.6924 19.9219 24.0638
660 2 35.6494 19.9573 24.2162
661 2 0.229899 23.7999 24.1706
662 2 4.20588 23.6641 24.1162
663 2 8.09219 23.6853 24.223
664 2 11.9446 23.7253 24.3593
665 2 15.7409 23.7681 24.1923
666 2 19.7917 23.7093 24.0564
667 2 23.7124 23.6078 24.1344
668 2 27.8952 23.5479 23.9117
669 2 31.7489 23.7864 24.0799
670 2 35.5876 23.9274 24.0653
671 2 39.6624 27.6197 24.1026
672 2 4.05947 27.8081 24.3109
673 2 8.00513 27.4504 24.2284
674 2 11.8787 27.5728 23.9339
675 2 15.8279 27.6685 24.1941
676 2 19.9456 27.6735 24.2675
677 2 23.8815 27.5268 24.1947
678 2 27.7535 27.9119 24.1181
679 2 31.9108 27.6822 24.217
680 2 35.8477 27.8406 24.3439
681 2 0.105467 31.7079 24.172
682 2 3.9758 31.4577 24.2969
683 2 7.72602 31.4055 24.2538
684 2 11.8144 31.7815 24.2814
685 2 15.869 31.6641 24.1003
686 2 19.8704 31.7151 24.3268
687 2 23.8275 31.6709 24.0964
688 2 27.8208 31.7619 24.2082
689 2 31.7284 31.6027 24.0025
690 2 35.6713 31.735 24.0916
691 2 0.0495693 35.5245 23.9982
692 2 3.9182 35.8299 23.9396
693 2 7.73432 35.5725 24.0947
694 2 11.9842 35.6573 24.0725
695 2 16.014 35.6456 24.0742
696 2 19.8119 35.6386 24.1621
697 2 23.6941 35.8826 24.2093
698 2 27.9148 35.7214 24.0068
699 2 31.7886 35.5801 24.1346
700 2 35.6373 35.5815 24.1943
701 2 0.0846339 39.5424 28.1762
702 2 3.93832 -0.0740166 28.1783
703 2 8.04046 39.767 28.0461
704 2 11.8559 39.61 28.2527
705 2 15.8675 39.7552 28.044
706 2 19.756 39.7041 28.1327
707 2 23.9583 39.7154 28.0839
708 2 27.8158 39.5484 28.0715
709 2 31.7133 39.5205 28.2606
710 2 35.5542 39.6265 28.2538
711 2 0.175136 3.93244 28.1681
712 2 3.9411 4.15807 28.0441
713 2 7.94088 4.11237 27.8322
714 2 12.0228 3.91739 28.1165
715 2 15.7515 4.16886 27.9678
716 2 19.8061 3.97177 28.1504
717 2 23.7654 4.15306 28.2178
718 2 27.6807 3.99144 28.1297
719 2 31.9151 3.90943 28.1426
720 2 35.5871 3.88069 28.1899
721 2 0.255227 7.72988 28.2178
722 2 4.09343 8.02722 28.0856
723 2 8.11085 8.03613 28.1467
724 2 11.8758 7.93436 28.1024
725 2 15.9863 7.91768 28.0654
726 2 19.8467 7.94966 28.1667
727 2 23.657 7.99318 28.1284
728 2 27.6659 7.95136 28.1735
729 2 31.7759 7.85155 28.0258
730 2 35.8952 7.89108 28.1343
731 2 0.0723749 11.6625 27.9814
732 2 4.11539 11.7646 27.9261
733 2 8.20311 11.9436 28.1692
734 2 11.8951 11.8565 28.2055
735 2 15.9061 11.7649 28.1106
736 2 19.8407 11.928 28.1329
737 2 23.6742 11.8692 27.9544
738 2 27.5977 12.175 28.2396
739 2 31.8476 11.8817 28.0631
740 2 35.6576 11.9944 28.0934
741 2 0.135755 15.8102 27.9629
742 2 3.98278 15.8813 28.1179
743 2 7.84263 16.0769 28.0838
744 2 11.9133 16.0186 28.1722
745 2 15.9217 15.9804 28.0705
746 2 19.7203 15.9283 28.0834
747 2 23.7131 15.8256 28.0175
748 2 27.8736 15.8158 28.2157
749 2 31.6398 15.9242 28.0063
750 2 35.6013 15.8119 28.1775
751 2 0.101358 19.9041 27.9427
752 2 4.00596 19.8534 28.1873
753 2 8.22163 19.7353 28.2822
754 2 12.1982 19.6363 27.9089
755 2 16.0273 19.8002 28.0427
756 2 19.9658 19.8182 28.0843
757 2 23.9405 19.8359 27.9436
758 2 27.6829 19.6603 28.1384
759 2 31.854 19.7347 27.9385
760 2 35.9247 19.7707 28.1432
761 2 0.324731 23.7893 28.1247
762 2 4.02052 23.7851 28.2849
763 2 7.7997 23.7648 28.1882
764 2 12.0518 23.7573 28.1216
765 2 16.0143 23.8496 28.0482
766 2 19.87 23.7252 28.1273
767 2 23.9499 23.7726 28.0838
768 2 27.9724 23.6831 27.9263
769 2 31.7718 23.7993 28.1117
770 2 35.8944 23.8007 27.9755
771 2 39.5692 27.9839 28.0934
772 2 3.89057 27.5886 28.2922
773 2 8.0689 27.7069 28.1802
774 2 12.0525 27.8353 27.9383
775 2 15.8772 27.8656 27.9923
776 2 20.1419 27.6353 28.1852
777 2 23.8147 27.7561 28.1471
778 2 27.9506 27.7167 28.08
779 2 31.7832 27.7869 28.2634
780 2 35.7642 27.8793 28.1426
781 2 0.118646 31.7855 28.2148
782 2 3.97937 31.6306 28.1184
783 2 8.03423 31.698 27.9489
784 2 11.8697 31.7967 27.9109
785 2 15.7592 31.7521 28.0743
786 2 19.9324 31.4702 28.2041
787 2 23.7708 31.7349 27.8376
788 2 27.6833 31.8019 28.1132
789 2 31.8561 31.5964 28.1791
790 2 35.8824 31.8151 27.9606
791 2 0.00855726 35.7347 28.1488
792 2 4.09596 35.6288 28.0995
793 2 7.95214 35.6568 28.1219
794 2 11.8355 35.6923 28.216
795 2 16.0433 35.849 27.9156
796 2 19.822 35.6372 28.1416
797 2 23.8854 35.5277 28.1506
798 2 27.9397 35.5951 28.1642
799 2 31.9278 35.6349 28.1295
800 2 35.6766 35.7905 28.0658
801 2 -0.0602683 39.6514 31.8175
802 2 4.03977 0.0586215 32.1292
803 2 8.01812 0.157961 32.1679
804 2 11.8781 39.6183 32.2548
805 2 15.9142 0.0215716 32.2217
806 2 19.9755 0.000872138 32.1481
807 2 23.8554 39.5391 32.107
808 2 27.6494 39.511 32.1784
809 2 31.6466 39.5292 32.1931
810 2 35.6494 39.5908 32.2151
811 2 0.0776639 4.05859 31.9596
812 2 3.97667 3.97083 32.1378
813 2 7.91757 4.07557 32.2058
814 2 11.8553 4.09967 32.2266
815 2 15.811 4.02976 32.1037
816 2 19.7809 3.92673 32.1601
817 2 23.8957 3.86776 32.133
818 2 27.6618 3.97339 32.1812
819 2 31.6588 4.033 32.1397
820 2 35.7592 4.16937 32.0677
821 2 39.5571 8.02661 32.1252
822 2 4.15829 8.01839 32.0952
823 2 7.85172 8.10057 32.2073
824 2 12.1266 8.03987 32.0908
825 2 15.9107 7.94079 32.2722
826 2 19.6323 7.73357 32.2695
827 2 23.7377 7.96006 32.3189
828 2 27.8429 7.94945 32.1668
829 2 31.8412 7.95915 32.0035
830 2 35.52 7.96493 32.2055
831 2 0.027638 12.0189 32.0251
832 2 3.99554 11.9408 31.9461
833 2 8.00963 12.0579 32.1759
834 2 11.8574 11.9554 32.0381
835 2 15.8572 12.1854 31.9303
836 2 19.7245 11.803 32.0797
837 2 23.8388 12.0082 32.3261
838 2 27.8965 11.9155 32.1173
839 2 31.7042 12.0509 32.0954
840 2 35.5756 11.8709 32.0034
841 2 0.233723 15.6158 32.0762
842 2 3.89045 16.05 32.1421
843 2 7.91783 15.9671 32.181
844 2 12.0164 15.8558 32.1256
845 2 15.9249 15.9567 32.0399
846 2 20.0629 15.9309 32.0234
847 2 23.8895 15.9274 32.1377
848 2 27.7758 15.9032 32.0762
849 2 31.789 15.8269 31.9706
850 2 35.7236 15.9451 32.0579
851 2 -0.0302732 19.5588 32.0247
852 2 4.03027 19.7746 32.082
853 2 8.26603 19.7204 32.1955
854 2 12.1193 19.8696 32.1865
855 2 15.8942 19.8987 32.0997
856 2 19.7791 19.8427 32.1144
857 2 23.6889 19.6908 32.0688
858 2 27.7819 19.7897 32.0659
859 2 31.871 19.8111 32.1242
860 2 35.7351 19.8481 32.1415
861 2 -0.0350117 23.6603 32.0989
862 2 3.96656 23.6318 32.1497
863 2 8.14083 23.6888 31.9541
864 2 11.9254 23.8669 31.9069
865 2 16.0227 23.8204 32.0734
866 2 19.9792 23.9043 32.1938
867 2 23.9648 24.0009 32.0476
868 2 27.8566 23.5649 32.3134
869 2 31.8056 23.9398 32.0206
870 2 35.7825 23.7335 31.8921
871 2 0.29102 27.6373 32.1029
872 2 3.88026 27.8559 32.2227
873 2 8.19114 27.747 32.0702
874 2 12.1841 27.8359 32.0976
875 2 16.021 27.7033 31.9361
876 2 19.9567 27.8194 32.0844
877 2 24.1183 27.6892 32.1379
878 2 27.8961 27.7548 31.8421
879 2 31.9407 27.7561 32.2559
880 2 35.9888 27.6744 32.0922
881 2 0.0480936 31.6574 32.2156
882 2 4.15689 31.6935 32.1359
883 2 7.99349 31.7029 32.1711
884 2 12.0282 31.6997 32.1164
885 2 15.9815 31.7566 31.9903
886 2 19.9512 31.9479 31.96
887 2 23.8242 31.6292 32.1314
888 2 27.9461 31.7112 31.9929
889 2 31.7644 31.6086 32.1898
890 2 35.6998 31.734 32.2061
891 2 -0.0176263 35.6946 32.1973
892 2 4.06165 35.6708 32.2233
893 2 7.95546 35.7636 32.2227
894 2 11.8704 35.6799 32.2679
895 2 15.9919 35.6267 32.1118
896 2 19.8285 35.5938 31.964
897 2 23.9184 35.7479 32.059
898 2 27.8718 35.5631 32.1086
899 2 31.7215 35.4803 32.1791
900 2 35.7769 35.6596 32.1931
901 2 0.135001 0.0456187 36.1047
902 2 3.85299 0.135554 36.201
903 2 8.04059 -0.0125855 36.1383
904 2 12.1096 0.182119 35.9193
905 2 16.1041 0.0249033 36.0161
906 2 19.8837 0.133109 36.1244
907 2 23.6701 39.7353 36.1324
908 2 27.7954 39.5377 36.1351
909 2 31.8018 -0.000629861 36.2418
910 2 35.7718 -0.0832917 36.1983
911 2 0.310816 4.19529 36.1169
912 2 4.08473 3.86151 36.0688
913 2 8.06278 4.10965 36.1933
914 2 11.933 4.1334 36.1466
915 2 15.7553 4.13884 36.1596
916 2 19.8777 3.99849 36.1643
917 2 23.8724 4.05505 36.2561
918 2 27.7031 4.05615 36.1528
919 2 31.7537 4.04818 35.9805
920 2 35.776 4.02127 36.1173
921 2 0.164362 8.00835 36.0808
922 2 4.13632 8.16985 36.0401
923 2 8.00622 8.10925 36.0381
924 2 11.9179 8.19329 36.0376
925 2 15.9327 8.19587 36.109
926 2 19.8969 7.92486 36.1963
927 2 23.7596 7.96923 36.2333
928 2 27.6291 8.15865 36.0472
929 2 31.6065 7.95043 36.1938
930 2 35.5974 7.98504 36.1228
931 2 -0.0444701 11.9434 36.0764
932 2 3.95664 12.1202 36.0819
933 2 7.87463 12.1783 36.1112
934 2 11.8431 11.9449 36.1311
935 2 15.8694 12.2447 36.0037
936 2 19.9797 12.1915 36.0514
937 2 23.8436 11.964 36.219
938 2 27.739 11.9939 35.9104
939 2 31.7177 12.0185 36.0813
940 2 35.6248 11.7306 35.8962
941 2 0.017831 15.9056 36.1162
942 2 3.8308 15.9607 36.0362
943 2 7.88812 15.9741 35.9446
944 2 12.0482 15.9776 36.2627
945 2 15.917 16.1217 36.0467
946 2 19.7546 16.0572 36.1441
947 2 23.7011 15.9053 36.2661
948 2 27.8328 16.0456 36.1635
949 2 31.6349 15.9186 36.0551
950 2 35.7673 16.0069 36.1314
951 2 0.20847 19.8266 36.1765
952 2 4.00555 19.9028 35.8678
953 2 8.02988 19.9544 36.1482
954 2 12.0104 19.8855 36.2167
955 2 15.9735 20.1498 35.9765
956 2 19.8927 20.0946 36.2215
957 2 23.9635 19.7915 36.2037
958 2 27.777 20.0439 36.0156
959 2 31.7398 20.1762 35.9883
960 2 35.8001 19.9259 36.1178
961 2 0.0173261 23.7695 36.1878
962 2 4.05294 23.8931 36.1041
963 2 7.86827 23.8317 35.9667
964 2 11.9452 23.821 36.2732
965 2 15.8499 23.8296 36.1932
966 2 19.8225 23.9037 36.186
967 2 23.8042 23.9832 36.0131
968 2 27.6308 23.8719 35.9515
969 2 31.887 23.9759 36.0834
970 2 35.7966 23.8939 36.1598
971 2 -0.023775 28.0485 35.9795
972 2 3.89273 27.7572 36.0376
973 2 7.98567 27.6863 36.0567
974 2 11.9325 27.9192 36.0781
975 2 15.8224 27.6713 35.9412
976 2 19.9526 27.9995 36.0122
977 2 23.9086 27.7535 36.1722
978 2 27.9088 27.7276 36.0595
979 2 31.8321 27.8002 35.8347
980 2 35.7589 27.5913 36.0431
981 2 0.117831 31.8382 36.1965
982 2 4.30265 31.6567 35.9485
983 2 7.99412 31.6992 35.9904
984 2 12.0342 31.6665 36.088
985 2 16.1144 31.7304 36.0404
986 2 19.9424 31.589 36.1503
987 2 23.8853 31.7621 36.0557
988 2 28.0015 31.654 35.9715
989 2 31.6607 31.6013 36.208
990 2 35.5363 31.6358 36.1753
991 2 0.103638 35.5743 36.0252
992 2 4.1109 35.7106 36.2507