ITEM: TIMESTEP
31400
ITEM: NUMBER OF ATOMS
7500
ITEM: BOX BOUNDS xy xz yz pp pp pp
0.0000000000000000e+00 3.9579999999999998e+01 0.0000000000000000e+00
0.0000000000000000e+00 3.9579999999999998e+01 0.0000000000000000e+00
-4.5513167989749803e-02 5.9745513167990325e+01 0.0000000000000000e+00
ITEM: ATOMS id type x y z
1 2 39.5521 39.5629 0.0974239
2 2 3.73873 0.131236 0.283891
3 2 7.79232 0.0118749 0.0925021
4 2 11.7007 -0.15918 0.178217
5 2 16.0412 39.6837 0.159926
6 2 19.7791 -0.101566 0.0923556
7 2 23.5921 -0.0618428 0.335091
8 2 27.3458 39.4901 0.15623
9 2 31.4543 39.6032 0.353801
10 2 35.4187 39.5509 0.396305
11 2 39.366 3.82798 0.334635
12 2 3.64458 3.8991 0.291051
13 2 7.88563 3.78809 0.204137
14 2 11.768 3.78564 0.179097
15 2 15.7589 3.74107 0.28837
16 2 19.713 4.00967 0.0320595
17 2 23.7957 3.914 0.327569
18 2 27.8087 3.90001 0.263222
19 2 31.5662 3.92616 0.10946
20 2 35.4885 3.97412 0.217729
21 2 39.5787 7.94475 0.319226
22 2 3.9 7.73633 0.275859
23 2 7.99717 7.7847 0.147572
24 2 11.8044 7.97989 60.1368
25 2 15.8249 8.00721 0.275664
26 2 19.5358 7.92945 0.133265
27 2 23.853 7.8744 0.103957
28 2 27.6574 7.79302 0.229188
29 2 31.6603 7.87654 0.243049
30 2 35.5695 7.95636 0.282227
31 2 39.5329 11.8827 0.2297
32 2 3.95206 11.9317 0.357694
33 2 7.69053 11.9138 0.198004
34 2 11.8502 11.8256 0.3509
35 2 15.8459 11.8571 0.285074
36 2 19.7186 11.8108 0.103703
37 2 23.6298 11.6121 0.0764173
38 2 27.5964 11.7706 0.163141
39 2 31.4632 11.7553 0.208492
40 2 35.4198 11.881 0.149554
41 2 39.527 15.8206 0.102257
42 2 3.77946 15.8648 0.128057
43 2 7.76102 15.8921 0.108792
44 2 11.8843 15.599 0.150408
45 2 15.8426 15.741 0.141794
46 2 19.8882 15.8568 0.376058
47 2 23.6004 15.7432 0.126679
48 2 27.491 15.7804 0.349384
49 2 31.4215 15.6863 0.285586
50 2 35.581 15.6493 0.0292745
51 2 39.5211 19.8443 0.153753
52 2 3.81511 19.6314 0.201334
53 2 7.87446 19.7171 0.32919
54 2 11.8628 19.5641 0.419737
55 2 15.7949 19.7554 0.253459
56 2 19.7679 19.8094 0.29593
57 2 23.5793 19.5935 0.159299
58 2 27.6607 19.7142 0.13601
59 2 31.5836 19.6513 0.278977
60 2 35.4447 19.5659 0.272994
61 2 39.4373 23.7373 0.193441
62 2 3.7413 23.5439 0.0589271
63 2 7.67414 23.6034 0.2799
64 2 11.6742 23.6149 0.0519004
65 2 15.6799 23.6674 0.234302
66 2 19.9404 23.7464 0.322852
67 2 23.7791 23.5625 0.350399
68 2 27.5369 23.6899 0.214777
69 2 31.7796 23.6384 0.292061
70 2 35.5438 23.5098 0.238135
71 2 39.5482 27.5937 0.265546
72 2 3.82755 27.7516 0.321033
73 2 7.825 27.5213 0.0719629
74 2 11.7228 27.791 0.12991
75 2 15.8088 27.4745 0.225309
76 2 19.6407 27.6016 0.0859791
77 2 23.6212 27.6623 0.150362
78 2 27.714 27.5776 0.216389
79 2 31.6179 27.5703 0.199399
80 2 35.5594 27.4751 0.26014
81 2 39.5205 31.6797 0.196408
82 2 3.94412 31.5743 0.353836
83 2 7.81464 31.6543 0.107963
84 2 11.8453 31.6195 0.379899
85 2 15.6454 31.5186 0.298571
86 2 19.7947 31.5561 0.305174
87 2 23.7456 31.6207 0.00118913
88 2 27.7619 31.4669 0.148877
89 2 31.6636 31.791 0.148377
90 2 35.6904 31.7178 0.0761809
91 2 39.5212 35.6667 0.243562
92 2 3.89046 35.6348 0.40257
93 2 7.9456 35.6493 0.370112
94 2 11.9466 35.4736 0.242694
95 2 15.9217 35.5858 0.0876006
96 2 19.7724 35.3151 0.219124
97 2 23.8066 35.457 0.207467
98 2 27.6415 35.6476 0.229375
99 2 31.2367 35.4303 0.159838
100 2 35.5503 35.6842 0.333102
101 2 39.5023 0.0888429 4.07539
102 2 3.74823 39.4279 4.21206
103 2 7.89855 -0.115605 4.19451
104 2 11.9663 -0.2683 4.04031
105 2 15.8875 -0.113801 4.06902
106 2 19.611 39.3847 4.1316
107 2 23.5971 39.4954 4.34059
108 2 27.6263 39.6589 4.31261
109 2 31.7615 0.0608747 4.28165
110 2 35.6983 39.6627 4.13233
111 2 39.5811 4.10707 4.29319
112 2 4.0548 3.78194 4.08132
113 2 8.09535 3.78622 4.05415
114 2 12.0913 3.70453 4.1006
115 2 15.9066 3.82809 4.05871
116 2 20.1462 3.7997 4.01857
117 2 23.979 3.87075 4.24324
118 2 27.8192 3.93985 4.25279
119 2 31.7095 3.85805 4.12801
120 2 35.6492 3.96651 4.37589
121 2 -0.150081 7.9518 4.16155
122 2 4.10131 7.54514 4.04441
123 2 8.07491 7.59375 3.88908
124 2 12.153 7.85838 4.12076
125 2 15.8874 7.75399 4.29623
126 2 19.9171 7.833 4.26779
127 2 23.6967 7.98874 4.2035
128 2 27.4844 7.81267 4.10519
129 2 31.5239 7.84667 4.16169
130 2 35.4671 7.88819 4.17982
131 2 39.5397 11.8065 4.23401
132 2 4.08456 11.8251 4.24874
133 2 7.95733 11.8608 4.09273
134 2 11.8028 11.8381 4.13251
135 2 15.7613 11.8712 4.37864
136 2 19.6189 11.7338 4.21489
137 2 23.6369 11.6369 4.24288
138 2 27.7328 11.7406 4.12746
139 2 31.4333 12.0236 4.30897
140 2 35.2507 11.7326 4.3006
141 2 39.342 15.7959 4.05175
142 2 3.82881 15.6333 4.16657
143 2 7.75348 16.0127 4.2681
144 2 11.7975 15.6036 4.24414
145 2 15.8604 15.7027 4.13496
146 2 19.7453 15.6106 4.3852
147 2 23.7708 15.6907 4.27233
148 2 27.4116 15.7141 4.19343
149 2 31.6064 15.9558 4.18229
150 2 35.5921 15.8014 4.09958
151 2 0.0129387 19.7677 4.19783
152 2 3.84921 19.6373 4.22465
153 2 7.88018 19.8112 4.31429
154 2 11.921 19.7061 4.09852
155 2 15.7881 19.6911 4.17138
156 2 19.6059 19.6208 4.18774
157 2 23.6402 19.7622 4.31989
158 2 27.7145 19.6188 4.21729
159 2 31.705 19.6804 4.23305
160 2 35.5559 19.828 4.24298
161 2 39.7003 23.8257 4.16805
162 2 4.13836 23.701 4.0607
163 2 7.74615 23.793 4.19377
164 2 11.8445 23.6526 4.22114
165 2 15.6244 23.6025 4.30489
166 2 19.7019 23.8495 4.23609
167 2 23.6841 23.7603 4.2261
168 2 27.6997 23.5732 4.15993
169 2 31.6649 23.602 4.24406
170 2 35.713 23.5557 4.22718
171 2 39.5642 27.7605 4.17998
172 2 3.96789 27.8112 4.25841
173 2 8.00076 27.525 4.03728
174 2 11.7289 27.3623 4.02239
175 2 15.7427 27.4385 4.18253
176 2 19.7685 27.5875 4.291
177 2 23.6857 27.6228 4.17729
178 2 27.6384 27.697 4.2154
179 2 31.5972 27.6 4.21064
180 2 35.6117 27.5647 4.1486
181 2 -0.270554 31.5244 3.89643
182 2 3.72667 31.7471 4.29363
183 2 7.90864 31.5699 4.1371
184 2 11.7666 31.6033 4.33717
185 2 15.6793 31.4703 4.087
186 2 19.6588 31.4602 4.28192
187 2 23.8728 31.7312 4.10388
188 2 27.5793 31.4619 4.26064
189 2 31.5927 31.5454 4.1533
190 2 35.5458 31.5854 4.28669
191 2 0.0258423 35.4927 4.18729
192 2 3.96644 35.5189 4.34122
193 2 7.96222 35.5061 4.39471
194 2 11.9341 35.5106 4.14036
195 2 15.9059 35.5026 4.07887
196 2 19.7301 35.3892 4.13001
197 2 23.6798 35.5246 4.25228
198 2 27.7912 35.8891 4.19461
199 2 31.4374 35.4837 4.37229
200 2 35.5634 35.5346 4.23493
201 2 39.7559 39.5776 8.12992
202 2 3.84634 39.4284 8.2919
203 2 8.07387 39.4118 8.04155
204 2 11.9848 -0.0690144 8.12583
205 2 15.7326 -0.158019 8.18004
206 2 19.823 39.7311 8.10075
207 2 23.6984 39.2478 8.12929
208 2 27.7188 -0.0917276 8.27045
209 2 31.8514 39.4436 8.16636
210 2 35.6296 39.3955 8.11871
211 2 39.6886 3.80934 8.28184
212 2 3.93257 3.87202 8.08731
213 2 7.87862 3.98495 8.13626
214 2 12.0821 3.74486 8.1442
215 2 15.9995 3.78549 8.12406
216 2 19.6382 3.80972 8.34646
217 2 23.819 3.7864 8.18778
218 2 27.798 3.70558 8.12189
219 2 31.6311 3.74223 8.14267
220 2 35.5922 3.94209 8.37345
221 2 39.5487 7.82758 8.16996
222 2 3.9938 7.79788 8.19329
223 2 7.83914 7.76001 8.04536
224 2 11.9399 7.74044 8.01843
225 2 15.8444 7.59352 8.14519
226 2 19.904 7.80887 8.15235
227 2 23.6908 7.80096 8.27672
228 2 27.8422 7.87731 8.33215
229 2 31.5738 7.75186 8.37063
230 2 35.5512 7.81283 8.42586
231 2 39.906 11.8429 8.13184
232 2 3.98157 11.6973 7.95265
233 2 7.85217 11.6153 8.19812
234 2 11.7341 11.7436 8.16913
235 2 15.874 11.625 8.19595
236 2 19.5936 11.8262 8.31463
237 2 23.7163 11.8209 8.15726
238 2 27.5407 11.9192 8.27503
239 2 31.6257 11.7701 8.11357
240 2 35.8039 11.7113 8.19505
241 2 39.6051 15.8703 7.96655
242 2 3.94614 15.8131 8.25273
243 2 7.87588 15.6343 8.21484
244 2 11.686 15.7897 8.18903
245 2 15.7565 15.7388 8.24954
246 2 19.8793 15.706 8.10596
247 2 23.6237 15.8764 8.34597
248 2 27.5686 15.9324 8.26981
249 2 31.6364 15.8797 7.95163
250 2 35.6702 15.982 8.20725
251 2 39.7615 19.8271 8.06431
252 2 4.02439 19.6788 8.20792
253 2 8.05357 19.7805 8.21643
254 2 11.6983 19.6014 8.23038
255 2 15.7315 19.5751 8.29675
256 2 19.684 19.7265 8.11063
257 2 23.5114 19.7075 8.22821
258 2 27.6434 19.7332 8.10411
259 2 31.6615 19.7362 8.18388
260 2 35.5274 19.9227 8.41794
261 2 39.652 23.8731 8.15563
262 2 3.97006 23.5899 8.30093
263 2 7.8947 23.799 8.12371
264 2 11.8864 23.7161 8.32002
265 2 15.8135 23.641 8.39164
266 2 19.7467 23.6238 8.20968
267 2 23.5611 23.5364 8.20125
268 2 27.6149 23.6267 8.2408
269 2 31.6839 23.8056 8.17227
270 2 35.5738 23.5629 8.11369
271 2 -0.0650237 27.585 8.29235
272 2 3.97697 27.8455 8.16758
273 2 8.08589 27.701 8.14053
274 2 11.9325 27.7395 8.23921
275 2 15.9935 27.6203 8.24008
276 2 19.8675 27.778 8.17764
277 2 24.0245 27.4408 7.96811
278 2 27.7681 27.4784 8.28919
279 2 31.4779 27.6288 8.09917
280 2 35.6459 27.6209 8.13276
281 2 -0.0767066 31.3335 8.1389
282 2 4.08117 31.5635 8.09405
283 2 8.04779 31.5061 8.32261
284 2 12.0067 31.7441 8.12379
285 2 15.7917 31.495 8.11965
286 2 19.8232 31.3102 8.06408
287 2 23.7732 31.729 8.13742
288 2 27.7306 31.2829 8.21652
289 2 31.696 31.536 8.10922
290 2 35.6373 31.4565 8.1954
291 2 39.6535 35.4968 8.16332
292 2 4.01712 35.4252 8.30688
293 2 7.90333 35.443 7.94554
294 2 11.8559 35.4868 8.13728
295 2 15.8667 35.518 8.23711
296 2 19.701 35.6549 8.25011
297 2 23.779 35.5491 8.19595
298 2 27.9727 35.3739 8.1015
299 2 31.7329 35.4061 8.29292
300 2 35.5419 35.4674 8.011
301 2 39.5197 39.4862 12.2601
302 2 4.16783 39.5227 12.1292
303 2 7.77962 39.4156 12.1992
304 2 11.6608 39.4896 12.1124
305 2 15.6215 39.5032 12.2935
306 2 19.8984 -0.210535 12.1248
307 2 23.8744 -0.0526684 12.3722
308 2 27.8068 -0.0609654 12.1217
309 2 31.8188 -0.102742 12.2439
310 2 35.7879 39.3816 12.025
311 2 39.5575 3.94665 12.3241
312 2 3.96881 3.97472 11.8938
313 2 7.98272 3.94492 12.1383
314 2 11.8114 3.79217 12.2785
315 2 15.8269 3.97274 12.1757
316 2 19.8345 3.92652 12.3158
317 2 23.7028 3.89602 12.2706
318 2 27.755 3.80863 12.0289
319 2 31.7602 3.91507 12.2528
320 2 35.7527 3.92612 12.223
321 2 39.5307 7.85974 12.2891
322 2 3.88421 7.64698 12.2892
323 2 7.98412 7.6415 12.049
324 2 11.9983 7.72033 12.156
325 2 15.8633 7.86323 12.3603
326 2 19.9298 7.67714 12.1935
327 2 23.9423 7.93074 12.1137
328 2 27.8219 7.88385 12.2996
329 2 31.7686 7.87062 12.2102
330 2 35.7678 7.89492 12.1548
331 2 39.7371 11.9416 12.0808
332 2 4.16263 11.6563 12.0927
333 2 8.01547 11.496 11.8611
334 2 11.9274 11.7971 12.2156
335 2 15.8131 11.6785 12.1629
336 2 19.9996 11.7903 12.0175
337 2 23.7733 11.761 12.0713
338 2 27.8326 12.0591 12.0391
339 2 31.6992 11.81 12.0983
340 2 35.7565 11.8567 11.9384
341 2 39.8411 15.8334 12.0325
342 2 4.12802 15.7378 12.0589
343 2 8.11585 15.7632 12.1139
344 2 11.962 15.593 12.1742
345 2 15.762 15.7888 12.0746
346 2 19.9263 15.7316 11.9957
347 2 23.9811 15.8085 12.312
348 2 27.6363 15.799 12.2036
349 2 31.5331 15.779 12.1351
350 2 35.5965 15.7985 12.0623
351 2 0.0985376 19.72 12.2501
352 2 4.10898 19.6834 12.1209
353 2 7.99653 19.8725 12.2418
354 2 12.019 19.6698 12.1487
355 2 15.8391 19.7747 12.2501
356 2 19.6645 19.661 12.3291
357 2 23.5472 19.7938 12.2003
358 2 27.7903 19.7834 12.2847
359 2 31.7309 19.776 12.1832
360 2 35.8095 19.8288 12.1203
361 2 0.23955 23.5903 12.1284
362 2 4.07211 23.7168 12.2527
363 2 8.00079 23.85 12.1054
364 2 11.8966 23.7442 12.3426
365 2 15.8159 23.6103 12.18
366 2 19.714 23.7581 12.2077
367 2 23.6799 23.7029 12.2895
368 2 27.8042 23.5896 12.2769
369 2 31.7396 23.6473 12.1518
370 2 35.6442 23.6465 12.0918
371 2 39.5181 27.4706 12.319
372 2 3.88418 27.5604 12.0244
373 2 7.7623 27.6266 12.2112
374 2 11.9408 27.5422 12.3189
375 2 15.6444 27.5258 12.208
376 2 19.673 27.6175 12.342
377 2 23.6978 27.6068 12.1855
378 2 27.6996 27.521 12.2821
379 2 31.8088 27.4275 12.2273
380 2 35.6182 27.7339 12.1649
381 2 0.0143977 31.595 12.1884
382 2 4.11363 31.6327 12.1601
383 2 8.02596 31.7719 12.1195
384 2 12.0926 31.3631 12.1417
385 2 16.1149 31.6378 11.9112
386 2 19.8453 31.556 12.2591
387 2 23.6362 31.7929 12.1316
388 2 27.6716 31.1777 12.153
389 2 31.8547 31.403 12.2193
390 2 35.7635 31.5673 12.1392
391 2 39.6295 35.4954 12.1621
392 2 3.93881 35.5271 12.0313
393 2 8.13647 35.5235 11.9585
394 2 11.9839 35.7024 12.1492
395 2 15.7481 35.6045 12.2639
396 2 19.8791 35.484 12.2356
397 2 23.9758 35.5006 12.1928
398 2 27.8899 35.4552 12.144
399 2 31.6822 35.4192 12.1582
400 2 35.7302 35.4986 12.017
401 2 0.125247 39.3472 15.9456
402 2 4.02845 39.477 16.0333
403 2 7.87358 39.3666 16.2306
404 2 11.8791 0.0663079 16.2739
405 2 15.9969 39.6721 16.1392
406 2 19.9563 39.685 15.9259
407 2 23.8102 -0.0559723 16.1833
408 2 28.0218 39.5903 16.1406
409 2 31.9393 39.4586 16.0518
410 2 35.8927 39.5156 15.9714
411 2 39.6593 3.71726 16.1184
412 2 4.02782 3.79122 16.1421
413 2 8.07211 3.8982 16.1805
414 2 11.9179 3.95669 16.1692
415 2 15.8521 3.73435 16.1744
416 2 19.7902 3.88313 16.1406
417 2 23.8416 3.88177 16.1185
418 2 27.8844 3.87994 16.0562
419 2 31.713 3.76728 16.146
420 2 35.8608 3.66525 16.075
421 2 0.0582349 7.67283 16.0654
422 2 3.928 7.68817 16.1851
423 2 7.99432 7.86712 16.0974
424 2 11.7742 7.84878 16.2809
425 2 15.8569 7.87344 16.1444
426 2 19.7584 7.7615 16.2237
427 2 23.9546 7.7152 16.1128
428 2 27.6866 7.93017 16.1397
429 2 31.7502 7.73375 16.1894
430 2 35.8346 7.93683 16.2152
431 2 39.7706 11.7947 15.8349
432 2 4.19493 11.7409 16.0293
433 2 7.93774 11.835 15.935
434 2 11.8151 11.8459 16.3149
435 2 16.0327 11.8094 16.2085
436 2 19.8924 11.4796 16.2842
437 2 23.8381 11.8527 16.2623
438 2 27.6941 11.5414 16.131
439 2 31.8812 11.7466 15.9987
440 2 35.7275 11.7333 16.1199
441 2 0.118035 15.9988 16.0049
442 2 3.92946 15.739 16.1491
443 2 8.13814 15.7557 15.9606
444 2 12.118 15.694 16.2709
445 2 15.9436 15.7377 16.1563
446 2 19.906 15.7487 16.1799
447 2 23.9129 15.85 16.2056
448 2 27.8531 15.8531 16.0407
449 2 31.8235 15.6057 16.0502
450 2 35.9776 15.8014 16.0816
451 2 39.664 19.8113 16.0129
452 2 4.08039 19.7645 16.2497
453 2 8.05838 19.6753 16.0407
454 2 11.9791 19.5997 16.2437
455 2 15.8312 19.7873 16.2348
456 2 19.8596 19.4651 16.1417
457 2 23.7336 19.5499 16.196
458 2 27.7611 19.6072 16.3141
459 2 31.7105 19.6394 16.0611
460 2 35.5595 19.5466 16.1028
461 2 39.5801 23.5533 16.1986
462 2 3.84984 23.6942 16.2597
463 2 8.08102 23.6115 16.0622
464 2 11.8965 23.7983 16.2382
465 2 15.8686 23.6725 16.3421
466 2 19.7607 23.6162 16.2326
467 2 23.6709 23.4874 16.1705
468 2 27.8702 23.7409 16.1133
469 2 31.8048 23.6919 16.0384
470 2 35.6834 23.6656 16.3269
471 2 0.11571 27.6048 16.3744
472 2 4.13624 27.7322 16.1934
473 2 7.99071 27.4987 16.2311
474 2 11.9997 27.6715 16.2886
475 2 15.7293 27.7194 16.2927
476 2 19.5002 27.8671 16.3148
477 2 23.7917 27.5391 16.1896
478 2 27.6764 27.807 16.2221
479 2 31.6579 27.5728 16.2938
480 2 35.5989 27.5826 16.3038
481 2 0.107692 31.4762 16.2103
482 2 4.11167 31.4614 16.1131
483 2 8.01278 31.7982 16.0083
484 2 11.9798 31.4675 16.2717
485 2 15.6926 31.6339 16.1481
486 2 19.8407 31.5645 16.4009
487 2 23.8479 31.4761 16.3175
488 2 27.8667 31.4875 16.1095
489 2 31.9151 31.6379 16.1795
490 2 35.7752 31.6793 16.2064
491 2 0.166496 35.472 16.1383
492 2 3.98416 35.4685 16.1782
493 2 8.11788 35.3846 16.2216
494 2 11.8402 35.3778 16.2159
495 2 15.8505 35.638 16.0212
496 2 19.9578 35.699 16.0614
497 2 23.8124 35.5045 16.243
498 2 27.7327 35.3942 16.069
499 2 31.9142 35.5431 16.1017
500 2 35.6592 35.6453 16.2004
501 2 0.255474 39.3558 20.0892
502 2 4.07308 39.4166 20.1028
503 2 7.78004 39.5665 20.1742
504 2 11.9381 39.4582 20.2284
505 2 15.7358 39.4816 20.2632
506 2 19.7507 39.5917 20.1892
507 2 23.6878 39.554 19.9684
508 2 27.8006 39.4387 19.9427
509 2 31.6518 39.31 20.0811
510 2 35.6435 39.5469 20.0934
511 2 0.215681 3.74069 19.9722
512 2 4.03056 3.76878 20.1742
513 2 7.98899 3.7932 20.1039
514 2 11.9619 4.03029 20.0118
515 2 15.8702 3.87127 20.1106
516 2 19.795 3.89862 20.2079
517 2 23.8673 3.70449 20.234
518 2 27.6037 3.77113 20.1891
519 2 31.6168 3.83278 20.1074
520 2 35.8067 3.71357 20.2499
521 2 0.152802 8.10824 19.9815
522 2 4.03488 7.76935 20.1577
523 2 7.99568 7.84609 20.2197
524 2 12.0343 7.8813 20.1925
525 2 15.8873 7.76909 20.103
526 2 19.7903 7.94863 20.2889
527 2 23.6986 7.57372 20.2241
528 2 27.7202 7.7055 20.1113
529 2 31.7881 7.79709 20.143
530 2 35.5019 7.74758 20.3645
531 2 0.227712 11.8085 20.0352
532 2 3.9294 12.0772 20.1104
533 2 7.90483 11.8501 20.0803
534 2 11.8914 11.8064 20.2102
535 2 15.8544 11.827 20.3387
536 2 19.8361 11.8096 20.2019
537 2 23.8138 11.7865 20.0866
538 2 27.8448 11.5986 20.0589
539 2 31.7445 11.8164 20.0906
540 2 35.8564 11.9429 20.1381
541 2 0.000875839 15.929 20.2725
542 2 3.97864 15.8417 20.1652
543 2 7.82921 15.6559 20.2427
544 2 11.9457 15.6727 20.0949
545 2 16.105 15.9031 20.0534
546 2 20.0044 15.6404 20.0506
547 2 23.8164 15.7605 20.124
548 2 27.715 15.5856 20.2618
549 2 31.5647 15.6262 20.1575
550 2 35.6518 15.8772 20.0037
551 2 39.5404 19.6557 20.2734
552 2 3.92868 19.7597 20.0779
553 2 7.84507 19.459 19.9088
554 2 11.7356 19.7153 19.9808
555 2 15.6486 19.7706 20.1486
556 2 19.8877 19.6176 20.2525
557 2 23.8517 19.7937 20.1403
558 2 27.9584 19.6512 20.1967
559 2 31.6786 19.6879 19.9195
560 2 35.6075 19.6417 20.1222
561 2 39.6606 23.5339 20.1657
562 2 4.09843 23.6711 20.2433
563 2 7.88083 23.5035 20.1596
564 2 11.8336 23.7439 20.2128
565 2 15.7679 23.9138 20.1245
566 2 20.0075 23.5822 20.3274
567 2 23.8637 23.9446 20.208
568 2 27.778 23.7419 20.0345
569 2 31.7479 23.66 20.2536
570 2 35.6026 23.5642 20.1676
571 2 39.6519 27.5233 20.328
572 2 3.92601 27.7686 20.0239
573 2 8.15111 27.5638 20.2437
574 2 11.8565 27.6222 20.3555
575 2 15.6781 27.7674 20.448
576 2 19.7208 27.6598 20.2877
577 2 23.7907 27.8631 20.0595
578 2 27.7544 27.6678 20.397
579 2 31.6921 27.5622 20.1467
580 2 35.8458 27.8247 20.2917
581 2 39.7855 31.6703 20.2831
582 2 4.02975 31.6514 20.0379
583 2 8.0892 31.6041 20.323
584 2 12.0191 31.2823 20.256
585 2 16.0207 31.8926 20.2401
586 2 20.0332 31.799 20.0903
587 2 23.8654 31.7771 20.2802
588 2 27.8004 31.6243 20.1275
589 2 31.8414 31.6633 20.1353
590 2 35.8159 31.711 20.187
591 2 0.11623 35.5859 20.2296
592 2 4.02157 35.4203 20.2931
593 2 8.00216 35.6423 20.319
594 2 12.0196 35.6131 20.2337
595 2 15.7566 35.533 20.1683
596 2 19.7558 35.7113 20.0877
597 2 23.7745 35.851 19.9851
598 2 27.593 35.4467 20.0267
599 2 31.808 35.6642 20.232
600 2 35.8236 35.6805 20.1114
601 2 -0.114604 39.5788 24.2291
602 2 4.02877 39.7553 24.068
603 2 7.97214 39.6309 24.1082
604 2 11.8358 -0.144814 24.2253
605 2 15.8555 -0.0472693 24.2704
606 2 19.805 39.7104 24.0714
607 2 23.8275 39.4778 24.0918
608 2 27.7722 39.3704 24.1513
609 2 31.8519 39.411 24.2166
610 2 35.6928 39.5729 24.2091
611 2 39.8153 3.94957 24.1047
612 2 4.0971 4.08008 24.1844
613 2 8.18867 3.97094 23.979
614 2 12.0309 4.00414 24.2447
615 2 15.8754 3.96689 24.0828
616 2 19.8371 3.90486 24.2263
617 2 24.0109 3.97614 24.2202
618 2 27.8732 3.81474 24.1967
619 2 31.6445 3.64112 24.0195
620 2 35.8165 3.99951 23.9798
621 2 0.214825 8.1424 23.9918
622 2 4.1351 8.06064 24.0026
623 2 8.12717 7.91019 24.0912
624 2 11.7703 7.93168 24.0431
625 2 15.8113 7.90367 24.2388
626 2 19.8259 7.79298 24.0191
627 2 23.8687 7.84269 24.0831
628 2 27.9428 7.83717 24.0539
629 2 31.7764 7.73408 24.0416
630 2 35.7318 7.73725 24.335
631 2 39.6938 11.9687 24.0914
632 2 4.01536 11.9116 24.2511
633 2 7.83352 11.9859 24.0089
634 2 12.0086 12.1072 24.1051
635 2 15.872 11.8691 24.2335
636 2 19.8256 11.8915 24.1011
637 2 23.9393 11.9184 24.1862
638 2 27.8818 11.6326 24.1602
639 2 31.7676 11.8263 24.1326
640 2 35.6565 11.8622 24.182
641 2 39.7988 15.679 24.3259
642 2 4.2042 16.0346 24.0675
643 2 8.09391 15.8684 24.1716
644 2 11.9636 15.9433 24.0268
645 2 15.8074 15.8387 24.0844
646 2 19.9555 15.8239 24.1236
647 2 24.0235 15.8779 24.2105
648 2 27.8495 15.5135 24.0444
649 2 31.7422 15.5711 24.0513
650 2 35.6209 15.9632 24.2517
651 2 0.139147 19.7771 24.091
652 2 3.9227 19.8233 24.2933
653 2 7.9096 19.9819 24.141
654 2 11.8252 19.796 23.9948
655 2 15.8832 19.9969 24.0153
656 2 19.6386 19.6981 23.978
657 2 23.8927 19.7352 24.0072
658 2 27.87 19.4742 24.0535
659 2 31.5548 19.8118 24.2419
660 2 35.6272 19.7499 23.8912
661 2 0.0699433 23.7807 24.1693
662 2 4.03115 24.0007 24.0069
663 2 7.99032 23.5989 24.3613
664 2 12.1096 23.6983 24.05
665 2 15.9789 23.7109 24.1901
666 2 19.8648 23.7814 23.9152
667 2 23.9428 23.7076 24.2027
668 2 27.837 23.6253 23.9933
669 2 31.7252 23.5936 24.0368
670 2 35.5072 23.7509 24.1975
671 2 39.3745 27.6706 24.2066
672 2 3.96487 27.8633 24.1558
673 2 7.91312 27.5878 24.2
674 2 11.7694 27.624 24.228
675 2 15.872 27.5777 24.2356
676 2 19.7649 27.8614 24.3366
677 2 23.994 27.4706 24.1549
678 2 27.9551 27.6772 24.2813
679 2 31.772 27.6714 23.9469
680 2 35.5778 27.4317 24.1634
681 2 0.21649 31.6601 24.2299
682 2 3.94399 31.5957 24.3711
683 2 8.02557 31.5227 24.1823
684 2 12.0204 31.5946 24.3694
685 2 15.8971 31.7827 24.1648
686 2 20.0116 31.7751 24.063
687 2 23.9364 31.3401 24.06
688 2 28.0876 31.7493 24.0555
689 2 32.0373 31.5987 23.9771
690 2 35.8304 31.7571 24.2568
691 2 0.0598386 35.669 24.1536
692 2 3.91503 35.6797 24.1361
693 2 7.95953 35.698 24.1549
694 2 11.9968 35.397 24.1303
695 2 15.9333 35.606 24.2422
696 2 19.9024 35.6893 24.1895
697 2 23.8403 35.5523 24.1642
698 2 27.8778 35.5496 24.053
699 2 31.8055 35.5376 24.1913
700 2 35.7788 35.5651 24.0393
701 2 0.00472761 39.6195 28.2671
702 2 3.98639 0.114344 28.155
703 2 8.02638 39.7125 28.1585
704 2 12.0369 39.8156 28.006
705 2 15.9533 39.58 28.2615
706 2 19.8723 39.5926 28.0008
707 2 23.8668 39.5599 28.1532
708 2 27.7919 39.4763 28.2674
709 2 31.8416 39.5873 28.2543
710 2 35.6982 39.5981 28.1006
711 2 0.0135631 4.02672 27.9768
712 2 4.12123 4.00056 28.197
713 2 7.80491 3.94372 28.0673
714 2 12.0916 4.03673 28.0848
715 2 15.9999 3.98239 28.1321
716 2 19.9561 3.91071 27.9944
717 2 23.9622 3.94386 28.3095
718 2 27.7761 4.06403 28.1985
719 2 31.8128 4.01785 27.9603
720 2 35.6873 4.06746 28.0306
721 2 0.181568 7.95611 28.0013
722 2 4.21576 7.78869 28.2638
723 2 8.18318 7.85102 28.0368
724 2 12.0767 8.08349 28.1447
725 2 16.0092 8.03637 28.1673
726 2 19.9467 7.93189 28.0268
727 2 24.0855 7.8442 28.0252
728 2 27.9799 7.90751 28.2064
729 2 31.8557 7.88055 28.1164
730 2 35.7164 7.90284 28.1524
731 2 0.201544 11.9509 28.2946
732 2 4.10294 11.9004 28.0549
733 2 8.00588 11.8748 28.1674
734 2 12.001 11.9812 28.2127
735 2 16.0808 11.8406 28.0804
736 2 20.1341 11.8853 27.9733
737 2 23.9989 11.7915 28.207
738 2 27.9995 11.8025 28.1465
739 2 31.8986 11.8916 28.0668
740 2 35.7976 11.8293 28.1477
741 2 0.173988 15.9156 28.1399
742 2 3.94734 15.9981 28.0876
743 2 7.93098 15.9178 28.2499
744 2 11.9368 15.8345 28.2854
745 2 15.7352 15.7644 28.0556
746 2 19.8277 15.8319 28.13
747 2 23.9187 15.6595 28.0212
748 2 27.8932 16.0448 28.2236
749 2 31.7529 16.0069 28.1517
750 2 35.6378 15.8805 28.1713
751 2 0.0724857 19.8977 28.0732
752 2 4.01076 19.9133 28.1517
753 2 8.02867 19.7581 28.0828
754 2 11.9883 19.8178 28.2063
755 2 15.9655 19.8678 28.209
756 2 19.9132 19.6206 28.0046
757 2 23.9075 19.7664 27.8633
758 2 27.8065 19.9333 28.1847
759 2 31.5852 19.9125 28.023
760 2 35.7105 19.8252 28.1188
761 2 -0.0716939 23.7577 28.1957
762 2 3.92388 23.7087 28.29
763 2 7.93643 23.8756 28.2347
764 2 12.0582 23.8253 27.9804
765 2 16.1239 23.8719 28.0996
766 2 20.034 23.8017 27.8329
767 2 23.8467 23.6384 28.0369
768 2 27.7019 23.7254 28.3201
769 2 31.6468 23.7839 28.2365
770 2 35.7439 23.74 28.234
771 2 39.5143 27.6544 28.1411
772 2 3.90236 27.6632 28.1988
773 2 8.0707 27.5105 28.1966
774 2 11.8812 27.7344 28.1184
775 2 15.9589 27.814 28.2612
776 2 19.778 27.475 28.16
777 2 23.6799 27.7158 28.1189
778 2 27.8099 27.8986 28.022
779 2 31.739 27.8654 27.8716
780 2 35.6168 27.4926 28.2045
781 2 -0.0347726 31.7226 28.1501
782 2 3.88888 31.5778 28.339
783 2 7.86282 31.7831 28.0286
784 2 11.8206 31.8197 27.8971
785 2 15.7976 31.7302 28.145
786 2 19.7202 31.7398 28.1148
787 2 23.9661 31.873 28.0717
788 2 27.7835 31.5451 28.0455
789 2 31.8403 31.7107 28.174
790 2 35.7859 31.6519 28.3434
791 2 0.120388 35.5785 28.0847
792 2 4.15299 35.5356 28.0608
793 2 7.91183 35.8761 28.1775
794 2 11.8233 35.7575 28.3439
795 2 15.8407 35.7907 28.1062
796 2 19.9459 35.6785 28.2298
797 2 23.8679 35.5364 28.1824
798 2 27.7552 35.6138 27.8134
799 2 31.83 35.4808 28.0664
800 2 35.6217 35.6227 28.0371
801 2 0.220048 39.4437 32.2116
802 2 4.01287 0.211589 31.969
803 2 7.97557 0.0443634 32.3472
804 2 11.9709 39.6847 32.1449
805 2 15.9803 -0.0549014 32.1929
806 2 19.9529 -0.0462574 31.9713
807 2 23.9173 39.5466 32.0571
808 2 27.7936 39.6001 32.2593
809 2 31.8713 39.686 32.129
810 2 36.0208 39.5095 31.9797
811 2 0.141765 4.08128 32.1161
812 2 3.89183 4.01321 32.2426
813 2 7.97843 3.93089 32.0659
814 2 11.959 4.23358 31.9908
815 2 15.851 4.00584 32.1477
816 2 20.0114 4.02219 32.1732
817 2 23.9593 4.00845 31.9142
818 2 27.6564 4.129 32.2188
819 2 31.7615 3.99828 32.2752
820 2 36.0071 4.10336 31.94
821 2 39.7006 8.13514 32.1577
822 2 4.17958 8.08001 31.9758
823 2 8.03091 8.11251 32.1449
824 2 11.9272 8.07907 32.2302
825 2 15.9168 7.78997 32.1053
826 2 19.9636 7.87418 32.0519
827 2 23.7345 8.01908 32.0813
828 2 27.7451 8.03642 32.2751
829 2 31.8536 7.91763 32.2042
830 2 35.7431 7.91662 32.0215
831 2 0.161589 11.8162 32.161
832 2 3.95341 11.9493 32.0545
833 2 8.0044 11.8607 32.0937
834 2 11.8225 11.9162 32.0113
835 2 16.0348 11.7533 32.1133
836 2 19.8327 11.8775 32.1096
837 2 23.7762 11.9321 31.9364
838 2 27.8607 12.0402 32.0379
839 2 31.6387 11.897 32.0082
840 2 35.7275 12.0968 32.1622
841 2 0.0322096 15.8932 32.0598
842 2 4.01878 15.7949 32.2812
843 2 8.01618 15.8902 32.1518
844 2 12.09 16.058 32.1734
845 2 15.9879 15.7597 32.0486
846 2 20.0544 15.8704 32.1383
847 2 23.7732 16.0177 32.0164
848 2 27.7713 16.0296 32.1023
849 2 31.9831 16.187 32.0067
850 2 35.6731 15.9587 32.1905
851 2 0.077556 19.9163 32.2047
852 2 4.1122 19.9662 32.209
853 2 8.04533 19.7966 32.0283
854 2 12.0118 19.8651 32.2294
855 2 15.8105 19.7573 31.9878
856 2 19.6319 19.7372 31.9154
857 2 23.634 19.8903 32.073
858 2 27.6891 19.8936 32.271
859 2 31.7059 19.9828 32.0618
860 2 35.5291 19.9005 32.0059
861 2 -0.129495 23.7769 31.9412
862 2 4.16322 23.755 32.0034
863 2 8.18874 23.7926 32.041
864 2 11.9964 23.8723 31.9939
865 2 16.0219 23.9079 32.1592
866 2 19.7858 23.8613 32.2272
867 2 23.9138 23.6953 32.0968
868 2 27.6629 23.7852 32.1253
869 2 31.6387 23.8996 32.1947
870 2 35.7095 23.9951 32.1316
871 2 0.152479 27.6976 32.1826
872 2 4.10635 27.7026 32.0241
873 2 7.98379 27.7742 32.0311
874 2 11.9613 28.0015 31.9978
875 2 15.9463 27.924 32.0481
876 2 19.8841 27.9291 32.2658
877 2 23.6324 27.8856 32.1432
878 2 27.7128 27.6601 32.0784
879 2 31.8731 27.6318 32.0241
880 2 35.5251 27.8055 32.1363
881 2 0.0760365 31.6772 32.1101
882 2 4.32662 31.5928 32.2014
883 2 8.21853 31.6223 31.963
884 2 11.804 31.6905 32.126
885 2 15.7696 31.8812 32.2072
886 2 19.6649 31.7756 32.0729
887 2 23.6988 31.6861 31.9177
888 2 27.6588 31.6734 32.2862
889 2 31.6587 31.7259 32.0002
890 2 35.6181 31.9481 32.1501
891 2 0.166452 35.4953 31.9807
892 2 3.8686 35.6496 32.1469
893 2 8.12829 35.6426 31.9751
894 2 11.8585 35.7644 32.1522
895 2 15.9285 35.5242 32.14
896 2 19.784 35.5542 32.1694
897 2 23.6287 35.6547 32.0805
898 2 27.8373 35.5359 32.2916
899 2 31.6983 35.696 32.2418
900 2 35.5815 35.5715 32.1998
901 2 -0.000893317 0.170916 36.2098
902 2 3.90934 0.0978763 35.9578
903 2 7.84479 0.278633 36.1172
904 2 12.0636 0.112735 36.0879
905 2 15.7606 0.0664572 36.1701
906 2 19.7037 0.0379263 36.103
907 2 23.7938 39.53 36.3546
908 2 27.7727 39.4658 35.9542
909 2 31.6962 0.0375827 36.0238
910 2 35.5214 0.0206547 35.965
911 2 -0.0137352 4.00178 36.2695
912 2 4.0041 4.24148 36.0801
913 2 8.05004 4.1975 35.9724
914 2 11.9007 3.86616 36.018
915 2 16.057 4.05852 36.0311
916 2 19.9043 3.95988 36.032
917 2 23.8467 3.99895 36.2309
918 2 27.7063 4.09177 36.1169
919 2 31.6093 4.10763 35.9835
920 2 35.5941 3.90338 36.2635
921 2 -0.0268568 7.96535 36.0943
922 2 4.02122 8.1804 35.964
923 2 7.95108 7.99262 36.1662
924 2 11.815 8.0405 36.1949
925 2 15.816 8.17064 35.9649
926 2 19.8709 7.94915 36.1486
927 2 23.7997 8.28163 36.146
928 2 27.7578 8.20363 35.9562
929 2 31.8633 8.00124 35.8809
930 2 35.6586 8.17554 36.0915
931 2 -0.153208 11.8035 35.967
932 2 3.84001 12.0919 36.1294
933 2 7.84572 12.0267 36.053
934 2 11.8873 12.1595 36.0612
935 2 15.7029 12.0581 36.0916
936 2 19.653 11.9083 36.1486
937 2 23.6719 11.9725 36.2714
938 2 27.8873 12.084 36.1094
939 2 31.6647 11.9314 36.2228
940 2 35.6821 11.9661 35.9799
941 2 -0.0546223 16.057 36.0366
942 2 3.96936 16.0637 36.3489
943 2 7.69882 15.8101 36.0372
944 2 12.0135 15.9575 36.1563
945 2 15.9268 15.8902 36.1621
946 2 20.0376 15.7273 36.0918
947 2 23.6513 15.8386 36.0828
948 2 27.6326 16.0357 36.1373
949 2 31.6501 15.9807 36.1223
950 2 35.4127 15.9844 35.8992
951 2 0.108859 20.0475 36.0461
952 2 3.99893 19.8508 36.1696
953 2 7.97814 19.9354 35.9732
954 2 11.9682 19.7279 36.1318
955 2 15.7075 20.0115 35.9348
956 2 19.5845 19.7635 36.0267
957 2 23.721 19.9287 35.9414
958 2 27.6075 20.099 35.9832
959 2 31.6612 19.9489 36.2013
960 2 35.7857 19.9366 36.1156
961 2 0.0979973 23.8914 35.8559
962 2 4.31491 23.8476 36.0529
963 2 8.10704 23.92 36.1363
964 2 12.1086 23.9093 36.1759
965 2 15.8457 23.7323 35.9771
966 2 20.0351 23.9794 36.0499
967 2 23.8274 23.7504 36.0323
968 2 27.5746 23.9037 36.0936
969 2 31.7007 23.71 36.1209
970 2 35.7387 23.8791 36.1609
971 2 0.175442 27.9949 36.1616
972 2 4.02394 27.9361 36.0912
973 2 8.0221 27.7134 36.1622
974 2 12.1666 27.8484 36.0167
975 2 16.0868 27.7714 36.1058
976 2 19.8491 27.8565 36.0951
977 2 23.6062 27.6528 36.103
978 2 27.8566 27.7119 36.0837
979 2 31.7477 27.7205 36.2094
980 2 35.7576 27.7219 36.1687
981 2 0.0449855 31.7779 36.0622
982 2 4.19867 31.7914 35.9393
983 2 7.77886 31.7393 36.1106
984 2 11.6778 31.7424 36.1178
985 2 15.763 31.6775 36.251
986 2 19.7895 31.7894 36.2855
987 2 23.7598 31.7076 36.1601
988 2 27.598 31.6231 36.1832
989 2 31.7574 31.55 36.1599
990 2 35.678 31.6397 36.125
991 2 0.039091 35.7369 36.137
992 2 3.97428 35.6115 36.1909
993 2 8.02448 35.833 36.0472
994 2 11.7256 35.7831 36.1481
995 2 15.7641 35.5567 36.2016