ITEM: TIMESTEP
34900
ITEM: NUMBER OF ATOMS
7500
ITEM: BOX BOUNDS xy xz yz pp pp pp
0.0000000000000000e+00 3.9579999999999998e+01 0.0000000000000000e+00
0.0000000000000000e+00 3.9579999999999998e+01 0.0000000000000000e+00
7.0101097273678192e-03 5.9692989890273012e+01 0.0000000000000000e+00
ITEM: ATOMS id type x y z
1 2 39.4749 39.3411 0.263848
2 2 3.90313 -0.135499 0.372721
3 2 7.79458 -0.0958244 0.435147
4 2 11.8597 -0.201829 0.283842
5 2 15.7031 39.4382 0.16359
6 2 19.7502 -0.206325 0.279495
7 2 23.5356 -0.19032 0.238327
8 2 27.61 39.633 -0.0320578
9 2 31.4672 39.5036 0.174671
10 2 35.7877 39.3143 0.227118
11 2 39.6279 3.79464 0.367821
12 2 3.77123 3.90004 0.331032
13 2 7.85925 3.88847 0.318756
14 2 12.0288 3.74974 0.184138
15 2 15.9821 3.80781 0.249497
16 2 19.7396 4.01035 0.213391
17 2 23.592 3.97424 0.21881
18 2 27.4263 3.80001 0.26773
19 2 31.6002 4.01765 0.283843
20 2 35.4536 3.83799 0.509316
21 2 39.7021 7.88459 0.274502
22 2 3.85678 8.05883 0.335593
23 2 7.87412 7.93903 0.291772
24 2 11.7127 7.67281 59.8453
25 2 15.6273 7.86125 0.442216
26 2 19.7172 7.78865 0.163707
27 2 23.5889 7.88687 0.139046
28 2 27.5427 8.0018 0.166353
29 2 31.5802 7.75773 0.352239
30 2 35.5597 7.98557 0.185899
31 2 39.3789 11.8034 0.43047
32 2 4.00361 11.8157 0.29296
33 2 7.87198 11.7867 0.371306
34 2 11.9723 11.8262 0.292742
35 2 15.8846 11.6957 0.282439
36 2 19.5507 11.7531 0.0821274
37 2 23.49 11.8718 0.317063
38 2 27.4907 11.9477 0.182867
39 2 31.5967 11.8741 0.31947
40 2 35.6117 11.6708 0.233836
41 2 39.6109 15.8045 0.399781
42 2 3.84852 15.4372 0.164928
43 2 7.70253 15.6142 0.195839
44 2 11.7339 15.5234 0.13333
45 2 15.676 15.6376 0.396492
46 2 19.8241 15.7104 0.221821
47 2 23.5094 15.9222 0.291228
48 2 27.5697 15.7077 0.26143
49 2 31.6137 15.8426 0.428036
50 2 35.4665 15.6604 0.550445
51 2 39.6612 19.7302 0.332875
52 2 4.10518 19.7533 0.139057
53 2 7.92698 19.7252 0.163216
54 2 11.7178 19.6213 0.356303
55 2 15.6407 19.7018 0.110843
56 2 19.6178 19.5546 0.413178
57 2 23.6354 19.7878 0.11444
58 2 27.6321 19.589 0.109568
59 2 31.5813 19.6062 0.239581
60 2 35.5749 19.7244 0.310086
61 2 39.5283 23.4994 0.11308
62 2 3.84591 23.5654 0.311378
63 2 7.76663 23.5611 0.256868
64 2 11.7611 23.652 0.184308
65 2 15.7174 23.8293 0.23921
66 2 19.8826 23.672 0.252358
67 2 23.6654 23.4518 0.140903
68 2 27.6103 23.6465 0.28936
69 2 31.6744 23.5204 0.301472
70 2 35.511 23.6096 0.333838
71 2 39.599 27.5649 0.0194225
72 2 3.87482 27.5475 0.222889
73 2 7.70816 27.6952 0.281517
74 2 11.7707 27.6815 0.36062
75 2 15.8435 27.8534 0.294089
76 2 19.8809 27.6246 0.357508
77 2 23.6389 27.5949 0.10655
78 2 27.6279 27.5677 0.366873
79 2 31.4677 27.6385 0.200602
80 2 35.6458 27.6018 0.422841
81 2 39.7159 31.6742 0.350357
82 2 3.84819 31.6097 0.291705
83 2 7.97172 31.4562 0.25474
84 2 11.989 31.4936 0.21844
85 2 15.7569 31.4963 0.34102
86 2 19.8532 31.5593 0.405614
87 2 23.716 31.551 0.287631
88 2 27.6702 31.5119 0.311766
89 2 31.612 31.485 0.296372
90 2 35.5663 31.6239 0.427911
91 2 39.3697 35.4859 0.266087
92 2 3.94928 35.5398 0.344377
93 2 7.93581 35.421 0.0866246
94 2 11.7415 35.5286 0.376739
95 2 15.6885 35.4302 0.34952
96 2 19.7229 35.3627 0.319129
97 2 23.6086 35.5287 -0.140785
98 2 27.4231 35.5034 0.261412
99 2 31.4195 35.4778 0.40546
100 2 35.3688 35.5571 0.485881
101 2 39.6442 0.065116 4.25192
102 2 3.98749 39.4113 4.22362
103 2 7.90491 0.039947 4.26003
104 2 11.7883 -0.167747 4.38475
105 2 15.9101 -0.0862544 4.08487
106 2 19.8998 39.3655 4.18218
107 2 23.7219 39.4785 4.43458
108 2 27.5029 39.3722 4.27656
109 2 31.5373 -0.0670253 4.26964
110 2 35.604 39.534 4.24442
111 2 39.86 4.03347 4.1864
112 2 3.93385 3.89346 4.41185
113 2 8.09701 3.8964 4.211
114 2 11.9338 4.04689 4.18815
115 2 15.881 3.75354 4.23709
116 2 19.8296 3.99557 4.36154
117 2 23.8691 3.74385 4.13487
118 2 27.8774 3.68894 4.2658
119 2 31.829 3.90738 4.32177
120 2 35.6304 3.97521 4.41866
121 2 0.168102 7.82264 4.16976
122 2 4.12032 7.92646 4.36248
123 2 8.1104 7.71011 4.21136
124 2 11.9585 7.8018 4.18492
125 2 15.7891 7.80237 4.37667
126 2 19.8898 7.65981 4.2034
127 2 23.705 7.84227 4.1728
128 2 27.6635 7.75163 4.28042
129 2 31.6166 7.65734 4.26875
130 2 35.8771 7.80355 4.27573
131 2 39.53 11.649 4.38422
132 2 3.9396 11.8578 4.31973
133 2 7.8672 11.8597 4.31167
134 2 11.9797 11.8148 4.25832
135 2 15.893 11.7504 4.24774
136 2 19.8198 11.5601 4.20649
137 2 23.5606 11.8334 4.15022
138 2 27.6015 11.8068 4.26304
139 2 31.6929 11.8031 4.14389
140 2 35.5544 11.6258 4.16271
141 2 39.5383 15.8769 4.37043
142 2 3.9407 15.6987 4.04786
143 2 8.06581 15.7952 4.13018
144 2 11.9218 15.7913 4.39068
145 2 15.9109 15.8506 4.47437
146 2 19.8245 15.7747 4.07558
147 2 23.6098 15.7128 4.21499
148 2 27.5617 15.7333 4.34891
149 2 31.548 15.8141 4.29208
150 2 35.554 15.6885 4.3383
151 2 -0.264477 19.7392 4.32181
152 2 3.93272 19.6929 4.01305
153 2 7.94135 19.494 4.28416
154 2 12.0147 19.7285 4.19409
155 2 15.7647 19.7121 4.28147
156 2 19.4918 19.7608 4.16054
157 2 23.7508 19.6877 4.15101
158 2 27.7971 19.7206 4.14071
159 2 31.6199 19.4755 4.28401
160 2 35.7323 19.6682 4.44019
161 2 39.5385 23.7938 4.10574
162 2 3.94272 23.6789 4.19437
163 2 7.83306 23.7882 4.32103
164 2 11.9014 23.5393 4.16242
165 2 15.9166 23.7636 4.32259
166 2 19.7222 23.7291 4.17284
167 2 23.7581 23.4667 4.29895
168 2 27.7092 23.5904 4.38932
169 2 31.75 23.485 4.21162
170 2 35.7089 23.6194 4.39525
171 2 39.674 27.6622 4.15245
172 2 4.04599 27.5208 4.06898
173 2 7.98261 27.6032 4.09638
174 2 11.9088 27.5023 4.08432
175 2 15.9011 27.6084 4.10213
176 2 19.7616 27.8608 4.28716
177 2 23.7505 27.4546 4.24995
178 2 27.6298 27.5522 4.23765
179 2 31.6089 27.3909 4.19093
180 2 35.6287 27.513 4.12616
181 2 -0.081143 31.4381 4.27123
182 2 3.83848 31.7154 4.27903
183 2 7.8763 31.5869 4.26226
184 2 11.6444 31.6284 4.20471
185 2 15.7558 31.5941 4.27678
186 2 19.7815 31.7387 4.24093
187 2 23.8058 31.4368 4.2016
188 2 27.6472 31.3747 4.30859
189 2 31.6806 31.6113 4.30977
190 2 35.4526 31.4738 4.24529
191 2 -0.183613 35.5368 4.19887
192 2 3.88552 35.5446 4.32707
193 2 7.96748 35.6073 4.13065
194 2 11.8124 35.4419 4.07448
195 2 15.854 35.4415 4.31902
196 2 19.7599 35.6334 4.34395
197 2 23.7447 35.5391 4.22027
198 2 27.6254 35.5333 4.31801
199 2 31.6157 35.4966 4.28855
200 2 35.508 35.3613 4.06661
201 2 39.7424 39.3326 8.24546
202 2 4.22004 39.5492 8.11957
203 2 8.11629 39.614 8.28067
204 2 11.9844 -0.00283652 8.06937
205 2 15.9419 -0.0255453 8.18367
206 2 19.8169 39.5045 8.25606
207 2 23.6334 39.2858 8.31105
208 2 27.6035 0.00794156 8.23703
209 2 31.8647 39.5575 8.28332
210 2 35.6967 39.3456 8.23755
211 2 39.9433 3.74941 8.26333
212 2 4.18717 4.05468 8.14392
213 2 7.98044 4.15793 8.34677
214 2 11.8571 3.98939 8.12979
215 2 15.7724 3.80893 8.25094
216 2 19.7502 3.75344 8.24761
217 2 23.7389 3.88764 8.35719
218 2 27.8346 3.99961 8.43222
219 2 31.7294 3.83084 8.35874
220 2 35.8167 3.8652 8.11569
221 2 39.6087 7.75124 8.45917
222 2 4.03352 7.89109 8.39737
223 2 7.96635 7.95355 8.26875
224 2 11.9084 7.92436 8.36835
225 2 15.6611 7.67083 8.22972
226 2 19.972 7.89866 8.22408
227 2 23.5924 7.79456 8.25691
228 2 27.4649 7.72178 8.2373
229 2 31.5568 7.69633 8.28242
230 2 35.5338 7.77718 8.40771
231 2 39.7177 11.7109 8.18452
232 2 3.82712 11.9711 8.22043
233 2 8.02303 11.8169 8.28343
234 2 11.798 11.7973 8.27858
235 2 15.8316 11.7712 8.16836
236 2 19.82 11.8146 8.44252
237 2 23.6685 11.9166 8.2032
238 2 27.6947 11.7794 8.23548
239 2 31.6592 11.5174 8.0283
240 2 35.4613 11.6418 8.35465
241 2 39.5942 15.5759 8.3285
242 2 3.92584 15.8638 8.03722
243 2 7.93536 15.8854 8.24332
244 2 11.9308 15.7947 8.26202
245 2 15.9911 15.7613 8.25266
246 2 19.9788 15.746 8.13763
247 2 23.8177 15.6169 8.20225
248 2 27.549 15.5308 8.21752
249 2 31.5961 15.4375 8.25931
250 2 35.752 15.5969 8.22168
251 2 39.7599 19.8158 8.27607
252 2 3.92605 19.6181 8.10898
253 2 7.93822 19.7786 8.32281
254 2 11.9788 19.7944 8.32412
255 2 15.9695 19.9001 8.2482
256 2 19.7336 19.6214 8.14513
257 2 23.6827 19.7346 8.3246
258 2 27.7805 19.5837 8.37939
259 2 31.6766 19.6355 8.37348
260 2 35.5271 19.6071 8.3854
261 2 39.7397 23.8147 8.04789
262 2 4.09175 23.6943 8.19137
263 2 7.88225 23.5306 8.31207
264 2 11.5774 23.8111 8.01512
265 2 15.8864 23.7393 8.16839
266 2 19.8413 23.7023 8.15834
267 2 23.6963 23.8288 8.29568
268 2 28.0235 23.6884 8.15297
269 2 31.7036 23.4893 8.27113
270 2 35.6942 23.6741 8.11772
271 2 0.164718 27.5991 8.22465
272 2 4.02385 27.6685 8.20844
273 2 7.96477 27.6965 8.2868
274 2 11.8619 27.5507 8.12048
275 2 15.985 27.573 8.29001
276 2 19.7704 27.501 8.26104
277 2 23.861 27.9267 8.21757
278 2 27.8324 27.5655 8.13919
279 2 31.7685 27.4405 8.26556
280 2 35.7669 27.6867 8.18135
281 2 0.0428548 31.2471 8.11022
282 2 4.01341 31.5992 8.07868
283 2 8.06224 31.4397 8.10924
284 2 12.0054 31.589 8.23597
285 2 15.8499 31.4237 8.26961
286 2 19.8853 31.5091 8.19146
287 2 23.6713 31.6372 8.19142
288 2 27.9433 31.4993 8.37403
289 2 31.761 31.4422 8.16831
290 2 35.7647 31.5792 8.19817
291 2 39.5609 35.5951 8.27755
292 2 4.13624 35.6456 8.16318
293 2 8.10182 35.5403 8.17331
294 2 11.9638 35.6389 8.18802
295 2 15.8492 35.7059 8.31565
296 2 19.7385 35.6747 8.32201
297 2 23.6293 35.4704 8.31524
298 2 27.5341 35.6155 8.2177
299 2 31.7544 35.6231 8.11211
300 2 35.761 35.3661 8.23188
301 2 39.6675 39.5403 12.2655
302 2 4.02274 39.4619 12.4185
303 2 8.01466 39.4534 12.0532
304 2 12.02 39.5969 12.1044
305 2 15.7121 39.3347 12.3984
306 2 19.7459 -0.0846858 12.0679
307 2 23.9683 -0.154543 12.1337
308 2 27.8058 -0.120046 12.1447
309 2 31.7189 -0.295399 12.1876
310 2 35.6474 39.5358 12.2159
311 2 39.5475 3.60962 12.2444
312 2 4.08926 3.87523 12.2443
313 2 8.01788 3.86533 12.2829
314 2 12.1417 3.94011 12.2408
315 2 15.9015 3.81957 12.2332
316 2 19.7363 3.87004 12.2117
317 2 23.7478 3.72599 12.3529
318 2 27.7705 3.91043 12.1641
319 2 31.9036 3.78598 12.3077
320 2 35.7702 3.83246 12.1365
321 2 39.6767 7.7189 12.1846
322 2 3.88206 7.80303 12.306
323 2 8.07245 7.90307 12.26
324 2 12.1461 7.81845 12.2945
325 2 15.9644 7.86426 12.1898
326 2 19.8558 7.76567 12.2105
327 2 23.8086 7.83979 12.2468
328 2 27.7789 7.71629 12.2175
329 2 31.6712 7.73429 12.3139
330 2 35.6382 8.03318 12.2338
331 2 39.8186 11.7257 12.4627
332 2 4.04055 11.8431 12.0298
333 2 7.86686 11.7306 12.1052
334 2 11.9675 11.9705 12.3606
335 2 16.025 11.8636 12.2795
336 2 19.8614 11.7829 12.3841
337 2 23.8764 11.7451 12.3869
338 2 27.8516 11.7887 12.253
339 2 31.8091 11.8279 12.0039
340 2 35.6381 11.8743 12.3224
341 2 39.6551 15.8185 12.1784
342 2 4.04677 15.7763 12.0315
343 2 7.73852 15.8675 12.2124
344 2 11.8508 15.5035 12.1653
345 2 15.8556 15.8187 12.4529
346 2 20.0458 15.6631 12.1321
347 2 23.8173 15.8909 12.1345
348 2 27.8365 15.766 12.3056
349 2 31.8183 15.8519 12.1414
350 2 35.8958 15.8512 12.0817
351 2 0.097236 19.763 12.0802
352 2 4.08493 19.8353 11.9618
353 2 8.05801 19.7446 12.2286
354 2 12.0458 19.7292 11.9894
355 2 15.8414 19.8592 12.1534
356 2 20.0017 19.7612 11.9607
357 2 23.8231 19.5804 12.3274
358 2 27.6444 19.558 12.1019
359 2 31.7382 19.4643 12.1903
360 2 35.834 19.6794 12.2524
361 2 0.0161999 23.4833 12.226
362 2 4.08384 23.7947 12.1092
363 2 8.03001 23.7424 12.2019
364 2 11.9048 23.7607 12.2356
365 2 15.9056 23.712 12.2
366 2 19.8513 23.729 12.2675
367 2 23.9847 23.8779 12.1862
368 2 27.5598 23.5982 12.2998
369 2 31.7291 23.4288 12.3549
370 2 35.7312 23.5791 12.0661
371 2 39.7762 27.8133 12.0052
372 2 4.14495 27.5671 12.1518
373 2 7.89887 27.647 12.1905
374 2 12.1305 27.6367 12.3133
375 2 15.8876 27.6598 12.3109
376 2 19.9825 27.6535 12.127
377 2 23.8924 27.5845 12.1481
378 2 27.7801 27.5643 12.0672
379 2 31.6626 27.4885 12.1424
380 2 35.5802 27.6853 12.0624
381 2 0.146531 31.6451 12.2969
382 2 3.96961 31.722 12.1825
383 2 8.05348 31.6315 12.15
384 2 11.9723 31.7305 12.123
385 2 15.9097 31.5013 12.1888
386 2 20.1015 31.567 12.3323
387 2 23.8664 31.7483 12.0897
388 2 27.833 31.8452 12.2792
389 2 31.7481 31.5734 12.2478
390 2 35.857 31.4974 12.2227
391 2 39.6614 35.5785 12.294
392 2 3.85143 35.527 12.0455
393 2 7.90224 35.5227 12.1202
394 2 11.9158 35.7527 12.0594
395 2 15.7838 35.4739 12.1501
396 2 19.9011 35.4377 12.2833
397 2 23.7394 35.6856 12.4061
398 2 27.8418 35.4416 12.0915
399 2 31.5396 35.5671 12.2556
400 2 35.6782 35.3535 12.0938
401 2 0.138975 39.5159 16.2376
402 2 4.25518 39.7243 16.1503
403 2 8.06204 39.442 16.2842
404 2 11.8541 0.0376457 16.343
405 2 15.6982 39.5605 16.1656
406 2 19.7994 39.4691 16.0592
407 2 23.8639 -0.190644 16.2205
408 2 27.8156 39.4396 16.1734
409 2 31.9628 39.4957 16.2205
410 2 35.7645 39.5258 16.2311
411 2 39.8694 3.986 16.1982
412 2 4.00022 3.92076 16.08
413 2 7.78536 3.97982 16.2245
414 2 11.9207 4.02947 16.1384
415 2 15.9005 3.80442 16.3394
416 2 19.9108 3.83238 16.0974
417 2 24.0729 3.98191 16.2423
418 2 27.9514 3.86729 16.1986
419 2 31.656 3.73508 16.1963
420 2 35.6416 3.72581 16.1592
421 2 0.148757 8.00112 16.2045
422 2 3.95199 8.03786 16.147
423 2 7.93536 7.89902 16.236
424 2 11.8664 7.9374 15.9908
425 2 15.9231 7.83423 16.2976
426 2 19.9197 7.80842 16.2835
427 2 23.8071 7.87384 16.4364
428 2 27.787 7.80266 16.2765
429 2 31.6866 7.95578 16.2339
430 2 35.8703 7.88883 16.1431
431 2 39.6815 11.8487 16.3207
432 2 4.11376 12.0458 16.1227
433 2 8.05149 11.8449 16.3282
434 2 12.0161 11.7812 16.1096
435 2 15.9726 11.6734 16.1811
436 2 19.77 11.9534 16.3681
437 2 23.8992 11.6821 16.3068
438 2 28.0285 11.7126 16.1573
439 2 31.8955 11.9431 16.2032
440 2 35.6784 11.8767 16.2619
441 2 0.064717 15.976 16.1689
442 2 3.91614 15.8499 16.0779
443 2 8.13314 15.8775 16.1125
444 2 12.1023 15.6801 16.1261
445 2 15.8669 16.0786 16.2737
446 2 19.6122 15.7494 16.0813
447 2 23.7251 15.7676 16.0804
448 2 27.9039 15.7715 15.979
449 2 31.7031 15.8163 16.1911
450 2 35.695 15.9028 16.4013
451 2 39.8814 19.829 16.0711
452 2 4.15979 19.8394 16.3174
453 2 8.28416 19.6958 16.1357
454 2 12.0202 19.8261 16.1972
455 2 15.8727 19.9569 16.0708
456 2 19.7907 19.6666 16.2481
457 2 23.7083 19.7805 16.1662
458 2 27.8219 19.7449 15.9462
459 2 31.6997 19.5696 16.1326
460 2 35.5767 19.7088 16.3746
461 2 39.4767 23.8846 16.0975
462 2 4.11926 23.6237 16.1043
463 2 7.94594 23.8164 16.3236
464 2 12.0129 23.8017 16.2517
465 2 16.1572 23.7326 16.1118
466 2 19.9896 23.6394 16.188
467 2 24.0971 23.6804 16.2219
468 2 27.8295 23.6839 16.2265
469 2 31.7314 23.5077 16.1056
470 2 35.6318 23.357 16.1975
471 2 0.18709 27.4662 16.1149
472 2 4.06433 27.6798 16.2185
473 2 8.10802 27.7144 16.0781
474 2 12.0001 27.8641 16.193
475 2 15.9139 27.7616 15.9574
476 2 19.7374 27.7099 16.1522
477 2 23.8289 27.6016 16.0916
478 2 27.8059 27.6527 16.1471
479 2 31.9002 27.7001 16.2037
480 2 35.5886 27.3274 16.1577
481 2 -0.0278535 31.5066 16.3854
482 2 4.04626 31.5385 16.2544
483 2 7.94449 31.3654 16.2478
484 2 12.0651 31.7353 16.2387
485 2 15.803 31.4997 16.0097
486 2 19.9298 31.7461 16.1882
487 2 24.0247 31.3827 16.2071
488 2 27.7095 31.4351 16.1461
489 2 31.6488 31.4736 16.257
490 2 35.767 31.3478 15.9032
491 2 -0.0600639 35.5534 16.1225
492 2 4.01881 35.5697 16.2959
493 2 7.88132 35.4512 16.0718
494 2 11.8507 35.6403 16.2516
495 2 15.7878 35.5865 16.3212
496 2 19.7567 35.5557 16.2805
497 2 23.8447 35.5767 16.242
498 2 27.6161 35.6083 16.1417
499 2 31.8608 35.5838 16.1893
500 2 35.7058 35.4276 16.2529
501 2 -0.0873032 39.538 20.1907
502 2 3.91195 39.4564 20.1241
503 2 7.88016 39.5392 20.0378
504 2 11.8579 39.5668 20.1045
505 2 15.7631 39.6453 20.2101
506 2 19.7815 39.573 20.1194
507 2 23.6176 39.6075 20.2313
508 2 27.6347 39.5273 20.175
509 2 31.7673 39.6864 20.235
510 2 35.6952 39.5252 20.3873
511 2 0.24617 4.01827 20.3044
512 2 3.96947 4.02544 20.2297
513 2 8.11899 3.93798 20.025
514 2 11.8845 3.93034 20.2469
515 2 16.1319 3.94178 20.2829
516 2 19.9141 3.9141 20.2406
517 2 23.9416 3.79903 20.1435
518 2 27.8808 4.02713 20.2627
519 2 31.8423 4.03532 20.1789
520 2 35.6626 4.00073 20.2076
521 2 0.0372585 7.86779 20.3295
522 2 3.83507 8.08004 20.2241
523 2 8.11666 8.01969 20.2581
524 2 11.8704 7.90835 20.1984
525 2 15.9112 7.90712 20.349
526 2 20.0488 7.87449 20.1323
527 2 23.96 7.85631 20.2201
528 2 27.8604 7.9444 20.0716
529 2 31.8871 7.86864 20.1181
530 2 35.7437 7.85309 20.1297
531 2 -0.0429766 11.8893 20.29
532 2 3.96335 11.9421 20.0774
533 2 7.96318 12.0658 20.1174
534 2 12.1858 12.004 20.0257
535 2 15.9724 11.8119 20.2629
536 2 19.9326 11.9553 20.0742
537 2 23.8382 11.6873 20.2215
538 2 27.7345 11.8119 20.172
539 2 31.891 11.962 20.2089
540 2 35.8261 11.8291 20.3157
541 2 0.109211 15.7842 20.2215
542 2 3.87502 15.7929 20.2496
543 2 8.2062 15.9798 20.2457
544 2 12.122 15.981 20.2042
545 2 16.0306 15.9389 20.0873
546 2 19.9471 15.6113 20.1671
547 2 23.9705 15.7646 20.2371
548 2 27.6576 15.7524 20.3099
549 2 31.6306 15.8309 20.1572
550 2 35.7634 15.7929 20.3511
551 2 39.8293 19.6549 20.3111
552 2 4.15063 19.8019 20.0308
553 2 8.00613 19.8789 20.2638
554 2 11.7188 19.9441 20.1121
555 2 15.9152 19.8754 20.1806
556 2 19.9948 19.8345 20.2455
557 2 23.9056 19.6309 20.0992
558 2 27.724 19.7571 20.1309
559 2 31.5913 19.6045 20.2652
560 2 35.6692 19.6709 20.3599
561 2 39.6479 23.6347 20.2805
562 2 4.23838 23.786 20.0938
563 2 7.91404 23.7449 20.3466
564 2 12.1624 23.779 20.1194
565 2 16.047 23.7641 20.0936
566 2 20.0162 23.853 20.06
567 2 23.7092 23.6347 20.0083
568 2 27.9118 23.6048 20.1475
569 2 31.8354 23.7319 19.9097
570 2 35.7943 23.5931 20.2633
571 2 39.7547 27.4159 20.3371
572 2 4.01121 27.7616 20.2817
573 2 7.9788 27.7156 20.2759
574 2 12.0462 27.742 20.1245
575 2 15.9057 27.7402 20.1685
576 2 19.8789 27.6286 20.2726
577 2 23.7452 27.6423 20.0963
578 2 27.6347 27.548 20.2353
579 2 31.6882 27.6746 20.294
580 2 35.6271 27.7355 20.2089
581 2 39.8294 31.606 20.2204
582 2 4.04481 31.6535 20.3173
583 2 7.90696 31.5822 20.1957
584 2 11.8989 31.8156 20.254
585 2 16.071 31.4688 19.9743
586 2 19.8239 31.4662 19.9648
587 2 23.9745 31.8224 20.2663
588 2 27.883 31.7373 20.1111
589 2 31.7825 31.7939 20.0457
590 2 35.8525 31.4413 20.2273
591 2 -0.10382 35.5949 20.068
592 2 3.70193 35.6583 20.2157
593 2 7.98754 35.61 20.1029
594 2 11.8645 35.6439 20.2232
595 2 16.0014 35.6272 20.2214
596 2 19.8709 35.5549 20.0619
597 2 23.8897 35.5236 20.2057
598 2 27.9305 35.6853 20.2001
599 2 31.606 35.634 20.0785
600 2 35.7376 35.3196 20.2516
601 2 0.0721426 39.5309 24.1905
602 2 4.12737 39.576 24.1
603 2 7.81389 39.7143 24.299
604 2 11.9231 -0.0281704 24.1781
605 2 15.7009 0.228466 24.2235
606 2 19.7259 39.5669 24.2006
607 2 24.0772 39.6028 24.0391
608 2 27.9662 39.6919 24.0157
609 2 31.7444 39.6857 24.2095
610 2 35.7245 39.7567 24.2567
611 2 39.7021 3.9603 24.1764
612 2 3.99224 3.83675 24.1026
613 2 8.09331 3.91777 24.1488
614 2 11.9266 4.05633 24.0466
615 2 15.6853 4.04662 24.223
616 2 19.8046 4.05638 24.16
617 2 23.7064 3.96521 24.0931
618 2 27.7696 4.24083 24.1277
619 2 31.7363 4.03793 24.2367
620 2 35.5073 4.17963 24.1564
621 2 0.0547191 7.86622 24.293
622 2 4.09945 7.91691 23.9505
623 2 8.02969 7.88045 24.2019
624 2 11.8901 7.97668 24.3242
625 2 15.7936 7.93976 24.126
626 2 20.0054 7.95847 24.0977
627 2 23.7517 7.7382 24.1916
628 2 28.0115 7.94002 24.0428
629 2 31.7453 8.02115 24.2655
630 2 35.6917 8.01828 24.4543
631 2 39.739 11.717 24.2695
632 2 4.27703 11.8895 24.0949
633 2 8.23076 12.0037 24.128
634 2 12.0828 11.8971 24.2137
635 2 15.9671 11.941 24.226
636 2 20.0462 11.8963 24.2143
637 2 23.9547 11.6819 24.2866
638 2 27.8665 11.8011 24.1383
639 2 31.8694 11.6668 24.0876
640 2 35.8214 11.7903 24.0218
641 2 39.731 15.7683 24.1648
642 2 4.26335 15.7928 24.2297
643 2 8.14617 15.7833 24.2334
644 2 12.2434 15.9978 23.9281
645 2 15.966 16.15 24.0332
646 2 19.9687 15.8578 24.2463
647 2 23.759 15.7977 24.3256
648 2 27.7365 15.7918 24.202
649 2 31.6273 15.6241 24.3393
650 2 35.5622 15.906 24.372
651 2 0.356852 19.7223 24.2892
652 2 3.87007 19.9177 23.9933
653 2 8.04736 19.5791 24.1955
654 2 11.9818 19.8639 24.1061
655 2 15.8014 20.0214 24.1044
656 2 19.692 19.8625 24.081
657 2 23.7863 19.8598 24.0971
658 2 27.8069 19.842 24.2821
659 2 31.7865 19.8907 24.1999
660 2 35.9858 19.7964 24.0307
661 2 0.0730558 23.7206 24.1753
662 2 4.1853 23.6834 24.2055
663 2 8.04127 23.6768 24.2575
664 2 12.1648 23.9647 24.1271
665 2 15.9018 23.7296 24.106
666 2 20.0612 23.9738 24.1135
667 2 23.9905 23.8066 24.0402
668 2 27.8453 23.7706 24.178
669 2 31.7677 23.8764 23.975
670 2 35.7313 23.7071 24.0687
671 2 39.7493 27.7323 24.2613
672 2 4.11937 27.7973 24.2926
673 2 8.22342 27.6775 24.1849
674 2 11.8989 27.7463 24.1365
675 2 16.0447 27.7952 24.1512
676 2 20.0016 27.7932 23.9964
677 2 23.8596 27.8729 23.9441
678 2 27.8682 27.5799 24.2038
679 2 31.8525 27.8053 24.221
680 2 35.9249 27.6705 24.0924
681 2 0.148017 31.7781 24.1841
682 2 4.23698 31.8217 24.1724
683 2 8.02638 31.899 23.9676
684 2 12.0907 31.7825 24.2359
685 2 16.0948 31.7687 24.1759
686 2 19.909 31.7689 24.0707
687 2 23.9175 31.6663 23.9464
688 2 27.8622 31.7512 24.0414
689 2 31.8192 31.739 24.2711
690 2 35.676 31.6619 24.1951
691 2 0.0564229 35.4017 24.1631
692 2 3.81795 35.7236 24.0419
693 2 8.03965 35.8124 24.0722
694 2 11.874 35.8074 24.0842
695 2 15.8671 35.8535 24.1205
696 2 19.9232 35.5317 23.8995
697 2 24.0317 35.8498 24.1792
698 2 27.8281 35.4243 24.0569
699 2 31.8914 35.7995 24.0509
700 2 35.7101 35.7029 24.2788
701 2 0.303927 39.5011 28.1264
702 2 4.04577 0.160139 28.2685
703 2 8.10378 39.707 28.1962
704 2 11.8875 39.5622 28.2031
705 2 15.9582 39.7707 28.1029
706 2 19.8192 39.6138 27.9593
707 2 23.8312 39.5773 28.0281
708 2 27.7294 39.6906 27.9039
709 2 31.4711 39.7246 27.8871
710 2 35.8329 39.7019 28.0552
711 2 -0.122333 4.04434 28.2083
712 2 4.19725 3.96557 27.86
713 2 8.05199 4.15233 28.216
714 2 11.9861 4.2106 28.3053
715 2 16.0572 4.23545 28.2728
716 2 19.7118 3.89651 28.1981
717 2 23.6093 3.86598 27.9766
718 2 27.795 3.84617 28.1964
719 2 31.9608 4.11286 28.1286
720 2 35.7053 3.93513 28.1447
721 2 0.309571 7.91986 28.2083
722 2 4.15202 8.06059 28.0273
723 2 7.9813 7.88007 28.1337
724 2 11.8743 8.10639 28.1513
725 2 15.8058 8.11184 28.0789
726 2 19.8417 7.90245 28.0941
727 2 24.0319 7.97742 28.0963
728 2 27.7856 7.84845 28.1242
729 2 31.717 7.95452 28.3859
730 2 35.7442 7.96912 28.2354
731 2 0.00245339 12.1469 28.0799
732 2 3.96614 11.9211 28.1763
733 2 7.89455 11.8607 28.0526
734 2 12 11.9348 28.3455
735 2 16.107 11.9033 28.213
736 2 19.7476 11.9817 28.2036
737 2 23.7433 11.9531 28.2505
738 2 27.5713 11.8184 28.0672
739 2 31.7338 11.9524 28.0954
740 2 35.8251 12.2463 28.1326
741 2 0.180324 15.9139 28.1137
742 2 3.95661 15.8597 28.0441
743 2 8.02381 15.7415 28.1569
744 2 11.9636 15.863 28.1026
745 2 16.0043 15.8275 28.016
746 2 19.9874 15.7658 28.1691
747 2 23.6651 16.1089 28.1446
748 2 27.6945 15.8129 28.3077
749 2 31.8544 15.89 28.1244
750 2 35.8053 15.8262 28.19
751 2 0.178539 19.8662 28.1571
752 2 4.19553 19.8515 28.1306
753 2 8.2302 19.6173 28.0649
754 2 11.9658 19.8715 28.1537
755 2 15.9931 19.8873 28.029
756 2 19.9537 19.9491 28.1495
757 2 23.7064 19.904 27.8886
758 2 27.8826 20.0543 28.1256
759 2 31.8093 20.0533 28.3002
760 2 35.8663 19.7457 28.0088
761 2 0.0954573 23.8452 28.1424
762 2 4.34568 23.9295 28.1233
763 2 8.27105 23.6931 27.8988
764 2 12.0377 23.8841 28.0836
765 2 16.0596 23.7221 28.0944
766 2 19.8815 23.9598 28.1657
767 2 23.8893 23.6812 28.0512
768 2 27.9735 23.8103 28.1077
769 2 31.8856 23.8675 28.2202
770 2 35.8264 23.8573 28.1276
771 2 39.9234 27.7223 28.0255
772 2 4.22942 27.9419 28.0455
773 2 8.21783 27.6782 28.1263
774 2 12.0935 27.9859 28.0142
775 2 15.8995 27.8905 28.0218
776 2 19.9412 27.7319 28.1982
777 2 23.8882 27.768 28.1045
778 2 27.8917 27.9224 28.2096
779 2 31.8856 27.7558 27.9372
780 2 35.7209 27.7976 28.1626
781 2 0.109946 31.7063 28.1405
782 2 3.97939 31.8078 28.0703
783 2 7.91282 31.6791 28.1038
784 2 11.8128 31.8988 28.0852
785 2 15.8837 31.9368 27.9572
786 2 19.781 31.8519 28.0094
787 2 23.8654 31.735 28.1779
788 2 27.7319 31.7661 28.056
789 2 31.7247 31.6653 28.1136
790 2 35.6749 31.7745 28.0435
791 2 -0.147885 35.7101 28.0062
792 2 3.98915 35.7968 28.24
793 2 7.88855 35.8012 28.2508
794 2 11.8592 35.6982 28.1343
795 2 15.9218 35.7936 28.1473
796 2 19.8394 35.9194 27.9898
797 2 23.6026 35.6474 28.1938
798 2 27.6702 35.6793 27.9465
799 2 31.9288 35.6448 28.1498
800 2 35.5188 35.8541 28.1504
801 2 0.0344997 39.7322 32.1653
802 2 4.09992 0.259081 32.1304
803 2 8.10353 0.136978 31.9758
804 2 11.931 39.6991 32.3618
805 2 15.9506 0.109848 32.0088
806 2 19.8755 0.17721 32.0505
807 2 23.9304 39.6473 31.9746
808 2 27.9254 39.4695 32.0336
809 2 31.8404 39.7037 32.0114
810 2 35.5828 39.7263 32.2016
811 2 0.00607938 3.92608 32.0989
812 2 4.09124 3.90408 32.1551
813 2 7.93541 3.93818 31.8987
814 2 11.9998 4.12709 32.1067
815 2 15.9077 3.9673 32.161
816 2 20.0099 3.86449 31.9615
817 2 23.8353 4.13468 32.0923
818 2 27.5864 4.1586 32.1326
819 2 31.6661 4.19187 32.163
820 2 35.5978 4.08189 32.344
821 2 39.711 7.91803 32.2837
822 2 4.01966 7.97995 32.1392
823 2 8.07244 7.99882 32.3152
824 2 11.8419 8.02235 32.2809
825 2 15.8622 8.00403 32.2098
826 2 19.6983 7.90389 32.1653
827 2 23.7198 8.04414 32.0895
828 2 27.7134 8.02283 32.1376
829 2 31.6622 8.30503 31.9521
830 2 35.8268 8.10266 32.2482
831 2 0.0206926 12.0745 32.1912
832 2 4.18522 11.9123 32.2548
833 2 7.90002 12.0888 32.1843
834 2 11.9011 11.9627 32.0844
835 2 15.8469 11.9248 32.2206
836 2 19.7967 11.8992 32.1877
837 2 23.6164 11.9678 32.0499
838 2 27.7864 11.9984 31.9102
839 2 31.6202 12.1966 32.0832
840 2 35.685 11.9393 32.1798
841 2 0.214683 15.9038 31.9563
842 2 4.165 15.9811 32.0107
843 2 7.95293 15.7621 32.1263
844 2 11.9154 15.856 32.1851
845 2 16.0262 15.8286 32.1168
846 2 19.6266 15.9613 31.9598
847 2 23.789 15.977 32.123
848 2 27.7958 16.0423 32.1242
849 2 31.6153 15.8566 32.0277
850 2 35.6393 16.0529 31.9295
851 2 0.108474 19.8936 31.9943
852 2 4.1848 20.0318 31.9919
853 2 7.94566 19.7394 32.1746
854 2 11.8149 19.8651 32.2833
855 2 15.7405 19.8284 32.0678
856 2 19.6014 19.6759 32.1839
857 2 23.7651 19.8756 32.2474
858 2 27.7036 19.8764 32.0703
859 2 31.6641 19.868 32.171
860 2 35.8241 19.9971 32.0422
861 2 0.0999247 23.9889 32.2052
862 2 4.29866 23.8042 32.0991
863 2 7.97577 24.0084 32.0427
864 2 12.1057 23.8466 31.9685
865 2 15.9095 23.908 31.8767
866 2 19.8121 23.6018 32.1195
867 2 23.8807 23.942 32.0931
868 2 27.7169 24.063 32.1026
869 2 31.7339 23.8161 32.234
870 2 35.886 23.8067 32.0727
871 2 0.150692 27.9103 32.0045
872 2 4.09782 27.8819 31.9457
873 2 7.87127 27.9008 32.0818
874 2 12.0288 27.7764 32.2418
875 2 16.0345 27.7575 31.9212
876 2 19.8308 28.0705 32.1292
877 2 23.6863 28.0395 31.95
878 2 27.4766 27.7982 32.0672
879 2 31.6627 27.9369 32.0697
880 2 35.8386 28.0251 31.8964
881 2 0.0868499 31.6499 32.1258
882 2 3.94375 31.8014 32.0482
883 2 8.01455 31.7386 32.235
884 2 11.8984 31.8964 32.3153
885 2 15.9129 31.6908 32.1104
886 2 19.7529 31.787 31.9121
887 2 23.6239 31.9588 32.0769
888 2 27.602 31.9667 32.0053
889 2 31.6761 31.8358 31.983
890 2 35.742 31.8347 32.055
891 2 -0.121415 35.7857 31.9588
892 2 4.00514 35.7156 32.1524
893 2 7.97382 35.883 32.0822
894 2 12.0403 35.681 32.1504
895 2 16.0846 35.7607 32.0901
896 2 19.9515 35.6101 31.9009
897 2 23.7906 35.752 32.1804
898 2 27.7224 35.7641 32.1115
899 2 31.599 35.7767 32.0526
900 2 35.535 35.7331 32.2179
901 2 -0.0479372 0.0879045 36.1905
902 2 3.90007 0.103806 36.1217
903 2 7.98416 0.137034 36.1115
904 2 11.8348 0.16304 35.9932
905 2 15.9772 0.207659 36.0189
906 2 19.8507 -0.070215 36.0357
907 2 23.7096 39.7231 35.9606
908 2 27.6558 39.8231 35.9913
909 2 31.7244 0.134106 36.2094
910 2 35.5824 0.0217466 36.1133
911 2 -0.0883357 4.07781 36.0401
912 2 3.94417 3.89978 36.1872
913 2 7.82005 4.05956 36.229
914 2 11.8806 4.25279 35.8773
915 2 15.8895 3.93946 36.1593
916 2 19.6919 4.11299 36.2501
917 2 23.6458 4.11384 36.0505
918 2 27.5075 4.07248 36.0943
919 2 31.6359 4.19178 36.0651
920 2 35.5333 3.9817 36.1038
921 2 -0.0286565 8.07443 36.2054
922 2 3.93609 8.18792 35.9057
923 2 8.0768 8.23841 36.0453
924 2 11.7495 8.0241 36.0826
925 2 15.6899 8.05671 36.2269
926 2 19.8913 8.07992 36.0914
927 2 23.9259 8.01586 36.1575
928 2 27.6433 8.36081 35.9501
929 2 31.4209 8.03153 36.0842
930 2 35.5203 8.24942 36.0379
931 2 0.0593295 12.0842 36.1021
932 2 3.88418 11.8953 36.111
933 2 7.94658 12.1035 36.0695
934 2 11.9519 11.9658 36.1151
935 2 15.8146 12.0437 35.8817
936 2 19.8216 11.9013 36.058
937 2 23.6491 12.2095 35.9848
938 2 27.6947 12.1277 35.9436
939 2 31.7384 12.048 36.0717
940 2 35.5697 12.0556 36.0293
941 2 0.0546028 15.9298 35.8655
942 2 4.0961 15.7205 36.1332
943 2 8.0954 15.8652 36.1773
944 2 11.9711 16.0031 36.3006
945 2 15.7306 15.8906 36.0968
946 2 19.7501 15.9824 36.123
947 2 23.6915 16.022 36.0814
948 2 27.7053 15.8065 36.1913
949 2 31.6761 16.1849 36.1335
950 2 35.573 16.1361 35.8957
951 2 0.238017 19.7539 36.1894
952 2 3.94814 20.0005 35.9479
953 2 7.86052 19.7287 36.0684
954 2 11.7282 19.8977 36.1475
955 2 15.6541 19.8453 36.1859
956 2 19.8485 20.0511 36.174
957 2 23.8151 20.1142 36.1068
958 2 27.5784 19.9345 36.1323
959 2 31.8116 19.9895 36.0456
960 2 35.8644 19.8876 36.0989
961 2 0.156125 23.8712 36.008
962 2 4.00945 23.9704 36.1995
963 2 7.86343 24.0371 36.026
964 2 11.5947 23.8873 35.9756
965 2 15.6902 23.8489 36.0272
966 2 19.5541 23.9142 36.0169
967 2 23.6053 23.9591 35.882
968 2 27.7652 23.9778 36.2978
969 2 31.4677 23.9451 35.8689
970 2 35.5911 23.8288 35.9653
971 2 -0.0432207 27.7886 35.7957
972 2 3.92213 27.9842 36.0783
973 2 7.95826 27.8562 36.2138
974 2 11.8581 27.7455 35.9979
975 2 15.8103 27.7983 35.967
976 2 19.7276 27.8554 36.09
977 2 23.6959 27.8853 36.1208
978 2 27.6657 28.224 36.1139
979 2 31.5192 27.9317 35.9418
980 2 35.6083 27.8394 36.0446
981 2 0.024002 31.8837 36.0188
982 2 3.98036 31.8368 36.0864
983 2 7.88852 31.8569 35.9615
984 2 11.9485 31.65 36.0744
985 2 15.7329 31.842 36.0523
986 2 19.7819 31.6977 36.0193
987 2 23.5479 31.687 36.1322
988 2 27.7661 31.8999 36.1726
989 2 31.7216 31.933 35.9635
990 2 35.8939 32.0624 36.068
991 2 -0.0264931 35.7512 36.0778
992 2 3.95009 35.6595 36.0034
993 2 7.64269 35.6467 35.9994
994 2 11.9169 35.9058 36.1324
995 2 15.9992 35.7366 35.976