ITEM: TIMESTEP
36800
ITEM: NUMBER OF ATOMS
7500
ITEM: BOX BOUNDS xy xz yz pp pp pp
0.0000000000000000e+00 3.9579999999999998e+01 0.0000000000000000e+00
0.0000000000000000e+00 3.9579999999999998e+01 0.0000000000000000e+00
1.6882281806374522e-02 5.9683117718194111e+01 0.0000000000000000e+00
ITEM: ATOMS id type x y z
1 2 39.4621 39.3014 0.0766136
2 2 4.03669 -0.0953511 0.277771
3 2 7.89371 -0.152024 0.312066
4 2 11.8933 -0.317663 0.197164
5 2 15.7827 39.4795 0.289653
6 2 19.5715 0.149588 0.269485
7 2 23.5482 -0.053096 0.355925
8 2 27.6361 39.3772 0.358686
9 2 31.7762 39.402 0.381252
10 2 35.6441 39.6577 0.411432
11 2 39.6126 3.83975 0.245194
12 2 3.889 3.78183 0.258363
13 2 7.75505 3.86757 0.24114
14 2 11.9969 3.91359 0.258028
15 2 15.817 4.04566 0.287013
16 2 19.8281 3.87432 0.534661
17 2 23.6084 3.91268 0.36124
18 2 27.7408 3.74352 0.30759
19 2 31.5584 3.84604 0.432486
20 2 35.5731 3.7844 0.265596
21 2 39.506 7.75334 0.332439
22 2 3.80709 7.78205 0.0406737
23 2 8.01015 7.69726 0.505496
24 2 11.9201 8.03944 60.0009
25 2 15.9898 7.84926 0.215304
26 2 19.7818 8.13716 0.259227
27 2 23.6581 7.85152 0.206461
28 2 27.7411 7.95825 0.361898
29 2 31.6262 7.66489 0.342225
30 2 35.3889 7.62936 0.222755
31 2 39.6845 11.6846 0.196268
32 2 3.9883 11.6738 0.158383
33 2 7.96773 11.6907 0.27422
34 2 11.8951 11.759 0.353318
35 2 15.7632 11.694 0.32718
36 2 19.7062 11.8243 0.278744
37 2 23.6554 11.9894 0.41185
38 2 27.6923 11.8025 0.331503
39 2 31.8018 11.8325 0.373338
40 2 35.6521 11.6738 0.394978
41 2 39.6733 15.8324 0.257092
42 2 3.9805 15.6485 0.231694
43 2 8.05001 15.8086 0.148411
44 2 11.8464 15.697 0.433738
45 2 15.8376 15.6935 0.273641
46 2 19.6397 15.918 0.246787
47 2 23.5836 15.876 0.37253
48 2 27.4693 15.7673 0.180781
49 2 31.5717 15.7025 0.243318
50 2 35.5499 15.7493 0.351016
51 2 39.6896 19.5628 0.228676
52 2 3.81454 19.6862 0.0710431
53 2 7.84388 19.7668 0.202258
54 2 11.7669 19.6073 0.239693
55 2 15.7551 19.7362 0.202452
56 2 19.7474 19.9108 0.523189
57 2 23.7684 19.6007 0.403725
58 2 27.6987 19.7259 0.385073
59 2 31.581 19.816 0.429247
60 2 35.6643 19.717 0.112973
61 2 39.6741 23.4959 0.481111
62 2 4.00422 23.6146 0.106374
63 2 7.81278 23.7253 0.35798
64 2 11.9455 23.643 0.281636
65 2 15.6278 23.5555 0.433061
66 2 19.6032 23.7988 0.201293
67 2 23.7598 23.6375 0.372933
68 2 27.5929 23.6733 0.173605
69 2 31.6094 23.8389 0.404075
70 2 35.7718 23.7087 0.430014
71 2 39.6612 27.4744 0.203943
72 2 3.99575 27.8583 0.307199
73 2 7.95743 27.6705 0.319166
74 2 11.9594 27.7203 0.41741
75 2 15.77 27.58 0.245526
76 2 19.5224 27.6129 0.139586
77 2 23.5628 27.5784 0.0765822
78 2 27.5518 27.5322 0.290824
79 2 31.5343 27.572 0.294857
80 2 35.5738 27.503 0.280845
81 2 39.5995 31.5488 0.206496
82 2 4.00214 31.6654 0.32567
83 2 8.01576 31.7522 0.289469
84 2 11.9822 31.3191 0.454321
85 2 15.8147 31.535 0.315427
86 2 19.8747 31.6675 0.311692
87 2 23.6718 31.5915 0.175628
88 2 27.5612 31.7008 0.392909
89 2 31.6096 31.5725 0.235748
90 2 35.5822 31.5082 0.295243
91 2 39.617 35.5636 0.126416
92 2 3.93491 35.5806 0.156169
93 2 7.79123 35.4405 0.256229
94 2 11.971 35.4917 0.0260024
95 2 15.8986 35.4549 0.224008
96 2 19.7737 35.6557 0.388889
97 2 23.6912 35.69 0.364111
98 2 27.7823 35.4685 0.313812
99 2 31.5814 35.5057 0.333414
100 2 35.5862 35.576 0.45373
101 2 39.4997 -0.140115 4.29221
102 2 3.7599 39.4944 4.31911
103 2 7.98697 -0.0263784 4.31306
104 2 11.761 0.0346057 4.18227
105 2 15.6849 -0.0459488 4.40206
106 2 19.6657 39.4941 4.25472
107 2 23.7656 39.5156 4.39697
108 2 27.781 39.4348 4.05456
109 2 31.5701 -0.347086 4.31743
110 2 35.6229 39.5337 4.25286
111 2 39.6434 3.65911 3.99363
112 2 3.94799 3.84666 4.26613
113 2 8.07132 3.72518 4.26094
114 2 12.0276 3.89165 4.0949
115 2 15.8493 3.8153 4.23638
116 2 19.7838 4.12565 4.35575
117 2 23.8722 3.93028 4.32351
118 2 27.5579 3.67314 4.20404
119 2 31.5016 3.74936 4.4265
120 2 35.6769 3.72943 4.45207
121 2 -0.0480538 7.61462 4.28165
122 2 3.86079 7.9094 4.32404
123 2 7.97067 7.6794 4.2459
124 2 11.9132 7.84113 4.32755
125 2 15.9463 7.78101 4.26805
126 2 19.9038 8.01838 4.10954
127 2 23.8893 7.86473 4.19353
128 2 27.7599 7.70433 4.07685
129 2 31.8629 7.68531 4.21529
130 2 35.5997 7.62107 4.16686
131 2 39.7203 11.8483 4.27101
132 2 3.95702 11.6659 4.33267
133 2 7.7065 11.7944 4.34834
134 2 11.9223 11.6574 4.43303
135 2 15.7925 11.8386 4.49119
136 2 19.6713 11.7026 4.15003
137 2 23.8183 11.8462 4.33215
138 2 27.6843 11.5221 4.227
139 2 31.6785 11.8042 4.18175
140 2 35.6622 11.6621 4.22735
141 2 39.6863 15.6135 4.20771
142 2 4.00138 15.7054 4.14967
143 2 7.86305 15.7218 3.94989
144 2 11.89 15.8633 4.42558
145 2 15.7046 15.9129 4.39316
146 2 19.6169 15.91 4.20972
147 2 23.6411 15.7637 4.3205
148 2 27.8992 15.8776 4.29795
149 2 31.6914 15.6978 4.02297
150 2 35.6737 15.4587 4.1238
151 2 0.151311 19.5853 4.28959
152 2 3.99032 19.691 4.09986
153 2 7.69491 19.7389 4.33439
154 2 11.796 19.7276 4.34958
155 2 15.859 19.7962 4.26755
156 2 19.6679 19.712 4.32805
157 2 23.7256 19.6457 4.27235
158 2 27.8329 19.7386 4.1448
159 2 31.7984 19.553 4.15589
160 2 35.6959 19.7618 3.98656
161 2 39.39 23.6007 4.31363
162 2 3.99684 23.6269 4.25008
163 2 7.78183 23.7869 4.17662
164 2 12.0138 23.6334 4.22674
165 2 15.6407 23.8347 4.35674
166 2 19.9745 23.7568 4.24382
167 2 23.7973 23.5986 4.38968
168 2 27.7205 23.6929 4.30227
169 2 31.8394 23.5878 4.28445
170 2 35.6874 23.6578 4.23311
171 2 39.4078 27.7182 4.32019
172 2 3.805 27.4249 4.19965
173 2 7.79223 27.6568 4.40854
174 2 11.774 27.756 4.26576
175 2 15.9478 27.6454 4.27696
176 2 19.7395 27.5721 4.20455
177 2 23.6579 27.8177 4.1637
178 2 27.6979 27.6828 4.36708
179 2 31.6715 27.5659 4.31061
180 2 35.4123 27.5037 4.2938
181 2 -0.0968769 31.6101 4.12598
182 2 4.01895 31.4727 4.27409
183 2 7.98974 31.6335 4.22402
184 2 11.9098 31.6223 4.34473
185 2 15.8535 31.718 4.42328
186 2 19.7918 31.5996 4.23984
187 2 23.592 31.5469 4.18172
188 2 27.673 31.4465 4.1542
189 2 31.616 31.4639 4.18584
190 2 35.5374 31.5224 4.17849
191 2 0.156561 35.5268 4.2035
192 2 3.9501 35.5425 4.27036
193 2 8.0673 35.4712 4.26785
194 2 11.9423 35.4478 4.21547
195 2 15.806 35.5864 4.16818
196 2 19.8706 35.509 4.36597
197 2 23.921 35.5395 4.16872
198 2 27.8262 35.4966 4.18544
199 2 31.7414 35.398 4.30317
200 2 35.8405 35.5855 4.33351
201 2 39.6302 39.3826 8.3342
202 2 4.00445 39.5423 8.34315
203 2 7.95451 39.5761 8.20652
204 2 11.7332 -0.1039 8.30311
205 2 15.9358 -0.152267 8.23635
206 2 19.9476 39.5364 8.18959
207 2 23.7748 39.6536 8.40294
208 2 27.7149 -0.172232 8.22064
209 2 31.9169 39.256 8.25943
210 2 35.827 39.4467 8.23773
211 2 39.5975 4.03094 8.15411
212 2 4.03836 3.81174 8.133
213 2 8.01438 3.9639 8.4323
214 2 11.9845 4.03506 7.93905
215 2 15.7881 3.88927 8.22036
216 2 19.706 3.91041 8.0635
217 2 23.9728 3.92429 8.22644
218 2 27.8305 3.93112 8.1797
219 2 31.6076 3.81504 8.33254
220 2 35.5077 3.72365 8.39957
221 2 39.856 7.66401 8.30005
222 2 3.95728 7.61805 8.29581
223 2 7.68642 7.76664 8.37765
224 2 11.9007 7.82163 8.28435
225 2 15.986 7.89025 8.08818
226 2 19.6981 7.78553 8.1961
227 2 23.7792 7.67374 8.34719
228 2 27.8415 7.7838 8.2713
229 2 31.6435 7.77087 8.37846
230 2 35.6322 7.8319 8.18093
231 2 39.8118 11.8292 8.2906
232 2 4.03949 11.6434 8.11644
233 2 8.04335 11.8731 8.19475
234 2 11.8219 11.7204 8.28887
235 2 15.8406 11.7995 8.4239
236 2 19.8466 11.7759 8.06502
237 2 24.0608 11.8748 8.26358
238 2 27.7598 11.582 8.17846
239 2 31.6446 11.7095 8.31733
240 2 35.766 11.6325 8.17982
241 2 39.6978 15.5463 8.24894
242 2 4.14662 15.6583 8.20703
243 2 7.9177 15.6621 8.22772
244 2 11.7576 15.6539 8.37344
245 2 15.7207 15.6926 8.21317
246 2 19.9933 15.6999 8.02559
247 2 23.9138 15.8389 8.02314
248 2 27.8594 15.7198 8.33219
249 2 31.8137 15.7303 8.24599
250 2 35.8945 15.7699 8.10413
251 2 39.694 19.5033 8.03031
252 2 3.97212 19.5268 8.11536
253 2 8.04447 19.6812 8.28596
254 2 11.9082 19.6136 8.29931
255 2 15.975 19.7277 8.19057
256 2 19.8565 19.6952 8.28907
257 2 23.8915 19.7578 8.09252
258 2 27.5704 19.5108 8.20767
259 2 31.6294 19.5839 8.16441
260 2 35.6814 19.6399 8.19069
261 2 39.7024 23.7711 8.11808
262 2 4.09274 23.4633 8.14527
263 2 8.01618 23.6258 8.24878
264 2 11.9634 23.5469 8.26636
265 2 15.8668 23.8206 8.19823
266 2 19.8361 23.7094 8.29982
267 2 23.8917 23.5675 8.36543
268 2 27.7541 23.4327 8.1083
269 2 31.5317 23.3891 8.28329
270 2 35.5902 23.5656 8.27115
271 2 0.120241 27.4884 8.15691
272 2 3.88476 27.4556 8.26047
273 2 7.73974 27.4471 8.21405
274 2 11.6137 27.7351 8.37944
275 2 15.8334 27.5941 8.17293
276 2 19.9066 27.6483 7.95838
277 2 23.8076 27.5429 8.45916
278 2 27.6077 27.6072 8.44118
279 2 31.4967 27.4747 8.21548
280 2 35.4491 27.5276 8.24925
281 2 0.152479 31.4916 8.11214
282 2 4.03491 31.5409 8.30549
283 2 7.96131 31.6941 8.29035
284 2 11.9712 31.7113 8.24756
285 2 16.0659 31.6735 8.25079
286 2 19.7401 31.4078 8.10708
287 2 23.7173 31.7273 8.30318
288 2 27.8892 31.6012 8.16729
289 2 31.6776 31.5069 8.266
290 2 35.5954 31.5388 8.1591
291 2 39.5821 35.5541 8.18197
292 2 4.05049 35.7194 8.28948
293 2 7.90433 35.4498 8.20645
294 2 11.8321 35.6036 8.13444
295 2 15.8142 35.4467 8.10091
296 2 20.0181 35.376 8.16744
297 2 23.7981 35.8895 8.23392
298 2 27.6484 35.4409 8.25729
299 2 31.6482 35.3999 8.13039
300 2 35.8752 35.4441 8.01825
301 2 39.6293 39.3483 12.1759
302 2 4.20695 39.639 12.1931
303 2 8.04961 39.6127 12.1895
304 2 12.1984 39.7029 12.0825
305 2 15.78 39.49 12.1596
306 2 19.674 -0.245993 12.2664
307 2 23.8376 -0.287049 12.216
308 2 27.8036 -0.260448 12.2087
309 2 31.6192 -0.124582 12.2884
310 2 35.7857 39.526 12.2095
311 2 39.486 3.80714 12.285
312 2 4.09027 3.84447 12.3772
313 2 8.16696 3.86448 12.1726
314 2 12.2098 3.85527 12.0814
315 2 15.8465 4.0084 12.2234
316 2 19.905 3.90142 12.3357
317 2 23.8391 3.82008 12.0426
318 2 27.9354 3.72399 12.1353
319 2 31.8429 3.85179 12.1408
320 2 35.7356 3.78633 12.2357
321 2 39.6242 7.89172 12.3146
322 2 4.22908 7.94413 12.4279
323 2 8.00764 7.91166 12.2684
324 2 11.679 7.85803 12.3579
325 2 15.9443 7.83339 12.1734
326 2 20.0084 7.80539 12.3484
327 2 23.8969 7.58141 12.2067
328 2 27.8362 7.92082 12.3725
329 2 31.809 7.69013 12.4128
330 2 35.817 7.88437 12.1202
331 2 39.6759 11.7505 12.2677
332 2 3.83785 11.9427 12.2244
333 2 7.85468 11.7191 12.1007
334 2 11.9892 11.6717 12.2391
335 2 16.0534 11.9052 12.2773
336 2 19.8841 11.6074 12.2344
337 2 23.69 11.7244 12.0056
338 2 27.7487 11.7356 12.3552
339 2 31.8927 11.5914 12.0845
340 2 35.4715 11.7533 12.3294
341 2 39.6668 15.6871 12.2456
342 2 3.95758 15.8624 12.2723
343 2 7.99105 15.6622 12.2762
344 2 11.8627 15.7242 12.1382
345 2 15.9713 15.8427 12.0147
346 2 20.0194 15.7554 12.2724
347 2 23.6546 15.6486 12.1169
348 2 27.8678 15.6594 12.2961
349 2 31.8791 15.4372 12.2166
350 2 35.7988 15.5807 12.2478
351 2 0.0222897 19.5114 12.0658
352 2 4.08327 19.7481 12.135
353 2 8.04929 19.5433 12.3198
354 2 12.0577 19.7129 12.2267
355 2 15.8998 19.8088 12.1008
356 2 19.9878 19.4647 12.1625
357 2 23.8171 19.554 12.2525
358 2 27.7795 19.5687 12.2355
359 2 31.7416 19.4825 12.2927
360 2 35.8292 19.6995 12.1764
361 2 0.00813449 23.5221 12.1608
362 2 3.93561 23.5303 12.3341
363 2 7.86645 23.7507 12.0608
364 2 12.0772 23.7696 12.3556
365 2 15.7623 23.6336 12.1129
366 2 19.7858 23.7986 12.0551
367 2 23.6863 23.4915 12.2596
368 2 27.7486 23.5189 12.1734
369 2 31.748 23.6299 12.0481
370 2 35.6991 23.5561 12.1662
371 2 39.7015 27.4022 12.1368
372 2 3.88329 27.5587 12.1969
373 2 8.19951 27.5982 12.2981
374 2 11.9301 27.6848 12.3084
375 2 15.9362 27.5754 12.1567
376 2 19.8653 27.6117 12.2623
377 2 23.8854 27.6927 12.2974
378 2 27.7016 27.4738 12.362
379 2 31.6382 27.5347 12.273
380 2 35.8321 27.643 12.2933
381 2 0.102752 31.7782 12.1312
382 2 3.97706 31.4178 12.3062
383 2 7.96979 31.6141 12.0706
384 2 11.949 31.5579 12.0317
385 2 15.986 31.6974 12.2069
386 2 19.9976 31.5751 12.0833
387 2 23.8983 31.4102 12.2049
388 2 27.7178 31.5248 12.1567
389 2 31.8977 31.483 12.1155
390 2 35.7464 31.7142 12.096
391 2 39.6469 35.5643 12.298
392 2 4.14725 35.4478 12.3894
393 2 8.2109 35.5503 12.2831
394 2 11.9788 35.5591 12.1904
395 2 15.7744 35.6383 12.0017
396 2 19.7884 35.5183 12.15
397 2 23.7132 35.4802 12.282
398 2 27.8526 35.5533 12.2398
399 2 31.7478 35.4325 12.1954
400 2 35.8179 35.6182 11.9588
401 2 0.25716 39.6822 16.0802
402 2 4.19991 39.5503 16.1233
403 2 8.11924 39.3141 16.1437
404 2 12.0706 0.00294948 16.2981
405 2 16.0222 39.6488 16.0734
406 2 20.1851 39.5318 16.1562
407 2 23.8766 -0.206227 16.0291
408 2 27.8284 39.4391 16.2516
409 2 31.8439 39.4995 16.3672
410 2 35.7581 39.6078 16.3222
411 2 39.8387 4.04628 16.1941
412 2 4.10549 3.93715 16.0988
413 2 7.96381 3.82898 16.2071
414 2 11.976 3.83768 16.2589
415 2 15.9264 3.85447 16.2352
416 2 19.9785 3.86782 16.1926
417 2 23.9763 3.84738 16.3178
418 2 27.7764 3.88013 16.2316
419 2 31.8108 3.83562 16.1341
420 2 35.6852 4.03355 16.2658
421 2 0.183034 7.7218 16.2587
422 2 3.92415 7.88696 16.1683
423 2 8.19618 8.05944 16.1722
424 2 11.9703 7.73105 16.0531
425 2 15.8817 7.84642 16.3772
426 2 19.9768 7.92002 16.4152
427 2 23.8747 8.02621 16.1942
428 2 27.8902 7.72623 16.2064
429 2 31.7898 7.70592 16.2836
430 2 35.6604 7.89068 16.3814
431 2 39.6834 11.6844 16.1863
432 2 4.11854 11.8144 16.2443
433 2 7.95492 11.9954 16.297
434 2 12.0305 11.9586 15.9302
435 2 15.9061 11.685 16.0178
436 2 19.9048 12.0069 16.2931
437 2 23.8659 11.755 16.2252
438 2 27.9207 11.8946 16.0177
439 2 31.6947 11.8056 16.1252
440 2 35.9215 11.6846 16.3
441 2 0.0743992 15.8449 16.1294
442 2 4.08073 15.9052 16.2203
443 2 7.90602 15.9262 16.1635
444 2 12.0004 15.7907 16.1935
445 2 15.9662 15.8136 15.9558
446 2 19.7807 15.7058 16.2642
447 2 23.9498 15.7911 15.9646
448 2 27.6625 15.6289 16.0165
449 2 31.9381 15.6602 16.1512
450 2 35.6957 15.873 16.2117
451 2 39.7654 19.7329 16.2869
452 2 4.17093 19.7642 16.1221
453 2 8.17288 19.8181 16.246
454 2 12.0621 19.814 16.2049
455 2 15.9687 19.8123 16.2507
456 2 19.7612 19.6172 16.2923
457 2 23.8141 19.6662 16.3001
458 2 27.9609 19.7673 16.001
459 2 31.9096 19.5845 16.1167
460 2 35.7475 19.72 16.0693
461 2 39.6765 23.6105 16.1911
462 2 4.16702 23.6661 16.0994
463 2 8.00928 23.6017 16.0779
464 2 11.8795 23.5 16.3387
465 2 15.9068 23.565 16.3204
466 2 19.8179 23.448 16.1707
467 2 23.9442 23.7029 16.2244
468 2 27.7318 23.3242 16.1118
469 2 31.869 23.4086 16.2413
470 2 35.5105 23.3956 16.0475
471 2 -0.0295065 27.4462 16.1681
472 2 3.90585 27.793 16.3415
473 2 7.85389 27.7375 16.343
474 2 11.9363 27.6643 16.2328
475 2 16.0422 27.4683 16.241
476 2 19.8646 27.6795 16.2379
477 2 23.8142 27.4328 16.1449
478 2 27.7317 27.4826 16.3144
479 2 31.8152 27.5433 16.0965
480 2 35.6444 27.4431 15.933
481 2 -0.0366545 31.5765 16.2578
482 2 3.9994 31.4602 16.2171
483 2 7.83716 31.7325 16.2814
484 2 12.0159 31.5203 16.2085
485 2 15.9711 31.51 16.1892
486 2 19.9134 31.6306 16.1846
487 2 23.8186 31.6893 15.9831
488 2 27.864 31.603 16.2085
489 2 31.7497 31.6765 16.022
490 2 35.6952 31.4683 16.0114
491 2 0.358753 35.5697 16.2266
492 2 4.16521 35.5594 16.163
493 2 8.09543 35.5555 16.2256
494 2 12.1387 35.5341 16.139
495 2 16.1339 35.568 16.2069
496 2 19.8536 35.5345 16.1205
497 2 23.979 35.4859 16.2397
498 2 27.9085 35.5491 16.1929
499 2 31.792 35.4609 15.9946
500 2 35.9372 35.4806 16.1995
501 2 0.255479 39.7801 19.9123
502 2 4.136 39.5641 20.0588
503 2 7.95246 39.5154 20.18
504 2 11.9374 39.6883 20.213
505 2 15.8832 39.6217 20.1143
506 2 19.9655 39.3053 20.0726
507 2 23.8829 39.4579 20.2124
508 2 28.0013 39.5361 20.165
509 2 31.8884 39.4793 20.2147
510 2 35.8702 39.6562 20.1174
511 2 0.115388 4.00359 20.1288
512 2 4.06851 3.88987 20.263
513 2 7.86034 3.80666 20.1096
514 2 11.8358 3.90039 20.3951
515 2 16.0039 3.88368 20.2902
516 2 20.1126 3.90638 20.2003
517 2 24.1299 3.79441 20.1732
518 2 27.8229 3.91716 20.1555
519 2 31.7833 4.02208 20.2943
520 2 35.8649 3.97202 20.2786
521 2 0.269004 8.01722 20.2292
522 2 4.14154 7.95047 20.1403
523 2 7.94715 7.97622 20.0666
524 2 12.0862 7.73753 20.1301
525 2 16.1081 7.85819 20.3487
526 2 19.9644 7.76159 20.2163
527 2 23.9243 7.81526 20.0741
528 2 27.9819 7.90534 20.1692
529 2 31.8606 7.95545 20.2014
530 2 35.708 8.03724 20.1338
531 2 -0.163873 11.9836 20.0862
532 2 4.12197 12.0348 20.2634
533 2 8.07333 11.8479 20.0547
534 2 11.953 11.7728 20.102
535 2 15.9847 11.5923 19.9226
536 2 19.8802 11.9888 20.3422
537 2 23.7848 11.7494 20.2955
538 2 27.8156 11.5438 19.891
539 2 31.6483 11.8647 20.0832
540 2 35.5675 11.9439 20.0959
541 2 0.0322826 15.8167 20.2836
542 2 4.01822 15.7537 20.2813
543 2 7.98328 15.9765 20.2069
544 2 11.8617 15.5507 20.2154
545 2 15.8535 15.8337 20.1744
546 2 19.9372 15.8434 20.2026
547 2 23.9292 15.887 20.1386
548 2 28.0283 15.6977 20.1803
549 2 31.8082 15.8919 20.2066
550 2 35.6256 15.9794 20.1231
551 2 39.7131 19.9797 20.288
552 2 3.8979 19.6802 20.1515
553 2 7.99898 19.912 20.012
554 2 11.9794 19.6668 20.1984
555 2 15.7937 19.8259 20.1778
556 2 19.843 19.8759 20.0384
557 2 23.8821 19.7667 20.224
558 2 27.6558 19.7753 20.2068
559 2 31.6145 19.8088 20.2706
560 2 35.6335 20.0042 20.3022
561 2 39.7778 23.873 20.2671
562 2 4.19109 23.7619 20.249
563 2 7.93112 23.8829 20.1045
564 2 11.8971 23.9091 20.0636
565 2 15.9766 23.7345 20.2757
566 2 19.8325 23.6766 20.2956
567 2 23.7752 23.7165 20.2845
568 2 27.7653 23.854 20.2059
569 2 31.725 23.7532 20.2342
570 2 35.7488 23.8842 20.0636
571 2 39.7431 27.7513 20.2088
572 2 4.00978 27.7905 20.333
573 2 7.93393 27.5503 20.2772
574 2 11.9411 27.7673 20.0635
575 2 15.8189 27.4955 20.1245
576 2 19.9645 27.7647 20.231
577 2 23.7372 27.6093 20.182
578 2 27.719 27.8551 20.1106
579 2 31.7758 27.6127 20.1655
580 2 35.8177 27.6803 20.0021
581 2 39.5719 31.7615 20.3081
582 2 4.08133 31.8283 20.0825
583 2 8.04066 31.8412 20.3031
584 2 11.8808 31.6863 20.0546
585 2 15.8937 31.4009 20.1345
586 2 20.0328 31.6762 20.1818
587 2 24.1122 31.4936 20.1221
588 2 27.8806 31.7047 20.1804
589 2 31.7853 31.5212 19.8851
590 2 35.5505 31.8517 20.0895
591 2 0.0313529 35.7652 20.259
592 2 4.22179 35.7412 20.1437
593 2 8.08286 35.7914 20.1016
594 2 12.1585 35.6769 20.097
595 2 15.9732 35.4133 20.1644
596 2 19.7547 35.5732 20.3716
597 2 23.6394 35.6256 20.0196
598 2 27.7943 35.5465 20.275
599 2 31.6345 35.5243 20.2722
600 2 35.72 35.7211 20.1343
601 2 0.184862 39.543 24.0161
602 2 4.10923 39.6432 24.0601
603 2 8.06058 39.533 24.1747
604 2 11.9517 -0.185149 24.0018
605 2 15.9308 -0.119472 24.2422
606 2 19.9848 39.5521 24.1817
607 2 23.9524 39.4834 24.3375
608 2 27.89 39.5507 24.0747
609 2 31.8343 39.5222 24.1809
610 2 35.663 39.7943 24.1739
611 2 39.8365 4.1454 24.0811
612 2 4.08574 4.06345 24.179
613 2 7.87022 4.23242 24.1745
614 2 11.7104 3.92114 24.1141
615 2 15.8842 3.76482 24.2972
616 2 20.0203 3.973 24.1227
617 2 24.141 3.67396 24.2077
618 2 27.7742 4.04026 24.2296
619 2 31.7565 4.13681 24.2379
620 2 35.6066 3.99663 24.0874
621 2 0.0333386 8.10786 24.0571
622 2 4.21352 7.99034 24.1073
623 2 8.03721 7.9157 23.9952
624 2 12.0632 7.80571 23.9053
625 2 15.9526 7.89933 24.2068
626 2 20.0902 7.95891 24.0717
627 2 23.843 7.94402 24.3269
628 2 27.7928 7.92978 24.0309
629 2 31.7367 7.9442 24.0688
630 2 35.6299 7.86821 24.3107
631 2 39.6079 11.9513 24.214
632 2 4.05119 11.8693 24.2967
633 2 8.20877 11.7705 24.1278
634 2 12.0209 11.8742 23.8677
635 2 15.9419 11.9437 24.0799
636 2 19.774 11.7703 24.2659
637 2 23.8612 11.882 24.2172
638 2 27.9407 11.9203 24.0552
639 2 31.6789 11.8825 24.2185
640 2 35.6493 12.2471 24.0155
641 2 39.7873 15.8936 24.1327
642 2 4.14085 15.8617 24.2472
643 2 7.84502 15.8133 24.0285
644 2 11.8723 15.6851 23.9406
645 2 15.895 15.951 23.9081
646 2 19.9369 15.7275 24.0637
647 2 23.8086 15.8583 24.121
648 2 27.716 15.8847 24.2842
649 2 31.7614 15.7565 24.2333
650 2 35.6212 15.9751 24.073
651 2 -0.0173114 19.8029 24.2327
652 2 4.1488 19.8797 24.3937
653 2 7.81865 19.7071 23.8875
654 2 11.7209 19.7151 24.1804
655 2 15.7329 19.9232 24.1268
656 2 19.906 19.8011 24.1247
657 2 23.9325 19.5857 24.0497
658 2 27.6637 19.7402 24.1069
659 2 31.6819 19.8336 24.2685
660 2 35.9119 19.8384 24.2959
661 2 0.153997 23.7407 24.1716
662 2 4.03157 23.4959 24.4217
663 2 8.21449 23.8055 24.1249
664 2 11.8504 23.7851 24.0643
665 2 15.8377 23.7949 23.9863
666 2 19.9005 23.7796 24.2244
667 2 23.9452 23.6865 24.1739
668 2 27.7281 23.8331 24.1438
669 2 31.7637 23.7021 24.1652
670 2 35.8479 23.8344 24.0806
671 2 39.7274 27.7874 24.0664
672 2 3.98567 27.8754 24.2803
673 2 8.03373 27.9513 23.9408
674 2 12.0979 27.6126 24.1086
675 2 15.7751 27.7984 24.1727
676 2 19.9054 27.664 24.2753
677 2 23.9549 27.6587 24.1277
678 2 27.8836 27.8381 24.1262
679 2 31.7691 27.714 24.1798
680 2 35.7943 27.8124 23.9438
681 2 0.140766 31.9767 24.0153
682 2 3.8969 31.8707 24.2375
683 2 8.063 31.9504 24.2263
684 2 11.8746 31.4821 24.0126
685 2 15.8207 31.5928 24.1697
686 2 19.8374 31.6906 24.1164
687 2 23.8688 31.7252 23.9912
688 2 27.8481 31.5663 24.0474
689 2 31.9511 31.7804 24.0777
690 2 35.5496 31.4802 24.2983
691 2 0.250666 35.8297 24.107
692 2 4.11021 35.4879 24.1768
693 2 7.99383 35.7044 24.27
694 2 12.1129 35.6444 24.2494
695 2 15.9834 35.3945 24.1418
696 2 19.749 35.4876 24.17
697 2 23.9183 35.6663 24.0407
698 2 27.8687 35.4751 24.1585
699 2 31.6796 35.7173 24.1838
700 2 35.7252 35.7987 23.9666
701 2 0.0319085 39.742 28.0514
702 2 4.27715 0.138425 27.9596
703 2 8.08526 39.697 28.1967
704 2 11.967 39.5441 28.2638
705 2 16.0287 39.6546 28.0022
706 2 19.8622 39.3974 28.1167
707 2 23.7501 39.4729 28.2935
708 2 27.6837 39.5777 28.3014
709 2 31.8047 39.6013 28.08
710 2 35.8724 39.8864 27.9962
711 2 0.179672 4.10153 28.1524
712 2 4.02865 4.04439 27.9596
713 2 8.03634 3.98342 28.0703
714 2 11.9705 3.98443 27.8987
715 2 16.1225 4.11623 28.1056
716 2 20.0021 4.18125 27.999
717 2 23.9785 4.06676 28.0458
718 2 27.8802 4.07701 28.0873
719 2 31.8267 4.15541 28.1192
720 2 35.8351 3.99532 28.1128
721 2 0.105387 8.04354 28.0037
722 2 4.02484 8.05739 28.1155
723 2 8.03351 8.11631 28.1253
724 2 12.1876 7.83927 28.0145
725 2 15.9125 7.91892 28.1727
726 2 19.9358 8.08677 28.1793
727 2 23.7082 8.08303 28.1171
728 2 27.8137 7.9493 28.2388
729 2 31.9214 8.07977 28.164
730 2 35.6984 7.83403 28.1128
731 2 0.146883 11.9952 28.2157
732 2 4.11208 12.0361 28.1577
733 2 8.07746 11.8278 27.9751
734 2 12.0069 11.9068 28.0918
735 2 15.9301 11.8705 27.9699
736 2 19.657 11.9266 28.0509
737 2 23.853 12.0273 28.1709
738 2 27.7408 11.7516 28.2819
739 2 31.5474 11.8243 28.149
740 2 35.7202 11.8731 28.1227
741 2 0.246543 15.9341 28.0818
742 2 4.3227 15.9141 28.1495
743 2 8.18477 15.7308 28.0914
744 2 11.9884 16.059 27.7096
745 2 15.8458 15.7822 28.0253
746 2 19.6676 15.7685 28.1086
747 2 23.877 15.7239 28.0222
748 2 27.8674 15.6922 28.2347
749 2 31.9258 15.9512 28.0684
750 2 35.7382 15.7939 28.3841
751 2 0.132618 19.7605 28.1683
752 2 4.19808 19.765 28.054
753 2 8.08342 19.9631 28.1654
754 2 12.1019 19.8891 28.1211
755 2 15.9104 19.8637 28.1314
756 2 19.9765 19.6426 28.1205
757 2 23.8456 19.8879 28.369
758 2 27.8053 19.7203 28.18
759 2 31.6143 19.7926 28.0275
760 2 35.6658 19.7662 28.1851
761 2 0.0686924 23.8527 28.3026
762 2 4.03248 23.9305 27.9966
763 2 7.90439 23.8961 28.1597
764 2 11.9488 23.7354 28.1393
765 2 15.7835 23.7473 28.0782
766 2 19.9866 23.7088 27.988
767 2 23.6688 23.7661 28.21
768 2 27.7953 23.905 28.1958
769 2 31.8051 23.8162 27.9836
770 2 35.8282 23.7308 28.1717
771 2 39.8668 27.8711 28.0924
772 2 4.16432 27.9336 28.0725
773 2 8.01194 27.8254 27.9955
774 2 11.9211 27.704 28.1037
775 2 15.8008 27.6803 28.0973
776 2 19.8302 27.6933 28.0343
777 2 23.8187 27.7645 28.1788
778 2 27.7847 27.4386 28.1808
779 2 31.6773 27.9189 27.9058
780 2 35.8182 27.7601 28.121
781 2 0.15203 31.8481 28.1491
782 2 4.02733 31.6293 28.1736
783 2 7.90879 31.8397 28.1664
784 2 11.7946 31.8542 28.1204
785 2 15.8759 31.8189 28.1259
786 2 19.9781 31.6423 28.1105
787 2 23.8475 31.5868 28.2959
788 2 27.6946 31.5172 27.9825
789 2 31.5343 31.7223 28.2473
790 2 35.7342 31.6464 28.2339
791 2 -0.0298665 35.613 28.2386
792 2 3.8777 35.6034 28.1732
793 2 7.87672 35.7286 28.1729
794 2 12.0007 35.8111 28.1457
795 2 15.6524 35.6063 28.1532
796 2 19.6408 35.7118 28.0656
797 2 23.8524 35.5453 27.8987
798 2 27.9511 35.7035 28.1077
799 2 31.8369 35.7421 28.1651
800 2 35.6292 35.8957 28.1166
801 2 0.0667899 39.7084 32.2079
802 2 3.85301 0.296023 31.9011
803 2 7.92363 0.237254 32.0228
804 2 11.7763 39.7821 31.9868
805 2 15.8703 0.160618 32.1744
806 2 19.8851 0.129218 31.9186
807 2 23.7716 39.5464 32.1737
808 2 27.7589 39.646 32.0172
809 2 31.8506 39.64 32.1724
810 2 35.7428 39.6594 32.1382
811 2 0.274087 4.12654 31.9665
812 2 3.9393 4.12692 31.8578
813 2 7.92804 4.30734 32.0344
814 2 11.9748 4.19329 31.8914
815 2 15.9167 4.17859 32.1058
816 2 19.8796 4.06638 32.1082
817 2 23.7684 4.06182 32.1684
818 2 27.7796 3.91025 32.0445
819 2 31.7428 3.96772 32.1373
820 2 35.6137 4.00475 32.0793
821 2 39.9231 8.07899 32.2898
822 2 4.0746 8.04072 32.0844
823 2 7.99509 8.20619 32.007
824 2 11.8512 8.21728 32.1638
825 2 15.8259 8.16163 32.1227
826 2 19.9018 8.03408 32.0547
827 2 23.7133 7.95385 32.1694
828 2 27.6294 7.9577 32.2311
829 2 31.7859 7.79891 32.1917
830 2 35.7735 7.81066 32.112
831 2 -0.102335 11.8646 32.1366
832 2 4.1335 11.9862 32.0139
833 2 7.92933 12.0803 31.9929
834 2 11.7601 11.945 32.1562
835 2 15.6657 12.1036 32.2154
836 2 19.7505 12.0121 32.0265
837 2 23.6282 12.0832 32.0581
838 2 27.7682 11.7599 32.136
839 2 31.5836 11.9044 32.0907
840 2 35.55 11.9153 32.0541
841 2 0.1339 16.1579 32.1149
842 2 3.93366 16.0077 32.0944
843 2 8.01942 15.9085 32.1782
844 2 11.9825 15.9665 32.1662
845 2 15.7398 15.6812 32.1026
846 2 19.8334 16.1311 32.1538
847 2 23.7245 15.8528 32.1403
848 2 27.6564 15.8541 31.8142
849 2 31.6313 15.9328 32.0755
850 2 35.7315 15.8205 32.1303
851 2 0.149341 19.997 32.1114
852 2 4.19089 19.8721 32.1543
853 2 8.03215 20.0427 32.0655
854 2 11.9706 19.6616 32.1824
855 2 15.8387 19.9104 32.1281
856 2 19.7111 19.9683 32.1847
857 2 23.5955 19.7456 31.9952
858 2 27.5532 19.9323 32.074
859 2 31.7782 20.0343 32.0964
860 2 35.8731 19.9021 32.067
861 2 0.0956881 24.0423 32.1682
862 2 3.99407 23.6416 32.0375
863 2 7.93151 23.7584 32.1742
864 2 11.7224 23.8187 32.0184
865 2 16.0398 23.8253 31.9873
866 2 19.7929 23.9283 32.1876
867 2 23.6346 23.7604 32.0516
868 2 27.8296 23.8802 32.1916
869 2 31.8482 23.7004 32.0356
870 2 35.6721 23.8981 32.1833
871 2 -0.165572 27.8317 32.0793
872 2 3.96675 27.7965 32.1891
873 2 7.86669 27.7631 32.0871
874 2 11.726 27.5427 32.0032
875 2 15.728 28.0023 31.8586
876 2 19.6076 27.7103 32.0649
877 2 23.5834 27.877 32.0646
878 2 27.707 27.6435 32.2276
879 2 31.5292 27.7383 31.8935
880 2 35.5759 27.9557 31.9975
881 2 -0.0679956 31.9569 32.0513
882 2 3.82655 31.5873 32.0998
883 2 7.76927 31.8284 32.0713
884 2 11.6909 31.8546 32.1826
885 2 15.8048 31.7202 32.0375
886 2 19.7885 31.8254 32.1805
887 2 23.912 31.7464 32.1388
888 2 27.6304 31.7393 31.8977
889 2 31.71 31.7643 32.142
890 2 35.5057 31.8849 32.2071
891 2 0.071155 35.5997 32.203
892 2 3.86057 35.679 32.1379
893 2 7.90875 35.5977 32.0822
894 2 11.931 35.8744 32.0937
895 2 15.9391 35.7495 32.1285
896 2 19.8151 35.8257 32.2049
897 2 23.7141 35.6818 31.9952
898 2 27.5768 35.3903 32.0016
899 2 31.6134 35.6636 31.987
900 2 35.5074 35.6846 32.2052
901 2 -0.0844152 0.12781 36.0149
902 2 3.81777 0.266291 36.0183
903 2 7.99879 0.352795 35.9249
904 2 11.762 0.131293 35.8969
905 2 15.8029 0.18 36.0366
906 2 19.789 0.127812 35.9847
907 2 23.9324 39.4765 36.118
908 2 27.6856 39.7014 36.1821
909 2 31.6138 -0.0110385 36.1512
910 2 35.6059 -0.0323456 35.9449
911 2 0.133973 3.94345 36.0106
912 2 4.26722 4.06552 35.9021
913 2 8.02589 4.31785 36.0967
914 2 11.9937 4.05094 36.0096
915 2 15.8319 3.95475 35.9209
916 2 19.7481 3.86947 36.2001
917 2 23.9578 4.03763 36.0068
918 2 27.8396 3.81186 36.1409
919 2 31.7269 3.82198 36.1297
920 2 35.7318 3.92778 36.0375
921 2 -0.0452119 7.90502 36.2022
922 2 3.96082 8.15174 35.9564
923 2 7.85213 8.06039 35.8927
924 2 11.7953 8.12102 36.0764
925 2 15.9198 7.91044 36.1971
926 2 19.9878 7.96587 35.9975
927 2 23.7758 7.9559 36.052
928 2 27.6842 8.01208 36.1543
929 2 31.909 7.75459 36.2131
930 2 35.6066 8.00567 36.014
931 2 -0.16318 11.9275 36.0152
932 2 3.85404 12.1196 36.0594
933 2 7.79879 12.0671 36.2484
934 2 11.8098 11.8978 36.0842
935 2 15.8696 11.8712 36.216
936 2 19.7059 11.8629 36.1239
937 2 23.9715 11.9162 36.0882
938 2 27.794 12.1233 35.9792
939 2 31.535 11.9735 36.1083
940 2 35.4516 12.03 36.1166
941 2 -0.134311 15.9059 36.2451
942 2 3.76061 15.8335 36.2497
943 2 8.01206 16.0125 36.1956
944 2 12.052 16.0815 36.1387
945 2 15.9029 15.9416 36.1045
946 2 19.793 15.8931 36.3443
947 2 23.6909 15.9655 35.959
948 2 27.6354 16.035 36.0171
949 2 31.8065 16.0048 36.1292
950 2 35.5361 15.9021 36.1552
951 2 0.108021 20.1316 35.8975
952 2 4.13752 20.0398 36.0307
953 2 7.94343 19.8342 36.018
954 2 12.0613 20.0055 36.0012
955 2 15.954 19.8785 36.2824
956 2 19.9416 19.9321 36.1782
957 2 23.8542 20.0455 35.9886
958 2 27.7267 19.9806 35.9714
959 2 31.4396 19.8427 35.9729
960 2 35.4594 19.805 36.0981
961 2 -0.0503357 23.9867 36.1384
962 2 4.05916 24.0183 36.1244
963 2 7.96731 24.0816 36.0864
964 2 11.8338 23.7967 36.0153
965 2 15.8776 23.8407 36.04
966 2 19.5952 23.8536 35.9958
967 2 23.6109 24.0386 36.1749
968 2 27.7781 23.8609 35.9014
969 2 31.6817 23.9172 35.9942
970 2 35.4606 23.6938 36.0761
971 2 -0.0531079 27.7322 36.0347
972 2 3.9397 27.777 36.1524
973 2 7.88951 27.9378 36.135
974 2 11.7958 27.9148 36.1469
975 2 15.646 27.7641 35.9057
976 2 19.8151 27.905 36.0822
977 2 23.776 27.8979 36.1611
978 2 27.6494 27.972 35.9834
979 2 31.5843 27.9942 35.9355
980 2 35.4775 27.7755 35.974
981 2 -0.0187382 31.5547 36.202
982 2 4.01527 31.5944 36.1324
983 2 7.96753 31.9384 36.3144
984 2 11.8753 31.7889 35.824
985 2 16.0085 31.7183 36.1474
986 2 19.7527 31.6731 36.1534
987 2 23.733 31.8613 36.1508
988 2 27.7386 31.8714 35.9787
989 2 31.5651 31.7978 36.0146
990 2 35.5331 31.7449 36.0294
991 2 -0.16299 35.7998 36.0996
992 2 3.82678 35.5308 35.9346
993 2 7.94836 35.76 36.2195
994 2 11.6595 35.7558 35.8897
995 2 15.9428 35.6699 36.0317