ITEM: TIMESTEP
38600
ITEM: NUMBER OF ATOMS
7500
ITEM: BOX BOUNDS xy xz yz pp pp pp
0.0000000000000000e+00 3.9579999999999998e+01 0.0000000000000000e+00
0.0000000000000000e+00 3.9579999999999998e+01 0.0000000000000000e+00
2.2535014117860186e-02 5.9677464985882587e+01 0.0000000000000000e+00
ITEM: ATOMS id type x y z
1 2 39.5275 39.7393 0.283269
2 2 3.76559 0.0843021 0.236632
3 2 7.83463 -0.106947 0.100063
4 2 11.6996 0.00896616 0.0566515
5 2 15.684 39.4413 0.368427
6 2 19.5098 -0.116646 0.131689
7 2 23.5257 -0.0583596 0.165465
8 2 27.576 39.4557 0.0905027
9 2 31.8113 39.3955 0.212252
10 2 35.5773 39.5283 0.118269
11 2 39.5701 3.76183 0.178361
12 2 4.04048 3.8887 0.416106
13 2 7.73738 3.85143 0.275974
14 2 11.7753 3.90344 0.280153
15 2 15.7097 3.84614 0.375678
16 2 19.6365 3.68251 0.135845
17 2 23.4509 3.84577 0.251185
18 2 27.4903 4.01506 0.345154
19 2 31.4975 4.06917 0.419386
20 2 35.4686 3.7506 0.334041
21 2 39.5863 7.83517 0.263624
22 2 3.94865 7.89883 0.281817
23 2 7.86645 7.75213 0.443406
24 2 11.7273 7.76383 60.0732
25 2 15.6386 7.81617 0.444598
26 2 19.696 7.90696 0.296914
27 2 23.5117 7.63205 0.0710456
28 2 27.611 8.00015 0.25719
29 2 31.5051 7.89481 0.364305
30 2 35.5768 7.6957 0.25637
31 2 39.5752 11.7645 0.315277
32 2 3.94502 11.8543 0.359717
33 2 7.73943 11.7656 0.254321
34 2 11.7397 11.8334 0.262225
35 2 15.777 11.6916 0.317371
36 2 19.6204 11.7763 0.218317
37 2 23.8054 12.019 0.203323
38 2 27.6854 11.9956 0.338129
39 2 31.5831 11.7512 0.37503
40 2 35.5952 11.7777 0.101572
41 2 39.4013 15.9543 0.171956
42 2 3.90883 15.6129 0.331857
43 2 8.11104 15.6933 0.172887
44 2 11.8455 15.8056 0.342712
45 2 15.7072 15.6932 0.315452
46 2 19.6297 15.6571 0.186407
47 2 23.7303 15.7943 0.344306
48 2 27.8756 15.6843 0.375143
49 2 31.7097 15.6409 0.267635
50 2 35.5722 15.9198 0.123371
51 2 39.4167 19.8 0.223806
52 2 3.79302 19.6529 0.120109
53 2 7.72435 19.5827 0.236215
54 2 12.0034 19.5958 0.240901
55 2 15.7861 19.6445 0.261873
56 2 19.6514 19.6375 0.275207
57 2 23.8515 19.734 0.381462
58 2 27.7283 19.6404 0.209476
59 2 31.541 19.5576 0.248354
60 2 35.3344 19.7614 0.307132
61 2 39.4542 23.6145 0.351702
62 2 3.7297 23.6211 0.240701
63 2 7.76098 23.6712 0.260144
64 2 11.8278 23.545 0.256624
65 2 15.756 23.6655 0.301254
66 2 19.7213 23.5054 0.307299
67 2 23.5994 23.5664 0.317521
68 2 27.5038 23.8177 0.136047
69 2 31.7413 23.6674 0.361507
70 2 35.4708 23.5908 0.387592
71 2 39.3746 27.6704 0.289035
72 2 3.79761 27.4157 0.323067
73 2 7.88318 27.5939 0.262358
74 2 11.6803 27.5332 0.255889
75 2 15.7191 27.495 0.128301
76 2 19.7292 27.7111 0.169579
77 2 23.617 27.4765 0.523858
78 2 27.6382 27.5244 0.405317
79 2 31.5663 27.7494 0.197454
80 2 35.6759 27.6104 0.272123
81 2 39.6094 31.5023 0.311688
82 2 3.80525 31.4821 0.172359
83 2 7.8232 31.7803 0.451873
84 2 11.9204 31.5112 0.16696
85 2 15.8529 31.4633 0.352734
86 2 19.5357 31.6368 0.291071
87 2 23.7304 31.3623 0.183816
88 2 27.7351 31.71 0.147046
89 2 31.541 31.7746 0.476348
90 2 35.6747 31.5606 0.452171
91 2 39.4602 35.5854 0.47314
92 2 3.87437 35.5058 0.306212
93 2 7.723 35.691 0.167407
94 2 11.8698 35.3915 0.239172
95 2 15.6468 35.5837 0.354514
96 2 19.6553 35.6015 0.25246
97 2 23.7662 35.4084 0.417094
98 2 27.5527 35.6834 0.455961
99 2 31.7132 35.5192 0.159945
100 2 35.6852 35.5225 0.311348
101 2 39.7008 -0.165016 4.3934
102 2 4.05429 39.4204 4.32099
103 2 8.00849 -0.274505 4.32524
104 2 11.805 -0.134476 4.16635
105 2 15.8196 -0.176538 4.38845
106 2 19.867 39.4881 4.29997
107 2 23.6726 39.5015 4.21605
108 2 27.6363 39.287 4.15915
109 2 31.5873 -0.0282567 4.23671
110 2 35.5886 39.4835 4.18354
111 2 39.4541 3.60687 4.22237
112 2 3.86398 3.92645 4.40096
113 2 7.73697 3.90451 4.15772
114 2 11.7737 3.77944 4.30109
115 2 15.4957 3.91728 4.24836
116 2 19.6591 3.79647 4.30491
117 2 23.7569 3.77521 4.17588
118 2 27.5036 3.77915 4.10737
119 2 31.4643 3.99777 4.36349
120 2 35.6237 3.79883 4.38028
121 2 -0.0564783 7.73588 4.28888
122 2 3.83781 7.84339 4.3704
123 2 7.83274 7.88526 4.4139
124 2 11.5978 7.90364 4.14951
125 2 15.7558 7.72242 4.3559
126 2 19.7347 7.68854 4.16652
127 2 23.6747 7.7363 4.21735
128 2 27.6015 7.69314 4.32296
129 2 31.4996 7.92755 4.27393
130 2 35.4335 7.73817 4.30105
131 2 39.3939 11.6752 4.11272
132 2 3.66836 11.8474 4.28268
133 2 7.92278 11.7713 4.2841
134 2 11.9196 11.9209 4.24685
135 2 15.8934 11.6494 4.2585
136 2 19.889 11.6915 4.10879
137 2 23.7088 11.7509 4.25471
138 2 27.571 11.6479 4.16233
139 2 31.5862 11.7889 4.38533
140 2 35.5434 11.4979 4.0358
141 2 39.5303 15.8422 4.09173
142 2 3.91656 15.672 4.27733
143 2 7.74773 15.7635 4.17226
144 2 11.8192 15.7085 4.3217
145 2 15.8261 15.7493 4.40409
146 2 19.8714 15.7162 4.4132
147 2 23.7496 15.8727 4.28013
148 2 27.7429 15.7083 4.42252
149 2 31.6313 15.7674 4.54245
150 2 35.4991 15.6793 4.27198
151 2 -0.0252575 19.6959 4.37881
152 2 3.92956 19.6974 4.21862
153 2 7.68854 19.5853 4.20366
154 2 11.4653 19.4819 4.1852
155 2 15.826 19.6983 4.2598
156 2 19.8425 19.6019 4.23398
157 2 23.6537 19.7844 4.40211
158 2 27.8091 19.7053 3.99971
159 2 31.7003 19.7201 4.2363
160 2 35.6121 19.6357 4.27473
161 2 39.5433 23.5347 4.26278
162 2 4.12859 23.8026 4.18365
163 2 7.86332 23.5244 4.18975
164 2 11.9539 23.6192 4.06449
165 2 15.935 23.5921 4.24435
166 2 19.8938 23.7538 4.18925
167 2 23.6951 23.4283 4.45071
168 2 27.8216 23.7704 4.23007
169 2 31.6285 23.4897 4.18314
170 2 35.4042 23.5917 4.21084
171 2 39.526 27.4967 4.4283
172 2 3.85661 27.5906 4.34194
173 2 7.90813 27.7775 4.17346
174 2 11.8886 27.5972 4.18468
175 2 15.8875 27.5204 4.27837
176 2 19.7427 27.6577 4.15665
177 2 23.5947 27.6282 4.34554
178 2 27.6829 27.7464 4.0799
179 2 31.357 27.5618 4.121
180 2 35.5507 27.5206 4.30126
181 2 -0.15828 31.5398 4.20959
182 2 3.77333 31.6242 4.36662
183 2 7.88788 31.4423 4.24085
184 2 11.8455 31.672 4.42999
185 2 15.76 31.5586 4.28482
186 2 19.7543 31.536 4.32602
187 2 23.6006 31.5035 4.44752
188 2 27.6029 31.5978 4.2059
189 2 31.697 31.5272 4.23352
190 2 35.5773 31.3094 4.2636
191 2 -0.0191163 35.5558 4.38051
192 2 3.77713 35.4273 4.42266
193 2 7.72904 35.5256 4.08372
194 2 11.7616 35.461 4.17125
195 2 15.7321 35.6517 4.15931
196 2 19.7575 35.4273 4.34226
197 2 23.5407 35.3398 4.31309
198 2 27.5915 35.5719 4.34546
199 2 31.6011 35.5702 4.14646
200 2 35.8082 35.6803 4.35824
201 2 39.6356 39.3137 8.4427
202 2 4.04179 39.4562 8.25615
203 2 7.97931 39.4698 8.40848
204 2 12.0183 -0.01208 8.37555
205 2 15.7849 -0.246476 8.27124
206 2 19.835 39.403 8.17908
207 2 23.7465 39.4337 8.38964
208 2 27.8244 -0.267921 8.10297
209 2 31.7171 39.4528 8.30427
210 2 35.5036 39.5609 8.37214
211 2 39.6153 3.84679 8.33259
212 2 4.09672 3.74275 8.30908
213 2 8.05317 3.93692 8.21811
214 2 11.9208 4.02112 8.39964
215 2 15.753 3.81353 8.10625
216 2 19.8106 3.73982 8.221
217 2 23.8695 3.70143 8.15286
218 2 27.7742 3.73271 8.23202
219 2 31.6027 3.8992 8.20508
220 2 35.3931 3.67591 8.30981
221 2 39.476 7.64776 8.33428
222 2 3.765 7.85437 8.29299
223 2 7.77575 7.89269 8.36037
224 2 11.8133 7.94223 8.26153
225 2 16.0006 7.56794 8.10043
226 2 20.0497 7.82341 8.11165
227 2 23.8015 7.79905 8.24372
228 2 27.5946 7.80414 8.39471
229 2 31.6695 7.96445 8.17417
230 2 35.5793 7.76784 8.00307
231 2 39.7158 11.5739 8.19506
232 2 3.90521 11.835 8.35243
233 2 8.06881 11.8286 8.24366
234 2 12.1524 11.6024 8.32993
235 2 15.9379 11.6124 8.36724
236 2 19.9364 11.9144 8.23541
237 2 23.6847 11.6454 8.09753
238 2 27.6269 11.6195 8.27346
239 2 31.6875 11.6439 8.27977
240 2 35.6192 11.8231 8.26735
241 2 39.3427 15.675 8.14942
242 2 3.96736 15.611 8.18939
243 2 7.94711 15.9102 8.27354
244 2 12.1103 15.7603 8.14968
245 2 15.9362 15.7389 8.14697
246 2 19.9031 15.6808 8.20479
247 2 23.7809 15.7295 8.19148
248 2 27.7834 15.606 8.23972
249 2 31.7078 15.5812 8.11954
250 2 35.6825 15.5662 8.16065
251 2 39.635 19.6932 8.29234
252 2 4.0367 19.5716 8.14118
253 2 7.89706 19.7515 8.25574
254 2 11.9959 19.8268 8.2621
255 2 15.9587 19.8356 8.05766
256 2 19.7781 19.6695 8.28579
257 2 23.7604 19.6136 8.24195
258 2 27.8217 19.7555 8.30046
259 2 31.6849 19.5286 8.21106
260 2 35.6117 19.8231 8.43753
261 2 39.6472 23.5115 8.21368
262 2 4.14401 23.4979 8.2309
263 2 8.04662 23.58 8.12804
264 2 11.896 23.6451 8.14353
265 2 15.8004 23.5766 8.21644
266 2 19.8685 23.5338 8.25465
267 2 23.7579 23.6586 8.30708
268 2 27.8119 23.6284 8.20427
269 2 31.5977 23.7466 8.14249
270 2 35.4951 23.7815 8.23699
271 2 -0.0398499 27.3895 8.19499
272 2 4.04763 27.6399 8.42847
273 2 7.95111 27.4739 8.16744
274 2 11.5604 27.548 8.17244
275 2 15.8918 27.5235 8.13784
276 2 19.7002 27.3807 8.27704
277 2 23.7521 27.4687 8.13988
278 2 27.7734 27.5705 8.31559
279 2 31.7758 27.7131 8.30187
280 2 35.6489 27.6248 8.26297
281 2 -0.0452638 31.6326 8.35197
282 2 3.84652 31.4943 8.29683
283 2 8.04774 31.5058 8.21807
284 2 11.8113 31.5608 8.27305
285 2 15.8072 31.6079 8.25577
286 2 19.7051 31.5493 8.2211
287 2 23.731 31.2866 8.36812
288 2 27.796 31.5876 8.38917
289 2 31.721 31.5349 8.29187
290 2 35.6339 31.6532 8.27114
291 2 39.6629 35.5668 8.23225
292 2 4.02888 35.2956 8.21467
293 2 8.02224 35.6782 8.22946
294 2 12.016 35.4263 8.27374
295 2 15.8631 35.3795 8.25684
296 2 19.7666 35.5427 8.08931
297 2 23.7376 35.4664 8.29973
298 2 27.7831 35.2001 8.29957
299 2 31.7808 35.7403 8.16193
300 2 35.5944 35.6037 8.24736
301 2 39.6156 39.6548 12.2769
302 2 4.14949 39.3455 12.192
303 2 7.97159 39.5874 12.3002
304 2 11.8462 39.42 12.3518
305 2 16.128 39.512 12.0513
306 2 19.8383 -0.378306 12.2544
307 2 23.9037 -0.278045 12.1406
308 2 27.8004 -0.0283282 12.1727
309 2 31.7521 0.0979954 12.1203
310 2 35.738 39.4518 12.2133
311 2 39.7268 3.80409 12.262
312 2 4.08774 3.59607 12.2017
313 2 8.22726 4.16079 12.0711
314 2 12.0504 3.98153 12.1544
315 2 15.9624 3.80659 12.218
316 2 19.8408 3.80617 12.1494
317 2 23.833 3.80791 12.338
318 2 27.5047 3.821 12.2246
319 2 31.5573 3.90926 12.1137
320 2 35.4964 3.7515 12.132
321 2 39.6182 7.76835 12.0623
322 2 3.92548 7.84785 12.2523
323 2 7.89598 7.95139 12.3504
324 2 11.8809 7.81758 12.1843
325 2 15.9666 7.78192 11.9721
326 2 19.9301 7.64947 12.3412
327 2 23.6225 7.7761 12.3056
328 2 27.5996 7.72981 12.3098
329 2 31.6596 8.02535 12.2941
330 2 35.638 7.68127 12.1862
331 2 39.7208 11.7216 12.2373
332 2 3.96898 11.6261 12.1044
333 2 8.03642 11.6984 12.1259
334 2 11.9481 11.7571 12.2585
335 2 16.005 11.711 12.3069
336 2 19.9246 11.6339 12.3003
337 2 23.9241 11.692 12.3331
338 2 27.8088 11.8175 12.1766
339 2 31.7267 11.7493 12.2764
340 2 35.6535 11.6643 12.198
341 2 39.5829 15.8715 12.2038
342 2 4.13235 15.7068 12.2243
343 2 8.02107 15.7627 12.1427
344 2 12.157 15.8151 12.3771
345 2 16.0161 15.6871 12.2021
346 2 19.8737 15.8675 12.2945
347 2 23.7978 15.4914 12.1975
348 2 27.8125 15.6407 12.2782
349 2 31.744 15.5216 12.3053
350 2 35.7673 15.6111 12.2839
351 2 0.295182 19.6937 12.3748
352 2 4.05583 19.8371 12.2347
353 2 8.15408 19.6328 12.1692
354 2 11.9416 19.6523 12.2828
355 2 15.9783 19.6368 12.3426
356 2 19.7742 19.7109 12.3028
357 2 23.7695 19.6228 12.0898
358 2 27.7727 19.7156 12.1675
359 2 31.7746 19.5922 12.1324
360 2 35.9008 19.5634 12.1982
361 2 -0.041415 23.5358 12.1431
362 2 4.07009 23.658 12.3122
363 2 7.94999 23.6983 12.1924
364 2 11.8448 23.5457 11.9671
365 2 15.6984 23.7182 12.3263
366 2 19.8507 23.5901 12.251
367 2 23.8047 23.6305 12.2623
368 2 27.8878 23.5021 12.0946
369 2 31.644 23.714 12.2863
370 2 35.7985 23.6144 12.3191
371 2 39.7458 27.6745 12.1414
372 2 3.9243 27.314 12.13
373 2 7.75837 27.4698 12.0678
374 2 11.7909 27.5752 12.184
375 2 15.7448 27.5379 12.1231
376 2 19.7856 27.45 12.1349
377 2 23.8176 27.4807 12.2217
378 2 27.766 27.4565 12.1935
379 2 31.5607 27.5405 12.4578
380 2 35.6947 27.5087 12.2557
381 2 0.138786 31.6515 12.2761
382 2 4.20458 31.4441 12.1586
383 2 7.88983 31.4955 12.3333
384 2 12.042 31.4072 12.1937
385 2 15.8774 31.6228 12.162
386 2 19.8403 31.6158 12.2635
387 2 23.9561 31.2473 12.2321
388 2 27.8281 31.6333 12.1801
389 2 31.6325 31.4372 12.1828
390 2 35.5993 31.5864 12.2807
391 2 39.6761 35.4861 12.3564
392 2 3.87358 35.6665 12.3997
393 2 7.94977 35.4887 12.2484
394 2 11.9139 35.3821 12.3624
395 2 15.8968 35.6137 12.1086
396 2 19.8509 35.4208 12.4042
397 2 23.808 35.4766 12.2365
398 2 27.8932 35.528 12.185
399 2 31.6264 35.6231 12.2851
400 2 35.5618 35.6327 12.3311
401 2 0.119124 39.507 16.2158
402 2 3.89933 39.5575 16.1598
403 2 7.84862 39.384 16.261
404 2 11.9891 -0.0279743 16.2583
405 2 16.0142 39.3155 16.2221
406 2 19.8432 39.3811 16.239
407 2 23.8981 -0.396855 16.2148
408 2 27.7568 39.3891 16.0491
409 2 31.7323 39.474 16.2198
410 2 35.58 39.6155 16.3353
411 2 39.7642 3.88425 16.159
412 2 4.19249 4.06623 16.187
413 2 7.94172 3.90544 16.3395
414 2 12.0426 3.70095 15.9962
415 2 15.913 3.82702 16.226
416 2 19.8523 3.69321 16.0599
417 2 23.7848 3.67236 16.272
418 2 27.7326 3.86077 16.1127
419 2 31.9116 3.97526 16.1751
420 2 35.798 4.07196 16.0708
421 2 0.174566 7.69943 16.0921
422 2 4.17476 7.77886 16.2267
423 2 8.1008 7.78176 16.1926
424 2 12.026 7.8522 16.2413
425 2 15.9532 7.81942 16.2623
426 2 19.8601 7.79716 16.2191
427 2 23.7679 7.83619 16.2211
428 2 27.9786 7.94786 16.2755
429 2 31.7321 7.79086 16.1012
430 2 35.8166 7.9145 15.9385
431 2 39.4118 11.8729 16.2138
432 2 3.85025 11.9 16.1542
433 2 8.04757 11.8941 16.1281
434 2 11.9954 11.7084 16.2283
435 2 15.8958 11.6264 16.2008
436 2 19.8687 11.8655 16.3639
437 2 23.9367 11.806 16.1498
438 2 27.6465 11.803 16.2836
439 2 31.8785 11.8235 16.1609
440 2 35.7222 11.7139 16.2831
441 2 0.302207 15.7474 16.2275
442 2 4.10933 15.4148 16.1628
443 2 7.97625 15.6334 16.1892
444 2 12.0897 15.7005 16.0881
445 2 15.9417 15.7682 16.3339
446 2 19.7692 15.6384 16.4889
447 2 23.9753 15.9137 16.0584
448 2 27.8893 15.7993 16.3801
449 2 31.7044 15.8325 16.1927
450 2 35.8714 15.8023 16.3027
451 2 39.7089 19.7731 16.3444
452 2 4.06427 19.5947 16.0509
453 2 7.89701 19.5444 16.25
454 2 11.9076 19.7679 16.1529
455 2 15.6991 19.8189 16.1445
456 2 19.9693 19.7695 16.2474
457 2 23.9656 19.7216 16.072
458 2 27.893 19.5987 15.9938
459 2 31.6307 19.8172 16.3446
460 2 35.65 19.8117 16.2754
461 2 39.7955 23.7033 16.2769
462 2 4.14403 23.6512 16.179
463 2 7.84637 23.721 16.1525
464 2 11.7328 23.5562 16.1227
465 2 15.6739 23.6709 16.1888
466 2 19.9278 23.6972 16.0697
467 2 23.858 23.6343 16.0909
468 2 27.8672 23.6441 16.0865
469 2 31.777 23.6345 15.9818
470 2 35.6197 23.6005 16.1023
471 2 0.126722 27.8266 16.2557
472 2 4.08143 27.817 16.1867
473 2 8.15234 27.8021 16.2151
474 2 11.9489 27.7362 16.3615
475 2 16.0221 27.7301 16.1407
476 2 19.7965 27.7432 16.2353
477 2 23.7648 27.4249 16.0243
478 2 27.8254 27.673 16.2145
479 2 31.7904 27.6081 16.3022
480 2 35.8354 27.6128 16.0398
481 2 0.124777 31.8279 16.118
482 2 4.13181 31.544 16.0381
483 2 7.85151 31.7056 16.309
484 2 11.9337 31.5479 16.1443
485 2 15.8645 31.5939 16.1901
486 2 19.8671 31.6918 16.2435
487 2 23.8556 31.5815 16.1858
488 2 27.9174 31.6734 16.2407
489 2 31.6766 31.5293 16.251
490 2 35.6569 31.5839 16.1568
491 2 -0.036584 35.6822 16.5025
492 2 3.96542 35.645 16.2139
493 2 7.85102 35.4539 16.1863
494 2 11.8598 35.5106 16.1577
495 2 15.8069 35.4323 16.1577
496 2 20.0155 35.3508 16.2539
497 2 23.9711 35.5181 16.1009
498 2 27.8256 35.5669 16.2682
499 2 31.749 35.3863 16.3679
500 2 35.7325 35.7029 16.3028
501 2 -0.06667 39.6692 20.2424
502 2 4.09971 39.4725 20.1335
503 2 8.10703 39.5738 20.1247
504 2 12.0368 39.4034 20.2649
505 2 15.8718 39.741 20.2405
506 2 20.1134 39.3209 20.1897
507 2 23.8356 39.4429 20.1949
508 2 27.9327 39.5424 20.2888
509 2 31.5813 39.3666 20.299
510 2 35.6604 39.6589 20.27
511 2 0.077311 4.08658 20.1996
512 2 4.09345 3.94347 20.1262
513 2 8.15645 3.87669 20.3313
514 2 12.1002 3.89755 20.2667
515 2 15.8974 3.808 20.2005
516 2 19.9229 3.90007 20.2223
517 2 23.9049 3.96452 20.2782
518 2 27.8266 3.87884 20.2225
519 2 31.8229 3.99056 20.1029
520 2 35.8877 4.00258 20.0303
521 2 0.176528 7.93399 20.1804
522 2 4.23339 7.98942 20.1388
523 2 8.14201 7.81682 20.0629
524 2 12.0206 7.70926 20.2193
525 2 15.9242 7.65646 20.2382
526 2 19.883 7.99073 20.0975
527 2 23.7407 7.96806 20.2486
528 2 27.864 8.07641 20.07
529 2 31.9982 8.00281 20.1372
530 2 35.7629 7.80077 20.1828
531 2 0.121006 11.8539 20.0509
532 2 4.11028 11.705 20.2854
533 2 8.16098 11.6513 20.3212
534 2 11.8371 11.7605 20.2707
535 2 15.8368 11.7209 20.2246
536 2 19.6887 11.7802 20.1488
537 2 23.812 11.8351 20.2072
538 2 27.6543 12.0003 20.1805
539 2 31.9026 11.9311 20.1552
540 2 35.7935 11.8307 20.0739
541 2 0.262749 15.8742 20.2703
542 2 4.11121 15.6813 20.2193
543 2 7.98352 15.7076 20.0303
544 2 11.9575 15.7008 20.16
545 2 15.667 16.0681 19.9684
546 2 19.9865 15.8856 20.2018
547 2 23.8965 15.619 20.272
548 2 27.8637 15.9152 20.2245
549 2 31.8004 15.8481 20.2012
550 2 35.7624 15.7596 20.2835
551 2 39.7044 19.8651 20.1887
552 2 3.94018 19.7684 20.2207
553 2 8.04429 19.7767 20.0066
554 2 11.779 19.7388 20.309
555 2 16.024 19.9745 19.9623
556 2 19.6703 19.8535 20.0482
557 2 23.9815 19.7977 20.0306
558 2 27.9118 19.7691 20.2
559 2 31.5901 19.6128 20.1149
560 2 35.6271 19.7473 20.2001
561 2 39.752 23.6803 20.2321
562 2 4.13478 23.6921 20.1927
563 2 7.81504 23.8005 20.0116
564 2 11.8348 23.9276 20.3176
565 2 15.9097 23.6423 20.1744
566 2 19.7838 23.7594 20.3106
567 2 23.6007 23.6334 20.2239
568 2 27.8088 23.6021 20.0017
569 2 31.7572 23.6351 20.186
570 2 35.6162 23.8824 20.265
571 2 39.5561 27.6779 19.9404
572 2 4.0211 27.7646 20.103
573 2 7.98829 27.8434 20.0391
574 2 12.0278 27.6504 20.1289
575 2 15.7585 27.591 20.2522
576 2 19.8494 27.4438 20.1512
577 2 24.1299 27.5259 20.1173
578 2 27.8953 27.4494 20.1717
579 2 31.8088 27.5214 20.1763
580 2 35.6103 27.5165 19.9053
581 2 39.4669 31.7803 20.0527
582 2 4.01533 31.7529 20.1563
583 2 8.02995 31.964 20.3261
584 2 12.1512 31.6152 20.2882
585 2 15.9598 31.5752 20.0856
586 2 20.0118 31.494 20.0253
587 2 23.8616 31.5064 20.1282
588 2 27.9097 31.4176 20.2656
589 2 31.7808 31.5591 20.0849
590 2 35.5414 31.698 20.3064
591 2 0.203934 35.6307 20.2038
592 2 4.00501 35.706 20.3892
593 2 7.96221 35.7173 20.1158
594 2 12.0466 35.6469 20.229
595 2 15.877 35.772 20.057
596 2 20.0592 35.5508 20.2067
597 2 24.1512 35.419 20.158
598 2 27.7734 35.4362 20.2883
599 2 31.6894 35.5257 20.4103
600 2 35.7929 35.5924 20.1671
601 2 0.244012 39.665 24.1077
602 2 3.98057 39.6184 24.0706
603 2 8.1724 39.4404 24.3603
604 2 11.9509 -0.11223 24.3588
605 2 15.9678 0.0244729 24.2836
606 2 19.9432 39.4038 24.0643
607 2 23.8203 39.6201 24.0875
608 2 27.8351 39.7546 24.2858
609 2 31.8988 39.5574 24.2354
610 2 35.816 39.5029 24.1364
611 2 39.6933 4.0919 24.2016
612 2 4.17717 4.00724 24.025
613 2 8.06742 3.85822 24.1923
614 2 11.9933 3.88879 24.1526
615 2 16.1241 4.00356 24.1694
616 2 20.0357 3.75656 24.1916
617 2 23.888 4.04688 24.2429
618 2 27.8293 4.10891 24.0662
619 2 31.7918 3.7867 24.121
620 2 35.6887 3.92027 24.3293
621 2 0.222411 8.11252 24.2095
622 2 4.1034 7.78463 24.3901
623 2 8.22811 7.77336 24.2688
624 2 12.097 7.97108 24.0836
625 2 15.8727 7.78552 24.1867
626 2 19.9029 7.82373 24.0159
627 2 23.7872 8.02341 24.0525
628 2 27.8782 7.97298 23.9853
629 2 31.714 7.88556 23.9494
630 2 35.651 8.00367 24.0077
631 2 39.7572 11.9163 24.0918
632 2 4.05633 11.9769 24.2694
633 2 7.86963 11.8022 24.2019
634 2 11.8785 12.0262 23.97
635 2 15.9583 11.8691 24.1389
636 2 19.8391 11.8175 24.0316
637 2 23.8486 11.9518 24.1526
638 2 27.8358 11.9765 24.1117
639 2 31.7338 11.9637 24.2585
640 2 35.8065 11.7339 24.0599
641 2 39.5714 15.75 24.0552
642 2 4.23251 15.8519 24.1859
643 2 8.03235 15.6308 24.0129
644 2 11.8757 15.8805 24.1907
645 2 16.0651 15.7193 24.0035
646 2 20.1989 15.9625 23.9791
647 2 23.7818 15.9225 24.2424
648 2 27.8272 15.8464 24.1205
649 2 31.9248 15.9103 24.1281
650 2 35.8857 15.6531 24.2107
651 2 0.19678 19.7171 24.2297
652 2 4.16194 19.8749 24.1486
653 2 8.10287 19.7906 23.8626
654 2 12.1284 19.9254 23.92
655 2 15.9711 19.8118 24.1325
656 2 19.8222 19.9224 24.112
657 2 23.8361 19.7496 24.2218
658 2 27.8638 19.6781 24.1412
659 2 31.7862 19.9402 24.1909
660 2 35.7835 19.6176 24.0394
661 2 0.0143622 23.6873 24.1111
662 2 4.05819 23.9042 24.1778
663 2 7.90695 23.7721 24.0726
664 2 11.9992 23.9363 24.1735
665 2 15.9302 24.0004 24.0715
666 2 20.109 23.5424 24.1771
667 2 23.8847 23.7587 23.968
668 2 27.7767 23.6861 24.1222
669 2 31.6982 23.6438 23.9899
670 2 35.6121 23.7769 24.2079
671 2 39.7373 27.5711 23.7845
672 2 3.92328 27.9028 24.0619
673 2 8.15736 27.7671 24.0426
674 2 11.8831 27.876 24.0961
675 2 16.0201 27.8411 24.3557
676 2 19.8966 27.8422 24.2036
677 2 23.8966 27.7073 23.8916
678 2 27.9099 27.7458 24.1587
679 2 31.8607 27.6517 24.0895
680 2 35.9332 27.7718 23.896
681 2 0.0447911 31.6586 24.1089
682 2 4.01418 31.694 24.1151
683 2 8.21451 31.6855 24.065
684 2 12.1308 31.7249 24.1784
685 2 15.9008 31.5793 24.2036
686 2 19.9053 31.6111 24.1565
687 2 23.8141 31.5842 24.2066
688 2 27.8833 31.7133 24.1554
689 2 31.6688 31.5897 24.179
690 2 35.8094 31.5705 24.292
691 2 0.255367 35.5796 24.284
692 2 3.95024 35.6936 24.192
693 2 8.20772 35.6894 24.1639
694 2 11.9249 35.5196 24.2737
695 2 16.1526 35.5727 24.3242
696 2 19.9291 35.5252 24.0005
697 2 23.9041 35.513 24.227
698 2 27.6144 35.7954 24.2593
699 2 31.7958 35.6191 24.3109
700 2 35.73 35.6918 24.1644
701 2 -0.20111 39.7512 28.0236
702 2 4.1126 0.0598786 28.1825
703 2 8.05532 39.6531 28.1579
704 2 12.1759 39.6429 28.0684
705 2 16.0059 39.7746 28.2469
706 2 19.9227 39.6277 28.1159
707 2 23.6947 39.6214 28.1882
708 2 27.6567 39.8391 28.1198
709 2 31.7536 39.4327 28.0979
710 2 35.907 39.4233 28.1055
711 2 -0.00961851 4.14328 28.2091
712 2 4.06477 4.00524 28.1714
713 2 8.12104 4.00047 28.2242
714 2 12.0444 3.97816 28.1876
715 2 16.0607 4.08541 28.066
716 2 19.8168 4.05303 27.9571
717 2 23.6961 3.9869 28.1612
718 2 27.8027 4.12194 27.8627
719 2 31.8175 4.02011 28.0582
720 2 35.7203 3.93877 28.3113
721 2 0.339999 7.95127 28.1028
722 2 4.13807 7.88152 28.0877
723 2 8.03719 7.83057 28.1171
724 2 11.9798 8.09027 28.0055
725 2 15.8578 7.95796 28.2439
726 2 19.8411 8.13564 27.9751
727 2 23.9447 7.9795 28.1833
728 2 27.9062 8.00412 28.0548
729 2 31.8451 7.9227 28.1456
730 2 35.7997 8.26415 28.0108
731 2 0.357087 11.8881 28.2995
732 2 4.07072 12.0417 28.1129
733 2 7.92381 11.9285 28.215
734 2 12.0592 11.9414 28.0406
735 2 16.0546 12.1173 28.1109
736 2 19.9682 12.0529 27.9997
737 2 23.9621 11.7093 27.9212
738 2 27.6739 11.9018 28.2221
739 2 31.7876 11.9567 28.1256
740 2 35.8725 11.9083 28.2519
741 2 0.121285 15.962 28.136
742 2 3.94943 15.8451 28.053
743 2 8.03802 15.9905 27.9758
744 2 12.0207 15.8018 28.0945
745 2 15.783 16.0514 28.154
746 2 19.6871 15.8717 28.2589
747 2 23.9369 15.8749 28.2893
748 2 27.799 15.9168 28.2013
749 2 31.6348 15.9595 28.1663
750 2 35.5913 15.6741 28.0217
751 2 0.12115 19.8323 27.9736
752 2 4.03125 19.7453 28.1448
753 2 7.95024 19.7505 28.0312
754 2 11.9148 19.9927 27.9327
755 2 15.9477 19.9923 28.1349
756 2 19.7906 19.8462 28.1252
757 2 23.9521 19.8965 28.2429
758 2 27.8167 19.975 28.1575
759 2 31.7692 19.6529 28.1931
760 2 35.5702 19.7697 28.042
761 2 0.0151311 23.6955 28.0289
762 2 4.16671 23.7612 28.0729
763 2 7.78932 23.8664 27.7805
764 2 12.0145 23.9754 28.1585
765 2 16.1467 23.8928 27.957
766 2 20.0616 23.6964 28.1399
767 2 24.1179 23.7465 28.1309
768 2 28.0204 23.7814 28.1683
769 2 31.9767 23.695 28.0537
770 2 35.8174 23.8863 27.9138
771 2 39.5966 27.6623 28.0845
772 2 3.86724 27.739 28.1694
773 2 7.9894 27.829 28.0568
774 2 11.9644 27.8062 28.293
775 2 16.1411 27.7229 28.1902
776 2 20.0611 27.7147 27.9034
777 2 24.0101 27.8601 28.2177
778 2 27.8952 27.7877 28.2807
779 2 31.9251 27.7318 28.0894
780 2 35.6547 27.7855 27.9687
781 2 0.234105 31.6811 28.1665
782 2 3.9988 31.4579 28.1581
783 2 7.88023 31.733 28.2373
784 2 11.9409 31.6004 28.2179
785 2 16.0625 31.766 28.244
786 2 20.0168 31.7647 28.2215
787 2 24.075 31.7561 28.0629
788 2 27.9829 31.8014 28.114
789 2 31.9157 31.7558 28.1706
790 2 35.763 31.7321 28.0173
791 2 0.0722313 35.6045 28.0316
792 2 3.93214 35.6097 28.1074
793 2 7.82321 35.611 28.3917
794 2 11.9553 35.6536 28.4206
795 2 16.0471 35.6499 28.3024
796 2 19.8624 35.6971 28.0772
797 2 23.9216 35.5446 28.1717
798 2 27.9906 35.8743 27.9602
799 2 31.8138 35.7106 28.0959
800 2 35.7381 35.6513 28.0872
801 2 -0.146719 39.8518 31.9504
802 2 3.94281 -0.0264289 32.1872
803 2 7.81293 0.0384034 32.032
804 2 12.1438 39.5801 32.2835
805 2 16.0662 -0.180786 32.3926
806 2 19.8262 0.0459739 32.1552
807 2 23.6019 39.651 32.0465
808 2 27.5626 39.699 31.953
809 2 31.5429 39.8345 31.9878
810 2 35.6044 39.6978 32.1273
811 2 0.208594 4.11781 32.2471
812 2 4.16674 4.00536 32.0854
813 2 8.06112 4.0677 32.0154
814 2 11.8805 3.94874 32.267
815 2 15.7913 4.05358 32.029
816 2 20.0387 4.16682 32.0308
817 2 23.7995 4.15049 31.9969
818 2 27.8163 4.17339 32.0095
819 2 31.8252 4.22879 32.0012
820 2 35.528 4.00891 32.3275
821 2 39.6482 7.96507 32.1472
822 2 4.22307 8.01683 32.0741
823 2 8.13518 7.99867 32.245
824 2 11.8754 7.86034 32.0524
825 2 15.8268 7.92043 32.0641
826 2 19.8095 8.03186 32.117
827 2 23.8303 7.79193 32.125
828 2 27.6693 8.11579 32.0378
829 2 31.6224 8.06382 32.0256
830 2 35.6894 7.88679 32.1824
831 2 -0.0568432 11.8726 31.9764
832 2 4.12087 12.1939 32.1565
833 2 8.00284 11.8694 32.2359
834 2 11.9702 12.0189 32.0989
835 2 15.933 11.8999 32.1198
836 2 19.8592 11.7889 32.1218
837 2 24.0418 11.8122 32.1167
838 2 27.7714 12.0592 32.1615
839 2 31.5482 11.9702 32.1256
840 2 35.6169 12.0419 32.1662
841 2 0.0236471 16.1815 32.0791
842 2 4.11802 15.9053 32.1444
843 2 7.99647 15.9982 32.1178
844 2 11.9264 15.9966 31.9235
845 2 15.8428 15.923 32.0829
846 2 19.9621 15.9047 32.089
847 2 23.6045 15.922 32.0348
848 2 27.8121 15.972 32.2734
849 2 31.5789 16.0005 32.0721
850 2 35.8931 15.8465 32.1484
851 2 -0.0347449 19.8593 32.0671
852 2 4.10937 20.0031 31.9342
853 2 8.14611 19.8694 32.0288
854 2 12.0082 20.0292 32.0783
855 2 15.7712 19.7475 32.1297
856 2 19.9493 19.9352 32.1221
857 2 23.7981 19.9851 32.1122
858 2 27.7547 19.9588 32.1275
859 2 31.7716 19.9552 32.1352
860 2 35.5585 19.875 32.0946
861 2 -0.0946322 23.7386 31.8599
862 2 4.05046 24.0291 32.0317
863 2 8.00542 23.864 32.0515
864 2 12.0251 23.9675 32.0898
865 2 16.0378 23.7935 32.1348
866 2 19.8318 23.9251 32.1679
867 2 23.9168 23.9525 32.0754
868 2 27.9108 23.892 32.201
869 2 31.7905 23.8831 32.2023
870 2 35.7812 23.8195 32.298
871 2 -0.0391936 27.8618 32.1575
872 2 3.83892 27.6769 32.1073
873 2 7.88015 27.9488 31.945
874 2 12.0152 27.8456 32.2075
875 2 16.0465 28.0027 32.0028
876 2 20.0576 27.6912 32.0204
877 2 24.0193 27.7059 32.0271
878 2 28.1187 27.8808 32.1247
879 2 31.6436 27.8025 32.2052
880 2 35.6689 27.5263 32.092
881 2 0.128846 31.9197 32.0256
882 2 3.9431 31.7387 32.205
883 2 7.94168 31.649 32.2171
884 2 12.0254 31.8306 31.8213
885 2 15.8429 31.7184 32.2122
886 2 19.8652 31.6946 32.1135
887 2 23.7217 31.7675 32.0708
888 2 27.8922 31.6968 32.1619
889 2 31.7381 31.7308 32.2038
890 2 35.7735 31.7138 32.0576
891 2 0.0806473 35.8209 32.0096
892 2 3.85257 35.8066 32.1574
893 2 7.98515 35.6261 32.1513
894 2 11.8129 35.7406 32.1507
895 2 16.0291 35.6737 32.2119
896 2 20.144 35.6517 31.9887
897 2 23.9883 35.7431 32.0535
898 2 27.763 35.499 32.2368
899 2 31.6694 35.8003 32.0964
900 2 35.5705 35.8942 32.0825
901 2 -0.0351437 0.179073 36.2138
902 2 3.76167 0.0953852 36.1559
903 2 7.8136 0.113998 36.0078
904 2 11.8145 0.139517 36.1606
905 2 15.8883 0.0689495 35.8642
906 2 19.8186 0.241015 36.0568
907 2 23.8297 39.8347 36.0355
908 2 27.8563 39.7262 35.9694
909 2 31.6289 0.178169 36.1406
910 2 35.4526 -0.0179344 36.0953
911 2 0.134095 4.21447 36.0423
912 2 4.12971 4.09754 36.0754
913 2 7.86622 4.1588 36.1394
914 2 11.6152 3.83863 36.0522
915 2 15.6795 4.05148 36.1112
916 2 19.785 4.17744 36.062
917 2 23.8497 4.08593 35.9687
918 2 27.7762 4.08701 36.0982
919 2 31.6405 4.06324 36.1504
920 2 35.5595 4.05208 36.1874
921 2 -0.107629 8.10596 35.9769
922 2 3.95598 8.04176 35.8824
923 2 7.939 8.1345 36.1455
924 2 11.8943 8.14403 35.9237
925 2 15.7483 7.93984 36.1328
926 2 19.7485 8.03481 36.0883
927 2 23.8737 8.09496 36.1162
928 2 27.9091 8.16373 36.2448
929 2 31.5936 8.13653 36.0793
930 2 35.375 7.98634 36.0293
931 2 0.16978 12.0884 36.1008
932 2 3.96866 12.0941 36.0008
933 2 7.87004 11.9123 36.1607
934 2 11.9055 12.1828 36.1093
935 2 15.8211 11.9073 36.1241
936 2 19.8866 11.9351 36.2969
937 2 23.8956 11.9101 35.9311
938 2 27.7432 11.9878 36.1602
939 2 31.6157 12.0943 35.9795
940 2 35.6951 12.012 36.0534
941 2 0.042271 16.1511 35.9022
942 2 4.06594 16.1238 36.0884
943 2 8.03206 15.9633 35.9493
944 2 12.0782 15.8206 36.0371
945 2 16.042 15.9287 36.1081
946 2 19.7996 15.928 35.9792
947 2 23.6982 16.0234 36.1436
948 2 27.7461 15.841 36.0946
949 2 31.8316 15.9088 36.0066
950 2 35.61 15.9404 36.1703
951 2 0.020856 19.8366 36.1085
952 2 4.01668 19.9409 36.1848
953 2 7.97815 19.9673 35.9639
954 2 12.0205 19.8454 35.8924
955 2 15.9244 20.0111 36.0005
956 2 19.9104 20.0023 36.1558
957 2 23.8108 20.0592 36.1187
958 2 27.7568 19.6727 35.9354
959 2 31.7633 19.8691 36.0768
960 2 35.7048 19.8629 36.1519
961 2 0.289137 23.7781 36.0453
962 2 4.07595 24.0337 35.9942
963 2 8.16063 23.8108 36.0024
964 2 11.9707 23.8858 36.1057
965 2 15.8643 23.9158 36.1958
966 2 19.7648 23.7639 36.2645
967 2 23.6943 23.7671 36.3124
968 2 27.4937 23.9512 36.0792
969 2 31.7462 23.7684 36.282
970 2 35.8739 24.0082 36.1824
971 2 0.106325 28.0033 36.1865
972 2 3.98093 27.9745 36.0927
973 2 8.03226 27.8779 36.0484
974 2 11.9915 27.9234 36.1047
975 2 15.7969 27.9016 36.0457
976 2 19.8477 27.9708 36.056
977 2 23.7312 27.8333 36.0391
978 2 27.6824 27.734 36.2778
979 2 31.8632 27.8094 36.2358
980 2 35.8345 27.7536 36.1082
981 2 -0.151521 31.798 35.9365
982 2 3.91229 31.8781 35.9879
983 2 7.85927 31.8208 36.0969
984 2 11.6823 31.7282 36.0768
985 2 15.8091 31.991 35.9461
986 2 19.6642 31.7882 35.8819
987 2 23.7289 31.8588 36.2577
988 2 27.8162 31.7455 36.0029
989 2 31.6939 31.7101 36.09
990 2 35.5285 31.7592 36.1988
991 2 -0.0461838 35.6671 36.179
992 2 3.88974 35.8059 36.0536
993 2 7.9539 35.8342 36.0671
994 2 11.6753 35.9409 36.0344
995 2 15.7144 35.6336 35.9838