ITEM: TIMESTEP
39400
ITEM: NUMBER OF ATOMS
7500
ITEM: BOX BOUNDS xy xz yz pp pp pp
0.0000000000000000e+00 3.9579999999999998e+01 0.0000000000000000e+00
0.0000000000000000e+00 3.9579999999999998e+01 0.0000000000000000e+00
-8.2089875245028310e-02 5.9782089875245340e+01 0.0000000000000000e+00
ITEM: ATOMS id type x y z
1 2 39.7088 39.395 0.0144995
2 2 3.96998 -0.0250555 0.186219
3 2 7.84348 -0.0744322 0.0456962
4 2 11.7752 -0.0087042 0.185484
5 2 15.6972 39.6613 0.267281
6 2 19.5994 -0.0188361 0.121417
7 2 23.7562 -0.187613 0.286842
8 2 27.7311 39.4317 0.287851
9 2 31.4907 39.5853 0.470958
10 2 35.6283 39.6035 0.434988
11 2 39.5876 3.87188 0.106765
12 2 3.90974 3.95845 0.140694
13 2 7.71596 4.01375 0.141839
14 2 11.7364 4.03575 0.143027
15 2 15.9259 4.06765 0.0218171
16 2 19.8187 3.89571 0.170992
17 2 23.8439 3.90337 -0.00734776
18 2 27.7495 3.73781 0.229329
19 2 31.7195 3.65229 0.18873
20 2 35.6899 4.09995 0.257861
21 2 39.5396 7.94546 0.330526
22 2 4.01255 8.08028 0.0413765
23 2 8.0617 7.93802 0.0991543
24 2 11.9367 7.7095 60.0768
25 2 15.8151 7.68529 0.206792
26 2 19.8121 7.79967 0.301097
27 2 23.8588 7.73657 0.131737
28 2 27.7827 7.66195 0.0293953
29 2 31.5754 7.83478 0.307474
30 2 35.6963 7.89535 0.436888
31 2 39.5629 11.8699 0.20262
32 2 3.99759 11.9951 0.280618
33 2 8.00342 11.7461 0.130949
34 2 11.7445 11.7977 0.182697
35 2 15.8761 11.7445 0.130343
36 2 19.5685 11.8729 0.246552
37 2 23.5891 11.8659 0.426031
38 2 27.6269 11.7604 0.143022
39 2 31.6078 11.8025 0.477063
40 2 35.5584 11.8014 0.352111
41 2 39.4374 15.87 0.118354
42 2 3.91039 15.7901 0.292976
43 2 8.00437 15.6659 0.11433
44 2 11.6455 15.7718 0.233898
45 2 15.8222 15.7542 0.215332
46 2 19.7933 15.8772 0.341208
47 2 23.5491 15.8422 -0.0469244
48 2 27.4788 15.8618 0.0783939
49 2 31.4786 15.9113 0.193263
50 2 35.5114 15.6412 0.156282
51 2 39.5678 19.8518 0.0527891
52 2 3.96802 19.7226 0.269629
53 2 7.89128 19.8018 0.170308
54 2 11.7176 19.7862 0.205071
55 2 15.9469 19.8384 0.234277
56 2 19.708 19.8594 0.32446
57 2 23.5156 19.9231 0.103303
58 2 27.5796 19.7336 0.185353
59 2 31.6988 19.8828 0.126589
60 2 35.6838 19.6263 -0.018661
61 2 39.5229 23.8623 0.208019
62 2 4.03109 23.7706 0.103381
63 2 8.07214 23.6215 0.147111
64 2 12.045 23.7917 0.13965
65 2 15.7672 23.8924 0.152122
66 2 19.8153 23.7383 0.198414
67 2 23.8166 23.8256 0.271741
68 2 27.7023 23.6766 0.160612
69 2 31.5226 23.6593 0.122356
70 2 35.5636 23.6732 0.187493
71 2 39.508 27.5688 0.248615
72 2 3.9477 27.83 0.0359382
73 2 8.00172 27.5821 0.0446432
74 2 11.8978 27.8326 0.239876
75 2 16.0341 27.7296 0.100343
76 2 19.9574 27.7132 0.185036
77 2 23.66 27.7268 0.304851
78 2 27.8043 27.6877 0.16992
79 2 31.632 27.8062 0.366448
80 2 35.4576 27.691 -0.0101372
81 2 39.39 31.4983 0.141388
82 2 3.99605 31.6295 0.232128
83 2 7.85999 31.9063 0.0249532
84 2 11.8069 31.5255 0.0724532
85 2 15.5715 31.61 0.134836
86 2 19.7394 31.715 0.0640466
87 2 23.5309 31.6373 0.085078
88 2 27.5593 31.7044 0.257202
89 2 31.3802 31.5424 0.242647
90 2 35.3081 31.8533 0.0438868
91 2 39.7753 35.5834 0.156982
92 2 3.84832 35.5819 0.130567
93 2 7.66395 35.6281 0.140552
94 2 11.8723 35.5887 0.0384552
95 2 15.7379 35.3703 0.089879
96 2 19.6145 35.6363 0.255168
97 2 23.5477 35.654 0.245788
98 2 27.4664 35.4132 0.162326
99 2 31.564 35.588 0.398934
100 2 35.6051 35.4203 0.199034
101 2 39.5974 -0.0299446 4.23537
102 2 3.85233 39.6654 4.29159
103 2 7.90222 -0.0712708 4.16209
104 2 11.6628 -0.0968023 4.08518
105 2 15.6592 -0.142241 4.0811
106 2 19.5772 39.75 4.2521
107 2 23.6183 39.4428 4.2276
108 2 27.679 39.4592 4.37642
109 2 31.8708 -0.13357 4.30785
110 2 35.7871 39.5808 4.18304
111 2 39.5846 3.9896 4.17748
112 2 3.87955 3.90961 4.07217
113 2 7.86645 3.87588 4.08243
114 2 11.9095 3.76968 4.10704
115 2 15.7601 3.59441 3.8874
116 2 19.886 4.0574 4.17976
117 2 23.6832 3.80537 4.17771
118 2 27.7822 3.88694 4.3701
119 2 31.7407 3.77362 4.08081
120 2 35.5994 3.90738 4.28339
121 2 0.0890056 7.8844 4.28004
122 2 3.99722 8.01007 4.25084
123 2 7.78591 7.65067 4.17778
124 2 11.7919 7.93894 4.31929
125 2 15.7806 7.81504 4.19863
126 2 19.7475 7.76797 4.1746
127 2 23.7523 7.69312 4.20552
128 2 27.7068 7.69171 4.23085
129 2 31.6098 7.86625 4.21168
130 2 35.7597 7.84935 4.32946
131 2 39.8271 11.8744 4.14687
132 2 4.15531 11.8138 4.12691
133 2 7.99135 11.9284 4.21447
134 2 11.7481 11.7728 4.25131
135 2 15.7391 11.7836 4.2164
136 2 19.9235 11.7962 4.14543
137 2 23.7685 11.8491 4.17175
138 2 27.5488 11.8862 4.14035
139 2 31.5926 11.7613 4.34166
140 2 35.6867 11.9526 4.20528
141 2 39.4858 15.8935 4.28126
142 2 4.06774 15.9145 4.25012
143 2 7.81913 15.9986 4.33649
144 2 11.9813 15.7437 4.27102
145 2 15.9117 15.7596 4.28317
146 2 19.8135 15.7647 4.21383
147 2 23.7474 15.8053 4.35823
148 2 27.536 15.9701 4.27244
149 2 31.7284 15.7163 4.20495
150 2 35.4358 15.9028 4.27142
151 2 -0.0258199 19.8704 4.06195
152 2 3.81265 19.642 4.05699
153 2 8.1109 19.7322 4.15599
154 2 12.0428 19.6575 4.1784
155 2 15.9441 19.7312 4.24199
156 2 19.6866 19.8314 4.11805
157 2 23.7006 19.6269 4.208
158 2 27.6217 19.6389 4.11465
159 2 31.6357 19.7176 4.0606
160 2 35.5147 19.8743 4.39462
161 2 39.6771 23.8443 4.24923
162 2 4.05544 23.7522 4.12583
163 2 7.85836 23.6818 4.00351
164 2 11.7725 23.7095 4.38525
165 2 15.6004 23.5753 4.27075
166 2 19.9305 23.8641 4.15717
167 2 23.8643 23.59 4.21559
168 2 27.5619 23.6351 4.34981
169 2 31.7836 23.7207 4.08159
170 2 35.7335 23.6144 4.02722
171 2 39.5725 27.7883 4.22075
172 2 3.99488 27.5748 4.16679
173 2 7.91573 27.5838 4.00955
174 2 11.7369 27.6448 3.97693
175 2 15.7508 27.8182 4.2292
176 2 19.5566 27.6586 4.21424
177 2 23.6179 27.6494 4.22329
178 2 27.8438 27.5611 3.9999
179 2 31.745 27.4937 4.19018
180 2 35.6644 27.5801 4.22449
181 2 -0.0271426 31.5395 4.09631
182 2 3.91835 31.5833 4.24126
183 2 7.79024 31.6937 4.11796
184 2 11.6911 31.7562 3.98946
185 2 15.6906 31.8003 4.23895
186 2 19.8019 31.5457 4.22412
187 2 23.7886 31.5846 4.22513
188 2 27.4147 31.4018 4.05723
189 2 31.5216 31.4517 4.31257
190 2 35.6649 31.6307 4.06436
191 2 0.123396 35.5935 4.28933
192 2 3.90701 35.5435 4.34776
193 2 7.94721 35.5727 4.1711
194 2 11.8914 35.4988 4.27121
195 2 15.8118 35.5144 4.20808
196 2 19.7298 35.5371 4.24427
197 2 23.6506 35.5273 4.24917
198 2 27.8293 35.327 4.2026
199 2 31.6501 35.6102 4.27502
200 2 35.6203 35.3915 4.17761
201 2 39.8238 39.5486 8.0843
202 2 4.08672 39.5639 8.07821
203 2 7.90358 39.4022 8.19344
204 2 12.0447 -0.134271 8.00022
205 2 15.8518 -0.135851 8.2727
206 2 19.7147 39.5779 8.26942
207 2 23.8057 39.451 8.19619
208 2 27.8382 0.00765968 8.24882
209 2 31.7909 39.3197 8.16503
210 2 35.7333 39.5349 8.18077
211 2 39.4768 3.78028 8.38317
212 2 3.99187 3.76829 8.29686
213 2 7.76732 3.7351 8.25199
214 2 11.8066 3.81805 8.19962
215 2 15.8602 3.97525 8.25253
216 2 19.7633 3.85244 8.40187
217 2 23.8716 3.7913 8.06072
218 2 27.7562 3.67194 8.1145
219 2 31.7607 3.84242 8.15397
220 2 35.5573 3.84068 8.23263
221 2 39.6432 7.82378 7.98647
222 2 4.04978 7.80968 8.28909
223 2 7.86956 7.76739 8.1868
224 2 11.8607 7.72681 8.3223
225 2 15.8149 7.81564 8.24964
226 2 19.7091 7.72859 8.16424
227 2 23.8058 7.68443 7.97877
228 2 27.6959 7.84942 8.09176
229 2 31.5462 7.94355 8.3022
230 2 35.7349 7.98825 8.2267
231 2 39.6376 11.6021 8.04832
232 2 3.97061 11.8054 8.1974
233 2 7.98046 11.9021 8.06132
234 2 11.745 11.6837 8.04579
235 2 15.7538 11.5464 7.96407
236 2 19.8444 11.7263 8.07611
237 2 23.8444 11.7373 8.20848
238 2 27.6764 11.7142 8.1182
239 2 31.6545 11.8556 8.2105
240 2 35.6098 11.6788 8.26892
241 2 39.6247 15.9141 8.10009
242 2 4.00964 15.6993 8.16373
243 2 8.0363 16.0626 8.18993
244 2 11.933 15.7758 8.27242
245 2 15.8163 15.7703 8.23525
246 2 19.7638 15.4788 8.04517
247 2 23.7664 15.714 8.1861
248 2 27.7768 15.6653 8.06388
249 2 31.6725 15.644 8.06177
250 2 35.882 15.6896 8.14399
251 2 39.8941 19.7734 8.17208
252 2 3.97549 19.6702 8.15706
253 2 7.80623 19.7049 8.23143
254 2 12.0047 19.758 8.0095
255 2 15.9629 19.6565 8.20858
256 2 19.7893 19.7496 8.13288
257 2 23.5731 19.6501 8.09826
258 2 27.8843 19.8976 8.16066
259 2 31.762 19.7175 8.21559
260 2 35.7464 19.6922 8.13034
261 2 39.5827 23.6577 8.29163
262 2 4.07089 23.8278 8.20375
263 2 8.01728 23.6842 8.18111
264 2 12.084 23.8393 8.11929
265 2 16.0631 23.6294 8.36415
266 2 19.8794 23.7515 8.20865
267 2 23.6995 23.5916 8.13268
268 2 27.9224 23.8093 8.19433
269 2 31.6799 23.8302 8.35073
270 2 35.6222 23.3978 8.08564
271 2 -0.120338 27.5834 7.9794
272 2 4.07491 27.6207 8.11313
273 2 8.12115 27.6636 8.14223
274 2 11.9409 27.6305 8.02341
275 2 15.7873 27.6107 8.19095
276 2 19.8348 27.7082 8.16403
277 2 23.8216 27.6965 8.066
278 2 27.7705 27.6006 8.16887
279 2 31.584 27.5907 8.1961
280 2 35.5856 27.3858 8.2421
281 2 0.0279997 31.5129 8.26807
282 2 4.05938 31.7687 8.30523
283 2 7.86982 31.796 8.36042
284 2 11.6974 31.8043 8.06664
285 2 15.6146 31.4345 8.24305
286 2 19.7374 31.726 8.40773
287 2 23.6062 31.6276 8.30122
288 2 27.7968 31.6101 8.14458
289 2 31.8012 31.5715 8.15929
290 2 35.4977 31.5391 8.24932
291 2 39.4965 35.6717 8.22914
292 2 3.70072 35.7167 8.25825
293 2 7.86532 35.6068 8.31941
294 2 12.015 35.6835 8.15226
295 2 15.8648 35.4294 8.05777
296 2 19.9185 35.4711 8.23819
297 2 23.9346 35.5322 7.99782
298 2 27.6722 35.745 8.14492
299 2 31.7605 35.4834 8.20906
300 2 35.6594 35.4733 8.03836
301 2 39.6838 39.4339 12.3325
302 2 4.17156 39.5137 12.2202
303 2 8.10787 39.3935 12.2753
304 2 11.9775 39.7248 11.9647
305 2 15.8628 39.4036 12.281
306 2 19.791 0.0364365 12.2605
307 2 23.7133 -0.141554 12.2808
308 2 27.7967 -0.23879 12.1194
309 2 31.7841 -0.11827 12.0781
310 2 35.7191 39.4915 12.3075
311 2 39.6035 3.80268 12.0304
312 2 3.99832 4.01541 12.3155
313 2 7.82637 3.81226 12.3243
314 2 11.9026 4.12567 12.096
315 2 15.7864 3.85442 12.1494
316 2 19.9336 3.87007 12.1766
317 2 23.8138 4.07118 12.0538
318 2 27.9338 3.90819 12.2805
319 2 31.6986 3.93625 12.1572
320 2 35.5995 4.02251 12.2375
321 2 39.7079 7.84942 12.2947
322 2 4.10704 7.92471 11.9121
323 2 7.82751 7.99929 11.9917
324 2 11.9434 7.95904 12.1528
325 2 15.974 7.87867 12.1652
326 2 19.8529 8.13721 12.1285
327 2 23.7669 7.60652 11.9446
328 2 27.8385 7.88938 12.0755
329 2 31.8421 7.88435 12.2722
330 2 35.7346 8.00269 12.2764
331 2 39.5458 11.6447 12.3715
332 2 4.12404 11.8951 12.1483
333 2 8.15491 11.9229 12.041
334 2 11.9748 11.6757 12.1656
335 2 15.9177 11.8308 12.1455
336 2 19.7901 11.8345 12.1997
337 2 23.8161 11.7291 12.2306
338 2 27.5978 11.7213 11.9388
339 2 31.6192 11.8434 12.317
340 2 35.8376 11.9904 12.1074
341 2 39.6742 15.5307 12.1027
342 2 4.03612 15.5833 12.2076
343 2 7.88379 15.9486 12.0892
344 2 11.9213 15.5333 11.9858
345 2 15.7229 15.8514 12.223
346 2 19.8069 15.7523 12.112
347 2 23.7353 15.9421 12.163
348 2 27.9748 15.594 12.0074
349 2 31.6845 15.5801 11.939
350 2 35.8641 15.7406 12.1752
351 2 0.0694222 19.6421 12.1569
352 2 4.03579 19.5576 12.3462
353 2 7.91467 19.8669 12.3
354 2 12.0822 19.8679 12.2785
355 2 15.8744 19.6743 12.2018
356 2 19.9077 19.6239 11.9698
357 2 23.9166 19.5607 12.0151
358 2 27.8139 19.6912 12.0671
359 2 31.644 19.5437 12.1109
360 2 35.5069 19.6112 12.1443
361 2 -0.0706414 23.4354 12.2799
362 2 4.07827 23.5585 12.2137
363 2 7.76638 23.4988 12.1697
364 2 11.9527 23.7457 12.1872
365 2 15.9241 23.6509 12.2137
366 2 19.8735 23.8575 12.2459
367 2 23.7739 23.6925 12.0646
368 2 27.8192 23.6683 12.2235
369 2 31.5828 23.593 12.2945
370 2 35.5855 23.4676 12.2183
371 2 39.6888 27.437 12.0339
372 2 3.94132 27.5321 12.1667
373 2 7.92788 27.6175 12.1126
374 2 11.9394 27.7065 12.3163
375 2 15.7121 27.7221 12.2991
376 2 19.9507 27.4989 11.9689
377 2 23.7595 27.6361 12.1524
378 2 27.4985 27.5415 12.2477
379 2 31.6769 27.7651 12.114
380 2 35.7686 27.4124 11.983
381 2 -0.0214469 31.3967 12.281
382 2 4.10801 31.5938 12.229
383 2 7.77719 31.4722 12.063
384 2 11.655 31.6193 12.04
385 2 15.8776 31.4916 12.0902
386 2 19.6978 31.6515 12.2897
387 2 23.6595 31.923 12.3419
388 2 27.476 31.6103 12.2049
389 2 31.6498 31.746 12.0116
390 2 35.6791 31.4542 12.0531
391 2 39.7224 35.5431 12.1517
392 2 3.97122 35.6038 12.3202
393 2 7.98671 35.5786 12.207
394 2 11.9622 35.7145 12.1576
395 2 15.8732 35.4337 12.2636
396 2 19.8117 35.5585 12.3287
397 2 24.0125 35.601 12.2176
398 2 28.1747 35.6199 12.1506
399 2 31.8013 35.5331 12.1871
400 2 35.8834 35.7549 12.2129
401 2 0.196054 39.5908 16.1247
402 2 3.97125 39.4796 16.2843
403 2 8.06578 39.531 16.1221
404 2 11.8336 -0.0184197 16.1603
405 2 15.6987 39.5339 16.2959
406 2 19.7533 39.56 16.1366
407 2 23.9156 -0.138208 16.1291
408 2 27.8161 39.4182 16.3359
409 2 31.7812 39.5908 16.0895
410 2 35.7575 39.4293 16.1737
411 2 39.7655 4.04417 16.1942
412 2 3.98196 3.89591 16.215
413 2 8.06836 3.91681 16.0787
414 2 12.0534 3.89291 15.9354
415 2 15.9587 4.08495 16.1648
416 2 19.8007 3.98676 16.0692
417 2 23.7467 3.88443 16.1179
418 2 27.7143 3.56685 16.0205
419 2 31.621 3.82299 16.1899
420 2 35.6464 3.88323 15.807
421 2 0.0375344 7.90906 16.1516
422 2 4.06562 7.82035 15.9642
423 2 7.94479 7.90554 16.1396
424 2 11.945 7.91871 16.2465
425 2 15.9715 8.04267 16.2658
426 2 19.782 7.86485 16.1434
427 2 23.743 7.73644 16.1634
428 2 27.7132 7.7274 16.0006
429 2 31.681 7.83851 16.1802
430 2 35.8036 7.62494 16.1827
431 2 39.808 11.8041 16.1402
432 2 3.95928 11.9696 16.2399
433 2 8.05374 11.7905 16.3385
434 2 11.8342 11.8733 16.2018
435 2 15.8099 11.9937 16.0466
436 2 19.947 11.897 16.1113
437 2 23.8852 11.456 16.0493
438 2 27.7508 11.8101 16.04
439 2 31.8228 11.9531 16.107
440 2 35.793 11.6928 16.2577
441 2 -0.0945986 15.7462 16.2998
442 2 3.87465 15.5997 16.1588
443 2 8.20393 15.7707 16.2479
444 2 12.0132 15.8175 16.0152
445 2 15.9478 16.0632 16.2057
446 2 19.8011 15.8972 16.1409
447 2 23.6373 15.6666 16.2912
448 2 27.7628 15.7871 16.1615
449 2 31.8441 15.6335 16.1892
450 2 35.6462 15.7463 16.4024
451 2 39.5577 19.7222 16.2036
452 2 4.06204 19.8224 16.3446
453 2 7.96936 19.5716 16.2235
454 2 12.0582 19.8464 16.252
455 2 15.9521 19.7364 16.1649
456 2 19.7771 20.1116 16.0039
457 2 23.6848 19.8595 16.056
458 2 27.8322 19.6623 16.1784
459 2 31.764 19.5377 16.1663
460 2 35.7478 19.5821 16.2166
461 2 39.6326 23.8956 16.2389
462 2 3.91612 23.6343 16.1659
463 2 7.95103 23.5944 16.1281
464 2 11.8906 23.6763 16.3048
465 2 15.8682 23.8953 16.2562
466 2 19.7112 23.6892 16.1954
467 2 23.7599 23.7152 16.1345
468 2 27.8713 23.6844 16.1889
469 2 31.7668 23.7127 16.0968
470 2 35.7221 23.9039 16.1242
471 2 -0.023279 27.6067 15.9401
472 2 3.95169 27.7121 16.1714
473 2 7.81265 27.6179 16.1942
474 2 11.8507 27.7165 16.0751
475 2 15.6942 27.7402 16.173
476 2 19.8582 27.5816 16.0821
477 2 23.7521 27.6829 16.1913
478 2 27.8111 27.5061 16.0614
479 2 31.6917 27.6963 16.0546
480 2 35.7559 27.7459 16.1063
481 2 0.159249 31.4225 16.0438
482 2 4.01334 31.677 15.9888
483 2 7.97912 31.3829 16.1647
484 2 11.8722 31.4354 16.1697
485 2 15.924 31.5027 16.265
486 2 19.7718 31.4441 16.1132
487 2 23.8843 31.6288 16.2154
488 2 27.817 31.5671 16.246
489 2 31.877 31.7253 16.0541
490 2 35.832 31.6317 15.99
491 2 0.0589594 35.5259 16.1055
492 2 3.9579 35.5202 16.2305
493 2 7.85358 35.3725 16.2434
494 2 11.9022 35.4091 16.1085
495 2 15.7287 35.632 16.2745
496 2 19.6725 35.5528 16.3028
497 2 23.752 35.3707 16.2446
498 2 27.862 35.7626 16.0981
499 2 31.9551 35.5842 16.0352
500 2 35.7771 35.3991 16.086
501 2 0.108623 39.5786 20.2013
502 2 4.10949 39.4496 20.3381
503 2 7.91073 39.2822 20.0797
504 2 11.7534 39.661 20.1587
505 2 15.7739 39.7339 19.9686
506 2 19.8645 39.4928 20.128
507 2 23.7323 39.4286 20.0699
508 2 27.8813 39.542 20.1079
509 2 31.8594 39.52 20.0671
510 2 35.9945 39.3948 19.9457
511 2 -0.0568621 3.94953 20.0975
512 2 4.14944 3.84784 20.1889
513 2 8.11126 3.72188 20.0143
514 2 11.9215 4.26579 20.014
515 2 16.0145 3.89979 20.0004
516 2 20.0166 3.63243 20.1749
517 2 23.7691 3.86832 19.9885
518 2 28.0012 4.03278 20.1987
519 2 31.8621 3.80014 20.2633
520 2 35.6217 3.97858 20.0611
521 2 -0.00510016 7.76838 20.1673
522 2 4.10947 8.07918 20.0887
523 2 8.02195 7.8086 20.024
524 2 11.948 8.00934 20.1259
525 2 15.9449 7.82868 20.2708
526 2 19.8826 7.87191 20.1775
527 2 24.0209 7.77469 19.9096
528 2 27.8002 7.71011 20.2945
529 2 31.511 7.68092 20.0331
530 2 35.442 7.78976 20.2055
531 2 0.0653442 11.6122 20.2601
532 2 3.89813 11.8742 20.2526
533 2 7.77271 11.8179 20.2007
534 2 11.9174 11.8182 20.2073
535 2 15.9402 11.6848 20.0588
536 2 19.7942 11.6569 20.173
537 2 23.9336 11.618 20.2256
538 2 27.7573 11.6056 20.0756
539 2 31.5238 11.6203 20.105
540 2 35.6301 11.7234 20.1355
541 2 0.0312538 15.5931 20.2613
542 2 4.23771 15.7996 20.1544
543 2 8.11034 15.7745 20.3847
544 2 12.0294 15.7253 20.1406
545 2 15.9095 15.6137 20.1186
546 2 19.9186 15.9129 20.1428
547 2 23.7636 15.6996 19.9831
548 2 27.685 15.781 20.1622
549 2 31.6293 15.6406 20.2006
550 2 35.7112 15.5645 20.098
551 2 39.7549 19.7854 20.1285
552 2 3.99456 19.8074 20.1617
553 2 7.96695 19.935 20.2205
554 2 11.8967 19.8752 20.105
555 2 15.8615 19.6267 20.1583
556 2 19.8808 19.6349 20.0578
557 2 23.7489 19.5435 20.1674
558 2 27.674 19.8209 20.1197
559 2 31.9082 19.7597 20.1446
560 2 35.7158 19.8507 20.1005
561 2 39.6292 23.6725 20.2593
562 2 3.9583 23.7518 20.2523
563 2 8.01461 23.7418 20.3486
564 2 11.8612 23.6691 20.0648
565 2 15.705 23.7299 20.0683
566 2 19.7914 23.8103 20.0096
567 2 23.7244 23.6531 20.2133
568 2 27.579 23.5464 20.1373
569 2 31.6557 23.8869 20.1273
570 2 35.8211 23.7451 20.0231
571 2 39.5673 27.8108 20.2075
572 2 4.00382 27.6213 20.3503
573 2 7.82235 27.693 20.2321
574 2 11.9237 27.6059 20.0276
575 2 15.7408 27.741 20.2162
576 2 19.6747 27.5074 20.1992
577 2 23.8537 27.647 20.0622
578 2 27.8078 27.4468 19.9944
579 2 31.6944 27.7231 20.2536
580 2 35.685 27.5008 20.0716
581 2 39.5655 31.6028 20.1243
582 2 3.86076 31.6864 20.111
583 2 7.89278 31.5389 20.284
584 2 11.7744 31.75 20.2119
585 2 15.8763 31.6295 20.2414
586 2 19.7159 31.6877 20.1921
587 2 23.8907 31.6955 20.0573
588 2 27.9135 31.8454 20.1334
589 2 31.7473 31.6349 20.1098
590 2 35.5737 31.7847 20.0668
591 2 -0.192919 35.384 20.0439
592 2 3.94271 35.5711 20.2974
593 2 8.17459 35.3591 20.1963
594 2 12.1292 35.6045 20.1374
595 2 15.5934 35.6362 20.0661
596 2 19.6022 35.4799 20.1771
597 2 23.8111 35.5876 20.0617
598 2 27.8298 35.7531 20.2161
599 2 31.7829 35.8029 19.9275
600 2 35.6038 35.4283 20.1968
601 2 -0.0548905 39.5354 24.2365
602 2 3.84975 39.4672 24.1271
603 2 7.82202 39.6758 24.134
604 2 11.98 0.240219 23.8997
605 2 16.0263 0.132912 24.0216
606 2 19.7758 39.5245 24.0838
607 2 23.73 39.5651 24.0841
608 2 27.6894 39.2323 24.0411
609 2 31.8161 39.6308 24.1833
610 2 35.8586 39.5569 24.1286
611 2 39.7165 3.84351 24.1091
612 2 4.19286 3.84145 24.0398
613 2 7.93729 3.79428 24.0968
614 2 11.7254 3.80124 24.095
615 2 15.7874 4.01762 24.031
616 2 20.0693 3.94743 24.1429
617 2 23.9492 3.93478 24.2385
618 2 27.6877 3.85892 23.9891
619 2 31.8565 3.79861 24.0921
620 2 35.8072 3.94657 24.0403
621 2 0.0811506 7.72147 24.2235
622 2 3.98109 7.78954 24.1096
623 2 8.09174 7.67103 24.0733
624 2 11.7845 7.80113 24.2005
625 2 15.8913 7.96723 24.2605
626 2 19.9467 7.79156 24.0958
627 2 23.8733 7.69235 24.0993
628 2 27.7369 7.93419 24.2275
629 2 31.7514 7.92928 24.3263
630 2 35.6573 7.96786 24.2977
631 2 39.9143 11.8164 24.1316
632 2 4.10954 11.642 24.0573
633 2 8.03254 11.7839 24.3069
634 2 12.0292 11.6469 24.0277
635 2 15.9961 11.7935 24.2066
636 2 19.8689 11.7906 24.0585
637 2 23.6796 11.7406 24.2303
638 2 27.8545 11.8292 24.108
639 2 31.7557 12.0229 24.0267
640 2 36.024 11.758 24.0563
641 2 39.7331 15.8644 24.2081
642 2 3.92847 15.6619 24.1471
643 2 8.19843 15.7658 24.2031
644 2 12.0747 15.9193 24.1398
645 2 15.8412 15.7968 24.1556
646 2 19.646 15.8165 24.1371
647 2 23.8185 15.7869 23.9967
648 2 27.8808 15.7712 23.9767
649 2 31.9254 15.7021 24.1306
650 2 35.6945 15.8184 24.1469
651 2 0.0923765 19.7507 24.1225
652 2 3.89452 19.7833 24.1263
653 2 7.86087 19.8265 24.1555
654 2 11.9599 19.659 24.2275
655 2 15.7636 19.6403 24.1502
656 2 19.7454 19.5738 24.0236
657 2 23.9348 19.6779 24.0421
658 2 28.0768 19.7416 24.1458
659 2 31.7781 19.5855 24.0593
660 2 35.7965 19.892 24.2407
661 2 -0.000956714 23.7881 24.2072
662 2 3.78888 23.8536 24.0174
663 2 7.94862 23.9517 24.1718
664 2 11.8341 23.6308 24.2644
665 2 15.8316 23.5277 24.2767
666 2 19.8145 23.4991 24.0444
667 2 23.8621 23.6829 24.1469
668 2 27.6623 23.6768 24.1781
669 2 31.6647 23.5652 24.1434
670 2 35.5013 23.7253 23.9879
671 2 39.507 27.7339 24.3316
672 2 4.0992 27.4985 24.2139
673 2 7.89003 27.8629 24.3226
674 2 11.8863 27.6729 24.2634
675 2 15.9175 27.4917 24.1365
676 2 19.7871 27.7737 24.0166
677 2 24.0009 27.7334 24.1149
678 2 27.8565 27.5671 24.0346
679 2 31.6251 27.7698 24.2454
680 2 35.4315 27.6153 24.3433
681 2 0.0943989 31.572 24.2485
682 2 4.08836 31.5159 24.1203
683 2 8.16305 31.6692 24.2615
684 2 11.9506 31.6338 24.1008
685 2 15.9761 31.5461 24.2931
686 2 19.9019 31.7096 23.9014
687 2 23.787 31.5357 24.0492
688 2 27.8366 31.6243 24.0505
689 2 31.7564 31.5121 23.9234
690 2 35.7444 31.6359 24.0788
691 2 0.0706044 35.6068 24.1745
692 2 3.93809 35.3409 24.2181
693 2 7.94883 35.5155 24.266
694 2 12.0223 35.7439 23.9935
695 2 15.9163 35.7437 24.1626
696 2 19.9915 35.5676 24.0293
697 2 23.8676 35.5036 24.2751
698 2 27.7476 35.6055 24.2642
699 2 31.6943 35.7472 24.1817
700 2 35.7206 35.4061 24.1542
701 2 -0.00284781 39.6841 28.1699
702 2 3.88774 -0.153439 28.1344
703 2 7.90448 39.6338 28.0696
704 2 11.8994 39.6297 28.0717
705 2 15.9022 39.5711 28.1324
706 2 20.0167 39.487 28.099
707 2 23.7536 39.5489 28.1703
708 2 27.7193 39.5912 28.3906
709 2 31.7078 39.6847 28.1502
710 2 35.6251 39.5817 28.2427
711 2 -0.127628 3.88333 28.1567
712 2 4.11348 3.76902 28.1037
713 2 7.872 3.85752 28.2396
714 2 11.9148 3.81709 28.1235
715 2 15.8095 3.9711 28.034
716 2 19.7304 3.85734 28.1333
717 2 23.9535 3.79073 28.1086
718 2 27.871 3.90571 27.9503
719 2 31.681 4.13205 28.0529
720 2 35.5936 3.88061 28.1906
721 2 0.0201552 7.9069 28.1741
722 2 3.87664 7.86307 28.2127
723 2 7.95464 7.9082 28.158
724 2 11.8434 7.87626 28.1204
725 2 15.8004 7.95265 28.0336
726 2 19.8159 7.81602 28.2771
727 2 23.7999 7.77417 28.1258
728 2 27.8405 8.09887 28.0433
729 2 31.8256 7.79091 28.112
730 2 35.8439 7.8561 28.1251
731 2 0.00535785 11.8581 28.0316
732 2 4.23675 11.6482 28.0127
733 2 8.24733 11.9011 27.981
734 2 11.8272 11.9403 28.1709
735 2 15.8445 11.8717 28.1299
736 2 19.9498 11.7868 28.1396
737 2 23.8242 11.8474 28.1103
738 2 27.906 11.9474 28.0363
739 2 31.6425 11.8259 28.0655
740 2 35.7086 11.645 28.2038
741 2 0.191164 15.7922 28.0123
742 2 3.9942 16.0146 28.0792
743 2 7.80713 15.857 28.2609
744 2 11.9638 15.8231 28.0854
745 2 15.8868 15.6788 28.1548
746 2 19.8183 15.789 28.123
747 2 23.6256 15.8687 28.2265
748 2 27.8016 15.8977 27.8557
749 2 31.8835 15.7876 28.2063
750 2 35.8718 15.7066 28.0582
751 2 -0.0225349 19.9894 28.1423
752 2 4.13707 20.0923 28.1266
753 2 8.09853 19.8572 28.0026
754 2 11.846 19.5427 28.1975
755 2 15.7718 19.7594 28.1789
756 2 19.92 19.7595 28.0383
757 2 23.79 19.8893 28.158
758 2 27.9218 19.6998 27.9867
759 2 31.9305 19.9655 28.2633
760 2 35.7526 19.7901 28.1899
761 2 -0.0482425 23.769 28.2007
762 2 3.88103 23.7968 28.0792
763 2 8.00639 23.7724 28.2372
764 2 12.0481 23.67 28.0948
765 2 15.9065 23.7329 28.0772
766 2 19.9251 23.8821 28.07
767 2 24.0354 23.7651 28.1963
768 2 27.8191 23.7416 28.2929
769 2 31.8367 23.833 28.1342
770 2 35.7085 23.794 28.1442
771 2 39.6673 27.7767 28.324
772 2 4.04676 27.7398 28.2281
773 2 8.13626 27.6733 28.2294
774 2 11.9357 27.8842 28.1233
775 2 15.985 27.749 28.1005
776 2 20.1163 27.6254 27.9373
777 2 23.8655 27.6465 28.0838
778 2 27.7548 27.7411 27.9729
779 2 31.6485 27.9194 28.177
780 2 35.5266 27.5242 28.1769
781 2 0.0719779 31.6143 28.266
782 2 4.16584 31.7489 28.1437
783 2 8.11688 31.7205 28.0859
784 2 11.8776 31.6754 28.1148
785 2 15.8019 31.7168 28.026
786 2 19.763 31.5276 27.9899
787 2 23.7993 31.6307 28.0785
788 2 27.713 31.4594 28.2207
789 2 31.7117 31.6715 28.261
790 2 35.6141 31.692 28.1515
791 2 0.157194 35.5803 28.197
792 2 4.23923 35.6148 28.1981
793 2 8.05629 35.6988 28.0968
794 2 11.9532 35.809 27.9264
795 2 15.7398 35.6574 28.1086
796 2 19.8937 35.7397 28.165
797 2 23.874 35.4168 27.9645
798 2 27.8691 35.5686 28.2019
799 2 31.6278 35.6022 28.1039
800 2 35.9225 35.5047 27.9981
801 2 0.00961388 39.5691 32.1972
802 2 3.9781 -0.0777951 32.073
803 2 7.83192 0.00980477 32.208
804 2 12.0399 39.5991 31.9719
805 2 16.0529 0.265571 32.0301
806 2 19.8541 -0.128593 32.1901
807 2 24.0392 39.6461 32.3131
808 2 27.9955 39.8025 32.1213
809 2 31.7653 39.426 32.248
810 2 35.7363 39.6084 32.2399
811 2 0.107469 3.91016 32.2265
812 2 4.14242 3.91839 32.2255
813 2 7.88505 3.81125 32.2663
814 2 11.9038 4.16864 32.0891
815 2 15.8803 4.1923 32.1999
816 2 19.7921 4.20821 32.1811
817 2 23.9212 4.08703 31.9573
818 2 27.7978 4.07819 32.1966
819 2 31.589 3.95303 32.0295
820 2 35.6386 3.89824 31.9309
821 2 39.707 7.90978 32.1386
822 2 4.11431 7.7482 31.9837
823 2 7.78099 8.01471 32.2209
824 2 11.9349 7.98806 32.1163
825 2 15.9177 8.0225 31.874
826 2 19.9815 7.87216 32.0737
827 2 23.9065 7.98211 31.9551
828 2 27.8423 7.79015 32.0748
829 2 31.8639 7.99187 32.105
830 2 35.7832 7.85634 32.1467
831 2 0.205535 11.9045 31.9467
832 2 3.82001 11.8957 31.9514
833 2 7.83024 12.0772 32.0203
834 2 12.0176 11.8509 32.2043
835 2 15.9589 11.8659 32.1349
836 2 19.9101 11.8352 32.0593
837 2 23.6775 12.1382 32.0546
838 2 27.7214 11.9001 32
839 2 31.8011 12.0479 31.9524
840 2 35.6795 12.0693 32.1585
841 2 -0.0128855 15.8942 32.0787
842 2 4.0508 15.8664 31.978
843 2 7.89303 15.8404 32.197
844 2 12.0769 15.8527 32.1935
845 2 15.9281 15.8298 32.0561
846 2 19.8007 15.9644 32.0664
847 2 23.646 15.8305 32.0996
848 2 27.7205 15.9387 31.9636
849 2 31.7625 15.8586 32.0937
850 2 35.6195 15.9453 32.2575
851 2 0.118223 19.8091 32.2111
852 2 4.13594 19.7604 32.24
853 2 7.93007 19.7604 32.2413
854 2 11.9668 19.8429 32.1994
855 2 16.0169 19.9337 32.0761
856 2 19.7097 20.0686 32.1015
857 2 23.8009 19.7713 32.1075
858 2 28.1192 19.7763 31.8168
859 2 31.7641 19.9176 32.2792
860 2 35.7351 19.7697 32.2304
861 2 0.220853 23.9475 32.1284
862 2 4.16899 23.8489 32.1076
863 2 8.36082 23.6598 32.0881
864 2 12.0919 23.6676 32.0032
865 2 15.795 23.8908 32.0371
866 2 19.7166 23.8479 32.1879
867 2 23.7403 23.8127 32.1428
868 2 27.6675 23.602 32.1159
869 2 31.7983 23.6217 32.2786
870 2 35.871 23.9344 32.1239
871 2 0.172279 27.6749 32.2252
872 2 4.19621 27.8839 32.2733
873 2 8.18821 27.6609 32.128
874 2 12.2021 27.7444 32.1363
875 2 15.9708 27.7431 32.0491
876 2 19.7635 27.684 32.2256
877 2 23.8017 27.6582 32.2143
878 2 27.8085 27.8164 32.0492
879 2 31.6496 27.5001 32.2768
880 2 35.7011 27.7687 32.2273
881 2 0.00254641 31.783 31.9993
882 2 4.20064 31.8006 31.9597
883 2 7.99419 31.6872 32.0542
884 2 11.8926 31.8097 32.0779
885 2 16.124 31.6099 31.9139
886 2 20.1561 31.9745 31.9415
887 2 23.8141 31.7807 32.0939
888 2 27.8519 31.6886 32.0809
889 2 31.8176 31.5326 32.2186
890 2 35.5061 31.697 32.0035
891 2 0.0736722 35.52 32.1935
892 2 3.9933 35.6619 31.952
893 2 7.89893 35.7229 32.235
894 2 11.8341 35.6494 32.0462
895 2 16.042 35.6088 31.949
896 2 19.8671 35.6797 32.1241
897 2 24.0312 35.504 32.2684
898 2 28.0181 35.5787 32.0608
899 2 31.6599 35.4762 32.1806
900 2 35.6152 35.7292 32.2772
901 2 0.13214 0.113833 36.2203
902 2 4.1259 0.0891476 36.2055
903 2 7.95901 -0.000483893 36.1874
904 2 12.1976 0.014573 36.1605
905 2 16.0291 0.0793942 35.9432
906 2 20.1343 0.0747914 36.0408
907 2 23.89 39.7347 36.1094
908 2 27.6761 39.3533 36.1837
909 2 31.8911 0.16536 36.0851
910 2 35.6639 -0.132301 36.1324
911 2 0.00205449 3.99321 36.0175
912 2 3.94 4.00179 36.0992
913 2 8.01411 3.9655 36.107
914 2 11.7917 4.11182 35.979
915 2 15.905 3.9588 36.0298
916 2 20.069 3.99955 36.0491
917 2 23.8803 4.01993 36.0005
918 2 27.8391 4.00312 36.1175
919 2 31.7805 4.05381 36.253
920 2 35.6408 3.97981 36.0773
921 2 0.121385 7.94747 36.1936
922 2 4.04161 7.99198 36.1704
923 2 7.90017 7.89277 36.0348
924 2 11.8349 7.97333 36.0594
925 2 15.9208 8.2208 36.0381
926 2 19.8161 8.01101 36.0034
927 2 23.803 7.99118 36.1834
928 2 27.677 7.85663 36.1347
929 2 31.6745 8.16568 35.8627
930 2 35.709 8.1315 35.8875
931 2 0.0766459 11.8717 36.051
932 2 3.84358 12.0478 36.1236
933 2 8.01986 12.2981 36.185
934 2 11.9962 12.0005 36.1886
935 2 16.053 11.9679 35.9298
936 2 19.9555 11.9486 36.0817
937 2 24.0087 12.0094 35.9419
938 2 27.8557 11.9855 35.8865
939 2 31.5003 11.9421 36.0601
940 2 35.6935 11.9444 36.2295
941 2 0.170927 15.7531 35.95
942 2 3.82786 16.0314 35.9992
943 2 8.16791 15.9453 36.1062
944 2 11.9818 16.1003 36.1284
945 2 15.9182 15.9632 36.1652
946 2 19.8612 15.9022 36.1169
947 2 23.9764 16.1955 36.0944
948 2 27.6463 16.0998 36.1097
949 2 31.7429 15.773 36.2423
950 2 35.8784 15.916 35.9984
951 2 0.106597 20.0145 36.2022
952 2 3.98674 20.0053 36.1723
953 2 7.89037 20.0316 36.0759
954 2 11.8479 19.9391 36.1232
955 2 15.9333 19.7642 36.166
956 2 19.8406 19.8252 35.9797
957 2 23.5604 19.8543 36.0293
958 2 27.636 19.7153 36.033
959 2 31.5071 19.6469 36.0232
960 2 35.7114 19.8385 36.3907
961 2 0.216177 23.9636 36.1289
962 2 4.07677 23.9997 36.0966
963 2 8.05947 23.9822 36.1054
964 2 12.0534 23.875 36.0493
965 2 15.8175 23.7682 36.0979
966 2 19.8434 23.9543 36.0849
967 2 23.7726 23.5592 36.1247
968 2 27.5874 23.7311 36.1266
969 2 31.6543 23.7409 36.0038
970 2 35.6411 23.6633 36.0691
971 2 0.00937216 27.8272 36.1499
972 2 4.13866 27.8611 36.1575
973 2 8.17526 27.7709 36.2368
974 2 12.0131 28.1222 35.9209
975 2 15.9442 27.8794 36.0238
976 2 19.8111 27.9455 36.0644
977 2 23.6996 27.6466 36.1541
978 2 27.5419 27.7001 36.0556
979 2 31.8026 27.7321 36.1259
980 2 35.7073 27.8316 36.1913
981 2 0.184134 31.8272 35.8423
982 2 4.11215 31.7353 36.1878
983 2 8.24254 31.8363 36.1803
984 2 12.0545 31.8282 36.0872
985 2 15.7541 31.7812 36.1572
986 2 19.6358 31.7457 35.9878
987 2 23.702 31.5172 36.0281
988 2 27.6171 31.736 36.1255
989 2 31.6036 31.6523 36.0021
990 2 35.7745 31.7696 36.083
991 2 0.114942 35.7718 36.0862
992 2 4.03456 35.4185 36.0841
993 2 7.96521 35.677 36.1909