ITEM: TIMESTEP
40900
ITEM: NUMBER OF ATOMS
7500
ITEM: BOX BOUNDS xy xz yz pp pp pp
0.0000000000000000e+00 3.9579999999999998e+01 0.0000000000000000e+00
0.0000000000000000e+00 3.9579999999999998e+01 0.0000000000000000e+00
-3.3336596732816304e-02 5.9733336596732933e+01 0.0000000000000000e+00
ITEM: ATOMS id type x y z
1 2 39.4219 39.62 0.291461
2 2 3.84061 0.024743 0.107986
3 2 7.76288 -0.060812 0.0903437
4 2 11.7623 -0.25212 0.140658
5 2 15.715 39.4191 0.200952
6 2 19.6611 -0.0112574 0.372902
7 2 23.5996 0.0101647 0.245326
8 2 27.6219 39.6745 0.320296
9 2 31.5668 39.5129 0.381394
10 2 35.76 39.5997 0.377717
11 2 39.5563 4.22939 0.29995
12 2 3.83293 3.97827 0.308867
13 2 7.87984 4.00588 0.149048
14 2 11.8644 3.94031 0.21078
15 2 15.8045 4.22116 0.196125
16 2 19.6997 3.94495 0.437797
17 2 23.7326 3.96136 0.183624
18 2 27.5236 3.78276 0.304407
19 2 31.4622 3.90623 0.267757
20 2 35.4799 3.85679 0.24603
21 2 39.4069 7.9149 0.158063
22 2 3.9224 7.99042 0.108907
23 2 7.7211 7.87208 0.143372
24 2 11.6809 7.9489 59.844
25 2 15.8167 8.04803 0.1707
26 2 19.5808 7.7352 0.165642
27 2 23.7231 7.83105 0.111086
28 2 27.5351 7.73512 0.198233
29 2 31.4338 7.86003 0.322377
30 2 35.5026 7.77122 0.161706
31 2 39.3721 12.0259 0.250394
32 2 3.92894 11.9553 0.183156
33 2 7.9558 11.6685 0.162137
34 2 12.0203 11.798 0.163681
35 2 15.8818 11.8292 0.25138
36 2 19.5971 11.6654 0.0695086
37 2 23.7221 11.8966 0.169628
38 2 27.7215 11.9463 0.195476
39 2 31.8 11.7624 0.126352
40 2 35.5576 11.9328 0.453869
41 2 39.4464 15.8409 0.232414
42 2 3.78576 15.6591 0.211976
43 2 7.96118 15.8692 0.083192
44 2 11.807 15.7705 0.252462
45 2 15.6503 15.9444 0.30105
46 2 19.6891 15.707 0.149854
47 2 23.8025 15.6637 0.155352
48 2 27.7892 15.8532 0.287854
49 2 31.6238 15.7943 0.208641
50 2 35.4594 15.9236 0.04568
51 2 39.6008 19.7002 0.260736
52 2 3.91795 19.6704 0.291875
53 2 7.87686 19.7115 0.204038
54 2 11.6993 19.8492 0.183919
55 2 15.6473 19.7482 0.423926
56 2 19.7131 19.6929 0.393171
57 2 23.6743 19.5955 0.0294289
58 2 27.6394 19.7679 0.228609
59 2 31.4678 19.8167 0.00211136
60 2 35.4848 19.7999 0.316623
61 2 39.584 23.7112 0.242623
62 2 3.8709 23.7116 0.169009
63 2 7.85905 23.7746 0.165058
64 2 11.5579 23.7489 0.241698
65 2 15.9384 23.814 0.142373
66 2 19.5616 23.6951 0.269532
67 2 23.4796 23.8004 0.257428
68 2 27.5779 23.7386 0.410943
69 2 31.4648 23.9482 0.230484
70 2 35.4184 23.7799 0.248795
71 2 39.4316 27.4938 0.190423
72 2 3.72774 27.7056 0.20452
73 2 7.81487 27.6139 0.0603172
74 2 11.6042 27.6512 0.2266
75 2 15.7168 27.7116 0.191455
76 2 19.7898 28.0081 0.201207
77 2 23.6477 27.7222 0.282174
78 2 27.5798 27.9088 0.358917
79 2 31.5533 27.8505 0.167297
80 2 35.4355 27.6314 0.159531
81 2 39.3185 31.5218 0.0340159
82 2 3.83704 31.6086 0.14757
83 2 7.86067 31.7101 0.406681
84 2 11.9928 31.7206 0.228812
85 2 15.8497 31.7327 0.26813
86 2 19.7676 31.6363 0.168528
87 2 23.4952 31.7239 0.323813
88 2 27.6798 31.6144 0.240233
89 2 31.4845 31.6171 0.382836
90 2 35.4934 31.6116 0.332694
91 2 39.4892 35.676 0.184643
92 2 3.98337 35.6317 0.232903
93 2 7.7569 35.4802 -0.0217446
94 2 11.8017 35.6393 0.230968
95 2 15.6637 35.5647 0.167141
96 2 19.7117 35.6527 0.255048
97 2 23.8636 35.5587 0.302733
98 2 27.5986 35.609 0.159816
99 2 31.4772 35.6456 0.247769
100 2 35.5647 35.7267 0.12786
101 2 39.663 -0.00372893 4.24143
102 2 3.86803 39.535 4.00835
103 2 7.64568 -0.133099 4.28051
104 2 11.7527 -0.147295 4.05266
105 2 15.8519 -0.13328 4.20097
106 2 19.7256 39.4626 4.21124
107 2 23.7586 39.6901 4.22861
108 2 27.5168 39.5182 4.28705
109 2 31.4881 -0.0957075 4.15572
110 2 35.4972 39.6968 4.31015
111 2 39.5934 4.12973 4.40345
112 2 4.10979 3.80809 4.24078
113 2 8.05896 3.78655 4.09884
114 2 11.7921 3.73729 4.20276
115 2 15.6966 3.80793 4.1575
116 2 19.6437 4.08865 4.28392
117 2 23.7075 4.088 4.20613
118 2 27.5359 3.95694 4.17935
119 2 31.6052 4.03603 4.12117
120 2 35.4528 4.02167 4.22354
121 2 0.0625704 7.85132 4.15641
122 2 3.91464 7.93693 4.20974
123 2 7.86872 7.77805 4.24871
124 2 11.5899 7.92959 4.21286
125 2 15.6299 7.8715 4.38307
126 2 19.8281 7.82186 4.34232
127 2 23.4205 7.77096 4.11865
128 2 27.7256 7.80191 4.49653
129 2 31.5074 8.00777 4.26617
130 2 35.6262 7.88156 4.22183
131 2 39.4747 11.7661 4.0805
132 2 3.73699 11.8093 4.18823
133 2 7.82911 11.6873 4.20557
134 2 11.6758 11.9275 4.17821
135 2 15.7655 11.8884 3.97871
136 2 19.8402 11.7451 4.11975
137 2 23.6851 11.7296 4.05144
138 2 27.6144 11.7693 4.15218
139 2 31.6879 11.8097 4.33543
140 2 35.5245 11.7994 4.21188
141 2 39.4025 15.7015 4.18029
142 2 3.79656 15.6258 4.37849
143 2 7.85777 15.6258 3.92679
144 2 11.9131 15.8566 4.34971
145 2 15.7126 15.7505 4.18818
146 2 19.5682 15.7354 4.30795
147 2 23.6091 15.6833 4.18274
148 2 27.7783 15.6953 4.08729
149 2 31.6063 15.8468 4.18168
150 2 35.4026 15.7585 4.21076
151 2 -0.157792 19.6474 4.22572
152 2 3.95026 19.7527 4.21621
153 2 7.92584 19.832 4.21157
154 2 11.7529 19.7442 4.23724
155 2 15.5986 19.8468 4.26425
156 2 19.7516 19.6373 4.13455
157 2 23.6779 19.8218 4.13781
158 2 27.6797 19.8801 4.08622
159 2 31.5921 19.7972 4.1496
160 2 35.3855 19.7121 4.22897
161 2 39.4958 23.6132 4.36363
162 2 3.77859 23.8084 4.28667
163 2 7.76232 23.8542 4.20291
164 2 11.7449 23.7404 4.2198
165 2 15.7377 23.592 3.97776
166 2 19.708 23.7098 4.21258
167 2 23.7303 23.6283 4.32014
168 2 27.5225 23.991 4.22701
169 2 31.6276 23.8193 4.00796
170 2 35.4246 23.6701 4.30144
171 2 39.3459 27.4879 4.14228
172 2 3.81408 27.7084 4.19562
173 2 7.85627 27.7946 4.28236
174 2 11.888 27.7128 4.23987
175 2 15.5259 27.6627 4.12055
176 2 19.8228 27.5784 4.32135
177 2 23.6671 27.6631 4.3342
178 2 27.6183 27.7695 4.36305
179 2 31.5429 27.7977 4.35051
180 2 35.522 27.572 4.11871
181 2 -0.119398 31.7649 4.35945
182 2 3.70176 31.3758 4.19239
183 2 7.90899 31.6329 4.18512
184 2 11.7739 31.5581 4.18786
185 2 15.5809 31.6137 4.364
186 2 19.6433 31.5754 4.32439
187 2 23.5362 31.7018 4.39846
188 2 27.6379 31.5688 4.31891
189 2 31.7739 31.6003 4.32621
190 2 35.5241 31.735 4.32126
191 2 -0.103225 35.5247 4.37697
192 2 3.72602 35.4908 4.29131
193 2 7.90073 35.5351 4.2578
194 2 11.8371 35.5471 4.18034
195 2 15.7246 35.5354 4.2893
196 2 19.7976 35.7397 4.17843
197 2 23.8416 35.5779 4.22514
198 2 27.6847 35.6656 4.1182
199 2 31.6226 35.5168 4.24165
200 2 35.5316 35.5523 4.113
201 2 39.4671 39.7081 8.08847
202 2 4.00371 39.6787 8.23147
203 2 7.82811 39.4299 8.37383
204 2 11.7082 -0.0423183 8.30763
205 2 15.7116 0.00708304 8.05353
206 2 19.7407 39.664 7.97454
207 2 23.6352 39.5914 8.20154
208 2 27.4884 0.125712 8.17894
209 2 31.558 39.7938 8.27232
210 2 35.486 39.6323 8.19335
211 2 39.5218 4.00207 8.26455
212 2 3.77165 4.00729 8.134
213 2 7.83094 3.87685 8.22483
214 2 11.7402 3.70639 8.26475
215 2 15.6852 3.92839 8.31857
216 2 19.6053 3.97297 8.2959
217 2 23.497 3.88044 8.10165
218 2 27.6459 3.87481 8.18087
219 2 31.7408 4.12707 8.24246
220 2 35.5541 3.98012 8.14106
221 2 39.4153 7.8054 8.31867
222 2 4.07452 8.04817 8.19541
223 2 7.97331 7.84089 8.08544
224 2 11.8719 7.66995 8.20783
225 2 15.8921 7.98512 8.15953
226 2 19.8025 7.78187 8.26537
227 2 23.6889 7.8212 8.23598
228 2 27.4142 7.85275 8.25858
229 2 31.4985 8.09717 8.16033
230 2 35.5437 7.95241 8.16632
231 2 39.6191 11.7634 8.17926
232 2 4.15105 11.9697 8.12515
233 2 7.79388 11.8003 8.19924
234 2 11.6995 11.7939 7.9321
235 2 15.672 11.7764 8.24593
236 2 19.6804 11.7717 7.94379
237 2 23.749 11.682 8.18349
238 2 27.5945 11.694 8.16628
239 2 31.5738 11.837 8.21793
240 2 35.6944 11.5042 8.05913
241 2 39.397 15.7129 8.13023
242 2 3.90073 15.7255 8.08137
243 2 7.79108 15.7117 8.14946
244 2 11.9286 15.8113 8.31384
245 2 15.8556 15.6475 8.25066
246 2 19.7961 15.7271 8.14593
247 2 23.6918 15.8143 8.19367
248 2 27.7332 15.7793 8.15484
249 2 31.5073 15.8661 8.30515
250 2 35.5277 15.6941 8.32756
251 2 39.4867 19.6373 8.24663
252 2 3.88225 19.5128 8.08494
253 2 7.77238 19.6356 8.15275
254 2 11.4904 19.7497 8.07616
255 2 15.7772 19.5397 8.31923
256 2 19.5947 19.7692 8.03006
257 2 23.7483 19.5804 8.05548
258 2 27.5286 19.6842 8.23857
259 2 31.4051 19.6952 8.02517
260 2 35.4486 19.6471 8.16148
261 2 39.3622 23.7675 8.08522
262 2 3.75648 23.7808 8.12711
263 2 7.74592 23.6382 8.18657
264 2 11.6463 23.5303 8.18026
265 2 15.7101 23.5832 8.27625
266 2 19.745 23.4637 8.02116
267 2 23.7337 23.6922 8.34037
268 2 27.7119 23.7906 8.18147
269 2 31.4859 23.7983 8.11627
270 2 35.2225 23.54 8.16949
271 2 -0.0648336 27.5517 8.28105
272 2 3.86697 27.6006 8.24133
273 2 7.68096 27.6445 8.2098
274 2 11.7523 27.4992 8.33212
275 2 15.7129 27.3842 8.21118
276 2 19.6063 27.592 8.06963
277 2 23.4745 27.6376 8.27102
278 2 27.5238 27.7161 8.22346
279 2 31.4173 27.6152 8.09948
280 2 35.4583 27.6731 8.27136
281 2 -0.11514 31.4963 8.30096
282 2 3.93209 31.5662 8.16783
283 2 7.73412 31.5524 8.07535
284 2 11.5844 31.3911 8.22851
285 2 15.7382 31.5331 8.14785
286 2 19.6752 31.4584 8.13883
287 2 23.7379 31.4227 8.31748
288 2 27.6272 31.744 8.20738
289 2 31.583 31.7715 8.45595
290 2 35.5283 31.6291 8.13177
291 2 39.5547 35.7565 8.13572
292 2 3.894 35.6896 8.18262
293 2 7.63759 35.5134 8.10938
294 2 11.6882 35.3325 8.15643
295 2 15.7732 35.4149 8.12024
296 2 19.649 35.5581 8.14644
297 2 23.5224 35.6618 8.30046
298 2 27.5882 35.7194 8.22172
299 2 31.653 35.6435 8.36526
300 2 35.4911 35.7738 8.2735
301 2 39.5348 39.6202 12.2889
302 2 3.87244 39.6333 12.3612
303 2 7.77207 39.6791 12.1958
304 2 11.8487 39.6124 11.9728
305 2 15.7346 39.5302 12.2288
306 2 19.6763 -0.274261 12.2373
307 2 23.7552 -0.0656974 12.1532
308 2 27.6248 0.0634857 12.1937
309 2 31.5848 0.00484805 12.2624
310 2 35.5902 39.5978 12.3379
311 2 39.4467 3.85386 12.2327
312 2 3.92388 3.82348 12.231
313 2 7.84207 3.92248 12.2284
314 2 11.6647 3.86391 12.058
315 2 15.6334 3.9618 12.181
316 2 19.6772 3.93031 12.2762
317 2 23.7029 3.84184 12.2744
318 2 27.8598 3.94489 12.0373
319 2 31.416 3.95175 12.1858
320 2 35.5975 3.89769 12.1507
321 2 39.445 7.83526 12.1635
322 2 3.86038 7.74597 12.1196
323 2 7.87855 7.872 12.2153
324 2 11.815 7.83616 12.1255
325 2 15.8011 7.94742 12.3031
326 2 19.8831 7.93933 12.3079
327 2 23.7975 7.81588 12.3905
328 2 27.8002 7.77774 12.1337
329 2 31.5819 7.74635 12.2516
330 2 35.6327 7.94336 12.0612
331 2 39.6923 11.739 12.2387
332 2 3.90867 11.7653 12.0955
333 2 7.98132 11.751 12.1763
334 2 11.8347 11.8602 12.1561
335 2 15.7705 11.8676 12.4207
336 2 19.8672 11.933 11.8841
337 2 23.7193 11.7231 12.3783
338 2 27.8473 11.8497 11.9781
339 2 31.8844 11.911 12.2501
340 2 35.583 11.7659 12.173
341 2 39.6921 15.6954 12.1052
342 2 4.0413 15.8086 12.102
343 2 7.88142 15.865 12.2423
344 2 11.7132 15.7226 12.235
345 2 15.8506 15.7538 12.3048
346 2 19.8068 15.8362 12.2604
347 2 23.9593 15.6144 12.2511
348 2 27.5517 15.9229 12.1672
349 2 31.4846 15.7632 12.1262
350 2 35.6047 15.5931 12.1345
351 2 -0.175021 19.7274 12.3659
352 2 3.74628 19.6137 12.1954
353 2 7.82388 19.7091 12.2569
354 2 11.7616 19.6613 12.1053
355 2 15.9295 19.6563 12.2898
356 2 19.9288 19.6358 12.0326
357 2 23.8016 19.6877 12.0157
358 2 27.816 19.8941 12.0879
359 2 31.4234 19.8193 12.0962
360 2 35.4104 19.5939 12.3153
361 2 -0.0176769 23.5681 12.2345
362 2 3.72543 23.3355 12.0133
363 2 7.69324 23.6047 12.2171
364 2 11.8825 23.6733 12.3657
365 2 15.871 23.5348 12.133
366 2 19.7337 23.587 12.0787
367 2 23.8695 23.5988 12.157
368 2 27.5763 23.8006 12.3039
369 2 31.4721 23.8164 12.2911
370 2 35.5545 23.4704 12.1344
371 2 39.282 27.6604 12.0795
372 2 4.00499 27.5974 12.209
373 2 7.86072 27.5814 12.2893
374 2 11.8722 27.5439 12.2259
375 2 15.8996 27.6706 12.1836
376 2 19.6459 27.5679 12.1931
377 2 23.6056 27.7666 12.2297
378 2 27.8724 27.6161 12.2576
379 2 31.6199 27.5989 12.32
380 2 35.397 27.4996 12.3679
381 2 -0.0758893 31.6748 12.1134
382 2 3.60237 31.7265 12.1815
383 2 7.7586 31.532 12.0748
384 2 11.92 31.4082 11.9413
385 2 15.8147 31.4165 12.2399
386 2 19.7823 31.6053 12.3541
387 2 23.7697 31.8051 12.2379
388 2 27.6427 31.6377 12.2779
389 2 31.6261 31.5221 12.2245
390 2 35.5798 31.4396 12.1956
391 2 39.4242 35.4929 11.8995
392 2 3.81043 35.5512 12.1133
393 2 8.01187 35.4463 12.29
394 2 11.9956 35.5466 12.1098
395 2 15.6495 35.3898 12.0852
396 2 19.4031 35.4948 11.9693
397 2 23.5694 35.5645 12.1972
398 2 27.5827 35.732 12.1355
399 2 31.5534 35.7754 12.0716
400 2 35.4809 35.4691 12.1862
401 2 -0.106023 39.4975 16.234
402 2 3.78661 39.5704 16.0015
403 2 7.77019 39.284 16.0046
404 2 11.7432 0.0789046 16.0509
405 2 15.6322 39.5035 16.0992
406 2 19.6022 39.4365 16.2141
407 2 23.6695 -0.0856285 16.044
408 2 27.5175 39.6318 16.275
409 2 31.7154 39.5842 16.2443
410 2 35.4823 39.4932 16.0706
411 2 39.4862 3.92543 16.2157
412 2 3.83655 4.07995 16.149
413 2 7.80092 3.84286 16.1365
414 2 11.9173 3.8969 16.1413
415 2 15.8974 4.00412 16.0229
416 2 19.8323 3.66158 16.0703
417 2 23.6642 4.1339 16.2791
418 2 27.7363 3.89271 16.1897
419 2 31.6382 4.0639 16.2495
420 2 35.717 3.86668 16.247
421 2 -0.0735533 7.91646 16.3727
422 2 3.8504 7.93287 16.0578
423 2 7.92759 7.80989 16.1846
424 2 11.7681 7.94343 16.26
425 2 15.7603 8.01335 15.9322
426 2 19.81 7.65346 16.2633
427 2 23.8774 7.94742 16.1649
428 2 27.599 7.9503 16.2663
429 2 31.9314 7.83029 16.0638
430 2 35.7005 7.80117 16.0522
431 2 39.588 11.8824 16.2651
432 2 3.95256 11.7759 16.2108
433 2 7.72283 11.8993 16.3323
434 2 11.7967 11.7841 16.1858
435 2 16.0126 11.7461 16.2409
436 2 19.7735 11.7212 16.1039
437 2 23.7122 11.8797 16.2499
438 2 27.7783 11.8745 16.2103
439 2 31.5402 11.7084 16.1525
440 2 35.7852 11.7851 16.1964
441 2 -0.134497 15.891 16.1041
442 2 3.91314 15.7185 16.2121
443 2 8.1597 15.8343 16.2893
444 2 11.9435 15.9344 16.1746
445 2 15.7468 15.6397 16.1555
446 2 19.8143 15.7098 16.2674
447 2 23.6237 15.7219 16.2052
448 2 27.5421 15.7337 16.0389
449 2 31.7343 15.8527 16.1371
450 2 35.7404 15.7099 16.0863
451 2 39.4424 19.6298 16.115
452 2 3.97052 19.677 16.2256
453 2 7.95104 19.6379 16.2172
454 2 11.6504 19.8062 16.3084
455 2 16.061 19.5813 16.1801
456 2 19.8695 19.6502 16.211
457 2 23.8045 19.7732 16.1599
458 2 27.5778 19.554 16.1361
459 2 31.7421 19.6843 16.2104
460 2 35.5744 19.6817 16.2685
461 2 39.6423 23.9209 16.0784
462 2 4.02731 23.7976 16.1013
463 2 7.971 23.5875 15.9983
464 2 11.9447 23.5469 16.318
465 2 15.6796 23.4979 15.9214
466 2 19.7471 23.7228 16.2203
467 2 23.6574 23.6453 16.0797
468 2 27.7069 23.6149 16.177
469 2 31.5286 23.5102 16.3161
470 2 35.608 23.8167 16.1539
471 2 -0.03848 27.5679 16.005
472 2 3.9143 27.7345 16.311
473 2 7.96306 27.5654 16.3117
474 2 11.8661 27.6723 16.2921
475 2 15.9056 27.5554 16.06
476 2 19.6892 27.7253 16.285
477 2 23.641 27.7754 16.207
478 2 27.4703 27.5342 16.0977
479 2 31.6989 27.5419 16.2512
480 2 35.6418 27.5446 16.0865
481 2 -0.192882 31.2809 16.1455
482 2 3.7715 31.5413 16.0794
483 2 7.95026 31.6189 16.1416
484 2 11.9866 31.4726 16.1915
485 2 15.7216 31.6235 16.1577
486 2 19.6576 31.5888 16.1481
487 2 23.8108 31.6856 16.2749
488 2 27.856 31.4791 16.2274
489 2 31.5545 31.6431 16.2427
490 2 35.6623 31.6824 16.2225
491 2 -0.0359606 35.4624 16.1787
492 2 3.671 35.379 15.9963
493 2 7.90944 35.5022 15.9254
494 2 11.6747 35.7174 16.1406
495 2 15.6097 35.6238 16.1704
496 2 19.7925 35.5847 16.2605
497 2 23.8186 35.5359 16.2182
498 2 27.7032 35.405 16.1391
499 2 31.5583 35.7181 15.9944
500 2 35.6763 35.4833 16.1889
501 2 -0.144961 39.6758 20.2143
502 2 4.03944 39.4127 20.1955
503 2 7.59888 39.4691 20.0722
504 2 11.7752 39.7422 20.0919
505 2 15.8283 39.4875 20.1393
506 2 19.7939 39.2965 19.9918
507 2 23.8063 39.5358 20.0946
508 2 27.8831 39.4674 20.0531
509 2 31.8009 39.667 20.1123
510 2 35.6299 39.6678 20.1442
511 2 -0.105393 4.01564 20.0827
512 2 3.87344 3.73761 20.0295
513 2 7.71439 3.81446 20.0399
514 2 11.7187 3.89782 20.1568
515 2 15.6184 3.65422 20.0913
516 2 19.7952 4.0025 19.9417
517 2 23.6751 3.85087 20.1328
518 2 27.7296 4.00748 20.2051
519 2 31.7564 4.0462 20.0741
520 2 35.5607 4.04424 20.1667
521 2 -0.0824414 8.03189 20.2579
522 2 3.97153 7.78452 20.0097
523 2 8.05944 7.95608 20.1605
524 2 11.9477 7.73077 20.0034
525 2 15.9327 7.62447 20.1581
526 2 19.7004 7.97987 20.2046
527 2 23.7323 7.87477 20.2034
528 2 27.8239 7.81676 20.309
529 2 31.6269 7.81932 20.2231
530 2 35.5584 8.03223 20.0371
531 2 0.0723055 11.8284 20.3863
532 2 4.04954 11.823 20.0654
533 2 7.89447 11.873 20.2083
534 2 11.9089 11.8759 20.2274
535 2 15.9895 11.8518 20.1678
536 2 19.9473 11.7488 20.1686
537 2 23.6119 11.6453 20.1913
538 2 27.7074 11.9503 20.1287
539 2 31.5982 11.8463 20.219
540 2 35.522 11.8075 20.0582
541 2 0.224758 15.8002 20.2912
542 2 4.05091 15.826 20.2493
543 2 7.90495 15.6994 20.1806
544 2 12.1113 15.7981 20.2419
545 2 15.8771 15.7505 20.2079
546 2 19.9203 15.7389 20.1234
547 2 23.805 15.7673 20.3626
548 2 27.9418 15.8602 20.0595
549 2 31.8857 15.6327 20.2405
550 2 35.7032 15.712 20.2184
551 2 39.5315 19.78 20.1291
552 2 4.03785 19.6989 20.1665
553 2 7.84701 19.6616 20.2562
554 2 11.8228 19.7095 20.235
555 2 15.8883 19.4781 20.1992
556 2 19.7638 19.6184 20.1762
557 2 23.6963 19.7641 20.2634
558 2 27.9696 19.6785 20.1414
559 2 31.8402 19.749 20.2814
560 2 35.6445 19.5651 20.3682
561 2 39.7887 23.7312 20.0426
562 2 3.88053 23.6947 20.1489
563 2 7.88545 23.7187 20.2728
564 2 11.984 23.8055 20.1458
565 2 15.7581 23.5465 20.1239
566 2 19.8662 23.8892 20.1065
567 2 23.7643 23.4916 20.2663
568 2 27.9331 23.5685 19.9975
569 2 31.7798 23.811 19.9955
570 2 35.6598 23.6817 20.1073
571 2 39.6047 27.7095 20.2031
572 2 4.07583 27.6248 20.2608
573 2 8.14793 27.6472 20.1059
574 2 12.0118 27.627 20.099
575 2 15.8803 27.6046 20.1312
576 2 19.9048 27.4653 20.069
577 2 23.6701 27.696 20.1771
578 2 27.7264 27.5368 20.0755
579 2 31.8206 27.4756 20.1861
580 2 35.4728 27.6772 20.1452
581 2 39.5249 31.5551 20.0429
582 2 4.05537 31.6621 20.2402
583 2 8.06578 31.6567 20.2254
584 2 12.0706 31.633 20.3596
585 2 15.958 31.58 20.2494
586 2 19.7276 31.4425 19.9537
587 2 23.6759 31.664 20.38
588 2 27.7838 31.5323 20.2949
589 2 31.6482 31.4846 20.1959
590 2 35.5256 31.6846 20.0815
591 2 0.0862017 35.7584 20.228
592 2 3.98591 35.5159 20.1786
593 2 7.82726 35.5868 20.1124
594 2 11.9199 35.5646 20.2006
595 2 15.9613 35.5738 20.2109
596 2 19.7646 35.4295 20.19
597 2 23.7424 35.3306 20.2989
598 2 27.5469 35.4302 20.1744
599 2 31.7482 35.6912 20.1107
600 2 35.6726 35.5191 20.2308
601 2 -0.023363 39.6135 24.2406
602 2 4.20492 39.5771 24.0751
603 2 7.99635 39.5543 24.1357
604 2 11.9122 -0.04817 24.0683
605 2 15.8522 -0.185504 24.1648
606 2 19.8045 39.433 24.1233
607 2 23.9424 39.3929 24.1222
608 2 27.6982 39.4491 24.1246
609 2 31.6836 39.6599 23.9906
610 2 35.6675 39.8231 24.1239
611 2 39.667 4.01516 24.0711
612 2 4.02078 3.89733 24.1895
613 2 7.99663 3.8654 24.1855
614 2 12.0677 3.98327 24.1362
615 2 15.8825 3.82939 23.9236
616 2 19.9107 3.54143 23.9925
617 2 24.0499 4.05382 23.9747
618 2 27.8212 3.61532 24.1227
619 2 31.6283 4.01545 24.1698
620 2 35.7596 4.16039 23.9858
621 2 0.204171 7.97144 24.1754
622 2 4.05648 7.85195 23.9772
623 2 8.01117 7.7964 24.1309
624 2 11.9848 7.80547 24.0402
625 2 16.0748 7.9779 23.9809
626 2 19.7629 7.68431 24.0099
627 2 23.888 7.97968 24.1584
628 2 27.8404 7.75436 24.1408
629 2 31.7318 7.97659 24.2211
630 2 35.7157 8.00822 24.1867
631 2 39.6775 11.932 24.2218
632 2 4.05642 11.8736 24.262
633 2 8.00086 11.7971 24.0765
634 2 11.8436 11.7727 24.1637
635 2 15.6531 11.8363 24.1366
636 2 19.9179 11.7387 24.2854
637 2 23.869 11.7281 24.083
638 2 27.7241 12.0435 24.1822
639 2 31.6202 11.6729 24.2342
640 2 35.7686 11.9733 24.1974
641 2 39.761 15.8186 24.1534
642 2 3.96986 15.929 24.2513
643 2 7.99336 15.7521 24.0623
644 2 11.8237 15.7914 24.0875
645 2 15.9768 15.6926 24.2272
646 2 19.9185 15.5526 24.0295
647 2 23.8121 15.754 24.1335
648 2 27.816 15.9266 24.2444
649 2 31.7301 15.7366 24.1614
650 2 35.8158 15.8906 24.2485
651 2 0.0415782 19.7724 24.2366
652 2 4.01643 19.8946 24.096
653 2 7.8987 19.7208 24.0431
654 2 11.8524 19.7125 24.1971
655 2 16.0615 19.5743 24.2908
656 2 19.9952 19.8997 24.1219
657 2 23.5697 19.568 24.2118
658 2 27.8326 19.6649 24.1978
659 2 31.9285 19.688 24.2399
660 2 35.6329 19.9006 24.1697
661 2 0.131634 23.6401 24.1207
662 2 4.17867 23.8467 24.1413
663 2 7.91495 23.7376 24.2191
664 2 11.9713 23.6496 24.0354
665 2 15.7336 23.47 24.0038
666 2 19.7441 23.9463 24.2535
667 2 23.8703 23.6614 24.1446
668 2 27.8849 23.456 23.9655
669 2 31.7129 23.7348 24.2346
670 2 35.689 23.6888 24.233
671 2 39.6656 27.6113 24.2195
672 2 3.93773 27.9082 24.1509
673 2 8.0711 27.6192 24.2515
674 2 12.0162 27.7389 24.0636
675 2 15.9679 27.4701 24.2528
676 2 19.5969 27.5143 24.2103
677 2 23.8442 27.4529 24.2022
678 2 27.7016 27.621 24.0644
679 2 31.7933 27.5099 24.2425
680 2 35.7074 27.6392 24.0094
681 2 0.131454 31.3977 24.0623
682 2 4.07511 31.5183 24.1499
683 2 7.81273 31.6233 24.1935
684 2 11.998 31.5157 24.0778
685 2 15.8943 31.5356 24.153
686 2 19.7844 31.5148 24.0836
687 2 23.5507 31.4202 24.1326
688 2 27.7366 31.5967 24.1263
689 2 31.7034 31.6646 24.1907
690 2 35.6878 31.6561 24.0353
691 2 0.0105936 35.6566 24.1146
692 2 4.1048 35.5798 24.2466
693 2 7.94474 35.8171 24.2617
694 2 12.001 35.5975 23.9639
695 2 15.926 35.5593 24.2793
696 2 19.9419 35.5424 24.1586
697 2 23.8967 35.5018 24.1769
698 2 27.7932 35.4779 24.1266
699 2 31.9509 35.7135 24.0605
700 2 35.6604 35.5751 23.9733
701 2 -0.0362222 39.4017 28.0957
702 2 3.92059 0.0265172 28.0995
703 2 7.92475 39.4102 28.1595
704 2 11.9591 39.5244 28.1833
705 2 15.7998 39.5939 28.1748
706 2 19.9917 39.5929 27.9177
707 2 24.0137 39.5487 28.1294
708 2 27.986 39.427 28.0235
709 2 31.8629 39.574 28.1164
710 2 35.6062 39.7565 27.8714
711 2 -0.141767 4.07716 28.2375
712 2 4.05562 3.69479 28.0282
713 2 8.09156 3.89261 28.113
714 2 11.8346 3.72737 28.2803
715 2 16.0195 3.91052 28.1426
716 2 19.8262 3.79672 28.0981
717 2 23.7513 4.20434 27.9841
718 2 27.6969 3.84074 28.0761
719 2 31.7271 3.99088 28.0405
720 2 35.6962 4.1034 28.0753
721 2 0.0775955 7.85896 28.2061
722 2 4.09603 8.03426 28.0158
723 2 8.08099 7.79068 27.9754
724 2 12.0165 7.83803 28.2838
725 2 15.9887 8.02272 27.9718
726 2 20.0186 7.79198 27.677
727 2 23.9062 7.88757 28.0086
728 2 27.9014 7.82359 28.1443
729 2 31.7465 7.96495 28.202
730 2 35.8528 8.03677 28.0779
731 2 -0.0386931 11.8194 28.1676
732 2 3.90721 11.7804 28.0595
733 2 7.91321 11.9853 28.0357
734 2 11.7896 11.7861 28.323
735 2 15.7282 11.9682 28.1989
736 2 19.9546 11.8038 28.2711
737 2 23.9628 11.9367 28.186
738 2 27.8508 11.8473 28.223
739 2 31.9247 11.7458 28.0706
740 2 35.6632 12.0051 28.1557
741 2 -0.0199043 15.8248 28.1672
742 2 3.89422 15.7219 28.0722
743 2 7.81187 15.6646 28.1653
744 2 11.9362 15.7763 28.1981
745 2 15.825 15.6785 28.1562
746 2 19.6904 15.6643 27.9542
747 2 23.5669 15.8002 28.3048
748 2 27.8538 15.7016 28.1132
749 2 31.7743 15.708 28.217
750 2 35.722 15.9106 28.0947
751 2 0.172128 19.7434 28.0654
752 2 4.09303 19.8807 28.0797
753 2 8.06586 19.7622 27.8917
754 2 11.695 19.8282 28.227
755 2 15.7303 19.6402 28.0954
756 2 19.7475 19.6487 28.1582
757 2 23.8055 19.7306 28.1738
758 2 27.6685 19.7124 28.1718
759 2 31.8636 19.7662 28.2503
760 2 35.669 19.5175 28.1638
761 2 -0.0467874 23.9354 28.0054
762 2 3.93324 23.9417 28.1845
763 2 7.95978 23.8151 28.1425
764 2 11.7155 23.7091 28.0875
765 2 15.7987 23.5803 28.2161
766 2 19.8261 23.5493 28.1042
767 2 23.8829 23.6318 27.9043
768 2 27.7283 23.849 28.2356
769 2 31.7292 23.762 28.1488
770 2 35.7338 23.6765 28.2394
771 2 39.4766 27.7424 28.104
772 2 3.93513 27.816 28.1853
773 2 7.84407 27.8657 28.3429
774 2 11.9874 27.5244 28.2547
775 2 15.7156 27.6616 28.2312
776 2 19.8988 27.623 28.1642
777 2 23.6349 27.6863 28.1011
778 2 27.7604 27.9574 28.1688
779 2 31.8303 27.6826 27.9845
780 2 35.7911 27.7182 27.9757
781 2 -0.000694143 31.8818 28.0221
782 2 4.00638 31.569 28.1551
783 2 7.84972 31.5094 28.2233
784 2 11.9948 31.5 27.8688
785 2 15.8735 31.6152 28.0602
786 2 19.8591 31.6108 27.9798
787 2 23.8038 31.6098 28.161
788 2 27.7338 31.7158 28.126
789 2 31.7271 31.6983 28.1975
790 2 35.7715 31.675 28.0533
791 2 -0.0171423 35.6612 28.1694
792 2 3.97189 35.4653 28.0029
793 2 7.9234 35.4303 28.162
794 2 11.8238 35.4919 28.2111
795 2 15.9612 35.6236 28.2041
796 2 19.8186 35.6141 28.2668
797 2 23.7689 35.7337 28.315
798 2 27.8942 35.516 28.0027
799 2 31.8689 35.7858 28.0462
800 2 35.8348 35.6128 27.9562
801 2 -0.0863925 39.5881 32.1412
802 2 3.81006 0.00573052 32.1727
803 2 7.91603 -0.0696244 32.1241
804 2 12.0832 39.6103 31.996
805 2 15.9138 -0.109544 32.2238
806 2 19.9442 0.00118384 32.1784
807 2 24.0238 39.4579 32.0162
808 2 27.9065 39.4809 32.2272
809 2 31.7879 39.7101 32.054
810 2 35.7202 39.5442 32.0138
811 2 -0.0407333 3.79263 32.0319
812 2 4.017 3.91986 31.8768
813 2 8.09993 3.77818 32.172
814 2 11.9668 4.07782 32.1985
815 2 15.978 3.89511 32.0203
816 2 19.8389 3.94788 32.0512
817 2 23.8602 3.89441 31.9536
818 2 27.8122 4.05782 31.9447
819 2 31.835 3.96719 32.0789
820 2 35.751 3.85224 32.0839
821 2 39.7462 7.66638 32.0324
822 2 3.96074 7.8656 31.9903
823 2 8.05179 7.80108 32.0826
824 2 11.851 7.77667 32.032
825 2 15.8102 7.85137 32.2457
826 2 19.9036 7.91919 31.9748
827 2 23.8989 7.82243 32.0998
828 2 27.7266 8.02286 32.0812
829 2 31.6223 7.95214 32.0094
830 2 35.7904 8.05112 32.1266
831 2 0.0220955 12.0079 31.9217
832 2 3.86624 11.8544 32.2737
833 2 7.84432 11.9619 31.9438
834 2 11.8584 11.7491 32.0563
835 2 15.857 11.8628 32.3576
836 2 20.0059 11.9512 31.9747
837 2 23.912 11.7576 32.1262
838 2 27.8871 11.8949 32.1188
839 2 31.7362 11.8213 32.11
840 2 35.8164 11.679 32.0881
841 2 -0.0656946 15.7195 32.3498
842 2 3.96781 15.8872 32.2043
843 2 7.8573 15.7415 32.1453
844 2 11.9432 15.6479 32.1148
845 2 15.8552 15.9702 32.0841
846 2 19.9064 15.8158 31.9972
847 2 23.8907 15.8292 32.2985
848 2 27.7298 15.821 32.0764
849 2 31.8521 15.7376 32.1851
850 2 35.8551 15.7969 32.07
851 2 0.220214 19.8464 32.1792
852 2 4.18758 19.8727 32.1317
853 2 7.99482 19.576 31.9252
854 2 11.9588 19.8938 32.1771
855 2 15.8894 19.8299 32.1446
856 2 19.9778 19.9704 32.0632
857 2 23.8685 19.662 32.0874
858 2 27.8645 19.7263 32.2121
859 2 31.8578 19.6263 32.1285
860 2 35.7587 19.8074 32.1681
861 2 0.151097 23.6965 31.9722
862 2 4.08873 23.9215 32.0947
863 2 7.76948 23.6364 32.0718
864 2 11.9533 23.4962 32.1754
865 2 16.0405 23.706 32.1556
866 2 19.9728 23.6428 32.2139
867 2 23.9586 23.8113 32.1288
868 2 27.7865 23.7464 32.1595
869 2 31.7225 23.8769 32.1553
870 2 35.7381 23.6187 32.2169
871 2 0.108953 27.6905 31.9596
872 2 4.20981 27.4678 32.1724
873 2 8.19416 27.64 32.1204
874 2 11.9178 27.5923 32.1107
875 2 15.949 27.6674 32.2026
876 2 19.8629 27.5365 32.0924
877 2 23.6862 27.6608 32.1686
878 2 27.6522 27.7576 32.0842
879 2 31.7383 27.8346 32.0071
880 2 35.7514 27.7057 32.1455
881 2 -0.0121392 31.812 31.9093
882 2 4.0662 31.4434 32.1557
883 2 7.92547 31.4436 32.3044
884 2 11.9691 31.547 32.298
885 2 16.0742 31.537 32.0862
886 2 19.774 31.5507 32.0203
887 2 23.5078 31.8532 32.0882
888 2 27.7835 31.5467 32.0175
889 2 31.8281 31.8245 32.019
890 2 35.5375 31.5621 32.0275
891 2 -0.0189167 35.7227 32.0964
892 2 3.9057 35.5874 31.9376
893 2 8.11971 35.6028 32.0277
894 2 11.9946 35.5162 31.9502
895 2 15.9725 35.8448 32.2355
896 2 19.7884 35.4398 31.9394
897 2 23.8272 35.5405 32.1053
898 2 27.8762 35.533 32.1336
899 2 31.7227 35.8353 32.141
900 2 35.7431 35.576 32.0805
901 2 0.166277 0.0820681 36.0838
902 2 4.03513 0.0144012 36.2875
903 2 8.0959 -0.131585 36.0901
904 2 12.0183 0.0474701 36.1197
905 2 15.7631 -0.0503042 35.9486
906 2 19.9347 -0.163736 36.1194
907 2 23.9839 39.6143 36.2025
908 2 27.8129 39.7807 36.0805
909 2 31.7002 -0.104118 36.1803
910 2 35.6747 0.110169 36.0438
911 2 0.115197 4.07304 35.9291
912 2 4.13154 4.0646 36.0697
913 2 8.04832 3.81978 35.9975
914 2 11.9859 3.93553 35.9688
915 2 16.1199 3.91465 36.0649
916 2 20.0476 3.90298 35.9996
917 2 24.1127 3.90635 35.9196
918 2 28.2345 4.02103 36.115
919 2 31.9337 4.06176 35.9274
920 2 35.5884 4.15713 36.1073
921 2 0.0903849 7.86619 36.164
922 2 4.13021 7.95983 36.0455
923 2 8.0476 7.9086 36.1224
924 2 11.955 7.90914 36.1132
925 2 15.9173 8.09965 36.1262
926 2 19.8402 7.98501 35.9266
927 2 23.9701 8.07419 36.0215
928 2 27.8588 7.74251 36.2074
929 2 31.959 7.93544 36.113
930 2 35.759 7.92632 36.1529
931 2 0.138131 11.8915 36.1019
932 2 4.10206 11.7851 36.211
933 2 7.92896 11.8742 35.759
934 2 11.9954 11.8343 36.2417
935 2 16.0705 11.8392 36.1536
936 2 19.9215 12.1198 36.1111
937 2 23.8531 11.9603 36.1511
938 2 27.6473 11.9005 35.9811
939 2 31.6377 11.8702 36.2207
940 2 35.5028 11.7427 36.0742
941 2 0.0405672 15.8691 36.2009
942 2 3.9986 15.9733 35.9626
943 2 7.97312 16.0635 36.1562
944 2 11.9892 15.812 36.1747
945 2 15.8341 15.8338 36.0004
946 2 19.6601 16.0198 36.0368
947 2 23.7746 15.8886 36.2005
948 2 27.7977 15.8066 36.1235
949 2 31.8359 15.911 36.145
950 2 35.7712 15.8767 36.0973
951 2 0.202112 19.6385 36.2378
952 2 3.94116 19.9934 36.1497
953 2 8.03877 19.6674 36.0903
954 2 12.0556 19.82 36.2414
955 2 15.6976 19.8716 35.9965
956 2 19.7938 19.8683 36.1146
957 2 23.7468 19.9014 36.0514
958 2 27.7836 19.8749 36.1585
959 2 31.814 19.5876 35.8064
960 2 35.5787 19.8467 36.124
961 2 -0.0143399 23.7877 36.0647
962 2 3.877 23.7085 36.0458
963 2 7.96239 23.7513 36.3473
964 2 12.0156 23.653 36.2662
965 2 15.9057 23.9409 35.9469
966 2 19.8855 23.825 36.1857
967 2 23.9466 23.8726 36.1105
968 2 27.9409 23.8106 35.9989
969 2 31.8202 23.9542 35.8251
970 2 35.7771 23.6996 36.1228
971 2 0.243227 27.7195 36.1294
972 2 4.02742 27.6581 36.2663
973 2 8.07482 27.7175 36.275
974 2 12.0592 27.6853 36.1632
975 2 16.0592 27.5813 36.0477
976 2 19.851 27.6911 36.0041
977 2 23.8876 27.7482 36.1718
978 2 27.8523 27.7763 35.8684
979 2 31.8641 27.8076 36.1099
980 2 35.6225 27.7986 36.0589
981 2 0.0483948 31.4799 35.9585
982 2 4.24195 31.6525 36.023
983 2 7.94142 31.7268 36.1626
984 2 11.9106 31.6564 36.1257
985 2 16.0356 31.7879 36.0415
986 2 19.991 31.732 36.0857
987 2 24.0139 31.6959 36.151
988 2 27.5404 31.7178 35.908
989 2 31.6263 31.8166 36.1209
990 2 35.8057 31.7801 35.8591
991 2 0.101868 35.6169 36.1468
992 2 4.19343 35.6988 35.8941
993 2 8.18025 35.6532 36.1938
994 2 11.9255 35.7164 36.0333