ITEM: TIMESTEP
42000
ITEM: NUMBER OF ATOMS
7500
ITEM: BOX BOUNDS xy xz yz pp pp pp
0.0000000000000000e+00 3.9579999999999998e+01 0.0000000000000000e+00
0.0000000000000000e+00 3.9579999999999998e+01 0.0000000000000000e+00
2.1849959706226940e-02 5.9678150040294014e+01 0.0000000000000000e+00
ITEM: ATOMS id type x y z
1 2 39.5693 39.6322 0.342733
2 2 3.66728 0.104415 0.178014
3 2 7.83132 0.0835174 0.410088
4 2 11.8412 0.15945 0.208993
5 2 15.6157 39.767 0.300986
6 2 19.6785 0.117318 0.224066
7 2 23.6874 0.22887 0.373682
8 2 27.548 39.7459 0.238044
9 2 31.5486 39.6406 0.322588
10 2 35.5213 39.5072 0.434919
11 2 39.5874 4.21092 0.0952497
12 2 4.00069 4.1619 0.249401
13 2 7.82938 3.80982 0.33606
14 2 11.7134 3.99639 0.249479
15 2 15.6445 4.1812 0.20619
16 2 19.6899 4.04536 0.275104
17 2 23.4525 4.02569 0.157316
18 2 27.5026 3.98142 0.148695
19 2 31.6724 3.99849 0.180367
20 2 35.5244 3.97823 0.167229
21 2 39.5405 8.09983 0.243335
22 2 3.89075 7.88708 0.293198
23 2 8.10823 7.9354 0.229318
24 2 11.7457 8.15011 59.7509
25 2 15.6109 8.12574 0.119159
26 2 19.695 8.01689 0.269812
27 2 23.7074 8.00504 0.146472
28 2 27.6685 8.00151 0.379793
29 2 31.5631 7.9461 0.309968
30 2 35.5571 7.93038 0.324325
31 2 39.3208 12.0512 0.396287
32 2 3.94328 12.079 0.18953
33 2 7.7819 12.1635 0.393688
34 2 11.6583 11.8963 -0.0132544
35 2 15.6533 12.0192 0.329097
36 2 19.8468 11.8965 0.370892
37 2 23.7704 11.9481 0.400127
38 2 27.871 12.0257 0.255512
39 2 31.49 12.0309 0.342591
40 2 35.5035 12.0267 0.368201
41 2 39.6038 15.9084 0.28364
42 2 3.80069 15.946 0.118228
43 2 7.82713 16.0372 0.192142
44 2 11.7962 16.113 0.2547
45 2 15.8115 15.8779 0.301691
46 2 19.6841 15.8603 0.160907
47 2 23.7529 15.8537 0.312879
48 2 27.5372 16.1263 0.39411
49 2 31.6643 15.9947 0.417077
50 2 35.7292 16.1376 0.394535
51 2 39.5646 19.7719 0.255412
52 2 3.83265 19.9331 0.270908
53 2 7.73054 20.0057 0.225324
54 2 11.7855 19.9278 0.344427
55 2 15.7744 19.8178 0.127878
56 2 19.6785 19.8735 0.393017
57 2 23.5841 19.9385 0.371774
58 2 27.7114 19.9732 0.326429
59 2 31.5823 19.9382 0.285864
60 2 35.8153 20.0021 0.119621
61 2 39.4868 23.7135 0.377486
62 2 3.99948 23.9378 0.145856
63 2 7.76125 23.7128 0.128867
64 2 11.7055 23.8362 0.101621
65 2 15.8583 23.7666 0.316251
66 2 19.8805 23.8811 0.244637
67 2 23.8331 23.8491 0.243457
68 2 27.8105 23.8814 0.264747
69 2 31.5332 24.0362 0.2218
70 2 35.7089 23.9876 0.28394
71 2 39.6299 27.6605 0.489553
72 2 3.77901 27.8471 0.113682
73 2 7.96571 27.747 0.335773
74 2 11.7292 27.7426 0.261055
75 2 15.7129 27.6725 0.331406
76 2 19.6074 27.8355 0.222548
77 2 23.6503 27.7745 0.318798
78 2 27.6781 28.0089 0.116747
79 2 31.6362 28.0411 0.313676
80 2 35.5711 27.8776 0.212956
81 2 39.4792 31.6885 0.222944
82 2 3.90651 31.6922 0.373293
83 2 7.68569 31.6076 0.0610026
84 2 11.8172 31.594 0.250187
85 2 15.5713 31.7873 0.145525
86 2 19.5114 31.7691 0.178653
87 2 23.4186 31.8111 0.0739822
88 2 27.5667 31.9193 0.351217
89 2 31.6151 31.8047 0.421527
90 2 35.509 31.7862 0.308768
91 2 39.4606 35.6114 0.457585
92 2 3.95786 35.5824 0.19944
93 2 7.87607 35.6522 0.413778
94 2 11.7388 35.6713 0.494263
95 2 15.6837 35.7022 0.303164
96 2 19.6134 35.6854 0.226974
97 2 23.7704 35.9389 0.0561852
98 2 27.5711 35.6812 0.297552
99 2 31.5404 35.6607 0.267593
100 2 35.4921 35.8745 0.341375
101 2 39.4785 0.238023 4.27389
102 2 3.76788 39.6879 4.30567
103 2 7.61563 0.168272 4.3384
104 2 11.7192 0.0519666 4.33568
105 2 15.6348 0.153345 4.14812
106 2 19.6293 39.5762 4.05782
107 2 23.5068 39.6466 4.13045
108 2 27.6242 39.8114 4.21939
109 2 31.4191 0.0574889 4.17298
110 2 35.5647 39.7232 4.42551
111 2 39.4699 3.91338 4.24005
112 2 3.83485 4.09871 4.34362
113 2 7.73265 4.10509 4.40149
114 2 11.7869 4.21184 4.2662
115 2 15.5049 4.10333 4.37811
116 2 19.5724 4.07265 4.3644
117 2 23.6561 4.07683 4.25618
118 2 27.6322 4.08057 4.23518
119 2 31.5606 4.14886 4.02941
120 2 35.3127 4.02089 4.08135
121 2 -0.00178242 7.90481 3.96636
122 2 3.94841 8.04211 4.21672
123 2 7.73371 7.89194 4.26708
124 2 11.5775 8.0072 4.35969
125 2 15.6417 8.02546 4.11761
126 2 19.6201 8.05652 4.25076
127 2 23.5703 7.9509 4.09942
128 2 27.4458 8.02564 4.19126
129 2 31.5475 8.05213 4.34303
130 2 35.6094 7.92521 4.33545
131 2 39.4778 11.8268 4.20159
132 2 3.83418 11.7255 4.17306
133 2 7.77672 11.9669 4.33564
134 2 11.8826 11.9738 4.3704
135 2 15.6266 12.1392 4.1916
136 2 19.5382 12.0306 4.21524
137 2 23.479 12.0515 4.27443
138 2 27.4358 12.1737 4.15108
139 2 31.5395 11.9183 4.24548
140 2 35.4849 11.9939 4.34812
141 2 39.3181 15.976 4.20318
142 2 3.66144 15.7808 4.29335
143 2 7.63752 15.8159 4.16956
144 2 11.6138 16.0071 4.2956
145 2 15.7254 15.9144 4.24076
146 2 19.7902 15.9363 4.10711
147 2 23.7569 15.8995 4.21177
148 2 27.798 15.921 4.29398
149 2 31.8346 16.0974 4.24538
150 2 35.6097 16.0866 4.33979
151 2 -0.192486 19.8859 4.33445
152 2 3.85233 19.7413 4.41697
153 2 7.74521 19.9 4.37465
154 2 11.7479 19.7641 4.27048
155 2 15.7788 19.8291 4.07281
156 2 19.7876 19.7943 4.45095
157 2 23.644 19.9333 4.38471
158 2 27.4939 19.7199 4.30885
159 2 31.5928 20.128 4.42966
160 2 35.5001 20.1061 4.28941
161 2 39.5646 23.7867 4.32796
162 2 3.84568 23.8404 4.15097
163 2 7.95891 23.7865 4.19155
164 2 11.7465 23.7489 4.0592
165 2 15.8601 23.7436 4.2519
166 2 19.7882 23.8893 4.39233
167 2 23.845 23.8598 4.13716
168 2 27.6309 23.9493 4.33807
169 2 31.4424 23.9014 4.23173
170 2 35.4942 23.9613 4.23726
171 2 39.485 27.7831 4.14254
172 2 3.66541 27.8608 4.1157
173 2 7.93654 27.642 4.38354
174 2 11.7174 28.1098 4.32322
175 2 15.7304 27.7522 4.32051
176 2 19.713 27.9 4.20814
177 2 23.6006 27.7854 4.31004
178 2 27.2904 27.9806 4.25016
179 2 31.3453 27.9687 4.1238
180 2 35.605 27.6646 4.43574
181 2 -0.00504512 31.5565 4.20047
182 2 3.87525 31.7073 4.30654
183 2 7.88665 31.749 4.43145
184 2 11.8449 31.9988 4.37398
185 2 15.737 31.9749 4.19118
186 2 19.6297 31.6885 4.25829
187 2 23.6818 31.8131 4.31807
188 2 27.2924 31.828 4.25848
189 2 31.4313 31.8268 4.39493
190 2 35.4025 31.8498 4.3753
191 2 -0.224649 35.6274 4.18749
192 2 3.89449 35.8503 4.4665
193 2 7.80782 35.8295 4.30419
194 2 11.7095 35.7745 4.16812
195 2 15.7958 35.802 4.43946
196 2 19.629 35.6476 4.16837
197 2 23.4777 35.6892 4.30574
198 2 27.5318 35.8154 4.24324
199 2 31.376 35.7037 4.20336
200 2 35.5976 35.6729 4.45071
201 2 39.5488 39.5342 8.07285
202 2 3.8448 39.5414 8.25063
203 2 7.71035 39.7797 8.42489
204 2 11.5411 0.272506 8.16571
205 2 15.832 0.0207188 8.20116
206 2 19.7709 39.8275 8.02532
207 2 23.8059 39.6219 8.24188
208 2 27.7091 0.147872 8.41528
209 2 31.4952 39.5218 8.28817
210 2 35.495 39.5938 8.17002
211 2 39.3909 3.80912 8.18905
212 2 3.84365 4.02547 8.35043
213 2 8.00362 3.90509 8.29495
214 2 12.0063 4.12422 8.43607
215 2 15.53 3.90568 8.2813
216 2 19.6093 3.96246 8.20937
217 2 23.6307 4.0816 8.11689
218 2 27.4733 4.0482 8.36974
219 2 31.5724 4.16465 8.10103
220 2 35.2332 4.09772 8.26343
221 2 39.4693 7.82345 8.22562
222 2 3.88335 8.04284 8.43716
223 2 7.9012 7.92132 8.47734
224 2 11.7219 8.16207 8.28947
225 2 15.705 8.13968 8.41794
226 2 19.5173 7.99961 8.20274
227 2 23.6031 7.97615 8.25688
228 2 27.5372 8.07035 8.05038
229 2 31.3109 7.99 8.18737
230 2 35.6097 7.94799 8.24062
231 2 39.4599 11.602 8.27794
232 2 3.92393 11.865 8.44011
233 2 7.76818 11.9756 8.19975
234 2 11.7906 11.905 8.18785
235 2 15.7517 11.9633 8.14869
236 2 19.5463 11.6874 8.41089
237 2 23.375 11.876 8.10091
238 2 27.5815 12.1445 8.23056
239 2 31.5263 11.7912 8.08417
240 2 35.3999 11.8289 8.24672
241 2 39.4493 15.7131 8.2741
242 2 3.81613 15.7711 8.31187
243 2 7.86978 15.8712 8.04226
244 2 11.6987 15.9914 8.1685
245 2 15.5882 15.9692 8.12189
246 2 19.609 16.0197 8.29388
247 2 23.4303 15.8476 8.23265
248 2 27.5648 15.8333 8.26064
249 2 31.4301 15.7432 8.07595
250 2 35.4134 15.757 8.2575
251 2 39.4037 19.6763 8.31785
252 2 3.76579 19.8102 8.36311
253 2 7.61776 19.8695 8.29069
254 2 11.6165 19.8375 8.25362
255 2 15.56 19.8459 8.15477
256 2 19.6774 19.9693 8.18188
257 2 23.8104 19.8402 8.37616
258 2 27.4136 19.7707 8.288
259 2 31.3936 19.8585 8.39438
260 2 35.4084 19.8669 8.3409
261 2 39.5816 23.7904 8.51917
262 2 3.74023 23.7374 8.29157
263 2 7.86106 23.836 8.1839
264 2 11.695 23.7499 7.92271
265 2 15.6647 23.7878 8.1877
266 2 19.4672 23.7935 8.13082
267 2 23.5092 23.918 8.17392
268 2 27.5594 23.7082 8.40166
269 2 31.4845 23.7413 8.08993
270 2 35.5659 23.6953 8.12777
271 2 -0.212205 27.8042 8.16556
272 2 4.10111 27.6729 8.08972
273 2 7.76791 27.7114 8.16507
274 2 11.8232 27.6597 8.21456
275 2 15.6933 27.7792 8.27638
276 2 19.52 27.801 8.18465
277 2 23.6507 27.8398 8.37918
278 2 27.3565 27.7648 8.21194
279 2 31.3696 27.727 8.13576
280 2 35.56 27.5979 8.14555
281 2 -0.156468 31.7767 8.40588
282 2 3.78768 31.5265 8.25767
283 2 7.66979 31.5103 8.09421
284 2 11.5143 31.7117 8.18405
285 2 15.6482 31.567 8.1612
286 2 19.7178 31.7932 8.21278
287 2 23.4965 31.7369 8.23909
288 2 27.6605 31.9298 8.26881
289 2 31.6116 31.7837 8.19276
290 2 35.4439 31.9308 8.0988
291 2 39.3442 35.7224 8.06149
292 2 3.74131 35.5484 8.13359
293 2 7.70682 35.521 8.18082
294 2 11.6356 35.6191 8.18273
295 2 15.6311 35.7786 8.28157
296 2 19.5824 35.6784 8.16386
297 2 23.6727 35.8774 8.3211
298 2 27.6255 35.8137 8.42725
299 2 31.4386 35.8586 8.25398
300 2 35.4383 35.8691 8.32063
301 2 39.4864 39.5623 12.2008
302 2 3.69476 39.6427 12.3771
303 2 7.72799 39.5267 12.091
304 2 11.7399 39.64 12.2692
305 2 15.5781 39.6063 12.1437
306 2 19.5782 0.0773032 12.0738
307 2 23.7555 -0.0226779 12.3132
308 2 27.6702 -0.0691303 12.2644
309 2 31.5388 0.114785 12.4459
310 2 35.469 39.5576 12.2156
311 2 39.4935 3.79704 12.1243
312 2 3.78563 4.04815 12.3201
313 2 7.71384 4.05642 12.16
314 2 11.7705 3.98897 12.3315
315 2 15.5257 3.98044 12.1732
316 2 19.6728 3.90111 12.2116
317 2 23.6568 3.93775 12.247
318 2 27.559 3.97063 12.1986
319 2 31.543 3.77954 12.354
320 2 35.5421 3.90308 12.391
321 2 39.3403 7.95005 12.0982
322 2 3.82068 7.8798 12.2977
323 2 7.90489 7.97137 12.2732
324 2 11.6584 7.91906 12.346
325 2 15.9125 7.82738 12.2268
326 2 19.5756 7.99667 12.296
327 2 23.5229 7.89985 12.0107
328 2 27.535 7.85583 12.3034
329 2 31.418 7.85329 12.2416
330 2 35.5385 7.77743 12.1556
331 2 39.556 11.8928 12.3633
332 2 3.67256 11.7872 12.2907
333 2 7.89109 11.6657 12.361
334 2 11.5043 12.1531 12.1289
335 2 15.5131 11.9141 12.1016
336 2 19.7235 11.9597 12.2319
337 2 23.5962 11.9455 12.1578
338 2 27.5397 11.8147 12.2166
339 2 31.5199 11.5454 12.3315
340 2 35.4406 11.8086 12.1161
341 2 39.5606 15.7539 12.2825
342 2 3.8442 15.6306 12.3218
343 2 7.79734 15.8752 12.2758
344 2 11.7654 15.8906 12.2355
345 2 15.7936 15.6343 12.2351
346 2 19.4869 15.9514 12.1196
347 2 23.5082 15.8441 12.2108
348 2 27.3835 15.6293 12.2157
349 2 31.469 15.6313 12.0652
350 2 35.5092 15.7312 12.222
351 2 -0.033209 19.6029 12.0221
352 2 3.87076 19.7301 12.2878
353 2 7.7401 19.877 12.2616
354 2 11.5575 19.8382 12.2644
355 2 15.591 19.6849 12.259
356 2 19.7353 19.7073 12.1872
357 2 23.693 19.8478 12.2913
358 2 27.7138 19.7175 12.2569
359 2 31.6914 19.6637 12.389
360 2 35.5094 19.6133 11.9782
361 2 -0.15998 23.8148 12.3059
362 2 3.73025 23.663 12.3022
363 2 7.60799 23.62 12.0997
364 2 11.6324 23.6875 12.2401
365 2 15.6436 23.801 12.139
366 2 19.4804 23.8526 12.021
367 2 23.4311 23.4897 12.1006
368 2 27.5894 23.7725 12.272
369 2 31.1396 23.8609 12.3244
370 2 35.3517 23.7906 12.1511
371 2 39.3341 27.6999 12.1566
372 2 3.85535 27.5607 12.234
373 2 7.88083 27.6033 12.133
374 2 11.7565 27.5414 12.0578
375 2 15.7202 27.7311 12.2399
376 2 19.6363 27.863 12.0827
377 2 23.4466 27.6882 12.2521
378 2 27.3387 27.8505 12.191
379 2 31.6224 27.8098 12.1176
380 2 35.5194 27.9738 12.2477
381 2 -0.138074 31.5045 12.1986
382 2 3.82889 31.7159 12.1464
383 2 7.59147 31.7374 12.3203
384 2 11.7017 31.6916 12.3318
385 2 15.5695 31.648 12.1896
386 2 19.486 31.8544 12.101
387 2 23.4407 31.5566 12.2513
388 2 27.5774 31.5589 12.3305
389 2 31.6709 31.6632 12.1937
390 2 35.4716 31.8634 12.1757
391 2 39.4296 35.5926 12.2983
392 2 3.78866 35.7007 12.2132
393 2 7.6958 35.6124 12.1558
394 2 11.5583 35.6085 12.1078
395 2 15.7003 35.6183 12.2232
396 2 19.796 35.8328 12.3072
397 2 23.6702 35.5867 12.0237
398 2 27.6797 35.5402 12.2616
399 2 31.5198 35.5979 12.2408
400 2 35.52 35.5922 12.3633
401 2 -0.0607396 39.7046 16.3035
402 2 4.12696 39.5195 16.0972
403 2 8.06528 39.5208 15.9007
404 2 11.7383 0.118579 16.1801
405 2 15.9052 39.4924 16.2568
406 2 19.8496 39.5037 16.2277
407 2 23.7143 -0.0826013 16.1026
408 2 27.7295 39.5454 16.2612
409 2 31.501 39.5052 16.2473
410 2 35.4446 39.5199 16.2599
411 2 39.5872 4.11102 16.2731
412 2 3.86553 3.77013 16.0659
413 2 7.71184 3.99312 16.1525
414 2 11.8283 4.17184 16.288
415 2 15.7165 4.04923 16.2134
416 2 19.6342 3.69319 16.0147
417 2 23.6554 3.76287 16.1025
418 2 27.6379 3.87867 16.3021
419 2 31.5948 3.94943 16.1892
420 2 35.634 3.85813 16.1628
421 2 -0.209856 8.08259 16.346
422 2 3.87639 7.6509 16.2915
423 2 7.86612 7.91015 16.3555
424 2 11.8941 7.86465 16.1636
425 2 15.7613 8.024 16.2667
426 2 19.6447 7.95284 16.2618
427 2 23.5942 7.7791 16.1348
428 2 27.4686 7.78392 16.1905
429 2 31.7266 7.79585 16.2181
430 2 35.5255 7.84451 16.1866
431 2 39.3822 11.7474 16.3285
432 2 3.89435 11.6561 16.0937
433 2 7.8852 11.9003 16.3097
434 2 11.853 11.9882 16.3227
435 2 15.7986 11.8149 16.1095
436 2 19.6627 11.8542 16.0676
437 2 23.7046 11.7965 16.1813
438 2 27.5834 11.9037 16.2873
439 2 31.3748 11.9616 16.2512
440 2 35.6811 11.7346 16.1727
441 2 -0.143317 15.7746 16.2086
442 2 3.88193 15.7313 16.0843
443 2 7.67273 15.8873 16.3612
444 2 11.6517 15.8306 16.3219
445 2 15.7114 15.823 16.2715
446 2 19.7846 15.9594 16.3272
447 2 23.6203 15.741 16.1889
448 2 27.6693 15.8046 16.1378
449 2 31.5433 15.7329 16.1495
450 2 35.4351 15.654 16.2163
451 2 39.2698 19.6995 16.0921
452 2 3.69821 19.8382 16.1422
453 2 7.66168 19.9437 16.2821
454 2 11.7439 19.7443 16.1204
455 2 15.5749 19.7715 16.1615
456 2 19.8394 19.8383 16.0193
457 2 23.8516 19.8946 16.1172
458 2 27.5445 19.757 16.2134
459 2 31.6237 19.7077 16.2968
460 2 35.3603 19.7219 16.1456
461 2 39.3297 23.5934 16.3123
462 2 3.7008 23.6942 16.1011
463 2 7.78033 23.645 16.1667
464 2 11.8612 23.683 16.1417
465 2 15.6756 23.6045 16.0844
466 2 19.4922 23.6103 15.9912
467 2 23.6263 23.8636 16.2088
468 2 27.5029 23.7779 16.2877
469 2 31.396 23.6716 16.2328
470 2 35.3611 23.6559 15.9663
471 2 -0.202459 27.5798 16.1221
472 2 3.69293 27.6038 16.0535
473 2 7.78309 27.5775 16.2387
474 2 11.7677 27.6489 16.1815
475 2 15.7494 27.6951 16.0941
476 2 19.566 27.638 16.0653
477 2 23.727 27.5584 16.0655
478 2 27.5266 27.5556 16.1086
479 2 31.5523 27.5729 16.3507
480 2 35.3838 27.5762 16.1849
481 2 -0.0864667 31.4965 16.2752
482 2 3.79581 31.713 16.3239
483 2 7.7192 31.5876 16.174
484 2 11.6621 31.6241 16.1581
485 2 15.5728 31.6443 16.1979
486 2 19.5264 31.4791 16.1064
487 2 23.5602 31.6127 16.3408
488 2 27.5796 31.6302 16.0692
489 2 31.5346 31.5219 16.1264
490 2 35.6938 31.6275 16.1657
491 2 0.131868 35.8154 16.1459
492 2 3.90935 35.3626 16.1202
493 2 7.97272 35.5313 16.2146
494 2 11.8453 35.5772 16.1916
495 2 15.7941 35.7783 16.2149
496 2 19.9566 35.6471 16.0164
497 2 23.6235 35.6078 16.4349
498 2 27.3892 35.5749 16.1588
499 2 31.5797 35.7007 16.4609
500 2 35.6731 35.5413 16.3374
501 2 0.165768 39.2583 20.0817
502 2 4.14838 39.4882 20.1069
503 2 7.86503 39.6794 20.0035
504 2 11.7204 39.559 20.0808
505 2 15.6676 39.4586 20.1286
506 2 19.6842 39.36 20.1792
507 2 23.601 39.2873 20.3129
508 2 27.5503 39.6843 20.0917
509 2 31.6806 39.5676 20.192
510 2 35.7082 39.3701 20.201
511 2 -0.138905 3.95809 20.1997
512 2 3.85115 3.75359 20.3913
513 2 7.74572 3.84257 20.3452
514 2 11.8062 3.8242 20.3281
515 2 15.818 3.91256 20.1284
516 2 19.8787 3.74473 20.0269
517 2 23.5897 3.97465 20.2746
518 2 27.7084 3.82428 20.0115
519 2 31.7287 3.78219 20.3214
520 2 35.7176 3.75293 20.2054
521 2 0.143305 7.79543 20.2583
522 2 4.0462 7.76724 20.2301
523 2 8.03456 7.86972 20.2721
524 2 11.9536 7.77551 20.1809
525 2 15.7175 7.78213 20.116
526 2 19.432 7.7234 20.1793
527 2 23.4907 7.97717 20.1924
528 2 27.5648 7.74728 19.9835
529 2 31.5156 7.91429 20.1757
530 2 35.4804 7.96566 20.269
531 2 0.0682655 11.9023 20.1017
532 2 4.09191 11.7777 20.1827
533 2 8.0023 11.7875 20.2557
534 2 11.8581 11.9191 20.1954
535 2 15.9501 11.8558 20.0391
536 2 19.7228 11.8895 20.1535
537 2 23.6587 11.8529 20.0701
538 2 27.4749 11.5852 20.2345
539 2 31.5481 11.7151 20.3563
540 2 35.5747 11.7099 20.0159
541 2 0.161525 15.8252 20.0947
542 2 3.89581 15.9095 20.2936
543 2 7.87311 15.828 20.2849
544 2 11.8311 15.7677 20.0796
545 2 15.8777 15.6541 20.1957
546 2 19.728 15.8324 20.1862
547 2 23.6709 15.7098 20.2088
548 2 27.6624 16.0147 20.2683
549 2 31.6304 15.7077 20.044
550 2 35.7638 15.8623 20.0553
551 2 39.4105 19.8126 20.2496
552 2 3.84342 19.6627 20.0735
553 2 7.81144 19.8626 20.1532
554 2 11.6376 19.7191 20.311
555 2 15.8142 19.626 20.1648
556 2 19.948 19.8677 20.193
557 2 23.5556 19.8538 20.1787
558 2 27.8284 19.8269 20.1681
559 2 31.6596 19.6995 20.2913
560 2 35.636 19.8069 20.2666
561 2 39.4366 23.6147 20.1932
562 2 3.77884 23.5528 20.1985
563 2 7.74888 23.4034 19.993
564 2 11.8828 23.4536 20.1847
565 2 15.8974 23.6789 20.0354
566 2 19.6951 23.6351 20.2912
567 2 23.805 23.7177 20.1182
568 2 27.7963 23.7065 20.0835
569 2 31.5199 23.5507 20.2868
570 2 35.432 23.5971 20.13
571 2 39.4505 27.4198 20.1314
572 2 3.87034 27.6226 20.1296
573 2 7.87201 27.7396 20.1177
574 2 11.9238 27.6943 20.1226
575 2 15.8317 27.4109 19.9911
576 2 19.8401 27.8105 20.2362
577 2 23.7112 27.6538 20.2279
578 2 27.7042 27.7347 20.1083
579 2 31.6797 27.3948 20.021
580 2 35.5501 27.7055 20.0374
581 2 39.4353 31.6118 20.14
582 2 3.81188 31.5958 20.2204
583 2 7.7204 31.5979 20.1251
584 2 11.6024 31.6186 20.0539
585 2 15.7944 31.608 20.3486
586 2 19.7047 31.6324 20.0781
587 2 23.5641 31.4847 20.2692
588 2 27.6501 31.6421 20.2049
589 2 31.7432 31.4773 20.0724
590 2 35.6229 31.6105 20.1446
591 2 0.100504 35.5899 20.1391
592 2 4.09008 35.5825 20.1086
593 2 7.95225 35.6545 20.1938
594 2 11.7414 35.5987 20.3119
595 2 15.7074 35.4745 20.0921
596 2 19.5911 35.4523 20.0897
597 2 23.7337 35.3766 20.171
598 2 27.752 35.5094 20.1771
599 2 31.5732 35.5379 20.1354
600 2 35.6465 35.45 20.1845
601 2 -0.0833144 39.4031 24.0333
602 2 3.89708 39.6289 24.1048
603 2 7.84136 39.4291 24.1851
604 2 11.8095 -0.0907848 24.0439
605 2 15.8656 -0.178668 24.0109
606 2 19.7683 39.6599 24.134
607 2 23.6689 39.6607 24.242
608 2 27.8084 39.4335 24.2076
609 2 31.7914 39.4453 24.2032
610 2 35.6506 39.6106 24.2
611 2 39.5332 4.04294 24.1544
612 2 3.91628 3.94382 24.2622
613 2 7.97299 4.10065 24.0934
614 2 12.0324 3.73206 24.2409
615 2 15.8497 3.90373 24.09
616 2 19.7681 3.79425 23.9782
617 2 23.9231 3.73922 24.0407
618 2 27.7487 3.91812 24.0496
619 2 31.6337 3.92593 24.2914
620 2 35.6937 3.69297 23.9368
621 2 -0.041435 8.13416 24.1618
622 2 4.07652 7.80142 24.2138
623 2 8.02273 7.90346 24.1784
624 2 12.0524 7.85011 24.2014
625 2 15.8152 7.74112 24.2836
626 2 19.7708 7.77071 24.3504
627 2 23.7323 7.86572 24.1018
628 2 27.6502 7.92228 24.072
629 2 31.6846 7.55849 24.1114
630 2 35.6919 8.07148 24.1875
631 2 39.6676 11.7708 24.0753
632 2 4.0292 11.8385 24.0483
633 2 8.00727 11.8324 24.3139
634 2 11.9534 11.6761 24.3122
635 2 15.7702 11.7017 23.9959
636 2 19.8301 11.7839 24.2
637 2 23.8072 11.7269 24.0244
638 2 27.9346 11.8717 24.2615
639 2 31.6563 11.6936 24.1549
640 2 35.7575 11.661 24.1232
641 2 39.5705 15.8203 23.8692
642 2 3.80639 15.7397 24.1092
643 2 7.97463 15.7352 24.1285
644 2 12.0507 15.8507 24.1662
645 2 15.8008 15.7233 24.1735
646 2 19.7192 15.6591 24.1608
647 2 23.9459 15.707 24.1861
648 2 27.7493 15.5875 24.1348
649 2 31.7468 15.6543 24.098
650 2 35.5764 15.3675 24.1789
651 2 -0.0938994 19.6809 24.2486
652 2 4.0118 19.6671 24.1725
653 2 7.82823 19.6639 24.2808
654 2 11.9416 19.9802 24.0875
655 2 15.8827 19.6019 24.1479
656 2 19.9356 19.9065 24.1166
657 2 23.8949 19.8817 24.2222
658 2 27.6343 19.5668 23.9523
659 2 31.5726 19.5731 24.0934
660 2 35.6327 19.6354 24.2632
661 2 -0.0136666 23.6417 24.2325
662 2 3.65319 23.7598 24.2676
663 2 7.79308 23.7346 24.309
664 2 11.9134 23.7182 24.1526
665 2 15.8158 23.6579 24.0851
666 2 19.8009 23.7209 24.2739
667 2 23.7089 23.7157 24.1644
668 2 27.7559 23.6437 24.1695
669 2 31.5873 23.7688 24.3636
670 2 35.5332 23.7582 24.2124
671 2 39.4719 27.7636 24.1262
672 2 3.9119 27.5975 24.1022
673 2 7.93506 27.5188 23.9932
674 2 11.873 27.4937 24.1153
675 2 15.7125 27.6974 24.081
676 2 19.7836 27.5336 24.1254
677 2 24.0265 27.7305 24.0242
678 2 27.7643 27.8348 24.2712
679 2 31.5608 27.5471 24.1413
680 2 35.6726 27.6841 23.9303
681 2 -0.126083 31.5138 23.9876
682 2 4.00408 31.5544 24.0572
683 2 7.98183 31.5415 24.0843
684 2 11.9413 31.6445 24.015
685 2 15.9749 31.5653 24.1113
686 2 19.6759 31.6613 24.291
687 2 23.6283 31.6089 24.2361
688 2 27.7238 31.7549 23.8556
689 2 31.6593 31.5126 24.197
690 2 35.7045 31.5724 23.972
691 2 0.0573204 35.3419 23.9976
692 2 4.021 35.3827 24.1483
693 2 7.95747 35.5505 24.0958
694 2 11.9503 35.478 24.2484
695 2 15.8555 35.4981 24.1914
696 2 19.703 35.8069 24.1822
697 2 23.6063 35.6043 24.1967
698 2 27.7594 35.6629 24.0076
699 2 31.6857 35.612 24.1338
700 2 35.5632 35.4611 24.2278
701 2 0.202737 39.4546 27.9424
702 2 3.9 -0.352767 28.0511
703 2 7.76404 39.4809 28.0087
704 2 11.7437 39.4569 28.1436
705 2 15.7239 39.3713 28.1381
706 2 19.5731 39.4531 28.0476
707 2 23.8915 39.3898 27.981
708 2 27.6669 39.3332 28.1202
709 2 31.9097 39.524 28.0142
710 2 35.6786 39.6189 28.3311
711 2 0.0568265 3.89807 28.2359
712 2 4.09904 3.68494 28.028
713 2 7.96698 3.81037 28.2066
714 2 11.8807 3.70154 28.2413
715 2 15.8754 3.90568 28.0901
716 2 19.8135 3.79547 28.2047
717 2 23.7987 3.62808 28.0706
718 2 27.8217 3.78344 28.1316
719 2 31.6762 3.87486 28.132
720 2 35.6188 3.86987 28.1913
721 2 0.292353 7.88568 28.0909
722 2 4.04722 7.70572 28.0812
723 2 8.0017 7.84781 28.2216
724 2 11.7166 7.94192 28.0811
725 2 15.7857 7.76234 28.1114
726 2 20.1411 7.72009 28.1142
727 2 23.8345 7.69673 28.1197
728 2 27.5987 7.57188 28.0553
729 2 31.6786 7.71156 28.2338
730 2 35.8272 7.83 28.1958
731 2 0.0884765 11.7563 28.2804
732 2 4.0611 11.8327 28.2709
733 2 7.91569 11.8002 28.0562
734 2 11.9309 11.7221 28.1452
735 2 15.8041 11.7488 28.1828
736 2 19.9277 11.8804 27.9136
737 2 23.8057 11.7005 28.0138
738 2 27.6758 11.7859 28.1897
739 2 31.6607 11.7915 28.2153
740 2 35.7395 11.6644 28.1924
741 2 0.193129 15.6016 27.9845
742 2 3.84111 15.8712 28.0107
743 2 8.01254 15.812 28.3073
744 2 12.1423 15.8892 27.9763
745 2 15.893 15.7377 28.1581
746 2 19.9337 15.8699 28.0735
747 2 23.7193 15.6958 28.2067
748 2 27.6449 15.8614 28.1797
749 2 31.6719 15.7117 28.1223
750 2 35.6895 15.7227 28.0749
751 2 -0.145707 19.6621 28.3035
752 2 3.97829 19.723 28.2298
753 2 7.99922 19.8364 28.1541
754 2 11.8227 19.8456 28.1583
755 2 15.8148 19.6243 28.017
756 2 19.9051 19.7003 28.2625
757 2 23.7843 19.6701 28.0824
758 2 27.7393 19.6906 27.9906
759 2 31.4622 19.7443 28.0004
760 2 35.5056 19.5494 28.1695
761 2 -0.000686851 23.5069 28.0845
762 2 3.97723 23.4512 28.1696
763 2 8.06143 23.6394 28.0804
764 2 11.9376 23.6493 28.343
765 2 15.8877 23.6038 28.171
766 2 19.8555 23.8145 28.068
767 2 23.8495 23.7738 28.1566
768 2 27.8044 23.8467 28.1629
769 2 31.6377 23.5572 28.2523
770 2 35.5858 23.5501 28.1403
771 2 39.5955 27.6354 28.0825
772 2 3.79617 27.4207 28.0208
773 2 7.94789 27.4556 28.1471
774 2 11.9666 27.6876 28.0073
775 2 15.7385 27.6065 28.1443
776 2 19.7109 27.647 28.1158
777 2 23.7646 27.7579 28.1964
778 2 27.7701 27.7308 28.0998
779 2 31.8 27.4737 28.0898
780 2 35.6661 27.6883 28.1029
781 2 -0.00281963 31.4925 28.0598
782 2 4.02324 31.32 28.0718
783 2 7.72925 31.5325 28.1028
784 2 11.7834 31.4555 28.0053
785 2 15.7843 31.4463 28.0406
786 2 19.9773 31.5354 28.116
787 2 23.9767 31.6401 28.2493
788 2 27.9172 31.5655 27.9795
789 2 31.7843 31.6234 28.1819
790 2 35.6416 31.6078 28.1419
791 2 0.0251285 35.586 28.0419
792 2 3.94746 35.4221 28.0573
793 2 7.84376 35.519 28.0901
794 2 11.6632 35.4284 28.0603
795 2 15.767 35.5894 28.0861
796 2 19.8778 35.4853 28.1755
797 2 23.8491 35.3895 28.1714
798 2 27.7893 35.4102 27.9872
799 2 31.6596 35.405 28.0802
800 2 35.6337 35.3831 28.0669
801 2 0.0351043 39.5786 32.1757
802 2 3.82168 -0.321466 32.1784
803 2 7.87842 -0.15837 32.1791
804 2 11.9845 39.5279 32.1348
805 2 15.9287 -0.177741 31.9867
806 2 19.8063 -0.117227 31.8821
807 2 23.8196 39.6621 31.7502
808 2 27.9006 39.6576 32.2018
809 2 31.8577 39.606 32.1443
810 2 35.7577 39.3578 32.1934
811 2 0.0917697 4.12498 32.0807
812 2 4.01494 3.75164 32.2395
813 2 7.9362 3.79624 32.033
814 2 11.8676 3.71013 32.0245
815 2 15.9488 3.72562 32.105
816 2 19.7276 3.75261 32.1182
817 2 23.7736 3.8659 32.1217
818 2 27.7693 3.99163 32.2185
819 2 31.9049 3.84545 32.1708
820 2 35.7516 3.87476 32.2313
821 2 39.8394 7.85608 32.053
822 2 4.23606 7.94902 32.0651
823 2 8.00245 7.84269 31.9615
824 2 12.0058 7.57241 31.9657
825 2 15.9035 7.79276 32.054
826 2 19.7783 7.82461 31.9631
827 2 23.9283 7.85361 32.0668
828 2 27.858 8.03742 31.9942
829 2 31.7524 7.98319 32.1399
830 2 35.6737 7.79572 32.2933
831 2 -0.0505339 11.7729 32.2871
832 2 4.15842 11.7705 32.0681
833 2 7.91839 12.0933 32.1148
834 2 11.7932 11.6163 32.1635
835 2 15.949 11.7893 32.0268
836 2 19.8629 11.9104 32.0072
837 2 23.8851 11.6783 32.045
838 2 27.6534 11.8198 32.0027
839 2 31.5639 12.0567 32.0584
840 2 35.6967 11.8026 32.1005
841 2 0.0463574 15.745 32.0282
842 2 3.8015 15.739 32.1866
843 2 7.97665 15.9726 32.1535
844 2 11.9606 15.8091 31.9885
845 2 16.0612 15.8882 32.039
846 2 20.0481 15.8548 31.9887
847 2 23.8433 15.7984 31.9348
848 2 27.8466 15.8008 31.9708
849 2 31.875 15.7487 32.023
850 2 35.626 15.9607 32.1424
851 2 0.0400415 19.719 32.2024
852 2 4.00273 19.7489 32.0857
853 2 7.69601 19.6919 32.1708
854 2 11.7871 19.5947 32.0469
855 2 15.7672 19.8718 32.3524
856 2 19.7858 19.7032 32.2116
857 2 23.8438 19.899 32.1565
858 2 27.715 19.7477 32.1349
859 2 31.479 19.6389 32.0232
860 2 35.4697 19.8659 32.0173
861 2 -0.23089 23.491 32.0573
862 2 3.90823 23.6469 32.1628
863 2 8.01619 23.7131 32.133
864 2 12.0219 23.6302 32.2035
865 2 15.945 23.5147 32.2408
866 2 19.9159 23.6599 32.0301
867 2 23.7775 23.5421 32.0587
868 2 28.0169 23.4857 32.1662
869 2 31.7316 23.7017 32.1877
870 2 35.614 23.62 32.1323
871 2 -0.173152 27.4338 32.1592
872 2 3.88038 27.3876 31.9741
873 2 7.89526 27.6501 31.9223
874 2 12.1338 27.6298 32.1051
875 2 15.8601 27.4857 32.1846
876 2 19.7353 27.4707 31.9865
877 2 24.1269 27.6522 32.1799
878 2 27.8669 27.6873 32.1668
879 2 31.7517 27.5378 32.1821
880 2 35.6537 27.6305 32.1687
881 2 -0.0289901 31.541 32.0476
882 2 3.82921 31.3852 32.033
883 2 7.96078 31.4075 32.0681
884 2 12.1503 31.4012 31.9213
885 2 15.9535 31.6816 32.1039
886 2 19.9748 31.6092 32.1759
887 2 23.8246 31.4967 32.2746
888 2 27.9258 31.5351 31.8812
889 2 31.7798 31.464 32.2285
890 2 35.5567 31.4602 32.1567
891 2 0.0968517 35.4382 32.0851
892 2 3.95943 35.373 32.1287
893 2 8.03137 35.5772 32.0918
894 2 12.0981 35.4672 32.0268
895 2 15.7183 35.5263 32.1863
896 2 19.8482 35.6436 32.0459
897 2 23.9163 35.3916 32.0269
898 2 28.0012 35.797 31.963
899 2 31.931 35.5103 32.1562
900 2 35.6209 35.4827 32.1158
901 2 0.13484 -0.0501811 36.1158
902 2 3.96587 -0.140297 36.0964
903 2 7.98912 -0.284061 36.1332
904 2 12.0115 -0.0403307 36.1151
905 2 16.0824 -0.114401 35.9826
906 2 19.8452 -0.00329068 36.1351
907 2 23.9035 39.4785 35.677
908 2 27.7943 39.5858 36.2478
909 2 31.6994 0.060551 36.2589
910 2 35.8137 -0.225743 36.1453
911 2 0.0817444 3.88694 36.0802
912 2 4.22883 3.76843 36.1632
913 2 8.04844 3.86379 35.9091
914 2 12.0703 3.89961 35.8795
915 2 16.0097 3.89874 36.0842
916 2 19.8961 3.96911 35.9781
917 2 23.8184 4.02683 36.128
918 2 27.6551 3.76901 35.9749
919 2 31.8751 4.07986 36.2571
920 2 35.9673 3.75511 36.1113
921 2 0.116394 7.84038 36.2143
922 2 4.02972 8.03183 36.0805
923 2 8.00622 7.70683 36.183
924 2 11.8728 7.9012 36.0532
925 2 16.0074 7.72151 36.0172
926 2 19.8246 7.83043 35.8765
927 2 23.7321 7.76063 36.1043
928 2 27.7027 7.76403 36.0542
929 2 31.9169 7.88699 35.9848
930 2 35.7424 7.80046 36.1136
931 2 0.0465248 11.6382 36.1573
932 2 4.08315 11.8626 36.1586
933 2 7.88925 11.7967 36.1399
934 2 12.0023 11.6345 35.9678
935 2 15.8653 11.9315 35.9332
936 2 19.8831 11.7201 35.8976
937 2 23.8497 11.8287 35.9939
938 2 27.4703 11.7188 36.0418
939 2 31.5606 11.8834 35.9777
940 2 35.8248 11.6589 36.2892
941 2 0.168419 15.7439 36.2001
942 2 3.95765 15.7142 36.035
943 2 7.98046 15.6686 35.9683
944 2 12.0424 15.6518 36.1521
945 2 16.0968 16.072 36.1025
946 2 19.9059 15.7014 36.1881
947 2 24.0244 15.8457 35.9361
948 2 27.8949 15.9503 36.1991
949 2 31.8271 15.6438 36.1698
950 2 35.5594 15.7407 36.1098
951 2 0.236212 19.5353 35.9953
952 2 4.16426 19.8018 36.1295
953 2 8.11378 19.6256 36.2944
954 2 12.0004 19.6282 35.9883
955 2 16.0511 19.8365 36.106
956 2 20.0077 19.5925 36.1739
957 2 23.9754 19.613 36.1572
958 2 27.859 19.7909 36.3094
959 2 31.8522 19.6506 35.9334
960 2 35.7479 19.759 36.3499
961 2 0.156186 23.6614 36.0749
962 2 4.18371 23.7921 36.0888
963 2 8.07171 23.6272 36.0305
964 2 11.8817 23.6644 36.2115
965 2 16.02 23.7036 35.9525
966 2 20.066 23.668 36.0523
967 2 23.7392 23.9361 36.1519
968 2 27.8602 23.6719 36.1237
969 2 31.827 23.7305 36.1738
970 2 35.6639 23.6743 36.1238
971 2 -0.148851 27.6601 36.0676
972 2 3.99235 27.6337 36.121
973 2 8.1315 27.6592 35.8339
974 2 11.8692 27.585 36.1881
975 2 16.033 27.5204 36.1461
976 2 19.8775 27.5594 36.1537
977 2 23.6717 27.6701 36.2306
978 2 27.7401 27.588 36.1698
979 2 31.7468 27.8059 36.181
980 2 35.7647 27.7408 36.3263
981 2 0.124845 31.7072 35.9774
982 2 4.173 31.6265 35.9707
983 2 7.94355 31.6672 35.9952
984 2 12.1315 31.4807 36.1867
985 2 16.1244 31.6037 35.9696
986 2 19.9827 31.7319 35.9956
987 2 23.9577 31.651 36.1622
988 2 27.9621 31.7038 35.9577
989 2 31.7314 31.6572 36.1594
990 2 35.5426 31.6361 35.9112
991 2 0.209062 35.4576 36.2495
992 2 4.07565 35.4201 36.1556
993 2 8.16446 35.3223 35.9787
994 2 11.8236 35.4916 36.1422
995 2 16.1322 35.3932 36.0682