ITEM: TIMESTEP
47100
ITEM: NUMBER OF ATOMS
7500
ITEM: BOX BOUNDS xy xz yz pp pp pp
0.0000000000000000e+00 3.9579999999999998e+01 0.0000000000000000e+00
0.0000000000000000e+00 3.9579999999999998e+01 0.0000000000000000e+00
9.7686664543417123e-03 5.9690231333546365e+01 0.0000000000000000e+00
ITEM: ATOMS id type x y z
1 2 39.5932 39.4738 0.386436
2 2 3.98909 -0.261505 0.338479
3 2 7.79464 -0.138132 0.372905
4 2 12.0417 -0.186025 0.214355
5 2 15.9681 39.3788 0.213354
6 2 19.8908 -0.235375 0.307088
7 2 23.8128 -0.177463 0.316588
8 2 27.7986 39.4833 0.257276
9 2 31.8131 39.4155 0.167969
10 2 35.6923 39.4636 0.386282
11 2 39.7023 3.81755 0.276296
12 2 3.94836 3.83508 0.311357
13 2 8.0576 3.85935 0.321582
14 2 11.895 3.77031 0.148837
15 2 15.8818 3.74959 0.404136
16 2 19.7898 3.65819 0.164413
17 2 23.8506 3.83671 0.277289
18 2 27.6803 3.8659 0.383701
19 2 31.7248 3.76229 0.338051
20 2 35.6881 3.92221 0.0153141
21 2 39.6823 7.80268 0.470051
22 2 4.00865 7.67445 0.270744
23 2 8.06623 7.80108 0.230124
24 2 11.9254 7.97944 59.9626
25 2 16.0889 7.98423 0.192724
26 2 19.9178 7.7819 0.31288
27 2 23.802 7.8675 0.272503
28 2 28.0164 7.70061 0.0875789
29 2 31.6254 7.83694 0.426479
30 2 35.7113 7.93002 0.350369
31 2 39.8076 11.8122 0.211247
32 2 3.99933 11.6817 0.220348
33 2 7.94519 11.8094 0.31802
34 2 12.0383 11.8704 0.382631
35 2 16.0146 12.044 0.247695
36 2 19.9278 11.9185 0.323193
37 2 23.7812 11.6657 0.186468
38 2 27.6243 11.6411 0.187985
39 2 31.6537 11.8386 0.271441
40 2 35.5522 11.7428 0.414189
41 2 39.6531 15.7468 0.415278
42 2 3.87045 15.7297 0.491565
43 2 7.78886 15.7953 0.359273
44 2 11.9582 15.761 0.391142
45 2 16.0364 15.9227 0.155717
46 2 19.6701 15.7776 0.291412
47 2 23.8132 15.7076 0.296402
48 2 27.887 15.6317 0.164161
49 2 31.8889 15.7835 0.218781
50 2 35.8147 15.6219 0.390753
51 2 39.6659 19.4657 0.319626
52 2 3.98951 19.5497 0.411092
53 2 8.02241 19.6311 0.359627
54 2 12.0549 19.6329 0.22829
55 2 16.0782 19.606 0.239819
56 2 19.8842 19.6166 0.162674
57 2 23.8534 19.7824 0.261631
58 2 27.8738 19.8111 0.324288
59 2 31.7101 19.5372 0.268345
60 2 35.5234 19.8696 0.332525
61 2 39.5882 23.6254 0.395887
62 2 4.00077 23.5661 0.246734
63 2 7.97277 23.8831 0.466079
64 2 11.6918 23.5002 0.17151
65 2 15.7245 23.5776 0.159991
66 2 19.9043 23.7353 0.148445
67 2 23.9238 23.5641 0.299786
68 2 27.9124 23.8025 0.189169
69 2 31.7052 23.6406 0.19541
70 2 35.5498 23.7357 0.331978
71 2 39.6977 27.5386 0.222579
72 2 4.01189 27.4742 0.207358
73 2 8.00169 27.6003 0.24794
74 2 11.8672 27.4888 0.308482
75 2 15.8051 27.2723 0.118561
76 2 19.8333 27.6219 0.528008
77 2 23.8293 27.6059 0.199614
78 2 27.8778 27.4653 0.282751
79 2 31.6634 27.6672 0.369354
80 2 35.7166 27.6281 0.212692
81 2 39.708 31.4699 0.142343
82 2 4.0011 31.4231 0.169947
83 2 8.07886 31.6499 0.530381
84 2 12.0946 31.5367 0.463626
85 2 16.121 31.3789 0.221914
86 2 19.9279 31.6307 0.272397
87 2 23.8279 31.4506 0.284766
88 2 27.8263 31.4963 0.238575
89 2 31.777 31.6821 0.473151
90 2 35.6677 31.601 0.130928
91 2 39.4273 35.3561 0.398117
92 2 4.23101 35.4505 0.259477
93 2 8.05264 35.4443 0.284901
94 2 12.0489 35.4376 0.245216
95 2 16.0388 35.2652 0.201189
96 2 19.9234 35.3851 -0.100487
97 2 23.9986 35.2819 0.287336
98 2 27.8539 35.4679 0.303749
99 2 31.858 35.5894 0.320902
100 2 35.5332 35.4846 0.336794
101 2 39.6342 -0.264789 4.30424
102 2 4.06447 39.3141 4.2979
103 2 7.95071 0.0130914 4.29451
104 2 11.983 -0.0733266 4.41071
105 2 16.0314 -0.345393 4.17895
106 2 19.9681 39.4989 4.32149
107 2 23.8043 39.5794 4.16358
108 2 27.9377 39.5276 4.33372
109 2 31.8282 0.014369 4.2564
110 2 35.6905 39.376 4.19401
111 2 39.7796 3.89134 4.19879
112 2 4.1425 3.72994 4.12243
113 2 8.11777 4.02447 4.18996
114 2 12.0489 3.72842 4.30898
115 2 15.8987 3.81374 4.10795
116 2 19.9772 3.77555 4.24126
117 2 24.15 3.97634 4.23184
118 2 27.8689 3.90979 4.48606
119 2 31.8954 3.95029 4.39751
120 2 35.7716 3.87961 4.15339
121 2 -0.140008 7.74093 4.30246
122 2 4.07999 7.64148 4.40318
123 2 8.19782 7.85476 4.10711
124 2 12.0288 7.85768 4.25782
125 2 15.963 7.72915 4.40996
126 2 19.8818 7.73223 4.23003
127 2 23.6721 7.82033 4.29761
128 2 27.6529 7.78389 4.33535
129 2 31.6449 7.94279 4.31414
130 2 35.5407 7.62756 4.25212
131 2 39.6605 11.6872 4.15698
132 2 4.14478 11.765 4.14509
133 2 8.08949 11.9271 4.29281
134 2 11.8861 11.6712 4.35291
135 2 15.9504 11.7462 4.20306
136 2 19.9331 11.8715 4.36544
137 2 23.9275 11.8416 4.04887
138 2 27.7568 11.92 4.11605
139 2 31.7125 11.8421 4.29863
140 2 35.7175 11.7558 4.41406
141 2 39.5601 15.7795 4.30129
142 2 3.997 15.6451 4.21533
143 2 7.95187 15.7252 4.16039
144 2 11.9943 15.7427 4.31529
145 2 15.7602 15.9603 4.11781
146 2 19.9152 15.7175 4.13785
147 2 23.6751 15.665 4.2495
148 2 27.659 15.7481 4.26904
149 2 31.5673 15.6746 4.26124
150 2 35.6175 15.8114 4.37513
151 2 0.208026 19.7579 4.33765
152 2 4.15932 19.7213 4.41084
153 2 7.98306 19.7028 4.4991
154 2 12.0674 19.6874 4.15136
155 2 15.9194 19.8678 4.34514
156 2 19.9666 19.5984 4.23321
157 2 24.0178 19.6361 4.04677
158 2 27.9359 19.7765 4.12087
159 2 31.6531 19.7644 4.23491
160 2 35.8988 19.6329 4.36969
161 2 39.7069 23.5553 4.35926
162 2 3.89314 23.7893 4.29008
163 2 8.0191 23.7177 4.35664
164 2 11.9929 23.6229 4.17027
165 2 16.1821 23.7968 4.27429
166 2 19.8258 23.6533 4.18121
167 2 23.844 23.6217 4.32907
168 2 27.7719 23.618 4.23572
169 2 31.7516 23.6993 4.36328
170 2 35.5421 23.5135 4.2668
171 2 39.695 27.6115 4.20898
172 2 3.99302 27.5607 4.14344
173 2 7.76585 27.6923 4.33737
174 2 11.8834 27.783 4.30183
175 2 15.7579 27.5682 4.19993
176 2 19.9363 27.6203 4.37061
177 2 23.5688 27.5301 4.30193
178 2 27.8609 27.6816 4.43346
179 2 31.9346 27.4724 4.35689
180 2 35.7201 27.4299 4.35939
181 2 0.25571 31.668 4.3201
182 2 4.24012 31.5174 4.32817
183 2 8.02531 31.6392 4.43496
184 2 12.1199 31.5906 4.14298
185 2 15.7958 31.4391 4.24395
186 2 19.7215 31.4572 4.1481
187 2 23.9741 31.4636 4.27724
188 2 27.7918 31.6058 4.16485
189 2 31.9646 31.465 4.13813
190 2 35.9263 31.3833 4.26648
191 2 0.0893013 35.47 4.31049
192 2 3.88374 35.3146 4.06866
193 2 8.16867 35.5448 4.29453
194 2 12.2359 35.6429 4.18274
195 2 16.0347 35.61 4.00815
196 2 19.8379 35.4002 4.17228
197 2 23.8631 35.7045 4.23106
198 2 28.0655 35.5289 4.31586
199 2 31.7995 35.3925 4.36606
200 2 35.788 35.2692 4.3368
201 2 39.9302 39.5143 8.31972
202 2 4.12604 39.3781 8.31974
203 2 8.06179 39.5543 8.11708
204 2 12.1 0.119206 8.14823
205 2 16.0873 0.00524441 8.1958
206 2 19.9691 39.5372 8.03484
207 2 23.7698 39.5728 8.01634
208 2 27.8845 -0.0406873 8.11314
209 2 31.7759 39.4349 8.17671
210 2 35.6972 39.6436 8.10223
211 2 39.6477 3.89504 8.2267
212 2 4.22027 3.95648 8.15336
213 2 8.14375 3.92207 8.16409
214 2 11.9985 3.81248 8.20379
215 2 16.0836 3.94231 8.07802
216 2 20.0904 3.85755 7.99572
217 2 23.9062 3.92325 8.19438
218 2 27.9555 4.04442 8.45315
219 2 31.783 3.93274 8.2882
220 2 35.5669 3.86671 8.23765
221 2 39.4992 7.77893 8.05491
222 2 4.06658 7.93859 7.96917
223 2 8.18682 7.78377 8.23014
224 2 11.9338 7.65425 7.99725
225 2 16.0594 7.82451 8.13652
226 2 19.8515 7.66565 8.22173
227 2 23.7157 7.79135 8.33278
228 2 27.7553 7.85811 8.23459
229 2 31.76 8.00528 8.23564
230 2 35.7779 7.92375 8.26429
231 2 39.8155 11.7104 8.22295
232 2 4.04359 11.5503 8.21808
233 2 8.05793 11.9453 8.09034
234 2 11.9073 11.8314 8.35511
235 2 15.9425 11.8482 8.23835
236 2 19.6837 11.7699 8.15907
237 2 23.7466 11.8758 8.30077
238 2 27.7517 11.9787 8.27646
239 2 31.6129 11.9381 8.20575
240 2 35.6767 11.92 8.06459
241 2 39.9223 15.7201 8.05871
242 2 4.00248 15.6578 8.06319
243 2 8.01387 15.9269 8.23102
244 2 12.0363 15.6882 8.27196
245 2 16.1358 15.9544 8.23562
246 2 20.0448 15.7179 8.12291
247 2 23.8215 15.8958 8.19729
248 2 27.7119 15.7566 8.31322
249 2 31.8373 16.0177 8.22364
250 2 35.8267 15.8445 8.30522
251 2 39.8046 19.7767 8.3002
252 2 4.03396 19.6193 8.27706
253 2 8.12095 19.7529 8.22336
254 2 12.0722 19.7824 8.30707
255 2 15.9267 19.5381 8.09446
256 2 19.9484 19.8696 8.11378
257 2 23.9125 19.7329 8.17998
258 2 27.8278 19.7634 8.14374
259 2 31.8635 19.6389 8.29368
260 2 35.7689 19.7257 8.28147
261 2 39.6943 23.8513 8.29045
262 2 4.19685 23.7411 8.39553
263 2 7.92163 23.8116 8.2798
264 2 11.8799 23.7015 8.31929
265 2 16.0204 23.6778 8.22156
266 2 20.0408 23.4575 8.30375
267 2 23.7845 23.6771 8.20586
268 2 27.9242 23.7613 8.35183
269 2 31.6547 23.8507 8.3107
270 2 35.7935 23.4867 8.27187
271 2 0.0376107 27.7047 8.19024
272 2 3.83665 27.823 7.99166
273 2 8.12326 27.6415 8.2749
274 2 12.0291 27.6366 8.28188
275 2 16.0284 27.7345 8.28005
276 2 19.8597 27.7284 8.34454
277 2 23.8495 27.5509 8.35203
278 2 27.629 27.5274 8.11144
279 2 31.7459 27.7211 8.33285
280 2 35.5948 27.5345 8.39931
281 2 0.106114 31.5954 8.31671
282 2 4.14108 31.553 8.37811
283 2 8.15396 31.743 8.42609
284 2 12.2982 31.6796 8.23529
285 2 16.0036 31.6182 8.38314
286 2 19.7651 31.5665 8.29071
287 2 23.8907 31.722 8.18258
288 2 27.7804 31.4793 8.21224
289 2 31.7107 31.5265 8.34646
290 2 35.6713 31.525 8.25512
291 2 39.6379 35.6287 8.37505
292 2 4.15511 35.61 8.17805
293 2 7.99903 35.758 8.32577
294 2 12.066 35.5923 8.3933
295 2 16.0303 35.6101 8.25613
296 2 19.96 35.3625 8.19543
297 2 24.0396 35.511 8.09105
298 2 27.9906 35.6104 8.38612
299 2 31.8953 35.6039 8.18776
300 2 35.5571 35.8167 8.28107
301 2 39.6183 39.7905 12.204
302 2 4.10344 39.6287 12.1704
303 2 7.96763 39.8603 12.1791
304 2 12.0093 39.7692 12.2617
305 2 15.9775 39.7032 12.0949
306 2 20.0501 0.146032 12.0718
307 2 23.8679 -0.157064 12.2353
308 2 27.8034 0.18806 12.2463
309 2 31.7342 0.0269756 12.4346
310 2 35.7496 39.723 12.1697
311 2 39.9224 4.12143 12.2011
312 2 4.28961 4.20103 12.0613
313 2 8.23206 4.10359 12.2585
314 2 12.1573 3.93975 12.2922
315 2 15.7888 4.0485 12.1794
316 2 19.9304 3.98859 12.1377
317 2 23.753 3.83182 12.1825
318 2 27.9692 4.01743 12.3099
319 2 31.8418 4.06492 12.167
320 2 35.7032 4.14874 12.2881
321 2 39.7553 7.80647 12.2239
322 2 4.08303 8.0916 12.1774
323 2 8.28188 7.95784 12.165
324 2 12.1365 8.00278 12.2265
325 2 15.7893 7.95247 12.334
326 2 19.7317 7.97215 12.3609
327 2 23.6649 8.09676 12.2566
328 2 27.8322 7.81978 12.3021
329 2 31.713 8.13472 12.1434
330 2 35.743 7.97239 12.1255
331 2 39.8056 11.7005 12.1178
332 2 4.01492 11.9664 12.3718
333 2 8.1434 11.89 12.2161
334 2 12.0245 11.947 12.1535
335 2 16.0936 11.7964 12.1799
336 2 19.7715 11.918 12.2317
337 2 23.6935 11.9449 12.1143
338 2 27.574 11.8711 12.2843
339 2 31.601 11.9818 12.2933
340 2 35.8088 12.1795 11.9808
341 2 39.6968 15.5729 12.1866
342 2 3.93994 15.792 12.2849
343 2 7.9074 15.5454 12.1497
344 2 12.1437 15.938 12.2854
345 2 16.0662 15.9627 12.3514
346 2 20.0044 15.7802 12.2564
347 2 23.7026 15.8398 12.1769
348 2 27.6889 15.7503 12.1478
349 2 31.7721 15.6545 12.3049
350 2 35.6936 16.012 12.2026
351 2 0.0223161 19.8198 12.3378
352 2 3.90248 19.7226 12.285
353 2 7.9278 19.5505 12.3557
354 2 11.981 19.7834 12.186
355 2 15.8894 19.7897 12.2781
356 2 19.688 19.8123 12.1516
357 2 23.7732 19.9027 12.165
358 2 27.7259 19.9459 12.2847
359 2 31.8654 19.8071 12.123
360 2 35.9151 19.8624 12.3491
361 2 0.162051 23.8384 12.1683
362 2 3.9556 23.7594 12.0665
363 2 7.76763 23.6492 11.9725
364 2 12.0108 23.711 12.2687
365 2 15.997 23.8808 12.1503
366 2 19.8476 23.6628 12.0514
367 2 23.7794 23.8659 12.2967
368 2 27.7435 23.6758 12.2938
369 2 31.6808 23.6545 12.0234
370 2 35.6597 23.682 12.4051
371 2 39.8077 27.7541 12.3387
372 2 4.22483 27.8904 12.2259
373 2 7.97832 27.9923 12.0613
374 2 11.9183 27.5159 12.1821
375 2 15.9498 27.4879 12.2377
376 2 19.8055 27.6854 12.3311
377 2 23.8868 27.7326 12.0766
378 2 27.6838 27.7692 11.9315
379 2 31.7414 27.7897 12.1432
380 2 35.6806 27.5759 12.2959
381 2 0.0904846 31.7465 12.2902
382 2 4.22381 31.7089 12.177
383 2 7.98253 31.765 12.1847
384 2 11.8166 31.6712 12.3906
385 2 15.8808 31.779 12.2862
386 2 19.9945 31.5792 12.2836
387 2 23.7907 31.7818 12.2896
388 2 27.7843 31.6228 12.2606
389 2 31.863 31.6725 12.2467
390 2 35.861 31.4852 12.2613
391 2 39.7565 35.9219 12.1195
392 2 4.09342 35.665 12.3559
393 2 8.04329 35.6922 12.3281
394 2 12.044 35.6367 12.1107
395 2 15.9703 35.645 12.2027
396 2 19.8895 35.6369 12.1958
397 2 23.7072 35.4071 12.1794
398 2 27.8105 35.765 12.0888
399 2 31.598 35.7502 12.3401
400 2 35.8393 35.3653 12.1687
401 2 0.0569122 39.7515 16.4367
402 2 4.03123 39.6467 16.21
403 2 8.14898 39.6051 16.3099
404 2 11.9733 0.091349 16.265
405 2 16.0229 39.6184 16.0456
406 2 19.982 39.6101 16.0151
407 2 23.7158 -0.0538783 16.1929
408 2 27.678 39.6049 16.2391
409 2 31.7593 39.809 16.1047
410 2 35.8682 39.7771 16.2505
411 2 39.5601 4.12974 16.2632
412 2 4.02527 4.27108 16.0477
413 2 8.02486 4.18452 16.063
414 2 11.8479 4.01414 16.342
415 2 16.0685 3.97884 16.2519
416 2 19.7285 4.11594 16.2368
417 2 23.9086 3.88206 16.09
418 2 27.6806 4.03459 16.2049
419 2 31.6436 4.15179 16.1088
420 2 35.6868 4.25695 16.2225
421 2 -0.000645002 8.1642 16.13
422 2 4.06311 8.29109 16.2165
423 2 8.01109 8.02986 16.112
424 2 12.2437 7.94215 16.3126
425 2 15.9242 8.0405 16.3747
426 2 19.817 7.96218 16.1935
427 2 23.756 8.16212 16.2868
428 2 27.765 7.92386 16.2449
429 2 31.6812 8.16337 16.0596
430 2 35.6496 8.15807 16.0394
431 2 39.5842 11.7964 16.0239
432 2 3.83172 12.0766 16.3962
433 2 7.99875 12.0966 16.2996
434 2 11.9474 12.1618 16.22
435 2 15.7934 12.0792 16.3322
436 2 19.973 11.9465 16.3755
437 2 23.8329 11.9468 16.2621
438 2 27.7869 11.9869 16.1792
439 2 31.7983 12.048 16.2536
440 2 35.559 11.913 15.9927
441 2 -0.0325618 15.6052 16.3614
442 2 4.03331 15.7783 16.1544
443 2 8.05286 15.8515 16.1645
444 2 11.92 16.063 16.0999
445 2 15.9388 15.9093 16.3069
446 2 19.9238 16.0239 16.2894
447 2 23.7532 16.0632 16.348
448 2 27.6203 15.8591 16.208
449 2 31.7623 15.8636 16.3143
450 2 35.6902 15.9399 16.2399
451 2 39.8396 19.7865 16.3659
452 2 4.17345 19.7995 16.3252
453 2 8.1578 19.9218 16.165
454 2 11.9691 19.6782 16.3574
455 2 15.9302 20.0551 16.1842
456 2 19.924 19.9561 16.1691
457 2 23.8571 19.8284 16.2836
458 2 27.9738 20.0056 16.0695
459 2 32.1343 19.8933 16.207
460 2 35.7378 19.9981 16.2285
461 2 39.6359 23.9444 16.1132
462 2 3.80001 23.8266 16.2499
463 2 8.06942 24.0895 16.1049
464 2 11.7549 23.5905 16.1299
465 2 15.8758 23.8738 16.0469
466 2 19.6252 23.9237 16.0719
467 2 23.901 24.0341 15.9125
468 2 27.8543 23.8617 16.3029
469 2 31.6816 23.9773 16.0419
470 2 35.7151 23.6934 16.3414
471 2 0.214389 27.8534 16.1804
472 2 3.95267 27.8413 16.1032
473 2 7.96886 27.8031 16.2906
474 2 11.951 27.6706 16.094
475 2 15.7073 27.5151 16.2483
476 2 19.8354 27.8368 16.175
477 2 23.8793 27.9308 16.1894
478 2 27.8643 27.835 15.7975
479 2 31.6453 27.7181 16.1517
480 2 35.7527 27.6589 16.094
481 2 0.110035 31.866 16.2924
482 2 3.84065 31.9258 16.0003
483 2 7.79155 31.5826 16.3984
484 2 11.9849 31.4782 16.2141
485 2 16.0752 31.743 16.1631
486 2 19.8953 31.8112 16.2535
487 2 23.689 31.6956 16.2074
488 2 27.7559 31.6755 16.2801
489 2 31.7264 31.7568 16.2741
490 2 35.7585 31.7964 16.2955
491 2 -0.0725892 35.9015 16.0949
492 2 4.01109 35.8129 16.1264
493 2 7.97723 35.8039 16.1664
494 2 12.0308 35.7662 16.2097
495 2 15.8933 35.7689 16.0868
496 2 19.69 35.8972 16.071
497 2 23.725 35.8942 16.0999
498 2 27.7738 35.5467 16.193
499 2 31.6431 35.7161 16.2263
500 2 35.5522 35.7125 16.1468
501 2 0.281491 39.852 19.9915
502 2 4.05032 39.9424 20.1227
503 2 7.90332 39.8617 20.0789
504 2 11.7885 39.5182 20.2387
505 2 15.8586 39.5575 20.1116
506 2 19.7056 39.5924 20.2348
507 2 23.8442 39.8121 20.1343
508 2 27.798 39.7356 20.1709
509 2 31.7608 39.7124 19.9203
510 2 35.8772 39.7813 20.0888
511 2 -0.0754423 4.17046 20.2185
512 2 4.05048 4.43026 20.0168
513 2 7.98132 4.05608 20.0765
514 2 11.9464 4.11857 20.3503
515 2 15.9273 4.12807 20.1714
516 2 19.9022 4.00608 20.1674
517 2 23.7572 4.04478 20.1255
518 2 27.8542 4.18909 20.0572
519 2 31.78 4.10865 20.0605
520 2 35.6043 4.17821 20.0522
521 2 -0.0289585 7.96456 20.2082
522 2 3.99201 8.20572 20.2366
523 2 7.87378 8.05938 20.2271
524 2 11.9197 8.03731 20.3544
525 2 15.9395 7.99922 20.3119
526 2 19.8303 8.12296 20.2896
527 2 23.9121 7.87026 20.1467
528 2 27.6943 8.1499 20.0425
529 2 31.6624 8.09576 20.2205
530 2 35.6876 8.06888 20.2214
531 2 0.000292684 12.0709 20.2919
532 2 4.01866 12.2054 20.1935
533 2 7.98277 11.9674 20.0856
534 2 11.9279 11.9664 20.3168
535 2 15.9659 12.0432 20.287
536 2 19.7985 12.0039 20.315
537 2 23.7848 11.9418 20.3511
538 2 27.7111 11.9918 20.0316
539 2 31.7324 12.1271 20.1289
540 2 35.763 11.9057 20.2271
541 2 0.0570156 15.9264 20.2796
542 2 4.05317 16.1205 20.1969
543 2 7.77456 15.8093 20.2138
544 2 11.9436 15.8334 20.3935
545 2 15.9547 15.9504 20.1614
546 2 19.7889 15.9818 20.0989
547 2 23.8462 16.1449 20.1764
548 2 27.8489 15.9654 20.1177
549 2 31.5935 15.9627 20.3802
550 2 35.7263 15.9439 20.2688
551 2 39.5972 19.9974 20.1769
552 2 3.85564 19.7804 20.2224
553 2 7.8835 19.8796 20.1953
554 2 11.8727 19.7998 20.2011
555 2 15.9438 19.9841 20.1406
556 2 19.8331 20.0461 20.0847
557 2 24.0086 20.0882 20.1678
558 2 27.8194 19.976 19.9182
559 2 31.7756 19.8541 20.0095
560 2 35.874 19.9715 20.2796
561 2 39.6738 24.0516 20.2732
562 2 3.99122 23.643 20.2709
563 2 7.76595 23.9181 19.9718
564 2 11.737 23.9167 20.27
565 2 15.9025 23.8999 19.9427
566 2 19.6515 24.0048 20.1494
567 2 23.8354 24.1334 20.0396
568 2 27.7332 23.9214 20.2958
569 2 31.8231 23.7708 20.174
570 2 35.6476 23.7846 20.0838
571 2 39.5479 27.9533 20.1991
572 2 3.9567 27.7821 20.1571
573 2 7.85828 27.9877 20.1422
574 2 11.8356 27.8887 20.2202
575 2 15.7182 27.6789 20.0467
576 2 19.844 27.8734 20.284
577 2 23.6782 27.858 20.1278
578 2 27.7606 27.8687 20.0892
579 2 31.8609 27.8803 20.1978
580 2 35.6688 27.7653 20.103
581 2 39.5037 31.8478 20.1356
582 2 3.93063 31.7793 20.1117
583 2 7.98641 31.8242 20.1018
584 2 11.8767 31.7481 20.021
585 2 15.8095 31.9412 20.0924
586 2 19.6146 31.9051 20.0947
587 2 23.5209 31.6597 20.1111
588 2 27.5992 31.7533 20.1472
589 2 31.57 31.6994 20.355
590 2 35.5459 31.9199 20.0964
591 2 0.0496496 35.8407 20.0999
592 2 4.01118 36.0642 20.2703
593 2 7.80326 35.6144 20.2937
594 2 11.8681 35.6016 20.0615
595 2 15.9453 35.5933 20.1866
596 2 19.7006 35.685 20.257
597 2 23.7605 35.7462 20.2413
598 2 27.7945 35.9421 19.8556
599 2 31.6187 35.7814 20.2198
600 2 35.4498 35.7623 20.207
601 2 0.0508176 39.9516 23.9563
602 2 4.09891 39.6458 24.2382
603 2 7.91083 39.7616 24.2091
604 2 11.7913 0.208241 24.0324
605 2 15.7155 0.287705 24.056
606 2 19.7061 39.8339 24.1121
607 2 23.7254 39.9711 23.9054
608 2 27.5487 39.895 24.074
609 2 31.5693 39.7198 23.7114
610 2 35.8333 39.8221 23.956
611 2 39.6012 4.01479 24.2358
612 2 3.94528 4.28812 24.1
613 2 7.81428 3.99954 24.2535
614 2 11.737 4.14541 23.9887
615 2 15.7002 4.14112 24.1619
616 2 19.7542 4.23359 24.222
617 2 23.7712 4.10409 24.0881
618 2 27.7788 4.15848 24.0733
619 2 31.6699 4.1575 24.0147
620 2 35.6933 4.04521 24.0708
621 2 -0.0759575 8.10192 24.0791
622 2 3.85344 8.15706 24.1752
623 2 7.83407 7.86347 24.0776
624 2 11.9018 8.07331 24.1604
625 2 15.9056 8.17626 24.1792
626 2 19.7276 8.07103 24.2267
627 2 23.8819 8.04666 24.1543
628 2 27.7364 8.04972 24.3143
629 2 31.6728 8.10733 24.0755
630 2 35.5117 7.93001 24.2052
631 2 39.5554 12.033 24.2702
632 2 3.93659 12.0714 24.1716
633 2 7.79528 12.0253 24.2102
634 2 11.8604 12.0272 24.1338
635 2 15.7923 11.9659 24.3182
636 2 19.7109 12.1 24.2149
637 2 23.6708 12.1358 24.0795
638 2 27.6171 11.914 24.1967
639 2 31.5869 11.9588 24.1849
640 2 35.6181 12.168 24.1668
641 2 39.4751 15.9837 24.4013
642 2 4.01823 15.8555 24.2501
643 2 7.89789 15.8544 24.0578
644 2 11.8792 16.088 24.1206
645 2 15.8564 16.1315 24.011
646 2 19.6857 16.0225 24.0136
647 2 23.9316 16.0023 24.1284
648 2 27.6801 15.9318 24.0072
649 2 31.5465 15.8263 24.104
650 2 35.4832 15.9662 24.1716
651 2 -0.119686 19.8853 24.2197
652 2 4.0634 19.7161 24.1208
653 2 8.08245 19.9344 24.3681
654 2 11.828 19.9766 24.1575
655 2 15.8136 20.0402 24.1915
656 2 19.9164 20.2174 23.9594
657 2 23.7954 19.9894 24.0422
658 2 27.6213 19.8888 24.081
659 2 31.5666 19.9919 24.1045
660 2 35.7406 20.1173 24.1394
661 2 0.0483408 23.9497 24.2243
662 2 3.84492 23.8303 24.3599
663 2 8.04259 23.7949 24.1036
664 2 12.0841 23.7985 24.0793
665 2 15.8 23.9364 23.9795
666 2 19.772 24.1161 24.2321
667 2 23.6753 23.9537 24.1778
668 2 27.7788 23.7923 24.3064
669 2 31.754 23.7464 24.0496
670 2 35.6634 23.8536 24.1025
671 2 39.4849 27.9222 23.8698
672 2 3.85301 27.7648 24.1623
673 2 7.80794 27.7444 24.0387
674 2 11.787 27.8009 23.9163
675 2 15.7924 27.9617 24.1622
676 2 19.875 27.9515 24.0829
677 2 23.7328 28.0773 24.0822
678 2 27.7965 28.0014 24.1094
679 2 31.6246 27.8735 24.2004
680 2 35.6262 27.9622 24.1923
681 2 -0.126399 31.8606 23.9628
682 2 3.85414 31.7499 24.2622
683 2 7.83425 31.6675 24.2027
684 2 11.7735 31.8428 24.2811
685 2 15.7158 31.7396 24.2586
686 2 19.6466 31.767 24.2316
687 2 23.7776 32.0246 24.0151
688 2 27.7564 31.8679 24.0994
689 2 31.6429 31.7674 24.1255
690 2 35.7158 31.9082 24.1714
691 2 -0.210629 35.845 24.1086
692 2 4.04333 35.6025 24.2103
693 2 7.84791 35.5055 24.0525
694 2 11.9296 35.7919 24.1432
695 2 15.6366 35.8314 24.0862
696 2 19.9312 35.8631 24.1793
697 2 23.785 35.7639 24.1497
698 2 27.8632 35.9063 23.8894
699 2 31.5233 35.741 24.1672
700 2 35.5486 35.9843 23.9233
701 2 -0.0503692 39.7362 28.1091
702 2 3.80699 0.262447 28.1578
703 2 8.00089 39.6894 28.4038
704 2 11.7914 39.7474 28.0226
705 2 15.7602 39.9764 28.0666
706 2 19.5455 39.7868 28.2157
707 2 23.69 39.6425 28.0275
708 2 27.6291 39.6767 28.1899
709 2 31.5229 39.8642 28.1741
710 2 35.6464 39.8717 28.1066
711 2 0.0839419 4.12169 28.1838
712 2 3.935 4.2463 28.0606
713 2 7.72868 4.17122 28.084
714 2 11.968 4.10972 27.9639
715 2 15.7907 4.17229 28.3273
716 2 19.8068 4.07197 28.1324
717 2 23.5814 3.96511 28.2476
718 2 27.6296 4.0209 28.0165
719 2 31.9788 4.02159 28.1578
720 2 35.4994 4.04779 28.04
721 2 -0.11885 7.92352 28.2116
722 2 3.94079 7.96529 28.1461
723 2 7.88098 8.1476 28.0805
724 2 11.9193 7.76966 28.1286
725 2 15.8277 8.15621 28.1572
726 2 19.6459 8.17448 28.0868
727 2 23.5825 8.15254 28.1115
728 2 27.5427 7.79865 28.1956
729 2 31.5201 7.85955 28.0584
730 2 35.4908 7.88317 28.0026
731 2 -0.0782762 11.8744 28.0493
732 2 3.8734 12.1391 27.9924
733 2 7.89282 12.0486 28.1769
734 2 11.6768 11.898 28.1357
735 2 15.7836 12.1558 28.1784
736 2 19.8309 12.1729 27.9617
737 2 23.6916 12.0837 27.8934
738 2 27.5837 11.9411 28.1227
739 2 31.6356 12.1764 28.2471
740 2 35.635 11.6957 28.0957
741 2 -0.176317 16.0212 28.1493
742 2 4.01515 16.054 28.3562
743 2 7.82156 16.0057 28.0501
744 2 11.9024 16.0168 28.1737
745 2 15.9213 15.893 28.2487
746 2 19.8208 16.071 28.1489
747 2 23.6252 16.1625 28.0355
748 2 27.6217 15.8126 28.3145
749 2 31.5476 16.1037 28.142
750 2 35.467 15.8387 28.1433
751 2 -0.252674 19.9257 28.1189
752 2 3.88608 19.8378 28.1056
753 2 7.95925 20.0458 28.2831
754 2 12.009 19.8439 28.0507
755 2 16.0647 19.9191 28.201
756 2 19.871 19.9276 28.0907
757 2 23.7463 19.9636 28.0618
758 2 27.8579 19.8636 28.1257
759 2 31.6314 19.8421 28.0228
760 2 35.328 19.8991 28.0791
761 2 0.0610764 23.8393 28.103
762 2 3.88461 23.6515 28.2264
763 2 7.79691 23.8306 28.2696
764 2 11.8354 23.8749 28.1861
765 2 15.9202 23.9543 28.1455
766 2 19.7409 23.8965 27.9768
767 2 23.6994 23.9055 28.1463
768 2 27.8136 23.7831 28.1989
769 2 31.6867 24.1212 28.0224
770 2 35.6015 23.99 28.1588
771 2 39.5197 27.7848 28.1574
772 2 3.96366 27.777 28.0531
773 2 7.84197 27.6611 28.2678
774 2 11.7506 27.8694 27.986
775 2 15.9238 27.8258 28.2362
776 2 19.6645 27.8441 28.0925
777 2 23.766 27.8559 28.1528
778 2 27.5633 27.8393 27.9931
779 2 31.5041 27.7785 28.1294
780 2 35.364 27.9261 28.1395
781 2 -0.128315 31.8922 27.9399
782 2 3.81949 31.6953 28.0785
783 2 7.82245 31.7863 28.3239
784 2 11.7788 31.706 28.017
785 2 15.6095 31.7363 28.1172
786 2 19.6443 31.8283 28.1048
787 2 23.7805 31.6936 27.9188
788 2 27.7091 32.0116 28.0488
789 2 31.5796 32.0287 28.0414
790 2 35.4539 31.9139 28.0381
791 2 0.00145662 35.6973 28.2109
792 2 3.85727 35.833 28.1216
793 2 7.98826 35.8497 28.2187
794 2 11.6612 35.7497 28.0198
795 2 15.6596 36.0341 28.1229
796 2 19.5579 35.7599 27.9255
797 2 23.5978 35.7426 28.1987
798 2 27.6086 35.9742 28.0449
799 2 31.6828 36.1547 27.8581
800 2 35.6349 35.9347 27.9167
801 2 -0.078667 39.7036 32.1687
802 2 3.74887 0.125863 32.3217
803 2 7.73998 -0.0417456 32.025
804 2 11.7243 39.7761 32.116
805 2 15.629 0.0824979 31.8958
806 2 19.5163 0.0566595 31.9408
807 2 23.6445 39.6312 32.2387
808 2 27.5487 39.708 31.9882
809 2 31.5969 39.4726 32.1699
810 2 35.5403 39.7633 32.1652
811 2 -0.0344239 4.04835 32.26
812 2 3.97892 3.8817 32.071
813 2 7.93144 4.14482 31.85
814 2 11.789 3.98617 32.1466
815 2 15.7374 4.10311 32.295
816 2 19.6842 3.92898 32.184
817 2 23.556 3.94306 32.0581
818 2 27.4086 4.00846 32.1407
819 2 31.5713 4.15088 32.0948
820 2 35.4008 4.10248 32.1385
821 2 39.5126 7.77934 32.0597
822 2 3.79058 8.04495 32.2371
823 2 7.67944 8.1527 32.0101
824 2 11.74 7.94377 32.2242
825 2 15.8728 8.24624 32.1444
826 2 19.7016 8.03978 32.0563
827 2 23.4518 8.02691 32.1985
828 2 27.4198 7.93044 32.037
829 2 31.519 8.11372 32.1116
830 2 35.5772 8.05198 32.3178
831 2 -0.25545 11.8943 31.9194
832 2 3.77139 11.9769 32.0107
833 2 7.92773 11.8188 32.0198
834 2 11.6934 11.9262 31.9714
835 2 15.7461 11.8558 31.8606
836 2 19.6617 12.1224 31.9075
837 2 23.5298 11.9981 31.9738
838 2 27.6602 11.7146 32.0451
839 2 31.5804 11.8278 32.129
840 2 35.5519 11.9634 32.1916
841 2 -0.0516182 15.8645 32.2954
842 2 3.89119 15.7014 32.1766
843 2 7.89484 15.8826 32.0691
844 2 11.7624 16.0133 32.2358
845 2 15.6012 15.9307 32.2346
846 2 19.5939 15.8897 32.0544
847 2 23.8233 15.8638 32.3353
848 2 27.7524 15.963 31.989
849 2 31.5518 15.663 32.0045
850 2 35.5469 15.8256 32.1321
851 2 -0.191867 19.8776 31.9974
852 2 3.77266 19.5751 32.2353
853 2 8.04222 19.9079 32.239
854 2 11.9314 19.8094 31.9568
855 2 15.8028 19.8864 32.0816
856 2 19.795 19.838 32.0968
857 2 23.8439 19.8337 32.0378
858 2 27.7904 19.8181 32.0175
859 2 31.6428 19.9726 32.0661
860 2 35.3994 19.922 32.0578
861 2 -0.139365 24.0131 32.1393
862 2 3.71362 23.6863 32.3306
863 2 7.69284 23.8078 32.12
864 2 11.8754 23.7356 31.9799
865 2 15.7171 23.8298 32.118
866 2 19.7715 23.7469 32.0305
867 2 23.8215 23.8732 32.1548
868 2 27.4225 23.7247 32.3085
869 2 31.7333 24.0596 32.1392
870 2 35.7099 23.9216 32.2114
871 2 -0.143365 27.7689 32.1518
872 2 3.78244 27.8707 32.0026
873 2 7.98501 27.8407 32.1064
874 2 11.9468 27.7201 32.1848
875 2 15.7987 27.6731 32.1625
876 2 19.9677 27.7086 32.0542
877 2 23.8095 27.7866 32.2323
878 2 27.7537 27.6176 31.7401
879 2 31.6357 27.75 31.9956
880 2 35.5866 27.8883 32.1212
881 2 -0.348454 31.7038 32.1756
882 2 3.75612 31.6512 32.1397
883 2 7.91397 31.7833 32.0774
884 2 11.8344 31.6705 32.1449
885 2 15.6626 31.6526 32.2439
886 2 19.7308 31.9162 32.0702
887 2 23.4775 31.8354 31.9105
888 2 27.8532 31.7986 31.9096
889 2 31.5532 31.6442 32.1968
890 2 35.5157 31.683 32.3505
891 2 -0.116206 35.7573 31.9897
892 2 3.71877 35.6227 32.0542
893 2 7.60468 35.7073 32.0643
894 2 11.7677 35.7403 32.1291
895 2 15.6091 35.7842 31.9049
896 2 19.6004 35.7054 32.2429
897 2 23.5846 35.69 31.9867
898 2 27.4184 35.7533 32.0323
899 2 31.5303 35.715 32.0357
900 2 35.5142 35.843 32.0148
901 2 -0.132246 0.0698614 36.1176
902 2 3.9164 -0.00481797 36.1933
903 2 7.76349 -0.0689317 36.0836
904 2 11.8805 -0.0287239 36.1159
905 2 15.9301 0.106877 36.0075
906 2 19.7075 -0.0547931 36.0839
907 2 23.6558 39.563 36.2461
908 2 27.4266 39.4145 36.1278
909 2 31.4641 0.0810678 36.2049
910 2 35.4249 -0.014908 36.0923
911 2 -0.219806 3.8806 36.2447
912 2 4.02779 3.73205 35.9467
913 2 7.69261 3.95306 35.8546
914 2 11.6713 3.70959 36.1141
915 2 15.555 4.0314 36.1984
916 2 19.6502 4.06178 35.9962
917 2 23.7588 3.86143 36.0904
918 2 27.6977 3.64334 36.0699
919 2 31.3942 3.71427 36.1333
920 2 35.3925 4.02456 36.2138
921 2 -0.113163 7.89446 36.1756
922 2 3.82351 7.8288 36.0852
923 2 7.84001 7.94729 36.002
924 2 11.6538 7.97132 36.0736
925 2 15.8768 7.91242 35.8679
926 2 19.8212 7.8956 36.2159
927 2 23.6788 7.94123 36.1688
928 2 27.4388 7.90874 36.1042
929 2 31.4421 7.73322 36.0206
930 2 35.2824 8.03047 36.1709
931 2 -0.193813 11.827 36.1499
932 2 3.77479 11.701 36.0755
933 2 7.93003 11.9311 36.0293
934 2 11.7333 11.7215 36.1199
935 2 16.0748 11.8968 36.0587
936 2 19.6879 11.972 36.0048
937 2 23.7288 12.0163 36.078
938 2 27.5365 11.8318 36.1272
939 2 31.4669 11.8971 36.1206
940 2 35.4439 11.9078 36.082
941 2 -0.242234 15.6201 36.0996
942 2 3.77583 15.6171 35.782
943 2 7.89261 15.7393 36.0621
944 2 11.6956 15.7308 35.9864
945 2 15.6741 15.7451 36.1274
946 2 19.7293 15.8935 36.0713
947 2 23.5521 15.6594 36.027
948 2 27.6323 15.7773 36.1022
949 2 31.6051 15.6851 35.9574
950 2 35.4171 15.9394 36.1208
951 2 -0.0800908 19.7634 36.0446
952 2 3.83834 19.6416 36.0682
953 2 7.67576 19.7204 36.0463
954 2 11.5708 19.7676 36.1972
955 2 15.9101 19.9825 36.0347
956 2 19.8925 19.9141 36.109
957 2 23.7308 19.8939 36.0607
958 2 27.6549 19.7917 36.1498
959 2 31.4478 19.7419 35.9627
960 2 35.5625 19.6441 35.9729
961 2 -0.0754103 23.7008 36.2294
962 2 4.01956 23.642 36.0692
963 2 7.72184 23.8167 35.9415
964 2 11.6657 23.6058 35.9728
965 2 15.9732 23.809 36.0328
966 2 19.7384 23.7331 35.982
967 2 23.8119 24.0159 36.1406
968 2 27.7801 23.6895 36.2054
969 2 31.6427 23.8676 36.0663
970 2 35.605 23.8018 36.2932
971 2 -0.00722659 27.7611 36.2474
972 2 3.76709 27.6987 36.0302
973 2 7.85095 27.6862 36.0616
974 2 11.8531 27.724 36.0683
975 2 15.9063 27.5393 36.0731
976 2 19.7596 27.6049 35.9392
977 2 23.7822 27.8448 36.3846
978 2 27.56 27.9482 36.0019
979 2 31.5236 27.8477 36.0473
980 2 35.3686 27.8951 36.2137
981 2 -0.0452586 31.805 36.0421
982 2 3.84044 31.7283 36.2825
983 2 7.84897 31.7859 36.1589
984 2 11.6813 31.7851 36.0142
985 2 15.5959 31.3922 35.7803
986 2 19.5524 31.767 36.1379
987 2 23.5945 31.7563 35.8415
988 2 27.4517 31.5335 36.003
989 2 31.5766 31.8291 35.9101
990 2 35.5144 31.736 36.2217
991 2 -0.0464821 35.6551 35.9542
992 2 3.8805 35.6566 36.0924
993 2 7.6637 35.6443 36.1937
994 2 11.8489 35.8544 36.1402