ITEM: TIMESTEP
48300
ITEM: NUMBER OF ATOMS
7500
ITEM: BOX BOUNDS xy xz yz pp pp pp
0.0000000000000000e+00 3.9579999999999998e+01 0.0000000000000000e+00
0.0000000000000000e+00 3.9579999999999998e+01 0.0000000000000000e+00
-5.2447225773242678e-02 5.9752447225773892e+01 0.0000000000000000e+00
ITEM: ATOMS id type x y z
1 2 39.6254 39.4284 0.311921
2 2 3.9704 -0.062691 0.268706
3 2 8.00417 -0.0896955 0.368149
4 2 11.9132 0.0125796 0.273637
5 2 15.8881 39.5342 0.0553293
6 2 19.8858 0.0326514 0.278285
7 2 23.7405 -0.107117 0.222552
8 2 27.6236 39.4917 0.375168
9 2 31.573 39.6725 0.290807
10 2 35.6635 39.541 0.200355
11 2 39.63 3.6468 0.146506
12 2 3.99823 3.9414 0.190647
13 2 7.83004 3.84444 0.227288
14 2 11.7979 3.78491 0.44008
15 2 15.769 3.77823 0.270118
16 2 19.7387 3.88104 0.152611
17 2 23.4817 3.81901 0.229354
18 2 27.7362 3.86923 0.253928
19 2 31.6006 3.93663 0.290018
20 2 35.706 4.0184 0.298855
21 2 39.6728 7.68712 0.136363
22 2 4.05997 7.91387 0.129626
23 2 8.01822 8.00765 0.274253
24 2 11.7857 7.97155 60.0703
25 2 15.7817 7.64246 0.183487
26 2 19.8289 7.88486 0.0572835
27 2 23.8744 7.8736 0.253684
28 2 27.8971 8.04196 0.20696
29 2 31.8132 7.66199 0.0977244
30 2 35.6587 7.8106 0.394166
31 2 39.5192 11.8866 0.0825666
32 2 4.02259 11.7 0.175307
33 2 7.78051 11.9847 0.280979
34 2 11.8171 11.8522 0.297103
35 2 15.9076 11.6133 0.213941
36 2 19.8116 11.7625 0.221231
37 2 23.7435 12.1277 0.294895
38 2 27.4379 11.812 0.343685
39 2 31.5939 11.962 0.0625153
40 2 35.5679 11.7356 0.202621
41 2 39.5343 15.6389 0.174513
42 2 3.94425 15.7432 0.181544
43 2 8.0739 15.7374 0.249205
44 2 11.991 15.7858 0.221007
45 2 15.9267 15.7848 0.262032
46 2 19.8778 15.7149 0.114241
47 2 23.7475 15.8749 0.170762
48 2 27.5112 15.7083 0.192488
49 2 31.7093 15.6283 0.168739
50 2 35.8512 15.7138 0.335481
51 2 39.7901 19.6799 0.256307
52 2 4.02338 19.7515 0.305107
53 2 8.00593 19.6484 0.33064
54 2 12.1192 19.7217 0.117573
55 2 15.8869 19.9403 0.203705
56 2 19.7945 19.6912 0.27033
57 2 23.8432 19.7647 0.189747
58 2 27.8325 19.7252 0.133008
59 2 31.7921 19.5986 0.157203
60 2 35.6883 19.5633 0.101418
61 2 39.6146 23.4507 0.185007
62 2 3.86416 23.8696 -0.0541486
63 2 8.03358 23.3885 0.249182
64 2 11.8855 23.7517 0.280101
65 2 16.1132 23.7428 0.0896011
66 2 19.8009 23.7952 0.4364
67 2 23.755 23.5437 0.141152
68 2 27.5461 23.4622 0.0509429
69 2 31.6816 23.6022 0.136717
70 2 35.8705 23.4459 0.15613
71 2 39.5095 27.6201 0.169787
72 2 3.91434 27.7903 0.237047
73 2 7.92354 27.5682 0.349447
74 2 11.8201 27.6681 0.192602
75 2 15.8114 27.6636 0.164001
76 2 19.903 27.6239 0.163627
77 2 23.8203 27.6971 0.180716
78 2 27.7939 27.5156 0.076676
79 2 31.6709 27.5832 0.289809
80 2 35.8082 27.4991 0.146625
81 2 39.6892 31.3585 -0.115552
82 2 4.06665 31.6428 0.13444
83 2 8.05273 31.6267 0.441475
84 2 12.1392 31.7241 0.141268
85 2 16.112 31.5033 0.294797
86 2 20.0128 31.6599 0.127128
87 2 23.9688 31.5129 0.129801
88 2 27.8203 31.5621 0.1576
89 2 31.6685 31.6618 0.0637162
90 2 35.6113 31.7202 0.0919098
91 2 39.7073 35.5455 0.497982
92 2 4.03281 35.4416 0.120427
93 2 8.09227 35.5968 0.219153
94 2 11.8632 35.6104 0.250338
95 2 15.8774 35.6926 0.355721
96 2 19.8088 35.4681 0.270656
97 2 23.7989 35.4482 0.234752
98 2 27.6807 35.5395 0.22044
99 2 31.6808 35.3564 0.309468
100 2 35.7155 35.5715 0.37545
101 2 39.7909 -0.139645 4.3359
102 2 3.99055 39.6361 4.14958
103 2 7.98875 -0.24217 4.33394
104 2 11.916 0.117988 4.014
105 2 15.8427 0.0838443 4.2369
106 2 19.825 39.4537 4.24875
107 2 23.7787 39.5815 4.16657
108 2 27.6889 39.5265 4.15956
109 2 31.8548 0.0396959 4.22406
110 2 35.6899 39.5323 4.3735
111 2 39.7889 3.88203 4.31852
112 2 4.16546 4.04357 4.1771
113 2 8.17433 3.90608 4.29194
114 2 12.1318 4.13489 4.30701
115 2 16.0437 4.06906 4.01536
116 2 19.9088 3.87682 4.14546
117 2 23.72 3.88593 4.33596
118 2 27.8303 4.01789 4.15178
119 2 31.7965 4.058 4.15653
120 2 35.7841 3.89588 4.14031
121 2 0.0593213 7.99067 4.13674
122 2 3.94995 8.01685 4.32818
123 2 8.0763 7.94832 4.09117
124 2 11.9944 7.98536 4.24399
125 2 16.0248 7.89498 4.18838
126 2 19.9307 7.8402 3.91924
127 2 23.9578 7.78672 4.23383
128 2 27.8913 7.97223 4.27481
129 2 31.8099 7.8714 4.24281
130 2 35.8597 7.97164 4.32587
131 2 39.6252 11.6769 4.20539
132 2 3.81893 11.9792 4.34702
133 2 7.88359 12.006 4.30734
134 2 12.0376 12.0084 4.30265
135 2 16.0309 11.8958 4.24456
136 2 19.952 11.6632 4.10707
137 2 23.7904 11.8823 4.34394
138 2 28.0258 11.7338 4.20652
139 2 31.9147 11.8675 4.24857
140 2 35.7876 11.7866 4.29297
141 2 39.6491 15.7846 4.26764
142 2 3.88561 15.7552 4.24353
143 2 8.0568 15.8269 4.04478
144 2 12.0464 15.9686 4.11349
145 2 16.146 15.7781 4.04695
146 2 19.8348 15.8972 4.29194
147 2 23.6066 15.8802 4.28565
148 2 27.9176 16.0608 4.02674
149 2 31.8318 15.8149 3.97519
150 2 35.824 15.6581 4.19557
151 2 0.207745 19.7426 4.27142
152 2 4.09842 19.8878 4.25397
153 2 7.89702 19.8166 4.20996
154 2 11.8054 19.7409 4.28061
155 2 15.9903 19.8486 4.12923
156 2 19.8083 19.7729 4.16679
157 2 23.7554 19.9447 4.22159
158 2 27.8392 19.9065 4.20974
159 2 31.9585 19.9214 4.09184
160 2 35.7363 19.835 4.0634
161 2 39.7692 23.7857 4.34114
162 2 3.98989 23.9413 4.14341
163 2 8.00147 23.7891 4.14504
164 2 12.09 23.5042 4.18881
165 2 15.9421 23.822 4.22879
166 2 19.9203 23.7754 4.12774
167 2 23.7631 23.8121 4.00818
168 2 27.9912 23.6514 4.09536
169 2 31.8609 23.7728 4.25887
170 2 35.9235 23.8024 3.97847
171 2 39.7235 27.6248 4.0095
172 2 3.95339 27.8504 4.30563
173 2 7.90502 27.6121 4.07052
174 2 11.8469 27.4972 4.27658
175 2 15.8534 27.8206 4.14376
176 2 19.9785 27.5839 4.27113
177 2 23.8181 27.6559 4.10725
178 2 27.8803 27.5644 4.1607
179 2 31.9137 27.5782 3.95777
180 2 35.7069 27.8329 4.14077
181 2 0.154437 31.7707 4.2126
182 2 4.00567 31.67 4.32038
183 2 8.08042 31.5066 4.15424
184 2 11.9971 31.7137 4.14427
185 2 16.1227 31.5449 4.16355
186 2 19.8905 31.5614 4.29745
187 2 23.8825 31.4724 4.14625
188 2 27.9395 31.5373 4.2149
189 2 31.7462 31.443 4.01856
190 2 35.7107 31.6562 4.31916
191 2 0.126103 35.772 4.27656
192 2 4.04069 35.4553 4.16409
193 2 8.01466 35.7284 4.21876
194 2 11.9593 35.5939 4.32561
195 2 16.0329 35.472 4.23474
196 2 19.9265 35.549 4.20027
197 2 23.8708 35.4676 4.37857
198 2 27.6953 35.6387 4.38487
199 2 31.6556 35.5806 4.11251
200 2 35.6362 35.4457 4.27638
201 2 39.7042 39.5848 8.18963
202 2 4.15644 39.6345 8.20035
203 2 8.00716 39.8055 8.09569
204 2 12.0987 0.189657 8.07881
205 2 16.0117 0.202591 8.21359
206 2 19.9485 39.5649 8.32318
207 2 23.9214 39.4891 8.15474
208 2 27.8241 0.0283717 8.1013
209 2 31.8296 39.5184 8.2412
210 2 35.7488 39.6183 8.21167
211 2 39.8069 3.86953 8.22129
212 2 4.05541 4.08346 8.23132
213 2 8.04236 4.07196 8.147
214 2 11.938 4.05341 8.11135
215 2 16.1808 3.90377 8.02477
216 2 20.0436 4.01796 8.15858
217 2 24.029 4.05044 7.96896
218 2 27.7627 4.11354 8.23895
219 2 31.7972 3.85276 8.17058
220 2 35.7772 3.88053 8.08616
221 2 39.5855 7.82888 8.19843
222 2 4.08804 7.89523 8.37984
223 2 7.91562 8.31383 8.11922
224 2 12.0046 8.12265 8.08969
225 2 15.9004 7.82925 8.21876
226 2 19.9657 8.0289 8.30169
227 2 23.9731 8.01091 8.05191
228 2 28.0465 7.86523 8.14149
229 2 31.8294 7.75447 8.27468
230 2 35.7933 7.67485 8.15249
231 2 39.5604 11.8432 8.25015
232 2 4.01695 11.9356 8.2069
233 2 8.0808 11.8537 8.33363
234 2 12.0123 12.0096 8.14089
235 2 16.057 11.8967 8.23323
236 2 19.8843 11.69 8.32584
237 2 24.0063 11.8834 8.27679
238 2 27.839 11.9726 8.19879
239 2 31.845 11.7248 8.34232
240 2 35.6591 11.8662 8.26699
241 2 39.5991 15.9311 8.25739
242 2 4.18301 15.8692 8.18473
243 2 7.93601 15.9722 8.32484
244 2 11.8591 15.8056 8.34901
245 2 15.8799 15.7793 8.29217
246 2 19.8594 15.958 8.26755
247 2 23.8958 15.6957 7.99572
248 2 28.0412 15.9096 7.93334
249 2 31.9298 15.7788 8.14871
250 2 35.8883 15.8751 8.06796
251 2 39.643 19.9403 8.40814
252 2 4.09141 19.8069 7.88747
253 2 7.97697 19.8712 8.2727
254 2 12.3396 19.6674 8.19629
255 2 16.0781 19.8147 8.0999
256 2 19.9601 19.7378 8.14372
257 2 24.0062 19.6562 8.09328
258 2 27.7982 19.5674 8.00581
259 2 31.7562 19.8155 8.14906
260 2 35.692 19.8225 7.99072
261 2 39.9184 23.8194 8.21244
262 2 4.17962 23.9439 8.2139
263 2 8.15235 23.7838 8.15246
264 2 12.0686 23.7919 8.0199
265 2 16.0229 23.7076 8.28453
266 2 20.0392 23.7478 8.09315
267 2 23.7858 23.5871 8.17537
268 2 27.7459 23.8445 8.26714
269 2 31.8638 23.8188 8.22547
270 2 35.7359 23.9077 8.18551
271 2 -0.0399708 27.6502 8.17854
272 2 4.01398 27.814 8.21572
273 2 7.92334 27.8924 8.152
274 2 12.0929 27.7104 8.17877
275 2 16.0915 27.7682 8.01231
276 2 19.881 27.6873 8.16486
277 2 24.0727 27.7276 8.14092
278 2 27.7323 27.5372 7.9034
279 2 31.8755 27.695 8.18673
280 2 35.9189 27.6278 8.18361
281 2 0.110067 31.682 8.16574
282 2 4.05635 31.7929 8.29302
283 2 7.97754 31.5451 8.12694
284 2 12.0685 31.6619 8.08955
285 2 15.8472 31.716 8.17007
286 2 19.7364 31.817 8.12726
287 2 23.9105 31.6802 8.21779
288 2 27.8919 31.6266 8.26946
289 2 31.7364 31.5546 8.21983
290 2 35.6997 31.5254 8.26269
291 2 39.7144 35.7353 8.14658
292 2 3.9805 35.557 8.28803
293 2 8.20339 35.4981 8.03243
294 2 11.9645 35.7332 8.2589
295 2 15.9354 35.7969 8.11933
296 2 20.0326 35.4607 8.21111
297 2 24.0564 35.6122 8.2402
298 2 27.8422 35.6584 8.34927
299 2 31.7629 35.7142 8.2146
300 2 35.618 35.4263 8.11208
301 2 39.7397 39.4973 12.1246
302 2 4.31416 39.6108 12.0829
303 2 8.0665 39.5385 12.1836
304 2 12.1528 39.6487 12.2105
305 2 16.1618 39.8061 12.1503
306 2 20.1923 0.0649949 12.0501
307 2 23.742 0.0722801 12.1143
308 2 27.8751 0.0326959 12.2643
309 2 31.8211 0.153021 12.1106
310 2 35.776 39.5517 12.2331
311 2 39.7752 4.01746 12.3421
312 2 4.04048 3.95039 12.2302
313 2 8.28347 3.93906 12.1704
314 2 12.116 4.04399 12.11
315 2 16.1892 3.96266 12.1237
316 2 19.929 3.87583 12.1259
317 2 23.8162 3.92969 12.268
318 2 27.4404 3.93759 12.1322
319 2 31.6977 4.08973 12.1517
320 2 35.6484 3.79266 12.0783
321 2 39.7562 7.90112 12.362
322 2 4.12273 7.8989 12.2219
323 2 8.08503 8.09894 12.2554
324 2 12.1604 7.91722 12.142
325 2 15.9124 7.87075 12.2368
326 2 19.8429 7.6952 12.0799
327 2 23.8665 8.03334 12.1713
328 2 27.8 7.92276 12.2513
329 2 31.7041 7.92472 12.3115
330 2 35.7818 7.86763 12.1358
331 2 39.8407 11.7751 11.942
332 2 3.95435 11.896 12.3069
333 2 7.97993 11.9814 12.1804
334 2 12.1157 11.9366 12.2105
335 2 16.0732 12.0173 12.2009
336 2 19.8673 12.0368 12.094
337 2 24.0599 11.8292 12.1278
338 2 27.9372 11.9327 12.1502
339 2 31.98 11.8602 12.1153
340 2 35.8475 12.0103 12.356
341 2 39.7931 15.8222 12.083
342 2 4.10357 15.8412 12.1942
343 2 8.05408 15.9389 12.0808
344 2 12.0882 15.9374 12.41
345 2 15.9208 15.885 12.3019
346 2 19.8023 15.9023 12.2575
347 2 23.9517 15.867 12.1959
348 2 27.8876 15.7646 11.9684
349 2 31.8033 15.8504 12.1292
350 2 35.7116 15.7769 12.2561
351 2 0.116747 19.9167 12.2279
352 2 4.2274 19.7648 12.0131
353 2 8.05176 19.9622 12.1309
354 2 12.1237 19.8957 12.1079
355 2 15.9483 19.8941 12.366
356 2 19.9631 19.6522 12.2267
357 2 23.9259 19.5571 11.9537
358 2 27.9107 20.0581 11.9709
359 2 31.6517 19.7255 12.1265
360 2 35.5736 19.6698 12.1645
361 2 0.124157 23.7759 12.2619
362 2 4.05958 24.0048 12.0323
363 2 7.94196 23.8222 12.1066
364 2 11.8061 23.8884 12.064
365 2 15.9284 23.8061 12.1583
366 2 19.9042 23.7202 12.1432
367 2 23.9806 23.5223 12.112
368 2 27.7338 23.8041 12.2315
369 2 31.6042 23.6386 11.9767
370 2 35.4983 23.8768 12.187
371 2 39.7389 27.6358 12.1804
372 2 4.02471 27.7987 12.102
373 2 8.09885 27.7556 12.1273
374 2 11.9766 27.5517 12.1433
375 2 16.1128 27.7376 12.1582
376 2 19.8248 27.8011 12.2487
377 2 23.6851 27.8173 12.0957
378 2 27.6366 27.7326 12.1237
379 2 31.7119 27.716 12.2379
380 2 35.58 27.8311 12.2403
381 2 0.242301 31.7702 12.273
382 2 4.11053 31.7912 12.2079
383 2 8.15307 31.7005 12.2293
384 2 12.0898 31.6729 12.2345
385 2 15.8808 31.5008 12.1451
386 2 19.9162 31.6882 12.1443
387 2 23.8696 31.5792 11.9742
388 2 27.8892 31.6985 12.2542
389 2 31.763 31.7047 12.1745
390 2 35.6941 31.73 12.2347
391 2 39.5915 35.6236 12.279
392 2 4.30468 35.7959 12.1986
393 2 8.0165 35.8244 12.1253
394 2 11.6989 35.6787 11.8361
395 2 15.9194 35.5714 12.0841
396 2 19.9971 35.6278 12.2298
397 2 23.8115 35.7531 12.1946
398 2 27.7576 35.7461 12.0672
399 2 31.9971 35.7796 12.2371
400 2 35.8161 35.5309 12.0832
401 2 0.242335 39.7432 16.0366
402 2 3.99546 39.635 16.2137
403 2 8.11166 39.6421 16.0236
404 2 11.9188 0.22596 16.2595
405 2 16.0162 39.5451 16.0745
406 2 19.9356 39.6024 16.1479
407 2 23.8657 0.019391 16.2428
408 2 27.6632 39.5001 16.357
409 2 31.5486 39.8588 16.0974
410 2 35.6609 39.7264 16.1232
411 2 39.6624 4.04495 16.2574
412 2 4.15532 3.953 16.2195
413 2 8.20214 4.027 16.1795
414 2 12.0222 3.99258 16.2025
415 2 15.7999 3.9726 16.1261
416 2 19.8146 4.05809 16.2201
417 2 23.8533 3.89632 16.2088
418 2 27.9488 3.80517 16.1263
419 2 31.7282 4.04856 16.0154
420 2 35.9787 4.18183 16.1759
421 2 0.241771 7.7984 16.2255
422 2 4.21119 8.06592 16.1803
423 2 8.08872 8.07746 16.094
424 2 12.0286 7.98477 16.0705
425 2 15.9426 8.05102 16.3575
426 2 20.0135 7.89622 16.1513
427 2 23.8364 7.97189 16.1833
428 2 27.8121 8.06722 16.2053
429 2 31.7071 8.05504 16.2067
430 2 35.5791 8.03025 16.2889
431 2 39.7968 11.9791 16.2282
432 2 4.10961 12.0507 16.2919
433 2 8.02311 11.8983 16.0062
434 2 12.1296 11.9424 16.1739
435 2 15.9875 11.9755 16.0868
436 2 20.1746 12.0213 16.0769
437 2 23.8147 11.9299 16.139
438 2 27.6734 11.8845 16.2236
439 2 31.6257 12.081 16.025
440 2 35.8625 11.806 16.2355
441 2 0.178913 16.0044 15.9569
442 2 3.97828 15.9537 16.0706
443 2 7.90328 16.0918 16.0103
444 2 11.7663 15.936 16.176
445 2 15.8234 15.815 16.0198
446 2 19.947 15.8268 16.1237
447 2 24.0167 15.893 16.2064
448 2 27.7779 15.8533 16.1261
449 2 31.6767 15.8419 15.9255
450 2 35.8674 15.794 16.2557
451 2 39.5342 19.9019 16.2215
452 2 3.86957 19.8924 15.9159
453 2 7.65634 19.9271 16.249
454 2 11.8619 19.9371 16.0616
455 2 15.8712 19.9004 16.1963
456 2 19.9456 19.7827 16.2111
457 2 23.7602 19.9286 16.2496
458 2 27.8067 19.7098 15.9953
459 2 31.6014 19.6371 16.1811
460 2 35.6537 19.7304 16.2068
461 2 39.5244 23.8428 16.2542
462 2 4.02364 23.9513 16.1097
463 2 7.9068 23.7066 16.1328
464 2 11.9392 23.871 16.0336
465 2 15.9317 23.8882 16.1737
466 2 19.8494 23.7779 16.1127
467 2 23.8099 23.7681 16.1283
468 2 27.7221 23.7904 16.1802
469 2 31.778 23.7936 16.0519
470 2 35.6113 23.8296 16.1457
471 2 -0.00570053 27.8389 15.9434
472 2 4.14718 27.7438 16.2246
473 2 8.10484 27.948 16.2328
474 2 12.0846 27.8535 16.1883
475 2 16.0154 27.8808 16.0665
476 2 19.7455 27.5837 16.2291
477 2 23.8309 27.4338 16.0447
478 2 27.8306 27.7362 16.2004
479 2 31.832 27.7674 16.2072
480 2 35.5774 27.7499 16.1879
481 2 0.0397437 31.7119 16.2678
482 2 4.07115 31.591 16.2856
483 2 7.92945 31.8545 16.3537
484 2 11.9851 31.8155 15.9993
485 2 15.8034 31.6323 15.986
486 2 19.873 31.5704 16.2444
487 2 23.8414 31.7542 16.0847
488 2 27.7441 31.7949 16.0831
489 2 31.8253 31.7099 15.9733
490 2 35.6229 31.6488 16.1126
491 2 0.124106 35.6862 16.2143
492 2 4.07401 35.5632 16.1982
493 2 7.94859 35.6312 16.2428
494 2 12.1465 35.8888 16.1304
495 2 15.849 35.6619 16.1215
496 2 19.7506 35.5618 16.095
497 2 23.9175 35.6194 16.1804
498 2 28.0098 35.5913 16.1122
499 2 31.7766 35.7776 16.1098
500 2 35.7539 35.676 16.2703
501 2 0.0252125 39.716 20.3594
502 2 4.06177 39.8873 20.1986
503 2 7.87132 39.6142 20.2647
504 2 12.0506 39.7085 20.1964
505 2 16.025 39.8002 20.0297
506 2 20.1604 39.7859 20.0511
507 2 24.0433 39.6348 20.2052
508 2 27.7511 39.513 20.1681
509 2 31.6943 39.704 20.1199
510 2 35.6274 39.6644 20.2376
511 2 0.0940909 4.1014 20.2888
512 2 3.89256 3.83898 20.1799
513 2 7.95227 4.1219 20.0128
514 2 11.78 4.02913 20.0499
515 2 15.9082 4.14329 20.1437
516 2 19.8191 4.05785 19.9523
517 2 23.9423 4.10243 20.09
518 2 27.8892 4.20236 20.1817
519 2 31.887 3.82112 19.9894
520 2 35.7333 4.04532 20.2401
521 2 0.14043 8.11113 20.0985
522 2 4.12966 7.99143 20.1253
523 2 7.86652 8.1059 20.0982
524 2 11.7428 8.14675 20.2327
525 2 15.6368 7.99282 20.0727
526 2 19.9756 8.09264 20.2231
527 2 23.8648 7.85058 20.329
528 2 27.7154 7.89002 20.1878
529 2 31.7803 8.03488 20.1902
530 2 35.5419 8.06116 20.0799
531 2 0.0850297 11.9272 20.1721
532 2 3.85498 12.0203 20.2435
533 2 7.87846 11.9154 20.091
534 2 11.9394 11.8712 20.3366
535 2 15.7363 11.9351 20.1472
536 2 19.8882 12.1831 20.2364
537 2 23.9097 12.0353 20.0879
538 2 27.5632 11.8735 20.2784
539 2 31.5706 12.1122 20.0231
540 2 35.8429 11.9687 20.0782
541 2 0.165654 15.7818 20.1064
542 2 4.06398 15.8705 20.1496
543 2 8.04798 16.0581 19.8807
544 2 11.8654 15.9281 20.0738
545 2 15.5353 15.7864 20.0171
546 2 19.8784 16.0628 20.1497
547 2 23.7534 15.9176 20.2544
548 2 27.8254 15.8219 20.1688
549 2 31.7371 15.8555 20.1395
550 2 35.7754 15.9046 19.9969
551 2 39.7083 19.8605 20.1567
552 2 3.74279 19.7946 20.0839
553 2 7.86492 19.9516 20.2224
554 2 11.7754 20.0701 20.194
555 2 15.6955 19.7083 20.3174
556 2 19.662 19.7769 20.1827
557 2 23.706 19.9445 20.2229
558 2 27.7479 19.7644 20.0735
559 2 31.5755 19.8048 20.2636
560 2 35.378 19.7758 20.2055
561 2 39.5331 23.9101 20.2165
562 2 3.88539 23.7913 20.1253
563 2 7.78231 23.806 19.9573
564 2 11.9092 24.0136 20.1514
565 2 15.6528 23.8723 20.1747
566 2 19.6996 23.8541 19.9777
567 2 23.8436 23.5798 20.0871
568 2 28.0354 23.7531 20.2089
569 2 31.8614 23.7609 20.2241
570 2 35.6688 23.9485 20.1638
571 2 39.6494 27.7955 20.2743
572 2 3.98995 27.7086 20.1282
573 2 7.87995 27.6767 20.0926
574 2 11.7954 27.8781 20.235
575 2 15.8399 27.6941 20.3112
576 2 19.8109 27.7357 20.2334
577 2 23.778 27.6499 20.1499
578 2 27.6837 27.7222 20.1334
579 2 31.7026 27.6916 20.1314
580 2 35.5808 27.904 20.1168
581 2 39.6821 31.7355 20.2148
582 2 4.06949 31.7582 20.2049
583 2 7.94377 31.707 20.2667
584 2 11.9494 31.9075 20.0358
585 2 15.8509 31.8624 20.0003
586 2 19.8841 31.6502 20.201
587 2 23.8243 31.7254 20.1778
588 2 27.7376 31.6221 19.991
589 2 31.681 32.0376 20.0481
590 2 35.5556 31.7515 20.2858
591 2 0.116525 35.8289 20.0837
592 2 3.92943 35.7482 20.2183
593 2 7.93197 35.8957 20.046
594 2 11.8769 35.7932 20.2335
595 2 15.8899 35.7619 20.0662
596 2 19.8283 35.7423 20.1359
597 2 23.626 35.5545 20.0698
598 2 27.6333 35.6761 20.0734
599 2 31.6966 35.7664 20.1315
600 2 35.7984 35.8805 20.2607
601 2 0.244861 39.6555 24.1958
602 2 4.04772 39.6439 24.2326
603 2 7.86548 39.5966 24.0677
604 2 11.7856 0.160391 24.0532
605 2 16.0728 0.107417 24.1838
606 2 19.7191 39.7526 24.0919
607 2 23.6257 39.7459 23.9963
608 2 27.8394 39.9043 24.2386
609 2 31.6901 39.7199 23.9989
610 2 35.5877 39.6014 24.3641
611 2 39.4388 4.16741 24.1002
612 2 3.95422 4.27415 23.9498
613 2 8.0474 4.07106 23.8968
614 2 11.8213 3.9062 24.2025
615 2 15.9132 4.26814 24.0766
616 2 19.7976 4.11329 24.1923
617 2 23.9382 3.935 24.1793
618 2 27.807 4.07141 24.1834
619 2 31.6719 4.05429 24.1961
620 2 35.7105 4.16614 24
621 2 -0.0723052 8.03397 24.0533
622 2 3.88395 7.98816 24.1582
623 2 7.82294 7.95939 24.195
624 2 11.7866 7.93952 24.3112
625 2 15.8957 8.03602 24.1705
626 2 19.5338 8.16298 24.0498
627 2 23.6458 8.11136 24.2173
628 2 27.6087 8.00648 24.2298
629 2 31.8549 8.07334 24.2671
630 2 35.6284 8.06297 24.2298
631 2 39.5829 12.0109 24.0671
632 2 3.98108 11.9518 24.2002
633 2 7.96578 12.116 24.0833
634 2 11.8611 11.7258 24.1467
635 2 15.7774 11.9512 24.0496
636 2 19.7951 12.0003 24.0056
637 2 23.7537 11.8771 24.1877
638 2 27.7119 11.8979 24.2406
639 2 31.6208 11.9415 24.1717
640 2 35.5269 12.0875 23.8253
641 2 39.4663 15.9788 24.2592
642 2 4.15586 16.1082 24.2006
643 2 8.1172 16.1598 24.0373
644 2 12.0129 15.62 24.155
645 2 15.8594 15.9518 24.2142
646 2 19.8936 15.7265 24.1606
647 2 23.6418 15.8138 24.2424
648 2 27.7453 15.8697 24.0922
649 2 31.7472 15.8805 24.2144
650 2 35.5745 15.9497 23.9676
651 2 -0.160628 19.9287 24.1345
652 2 3.81776 19.822 24.2018
653 2 7.80272 19.874 24.1228
654 2 11.9439 19.7879 23.9635
655 2 16.0978 19.7138 24.1526
656 2 19.7503 19.7729 24.2145
657 2 23.8576 19.85 24.2028
658 2 27.6882 19.6718 24.2664
659 2 31.6147 19.978 24.1434
660 2 35.611 19.8428 24.2343
661 2 0.0391884 24.0019 24.1772
662 2 3.96916 23.6477 24.1844
663 2 7.85408 23.9494 24.1274
664 2 11.7586 23.8003 24.2293
665 2 15.9665 23.9284 24.1157
666 2 19.7815 23.7356 24.1058
667 2 23.7702 23.5767 23.7026
668 2 27.5761 23.832 24.2713
669 2 31.729 23.7877 24.0509
670 2 35.5509 23.7299 24.0802
671 2 39.5957 27.7465 24.0625
672 2 3.98367 27.9183 24.324
673 2 7.95997 27.8766 24.1824
674 2 11.9254 27.891 24.0706
675 2 15.7255 27.9305 24.2234
676 2 19.6796 27.8365 24.1529
677 2 23.6594 27.8704 24.0615
678 2 27.731 27.8427 24.097
679 2 31.4875 27.8749 24.0606
680 2 35.5849 28.0252 24.1308
681 2 0.0639022 31.8874 24.0976
682 2 4.01524 31.8681 24.0921
683 2 8.24375 31.7486 23.986
684 2 11.9152 31.8156 24.1996
685 2 15.7898 31.7585 24.0569
686 2 19.7899 31.6784 24.1826
687 2 23.6735 31.6561 24.0993
688 2 27.5385 31.8449 24.1472
689 2 31.5945 31.9092 24.0431
690 2 35.5874 31.9517 24.0467
691 2 -0.0649305 35.5381 24.2062
692 2 4.12967 35.7177 24.1765
693 2 7.93968 35.4759 24.226
694 2 11.8509 35.6822 24.4025
695 2 15.9234 35.632 24.0457
696 2 19.9967 35.649 24.0359
697 2 23.7137 35.7268 24.0398
698 2 27.7112 35.7542 24.1616
699 2 31.5447 35.7139 24.0912
700 2 35.8065 35.6889 24.1532
701 2 0.0777625 39.8373 28.0441
702 2 3.90765 0.191934 28.0938
703 2 8.02224 39.8549 28.0916
704 2 11.9514 39.6176 28.1372
705 2 15.7292 39.6639 28.284
706 2 19.658 39.4975 28.1829
707 2 23.6577 39.6646 28.0865
708 2 27.5966 39.4772 28.1392
709 2 31.586 39.7211 28.1778
710 2 35.5851 39.6866 28.1592
711 2 -0.0630787 4.16826 28.1448
712 2 3.81806 3.8538 28.131
713 2 7.93606 4.10714 28.1815
714 2 11.896 3.98625 28.1477
715 2 15.7163 3.9796 28.1932
716 2 19.7246 3.84919 28.133
717 2 23.6556 4.04336 28.1697
718 2 27.6626 3.82604 28.1123
719 2 31.4235 3.99916 28.0742
720 2 35.4919 3.98755 28.0375
721 2 -0.0791445 8.09417 28.0307
722 2 3.90129 8.13616 27.9374
723 2 7.70471 8.08863 28.0238
724 2 11.7115 7.92568 27.9535
725 2 15.6534 8.16898 28.192
726 2 19.7369 8.07564 28.163
727 2 23.7131 7.9619 28.1836
728 2 27.5439 8.04726 27.9909
729 2 31.5982 8.1026 28.1881
730 2 35.4403 8.02389 28.0547
731 2 -0.204823 12.0589 27.9683
732 2 3.94933 12.0349 28.1013
733 2 7.81311 12.0839 28.3094
734 2 11.8468 11.945 28.063
735 2 15.6885 11.9283 28.3558
736 2 19.7032 11.9645 27.9763
737 2 23.7375 12.0091 28.0905
738 2 27.7289 12.0322 28.2233
739 2 31.7066 12.1779 28.1595
740 2 35.6902 12.1777 28.1222
741 2 -0.178851 16.0115 28.1192
742 2 3.82264 15.9731 28.1254
743 2 7.93789 15.7573 28.1933
744 2 11.571 15.9185 28.1147
745 2 15.7376 16.0049 28.2227
746 2 19.6366 15.8056 28.2121
747 2 23.6114 15.9031 28.0614
748 2 27.7187 15.862 28.084
749 2 31.5812 16.0271 28.1853
750 2 35.4382 15.8824 28.1339
751 2 -0.162808 20.1474 28.2173
752 2 3.92294 19.7542 28.1353
753 2 8.00176 19.8613 28.3062
754 2 11.7256 19.9832 28.0147
755 2 15.6021 19.7994 27.9945
756 2 19.842 19.6778 28.0788
757 2 23.7862 19.8016 28.2111
758 2 27.8837 19.7864 28.0921
759 2 31.6335 20.0548 27.9856
760 2 35.6545 19.8858 28.2046
761 2 -0.125716 23.9201 28.0345
762 2 3.8398 23.8057 28.2147
763 2 7.89859 23.8056 28.1766
764 2 11.6858 23.8432 28.1927
765 2 15.7334 23.8499 28.1835
766 2 19.8654 23.8387 28.15
767 2 23.5499 23.849 28.0837
768 2 27.712 23.5913 28.1677
769 2 31.7351 23.8041 27.9356
770 2 35.5101 24.1625 28.0143
771 2 39.7268 27.8793 28.0595
772 2 3.952 27.8629 28.1471
773 2 7.9029 27.8553 28.14
774 2 12.0029 27.7893 28.1464
775 2 15.7936 27.673 28.0777
776 2 19.726 27.7058 28.1399
777 2 23.7441 27.5866 28.2167
778 2 27.7909 27.6765 28.0143
779 2 31.6633 27.8572 28.1014
780 2 35.7689 27.9861 28.1309
781 2 0.0196352 31.9654 28.1962
782 2 3.86726 31.571 28.2352
783 2 7.96384 31.8179 28.1806
784 2 12.099 31.6553 28.2601
785 2 15.8506 31.6519 28.2512
786 2 19.7078 31.7295 28.333
787 2 23.7825 31.6859 28.3417
788 2 27.7543 31.774 28.0861
789 2 31.6179 31.7634 28.0827
790 2 35.3939 31.9178 27.9157
791 2 -0.0516216 35.8113 28.1663
792 2 3.97007 35.7475 28.145
793 2 8.00505 35.7416 28.0999
794 2 11.743 35.7892 28.1455
795 2 15.6686 35.8847 28.0231
796 2 19.7993 35.5607 28.0646
797 2 23.6577 35.5914 28.0577
798 2 27.5876 35.7278 28.0306
799 2 31.6597 35.6654 28.2783
800 2 35.587 35.7915 28.1801
801 2 -0.0741563 39.8358 32.0061
802 2 3.86275 0.0864054 32.148
803 2 7.91231 -0.0836258 32.1326
804 2 11.7857 39.5827 31.98
805 2 15.8841 0.0981908 32.2166
806 2 19.6869 -0.0237945 32.0512
807 2 23.7698 39.536 31.9067
808 2 27.5641 39.4703 31.9987
809 2 31.6447 39.5814 32.1362
810 2 35.4943 39.6032 32.2222
811 2 -0.200842 4.03555 32.0954
812 2 3.84476 4.02912 32.0013
813 2 7.83221 3.86547 32.1545
814 2 11.7422 3.96687 32.0776
815 2 15.8786 4.04939 32.2039
816 2 19.7116 4.31814 31.9053
817 2 23.6057 4.03317 32.0996
818 2 27.7045 3.81924 31.9622
819 2 31.5337 4.12485 31.9596
820 2 35.5013 3.83509 32.1817
821 2 39.5239 8.039 32.1337
822 2 3.90823 7.94949 32.2429
823 2 7.82109 7.93244 31.8911
824 2 11.7149 7.83084 32.1328
825 2 15.668 7.94461 32.2099
826 2 19.7203 8.04579 32.2303
827 2 23.5357 8.04486 32.1977
828 2 27.6292 7.85235 32.0462
829 2 31.5154 7.92361 32.2112
830 2 35.4326 7.75764 32.098
831 2 -0.0590499 11.792 31.965
832 2 3.70098 12.1049 32.0277
833 2 7.83633 12.0059 32.1284
834 2 11.7271 11.754 32.0228
835 2 15.7023 11.9318 32.0108
836 2 19.6912 11.9328 32.073
837 2 23.6782 11.9878 32.2779
838 2 27.4653 11.8022 32.0178
839 2 31.6212 11.8855 32.162
840 2 35.6292 12.0084 32.1659
841 2 -0.134188 15.9134 32.2024
842 2 3.77014 15.9204 32.1109
843 2 7.91145 16.0448 32.2461
844 2 11.7421 15.8492 32.1929
845 2 15.6606 15.7914 32.0913
846 2 19.4506 15.8435 32.1149
847 2 23.5357 16.0291 32.1085
848 2 27.5644 15.7582 32.0938
849 2 31.4565 15.8465 32.2201
850 2 35.4086 16.0232 32.0768
851 2 -0.17263 19.9084 32.1596
852 2 3.91567 19.8314 32.057
853 2 7.75169 19.8747 32.2132
854 2 11.8773 19.9439 32.0744
855 2 15.7217 19.8391 32.1322
856 2 19.5766 19.8714 31.8321
857 2 23.7917 19.6215 32.043
858 2 27.6141 19.8379 32.0432
859 2 31.7392 19.8492 32.2153
860 2 35.6857 20.121 32.0951
861 2 0.167039 23.799 32.0072
862 2 3.89529 24.0246 32.0654
863 2 7.76621 23.7843 32.0254
864 2 11.8284 23.9125 32.246
865 2 15.7916 23.4369 32.194
866 2 19.5746 23.8074 32.1544
867 2 23.536 23.6668 32.1076
868 2 27.4521 23.9654 32.1844
869 2 31.4565 23.6863 32.0604
870 2 35.4578 23.9791 31.884
871 2 -0.123342 27.98 32.2927
872 2 3.95115 27.7709 32.2041
873 2 7.74549 27.8566 32.1493
874 2 11.8822 27.707 32.0777
875 2 15.8235 27.8058 32.0628
876 2 19.8163 27.6482 32.2332
877 2 23.5728 27.733 32.2503
878 2 27.4809 27.6282 32.0751
879 2 31.6168 27.6736 32.029
880 2 35.5476 27.9032 32.2373
881 2 -0.0198825 31.7156 32.2384
882 2 4.09139 31.8908 31.9282
883 2 7.97583 31.7425 32.1129
884 2 11.8821 31.6895 32.1246
885 2 15.9266 31.9468 32.2127
886 2 19.8187 31.7441 32.0001
887 2 23.8328 31.4903 32.3425
888 2 27.5219 31.5658 32.1618
889 2 31.533 31.6075 32.2967
890 2 35.8021 31.8506 31.9985
891 2 0.00637616 35.8687 32.1188
892 2 4.17632 35.7754 32.1836
893 2 7.70702 35.8959 32.1663
894 2 11.7923 35.7294 31.9323
895 2 16.0986 35.6712 32.114
896 2 19.9282 35.7094 32.2706
897 2 23.6647 35.6091 32.2045
898 2 27.5791 35.6466 32.1017
899 2 31.374 35.618 32.0205
900 2 35.5908 35.8798 32.1531
901 2 -0.215532 0.107774 36.1742
902 2 3.91311 0.153447 36.1132
903 2 7.90877 0.0690426 36.1725
904 2 11.7779 0.0206216 36.0684
905 2 15.8201 -0.148677 36.1469
906 2 19.8354 0.0698694 36.1213
907 2 23.8745 39.6523 35.777
908 2 27.7738 39.746 35.9887
909 2 31.5186 0.102772 36.1159
910 2 35.6998 -0.0238839 36.2204
911 2 -0.0963274 3.9608 36.15
912 2 3.81071 4.00165 36.2469
913 2 7.83407 3.96285 36.0762
914 2 11.7967 3.73186 36.182
915 2 15.6575 3.97072 36.0672
916 2 19.8831 3.82227 36.0498
917 2 23.6909 4.02577 36.0912
918 2 27.5094 3.97977 35.9519
919 2 31.596 4.21675 36.0143
920 2 35.4056 3.95054 35.9195
921 2 -0.0456634 7.85177 35.996
922 2 3.90468 7.81854 36.1839
923 2 8.00423 8.02229 36.0011
924 2 11.8069 7.87646 36.2316
925 2 15.69 7.76816 35.8615
926 2 19.692 8.01842 36.1198
927 2 23.6675 7.84338 36.1629
928 2 27.5074 7.87094 36.1298
929 2 31.4751 8.09266 36.1271
930 2 35.457 7.8996 35.9945
931 2 -0.132595 11.8024 36.0448
932 2 3.73351 11.7972 35.937
933 2 7.83539 11.9166 36.044
934 2 11.7362 12.0104 36.1536
935 2 15.7103 11.7671 36.0357
936 2 19.7167 11.7635 36.116
937 2 23.7681 12.0325 36.0051
938 2 27.6038 11.7689 36.287
939 2 31.6031 11.7889 36.0359
940 2 35.6026 12.0432 36.0485
941 2 -0.149673 16.0456 35.9215
942 2 3.84817 15.859 36.1711
943 2 7.73526 15.8901 36.1874
944 2 11.7468 15.8631 36.1937
945 2 15.8157 15.7785 36.0421
946 2 19.7394 15.7571 36.184
947 2 23.719 15.8229 36.1304
948 2 27.603 15.7518 36.1685
949 2 31.5356 15.9096 36.0306
950 2 35.6186 15.8039 36.171
951 2 -0.115454 19.8518 36.0764
952 2 3.77327 19.8564 36.0795
953 2 7.68613 19.91 36.0967
954 2 11.8056 19.6022 36.1326
955 2 15.5494 19.7483 36.0405
956 2 19.6684 19.764 35.9654
957 2 23.3503 19.717 36.0186
958 2 27.5089 19.7994 35.8521
959 2 31.5503 19.767 35.989
960 2 35.6099 19.8407 35.8581
961 2 -0.138994 23.8544 35.963
962 2 4.03789 23.6739 36.0532
963 2 7.92076 23.7018 35.9382
964 2 11.8189 23.8615 36.2166
965 2 15.6937 23.7394 36.0648
966 2 19.7114 23.596 36.1152
967 2 23.6713 23.7615 36.0746
968 2 27.5732 23.824 36.1374
969 2 31.5011 23.7645 35.9755
970 2 35.5414 23.7562 36.121
971 2 -0.0341658 27.7409 36.1594
972 2 4.01951 27.6088 36.0127
973 2 7.95705 27.7265 35.9857
974 2 11.8249 27.6084 36.1304
975 2 15.5216 27.8072 36.0203
976 2 19.4351 27.7221 36.0513
977 2 23.4947 27.8333 36.2556
978 2 27.579 27.4554 36.0088
979 2 31.6341 27.8262 36.1612
980 2 35.395 27.7518 36.0123
981 2 0.0818071 31.5463 36.1354
982 2 3.90966 31.5628 36.0309
983 2 7.79084 31.6811 36.1044
984 2 11.6422 31.5707 36.093
985 2 15.8379 31.6802 36.0418
986 2 19.6497 31.6689 36.0169
987 2 23.8828 31.8058 36.2751
988 2 27.6177 31.7545 36.0773
989 2 31.625 31.874 36.0453
990 2 35.4714 31.658 36.2059
991 2 -0.1069 35.7203 36.168
992 2 3.85314 35.5378 36.1328
993 2 7.7857 35.6955 36.0783
994 2 11.7318 35.5643 36.0866
995 2 15.7493 35.5887 36.2487