ITEM: TIMESTEP
49800
ITEM: NUMBER OF ATOMS
7500
ITEM: BOX BOUNDS xy xz yz pp pp pp
0.0000000000000000e+00 3.9579999999999998e+01 0.0000000000000000e+00
0.0000000000000000e+00 3.9579999999999998e+01 0.0000000000000000e+00
-1.5701365110327714e-02 5.9715701365110760e+01 0.0000000000000000e+00
ITEM: ATOMS id type x y z
1 2 39.6977 39.4346 0.30725
2 2 4.0937 -0.0269813 0.269721
3 2 8.0158 -0.243496 0.236379
4 2 11.8007 0.0584102 0.309275
5 2 15.7284 39.6127 0.207849
6 2 19.8362 0.0916983 0.155485
7 2 23.7856 0.0046989 0.0246012
8 2 27.8944 39.5327 0.306594
9 2 31.721 39.2997 0.326551
10 2 35.5006 39.1504 0.295609
11 2 39.706 3.79061 0.374343
12 2 3.99236 3.60854 0.183542
13 2 8.0358 3.99975 0.267467
14 2 11.8787 3.97471 0.0752317
15 2 15.9533 4.09783 0.189868
16 2 19.8379 4.10847 0.226311
17 2 24.1614 3.95228 0.0260653
18 2 27.9168 3.81585 0.315019
19 2 31.8197 3.87046 0.210258
20 2 35.6851 3.84269 0.287063
21 2 39.6984 7.78763 0.354119
22 2 4.03876 7.83726 0.252603
23 2 8.04826 7.80766 0.220004
24 2 11.9915 7.9564 60.0131
25 2 16.0071 7.99704 0.125353
26 2 20.0514 8.01548 0.131767
27 2 23.9807 7.81673 0.338459
28 2 27.7974 7.88668 0.404895
29 2 31.9101 7.70248 0.351008
30 2 35.5686 7.75957 0.341213
31 2 39.6588 11.9261 0.313625
32 2 4.12288 11.8504 0.123667
33 2 8.09934 11.8539 0.133413
34 2 12.0562 11.8519 0.111533
35 2 16.1088 11.9638 0.326977
36 2 19.9773 12.0054 0.0627386
37 2 23.9213 11.9792 0.2352
38 2 27.8684 11.6003 0.276653
39 2 31.8894 11.759 0.231583
40 2 35.7091 11.8165 0.264547
41 2 39.5699 15.5426 0.28354
42 2 3.98744 15.806 0.424314
43 2 8.12828 15.8148 0.297945
44 2 11.8752 15.8626 0.230006
45 2 15.9158 15.9748 0.111475
46 2 19.7375 16.0378 0.0766667
47 2 23.8354 15.8461 0.276057
48 2 27.9788 15.9669 0.371346
49 2 31.6341 15.8116 0.393856
50 2 35.8075 15.6751 0.205544
51 2 39.772 19.8412 0.254326
52 2 3.97668 19.6553 0.290487
53 2 7.91186 19.8638 0.458495
54 2 11.8751 19.5967 0.0325413
55 2 15.9302 19.9503 0.235941
56 2 20.0161 19.7721 0.292091
57 2 23.8886 19.8601 0.445666
58 2 27.8125 19.7565 0.569749
59 2 31.9554 19.9177 0.227458
60 2 35.9864 19.7116 0.268429
61 2 39.7146 23.7225 0.278332
62 2 4.14212 23.6106 0.25868
63 2 7.9925 23.6636 0.313687
64 2 12.1035 23.7214 0.217681
65 2 15.927 23.8298 0.227715
66 2 20.033 23.7063 0.325417
67 2 23.9877 23.678 0.165684
68 2 27.8121 23.5873 0.357495
69 2 31.8881 23.6679 0.306384
70 2 35.6472 23.5325 0.416254
71 2 39.6385 27.6317 0.14954
72 2 4.05969 27.6212 0.198101
73 2 8.13249 27.6313 0.119858
74 2 12.2131 27.6677 -0.00727348
75 2 15.8361 27.6577 0.157832
76 2 19.9562 27.7364 0.21312
77 2 24.0861 27.7297 0.292601
78 2 27.9735 27.4947 0.386176
79 2 31.7913 27.5543 0.253193
80 2 35.7028 27.5204 0.247512
81 2 39.6489 31.5397 0.248998
82 2 4.10252 31.5059 0.247446
83 2 8.2368 31.4958 0.099057
84 2 12.0735 31.5154 0.215702
85 2 16.1124 31.7249 0.222129
86 2 19.7009 31.6639 0.177773
87 2 23.9438 31.6406 0.0463863
88 2 27.7099 31.7195 0.351151
89 2 31.9373 31.4527 0.300273
90 2 35.7813 31.5076 0.301208
91 2 39.7599 35.5382 0.221095
92 2 4.08061 35.6195 0.338579
93 2 7.94786 35.4248 0.232976
94 2 11.9848 35.4162 0.297778
95 2 15.881 35.6041 0.285828
96 2 19.8597 35.6153 0.333931
97 2 23.7205 35.7755 0.309406
98 2 27.7381 35.5846 0.313975
99 2 31.7588 35.4607 0.0775078
100 2 35.6904 35.5164 0.32336
101 2 39.5186 -0.0231943 4.18432
102 2 4.19187 39.3536 4.36464
103 2 8.00276 0.183848 4.34969
104 2 11.974 0.0402239 4.12453
105 2 15.9757 0.182598 3.99954
106 2 19.907 39.6103 4.12942
107 2 23.9159 39.5942 4.17795
108 2 27.8256 39.5342 4.36062
109 2 31.7101 0.232671 4.25732
110 2 35.7376 39.6501 4.30379
111 2 39.6614 4.00225 4.05928
112 2 4.08262 3.72916 4.36429
113 2 8.0773 4.08384 4.19133
114 2 12.0068 3.99578 4.10483
115 2 15.9199 4.00392 4.27367
116 2 19.9414 4.00255 4.17495
117 2 23.8126 3.8155 4.1692
118 2 27.8661 4.17288 4.3648
119 2 31.6795 4.05497 4.46017
120 2 35.553 3.98037 4.31958
121 2 0.0711459 8.1024 4.23042
122 2 3.9714 7.90093 4.11941
123 2 7.75416 7.98214 4.23521
124 2 12.0359 7.85119 4.12161
125 2 16.0413 8.04814 4.25963
126 2 19.9832 8.01382 4.31433
127 2 23.6251 7.86993 4.32003
128 2 27.7107 7.76821 4.2419
129 2 31.9528 7.75595 4.46053
130 2 36.004 7.78476 4.35489
131 2 39.6346 11.8616 4.20386
132 2 4.12111 11.8916 4.08605
133 2 8.05101 11.7414 4.203
134 2 11.9297 11.9942 4.16173
135 2 15.9727 11.9825 4.19449
136 2 19.9913 11.8822 4.14503
137 2 23.8453 11.8421 4.22097
138 2 27.9604 11.9928 4.2776
139 2 31.9029 11.7842 4.33764
140 2 35.8475 11.7554 3.98822
141 2 39.6665 15.7866 4.31648
142 2 4.07 15.807 4.12954
143 2 7.98682 15.8283 4.33305
144 2 12.0429 15.8514 4.28327
145 2 15.9733 15.8336 4.20406
146 2 19.9288 15.744 4.37176
147 2 23.8392 15.758 4.14438
148 2 27.8343 15.7718 4.43574
149 2 31.7686 15.7046 4.18366
150 2 35.6326 15.9964 4.24949
151 2 0.128607 19.7334 4.44961
152 2 4.02519 19.7732 4.21136
153 2 8.1074 19.8679 4.33963
154 2 12.1835 19.791 4.00939
155 2 15.8914 19.7591 4.19449
156 2 19.8699 19.6648 4.09871
157 2 23.861 19.5873 4.33284
158 2 27.8707 19.865 4.22689
159 2 31.9741 19.6023 4.20354
160 2 35.9038 19.719 4.11799
161 2 39.7777 23.9044 4.39347
162 2 4.112 23.87 4.34588
163 2 8.27337 23.9084 4.44089
164 2 12.2725 23.7928 4.07439
165 2 16.0848 23.8298 4.14389
166 2 19.7138 24.0374 4.41949
167 2 23.7693 23.6692 4.25267
168 2 27.8236 23.6533 4.41021
169 2 31.7439 23.8333 4.31518
170 2 35.7536 23.8653 4.39458
171 2 39.6759 27.8575 4.0781
172 2 4.28784 27.8385 4.16836
173 2 8.1478 27.6827 4.16266
174 2 12.1743 27.812 4.13404
175 2 16.1068 27.7561 4.0014
176 2 19.8759 28.0243 4.19687
177 2 23.7447 27.7328 4.23478
178 2 27.9021 27.7097 4.18193
179 2 31.7173 27.7381 4.32959
180 2 35.9362 27.7886 4.29387
181 2 0.274554 31.4544 4.27362
182 2 4.2246 31.5846 4.11612
183 2 8.14604 31.7769 4.22028
184 2 12.1791 31.6175 4.16403
185 2 16.124 31.7827 4.25695
186 2 20.1321 31.672 4.11391
187 2 23.9484 31.6699 4.28903
188 2 27.9856 31.552 4.24361
189 2 31.7839 31.552 4.16292
190 2 35.8157 31.8217 4.21947
191 2 0.106005 35.2202 4.16696
192 2 4.23056 35.5877 4.30635
193 2 8.01859 35.3859 4.27384
194 2 11.9395 35.5712 4.22498
195 2 15.9504 35.6916 4.31202
196 2 20.0383 35.7378 4.05093
197 2 23.9142 35.6993 4.24778
198 2 27.8643 35.5234 4.17775
199 2 31.6734 35.5312 4.28621
200 2 35.6593 35.5545 4.22541
201 2 39.7743 39.5836 8.09097
202 2 4.12983 39.5093 8.26037
203 2 8.11878 39.6275 8.18394
204 2 11.9879 0.0563059 8.12042
205 2 15.865 0.205053 8.16954
206 2 19.8038 39.6778 8.33396
207 2 23.9304 39.4892 8.14772
208 2 27.8063 -0.0688816 8.43575
209 2 31.9402 39.4807 8.31844
210 2 35.8356 39.3973 8.27504
211 2 39.8038 4.02977 8.2974
212 2 4.10652 3.97142 8.27594
213 2 7.91408 4.05612 8.10646
214 2 11.844 3.87976 7.97743
215 2 15.8992 4.2081 8.07392
216 2 19.9414 3.90294 8.1349
217 2 23.8724 3.86421 8.06959
218 2 27.9031 3.90933 8.41757
219 2 31.9471 3.95422 8.39688
220 2 35.8137 3.92169 8.29375
221 2 39.809 7.97937 8.2348
222 2 4.00401 8.05018 8.08868
223 2 8.01912 8.09238 8.26208
224 2 11.882 8.1748 8.08872
225 2 15.9826 8.03185 8.32359
226 2 19.9736 8.05425 8.05448
227 2 23.936 7.99423 8.10769
228 2 27.8235 8.03594 8.21611
229 2 31.9447 7.97912 8.1757
230 2 36.007 7.98651 8.23947
231 2 39.7579 12.0727 8.17698
232 2 4.13016 11.7894 8.28221
233 2 8.00396 11.8853 8.3063
234 2 11.9964 11.9682 8.37012
235 2 15.9365 11.7752 8.26127
236 2 19.9729 11.9983 8.15043
237 2 23.8068 11.8448 8.19387
238 2 27.7786 11.8065 7.93527
239 2 31.7526 11.8787 8.42987
240 2 35.654 11.9586 8.21495
241 2 39.78 15.9185 8.04574
242 2 4.1447 16.0013 8.14979
243 2 8.0702 15.7159 7.99555
244 2 12.0509 15.9042 8.34513
245 2 15.9617 16.0966 8.13884
246 2 19.8954 15.7513 8.28672
247 2 23.8601 15.8384 8.18412
248 2 27.959 15.8558 8.18807
249 2 31.9564 15.6591 8.35346
250 2 35.8648 15.8641 8.06841
251 2 39.6841 19.9138 8.324
252 2 4.08877 19.8794 8.30652
253 2 8.21173 19.7215 7.9843
254 2 11.8129 19.9891 8.31959
255 2 15.9985 19.7298 8.15627
256 2 19.8698 19.8044 8.17705
257 2 24.0043 19.8697 8.13137
258 2 27.9549 19.734 8.22924
259 2 31.8528 19.8255 8.33609
260 2 35.8249 20.0721 8.3747
261 2 39.6907 23.9055 8.23588
262 2 4.26324 23.7735 8.3489
263 2 8.03773 23.8362 8.332
264 2 12.2358 23.8116 8.3063
265 2 16.0082 23.7366 8.05096
266 2 19.9621 23.6838 8.29822
267 2 24.0018 23.7797 8.05757
268 2 27.9248 23.731 8.29508
269 2 31.9042 23.8223 8.20738
270 2 35.5481 23.8708 8.17255
271 2 0.328773 27.8542 8.21427
272 2 4.16842 27.6007 8.22138
273 2 8.25298 27.5495 8.27862
274 2 12.1123 27.6545 8.41385
275 2 15.8363 27.9319 8.26502
276 2 19.851 27.8245 8.20418
277 2 23.9053 27.6816 8.23374
278 2 27.7688 27.512 8.15168
279 2 31.8268 27.6567 8.30287
280 2 35.8692 27.8308 8.05831
281 2 0.0638339 31.807 8.20951
282 2 4.20538 31.6802 8.31061
283 2 8.12198 31.53 8.36302
284 2 12.1566 31.6508 8.27686
285 2 15.9981 31.8224 8.1361
286 2 19.726 31.7272 8.14781
287 2 23.8306 31.6276 8.24163
288 2 27.9008 31.6846 8.20742
289 2 31.7262 31.6076 8.36364
290 2 35.5671 31.7956 8.19667
291 2 39.5667 35.7772 8.24902
292 2 4.00942 35.4737 8.31782
293 2 8.04633 35.5088 8.12618
294 2 12.2288 35.77 8.21647
295 2 16.1468 35.7638 8.20242
296 2 19.9111 35.8448 8.12431
297 2 23.8416 35.7273 8.02858
298 2 27.842 35.7989 8.17711
299 2 31.8522 35.4807 8.156
300 2 35.8165 35.7527 8.18453
301 2 39.6945 39.5021 12.1337
302 2 4.19281 39.577 12.2401
303 2 8.26041 39.6581 12.1222
304 2 12.0142 39.795 12.1249
305 2 15.8838 39.7533 12.1341
306 2 19.8499 0.0664931 12.4339
307 2 23.6938 0.140253 12.3425
308 2 27.7079 0.156411 12.4139
309 2 31.7503 0.0753324 12.2756
310 2 35.6815 39.481 12.1951
311 2 39.5733 3.9528 12.2348
312 2 4.11622 3.90076 12.0481
313 2 8.01327 4.01458 12.1791
314 2 12.0659 4.06029 12.0436
315 2 15.939 4.19696 12.0971
316 2 19.9073 4.10658 12.0787
317 2 23.858 4.11376 12.1468
318 2 27.6543 4.00929 12.1723
319 2 31.7101 4.17794 12.1792
320 2 35.7293 3.89718 12.0901
321 2 39.6193 8.07011 12.2051
322 2 3.9881 7.8038 12.1775
323 2 7.94111 7.95842 12.2377
324 2 12.0573 8.16816 12.1453
325 2 16.1043 7.96901 12.1202
326 2 20.1125 8.00797 12.2461
327 2 23.9413 7.98346 12.162
328 2 27.8121 8.23348 12.2168
329 2 31.6973 7.92267 12.2285
330 2 36.0392 8.09543 12.1429
331 2 39.5445 11.9853 11.8006
332 2 4.06953 11.9466 12.2466
333 2 8.06508 11.894 12.2047
334 2 11.7499 11.8321 12.3444
335 2 16.1849 11.8977 12.0718
336 2 19.9599 11.9433 12.1281
337 2 23.7093 12.0547 12.1305
338 2 27.6961 12.0459 12.1542
339 2 31.8912 11.7598 12.2822
340 2 35.6576 12.0085 12.3004
341 2 39.7774 16.1027 12.1983
342 2 4.00256 15.9115 12.2335
343 2 7.85353 15.9766 12.2619
344 2 12.0325 16.0225 12.1978
345 2 15.8049 16.0571 12.2338
346 2 19.8272 15.9086 12.1357
347 2 23.8536 15.9326 12.2653
348 2 27.7681 15.7545 12.2394
349 2 31.7187 15.8682 12.1671
350 2 35.8091 15.7435 12.3144
351 2 0.172756 19.8968 12.2076
352 2 4.24848 19.773 12.1781
353 2 7.90536 19.7636 12.1384
354 2 11.9952 19.8322 12.0436
355 2 15.9945 19.8749 12.2141
356 2 19.8895 19.8852 12.271
357 2 23.9385 19.8976 12.087
358 2 27.6413 19.7312 12.0388
359 2 31.7359 19.5963 12.3244
360 2 35.8033 19.7177 12.1441
361 2 -0.0440429 23.8236 12.295
362 2 4.03303 23.6986 12.2168
363 2 7.89437 23.8016 12.3251
364 2 11.8905 23.7617 12.1972
365 2 15.953 23.7227 12.2025
366 2 19.9759 23.9056 12.0818
367 2 24.102 23.7605 12.0193
368 2 27.6909 23.6366 12.1638
369 2 31.6899 23.9488 11.9999
370 2 35.9649 23.7703 12.3446
371 2 39.6634 27.9344 12.3296
372 2 3.89048 27.6895 12.2211
373 2 8.02299 27.812 12.3786
374 2 11.8059 27.8631 12.2603
375 2 15.9051 27.8894 12.2457
376 2 19.8133 27.8542 12.2447
377 2 23.846 27.7038 12.3038
378 2 27.7763 27.6243 12.2244
379 2 31.8175 27.9313 12.1671
380 2 35.7462 27.8551 12.1645
381 2 0.036187 31.8099 12.2106
382 2 4.05319 31.649 12.2102
383 2 7.97751 31.8437 12.0679
384 2 11.7973 31.7008 12.0808
385 2 15.7463 31.7264 12.2555
386 2 19.9145 31.7435 12.0442
387 2 23.8657 31.8152 12.1909
388 2 27.8927 31.6513 12.0847
389 2 31.692 31.6718 12.159
390 2 35.7206 31.8128 12.1359
391 2 39.7505 35.5319 12.2759
392 2 4.16364 35.5407 12.292
393 2 7.94941 35.6401 12.1616
394 2 11.9315 35.8965 12.144
395 2 15.7719 35.6812 12.07
396 2 19.6643 35.5566 12.1455
397 2 23.8728 35.6168 12.1892
398 2 27.4826 35.7599 12.0401
399 2 31.6307 35.6866 12.1614
400 2 35.7627 35.4588 12.2281
401 2 -0.0694368 39.6701 16.2002
402 2 4.04999 39.8375 16.0459
403 2 7.92647 39.7767 15.9279
404 2 11.8047 0.147736 16.1662
405 2 16.0759 39.7096 16.1861
406 2 19.7883 39.5644 16.2472
407 2 23.8376 -0.051466 16.1705
408 2 27.7768 39.7282 16.1307
409 2 31.6179 39.6354 16.1836
410 2 35.7111 39.7226 15.9758
411 2 39.6411 3.95285 16.2885
412 2 4.03012 4.0229 16.3397
413 2 8.00948 4.1379 16.0634
414 2 11.9947 4.0592 15.9112
415 2 15.9036 4.09805 16.1352
416 2 19.7404 4.22662 16.011
417 2 23.8877 4.1622 16.3733
418 2 27.7678 4.14865 15.9624
419 2 31.7194 4.21137 16.1468
420 2 35.4676 4.14075 16.1896
421 2 0.255805 7.89353 16.2193
422 2 4.12366 8.03485 16.2572
423 2 7.83699 8.04686 16.1196
424 2 11.9457 7.90704 16.0296
425 2 15.8809 8.02008 16.0739
426 2 19.7117 8.08009 16.1828
427 2 23.6848 8.0631 16.2596
428 2 27.8866 7.99248 16.1093
429 2 31.5996 7.80313 16.204
430 2 35.5886 7.93826 16.2361
431 2 39.5468 11.83 16.2468
432 2 3.93954 12.004 16.1802
433 2 8.03343 11.8839 16.2495
434 2 12.1091 11.7915 16.0684
435 2 15.8732 12.1847 16.2445
436 2 19.8168 12.0283 16.1139
437 2 23.8765 11.8744 16.2415
438 2 27.8126 12.0525 16.15
439 2 31.9028 11.7482 16.1559
440 2 35.7595 12.1134 15.9749
441 2 -0.132431 16.0162 16.1388
442 2 3.74983 15.8905 16.1537
443 2 8.00465 15.9786 16.1213
444 2 11.7532 15.7725 16.0339
445 2 15.8586 16.062 16.2144
446 2 19.7649 15.9577 16.2347
447 2 23.7967 15.9159 16.344
448 2 27.7815 15.8542 16.2506
449 2 31.6166 15.9481 16.2579
450 2 35.6979 16.0407 16.094
451 2 39.5424 19.9178 16.1545
452 2 3.84127 19.8898 16.3149
453 2 7.909 19.8662 16.3258
454 2 11.7923 19.8712 16.0182
455 2 16.0418 19.8371 16.2892
456 2 19.8885 19.9432 16.0645
457 2 23.8183 19.8435 15.9372
458 2 27.6325 19.9791 16.1088
459 2 31.6031 19.864 16.1639
460 2 35.6555 19.785 15.8711
461 2 39.4673 23.6817 16.0708
462 2 3.82941 23.7991 16.2578
463 2 7.89807 23.7847 16.2658
464 2 11.9203 23.5664 15.9165
465 2 15.8477 23.8967 16.2516
466 2 19.7308 23.898 16.2209
467 2 23.6217 23.8327 16.2514
468 2 27.883 23.8438 16.165
469 2 31.7699 23.671 16.2607
470 2 35.5047 23.8023 16.0472
471 2 -0.0362266 27.7695 16.2738
472 2 3.9282 27.8829 16.1242
473 2 7.83485 27.5736 16.2856
474 2 11.8027 27.749 16.3573
475 2 15.6581 27.7161 16.1406
476 2 19.9289 27.5988 16.1179
477 2 23.7428 27.7672 16.1445
478 2 27.6606 27.6224 16.341
479 2 31.7516 27.7631 16.1159
480 2 35.5176 27.8498 16.11
481 2 0.0262525 31.5771 16.3344
482 2 3.99468 31.6832 16.4287
483 2 7.96243 31.765 16.0677
484 2 11.7522 31.6914 16.1898
485 2 15.9164 31.7109 16.0469
486 2 19.669 31.8281 16.3009
487 2 23.8117 31.6339 16.214
488 2 27.6399 32.0308 15.9906
489 2 31.6305 31.7884 15.976
490 2 35.8063 31.8767 16.2492
491 2 0.162388 35.6446 16.2122
492 2 4.20427 35.8004 16.1645
493 2 8.25193 35.7844 16.1321
494 2 11.9874 35.7389 16.1578
495 2 15.8612 35.7113 15.9875
496 2 19.9637 35.7576 16.1507
497 2 23.662 35.6235 16.3145
498 2 27.7785 35.898 16.2002
499 2 31.6414 35.9266 16.0655
500 2 35.6725 35.8487 16.0789
501 2 -0.0661335 39.5866 20.138
502 2 3.92068 39.6898 20.18
503 2 7.81709 39.6978 20.1748
504 2 11.86 39.7925 20.1338
505 2 15.8623 39.6809 20.0669
506 2 19.7923 39.7213 20.1066
507 2 23.6887 39.7618 20.2118
508 2 27.6225 39.6399 20.3176
509 2 31.4187 39.8486 20.0433
510 2 35.6225 39.6101 20.0663
511 2 -0.125422 4.10138 20.1767
512 2 3.84319 3.87326 20.2534
513 2 7.91219 3.98752 20.2327
514 2 11.8643 4.13071 20.0022
515 2 15.7886 3.85123 19.8716
516 2 19.754 4.01847 20.2799
517 2 23.6447 4.10436 20.0875
518 2 27.4524 3.97997 20.1249
519 2 31.6168 3.97272 20.1558
520 2 35.2748 4.06672 20.0979
521 2 -0.0117354 8.18924 20.0159
522 2 3.88827 8.03439 20.1118
523 2 7.88151 7.96866 20.0122
524 2 12.0295 7.87416 20.2278
525 2 15.9098 8.06359 20.3172
526 2 19.9174 8.0292 20.1195
527 2 23.6984 7.96379 20.1457
528 2 27.5853 8.15706 20.2156
529 2 31.688 8.05623 20.2901
530 2 35.6588 8.03033 20.2215
531 2 -0.0444323 11.9192 20.2554
532 2 3.93052 12.0844 20.0769
533 2 8.04341 11.8917 20.1189
534 2 11.903 11.8394 20.2276
535 2 15.7197 11.8058 19.9716
536 2 19.7782 11.8028 20.1
537 2 23.8621 11.9799 20.1986
538 2 27.7067 12.0953 20.129
539 2 31.695 11.8517 20.2779
540 2 35.4913 12.1007 19.9857
541 2 0.13166 15.9934 20.0289
542 2 4.30476 15.8217 19.9048
543 2 7.88839 15.7121 19.9817
544 2 11.883 15.9806 20.0414
545 2 15.9324 15.8902 20.0708
546 2 19.7191 15.8337 20.0945
547 2 23.6948 15.9761 20.0811
548 2 27.6416 15.9981 20.0805
549 2 31.8626 15.8566 20.1603
550 2 35.6391 16.0196 20.1991
551 2 39.7175 19.8928 20.1725
552 2 3.92388 19.629 20.1771
553 2 7.82235 19.6847 20.1775
554 2 11.8398 19.7999 20.2902
555 2 15.6718 19.8106 20.0031
556 2 19.8749 19.7289 20.1786
557 2 23.6352 19.851 20.0755
558 2 27.7459 19.8064 20.0642
559 2 31.7167 19.808 20.3387
560 2 35.7476 19.9278 20.1219
561 2 39.5882 23.9183 20.1148
562 2 4.03583 23.679 20.1477
563 2 7.83662 23.7656 20.1627
564 2 11.7875 23.6794 20.1884
565 2 15.6636 23.8833 19.9494
566 2 19.6698 23.7172 20.2879
567 2 23.9029 23.8618 20.1606
568 2 27.6766 23.9274 20.0765
569 2 31.4967 23.8706 20.0253
570 2 35.6036 23.8693 20.1859
571 2 39.7912 27.614 20.1284
572 2 4.07188 27.8547 20.3745
573 2 8.03821 27.6332 20.3025
574 2 11.9468 27.6576 20.1197
575 2 15.7107 27.7619 20.1714
576 2 19.5751 27.6858 20.2944
577 2 23.709 27.7719 20.2088
578 2 27.7996 27.8711 20.1281
579 2 31.6106 27.8279 20.0184
580 2 35.5767 27.6363 19.97
581 2 39.4224 31.934 20.1431
582 2 4.03258 31.9134 20.1874
583 2 7.85353 31.6409 20.2697
584 2 11.8452 31.66 19.9694
585 2 15.8623 31.6472 20.0425
586 2 19.6715 31.6814 20.2107
587 2 23.9085 31.7075 19.9718
588 2 27.7939 31.7951 20.113
589 2 31.4807 31.8653 19.9426
590 2 35.5451 31.8033 20.1191
591 2 -0.0924806 35.6212 20.1674
592 2 3.91129 35.7499 20.1493
593 2 7.77301 35.9105 20.0314
594 2 11.9374 35.6561 20.1505
595 2 15.5935 35.6977 20.0779
596 2 19.8098 35.6509 20.1654
597 2 23.7133 35.6584 20.3002
598 2 27.609 35.6089 20.347
599 2 31.6502 35.8208 20.0622
600 2 35.4349 35.7921 20.1715
601 2 0.11056 39.6698 24.1886
602 2 3.99533 39.5564 24.3088
603 2 7.88139 39.5825 24.1815
604 2 11.7593 0.223209 24.0935
605 2 15.6974 0.0280774 24.1498
606 2 19.8139 39.6945 24.1405
607 2 23.7364 39.6193 24.2473
608 2 27.4793 39.6681 24.2545
609 2 31.5521 39.7497 23.9883
610 2 35.7023 39.4715 24.1763
611 2 39.4008 4.0265 24.0377
612 2 3.82412 3.99626 24.0815
613 2 7.96142 3.86499 24.3406
614 2 11.9435 4.22626 24.0432
615 2 15.9182 4.11279 23.9637
616 2 19.6885 3.96967 24.219
617 2 23.8322 4.13827 24.2825
618 2 27.7707 4.05983 24.2731
619 2 31.6378 4.08383 24.2495
620 2 35.5665 4.0192 24.1474
621 2 -0.161607 7.66657 23.9613
622 2 3.98469 8.08334 24.0634
623 2 7.63716 7.88651 24.0973
624 2 11.7954 7.82315 24.0548
625 2 15.9332 8.05557 24.1888
626 2 19.9226 8.04226 24.1429
627 2 23.8337 7.88849 24.1159
628 2 27.7225 8.10628 23.9289
629 2 31.737 7.90325 24.2847
630 2 35.5043 7.88557 24.0026
631 2 39.4777 11.9587 23.8436
632 2 3.87653 11.9286 24.2838
633 2 7.89324 11.9021 24.2308
634 2 11.9498 11.8105 24.1959
635 2 15.7836 12.0405 23.8671
636 2 19.7966 12.0556 24.1569
637 2 23.7451 11.9006 24.2311
638 2 27.7934 12.0809 24.2903
639 2 31.7438 11.8329 24.1822
640 2 35.4753 11.8852 24.0989
641 2 39.4902 15.8627 23.964
642 2 3.9697 16.0421 24.1961
643 2 7.89935 15.8798 24.1973
644 2 11.7107 15.9691 24.0955
645 2 15.7183 15.8767 24.1903
646 2 19.7193 15.8529 24.0472
647 2 23.6766 15.8053 23.9378
648 2 27.6278 16.1086 24.0821
649 2 31.5341 15.8959 24.2145
650 2 35.6151 16.1725 24.1201
651 2 -0.0881838 19.89 24.2501
652 2 3.9746 19.7802 24.1827
653 2 7.81423 19.772 24.2409
654 2 11.7534 19.8104 24.0999
655 2 15.8539 19.8504 24.1873
656 2 19.6698 19.8891 24.2433
657 2 23.7711 19.8499 24.2058
658 2 27.5463 19.9058 24.1382
659 2 31.6702 19.993 24.0963
660 2 35.6036 19.682 24.0827
661 2 0.0412167 23.9135 24.1197
662 2 4.06348 23.9253 24.1052
663 2 7.85512 23.7994 24.1427
664 2 11.8296 23.7404 24.2531
665 2 15.5871 23.7444 24.1442
666 2 19.6178 23.8547 24.0371
667 2 23.6832 23.717 24.0613
668 2 27.8416 23.717 24.1944
669 2 31.7543 24.0217 24.0308
670 2 35.4847 23.7969 24.0519
671 2 39.4574 27.7243 23.9287
672 2 4.00381 27.9353 24.2582
673 2 8.08116 27.7945 24.0496
674 2 11.8263 27.878 24.3138
675 2 15.7418 27.7139 24.1685
676 2 19.7586 27.811 24.2379
677 2 23.6927 27.5839 24.1754
678 2 27.6063 27.6526 24.1427
679 2 31.659 27.7962 24.0364
680 2 35.7292 27.7507 23.9773
681 2 -0.244903 31.6208 24.0665
682 2 3.86049 31.939 24.1659
683 2 7.83384 32.1002 24.0858
684 2 11.7765 31.7978 24.0506
685 2 15.6734 31.8658 24.2202
686 2 19.6147 31.6861 24.1704
687 2 23.7582 31.8047 24.2307
688 2 27.6496 31.5264 24.0051
689 2 31.6758 31.8045 24.3455
690 2 35.4708 31.6961 24.0055
691 2 -0.0212936 35.7304 24.0067
692 2 3.82561 35.6142 24.0223
693 2 7.9099 35.6639 24.0448
694 2 11.8713 35.838 24.0482
695 2 15.7492 35.7912 24.146
696 2 19.5816 35.7904 23.9669
697 2 23.7909 35.7117 24.1223
698 2 27.8725 35.7056 24.1288
699 2 31.7524 35.67 24.3345
700 2 35.3686 35.615 24.005
701 2 -0.115385 39.5399 28.1463
702 2 4.02062 -0.0587011 28.1596
703 2 7.76156 39.502 28.024
704 2 11.7192 39.7186 28.0215
705 2 15.6859 39.6712 28.1283
706 2 19.8874 39.6857 27.9916
707 2 23.7712 39.7718 28.2142
708 2 27.5949 39.6367 28.1919
709 2 31.7343 39.7121 28.0947
710 2 35.5578 39.6094 28.1309
711 2 -0.0859101 3.9316 28.1695
712 2 3.85803 3.85513 28.0135
713 2 7.70898 4.04151 28.2784
714 2 11.7795 3.9861 28.2303
715 2 15.7966 3.97839 28.2611
716 2 19.9054 3.99048 28.1009
717 2 23.7445 4.21888 28.2818
718 2 27.8367 4.14284 28.1957
719 2 31.5118 4.03091 28.1149
720 2 35.4817 4.05605 28.0924
721 2 -0.0774833 8.19241 27.8899
722 2 3.74632 8.1502 28.0508
723 2 7.88513 7.94447 28.0672
724 2 11.9527 7.81948 28.1327
725 2 15.8382 8.01414 28.1401
726 2 19.7414 7.93987 28.2417
727 2 23.791 7.94874 28.1241
728 2 27.6233 8.03966 27.8321
729 2 31.733 7.98143 28.0378
730 2 35.6068 7.93578 28.2538
731 2 -0.074 11.9727 27.7907
732 2 3.7707 11.9965 28.0719
733 2 7.88397 11.9764 28.145
734 2 11.7565 11.882 28.1121
735 2 15.8692 11.9552 27.9251
736 2 19.669 11.901 27.9123
737 2 23.7344 12.0938 28.1383
738 2 27.6176 12.0988 28.0388
739 2 31.7208 11.813 28.0803
740 2 35.5671 11.8765 28.156
741 2 -0.124431 15.9184 28.0743
742 2 3.96476 15.9777 28.2118
743 2 7.66581 15.929 28.3511
744 2 11.9135 15.8909 28.0545
745 2 15.6977 15.9129 28.1115
746 2 19.8485 16.0896 28.0735
747 2 23.6478 15.8077 28.0091
748 2 27.6379 15.9749 28.0681
749 2 31.7827 15.8251 28.1063
750 2 35.6708 15.9523 28.1017
751 2 -0.0781743 20.0195 28.1304
752 2 3.73473 19.9487 28.1347
753 2 7.87259 19.942 28.1395
754 2 11.7777 19.7296 28.1332
755 2 15.6825 20.0764 27.9226
756 2 19.6956 19.8096 28.1502
757 2 23.6332 19.8923 28.4002
758 2 27.644 19.9306 27.9949
759 2 31.4853 19.78 28.1163
760 2 35.5434 19.8879 28.2998
761 2 -0.23957 23.95 28.2399
762 2 3.73629 23.8576 28.1428
763 2 7.88234 23.9747 28.0569
764 2 11.7702 23.7064 28.3011
765 2 15.6527 23.9403 28.2721
766 2 19.6727 23.7813 28.1434
767 2 23.6935 23.8052 28.1366
768 2 27.7962 23.784 28.2983
769 2 31.6973 23.8544 28.1255
770 2 35.5672 24.0419 28.1288
771 2 39.4785 27.8303 27.949
772 2 3.66071 27.744 28.0599
773 2 7.74695 27.7065 27.9541
774 2 11.7809 27.9461 28.1299
775 2 15.8055 27.9395 28.2885
776 2 19.6006 27.729 27.9577
777 2 23.5057 27.6547 28.1311
778 2 27.4933 27.6219 27.968
779 2 31.632 27.7266 28.0168
780 2 35.5001 27.9149 28.1672
781 2 0.00937961 31.7841 28.2304
782 2 3.74648 31.581 28.0706
783 2 7.75808 31.4684 28.3415
784 2 11.96 31.7969 28.2339
785 2 15.8373 31.8689 28.1627
786 2 19.7705 32.0035 28.0946
787 2 23.4047 31.6369 28.1131
788 2 27.4709 31.5114 27.9353
789 2 31.6541 31.8359 28.2047
790 2 35.5768 31.6507 28.1074
791 2 -0.135274 35.4714 28.0618
792 2 3.71144 35.7251 28.0652
793 2 7.82091 35.6442 28.0611
794 2 11.8464 35.8914 28.2557
795 2 16.0051 35.7737 28.1124
796 2 19.8645 35.8868 28.0362
797 2 23.8011 35.8679 28.1518
798 2 27.556 35.7007 28.2197
799 2 31.517 35.8312 28.1891
800 2 35.4993 35.7054 28.1827
801 2 -0.0119366 39.6696 32.0785
802 2 3.73737 0.0970444 32.1742
803 2 7.98753 -0.00395869 32.1966
804 2 11.7414 39.7093 32.1071
805 2 15.6841 0.102279 32.1873
806 2 19.7202 0.170696 32.0026
807 2 23.8266 39.6808 32.2978
808 2 27.7558 39.7141 32.1136
809 2 31.6838 39.5679 32.0419
810 2 35.5505 39.6366 32.3307
811 2 0.0166072 4.06736 32.1418
812 2 3.84673 4.14851 32.0653
813 2 7.74944 3.7864 32.2562
814 2 11.7157 3.99632 32.0585
815 2 15.6398 3.96945 32.1041
816 2 19.7686 3.98786 32.0343
817 2 23.7395 4.14569 31.974
818 2 27.4826 4.20946 31.8952
819 2 31.5736 3.78509 32.0274
820 2 35.5331 3.74465 32.1992
821 2 39.5896 7.83888 31.909
822 2 3.99792 7.97966 32.0879
823 2 7.83563 8.02426 32.0181
824 2 11.7624 7.86901 32.0255
825 2 15.7505 8.0595 31.943
826 2 19.6355 8.16791 32.086
827 2 23.5807 8.07065 32.2027
828 2 27.7026 8.13562 32.0642
829 2 31.4605 7.95958 32.1118
830 2 35.5321 7.7715 32.1862
831 2 0.00944677 11.9435 32.065
832 2 3.79571 12.0613 32.0204
833 2 7.80378 11.9193 32.0642
834 2 11.6593 11.9995 32.0577
835 2 15.605 12.1545 32.1755
836 2 19.642 12.0198 32.0274
837 2 23.5643 12.0816 32.0718
838 2 27.5086 11.9768 32.0074
839 2 31.5045 11.9111 32.027
840 2 35.4387 11.8231 32.0324
841 2 -0.230684 15.6569 31.9899
842 2 3.79953 15.9855 32.1174
843 2 7.79968 15.9483 32.0958
844 2 11.7232 15.9042 32.0797
845 2 15.8232 16.1673 32.2403
846 2 19.5786 15.9566 31.9645
847 2 23.5489 15.8796 32.0869
848 2 27.8267 15.9187 32.1439
849 2 31.6128 15.7508 32.0644
850 2 35.533 15.802 32.1852
851 2 -0.172598 19.9573 32.1684
852 2 3.80261 19.7896 32.1332
853 2 7.86842 20.0171 32.0079
854 2 12.0426 19.8062 32.3436
855 2 15.7432 19.9033 31.9146
856 2 19.766 19.8971 32.0178
857 2 23.7138 19.9419 32.1771
858 2 27.5301 19.792 31.9781
859 2 31.4917 19.6721 32.0671
860 2 35.3903 19.9736 31.9975
861 2 0.0713459 23.7443 32.1694
862 2 4.02853 23.7495 32.3086
863 2 7.79368 23.905 32.0402
864 2 11.8046 23.7345 32.1632
865 2 15.7202 23.8826 32.1921
866 2 19.7715 23.7992 32.1458
867 2 23.6688 24.0036 32.4042
868 2 27.7524 23.8268 32.0453
869 2 31.533 23.9127 32.0463
870 2 35.4167 23.9209 32.0505
871 2 0.0742698 27.8719 32.2997
872 2 4.06243 27.683 32.1966
873 2 7.81399 27.8114 32.0988
874 2 11.6821 27.8115 32.0618
875 2 15.677 27.7351 32.0951
876 2 19.4248 27.9529 32.0436
877 2 23.4207 27.6256 32.1164
878 2 27.5096 27.8858 31.89
879 2 31.4648 27.7947 32.2009
880 2 35.8209 27.7767 32.215
881 2 -0.106493 31.7884 32.2299
882 2 3.74188 31.8596 32.0357
883 2 7.70362 31.9078 31.9937
884 2 11.7046 31.7028 32.074
885 2 15.7418 31.7321 32.3324
886 2 19.6555 31.8253 32.2022
887 2 23.607 31.7952 32.0201
888 2 27.6068 31.6228 32.1562
889 2 31.6325 31.8041 32.1511
890 2 35.5336 31.5962 31.9102
891 2 -0.136999 35.6061 32.1621
892 2 3.79259 35.7636 32.1261
893 2 7.68824 35.5335 32.1132
894 2 11.6348 35.8738 32.0593
895 2 15.8179 35.7517 32.0553
896 2 19.7127 35.9262 32.0397
897 2 23.7259 35.883 32.2103
898 2 27.5309 35.3169 31.9854
899 2 31.6102 35.5831 31.9105
900 2 35.6162 35.5839 32.2645
901 2 -0.0695365 0.171315 36.0984
902 2 4.02887 0.0185875 36.1814
903 2 7.7631 0.0515273 36.2072
904 2 11.816 -0.129753 35.9493
905 2 15.7619 -0.0172592 35.9026
906 2 19.6451 0.0995578 35.8092
907 2 23.6942 39.6082 36.0174
908 2 27.6192 39.4394 35.9171
909 2 31.4777 -0.19742 36.0981
910 2 35.4179 0.0667594 36.163
911 2 -0.0479769 4.08909 36.1899
912 2 3.77524 4.02063 36.0095
913 2 7.81267 4.02727 36.1281
914 2 11.875 4.06059 35.9345
915 2 15.907 4.09187 36.3367
916 2 19.7189 4.03482 36.1095
917 2 23.514 4.07485 36.1116
918 2 27.6479 3.99367 36.0197
919 2 31.4158 4.02372 36.2381
920 2 35.6049 3.98362 36.1297
921 2 -0.0654554 7.94652 36.1286
922 2 3.96781 7.77568 36.1074
923 2 7.88073 7.98042 36.1742
924 2 11.8185 8.14703 36.1529
925 2 15.7806 7.83026 35.8498
926 2 19.6004 7.89251 36.0035
927 2 23.4962 8.06515 36.1743
928 2 27.4541 8.02056 36.1401
929 2 31.6079 7.86285 36.1096
930 2 35.3437 7.87514 35.9305
931 2 -0.132542 11.9073 35.846
932 2 3.97109 11.8381 36.0327
933 2 8.05126 11.8087 36.0153
934 2 11.8369 11.8583 35.9992
935 2 15.6268 11.9429 36.0682
936 2 19.6699 11.8922 36.1249
937 2 23.5293 11.9339 36.0623
938 2 27.3032 11.9731 35.9676
939 2 31.4351 11.6742 36.0647
940 2 35.5516 11.8773 35.9992
941 2 -0.0785908 15.8764 36.1661
942 2 4.0607 15.8491 36.0104
943 2 7.90513 15.5999 35.9774
944 2 11.7811 16.0246 35.972
945 2 15.7926 15.7364 36.0432
946 2 19.4692 15.9061 36.0347
947 2 23.6172 15.9424 36.1013
948 2 27.7506 16.0225 35.9035
949 2 31.5333 15.7215 36.1375
950 2 35.495 15.757 35.9084
951 2 -0.136959 19.5733 35.9493
952 2 3.83506 19.778 36.1358
953 2 8.02668 19.875 35.9633
954 2 11.8511 19.8126 36.1304
955 2 15.802 20.0723 36.2244
956 2 19.7646 19.7975 35.7442
957 2 23.6338 19.7589 36.1026
958 2 27.5504 19.8574 36.0997
959 2 31.4302 19.9363 36.1549
960 2 35.3032 19.8801 35.9566
961 2 -0.161866 23.7031 36.0189
962 2 3.97766 23.569 36.2371
963 2 7.81664 23.7655 36.0847
964 2 11.8132 23.7467 36.1019
965 2 15.7216 23.7682 36.1434
966 2 19.8546 23.6315 36.0357
967 2 23.6428 23.8933 36.2094
968 2 27.3032 23.7705 36.0388
969 2 31.3915 23.9234 35.9698
970 2 35.3386 23.798 35.9518
971 2 -0.0318172 27.5842 36.0741
972 2 3.89238 27.7388 36.1123
973 2 8.01526 27.7143 36.1501
974 2 11.5987 27.7678 35.9255
975 2 15.5024 27.7221 36.1436
976 2 19.5034 27.7921 36.1237
977 2 23.6278 27.6948 36.1502
978 2 27.5299 27.6823 35.9994
979 2 31.6257 27.6779 36.155
980 2 35.452 27.7762 36.1441
981 2 -0.116362 31.4166 36.0737
982 2 3.97092 31.8124 36.1382
983 2 7.76586 31.799 35.9698
984 2 11.7853 31.6357 36.1198
985 2 15.6324 31.8856 36.0701
986 2 19.4818 31.6385 35.9848
987 2 23.7353 31.4905 36.0392
988 2 27.5608 31.7498 36.0505
989 2 31.3484 31.6318 36.0146
990 2 35.6004 31.5396 35.9187
991 2 -0.186593 35.6797 36.1107
992 2 3.95154 35.6575 36.2224
993 2 7.92716 35.7006 36.1815