ITEM: TIMESTEP
15200
ITEM: NUMBER OF ATOMS
32000
ITEM: BOX BOUNDS xy xz yz pp pp pp
0.0000000000000000e+00 1.5831999999999999e+02 0.0000000000000000e+00
0.0000000000000000e+00 1.5831999999999999e+02 0.0000000000000000e+00
1.6557505802621364e-01 1.5932136941973543e+01 0.0000000000000000e+00
ITEM: ATOMS id type x y z
1 2 158.174 157.912 16.0228
2 2 3.66549 158.051 0.261741
3 2 7.67223 157.978 0.151418
4 2 11.9559 158.082 15.8502
5 2 15.6604 158.011 0.243567
6 2 19.8658 158.069 0.212422
7 2 23.8799 158.308 16.0645
8 2 27.9402 158.277 0.240834
9 2 31.9418 158.291 15.9779
10 2 35.9046 158.174 0.131549
11 2 39.8545 158.348 0.265428
12 2 43.7698 158.138 16.0574
13 2 47.9452 -0.0113873 16.0636
14 2 51.6867 -0.00765665 16.0452
15 2 55.7258 158.432 15.972
16 2 59.6917 -0.0618092 15.9171
17 2 63.6574 -0.0762524 0.207727
18 2 67.6026 -0.0858593 0.110564
19 2 71.2763 158.165 15.9272
20 2 75.4288 158.191 15.8534
21 2 79.2752 158.24 15.9846
22 2 83.3091 158.126 0.156368
23 2 87.0663 158.371 -0.00148356
24 2 90.8686 158.059 0.114577
25 2 94.8543 157.925 0.314711
26 2 98.7781 157.988 0.149456
27 2 102.698 157.971 0.0744491
28 2 106.704 157.964 16.0338
29 2 110.629 157.897 0.164006
30 2 114.392 157.784 0.059368
31 2 118.256 157.589 0.17158
32 2 122.329 157.672 15.9821
33 2 126.166 157.563 15.8488
34 2 130.031 157.613 15.9356
35 2 134.088 157.783 15.938
36 2 137.874 157.54 16.2116
37 2 142.036 157.693 16.1007
38 2 145.981 157.9 15.9074
39 2 150.195 157.708 15.9194
40 2 154.154 157.976 15.8853
41 2 158.219 3.53644 0.139245
42 2 3.75117 3.7251 15.9061
43 2 7.68014 3.51901 0.0451344
44 2 11.7304 3.70334 0.231309
45 2 15.7814 3.56688 0.142441
46 2 19.8696 3.70862 15.8056
47 2 23.737 3.77352 0.128391
48 2 27.8515 3.68221 -0.0755796
49 2 31.8669 3.81721 0.0982998
50 2 35.8114 3.72195 0.375262
51 2 39.7988 3.86009 0.261368
52 2 43.7433 3.84194 0.425366
53 2 47.6521 3.91898 15.8925
54 2 51.4677 4.08727 0.0228347
55 2 55.5807 3.83025 0.090111
56 2 59.7873 3.90692 0.19571
57 2 63.7255 4.01588 15.8116
58 2 67.582 3.98315 0.122872
59 2 71.8227 3.98421 0.0769667
60 2 75.4278 3.87371 -0.0650715
61 2 79.2432 3.82053 0.293891
62 2 83.1667 3.71655 0.124222
63 2 87.0986 3.99482 0.0751974
64 2 91.1105 3.7152 0.0531449
65 2 94.9973 3.68948 15.9642
66 2 98.8646 3.59988 -0.0474946
67 2 102.771 3.5103 0.0109209
68 2 106.766 3.62841 15.8349
69 2 110.33 3.55676 15.8027
70 2 114.351 3.45044 15.9516
71 2 118.381 3.62949 15.9836
72 2 122.216 3.4517 0.374303
73 2 126.321 3.26788 15.9063
74 2 130.161 3.40148 0.210866
75 2 134.125 3.38412 15.9461
76 2 137.898 3.26208 0.246454
77 2 141.982 3.37307 15.8602
78 2 145.823 3.32097 0.0857678
79 2 150.05 3.67565 15.8827
80 2 154.032 3.44215 15.9859
81 2 158.08 7.46898 -0.0168363
82 2 3.59345 7.50058 15.7707
83 2 7.79 7.30884 15.8486
84 2 11.8303 7.63084 16.0378
85 2 15.8168 7.53068 0.200001
86 2 19.6789 7.40096 15.8689
87 2 23.8357 7.5115 0.109412
88 2 27.5452 7.62593 0.0465924
89 2 31.6896 7.85269 15.9464
90 2 35.6955 8.02042 15.8304
91 2 39.6032 7.86189 16.1991
92 2 43.764 7.6561 15.9331
93 2 47.5665 7.89625 0.0709858
94 2 51.7351 7.79816 15.9013
95 2 55.737 7.83948 0.0816967
96 2 59.674 7.84904 0.121853
97 2 63.474 7.83909 0.0507377
98 2 67.3991 7.99062 0.142635
99 2 71.3284 7.81545 0.151346
100 2 75.4254 7.84259 0.0546511
101 2 79.3358 7.70665 16.0248
102 2 83.2885 7.78082 0.0438572
103 2 87.2509 7.75193 15.9531
104 2 91.1352 7.80428 -0.0716788
105 2 95.1516 7.72069 0.342133
106 2 98.9401 7.67566 0.207216
107 2 102.715 7.53778 -0.0447196
108 2 106.602 7.549 0.0440472
109 2 110.53 7.61736 -0.0594446
110 2 114.432 7.63243 0.218914
111 2 118.407 7.3486 -0.1279
112 2 122.349 7.38475 0.0902751
113 2 126.271 7.50066 15.7688
114 2 130.201 7.37492 0.213484
115 2 134.097 7.20974 0.187005
116 2 137.949 7.23225 15.9672
117 2 142.029 7.29057 15.9877
118 2 145.966 7.22065 0.0584352
119 2 149.875 7.36072 15.8123
120 2 153.954 7.44152 15.7101
121 2 157.932 11.2337 0.111752
122 2 3.744 11.2961 0.0207786
123 2 7.6517 11.1823 15.8156
124 2 11.7144 11.4983 15.8292
125 2 15.5703 11.5301 15.8814
126 2 19.6951 11.4925 0.194771
127 2 23.7012 11.5485 -0.105731
128 2 27.6999 11.6197 0.272103
129 2 31.635 11.5542 0.0257134
130 2 35.8465 11.5707 0.147168
131 2 39.7369 11.5299 0.364001
132 2 43.8109 11.7578 16.1044
133 2 47.5984 11.8311 15.9343
134 2 51.7036 11.676 15.9378
135 2 55.6588 11.8094 0.135039
136 2 59.5577 11.8973 15.9903
137 2 63.6681 11.8256 0.251585
138 2 67.5328 11.9065 16.1246
139 2 71.5255 12.0799 0.111508
140 2 75.4545 11.8639 0.0698242
141 2 79.702 11.8449 0.33845
142 2 83.4072 11.6323 0.0857128
143 2 87.0831 11.9164 0.06041
144 2 91.0618 11.7443 0.0398297
145 2 95.1586 11.8142 -0.00461094
146 2 99.1679 11.6967 -0.0912001
147 2 102.851 11.6486 0.0654974
148 2 106.74 11.4747 0.276266
149 2 110.684 11.5875 0.0187877
150 2 114.716 11.6039 0.178018
151 2 118.602 11.3413 0.0450027
152 2 122.378 11.4026 0.0779394
153 2 126.385 11.4656 0.0925046
154 2 130.261 11.4634 15.8075
155 2 134.103 11.2773 0.0879414
156 2 138.132 11.3964 0.237494
157 2 142.012 11.5024 15.9129
158 2 145.96 11.1101 15.8569
159 2 149.982 11.1754 15.8229
160 2 153.947 11.5286 15.7926
161 2 158.052 15.1793 0.254204
162 2 3.59216 15.2849 0.0965363
163 2 7.54692 15.3953 0.212777
164 2 11.55 15.3987 16.0507
165 2 15.541 15.4544 15.906
166 2 19.3195 15.6259 -0.0263608
167 2 23.4918 15.3831 0.104679
168 2 27.5091 15.6754 15.9762
169 2 31.7101 15.6592 15.9676
170 2 35.631 15.6375 0.312926
171 2 39.683 15.4767 16.0647
172 2 43.5996 15.587 0.313049
173 2 47.7038 15.8431 0.351936
174 2 51.601 15.697 0.32578
175 2 55.6169 15.6773 16.0068
176 2 59.6802 15.6395 0.193294
177 2 63.5697 15.7708 0.0999912
178 2 67.3385 15.981 0.0612176
179 2 71.5671 15.9263 0.307819
180 2 75.6223 15.8825 15.8438
181 2 79.5956 15.7469 0.0333976
182 2 83.3052 15.8521 0.0649064
183 2 87.1886 15.7367 0.192186
184 2 91.1043 15.8809 0.101152
185 2 95.3219 15.7763 0.0899279
186 2 98.9607 15.7496 -0.0621119
187 2 103.053 15.5745 0.089217
188 2 106.717 15.6392 -0.11243
189 2 110.866 15.4184 0.0144351
190 2 114.708 15.4873 -0.105096
191 2 118.582 15.368 0.0869943
192 2 122.501 15.4998 15.8919
193 2 126.412 15.5653 7.05057e-05
194 2 130.342 15.365 -0.041524
195 2 134.2 15.3817 0.103534
196 2 137.953 15.3778 -0.0687101
197 2 142.001 15.3957 0.135112
198 2 145.84 15.1496 0.160361
199 2 149.974 15.2076 15.8641
200 2 153.874 15.2133 0.155135
201 2 157.746 19.1047 15.8079
202 2 3.32276 19.0759 0.0323567
203 2 7.63829 19.3224 16.0101
204 2 11.5924 19.0776 16.0131
205 2 15.41 19.2218 15.9129
206 2 19.5105 19.3839 0.234254
207 2 23.4523 19.4344 0.125612
208 2 27.5306 19.5232 0.12396
209 2 31.5546 19.5133 16.0197
210 2 35.4522 19.596 15.8715
211 2 39.6047 19.4991 0.269676
212 2 43.5473 19.5025 15.8689
213 2 47.4329 19.636 15.9597
214 2 51.3435 19.4873 15.8977
215 2 55.4305 19.4078 16.0201
216 2 59.6009 19.6125 16.1779
217 2 63.5612 19.8081 15.8302
218 2 67.5288 19.9284 16.1039
219 2 71.6534 19.8403 0.25927
220 2 75.4092 19.7305 0.279899
221 2 79.5195 19.9256 0.156974
222 2 83.2844 19.8335 0.0594906
223 2 87.4702 19.8558 15.8608
224 2 91.1144 19.7129 0.203566
225 2 95.2687 19.849 0.164229
226 2 99.2286 19.6774 16.0064
227 2 102.965 19.7208 15.7007
228 2 107.007 19.69 15.7237
229 2 110.729 19.4459 0.0832761
230 2 114.566 19.5437 0.180182
231 2 118.566 19.4965 15.8649
232 2 122.441 19.628 0.0598879
233 2 126.322 19.4949 0.14348
234 2 130.303 19.2816 0.240877
235 2 134.303 19.4391 15.7938
236 2 138.26 19.3913 15.8966
237 2 142.022 19.2456 0.145743
238 2 146.064 19.3328 0.0404244
239 2 149.975 19.2093 -0.0265494
240 2 154.112 19.0396 15.7654
241 2 157.982 23.0879 15.8891
242 2 3.6092 23.1135 15.9293
243 2 7.41906 23.2864 0.283392
244 2 11.6635 23.137 15.9942
245 2 15.7288 23.21 16.023
246 2 19.5841 23.3223 0.107719
247 2 23.5016 23.3571 15.9512
248 2 27.4835 23.2787 15.8099
249 2 31.5044 23.2544 0.282848
250 2 35.4287 23.5777 15.7824
251 2 39.3642 23.5436 0.212241
252 2 43.5249 23.4881 16.0097
253 2 47.599 23.574 15.9126
254 2 51.542 23.4843 0.332795
255 2 55.6402 23.3888 15.9213
256 2 59.5873 23.5617 15.9782
257 2 63.5008 23.6428 15.9866
258 2 67.4837 23.9091 0.337109
259 2 71.4065 23.6859 0.118616
260 2 75.4909 23.8354 0.291656
261 2 79.5347 23.7624 15.8517
262 2 83.622 23.913 15.909
263 2 87.3791 23.8234 0.00721817
264 2 91.33 23.7902 15.8091
265 2 95.3109 23.7771 16.1168
266 2 99.0581 23.6825 0.110553
267 2 102.932 23.7233 -0.169848
268 2 106.966 23.6245 -0.00726447
269 2 110.744 23.5652 0.0323201
270 2 114.523 23.5805 15.9282
271 2 118.713 23.5109 16.0334
272 2 122.676 23.528 0.0878468
273 2 126.464 23.3834 0.0906896
274 2 130.332 23.3088 15.781
275 2 134.192 23.3152 0.119797
276 2 138.123 23.1781 15.8612
277 2 142.143 23.3847 0.230422
278 2 146.109 23.2831 0.0761493
279 2 149.974 23.1228 0.242648
280 2 153.987 23.1637 0.129144
281 2 157.804 27.1193 0.167846
282 2 3.56277 27.0584 15.6373
283 2 7.41605 27.1458 0.118383
284 2 11.3069 27.1367 15.7499
285 2 15.3225 27.101 15.9566
286 2 19.3 27.2911 -0.00625976
287 2 23.5375 27.3873 0.145785
288 2 27.465 27.1939 0.0337181
289 2 31.27 27.2664 15.9878
290 2 35.5536 27.3004 0.275494
291 2 39.4343 27.4457 0.240842
292 2 43.5375 27.503 16.1116
293 2 47.4435 27.3152 0.377106
294 2 51.5503 27.4493 0.186134
295 2 55.4887 27.2525 0.348739
296 2 59.6099 27.5657 0.230385
297 2 63.4607 27.398 0.195283
298 2 67.5795 27.77 0.211421
299 2 71.4849 27.5875 0.16096
300 2 75.5004 27.7349 16.0621
301 2 79.4103 27.7471 0.256656
302 2 83.5101 27.8938 15.7082
303 2 87.4357 27.8199 0.187956
304 2 91.3443 27.6977 15.9147
305 2 95.084 27.8194 15.7223
306 2 99.1609 27.8066 0.221526
307 2 103.213 27.5973 -0.117292
308 2 107.023 27.6115 15.7619
309 2 110.901 27.5004 -0.00757781
310 2 114.956 27.6427 15.7268
311 2 118.751 27.4092 15.927
312 2 122.772 27.53 0.103689
313 2 126.648 27.3234 0.105755
314 2 130.535 27.4858 0.0986267
315 2 134.178 27.3071 16.0367
316 2 138.255 27.3436 0.155703
317 2 142.182 27.3463 0.0119541
318 2 146.19 27.3435 0.206639
319 2 150.275 27.3382 0.290834
320 2 154.122 27.0039 15.9331
321 2 157.911 31.0644 15.6775
322 2 3.57428 31.1299 0.091454
323 2 7.35978 30.9943 0.110171
324 2 11.3751 30.862 16.0017
325 2 15.3924 31.1619 0.108081
326 2 19.4574 31.2767 15.8022
327 2 23.4826 31.1955 15.9775
328 2 27.3752 31.2978 0.125417
329 2 31.5708 31.3799 0.148732
330 2 35.5726 31.3459 16.0124
331 2 39.5957 31.2779 16.0288
332 2 43.5545 31.3393 0.126726
333 2 47.5822 31.3423 16.0166
334 2 51.469 31.2851 16.2365
335 2 55.4548 31.1578 0.373917
336 2 59.4516 31.2227 0.153726
337 2 63.493 31.4964 16.0544
338 2 67.4687 31.4508 0.459252
339 2 71.5531 31.6427 16.1488
340 2 75.3203 31.4121 0.310778
341 2 79.2745 31.8301 0.125241
342 2 83.446 31.8222 15.9039
343 2 87.4208 31.8633 0.245036
344 2 91.4054 31.8652 -0.0549304
345 2 95.3589 31.7089 0.407711
346 2 99.2617 31.9055 0.219247
347 2 103.226 31.6323 16.0239
348 2 107.255 31.7085 0.149828
349 2 111.04 31.5275 15.9222
350 2 114.832 31.473 0.131521
351 2 118.911 31.5343 16.031
352 2 122.923 31.4019 0.0740378
353 2 126.646 31.421 0.239885
354 2 130.416 31.4651 0.169366
355 2 134.401 31.2724 0.377455
356 2 138.198 31.3069 15.9119
357 2 142.17 31.3542 16.0805
358 2 146.334 31.4542 15.8246
359 2 150.201 31.2073 15.8557
360 2 154.05 31.0226 15.665
361 2 157.883 35.1275 16.0493
362 2 3.66169 35.1622 0.135551
363 2 7.7105 34.9895 0.172591
364 2 11.5283 34.9148 15.879
365 2 15.2753 34.9043 0.204971
366 2 19.4754 34.9998 15.9095
367 2 23.4966 35.0436 15.9771
368 2 27.5362 35.1925 0.233454
369 2 31.3145 35.1763 0.288714
370 2 35.478 35.3127 16.1204
371 2 39.4706 35.2761 0.191533
372 2 43.3726 35.1983 16.0555
373 2 47.4499 35.2902 16.1294
374 2 51.5095 35.2036 0.43227
375 2 55.5253 35.1442 16.1042
376 2 59.3522 35.6056 0.180533
377 2 63.6503 35.4635 0.272341
378 2 67.5172 35.3833 0.286455
379 2 71.4106 35.4061 0.260915
380 2 75.2566 35.594 16.0548
381 2 79.348 35.5749 16.0607
382 2 83.3111 35.6153 0.0120206
383 2 87.3203 35.4483 0.101791
384 2 91.4531 35.7267 15.8525
385 2 95.3759 35.8588 15.8381
386 2 99.3167 35.7254 0.148145
387 2 103.324 35.8067 15.8793
388 2 107.178 35.8897 0.127496
389 2 111.092 35.7373 16.0403
390 2 114.884 35.4024 0.302806
391 2 118.912 35.4876 16.0524
392 2 122.718 35.5538 15.9762
393 2 126.559 35.4119 0.367608
394 2 130.605 35.5023 0.0344736
395 2 134.478 35.3884 16.1091
396 2 138.377 35.467 15.7735
397 2 142.451 35.2196 15.8848
398 2 146.412 35.2358 16.1123
399 2 150.245 35.3006 0.274282
400 2 154.168 35.0231 0.0949791
401 2 158.054 39.0708 0.170816
402 2 3.50949 39.035 15.8061
403 2 7.67151 39.0978 15.7524
404 2 11.4322 39.1707 0.145865
405 2 15.5537 38.8292 0.154639
406 2 19.3168 38.8117 15.7633
407 2 23.2377 38.9311 16.0667
408 2 27.4402 39.3214 0.250083
409 2 31.3895 39.2458 16.044
410 2 35.4975 39.22 0.186148
411 2 39.4512 39.2918 0.346276
412 2 43.4574 39.0755 0.302475
413 2 47.3575 39.1118 0.330897
414 2 51.3851 39.2136 0.203218
415 2 55.2246 39.0668 0.18504
416 2 59.3136 39.5018 0.528139
417 2 63.3027 39.4404 16.009
418 2 67.5807 39.4468 0.186496
419 2 71.3956 39.2845 0.125358
420 2 75.2805 39.3775 0.177112
421 2 79.2763 39.4812 15.8938
422 2 83.3927 39.397 15.8961
423 2 87.4442 39.5301 15.8298
424 2 91.3737 39.5931 15.895
425 2 95.487 39.6754 15.7904
426 2 99.3604 39.5975 0.239717
427 2 103.334 39.7922 0.0696149
428 2 107.083 39.869 16.1219
429 2 111.158 39.5818 16.1024
430 2 115.086 39.5158 16.1241
431 2 119.12 39.6746 16.0101
432 2 122.849 39.5424 0.333104
433 2 126.738 39.5759 15.8517
434 2 130.755 39.3879 0.249234
435 2 134.693 39.3285 0.174855
436 2 138.489 39.2941 16.0163
437 2 142.565 39.2574 15.9703
438 2 146.404 39.2403 0.383338
439 2 150.34 39.084 16.0144
440 2 154.139 39.2221 0.0871443
441 2 158.001 43.0757 0.0910684
442 2 3.69849 43.1768 0.159744
443 2 7.84885 43.1486 -0.00680539
444 2 11.69 43.1302 0.274574
445 2 15.5999 43.0574 0.252067
446 2 19.4611 42.97 15.9726
447 2 23.3395 42.9635 0.214849
448 2 27.3136 42.9462 0.399949
449 2 31.3225 42.9317 0.169758
450 2 35.4644 42.9852 0.304959
451 2 39.4176 43.1488 0.19866
452 2 43.3472 42.9501 0.371961
453 2 47.2783 42.9714 0.125194
454 2 51.3123 43.1272 0.366948
455 2 55.2748 43.0847 0.189701
456 2 59.3124 43.144 0.158838
457 2 63.3361 43.449 0.0537652
458 2 67.2466 43.2377 16.0026
459 2 71.2179 43.2705 15.9086
460 2 75.1213 43.438 0.221373
461 2 79.2529 43.2728 0.0541076
462 2 83.2231 43.4226 15.8827
463 2 87.3628 43.3496 15.9847
464 2 91.2134 43.5627 15.9896
465 2 95.2106 43.5358 0.13631
466 2 99.2621 43.7079 0.176604
467 2 103.179 43.7623 0.13671
468 2 107.305 43.7197 0.0206482
469 2 111.397 43.6182 16.0611
470 2 115.091 43.525 15.9334
471 2 118.935 43.5387 0.0322456
472 2 122.914 43.4586 0.36845
473 2 126.775 43.4818 0.306226
474 2 130.875 43.4595 0.138238
475 2 134.793 43.3352 15.7835
476 2 138.531 43.18 16.1506
477 2 142.549 43.2118 15.9201
478 2 146.533 43.2141 15.935
479 2 150.416 43.0852 0.202102
480 2 154.144 43.0388 15.8563
481 2 158.136 47.1433 15.8937
482 2 3.84007 47.0161 15.6865
483 2 7.72109 47.0747 15.7027
484 2 11.7475 47.2123 15.9083
485 2 15.687 47.0883 -0.00429533
486 2 19.5298 46.8972 15.9456
487 2 23.5902 46.806 0.0980437
488 2 27.4191 46.9377 0.416201
489 2 31.3338 46.7929 0.260201
490 2 35.365 46.9075 0.196981
491 2 39.2307 46.9033 0.232916
492 2 43.3426 46.8765 0.330846
493 2 47.2118 47.1696 16.1004
494 2 51.2469 46.9526 15.9154
495 2 55.2919 47.1183 0.20454
496 2 59.1515 47.007 15.803
497 2 63.2671 47.3575 0.34041
498 2 67.4078 47.264 0.259384
499 2 71.2881 47.2 0.188095
500 2 75.3252 47.2947 16.012
501 2 79.177 47.2785 16.1168
502 2 83.2205 47.2907 0.371927
503 2 87.1205 47.4251 0.180627
504 2 91.406 47.5989 15.9787
505 2 95.1988 47.5004 0.0997409
506 2 99.3748 47.6482 0.0480799
507 2 103.253 47.7294 15.9173
508 2 107.469 47.5919 0.388635
509 2 111.358 47.682 15.9802
510 2 115.181 47.766 16.0362
511 2 119.322 47.7921 0.209301
512 2 123.096 47.4384 0.0799963
513 2 126.747 47.2851 0.241517
514 2 130.925 47.4692 0.105315
515 2 135.082 47.4406 15.8513
516 2 138.595 47.2185 0.172071
517 2 142.439 47.2797 16.0735
518 2 146.401 47.1842 0.0130625
519 2 150.465 47.1869 16.1184
520 2 154.294 47.2577 0.103382
521 2 158.204 51.17 0.234493
522 2 3.76955 50.9256 0.0418878
523 2 7.75767 50.9805 0.119313
524 2 11.5863 51.043 15.9699
525 2 15.65 50.9409 0.397237
526 2 19.6885 50.9312 0.114539
527 2 23.3581 50.739 0.153707
528 2 27.4533 50.9744 16.1122
529 2 31.2536 50.8888 16.1787
530 2 35.143 50.8425 0.446841
531 2 39.2074 51.0998 16.0458
532 2 43.1532 50.8389 0.299628
533 2 47.4218 50.9852 0.29329
534 2 51.1419 51.0804 16.09
535 2 55.226 50.9407 16.0445
536 2 59.208 50.9353 15.9143
537 2 63.3688 51.0725 0.251141
538 2 67.2083 51.5315 0.237054
539 2 71.1874 51.0801 16.1384
540 2 75.2169 51.2574 0.071616
541 2 79.2719 51.2189 16.1467
542 2 83.2307 51.1431 16.0422
543 2 87.1634 51.2692 16.0747
544 2 91.124 51.631 0.185779
545 2 95.37 51.295 0.221986
546 2 99.1068 51.3836 15.986
547 2 103.079 51.4061 0.0377246
548 2 107.188 51.3546 15.8581
549 2 111.142 51.5191 0.127829
550 2 115.301 51.6621 0.245227
551 2 119.312 51.7146 0.267295
552 2 123.12 51.4992 0.157767
553 2 127.19 51.576 16.1319
554 2 131.048 51.321 0.0162352
555 2 134.962 51.4612 16.0371
556 2 138.954 51.2626 0.085131
557 2 142.571 51.1736 15.9902
558 2 146.72 51.302 16.0446
559 2 150.533 51.0698 0.281007
560 2 154.44 51.1721 0.0544567
561 2 158.152 55.1649 0.112734
562 2 3.78198 55.0528 0.263931
563 2 7.77983 54.8353 0.223591
564 2 11.8784 55.0029 16.0133
565 2 15.6311 54.8489 16.0405
566 2 19.6074 54.9273 16.0513
567 2 23.4264 54.9095 16.0633
568 2 27.2384 54.7887 16.0819
569 2 31.3996 54.7976 0.268308
570 2 35.2065 54.8683 16.0189
571 2 39.3577 54.7216 0.095455
572 2 43.3721 54.7092 15.8825
573 2 47.0531 54.7188 16.1779
574 2 51.1787 54.8644 16.0051
575 2 55.2319 55.0154 0.0972559
576 2 59.3675 54.7707 0.249366
577 2 63.3493 55.2024 15.9467
578 2 67.0778 55.1501 0.297361
579 2 71.073 55.0303 15.9944
580 2 75.1197 54.9776 15.9177
581 2 79.0334 55.1567 15.9488
582 2 83.1595 55.0681 16.0737
583 2 87.1306 55.444 0.316178
584 2 91.0864 55.226 0.25552
585 2 95.1708 55.4669 -0.0361327
586 2 99.1633 55.2573 15.7652
587 2 103.295 55.353 0.157344
588 2 107.281 55.4051 0.318589
589 2 111.438 55.4393 15.958
590 2 115.221 55.4991 0.270345
591 2 119.262 55.5294 0.100191
592 2 123.237 55.548 0.180777
593 2 127.163 55.3857 16.069
594 2 131.042 55.5096 16.0815
595 2 134.918 55.3663 16.0055
596 2 138.655 55.2065 0.128945
597 2 142.557 55.0038 0.330651
598 2 146.614 55.1625 15.9488
599 2 150.63 55.1985 15.8942
600 2 154.56 55.1561 0.129865
601 2 0.0883175 59.2357 0.0248274
602 2 3.9588 59.156 0.0699883
603 2 7.87833 58.8872 0.0635202
604 2 11.5219 59.121 16.0453
605 2 15.5169 58.8952 0.256767
606 2 19.4331 58.9389 15.8759
607 2 23.4692 58.6983 16.0218
608 2 27.4992 58.6428 0.0908532
609 2 31.3383 58.7967 16.0743
610 2 35.22 58.7399 0.281242
611 2 39.3097 58.5318 0.262593
612 2 43.1509 58.5847 15.8543
613 2 47.2486 58.6582 0.210867
614 2 51.1134 58.7094 16.0152
615 2 55.0896 58.9061 15.8496
616 2 59.097 58.7975 15.894
617 2 63.0326 59.1692 0.226037
618 2 67.0287 59.1157 16.1735
619 2 71.0401 59.0582 0.413043
620 2 74.8703 59.0915 0.102612
621 2 79.01 59.2225 15.8974
622 2 83.0164 58.9783 16.0678
623 2 87.0458 59.2425 0.331272
624 2 91.1721 59.2338 0.243864
625 2 95.0863 59.3124 0.13682
626 2 99.1947 59.1808 15.8994
627 2 103.299 59.3007 0.0209989
628 2 107.238 59.3448 0.151924
629 2 111.264 59.4504 0.174194
630 2 115.361 59.3916 0.102455
631 2 119.192 59.6021 0.38318
632 2 123.27 59.4851 0.0136807
633 2 127.058 59.3153 0.442766
634 2 130.747 59.338 16.0615
635 2 134.951 59.3339 0.284678
636 2 138.783 59.0708 0.0870919
637 2 142.711 59.1111 15.9451
638 2 146.601 59.2379 0.263569
639 2 150.59 59.0667 0.0137375
640 2 154.443 59.1494 0.106356
641 2 0.0174911 63.2512 15.7834
642 2 3.84372 63.0509 15.9496
643 2 8.04944 63.2733 0.279865
644 2 11.9911 63.053 0.365502
645 2 15.7106 62.8825 16.0943
646 2 19.8033 63.0057 15.8737
647 2 23.5565 62.8348 15.9473
648 2 27.5142 62.7099 0.306891
649 2 31.5041 62.7841 16.2376
650 2 35.2545 62.7717 16.0544
651 2 39.2288 62.606 0.450528
652 2 43.1025 62.6984 0.148317
653 2 47.1829 62.5852 15.9578
654 2 50.9878 62.9118 0.424897
655 2 55.1767 62.7661 0.295499
656 2 58.8472 62.962 0.476272
657 2 62.9298 63.0786 0.379903
658 2 67.1578 63.0314 0.211084
659 2 71.0227 62.9067 0.356857
660 2 75.0815 63.0451 15.8817
661 2 79.2014 63.0095 16.1291
662 2 83.2424 62.8972 15.9631
663 2 87.1178 62.9494 0.319722
664 2 91.0912 63.1313 15.9748
665 2 95.1412 63.1756 0.118332
666 2 99.3375 63.0171 0.0880052
667 2 103.139 63.3067 0.199268
668 2 107.284 63.2189 0.103277
669 2 111.2 63.363 0.177408
670 2 115.15 63.5881 0.101161
671 2 119.18 63.4372 15.8379
672 2 123.139 63.2532 15.9931
673 2 127.171 63.5216 15.8843
674 2 131.042 63.2427 -0.00568524
675 2 134.781 63.1774 15.8717
676 2 138.622 63.3306 0.200682
677 2 142.767 63.1962 0.0995108
678 2 146.636 63.229 0.126986
679 2 150.538 63.0311 15.8002
680 2 154.293 63.3452 15.9692
681 2 -0.0140029 67.1781 0.249004
682 2 4.08907 66.8837 0.230351
683 2 7.9844 67.1032 0.290352
684 2 11.8162 67.1097 15.9346
685 2 15.9789 67.128 16.0527
686 2 19.7818 66.9887 15.9186
687 2 23.6309 66.8516 15.987
688 2 27.5815 66.9462 15.9489
689 2 31.4182 66.7153 0.238684
690 2 35.2063 66.8032 0.284393
691 2 39.3921 66.5997 0.399341
692 2 43.0649 66.5576 16.069
693 2 46.9777 66.4801 0.257277
694 2 51.1027 66.59 16.1013
695 2 55.0837 66.6593 16.1179
696 2 59.0233 66.8892 16.0576
697 2 63.0453 66.954 16.0056
698 2 66.9095 67.0211 16.0208
699 2 70.8092 66.7598 0.0934698
700 2 74.8408 66.7301 0.426479
701 2 79.0579 66.8128 16.233
702 2 83.0173 67.0086 16.0759
703 2 87.0215 66.9494 15.9373
704 2 91.0231 66.9992 0.166175
705 2 95.0055 67.0699 15.8146
706 2 99.188 67.2217 16.0509
707 2 103.124 66.9638 0.00811507
708 2 107.127 67.1839 16.0451
709 2 111.242 67.2895 0.199492
710 2 115.164 67.466 0.0483099
711 2 119.297 67.17 0.245254
712 2 123.015 67.2293 15.9266
713 2 127.132 67.3286 15.8257
714 2 131.104 67.5002 15.769
715 2 135.069 67.2992 15.8816
716 2 139.051 67.3733 15.9112
717 2 142.609 67.1658 16.0679
718 2 146.477 67.164 0.136873
719 2 150.55 67.2102 16.0182
720 2 154.452 67.1547 16.088
721 2 0.0951808 71.1278 16.0258
722 2 3.89988 71.0417 15.9378
723 2 7.81878 71.0825 0.248364
724 2 12.0347 71.0916 15.8316
725 2 15.8412 70.9145 15.7657
726 2 19.9292 70.835 0.190972
727 2 23.8044 70.9049 15.8917
728 2 27.5885 71.0279 16.0871
729 2 31.5913 70.8399 15.8962
730 2 35.4813 70.6548 15.9648
731 2 39.4772 70.6443 15.8886
732 2 43.3458 70.5332 0.372724
733 2 46.9705 70.637 15.7765
734 2 51.0103 70.725 16.1493
735 2 55.0207 70.6356 15.8761
736 2 58.9738 70.6553 0.367644
737 2 63.0134 70.8893 16.1684
738 2 67.0417 70.7635 0.38464
739 2 71.0325 70.8985 15.9653
740 2 75.0149 70.6499 16.0709
741 2 79.194 70.7533 15.9713
742 2 83.1536 70.6875 0.0857731
743 2 87.0421 70.9435 15.982
744 2 90.9639 70.7989 0.243588
745 2 95.0455 70.8337 0.127308
746 2 99.0848 71.0966 16.0734
747 2 103.07 70.9448 0.00670692
748 2 107.41 71.2218 0.0797588
749 2 111.07 71.1041 15.9429
750 2 115.276 71.1849 0.0609844
751 2 119.206 71.3593 16.0174
752 2 123.243 71.2972 0.0994591
753 2 127.167 71.4615 15.8216
754 2 130.86 71.2039 15.9899
755 2 135.121 71.2986 15.7365
756 2 139.089 71.5005 16.0102
757 2 142.98 71.7086 15.9171
758 2 146.828 71.2288 15.7981
759 2 150.5 71.213 16.1287
760 2 154.459 71.2853 16.0672
761 2 0.169913 74.9472 16.008
762 2 4.04301 75.1087 15.9169
763 2 8.04919 74.936 15.9543
764 2 12.0384 75.0484 16.0235
765 2 15.893 74.8129 15.9065
766 2 19.8717 75.0034 16.0833
767 2 23.6802 74.9163 16.0179
768 2 27.5789 74.7746 15.8023
769 2 31.6373 74.7475 0.153408
770 2 35.4548 74.7088 16.1068
771 2 39.434 74.7738 16.0444
772 2 43.2236 74.6049 0.064877
773 2 47.1254 74.7905 15.8736
774 2 51.2175 74.628 0.326473
775 2 54.9001 74.605 15.9093
776 2 58.89 74.4862 15.6891
777 2 62.8862 74.7377 15.7998
778 2 67.0708 74.7606 15.9559
779 2 70.8251 74.7106 16.0532
780 2 74.979 74.4855 0.236385
781 2 79.0187 74.5816 16.1304
782 2 83.0848 74.7976 16.1277
783 2 86.7351 74.8044 15.8097
784 2 91.0628 74.8088 0.0127546
785 2 95.0046 74.741 15.831
786 2 99.0563 74.7761 0.144271
787 2 103.206 74.7464 15.9213
788 2 107.1 74.9717 0.248728
789 2 111.05 75.0213 15.8572
790 2 114.99 75.0697 0.231135
791 2 119.112 75.1449 16.0241
792 2 123.03 75.2209 16.2284
793 2 127.164 75.4501 -0.060559
794 2 131.228 75.2123 0.010457
795 2 135.007 75.2716 15.9196
796 2 138.93 75.2419 15.8576
797 2 143.172 75.3973 0.149261
798 2 146.925 75.2846 15.9559
799 2 150.683 75.2856 15.9322
800 2 154.561 75.1708 0.131514
801 2 0.206983 79.1649 15.814
802 2 4.07953 78.9478 15.8647
803 2 8.04247 79.0123 15.8557
804 2 11.8579 78.8928 15.8874
805 2 15.9499 78.9889 15.9513
806 2 19.7671 78.9586 15.8936
807 2 23.6806 78.8446 16.14
808 2 27.5675 78.91 16.0642
809 2 31.468 78.7779 0.189509
810 2 35.5748 78.8435 16.0214
811 2 39.352 78.7645 0.319278
812 2 43.3506 78.7316 0.190744
813 2 47.2695 78.4998 0.0245731
814 2 51.2247 78.6462 16.0335
815 2 55.1348 78.5078 15.776
816 2 58.9706 78.5778 15.799
817 2 63.2294 78.4681 15.8254
818 2 67.0481 78.4654 15.7763
819 2 71.0407 78.6053 15.9976
820 2 75.0419 78.5784 15.847
821 2 79.1808 78.4739 0.162949
822 2 83.0832 78.4633 0.17486
823 2 87.1316 78.7177 0.215335
824 2 91.0697 78.6365 0.226341
825 2 95.1006 78.617 0.145107
826 2 98.9836 78.6529 15.9329
827 2 103.034 78.9627 0.0208778
828 2 107.026 78.8838 15.9329
829 2 110.951 78.8809 0.017124
830 2 115.158 79.2675 15.9078
831 2 119.113 79.2007 0.0571361
832 2 123.238 79.3742 0.0590803
833 2 127.126 79.3434 15.7851
834 2 131.16 79.1176 0.00958099
835 2 134.962 79.2397 15.9508
836 2 138.976 79.3325 15.9048
837 2 142.973 79.2077 15.9409
838 2 146.702 79.1416 16.0939
839 2 150.725 79.244 15.7534
840 2 154.481 79.1195 15.9408
841 2 0.232973 83.0715 16.0382
842 2 4.2318 83.1967 15.9448
843 2 8.11472 83.0497 15.8525
844 2 12.0014 82.9804 15.7837
845 2 15.8942 82.9988 15.8441
846 2 19.8398 82.9123 15.94
847 2 23.5571 82.9289 16.1165
848 2 27.5275 83.0223 15.9995
849 2 31.5547 82.9201 15.9825
850 2 35.6079 82.7737 16.0279
851 2 39.6146 82.7135 0.1393
852 2 43.3675 82.7668 15.8598
853 2 47.2013 82.433 16.0355
854 2 51.2566 82.8677 15.8528
855 2 55.0375 82.5377 15.9267
856 2 58.8928 82.4366 15.9265
857 2 62.8035 82.2711 16.0676
858 2 66.8321 82.7005 0.17198
859 2 70.8676 82.5461 0.171913
860 2 74.9068 82.5973 15.8999
861 2 79.0371 82.5046 0.150212
862 2 83.0964 82.4378 15.9994
863 2 86.8404 82.653 16.058
864 2 90.9928 82.7352 0.124419
865 2 94.9772 82.9014 15.9021
866 2 98.8716 82.6931 15.8837
867 2 102.916 82.7796 0.16138
868 2 107.011 82.94 0.0945538
869 2 110.919 82.9828 15.8437
870 2 115.157 83.0925 15.7072
871 2 119.11 82.9273 0.0734669
872 2 123.066 83.0651 15.8977
873 2 127.234 83.1823 0.00882589
874 2 131.177 83.2025 16.0806
875 2 135.084 83.226 0.0918617
876 2 139.155 83.3429 15.7232
877 2 143.131 83.2135 -0.159764
878 2 146.789 83.0714 0.146585
879 2 150.75 83.2151 16.0627
880 2 154.811 83.1733 15.8996
881 2 0.299915 87.4422 15.8653
882 2 4.16509 86.981 0.074684
883 2 8.13257 87.1266 15.7318
884 2 11.896 86.9389 15.9688
885 2 15.8016 86.9601 0.461243
886 2 19.7804 86.9462 15.7373
887 2 23.6317 86.8521 15.7105
888 2 27.8175 86.9401 15.7046
889 2 31.6973 86.8975 15.8605
890 2 35.448 86.8191 15.9961
891 2 39.2347 86.7769 15.714
892 2 43.5303 86.9444 15.8054
893 2 47.3592 86.4696 0.302876
894 2 51.3007 86.5393 0.231653
895 2 55.1876 86.489 0.14464
896 2 59.1337 86.4631 15.9458
897 2 62.807 86.3424 15.8266
898 2 67.1866 86.3559 0.244992
899 2 70.9706 86.3907 0.0180788
900 2 75.0202 86.5113 16.0299
901 2 79.0985 86.377 0.195379
902 2 82.985 86.4996 0.240418
903 2 86.9281 86.5179 16.0007
904 2 91.0154 86.5069 0.0864502
905 2 94.9623 86.5021 15.9684
906 2 98.9655 86.5027 15.9137
907 2 102.706 86.8087 0.105914
908 2 106.972 86.8106 0.208037
909 2 111.021 86.8122 15.7432
910 2 115.138 86.6431 0.184153
911 2 119.292 86.8685 0.13445
912 2 123.099 86.8743 0.3348
913 2 127.055 86.9405 15.6884
914 2 131.117 87.0214 0.1837
915 2 134.999 87.1945 16.0121
916 2 138.954 87.2966 0.0949045
917 2 143.026 87.1868 0.0792157
918 2 147.001 87.3527 0.37285
919 2 150.924 87.3602 15.9246
920 2 154.677 87.1837 15.9221
921 2 0.21485 91.2177 15.8852
922 2 4.34461 91.0348 0.0999739
923 2 8.09184 91.1999 0.163119
924 2 11.9857 91.2132 0.327447
925 2 15.8507 91.0413 15.885
926 2 19.8385 90.9588 15.7467
927 2 23.6974 90.9966 15.7767
928 2 27.7983 91.0072 15.7979
929 2 31.7092 90.994 15.858
930 2 35.5959 90.8554 15.7968
931 2 39.5424 90.9099 15.9579
932 2 43.513 90.8011 0.176295
933 2 47.3058 90.5664 15.8796
934 2 51.3712 90.5701 15.9934
935 2 55.1932 90.5063 16.008
936 2 59.0901 90.3433 15.9466
937 2 63.0499 90.1505 0.334709
938 2 66.8586 90.1989 15.8416
939 2 70.8542 90.2294 15.8658
940 2 75.0258 90.3055 15.8085
941 2 78.8536 90.4057 0.31114
942 2 83.078 90.3581 0.17126
943 2 86.8998 90.1757 16.0849
944 2 90.9811 90.5713 0.108413
945 2 95.0204 90.4151 -0.0161298
946 2 98.9491 90.4608 0.170556
947 2 102.917 90.5762 0.135372
948 2 107.018 90.4831 0.210217
949 2 111.038 90.6785 15.9421
950 2 115.001 90.5948 0.287718
951 2 118.883 90.7735 0.157776
952 2 122.937 90.927 0.153511
953 2 127.058 90.9952 0.0607117
954 2 131.041 91.1138 15.9583
955 2 134.959 91.0726 0.123197
956 2 138.959 91.1478 0.099721
957 2 142.912 91.1246 0.240578
958 2 147.04 91.2065 0.23967
959 2 150.636 91.1786 15.867
960 2 154.79 91.157 0.0718525
961 2 0.503773 95.1244 15.7123
962 2 4.37752 95.0826 15.7635
963 2 8.23237 95.2307 -0.0175589
964 2 12.0231 94.9684 15.8873
965 2 15.873 94.978 15.79
966 2 19.8346 94.993 15.853
967 2 23.8434 94.9754 15.7501
968 2 27.7826 94.8614 15.9818
969 2 31.6645 94.9137 15.8043
970 2 35.5216 94.8446 0.136488
971 2 39.3857 94.7553 16.0079
972 2 43.4238 94.6131 15.7678
973 2 47.4283 94.5806 15.8708
974 2 51.3505 94.6292 0.10361
975 2 55.251 94.4889 15.9358
976 2 59.2895 94.3793 15.7692
977 2 63.0084 94.4057 15.9146
978 2 66.9485 94.1802 0.172535
979 2 70.9831 94.3103 0.0119276
980 2 74.8387 94.2022 15.973