ITEM: TIMESTEP
15300
ITEM: NUMBER OF ATOMS
32000
ITEM: BOX BOUNDS xy xz yz pp pp pp
0.0000000000000000e+00 1.5831999999999999e+02 0.0000000000000000e+00
0.0000000000000000e+00 1.5831999999999999e+02 0.0000000000000000e+00
1.6428955362865238e-01 1.5933422446371104e+01 0.0000000000000000e+00
ITEM: ATOMS id type x y z
1 2 157.99 158.061 15.9792
2 2 3.85063 158.138 0.452997
3 2 7.95958 158.071 0.173505
4 2 11.7951 158.088 15.8553
5 2 15.9355 158.106 0.0855099
6 2 19.8047 158.215 0.218341
7 2 23.8931 158.159 15.8212
8 2 27.7411 158.198 0.259132
9 2 31.749 158.039 15.9805
10 2 35.7406 158.17 0.273811
11 2 39.6511 158.133 0.274794
12 2 43.815 158.174 15.9881
13 2 47.7183 0.103799 15.9172
14 2 51.9855 0.163653 15.8952
15 2 55.7891 158.13 15.7774
16 2 59.7262 0.0237995 15.753
17 2 63.798 0.0583367 0.131263
18 2 67.4993 0.0294045 0.105506
19 2 71.725 158.33 15.9677
20 2 75.417 158.246 15.843
21 2 79.315 158.151 15.776
22 2 83.1503 158.066 0.0909682
23 2 87.12 157.935 0.00598643
24 2 91.027 158.059 0.05442
25 2 94.8935 158.183 0.0627791
26 2 98.7187 158.038 0.128644
27 2 102.846 157.92 0.317631
28 2 106.675 157.742 15.9121
29 2 110.507 157.77 0.250577
30 2 114.533 157.744 0.147913
31 2 118.565 157.932 0.135632
32 2 122.373 157.728 16.0342
33 2 126.14 157.684 15.9682
34 2 130.234 157.552 16.0763
35 2 134.071 157.417 16.0618
36 2 138.201 157.785 16.0702
37 2 141.985 157.827 15.9884
38 2 146.182 157.55 15.9823
39 2 150.057 158.106 15.8828
40 2 154.014 157.992 15.8807
41 2 157.719 3.73747 0.109873
42 2 3.75704 3.55939 15.8128
43 2 7.86885 3.72423 0.141475
44 2 11.8059 3.6555 -0.0572968
45 2 15.7066 3.6744 0.063007
46 2 19.6935 3.59115 15.9968
47 2 23.959 3.70378 0.0889114
48 2 27.8009 3.85986 0.321202
49 2 31.768 3.74499 0.217571
50 2 35.6908 3.93729 0.215551
51 2 39.7471 3.78474 0.29117
52 2 43.8624 3.88518 0.26223
53 2 47.7574 3.99304 15.7997
54 2 51.8136 3.97201 0.134623
55 2 55.8077 3.88654 0.193599
56 2 59.5965 3.84594 0.0569763
57 2 63.614 3.80729 16.0846
58 2 67.8442 3.99647 0.0184272
59 2 71.4313 4.00973 -0.0121541
60 2 75.4413 3.83514 0.0223537
61 2 79.3198 3.76927 0.0501931
62 2 83.2418 3.91785 0.279482
63 2 87.0937 3.64573 0.125255
64 2 91.0188 3.85241 0.0568806
65 2 94.9938 3.74899 15.7775
66 2 98.9285 3.67248 0.131801
67 2 102.814 3.65373 0.088606
68 2 106.573 3.48572 15.8789
69 2 110.819 3.46234 16.052
70 2 114.615 3.51946 15.9892
71 2 118.486 3.2659 15.8777
72 2 122.373 3.45024 0.18575
73 2 126.123 3.39226 15.8286
74 2 130.317 3.3335 0.249273
75 2 134.007 3.32635 15.769
76 2 138.084 3.29749 0.115806
77 2 142.026 3.28902 16.1812
78 2 146.137 3.45305 0.192187
79 2 149.948 3.46116 15.8857
80 2 153.842 3.88506 15.6623
81 2 157.849 7.38969 0.072718
82 2 3.74126 7.48593 15.7908
83 2 7.51034 7.65963 15.8926
84 2 11.6012 7.45366 15.7398
85 2 15.654 7.67947 -0.0547725
86 2 19.7061 7.75171 15.9791
87 2 23.6018 7.59964 0.145267
88 2 27.816 7.82692 0.280865
89 2 31.7855 7.75 15.8085
90 2 35.8131 7.72742 16.088
91 2 39.8108 7.82846 15.6929
92 2 43.7176 7.92338 16.0309
93 2 47.687 7.82771 0.337517
94 2 51.5128 7.95656 16.2121
95 2 55.6009 7.86182 0.314875
96 2 59.5587 7.90563 0.0240145
97 2 63.7951 7.88511 0.0243516
98 2 67.7562 7.87651 -0.0813715
99 2 71.6746 8.08689 -0.0928006
100 2 75.5119 7.7685 0.0232001
101 2 79.3552 7.80049 15.7664
102 2 83.2393 7.83167 0.106236
103 2 87.2158 7.864 15.7248
104 2 91.214 7.6839 0.253066
105 2 94.9074 7.6378 0.0581632
106 2 98.8839 7.63481 -0.0314355
107 2 102.894 7.71175 0.190104
108 2 106.796 7.72275 -0.0531324
109 2 110.646 7.44812 0.137215
110 2 114.549 7.26057 -0.0261553
111 2 118.349 7.55011 0.36748
112 2 122.239 7.39472 0.194817
113 2 126.265 7.4221 16.0892
114 2 130.07 7.33126 0.163942
115 2 134.119 7.40759 0.1223
116 2 137.972 7.28462 15.8791
117 2 141.854 7.20972 15.8867
118 2 145.87 7.3929 0.144089
119 2 149.963 7.32791 16.1867
120 2 153.811 7.59086 15.7656
121 2 158.016 11.3489 0.182603
122 2 3.48888 11.5584 0.0607272
123 2 7.3623 11.5462 15.9054
124 2 11.354 11.2775 15.9119
125 2 15.543 11.4553 15.7583
126 2 19.699 11.5901 -0.0718036
127 2 23.6686 11.5937 0.21727
128 2 27.7191 11.6141 0.189949
129 2 31.713 11.6694 0.327459
130 2 35.5397 11.8136 0.479231
131 2 39.7507 11.757 0.279709
132 2 43.6773 11.6824 16.1353
133 2 47.8488 11.6893 16.2397
134 2 51.6763 11.9043 15.9686
135 2 55.736 11.7668 0.144401
136 2 59.7741 11.7902 15.8838
137 2 63.7062 11.9383 0.172323
138 2 67.771 11.8915 15.6876
139 2 71.6656 11.9245 0.185992
140 2 75.5311 11.7166 0.201877
141 2 79.27 11.784 -0.159405
142 2 83.301 12.1407 0.166713
143 2 87.2757 11.8678 -0.00765033
144 2 91.1961 11.7962 0.00844289
145 2 94.9906 11.7398 0.0835507
146 2 98.8385 11.8516 0.169182
147 2 102.812 11.7062 0.0107435
148 2 106.788 11.8383 -0.0356493
149 2 110.699 11.5527 -0.0320328
150 2 114.765 11.4053 -0.0308807
151 2 118.515 11.4388 0.183457
152 2 122.39 11.5351 0.0162604
153 2 126.307 11.4652 0.194938
154 2 130.284 11.24 16.0295
155 2 134.194 11.4196 0.345364
156 2 137.904 11.2981 0.106926
157 2 141.971 11.1574 15.7585
158 2 145.877 11.3266 16.0006
159 2 149.727 11.2446 15.8414
160 2 153.76 11.1309 15.8345
161 2 157.714 15.2244 -0.0608332
162 2 3.40531 15.3288 -0.0967989
163 2 7.61148 15.4305 0.216749
164 2 11.6481 15.3685 15.8735
165 2 15.4521 15.3177 15.9719
166 2 19.6353 15.4325 0.173695
167 2 23.5637 15.3224 0.10281
168 2 27.7011 15.4086 15.8965
169 2 31.6058 15.4402 16.0375
170 2 35.6651 15.5135 0.344167
171 2 39.7281 15.5975 15.963
172 2 43.7371 15.7453 0.289883
173 2 47.6374 15.5998 0.371983
174 2 51.6703 15.6115 0.349842
175 2 55.7418 15.7577 16.041
176 2 59.6944 15.8666 0.327245
177 2 63.7375 15.8407 0.175186
178 2 67.4759 15.6727 0.269513
179 2 71.5567 15.7713 0.201647
180 2 75.5795 15.8308 15.9457
181 2 79.271 15.7902 0.136168
182 2 83.2541 15.8058 0.0512687
183 2 87.1695 15.8994 -0.0192964
184 2 91.3119 15.6992 0.0723032
185 2 94.9157 15.7949 0.0206782
186 2 99.2374 15.7803 0.244789
187 2 102.883 15.733 0.0599924
188 2 106.93 15.5336 0.176907
189 2 110.684 15.6426 0.238233
190 2 114.668 15.5061 0.131234
191 2 118.654 15.5341 0.12123
192 2 122.523 15.626 15.9591
193 2 126.383 15.3186 0.260259
194 2 130.217 15.5235 0.118961
195 2 134.248 15.2889 0.277294
196 2 138.189 15.3512 0.17481
197 2 142.074 15.2092 0.213372
198 2 146.016 15.3102 0.109827
199 2 149.828 15.1884 15.814
200 2 154.02 15.1827 0.0756098
201 2 157.867 19.1016 15.9122
202 2 3.45914 19.0934 0.312819
203 2 7.4672 19.3194 15.9842
204 2 11.4706 19.4152 16.1069
205 2 15.5584 19.2944 15.9316
206 2 19.6123 19.3161 0.0274226
207 2 23.7016 19.2921 0.0322377
208 2 27.5675 19.3532 0.127761
209 2 31.5974 19.4078 15.9421
210 2 35.7913 19.3981 16.1041
211 2 39.5857 19.4822 0.268619
212 2 43.6234 19.6041 16.1483
213 2 47.692 19.604 16.2175
214 2 51.6769 19.498 16.298
215 2 55.4223 19.712 16.1002
216 2 59.6622 19.6967 15.8493
217 2 63.6813 19.7583 16.0496
218 2 67.643 19.6773 15.9058
219 2 71.4647 19.7513 0.324487
220 2 75.6087 19.7928 0.289603
221 2 79.4834 19.942 0.349671
222 2 83.4141 19.9176 -0.0445669
223 2 87.1537 19.8173 15.8118
224 2 91.2298 19.9722 0.184971
225 2 95.0554 19.5601 0.00430718
226 2 98.9153 19.6973 15.7832
227 2 102.956 19.8333 15.7827
228 2 106.829 19.5673 15.8416
229 2 110.868 19.5812 0.0745669
230 2 114.7 19.5888 0.0109369
231 2 118.458 19.5971 15.8852
232 2 122.374 19.3587 0.199485
233 2 126.561 19.3895 0.200145
234 2 130.399 19.5398 0.0216783
235 2 134.174 19.2711 15.9078
236 2 138.026 19.2745 15.8824
237 2 142.251 19.4358 -0.114288
238 2 146.089 19.1929 0.0307386
239 2 149.964 19.2683 0.0503149
240 2 153.725 19.2587 15.8146
241 2 157.802 23.1572 15.9836
242 2 3.42838 23.1048 15.7702
243 2 7.55913 23.1404 0.263697
244 2 11.2953 23.0884 15.9022
245 2 15.3262 23.0626 15.9606
246 2 19.4953 23.2538 0.133928
247 2 23.4944 23.3017 15.9998
248 2 27.5446 23.464 16.0825
249 2 31.3195 23.2541 0.121086
250 2 35.5325 23.2746 16.0102
251 2 39.5916 23.5465 0.114496
252 2 43.5878 23.6639 15.988
253 2 47.5289 23.4966 16.1246
254 2 51.5901 23.5333 0.330952
255 2 55.4856 23.4768 16.071
256 2 59.6281 23.5794 16.1346
257 2 63.5718 23.674 15.9201
258 2 67.476 23.7035 0.142671
259 2 71.5048 23.9038 0.197844
260 2 75.4871 23.6183 0.10773
261 2 79.4799 23.8621 16.0083
262 2 83.4792 23.849 15.872
263 2 87.5459 24.0084 0.102117
264 2 91.2628 23.7031 15.8402
265 2 94.9875 23.762 15.8507
266 2 98.9772 23.9729 0.223155
267 2 102.985 23.6525 0.206355
268 2 106.876 23.7138 0.13081
269 2 110.871 23.5063 0.262425
270 2 114.869 23.7768 16.1138
271 2 118.651 23.5212 15.8761
272 2 122.483 23.4053 0.0925025
273 2 126.408 23.5489 0.185419
274 2 130.375 23.3682 15.9274
275 2 134.216 23.3757 0.140197
276 2 138.209 23.4063 15.9772
277 2 142.068 23.2688 0.18902
278 2 146.016 23.1497 0.23786
279 2 150.152 23.3343 0.0818594
280 2 153.982 23.1793 0.0448361
281 2 158.109 27.1303 0.145495
282 2 3.6976 27.1127 15.8826
283 2 7.64229 26.8906 0.122626
284 2 11.6102 27.062 16.0904
285 2 15.5162 27.0406 16.0096
286 2 19.5455 27.4552 0.310161
287 2 23.446 27.1002 0.272233
288 2 27.5258 27.4745 0.288629
289 2 31.6635 27.3704 15.994
290 2 35.2429 27.4444 0.177796
291 2 39.5371 27.3097 0.222291
292 2 43.4568 27.4265 15.7851
293 2 47.5189 27.6304 0.106047
294 2 51.5271 27.354 0.455482
295 2 55.6298 27.5421 0.264627
296 2 59.4975 27.3925 0.306931
297 2 63.6233 27.7238 0.200197
298 2 67.308 27.7341 0.445621
299 2 71.4194 27.7032 0.159602
300 2 75.2519 27.7509 15.976
301 2 79.5201 27.718 0.0894466
302 2 83.2796 27.75 15.8926
303 2 87.5566 27.7871 0.165814
304 2 91.529 27.9279 15.7927
305 2 95.4781 27.7003 16.055
306 2 99.2879 27.8769 0.161077
307 2 103.039 27.6733 0.218122
308 2 107.057 27.6978 15.7726
309 2 110.899 27.7579 0.0395822
310 2 114.67 27.5039 16.0111
311 2 118.744 27.4919 15.8736
312 2 122.525 27.5116 -0.00421132
313 2 126.473 27.4783 0.180951
314 2 130.256 27.2355 0.143414
315 2 134.313 27.3376 15.8489
316 2 138.333 27.1537 0.209058
317 2 142.352 27.1728 0.345125
318 2 146.398 27.2749 0.0260734
319 2 150.061 27.089 0.09255
320 2 154.064 27.2184 15.8878
321 2 157.954 31.1443 15.768
322 2 3.6639 31.0137 -0.032288
323 2 7.65028 31.0074 0.178027
324 2 11.4555 31.0431 15.8418
325 2 15.4957 31.0606 0.103692
326 2 19.5444 31.1412 16.0052
327 2 23.5733 31.1114 16.086
328 2 27.5524 31.0183 0.175228
329 2 31.3177 31.3098 0.393205
330 2 35.3972 31.3302 15.9813
331 2 39.4344 31.3304 15.8448
332 2 43.3865 31.2882 0.215933
333 2 47.3244 31.3144 15.8707
334 2 51.3383 31.2535 16.0394
335 2 55.3325 31.4091 0.123913
336 2 59.3712 31.5203 0.0565403
337 2 63.2625 31.4848 16.0573
338 2 67.584 31.6669 0.255133
339 2 71.3994 31.594 15.9287
340 2 75.5536 31.7979 0.051011
341 2 79.52 31.6753 0.25861
342 2 83.2985 31.7027 15.7385
343 2 87.461 31.5896 0.252651
344 2 91.3683 31.7576 0.356914
345 2 95.3251 31.9513 0.145882
346 2 99.4379 31.8333 0.0364809
347 2 103.315 31.8533 15.858
348 2 106.944 31.693 0.129624
349 2 110.919 31.7058 15.8896
350 2 115.121 31.7224 0.0914483
351 2 118.865 31.3958 15.8666
352 2 122.622 31.4741 0.180023
353 2 126.625 31.3528 0.223498
354 2 130.591 31.4016 0.205613
355 2 134.373 31.4482 0.226613
356 2 138.404 31.3679 15.8947
357 2 142.382 31.055 15.8348
358 2 146.219 31.1081 16.0794
359 2 150.139 31.0747 15.9297
360 2 154.101 31.0859 15.9632
361 2 158.157 35.1336 15.6466
362 2 3.52474 34.9234 0.0153559
363 2 7.47495 35.0616 -0.0153297
364 2 11.4883 34.9535 15.9165
365 2 15.5181 34.9889 0.121619
366 2 19.4761 35.0567 16.047
367 2 23.4495 34.9186 15.9861
368 2 27.4534 35.2305 0.248513
369 2 31.4736 35.2158 0.142097
370 2 35.3801 35.1469 15.9105
371 2 39.4493 35.2731 0.269694
372 2 43.4139 35.3181 16.0772
373 2 47.3569 35.1333 16.0421
374 2 51.4397 35.3251 0.306544
375 2 55.3945 35.2539 15.9065
376 2 59.4412 35.2528 0.207194
377 2 63.2172 35.4684 0.238182
378 2 67.2894 35.4439 0.397498
379 2 71.3907 35.4827 0.461523
380 2 75.5414 35.4677 15.917
381 2 79.3907 35.6683 15.9491
382 2 83.3955 35.5358 0.109119
383 2 87.4067 35.7352 0.267531
384 2 91.2337 35.6606 15.8668
385 2 95.2873 35.717 15.8859
386 2 99.3402 35.7921 0.203798
387 2 103.269 35.8912 16.0987
388 2 107.254 35.6582 0.0432862
389 2 111.138 35.4482 15.8542
390 2 114.945 35.7245 0.0807407
391 2 118.925 35.7239 16.1314
392 2 122.745 35.5211 15.898
393 2 126.874 35.3819 0.192797
394 2 130.619 35.3348 0.362253
395 2 134.507 35.2994 15.8439
396 2 138.368 35.1552 15.9382
397 2 142.302 35.1692 15.888
398 2 146.326 35.1442 15.9479
399 2 150.459 35.0864 0.125903
400 2 154.252 35.3495 0.126454
401 2 158.159 39.1511 0.103141
402 2 3.90366 39.0701 15.7926
403 2 7.55224 38.9648 15.7198
404 2 11.4436 39.0415 0.130787
405 2 15.3681 38.9507 0.120675
406 2 19.4446 38.9756 16.1343
407 2 23.5473 39.0045 15.993
408 2 27.2 39.0297 0.0735004
409 2 31.4534 38.9826 16.0528
410 2 35.3989 39.1268 0.27835
411 2 39.2759 39.0551 0.323852
412 2 43.4087 39.2059 0.125053
413 2 47.5215 39.0232 0.136878
414 2 51.5142 39.1819 0.382432
415 2 55.497 39.1351 0.3001
416 2 59.1831 39.2406 -0.0222299
417 2 63.4118 39.2765 15.9688
418 2 67.2137 39.2874 0.388293
419 2 71.254 39.3619 0.288046
420 2 75.3729 39.3884 0.17515
421 2 79.207 39.5122 15.9316
422 2 83.2149 39.4279 16.0391
423 2 87.2129 39.4731 15.8988
424 2 91.4237 39.6958 15.9074
425 2 95.2761 39.7893 15.869
426 2 99.3595 39.7497 0.130988
427 2 103.236 39.6899 0.0399392
428 2 107.292 39.4731 15.832
429 2 111.039 39.6425 15.8518
430 2 114.975 39.5554 15.9876
431 2 118.932 39.5132 15.9028
432 2 122.948 39.435 0.20712
433 2 126.822 39.3775 15.9923
434 2 130.64 39.4084 0.223016
435 2 134.559 39.3092 0.115136
436 2 138.702 39.1604 15.9366
437 2 142.419 39.1257 15.9504
438 2 146.441 39.1291 0.245047
439 2 150.35 39.1685 16.1346
440 2 154.43 39.1831 0.297851
441 2 158.11 43.0678 -0.130487
442 2 3.69967 42.9304 -0.0316414
443 2 7.67208 43.1616 -0.106295
444 2 11.6305 42.9723 0.143577
445 2 15.3447 43.049 0.264911
446 2 19.6084 42.9539 15.951
447 2 23.3902 42.8803 0.318042
448 2 27.1782 43.0251 0.410466
449 2 31.4018 42.9684 0.288233
450 2 35.2252 43.1174 0.347128
451 2 39.2135 42.9955 0.41517
452 2 43.2289 43.0815 0.0561467
453 2 47.4047 42.962 0.222631
454 2 51.2426 43.1 0.361332
455 2 55.4314 43.0225 0.323657
456 2 59.4089 43.183 0.215041
457 2 63.3226 43.0702 0.376511
458 2 67.413 43.1727 16.0208
459 2 71.3347 43.0916 15.9074
460 2 75.4163 43.1164 0.0859539
461 2 79.3467 43.486 0.215904
462 2 83.3466 43.3093 15.8628
463 2 87.1839 43.5527 15.8084
464 2 91.3738 43.5521 15.9373
465 2 95.4626 43.6468 0.0847346
466 2 99.3258 43.6471 0.0630083
467 2 103.434 43.7161 0.131455
468 2 107.108 43.7898 0.272603
469 2 110.958 43.4927 15.9791
470 2 115.109 43.6138 15.8385
471 2 119.05 43.4874 0.222804
472 2 122.85 43.3913 0.0163735
473 2 126.947 43.5069 0.173572
474 2 130.645 43.3545 0.158013
475 2 134.593 43.3933 16.0511
476 2 138.804 43.4469 15.859
477 2 142.599 43.2269 15.9852
478 2 146.489 43.1541 16.0319
479 2 150.466 43.206 0.295223
480 2 154.278 43.1743 15.9702
481 2 158.061 47.0449 15.8059
482 2 3.80622 46.9897 16.0023
483 2 7.8063 47.0997 15.8138
484 2 11.4849 46.8844 16.0513
485 2 15.4336 47.1065 0.124676
486 2 19.5264 46.8693 15.9471
487 2 23.3713 46.8959 0.241033
488 2 27.3246 46.9096 0.327315
489 2 31.2523 46.8533 0.31416
490 2 35.2888 46.9774 0.345235
491 2 39.256 47.0017 0.363297
492 2 43.2628 46.92 0.112019
493 2 47.3723 46.8902 15.9903
494 2 51.3121 47.0057 16.0573
495 2 55.3233 47.0119 0.322248
496 2 59.4144 47.0889 16.1776
497 2 63.3755 47.099 0.16592
498 2 67.2873 47.0889 0.269382
499 2 71.2391 47.141 0.217688
500 2 75.228 47.3177 15.9635
501 2 79.223 47.2887 16.0112
502 2 83.2767 47.2792 0.148434
503 2 87.2781 47.4444 0.245807
504 2 91.1677 47.4153 15.838
505 2 95.2975 47.3965 0.200454
506 2 99.1401 47.6628 0.310253
507 2 103.203 47.585 15.669
508 2 107.123 47.7098 0.268618
509 2 111.13 47.5026 16.099
510 2 115.17 47.7343 16.0114
511 2 118.898 47.6008 0.258907
512 2 122.89 47.5994 0.322625
513 2 127.081 47.6442 0.162393
514 2 131.014 47.4781 0.187885
515 2 134.727 47.4223 15.8506
516 2 138.846 47.2326 0.138156
517 2 142.877 47.219 15.7992
518 2 146.577 47.1546 0.234156
519 2 150.359 47.0099 15.7253
520 2 154.375 47.2163 0.0655296
521 2 158.384 50.8987 0.112099
522 2 3.90552 51.1392 0.147243
523 2 7.54679 51.0197 0.179573
524 2 11.6083 50.8601 15.833
525 2 15.5597 50.9502 0.0445053
526 2 19.4228 50.7929 0.295741
527 2 23.4288 51.0522 0.115518
528 2 27.2677 50.7339 16.1077
529 2 31.4251 50.7653 16.0528
530 2 35.2923 50.7459 0.280799
531 2 39.2752 50.76 16.0073
532 2 43.1908 50.7224 0.0366925
533 2 47.0631 50.7203 0.0138485
534 2 51.4565 50.8192 16.0903
535 2 55.2733 51.0167 15.9068
536 2 59.278 51.1455 15.9319
537 2 63.2377 51.1509 0.286047
538 2 67.2395 50.8839 0.290001
539 2 71.0396 51.1682 15.977
540 2 75.1779 51.0776 0.310886
541 2 79.2589 51.2517 16.0171
542 2 83.223 51.3652 16.2064
543 2 87.1912 51.424 15.9493
544 2 91.1963 51.3844 0.294349
545 2 95.0259 51.5137 0.0414218
546 2 99.3756 51.5567 15.8313
547 2 103.476 51.5967 0.143057
548 2 107.351 51.7961 16.0932
549 2 111.355 51.4945 0.27778
550 2 114.984 51.5081 0.280427
551 2 119.149 51.4973 0.168528
552 2 123.175 51.583 0.254233
553 2 126.879 51.3521 15.7409
554 2 130.903 51.4923 0.407714
555 2 134.975 51.3806 15.736
556 2 138.701 51.2221 0.178365
557 2 142.676 51.2086 15.8234
558 2 146.46 51.2107 15.8468
559 2 150.425 51.2533 0.275952
560 2 154.302 51.092 0.162062
561 2 158.498 54.9684 0.0806017
562 2 3.90532 55.0446 -0.0540269
563 2 7.81148 55.1346 0.264122
564 2 11.5703 55.0161 16.0305
565 2 15.5729 55.0858 16.0496
566 2 19.406 54.8838 15.8091
567 2 23.5141 54.906 16.0417
568 2 27.461 54.7968 15.9651
569 2 31.5107 54.813 0.296589
570 2 35.3914 54.721 16.0464
571 2 39.097 54.901 0.296711
572 2 43.1375 54.8949 16.0712
573 2 47.3726 54.627 15.9551
574 2 51.3305 54.8108 16.0017
575 2 55.2073 54.9094 0.140716
576 2 59.1245 55.1426 0.0556793
577 2 62.9202 55.139 15.8159
578 2 67.2303 55.1807 0.18587
579 2 71.2749 55.1453 16.0691
580 2 75.2541 55.2772 16.1064
581 2 79.1068 54.9349 16.1491
582 2 83.1159 55.1337 15.9739
583 2 87.1484 55.2401 0.254857
584 2 91.272 55.4038 0.196838
585 2 95.137 55.2321 0.296589
586 2 99.1358 55.2743 15.8255
587 2 103.212 55.5915 0.24861
588 2 107.423 55.4996 0.0865656
589 2 111.111 55.3335 15.91
590 2 115.206 55.496 0.210455
591 2 119.184 55.5305 0.398376
592 2 123.118 55.6659 0.264772
593 2 127.016 55.5584 16.0891
594 2 131.016 55.2214 15.958
595 2 134.742 55.2494 15.958
596 2 138.719 55.2605 0.303052
597 2 142.616 55.4223 0.0427741
598 2 146.322 55.4595 16.1261
599 2 150.251 55.1741 15.934
600 2 154.468 55.135 0.0988065
601 2 -0.00507393 59.0889 0.0117852
602 2 3.83616 59.1093 0.160982
603 2 7.69995 59.217 0.217382
604 2 11.6907 59.0948 15.8725
605 2 15.6981 58.9997 0.0467482
606 2 19.6578 58.8177 16.0438
607 2 23.5809 58.8689 15.9815
608 2 27.3495 58.8044 0.268404
609 2 31.1773 58.7737 16.0196
610 2 35.3047 58.7531 0.208524
611 2 39.2554 58.9901 0.239145
612 2 43.302 58.7768 15.8941
613 2 47.1893 58.7109 0.278844
614 2 51.1737 58.9063 16.2401
615 2 55.1258 58.8981 16.0254
616 2 59.2013 58.9706 15.9663
617 2 63.1216 59.2087 0.246343
618 2 67.2091 59.0626 15.9541
619 2 71.1588 59.0053 0.131706
620 2 75.3322 59.1539 0.214196
621 2 79.2 59.0088 16.2271
622 2 83.0158 58.9385 15.967
623 2 87.1279 59.0357 0.248348
624 2 91.146 59.184 0.26741
625 2 95.1676 59.1987 0.10578
626 2 99.2352 59.1071 15.7909
627 2 103.317 59.3165 0.275106
628 2 107.405 59.3082 0.239472
629 2 111.253 59.3645 0.203921
630 2 115.021 59.6412 -0.00692713
631 2 119.155 59.4145 0.3059
632 2 123.017 59.5442 0.0449333
633 2 127.049 59.6 0.0507275
634 2 131.042 59.5277 15.9093
635 2 134.65 59.3469 0.226437
636 2 138.648 59.4134 0.317476
637 2 142.726 59.3617 16.0537
638 2 146.622 59.2171 0.0397893
639 2 150.445 59.2668 0.0517001
640 2 154.512 59.1665 0.0756642
641 2 0.115368 63.2413 15.8714
642 2 3.96711 63.2563 15.848
643 2 7.87504 63.0843 0.099476
644 2 11.6781 63.0628 0.25369
645 2 15.648 63.0125 15.9692
646 2 19.6049 62.7352 16.0679
647 2 23.6819 62.8545 16.0813
648 2 27.4393 62.809 0.173647
649 2 31.2713 62.742 15.874
650 2 35.4737 62.8406 16.0432
651 2 39.1814 62.7373 0.0793183
652 2 43.2369 62.4654 0.173491
653 2 47.2303 62.6972 16.0083
654 2 51.1597 62.5705 0.295838
655 2 55.0528 62.7775 0.152202
656 2 59.0491 62.9154 0.148705
657 2 63.0094 63.0672 0.278998
658 2 66.9455 63.1114 0.286695
659 2 71.03 62.7888 0.146328
660 2 75.0769 62.9082 16.0012
661 2 78.9254 62.9051 15.9956
662 2 82.9385 63.0479 16.1044
663 2 86.9325 62.9535 0.262215
664 2 91.236 63.056 16.1135
665 2 95.2204 63.0912 0.310432
666 2 99.0191 62.9748 0.265415
667 2 103.318 63.0016 0.210258
668 2 107.296 63.3223 0.199088
669 2 111.164 63.4492 -0.0328645
670 2 115.188 63.4118 0.189086
671 2 119.112 63.5005 16.0769
672 2 123.172 63.6028 15.7724
673 2 127.034 63.5954 15.8763
674 2 131.04 63.4381 0.212571
675 2 134.952 63.4879 15.9516
676 2 138.795 63.3052 0.193017
677 2 142.641 63.2225 0.233138
678 2 146.596 63.2371 0.0913546
679 2 150.471 63.1595 16.0423
680 2 154.53 62.991 16.0437
681 2 0.221602 67.1437 0.275464
682 2 3.95011 67.2459 0.149314
683 2 7.90129 66.991 0.238132
684 2 12.1793 67.0952 15.9342
685 2 15.7417 66.8132 16.1186
686 2 19.5913 66.7897 15.9605
687 2 23.6832 67.0188 15.9416
688 2 27.5191 66.9013 16.1135
689 2 31.4092 66.7337 0.165015
690 2 35.3419 66.7224 0.216619
691 2 39.1318 66.7491 0.272437
692 2 43.1773 66.6221 15.9745
693 2 47.0787 66.6793 0.231511
694 2 50.9912 66.7355 15.8513
695 2 55.0141 66.702 15.9429
696 2 59.1264 66.7627 15.8301
697 2 63.0394 66.9048 15.992
698 2 67.0179 66.968 16.0575
699 2 71.2202 66.9221 0.214418
700 2 75.1578 66.8688 0.19704
701 2 78.9707 66.9811 15.9581
702 2 82.9936 66.7923 16.0768
703 2 86.9378 66.8958 15.8087
704 2 91.1576 66.9361 0.12925
705 2 95.1512 66.9825 15.9831
706 2 99.1188 66.8691 15.7145
707 2 103.104 67.1502 0.0616678
708 2 107.317 67.1058 15.8165
709 2 111.039 67.2726 0.187132
710 2 115.081 67.2155 0.161005
711 2 119.024 67.5657 0.000751551
712 2 123.214 67.3639 16.0408
713 2 127.205 67.4846 15.8566
714 2 131.079 67.3405 15.8978
715 2 134.796 67.3911 15.9189
716 2 138.621 67.1886 16.0226
717 2 142.863 67.2162 15.8634
718 2 146.747 67.2934 0.249904
719 2 150.503 67.0886 15.9542
720 2 154.545 67.0825 16.1393
721 2 0.198411 71.0591 16.1137
722 2 4.11115 71.0204 15.9894
723 2 8.0853 70.9053 0.0827131
724 2 11.8118 70.969 15.8926
725 2 16.004 70.9357 16.06
726 2 19.7201 70.9296 0.216668
727 2 23.5766 70.965 15.9817
728 2 27.4679 71.0278 16.0713
729 2 31.4333 70.8741 16.1316
730 2 35.4017 70.8437 16.1436
731 2 39.2215 70.6606 16.1135
732 2 43.1265 70.817 -0.0435231
733 2 47.0984 70.6593 16.0043
734 2 50.8464 70.6882 16.0021
735 2 54.8707 70.614 16.0644
736 2 59.0434 70.6505 0.12154
737 2 62.9853 70.7529 15.9712
738 2 66.9486 70.8125 0.291479
739 2 71.0925 70.5773 16.1487
740 2 75.0342 70.7691 16.0121
741 2 78.9153 70.8913 16.1216
742 2 82.9993 70.9641 0.366801
743 2 87.1505 70.8477 15.8518
744 2 90.9856 70.8338 0.0951967
745 2 95.0976 71.0036 0.275169
746 2 99.1612 70.741 15.8751
747 2 103.255 71.0185 0.263381
748 2 106.915 71.0424 0.112225
749 2 111.008 71.2317 16.0323
750 2 115.062 71.3436 0.231452
751 2 119.02 71.3527 15.8946
752 2 123.021 71.2098 0.164139
753 2 126.964 71.3699 15.7053
754 2 131.199 71.5064 15.7479
755 2 135.143 71.4747 15.9082
756 2 139.082 71.2052 15.8102
757 2 142.905 71.0408 16.0354
758 2 146.786 71.3284 16.0917
759 2 150.663 71.11 15.9553
760 2 154.52 70.9773 15.9741
761 2 0.269909 75.2098 15.9243
762 2 4.25614 75.0423 15.9526
763 2 8.01027 75.0513 15.9158
764 2 12.0651 74.7662 15.8038
765 2 15.9791 75.0348 15.9182
766 2 19.6655 74.7901 15.9541
767 2 23.688 75.0069 16.1203
768 2 27.7618 75.1495 16.1383
769 2 31.6535 75.0415 0.290331
770 2 35.5057 74.8138 15.8515
771 2 39.3972 74.581 15.8217
772 2 43.3447 74.7646 0.330078
773 2 47.2364 74.6644 15.785
774 2 51.0946 74.6506 0.0979522
775 2 55.1809 74.6072 15.8487
776 2 59.1481 74.538 16.0061
777 2 63.0776 74.6175 15.8199
778 2 67.0066 74.6616 16.1545
779 2 71.1379 74.5187 16.1618
780 2 75.0907 74.785 0.0842298
781 2 79.0751 74.7012 15.9696
782 2 82.9949 74.6552 15.8157
783 2 87.2261 74.7105 15.8394
784 2 91.0314 74.8096 0.172155
785 2 95.1459 74.8526 15.9572
786 2 99.114 74.9815 0.082429
787 2 102.903 75.17 15.7442
788 2 107.098 74.9744 0.107315
789 2 111.077 75.0788 15.9967
790 2 115.119 75.3023 0.186364
791 2 119.083 75.3387 15.8253
792 2 123.052 75.2295 15.7527
793 2 126.899 75.2724 0.122341
794 2 130.996 75.3673 0.121584
795 2 135.152 75.2955 15.8389
796 2 139.114 75.6394 15.855
797 2 142.781 75.1378 0.184679
798 2 146.823 75.1268 15.8558
799 2 150.766 75.2189 15.8784
800 2 154.761 75.2816 0.426029
801 2 0.158385 79.0545 16.0624
802 2 4.04377 79.2165 16.0141
803 2 8.17104 78.9953 15.9447
804 2 12.1422 79.0428 15.8545
805 2 15.8145 78.8791 15.8127
806 2 19.7373 78.877 16.1489
807 2 23.7584 78.9887 16.0013
808 2 27.6401 78.878 15.832
809 2 31.729 78.9721 0.307902
810 2 35.4388 78.8312 16.0145
811 2 39.6347 78.7169 0.0870675
812 2 43.4642 78.5448 0.211043
813 2 47.1587 78.7865 0.111312
814 2 51.0358 78.4686 15.873
815 2 55.0676 78.5741 15.8735
816 2 59.1164 78.3034 15.9414
817 2 62.9226 78.5177 15.8875
818 2 67.1177 78.7224 16.0358
819 2 71.0489 78.5964 15.8955
820 2 75.0846 78.5062 15.9699
821 2 79.042 78.5928 0.25739
822 2 83.0413 78.7092 0.238238
823 2 87.0138 78.6593 0.164918
824 2 91.0096 78.7361 0.276665
825 2 95.0848 78.7908 0.222643
826 2 99.1359 78.838 15.914
827 2 103.08 78.8471 0.167957
828 2 107.094 78.85 15.9465
829 2 110.874 79.0419 0.0412808
830 2 115.114 79.0033 15.882
831 2 119.121 79.1585 -0.00560865
832 2 122.873 79.1095 0.117379
833 2 127.041 79.2696 15.9379
834 2 131.084 79.3717 0.201078
835 2 135.238 79.4031 15.8941
836 2 138.953 79.3522 15.6486
837 2 142.909 79.3294 15.7722
838 2 146.81 79.2854 15.7356
839 2 150.759 79.0989 16.022
840 2 154.752 79.2037 15.8962
841 2 0.232685 83.1869 15.8697
842 2 4.0593 82.8942 15.8317
843 2 7.96093 83.0019 15.8101
844 2 12.0005 83.1019 15.9624
845 2 15.8023 82.7507 15.9133
846 2 19.6373 82.7914 15.8841
847 2 23.6475 82.9154 15.8162
848 2 27.7983 83.0478 15.9869
849 2 31.4929 82.736 15.842
850 2 35.3332 82.9176 15.9827
851 2 39.3781 82.8988 -0.0613861
852 2 43.5198 82.7269 15.9411
853 2 47.392 82.8113 15.9032
854 2 51.1608 82.4768 15.7296
855 2 55.1704 82.5563 15.8941
856 2 59.2965 82.3585 15.9807
857 2 63.1871 82.4097 15.7978
858 2 67.1434 82.5849 0.0788755
859 2 71.0834 82.3327 0.066864
860 2 75.0269 82.5356 15.7137
861 2 78.9254 82.3435 0.119483
862 2 82.9255 82.5997 15.8538
863 2 87.0797 82.6731 15.8023
864 2 91.0428 82.5281 0.17864
865 2 94.9934 82.4317 15.8612
866 2 99.0207 82.7122 15.8199
867 2 103.034 82.6702 0.219916
868 2 107.078 82.673 0.224196
869 2 111.135 82.849 15.7735
870 2 114.964 82.9164 15.8634
871 2 119.184 83.1471 0.0995887
872 2 123.153 83.0719 15.7653
873 2 127.078 82.9766 0.117236
874 2 131.11 83.1866 15.812
875 2 135.099 83.1435 -0.0187906
876 2 138.939 83.2955 15.6991
877 2 142.756 83.3904 0.00363679
878 2 146.824 83.3585 0.0323007
879 2 150.722 83.1392 15.8795
880 2 154.597 83.2089 15.9555
881 2 0.159627 87.2985 16.0223
882 2 4.11073 87.0847 0.129546
883 2 8.03399 87.0879 15.8632
884 2 11.9711 87.1794 15.7316
885 2 15.8889 86.9487 -0.140196
886 2 19.6946 86.8313 15.9274
887 2 23.7784 86.8679 15.9002
888 2 27.5762 86.8121 15.9406
889 2 31.6217 86.8709 15.9106
890 2 35.499 86.8139 15.7657
891 2 39.5913 86.8897 15.8569
892 2 43.2109 86.752 15.7937
893 2 47.1308 86.7511 0.0650143
894 2 51.0074 86.5653 -0.0209197
895 2 54.9793 86.6914 0.352235
896 2 59.0089 86.2227 15.9076
897 2 63.0869 86.2592 15.8684
898 2 66.9559 86.4015 0.105984
899 2 70.9551 86.3138 0.0393026
900 2 74.9234 86.2316 15.9208
901 2 78.8992 86.3986 0.105501
902 2 83.0053 86.4333 0.265334
903 2 87.1245 86.5928 15.9052
904 2 91.043 86.5538 0.207281
905 2 95.0243 86.7043 15.6147
906 2 98.9252 86.703 15.7385
907 2 103.027 86.6065 0.133471
908 2 106.886 86.6537 0.116488
909 2 111.041 86.8574 15.8751
910 2 115.003 87.086 0.0659686
911 2 118.84 86.9311 0.133958
912 2 123.077 87.0301 0.0847162
913 2 127.009 87.092 16.216
914 2 130.916 87.3485 0.202091
915 2 134.922 87.1376 15.9227
916 2 138.922 87.2306 0.118601
917 2 143.08 87.3592 0.0403124
918 2 146.889 87.4346 -0.0888744
919 2 150.778 87.2754 15.9395
920 2 154.767 87.2215 15.8344
921 2 0.416324 91.1842 15.9024
922 2 4.26018 91.105 -0.0130252
923 2 8.31762 91.2359 0.20337
924 2 12.1671 90.9422 0.0620155
925 2 15.9294 90.9421 15.8855
926 2 19.8549 91.1579 16.0493
927 2 23.8325 90.7683 15.7448
928 2 27.6949 90.7796 15.8926
929 2 31.4967 90.822 15.8381
930 2 35.5407 90.8554 15.9409
931 2 39.614 90.5794 15.905
932 2 43.3558 90.7143 -0.0665987
933 2 47.4658 90.6266 16.0795
934 2 51.1821 90.5743 15.8455
935 2 55.1004 90.408 15.951
936 2 59.1268 90.4856 15.8999
937 2 63.0764 90.3622 0.162476
938 2 67.0064 90.2596 15.9442
939 2 70.9762 90.2568 15.8671
940 2 74.845 90.3174 15.7275
941 2 79.1045 90.2328 0.180615
942 2 82.8887 90.3907 0.377734
943 2 86.9629 90.5735 15.8172
944 2 90.9219 90.3268 0.187207
945 2 94.8656 90.5418 0.0948855
946 2 98.9266 90.577 0.00530018
947 2 102.972 90.6786 0.174741
948 2 106.931 90.6901 0.124285
949 2 110.994 90.722 15.8307
950 2 115.093 90.776 0.126313
951 2 119.152 90.8069 0.198436
952 2 123.131 90.9332 0.0311962
953 2 126.994 90.9906 0.20367
954 2 131.029 90.9519 16.0227
955 2 135.095 91.1542 0.279136
956 2 139.154 91.1803 0.0915121
957 2 142.947 91.3582 0.297862
958 2 146.968 91.3349 0.152909
959 2 151.059 91.1451 16.0972
960 2 154.834 91.3243 0.0860521
961 2 0.35011 95.5348 15.9023
962 2 4.41199 95.2803 15.7046
963 2 8.29789 95.1222 0.106223
964 2 12.3538 95.1525 15.7416
965 2 16.0905 95.195 15.9518
966 2 19.9538 94.9764 15.8974
967 2 23.7969 95.0679 15.7264
968 2 27.7091 94.954 15.6631
969 2 31.7282 94.7897 15.8063
970 2 35.7607 94.7233 0.298263
971 2 39.7206 94.7265 15.7925
972 2 43.563 94.7814 15.8957
973 2 47.4034 94.8349 15.8621
974 2 51.5078 94.6269 0.479906
975 2 55.3739 94.5539 15.9604
976 2 59.1396 94.4952 15.9095
977 2 63.0748 94.2399 15.8947
978 2 67.0814 94.2765 0.0776569
979 2 70.8926 94.2218 0.189502
980 2 75.1464 94.2689 16.0725