ITEM: TIMESTEP
15600
ITEM: NUMBER OF ATOMS
32000
ITEM: BOX BOUNDS xy xz yz pp pp pp
0.0000000000000000e+00 1.5831999999999999e+02 0.0000000000000000e+00
0.0000000000000000e+00 1.5831999999999999e+02 0.0000000000000000e+00
1.6523733638550908e-01 1.5932474663614252e+01 0.0000000000000000e+00
ITEM: ATOMS id type x y z
1 2 158.086 157.829 16.0748
2 2 3.83553 158.123 0.275792
3 2 7.84932 157.947 0.219444
4 2 11.6098 158.065 16.0045
5 2 15.8363 158.078 0.198576
6 2 19.8433 158.101 0.363826
7 2 23.822 158.044 16.0562
8 2 27.7113 158.271 0.529536
9 2 31.7599 158.058 16.1162
10 2 35.7652 158.247 0.365714
11 2 39.6947 158.223 0.0367091
12 2 43.855 158.127 15.9457
13 2 47.7223 0.107434 16.084
14 2 51.8933 0.133231 16.1248
15 2 55.8618 158.265 15.9065
16 2 59.8186 0.187042 15.8
17 2 63.811 0.0457359 0.0811169
18 2 67.5828 0.0497269 0.0978952
19 2 71.5859 158.405 15.9505
20 2 75.5552 158.508 15.6248
21 2 79.5255 158.22 15.7828
22 2 83.2269 158.131 0.103405
23 2 87.2312 157.799 -0.0338293
24 2 90.9676 157.974 0.30113
25 2 94.981 157.965 0.260927
26 2 98.6734 157.857 0.160441
27 2 102.873 157.884 0.322886
28 2 106.738 157.859 15.8812
29 2 110.531 157.799 0.0994796
30 2 114.357 157.77 0.0286609
31 2 118.487 157.808 0.151182
32 2 122.389 157.58 16.033
33 2 126.172 157.665 15.8891
34 2 130.204 157.604 15.9152
35 2 134.127 157.421 15.9658
36 2 138.033 157.731 16.19
37 2 142.03 157.582 15.7499
38 2 145.982 157.434 16.0728
39 2 150.05 157.698 16.0945
40 2 153.974 157.826 16.0504
41 2 157.866 3.29564 0.30372
42 2 3.73041 3.57741 15.855
43 2 7.82432 3.5268 0.303885
44 2 11.7065 3.5934 0.247166
45 2 15.7833 3.73622 0.317412
46 2 19.6372 3.84304 16.0485
47 2 23.9286 3.78764 0.148547
48 2 27.7905 3.82733 0.338796
49 2 31.7446 3.75719 0.154364
50 2 35.5957 3.8307 0.181025
51 2 39.6118 3.85368 0.253364
52 2 43.9728 3.85758 0.379409
53 2 47.8229 3.93079 15.8872
54 2 51.7147 4.04607 0.211954
55 2 55.8778 4.08732 0.283038
56 2 59.7233 4.09089 0.24058
57 2 63.724 4.05216 15.9371
58 2 67.7769 4.09816 0.128429
59 2 71.6676 4.09605 0.139541
60 2 75.5084 3.93923 0.0726125
61 2 79.3085 3.83717 0.209429
62 2 83.3899 4.06531 0.225229
63 2 87.227 3.63091 0.0204298
64 2 91.1613 3.72908 -0.00557752
65 2 95.1602 3.66401 15.8855
66 2 98.8478 3.63639 0.0748403
67 2 102.775 3.53139 -0.00210276
68 2 106.616 3.37213 15.8315
69 2 110.555 3.4935 15.9897
70 2 114.399 3.50852 15.8726
71 2 118.234 3.4909 15.8912
72 2 122.313 3.42075 0.196816
73 2 126.153 3.37495 15.7417
74 2 130.313 3.29855 0.163035
75 2 134.175 3.29383 15.8226
76 2 138.029 3.39926 0.0360818
77 2 142.108 3.18346 15.9695
78 2 145.923 3.23589 -0.00731037
79 2 149.923 3.37256 15.8571
80 2 154.021 3.63864 15.968
81 2 157.898 7.39785 0.251071
82 2 3.77802 7.42319 15.8567
83 2 7.57687 7.54446 15.982
84 2 11.5957 7.48612 16.1072
85 2 15.6301 7.62793 0.363617
86 2 19.7382 7.62649 16.18
87 2 23.7033 7.6015 0.331367
88 2 27.8648 7.65985 0.223036
89 2 31.6663 7.57394 15.8304
90 2 35.7408 7.83418 16.0316
91 2 39.741 7.91162 15.9541
92 2 43.7399 7.98526 16.0136
93 2 47.7148 7.84546 0.164887
94 2 51.6244 7.95702 16.0328
95 2 55.7107 7.89672 0.139794
96 2 59.7344 7.87738 0.0892659
97 2 63.7675 7.90908 0.18524
98 2 67.709 8.00799 0.170319
99 2 71.6908 8.03557 0.112478
100 2 75.5879 7.80309 0.151836
101 2 79.4958 7.80689 15.923
102 2 83.343 7.88191 0.224581
103 2 87.3101 7.80081 15.63
104 2 91.2242 7.67864 0.226371
105 2 95.0734 7.57459 0.23198
106 2 99.025 7.55546 0.0223235
107 2 102.815 7.74326 0.316535
108 2 106.688 7.60217 0.169236
109 2 110.41 7.64375 0.376557
110 2 114.609 7.30352 0.188084
111 2 118.243 7.54857 0.180154
112 2 122.194 7.47573 0.266106
113 2 126.147 7.37572 16.0869
114 2 130.22 7.29299 0.193259
115 2 134.113 7.40692 0.130759
116 2 138.006 7.37794 16.2183
117 2 141.996 7.21058 15.9907
118 2 145.954 7.28238 0.0679311
119 2 149.931 7.08153 16.1462
120 2 153.936 7.54012 15.8415
121 2 158.068 11.2557 0.306137
122 2 3.52108 11.4263 0.094445
123 2 7.43464 11.3847 16.0308
124 2 11.5602 11.4847 15.9141
125 2 15.6349 11.5134 16.0195
126 2 19.7198 11.5243 0.107184
127 2 23.7612 11.4025 0.411168
128 2 27.7019 11.6104 0.436773
129 2 31.7712 11.5456 0.343296
130 2 35.6691 11.6444 0.33203
131 2 39.7168 11.6409 0.264439
132 2 43.6191 11.6108 16.1505
133 2 47.743 11.8731 15.9412
134 2 51.661 11.8124 15.6426
135 2 55.8656 11.8724 0.135677
136 2 59.7331 11.8761 16.1304
137 2 63.7591 11.994 0.333377
138 2 67.6614 12.1163 16.061
139 2 71.7305 12.0967 0.133814
140 2 75.6823 11.9701 -0.0111119
141 2 79.6727 11.9729 -0.16135
142 2 83.4781 12.1332 0.225266
143 2 87.2153 11.6418 0.131624
144 2 91.2576 11.6007 0.115009
145 2 95.126 11.6127 0.160308
146 2 99.0431 11.7983 0.15077
147 2 102.952 11.6644 0.233436
148 2 106.703 11.8384 0.166838
149 2 110.836 11.6061 0.289684
150 2 114.811 11.4236 0.170927
151 2 118.584 11.4691 0.384922
152 2 122.328 11.435 0.0754494
153 2 126.43 11.3659 0.228189
154 2 130.285 11.399 15.939
155 2 134.239 11.3962 0.279463
156 2 138.063 11.3769 0.267247
157 2 142.009 11.1839 16.0388
158 2 145.905 11.2047 15.9931
159 2 149.85 11.1601 15.8188
160 2 153.986 11.0886 16.0602
161 2 157.784 15.0988 0.297914
162 2 3.54016 15.3487 -0.169447
163 2 7.66355 15.3866 0.268522
164 2 11.6702 15.3895 15.8333
165 2 15.5926 15.4549 16.1259
166 2 19.702 15.4438 0.387976
167 2 23.5888 15.4833 0.311231
168 2 27.7007 15.4661 16.2196
169 2 31.6291 15.4829 16.1128
170 2 35.7305 15.5313 0.376119
171 2 39.7251 15.5401 16.0403
172 2 43.8636 15.6266 0.221221
173 2 47.5574 15.7566 0.130804
174 2 51.5397 15.6735 0.217504
175 2 55.6651 15.6317 15.9373
176 2 59.6637 15.8815 0.388406
177 2 63.5342 16.0063 0.0908031
178 2 67.6458 15.8777 0.0763839
179 2 71.6018 15.9703 -0.0412325
180 2 75.6199 15.9704 15.7754
181 2 79.6261 15.9502 0.144907
182 2 83.4924 15.774 0.0809851
183 2 87.3728 15.8091 -0.013061
184 2 91.2001 15.8419 0.186874
185 2 95.1518 15.7262 -0.0129228
186 2 99.218 15.6165 0.398007
187 2 103.04 15.7074 0.182443
188 2 106.924 15.6051 0.292532
189 2 110.769 15.6137 0.282197
190 2 114.654 15.5098 0.37162
191 2 118.58 15.5763 0.264027
192 2 122.65 15.587 15.8874
193 2 126.493 15.3754 0.2259
194 2 130.317 15.3759 0.0589049
195 2 134.136 15.4044 0.0643434
196 2 138.354 15.4622 0.280524
197 2 142.049 15.2567 0.370346
198 2 145.996 15.1903 0.362103
199 2 149.982 15.0827 16.0194
200 2 153.984 15.1012 0.295216
201 2 157.671 19.0843 15.9126
202 2 3.43691 19.0674 0.0419837
203 2 7.32203 19.4314 15.7349
204 2 11.4737 19.4144 16.0327
205 2 15.7206 19.3046 15.9621
206 2 19.6249 19.2432 0.361193
207 2 23.6369 19.3486 0.340917
208 2 27.5268 19.3733 0.297605
209 2 31.6905 19.448 16.0106
210 2 35.6658 19.4932 16.0309
211 2 39.7255 19.581 0.363155
212 2 43.5823 19.5607 16.0534
213 2 47.7869 19.411 15.8691
214 2 51.5373 19.3988 15.8703
215 2 55.4784 19.6495 15.8203
216 2 59.665 19.7056 15.934
217 2 63.6021 19.8067 16.0273
218 2 67.5606 19.886 15.8258
219 2 71.6207 19.8337 0.1829
220 2 75.6858 19.7472 0.118151
221 2 79.6618 19.935 0.28023
222 2 83.5413 19.9537 0.0993114
223 2 87.5243 19.914 15.8969
224 2 91.402 19.7647 -0.0373278
225 2 95.3207 19.6234 0.073313
226 2 99.0887 19.7894 16.0373
227 2 102.962 19.6348 15.9572
228 2 106.929 19.5709 15.8108
229 2 110.797 19.5727 0.258577
230 2 114.691 19.6061 0.0123067
231 2 118.526 19.4715 16.0778
232 2 122.576 19.4848 0.450654
233 2 126.45 19.4082 0.245237
234 2 130.46 19.56 0.0945989
235 2 134.193 19.2512 16.0973
236 2 138.058 19.3161 15.9559
237 2 142.281 19.4218 0.206228
238 2 146.024 19.1391 0.404884
239 2 149.909 19.1579 0.172178
240 2 153.905 19.1578 15.9075
241 2 157.639 23.0248 15.9689
242 2 3.37254 23.0737 15.7804
243 2 7.54932 23.0329 0.0297825
244 2 11.5002 23.1019 15.8196
245 2 15.4653 23.1388 15.9988
246 2 19.4981 23.4431 0.330593
247 2 23.6816 23.4258 16.1669
248 2 27.5741 23.4276 16.0949
249 2 31.5833 23.3094 0.307309
250 2 35.6099 23.3932 16.0726
251 2 39.7137 23.6784 0.255858
252 2 43.6201 23.7174 15.9531
253 2 47.6218 23.6019 15.7669
254 2 51.4179 23.3689 -0.0567422
255 2 55.4627 23.3703 15.8173
256 2 59.4927 23.5108 16.1483
257 2 63.5107 23.6937 16.0522
258 2 67.5517 23.8351 0.115587
259 2 71.6749 23.7519 0.0602872
260 2 75.4878 23.7315 0.178739
261 2 79.459 23.9974 15.9822
262 2 83.602 23.8764 15.8831
263 2 87.6665 23.8901 0.0846391
264 2 91.4084 23.807 15.9573
265 2 95.2457 23.7563 15.8755
266 2 99.1475 23.8651 0.246105
267 2 102.978 23.7329 0.125342
268 2 106.956 23.5554 0.235987
269 2 110.811 23.6874 0.295197
270 2 114.822 23.6599 16.1144
271 2 118.788 23.6806 16.0969
272 2 122.62 23.4637 0.315302
273 2 126.417 23.558 0.303743
274 2 130.401 23.3444 16.1237
275 2 134.148 23.34 0.295984
276 2 138.254 23.2676 16.0672
277 2 142.012 23.2915 0.27985
278 2 145.981 23.2494 0.440953
279 2 150.072 23.4149 0.269729
280 2 153.995 23.0331 0.187227
281 2 157.969 27.1551 0.389768
282 2 3.38596 27.0718 15.9397
283 2 7.4776 27.0522 0.121194
284 2 11.5216 27.0564 15.9324
285 2 15.4867 27.0244 15.9834
286 2 19.5936 27.3545 0.163155
287 2 23.522 27.1412 0.345682
288 2 27.5612 27.3342 0.260202
289 2 31.6097 27.2413 16.0468
290 2 35.438 27.3675 0.39692
291 2 39.5685 27.2761 0.411917
292 2 43.5392 27.3098 16.0085
293 2 47.5491 27.6124 0.0779644
294 2 51.6442 27.4688 0.355352
295 2 55.6804 27.5922 0.213093
296 2 59.4442 27.3823 0.301807
297 2 63.4692 27.569 0.21204
298 2 67.4853 27.5207 0.304044
299 2 71.4439 27.6473 0.18058
300 2 75.3568 27.716 16.196
301 2 79.484 27.7522 0.261492
302 2 83.5237 27.8981 15.9431
303 2 87.4873 27.6315 0.0464627
304 2 91.4288 27.8205 15.7254
305 2 95.3227 27.7865 15.9223
306 2 99.1937 27.8997 0.0786568
307 2 103.095 27.7151 0.120032
308 2 107.208 27.5294 15.8244
309 2 111.099 27.6267 0.114041
310 2 114.722 27.5973 15.9453
311 2 118.861 27.4049 15.9483
312 2 122.636 27.404 0.200556
313 2 126.535 27.5612 0.143779
314 2 130.308 27.265 0.158277
315 2 134.143 27.3351 15.9937
316 2 138.303 27.3631 0.236538
317 2 142.203 27.2583 0.257178
318 2 146.345 27.3227 0.0728269
319 2 150.049 27.102 0.320075
320 2 153.938 27.252 16.0849
321 2 157.792 31.1226 15.8784
322 2 3.43966 30.9163 0.196136
323 2 7.4235 30.9754 0.330226
324 2 11.2211 30.8278 15.8631
325 2 15.351 30.9895 0.159729
326 2 19.4843 31.1437 16.168
327 2 23.546 31.1326 16.2078
328 2 27.3231 31.2321 0.316129
329 2 31.3889 31.1481 0.370119
330 2 35.4209 31.2348 16.0936
331 2 39.5044 31.3171 15.9346
332 2 43.4387 31.1888 0.23781
333 2 47.371 31.3567 15.755
334 2 51.4487 31.4107 16.0194
335 2 55.4367 31.4135 0.195974
336 2 59.4103 31.3758 0.131372
337 2 63.3207 31.3584 15.9631
338 2 67.5692 31.5812 0.246119
339 2 71.6268 31.4353 16.0296
340 2 75.517 31.8823 0.222862
341 2 79.5528 31.8747 0.472396
342 2 83.5357 31.8438 15.8637
343 2 87.3794 31.6508 0.189019
344 2 91.4164 31.9182 0.119805
345 2 95.3854 32.0003 0.0640451
346 2 99.2268 31.8238 0.0387975
347 2 103.214 32.0024 15.9025
348 2 107.077 31.7152 0.279711
349 2 110.937 31.6551 16.0059
350 2 114.986 31.5764 0.21378
351 2 118.953 31.502 15.8656
352 2 122.569 31.4124 0.0541407
353 2 126.622 31.3154 0.199292
354 2 130.589 31.3109 0.220325
355 2 134.294 31.5644 0.30537
356 2 138.293 31.356 15.9752
357 2 142.226 31.2315 15.9312
358 2 146.206 31.4479 16.0754
359 2 150.017 31.3863 15.9289
360 2 153.856 31.263 16.0559
361 2 157.989 35.0225 15.8572
362 2 3.48018 35.004 0.364842
363 2 7.57181 34.8023 0.367719
364 2 11.3234 35.025 16.1067
365 2 15.3717 34.8804 0.405324
366 2 19.278 35.1306 16.2165
367 2 23.3884 34.9634 16.1036
368 2 27.3119 35.1111 0.504763
369 2 31.4523 35.1035 0.293237
370 2 35.2528 34.9987 16.0481
371 2 39.5749 35.2293 0.389805
372 2 43.5408 35.3075 15.9949
373 2 47.393 35.2474 16.0884
374 2 51.41 35.5553 0.289833
375 2 55.4745 35.2985 16.0709
376 2 59.2834 35.4317 0.345219
377 2 63.4395 35.3692 0.259887
378 2 67.5383 35.4071 0.119797
379 2 71.4061 35.4885 0.305237
380 2 75.5063 35.4382 15.9829
381 2 79.5419 35.7729 16.1221
382 2 83.3735 35.5235 0.000217198
383 2 87.4166 35.8002 0.193991
384 2 91.2865 35.6693 15.904
385 2 95.5111 35.7536 15.962
386 2 99.2092 35.7424 0.282369
387 2 103.079 35.8637 15.7448
388 2 107.223 35.6024 0.0607873
389 2 111.037 35.5986 15.9102
390 2 114.743 35.7771 0.172896
391 2 118.884 35.537 16.072
392 2 122.751 35.4058 15.8397
393 2 126.653 35.4582 0.145411
394 2 130.527 35.3717 0.281849
395 2 134.555 35.426 15.8653
396 2 138.51 35.2647 15.9257
397 2 142.217 35.3456 15.8762
398 2 146.452 35.4162 16.0146
399 2 150.279 35.216 0.156481
400 2 153.94 35.2622 0.183812
401 2 158.078 39.2073 0.343266
402 2 3.70974 38.9936 16.2908
403 2 7.55107 38.9945 15.8803
404 2 11.3843 38.8739 0.307175
405 2 15.0867 39.0151 0.308426
406 2 19.3771 38.7557 16.0257
407 2 23.3984 38.8841 15.8479
408 2 27.3099 39.193 0.306595
409 2 31.359 38.9171 16.1837
410 2 35.428 39.2024 0.155457
411 2 39.4942 39.1033 0.219842
412 2 43.3646 39.1394 0.321063
413 2 47.3985 39.143 0.122965
414 2 51.5081 39.2878 0.262045
415 2 55.5001 39.1748 0.217595
416 2 59.4084 39.2744 0.16666
417 2 63.3549 39.4027 15.9868
418 2 67.441 39.3701 0.0382181
419 2 71.4371 39.2955 0.127094
420 2 75.3062 39.5793 0.137268
421 2 79.2989 39.6593 15.9208
422 2 83.4067 39.3719 16.0863
423 2 87.4101 39.4656 15.9927
424 2 91.4399 39.6723 16.141
425 2 95.502 39.6207 16.1147
426 2 99.4131 39.5679 0.302805
427 2 103.323 39.5973 0.120833
428 2 107.126 39.6906 15.7859
429 2 111.118 39.4925 15.9662
430 2 114.961 39.5543 15.8999
431 2 118.895 39.598 15.8569
432 2 122.895 39.446 0.30827
433 2 126.738 39.3823 16.0165
434 2 130.763 39.4013 0.136083
435 2 134.646 39.3846 0.0465251
436 2 138.549 39.3719 15.8947
437 2 142.414 39.3212 15.8389
438 2 146.419 39.2684 0.198199
439 2 150.316 39.2695 15.8441
440 2 154.189 39.1835 0.19708
441 2 157.922 43.0845 0.186984
442 2 3.65804 43.099 0.251884
443 2 7.58447 43.1678 0.0423295
444 2 11.6634 43.0594 0.242796
445 2 15.5447 42.9841 0.28091
446 2 19.4047 42.8554 15.9991
447 2 23.3023 42.8722 0.083629
448 2 27.296 42.9928 0.511245
449 2 31.2331 42.898 0.253594
450 2 35.2278 42.911 0.0237319
451 2 39.1794 42.9413 0.366108
452 2 43.2143 43.0431 0.273005
453 2 47.3723 43.0973 0.219005
454 2 51.1097 43.2777 0.0242079
455 2 55.3773 43.0858 0.302115
456 2 59.3163 43.1129 0.103537
457 2 63.4382 43.0949 0.175882
458 2 67.3025 43.2634 15.8677
459 2 71.5027 43.298 15.8559
460 2 75.4992 43.4369 0.153094
461 2 79.4053 43.5209 0.105686
462 2 83.5086 43.2953 15.9192
463 2 87.2833 43.3933 15.9286
464 2 91.4638 43.3776 16.0461
465 2 95.61 43.6032 0.189916
466 2 99.5533 43.6817 0.197852
467 2 103.487 43.7243 -0.0133608
468 2 107.346 43.7253 0.140704
469 2 111.145 43.6175 16.0028
470 2 114.985 43.6507 15.6413
471 2 119.078 43.4099 -0.0291749
472 2 123.05 43.3166 0.043763
473 2 126.821 43.4582 0.170563
474 2 130.707 43.4661 0.146021
475 2 134.624 43.5085 15.9695
476 2 138.53 43.4886 15.987
477 2 142.471 43.4815 16.015
478 2 146.409 43.1071 15.86
479 2 150.318 43.1663 0.117643
480 2 154.116 43.2576 15.8486
481 2 158.184 47.1648 15.9305
482 2 3.74307 47.082 16.1007
483 2 7.83585 47.0813 15.7275
484 2 11.7033 46.8465 16.1693
485 2 15.6477 47.085 0.275231
486 2 19.5262 46.9167 15.9336
487 2 23.4821 46.8427 0.0911558
488 2 27.3112 46.8885 0.349979
489 2 31.1823 46.6022 0.122945
490 2 35.2051 46.7006 -0.010436
491 2 39.2934 46.9321 0.226788
492 2 43.1974 46.9576 0.29425
493 2 47.2065 47.1246 15.9848
494 2 51.2215 47.2622 16.0157
495 2 55.3467 47.0509 0.19776
496 2 59.3466 47.0602 16.0322
497 2 63.3306 47.0362 0.0214712
498 2 67.1722 47.2291 0.267119
499 2 71.3508 47.2486 0.248904
500 2 75.4111 47.2433 16.0028
501 2 79.4498 47.3494 16.1865
502 2 83.3256 47.524 0.192686
503 2 87.5335 47.3418 0.287077
504 2 91.3221 47.4382 15.9437
505 2 95.4165 47.3874 0.275634
506 2 99.2298 47.4888 0.289017
507 2 103.211 47.5647 15.5676
508 2 107.311 47.8271 0.222093
509 2 111.493 47.5986 15.9119
510 2 115.265 47.7722 15.7703
511 2 119.231 47.5931 0.17225
512 2 122.958 47.5512 0.312063
513 2 126.922 47.4612 0.154656
514 2 130.852 47.4554 0.0304332
515 2 134.617 47.5162 15.9544
516 2 138.718 47.4602 0.347494
517 2 142.478 47.3309 15.9006
518 2 146.422 47.2383 0.100213
519 2 150.237 47.2269 15.7855
520 2 154.29 47.2091 0.112957
521 2 158.294 50.9574 0.237166
522 2 3.81949 50.9798 0.287022
523 2 7.59364 50.9878 0.204005
524 2 11.6117 50.7327 15.9377
525 2 15.7359 51.029 0.31901
526 2 19.5992 50.7601 0.210949
527 2 23.4651 51.155 0.0353119
528 2 27.2172 50.796 16.1318
529 2 31.3719 50.7663 16.0728
530 2 35.1598 50.5653 0.246803
531 2 39.1969 50.7649 16.0703
532 2 42.9591 50.871 0.370548
533 2 47.1368 50.9786 0.277634
534 2 51.3343 50.9905 16.1079
535 2 55.1866 51.1793 15.9394
536 2 59.2616 50.9677 15.9515
537 2 63.3006 51.1413 0.408625
538 2 67.3133 50.8441 0.345056
539 2 71.2427 51.1128 15.9291
540 2 75.2828 51.2513 0.208466
541 2 79.4724 51.2253 15.8357
542 2 83.4421 51.2695 16.1158
543 2 87.1807 51.4765 15.8492
544 2 91.4641 51.3933 0.395427
545 2 95.2713 51.4584 0.197203
546 2 99.4063 51.4821 15.9151
547 2 103.514 51.4372 0.135647
548 2 107.55 51.5931 15.9445
549 2 111.428 51.4139 -0.0841028
550 2 115.155 51.8068 0.0545507
551 2 119.276 51.6436 -0.0206336
552 2 123.098 51.5674 0.0798343
553 2 126.824 51.4068 15.6437
554 2 130.883 51.4738 0.182943
555 2 134.953 51.4749 15.7738
556 2 138.849 51.3298 0.173943
557 2 142.564 51.4513 15.8138
558 2 146.389 51.4463 15.8149
559 2 150.411 51.3174 0.265013
560 2 154.183 51.287 0.210088
561 2 158.375 54.9846 0.280548
562 2 3.70796 55.1686 0.109705
563 2 7.96013 54.8972 0.326399
564 2 11.7534 54.8269 16.0273
565 2 15.5824 54.973 16.1238
566 2 19.4777 54.7771 15.9693
567 2 23.4999 54.9311 16.0433
568 2 27.5766 54.9471 15.9004
569 2 31.2789 54.6166 0.294744
570 2 35.2219 54.4997 15.9883
571 2 38.9283 54.7498 0.288202
572 2 42.9716 54.841 16.1198
573 2 47.2197 54.649 16.0782
574 2 51.2362 54.8994 15.9938
575 2 55.1662 55.0055 0.0609798
576 2 59.0884 54.8873 -0.0297213
577 2 63.1948 55.0128 15.873
578 2 67.3037 55.0535 0.26604
579 2 71.318 54.8869 15.8859
580 2 75.2635 55.0364 15.8124
581 2 79.1398 55.1253 15.7593
582 2 83.4105 55.2004 15.7124
583 2 87.3384 55.1283 0.124398
584 2 91.3653 55.3391 0.164507
585 2 95.2691 55.415 0.463946
586 2 99.2523 55.2319 15.9694
587 2 103.347 55.4523 0.283604
588 2 107.29 55.5609 -0.00405315
589 2 111.205 55.4721 15.7927
590 2 115.311 55.6417 0.106534
591 2 119.103 55.4279 0.318985
592 2 122.991 55.4737 0.0644948
593 2 127.077 55.664 15.9675
594 2 130.874 55.6144 15.9436
595 2 134.754 55.3317 15.9728
596 2 138.59 55.3663 0.131609
597 2 142.507 55.4389 0.175306
598 2 146.395 55.5412 16.2791
599 2 150.371 55.4722 15.9262
600 2 154.355 55.185 0.126811
601 2 -0.0434701 59.1745 0.198354
602 2 3.82868 59.067 0.192284
603 2 7.69061 58.9322 0.113957
604 2 11.7389 58.8171 16.0243
605 2 15.5216 58.9417 0.122908
606 2 19.6004 58.8926 15.9081
607 2 23.4777 58.9178 15.8503
608 2 27.3719 58.8121 0.00795486
609 2 31.3053 58.6133 16.0715
610 2 35.0771 58.6294 0.275665
611 2 39.0867 58.773 0.145035
612 2 43.0249 58.5655 15.9733
613 2 47.1892 58.6644 0.180342
614 2 51.1301 58.9762 16.0417
615 2 55.1372 58.8094 15.8479
616 2 59.2954 58.8235 16.0086
617 2 63.4089 59.0191 0.221015
618 2 67.2421 59.0204 16.075
619 2 71.3711 58.8472 0.164468
620 2 75.5175 59.133 0.0864546
621 2 79.2888 59.1165 15.9395
622 2 83.2926 58.9615 15.7243
623 2 87.082 59.0828 0.16043
624 2 91.3185 59.1389 0.0372238
625 2 95.2906 59.1978 0.0727393
626 2 99.3784 59.0342 15.8574
627 2 103.19 59.3798 0.179634
628 2 107.243 59.5277 0.097847
629 2 111.069 59.3786 0.0732028
630 2 115.134 59.4773 -0.0319743
631 2 119.128 59.5396 0.186655
632 2 123.035 59.4956 -0.000444313
633 2 126.977 59.4673 0.204851
634 2 130.82 59.4257 15.9896
635 2 134.592 59.4175 0.15468
636 2 138.5 59.43 0.0210899
637 2 142.748 59.3749 16.0252
638 2 146.541 59.4583 0.187325
639 2 150.48 59.2597 0.149388
640 2 154.437 59.3275 0.240837
641 2 0.109494 63.1882 15.9041
642 2 3.98438 63.2597 15.8558
643 2 7.90232 63.0416 0.0821157
644 2 11.6012 63.0021 0.24497
645 2 15.7091 62.9283 16.0189
646 2 19.5517 62.8507 15.8593
647 2 23.522 63.0024 15.8812
648 2 27.5257 62.7656 0.188774
649 2 31.4466 62.6801 15.9823
650 2 35.3423 62.6636 16.0199
651 2 39.1992 62.8471 0.131298
652 2 43.1468 62.5685 0.221318
653 2 47.2563 62.6845 15.9246
654 2 51.1247 62.6453 0.227068
655 2 55.2468 62.6864 0.221016
656 2 59.1862 62.6362 0.238182
657 2 63.185 62.7395 0.309633
658 2 67.1364 62.9296 0.2163
659 2 71.1327 62.6999 0.0898888
660 2 75.1819 62.8532 16.0748
661 2 79.2722 63.0096 15.8774
662 2 83.0073 62.9238 15.9111
663 2 87.188 62.9842 0.173361
664 2 91.1742 63.1026 15.896
665 2 95.302 63.2225 0.0130299
666 2 99.1515 63.1957 0.191243
667 2 103.208 63.207 0.101181
668 2 107.199 63.5271 0.0599863
669 2 111.108 63.5267 -0.108155
670 2 115.225 63.4151 0.0433567
671 2 119.135 63.5048 16.0238
672 2 123.135 63.5045 15.709
673 2 127.148 63.5867 15.9245
674 2 131.051 63.4248 0.211398
675 2 135.015 63.5112 15.6784
676 2 138.739 63.2874 -0.0481973
677 2 142.665 63.3482 0.0964985
678 2 146.61 63.3132 0.000955521
679 2 150.465 63.3927 15.9084
680 2 154.506 63.1731 16.0723
681 2 0.20924 67.1919 0.138727
682 2 3.91597 67.1217 0.127219
683 2 7.98584 67.04 0.273753
684 2 11.9326 67.0004 16.0652
685 2 15.666 66.936 15.9962
686 2 19.5536 66.8219 15.9194
687 2 23.6253 66.9939 15.918
688 2 27.6962 66.7529 16.0737
689 2 31.4743 66.7641 -0.0553932
690 2 35.4325 66.7641 0.0925852
691 2 39.2187 66.5897 0.240982
692 2 43.3097 66.6239 16.0734
693 2 47.1661 66.5856 0.196147
694 2 51.3092 66.6667 15.8563
695 2 55.1063 66.5053 16.0048
696 2 59.0885 66.594 15.9885
697 2 63.19 66.7441 15.9307
698 2 67.2719 66.7417 15.8457
699 2 71.2326 66.5915 0.00971193
700 2 75.219 66.7584 0.279566
701 2 79.2354 66.958 15.9526
702 2 83.169 66.8746 15.858
703 2 87.1998 66.8351 15.8207
704 2 91.112 66.8415 0.045314
705 2 95.1875 67.2406 15.9664
706 2 99.0221 67.0697 15.7621
707 2 103.135 67.2436 0.0691006
708 2 107.192 67.1624 15.8509
709 2 111.147 67.3496 0.0379594
710 2 115.163 67.2411 -0.0183667
711 2 119.155 67.3345 0.0423914
712 2 123.247 67.2497 16.0418
713 2 127.181 67.5965 15.9586
714 2 131.288 67.4394 15.991
715 2 134.991 67.3879 15.8714
716 2 138.862 67.3099 15.9554
717 2 142.861 67.1788 15.7726
718 2 146.587 67.2175 0.0409338
719 2 150.564 67.1973 15.6734
720 2 154.617 67.1575 16.0138
721 2 0.125042 71.0561 15.8855
722 2 4.0766 71.0557 15.7987
723 2 7.90414 70.9588 0.267055
724 2 11.8479 71.1102 15.9274
725 2 15.6732 70.9482 15.9424
726 2 19.6935 70.7721 0.0339193
727 2 23.5613 70.76 15.8966
728 2 27.4155 70.7516 15.8678
729 2 31.5575 70.7058 15.9099
730 2 35.5708 70.6311 15.9379
731 2 39.4701 70.5077 15.936
732 2 43.3213 70.5985 0.00145196
733 2 47.1375 70.4814 16.0541
734 2 51.168 70.3631 15.9972
735 2 54.9576 70.533 15.9948
736 2 59.0076 70.405 0.265238
737 2 63.214 70.6132 15.9491
738 2 66.9766 70.6192 -0.020116
739 2 71.0741 70.5888 15.8671
740 2 75.112 70.719 15.9817
741 2 78.9609 70.8161 15.8441
742 2 83.1973 70.8941 0.205567
743 2 87.1718 70.8527 15.8828
744 2 91.1122 70.9134 0.0930027
745 2 95.1303 70.897 0.126656
746 2 99.2126 70.9896 15.9393
747 2 103.092 71.1362 0.317223
748 2 107.033 70.9845 0.155408
749 2 111.188 71.2603 15.7849
750 2 115.067 71.3319 0.0256202
751 2 119.049 71.3863 15.9088
752 2 122.987 71.3272 0.339555
753 2 127.184 71.3965 15.8924
754 2 131.206 71.4073 15.8646
755 2 135.147 71.5814 16.1956
756 2 139.2 71.5066 15.9396
757 2 142.879 71.3248 15.8231
758 2 146.688 71.3204 15.8177
759 2 150.7 71.3451 15.788
760 2 154.428 71.1569 15.8472
761 2 0.245557 75.1988 15.7369
762 2 4.0891 75.1664 15.8437
763 2 8.03806 75.0502 16.1018
764 2 12.1163 74.9285 15.8195
765 2 15.8674 75.0289 15.7969
766 2 19.6366 74.9241 15.8976
767 2 23.606 74.7398 15.9297
768 2 27.8042 74.7706 15.8389
769 2 31.5835 74.7234 -0.0143781
770 2 35.6374 74.6771 15.7319
771 2 39.3971 74.4282 15.8368
772 2 43.2266 74.6604 0.28588
773 2 47.4216 74.3889 15.8616
774 2 51.1911 74.613 0.373059
775 2 55.1222 74.3679 15.9577
776 2 59.0091 74.3161 16.0852
777 2 63.0909 74.4973 15.7473
778 2 67.0759 74.5473 15.8481
779 2 71.161 74.4993 15.8888
780 2 74.9576 74.6337 0.0511783
781 2 79.1933 74.6479 15.8995
782 2 83.1043 74.671 15.7713
783 2 87.1087 74.7575 15.8952
784 2 91.2328 74.8589 0.021816
785 2 95.1968 75.0332 15.7494
786 2 99.1006 74.9487 0.166207
787 2 102.999 74.9584 15.8278
788 2 107.159 75.1743 0.132433
789 2 111.122 75.0682 15.919
790 2 115.239 75.1302 0.138478
791 2 118.974 75.3377 16.1901
792 2 123.047 75.4084 15.9348
793 2 127.041 75.4692 0.0805312
794 2 130.996 75.3056 0.086892
795 2 134.953 75.3063 16.0429
796 2 139.121 75.5421 16.1052
797 2 142.989 75.3338 0.165372
798 2 147.005 75.3453 15.8131
799 2 150.684 75.3716 15.6411
800 2 154.652 75.1369 -0.0334922
801 2 0.162746 78.9788 15.8885
802 2 4.20402 79.0863 15.9185
803 2 8.34325 79.1153 15.955
804 2 12.2206 79.1039 15.8573
805 2 16.1231 78.9733 15.7478
806 2 20.0073 78.7771 15.9469
807 2 23.805 78.8706 16.0213
808 2 27.6905 78.7614 15.728
809 2 31.6091 78.7758 0.0942472
810 2 35.4606 78.6165 16.0861
811 2 39.7327 78.6717 0.197237
812 2 43.4192 78.5064 0.246651
813 2 47.1593 78.5642 0.0877305
814 2 51.093 78.4081 16.0528
815 2 55.0168 78.515 15.9361
816 2 58.9735 78.2424 15.9914
817 2 62.8055 78.3506 15.9425
818 2 67.0232 78.5173 16.0161
819 2 71.1215 78.4193 15.9623
820 2 74.8641 78.4454 15.7954
821 2 79.0515 78.5629 0.204902
822 2 82.9826 78.671 0.224573
823 2 86.852 78.632 0.188028
824 2 91.0317 78.7844 0.235025
825 2 95.1583 78.8528 0.225276
826 2 99.077 78.902 15.8519
827 2 103.121 78.8985 0.0724215
828 2 107.104 78.8467 15.927
829 2 111.058 79.056 0.278199
830 2 114.875 79.1399 16.0343
831 2 119.048 79.2688 0.118657
832 2 122.972 79.2623 0.299453
833 2 127.045 79.452 15.8243
834 2 131.244 79.3296 0.236072
835 2 135.083 79.2382 15.9804
836 2 138.906 79.4844 15.9833
837 2 143.164 79.369 16.0842
838 2 146.864 79.3516 15.9731
839 2 150.656 79.1607 15.8793
840 2 154.936 79.3902 15.8078
841 2 0.578627 83.1 15.8926
842 2 4.40776 82.928 15.7743
843 2 8.23228 83.0523 15.6541
844 2 12.3523 83.1106 15.8382
845 2 16.0226 82.81 15.9228
846 2 19.8615 82.9051 15.903
847 2 23.8415 83.0186 15.7933
848 2 27.7756 83.0084 15.9292
849 2 31.629 82.6799 15.8724
850 2 35.401 82.752 16.0664
851 2 39.4485 82.6192 0.0280529
852 2 43.681 82.6289 16.0865
853 2 47.289 82.7133 16.1775
854 2 51.248 82.3353 15.9478
855 2 55.1757 82.6302 15.9775
856 2 59.014 82.3713 16.064
857 2 62.8989 82.1813 16.0373
858 2 66.9829 82.4237 0.27576
859 2 70.7749 82.3703 0.356234
860 2 75.1065 82.6103 15.868
861 2 78.9605 82.4718 0.151689
862 2 82.8825 82.6345 15.6967
863 2 87.0664 82.636 15.7861
864 2 91.0061 82.6508 0.280762
865 2 95.2209 82.7167 15.9777
866 2 99.0361 82.9856 15.974
867 2 103.016 82.8727 0.0909161
868 2 107.133 82.855 0.107207
869 2 111.021 82.9376 15.8958
870 2 115.192 83.171 16.0078
871 2 119.012 83.2082 0.0935322
872 2 123.052 83.2112 15.9036
873 2 127.013 83.1496 -0.147003
874 2 131.069 83.2971 15.7906
875 2 134.807 83.1404 0.30445
876 2 139.093 83.3021 15.798
877 2 142.939 83.2414 0.0498817
878 2 147.117 83.3519 0.307957
879 2 150.949 83.3058 15.8628
880 2 154.863 83.1305 15.7872
881 2 0.668606 87.235 16.0048
882 2 4.37354 87.1177 0.0799656
883 2 8.23405 87.1298 15.9227
884 2 12.2104 87.1527 15.92
885 2 16.1062 86.9656 0.0473821
886 2 19.9712 86.9261 16.0971
887 2 23.9702 87.0112 15.6647
888 2 27.8467 86.8657 15.8333
889 2 31.8424 86.7718 15.87
890 2 35.4929 86.7311 15.9107
891 2 39.6364 86.6569 15.8837
892 2 43.4322 86.4931 15.9491
893 2 47.2769 86.6578 0.3142
894 2 51.2993 86.4883 0.0687714
895 2 55.2288 86.499 0.192348
896 2 59.0417 86.3153 15.8209
897 2 62.858 86.3323 16.0103
898 2 66.8664 86.3232 0.259872
899 2 70.98 86.1875 0.0970218
900 2 74.8298 86.3025 16.1934
901 2 78.9478 86.4027 0.11967
902 2 83.0548 86.3222 -0.0318835
903 2 87.0056 86.5318 15.8726
904 2 90.905 86.5369 0.281161
905 2 95.08 86.6905 15.8155
906 2 99.0328 86.7848 15.9489
907 2 103.1 86.7286 0.125104
908 2 106.914 86.8328 0.0864067
909 2 110.982 87.0676 15.9216
910 2 114.903 87.0577 0.188317
911 2 118.713 86.8773 0.396761
912 2 122.795 86.9449 0.239135
913 2 126.923 87.0272 16.0596
914 2 130.885 87.3205 -0.00766437
915 2 135.071 87.0275 15.8443
916 2 138.983 87.1328 0.348064
917 2 142.973 87.2074 0.0998668
918 2 147.059 87.3066 -0.0331166
919 2 151.048 87.2062 15.719
920 2 154.967 87.3237 15.7413
921 2 0.627189 91.0583 15.8852
922 2 4.39176 91.1202 0.125999
923 2 8.46086 91.1184 0.0895615
924 2 12.2879 91.0179 0.182308
925 2 16.0862 91.1596 15.9716
926 2 20.2055 91.0667 15.9443
927 2 24.0256 90.7751 15.7367
928 2 27.9184 90.7241 16.0093
929 2 31.898 90.865 15.958
930 2 35.7565 90.85 15.9438
931 2 39.6333 90.571 16.0121
932 2 43.5343 90.6166 0.076512
933 2 47.4418 90.6456 16.0229
934 2 51.2927 90.6112 15.7653
935 2 55.2565 90.6032 15.6976
936 2 59.2413 90.4225 15.8604
937 2 63.0499 90.3633 0.330459
938 2 66.8249 90.4304 15.9879
939 2 71.0127 90.3412 15.8343
940 2 74.811 90.3381 15.8832
941 2 78.9865 90.1797 0.10524
942 2 82.9918 90.3512 0.17279
943 2 86.8459 90.4337 15.9431
944 2 90.8493 90.4629 0.103594
945 2 95.0027 90.4778 0.167224
946 2 99.1354 90.4833 0.0885618
947 2 102.976 90.6742 0.213442
948 2 106.866 90.7379 0.10713
949 2 110.963 90.8533 15.7885
950 2 114.893 90.9659 0.265404
951 2 118.988 90.8644 0.445105
952 2 122.938 91.1525 0.19266
953 2 126.982 91.0065 0.0327351
954 2 130.982 90.9698 15.7604
955 2 135.003 91.2724 0.00533365
956 2 139.05 91.0995 -0.00409516
957 2 143.026 91.0971 0.114561
958 2 146.852 91.1888 -0.0359233
959 2 151.067 91.1395 15.8327
960 2 154.793 91.1652 -0.226328
961 2 0.629285 95.1791 15.7354
962 2 4.52422 95.1515 15.7457
963 2 8.30377 95.1394 0.205465
964 2 12.3944 95.0273 15.7535
965 2 16.0978 94.9576 15.846
966 2 20.0586 95.0357 15.8444
967 2 23.949 94.8975 15.9525
968 2 27.9518 95.025 16.0364
969 2 31.8596 94.6945 15.9217
970 2 35.8128 94.5018 0.29424
971 2 39.6038 94.6509 15.8834
972 2 43.6047 94.6481 15.7943
973 2 47.41 94.6059 15.8058
974 2 51.3279 94.5546 0.286623
975 2 55.5076 94.4692 15.7714
976 2 59.2234 94.4194 15.9109
977 2 63.1669 94.3493 16.0218
978 2 66.9092 94.4693 0.00469587
979 2 70.9532 94.3512 0.150457
980 2 75.0374 94.2916 16.0099