ITEM: TIMESTEP
15700
ITEM: NUMBER OF ATOMS
32000
ITEM: BOX BOUNDS xy xz yz pp pp pp
0.0000000000000000e+00 1.5831999999999999e+02 0.0000000000000000e+00
0.0000000000000000e+00 1.5831999999999999e+02 0.0000000000000000e+00
1.6407571578067692e-01 1.5933636284219082e+01 0.0000000000000000e+00
ITEM: ATOMS id type x y z
1 2 157.932 158.016 15.9952
2 2 3.76114 157.64 0.114278
3 2 7.63145 158.212 0.159405
4 2 11.8849 157.997 15.9304
5 2 15.7521 158.198 0.104877
6 2 19.6909 158.021 0.0813897
7 2 23.7913 158.161 16.0517
8 2 27.8316 158.018 0.145807
9 2 31.778 158.271 15.9691
10 2 35.9338 158.4 0.239578
11 2 39.9432 158.391 0.319164
12 2 43.8706 158.508 16.1036
13 2 47.8809 0.245481 15.7739
14 2 51.7936 0.293597 15.9301
15 2 55.7517 158.533 16.0343
16 2 59.7983 0.148842 16.0643
17 2 63.8709 0.293746 0.218408
18 2 67.8389 0.191709 0.125337
19 2 71.5922 158.464 15.6984
20 2 75.5026 158.242 15.8909
21 2 79.3147 158.31 15.8869
22 2 83.2935 158.142 0.0930545
23 2 87.0088 158.162 0.111848
24 2 91.2011 158.039 -0.00790561
25 2 94.9601 158.113 0.121261
26 2 99.0749 158.022 0.199944
27 2 102.739 157.892 0.0875117
28 2 106.619 157.814 15.7958
29 2 110.682 157.804 0.167138
30 2 114.708 157.921 0.21544
31 2 118.456 157.881 0.151263
32 2 122.263 157.913 16.0032
33 2 126.283 157.652 16.0387
34 2 130.161 157.602 15.9707
35 2 134.037 157.697 16.0569
36 2 138.035 157.514 15.933
37 2 142.099 157.603 15.9251
38 2 146.08 157.871 15.7091
39 2 149.934 157.815 15.7766
40 2 154.029 157.831 15.9126
41 2 157.95 3.72547 0.114007
42 2 3.63837 3.54733 16.0303
43 2 7.5465 3.68198 0.0314626
44 2 11.7155 3.63871 0.167313
45 2 15.7299 3.58561 0.216512
46 2 19.9226 3.50918 16.154
47 2 23.6586 3.58214 0.321111
48 2 27.7774 3.74176 0.376972
49 2 31.813 3.92494 0.226522
50 2 35.7832 4.11674 0.249623
51 2 39.9021 3.95082 0.105191
52 2 43.5585 3.93683 0.0517102
53 2 47.8891 4.09925 15.9711
54 2 52.028 4.06805 0.153665
55 2 55.7618 3.9879 0.207228
56 2 59.8157 4.01521 0.237272
57 2 63.8506 4.07104 16.0617
58 2 67.705 4.14626 0.129431
59 2 71.6691 4.06396 -0.0589086
60 2 75.5817 4.06936 0.105733
61 2 79.4175 3.993 -0.015062
62 2 83.153 3.6612 0.119811
63 2 87.1565 3.79865 -0.00696033
64 2 91.0275 3.5529 0.135435
65 2 94.9593 3.61236 15.7388
66 2 99.0583 3.61372 0.155917
67 2 102.815 3.58069 0.153288
68 2 106.739 3.66551 15.9111
69 2 110.652 3.41574 15.9119
70 2 114.515 3.49163 15.9953
71 2 118.4 3.48601 16.0444
72 2 122.281 3.52751 -0.054015
73 2 126.309 3.3147 16.1008
74 2 130.018 3.32382 0.119062
75 2 133.994 3.13579 15.9738
76 2 138.055 3.16481 0.347172
77 2 141.913 3.16888 15.8374
78 2 146.115 3.20769 0.251496
79 2 150.151 3.38045 16.0051
80 2 153.936 3.41893 15.8966
81 2 158.133 7.43158 0.240958
82 2 3.61601 7.4339 15.8293
83 2 7.59623 7.64149 16.03
84 2 11.5538 7.47399 15.9338
85 2 15.7518 7.45791 0.229076
86 2 19.7641 7.48775 15.992
87 2 23.8964 7.61799 0.267865
88 2 27.7953 7.76771 0.339588
89 2 31.7886 7.87696 16.0639
90 2 35.7948 7.85181 15.9311
91 2 39.8341 7.66203 15.9552
92 2 43.849 7.78091 15.964
93 2 47.8417 7.91115 0.1274
94 2 51.9156 7.9389 15.9015
95 2 55.8051 7.93104 0.257041
96 2 59.8382 7.98983 0.313847
97 2 63.6998 7.99826 0.321595
98 2 67.9034 8.0689 -0.0269386
99 2 71.9012 8.09522 0.00941627
100 2 75.6511 8.0363 -0.0278786
101 2 79.565 8.01637 15.6318
102 2 83.4279 7.77739 0.149565
103 2 87.2559 7.80808 15.8807
104 2 91.2023 7.68615 0.151568
105 2 95.1087 7.67304 -0.10035
106 2 98.8995 7.63849 0.150514
107 2 103.062 7.61533 0.035601
108 2 106.754 7.55748 0.189743
109 2 110.927 7.53385 0.328522
110 2 114.484 7.72287 0.36969
111 2 118.583 7.28697 0.352112
112 2 122.38 7.39699 0.18992
113 2 126.225 7.32273 15.8944
114 2 130.279 7.25889 0.176557
115 2 134.196 7.09225 0.17652
116 2 138.214 7.17182 15.7688
117 2 141.885 7.2962 15.8413
118 2 145.921 7.16886 0.271957
119 2 149.983 7.39431 15.9384
120 2 154.05 7.29907 15.9919
121 2 158.006 11.1956 0.300776
122 2 3.78073 11.4025 0.181271
123 2 7.55876 11.5659 16.1232
124 2 11.7088 11.3365 16.1072
125 2 15.7103 11.5216 16.0253
126 2 19.736 11.4323 0.420043
127 2 23.7215 11.5032 0.332346
128 2 27.8043 11.4833 0.261703
129 2 31.7051 11.736 0.326906
130 2 35.8065 11.6942 0.329986
131 2 39.658 11.803 0.0304776
132 2 43.7456 11.9013 15.7787
133 2 47.4953 11.7113 15.9292
134 2 51.7085 11.7733 16.0034
135 2 55.6066 11.7583 0.162202
136 2 59.7376 11.9644 16.0241
137 2 63.8191 11.9136 0.213908
138 2 67.7855 11.8213 15.7046
139 2 71.6841 11.7606 0.09195
140 2 75.6682 11.9235 0.0435125
141 2 79.3515 11.7832 0.157476
142 2 83.4518 11.666 0.0330425
143 2 87.4352 11.8828 0.0983196
144 2 91.2796 11.8953 0.103651
145 2 95.0595 11.7255 0.187086
146 2 98.9223 11.4499 0.270831
147 2 102.85 11.56 0.305598
148 2 106.912 11.4535 0.0862293
149 2 110.89 11.5202 0.304335
150 2 114.602 11.5744 0.112775
151 2 118.658 11.5575 0.248594
152 2 122.596 11.4762 0.238797
153 2 126.386 11.3029 0.0831183
154 2 130.36 11.3151 15.8989
155 2 134.301 11.2878 0.340425
156 2 138.163 11.0775 0.150423
157 2 142.08 11.0242 16.1047
158 2 146.036 11.0826 15.9954
159 2 149.89 10.9441 16.0873
160 2 153.834 11.1951 16.1084
161 2 157.931 15.1414 0.153535
162 2 3.52412 15.1905 0.248651
163 2 7.5085 15.3386 0.257962
164 2 11.3787 15.4618 16.1205
165 2 15.7728 15.2261 15.9472
166 2 19.7626 15.2148 0.241824
167 2 23.8082 15.4963 0.291831
168 2 27.6176 15.4239 16.0428
169 2 31.615 15.4195 16.0604
170 2 35.714 15.5619 0.25595
171 2 39.655 15.669 16.0725
172 2 43.4722 15.771 0.202262
173 2 47.7535 15.5831 0.216544
174 2 51.7738 15.7356 0.0683915
175 2 55.6891 15.7981 15.9319
176 2 59.7379 15.7414 0.107754
177 2 63.8948 15.7814 0.40958
178 2 67.8114 15.8711 0.148566
179 2 71.6587 15.7245 0.14993
180 2 75.6208 15.6614 15.8937
181 2 79.6287 15.8141 0.0350927
182 2 83.4355 16.1123 0.145245
183 2 87.4032 15.8655 0.176021
184 2 91.4134 15.7859 0.134871
185 2 95.2024 15.759 0.189522
186 2 98.9975 15.7425 -0.0149135
187 2 103.082 15.5225 0.206939
188 2 106.894 15.5731 0.328534
189 2 110.817 15.6066 0.310146
190 2 114.686 15.7198 0.349942
191 2 118.537 15.6335 0.476011
192 2 122.44 15.2978 16.1041
193 2 126.443 15.3995 0.103228
194 2 130.444 15.3286 0.292323
195 2 134.524 15.2668 0.35142
196 2 138.384 15.2496 0.502306
197 2 142.365 15.2257 0.0722782
198 2 146.033 15.2197 0.29192
199 2 149.892 15.1508 15.9803
200 2 153.73 15.1361 0.127333
201 2 157.754 18.8928 16.1004
202 2 3.53353 19.1533 0.114351
203 2 7.78286 19.1956 16.0981
204 2 11.6842 19.408 15.9346
205 2 15.3568 19.1687 16.2204
206 2 19.6538 19.25 0.267446
207 2 23.6188 19.4065 0.116286
208 2 27.5681 19.3978 0.199639
209 2 31.6218 19.3291 16.0338
210 2 35.6322 19.3761 16.1318
211 2 39.6856 19.5396 0.262008
212 2 43.6715 19.7745 16.188
213 2 47.4066 19.6961 16.0617
214 2 51.5789 19.6675 15.9863
215 2 55.7711 19.5807 16.0408
216 2 59.4846 19.7395 16.122
217 2 63.6537 19.7261 15.9042
218 2 67.6981 19.6425 15.8893
219 2 71.4988 19.8681 0.0283825
220 2 75.6091 19.8326 0.150163
221 2 79.5955 19.7906 0.097864
222 2 83.606 19.9211 0.0100332
223 2 87.4956 19.7357 15.9026
224 2 91.3243 19.7724 0.305379
225 2 95.1508 19.8081 0.172937
226 2 99.2375 19.6471 15.9599
227 2 103.159 19.546 16.0003
228 2 106.909 19.5758 15.8829
229 2 110.894 19.6721 0.100162
230 2 114.841 19.5735 0.433121
231 2 118.663 19.6565 15.9005
232 2 122.558 19.496 0.31676
233 2 126.666 19.3234 0.43444
234 2 130.451 19.1033 0.182501
235 2 134.402 19.4324 15.9151
236 2 138.275 19.4298 15.9591
237 2 142.068 19.1725 0.181068
238 2 146.128 19.4381 0.199496
239 2 149.874 19.2263 0.288504
240 2 153.789 19.0821 16.146
241 2 157.959 22.9821 16.0681
242 2 3.49787 23.0881 15.8806
243 2 7.42396 23.2735 0.0790299
244 2 11.4424 23.281 15.9713
245 2 15.2162 23.1231 16.0218
246 2 19.5086 23.0633 0.388256
247 2 23.4425 23.1524 16.0709
248 2 27.6157 23.3279 15.9097
249 2 31.7006 23.4801 0.187625
250 2 35.689 23.2915 16.1774
251 2 39.5718 23.3748 0.338543
252 2 43.7047 23.3974 15.9979
253 2 47.5191 23.676 16.0008
254 2 51.4472 23.5369 0.163903
255 2 55.554 23.6516 16.0475
256 2 59.4565 23.6156 16.0029
257 2 63.6745 23.6914 15.8642
258 2 67.5775 23.6542 -0.0858837
259 2 71.5499 23.7677 0.184795
260 2 75.7062 23.8041 0.171082
261 2 79.5132 23.6496 16.1883
262 2 83.4746 23.8734 15.8002
263 2 87.4347 23.8629 0.0436899
264 2 91.4284 23.7661 15.8772
265 2 95.2534 23.8062 16.1843
266 2 99.1556 23.6222 0.22652
267 2 103.14 23.6238 0.239097
268 2 107.015 23.5576 0.0915989
269 2 111.154 23.7005 0.23725
270 2 114.897 23.4004 15.9887
271 2 118.66 23.5718 16.0425
272 2 122.5 23.4397 0.268849
273 2 126.54 23.2817 0.206156
274 2 130.43 23.5408 15.9632
275 2 134.496 23.4255 0.239874
276 2 138.227 23.3294 15.9281
277 2 142.296 23.2826 0.304098
278 2 146.203 23.252 0.226035
279 2 150.022 22.9339 0.173751
280 2 153.897 23.1374 0.308888
281 2 157.93 26.9693 0.158134
282 2 3.60545 27.0709 16.1078
283 2 7.42581 26.9757 0.22729
284 2 11.4128 27.0269 16.0134
285 2 15.5961 27.0501 15.9715
286 2 19.5745 27.137 0.498502
287 2 23.5761 27.1998 0.351516
288 2 27.6377 27.2552 0.371963
289 2 31.548 27.2001 15.975
290 2 35.6686 27.3071 0.296876
291 2 39.4709 27.4619 0.340955
292 2 43.6328 27.5593 16.0239
293 2 47.4287 27.5201 0.233538
294 2 51.4348 27.3776 0.04468
295 2 55.2593 27.3916 0.187708
296 2 59.4507 27.4963 0.127423
297 2 63.4032 27.544 0.331099
298 2 67.5729 27.6497 0.135607
299 2 71.5064 27.7967 0.229728
300 2 75.7674 27.7408 15.7418
301 2 79.6165 27.8516 0.273813
302 2 83.5017 27.9197 16.0924
303 2 87.4397 27.915 0.25994
304 2 91.4183 27.7663 16.0815
305 2 95.3634 27.8224 16.0671
306 2 99.2646 27.5791 0.100513
307 2 103.082 27.6847 0.138906
308 2 107.002 27.6912 16.1102
309 2 111.036 27.7349 0.24393
310 2 114.993 27.546 16.0082
311 2 118.687 27.571 15.8543
312 2 122.718 27.371 0.0647628
313 2 126.543 27.3274 0.233424
314 2 130.526 27.5423 0.226391
315 2 134.486 27.538 16.0537
316 2 138.196 27.2402 0.263473
317 2 142.259 27.2623 0.356543
318 2 146.014 27.1029 0.411938
319 2 150.15 27.291 0.245197
320 2 153.828 27.0523 16.0611
321 2 157.91 30.9982 16.0644
322 2 3.56812 31.0258 0.231145
323 2 7.44429 31.0618 0.379031
324 2 11.5302 31.0424 16.2892
325 2 15.4559 31.0965 0.263929
326 2 19.5306 31.1029 15.9521
327 2 23.4041 31.0918 15.9475
328 2 27.6184 31.1959 0.421849
329 2 31.5788 31.22 0.19681
330 2 35.367 31.279 16.1148
331 2 39.4376 31.0686 16.2823
332 2 43.5301 31.4967 0.269271
333 2 47.4155 31.5299 16.0082
334 2 51.5953 31.266 16.0157
335 2 55.4982 31.5042 0.0933365
336 2 59.4372 31.4462 0.0392712
337 2 63.5855 31.6347 15.9338
338 2 67.1666 31.605 0.00406511
339 2 71.3425 31.6685 16.0009
340 2 75.5889 31.4307 0.34193
341 2 79.5594 31.6598 0.0764246
342 2 83.3766 31.7445 16.1062
343 2 87.4643 31.6784 0.0769575
344 2 91.4096 31.6459 0.076359
345 2 95.3367 31.6881 0.0157994
346 2 99.5408 31.7772 0.15335
347 2 103.378 31.7171 15.9953
348 2 107.162 31.6349 0.079412
349 2 111.149 31.6454 15.915
350 2 114.949 31.6173 0.247446
351 2 118.75 31.5243 15.9271
352 2 122.744 31.5191 0.287223
353 2 126.667 31.5042 0.108902
354 2 130.482 31.4067 0.232495
355 2 134.573 31.3161 0.0206875
356 2 138.506 31.2712 15.8967
357 2 142.344 31.3683 15.9502
358 2 146.223 31.146 15.877
359 2 150.174 31.1747 15.9929
360 2 154.023 31.088 16.0535
361 2 157.96 35.0791 16.0544
362 2 3.54562 34.9619 0.202508
363 2 7.24537 35.0862 0.30973
364 2 11.1628 34.9648 16.0492
365 2 15.2475 34.9276 0.0707942
366 2 19.4912 35.0618 16.0193
367 2 23.2484 35.0694 16.1479
368 2 27.3786 34.9031 0.184
369 2 31.408 35.1209 0.365806
370 2 35.5007 35.1084 16.1418
371 2 39.3711 35.0385 0.300389
372 2 43.462 35.2129 15.9641
373 2 47.5849 35.3507 15.906
374 2 51.3224 35.3157 0.218343
375 2 55.1576 35.4953 15.9475
376 2 59.2995 35.2038 -0.128899
377 2 63.3433 35.3893 0.255453
378 2 67.322 35.5175 0.40481
379 2 71.3933 35.3283 0.31118
380 2 75.4625 35.6227 16.0707
381 2 79.3112 35.6978 15.948
382 2 83.5989 35.8159 0.369761
383 2 87.6191 35.6774 0.13052
384 2 91.564 35.7728 15.7981
385 2 95.3927 35.81 15.9011
386 2 99.4431 35.6309 0.160041
387 2 103.306 35.4878 16.2786
388 2 107.26 35.6379 0.282287
389 2 111.063 35.6757 15.9448
390 2 115.12 35.5103 0.151653
391 2 118.868 35.4974 15.8321
392 2 122.939 35.5786 16.0216
393 2 126.792 35.4549 0.201312
394 2 130.636 35.451 0.235674
395 2 134.486 35.3366 15.8758
396 2 138.409 35.3032 15.9161
397 2 142.396 35.2097 15.8176
398 2 146.226 35.162 15.8591
399 2 150.145 35.2518 0.0573095
400 2 154.156 35.0569 0.138261
401 2 158.122 39.0595 0.257026
402 2 3.53353 39.1776 16.1075
403 2 7.55297 39.001 16.1714
404 2 11.5128 38.8913 0.376538
405 2 15.3954 38.7219 0.288562
406 2 19.2562 38.9086 16.1303
407 2 23.3965 38.8089 16.098
408 2 27.3155 38.761 0.344391
409 2 31.353 39.0584 16.0721
410 2 35.4034 38.8924 0.427704
411 2 39.4347 39.0172 0.146898
412 2 43.3922 39.172 0.146919
413 2 47.2941 39.2795 0.419417
414 2 51.157 39.3639 0.393682
415 2 55.2432 39.3485 0.161927
416 2 59.2944 39.1222 0.0315616
417 2 63.3889 39.1858 16.0108
418 2 67.3498 39.2838 0.327174
419 2 71.4216 39.4184 0.127664
420 2 75.5491 39.3532 0.195203
421 2 79.566 39.4625 15.9338
422 2 83.3575 39.6922 15.6965
423 2 87.5307 39.8051 15.9935
424 2 91.4396 39.5982 16.0259
425 2 95.5194 39.5742 16.0066
426 2 99.5498 39.8863 0.0463994
427 2 103.194 39.6793 0.203359
428 2 107.151 39.5898 15.8644
429 2 111.08 39.7219 15.6634
430 2 115.002 39.7123 15.7202
431 2 118.943 39.4438 16.1442
432 2 122.8 39.5035 0.0853545
433 2 126.901 39.4701 15.9849
434 2 130.742 39.3103 0.13805
435 2 134.619 39.2937 0.28947
436 2 138.454 39.3573 15.8453
437 2 142.424 39.2851 15.9311
438 2 146.359 39.2406 0.123341
439 2 150.295 39.3105 15.9389
440 2 154.18 39.1591 0.337703
441 2 158.335 43.1632 0.377888
442 2 3.68152 43.071 0.176317
443 2 7.67611 42.8328 0.318184
444 2 11.3963 42.804 0.30287
445 2 15.4057 42.7405 0.265685
446 2 19.3434 42.7634 15.9698
447 2 23.3649 42.7939 0.183116
448 2 27.2924 42.754 0.136738
449 2 31.4381 42.7448 0.295441
450 2 35.3787 42.9929 0.275778
451 2 39.386 42.9524 0.355972
452 2 43.397 43.0871 0.0701713
453 2 47.3397 43.1121 0.197644
454 2 51.3578 43.1103 0.190616
455 2 55.2566 43.1633 0.228547
456 2 59.2894 43.0395 0.393945
457 2 63.3213 43.1791 0.290615
458 2 67.5515 43.1802 16.0371
459 2 71.34 43.2631 15.8898
460 2 75.3383 43.2609 0.0528493
461 2 79.2499 43.4063 0.125759
462 2 83.3191 43.5545 15.9537
463 2 87.6753 43.6032 15.9006
464 2 91.5456 43.7023 16.0008
465 2 95.3896 43.4997 0.174204
466 2 99.4807 43.6023 0.0633054
467 2 103.349 43.7869 0.025491
468 2 107.267 43.6349 0.155042
469 2 111.098 43.6509 15.6839
470 2 115.169 43.5976 15.8552
471 2 118.952 43.615 0.125489
472 2 122.927 43.674 0.17977
473 2 126.808 43.4175 0.127983
474 2 130.686 43.289 0.180226
475 2 134.693 43.2087 15.9758
476 2 138.716 43.4423 15.8851
477 2 142.475 43.1941 15.9311
478 2 146.293 43.3446 15.9717
479 2 150.232 43.1975 0.20082
480 2 154.339 43.1591 15.8749
481 2 158.131 46.9971 15.8695
482 2 3.64066 47.023 15.9363
483 2 7.57762 46.82 16.148
484 2 11.6252 47.0725 15.9165
485 2 15.4614 46.7064 0.462031
486 2 19.3943 46.7628 15.9034
487 2 23.3398 46.808 0.176264
488 2 27.0838 46.6725 0.196574
489 2 31.248 46.7966 0.293334
490 2 35.2675 46.961 0.33068
491 2 39.0535 46.8606 0.154678
492 2 43.2175 46.9476 0.147753
493 2 47.25 46.8955 16.1362
494 2 51.2293 47.0142 16.3039
495 2 55.2363 47.0899 0.224314
496 2 59.3261 47.2711 15.9644
497 2 63.3573 47.0381 0.389533
498 2 67.4137 46.8933 0.280497
499 2 71.3289 47.1338 0.154639
500 2 75.3387 47.2456 15.8672
501 2 79.3905 47.3426 15.8065
502 2 83.5525 47.2295 0.124941
503 2 87.313 47.619 0.0273467
504 2 91.5176 47.4594 16.1306
505 2 95.263 47.6968 0.254325
506 2 99.4123 47.4843 0.255979
507 2 103.56 47.8021 16.1131
508 2 107.278 47.8762 -0.0666487
509 2 111.121 47.7386 15.9546
510 2 115.323 47.6408 15.7652
511 2 118.963 47.5575 -0.0794737
512 2 122.885 47.5489 0.0591911
513 2 126.85 47.4781 0.0124863
514 2 130.818 47.5361 0.276775
515 2 134.671 47.3416 15.9186
516 2 138.652 47.3912 -0.102559
517 2 142.716 47.3193 15.8774
518 2 146.449 47.2791 0.115369
519 2 150.459 47.168 15.942
520 2 154.145 47.0355 0.143108
521 2 158.189 51.195 0.320078
522 2 3.8158 51.107 0.220166
523 2 7.76125 51.0722 0.278141
524 2 11.666 51.0551 16.0927
525 2 15.4826 50.7581 0.206566
526 2 19.4436 50.8887 0.103526
527 2 23.4477 50.6372 0.308609
528 2 27.4355 50.6756 15.8403
529 2 31.181 50.6003 15.9479
530 2 35.2516 50.8142 0.197022
531 2 39.1749 50.8596 16.0938
532 2 43.2404 50.8963 0.424565
533 2 47.1445 50.7943 0.445033
534 2 51.0856 51.0187 15.9069
535 2 55.3396 50.9597 15.907
536 2 59.3514 51.0261 15.8856
537 2 63.3504 51.0095 0.0692818
538 2 67.3696 51.0192 0.210218
539 2 71.42 51.1015 15.8913
540 2 75.4039 51.1568 0.0360441
541 2 79.3754 51.2055 16.0802
542 2 83.3601 51.3551 15.857
543 2 87.3453 51.3686 15.9231
544 2 91.3343 51.3487 -0.0336963
545 2 95.3203 51.5561 0.181329
546 2 99.2104 51.3639 15.9506
547 2 103.115 51.8312 0.141992
548 2 107.3 51.7862 15.8875
549 2 111.239 51.8339 0.1949
550 2 115.347 51.5869 -0.033862
551 2 119.186 51.4705 0.197226
552 2 123.127 51.5939 0.171447
553 2 127.19 51.6687 15.9433
554 2 130.816 51.4759 0.0947352
555 2 134.517 51.3475 15.9448
556 2 138.464 51.4062 0.0789991
557 2 142.56 51.2594 15.7998
558 2 146.465 51.2527 16.1245
559 2 150.289 51.2916 0.0726088
560 2 154.301 51.0445 0.313935
561 2 158.175 55.087 0.150263
562 2 3.87667 54.9553 0.16136
563 2 7.53064 55.0882 0.196151
564 2 11.5597 54.859 15.9281
565 2 15.5477 54.7632 15.9217
566 2 19.5369 54.8381 16.0042
567 2 23.611 54.8097 15.8371
568 2 27.4153 54.7467 15.9308
569 2 31.3236 54.7365 0.0717129
570 2 35.2436 54.8857 16.114
571 2 39.2673 54.6893 0.291075
572 2 43.0027 54.7042 15.925
573 2 47.0006 55.0051 15.9553
574 2 51.2299 54.9884 16.1205
575 2 55.2765 54.8129 0.0593708
576 2 59.2856 54.929 0.105872
577 2 63.4286 54.9172 16.0197
578 2 67.3573 54.9785 0.3119
579 2 71.1984 55.1489 16.1646
580 2 75.3511 55.1277 15.8395
581 2 79.4962 55.1055 15.9185
582 2 83.1859 55.2692 16.0086
583 2 87.3086 55.1669 0.160074
584 2 91.3726 55.2369 0.278455
585 2 95.3559 55.3278 0.0812371
586 2 99.3542 55.4761 15.8538
587 2 103.319 55.5175 -0.00355779
588 2 107.232 55.657 0.220334
589 2 111.35 55.6184 15.729
590 2 115.181 55.7667 -0.00978428
591 2 119.207 55.5826 0.0597317
592 2 123.251 55.7795 0.0515129
593 2 127.028 55.5295 15.8682
594 2 130.834 55.3873 16.0045
595 2 134.887 55.4664 15.7434
596 2 138.737 55.4804 0.131026
597 2 142.66 55.4167 0.0799187
598 2 146.559 55.213 15.7469
599 2 150.415 55.3697 16.1092
600 2 154.223 55.149 0.41286
601 2 0.049179 58.9024 0.112795
602 2 3.79533 59.0162 0.0504515
603 2 7.87977 58.9482 0.263861
604 2 11.7807 59.0141 15.6775
605 2 15.9346 58.86 0.145725
606 2 19.6539 58.694 15.9098
607 2 23.533 58.7283 15.9683
608 2 27.5272 58.8394 0.32486
609 2 31.3595 58.7333 15.8613
610 2 35.3435 58.7014 0.23154
611 2 39.1856 58.5907 0.187655
612 2 43.2791 58.9051 15.8995
613 2 47.2043 58.901 0.283282
614 2 51.3238 58.6889 15.9482
615 2 55.2519 58.7827 15.982
616 2 59.0751 59.0483 15.9288
617 2 63.1485 58.8431 0.135412
618 2 67.1948 59.1339 15.8669
619 2 71.3586 58.9841 0.110074
620 2 75.2732 58.9135 0.235429
621 2 79.4026 58.9829 15.8702
622 2 83.269 59.2988 15.9047
623 2 87.4079 59.0008 0.00748283
624 2 91.3366 59.1335 0.157152
625 2 95.391 59.1651 0.158354
626 2 99.1376 59.4911 15.894
627 2 103.277 59.3451 0.176443
628 2 107.284 59.5322 0.15732
629 2 111.113 59.514 -0.099712
630 2 115.19 59.7454 0.0636342
631 2 119.367 59.6197 -0.115654
632 2 123.155 59.6034 0.315779
633 2 127.16 59.6789 -0.048513
634 2 131.012 59.4209 15.9051
635 2 134.899 59.2745 0.041687
636 2 138.711 59.3402 0.177873
637 2 142.53 59.4044 15.7881
638 2 146.592 59.3053 0.00584115
639 2 150.492 59.414 0.287451
640 2 154.376 59.038 0.129592
641 2 0.193704 62.9928 15.8203
642 2 3.94068 63.0319 15.6824
643 2 7.77009 62.9183 0.0487908
644 2 11.826 62.897 0.0749096
645 2 15.6405 62.8021 15.8676
646 2 19.6005 62.826 15.8907
647 2 23.5225 62.668 15.9964
648 2 27.3361 62.7382 0.209599
649 2 31.2678 62.8046 15.8952
650 2 35.2179 62.6259 16.0351
651 2 39.1847 62.4288 0.223386
652 2 43.1137 62.5882 0.107424
653 2 47.2354 62.5944 15.9924
654 2 51.2039 62.7258 0.0772913
655 2 55.091 62.5677 0.13924
656 2 59.2363 62.8022 0.0832437
657 2 63.1988 62.9644 0.0973738
658 2 67.2862 62.8773 0.15
659 2 71.3006 62.9457 -0.0216498
660 2 75.3374 62.9195 15.7336
661 2 79.2529 63.0433 15.8742
662 2 83.1588 63.0167 15.8552
663 2 87.3756 63.0018 0.13512
664 2 91.4049 63.1545 15.9122
665 2 95.1952 63.1382 0.348412
666 2 99.2322 63.2625 0.144017
667 2 103.329 63.3616 0.15232
668 2 107.22 63.306 0.207089
669 2 111.264 63.3975 0.198466
670 2 115.185 63.4199 -0.0784197
671 2 119.334 63.4268 15.7996
672 2 123.342 63.6881 15.9202
673 2 127.222 63.4876 15.9043
674 2 131.18 63.6991 0.127378
675 2 134.853 63.3716 15.9433
676 2 138.854 63.5294 0.0741867
677 2 142.65 63.5428 0.0311234
678 2 146.534 63.2724 -0.0562802
679 2 150.684 63.1359 15.977
680 2 154.569 63.1906 15.8182
681 2 0.109462 66.9462 0.116227
682 2 4.15531 67.1219 0.0255534
683 2 8.06863 67.0546 -0.0275286
684 2 11.8853 66.9289 15.9187
685 2 15.7404 66.8701 15.6743
686 2 19.5962 66.9215 15.8667
687 2 23.5205 66.6867 15.9705
688 2 27.3616 66.7322 15.8826
689 2 31.5191 66.9615 0.237839
690 2 35.3291 66.5329 0.111818
691 2 39.25 66.6621 0.24487
692 2 42.9945 66.5045 15.7434
693 2 47.1573 66.5233 0.0694465
694 2 50.9196 66.5899 16.0488
695 2 54.9771 66.7328 15.9157
696 2 58.9465 66.5961 16.1399
697 2 63.1914 66.7582 15.9142
698 2 67.0535 66.8858 15.986
699 2 71.2529 66.9008 0.141547
700 2 75.3026 66.8517 -0.0316164
701 2 79.3176 66.9641 15.8881
702 2 83.3231 67.1085 15.8571
703 2 87.2031 67.008 15.9586
704 2 91.2232 67.1962 0.120446
705 2 95.2652 66.9948 15.9681
706 2 99.3348 67.0239 16.0197
707 2 103.389 67.2745 0.160858
708 2 107.207 67.3391 15.8534
709 2 111.3 67.4107 -0.00781229
710 2 115.237 67.3615 0.0795818
711 2 119.21 67.4424 0.0656175
712 2 123.233 67.6993 15.8255
713 2 127.272 67.3689 15.9598
714 2 130.943 67.5013 15.9626
715 2 135.056 67.6866 15.8031
716 2 138.762 67.5352 15.7535
717 2 142.869 67.5557 15.7504
718 2 146.895 67.3195 0.0378996
719 2 150.608 67.153 15.9253
720 2 154.391 67.114 15.8009
721 2 0.290104 71.1529 15.9204
722 2 4.1476 71.1377 15.9291
723 2 8.19918 71.2206 0.00786716
724 2 11.9987 70.9429 15.989
725 2 15.8732 70.9471 15.9435
726 2 19.5372 70.9338 0.050254
727 2 23.458 70.8489 15.7709
728 2 27.546 70.6736 15.8647
729 2 31.3941 70.8232 15.716
730 2 35.4123 70.7132 15.7592
731 2 39.2121 70.6712 15.9889
732 2 43.0859 70.5286 0.0325051
733 2 47.0786 70.6192 15.889
734 2 51.0156 70.6438 15.9098
735 2 55.0728 70.4486 16.2689
736 2 58.9622 70.4564 0.213451
737 2 62.9556 70.5493 15.7575
738 2 67.2739 70.6508 0.132222
739 2 71.2353 70.5707 15.8174
740 2 75.1127 70.8868 15.624
741 2 79.222 70.9084 15.9304
742 2 83.1941 70.9235 0.159987
743 2 87.2607 70.9255 15.8045
744 2 91.0594 70.977 -0.0273378
745 2 95.1996 71.2408 0.208714
746 2 99.0836 70.9576 15.722
747 2 103.239 71.1541 0.0942953
748 2 107.179 71.0555 0.0576528
749 2 111.157 71.2316 15.9356
750 2 115.223 71.2713 0.256037
751 2 119.065 71.4194 15.8767
752 2 123.272 71.3898 0.200435
753 2 127.103 71.3828 15.9548
754 2 131.135 71.4844 15.897
755 2 135.209 71.5134 15.6871
756 2 139.015 71.3743 15.8396
757 2 143 71.3457 15.9595
758 2 146.891 71.2669 15.9003
759 2 150.654 71.1582 15.7191
760 2 154.63 71.0625 15.9175
761 2 0.237782 75.2511 15.7637
762 2 4.03241 75.2068 15.6771
763 2 8.11276 75.14 15.7735
764 2 11.995 75.0357 15.829
765 2 15.8831 74.9761 15.7232
766 2 19.7007 74.8508 15.829
767 2 23.7262 74.8075 15.9161
768 2 27.5842 74.7118 15.8643
769 2 31.6881 74.7269 0.111975
770 2 35.511 74.6309 15.91
771 2 39.3497 74.6719 15.6798
772 2 43.2482 74.3865 0.060023
773 2 47.0392 74.516 16.0343
774 2 51.0832 74.3122 0.0474617
775 2 55.085 74.5477 16.1826
776 2 59.1887 74.5714 15.793
777 2 63.0413 74.3584 15.9998
778 2 67.0622 74.4661 16.0118
779 2 71.0666 74.6116 15.9882
780 2 75.2019 74.6013 0.0677512
781 2 78.9473 74.8361 15.7665
782 2 83.1656 74.774 15.9127
783 2 87.2933 74.9028 15.7995
784 2 91.1029 74.8156 0.376358
785 2 95.1134 74.9332 16.232
786 2 99.1714 75.0433 0.206087
787 2 103.159 75.0307 15.8145
788 2 106.983 75.0385 -0.061884
789 2 111.167 75.2601 16.0031
790 2 115.013 75.4102 0.180316
791 2 119.25 75.3828 15.8436
792 2 123.049 75.1917 15.8559
793 2 127.158 75.2155 0.237875
794 2 131.13 75.6332 0.162301
795 2 135.232 75.5089 15.9272
796 2 139.179 75.4246 15.9185
797 2 142.927 75.4083 0.194916
798 2 146.775 75.3367 15.7116
799 2 150.897 75.1841 15.7621
800 2 154.65 75.1837 0.0118397
801 2 0.569788 79.3705 15.7061
802 2 4.37085 79.0998 15.8263
803 2 8.24356 79.0739 15.8108
804 2 12.1644 79.0143 15.8894
805 2 15.9723 78.8878 15.8569
806 2 19.7403 78.91 15.8821
807 2 23.8215 78.7294 15.8278
808 2 27.7065 78.8345 15.7166
809 2 31.5916 78.7318 0.0715549
810 2 35.6538 78.6046 15.7819
811 2 39.3665 78.4871 0.11158
812 2 43.4919 78.5711 0.0665053
813 2 47.2839 78.3743 0.381098
814 2 51.1333 78.4268 15.8031
815 2 55.2202 78.2519 15.9412
816 2 59.0385 78.4436 15.9965
817 2 62.9018 78.3259 15.8827
818 2 66.9201 78.5368 16.103
819 2 70.9263 78.519 15.9759
820 2 75.0974 78.6793 15.8554
821 2 78.8739 78.5117 0.122939
822 2 82.9095 78.7039 0.20991
823 2 87.0817 78.8337 0.13735
824 2 91.1755 78.8501 0.232484
825 2 95.1203 78.7304 0.303437
826 2 99.1329 78.9647 16.0135
827 2 103.028 78.9536 0.255523
828 2 107.02 79.0038 15.9145
829 2 111.086 79.0439 0.259626
830 2 115.08 78.9614 15.8954
831 2 119.025 79.212 0.18695
832 2 123.097 79.1728 0.104723
833 2 127.003 79.1893 15.8182
834 2 130.861 79.4659 0.0779787
835 2 135.017 79.2743 15.8496
836 2 139.252 79.301 15.96
837 2 143.033 79.4124 15.8445
838 2 147.186 79.3439 15.7509
839 2 150.933 79.3554 15.824
840 2 154.7 79.2714 15.9274
841 2 0.412568 83.1258 15.7648
842 2 4.35503 83.2727 15.8387
843 2 8.27103 83.0995 15.8361
844 2 12.1062 82.9403 15.717
845 2 16.2043 83.1057 15.6661
846 2 19.979 83.116 16.0588
847 2 24.0684 82.882 15.8129
848 2 27.8856 82.5246 15.8735
849 2 31.6285 82.7547 15.8954
850 2 35.5296 82.5544 15.7918
851 2 39.6142 82.5452 0.433507
852 2 43.312 82.4106 15.9722
853 2 47.4543 82.4467 15.9317
854 2 51.1859 82.4657 15.9185
855 2 55.0855 82.1732 15.8457
856 2 59.0024 82.162 15.8942
857 2 63.1583 82.308 15.7806
858 2 66.9301 82.245 0.340434
859 2 71.1086 82.4291 0.16262
860 2 74.8855 82.2661 15.961
861 2 78.8891 82.4659 0.0667887
862 2 82.9304 82.3629 15.9201
863 2 87.0653 82.603 16.0005
864 2 91.113 82.7963 0.103181
865 2 94.9678 82.688 15.8684
866 2 99.0608 82.7034 16.0067
867 2 103.109 82.7151 0.230594
868 2 106.925 82.7686 0.410184
869 2 110.898 82.972 15.8479
870 2 114.816 82.9614 15.8805
871 2 118.934 83.0755 0.137885
872 2 123 83.2468 15.8194
873 2 126.946 83.3517 0.32614
874 2 130.882 83.273 15.7501
875 2 135.044 83.2976 0.0538047
876 2 138.851 83.181 15.8976
877 2 142.938 83.1386 0.282115
878 2 147.09 83.3944 -0.105965
879 2 150.986 83.3423 15.6894
880 2 154.926 83.3628 15.7063
881 2 0.471772 87.0349 15.7406
882 2 4.52435 87.2947 0.0980411
883 2 8.40057 86.9684 15.8153
884 2 12.2182 86.8482 15.8133
885 2 16.1401 87.0872 0.0746402
886 2 20.0176 87.1323 15.9621
887 2 23.9008 86.7908 15.9749
888 2 28.0294 86.895 16.1202
889 2 31.6901 86.6742 15.9564
890 2 35.7549 86.6753 16.0602
891 2 39.5721 86.4546 15.9103
892 2 43.4504 86.4095 15.9604
893 2 47.3498 86.4221 0.305906
894 2 51.1219 86.5169 0.149188
895 2 55.0002 86.4032 0.135192
896 2 59.0861 86.3484 15.9776
897 2 63.0513 86.2946 15.9912
898 2 66.8687 86.2011 0.151951
899 2 70.6387 86.3672 0.267189
900 2 74.8824 86.3928 15.6358
901 2 78.7718 86.2283 0.31722
902 2 82.7556 86.3738 0.224767
903 2 86.8697 86.5454 15.9256
904 2 90.9508 86.6465 0.132845
905 2 94.8413 86.7374 15.9422
906 2 98.9461 86.7567 15.8301
907 2 103.038 86.6922 0.3586
908 2 107.14 86.8174 0.20465
909 2 110.911 87.0025 15.7928
910 2 114.824 86.9902 0.109965
911 2 118.938 87.2756 0.216686
912 2 123.036 87.1873 -0.0810632
913 2 127.057 87.1373 15.7821
914 2 131.126 87.0691 0.197688
915 2 135.043 87.2632 16.0515
916 2 139.075 87.3429 -0.0248423
917 2 143.119 87.2818 0.192813
918 2 147.048 87.3715 -0.0130358
919 2 150.966 87.3165 15.7988
920 2 155.043 87.3442 15.7357
921 2 0.53676 91.3503 15.6758
922 2 4.41052 91.3843 0.0948676
923 2 8.27832 90.8613 0.269379
924 2 12.3435 91.105 0.180872
925 2 16.2908 90.9516 16.0723
926 2 20.0298 90.7626 15.9277
927 2 24.1353 91.0502 16.0892
928 2 27.9298 90.8806 15.9554
929 2 31.9284 90.4506 15.9072
930 2 35.8902 90.5266 16.0579
931 2 39.7473 90.5249 15.7088
932 2 43.553 90.3903 0.127632
933 2 47.5 90.563 15.8216
934 2 51.5003 90.5028 15.9292
935 2 55.3272 90.5483 16.0474
936 2 59.0935 90.2377 16.0064
937 2 63.0031 90.3962 -0.164092
938 2 67.0148 90.1461 15.9975
939 2 70.8204 90.2388 15.8533
940 2 75.0173 90.1119 15.7959
941 2 78.8244 90.3325 0.147549
942 2 82.739 90.3226 0.163014
943 2 86.9582 90.4221 15.7513
944 2 90.8598 90.4756 0.175552
945 2 94.9721 90.6316 0.178169
946 2 98.7702 90.8151 0.180312
947 2 102.967 90.4733 0.285995
948 2 107.052 90.8358 0.206916
949 2 110.919 90.9364 16.0503
950 2 114.867 91.1187 0.214793
951 2 118.752 91.0361 0.0812068
952 2 122.899 90.8811 -0.020181
953 2 126.626 91.0272 0.168834
954 2 130.806 91.2887 15.9403
955 2 134.894 91.0738 0.199237
956 2 139.05 91.1057 0.220575
957 2 143.014 91.4648 0.145078
958 2 147.093 91.1817 0.0414703
959 2 151.021 91.4254 15.8275
960 2 155.017 91.1491 0.0487798
961 2 0.604905 95.0877 15.844
962 2 4.63878 95.2497 15.9341
963 2 8.5285 94.9118 0.0950957
964 2 12.2732 95.054 15.7757
965 2 16.296 94.9256 15.8798
966 2 20.2315 94.818 15.9996
967 2 24.301 94.8976 15.9189
968 2 28.1067 94.6818 15.7208
969 2 31.9854 94.7018 15.9397
970 2 35.9106 94.7462 0.0611592
971 2 39.8644 94.4718 15.9412
972 2 43.5861 94.5463 15.9472
973 2 47.7961 94.7153 16.1091
974 2 51.6476 94.6428 0.0169147
975 2 55.404 94.6153 15.8922
976 2 59.1749 94.311 16.1005
977 2 62.9043 94.4916 16.0161
978 2 67.0337 94.3709 0.14218
979 2 70.9011 94.2506 0.24624
980 2 74.8296 94.1369 15.785
981 2 78.7193 94.2367 15.8779
982 2 82.851 94.1226 0.0717115