ITEM: TIMESTEP
15800
ITEM: NUMBER OF ATOMS
32000
ITEM: BOX BOUNDS xy xz yz pp pp pp
0.0000000000000000e+00 1.5831999999999999e+02 0.0000000000000000e+00
0.0000000000000000e+00 1.5831999999999999e+02 0.0000000000000000e+00
1.6371677902447423e-01 1.5933995220975296e+01 0.0000000000000000e+00
ITEM: ATOMS id type x y z
1 2 158.157 157.865 15.9237
2 2 3.74223 158.007 0.286087
3 2 7.89333 157.926 0.160278
4 2 11.7606 158.222 15.9253
5 2 15.7998 157.913 0.157263
6 2 19.8053 158.053 0.227395
7 2 23.8963 158.107 16.057
8 2 27.9024 158.232 0.245485
9 2 31.9848 158.356 16.049
10 2 35.7824 158.27 0.256224
11 2 39.7105 158.297 0.408643
12 2 43.8164 158.413 15.9005
13 2 47.9427 -0.0179914 16.1033
14 2 51.8675 0.150666 15.7624
15 2 55.8063 158.61 15.9346
16 2 59.907 0.156728 15.9378
17 2 63.7486 0.244131 0.0827397
18 2 67.5695 0.166335 0.0554154
19 2 71.5706 158.335 15.8838
20 2 75.3448 158.301 16.0236
21 2 79.2701 158.106 15.9694
22 2 83.203 158.068 0.199397
23 2 87.3202 158.171 0.248104
24 2 91.0423 157.989 0.124043
25 2 95.0553 157.903 -0.00828152
26 2 98.8633 157.897 0.116576
27 2 102.868 157.941 0.0651802
28 2 106.878 157.887 15.9992
29 2 110.702 157.843 0.160221
30 2 114.464 157.685 0.215198
31 2 118.407 157.661 0.137732
32 2 122.369 157.742 15.773
33 2 126.349 157.693 15.9373
34 2 130.041 157.711 15.9981
35 2 134.069 157.63 15.8373
36 2 138.119 157.555 15.7196
37 2 142.179 157.788 16.1412
38 2 146.147 157.604 15.8849
39 2 150.136 157.706 15.6803
40 2 154.192 157.776 15.8708
41 2 158.213 3.37907 0.317596
42 2 3.7892 3.31961 15.9709
43 2 7.79955 3.59243 0.188098
44 2 11.8243 3.65302 0.17736
45 2 15.7918 3.57567 0.128698
46 2 19.6722 3.63153 15.9368
47 2 23.7332 3.78687 0.487189
48 2 27.7907 3.78349 0.0995976
49 2 31.7388 3.9343 0.377487
50 2 35.9675 3.81555 0.240201
51 2 39.7687 3.90714 0.278605
52 2 43.9081 4.01596 0.0324715
53 2 47.746 3.9952 15.8637
54 2 51.6109 4.0815 0.166657
55 2 55.7866 4.31872 0.064708
56 2 59.9105 4.23258 0.162375
57 2 63.8439 4.31074 15.8864
58 2 67.8259 4.16233 0.0797052
59 2 71.6262 4.08667 0.0786684
60 2 75.5493 3.92772 0.113226
61 2 79.4743 3.8533 0.098258
62 2 83.5024 3.92596 0.12926
63 2 87.193 3.91937 0.371388
64 2 91.1218 3.92227 0.210528
65 2 94.9347 3.80614 16.0808
66 2 98.851 3.65478 0.154361
67 2 103.014 3.62448 0.221168
68 2 106.872 3.50536 16.0812
69 2 110.708 3.63806 16.0091
70 2 114.573 3.44188 16.048
71 2 118.564 3.40548 15.8861
72 2 122.576 3.36347 0.237648
73 2 126.35 3.54991 16.0368
74 2 130.258 3.21641 0.220933
75 2 134.148 3.27076 16.0573
76 2 138.029 3.08233 0.259779
77 2 142.029 3.2151 16.0793
78 2 146.002 3.40199 0.154137
79 2 149.975 3.22592 15.9025
80 2 154.151 3.24425 16.0383
81 2 157.932 7.33643 0.105137
82 2 3.66612 7.49638 16.1751
83 2 7.76667 7.35923 15.872
84 2 11.8667 7.55877 15.9341
85 2 15.7657 7.55064 0.201226
86 2 19.6635 7.56424 16.1387
87 2 23.5182 7.57661 0.324239
88 2 27.6067 7.60583 0.276988
89 2 31.779 7.8482 16.0953
90 2 35.7498 7.75714 16.0731
91 2 39.6748 7.98077 15.8843
92 2 43.6752 7.84988 15.8438
93 2 47.809 7.99938 0.218519
94 2 51.7802 8.01537 15.8624
95 2 55.7503 8.07411 0.204261
96 2 59.7096 8.12216 0.32496
97 2 63.8672 8.08816 0.178049
98 2 67.531 8.13952 0.271822
99 2 71.6234 8.00454 0.0313053
100 2 75.6083 8.05229 0.022095
101 2 79.46 7.81195 16.0414
102 2 83.3832 7.86336 0.125289
103 2 87.3214 7.79923 16.1924
104 2 91.141 7.8447 0.0474977
105 2 94.9935 7.78555 0.236997
106 2 99.0026 7.62633 0.164205
107 2 102.703 7.48925 0.238035
108 2 107.025 7.57794 0.177673
109 2 110.627 7.48375 0.100741
110 2 114.743 7.43873 0.169351
111 2 118.605 7.65954 0.187697
112 2 122.598 7.39196 0.100064
113 2 126.685 7.41747 15.9193
114 2 130.371 7.42466 0.16555
115 2 134.191 7.37085 0.337418
116 2 137.957 7.15262 15.9852
117 2 142.173 7.02446 16.006
118 2 146.07 7.00109 0.265979
119 2 150.101 7.14257 15.9513
120 2 154.02 7.18936 16.1246
121 2 157.768 11.2291 0.0136247
122 2 3.52125 11.2469 0.282519
123 2 7.76704 11.345 15.8839
124 2 11.6024 11.5989 16.1022
125 2 15.7065 11.3661 16.1022
126 2 19.6353 11.4575 0.361195
127 2 23.5449 11.634 0.153001
128 2 27.5518 11.6283 0.1831
129 2 31.6235 11.7379 0.10289
130 2 35.6368 11.7841 0.113129
131 2 39.8445 11.7121 0.276948
132 2 43.7241 11.796 15.9451
133 2 47.9387 11.8945 15.8175
134 2 51.7718 11.9069 16.0422
135 2 55.6146 12.0224 0.284778
136 2 59.6695 11.9256 15.9209
137 2 63.7763 11.9313 0.153234
138 2 67.7254 12.0878 15.9531
139 2 71.7835 12.1764 -0.0285298
140 2 75.6085 11.9189 0.0981576
141 2 79.6134 11.9619 0.237317
142 2 83.3882 11.9223 0.149704
143 2 87.4424 11.8561 0.135113
144 2 91.2406 11.694 0.198354
145 2 95.2603 11.7092 0.120681
146 2 99.1728 11.8013 0.199637
147 2 102.957 11.6461 0.0524726
148 2 106.828 11.603 0.488205
149 2 110.557 11.5551 0.12773
150 2 114.566 11.5204 0.486947
151 2 118.47 11.3492 0.0765812
152 2 122.483 11.2876 0.237112
153 2 126.485 11.431 0.236096
154 2 130.371 11.3196 16.0934
155 2 134.172 11.1893 0.0784569
156 2 138.321 11.3519 0.427592
157 2 142.179 11.3316 15.8699
158 2 145.988 11.0665 16.0996
159 2 150.056 11.3667 16.1606
160 2 153.909 11.2287 15.9351
161 2 157.927 15.2188 0.091311
162 2 3.58296 15.3397 0.480472
163 2 7.55301 15.3205 0.0717647
164 2 11.7604 15.271 16.1776
165 2 15.4416 15.4145 16.1149
166 2 19.5453 15.5802 0.246343
167 2 23.5502 15.3784 0.22441
168 2 27.5364 15.5454 15.889
169 2 31.6875 15.7495 16.1305
170 2 35.5954 15.5923 0.236999
171 2 39.7041 15.6279 15.8808
172 2 43.857 15.6221 0.187002
173 2 47.6257 15.7163 0.148025
174 2 51.5624 15.7281 0.196922
175 2 55.765 15.7762 16.0857
176 2 59.6944 15.8809 0.290705
177 2 63.4737 15.8439 0.0234763
178 2 67.6914 15.8803 0.146052
179 2 71.8247 16.1099 0.101018
180 2 75.6291 16.2148 15.828
181 2 79.5575 16.017 0.101032
182 2 83.5556 15.7914 0.107955
183 2 87.4623 15.8611 0.152512
184 2 91.4034 15.7815 0.117376
185 2 95.2816 15.7387 0.373599
186 2 99.1649 15.7031 0.260971
187 2 102.897 15.691 0.341937
188 2 106.929 15.5632 0.0771281
189 2 110.951 15.4996 0.257514
190 2 114.824 15.359 0.264809
191 2 118.721 15.3485 0.262138
192 2 122.577 15.5437 16.1567
193 2 126.547 15.2919 0.316688
194 2 130.455 15.2375 0.23407
195 2 134.219 15.2483 0.260332
196 2 138.127 15.1641 -0.0268272
197 2 141.966 15.2214 0.261391
198 2 146.041 15.1472 0.0202513
199 2 149.875 15.115 16.0411
200 2 153.87 14.9885 0.225994
201 2 157.922 19.2241 15.9807
202 2 3.67183 19.1485 0.205743
203 2 7.30496 19.1472 15.9703
204 2 11.4635 19.0924 16.0128
205 2 15.6556 19.3655 16.0243
206 2 19.5572 19.3752 0.172301
207 2 23.5792 19.3095 0.396969
208 2 27.6588 19.3995 0.36965
209 2 31.5701 19.564 16.1856
210 2 35.6168 19.5646 16.059
211 2 39.4982 19.4789 0.187841
212 2 43.6274 19.438 15.7509
213 2 47.6568 19.7121 16.0968
214 2 51.6855 19.7551 16.0547
215 2 55.5444 19.7792 15.9335
216 2 59.7903 19.7336 15.9122
217 2 63.6892 19.8353 15.9908
218 2 67.6323 19.9586 15.9005
219 2 71.7675 19.7939 -0.0424321
220 2 75.5586 19.9911 0.0462287
221 2 79.5769 19.8891 -0.0134869
222 2 83.5805 19.8544 0.109962
223 2 87.3359 19.8998 15.813
224 2 91.285 19.7206 0.0537043
225 2 95.301 19.7719 0.308012
226 2 99.2743 19.648 15.853
227 2 103.184 19.7665 15.8313
228 2 107.152 19.6275 16.1479
229 2 110.88 19.4865 0.358847
230 2 114.758 19.5337 0.329086
231 2 118.886 19.4165 16.2169
232 2 122.744 19.3236 0.107764
233 2 126.488 19.4414 0.0415288
234 2 130.456 19.499 0.400938
235 2 134.427 19.2356 15.9827
236 2 138.386 19.2288 16.1632
237 2 142.212 19.2985 0.416398
238 2 145.905 19.1236 0.271601
239 2 150.135 19 0.392675
240 2 153.875 18.9704 16.0182
241 2 157.943 23.1197 16.0728
242 2 3.50537 22.8911 16.1539
243 2 7.44198 22.9052 0.376091
244 2 11.4394 23.3342 16.0783
245 2 15.7595 23.1965 16.1064
246 2 19.5446 23.198 0.236135
247 2 23.5587 23.2765 15.905
248 2 27.4174 23.2716 16.2258
249 2 31.4485 23.2598 0.399537
250 2 35.4215 23.4797 15.9934
251 2 39.5341 23.3227 0.250558
252 2 43.3279 23.4519 16.0379
253 2 47.5768 23.4441 16.042
254 2 51.753 23.6629 0.338955
255 2 55.5969 23.5891 16.084
256 2 59.718 23.7723 15.796
257 2 63.4471 23.7114 15.8293
258 2 67.6049 23.6919 0.318398
259 2 71.5634 23.7122 0.190496
260 2 75.6665 23.7855 0.250942
261 2 79.7927 23.9406 15.6981
262 2 83.6389 23.9422 15.8405
263 2 87.3731 23.8851 0.21123
264 2 91.3351 23.7228 15.9566
265 2 95.4385 23.6276 15.8599
266 2 99.3016 23.5805 0.0641255
267 2 103.183 23.5418 0.0220477
268 2 107.203 23.7499 0.0901463
269 2 110.854 23.4125 0.177716
270 2 114.786 23.5792 15.9448
271 2 118.74 23.3672 15.943
272 2 122.789 23.4118 0.291187
273 2 126.736 23.3674 0.253062
274 2 130.562 23.1836 15.9636
275 2 134.42 23.2306 0.241127
276 2 138.44 23.3037 16.1933
277 2 142.287 23.1999 0.34376
278 2 146.14 23.1541 0.304562
279 2 149.96 23.2296 0.28915
280 2 153.876 23.0031 0.27507
281 2 157.78 27.1289 0.303957
282 2 3.48245 26.9668 15.9472
283 2 7.43499 27.0471 0.282407
284 2 11.4394 27.1567 16.0418
285 2 15.2407 27.2551 16.1638
286 2 19.2458 26.9186 0.169055
287 2 23.4052 27.1131 0.233
288 2 27.3555 27.097 0.286234
289 2 31.5506 27.4174 16.1216
290 2 35.4068 27.24 0.211018
291 2 39.6169 27.2942 0.185549
292 2 43.3333 27.3643 15.9817
293 2 47.6001 27.4142 0.165601
294 2 51.4171 27.5491 0.17393
295 2 55.6413 27.5301 0.162145
296 2 59.4382 27.8286 0.027
297 2 63.6019 27.6733 -0.0581607
298 2 67.4775 27.6892 -0.00491087
299 2 71.7007 27.6006 0.121895
300 2 75.5425 27.6092 16.1326
301 2 79.6339 27.6836 0.076342
302 2 83.6745 27.7413 15.932
303 2 87.5704 27.8963 0.209186
304 2 91.4939 27.648 16.0488
305 2 95.3953 27.5352 15.942
306 2 99.2713 27.7035 0.260886
307 2 103.29 27.5347 0.193192
308 2 107.037 27.6651 15.796
309 2 110.799 27.4934 0.120915
310 2 114.905 27.4587 15.9183
311 2 118.892 27.3894 16.1377
312 2 122.727 27.6946 0.324365
313 2 126.723 27.4128 0.166884
314 2 130.719 27.4449 0.292115
315 2 134.626 27.2838 16.0312
316 2 138.568 27.444 0.266489
317 2 142.256 27.2891 0.266059
318 2 146.179 27.3756 0.28292
319 2 149.948 27.0821 0.126578
320 2 154.117 27.065 15.9189
321 2 158.03 31.1555 16.112
322 2 3.59326 31.1649 0.297135
323 2 7.55824 30.9073 0.167781
324 2 11.3745 31.0898 15.9721
325 2 15.4136 30.9472 0.352358
326 2 19.3476 31.004 15.9582
327 2 23.4283 31.0809 15.9916
328 2 27.3441 31.0175 0.0982959
329 2 31.4779 31.1871 0.309716
330 2 35.626 31.1226 16.1006
331 2 39.4713 31.3551 16.0882
332 2 43.4903 31.2798 0.303704
333 2 47.6416 31.2881 16.1282
334 2 51.3934 31.5269 15.8649
335 2 55.4217 31.3082 0.134543
336 2 59.3728 31.5834 0.206812
337 2 63.3021 31.5359 15.8805
338 2 67.6041 31.5421 0.0911598
339 2 71.4381 31.6222 15.8339
340 2 75.3885 31.5361 0.0845145
341 2 79.47 31.4963 0.196149
342 2 83.6091 31.705 16.0378
343 2 87.6976 31.8706 0.165507
344 2 91.6102 31.66 0.194747
345 2 95.6317 31.6446 0.146736
346 2 99.323 31.6118 0.226449
347 2 103.271 31.4558 15.8956
348 2 107.283 31.5722 0.288152
349 2 111.033 31.5231 15.933
350 2 114.96 31.388 0.137923
351 2 118.876 31.4292 15.9955
352 2 122.886 31.4817 0.157246
353 2 126.705 31.4665 0.210323
354 2 130.685 31.5555 0.0457624
355 2 134.507 31.341 0.2424
356 2 138.395 31.4035 16.0471
357 2 142.246 31.2527 16.0655
358 2 146.177 31.2288 16.1257
359 2 150.09 31.1181 16.0665
360 2 154.193 31.2478 16.0298
361 2 158.042 35.175 16.137
362 2 3.51196 35.1001 0.267533
363 2 7.42449 35.1381 0.0863137
364 2 11.5002 34.8308 16.0034
365 2 15.3655 34.8891 0.218328
366 2 19.3355 34.7925 15.9862
367 2 23.5364 34.882 16.0039
368 2 27.4697 35.0516 0.224366
369 2 31.4763 35.0515 0.248973
370 2 35.4929 35.1308 15.9828
371 2 39.3919 35.1447 0.22279
372 2 43.4148 35.3179 16.0562
373 2 47.3575 35.3066 15.9588
374 2 51.5667 35.1698 0.086041
375 2 55.4662 35.3258 15.6946
376 2 59.4655 35.4677 0.284126
377 2 63.4777 35.4886 0.0773895
378 2 67.3664 35.3849 0.164855
379 2 71.5287 35.5851 0.0627666
380 2 75.4605 35.3835 15.9288
381 2 79.6749 35.2811 15.8814
382 2 83.4371 35.6294 0.280425
383 2 87.5064 35.6867 0.283046
384 2 91.6423 35.7083 16.0919
385 2 95.7065 35.5757 15.9166
386 2 99.5543 35.7686 0.201693
387 2 103.363 35.7865 15.92
388 2 107.135 35.6731 0.301764
389 2 111.199 35.4932 15.99
390 2 115.082 35.6008 0.185938
391 2 119.026 35.5278 15.9439
392 2 122.826 35.473 15.9492
393 2 126.675 35.4572 0.158727
394 2 130.628 35.4555 0.0471548
395 2 134.54 35.5217 16.0781
396 2 138.361 35.4577 15.8948
397 2 142.419 35.4322 16.1501
398 2 146.181 35.2493 15.9491
399 2 150.148 35.1004 0.317873
400 2 154.033 35.0932 0.358605
401 2 157.913 39.1727 0.257702
402 2 3.60529 39.0855 15.8304
403 2 7.44876 38.9738 16.2578
404 2 11.3671 38.8291 0.304875
405 2 15.5042 38.94 0.404387
406 2 19.4085 38.7612 16.1387
407 2 23.1818 38.8721 16.1618
408 2 27.369 38.8169 0.198724
409 2 31.2767 38.886 16.0707
410 2 35.2901 39.0287 0.226935
411 2 39.2601 38.9999 0.430093
412 2 43.4925 39.0827 0.244204
413 2 47.4459 39.2301 0.151937
414 2 51.3307 39.1201 0.0991167
415 2 55.2795 39.247 0.197988
416 2 59.2823 39.374 0.294957
417 2 63.3828 39.2791 15.958
418 2 67.3942 39.3472 0.317058
419 2 71.4244 39.31 0.313292
420 2 75.4137 39.4022 0.132612
421 2 79.5072 39.4422 15.9217
422 2 83.5971 39.6971 15.9777
423 2 87.5715 39.5538 15.9284
424 2 91.6727 39.6582 15.9271
425 2 95.479 39.7805 15.9566
426 2 99.4556 39.5737 0.274054
427 2 103.477 39.9071 0.243173
428 2 107.416 39.7155 16.0495
429 2 111.199 39.7993 15.979
430 2 115.047 39.4307 15.9925
431 2 119.014 39.6708 15.657
432 2 122.978 39.6092 0.078592
433 2 126.713 39.583 15.7606
434 2 130.517 39.6451 0.051944
435 2 134.456 39.5472 0.0435471
436 2 138.373 39.3659 15.9007
437 2 142.392 39.3116 15.9992
438 2 146.137 39.3596 0.10397
439 2 150.127 39.1055 16.0262
440 2 154.025 39.1201 0.0721601
441 2 158.139 43.1572 0.19777
442 2 3.79737 42.9785 0.394008
443 2 7.53282 43.0826 0.429774
444 2 11.6348 42.8792 0.319195
445 2 15.3239 42.8775 0.301273
446 2 19.2684 42.8023 16.0616
447 2 23.1935 42.6757 0.378019
448 2 27.3539 42.6941 0.128879
449 2 31.1628 43.0808 0.427778
450 2 35.3814 42.8527 0.434497
451 2 39.4062 42.9839 0.00685422
452 2 43.3488 42.9908 0.517788
453 2 47.2812 43.1213 0.339129
454 2 51.2647 43.0689 0.561697
455 2 55.3665 43.3241 -0.049724
456 2 59.5084 43.3756 0.0553136
457 2 63.3576 43.1825 0.330748
458 2 67.2579 43.1791 16.0086
459 2 71.5467 43.2569 15.9611
460 2 75.353 43.2477 0.187724
461 2 79.5094 43.361 0.161821
462 2 83.5885 43.5305 15.8953
463 2 87.3461 43.6406 16.0134
464 2 91.3094 43.7266 15.9374
465 2 95.4477 43.6777 0.339148
466 2 99.3552 43.6958 0.31552
467 2 103.476 43.6672 0.472598
468 2 107.407 43.7491 0.149945
469 2 111.312 43.7594 15.8193
470 2 115.074 43.5142 16.0374
471 2 118.968 43.5502 0.191983
472 2 122.73 43.5348 0.179732
473 2 126.824 43.5614 0.089538
474 2 130.841 43.6632 0.00560583
475 2 134.569 43.573 15.7862
476 2 138.396 43.1101 15.7988
477 2 142.448 43.4422 15.7319
478 2 146.327 43.326 15.9343
479 2 150.315 43.2475 0.167077
480 2 154.163 43.1243 16.0638
481 2 158.206 47.1313 16.1743
482 2 3.76382 47.0446 15.9694
483 2 7.61767 47.1023 16.1172
484 2 11.5275 46.7621 16.0232
485 2 15.4303 46.8822 0.0209293
486 2 19.3177 46.7793 16.2079
487 2 23.0928 46.6405 0.351199
488 2 27.4119 46.6607 0.067535
489 2 31.229 46.7674 0.28919
490 2 35.3115 46.8975 0.187672
491 2 39.4476 46.8416 0.39981
492 2 43.3214 46.8746 0.422658
493 2 47.2876 47.062 16.0216
494 2 51.3132 46.9431 15.7024
495 2 55.358 47.073 0.224615
496 2 59.4173 46.9524 15.9081
497 2 63.3832 47.2917 0.300865
498 2 67.4086 47.3982 0.0987144
499 2 71.5272 47.1651 0.0846725
500 2 75.3371 47.2158 15.775
501 2 79.242 47.286 15.7338
502 2 83.2925 47.4773 0.0640194
503 2 87.4994 47.4551 0.241125
504 2 91.3738 47.5975 15.7987
505 2 95.5997 47.4916 0.156382
506 2 99.5863 47.6462 -0.0266918
507 2 103.357 47.689 15.9367
508 2 107.447 47.6059 0.123198
509 2 111.233 47.8119 15.6134
510 2 114.87 47.4705 15.9018
511 2 118.994 47.6631 0.119493
512 2 122.944 47.5409 -0.00989953
513 2 126.903 47.5219 0.255702
514 2 130.61 47.328 0.0850653
515 2 134.787 47.331 15.8817
516 2 138.57 47.259 0.182421
517 2 142.337 47.3931 15.7846
518 2 146.525 47.3075 0.336615
519 2 150.221 47.2559 16.0403
520 2 154.359 47.2899 0.246042
521 2 158.093 51.0557 0.127566
522 2 3.67986 50.9731 0.25209
523 2 7.79434 50.8509 0.283299
524 2 11.5413 50.9888 16.0609
525 2 15.4212 50.8501 0.272477
526 2 19.4855 50.7286 0.345302
527 2 23.369 50.7064 0.168715
528 2 27.264 50.6755 15.8312
529 2 31.2228 50.7728 15.7134
530 2 35.2122 51.0435 0.156651
531 2 39.2312 50.7301 16.036
532 2 43.2202 50.6494 0.121624
533 2 47.2855 50.9564 0.221025
534 2 51.3159 50.9269 15.9614
535 2 55.1552 50.8085 15.9337
536 2 59.354 51.0134 15.9495
537 2 63.3502 50.9916 0.208432
538 2 67.382 51.2497 0.114809
539 2 71.4535 51.1582 15.9925
540 2 75.3315 51.0962 0.197112
541 2 79.3377 51.1758 15.7344
542 2 83.3997 51.2178 15.7936
543 2 87.4902 51.3153 15.9048
544 2 91.4134 51.4831 0.12542
545 2 95.4505 51.3325 0.0635775
546 2 99.4926 51.5772 15.8624
547 2 103.444 51.6318 0.00949429
548 2 107.02 51.7377 15.7677
549 2 111.4 51.6885 0.117569
550 2 115.248 51.6225 0.138424
551 2 119.12 51.7239 0.000344311
552 2 122.995 51.4669 0.105042
553 2 126.844 51.4252 16.0747
554 2 130.833 51.4176 0.149697
555 2 134.769 51.4916 15.8989
556 2 138.625 51.4153 0.0484504
557 2 142.571 51.2772 16.0679
558 2 146.498 51.1813 15.8846
559 2 150.36 51.1258 0.28621
560 2 154.298 51.28 0.1394
561 2 158.227 55.23 0.209143
562 2 3.80687 55.0333 0.343109
563 2 7.73834 55.1078 0.0740901
564 2 11.6776 55.0916 16.0186
565 2 15.6778 54.9108 15.8534
566 2 19.5722 54.6986 15.7914
567 2 23.3084 54.5675 15.9589
568 2 27.2847 54.571 15.9992
569 2 31.329 54.8374 0.189155
570 2 35.2392 54.799 15.8262
571 2 39.1938 54.7211 0.154977
572 2 43.3672 54.7697 16.1778
573 2 47.2529 54.855 16.066
574 2 51.1593 54.6956 15.8474
575 2 55.2712 54.8174 0.35428
576 2 59.357 54.9916 0.22964
577 2 63.254 54.977 15.9979
578 2 67.2626 54.9817 0.0345474
579 2 71.403 55.0542 15.8437
580 2 75.4162 55.1027 16.0094
581 2 79.3975 55.1449 16.0161
582 2 83.4599 55.2322 15.9978
583 2 87.3182 55.439 0.102599
584 2 91.3483 55.3704 -0.0568508
585 2 95.3691 55.3393 -0.0977341
586 2 99.3778 55.6184 15.8393
587 2 103.148 55.6032 -0.0576216
588 2 107.405 55.5232 0.0120237
589 2 111.416 55.7435 16.0311
590 2 115.47 55.5599 0.0448447
591 2 119.282 55.7799 -0.249677
592 2 123.153 55.5018 0.100497
593 2 127.097 55.5398 15.8345
594 2 130.991 55.4689 15.7769
595 2 134.73 55.6908 15.8923
596 2 138.864 55.3779 0.132216
597 2 142.687 55.2027 0.21005
598 2 146.528 55.2426 15.9219
599 2 150.418 55.042 15.9697
600 2 154.33 55.2288 0.122779
601 2 0.0583385 59.213 0.144468
602 2 4.13987 59.0586 0.228899
603 2 7.79741 59.0267 0.155683
604 2 11.8261 58.8182 16.1404
605 2 15.5316 58.8013 0.314397
606 2 19.5662 58.9092 16.127
607 2 23.4891 58.6886 16.0361
608 2 27.3449 58.562 0.2242
609 2 31.3044 58.8883 15.7929
610 2 35.3022 58.708 0.0382557
611 2 39.2876 58.6105 0.338698
612 2 43.1397 58.6022 16.1654
613 2 47.0804 58.6312 0.202677
614 2 51.0659 58.6686 16.0491
615 2 55.2745 58.6998 15.9557
616 2 59.2958 58.6466 15.8494
617 2 63.135 58.8013 0.142321
618 2 67.1973 58.7108 15.8227
619 2 71.1126 59.084 0.171333
620 2 75.304 58.9862 0.0389233
621 2 79.3067 59.186 15.833
622 2 83.336 59.1197 15.9113
623 2 87.277 59.4159 0.190016
624 2 91.2831 59.445 0.204516
625 2 95.1788 59.4106 0.098172
626 2 99.3504 59.4425 15.9178
627 2 103.309 59.5057 -0.0334187
628 2 107.309 59.3207 -0.00232702
629 2 111.568 59.573 0.187972
630 2 115.415 59.4272 0.048038
631 2 119.017 59.5469 0.0772865
632 2 123.371 59.7115 -0.0665132
633 2 127.29 59.6318 0.0173158
634 2 131.068 59.6272 15.7099
635 2 135.147 59.7474 0.147288
636 2 138.941 59.5629 0.177894
637 2 142.742 59.3968 15.8812
638 2 146.562 59.2531 0.145685
639 2 150.466 59.0231 0.0918116
640 2 154.452 59.1467 0.0972329
641 2 0.0535919 63.1954 15.9896
642 2 4.06073 62.962 15.876
643 2 7.94572 63.0271 0.158315
644 2 11.9163 63.0087 0.0729866
645 2 15.8326 62.9595 15.7706
646 2 19.666 62.7016 16.0895
647 2 23.4772 62.642 15.9608
648 2 27.4983 62.7456 0.116355
649 2 31.2946 62.6314 15.8105
650 2 35.2508 62.5918 15.8669
651 2 39.1809 62.6282 0.189064
652 2 43.3018 62.6595 0.162252
653 2 47.0709 62.556 15.918
654 2 51.2025 62.6851 0.293574
655 2 55.1375 62.8438 0.253601
656 2 59.1106 62.7752 0.366059
657 2 63.2518 62.6292 0.181053
658 2 67.1648 62.8408 0.137213
659 2 71.2785 62.9837 0.264513
660 2 75.2776 62.9281 15.8847
661 2 79.3593 62.9484 15.7924
662 2 83.5311 63.1937 15.8609
663 2 87.2352 63.3158 0.0809177
664 2 91.2102 63.2441 15.8651
665 2 95.2304 63.2745 0.0683845
666 2 99.3132 63.3667 0.108395
667 2 103.262 63.3101 0.0610533
668 2 107.275 63.288 0.106262
669 2 111.252 63.3508 0.129006
670 2 115.255 63.6233 0.225495
671 2 119.193 63.5897 15.8448
672 2 123.145 63.5144 15.9894
673 2 127.18 63.604 15.784
674 2 130.946 63.5402 0.0525328
675 2 134.995 63.5499 15.931
676 2 138.892 63.4371 0.0612415
677 2 142.825 63.3354 0.0597696
678 2 146.76 63.4933 0.313873
679 2 150.5 63.2113 15.7188
680 2 154.439 63.1036 15.7203
681 2 0.186725 67.194 0.109224
682 2 4.12833 66.9608 0.0387618
683 2 7.89035 67.0334 0.0124717
684 2 11.7076 67.0081 15.5893
685 2 15.9102 66.8726 15.8999
686 2 19.7939 66.6585 15.8019
687 2 23.493 66.6588 15.7767
688 2 27.3225 66.785 15.788
689 2 31.2779 66.4896 0.28371
690 2 35.2672 66.693 0.320275
691 2 39.0729 66.4734 -0.0291115
692 2 43.1358 66.5325 15.9674
693 2 46.9293 66.6012 0.182823
694 2 51.015 66.5331 15.8108
695 2 55.0636 66.5888 15.9968
696 2 59.2551 66.6345 16.0131
697 2 63.0689 66.5743 16.027
698 2 67.2424 66.6187 15.7962
699 2 71.156 66.8054 0.0624466
700 2 75.1292 66.8372 0.0181537
701 2 79.1224 66.7377 15.8222
702 2 83.1975 66.9257 16.0106
703 2 87.2903 67.14 15.8928
704 2 91.3176 67.1364 0.183395
705 2 95.2216 67.2692 15.9031
706 2 99.1612 67.4239 15.9555
707 2 103.109 67.1153 0.221781
708 2 107.274 67.2386 15.9976
709 2 111.074 67.2351 0.307772
710 2 115.209 67.5514 0.16635
711 2 119.121 67.6234 0.25731
712 2 123.102 67.3961 16.0214
713 2 127.041 67.6161 15.9471
714 2 131.085 67.724 15.8194
715 2 135.009 67.4331 15.7882
716 2 139.019 67.4061 15.7
717 2 142.746 67.4268 15.9572
718 2 146.674 67.2815 0.106476
719 2 150.745 67.2021 15.8703
720 2 154.653 67.2266 15.8054
721 2 0.174938 71.086 15.8141
722 2 4.0227 71.0939 15.9622
723 2 8.00479 70.9749 0.0480898
724 2 11.9515 70.9299 15.7226
725 2 15.8259 70.8627 15.6293
726 2 19.9734 70.9417 0.11594
727 2 23.8488 70.8647 15.9997
728 2 27.6056 70.916 15.8241
729 2 31.4211 70.6443 15.948
730 2 35.1253 70.6145 15.953
731 2 39.0755 70.5539 15.7649
732 2 43.0808 70.4935 0.338974
733 2 47.1211 70.36 15.8352
734 2 51.0005 70.3474 15.897
735 2 55.0995 70.5031 15.9291
736 2 59.2338 70.6453 0.320845
737 2 63.1561 70.4484 15.8961
738 2 67.0778 70.6479 0.191436
739 2 71.0926 71.006 15.9279
740 2 75.2725 70.5859 15.9547
741 2 79.1769 70.6716 15.8705
742 2 83.1001 70.8126 -0.0727762
743 2 87.0641 71.0744 15.7894
744 2 91.3851 71.0632 0.156147
745 2 95.2294 70.9649 0.17082
746 2 99.2841 71.1586 16.0299
747 2 103.163 71.0563 0.0732736
748 2 107.197 71.5176 0.0927294
749 2 111.304 71.3418 15.8805
750 2 115.2 71.4279 0.137502
751 2 119.359 71.3691 15.9799
752 2 123.141 71.4298 0.0361106
753 2 127.193 71.4783 16.0991
754 2 131.031 71.5727 16.0508
755 2 134.749 71.464 15.8366
756 2 138.837 71.5317 15.8481
757 2 142.816 71.3813 15.9797
758 2 146.908 71.436 15.8074
759 2 150.857 71.2606 15.9121
760 2 154.735 71.3502 15.7517
761 2 0.244339 75.0346 15.8964
762 2 4.31362 74.9613 15.9428
763 2 8.10668 74.9813 15.6899
764 2 11.9049 74.9767 15.8794
765 2 15.8674 74.7977 15.9315
766 2 20.0294 74.9331 15.8351
767 2 23.7947 74.9468 15.7599
768 2 27.5448 74.8728 15.7654
769 2 31.3008 74.6741 0.0509429
770 2 35.272 74.5771 15.8539
771 2 39.3376 74.5295 16.1002
772 2 43.208 74.5693 0.154295
773 2 47.2303 74.4715 15.9412
774 2 51.1473 74.3988 0.210482
775 2 55.0947 74.2155 15.8734
776 2 58.9556 74.3484 15.8369
777 2 63.0574 74.4045 15.9807
778 2 67.1107 74.4982 16.0194
779 2 71.1194 74.619 15.9387
780 2 75.0186 74.716 0.180795
781 2 79.1052 74.5877 15.8586
782 2 83.0654 74.8717 15.9292
783 2 87.0116 74.8726 15.9165
784 2 91.0828 75.0777 0.115589
785 2 94.9993 74.8915 16.0207
786 2 99.1513 74.8643 0.0762051
787 2 103.17 75.0846 16.0306
788 2 107.246 75.0669 0.264178
789 2 111.072 75.1458 15.7543
790 2 115.096 75.0398 0.214323
791 2 118.993 75.1138 15.8534
792 2 123.268 75.3482 15.9687
793 2 127.079 75.3302 0.238988
794 2 131.068 75.2945 0.276292
795 2 135.045 75.555 15.7905
796 2 138.884 75.4631 15.5569
797 2 143.032 75.427 0.0382246
798 2 146.891 75.3498 15.8819
799 2 150.748 75.2844 15.9447
800 2 154.846 75.3199 0.0368664
801 2 0.388517 79.2507 15.7442
802 2 4.28233 79.156 15.718
803 2 8.02197 79.0348 15.7795
804 2 11.9312 78.9686 15.6813
805 2 15.8955 79.0029 15.8753
806 2 19.9105 79.1283 15.8793
807 2 23.6826 78.9869 15.7917
808 2 27.7483 78.7222 16.0616
809 2 31.6712 78.5989 0.0496956
810 2 35.4557 78.6571 15.7801
811 2 39.4038 78.5469 0.132172
812 2 43.1813 78.4143 0.163383
813 2 47.4478 78.5161 0.154941
814 2 51.4455 78.4684 16.0633
815 2 55.0946 78.3829 16.0608
816 2 59.229 78.2455 15.7838
817 2 63.239 78.3465 15.9433
818 2 67.0613 78.2387 15.9569
819 2 70.9494 78.5807 16.0236
820 2 74.9829 78.4263 16.1038
821 2 79.0961 78.7183 -0.00454999
822 2 83.1545 78.5802 0.00246784
823 2 87.2259 78.7194 0.0647947
824 2 91.039 78.8316 0.0937055
825 2 95.0413 78.9303 0.177382
826 2 99.0535 78.8088 16.0734
827 2 103.153 78.9823 0.184607
828 2 107.157 79.1192 15.9029
829 2 110.995 79.0294 -0.122173
830 2 115.054 79.2598 15.8659
831 2 119.139 79.0885 0.0845447
832 2 123.13 79.2099 0.117041
833 2 127.102 79.118 16.1202
834 2 130.984 79.3224 0.0107143
835 2 135.075 79.5664 15.9199
836 2 138.922 79.3109 15.7897
837 2 142.936 79.3359 15.7129
838 2 146.865 79.407 15.8687
839 2 150.959 79.5054 15.8287
840 2 154.756 79.0961 15.7169
841 2 0.413658 83.4941 15.7592
842 2 4.31291 83.1448 15.8852
843 2 8.29521 82.9418 15.9434
844 2 12.182 83.0432 15.9803
845 2 16.0334 83.058 15.9264
846 2 20.1426 82.8089 15.7761
847 2 23.826 82.7257 16.0406
848 2 27.7971 82.9233 15.9422
849 2 31.845 82.5684 15.9705
850 2 35.8612 82.5648 15.9575
851 2 39.4452 82.4268 0.108075
852 2 43.4249 82.5469 15.9635
853 2 47.2303 82.3179 15.9705
854 2 51.4123 82.3305 16.0338
855 2 55.1881 82.4485 16.0957
856 2 59.1528 82.5085 15.8167
857 2 62.8278 82.4823 15.9801
858 2 66.7975 82.394 0.11815
859 2 70.8469 82.3644 0.133159
860 2 74.7644 82.3677 16.0177
861 2 78.9044 82.3188 0.229064
862 2 83.0229 82.7015 16.1509
863 2 86.8709 82.7834 15.9614
864 2 90.9921 82.6683 0.201334
865 2 95.0756 82.8576 16.0272
866 2 98.9787 82.7589 15.9423
867 2 102.949 83.0587 0.320207
868 2 106.979 83.0733 0.074954
869 2 111.081 82.9165 16.0584
870 2 114.858 82.9449 15.9058
871 2 119.013 83.1677 0.163897
872 2 123.03 83.1322 16.006
873 2 127.059 83.1298 0.210102
874 2 131.144 83.247 16.0265
875 2 135.025 83.3824 0.226339
876 2 139.142 83.3196 16.1499
877 2 143.028 83.5818 0.180391
878 2 146.887 83.2141 0.122869
879 2 150.921 83.3764 15.8565
880 2 154.781 83.3822 16.0826
881 2 0.506769 87.4761 15.6476
882 2 4.45066 87.045 0.0797255
883 2 8.33933 87.0829 16.0282
884 2 12.3415 87.1056 15.9406
885 2 16.1867 86.8259 0.198449
886 2 20.2038 86.7215 15.8392
887 2 24.0196 86.8164 16.1087
888 2 27.6266 86.5792 15.8741
889 2 31.9307 86.5859 16.0255
890 2 35.8792 86.4357 15.8472
891 2 39.6895 86.5634 16.1312
892 2 43.6292 86.6561 16.0545
893 2 47.5301 86.396 -0.109387
894 2 51.4986 86.3426 0.295508
895 2 55.4157 86.2735 0.173919
896 2 59.1576 86.3559 16.1341
897 2 63.0604 86.2838 15.9145
898 2 67.0172 86.2532 0.130569
899 2 70.9282 86.1454 0.145941
900 2 74.8812 86.3228 15.9765
901 2 78.6999 86.391 0.0523965
902 2 82.8692 86.4549 0.339287
903 2 86.9974 86.5697 15.9663
904 2 91.0909 86.6442 0.0471783
905 2 95.1187 86.6068 15.9395
906 2 98.9539 86.6426 16.0549
907 2 102.768 86.9473 0.212568
908 2 106.971 86.8601 0.187997
909 2 110.983 86.7491 16.057
910 2 115.023 86.9931 0.157806
911 2 118.999 86.9392 -0.0960054
912 2 122.942 87.0577 0.1878
913 2 126.891 87.2113 15.8991
914 2 130.847 87.1825 0.119865
915 2 134.794 87.1834 15.7566
916 2 138.942 87.1194 0.250035
917 2 142.922 87.3819 0.0154422
918 2 146.95 87.1792 0.082037
919 2 150.917 87.2626 15.841
920 2 154.677 87.1529 15.8385
921 2 0.529114 91.2029 15.7616
922 2 4.56126 90.9801 0.064322
923 2 8.39423 91.3457 0.0505282
924 2 12.2586 90.874 0.0863021
925 2 16.2674 90.8475 15.761
926 2 20.2127 90.9654 16.0433
927 2 23.9936 90.765 16.0154
928 2 27.9497 90.5945 15.8285
929 2 31.8572 90.8541 15.9986
930 2 35.7718 90.6176 15.7864
931 2 39.7686 90.6164 16.016
932 2 43.7832 90.61 0.078796
933 2 47.4987 90.3622 15.9656
934 2 51.3017 90.3183 16.0903
935 2 55.2615 90.1503 15.9342
936 2 59.1421 90.5251 15.8904
937 2 63.0635 90.3486 0.303629
938 2 66.9176 90.3233 15.7515
939 2 70.8316 90.1137 16.0111
940 2 74.5379 90.241 16.1097
941 2 78.6865 90.2199 0.23161
942 2 82.7651 90.2052 0.151773
943 2 86.6739 90.4692 16.0362
944 2 90.9342 90.5872 0.0839194
945 2 94.7052 90.7307 0.102158
946 2 98.8429 90.669 0.243386
947 2 102.81 90.9255 0.111811
948 2 106.844 90.7345 0.235082
949 2 110.934 90.8941 16.051
950 2 114.884 90.8121 0.0701104
951 2 118.864 91.0336 -0.0839809
952 2 122.797 91.0018 0.103018
953 2 127.04 91.1096 0.00240383
954 2 130.916 91.0081 15.7125
955 2 134.897 91.0479 0.0602804
956 2 138.749 91.3415 0.0937669
957 2 142.897 91.0331 -0.0689204
958 2 146.924 91.3119 0.064921
959 2 150.877 91.1377 15.7698
960 2 154.993 91.426 0.211522
961 2 0.600629 95.283 15.8235
962 2 4.46243 94.9449 15.861
963 2 8.40206 95.0926 -0.000598853
964 2 12.448 94.8864 15.963
965 2 16.3892 94.8897 15.9436
966 2 20.2201 94.8309 15.8498
967 2 24.0981 94.7384 15.8436
968 2 28.02 94.8123 15.8995
969 2 32.0236 94.7518 15.8344
970 2 35.8275 94.7765 -0.0626456
971 2 39.7162 94.7077 15.7867
972 2 43.8919 94.4998 15.9171
973 2 47.5237 94.3323 15.8386
974 2 51.403 94.318 0.0855503
975 2 55.1922 94.3001 16.0342
976 2 59.226 94.5752 15.6749
977 2 63.249 94.3044 15.7069
978 2 67.0375 94.1433 0.334014
979 2 70.92 94.1666 0.180063
980 2 74.7244 94.1521 15.9808
981 2 78.8594 94.2439 15.8743