ITEM: TIMESTEP
15900
ITEM: NUMBER OF ATOMS
32000
ITEM: BOX BOUNDS xy xz yz pp pp pp
0.0000000000000000e+00 1.5831999999999999e+02 0.0000000000000000e+00
0.0000000000000000e+00 1.5831999999999999e+02 0.0000000000000000e+00
1.6399414248604405e-01 1.5933717857513724e+01 0.0000000000000000e+00
ITEM: ATOMS id type x y z
1 2 158.203 157.615 16.0372
2 2 3.95483 157.942 0.221083
3 2 7.86103 157.762 0.189975
4 2 11.831 157.865 15.9687
5 2 15.915 157.986 0.297172
6 2 19.9707 158.13 0.331058
7 2 23.8253 158.205 15.9026
8 2 27.8069 158.38 0.290383
9 2 31.7412 158.271 16.0241
10 2 35.9272 158.256 0.286113
11 2 39.8943 158.379 0.147095
12 2 43.924 158.302 15.9334
13 2 47.6392 0.0768928 15.9975
14 2 51.8538 0.13056 16.1745
15 2 56.0645 158.556 15.8882
16 2 59.833 0.452031 15.9546
17 2 63.752 0.0175759 0.243079
18 2 67.6364 0.0170113 0.220706
19 2 71.4055 158.403 16.0711
20 2 75.5584 158.311 15.773
21 2 79.4564 158.285 15.7731
22 2 83.3045 158.327 0.0732482
23 2 87.2539 158.188 0.0814219
24 2 91.2223 158.292 0.308113
25 2 95.0938 158.182 0.236939
26 2 98.9609 158.062 0.0504583
27 2 102.876 157.978 0.30111
28 2 106.633 157.947 16.103
29 2 110.527 157.868 0.233419
30 2 114.594 157.87 0.039943
31 2 118.516 157.813 0.112707
32 2 122.506 157.641 15.9067
33 2 126.277 157.847 15.7728
34 2 130.273 157.585 15.9078
35 2 134.136 157.452 15.9805
36 2 138.12 157.537 16.071
37 2 142.039 157.503 15.7143
38 2 146.029 157.631 16.0955
39 2 150.169 157.566 15.9906
40 2 154.07 157.699 15.8235
41 2 157.984 3.25435 0.167546
42 2 3.85441 3.7031 16.1021
43 2 7.89062 3.43562 0.253852
44 2 11.7732 3.62817 0.197943
45 2 15.8046 3.74538 0.177781
46 2 19.6795 3.89037 15.893
47 2 23.8686 3.74634 0.126094
48 2 27.7787 3.83346 0.301535
49 2 31.829 3.79632 0.184495
50 2 35.5585 3.73157 0.331004
51 2 39.8109 3.90344 0.229479
52 2 43.8113 3.89422 0.422954
53 2 47.886 4.0564 15.9038
54 2 51.8658 4.08837 0.0797737
55 2 55.8541 4.01575 0.264926
56 2 59.8472 4.19335 0.216534
57 2 63.8003 4.13565 15.9682
58 2 67.6701 4.21312 0.110649
59 2 71.5827 3.98976 0.0807934
60 2 75.5132 3.99234 0.014179
61 2 79.5073 3.9239 0.141304
62 2 83.3506 3.97587 0.114833
63 2 87.3442 3.72936 0.155335
64 2 91.2457 3.74209 0.130964
65 2 95.1708 3.70483 15.9112
66 2 99.0007 3.72691 0.214649
67 2 102.823 3.65467 0.176627
68 2 106.911 3.63275 15.8708
69 2 110.789 3.52108 16.0211
70 2 114.813 3.46985 15.8297
71 2 118.704 3.53441 16.0369
72 2 122.477 3.40128 0.301563
73 2 126.412 3.29021 15.8204
74 2 130.491 3.51103 0.291935
75 2 134.235 3.17901 15.9886
76 2 138.22 3.25955 -0.0722854
77 2 142.272 3.21324 15.8758
78 2 146.117 3.14842 0.0665137
79 2 150.035 3.19177 15.7408
80 2 153.925 3.28605 15.9295
81 2 157.998 7.29586 0.283565
82 2 3.76018 7.33648 16.071
83 2 7.79485 7.47293 16.1279
84 2 11.6056 7.5707 16.0486
85 2 15.5689 7.57551 0.168034
86 2 19.7259 7.66754 16.0318
87 2 23.8002 7.65166 0.363395
88 2 27.7402 7.82823 0.173642
89 2 31.5597 7.68408 16.0863
90 2 35.7479 7.85531 16.0162
91 2 39.7488 7.81875 16.131
92 2 43.8241 7.92678 15.8362
93 2 47.7515 7.81087 -0.0091311
94 2 51.639 7.99776 16.1348
95 2 55.7861 8.10772 0.106779
96 2 59.9042 8.10223 0.0175454
97 2 63.7357 8.29535 0.109264
98 2 67.9157 8.2049 0.0933074
99 2 71.4867 8.12962 0.107263
100 2 75.5703 7.83952 0.194443
101 2 79.4536 7.94102 15.8497
102 2 83.3584 7.96366 0.119996
103 2 87.3574 7.78712 15.7301
104 2 91.1493 7.81397 0.201688
105 2 95.1806 7.66526 0.246183
106 2 99.0247 7.73829 0.214332
107 2 103.102 7.79228 0.311303
108 2 106.702 7.45532 0.244149
109 2 110.738 7.60935 0.177328
110 2 114.714 7.38041 0.28126
111 2 118.582 7.35692 0.0961193
112 2 122.582 7.57338 0.271217
113 2 126.356 7.49942 15.9917
114 2 130.328 7.21142 0.23946
115 2 134.254 7.29147 0.156263
116 2 138.222 7.28323 16.261
117 2 142.024 7.17062 16.0587
118 2 146.094 7.4288 0.0984859
119 2 149.86 7.06733 16.0539
120 2 153.742 7.21201 15.8907
121 2 157.95 11.3537 0.153194
122 2 3.65062 11.3672 0.301602
123 2 7.51709 11.2452 16.119
124 2 11.5801 11.2887 16.0265
125 2 15.3143 11.4656 16.1369
126 2 19.5401 11.646 0.1068
127 2 23.6334 11.4767 0.262185
128 2 27.6028 11.8304 0.132745
129 2 31.6815 11.5806 0.335865
130 2 35.634 11.6004 0.269285
131 2 39.5418 11.8863 0.280162
132 2 43.7074 11.6662 16.0018
133 2 47.5099 11.828 16.0346
134 2 51.7585 11.9708 15.9519
135 2 55.9284 11.9516 0.192762
136 2 59.867 11.9338 15.8883
137 2 63.6627 12.2262 0.0988964
138 2 67.762 12.2084 16.102
139 2 71.7319 12.1855 0.195553
140 2 75.6977 12.146 0.127007
141 2 79.5509 11.9266 -0.0137132
142 2 83.5258 11.9467 0.249151
143 2 87.3468 11.6981 0.303415
144 2 91.4333 11.7422 0.170017
145 2 95.2289 11.7223 0.202897
146 2 99.3335 11.8221 -0.0579879
147 2 103.141 11.5929 0.250646
148 2 106.85 11.6527 0.15966
149 2 110.863 11.4814 0.348604
150 2 114.793 11.4001 0.183401
151 2 118.808 11.5944 0.485871
152 2 122.541 11.5893 0.212726
153 2 126.502 11.3425 0.377762
154 2 130.241 11.2776 15.9881
155 2 134.423 11.3535 0.338417
156 2 138.044 11.1797 -0.0700988
157 2 142.028 11.0774 15.9334
158 2 145.863 11.1657 15.9343
159 2 149.88 11.1128 15.8964
160 2 153.967 11.0697 15.9594
161 2 157.804 15.1722 0.448325
162 2 3.575 15.1419 0.214044
163 2 7.64451 15.1801 0.576724
164 2 11.4632 15.3418 16.0102
165 2 15.5684 15.4801 16.243
166 2 19.3709 15.394 0.367458
167 2 23.3851 15.6542 0.18666
168 2 27.6557 15.5129 16.0164
169 2 31.5584 15.5136 15.9487
170 2 35.659 15.7651 0.293639
171 2 39.5602 15.731 16.0652
172 2 43.5301 15.7308 0.100891
173 2 47.7644 15.9751 0.17394
174 2 51.7562 15.9133 0.418414
175 2 55.6317 15.9062 15.974
176 2 59.675 15.9278 0.140967
177 2 63.6124 16.1386 0.023092
178 2 67.7254 16.0928 0.114402
179 2 71.7158 15.9994 0.0923151
180 2 75.8163 16.0479 15.9315
181 2 79.53 15.925 0.203597
182 2 83.5298 15.8441 0.0923254
183 2 87.4273 15.6594 0.114272
184 2 91.3561 15.6776 0.30551
185 2 95.3007 15.6805 0.046597
186 2 99.2208 15.6262 0.22538
187 2 103.156 15.6421 0.0123702
188 2 107.027 15.6278 0.329198
189 2 110.881 15.5846 0.167713
190 2 114.876 15.5388 0.219354
191 2 118.786 15.445 0.110006
192 2 122.78 15.3697 15.9186
193 2 126.557 15.4359 0.337804
194 2 130.316 15.426 0.25931
195 2 134.196 15.3522 0.173175
196 2 138.081 15.3556 0.215198
197 2 142.1 15.167 0.220137
198 2 145.928 15.1027 0.370363
199 2 149.971 15.0718 16.0785
200 2 153.96 15.207 0.311191
201 2 157.88 19.172 15.9483
202 2 3.27473 19.1079 0.558887
203 2 7.50053 19.1435 16.1602
204 2 11.4974 19.2595 16.3508
205 2 15.4112 19.3087 15.979
206 2 19.3741 19.3566 0.377092
207 2 23.4654 19.4071 0.13733
208 2 27.3743 19.3581 0.197322
209 2 31.4852 19.5296 15.9895
210 2 35.4299 19.6414 15.9849
211 2 39.6833 19.5977 0.259027
212 2 43.5267 19.6178 16.0028
213 2 47.7476 19.6323 15.8623
214 2 51.6802 19.6447 16.0215
215 2 55.6873 19.7718 16.079
216 2 59.6195 19.8516 15.8858
217 2 63.6928 19.893 15.868
218 2 67.6868 19.9617 16.0722
219 2 71.7803 20.0109 0.519958
220 2 75.8953 19.9739 0.136054
221 2 79.7224 20.086 0.232912
222 2 83.4854 19.8253 0.188871
223 2 87.5233 19.8163 16.1234
224 2 91.4694 19.782 0.259577
225 2 95.3659 19.5943 0.183902
226 2 99.1084 19.6177 15.9427
227 2 103.03 19.5355 16.0076
228 2 106.984 19.6076 15.9005
229 2 111.061 19.5262 0.266897
230 2 114.976 19.3941 0.0881856
231 2 118.719 19.3803 15.9094
232 2 122.617 19.5895 0.342498
233 2 126.642 19.343 0.179855
234 2 130.44 19.2792 0.163026
235 2 134.35 19.3389 16.2578
236 2 138.202 19.2225 16.0127
237 2 142.267 19.0947 0.0968058
238 2 146.177 19.0521 0.195575
239 2 149.771 19.161 0.085336
240 2 154.032 19.111 16.042
241 2 157.719 22.9772 15.8694
242 2 3.50775 23.1647 16.1325
243 2 7.42804 23.0877 0.470015
244 2 11.5919 22.9328 16.2142
245 2 15.3596 23.3853 16.0988
246 2 19.4249 23.4524 0.114375
247 2 23.4226 23.2251 16.0164
248 2 27.5302 23.2046 15.9268
249 2 31.3711 23.3837 0.373608
250 2 35.5062 23.443 15.9317
251 2 39.4321 23.5626 0.171877
252 2 43.6885 23.4085 16.0239
253 2 47.6609 23.5705 16.0421
254 2 51.4808 23.5079 0.214587
255 2 55.6368 23.703 15.7824
256 2 59.6011 23.6089 15.9155
257 2 63.6665 23.8273 15.9073
258 2 67.6611 23.8952 0.202367
259 2 71.7705 23.8549 0.137012
260 2 75.6406 23.8951 0.0161808
261 2 79.5327 23.9077 15.9044
262 2 83.6879 23.8184 16.0729
263 2 87.7162 23.7245 0.284707
264 2 91.4287 23.7431 16.0972
265 2 95.1811 23.642 15.894
266 2 99.3522 23.8145 0.143611
267 2 103.167 23.7529 0.081247
268 2 106.912 23.4447 0.355197
269 2 110.985 23.6497 0.19747
270 2 114.878 23.4917 16.0143
271 2 118.977 23.4872 15.9752
272 2 122.836 23.3897 0.0843424
273 2 126.611 23.5029 0.137703
274 2 130.541 23.4109 16.0092
275 2 134.43 23.2278 0.255891
276 2 138.27 23.1578 15.9506
277 2 142.099 23.3172 0.0630333
278 2 146.106 23.1391 0.254054
279 2 150.042 23.0697 0.41918
280 2 154.019 23.0764 0.211038
281 2 158.024 27.0262 0.31466
282 2 3.52691 26.9735 16.0437
283 2 7.44027 26.8346 0.362012
284 2 11.4433 27.0052 16.1267
285 2 15.4157 27.1023 16.1604
286 2 19.4072 27.3657 -0.034898
287 2 23.4047 27.1389 0.126351
288 2 27.4488 27.2104 0.103407
289 2 31.1802 27.1193 16.0055
290 2 35.5148 27.3705 0.237715
291 2 39.3949 27.3421 0.222458
292 2 43.5662 27.235 16.0732
293 2 47.5651 27.3034 0.335643
294 2 51.8396 27.5578 0.234488
295 2 55.542 27.6102 0.109676
296 2 59.6493 27.5115 0.240334
297 2 63.4316 27.7157 0.019297
298 2 67.6051 27.6942 0.211057
299 2 71.4854 27.7589 0.21513
300 2 75.5124 27.743 15.8971
301 2 79.6193 27.7583 0.160554
302 2 83.7863 27.8982 15.9231
303 2 87.8356 27.7842 0.106085
304 2 91.6591 27.8804 15.8579
305 2 95.4649 27.7334 15.8895
306 2 99.3688 27.6506 0.20656
307 2 103.202 27.6822 0.0772365
308 2 107.125 27.4528 15.922
309 2 111.202 27.459 0.141908
310 2 114.872 27.6009 16.0841
311 2 118.864 27.5201 16.0216
312 2 122.837 27.2289 0.35127
313 2 126.702 27.4883 0.251748
314 2 130.485 27.1661 0.0946949
315 2 134.36 27.2119 15.8714
316 2 138.43 27.2521 0.315715
317 2 142.456 27.2752 0.119781
318 2 146.254 27.205 0.157952
319 2 150.25 27.2274 0.345786
320 2 153.958 27.2571 16.0256
321 2 157.909 31.1567 16.0688
322 2 3.47397 30.8396 0.328125
323 2 7.27931 31.0593 0.364749
324 2 11.4227 30.8636 15.9894
325 2 15.2928 31.0684 0.196696
326 2 19.3243 31.002 15.9364
327 2 23.3626 30.9729 16.0793
328 2 27.3906 31.1714 0.168974
329 2 31.3046 31.0212 0.215772
330 2 35.3217 31.2149 15.9609
331 2 39.3362 31.2895 15.882
332 2 43.4494 31.1143 0.198993
333 2 47.2446 31.1988 15.7125
334 2 51.5266 31.3083 15.8718
335 2 55.386 31.3939 0.151081
336 2 59.637 31.5346 0.113862
337 2 63.431 31.5187 15.6995
338 2 67.5012 31.5314 0.260412
339 2 71.7942 31.5019 15.9608
340 2 75.6712 31.6886 0.0361272
341 2 79.5846 31.7058 0.112455
342 2 83.7909 31.7238 15.8544
343 2 87.6926 31.813 0.348068
344 2 91.7778 31.8824 0.294802
345 2 95.4695 31.7979 0.408893
346 2 99.3221 31.7046 0.313737
347 2 103.064 31.8051 16.1162
348 2 106.944 31.5659 0.259769
349 2 111.021 31.4936 16.0299
350 2 115.018 31.5854 0.228131
351 2 118.978 31.4868 16.0586
352 2 122.757 31.3997 0.28491
353 2 126.699 31.3265 0.273776
354 2 130.649 31.2913 0.213677
355 2 134.469 31.4434 0.352582
356 2 138.333 31.2645 16.0017
357 2 142.398 31.2592 16.1007
358 2 146.137 31.3486 16.0992
359 2 150.107 31.2116 15.9588
360 2 153.912 31.1307 16.1024
361 2 157.856 35.0515 16.1066
362 2 3.67828 35.1116 0.304475
363 2 7.59248 34.7891 0.435911
364 2 11.5184 34.9929 16.1179
365 2 15.4229 34.9142 0.450291
366 2 19.2364 34.8781 15.9061
367 2 23.3845 34.9812 15.9233
368 2 27.4872 35.0417 0.299862
369 2 31.3871 34.944 0.142559
370 2 35.2472 35.0493 16.1082
371 2 39.498 35.2768 0.361948
372 2 43.462 35.0564 16.1027
373 2 47.4056 35.0832 16.1635
374 2 51.3712 35.4581 0.285959
375 2 55.4569 35.3758 16.1915
376 2 59.3849 35.6815 0.219722
377 2 63.4843 35.4555 0.100673
378 2 67.5575 35.4965 -0.0324625
379 2 71.5007 35.4505 0.217509
380 2 75.6727 35.5575 15.8603
381 2 79.4685 35.7481 15.9636
382 2 83.5564 35.4014 -0.0147663
383 2 87.5418 35.7169 0.193217
384 2 91.5924 35.7131 15.848
385 2 95.4467 35.8928 15.9755
386 2 99.4308 35.7356 0.426088
387 2 103.364 35.8111 15.7856
388 2 107.264 35.5623 0.237396
389 2 111.122 35.5986 15.9138
390 2 114.996 35.4022 0.150549
391 2 118.859 35.503 16.0247
392 2 122.653 35.4429 15.913
393 2 126.621 35.4676 0.165843
394 2 130.618 35.4531 0.155803
395 2 134.531 35.2687 16.0011
396 2 138.465 35.2202 16.1029
397 2 142.239 35.1836 15.9945
398 2 146.277 35.3254 16.1241
399 2 150.114 35.2536 0.252186
400 2 154.062 35.2774 0.397657
401 2 157.928 39.1653 0.152498
402 2 3.54348 38.9705 16.1216
403 2 7.55434 39.208 15.6964
404 2 11.4219 39.0971 0.29272
405 2 15.1784 38.9948 0.215541
406 2 19.2759 38.8017 15.8541
407 2 23.386 38.8275 16.071
408 2 27.4018 39.1984 0.195972
409 2 31.5267 38.96 16.0315
410 2 35.4016 39.1441 0.278796
411 2 39.3735 39.1425 0.268335
412 2 43.2431 39.1336 0.376473
413 2 47.473 39.1308 0.321312
414 2 51.5544 39.2858 0.183911
415 2 55.5961 39.3791 0.0344123
416 2 59.5917 39.4729 0.140377
417 2 63.3689 39.4916 16.0059
418 2 67.5328 39.4997 0.0837212
419 2 71.506 39.5237 0.159254
420 2 75.4603 39.5479 0.329853
421 2 79.4086 39.4524 15.942
422 2 83.5057 39.234 16.0997
423 2 87.4418 39.4529 15.8758
424 2 91.4701 39.6075 15.7399
425 2 95.5456 39.7356 15.834
426 2 99.4499 39.8549 0.333321
427 2 103.456 39.6434 0.333031
428 2 107.394 39.7375 16.0895
429 2 111.207 39.4162 16.0654
430 2 115.187 39.6914 15.9305
431 2 118.929 39.6082 15.8474
432 2 122.638 39.5029 0.209812
433 2 126.504 39.5622 15.928
434 2 130.546 39.4446 0.237967
435 2 134.49 39.4114 0.139659
436 2 138.412 39.257 16.0694
437 2 142.22 39.2118 15.816
438 2 146.242 39.0939 0.255519
439 2 150.169 39.1962 16.0014
440 2 154.143 39.157 0.417889
441 2 157.877 43.0568 0.255331
442 2 3.57528 43.1931 0.339462
443 2 7.70017 43.1587 0.270082
444 2 11.3592 43.0234 0.302157
445 2 15.5617 42.8419 0.332937
446 2 19.4476 42.7674 16.2511
447 2 23.2524 42.8457 0.32539
448 2 27.1057 42.877 0.395623
449 2 31.3563 42.8849 0.137543
450 2 35.0968 42.9821 0.300618
451 2 39.0945 43.0156 0.457076
452 2 43.2455 43.0149 0.180318
453 2 47.37 43.0444 0.304351
454 2 51.2865 43.2658 -0.0288554
455 2 55.4146 43.0201 0.439155
456 2 59.3548 43.1685 0.107368
457 2 63.419 43.4516 0.0808088
458 2 67.4308 43.4073 16.0494
459 2 71.3516 43.3879 15.9593
460 2 75.6035 43.413 0.200568
461 2 79.4947 43.3831 0.060646
462 2 83.4153 43.4497 15.8655
463 2 87.2272 43.4898 15.8673
464 2 91.518 43.3232 15.8431
465 2 95.5106 43.6653 0.0413463
466 2 99.5456 43.6977 0.316891
467 2 103.331 43.7166 0.165051
468 2 107.41 43.6516 0.0837529
469 2 111.215 43.6047 16.0744
470 2 114.992 43.7362 15.8106
471 2 118.968 43.5141 0.0826261
472 2 122.986 43.4408 -0.00640564
473 2 126.724 43.4949 0.0917603
474 2 130.485 43.4964 0.203328
475 2 134.614 43.3519 15.7808
476 2 138.492 43.4846 15.9372
477 2 142.271 43.3053 15.9564
478 2 146.349 43.1165 15.9123
479 2 150.166 43.2679 0.460934
480 2 154.033 43.3405 16.1518
481 2 158.098 47.3462 16.0467
482 2 3.80792 47.1495 16.2977
483 2 7.82693 47.0205 15.9244
484 2 11.4759 46.8923 16.1221
485 2 15.509 46.9489 0.21607
486 2 19.4726 46.7415 15.9965
487 2 23.5327 46.7659 0.226055
488 2 27.29 46.791 0.239964
489 2 31.388 46.838 0.244162
490 2 35.1899 46.7053 0.396191
491 2 39.2283 46.9003 0.221387
492 2 43.2762 46.9112 0.168693
493 2 47.3273 47.0586 15.9719
494 2 51.3663 47.1542 15.9531
495 2 55.4341 47.0274 0.107166
496 2 59.3989 47.3357 15.9815
497 2 63.335 47.1776 -0.0885528
498 2 67.2775 47.3151 0.205493
499 2 71.1967 47.3144 0.179818
500 2 75.4795 47.2472 15.9437
501 2 79.4979 47.2052 15.7929
502 2 83.4485 47.419 0.0547222
503 2 87.4587 47.287 0.0800847
504 2 91.3806 47.6274 15.6987
505 2 95.343 47.5922 0.0467837
506 2 99.3058 47.818 0.286713
507 2 103.284 47.4061 15.7346
508 2 107.384 47.6625 0.163816
509 2 111.232 47.5173 15.8385
510 2 115.242 47.7722 15.9414
511 2 119.078 47.4889 0.18051
512 2 123.046 47.5053 0.296763
513 2 126.82 47.453 0.173996
514 2 130.949 47.5716 0.110575
515 2 134.615 47.5413 15.752
516 2 138.506 47.3152 0.0778884
517 2 142.471 47.2003 16.0362
518 2 146.204 47.2289 0.123923
519 2 150.22 47.2759 16.0569
520 2 154.195 47.1355 0.402912
521 2 158.253 51.1557 0.217989
522 2 3.86163 51.0487 0.177259
523 2 7.50564 51.1307 0.175543
524 2 11.599 50.7037 15.946
525 2 15.5704 50.902 0.126729
526 2 19.4021 50.6861 0.130136
527 2 23.4582 50.7513 0.250454
528 2 27.3502 50.6815 16.0724
529 2 31.4007 50.7326 16.0605
530 2 35.2898 50.5158 0.238787
531 2 39.2828 50.6959 15.9173
532 2 43.2587 50.967 0.190781
533 2 47.3284 50.8921 0.097014
534 2 51.3785 50.769 15.9568
535 2 55.3972 51.0908 16.0979
536 2 59.2977 51.0815 16.1231
537 2 63.3403 51.2328 0.229943
538 2 67.3007 51.1812 0.146032
539 2 71.2654 51.1847 15.9323
540 2 75.4618 51.2589 0.230412
541 2 79.2621 51.291 15.7761
542 2 83.376 51.2811 15.8864
543 2 87.3444 51.3973 15.8379
544 2 91.3044 51.5948 0.101368
545 2 95.4535 51.5807 0.0294058
546 2 99.4842 51.7078 15.8151
547 2 103.326 51.3642 0.155998
548 2 107.724 51.4456 15.9288
549 2 111.336 51.6365 0.00731389
550 2 115.313 51.6662 0.0371328
551 2 119.057 51.6427 -0.146801
552 2 122.998 51.6723 -0.0950317
553 2 126.994 51.5733 15.7443
554 2 130.879 51.4519 0.143093
555 2 134.995 51.4653 15.7941
556 2 138.786 51.3184 0.224909
557 2 142.517 51.5041 15.818
558 2 146.445 51.4188 15.8408
559 2 150.4 51.1989 0.211555
560 2 154.255 51.0978 0.187535
561 2 158.333 55.045 0.101368
562 2 3.86618 55.2475 0.11275
563 2 7.9294 54.845 0.279672
564 2 11.8487 54.8358 15.919
565 2 15.7218 54.8116 16.0261
566 2 19.5012 54.7335 16.1009
567 2 23.4169 54.8132 16.0273
568 2 27.4063 54.7331 15.9404
569 2 31.2713 54.5697 0.058637
570 2 35.272 54.4855 15.8811
571 2 39.2088 54.6199 0.105074
572 2 43.1951 54.6778 15.761
573 2 47.3216 54.6185 15.9909
574 2 51.3906 54.7728 15.9157
575 2 55.176 55.088 0.226182
576 2 59.2073 54.8239 0.361819
577 2 63.2775 54.9634 15.9033
578 2 67.3157 55.0705 0.116941
579 2 71.319 55.1113 15.7482
580 2 75.2764 55.0242 15.99
581 2 79.0701 55.1768 15.8158
582 2 83.3023 55.098 15.781
583 2 87.4889 55.3773 0.172059
584 2 91.2341 55.542 0.0367846
585 2 95.2941 55.5733 0.12481
586 2 99.3331 55.3932 15.67
587 2 103.502 55.5597 0.175883
588 2 107.374 55.5075 0.0937271
589 2 111.375 55.4051 15.7928
590 2 115.19 55.5788 0.0510032
591 2 119.253 55.5416 0.139239
592 2 123.214 55.5862 -0.00937801
593 2 127.144 55.5971 15.9285
594 2 130.951 55.7544 15.7711
595 2 134.916 55.2993 15.9522
596 2 138.567 55.4414 0.110482
597 2 142.489 55.4824 0.0140161
598 2 146.526 55.2771 15.9946
599 2 150.546 55.294 15.6637
600 2 154.529 55.1904 -0.0491486
601 2 0.049521 59.1442 0.098388
602 2 3.84432 59.1793 0.167581
603 2 8.04311 58.9835 -0.00999126
604 2 11.6363 59.026 15.911
605 2 15.6093 58.9109 -0.0129465
606 2 19.6081 58.6204 15.8664
607 2 23.4654 58.6834 15.9158
608 2 27.2815 58.701 -0.0874739
609 2 31.3552 58.4581 16.003
610 2 35.3035 58.6158 0.223667
611 2 39.1502 58.8145 0.0516971
612 2 43.087 58.4982 15.9745
613 2 47.2705 58.5372 0.200343
614 2 51.2593 58.7843 15.8823
615 2 55.036 58.9286 15.9184
616 2 59.2967 58.9451 16.0605
617 2 63.4418 58.8225 0.17744
618 2 67.2908 58.8367 16.1101
619 2 71.4356 58.9397 0.196534
620 2 75.3089 59.1389 0.186472
621 2 79.2132 58.9377 15.9789
622 2 83.3174 59.0304 15.9455
623 2 87.1849 59.3974 0.259504
624 2 91.2016 59.3612 0.0543899
625 2 95.3388 59.5652 0.165768
626 2 99.3897 59.4142 15.8786
627 2 103.384 59.4834 0.167832
628 2 107.343 59.4935 0.134837
629 2 111.194 59.3846 0.179123
630 2 115.184 59.6171 0.0651324
631 2 119.482 59.6893 0.0337297
632 2 123.099 59.4865 0.0413732
633 2 126.982 59.5018 0.200595
634 2 131.067 59.6752 15.7903
635 2 134.927 59.6238 0.18696
636 2 138.811 59.3607 -0.0513105
637 2 142.895 59.285 15.7958
638 2 146.71 59.2813 0.049847
639 2 150.567 59.2975 0.0970901
640 2 154.486 59.2395 0.127132
641 2 -0.00474039 63.1193 15.6158
642 2 4.01252 63.2126 16.0003
643 2 8.14937 63.0781 0.0637733
644 2 11.857 62.9188 0.0414264
645 2 15.732 62.7956 15.9032
646 2 19.6058 62.8037 15.6914
647 2 23.666 62.828 15.7686
648 2 27.444 62.4802 0.155568
649 2 31.4573 62.5216 16.076
650 2 35.3402 62.5552 15.9286
651 2 39.4 62.6851 0.136063
652 2 43.1041 62.4638 0.285633
653 2 47.1677 62.5009 16.0833
654 2 50.9864 62.4698 0.163792
655 2 55.3144 62.6535 0.231915
656 2 59.1956 62.7254 0.183952
657 2 63.1485 62.747 0.238358
658 2 67.3052 62.6994 0.184882
659 2 71.1532 62.7633 0.172875
660 2 75.277 62.9365 15.9088
661 2 79.1382 62.9042 15.8224
662 2 83.0224 62.9152 15.8513
663 2 87.178 63.2853 0.122588
664 2 91.1508 63.2902 15.9587
665 2 95.3028 63.3964 0.15366
666 2 99.2377 63.2823 0.244532
667 2 103.239 63.31 0.166329
668 2 107.292 63.4967 0.0804744
669 2 111.401 63.4927 0.0987838
670 2 115.289 63.5085 0.194394
671 2 119.18 63.5885 16.0871
672 2 123.183 63.4923 15.7652
673 2 127.032 63.7327 15.7469
674 2 131.058 63.4931 -0.0472098
675 2 135.091 63.6107 15.7199
676 2 138.962 63.4259 0.224664
677 2 142.867 63.3155 0.188634
678 2 146.814 63.1579 0.0667637
679 2 150.723 63.3461 15.8859
680 2 154.492 63.2135 15.9813
681 2 0.121646 67.1519 0.00120588
682 2 3.93801 67.1059 0.219688
683 2 7.89617 66.9626 0.131598
684 2 12.0526 66.9138 15.8662
685 2 15.7362 66.882 15.9251
686 2 19.6332 66.8882 15.9799
687 2 23.6657 66.8933 15.9292
688 2 27.6199 66.5671 15.8927
689 2 31.3024 66.6588 -0.107142
690 2 35.1022 66.6146 0.0421233
691 2 39.2446 66.5204 0.262502
692 2 43.272 66.5993 16.0889
693 2 47.0967 66.2677 0.154482
694 2 51.1552 66.3883 15.9864
695 2 55.3302 66.5381 15.9887
696 2 59.1995 66.6357 15.8223
697 2 63.2553 66.6121 15.9134
698 2 67.2374 66.7541 16.1652
699 2 71.2153 66.7736 0.107554
700 2 75.1439 66.8319 0.146491
701 2 79.2352 66.8464 15.6898
702 2 83.0727 66.8868 15.5902
703 2 87.1171 67.1216 15.7907
704 2 91.0718 67.0098 0.0949358
705 2 95.2325 67.0755 15.9965
706 2 99.2894 67.144 15.9102
707 2 103.248 67.3177 0.0131966
708 2 107.238 67.3417 15.8855
709 2 111.263 67.4843 0.321185
710 2 115.069 67.4035 0.358717
711 2 119.326 67.4051 0.205317
712 2 123.129 67.3532 15.8845
713 2 127.191 67.5989 15.7627
714 2 131.222 67.465 15.7939
715 2 135.006 67.478 15.8606
716 2 138.87 67.5616 15.9608
717 2 142.862 67.2366 15.7959
718 2 146.692 67.4615 0.136587
719 2 150.675 67.4277 15.7815
720 2 154.731 67.1523 15.8972
721 2 0.300532 71.2636 15.7893
722 2 4.18463 71.0015 15.5896
723 2 7.90779 70.9505 -0.00530617
724 2 11.8831 71.0576 15.5465
725 2 15.871 70.9484 15.9339
726 2 19.7862 70.6825 0.0763798
727 2 23.6567 70.6846 15.7673
728 2 27.3968 70.6625 15.8342
729 2 31.259 70.6066 16.0495
730 2 35.3006 70.5005 15.9704
731 2 39.3719 70.4448 15.7765
732 2 43.313 70.42 -0.0308243
733 2 47.0167 70.3675 15.8885
734 2 51.117 70.3375 15.858
735 2 55.0915 70.3655 15.72
736 2 59.0748 70.3691 0.0180636
737 2 63.1244 70.7329 16.1841
738 2 67.1001 70.5166 0.303314
739 2 71.0468 70.4237 15.9604
740 2 75.021 70.7769 16.0054
741 2 79.1023 70.7482 15.7525
742 2 83.0869 70.8638 0.139237
743 2 87.1327 70.9843 16.1269
744 2 90.9245 71.0509 0.335079
745 2 95.2098 71.0174 0.0886863
746 2 99.1547 71.1495 15.9935
747 2 103.197 71.2764 0.196429
748 2 107.208 70.9689 0.298091
749 2 110.882 71.2429 16.0499
750 2 115.112 71.2399 0.249596
751 2 119.055 71.4072 15.9903
752 2 123.146 71.4311 0.262934
753 2 127.093 71.4439 15.8757
754 2 131.186 71.4469 15.921
755 2 135.1 71.4068 15.9354
756 2 138.901 71.4659 15.6282
757 2 142.804 71.6142 15.6428
758 2 146.771 71.2896 15.8143
759 2 150.784 71.6464 16.2211
760 2 154.548 71.2891 15.7884
761 2 0.483461 75.2492 15.8161
762 2 4.25114 75.2128 15.6956
763 2 8.15612 74.9716 15.8518
764 2 12.0347 74.8478 15.7216
765 2 16.0825 74.9035 15.8732
766 2 19.8774 74.8232 15.8426
767 2 23.6566 74.7742 15.7864
768 2 27.5818 74.7206 15.9286
769 2 31.5162 74.6521 0.199405
770 2 35.383 74.6405 15.9818
771 2 39.2615 74.5294 15.8246
772 2 43.4388 74.4868 0.211049
773 2 47.243 74.2876 15.8038
774 2 51.1577 74.4711 0.326781
775 2 54.9554 74.3198 15.7804
776 2 59.073 74.2755 16.0549
777 2 63.1319 74.4535 15.9226
778 2 67.1 74.5251 15.8095
779 2 71.0736 74.5692 15.819
780 2 75.203 74.5083 0.197447
781 2 79.163 74.7064 15.9167
782 2 83.0743 74.8567 15.7469
783 2 87.1146 74.872 16.0564
784 2 91.1727 74.9118 0.0758319
785 2 95.248 75.1507 15.6494
786 2 99.1366 75.1801 0.452169
787 2 103.201 75.0595 16.0616
788 2 107.036 75.3214 0.218716
789 2 111.053 75.1126 15.9041
790 2 115.116 75.3602 -0.0342001
791 2 119.215 75.4233 16.0517
792 2 122.91 75.4526 16.028
793 2 127.138 75.5381 0.199724
794 2 131.088 75.4035 0.0854715
795 2 134.833 75.3538 15.7949
796 2 138.961 75.3777 15.8757
797 2 143.036 75.4001 0.00843878
798 2 147.048 75.4108 15.8787
799 2 150.765 75.5362 15.7872
800 2 154.67 75.2426 0.112702
801 2 0.160749 79.1313 15.9274
802 2 4.14715 79.1226 15.7688
803 2 8.26375 78.999 15.7873
804 2 12.1525 78.948 16.0128
805 2 16.0908 78.8486 15.815
806 2 19.931 78.7061 15.6344
807 2 23.9459 78.7717 15.894
808 2 27.6419 78.7773 15.9868
809 2 31.6509 78.7348 0.185866
810 2 35.566 78.6083 16.1382
811 2 39.5405 78.5543 0.156143
812 2 43.495 78.5545 0.288206
813 2 47.2059 78.3198 0.0196889
814 2 51.1367 78.2779 16.043
815 2 55.2542 78.3709 15.853
816 2 58.9598 78.3759 15.9894
817 2 62.9683 78.2851 15.9613
818 2 67.0106 78.361 15.8175
819 2 71.1949 78.3905 15.8522
820 2 75.0234 78.5066 15.7767
821 2 79.0003 78.4508 0.0877794
822 2 82.9563 78.8711 0.179205
823 2 86.7822 78.7625 0.378382
824 2 91.0428 78.9063 0.226075
825 2 95.0871 79.0212 0.180768
826 2 99.0561 79.0083 15.9361
827 2 103.063 79.144 0.277925
828 2 106.922 79.0642 15.8974
829 2 111.078 79.2067 0.186548
830 2 115.046 79.1628 15.8478
831 2 119.04 79.3561 0.0607846
832 2 123.056 79.3649 0.183922
833 2 127.031 79.5111 15.9552
834 2 131.216 79.261 0.296323
835 2 135.049 79.4 15.7629
836 2 138.958 79.5947 15.8051
837 2 143.028 79.442 15.9154
838 2 146.721 79.3581 15.7183
839 2 150.804 79.2479 15.6961
840 2 154.906 79.469 15.8627
841 2 0.374922 83.169 15.7856
842 2 4.43165 83.068 15.7889
843 2 8.26183 83.2031 15.784
844 2 12.1408 83.0192 15.9901
845 2 16.0311 82.78 16.0634
846 2 19.8558 82.794 15.9225
847 2 23.8135 82.9532 15.9539
848 2 27.6909 82.6764 16.0852
849 2 31.8108 82.7469 15.9926
850 2 35.6025 82.6821 16.0914
851 2 39.6787 82.6029 0.0465174
852 2 43.5701 82.3692 15.9098
853 2 47.5669 82.566 15.8372
854 2 51.2553 82.2627 15.9153
855 2 55.4369 82.3581 15.9583
856 2 59.1902 82.2543 15.9309
857 2 63.1329 82.1119 16.022
858 2 67.0319 82.2076 -0.0822206
859 2 70.7761 82.2466 0.117608
860 2 75.1873 82.5088 15.7312
861 2 79.0216 82.6624 0.0894527
862 2 82.9568 82.5944 15.8032
863 2 87.0931 82.6658 15.9775
864 2 90.9698 82.8079 0.143645
865 2 94.9028 82.8558 15.949
866 2 99.0346 83.0472 16.0287
867 2 103.001 82.9747 0.13506
868 2 107.084 82.9807 0.126728
869 2 111.033 83.09 15.8694
870 2 115.286 83.226 15.8606
871 2 119.067 82.9813 0.00775126
872 2 123.07 83.137 15.7988
873 2 127.004 83.2347 -0.0254119
874 2 130.797 83.3291 15.9626
875 2 134.886 83.2447 0.0345873
876 2 138.893 83.4187 15.6574
877 2 142.975 83.1946 -0.0885995
878 2 146.826 83.3783 0.160424
879 2 150.907 83.1765 15.8535
880 2 154.946 83.1343 15.6772
881 2 0.470576 87.2139 15.8751
882 2 4.4189 87.1458 -0.0112596
883 2 8.42392 87.1984 15.8482
884 2 12.1568 87.0367 16.0833
885 2 16.3064 86.8917 0.0735591
886 2 20.0649 86.7775 15.947
887 2 23.9451 86.7938 15.7746
888 2 28.2206 86.8569 15.8817
889 2 31.8264 86.7129 15.9054
890 2 35.6584 86.6452 15.9905
891 2 39.6791 86.5385 15.9043
892 2 43.5736 86.265 15.8373
893 2 47.5747 86.3784 0.31628
894 2 51.4342 86.279 0.149271
895 2 55.2528 86.3354 0.335128
896 2 59.1728 86.2594 15.7206
897 2 63.0456 86.3332 15.9577
898 2 66.9434 86.277 0.182935
899 2 70.8894 86.3053 0.0209125
900 2 74.6787 86.247 16.0395
901 2 79.0853 86.3997 0.0892281
902 2 83.0209 86.594 0.0785161
903 2 86.9078 86.593 15.9692
904 2 90.6485 86.5634 0.2363
905 2 94.6978 86.8233 15.9809
906 2 98.8759 86.9051 16.0339
907 2 103.069 86.9051 0.12294
908 2 106.775 86.9992 0.379272
909 2 110.963 86.998 16.0165
910 2 114.917 86.8587 0.070088
911 2 118.82 86.9651 0.142979
912 2 122.945 87.143 0.0582873
913 2 126.893 87.0817 15.9638
914 2 130.742 87.2373 0.047043
915 2 135.014 87.1785 15.8546
916 2 138.835 87.3088 0.115984
917 2 142.869 87.1369 0.0940744
918 2 146.931 87.2555 0.254408
919 2 151.016 87.2896 15.8487
920 2 154.906 87.3025 15.9685
921 2 0.470971 91.1284 15.9208
922 2 4.55394 91.1764 -0.0208939
923 2 8.54918 90.9319 -0.0492943
924 2 12.4475 90.9977 0.105989
925 2 16.2925 90.9749 15.9175
926 2 20.2675 90.7069 15.8089
927 2 24.2235 90.6896 15.806
928 2 28.1441 90.8144 15.9291
929 2 31.9242 90.7085 15.7621
930 2 35.8475 90.6172 15.8857
931 2 39.667 90.5758 16.0413
932 2 43.479 90.4793 0.398922
933 2 47.5499 90.3786 15.9935
934 2 51.454 90.3181 15.8509
935 2 55.2159 90.439 16.0026
936 2 59.1361 90.215 15.9782
937 2 63.0937 90.2438 0.16855
938 2 66.9633 90.1707 15.977
939 2 70.7866 90.2703 15.9648
940 2 74.8502 90.3983 15.8806
941 2 78.88 90.2441 0.148425
942 2 82.8519 90.5308 0.303939
943 2 86.8804 90.4034 16.1143
944 2 90.7487 90.543 0.251136
945 2 94.922 90.4962 0.269484
946 2 98.9269 90.694 0.120744
947 2 102.785 90.9092 0.191007
948 2 106.741 90.7379 0.360406
949 2 110.79 90.6686 15.8818
950 2 114.881 90.8032 0.0553825
951 2 118.985 90.857 0.126111
952 2 122.968 91.1226 0.108466
953 2 126.89 90.9654 0.166307
954 2 130.998 91.0891 16.1422
955 2 134.95 91.191 0.0976212
956 2 138.974 91.0363 0.0345407
957 2 142.856 91.0797 0.235763
958 2 146.857 90.9779 0.230378
959 2 150.93 91.0669 16.0114
960 2 154.805 91.2028 0.0112468
961 2 0.517047 95.0618 15.8108
962 2 4.4269 95.0578 15.7804
963 2 8.44218 95.11 0.234133
964 2 12.4718 94.9607 16.0456
965 2 16.3783 94.8617 15.9521
966 2 20.2755 94.9689 15.9066
967 2 24.0715 94.7648 15.9583
968 2 28.0766 94.6371 15.9728
969 2 31.9454 94.6102 15.8002
970 2 35.8801 94.4703 0.186886
971 2 39.718 94.5365 15.941
972 2 43.3238 94.513 15.8307
973 2 47.3832 94.445 15.9489
974 2 51.3177 94.3186 0.414508
975 2 55.3811 94.2702 15.8294
976 2 59.2627 94.1845 15.897
977 2 63.0976 94.2714 15.9925
978 2 67.0064 94.3916 -0.104541
979 2 70.8331 94.2076 0.0354856
980 2 74.9697 94.5067 15.9485
981 2 78.6616 94.1502 16.0223