ITEM: TIMESTEP
16000
ITEM: NUMBER OF ATOMS
32000
ITEM: BOX BOUNDS xy xz yz pp pp pp
0.0000000000000000e+00 1.5831999999999999e+02 0.0000000000000000e+00
0.0000000000000000e+00 1.5831999999999999e+02 0.0000000000000000e+00
1.6457614832711887e-01 1.5933135851672654e+01 0.0000000000000000e+00
ITEM: ATOMS id type x y z
1 2 158.041 158.056 16.018
2 2 3.76032 157.738 0.158958
3 2 7.6515 157.927 0.33795
4 2 11.8315 157.641 16.0976
5 2 15.729 158.024 0.303576
6 2 19.639 158.061 0.14714
7 2 23.6848 158.264 16.0849
8 2 27.6427 158.006 0.272147
9 2 31.902 158.139 16.0225
10 2 35.8935 158.333 0.166531
11 2 40.0029 158.359 0.107054
12 2 43.8552 158.399 16.0406
13 2 47.9643 0.243919 15.7379
14 2 51.8865 0.219345 15.8109
15 2 55.6996 158.305 15.9185
16 2 59.9953 0.0212507 15.8801
17 2 63.8169 0.174845 0.0921457
18 2 67.7116 0.104617 0.171869
19 2 71.7427 158.372 15.9487
20 2 75.579 158.387 16.1057
21 2 79.524 158.334 16.0478
22 2 83.4534 158.162 0.0981604
23 2 87.1572 158.128 0.222083
24 2 91.1443 158.014 0.177607
25 2 94.9662 158.165 0.355271
26 2 99.0363 158.126 0.369729
27 2 102.885 158.018 0.284743
28 2 106.83 158.029 15.9662
29 2 110.728 157.938 0.144108
30 2 114.698 158.031 0.132288
31 2 118.606 157.827 0.100694
32 2 122.404 157.734 15.9284
33 2 126.361 157.47 15.9237
34 2 130.378 157.547 15.8725
35 2 134.23 157.572 15.9217
36 2 138.002 157.598 16.017
37 2 142.104 157.528 16.0005
38 2 146.063 157.471 15.8312
39 2 149.91 157.634 16.0667
40 2 154.158 157.609 16.0218
41 2 157.878 3.6096 0.142793
42 2 3.57361 3.26325 16.0812
43 2 7.53969 3.38031 0.359966
44 2 11.5787 3.31853 0.395069
45 2 15.6586 3.46226 0.260032
46 2 19.8089 3.54195 16.073
47 2 23.5764 3.83387 0.112299
48 2 27.7135 3.75515 0.233043
49 2 31.6883 3.72721 0.183394
50 2 35.8668 4.06229 0.249757
51 2 39.8282 4.0145 0.21795
52 2 43.8195 4.04394 0.118602
53 2 47.7742 3.96906 16.1006
54 2 51.9485 4.04113 0.283879
55 2 55.951 4.08307 0.0778928
56 2 59.9159 4.13813 0.0713539
57 2 63.8564 4.11313 15.8041
58 2 67.7097 3.96284 0.193371
59 2 71.7502 4.04319 0.266993
60 2 75.5726 3.97863 0.337319
61 2 79.4166 3.98011 0.353269
62 2 83.3345 3.73614 0.309891
63 2 87.3578 3.93709 0.0903752
64 2 91.2356 3.74141 0.270532
65 2 95.169 3.74025 15.9624
66 2 99.104 3.66739 0.252991
67 2 103.051 3.66356 0.32023
68 2 106.759 3.54324 16.1408
69 2 110.837 3.464 15.8847
70 2 114.671 3.71604 15.9557
71 2 118.562 3.38337 15.8962
72 2 122.471 3.49834 -0.0692965
73 2 126.365 3.29878 15.9852
74 2 130.277 3.18995 0.0762353
75 2 134.313 3.39387 15.6379
76 2 138.124 3.24291 0.397396
77 2 142.031 3.19514 15.9921
78 2 145.996 3.09613 0.259697
79 2 150.059 3.24384 16.1259
80 2 154.125 3.32696 15.8093
81 2 158.017 7.26872 0.265971
82 2 3.66896 7.38076 15.9647
83 2 7.48696 7.3062 16.1902
84 2 11.6859 7.24321 15.9072
85 2 15.7697 7.57084 0.182602
86 2 19.5971 7.74828 15.8239
87 2 23.5987 7.74764 0.0421038
88 2 27.6563 7.5988 0.311196
89 2 31.8155 7.61877 15.8785
90 2 35.7182 7.7201 15.9496
91 2 39.7785 7.9411 15.9882
92 2 43.7124 7.9801 16.2225
93 2 47.645 7.98045 0.349752
94 2 51.9707 7.92052 16.0025
95 2 55.9563 7.86831 0.218203
96 2 59.8484 7.93432 0.107451
97 2 63.8952 7.99447 0.0807177
98 2 67.775 8.01968 0.231864
99 2 71.8857 7.95812 0.292973
100 2 75.5748 8.14781 0.216182
101 2 79.6172 8.01735 15.9864
102 2 83.4833 7.81156 0.29299
103 2 87.2857 7.94396 15.9816
104 2 91.4051 7.74015 0.454822
105 2 95.2053 7.7613 0.189418
106 2 99.1786 7.6596 0.200799
107 2 103.1 7.63198 0.0830318
108 2 107.126 7.76228 0.229665
109 2 111.017 7.46521 0.365349
110 2 114.683 7.66951 0.0947377
111 2 118.701 7.40576 0.357
112 2 122.423 7.22646 0.205353
113 2 126.363 7.25801 16.1212
114 2 130.407 7.32209 0.35749
115 2 134.344 7.08205 0.257108
116 2 138.339 7.18337 15.7335
117 2 142.134 7.29589 15.9838
118 2 145.853 7.13127 0.221288
119 2 149.979 7.25793 15.8937
120 2 154.179 7.19827 15.978
121 2 158.078 11.1468 0.575377
122 2 3.6579 11.2313 0.319243
123 2 7.68845 11.3426 16.1819
124 2 11.5675 11.2369 15.8824
125 2 15.7787 11.5684 15.9143
126 2 19.645 11.474 0.218947
127 2 23.5542 11.7417 0.284538
128 2 27.6454 11.4013 0.353336
129 2 31.6914 11.5838 0.224457
130 2 35.7054 11.8714 0.323445
131 2 39.6822 11.7858 0.263613
132 2 43.6208 12.0019 16.0523
133 2 47.5776 11.6845 16.1364
134 2 51.5825 11.7222 15.9158
135 2 55.7375 11.8258 0.14297
136 2 59.7596 12.1065 15.9739
137 2 63.9802 12.0291 0.138771
138 2 67.8447 11.9968 15.7102
139 2 71.7638 11.9756 0.166252
140 2 75.6203 11.9327 0.0882927
141 2 79.6236 11.9402 0.231805
142 2 83.5035 11.8299 0.177873
143 2 87.4737 11.93 0.124126
144 2 91.1672 11.8517 0.355489
145 2 95.2994 11.6485 0.283945
146 2 98.9927 11.4857 0.385153
147 2 102.995 11.6339 0.184721
148 2 107.167 11.5113 0.0449424
149 2 111.184 11.5594 0.213781
150 2 115.027 11.658 -0.025708
151 2 118.701 11.3957 0.18634
152 2 122.672 11.4121 0.305502
153 2 126.498 11.3934 0.275825
154 2 130.644 11.2697 16.1115
155 2 134.216 11.0959 0.201548
156 2 138.316 11.209 0.36042
157 2 142.058 11.137 16.0817
158 2 146.11 11.1412 15.9012
159 2 149.969 11.0527 15.9365
160 2 154.009 11.0511 16.0167
161 2 157.81 15.0767 0.236702
162 2 3.62136 15.1789 0.283477
163 2 7.47187 15.2417 0.281147
164 2 11.5704 15.2594 16.1611
165 2 15.5422 15.2367 15.9241
166 2 19.6598 15.392 0.251441
167 2 23.5052 15.4968 0.305318
168 2 27.4937 15.4906 16.0477
169 2 31.527 15.3815 15.9713
170 2 35.5054 15.5512 0.168942
171 2 39.5525 15.6855 15.9278
172 2 43.6194 15.6803 0.193522
173 2 47.5994 15.5219 0.338134
174 2 51.7089 15.7434 0.158958
175 2 55.8022 15.914 16.0784
176 2 59.887 15.9285 0.132556
177 2 63.9397 15.9267 0.239071
178 2 67.8382 16.1002 0.121066
179 2 71.8753 16.0585 0.235775
180 2 75.6878 15.9517 15.8446
181 2 79.7797 15.8848 0.0988531
182 2 83.4577 16.0414 0.269267
183 2 87.315 15.898 0.185673
184 2 91.378 15.8178 0.07171
185 2 95.218 15.6434 0.218605
186 2 99.3148 15.7169 0.0233116
187 2 103.306 15.6552 0.144064
188 2 106.991 15.57 0.16795
189 2 110.909 15.5392 0.214496
190 2 114.785 15.4632 0.110862
191 2 118.786 15.5181 0.266772
192 2 122.515 15.4761 15.9559
193 2 126.451 15.3217 0.0627473
194 2 130.447 15.2437 0.240409
195 2 134.51 15.3029 0.227902
196 2 138.435 15.1153 0.423352
197 2 142.249 15.1195 0.107272
198 2 146.191 15.1452 0.207818
199 2 150.06 15.0858 15.9785
200 2 153.954 15.1486 0.275027
201 2 157.786 18.8866 16.0955
202 2 3.58069 19.1302 0.27834
203 2 7.51499 19.1845 16.3222
204 2 11.4537 19.3103 16.1298
205 2 15.3525 19.1694 16.3458
206 2 19.3575 19.2923 0.329607
207 2 23.3006 19.3553 0.177399
208 2 27.4719 19.4508 0.121669
209 2 31.4736 19.3703 15.8065
210 2 35.616 19.5101 15.8633
211 2 39.4273 19.6468 0.0361043
212 2 43.7026 19.6543 16.0814
213 2 47.5132 19.6134 16.1295
214 2 51.6599 19.6941 16.0597
215 2 55.7139 19.7339 15.9322
216 2 59.71 19.7748 15.9342
217 2 63.5783 20.006 15.8279
218 2 67.8651 19.8991 15.8934
219 2 71.6344 20.0918 0.0510606
220 2 75.6164 19.9675 0.166633
221 2 79.7204 19.8605 0.167087
222 2 83.6946 19.9744 0.27178
223 2 87.5988 19.7269 15.9213
224 2 91.4694 19.8361 0.277667
225 2 95.1647 19.7754 0.0509522
226 2 99.4221 19.6387 15.9494
227 2 103.289 19.6755 16.0103
228 2 107.047 19.4583 16.0306
229 2 111.021 19.645 0.0307234
230 2 114.862 19.5338 0.265878
231 2 118.78 19.5504 15.8696
232 2 122.695 19.2949 0.224
233 2 126.601 19.4523 0.440933
234 2 130.529 19.2939 0.268991
235 2 134.272 19.341 15.9266
236 2 138.312 19.2232 15.9532
237 2 142.134 19.1635 0.25252
238 2 145.958 19.1797 0.312778
239 2 150.123 19.1314 0.351972
240 2 153.805 19.1646 15.8819
241 2 157.955 23.0991 16.1657
242 2 3.40932 22.9931 16.159
243 2 7.35955 23.2664 0.377406
244 2 11.1756 23.3416 16.0962
245 2 15.3048 23.1819 16.0683
246 2 19.3182 23.1553 0.188192
247 2 23.1747 23.4386 16.037
248 2 27.3264 23.4979 15.8987
249 2 31.5887 23.3971 0.0305607
250 2 35.5517 23.4069 15.9461
251 2 39.6313 23.5377 0.110736
252 2 43.5292 23.6618 15.8673
253 2 47.6779 23.58 15.9208
254 2 51.7925 23.6978 0.106584
255 2 55.5955 23.7291 15.9773
256 2 59.6775 23.7148 16.0121
257 2 63.7717 23.8035 15.9646
258 2 67.7591 23.861 0.0130467
259 2 71.7152 23.9387 0.179544
260 2 75.7713 23.9368 0.00438118
261 2 79.7182 23.79 16.0047
262 2 83.8067 23.9216 15.9227
263 2 87.5426 23.8572 0.207962
264 2 91.6094 23.6691 15.8274
265 2 95.5046 23.7868 15.9514
266 2 99.1958 23.5472 0.252429
267 2 103.197 23.5794 0.397113
268 2 107.242 23.66 0.174782
269 2 111.169 23.5299 0.214811
270 2 115.073 23.4648 15.9636
271 2 118.806 23.5618 16.1597
272 2 122.663 23.5249 0.407465
273 2 126.64 23.2707 0.260792
274 2 130.485 23.3216 16.1222
275 2 134.481 23.3182 0.303882
276 2 138.356 23.2584 15.8103
277 2 142.397 23.1089 0.28466
278 2 146.102 23.1694 0.245196
279 2 150.07 23.1548 -0.0248528
280 2 153.84 23.0976 0.186855
281 2 157.833 26.9174 0.324584
282 2 3.42541 27.1445 16.3305
283 2 7.41726 27.2661 0.387476
284 2 11.3665 26.9817 16.1109
285 2 15.536 27.1303 15.9045
286 2 19.5011 27.2008 0.43499
287 2 23.4226 27.1949 0.124289
288 2 27.2151 27.3857 0.252235
289 2 31.5741 27.1424 16.0022
290 2 35.3454 27.2699 0.208354
291 2 39.5456 27.4113 0.221232
292 2 43.4659 27.5396 15.8464
293 2 47.4562 27.65 0.0960135
294 2 51.2557 27.3682 0.197504
295 2 55.6341 27.5864 0.317197
296 2 59.6135 27.5632 0.211582
297 2 63.6275 27.5978 0.366977
298 2 67.7311 27.7277 0.180136
299 2 71.8196 27.7645 0.0876239
300 2 75.7195 27.8566 15.6865
301 2 79.8408 27.9312 0.089122
302 2 83.7299 27.6857 15.8288
303 2 87.6387 27.7485 0.373175
304 2 91.5267 27.8055 15.9361
305 2 95.428 27.8406 15.9332
306 2 99.2786 27.676 0.0916857
307 2 103.217 27.5972 0.210306
308 2 107.329 27.5741 16.0894
309 2 111.011 27.6591 0.276589
310 2 115.093 27.3553 15.9282
311 2 118.858 27.4773 15.9745
312 2 122.755 27.5638 0.0704447
313 2 126.665 27.2623 0.259851
314 2 130.617 27.44 0.22328
315 2 134.384 27.4173 16.0741
316 2 138.248 27.1137 0.0953641
317 2 142.208 27.1125 0.32198
318 2 146.218 27.0226 0.245445
319 2 150.013 27.1276 0.284303
320 2 153.961 26.8547 16.2267
321 2 157.94 30.9125 16.0372
322 2 3.47752 31.1808 0.205224
323 2 7.46846 30.9916 0.334008
324 2 11.3216 30.9525 16.1176
325 2 15.4156 30.8845 0.32403
326 2 19.4557 31.1143 16.1458
327 2 23.3257 31.2128 15.9331
328 2 27.3904 31.053 0.262791
329 2 31.3735 31.1638 0.060487
330 2 35.2607 31.2314 15.8753
331 2 39.508 31.1215 15.9699
332 2 43.3479 31.4061 0.169494
333 2 47.5262 31.3879 16.0686
334 2 51.5152 31.4471 16.0316
335 2 55.6884 31.6036 0.253484
336 2 59.4929 31.456 0.101819
337 2 63.783 31.611 16.063
338 2 67.646 31.6567 -0.0873794
339 2 71.4839 31.8526 15.7715
340 2 75.6499 31.7163 0.176232
341 2 79.7881 31.8994 0.109037
342 2 83.607 31.6794 15.8029
343 2 87.6395 31.6318 0.075747
344 2 91.4031 31.9444 0.170162
345 2 95.4315 31.9321 0.339196
346 2 99.389 31.8425 0.171513
347 2 103.339 31.58 15.9366
348 2 107.25 31.6503 0.0979539
349 2 111.006 31.5968 16.0265
350 2 114.924 31.5293 0.250331
351 2 118.856 31.4652 15.9157
352 2 122.817 31.4626 0.190719
353 2 126.76 31.4644 0.121428
354 2 130.562 31.3154 0.268207
355 2 134.507 31.1694 0.183059
356 2 138.505 31.1493 16.0723
357 2 142.174 31.1604 15.9649
358 2 146.361 31.0172 16.0535
359 2 150.086 31.1438 16.1561
360 2 153.978 31.0058 16.0383
361 2 158.045 34.993 15.8695
362 2 3.54087 34.8225 0.19764
363 2 7.46157 35.2075 0.148785
364 2 11.2309 34.9812 16.0318
365 2 15.1354 34.9788 0.221137
366 2 19.4985 35.0183 16.0999
367 2 23.2652 35.0595 15.9825
368 2 27.1333 35.0075 0.128145
369 2 31.1709 35.1632 0.397193
370 2 35.3568 35.129 15.8791
371 2 39.0806 35.1726 0.299482
372 2 43.1891 35.2505 16.1751
373 2 47.4443 35.2719 15.8774
374 2 51.4614 35.2676 0.221404
375 2 55.3468 35.5047 16.0308
376 2 59.5839 35.2022 0.07219
377 2 63.5536 35.6308 0.294894
378 2 67.5488 35.7605 0.297218
379 2 71.6402 35.6235 0.0734724
380 2 75.3734 35.7505 15.844
381 2 79.6411 35.6094 15.8275
382 2 83.8334 35.8111 0.144676
383 2 87.848 35.709 0.0297845
384 2 91.5863 35.9251 15.893
385 2 95.5357 35.8349 16.2632
386 2 99.3112 35.7117 0.156767
387 2 103.293 35.484 16.1074
388 2 107.304 35.7007 0.115774
389 2 111.077 35.5599 15.9222
390 2 114.928 35.6964 0.2437
391 2 118.782 35.5508 15.8155
392 2 122.977 35.5032 15.8573
393 2 126.7 35.3089 0.158215
394 2 130.522 35.3084 0.399106
395 2 134.521 35.2603 15.8209
396 2 138.356 35.2518 15.9028
397 2 142.283 35.2179 15.9425
398 2 146.186 35.14 16.2706
399 2 150.249 35.2186 0.326973
400 2 154.039 35.0021 0.215147
401 2 158.156 38.8891 0.361991
402 2 3.67652 39.1016 16.0662
403 2 7.55216 38.8644 15.9715
404 2 11.5055 38.9952 0.0686312
405 2 15.4277 38.8318 0.164441
406 2 19.2599 38.9528 16.102
407 2 23.3291 38.9061 15.8605
408 2 27.1467 38.7664 0.359069
409 2 31.1872 39.0332 15.9979
410 2 35.2503 38.9516 0.20958
411 2 39.3142 39.1802 0.298898
412 2 43.3002 39.1147 0.384403
413 2 47.2367 38.9734 0.186006
414 2 51.2775 39.2766 0.215149
415 2 55.4047 39.1379 0.370879
416 2 59.3581 39.2748 -0.0110937
417 2 63.6613 39.4802 15.798
418 2 67.4256 39.4934 0.0812227
419 2 71.5144 39.5157 -0.0391055
420 2 75.5898 39.5055 -0.0280826
421 2 79.681 39.5391 15.8147
422 2 83.577 39.6852 15.6559
423 2 87.679 39.7634 15.883
424 2 91.4946 39.7219 16.0006
425 2 95.6023 39.832 16.142
426 2 99.5268 39.821 0.349145
427 2 103.237 39.6003 0.148198
428 2 107.148 39.5246 15.9386
429 2 111.12 39.7556 15.9418
430 2 114.886 39.6631 16.0824
431 2 118.859 39.453 16.1278
432 2 122.886 39.4799 0.060728
433 2 126.884 39.324 16.0248
434 2 130.796 39.2843 0.00334268
435 2 134.674 39.2207 0.143014
436 2 138.534 39.2592 15.7923
437 2 142.442 39.2027 16.1159
438 2 146.394 39.247 0.364683
439 2 150.327 39.2297 16.0255
440 2 154.066 39.1701 0.351141
441 2 158.205 43.2261 0.484861
442 2 3.54588 42.9792 0.142661
443 2 7.43684 42.8103 0.0281972
444 2 11.5054 42.8934 0.271648
445 2 15.2589 42.8965 0.303103
446 2 19.3024 42.7666 15.9236
447 2 23.4305 42.7526 0.259467
448 2 27.2947 42.915 0.415494
449 2 31.3066 42.7494 0.264566
450 2 35.4823 42.9313 0.15184
451 2 39.3891 42.9132 0.411964
452 2 43.3814 43.0692 0.243892
453 2 47.341 43.0311 -0.0680364
454 2 51.4631 42.9646 0.126677
455 2 55.3796 43.2804 0.0507554
456 2 59.5012 43.2781 0.251025
457 2 63.4201 43.2724 -0.0421887
458 2 67.4006 43.437 15.8001
459 2 71.4544 43.5275 16.0397
460 2 75.3507 43.4836 0.104139
461 2 79.4254 43.4294 0.152919
462 2 83.4392 43.3124 15.9096
463 2 87.6785 43.4389 15.6687
464 2 91.6046 43.8632 15.7459
465 2 95.5894 43.8235 0.0466026
466 2 99.3865 43.8759 0.00110578
467 2 103.466 43.6717 0.152886
468 2 107.093 43.6142 0.517577
469 2 111.169 43.6409 16.0267
470 2 115.215 43.5317 16.0397
471 2 118.986 43.6789 0.130037
472 2 122.946 43.6028 0.22258
473 2 126.81 43.4466 0.196177
474 2 130.79 43.269 0.0663111
475 2 134.579 43.3135 16.1007
476 2 138.656 43.3724 16.0446
477 2 142.48 43.1623 16.0887
478 2 146.25 43.2668 16.0591
479 2 150.17 43.1092 0.14357
480 2 154.202 43.0718 15.9245
481 2 158.086 46.9318 16.0527
482 2 3.66624 47.0253 15.9268
483 2 7.42788 46.8899 16.0386
484 2 11.761 47.1205 15.9344
485 2 15.4766 46.686 0.495709
486 2 19.4618 46.8238 16.0175
487 2 23.4126 46.8671 0.215431
488 2 27.2682 46.6941 0.524986
489 2 31.2458 46.6271 0.220958
490 2 35.3526 46.8498 0.162556
491 2 39.1679 46.9436 0.221256
492 2 43.2891 46.9988 0.205328
493 2 47.4304 46.7865 15.7847
494 2 51.3593 46.9276 16.0324
495 2 55.2158 47.2798 0.235639
496 2 59.2829 47.1854 15.8694
497 2 63.4193 47.2814 0.189381
498 2 67.4546 47.1813 0.160737
499 2 71.4899 47.3714 0.236859
500 2 75.3726 47.4729 16.0478
501 2 79.5026 47.4274 16.0536
502 2 83.4677 47.2506 0.171042
503 2 87.2897 47.6056 -0.15075
504 2 91.4745 47.3969 15.9175
505 2 95.3417 47.7907 -0.0438486
506 2 99.2874 47.5807 0.0483504
507 2 103.55 47.7597 15.9678
508 2 107.322 47.6094 0.130458
509 2 111.427 47.6491 16.2252
510 2 115.356 47.7522 15.8392
511 2 119.208 47.739 0.118977
512 2 122.936 47.6649 0.123743
513 2 126.984 47.615 -0.0987345
514 2 130.741 47.524 0.021844
515 2 134.722 47.4134 15.9889
516 2 138.665 47.5245 0.30152
517 2 142.572 47.3743 15.9802
518 2 146.475 47.3029 0.134146
519 2 150.338 47.0445 16.0018
520 2 154.178 47.1001 0.139237
521 2 158.386 51.1737 0.234389
522 2 3.82862 51.2963 0.30819
523 2 7.91552 50.9794 0.305713
524 2 11.7342 51.0554 16.1
525 2 15.6884 50.7052 0.255031
526 2 19.6254 50.8814 0.161439
527 2 23.3549 50.6937 0.247555
528 2 27.3013 50.7032 16.1121
529 2 31.2273 50.5654 16.2061
530 2 35.2366 50.6698 0.22578
531 2 39.2388 50.8578 16.0946
532 2 43.3632 50.7042 0.178578
533 2 47.401 50.6905 0.0856729
534 2 51.3196 51.1451 15.8016
535 2 55.2392 51.071 15.854
536 2 59.2725 51.148 15.8443
537 2 63.3594 51.0356 0.000159019
538 2 67.4551 51.0479 0.165962
539 2 71.4148 51.2149 15.8287
540 2 75.1941 51.196 -0.0995948
541 2 79.5174 51.2504 16.0613
542 2 83.4136 51.3433 15.7153
543 2 87.3693 51.4822 15.7112
544 2 91.4174 51.396 0.027137
545 2 95.1396 51.8332 0.106889
546 2 99.1364 51.3981 15.8758
547 2 103.461 51.7472 -0.103972
548 2 107.169 51.6938 15.7786
549 2 111.517 51.4895 0.0788731
550 2 115.173 51.7474 -0.022863
551 2 119.334 51.5684 0.21379
552 2 123.26 51.6728 0.115503
553 2 126.981 51.6565 15.6499
554 2 130.881 51.6367 -0.0708059
555 2 134.756 51.4126 15.8899
556 2 138.546 51.4619 0.0424943
557 2 142.574 51.2587 15.8096
558 2 146.456 51.2724 16.1087
559 2 150.35 51.3165 0.0906496
560 2 154.29 51.1204 0.188676
561 2 158.348 55.1211 0.0261855
562 2 3.96467 54.9519 0.0394531
563 2 7.78036 55.2122 0.175155
564 2 11.7646 54.8836 15.9804
565 2 15.5804 54.8234 15.9629
566 2 19.4688 54.8114 15.9069
567 2 23.5847 54.657 15.8633
568 2 27.3359 54.5349 15.841
569 2 31.3198 54.4504 0.225161
570 2 35.183 54.4919 16.0506
571 2 39.2988 54.5382 0.100825
572 2 43.2526 54.6377 15.873
573 2 47.2697 54.8494 15.8155
574 2 51.2663 54.9016 16.1137
575 2 55.3455 54.8333 0.0725764
576 2 59.2932 55.0674 0.0858534
577 2 63.4524 55.0883 15.932
578 2 67.3828 54.9912 0.183725
579 2 71.3114 54.982 16.0878
580 2 75.2087 55.1779 15.7212
581 2 79.3947 55.1528 15.7991
582 2 83.3073 55.3135 15.7581
583 2 87.1257 55.1471 0.00885353
584 2 91.4134 55.3333 0.279857
585 2 95.3834 55.6604 0.256876
586 2 99.436 55.5733 16.0513
587 2 103.395 55.3941 0.057379
588 2 107.44 55.5425 0.160063
589 2 111.265 55.6489 15.9003
590 2 115.377 55.8401 0.226663
591 2 119.248 55.5842 0.22859
592 2 123.044 55.6921 -0.0175916
593 2 126.957 55.5982 15.7246
594 2 131.032 55.4267 15.9462
595 2 134.839 55.5433 15.6811
596 2 138.806 55.3372 0.11758
597 2 142.763 55.2794 0.192393
598 2 146.615 55.2809 15.7987
599 2 150.485 55.32 15.982
600 2 154.339 55.1289 0.23308
601 2 0.0054172 59.0408 0.244428
602 2 3.86604 59.0769 0.216849
603 2 7.72778 59.0289 0.2236
604 2 11.9738 58.9009 15.6886
605 2 15.8148 58.7568 0.221047
606 2 19.4958 58.9036 15.6888
607 2 23.4956 58.6368 15.6934
608 2 27.5631 58.5883 0.122659
609 2 31.3229 58.4722 15.8417
610 2 35.1408 58.346 0.0999818
611 2 39.1841 58.3225 0.0200941
612 2 43.3734 58.6653 15.8018
613 2 47.2562 58.7226 0.210439
614 2 51.2578 58.6248 16.0766
615 2 55.399 58.7482 16.2118
616 2 59.0882 58.8775 16.1837
617 2 63.0708 59.0624 0.302355
618 2 67.2444 59.1935 15.7705
619 2 71.2223 58.9492 0.0895197
620 2 75.1909 58.9926 0.251447
621 2 79.2984 59.1028 15.863
622 2 83.2449 59.1759 15.7925
623 2 87.3842 59.0703 -0.0418719
624 2 91.23 59.3279 0.0148081
625 2 95.3216 59.2944 -0.0267611
626 2 99.2885 59.3378 15.7678
627 2 103.38 59.2789 0.0816629
628 2 107.347 59.559 0.159336
629 2 111.112 59.5413 0.151125
630 2 115.436 59.6377 0.347725
631 2 119.337 59.5169 0.21667
632 2 123.288 59.5992 0.0874285
633 2 127.105 59.6252 -0.0338788
634 2 130.928 59.4253 15.8989
635 2 134.891 59.3093 -0.0406531
636 2 138.787 59.3789 0.158679
637 2 142.581 59.5279 16.1531
638 2 146.745 59.2998 0.176616
639 2 150.618 59.4269 0.0766835
640 2 154.406 59.1568 0.112404
641 2 0.249297 63.1747 16.0705
642 2 3.88408 63.039 15.8794
643 2 7.73259 62.9283 0.0430647
644 2 11.7786 62.8569 0.207942
645 2 15.6941 62.8157 15.91
646 2 19.7224 62.7966 15.8515
647 2 23.5239 62.6282 15.7794
648 2 27.3885 62.7523 -0.0350099
649 2 31.2752 62.5596 15.7569
650 2 35.3128 62.5301 15.8401
651 2 39.085 62.3344 0.205706
652 2 43.0923 62.4342 0.207994
653 2 47.1358 62.4862 15.9156
654 2 51.3308 62.77 0.208358
655 2 55.0365 62.5824 0.126502
656 2 59.3632 62.6233 0.26009
657 2 63.3586 62.7429 0.312617
658 2 67.1665 62.8792 0.241429
659 2 71.2928 62.7878 0.0614562
660 2 75.1471 62.8855 15.9541
661 2 79.2801 62.9923 15.915
662 2 83.122 62.9122 15.7969
663 2 87.2512 62.986 0.21699
664 2 91.3777 63.2773 15.7989
665 2 95.2161 63.2602 0.202575
666 2 99.4177 63.3293 0.0523514
667 2 103.385 63.4789 0.00964238
668 2 107.302 63.4578 0.174762
669 2 111.179 63.5052 0.26504
670 2 115.268 63.4148 0.288245
671 2 119.327 63.4672 15.988
672 2 123.351 63.7716 15.8949
673 2 127.296 63.4514 15.8984
674 2 131.305 63.6615 0.0019188
675 2 135.13 63.5496 15.6995
676 2 139.007 63.502 -0.110197
677 2 142.854 63.4194 0.150832
678 2 146.568 63.3821 -0.0127217
679 2 150.554 63.2437 15.9275
680 2 154.666 63.2671 15.8841
681 2 0.171835 67.0955 0.0672724
682 2 4.10045 67.0948 -0.11781
683 2 8.18057 66.9314 0.125236
684 2 11.8938 67.0031 15.9012
685 2 15.8158 66.8302 15.7355
686 2 19.7469 66.8271 15.9493
687 2 23.7733 66.6249 15.9743
688 2 27.5849 66.7154 15.8917
689 2 31.6368 66.7641 0.13835
690 2 35.4768 66.4489 0.0318719
691 2 39.2416 66.7834 0.285019
692 2 43.0742 66.3987 15.7996
693 2 47.2786 66.5015 0.212355
694 2 51.1427 66.4948 16.0614
695 2 54.9208 66.5747 15.7622
696 2 59.1008 66.4813 16.0707
697 2 63.1675 66.7568 15.9851
698 2 66.9466 66.602 15.924
699 2 71.1895 66.5326 0.403929
700 2 75.2979 66.7858 0.271133
701 2 79.1798 66.9776 15.9772
702 2 83.1655 66.9611 15.8533
703 2 87.0696 66.8832 15.9977
704 2 91.2629 67.277 0.115665
705 2 95.2416 67.2398 15.8381
706 2 99.2305 67.2281 15.9214
707 2 103.323 67.4605 0.184002
708 2 107.302 67.2697 15.9214
709 2 111.293 67.3406 0.00784591
710 2 115.321 67.2804 0.178895
711 2 119.064 67.4305 0.236977
712 2 123.285 67.7752 15.9606
713 2 127.284 67.4976 15.861
714 2 131.09 67.4938 15.9366
715 2 135.155 67.5873 15.8781
716 2 138.965 67.4338 15.9191
717 2 142.892 67.5592 15.7437
718 2 146.884 67.2497 0.0789588
719 2 150.589 67.3117 15.9159
720 2 154.355 67.3209 15.8879
721 2 0.305858 71.122 15.8693
722 2 4.18255 71.1342 15.891
723 2 8.35182 71.1616 0.0675628
724 2 12.1082 70.8676 16.0058
725 2 15.8555 70.9168 15.8461
726 2 19.5571 71.0169 0.0271765
727 2 23.5154 70.6952 15.9213
728 2 27.661 70.5456 16.0791
729 2 31.6201 70.7433 15.7902
730 2 35.6563 70.7111 15.8123
731 2 39.3846 70.5496 16.1761
732 2 43.1371 70.4106 0.148581
733 2 47.2798 70.3196 16.012
734 2 51.0164 70.2268 15.9846
735 2 54.9573 70.3843 15.9027
736 2 58.9772 70.4685 0.194582
737 2 62.9733 70.4468 15.8203
738 2 67.1538 70.6191 0.129744
739 2 71.1741 70.6092 16.0082
740 2 75.0652 70.8213 15.817
741 2 79.222 70.8933 15.897
742 2 83.2091 71.0131 0.100762
743 2 87.1002 70.8679 15.8554
744 2 91.2616 70.9193 0.145221
745 2 95.0072 71.3258 0.221766
746 2 98.9205 71.0597 15.8243
747 2 103.197 71.2181 0.412317
748 2 106.957 71.341 0.289361
749 2 111.249 71.277 16.0424
750 2 115.148 71.3735 0.0467071
751 2 118.964 71.4697 16.0436
752 2 123.104 71.4757 0.353172
753 2 127.239 71.55 15.7839
754 2 131.133 71.4221 15.7971
755 2 135.15 71.5121 15.9046
756 2 139.237 71.3801 15.923
757 2 143.085 71.3732 15.6257
758 2 146.741 71.421 15.8745
759 2 150.568 71.2327 15.5298
760 2 154.67 71.1354 16.0278
761 2 0.218083 75.2044 15.7679
762 2 4.18475 75.0914 15.8104
763 2 8.00457 75.1742 15.9601
764 2 12.1616 75.0619 15.7987
765 2 15.947 75.0069 15.6329
766 2 19.6791 74.7529 15.7654
767 2 23.7087 74.6607 16.088
768 2 27.738 74.519 16.0199
769 2 31.7778 74.7315 0.338118
770 2 35.579 74.5031 15.9993
771 2 39.6078 74.5486 15.7206
772 2 43.2098 74.2926 0.180611
773 2 47.1574 74.3555 15.969
774 2 51.0446 74.2108 -0.112176
775 2 55.0105 74.4141 15.9289
776 2 58.9188 74.417 15.9454
777 2 62.8717 74.4556 15.9336
778 2 67.0595 74.4344 15.9028
779 2 71.1132 74.3891 15.9881
780 2 74.9891 74.6826 0.133383
781 2 79.025 74.7875 15.9022
782 2 83.1756 74.6509 15.9594
783 2 87.141 74.8619 15.8215
784 2 91.0157 74.9629 0.170333
785 2 95.0113 74.9975 16.0116
786 2 98.9807 75.2003 0.127743
787 2 103.043 75.1955 15.9766
788 2 107.187 75.1307 0.101084
789 2 111.171 75.3937 16.051
790 2 114.887 75.3834 0.0163145
791 2 118.967 75.4704 15.7451
792 2 123.151 75.2653 15.9441
793 2 127.079 75.3557 0.150044
794 2 131.101 75.5456 0.162684
795 2 135.201 75.3039 15.9996
796 2 139.139 75.5292 15.8714
797 2 142.882 75.4401 0.0149724
798 2 146.797 75.4088 15.7324
799 2 150.927 75.2339 15.8148
800 2 154.798 75.2327 0.0141297
801 2 0.667619 79.2411 15.825
802 2 4.38414 79.232 15.9598
803 2 8.24048 79.1261 15.9733
804 2 12.1834 78.9754 15.9211
805 2 16.0358 78.789 15.9126
806 2 19.9528 78.8013 16.1317
807 2 23.742 78.6065 15.9664
808 2 27.7764 78.612 15.7481
809 2 31.5898 78.691 0.374546
810 2 35.7017 78.6224 15.9526
811 2 39.5326 78.4351 0.178311
812 2 43.5171 78.3604 0.124846
813 2 47.3565 78.2875 0.258142
814 2 51.0687 78.3293 15.7493
815 2 55.0278 78.1419 15.8495
816 2 58.9716 78.2418 16.1499
817 2 62.7683 78.3258 16.0014
818 2 67.0003 78.4183 15.7095
819 2 70.9215 78.2785 15.7199
820 2 75.1077 78.6557 15.7865
821 2 79.1159 78.7323 0.258816
822 2 82.8875 78.6333 0.153218
823 2 87.0573 78.7396 0.122491
824 2 91.0612 78.736 0.163145
825 2 95.0406 78.8559 0.112737
826 2 99.0368 79.1468 15.9284
827 2 103.045 78.9684 0.13451
828 2 107.181 79.0695 15.9391
829 2 110.974 79.2458 0.317165
830 2 115.098 79.2482 15.8484
831 2 119.08 79.3126 0.084723
832 2 122.964 79.3077 0.191575
833 2 127.003 79.3831 15.7269
834 2 130.84 79.5293 0.0752128
835 2 135.023 79.1645 15.9514
836 2 139.091 79.2336 15.8188
837 2 142.969 79.305 15.7284
838 2 147.197 79.399 15.8827
839 2 150.876 79.3563 16.0663
840 2 154.677 79.1984 15.9095
841 2 0.531332 83.1232 15.9314
842 2 4.20851 83.3324 15.8622
843 2 8.13927 83.0297 15.7405
844 2 12.1062 82.8531 15.8217
845 2 16.0299 82.8138 15.7714
846 2 19.9353 82.8115 16.0059
847 2 23.9805 82.6944 15.8598
848 2 27.9571 82.6768 15.8514
849 2 31.5054 82.603 15.8477
850 2 35.4628 82.5253 15.8578
851 2 39.6946 82.5283 0.269811
852 2 43.5228 82.4878 15.8783
853 2 47.346 82.26 15.939
854 2 51.3961 82.3382 15.7607
855 2 55.0578 82.1827 15.8307
856 2 59.1217 82.1385 16.051
857 2 63.1208 82.2575 15.7566
858 2 67.0499 82.1514 0.253257
859 2 71.1122 82.1934 -0.0300492
860 2 74.8475 82.3537 15.9533
861 2 78.9936 82.6751 -0.0195377
862 2 82.8962 82.6112 15.7062
863 2 86.8255 82.5711 15.9023
864 2 91.0003 82.6256 0.240536
865 2 95.0318 82.8135 15.9709
866 2 98.7956 82.8668 15.9248
867 2 103.066 82.9088 0.0939586
868 2 106.898 83.032 0.391922
869 2 110.811 83.1874 15.7965
870 2 114.669 83.0591 15.8279
871 2 118.913 83.3728 -0.0148999
872 2 122.874 83.2843 15.8051
873 2 126.934 83.3229 0.303941
874 2 131.106 83.1692 15.9092
875 2 135.013 83.218 0.0503538
876 2 138.822 83.3224 15.7473
877 2 142.84 83.2328 0.138544
878 2 147.22 83.3703 -0.00785435
879 2 150.914 83.3664 15.8625
880 2 154.79 83.5803 15.9135
881 2 0.577727 87.0501 15.9501
882 2 4.47044 87.3415 0.0777228
883 2 8.33597 86.9527 15.7663
884 2 12.3018 86.8008 15.7507
885 2 15.9127 86.9417 0.283998
886 2 19.9341 86.8401 15.9302
887 2 24.1676 86.7186 15.7945
888 2 27.9741 86.8954 16.0584
889 2 31.857 86.6108 15.7562
890 2 35.6427 86.6921 15.8372
891 2 39.5319 86.5089 15.8507
892 2 43.4688 86.5937 15.9287
893 2 47.1568 86.5107 0.173652
894 2 51.2031 86.4509 0.0174367
895 2 55.1783 86.4 0.0239117
896 2 59.1893 86.2233 15.958
897 2 63.0706 86.1133 15.9368
898 2 66.9839 86.1055 0.0396056
899 2 70.9484 86.2081 0.23271
900 2 74.9759 86.383 15.8717
901 2 78.8107 86.6102 0.220736
902 2 82.81 86.5528 0.0751342
903 2 86.6383 86.5322 16.1365
904 2 90.8474 86.7019 0.498022
905 2 94.8533 86.7134 16.014
906 2 98.8982 86.8991 15.7026
907 2 102.812 86.8214 0.20057
908 2 106.952 86.966 0.105141
909 2 110.778 87.1156 15.6837
910 2 115.012 87.2057 0.0677585
911 2 119.081 87.0708 0.225388
912 2 123.004 86.9532 0.251082
913 2 127.112 87.1003 15.9212
914 2 131.195 87.177 0.15597
915 2 134.906 87.1897 15.9252
916 2 139.115 87.1953 -0.104439
917 2 143.011 87.1621 0.187229
918 2 146.991 87.257 0.0844679
919 2 150.883 87.2126 15.9749
920 2 154.991 87.1737 15.8045
921 2 0.675323 91.0835 15.8577
922 2 4.43214 91.1884 0.287292
923 2 8.24453 91.0499 0.432267
924 2 12.3948 91.0479 0.255642
925 2 16.2903 90.826 16.0982
926 2 20.155 90.7627 15.801
927 2 24.0536 90.7841 15.8075
928 2 27.9849 90.6683 15.9385
929 2 32.0569 90.5411 15.9183
930 2 35.7584 90.5703 15.9341
931 2 39.6758 90.4691 15.7785
932 2 43.5927 90.3598 0.0211555
933 2 47.3855 90.4215 15.8706
934 2 51.3439 90.4276 15.9033
935 2 55.3458 90.3695 16.0067
936 2 59.1799 90.156 15.8934
937 2 63.0821 90.2872 -0.0536372
938 2 66.9511 90.2048 15.9876
939 2 71.0285 90.3254 15.741
940 2 74.9715 90.2119 16.0552
941 2 78.7466 90.3393 0.258222
942 2 82.7978 90.487 0.295509
943 2 86.7573 90.6279 15.9509
944 2 90.6993 90.534 0.38717
945 2 94.8139 90.7195 0.0663368
946 2 98.7507 90.8112 0.123555
947 2 102.888 90.6052 0.24249
948 2 106.882 90.9795 0.137089
949 2 110.861 91.0729 15.8513
950 2 114.893 91.0105 0.168441
951 2 118.836 90.9447 0.270093
952 2 122.963 90.969 0.22609
953 2 126.868 91.0624 0.266291
954 2 130.661 91.1965 15.7316
955 2 134.896 91.0618 0.182542
956 2 138.896 91.1609 0.224504
957 2 142.945 91.3627 0.238359
958 2 147.006 91.3166 0.0712015
959 2 150.883 91.4748 15.927
960 2 154.772 90.9548 0.108007
961 2 0.45421 95.0339 16.0291
962 2 4.57198 95.2877 15.8806
963 2 8.53078 94.9625 0.0692036
964 2 12.2904 94.9779 15.8
965 2 16.177 94.8157 16.0701
966 2 20.2462 94.5756 15.952
967 2 24.1875 94.6749 15.9176
968 2 28.0131 94.6588 15.8522
969 2 31.9386 94.5269 16.0083
970 2 35.7689 94.5868 0.183272
971 2 39.6499 94.455 16.0446
972 2 43.657 94.5419 16.0818
973 2 47.4955 94.505 15.9732
974 2 51.3198 94.6149 0.0214767
975 2 55.359 94.4581 15.9333
976 2 59.1432 94.2408 16.0522
977 2 62.9747 94.1589 16.0082
978 2 66.9688 94.1833 0.232866
979 2 70.9339 94.3068 0.210231
980 2 74.7146 93.9946 15.9695
981 2 78.7822 94.2933 16.0537