ITEM: TIMESTEP
16100
ITEM: NUMBER OF ATOMS
32000
ITEM: BOX BOUNDS xy xz yz pp pp pp
0.0000000000000000e+00 1.5831999999999999e+02 0.0000000000000000e+00
0.0000000000000000e+00 1.5831999999999999e+02 0.0000000000000000e+00
1.6496891785615908e-01 1.5932743082143633e+01 0.0000000000000000e+00
ITEM: ATOMS id type x y z
1 2 158.086 157.797 15.8107
2 2 3.77213 157.674 0.191067
3 2 7.86345 157.685 0.193542
4 2 11.5545 158.095 15.9841
5 2 15.6772 157.856 0.110312
6 2 19.8458 158.062 0.172065
7 2 23.8287 158.001 15.9264
8 2 27.8075 158.088 0.147482
9 2 31.6999 158.182 15.9932
10 2 35.72 158.391 0.203887
11 2 39.6396 158.422 0.28599
12 2 43.849 158.606 15.8022
13 2 47.9335 0.0702218 16.0627
14 2 51.9857 0.188837 15.873
15 2 55.938 158.627 15.791
16 2 59.7276 0.25867 15.798
17 2 63.8405 0.265983 0.0659758
18 2 67.7808 0.134111 0.0844803
19 2 71.6274 158.358 15.7933
20 2 75.5227 158.351 15.9483
21 2 79.4031 158.256 16.0133
22 2 83.0859 158.319 0.361326
23 2 87.2067 158.301 0.126699
24 2 91.0659 158.211 0.114596
25 2 95.0153 158.092 0.185423
26 2 99.0096 158.128 0.407061
27 2 102.967 157.914 0.176357
28 2 106.962 157.793 15.9339
29 2 110.952 157.816 0.228877
30 2 114.625 157.652 0.198628
31 2 118.466 157.67 0.187785
32 2 122.397 157.726 15.9861
33 2 126.473 157.745 16.0261
34 2 130.271 157.636 15.8619
35 2 134.382 157.748 15.8288
36 2 138.243 157.503 15.7989
37 2 142.143 157.508 15.912
38 2 146.104 157.716 16.0035
39 2 150.233 157.682 16.0995
40 2 154.114 157.928 15.9876
41 2 158.274 3.28849 0.260589
42 2 3.77847 3.31209 15.8291
43 2 7.57231 3.59091 0.346121
44 2 11.7485 3.36899 0.34664
45 2 15.6911 3.53942 0.330757
46 2 19.5794 3.57487 15.8599
47 2 23.7037 3.80463 0.262117
48 2 27.5903 3.70991 0.129094
49 2 31.7157 3.87853 0.314929
50 2 35.7847 3.7882 0.123023
51 2 39.7558 3.98365 0.281065
52 2 43.8122 4.00395 0.13809
53 2 47.9489 4.1119 15.9773
54 2 51.8686 4.071 0.273309
55 2 55.8277 4.11335 0.132469
56 2 59.8224 3.96557 0.0423311
57 2 63.915 4.15651 15.8333
58 2 67.8632 4.17302 0.164377
59 2 71.6209 4.13932 0.205189
60 2 75.5952 4.03552 0.258756
61 2 79.4597 3.93922 0.15624
62 2 83.5164 4.0786 0.165903
63 2 87.227 3.91581 0.372279
64 2 91.1596 3.99949 0.197148
65 2 95.0869 3.83009 16.129
66 2 99.1355 3.77541 0.351359
67 2 103.047 3.63797 0.229117
68 2 107.001 3.73606 15.8792
69 2 110.693 3.74693 16.0544
70 2 114.604 3.34782 16.0255
71 2 118.449 3.40055 15.9036
72 2 122.556 3.2055 0.267604
73 2 126.482 3.30062 16.0477
74 2 130.377 3.24283 0.217969
75 2 134.233 3.1595 16.1853
76 2 138.144 3.2604 0.211112
77 2 141.95 3.22374 15.9908
78 2 146.015 3.20865 0.188761
79 2 150.091 3.22994 16.1414
80 2 153.98 3.3319 16.0461
81 2 158.116 7.30098 0.261333
82 2 3.68268 7.22805 16.0355
83 2 7.72631 7.31948 15.9786
84 2 11.6502 7.35382 16.1873
85 2 15.6268 7.29548 0.198155
86 2 19.5181 7.35307 15.9497
87 2 23.4269 7.65265 0.124685
88 2 27.6899 7.61865 0.239199
89 2 31.6105 7.90549 16.0517
90 2 35.5799 7.89283 16.2109
91 2 39.6568 7.78036 15.925
92 2 43.725 7.79084 16.0462
93 2 47.937 7.96431 0.414098
94 2 51.7865 7.95131 15.835
95 2 55.7245 8.08655 0.171631
96 2 59.8343 8.12619 0.256028
97 2 63.8223 8.03618 0.150781
98 2 67.6712 8.10667 0.127888
99 2 71.7401 8.28185 0.17011
100 2 75.7089 7.9497 0.350502
101 2 79.3706 7.84432 16.0753
102 2 83.2653 7.95469 0.148878
103 2 87.3315 7.83305 16.0881
104 2 91.3501 8.05834 -0.0486885
105 2 95.3266 7.74577 0.27184
106 2 99.2419 7.69106 0.230177
107 2 103.012 7.59226 0.280293
108 2 107.098 7.70448 0.0949327
109 2 110.807 7.68785 -0.00118662
110 2 114.948 7.40843 0.24107
111 2 118.763 7.37516 0.194904
112 2 122.788 7.3748 0.21009
113 2 126.686 7.26083 15.9371
114 2 130.412 7.19413 0.129183
115 2 134.299 7.39819 0.16335
116 2 138.064 7.31943 15.8492
117 2 142.117 7.13055 15.6706
118 2 146.261 6.99301 0.0775511
119 2 150.124 7.01218 15.8837
120 2 154.036 7.27781 16.0313
121 2 157.79 11.0158 0.170443
122 2 3.59954 11.1637 0.360988
123 2 7.56218 11.2885 16.1256
124 2 11.6517 11.5542 16.2474
125 2 15.483 11.2789 15.9185
126 2 19.5765 11.5198 0.286918
127 2 23.5835 11.4107 0.10162
128 2 27.5656 11.5761 0.215385
129 2 31.4739 11.6741 0.217531
130 2 35.5775 11.5452 0.129606
131 2 39.6099 11.7483 0.159868
132 2 43.7004 11.8604 16.0172
133 2 47.9513 11.9031 15.9816
134 2 51.9597 11.82 16.098
135 2 55.7627 11.9937 0.191142
136 2 59.921 11.8474 15.856
137 2 63.8294 11.8838 0.17815
138 2 67.8713 12.0461 15.9146
139 2 71.7717 12.0053 0.265871
140 2 75.6015 11.9365 0.335003
141 2 79.436 11.9558 0.277386
142 2 83.3352 11.95 0.189829
143 2 87.2479 11.9556 0.193753
144 2 91.3059 11.8097 0.23826
145 2 95.132 11.8582 0.151401
146 2 99.2928 11.8311 0.0657029
147 2 103.136 11.6211 0.136372
148 2 106.861 11.7563 0.408804
149 2 110.864 11.5991 -0.0136223
150 2 114.762 11.4068 0.268259
151 2 118.834 11.4429 0.0329177
152 2 122.708 11.2581 0.169617
153 2 126.608 11.2519 0.0888152
154 2 130.369 11.3268 15.9483
155 2 134.535 11.3344 0.256303
156 2 138.328 11.244 0.339266
157 2 142.463 11.2855 15.9602
158 2 146.22 11.0458 16.0605
159 2 150.256 11.249 16.1028
160 2 153.953 11.1502 16.1477
161 2 158.004 14.9927 0.427938
162 2 3.428 15.1008 0.578656
163 2 7.60402 15.1911 0.288432
164 2 11.4488 15.3579 16.0724
165 2 15.4276 15.326 15.8876
166 2 19.4976 15.3571 0.162099
167 2 23.6994 15.3017 0.215856
168 2 27.5102 15.3718 15.9082
169 2 31.536 15.67 16.005
170 2 35.6284 15.5157 0.0932784
171 2 39.7462 15.5936 15.9383
172 2 43.658 15.7645 0.278675
173 2 47.6076 15.6719 0.113315
174 2 51.6482 15.6332 0.197374
175 2 55.6921 15.7187 15.9234
176 2 59.6638 15.8886 0.145419
177 2 63.6547 15.969 0.287473
178 2 67.8719 15.8749 0.176034
179 2 71.7905 16.0948 0.264567
180 2 75.7015 16.0298 16.1322
181 2 79.5887 16.1782 0.0475872
182 2 83.6305 15.8018 0.272993
183 2 87.5339 15.961 0.4457
184 2 91.2594 15.8782 0.295264
185 2 95.404 15.8023 0.204477
186 2 99.0503 15.6805 0.13583
187 2 102.898 15.612 0.2379
188 2 107.101 15.5061 0.022087
189 2 111.049 15.4875 0.057288
190 2 114.944 15.5184 0.0829753
191 2 118.715 15.3771 0.169061
192 2 122.725 15.2741 16.0105
193 2 126.735 15.3557 0.271755
194 2 130.552 15.2901 0.244
195 2 134.373 15.1555 0.410194
196 2 138.321 15.2478 0.155167
197 2 142.267 15.2173 0.464719
198 2 146.305 15.1353 0.125081
199 2 150.172 15.1871 16.0427
200 2 153.904 14.9401 0.255128
201 2 157.837 19.1808 16.1644
202 2 3.51054 18.9457 0.361066
203 2 7.49758 19.1528 15.9886
204 2 11.4274 19.2655 16.0063
205 2 15.392 19.285 15.9624
206 2 19.6039 19.2539 0.110161
207 2 23.6214 19.4292 0.266777
208 2 27.5533 19.5281 0.0653909
209 2 31.6139 19.4305 15.9222
210 2 35.4826 19.3772 15.9179
211 2 39.7409 19.4663 0.287554
212 2 43.5616 19.7009 15.7758
213 2 47.6374 19.6344 15.9438
214 2 51.6151 19.6712 15.8603
215 2 55.666 19.7431 15.8827
216 2 59.7937 19.8971 15.9852
217 2 63.8884 19.7209 16.0014
218 2 67.5666 20.0144 15.6599
219 2 71.8568 19.9079 0.0975887
220 2 75.7411 20.0216 0.190527
221 2 79.7556 19.9406 0.215332
222 2 83.8124 19.9508 0.166798
223 2 87.5303 19.9764 15.935
224 2 91.3355 19.6766 0.0315931
225 2 95.5552 19.7079 0.352841
226 2 99.1962 19.6366 15.9882
227 2 103.248 19.6003 16.0176
228 2 107.22 19.6517 15.8804
229 2 110.966 19.4148 0.15964
230 2 114.929 19.5038 0.0710338
231 2 118.902 19.4354 15.9737
232 2 122.746 19.4573 0.140826
233 2 126.476 19.2835 0.208481
234 2 130.453 19.3523 0.345556
235 2 134.543 19.1384 15.8991
236 2 138.34 19.1793 15.9702
237 2 142.251 19.2071 0.199703
238 2 146.331 19.1403 0.139807
239 2 150.131 19.0709 0.154941
240 2 154.048 18.8996 16.0571
241 2 157.914 22.9778 16.0396
242 2 3.55194 23.0617 16.0561
243 2 7.44691 23.0817 0.328247
244 2 11.3593 23.2191 15.9773
245 2 15.2824 22.9965 16.0977
246 2 19.4791 23.1738 0.470807
247 2 23.5529 23.187 15.7894
248 2 27.3648 23.2531 15.8197
249 2 31.3444 23.276 0.0485673
250 2 35.3443 23.352 15.919
251 2 39.4668 23.3469 0.267202
252 2 43.5239 23.5771 16.0097
253 2 47.4044 23.535 15.8816
254 2 51.4346 23.5511 0.220326
255 2 55.7105 23.5448 16.1602
256 2 59.6722 23.8093 15.9874
257 2 63.6073 23.7203 15.9106
258 2 67.6918 23.7497 0.127396
259 2 71.7173 23.8062 0.0836221
260 2 75.8399 23.8464 0.320718
261 2 79.9636 24.0797 15.8864
262 2 83.6045 23.8436 15.9826
263 2 87.7995 23.8991 0.146898
264 2 91.5463 24.0241 16.0848
265 2 95.4856 23.6721 16.1659
266 2 99.4315 23.685 0.299718
267 2 103.316 23.5999 0.276045
268 2 107.312 23.6106 0.323158
269 2 111.093 23.3977 0.197429
270 2 115.002 23.48 15.92
271 2 118.926 23.3357 15.774
272 2 122.684 23.3433 0.203917
273 2 126.589 23.4111 0.330788
274 2 130.593 23.3172 15.9261
275 2 134.43 23.2758 0.101174
276 2 138.451 23.1474 16.0499
277 2 142.178 23.1397 0.100541
278 2 146.334 23.0283 0.0743975
279 2 150.034 22.9915 0.186701
280 2 154.093 22.9703 0.250857
281 2 157.875 27.2617 0.399167
282 2 3.44621 27.0931 15.9535
283 2 7.22443 27.0291 0.380466
284 2 11.3152 27.0119 16.0838
285 2 15.0926 26.9492 16.1369
286 2 19.2369 26.9226 0.192654
287 2 23.2597 27.3226 0.343433
288 2 27.5071 27.1074 0.263936
289 2 31.3957 27.4743 15.8171
290 2 35.5076 27.2885 -0.00526202
291 2 39.3111 27.3677 0.153495
292 2 43.4353 27.5467 16.0092
293 2 47.4752 27.4929 0.210992
294 2 51.5716 27.5461 0.11417
295 2 55.564 27.5375 0.137663
296 2 59.6796 27.6838 0.172274
297 2 63.8234 27.7559 0.218236
298 2 67.7097 27.7976 0.0143194
299 2 71.6737 27.8418 -0.0518283
300 2 75.8741 27.8286 15.8943
301 2 79.6255 27.8026 0.130463
302 2 83.6386 27.9251 16.072
303 2 87.5255 28.0564 0.120932
304 2 91.5776 27.7081 16.0655
305 2 95.4028 27.6786 16.13
306 2 99.482 27.752 0.257654
307 2 103.318 27.6665 0.460473
308 2 106.923 27.7635 16.0494
309 2 111.163 27.4332 0.277039
310 2 114.895 27.6175 15.9772
311 2 118.875 27.4015 15.8545
312 2 122.792 27.4876 0.243526
313 2 126.641 27.4701 0.126043
314 2 130.633 27.29 0.42824
315 2 134.674 27.1989 16.1178
316 2 138.44 27.3954 0.225125
317 2 142.266 27.1888 0.185744
318 2 146.067 27.1858 0.307003
319 2 150.101 27.0101 0.151954
320 2 154.043 27.2709 15.9027
321 2 157.951 31.0822 16.0455
322 2 3.60856 30.9931 0.385567
323 2 7.48955 31.0546 0.382961
324 2 11.4931 31.1497 16.2582
325 2 15.3467 30.9991 0.312843
326 2 19.2992 31.0995 15.9134
327 2 23.3236 31.1625 15.9119
328 2 27.2677 31.19 0.118156
329 2 31.4742 31.3066 0.232366
330 2 35.4822 31.1798 15.9235
331 2 39.2876 31.3792 16.0562
332 2 43.4674 31.4799 0.211085
333 2 47.4841 31.458 16.0469
334 2 51.5929 31.3934 16.1124
335 2 55.3711 31.3278 0.137746
336 2 59.797 31.5011 0.303087
337 2 63.6343 31.6605 15.9202
338 2 67.621 31.8132 0.294273
339 2 71.6407 31.7313 15.7986
340 2 75.6183 31.8059 -0.00891792
341 2 79.5871 31.5395 0.0764169
342 2 83.7298 31.845 15.9
343 2 87.6635 31.9392 -0.0225964
344 2 91.5512 31.7285 0.180467
345 2 95.5344 31.7178 0.0611268
346 2 99.4795 31.582 0.266733
347 2 103.458 31.6546 16.0047
348 2 107.327 31.6205 0.308352
349 2 111.291 31.6237 15.9109
350 2 115.074 31.5352 0.0936771
351 2 118.666 31.6959 15.8639
352 2 122.753 31.4558 0.0680403
353 2 126.693 31.3597 0.210244
354 2 130.598 31.4234 0.236691
355 2 134.583 31.3549 0.170638
356 2 138.376 31.2663 15.8789
357 2 142.415 31.1715 16.0078
358 2 146.103 31.1582 16.0597
359 2 150.207 30.9653 15.9929
360 2 154.101 31.072 16.0922
361 2 157.991 35.0023 16.0509
362 2 3.4986 35.1586 0.326843
363 2 7.39729 34.8537 0.212477
364 2 11.5732 34.9285 16.0337
365 2 15.5062 34.7887 0.124681
366 2 19.2577 34.9701 16.0144
367 2 23.253 35.0184 16.0122
368 2 27.2043 34.8355 0.101155
369 2 31.4497 35.1395 0.037312
370 2 35.3293 35.0972 15.993
371 2 39.4642 35.0798 0.183292
372 2 43.4237 35.3299 15.7791
373 2 47.4191 35.2958 15.9674
374 2 51.555 35.3193 0.299375
375 2 55.6912 35.2442 15.8475
376 2 59.5873 35.4606 0.254734
377 2 63.7538 35.4301 0.0502983
378 2 67.6234 35.4483 0.127265
379 2 71.5675 35.7582 -0.00560886
380 2 75.8488 35.6984 15.9754
381 2 79.7552 35.7349 15.8277
382 2 83.4684 35.8121 0.037254
383 2 87.4824 35.7407 0.110258
384 2 91.6839 35.8754 16.0854
385 2 95.5901 35.7987 15.8827
386 2 99.5097 35.7025 0.351304
387 2 103.247 35.7229 16.0432
388 2 107.086 35.6011 0.323118
389 2 111.122 35.6752 15.9989
390 2 114.943 35.6135 0.208438
391 2 118.993 35.479 16.0587
392 2 122.833 35.4635 16.0783
393 2 126.89 35.4771 0.177157
394 2 130.831 35.3884 0.111279
395 2 134.523 35.3586 16.1214
396 2 138.468 35.2713 15.9529
397 2 142.488 35.2239 16.2352
398 2 146.303 35.1123 15.8367
399 2 150.142 34.9188 0.293318
400 2 154.163 34.9439 0.249273
401 2 158.031 39.1847 0.264768
402 2 3.61875 38.8895 15.919
403 2 7.53114 39.0145 16.1611
404 2 11.5188 38.735 0.123202
405 2 15.5431 38.908 0.338614
406 2 19.4422 38.7995 16.0951
407 2 23.2686 39.02 16.0226
408 2 27.2755 38.8443 0.133462
409 2 31.1376 38.8281 15.9551
410 2 35.3009 39.0123 0.299092
411 2 39.2871 38.9631 0.237671
412 2 43.4919 39.0862 -0.0129592
413 2 47.5011 39.1645 0.203471
414 2 51.4355 38.9276 0.307605
415 2 55.4031 39.3499 0.274178
416 2 59.515 39.1478 0.246842
417 2 63.3564 39.2089 15.8677
418 2 67.6979 39.492 0.147258
419 2 71.65 39.5874 0.259814
420 2 75.6444 39.6186 0.0748624
421 2 79.5632 39.6454 15.8012
422 2 83.6482 39.739 15.6958
423 2 87.7443 39.64 15.757
424 2 91.7416 39.8922 15.9404
425 2 95.4849 39.8306 15.9415
426 2 99.4078 39.5968 0.12622
427 2 103.282 39.7908 0.209911
428 2 107.14 39.7957 15.8265
429 2 110.934 39.7051 15.8411
430 2 115.092 39.4557 15.8989
431 2 119.133 39.5746 15.9006
432 2 123.105 39.4158 0.372246
433 2 127.018 39.4009 15.9312
434 2 130.803 39.3705 0.299684
435 2 134.677 39.4488 0.288319
436 2 138.601 39.4191 16.1598
437 2 142.459 39.2974 16.1376
438 2 146.283 39.1898 0.291357
439 2 150.126 39.0187 16.2
440 2 154.245 38.9374 0.174516
441 2 158.146 42.9021 0.113853
442 2 3.82747 42.8788 0.226855
443 2 7.63208 43.0194 0.328898
444 2 11.5108 42.8323 0.00277875
445 2 15.39 42.868 0.0961618
446 2 19.3651 42.875 15.8084
447 2 23.2751 42.8411 0.255722
448 2 27.41 42.6601 0.0754346
449 2 31.2305 42.9215 0.460108
450 2 35.242 42.8367 0.247544
451 2 39.391 43.0094 -0.105498
452 2 43.4211 42.9136 0.112006
453 2 47.4106 42.8761 0.296526
454 2 51.3735 43.0084 0.34015
455 2 55.2926 43.1713 0.126059
456 2 59.2973 43.2526 0.010831
457 2 63.4833 43.1883 0.341339
458 2 67.5583 43.2879 15.9068
459 2 71.6259 43.3596 15.7072
460 2 75.6656 43.4153 0.0414135
461 2 79.6925 43.522 0.208442
462 2 83.6944 43.6391 15.6963
463 2 87.5635 43.7383 15.9579
464 2 91.4935 43.64 15.9757
465 2 95.4827 43.612 0.197896
466 2 99.5933 43.7555 -0.014056
467 2 103.399 43.7689 0.153061
468 2 107.553 43.8622 0.0928423
469 2 111.233 43.8175 15.7675
470 2 115.181 43.5855 15.9565
471 2 119.147 43.5168 0.282269
472 2 122.893 43.5046 0.223464
473 2 127.026 43.3918 0.177935
474 2 130.939 43.5442 0.280845
475 2 134.767 43.4644 16.1324
476 2 138.54 43.2094 16.075
477 2 142.619 43.5085 16.0909
478 2 146.499 43.2036 16.2215
479 2 150.503 43.0617 0.238646
480 2 154.31 42.9411 16.0131
481 2 158.219 47.0618 15.8814
482 2 3.70498 46.999 15.7621
483 2 7.7278 46.9891 15.8862
484 2 11.4968 46.7861 15.9593
485 2 15.5477 47.0178 0.00215317
486 2 19.3778 46.783 16.0441
487 2 23.1497 46.6027 0.322646
488 2 27.275 46.8221 0.226614
489 2 31.2801 46.8169 0.464619
490 2 35.2846 46.8475 0.275862
491 2 39.4712 46.8403 0.274753
492 2 43.4481 46.7915 0.0771167
493 2 47.3692 46.9547 15.9863
494 2 51.3676 46.7993 15.8364
495 2 55.4674 46.9883 0.156821
496 2 59.3793 46.9766 15.8677
497 2 63.3659 47.1467 0.211817
498 2 67.4973 47.2552 0.0912929
499 2 71.5406 47.142 0.0469633
500 2 75.5601 47.2175 15.833
501 2 79.3502 47.4955 15.949
502 2 83.4515 47.4468 0.00486867
503 2 87.5785 47.5523 0.166251
504 2 91.4994 47.712 15.768
505 2 95.6497 47.702 0.222454
506 2 99.6849 47.6599 0.0541572
507 2 103.449 47.9292 16.0254
508 2 107.549 47.8529 0.279876
509 2 111.294 47.8843 15.8415
510 2 115.238 47.564 16.0269
511 2 119.189 47.5891 0.134529
512 2 123.074 47.4737 0.0385006
513 2 126.934 47.5732 0.0211165
514 2 130.74 47.462 0.0925191
515 2 134.813 47.3355 15.9029
516 2 138.661 47.2965 0.206239
517 2 142.519 47.3097 15.925
518 2 146.709 47.2491 0.367712
519 2 150.52 47.2539 15.8481
520 2 154.329 47.0471 0.129527
521 2 158.038 51.1039 0.218193
522 2 3.80533 50.9538 0.220433
523 2 7.75277 51.015 0.0783195
524 2 11.7214 51.0116 15.9079
525 2 15.4477 51.0232 0.197731
526 2 19.4023 50.7015 0.264719
527 2 23.4469 50.6907 0.225588
528 2 27.2656 50.5659 15.9615
529 2 31.1741 50.535 15.8586
530 2 35.2079 50.9553 0.311281
531 2 39.341 50.8266 15.9521
532 2 43.302 50.7489 0.0106842
533 2 47.266 50.9198 0.31854
534 2 51.2248 50.7513 16.0859
535 2 55.3604 50.8394 15.8983
536 2 59.3314 51.0172 15.7871
537 2 63.2446 51.0792 0.176817
538 2 67.2983 51.0965 0.0570167
539 2 71.4399 51.0489 15.9863
540 2 75.5378 51.258 0.209509
541 2 79.438 51.2749 15.7805
542 2 83.2886 51.2882 15.9059
543 2 87.4252 51.3517 15.8005
544 2 91.4872 51.5739 0.0211907
545 2 95.5121 51.528 0.119813
546 2 99.4617 51.6377 16.0928
547 2 103.381 51.6745 0.439068
548 2 107.516 51.7135 16.0031
549 2 111.081 51.9218 0.130216
550 2 115.444 51.5996 0.264802
551 2 119.204 51.6915 0.143415
552 2 123.085 51.4844 0.141723
553 2 127.082 51.6435 15.8648
554 2 130.949 51.4718 -0.0857955
555 2 134.534 51.6043 15.7976
556 2 138.609 51.4167 0.135009
557 2 142.716 51.2801 16.0405
558 2 146.628 51.1383 15.7549
559 2 150.469 51.0672 0.114289
560 2 154.424 51.3175 0.22643
561 2 158.218 55.1387 0.355324
562 2 3.7702 55.0645 0.351579
563 2 7.71215 54.9878 0.0346457
564 2 11.4732 54.9748 15.7819
565 2 15.4832 54.8625 15.7553
566 2 19.5805 54.8764 15.7469
567 2 23.3499 54.7181 15.8378
568 2 27.3927 54.6253 16.0356
569 2 31.2041 54.6865 0.269335
570 2 35.3618 54.6711 15.9899
571 2 39.2871 54.7893 0.173644
572 2 43.3003 54.7547 15.9036
573 2 47.1746 54.7288 15.86
574 2 51.2905 54.8472 15.8136
575 2 55.28 54.7891 0.266087
576 2 59.3109 54.8724 0.0921779
577 2 63.2049 54.9134 16.0552
578 2 67.2732 54.9993 0.142579
579 2 71.316 55.0902 15.9033
580 2 75.566 55.0864 15.8863
581 2 79.5397 55.2234 15.8902
582 2 83.2642 55.2556 15.9269
583 2 87.4076 55.2728 -0.0609599
584 2 91.3439 55.3566 -0.0655843
585 2 95.3793 55.2925 -0.0504475
586 2 99.3194 55.5005 15.865
587 2 103.185 55.7964 0.105204
588 2 107.338 55.6599 0.152935
589 2 111.449 55.7901 15.9806
590 2 115.382 55.5887 0.125185
591 2 119.321 55.7343 0.0314903
592 2 123.168 55.5717 0.154544
593 2 127.021 55.5296 15.7248
594 2 130.824 55.4408 15.8232
595 2 134.854 55.4416 15.8906
596 2 138.868 55.49 0.0833653
597 2 142.731 55.3542 0.0917225
598 2 146.645 55.369 15.8584
599 2 150.402 55.1471 16.0019
600 2 154.299 55.2189 0.195064
601 2 0.10215 59.1799 0.134605
602 2 3.99847 58.8978 0.0151375
603 2 7.85386 58.9454 0.177079
604 2 11.7626 58.8396 16.0208
605 2 15.6177 58.8964 0.0596082
606 2 19.6908 58.7851 15.9575
607 2 23.5336 58.7941 15.9883
608 2 27.2749 58.6018 0.272184
609 2 31.3412 58.6189 15.9076
610 2 35.3035 58.5654 0.126766
611 2 39.1812 58.525 0.178252
612 2 43.1134 58.5668 15.8041
613 2 47.295 58.6828 0.00235984
614 2 51.1847 58.875 16.0245
615 2 55.1037 58.5706 15.6846
616 2 59.3804 58.6888 15.7962
617 2 63.3495 58.8384 0.190196
618 2 67.2483 58.742 16.0219
619 2 71.2125 58.9935 0.243006
620 2 75.3965 58.8651 0.023583
621 2 79.3759 59.1519 15.8262
622 2 83.2717 59.2248 15.7635
623 2 87.1803 59.0695 0.105237
624 2 91.4735 59.2485 0.111097
625 2 95.2705 59.2786 0.043916
626 2 99.3807 59.587 15.9621
627 2 103.16 59.6269 0.119477
628 2 107.238 59.4716 0.192676
629 2 111.525 59.7214 0.162518
630 2 115.233 59.5724 0.0266707
631 2 119.236 59.7031 0.198824
632 2 123.282 59.7995 0.31367
633 2 127.183 59.5345 0.130872
634 2 131.09 59.5169 15.9427
635 2 135.065 59.6541 0.0369117
636 2 138.797 59.4852 0.183014
637 2 142.728 59.2835 15.7048
638 2 146.508 59.4564 0.117948
639 2 150.535 59.1708 0.257027
640 2 154.453 59.2469 0.178432
641 2 0.0892135 63.2511 16.0044
642 2 4.13994 63.0383 15.7879
643 2 7.95239 63.0725 0.280361
644 2 11.7709 62.9782 -0.0472497
645 2 15.815 62.9301 15.676
646 2 19.6632 62.7359 15.9505
647 2 23.5737 62.6772 15.9501
648 2 27.6726 62.6023 0.10089
649 2 31.4312 62.6433 15.7639
650 2 35.2314 62.3425 15.9413
651 2 39.1967 62.4388 0.0452839
652 2 43.2468 62.4688 0.00894393
653 2 47.2602 62.6201 15.8148
654 2 51.1588 62.5247 0.230476
655 2 55.3387 62.635 0.108817
656 2 59.0452 62.7643 0.116919
657 2 63.1431 62.9275 0.0488315
658 2 67.2347 62.9096 0.188412
659 2 71.2522 62.96 0.340753
660 2 75.4088 62.8868 15.9289
661 2 79.2252 63.0857 15.9931
662 2 83.441 63.2211 15.9152
663 2 87.2701 62.9856 -0.0656412
664 2 91.1862 63.0795 15.9527
665 2 95.3252 63.1655 0.103506
666 2 99.1471 63.4278 0.183885
667 2 103.177 63.4122 0.300742
668 2 107.201 63.4127 0.241895
669 2 111.306 63.464 0.266003
670 2 115.195 63.5951 0.147656
671 2 119.216 63.652 15.8076
672 2 123.258 63.6503 16.0092
673 2 127.2 63.7049 15.8558
674 2 131.11 63.6099 0.0988639
675 2 134.941 63.3708 15.9301
676 2 138.798 63.4066 0.218387
677 2 142.78 63.4606 -0.0864174
678 2 146.652 63.5297 0.231772
679 2 150.545 63.2891 15.9139
680 2 154.35 63.2744 15.9055
681 2 0.231973 67.1917 0.253688
682 2 4.31178 67.1488 0.215382
683 2 7.92513 67.1797 0.0431027
684 2 11.881 66.8378 15.9498
685 2 15.9771 66.9393 15.872
686 2 19.8047 66.6802 15.7452
687 2 23.4906 66.6718 15.8727
688 2 27.502 66.6569 15.8201
689 2 31.5378 66.4891 0.245975
690 2 35.5582 66.6816 0.278486
691 2 39.3608 66.1906 0.0608029
692 2 43.2542 66.2816 16.0814
693 2 47.0863 66.3735 0.268167
694 2 51.1001 66.4986 15.8744
695 2 55.2631 66.4744 15.8845
696 2 59.1668 66.5728 15.836
697 2 63.0342 66.5861 15.944
698 2 67.3791 66.7802 15.8363
699 2 71.1403 66.9641 0.099421
700 2 75.0513 66.832 0.0322178
701 2 79.1922 66.9631 16.0404
702 2 83.2296 67.0083 16.1265
703 2 87.3087 67.0224 15.879
704 2 91.2311 66.9678 0.202145
705 2 95.1676 67.2641 15.9362
706 2 99.0837 67.2827 15.7932
707 2 103.194 67.1578 0.22197
708 2 107.161 67.5205 16.0136
709 2 111.129 67.3701 0.234086
710 2 115.118 67.6086 0.0199756
711 2 119.222 67.6113 0.0155951
712 2 123.277 67.4301 15.834
713 2 127.134 67.5218 15.9178
714 2 131.196 67.5982 15.6917
715 2 135.227 67.5666 15.7733
716 2 139.112 67.4516 15.6329
717 2 142.95 67.5092 15.8616
718 2 146.671 67.551 0.0850966
719 2 150.77 67.137 16.0079
720 2 154.633 67.1948 15.9304
721 2 0.0817398 71.1998 15.7257
722 2 4.21671 71.1076 15.7745
723 2 8.0531 70.9831 0.159376
724 2 12.0406 71.0254 15.9363
725 2 15.8551 70.867 15.8284
726 2 19.9713 70.8138 0.0829498
727 2 23.7731 70.7759 16.0758
728 2 27.8018 70.8827 15.7493
729 2 31.7515 70.5123 15.9048
730 2 35.5593 70.5626 16.0011
731 2 39.2995 70.54 15.8895
732 2 43.3072 70.404 0.34308
733 2 47.1144 70.4465 15.9282
734 2 51.1876 70.4464 15.9343
735 2 55.1258 70.2785 16.0217
736 2 59.216 70.4722 0.174247
737 2 63.1441 70.4694 15.7906
738 2 67.0781 70.5569 0.0631713
739 2 71.1823 70.7537 15.8144
740 2 75.2754 70.6685 15.9211
741 2 79.0064 70.8304 16.0101
742 2 83.0938 70.6549 0.231326
743 2 87.1256 70.9895 15.7723
744 2 91.0839 71.1389 -0.000324179
745 2 95.2423 71.0915 0.148606
746 2 99.331 71.2731 15.9138
747 2 102.976 71.2926 -0.100324
748 2 107.368 71.3839 0.0294813
749 2 111.252 71.3931 15.8779
750 2 115.209 71.4045 0.156924
751 2 119.281 71.4408 15.775
752 2 123.12 71.5184 -0.103809
753 2 127.038 71.4367 15.9806
754 2 131.128 71.5429 15.6885
755 2 135.219 71.4903 15.6988
756 2 139.005 71.6223 15.9244
757 2 142.827 71.3518 16.0549
758 2 147.059 71.476 15.7035
759 2 150.906 71.2422 15.9131
760 2 154.71 71.4049 15.7741
761 2 0.324196 75.1027 15.7631
762 2 4.10227 75.0762 15.7692
763 2 8.25224 74.9797 15.7716
764 2 11.935 75.0541 16.103
765 2 15.8068 74.8474 15.8782
766 2 19.827 74.9697 15.8698
767 2 23.8587 74.6955 15.817
768 2 27.5576 74.8766 15.8605
769 2 31.6382 74.5702 0.0566499
770 2 35.7197 74.5838 15.8803
771 2 39.3943 74.4245 16.2732
772 2 43.4065 74.4959 0.0238633
773 2 47.2728 74.3401 15.9213
774 2 51.2734 74.3295 0.283356
775 2 55.0768 74.1367 16.0251
776 2 58.9151 74.2564 15.8599
777 2 63.0966 74.4185 15.9324
778 2 67.0017 74.4745 16.0943
779 2 71.0681 74.6001 15.7546
780 2 75.1223 74.7321 -0.0407487
781 2 79.1323 74.6467 15.8556
782 2 82.9375 74.8251 16.1538
783 2 86.9867 74.8123 16.0055
784 2 91.1112 74.907 0.327399
785 2 95.0268 74.9959 16.2009
786 2 99.0609 74.8908 -0.0527984
787 2 103.123 75.2081 15.8048
788 2 107.093 75.2701 0.233334
789 2 111.058 75.2884 15.8096
790 2 115.232 75.3641 0.27136
791 2 119.112 75.2766 15.8563
792 2 123.009 75.5116 15.7328
793 2 127.067 75.333 -0.0391867
794 2 131.155 75.3864 0.0975654
795 2 135.126 75.6945 15.743
796 2 139.173 75.4055 15.7895
797 2 143.042 75.3722 0.097358
798 2 146.977 75.3683 15.7661
799 2 150.672 75.2544 15.8347
800 2 154.64 75.2385 0.0514658
801 2 0.235743 79.281 15.7121
802 2 4.29815 78.9463 15.7931
803 2 8.06072 78.9908 15.9757
804 2 11.8827 78.9732 15.7128
805 2 15.893 78.9436 15.8704
806 2 19.756 78.8341 15.8971
807 2 23.7895 78.8548 15.9036
808 2 27.723 78.6687 16.0984
809 2 31.6892 78.4428 0.0172378
810 2 35.5042 78.4609 15.9821
811 2 39.5258 78.5213 0.310566
812 2 43.3011 78.4281 0.126834
813 2 47.3171 78.4789 0.0028847
814 2 51.334 78.3626 15.8118
815 2 55.0217 78.3865 16.0569
816 2 59.1176 78.2179 15.8686
817 2 63.1337 78.2547 15.9385
818 2 66.9353 78.291 16.0153
819 2 70.8807 78.5402 15.8836
820 2 74.9379 78.5506 15.8509
821 2 78.9889 78.7638 -0.00710414
822 2 83.1857 78.6799 0.176892
823 2 87.0234 78.7868 0.120013
824 2 90.9816 78.976 0.0898026
825 2 94.9426 78.8703 0.227635
826 2 98.9798 78.892 15.9007
827 2 103.023 79.1263 0.136764
828 2 106.94 79.2358 16.1033
829 2 111.024 79.1392 0.0374274
830 2 114.879 79.2294 15.8613
831 2 118.992 79.1798 0.129775
832 2 122.958 79.2324 0.00449553
833 2 127.04 79.1073 15.9524
834 2 131.076 79.2808 -0.0785867
835 2 134.968 79.4242 15.7309
836 2 139.087 79.4153 15.8333
837 2 143.089 79.5215 15.8706
838 2 146.795 79.3441 15.8469
839 2 150.974 79.3854 15.8309
840 2 154.796 79.2113 15.8025
841 2 0.372946 83.3696 15.8394
842 2 4.36487 82.9939 15.9095
843 2 8.20981 82.9974 16.0461
844 2 12.0716 83.0634 15.7303
845 2 16.0423 82.9977 15.8457
846 2 20.0952 82.7372 15.887
847 2 23.9571 82.6246 15.9102
848 2 27.7077 82.6901 15.8147
849 2 31.7609 82.5411 15.9716
850 2 35.7582 82.4763 15.8078
851 2 39.4005 82.3715 0.165335
852 2 43.3772 82.4301 15.9889
853 2 47.2504 82.5754 15.921
854 2 51.0711 82.4279 15.8206
855 2 55.1598 82.3933 15.8912
856 2 58.8738 82.2905 15.744
857 2 62.7296 82.2968 15.9797
858 2 66.8052 82.4281 0.100893
859 2 70.7824 82.5176 0.20117
860 2 74.8873 82.3776 15.8554
861 2 78.8949 82.4735 0.131256
862 2 82.873 82.6185 16.1647
863 2 86.8435 82.7116 15.9639
864 2 90.9028 82.9107 0.246803
865 2 94.882 82.8715 15.8765
866 2 99.0681 82.8754 15.8027
867 2 102.819 82.9821 0.314882
868 2 106.857 83.0984 0.0663475
869 2 110.935 83.0656 16.1062
870 2 114.788 83.1203 15.8824
871 2 118.882 83.2405 0.447949
872 2 123.094 83.0657 16.0978
873 2 127.094 83.2811 0.0506669
874 2 131.077 83.4722 15.7767
875 2 135.139 83.4312 0.104542
876 2 139.182 83.1757 15.912
877 2 143.116 83.4176 0.175456
878 2 146.747 83.2817 0.130803
879 2 150.994 83.3068 15.8234
880 2 154.799 83.008 15.9233
881 2 0.305567 87.3669 15.7455
882 2 4.32305 86.9331 0.191768
883 2 8.13459 86.972 15.9679
884 2 12.0386 87.022 15.8327
885 2 16.1646 86.7355 0.0201298
886 2 19.9164 86.7129 15.8883
887 2 23.6997 86.7642 16.0525
888 2 27.7101 86.4412 15.7612
889 2 31.6686 86.5908 15.9004
890 2 35.7361 86.4094 15.7963
891 2 39.611 86.5144 15.9633
892 2 43.4239 86.4675 16.0625
893 2 47.3893 86.3047 -0.0533389
894 2 51.2228 86.3203 0.102588
895 2 55.3059 86.3196 -0.0163955
896 2 59.1403 86.1875 15.9411
897 2 63.0848 86.3427 15.7405
898 2 66.9383 86.3134 0.119643
899 2 70.8229 86.2068 0.0735234
900 2 74.8094 86.3671 15.8662
901 2 78.8691 86.456 0.29771
902 2 82.8041 86.5764 0.398093
903 2 87 86.614 15.9674
904 2 90.9186 86.7342 0.0910907
905 2 94.9764 86.7676 15.8563
906 2 98.7954 86.7053 16.0002
907 2 102.813 86.93 0.19642
908 2 106.92 87.0027 0.143303
909 2 110.817 86.9637 15.8852
910 2 114.749 87.0848 0.261543
911 2 118.912 87.262 0.288308
912 2 123.003 87.2557 0.134356
913 2 126.798 87.2273 15.8659
914 2 130.911 87.1868 0.264739
915 2 135.07 87.3346 15.8203
916 2 138.864 87.213 0.243479
917 2 142.961 87.4315 0.188711
918 2 146.96 87.3511 0.0964531
919 2 150.774 87.3695 15.8464
920 2 154.701 87.2901 15.8788
921 2 0.229979 91.3549 15.8394
922 2 4.31205 91.002 0.126354
923 2 8.33085 91.1245 0.053085
924 2 11.9958 90.8218 0.221239
925 2 15.9757 90.7944 15.7794
926 2 19.867 90.7638 16.0396
927 2 23.8641 90.6503 15.968
928 2 27.819 90.5212 15.8183
929 2 31.5734 90.6513 16.0354
930 2 35.722 90.4486 15.9795
931 2 39.5589 90.4249 15.8348
932 2 43.4182 90.5447 0.0201847
933 2 47.4145 90.3785 15.8742
934 2 51.3115 90.2805 15.9766
935 2 55.1346 90.1838 15.6992
936 2 59.2719 90.5015 15.9155
937 2 63.0812 90.1735 0.274837
938 2 67.0275 90.296 15.796
939 2 70.808 90.0884 15.9976
940 2 74.6888 90.2218 15.8801
941 2 78.8364 90.5 0.331579
942 2 82.7355 90.4409 0.172852
943 2 86.6342 90.6286 15.8766
944 2 90.8031 90.6053 0.19706
945 2 94.596 90.8013 0.225742
946 2 98.813 90.6992 0.19374
947 2 102.737 90.8208 0.0309177
948 2 106.785 90.872 0.00537425
949 2 110.806 90.8782 15.7877
950 2 114.828 91.0402 0.171972
951 2 119 91.0696 0.114529
952 2 122.848 90.8674 0.245403
953 2 126.965 91.0224 0.142661
954 2 131.052 91.1163 16.0174
955 2 134.932 91.1354 0.118917
956 2 138.905 91.1536 0.139942
957 2 142.911 91.0974 0.0963337
958 2 146.848 91.2555 0.320016
959 2 150.849 91.0303 15.7643
960 2 154.992 91.3701 0.184715
961 2 0.447843 95.1046 15.8274
962 2 4.41207 94.8907 16.0947
963 2 8.25466 94.9565 0.141787
964 2 12.1977 94.8213 16.0184
965 2 16.1669 94.8441 15.8378
966 2 19.8539 94.8462 15.8426
967 2 23.9201 94.6159 15.845
968 2 27.8225 94.6118 15.8519
969 2 31.6488 94.6278 15.9849
970 2 35.7335 94.5134 0.0908203
971 2 39.7441 94.5881 15.8103
972 2 43.6851 94.3681 15.8511
973 2 47.4854 94.3518 15.9248
974 2 51.4356 94.2955 -0.00775791
975 2 55.0136 94.232 16.1083
976 2 58.991 94.3239 15.9051
977 2 63.0793 94.3619 15.7391
978 2 66.9006 94.2388 0.284701
979 2 70.889 94.1741 0.243456
980 2 74.8438 94.3597 15.9232