ITEM: TIMESTEP
16500
ITEM: NUMBER OF ATOMS
32000
ITEM: BOX BOUNDS xy xz yz pp pp pp
0.0000000000000000e+00 1.5831999999999999e+02 0.0000000000000000e+00
0.0000000000000000e+00 1.5831999999999999e+02 0.0000000000000000e+00
1.6426088473843148e-01 1.5933451115261370e+01 0.0000000000000000e+00
ITEM: ATOMS id type x y z
1 2 158.158 157.877 15.9616
2 2 3.81857 157.81 0.0679331
3 2 7.87739 157.836 0.316319
4 2 11.9444 157.881 15.9437
5 2 15.8444 157.794 0.222922
6 2 19.7703 157.792 0.174205
7 2 23.9111 158.139 15.7861
8 2 27.6575 158.058 0.0873751
9 2 31.9129 158.223 15.8092
10 2 35.8907 158.268 0.0778211
11 2 39.8789 158.319 0.0970698
12 2 43.8541 158.271 15.8405
13 2 47.8988 0.288776 15.9701
14 2 51.7332 0.0924268 16.0246
15 2 55.752 158.449 15.8059
16 2 59.8071 0.112038 15.7244
17 2 63.8878 0.264757 0.248001
18 2 67.7446 0.194362 0.102227
19 2 71.6555 158.508 15.8891
20 2 75.5517 158.549 16.0062
21 2 79.417 158.513 16.0588
22 2 83.1373 158.525 0.19403
23 2 87.2199 158.431 0.340736
24 2 91.1178 158.267 0.0527563
25 2 95.1466 158.128 0.223788
26 2 98.9392 158.129 0.192035
27 2 102.879 158.059 -0.0347092
28 2 106.907 157.836 15.9298
29 2 110.942 157.799 0.359327
30 2 114.621 157.892 0.0649577
31 2 118.656 157.782 0.059461
32 2 122.465 157.734 15.8216
33 2 126.229 157.682 15.9922
34 2 130.288 157.67 16.0683
35 2 134.298 157.523 16.0079
36 2 138.288 157.604 16.0466
37 2 142.24 157.382 16.2104
38 2 146.184 157.37 16.0305
39 2 150.137 157.441 16.0477
40 2 153.97 157.737 16.2504
41 2 158.13 3.35131 -0.00104764
42 2 3.85394 3.29022 15.8554
43 2 7.87802 3.23699 0.228486
44 2 11.8371 3.62379 0.181143
45 2 15.8063 3.38538 0.171788
46 2 19.8499 3.62535 15.9434
47 2 23.736 3.38946 0.164845
48 2 27.8327 3.6885 0.0529047
49 2 31.8071 3.59559 0.161697
50 2 35.7209 3.76601 0.438521
51 2 39.8011 3.93968 0.148404
52 2 43.8933 4.15351 0.184867
53 2 47.7402 4.20046 15.8679
54 2 51.7847 4.04818 0.0316627
55 2 55.9141 4.13733 0.171585
56 2 59.8843 4.00698 0.287225
57 2 63.869 4.08105 16.1293
58 2 67.8931 4.41995 0.00486957
59 2 71.6621 4.23796 0.18603
60 2 75.6627 4.09539 0.246817
61 2 79.532 4.16307 0.270112
62 2 83.4212 4.33484 0.288722
63 2 87.5451 3.98144 0.225495
64 2 91.1608 3.9433 0.209531
65 2 95.2896 3.697 16.1365
66 2 99.0909 3.74003 0.116863
67 2 103.116 3.75053 -0.0649449
68 2 106.983 3.62212 15.8049
69 2 110.759 3.57021 16.0276
70 2 114.633 3.57366 16.0051
71 2 118.577 3.4603 16.0245
72 2 122.538 3.49954 0.476504
73 2 126.518 3.39606 15.9957
74 2 130.368 3.24499 0.297859
75 2 134.203 3.18516 15.9225
76 2 138.163 3.16782 0.210355
77 2 142.243 3.06848 15.8097
78 2 146.279 3.18696 0.211421
79 2 149.893 3.20857 15.8987
80 2 154.071 3.17491 16.2925
81 2 157.873 7.36236 0.0467001
82 2 3.88384 7.25381 16.0623
83 2 7.69978 7.27297 16.0566
84 2 11.8179 7.32386 16.188
85 2 15.7901 7.18851 0.278061
86 2 19.8377 7.52075 15.9217
87 2 23.8326 7.32133 0.286917
88 2 27.7366 7.83872 0.154155
89 2 31.6442 7.60671 16.1993
90 2 35.7876 7.62928 15.7339
91 2 39.632 7.91862 15.8532
92 2 43.725 7.92063 15.8088
93 2 47.6804 8.01545 0.0931577
94 2 51.7947 7.94325 16.1904
95 2 55.8514 8.09092 0.13168
96 2 59.9507 8.03327 0.241063
97 2 63.9255 8.1409 0.28028
98 2 67.8909 8.24801 0.133092
99 2 71.8523 8.07568 0.261427
100 2 75.701 8.11626 0.0569087
101 2 79.5795 8.08478 15.9812
102 2 83.4363 8.1133 0.177274
103 2 87.4114 8.08879 15.9813
104 2 91.3594 7.71211 0.204748
105 2 95.2904 7.74653 0.175539
106 2 99.2719 7.62842 0.0925937
107 2 102.968 7.81274 0.146797
108 2 106.812 7.69965 0.324939
109 2 110.857 7.66101 0.0941424
110 2 114.761 7.45813 0.116885
111 2 118.532 7.68946 0.239913
112 2 122.714 7.44643 0.0842551
113 2 126.545 7.37923 15.8692
114 2 130.331 7.29403 0.0937184
115 2 134.179 7.53687 0.171005
116 2 138.002 7.30883 16.091
117 2 142.16 7.01492 16.03
118 2 146.214 7.11379 0.167714
119 2 150.149 7.09919 16.0195
120 2 153.829 7.15755 16.1256
121 2 157.942 11.0311 0.179077
122 2 3.5536 11.07 0.167325
123 2 7.85837 11.1514 15.7951
124 2 11.5617 11.2305 16.0807
125 2 15.6608 11.1943 15.9684
126 2 19.83 11.3335 0.0287285
127 2 23.7052 11.5087 0.352787
128 2 27.5988 11.6116 0.0589987
129 2 31.8202 11.5926 0.132745
130 2 35.6213 11.4425 -0.017308
131 2 39.7786 11.6607 -0.0516251
132 2 43.6126 11.7207 15.795
133 2 47.8597 11.9421 15.9741
134 2 51.7441 11.8161 15.9224
135 2 55.8807 11.7958 0.24123
136 2 59.5956 11.8958 15.8441
137 2 63.7281 11.96 0.284444
138 2 67.8044 12.0772 16.2803
139 2 71.8878 12.2074 0.223493
140 2 75.8709 12.158 0.136717
141 2 79.5505 12.0272 0.100646
142 2 83.5222 11.9793 0.184907
143 2 87.589 11.8984 0.48313
144 2 91.4487 11.7766 0.232876
145 2 95.4948 11.696 0.0503343
146 2 99.2088 11.7359 0.0614885
147 2 103.177 11.6103 0.137113
148 2 106.963 11.5989 0.228107
149 2 110.914 11.7697 0.257834
150 2 114.759 11.6858 0.456413
151 2 118.706 11.3872 0.246597
152 2 122.621 11.4394 0.178469
153 2 126.624 11.5312 0.114829
154 2 130.38 11.4007 15.7957
155 2 134.292 11.192 0.176335
156 2 138.37 11.1328 0.127635
157 2 142.162 10.9862 15.9193
158 2 146.176 11.2331 16.0305
159 2 150.17 10.9322 16.0377
160 2 154.027 11.042 16.1426
161 2 157.768 14.9945 0.120276
162 2 3.52309 14.9868 0.176177
163 2 7.63168 15.1498 0.19758
164 2 11.7523 15.1498 15.9116
165 2 15.7106 15.4104 15.8678
166 2 19.547 15.4238 0.141785
167 2 23.577 15.4418 0.223586
168 2 27.6432 15.4943 15.8757
169 2 31.7319 15.5863 15.9179
170 2 35.7956 15.4477 0.119679
171 2 39.495 15.6123 15.7643
172 2 43.7568 15.8143 -0.0730907
173 2 47.7506 15.7889 0.127381
174 2 51.8886 15.9589 -0.113184
175 2 55.7683 15.6697 15.8202
176 2 59.8027 15.7657 0.203453
177 2 63.7433 15.865 -0.0710585
178 2 67.7611 15.8932 0.151585
179 2 71.8579 15.8794 0.176148
180 2 75.8177 16.169 15.8903
181 2 79.7765 16.1246 0.462693
182 2 83.7063 16.0329 0.320361
183 2 87.5639 15.8367 0.16431
184 2 91.4035 15.8546 0.247356
185 2 95.4851 15.7275 0.149382
186 2 99.1436 15.8117 0.299252
187 2 103.091 15.7224 0.105032
188 2 107.004 15.8304 0.173883
189 2 111.101 15.5997 0.0162586
190 2 114.985 15.3541 0.215726
191 2 118.903 15.5814 0.0370768
192 2 122.75 15.6843 15.8649
193 2 126.621 15.3811 0.225115
194 2 130.542 15.3526 0.191818
195 2 134.329 15.3417 0.0497692
196 2 138.146 15.1739 0.174904
197 2 142.361 15.2553 0.281733
198 2 146.301 15.1724 0.244461
199 2 150.099 14.9116 15.9214
200 2 154.004 14.9902 0.268156
201 2 157.815 18.9396 15.9633
202 2 3.50479 19.095 0.115105
203 2 7.41789 19.0937 15.7667
204 2 11.6138 18.997 15.982
205 2 15.6692 19.1678 15.814
206 2 19.5831 19.3517 0.207188
207 2 23.6512 19.2573 0.128888
208 2 27.542 19.2712 0.083227
209 2 31.6192 19.6067 15.7918
210 2 35.7411 19.386 15.7935
211 2 39.508 19.3869 0.100185
212 2 43.7291 19.6514 15.737
213 2 47.6484 19.4574 15.6866
214 2 51.5984 19.2928 15.772
215 2 55.6953 19.7099 15.957
216 2 59.6192 19.7662 16.0134
217 2 63.6432 19.8411 16.0699
218 2 67.8198 19.6575 16.051
219 2 71.8564 19.8781 0.213386
220 2 75.9638 19.8884 0.333893
221 2 79.7922 20.1282 -0.00880666
222 2 83.8494 19.9977 0.106101
223 2 87.7506 19.855 16.0307
224 2 91.5561 19.9899 0.112225
225 2 95.5489 19.9725 0.0462764
226 2 99.2311 19.7949 15.7637
227 2 103.122 19.7333 15.8605
228 2 107.104 19.6109 16.0724
229 2 111.079 19.5608 0.147207
230 2 115.054 19.4036 0.0582703
231 2 118.786 19.5515 16.018
232 2 122.64 19.523 0.254213
233 2 126.588 19.3493 0.0727394
234 2 130.493 19.252 0.0444402
235 2 134.47 19.2143 15.9679
236 2 138.488 19.257 15.7952
237 2 142.314 19.2956 0.283839
238 2 146.233 19.0407 0.0703741
239 2 150.02 18.9332 0.0603431
240 2 154.082 19.0532 15.8961
241 2 157.972 22.9197 15.7421
242 2 3.4256 22.9336 15.9074
243 2 7.28932 22.7764 0.0310092
244 2 11.5116 22.8986 15.992
245 2 15.5545 23.1345 15.9367
246 2 19.5676 23.2665 -0.0882142
247 2 23.562 23.2799 16.0076
248 2 27.691 23.06 15.822
249 2 31.7611 23.4001 0.142239
250 2 35.6714 23.3016 15.8248
251 2 39.6143 23.3105 0.184007
252 2 43.5455 23.6338 15.7934
253 2 47.7119 23.394 15.7859
254 2 51.6637 23.5672 0.0465931
255 2 55.756 23.6123 15.8056
256 2 59.7096 23.5161 15.8072
257 2 63.5073 23.698 15.9373
258 2 67.7712 23.9169 0.293848
259 2 71.8729 23.8146 0.219135
260 2 75.9833 23.8878 0.256992
261 2 79.7548 24.0038 15.9921
262 2 83.8571 23.9767 16.1112
263 2 87.7459 24.0591 0.389187
264 2 91.5652 23.8607 15.9542
265 2 95.3742 24.0319 15.8788
266 2 99.409 23.9322 0.208785
267 2 103.387 23.7955 0.021199
268 2 107.253 23.6304 0.161803
269 2 111.253 23.5675 0.30237
270 2 114.891 23.6423 15.8301
271 2 119 23.5907 15.8903
272 2 123.01 23.4658 0.236657
273 2 126.774 23.338 0.161158
274 2 130.614 23.2173 15.9888
275 2 134.484 23.3777 0.142947
276 2 138.402 23.2072 15.8254
277 2 142.347 23.0926 0.0759098
278 2 146.264 23.2164 0.164124
279 2 150.317 23.2056 0.031243
280 2 154.114 23.0214 0.0951681
281 2 158.128 26.9504 -0.0628314
282 2 3.80032 26.9667 15.8476
283 2 7.51428 26.838 0.269794
284 2 11.5219 26.792 15.9429
285 2 15.2503 26.9176 15.877
286 2 19.2302 27.1178 -0.0344646
287 2 23.6468 26.9634 0.162366
288 2 27.3871 27.1458 -0.103182
289 2 31.5307 27.2186 16.0442
290 2 35.3816 27.3956 0.338277
291 2 39.5371 27.3079 0.0944023
292 2 43.653 27.4446 16.0331
293 2 47.5174 27.6982 0.0668783
294 2 51.5084 27.575 0.196676
295 2 55.7923 27.5197 0.00567309
296 2 59.5699 27.7106 0.142789
297 2 63.5944 27.7529 0.0534953
298 2 67.5136 27.6499 0.166957
299 2 71.7249 27.6702 0.128633
300 2 75.6699 27.8327 16.1732
301 2 79.8169 27.7907 0.252759
302 2 83.7076 27.9353 16.0061
303 2 87.6857 27.9923 0.117454
304 2 91.6969 27.9754 16.1019
305 2 95.6529 27.7695 15.8165
306 2 99.5269 27.7942 0.300929
307 2 103.423 27.6188 -0.0183471
308 2 107.381 27.3571 15.9183
309 2 111.226 27.5558 0.181881
310 2 115.046 27.5198 15.8522
311 2 119.183 27.7585 15.8432
312 2 122.862 27.5168 0.0469774
313 2 126.696 27.3365 0.289419
314 2 130.621 27.3783 0.248613
315 2 134.587 27.1981 16.0174
316 2 138.718 27.2338 0.241965
317 2 142.473 27.1877 0.114979
318 2 146.376 27.3033 0.090104
319 2 150.295 27.1817 0.186798
320 2 154.163 27.1467 15.8154
321 2 158.158 31.1224 15.8448
322 2 3.69239 30.8771 0.190117
323 2 7.53231 30.8832 0.0806037
324 2 11.5688 30.9653 15.8662
325 2 15.468 31.0155 0.0630896
326 2 19.221 31.1058 15.6206
327 2 23.4156 31.0239 15.8215
328 2 27.5681 31.0588 0.216518
329 2 31.3893 31.1353 0.091765
330 2 35.3759 31.3061 15.9638
331 2 39.4673 31.4672 15.8348
332 2 43.4174 31.4139 0.302127
333 2 47.5636 31.4148 15.9682
334 2 51.6094 31.484 15.7552
335 2 55.7322 31.3568 0.113713
336 2 59.6047 31.6004 0.0196875
337 2 63.7644 31.6041 15.9788
338 2 67.6946 31.7273 0.218116
339 2 71.6273 31.7872 15.8681
340 2 75.7346 31.6698 0.217524
341 2 79.6271 31.8435 0.201898
342 2 83.7455 31.8173 15.9677
343 2 87.735 31.9553 0.221785
344 2 91.8595 31.8546 0.20183
345 2 95.6518 31.6844 0.0188773
346 2 99.5488 31.8018 0.0465788
347 2 103.394 31.7832 15.8391
348 2 107.463 31.8282 0.153886
349 2 111.38 31.5392 15.8126
350 2 115.026 31.5713 0.0553213
351 2 119.128 31.43 15.8367
352 2 122.867 31.4929 0.156044
353 2 126.726 31.5252 0.14615
354 2 130.719 31.4592 0.17955
355 2 134.586 31.2695 0.276788
356 2 138.429 31.3877 15.9271
357 2 142.385 31.4471 15.9003
358 2 146.355 31.3579 15.773
359 2 150.243 31.4297 15.7977
360 2 154.182 31.2317 15.6453
361 2 158.132 35.0652 15.8851
362 2 3.75674 34.9425 0.106881
363 2 7.77991 34.9338 0.216309
364 2 11.636 34.8585 15.8235
365 2 15.595 34.828 0.295481
366 2 19.4412 34.9115 15.9282
367 2 23.594 34.7967 15.942
368 2 27.5193 34.9483 0.133863
369 2 31.3839 34.6952 0.0129115
370 2 35.5051 35.045 15.9801
371 2 39.4536 35.201 0.298389
372 2 43.6162 35.0844 15.912
373 2 47.4725 35.3751 16.0155
374 2 51.5099 35.0916 0.0725813
375 2 55.5298 35.5121 15.9082
376 2 59.712 35.458 0.191059
377 2 63.5685 35.3277 -0.0390394
378 2 67.6592 35.4558 0.0754822
379 2 71.6971 35.5656 0.287904
380 2 75.5382 35.6303 15.8618
381 2 79.3928 35.6756 15.9266
382 2 83.7965 35.6079 0.173486
383 2 87.7154 35.7511 0.150729
384 2 91.6865 35.764 16.2422
385 2 95.4799 36.0497 15.9309
386 2 99.4995 35.8156 0.23271
387 2 103.521 35.8356 15.9164
388 2 107.398 35.688 0.036731
389 2 111.382 35.6433 15.8826
390 2 115.413 35.6454 0.351028
391 2 119.024 35.529 15.9698
392 2 122.869 35.6541 16.0009
393 2 126.884 35.4806 0.112838
394 2 130.774 35.5421 -0.127899
395 2 134.781 35.3336 15.8202
396 2 138.71 35.393 16.0221
397 2 142.516 35.2545 15.7621
398 2 146.436 35.1602 16.1125
399 2 150.397 35.2077 0.00485395
400 2 154.268 35.1295 0.0511697
401 2 158.097 38.9767 0.0764207
402 2 3.5838 39.0229 15.9296
403 2 7.62821 38.8656 15.8491
404 2 11.5415 38.9238 0.202391
405 2 15.5081 38.7768 0.128015
406 2 19.535 38.9135 15.9022
407 2 23.491 38.7597 15.9691
408 2 27.4045 38.8105 0.0709551
409 2 31.5232 38.82 16.0517
410 2 35.503 38.976 0.237918
411 2 39.6422 39.0648 0.166491
412 2 43.5347 39.1596 0.0420799
413 2 47.5011 38.9833 0.210639
414 2 51.5942 39.2536 0.0624709
415 2 55.5849 39.0652 -0.0193993
416 2 59.6376 39.4101 0.0644066
417 2 63.7023 39.2289 15.9376
418 2 67.5966 39.4175 0.23728
419 2 71.7033 39.4576 0.0986779
420 2 75.554 39.6556 0.254661
421 2 79.6436 39.6639 16.0975
422 2 83.5226 39.5202 16.0719
423 2 87.5481 39.7929 15.9334
424 2 91.5512 39.8647 15.9752
425 2 95.5655 39.8517 15.9424
426 2 99.4546 39.8006 0.00989761
427 2 103.401 39.5799 0.235525
428 2 107.463 39.7057 16.0033
429 2 111.423 39.5463 15.7918
430 2 115.309 39.6504 16.0963
431 2 119.205 39.5153 15.9494
432 2 122.958 39.5275 0.37334
433 2 126.617 39.5944 15.9739
434 2 130.851 39.5221 0.149722
435 2 134.762 39.3269 0.0983654
436 2 138.616 39.3026 15.9504
437 2 142.558 39.251 15.6743
438 2 146.517 39.2145 0.200311
439 2 150.422 39.1228 15.9423
440 2 154.36 39.2442 0.248534
441 2 158.225 43.1224 0.133065
442 2 3.79933 42.9574 0.240219
443 2 7.75509 42.9105 0.211107
444 2 11.546 42.8054 0.126666
445 2 15.5711 42.826 0.037268
446 2 19.605 42.7574 15.9817
447 2 23.4934 42.8265 0.0301487
448 2 27.3842 42.7153 0.164399
449 2 31.0839 42.731 0.198706
450 2 35.1859 42.9948 0.200199
451 2 39.3009 43.0722 0.311779
452 2 43.401 42.8605 0.0904381
453 2 47.4006 42.9015 0.420958
454 2 51.4799 43.146 0.101361
455 2 55.5808 43.1882 0.0498903
456 2 59.5638 43.1488 0.068712
457 2 63.4794 43.163 0.159335
458 2 67.4878 43.2813 15.9041
459 2 71.6473 43.3016 16.0015
460 2 75.4969 43.4907 0.302256
461 2 79.4402 43.5938 0.0109185
462 2 83.6218 43.6111 16.0104
463 2 87.5956 43.5969 15.9001
464 2 91.5415 43.7749 16.0333
465 2 95.6389 43.7751 0.380919
466 2 99.552 43.696 0.110478
467 2 103.684 44.012 0.293173
468 2 107.604 43.8089 0.164684
469 2 111.41 43.7178 15.9122
470 2 115.287 43.6234 16.0446
471 2 119.232 43.6782 0.249588
472 2 123.02 43.4269 0.439301
473 2 126.862 43.4642 0.103045
474 2 130.816 43.371 0.248814
475 2 134.861 43.4303 15.7598
476 2 138.69 43.4666 15.9149
477 2 142.598 43.3281 16.0516
478 2 146.596 43.2555 16.0143
479 2 150.369 43.1879 0.244194
480 2 154.359 43.2787 15.8631
481 2 158.17 47.1023 15.8308
482 2 4.08185 47.0354 15.9986
483 2 7.82899 47.0491 15.7368
484 2 11.6552 46.9156 15.9464
485 2 15.7481 46.8018 0.103939
486 2 19.4081 46.7974 16.0514
487 2 23.358 46.7017 0.282964
488 2 27.2855 46.5677 -0.084562
489 2 31.2328 46.6971 0.125054
490 2 35.284 46.9212 0.0536712
491 2 39.3381 47.0409 -0.134947
492 2 43.3557 46.8637 0.019842
493 2 47.3317 46.889 16.0528
494 2 51.2653 46.9532 15.7792
495 2 55.3056 46.8587 -0.0409781
496 2 59.2887 47.302 15.7211
497 2 63.3796 47.2726 0.121932
498 2 67.434 47.0204 -0.0387045
499 2 71.4096 47.1088 -0.000300756
500 2 75.638 47.2272 16.0294
501 2 79.7215 47.3447 15.9764
502 2 83.5542 47.6418 0.119042
503 2 87.5664 47.4017 0.0833704
504 2 91.3382 47.8932 15.9719
505 2 95.3019 47.502 0.0317667
506 2 99.5266 47.8713 0.115813
507 2 103.538 47.7408 15.921
508 2 107.751 47.8103 0.267675
509 2 111.259 47.5803 15.7725
510 2 115.057 47.6401 16.0479
511 2 119.238 47.4288 0.399734
512 2 123.163 47.5304 0.298246
513 2 127.057 47.4843 0.226522
514 2 130.923 47.3742 0.0744568
515 2 134.836 47.3508 15.9976
516 2 138.639 47.28 0.203159
517 2 142.516 47.142 16.0434
518 2 146.423 47.1705 0.124383
519 2 150.587 47.086 16.004
520 2 154.475 47.1142 0.27266
521 2 158.348 51.1179 0.234493
522 2 3.72869 51.142 0.144284
523 2 7.82697 50.9181 0.0498272
524 2 11.5101 50.9736 15.8828
525 2 15.585 50.8131 0.24594
526 2 19.5736 50.7896 0.261971
527 2 23.4587 50.599 0.12351
528 2 27.5181 50.7019 15.6751
529 2 31.2559 50.6764 15.853
530 2 35.3252 50.8087 -0.0687014
531 2 39.4584 50.8151 15.8447
532 2 43.406 50.6968 0.025429
533 2 47.3257 50.686 0.035024
534 2 51.3473 50.8054 15.839
535 2 55.5584 50.8957 15.9836
536 2 59.4738 51.1135 15.8658
537 2 63.4339 51.1039 0.0581292
538 2 67.4125 51.2233 0.0579263
539 2 71.4418 51.1736 15.8616
540 2 75.5643 51.1157 0.0352757
541 2 79.6054 51.3889 15.8871
542 2 83.4604 51.4304 15.8909
543 2 87.3513 51.3908 16.0796
544 2 91.4374 51.6018 0.163895
545 2 95.4115 51.3582 0.198323
546 2 99.5581 51.6625 15.9502
547 2 103.448 51.6038 0.204482
548 2 107.45 51.7447 15.8066
549 2 111.51 51.6604 0.150468
550 2 115.283 51.5959 0.206128
551 2 119.322 51.5776 0.072549
552 2 123.196 51.6892 0.200566
553 2 126.939 51.5159 15.8914
554 2 130.865 51.5642 0.181006
555 2 134.911 51.267 15.9026
556 2 138.72 51.265 0.263868
557 2 142.763 51.2213 16.0827
558 2 146.522 51.1174 15.8906
559 2 150.585 51.3017 0.0876703
560 2 154.377 51.1641 0.0555885
561 2 158.369 55.1696 0.0895565
562 2 3.74996 55.0625 0.0415053
563 2 7.7944 54.9822 0.0980104
564 2 11.7809 55.0074 15.9218
565 2 15.748 54.8687 16.0017
566 2 19.7404 54.6592 15.7637
567 2 23.52 54.7365 15.8533
568 2 27.4357 54.723 15.9346
569 2 31.536 54.6947 0.0293242
570 2 35.2432 54.6502 16.1083
571 2 39.3818 54.7867 0.203081
572 2 43.3629 54.6178 15.7632
573 2 47.4297 54.7644 15.9311
574 2 51.2116 54.5709 16.0478
575 2 55.3456 54.7922 0.205534
576 2 59.4786 54.9443 0.238319
577 2 63.5078 54.9879 15.8034
578 2 67.4066 55.0302 0.0981325
579 2 71.4757 55.0657 15.6516
580 2 75.5838 55.2124 15.8926
581 2 79.1985 55.3162 15.8785
582 2 83.4133 55.2629 15.9331
583 2 87.314 55.3827 0.232084
584 2 91.3515 55.4427 0.0703551
585 2 95.4693 55.2739 0.167082
586 2 99.409 55.5961 15.9523
587 2 103.276 55.6082 0.261211
588 2 107.454 55.6258 0.051684
589 2 111.355 55.7118 15.7214
590 2 115.252 55.4812 0.135876
591 2 119.2 55.5743 0.072545
592 2 123.167 55.4907 0.261044
593 2 127.063 55.5183 16.0581
594 2 130.694 55.6081 15.9385
595 2 134.731 55.424 15.947
596 2 138.59 55.1939 0.329753
597 2 142.614 55.2363 0.208684
598 2 146.482 55.2046 15.7865
599 2 150.393 55.2562 15.9359
600 2 154.315 55.1052 0.164113
601 2 -0.129016 59.1357 0.0805122
602 2 4.07815 59.0655 0.373149
603 2 7.8142 58.8853 0.174665
604 2 11.5095 58.9856 15.9485
605 2 15.6964 58.7962 0.181395
606 2 19.8193 58.6912 15.8605
607 2 23.5535 58.6818 16.0227
608 2 27.5564 58.8235 0.0819664
609 2 31.3359 58.5783 15.8962
610 2 35.2349 58.6121 0.201665
611 2 39.2297 58.5668 0.252035
612 2 43.0988 58.5651 15.8838
613 2 47.0472 58.5664 0.0825989
614 2 51.3501 58.5121 15.8622
615 2 55.358 58.7643 15.843
616 2 59.3792 58.8944 15.8884
617 2 63.4147 58.904 0.137562
618 2 67.3655 58.8281 15.9834
619 2 71.4044 59.1141 0.136299
620 2 75.4907 58.9541 0.123299
621 2 79.2224 59.2525 15.7793
622 2 83.2923 59.2539 16.0184
623 2 87.3399 59.3876 0.145484
624 2 91.2948 59.2487 0.322765
625 2 95.5041 59.545 0.313759
626 2 99.3306 59.3854 16.0042
627 2 103.399 59.4226 0.161121
628 2 107.343 59.4942 0.011263
629 2 111.269 59.4589 0.189387
630 2 115.27 59.6151 0.187739
631 2 119.101 59.5526 0.110926
632 2 122.907 59.5521 0.265179
633 2 127.094 59.4629 0.163411
634 2 130.823 59.523 16.0774
635 2 134.861 59.257 0.416693
636 2 138.777 59.2064 0.132813
637 2 142.62 59.2989 15.8961
638 2 146.413 59.1281 0.199544
639 2 150.359 59.2785 0.019296
640 2 154.391 59.0549 0.0756623
641 2 -0.12721 63.1009 15.7537
642 2 3.92478 63.021 16.1624
643 2 8.06642 62.8823 0.119581
644 2 11.8306 62.8 0.289841
645 2 15.8432 62.7937 15.8294
646 2 19.6858 62.7089 15.9373
647 2 23.7048 62.6483 16.1266
648 2 27.4452 62.7171 0.279404
649 2 31.5259 62.6123 16.0483
650 2 35.2845 62.5923 15.8032
651 2 39.3615 62.4402 0.0834596
652 2 43.0745 62.6162 0.0281831
653 2 47.2022 62.436 15.9759
654 2 51.2532 62.5774 0.0250651
655 2 55.2922 62.5754 0.176806
656 2 59.2834 62.6505 0.188594
657 2 63.3713 62.6314 0.254068
658 2 67.3276 62.8931 0.00848288
659 2 71.1968 62.954 0.232326
660 2 75.1019 62.9365 15.8817
661 2 79.277 63.0827 15.8673
662 2 83.1569 63.1164 15.9718
663 2 87.2171 63.2758 0.288966
664 2 91.3055 63.0932 15.9887
665 2 95.2547 63.4949 0.0419023
666 2 99.288 63.4121 -0.0249063
667 2 103.304 63.2568 0.0648981
668 2 107.252 63.4463 0.463857
669 2 111.29 63.4494 0.164403
670 2 115.104 63.5971 -0.0397723
671 2 119.298 63.7543 15.8736
672 2 123.262 63.5272 16.107
673 2 127.065 63.5587 16.0512
674 2 130.842 63.2718 0.265166
675 2 134.825 63.3265 15.8661
676 2 138.736 63.5035 0.169944
677 2 142.588 63.27 0.158888
678 2 146.487 63.1443 0.247836
679 2 150.524 63.3661 15.9568
680 2 154.297 63.1166 16.0228
681 2 0.22662 66.9048 0.218574
682 2 3.99196 66.947 0.214446
683 2 7.75328 66.7248 0.302323
684 2 11.7762 66.8778 15.737
685 2 15.7823 66.7309 15.9048
686 2 19.5262 66.7307 15.9993
687 2 23.4508 66.7183 15.9957
688 2 27.434 66.6625 16.0588
689 2 31.4039 66.7145 0.0443448
690 2 35.36 66.4437 0.200389
691 2 39.3011 66.3003 0.0637152
692 2 43.2234 66.3464 15.9177
693 2 47.0755 66.3894 0.145582
694 2 51.119 66.4817 15.8813
695 2 55.1118 66.3202 15.9174
696 2 59.199 66.6701 15.742
697 2 63.1677 66.8863 15.6414
698 2 67.0829 66.7373 15.8399
699 2 71.1403 66.7538 0.153022
700 2 75.2253 67.0121 0.137346
701 2 79.0079 67.1305 16.0103
702 2 83.0938 67.1053 15.9225
703 2 87.2105 67.2759 15.893
704 2 91.0771 67.115 0.0946211
705 2 95.2315 67.1365 16.002
706 2 99.2925 67.2314 15.9555
707 2 103.121 67.2274 0.17841
708 2 107.33 67.2256 16.0941
709 2 111.282 67.4674 0.303416
710 2 115.254 67.374 0.120255
711 2 119.365 67.6193 0.13154
712 2 123.234 67.4465 16.0113
713 2 127.166 67.5441 15.8968
714 2 131.12 67.5508 15.8169
715 2 134.811 67.2641 15.8308
716 2 138.75 67.3972 16.0654
717 2 142.744 67.2955 15.8037
718 2 146.618 67.1495 0.144009
719 2 150.611 67.3257 16.1029
720 2 154.574 67.0558 16.0525
721 2 0.221995 70.9849 15.9554
722 2 4.03963 70.9522 15.8459
723 2 7.77366 70.9605 0.0642666
724 2 11.6477 70.8577 16.0017
725 2 15.7717 70.7635 15.8606
726 2 19.6946 70.5893 0.0938148
727 2 23.6001 70.866 15.7898
728 2 27.3775 70.6852 15.9444
729 2 31.4244 70.5854 16.0125
730 2 35.4085 70.5424 15.9172
731 2 39.28 70.536 15.8664
732 2 43.1908 70.4861 0.286447
733 2 47.2018 70.3076 15.8546
734 2 51.0822 70.5019 15.884
735 2 55.0314 70.3631 15.836
736 2 58.9399 70.3044 -0.0340933
737 2 63.0873 70.5393 15.9122
738 2 67.2992 70.6086 0.19958
739 2 70.9809 70.7924 15.8502
740 2 75.0304 70.7776 15.9339
741 2 79.194 70.8681 15.8362
742 2 83.052 71.0516 0.246113
743 2 86.9062 71.1332 15.8956
744 2 90.9334 71.0685 0.149694
745 2 94.871 71.0615 0.326597
746 2 99.1451 71.1556 15.872
747 2 103.21 71.1893 -0.0169596
748 2 107.091 71.28 0.148438
749 2 111.045 71.2903 15.7448
750 2 115.109 71.4977 0.134046
751 2 119.075 71.4444 15.8838
752 2 123.129 71.5382 0.218978
753 2 127.218 71.4908 16.0033
754 2 131.158 71.5055 15.9515
755 2 134.951 71.6057 16.1302
756 2 138.829 71.2995 16.0986
757 2 142.651 71.3689 16.0615
758 2 146.646 71.2836 15.8926
759 2 150.626 71.2833 16.1688
760 2 154.491 70.9627 15.9458
761 2 -0.108252 74.9914 15.88
762 2 4.25141 74.9612 15.9169
763 2 7.94345 74.9987 16.1506
764 2 11.8678 74.7654 15.9018
765 2 15.7234 74.876 16.0153
766 2 19.6779 74.5802 15.968
767 2 23.5056 74.7659 15.9432
768 2 27.6067 74.6755 15.7928
769 2 31.4806 74.702 -0.0195027
770 2 35.3717 74.4248 16.0505
771 2 39.2935 74.7325 15.9699
772 2 43.3511 74.5668 0.234474
773 2 47.2122 74.4474 15.681
774 2 51.1324 74.4442 0.191586
775 2 54.9473 74.176 15.8941
776 2 58.9961 74.296 15.9684
777 2 62.9464 74.4234 15.9563
778 2 67.023 74.4786 15.9261
779 2 71.0369 74.7403 15.903
780 2 75.0813 74.6716 0.12959
781 2 78.9776 74.7592 15.9645
782 2 82.8628 74.9878 15.9311
783 2 86.9251 74.9226 15.9483
784 2 90.7744 75.0431 0.0640131
785 2 95.0444 74.8992 15.7382
786 2 99.0126 74.9249 0.23594
787 2 103.007 75.0524 15.8314
788 2 107.132 75.2512 0.22999
789 2 111.012 75.1494 15.9016
790 2 114.958 75.1845 0.0535885
791 2 118.866 75.2656 15.9652
792 2 123.089 75.4034 15.9336
793 2 127.046 75.5273 0.377478
794 2 131.011 75.506 0.0442588
795 2 134.938 75.4993 15.8754
796 2 138.814 75.3604 15.8555
797 2 142.885 75.4358 0.039146
798 2 146.681 75.167 15.9854
799 2 150.523 75.3009 15.9708
800 2 154.585 75.1593 0.147538
801 2 0.0749661 78.9328 15.9101
802 2 3.93231 78.9779 16.0078
803 2 7.939 78.9006 15.9936
804 2 11.8866 78.7647 15.9644
805 2 15.7333 78.8145 15.83
806 2 19.6258 78.6912 15.9184
807 2 23.5773 78.7512 15.8884
808 2 27.5332 78.5574 16.038
809 2 31.6156 78.6821 0.140912
810 2 35.2644 78.4959 15.9297
811 2 39.1544 78.5686 0.15639
812 2 43.0725 78.4875 0.131214
813 2 47.3249 78.451 -0.0609312
814 2 51.1505 78.4745 15.9827
815 2 55.0717 78.6027 15.9159
816 2 58.7616 78.5027 15.9552
817 2 62.8007 78.3527 15.9705
818 2 66.7901 78.2952 16.0537
819 2 70.8401 78.5781 16.0206
820 2 74.9027 78.6254 15.8676
821 2 78.8576 78.7233 0.0251664
822 2 82.6311 78.8085 0.284961
823 2 86.8394 78.7792 0.205209
824 2 90.7701 79.0132 0.334328
825 2 94.8196 78.9956 0.265268
826 2 98.8109 78.8486 15.7653
827 2 102.86 79.1717 0.324239
828 2 106.887 79.0095 16.0191
829 2 110.921 79.1228 0.0188457
830 2 114.967 79.2622 15.7828
831 2 118.876 79.1359 0.142087
832 2 122.92 79.2563 0.215391
833 2 126.929 79.3728 16.077
834 2 131.107 79.2577 0.178723
835 2 135.108 79.4608 15.9102
836 2 139.029 79.4995 15.9777
837 2 142.877 79.1259 15.8412
838 2 146.843 79.2568 15.9049
839 2 150.523 79.0465 15.9893
840 2 154.344 79.0934 15.9111
841 2 0.203466 82.9372 15.8045
842 2 4.1843 82.9683 16.0905
843 2 8.16717 83.0176 16.1161
844 2 11.8081 82.9933 15.9936
845 2 15.7864 82.6841 15.9997
846 2 19.8598 82.7575 15.9707
847 2 23.6255 82.6324 16.0864
848 2 27.5403 82.7342 15.8999
849 2 31.593 82.6206 15.7196
850 2 35.4573 82.4983 15.9428
851 2 39.3156 82.3902 0.120107
852 2 43.1556 82.4649 16.043
853 2 47.1888 82.3659 15.8486
854 2 51.2063 82.3273 16.0064
855 2 54.9833 82.3935 16.0649
856 2 58.9727 82.5109 15.917
857 2 62.7345 82.4792 15.8962
858 2 66.6833 82.4467 0.148849
859 2 70.7691 82.583 0.304022
860 2 74.7102 82.7168 15.8456
861 2 78.7928 82.6766 0.307486
862 2 82.8669 82.8509 16.0269
863 2 86.9252 82.7021 15.847
864 2 90.829 82.8963 0.000314628
865 2 94.8248 82.9125 15.8804
866 2 98.8399 83.002 15.8405
867 2 102.813 83.0426 0.394946
868 2 106.984 83.0932 0.406962
869 2 110.983 83.0879 15.8514
870 2 114.844 83.3376 15.9153
871 2 118.814 83.2211 0.257597
872 2 122.822 83.2419 15.8996
873 2 126.937 83.1146 0.251337
874 2 130.922 83.1771 16.0744
875 2 134.921 83.3793 0.261677
876 2 139.085 83.2648 16.0445
877 2 142.84 83.2405 0.138897
878 2 146.743 83.3034 0.177413
879 2 150.803 83.1733 16.0167
880 2 154.7 83.1097 16.0789
881 2 0.224919 87.0548 15.7644
882 2 4.12309 87.0678 0.0151569
883 2 8.05888 87.0503 15.9847
884 2 11.8207 86.853 15.9703
885 2 15.8146 86.8173 0.179264
886 2 19.9109 86.6393 15.9178
887 2 23.7655 86.7713 16.0594
888 2 27.4329 86.8576 15.9539
889 2 31.5199 86.5963 15.9368
890 2 35.5745 86.6832 15.8457
891 2 39.3438 86.4918 16.005
892 2 43.3659 86.2977 16.0341
893 2 47.3765 86.3275 0.320377
894 2 51.3828 86.4811 0.164081
895 2 55.051 86.3076 0.268945
896 2 58.8761 86.4403 15.9582
897 2 62.669 86.318 16.0853
898 2 66.8218 86.4842 0.123664
899 2 70.5889 86.3669 0.0529106
900 2 74.6526 86.3045 15.9709
901 2 78.659 86.4957 0.214554
902 2 82.7602 86.6645 0.145495
903 2 86.7389 86.5903 15.7525
904 2 90.7246 86.7308 0.0216277
905 2 94.6802 86.6964 15.9125
906 2 98.969 86.8218 15.9559
907 2 102.667 86.9053 0.425369
908 2 106.743 86.8617 0.155682
909 2 110.839 86.9536 16.1428
910 2 114.805 87.1501 0.325345
911 2 118.695 87.3209 0.029181
912 2 122.684 87.2119 0.280275
913 2 127.044 87.201 15.9723
914 2 130.811 87.2969 0.0816629
915 2 134.93 87.229 15.9851
916 2 139.04 87.2452 0.296442
917 2 143.017 87.1953 0.124889
918 2 146.692 87.1082 0.208342
919 2 150.786 87.1477 15.909
920 2 154.562 87.0638 15.8599
921 2 0.443538 90.9718 15.8119
922 2 4.31908 91.1413 -0.0207689
923 2 8.05736 90.9501 -0.043231
924 2 11.8254 90.869 -0.0194437
925 2 15.8081 90.8443 15.8292
926 2 19.7321 90.6307 15.9063
927 2 23.6396 90.6614 15.9624
928 2 27.6562 90.757 15.8353
929 2 31.5084 90.5761 16.0902
930 2 35.5072 90.6339 15.8256
931 2 39.5081 90.6247 16.1192
932 2 43.3497 90.4391 0.382038
933 2 47.2128 90.544 16.0893
934 2 51.0335 90.5116 15.8431
935 2 55.0333 90.4051 16.0518
936 2 58.9056 90.1834 15.7516
937 2 62.8823 90.5265 0.144736
938 2 66.7508 90.3595 15.7106
939 2 70.629 90.3578 16.0138
940 2 74.557 90.2919 16.0452
941 2 78.6351 90.4601 0.265856
942 2 82.7526 90.6867 0.221599
943 2 86.9044 90.4956 15.9815
944 2 90.7157 90.6046 0.149299
945 2 94.8222 90.6866 0.251814
946 2 98.7173 90.6676 0.202998
947 2 102.714 90.9 0.110316
948 2 106.799 90.5964 0.0716447
949 2 110.761 90.9128 15.983
950 2 114.705 90.9329 0.387664
951 2 118.76 91.2226 0.0293174
952 2 122.49 91.0825 0.246967
953 2 126.705 90.9591 0.260888
954 2 130.65 91.1799 15.9816
955 2 134.898 91.191 0.168427
956 2 138.717 91.3113 0.00605445
957 2 143.03 91.1233 0.177141
958 2 146.912 91.132 0.0970131
959 2 150.855 91.1546 15.9153
960 2 154.601 91.5014 0.137021
961 2 0.457695 95.0854 15.7684
962 2 4.37917 94.9501 15.9583
963 2 8.29464 94.9695 0.248957
964 2 12.2695 94.9019 15.8715
965 2 16.0833 94.8019 15.8525
966 2 19.9501 94.7196 15.8779
967 2 23.7883 94.8337 15.8166
968 2 27.7097 94.6108 15.7975
969 2 31.4626 94.6471 15.8082
970 2 35.5372 94.5925 0.283396
971 2 39.2819 94.4741 15.9573
972 2 43.3607 94.5312 15.9379
973 2 47.2394 94.3409 15.8195
974 2 51.0273 94.2784 0.362988
975 2 54.9806 94.4009 15.8531
976 2 58.9665 94.4722 15.901
977 2 62.834 94.309 16.0419
978 2 66.8209 94.3989 -0.0325356
979 2 70.6638 94.2843 0.0218695
980 2 74.5661 94.2973 15.9965