ITEM: TIMESTEP
16700
ITEM: NUMBER OF ATOMS
32000
ITEM: BOX BOUNDS xy xz yz pp pp pp
0.0000000000000000e+00 1.5831999999999999e+02 0.0000000000000000e+00
0.0000000000000000e+00 1.5831999999999999e+02 0.0000000000000000e+00
1.6300046968599347e-01 1.5934711530313786e+01 0.0000000000000000e+00
ITEM: ATOMS id type x y z
1 2 158.206 157.862 16.0154
2 2 3.81766 157.71 0.0755624
3 2 7.80842 157.854 -0.0879367
4 2 11.8955 157.834 16.0539
5 2 15.8041 158 -0.0867148
6 2 19.9714 158.157 0.198869
7 2 23.928 157.985 16.0192
8 2 27.842 158.041 0.331784
9 2 31.8538 158.154 16.0777
10 2 35.8077 158.354 0.289174
11 2 39.8647 158.283 0.286112
12 2 43.8364 158.306 15.7522
13 2 47.8975 -0.00150103 15.8051
14 2 51.8686 0.130601 15.7814
15 2 55.9479 158.538 15.9425
16 2 59.871 0.270739 15.8456
17 2 63.8563 0.213508 0.197948
18 2 67.8528 0.200681 0.442306
19 2 71.6865 158.484 15.9405
20 2 75.5788 158.386 15.9542
21 2 79.5427 158.261 15.7643
22 2 83.4582 158.279 0.275991
23 2 87.2068 158.012 0.295274
24 2 91.1817 158.159 0.194067
25 2 95.1803 158.005 0.246919
26 2 99.0545 158.063 0.285639
27 2 102.901 157.952 0.400127
28 2 106.718 158.102 15.9603
29 2 110.69 158.044 0.101355
30 2 114.609 158.01 0.180642
31 2 118.452 157.702 0.200137
32 2 122.546 157.877 16.1077
33 2 126.522 157.885 16.1145
34 2 130.208 157.622 15.9464
35 2 134.03 157.732 15.9504
36 2 138.049 157.62 15.7511
37 2 141.993 157.509 15.9439
38 2 146.151 157.487 15.9991
39 2 150.067 157.66 15.9455
40 2 154.214 157.714 15.7742
41 2 158.107 3.18329 0.205771
42 2 3.88468 3.41688 15.8094
43 2 7.81803 3.34387 0.0882451
44 2 11.7391 3.42802 0.134512
45 2 15.7468 3.60431 0.227383
46 2 19.8245 3.65601 15.9382
47 2 23.9563 3.74733 0.129888
48 2 27.846 3.57505 0.109177
49 2 31.8758 3.83623 0.191928
50 2 35.7155 3.93786 -0.050791
51 2 39.6029 3.75487 -0.0752006
52 2 43.9053 3.7806 0.0931618
53 2 47.9858 3.84081 15.978
54 2 52.0574 3.95285 0.342676
55 2 55.8859 3.97055 0.230331
56 2 59.7196 4.1575 0.0773496
57 2 63.891 4.16576 15.8265
58 2 67.6466 4.03044 0.350639
59 2 71.8456 4.14021 0.293242
60 2 75.6001 3.96022 0.187378
61 2 79.6257 3.79162 -0.0012732
62 2 83.3596 4.06012 0.28524
63 2 87.3728 3.80001 0.104696
64 2 91.1065 4.086 0.218699
65 2 95.2052 3.81078 15.8718
66 2 99.0523 3.96054 0.00705049
67 2 102.804 3.69676 0.413089
68 2 106.73 3.72738 15.9234
69 2 110.787 3.72533 15.8607
70 2 114.502 3.51919 15.9294
71 2 118.619 3.44013 15.9677
72 2 122.572 3.27867 -0.00350294
73 2 126.417 3.44334 16.0264
74 2 130.34 3.28931 0.0646016
75 2 134.341 3.18161 15.9531
76 2 138.136 3.24494 0.4486
77 2 141.869 3.17789 16.1562
78 2 145.803 3.18898 0.358511
79 2 150.025 3.12598 16.0054
80 2 154.195 3.23888 15.7102
81 2 158.215 7.182 0.0923068
82 2 3.59617 7.34296 15.7301
83 2 7.6855 7.46209 15.6704
84 2 11.8155 7.22643 15.8492
85 2 15.8154 7.58425 0.089898
86 2 19.6615 7.6142 15.8748
87 2 23.8833 7.73708 0.0182727
88 2 27.8292 7.65965 0.075311
89 2 31.7825 7.79624 15.6489
90 2 36.0417 7.74102 16.0687
91 2 39.7846 7.63861 16.0999
92 2 43.9084 7.72297 16.0793
93 2 47.9893 7.63719 0.237118
94 2 51.9434 7.87673 15.6999
95 2 55.6361 8.03142 -0.036401
96 2 59.7056 8.1518 0.175921
97 2 63.689 8.09907 0.203519
98 2 67.7154 8.00552 0.310368
99 2 71.7173 8.153 0.139561
100 2 75.9143 8.04111 0.293708
101 2 79.5718 8.12227 16.082
102 2 83.3873 7.92515 0.144444
103 2 87.3566 7.6838 15.9004
104 2 91.4374 7.90752 0.151217
105 2 95.3094 7.97654 0.0689819
106 2 99.1002 7.79311 0.0221065
107 2 102.971 7.70371 0.255232
108 2 107.01 7.69999 0.0638444
109 2 111.015 7.734 0.107611
110 2 114.908 7.52817 0.295197
111 2 118.622 7.56733 0.0745784
112 2 122.642 7.54261 0.187671
113 2 126.437 7.21909 15.9438
114 2 130.482 7.34193 0.397319
115 2 134.432 7.29215 0.183766
116 2 138.294 7.35129 15.619
117 2 142.149 7.23422 16.1077
118 2 145.978 7.01022 0.208474
119 2 149.944 6.93193 15.9444
120 2 154.026 7.21213 15.8451
121 2 158.005 11.0714 0.281007
122 2 3.59536 11.2748 0.00801559
123 2 7.72 11.4023 15.9803
124 2 11.54 11.8067 15.797
125 2 15.5205 11.4732 15.8856
126 2 19.7048 11.5968 0.360307
127 2 23.8613 11.4307 0.00956154
128 2 27.7733 11.3909 0.138133
129 2 31.8012 11.6135 0.169257
130 2 35.7609 11.5892 0.262553
131 2 39.934 11.7474 0.228197
132 2 43.8019 11.7766 15.9284
133 2 47.8572 11.89 15.8044
134 2 51.7988 11.9965 15.9205
135 2 55.872 11.9597 0.11734
136 2 59.6102 11.9632 15.9978
137 2 63.7675 12.004 0.0904008
138 2 67.9079 11.8438 16.0293
139 2 71.7881 12.1788 0.292334
140 2 75.73 12.0285 0.122716
141 2 79.8479 11.9311 0.245791
142 2 83.5832 11.998 0.341114
143 2 87.4328 11.9758 0.0245434
144 2 91.252 12.0755 0.290111
145 2 95.218 11.9643 0.301091
146 2 99.2306 11.9438 0.219497
147 2 103.092 11.7189 0.0305129
148 2 106.94 11.7599 0.0674807
149 2 110.932 11.7162 -0.0652106
150 2 114.873 11.6586 0.136774
151 2 118.778 11.4639 -0.00128355
152 2 122.544 11.4376 0.192356
153 2 126.632 11.517 0.16964
154 2 130.452 11.1197 16.0678
155 2 134.487 11.3282 0.3775
156 2 138.358 11.1969 0.119181
157 2 142.201 11.2046 15.8563
158 2 146.039 11.1295 15.8874
159 2 150.097 11.1642 16.0897
160 2 153.946 11.043 16.0112
161 2 158.108 15.0583 0.213177
162 2 3.7158 14.9746 -0.0662637
163 2 7.51109 15.1703 0.00469138
164 2 11.4165 15.3557 15.9586
165 2 15.5515 15.3386 15.8403
166 2 19.5701 15.2844 0.135255
167 2 23.7366 15.3232 0.126666
168 2 27.6026 15.328 15.9134
169 2 31.75 15.3502 15.8717
170 2 35.8983 15.6529 0.142353
171 2 39.8311 15.7118 15.8603
172 2 43.6935 15.7496 0.178747
173 2 47.6123 15.623 0.0538312
174 2 51.657 15.7414 0.0574134
175 2 55.6148 15.8023 16.0444
176 2 59.7459 15.9865 0.170125
177 2 63.6992 15.984 0.230709
178 2 67.7263 16.1581 0.143691
179 2 71.7358 16.1237 0.231266
180 2 75.7725 15.9994 15.8952
181 2 79.8766 16.0917 0.0699856
182 2 83.7833 15.9356 0.209596
183 2 87.5747 16.0753 0.00756255
184 2 91.3244 15.8066 0.161799
185 2 95.5283 15.9456 0.181708
186 2 99.2305 15.742 0.0138892
187 2 103.22 15.6077 0.126868
188 2 107.051 15.8317 -0.0313546
189 2 110.974 15.608 0.388444
190 2 114.822 15.6098 0.21858
191 2 118.63 15.6168 0.264137
192 2 122.87 15.5553 16.0044
193 2 126.641 15.2595 0.171746
194 2 130.691 15.3644 0.20556
195 2 134.508 15.1587 0.280862
196 2 138.338 15.255 -0.00745287
197 2 142.212 15.1676 0.112345
198 2 146.186 15.0944 -0.124637
199 2 149.994 15.1006 15.9383
200 2 153.933 15.0285 0.146965
201 2 157.98 18.9894 15.9243
202 2 3.74996 19.1189 0.0333304
203 2 7.62474 18.9883 15.927
204 2 11.5441 19.2449 15.7596
205 2 15.4898 19.1047 15.8209
206 2 19.741 19.1786 0.0347249
207 2 23.803 19.2747 0.0591238
208 2 27.6688 19.3579 0.133028
209 2 31.5463 19.3421 15.8156
210 2 35.7358 19.546 15.7618
211 2 39.7286 19.5659 0.0874044
212 2 43.6867 19.5249 15.9967
213 2 47.6823 19.5689 15.9744
214 2 51.6178 19.7336 15.88
215 2 55.8089 19.8439 15.8628
216 2 59.7168 19.9431 15.8315
217 2 63.6842 19.8019 16.0308
218 2 67.8511 20.0419 15.8656
219 2 71.7883 19.9729 0.0269821
220 2 75.6773 20.0383 0.0157123
221 2 79.6445 20.0154 0.373278
222 2 83.8335 20.0121 0.197839
223 2 87.7172 20.0024 15.989
224 2 91.5351 19.9729 0.184689
225 2 95.3978 19.7341 0.309002
226 2 99.4143 19.7189 15.8572
227 2 103.379 19.6481 16.0892
228 2 107.24 19.6061 15.7793
229 2 110.948 19.6169 0.168841
230 2 114.938 19.6849 0.312735
231 2 119.101 19.4663 15.9599
232 2 122.848 19.2881 0.0789325
233 2 126.797 19.6229 0.279596
234 2 130.68 19.4032 0.393697
235 2 134.467 19.1886 16.1125
236 2 138.476 19.2775 15.9061
237 2 142.374 19.2211 -0.0881113
238 2 146.338 19.1771 0.132203
239 2 150.286 19.0329 0.117676
240 2 154.131 19.019 15.9112
241 2 158.06 23.0027 15.8508
242 2 3.7084 22.852 15.7123
243 2 7.67979 23.0711 0.0997202
244 2 11.5437 23.0607 15.5282
245 2 15.5665 22.8907 15.6513
246 2 19.6936 22.9978 0.183398
247 2 23.6566 23.1965 15.8859
248 2 27.551 23.4669 15.9551
249 2 31.7533 23.2293 -0.110868
250 2 35.4632 23.3781 15.8117
251 2 39.6116 23.6732 0.388933
252 2 43.608 23.5296 15.8521
253 2 47.4292 23.623 15.893
254 2 51.5826 23.7537 0.0546953
255 2 55.6538 23.6796 16.0296
256 2 59.7898 23.6681 15.9584
257 2 63.7231 23.6524 15.9582
258 2 67.6736 23.8 0.0233585
259 2 71.5229 23.9194 0.34831
260 2 75.6881 23.8154 0.104124
261 2 79.7092 24.017 15.9341
262 2 83.7774 23.9871 15.9624
263 2 87.8192 24.1969 0.122578
264 2 91.6957 24.0348 15.8822
265 2 95.6097 23.848 16.0826
266 2 99.4407 23.781 0.109617
267 2 103.445 23.715 0.307237
268 2 107.211 23.6055 0.0177038
269 2 111.138 23.5454 -0.0412001
270 2 115.199 23.6352 15.7808
271 2 118.932 23.5168 15.8584
272 2 122.906 23.3919 0.121297
273 2 126.766 23.6065 0.126672
274 2 130.72 23.5366 15.8783
275 2 134.465 23.5031 0.198848
276 2 138.548 23.2983 15.8754
277 2 142.327 23.1109 0.102267
278 2 146.153 23.136 0.162385
279 2 150.159 23.0731 -0.0265279
280 2 154.041 23.2057 -0.00629366
281 2 157.856 26.9381 0.0958333
282 2 3.55409 27.156 15.9115
283 2 7.34098 27.0928 -0.150461
284 2 11.424 26.9396 15.6853
285 2 15.5202 26.9249 15.6346
286 2 19.6343 26.7659 0.0300431
287 2 23.6185 27.1826 0.05058
288 2 27.5887 27.1665 0.146941
289 2 31.7072 27.234 15.7488
290 2 35.3643 27.1682 0.120295
291 2 39.6394 27.1912 0.118625
292 2 43.5375 27.3543 15.7929
293 2 47.624 27.5606 -0.133877
294 2 51.7186 27.5649 0.0177854
295 2 55.7572 27.533 0.204984
296 2 59.5182 27.6349 0.18954
297 2 63.8574 27.5713 0.179545
298 2 67.732 27.6518 0.151018
299 2 71.6887 27.8302 0.185261
300 2 75.6485 27.764 15.831
301 2 79.6302 27.7494 0.125561
302 2 83.7365 27.9308 16.0366
303 2 87.6706 27.9801 0.198141
304 2 91.5981 27.9852 15.8425
305 2 95.7605 27.9051 15.9727
306 2 99.427 27.8445 0.160002
307 2 103.313 27.7831 0.281422
308 2 107.338 27.7409 15.8421
309 2 111.162 27.6186 -0.0578164
310 2 114.971 27.5215 15.9467
311 2 119.056 27.4999 16.0031
312 2 122.934 27.4156 0.391641
313 2 126.994 27.4379 -0.0898416
314 2 130.771 27.4241 0.0909357
315 2 134.766 27.3348 15.6705
316 2 138.613 27.2301 0.1614
317 2 142.348 27.2454 0.0213296
318 2 146.347 27.166 -0.0898603
319 2 150.152 27.017 0.0205668
320 2 154.235 27.0377 15.7756
321 2 158.13 31.1746 15.867
322 2 3.65182 30.9751 -0.0959464
323 2 7.77274 30.9341 0.0363905
324 2 11.4866 31.0037 15.8945
325 2 15.4145 30.7767 0.123093
326 2 19.4621 30.9222 15.9118
327 2 23.4096 30.9794 15.7204
328 2 27.6172 31.0596 0.0685894
329 2 31.6055 31.1878 0.262773
330 2 35.5484 31.0522 15.8242
331 2 39.467 31.2691 15.9636
332 2 43.5536 31.4294 0.0777537
333 2 47.5674 31.2098 15.8976
334 2 51.471 31.3687 16.1239
335 2 55.7581 31.4552 0.154873
336 2 59.6869 31.446 0.152002
337 2 63.6722 31.6439 15.9016
338 2 67.5114 31.6557 0.182706
339 2 71.6343 31.6094 15.9317
340 2 75.7009 31.7789 0.45836
341 2 79.5885 31.4791 0.361273
342 2 83.8826 31.8879 15.9608
343 2 87.7248 32.0489 0.120522
344 2 91.714 31.9249 0.279508
345 2 95.6943 31.9098 0.271311
346 2 99.6657 31.8703 0.0426745
347 2 103.445 31.8696 16.146
348 2 107.365 31.7423 0.388316
349 2 111.272 31.6414 15.9977
350 2 115.104 31.6375 0.21736
351 2 119.106 31.4543 15.8806
352 2 123.037 31.4813 0.126704
353 2 126.749 31.6751 -0.0889097
354 2 130.892 31.3739 0.0230341
355 2 134.743 31.3101 0.130658
356 2 138.683 31.2623 15.8838
357 2 142.666 31.2441 15.755
358 2 146.395 31.0537 15.8075
359 2 150.38 30.9405 15.8435
360 2 154.205 31.079 16.0143
361 2 158.279 35.0574 15.8263
362 2 3.77767 34.9489 0.0640866
363 2 7.52633 35.0297 -0.0581534
364 2 11.4848 35.0442 15.8754
365 2 15.624 34.8184 -0.114257
366 2 19.2701 34.6304 15.7334
367 2 23.2931 34.8104 15.7441
368 2 27.3001 34.8834 -0.126644
369 2 31.5005 35.081 0.0625375
370 2 35.4997 35.0853 16.0803
371 2 39.5633 35.0638 -0.0871492
372 2 43.6395 35.2175 15.9483
373 2 47.5292 35.2376 15.8664
374 2 51.6108 35.3875 0.0460292
375 2 55.329 35.2868 15.9772
376 2 59.5753 35.4242 0.107899
377 2 63.6013 35.662 0.127105
378 2 67.5905 35.5842 0.144584
379 2 71.4874 35.4224 0.0339198
380 2 75.7781 35.6074 16.0782
381 2 79.6989 35.5706 16.085
382 2 83.6661 35.8332 0.291121
383 2 87.5103 35.779 0.118952
384 2 91.6824 35.8644 15.9185
385 2 95.6957 35.9183 15.9734
386 2 99.6516 35.8048 0.200888
387 2 103.425 35.9713 15.9074
388 2 107.122 35.8254 0.175578
389 2 111.147 35.6794 16.2214
390 2 115.082 35.5686 0.192364
391 2 118.903 35.7303 15.8023
392 2 123.212 35.5318 15.84
393 2 127.085 35.4605 0.187459
394 2 130.806 35.4409 0.0827927
395 2 134.643 35.4178 16.1494
396 2 138.52 35.2424 15.7499
397 2 142.594 35.2735 15.9828
398 2 146.558 35.2207 15.6577
399 2 150.271 35.0769 -0.00193253
400 2 154.3 34.9236 -0.00349501
401 2 158.476 39.094 0.171088
402 2 3.96189 39.1947 15.8515
403 2 7.90251 38.9671 15.9868
404 2 11.7433 38.8757 0.172318
405 2 15.5437 38.7095 0.202841
406 2 19.5075 38.7327 15.824
407 2 23.4019 38.8383 15.6464
408 2 27.4631 38.8125 0.109625
409 2 31.1885 39.2347 15.9873
410 2 35.4349 38.9977 0.210651
411 2 39.304 39.0239 0.208146
412 2 43.5181 39.1964 0.237321
413 2 47.5196 39.3051 0.215321
414 2 51.5429 39.1335 0.204681
415 2 55.4906 39.2618 0.129548
416 2 59.5516 39.3272 0.0423868
417 2 63.5326 39.5508 15.7134
418 2 67.6137 39.4301 0.176172
419 2 71.6515 39.4878 0.25084
420 2 75.6184 39.4701 -0.0716971
421 2 79.6703 39.514 15.9201
422 2 83.6153 39.7544 15.861
423 2 87.5444 39.5893 16.1377
424 2 91.6602 39.8192 15.8818
425 2 95.6714 39.6881 16.2019
426 2 99.6341 39.87 0.241651
427 2 103.504 39.7575 0.0184404
428 2 107.204 39.8342 15.8754
429 2 111.177 39.5757 16.0579
430 2 115.149 39.5977 16.0329
431 2 119.181 39.5448 16.055
432 2 123.098 39.4057 0.193465
433 2 126.931 39.3277 15.9425
434 2 130.888 39.2851 0.186011
435 2 134.607 39.2435 0.0275173
436 2 138.739 39.246 15.7247
437 2 142.61 39.1941 15.885
438 2 146.337 39.0959 0.162155
439 2 150.354 39.1054 16.0005
440 2 154.257 39.0164 -0.0685512
441 2 158.302 42.9981 0.00745565
442 2 3.79711 43.094 -0.0610111
443 2 7.71803 43.0674 0.00752326
444 2 11.7657 42.9713 0.150743
445 2 15.7697 42.916 0.267605
446 2 19.5764 42.8382 15.8347
447 2 23.41 42.6539 0.227099
448 2 27.5518 42.843 0.14031
449 2 31.5282 42.9867 0.0766316
450 2 35.4607 42.8951 -0.0807072
451 2 39.2461 43.0523 -0.0953289
452 2 43.3821 43.1341 0.0618291
453 2 47.4494 43.0622 0.0599463
454 2 51.4036 43.1117 0.235293
455 2 55.5236 43.4378 0.227748
456 2 59.3298 43.2116 -0.0117104
457 2 63.2695 43.3092 -0.0960097
458 2 67.5318 43.5334 15.7655
459 2 71.658 43.5391 16.0098
460 2 75.5133 43.4248 0.00125184
461 2 79.6322 43.5925 0.255628
462 2 83.5841 43.427 15.8971
463 2 87.5549 43.7027 16.0607
464 2 91.5709 43.5389 16.1336
465 2 95.5764 43.6259 0.0241539
466 2 99.3194 43.7554 0.108915
467 2 103.422 43.6995 0.164664
468 2 107.349 43.7285 0.258004
469 2 111.264 43.7207 16.0474
470 2 115.018 43.665 15.7259
471 2 119.026 43.4685 0.080746
472 2 123.027 43.5321 0.18864
473 2 126.938 43.3177 0.193367
474 2 130.816 43.2792 0.0285418
475 2 134.697 43.3161 15.8751
476 2 138.639 43.3087 15.9689
477 2 142.425 43.2952 15.8892
478 2 146.51 43.2438 16.123
479 2 150.385 43.0772 0.183368
480 2 154.399 43.0202 15.9469
481 2 158.226 47.036 15.8419
482 2 3.98743 46.9726 15.8305
483 2 7.79348 47.2366 16.1192
484 2 11.7878 46.9335 15.9499
485 2 15.5327 46.9572 0.370405
486 2 19.5742 46.6738 15.932
487 2 23.443 46.7817 0.301721
488 2 27.53 46.6802 0.303706
489 2 31.4364 46.7323 0.251685
490 2 35.5211 46.7169 0.177297
491 2 39.3739 46.8957 0.236559
492 2 43.4427 47.0718 0.0187735
493 2 47.4557 46.9373 15.942
494 2 51.4899 46.8607 16.0354
495 2 55.6511 47.1229 0.162967
496 2 59.4658 47.1851 15.8724
497 2 63.4041 47.2324 0.136837
498 2 67.4215 47.2388 0.190346
499 2 71.347 47.3763 0.312281
500 2 75.2916 47.3135 15.8439
501 2 79.343 47.624 15.995
502 2 83.2731 47.432 0.104869
503 2 87.5334 47.6873 0.319037
504 2 91.6452 47.5443 16.16
505 2 95.4363 47.7322 0.111815
506 2 99.4436 47.6592 0.0929994
507 2 103.425 47.6408 15.9047
508 2 107.239 47.5134 -0.0750535
509 2 111.225 47.8539 15.8035
510 2 115.23 47.5046 15.7846
511 2 119.083 47.5315 0.124818
512 2 122.84 47.4956 0.25228
513 2 126.733 47.3739 -0.00744108
514 2 130.819 47.379 0.0883237
515 2 134.669 47.3421 15.9034
516 2 138.78 47.3291 -0.0731051
517 2 142.628 47.1805 15.9709
518 2 146.429 47.1897 0.468984
519 2 150.258 47.1086 15.8459
520 2 154.228 46.9883 0.118312
521 2 158.352 51.0808 0.0693613
522 2 3.75954 50.9635 0.0881971
523 2 7.9845 50.8585 0.382882
524 2 11.8943 50.7098 15.9447
525 2 15.7348 50.7393 0.17684
526 2 19.7034 50.6887 0.310414
527 2 23.4554 50.719 0.152553
528 2 27.3316 50.6633 16.0775
529 2 31.3613 50.7048 15.8576
530 2 35.3576 50.7508 0.0764812
531 2 39.3816 50.6444 15.8261
532 2 43.2537 50.8088 0.140639
533 2 47.3671 50.9363 0.159745
534 2 51.3607 51.1343 15.9576
535 2 55.3512 51.2173 15.8093
536 2 59.27 51.0075 15.9274
537 2 63.2894 51.1513 0.0760728
538 2 67.4195 51.2579 0.0981969
539 2 71.3848 51.1617 16.0303
540 2 75.4027 51.3142 0.134152
541 2 79.324 51.2997 16.0335
542 2 83.2597 51.4672 15.8539
543 2 87.3006 51.4736 15.9549
544 2 91.6048 51.4111 0.140563
545 2 95.2835 51.7327 0.233039
546 2 99.3939 51.5442 15.7647
547 2 103.519 51.5931 0.0170033
548 2 107.367 51.4804 15.8815
549 2 111.279 51.6151 0.0456755
550 2 115.187 51.5992 -0.0920519
551 2 119.121 51.4248 0.391445
552 2 122.898 51.445 0.271667
553 2 127.045 51.4131 15.8567
554 2 130.785 51.3942 0.0477548
555 2 134.601 51.4341 15.8515
556 2 138.643 51.237 -0.027022
557 2 142.534 51.2122 15.828
558 2 146.404 51.19 15.9484
559 2 150.464 51.1247 0.433175
560 2 154.368 51.0698 0.109927
561 2 158.342 55.002 0.0433436
562 2 3.81555 54.8943 0.361732
563 2 7.71212 54.8263 0.175974
564 2 11.7999 54.6643 15.9138
565 2 15.4622 54.7836 16.0614
566 2 19.602 54.6879 15.971
567 2 23.4625 54.6809 15.8324
568 2 27.4682 54.5875 16.0632
569 2 31.458 54.6044 0.039312
570 2 35.2115 54.5815 15.6701
571 2 39.0807 54.5224 0.0516624
572 2 43.3128 54.8213 15.8214
573 2 47.1371 54.8311 15.8322
574 2 51.2371 55.0226 15.8737
575 2 55.5158 54.9125 0.000784959
576 2 59.1571 54.8793 0.226956
577 2 63.1768 55.0165 16.0787
578 2 67.2375 55.0627 0.185481
579 2 71.2505 54.9722 16.0615
580 2 75.3548 55.154 15.808
581 2 79.4623 55.1492 15.9669
582 2 83.3657 55.3357 15.8787
583 2 87.4361 55.365 0.0497461
584 2 91.4003 55.5932 0.215914
585 2 95.1889 55.4875 0.0578809
586 2 99.3541 55.6016 15.7513
587 2 103.079 55.5255 0.0659039
588 2 107.406 55.6124 0.251349
589 2 111.368 55.711 15.9848
590 2 115.317 55.5361 0.220984
591 2 119.287 55.7091 0.262608
592 2 123.074 55.4951 0.0705555
593 2 126.963 55.3133 15.9105
594 2 130.875 55.2864 16.0253
595 2 134.848 55.3606 15.8682
596 2 138.686 55.3921 0.0318569
597 2 142.709 55.3013 0.202408
598 2 146.652 55.1674 15.9811
599 2 150.545 55.0687 15.9661
600 2 154.239 55.0546 0.118088
601 2 -0.0136506 58.8279 0.321327
602 2 4.04952 58.8533 0.0507202
603 2 7.92856 58.7061 0.241102
604 2 11.8467 58.6077 15.8996
605 2 15.7945 58.7499 0.0820688
606 2 19.6304 58.7201 16.0534
607 2 23.4794 58.8902 15.773
608 2 27.4107 58.5716 0.236215
609 2 31.2661 58.5816 15.8262
610 2 35.4148 58.4953 0.0119624
611 2 39.0369 58.5773 -0.139238
612 2 43.3271 58.8134 16.0845
613 2 47.24 58.7796 0.0829555
614 2 51.2803 58.7263 16.0101
615 2 55.2064 58.7534 16.0026
616 2 59.2997 58.8244 15.9351
617 2 63.3798 58.934 0.273004
618 2 67.2534 59.0326 16.0569
619 2 71.211 59.0042 0.086917
620 2 75.3361 59.0864 0.218609
621 2 79.296 59.0282 15.8528
622 2 83.2364 59.2026 15.7905
623 2 87.2672 59.189 0.165239
624 2 91.2877 59.6135 0.269772
625 2 95.1773 59.4011 0.138272
626 2 99.2333 59.595 15.8998
627 2 103.29 59.644 0.102202
628 2 107.303 59.489 0.151199
629 2 111.398 59.6212 0.173713
630 2 115.335 59.5598 0.174021
631 2 119.273 59.5854 0.295628
632 2 123.196 59.5322 0.335714
633 2 126.938 59.5791 0.42465
634 2 131.063 59.5829 16.1918
635 2 134.757 59.6304 0.0284237
636 2 138.593 59.327 0.127322
637 2 142.702 59.3428 15.9064
638 2 146.557 59.1173 0.120023
639 2 150.635 58.9719 0.268662
640 2 154.4 58.9701 0.112129
641 2 -0.0507864 62.886 15.9863
642 2 4.09026 63.006 15.8628
643 2 7.71792 62.7794 0.221731
644 2 11.7241 62.756 0.224155
645 2 15.789 62.8023 15.9624
646 2 19.644 62.6032 15.8175
647 2 23.473 62.6629 15.5849
648 2 27.4988 62.4663 -0.0891613
649 2 31.3245 62.4186 15.7149
650 2 35.0582 62.8365 15.9851
651 2 39.3038 62.6268 0.209435
652 2 43.0862 62.5065 0.01993
653 2 47.3019 62.7334 15.9404
654 2 51.1344 62.7733 0.100231
655 2 55.121 62.8616 0.152025
656 2 59.0023 62.8439 0.00835616
657 2 63.1398 62.84 0.0896735
658 2 67.1538 63.0675 0.163395
659 2 71.2552 62.9015 0.229364
660 2 75.2006 62.958 15.7927
661 2 79.2973 62.9289 16.0071
662 2 83.3305 63.2496 16.099
663 2 87.0637 63.0736 0.253449
664 2 91.1283 63.3363 15.8803
665 2 95.0112 63.332 0.31995
666 2 99.127 63.4459 0.137913
667 2 103.23 63.3968 0.160143
668 2 107.14 63.5972 0.117504
669 2 111.213 63.4776 0.287237
670 2 115.082 63.4505 0.178178
671 2 119.142 63.4673 16.1408
672 2 122.876 63.6557 16.1216
673 2 126.899 63.5168 16.1774
674 2 130.957 63.5598 0.376163
675 2 134.8 63.4146 16.0114
676 2 138.709 63.2808 0.38176
677 2 142.43 63.1509 0.0184192
678 2 146.658 63.3592 0.234381
679 2 150.482 62.9542 15.9056
680 2 154.263 63.1853 15.8317
681 2 -0.0249505 66.9688 0.141033
682 2 3.92544 66.8666 0.219928
683 2 7.91274 66.9609 0.204398
684 2 11.8519 66.7319 16.1713
685 2 15.557 66.8653 16.1246
686 2 19.6845 66.6418 15.6846
687 2 23.6692 66.6617 15.7152
688 2 27.4275 66.7074 15.6674
689 2 31.3723 66.6337 0.147454
690 2 35.3934 66.6574 0.194843
691 2 39.1031 66.5348 0.205394
692 2 43.1081 66.5058 15.8105
693 2 47.1566 66.5574 -0.0189176
694 2 51.0527 66.5828 15.8104
695 2 54.9138 66.7724 15.7187
696 2 59.0897 66.719 16.0441
697 2 63.3142 66.7713 15.8946
698 2 67.1542 66.5448 15.9554
699 2 71.155 67.0343 0.0950827
700 2 75.2345 66.7904 0.222737
701 2 79.1659 67.1222 15.8924
702 2 83.1438 67.07 15.93
703 2 87.0758 67.0583 16.0987
704 2 91.0872 67.2868 0.349021
705 2 95.0071 67.1386 15.9234
706 2 99.1385 67.2967 16.1495
707 2 102.918 67.2698 0.200571
708 2 107.275 67.3174 15.8297
709 2 110.992 67.1918 0.0232422
710 2 115.064 67.3464 0.215175
711 2 119.076 67.4965 0.354443
712 2 123.108 67.442 16.0306
713 2 126.884 67.3588 16.1406
714 2 130.774 67.5645 16.2331
715 2 134.905 67.3557 16.291
716 2 138.726 67.2193 15.9052
717 2 142.665 67.2734 16.1127
718 2 146.475 67.0584 0.293461
719 2 150.507 66.9977 15.9638
720 2 154.303 66.9496 15.9043
721 2 -0.062342 71.0757 16.1066
722 2 3.81218 70.7218 16.0295
723 2 7.94364 70.8549 0.183974
724 2 11.815 70.8519 16.0324
725 2 15.7509 70.7815 15.9147
726 2 19.6153 70.8377 0.240232
727 2 23.5633 70.6467 15.9903
728 2 27.4791 70.7334 15.7588
729 2 31.499 70.5823 15.8988
730 2 35.3341 70.6608 15.9252
731 2 39.1894 70.6044 16.0293
732 2 43.1196 70.7165 0.029932
733 2 47.1633 70.5106 15.7973
734 2 50.8298 70.5447 15.774
735 2 54.8036 70.5263 15.9844
736 2 59.0745 70.5899 -0.00488731
737 2 62.9545 70.691 15.807
738 2 67.0738 70.5794 0.192184
739 2 70.9722 70.7718 15.8337
740 2 74.9461 70.9035 15.9671
741 2 78.9361 70.8739 15.9568
742 2 83.1028 70.8766 0.131495
743 2 87.061 71.0279 15.9256
744 2 91.2127 71.1103 0.0562151
745 2 95.2174 71.228 0.137362
746 2 99.0355 71.085 16.0972
747 2 103.104 71.279 0.189017
748 2 107.021 71.1049 0.282259
749 2 111.101 71.434 16.002
750 2 115.131 71.5051 0.275656
751 2 119.123 71.3705 16.0117
752 2 123.042 71.3607 0.131422
753 2 126.807 71.422 16.1089
754 2 130.936 71.442 16.0145
755 2 134.714 71.3456 15.8228
756 2 138.804 71.1706 16.0417
757 2 142.595 71.2725 16.1146
758 2 146.661 71.26 15.9103
759 2 150.551 70.9387 15.9706
760 2 154.301 71.1875 16.0095
761 2 0.074693 75.1105 15.9645
762 2 4.05985 74.8304 15.8389
763 2 7.97721 74.8671 16.0088
764 2 11.84 74.9152 15.9867
765 2 15.59 74.9108 15.9028
766 2 19.5476 74.7446 16.0114
767 2 23.3857 74.8153 16.0053
768 2 27.4177 74.779 15.8364
769 2 31.3837 74.6465 0.212653
770 2 35.3375 74.6813 15.9876
771 2 39.0488 74.5919 16.0506
772 2 43.0178 74.4609 0.157944
773 2 47.1076 74.401 16.1213
774 2 50.9698 74.3814 0.0697823
775 2 54.9602 74.4566 15.7464
776 2 58.9159 74.4924 15.7285
777 2 62.8607 74.5811 15.8551
778 2 66.8924 74.8184 15.9966
779 2 70.8897 74.579 15.8768
780 2 74.686 74.8332 -0.14425
781 2 78.967 74.8642 15.9088
782 2 83.0385 74.7238 16.0368
783 2 87.202 74.9286 16.046
784 2 91.086 74.9013 0.0520224
785 2 95.2118 74.8734 16.1504
786 2 99.1746 75.1145 0.13712
787 2 103.014 75.2139 15.849
788 2 107.18 75.1438 0.0475206
789 2 110.97 75.2909 15.8982
790 2 114.949 75.2586 0.310856
791 2 119.072 75.3789 15.9646
792 2 123.052 75.4454 16.1534
793 2 126.838 75.273 0.0366069
794 2 131.088 75.1869 0.298725
795 2 134.876 75.4063 16.1598
796 2 138.998 75.3823 16.1297
797 2 142.836 75.1798 0.418949
798 2 146.692 74.9594 16.0091
799 2 150.52 75.0515 15.9994
800 2 154.431 74.9671 0.302235
801 2 0.191224 79.0728 15.8327
802 2 4.04064 79.0301 15.8948
803 2 7.79218 78.9361 15.9236
804 2 11.8792 78.8579 15.9487
805 2 15.8411 78.8028 16.0161
806 2 19.554 78.8515 16.1589
807 2 23.7539 78.8578 15.8699
808 2 27.4229 78.6545 16.0088
809 2 31.3174 78.5721 0.203515
810 2 35.4231 78.6549 16.0198
811 2 39.4012 78.5325 0.174087
812 2 43.1367 78.5252 0.0329155
813 2 47.0044 78.6186 0.262927
814 2 50.9424 78.4843 15.8537
815 2 55.0779 78.4811 15.8954
816 2 58.7984 78.3229 15.8882
817 2 62.9723 78.312 15.9066
818 2 66.8548 78.5144 16.0756
819 2 70.891 78.4993 15.8885
820 2 74.8359 78.945 15.9242
821 2 78.7292 78.8039 0.146155
822 2 82.9189 78.6955 0.169608
823 2 86.9737 78.8162 0.107124
824 2 90.9683 78.7369 -0.0748201
825 2 94.8245 78.9817 0.119848
826 2 99.0412 78.8923 16.181
827 2 103.017 78.9323 0.237154
828 2 107.123 79.2038 15.9399
829 2 110.814 79.167 0.338991
830 2 114.912 79.1418 16.0911
831 2 118.909 79.1343 0.126682
832 2 122.885 79.2542 0.162298
833 2 126.837 79.1802 15.9612
834 2 130.947 79.3521 0.152947
835 2 134.834 79.3062 16.1558
836 2 138.923 79.2913 15.9384
837 2 142.7 79.3249 16.0396
838 2 146.697 79.2737 16.0891
839 2 150.586 79.2879 16.022
840 2 154.643 78.9569 16.0417
841 2 0.25757 83.2196 16.1695
842 2 4.11458 82.8926 15.8828
843 2 7.98987 83.0046 15.8585
844 2 11.8594 82.9644 15.8188
845 2 15.7703 82.8748 15.9797
846 2 19.7595 82.728 16.0283
847 2 23.6817 82.799 15.8285
848 2 27.5195 82.7655 15.9638
849 2 31.4054 82.6059 15.9054
850 2 35.2604 82.7567 15.9736
851 2 39.3258 82.6516 0.355434
852 2 43.2739 82.6726 15.9054
853 2 47.0559 82.608 16.1554
854 2 51.0281 82.5318 16.0853
855 2 54.7983 82.3794 15.8042
856 2 58.9132 82.2882 15.9116
857 2 62.7057 82.4089 16.2169
858 2 66.6878 82.4117 0.298412
859 2 70.8357 82.3982 0.205256
860 2 74.6885 82.5213 15.9432
861 2 78.7992 82.5563 -0.0753245
862 2 82.8266 82.4112 15.9628
863 2 86.5653 82.6667 16.0153
864 2 90.935 82.7187 0.283015
865 2 94.813 82.8965 15.9615
866 2 98.9489 82.7948 16.0099
867 2 102.942 83.0144 0.218215
868 2 106.918 82.9445 0.0415323
869 2 111.012 83.0325 16.1139
870 2 114.893 82.9027 15.9967
871 2 118.979 83.2115 0.192093
872 2 122.828 83.0689 16.0642
873 2 126.736 83.2336 0.104558
874 2 130.903 83.2663 15.8916
875 2 134.709 83.1648 0.211401
876 2 138.838 83.1672 15.8523
877 2 142.859 83.3457 0.261952
878 2 146.834 83.2495 0.400984
879 2 150.643 83.0042 16.0869
880 2 154.471 83.0322 15.9779
881 2 0.35305 87.4479 15.9016
882 2 4.04173 86.9723 0.221458
883 2 8.06581 87.0044 15.8683
884 2 11.8735 87 15.9428
885 2 15.9765 86.9147 -0.0516135
886 2 19.6778 86.7872 15.7617
887 2 23.6855 86.7523 15.8209
888 2 27.6803 86.6082 15.8301
889 2 31.3745 86.7283 16.0502
890 2 35.4507 86.4484 16.0134
891 2 39.3499 86.7331 15.9822
892 2 43.2398 86.6004 16.02
893 2 46.9491 86.7412 0.12983
894 2 51.0709 86.4673 0.0498888
895 2 55.1093 86.5887 -0.114151
896 2 58.9955 86.2927 16.0043
897 2 62.7665 86.2827 15.7323
898 2 66.8916 86.3058 0.20107
899 2 70.8175 86.3527 0.109817
900 2 74.8498 86.4642 16.015
901 2 78.7546 86.512 0.113586
902 2 82.7814 86.5311 0.250508
903 2 86.7689 86.5185 15.9705
904 2 90.7896 86.5575 0.287881
905 2 94.723 86.692 15.9179
906 2 98.8205 86.7891 15.9457
907 2 102.81 86.7262 0.101255
908 2 106.808 87.0641 0.116368
909 2 110.734 86.9581 15.9209
910 2 114.652 86.839 0.212193
911 2 118.853 87.025 0.335662
912 2 122.791 87.0078 0.230481
913 2 126.791 87.097 16.0127
914 2 130.818 87.0675 0.144101
915 2 134.802 87.2147 15.9465
916 2 138.613 86.9322 0.0900377
917 2 142.903 87.2176 0.151423
918 2 146.821 87.2161 0.365639
919 2 150.883 87.0779 16.0833
920 2 154.77 86.9866 15.9743
921 2 0.389859 91.1135 15.8822
922 2 4.19749 90.9877 0.305896
923 2 8.22398 90.9171 0.110077
924 2 12.209 90.9659 0.140773
925 2 16.1039 90.9971 15.8243
926 2 19.8998 91.005 15.9033
927 2 23.9751 90.6933 15.9013
928 2 27.7101 90.6304 15.857
929 2 31.5322 90.8833 15.9128
930 2 35.4953 90.4636 16.1006
931 2 39.1809 90.6193 15.7859
932 2 43.3907 90.5808 -0.0019928
933 2 47.1654 90.7372 15.9241
934 2 51.1555 90.6165 16.1003
935 2 55.1222 90.5975 16.0943
936 2 59.0165 90.3318 15.9721
937 2 62.9546 90.4085 0.208146
938 2 66.7852 90.3647 15.9119
939 2 70.7351 90.263 15.8459
940 2 74.8577 90.4899 16.0366
941 2 78.7245 90.3223 0.160761
942 2 82.5113 90.2347 0.180629
943 2 86.7201 90.7288 15.9273
944 2 90.6399 90.6552 0.208025
945 2 94.8259 90.4374 0.00315036
946 2 98.582 90.7038 0.130228
947 2 102.681 90.6771 0.11571
948 2 106.799 90.9628 0.0284729
949 2 110.659 90.9154 15.8454
950 2 114.749 90.9125 0.26219
951 2 118.81 90.7693 0.253748
952 2 122.813 90.909 0.339736
953 2 126.992 90.8849 0.164613
954 2 130.975 91.0133 16.0327
955 2 134.848 90.9117 0.052559
956 2 138.949 90.9433 0.28305
957 2 142.808 91.1182 0.171839
958 2 146.825 91.0475 0.237873
959 2 150.659 91.1579 15.9567
960 2 154.573 91.1152 0.265375
961 2 0.239993 95.0392 15.9698
962 2 4.32952 95.0633 15.8775
963 2 8.1627 94.8877 -0.109862
964 2 11.8855 94.8805 15.7887
965 2 15.9768 94.8398 15.8732
966 2 19.9616 94.8871 15.8473
967 2 23.7766 94.61 15.9491
968 2 27.8712 94.7927 16.0655
969 2 31.5923 94.6931 16.0165
970 2 35.6633 94.7784 0.0912857
971 2 39.5619 94.6742 15.9923
972 2 43.3373 94.4458 15.9825
973 2 47.4301 94.5973 16.0466
974 2 51.2701 94.4494 0.100498
975 2 55.0688 94.5698 16.022
976 2 58.9907 94.6266 16.0182
977 2 62.9784 94.408 15.9613
978 2 66.839 94.382 0.36576
979 2 70.8273 94.2436 0.158446