ITEM: TIMESTEP
16800
ITEM: NUMBER OF ATOMS
32000
ITEM: BOX BOUNDS xy xz yz pp pp pp
0.0000000000000000e+00 1.5831999999999999e+02 0.0000000000000000e+00
0.0000000000000000e+00 1.5831999999999999e+02 0.0000000000000000e+00
1.6362960773881596e-01 1.5934082392260962e+01 0.0000000000000000e+00
ITEM: ATOMS id type x y z
1 2 158.084 157.748 15.8237
2 2 3.78935 157.697 0.216869
3 2 7.86153 157.764 0.165858
4 2 11.7613 157.999 15.6274
5 2 15.9487 157.921 0.13922
6 2 20.0032 157.913 0.146473
7 2 23.9974 158.251 15.8844
8 2 27.8501 158.119 0.202595
9 2 31.9564 158.231 16.0182
10 2 35.9382 158.192 0.13207
11 2 39.9085 158.336 0.000250093
12 2 43.9952 158.287 15.8971
13 2 47.905 0.184363 16.0584
14 2 51.9129 0.0438836 15.9924
15 2 55.869 158.301 16.0277
16 2 59.8639 0.0112644 15.816
17 2 63.7926 0.175925 0.422022
18 2 67.753 0.0753152 0.200375
19 2 71.725 158.406 15.9262
20 2 75.6112 158.348 15.8601
21 2 79.4299 158.377 15.9963
22 2 83.1405 158.342 0.138926
23 2 87.21 158.397 0.245321
24 2 91.1591 158.216 0.107481
25 2 95.1138 158.246 0.216712
26 2 98.9504 158.155 0.201699
27 2 102.857 158.103 0.00630766
28 2 106.858 157.724 16.0596
29 2 110.883 157.929 0.416027
30 2 114.561 157.85 -0.0665946
31 2 118.373 157.916 0.0892782
32 2 122.235 157.782 15.9454
33 2 126.123 157.78 15.9687
34 2 130.274 157.748 15.8895
35 2 134.228 157.577 15.9072
36 2 138.224 157.628 16.0651
37 2 142.168 157.459 16.1105
38 2 146.128 157.723 15.9951
39 2 150.183 157.652 15.9739
40 2 153.946 157.716 15.7814
41 2 158.103 3.48828 -0.0728363
42 2 3.68851 3.18599 15.9644
43 2 7.77805 3.4838 0.00826119
44 2 11.8933 3.61988 -0.0969792
45 2 15.9084 3.42632 0.0387306
46 2 19.9122 3.68902 15.7367
47 2 23.7722 3.67871 0.255729
48 2 27.9219 3.83395 0.143841
49 2 31.8755 3.7158 0.0980311
50 2 35.8594 3.84625 0.273312
51 2 40.0987 3.95791 0.175838
52 2 43.9255 3.94516 0.173981
53 2 47.8608 3.97006 15.883
54 2 51.7566 4.05145 0.0369347
55 2 55.8331 4.10363 0.229124
56 2 59.9216 4.0294 0.14642
57 2 63.679 4.07377 16.1521
58 2 67.9926 4.19723 0.246976
59 2 71.5824 4.31822 0.136596
60 2 75.596 4.11409 0.266391
61 2 79.4685 4.121 0.246513
62 2 83.4524 4.16137 0.265863
63 2 87.3332 4.00853 0.302705
64 2 91.2542 3.83312 0.0655093
65 2 94.9884 3.90993 16.2797
66 2 98.8618 3.85131 0.341777
67 2 102.945 3.76368 0.0915733
68 2 106.897 3.69707 15.8284
69 2 110.451 3.61319 16.0924
70 2 114.581 3.4805 16.014
71 2 118.396 3.48228 15.9002
72 2 122.381 3.62304 0.349562
73 2 126.588 3.49366 15.959
74 2 130.323 3.48307 0.175426
75 2 134.172 3.33916 16.0651
76 2 138.26 3.29117 0.179809
77 2 142.196 3.0752 15.8769
78 2 146.103 3.13961 0.271927
79 2 150.001 3.33547 15.8713
80 2 153.941 3.21916 15.9533
81 2 157.79 7.27901 0.0463435
82 2 3.82568 7.22544 15.9486
83 2 7.6739 7.34074 15.8527
84 2 11.7682 7.60937 15.8667
85 2 15.7638 7.30259 0.0875424
86 2 19.8882 7.64613 15.7698
87 2 23.8221 7.49709 0.160731
88 2 27.8999 7.71818 0.106278
89 2 31.7854 7.69996 16.1819
90 2 35.5638 7.79808 15.781
91 2 39.8369 7.9858 15.8798
92 2 43.8544 7.79386 16.0219
93 2 47.7936 8.05052 0.195217
94 2 51.7375 7.93152 15.9669
95 2 55.7702 8.12663 0.0157553
96 2 59.8394 8.09935 0.112703
97 2 63.94 8.1437 0.119938
98 2 67.9518 8.16975 0.118704
99 2 71.991 8.15816 0.151621
100 2 75.7142 8.28437 0.184609
101 2 79.5846 7.94348 16.0636
102 2 83.2723 8.11005 0.133802
103 2 87.2358 8.26733 15.8982
104 2 91.2285 7.93035 0.0426974
105 2 95.1485 7.72321 0.335264
106 2 99.1476 7.80811 0.360695
107 2 103.024 7.80412 0.278193
108 2 106.761 7.71272 0.177997
109 2 110.769 7.59186 -0.0713913
110 2 114.706 7.4559 0.181498
111 2 118.753 7.42352 0.319878
112 2 122.631 7.42243 0.130801
113 2 126.565 7.61865 16.0013
114 2 130.389 7.24713 0.18622
115 2 134.235 7.50295 0.18645
116 2 138.096 7.22136 15.9872
117 2 142.18 6.95721 15.8939
118 2 146.124 7.23161 0.172186
119 2 150.001 7.20151 15.8399
120 2 153.999 7.1478 15.7753
121 2 157.932 11.0897 0.133522
122 2 3.64691 11.0865 0.11022
123 2 7.70126 11.2366 15.6096
124 2 11.5738 11.2167 15.8556
125 2 15.7615 11.2481 15.8404
126 2 19.7633 11.3644 -0.0220946
127 2 23.7202 11.4141 0.154606
128 2 27.8107 11.6287 -0.127759
129 2 31.8438 11.6274 0.0706804
130 2 35.7896 11.6253 0.204945
131 2 39.7463 11.8187 0.0528105
132 2 43.7566 11.6644 16.1091
133 2 47.8494 11.7808 16.0674
134 2 51.8303 11.7455 15.8792
135 2 55.6403 11.8892 0.263447
136 2 59.7071 12.006 15.7565
137 2 63.6884 11.9289 0.160649
138 2 67.8264 12.0622 15.8838
139 2 71.9812 12.0408 0.0218563
140 2 75.7705 12.0683 0.139105
141 2 79.5828 12.2636 0.168412
142 2 83.5335 12.0516 -0.035085
143 2 87.4275 11.9399 0.171072
144 2 91.3819 11.8127 0.0649508
145 2 95.3076 11.9122 0.122437
146 2 99.1512 11.8623 0.168275
147 2 103.18 11.7061 0.176272
148 2 107.19 11.586 0.125729
149 2 110.837 11.6751 0.0750251
150 2 114.766 11.4928 0.2626
151 2 118.746 11.6714 0.238498
152 2 122.646 11.6254 0.211517
153 2 126.56 11.4839 0.30103
154 2 130.401 11.5244 15.912
155 2 134.276 11.2743 0.115803
156 2 138.419 11.2962 -0.0141538
157 2 142.225 11.0836 15.8881
158 2 146.205 11.1762 15.9009
159 2 150.055 10.9505 15.8419
160 2 153.997 11.0587 15.8728
161 2 157.812 15.0251 0.0375689
162 2 3.504 15.2864 0.239131
163 2 7.60247 15.3101 0.171035
164 2 11.7315 15.3709 15.7981
165 2 15.694 15.3398 15.9559
166 2 19.6555 15.3285 0.161842
167 2 23.608 15.3358 -0.0509388
168 2 27.8092 15.4033 15.7216
169 2 31.7748 15.551 15.9602
170 2 35.7432 15.467 0.165126
171 2 39.6781 15.6779 15.9587
172 2 43.8013 15.6858 0.0770325
173 2 47.66 15.61 0.354955
174 2 51.876 15.887 0.0887824
175 2 55.8394 15.8015 15.885
176 2 59.6964 15.8864 0.17336
177 2 63.7596 15.8917 -0.0578533
178 2 67.885 15.8647 0.108327
179 2 71.8598 15.9063 0.192732
180 2 75.7981 15.9752 15.8837
181 2 79.7192 16.1261 0.21582
182 2 83.7522 16.2161 0.243863
183 2 87.6074 16.0081 0.130853
184 2 91.6233 16.0217 0.186433
185 2 95.3085 15.7502 0.266972
186 2 99.3421 15.882 0.397903
187 2 103.103 15.843 0.19281
188 2 107.212 15.586 0.204281
189 2 111.008 15.6826 0.0480826
190 2 114.819 15.5705 0.271041
191 2 118.789 15.5397 0.0295168
192 2 122.72 15.4701 16.0477
193 2 126.874 15.5749 0.233638
194 2 130.671 15.3875 0.234412
195 2 134.454 15.2909 0.232864
196 2 138.245 15.1463 0.191958
197 2 142.387 15.2663 0.179505
198 2 146.317 15.2171 0.127999
199 2 150.193 15.02 15.8615
200 2 154.027 14.9923 0.132355
201 2 157.953 19.0111 15.8738
202 2 3.70208 19.0012 0.0427365
203 2 7.67031 19.2011 15.7532
204 2 11.5243 19.1078 15.7428
205 2 15.7402 19.0963 15.8817
206 2 19.7191 19.3365 0.0372147
207 2 23.5991 19.3674 -0.0834782
208 2 27.6289 19.4035 0.0104891
209 2 31.6514 19.4001 15.8556
210 2 35.7574 19.2763 15.9615
211 2 39.7777 19.5697 0.253938
212 2 43.7021 19.7024 15.7949
213 2 47.4917 19.5327 15.9767
214 2 51.7518 19.5814 16.0341
215 2 55.5973 19.8449 16.0861
216 2 59.5587 19.7378 16.0211
217 2 63.7581 19.8673 15.8946
218 2 67.7407 19.8249 15.88
219 2 71.7501 20.1034 0.185793
220 2 75.7897 19.962 0.380912
221 2 79.8348 20.1501 -0.0159278
222 2 83.8011 20.1008 0.116284
223 2 87.6847 20.0106 15.932
224 2 91.6275 19.914 0.157112
225 2 95.7208 19.9767 0.22197
226 2 99.4312 19.7871 15.9188
227 2 103.299 19.7037 15.8621
228 2 107.269 19.6886 16.0574
229 2 111.175 19.5788 0.188357
230 2 115.079 19.5002 0.0376009
231 2 118.741 19.5627 16.0538
232 2 122.666 19.5428 0.243721
233 2 126.742 19.2174 0.158626
234 2 130.59 19.3248 0.145434
235 2 134.653 19.3961 15.8061
236 2 138.541 19.1382 15.7876
237 2 142.463 19.1946 0.278346
238 2 146.309 19.1219 0.010228
239 2 150.07 19.0773 0.158635
240 2 154.07 19.1113 15.9075
241 2 158.029 22.9813 15.7028
242 2 3.53809 23.039 15.933
243 2 7.39075 22.8745 -0.131911
244 2 11.5537 23.1257 15.7254
245 2 15.68 23.122 15.7839
246 2 19.6456 23.2574 -0.194085
247 2 23.7283 23.3222 15.7577
248 2 27.8583 23.0433 15.7449
249 2 31.6096 23.3202 0.39947
250 2 35.8525 23.3463 15.899
251 2 39.6321 23.2923 -0.052213
252 2 43.6229 23.6667 15.9086
253 2 47.7511 23.4545 15.9387
254 2 51.6617 23.572 0.27641
255 2 55.7905 23.7068 15.9147
256 2 59.5819 23.7116 15.8622
257 2 63.6027 23.5892 15.9021
258 2 67.8148 23.7821 0.318308
259 2 71.856 23.8945 0.180154
260 2 75.8649 23.9272 0.194923
261 2 79.8623 23.9595 15.975
262 2 83.7572 23.9263 16.0304
263 2 87.6913 24.0141 0.273562
264 2 91.5601 23.9534 15.8993
265 2 95.3814 23.9796 16.0567
266 2 99.3795 23.8067 0.389551
267 2 103.222 23.7442 0.0968813
268 2 107.257 23.6524 0.187515
269 2 111.327 23.601 0.285326
270 2 115.031 23.5275 16.0312
271 2 118.989 23.5352 15.9782
272 2 122.835 23.4873 0.202093
273 2 126.81 23.3651 0.028456
274 2 130.69 23.2753 15.932
275 2 134.595 23.2463 -0.00343402
276 2 138.377 23.2305 15.8466
277 2 142.425 23.3007 0.0161583
278 2 146.367 23.258 0.0518636
279 2 150.113 23.1789 0.0380986
280 2 153.959 22.9503 0.0144849
281 2 158.113 27.0564 0.067035
282 2 3.59561 26.9724 15.7461
283 2 7.61793 26.8324 0.146738
284 2 11.4777 26.8755 15.6543
285 2 15.3879 26.9577 15.7539
286 2 19.4635 27.1699 0.0832469
287 2 23.7774 27.0914 0.123679
288 2 27.6818 27.1843 -0.0712931
289 2 31.503 27.3396 15.9886
290 2 35.7697 27.3378 -0.03686
291 2 39.6072 27.4827 -0.109006
292 2 43.7692 27.4343 15.9838
293 2 47.5259 27.312 0.195045
294 2 51.6321 27.4162 0.242167
295 2 55.6177 27.4731 0.116091
296 2 59.8325 27.6324 0.308311
297 2 63.5287 27.7112 0.283302
298 2 67.5574 27.8231 0.110724
299 2 71.6146 27.8964 0.113635
300 2 75.6441 27.9559 15.8875
301 2 79.8083 27.8902 0.190439
302 2 83.7188 27.8198 15.9807
303 2 87.6298 27.9929 0.0231227
304 2 91.6741 27.8344 16.1396
305 2 95.4731 27.8446 15.9742
306 2 99.4755 27.7817 0.295941
307 2 103.338 27.7111 0.22242
308 2 107.139 27.5245 16.1153
309 2 111.021 27.5418 0.231969
310 2 115.142 27.5871 15.903
311 2 118.859 27.626 15.9541
312 2 122.928 27.4276 -0.0212081
313 2 126.644 27.4456 0.170885
314 2 130.679 27.4223 0.150802
315 2 134.632 27.263 15.8289
316 2 138.71 27.2701 -0.0651168
317 2 142.559 27.1591 -0.0670881
318 2 146.193 27.262 0.0692536
319 2 150.244 27.1464 0.153993
320 2 154 27.1202 15.8874
321 2 157.91 30.9415 15.9548
322 2 3.60308 31.0015 0.190928
323 2 7.39994 31.0201 -0.0843951
324 2 11.4613 30.8521 15.8311
325 2 15.4584 30.8741 0.151568
326 2 19.5716 30.949 15.7203
327 2 23.5464 30.8592 15.7288
328 2 27.5939 31.014 0.164579
329 2 31.6432 31.1359 0.0151609
330 2 35.6547 31.233 15.8344
331 2 39.6128 31.2253 15.6027
332 2 43.5308 31.2327 0.182316
333 2 47.6204 31.4537 16.0016
334 2 51.7496 31.474 15.7031
335 2 55.4884 31.4473 0.265189
336 2 59.7505 31.573 0.095358
337 2 63.7521 31.4519 16.0339
338 2 67.7985 31.7828 0.252935
339 2 71.5908 31.9092 15.7818
340 2 75.5848 31.8148 -0.0103581
341 2 79.7154 31.8497 0.148807
342 2 83.5379 31.6747 16.0112
343 2 87.5891 31.7803 0.0708654
344 2 91.6396 31.6964 0.137018
345 2 95.58 31.7733 0.0329895
346 2 99.5336 31.8884 0.235218
347 2 103.419 31.7868 15.9551
348 2 107.428 31.7937 0.242241
349 2 111.217 31.6866 15.8097
350 2 115.055 31.5233 0.0613904
351 2 119.014 31.5308 15.9134
352 2 122.854 31.5733 0.229976
353 2 126.814 31.4674 0.152145
354 2 130.644 31.5357 0.161105
355 2 134.541 31.2825 -0.0141735
356 2 138.454 31.2827 15.5997
357 2 142.41 31.265 15.8923
358 2 146.371 31.1982 15.8834
359 2 150.242 31.2888 15.8699
360 2 154.158 31.0136 15.7574
361 2 157.973 34.9708 15.8816
362 2 3.62973 35.0814 -0.0902224
363 2 7.64036 34.8937 0.0174598
364 2 11.6538 34.8548 15.6657
365 2 15.5156 34.7964 0.103986
366 2 19.5668 35.0023 15.7766
367 2 23.4849 34.7196 15.7142
368 2 27.4793 34.8701 -0.0622797
369 2 31.5386 34.9272 0.0268075
370 2 35.5462 35.074 15.8198
371 2 39.6892 35.2443 0.28361
372 2 43.6017 35.1773 15.7394
373 2 47.5346 35.2917 15.8643
374 2 51.4418 35.1254 0.0767339
375 2 55.6389 35.5512 15.8843
376 2 59.637 35.3275 0.152362
377 2 63.5029 35.3008 -0.0661054
378 2 67.6977 35.6327 0.0403238
379 2 71.7566 35.727 0.165584
380 2 75.4828 35.7427 15.9323
381 2 79.6022 35.5735 15.9712
382 2 83.5811 35.5579 0.168229
383 2 87.6617 35.7939 0.0956118
384 2 91.5636 35.7465 16.1279
385 2 95.4968 35.7882 15.886
386 2 99.4546 35.847 0.412468
387 2 103.448 35.8207 16.1302
388 2 107.357 35.7156 0.185571
389 2 111.329 35.768 15.941
390 2 115.168 35.7116 0.351508
391 2 119.129 35.3819 15.8499
392 2 122.865 35.542 16.0177
393 2 126.901 35.5193 0.0608785
394 2 130.877 35.5007 0.070539
395 2 134.716 35.2917 15.7118
396 2 138.663 35.364 15.9595
397 2 142.606 35.1772 15.799
398 2 146.369 35.1551 16.077
399 2 150.319 35.0696 0.019751
400 2 154.154 35.1745 -0.0110748
401 2 158.051 38.9087 -0.0189572
402 2 3.68624 38.8396 15.6911
403 2 7.56506 38.8307 15.9281
404 2 11.6569 38.902 0.0777015
405 2 15.8432 38.952 0.0645341
406 2 19.6005 38.9198 15.7597
407 2 23.4155 38.7109 15.8155
408 2 27.3879 38.6881 0.0569917
409 2 31.6318 38.8252 15.9658
410 2 35.536 38.8313 0.0609439
411 2 39.77 39.0451 0.162019
412 2 43.5817 39.1151 0.0286371
413 2 47.6156 39.0367 0.0264913
414 2 51.495 39.3511 0.126909
415 2 55.4849 39.2619 0.179843
416 2 59.5252 39.3695 0.144354
417 2 63.4934 39.2326 16.0126
418 2 67.4469 39.4982 0.356068
419 2 71.5317 39.4462 -0.0346778
420 2 75.5485 39.6438 0.234364
421 2 79.5671 39.7289 15.9335
422 2 83.4641 39.4204 15.9843
423 2 87.469 39.6785 15.8211
424 2 91.4658 39.7053 16.047
425 2 95.4667 39.6684 15.8794
426 2 99.4323 39.8133 -0.0225068
427 2 103.267 39.8364 0.0815469
428 2 107.308 39.8454 15.9198
429 2 111.206 39.6774 15.7526
430 2 115.116 39.5571 15.8965
431 2 119.112 39.4247 15.5935
432 2 122.966 39.417 0.0681061
433 2 126.85 39.4678 15.857
434 2 130.939 39.5345 0.12055
435 2 134.896 39.3198 0.204022
436 2 138.696 39.3163 16.0771
437 2 142.52 39.2413 15.6701
438 2 146.566 39.1563 0.0838975
439 2 150.415 39.1488 15.8353
440 2 154.457 39.0928 0.237328
441 2 158.425 43.0209 0.118502
442 2 3.95217 42.7572 0.186005
443 2 7.80187 42.8232 0.326945
444 2 11.7226 42.777 0.11508
445 2 15.6235 42.6976 0.137396
446 2 19.6696 42.6945 15.8138
447 2 23.6296 42.8808 -0.0619473
448 2 27.4774 42.8594 0.338461
449 2 31.4265 42.9705 0.178279
450 2 35.2438 43.0171 -0.0554213
451 2 39.4127 43.0953 0.0933599
452 2 43.5892 43.0385 0.0954701
453 2 47.425 43.0557 0.331006
454 2 51.5464 43.1893 0.243949
455 2 55.4767 43.1381 0.186498
456 2 59.5757 43.3154 0.177587
457 2 63.205 43.4254 0.247987
458 2 67.3209 43.3724 16.0521
459 2 71.3986 43.1348 15.8432
460 2 75.4039 43.359 0.0762618
461 2 79.2755 43.5609 -0.120099
462 2 83.4829 43.6339 16.0802
463 2 87.4295 43.471 16.0977
464 2 91.4526 43.6035 15.9688
465 2 95.6201 43.6552 0.314018
466 2 99.5925 43.8181 -0.0644052
467 2 103.45 43.8236 -0.0125864
468 2 107.321 43.7452 0.0550632
469 2 111.16 43.6258 15.7464
470 2 115.265 43.4348 15.9441
471 2 118.979 43.4237 0.0115101
472 2 122.775 43.3086 0.198769
473 2 126.873 43.4197 0.0401465
474 2 131.001 43.3902 0.360505
475 2 134.82 43.2874 15.9126
476 2 138.671 43.1968 15.7941
477 2 142.716 43.2106 15.9741
478 2 146.366 43.2653 15.9649
479 2 150.289 43.0382 0.0952586
480 2 154.378 43.1915 15.9144
481 2 158.292 46.9675 15.7225
482 2 4.04251 47.0234 15.9239
483 2 7.93107 46.7789 15.9631
484 2 11.8253 46.7726 16.0171
485 2 15.858 46.6828 0.0527892
486 2 19.4711 46.7845 15.8517
487 2 23.4446 46.7032 0.154802
488 2 27.3664 46.8436 0.110335
489 2 31.4089 46.8746 0.395555
490 2 35.3404 46.9962 -0.000170817
491 2 39.3127 46.8751 0.103908
492 2 43.3598 46.8179 0.0857029
493 2 47.3577 46.9646 15.8704
494 2 51.3447 47.3088 15.8748
495 2 55.2607 47.1707 0.0929621
496 2 59.4039 47.2192 15.8885
497 2 63.2478 47.3734 0.272525
498 2 67.3186 47.2267 0.146803
499 2 71.2941 47.2035 0.160788
500 2 75.3958 47.2987 15.9978
501 2 79.5115 47.4153 15.9916
502 2 83.5081 47.4532 -0.00132348
503 2 87.3602 47.2382 0.0978663
504 2 91.2542 47.5027 15.8081
505 2 95.3906 47.4367 0.0554942
506 2 99.4477 47.8807 0.0945553
507 2 103.364 47.7115 15.8901
508 2 107.369 47.802 0.263348
509 2 111.112 47.658 15.7683
510 2 115.117 47.6931 15.8003
511 2 118.989 47.3478 0.282713
512 2 122.935 47.3881 0.114887
513 2 127.117 47.4576 0.241757
514 2 130.873 47.2469 0.0729098
515 2 134.929 47.2666 15.9364
516 2 138.583 47.2324 0.0414247
517 2 142.549 47.2423 15.7824
518 2 146.637 47.1297 0.0507774
519 2 150.577 47.1269 15.9499
520 2 154.388 47.0255 0.26608
521 2 158.317 50.9667 0.261408
522 2 4.0458 51.0353 0.322418
523 2 7.84166 51.0098 0.227791
524 2 11.8038 50.9026 16.0153
525 2 15.6472 50.8788 0.324957
526 2 19.5706 50.846 0.140806
527 2 23.5723 50.7628 0.198624
528 2 27.5825 50.9379 15.9185
529 2 31.291 50.6701 16.1143
530 2 35.3081 50.7378 -0.141724
531 2 39.3641 50.8348 16.0048
532 2 43.4613 50.7984 -0.000577847
533 2 47.3057 50.9568 -0.0329861
534 2 51.3569 51.0881 15.9141
535 2 55.4343 50.9333 16.0172
536 2 59.4217 51.196 15.8129
537 2 63.2571 51.2591 0.255636
538 2 67.2379 51.162 0.280192
539 2 71.2172 51.099 16.2682
540 2 75.3064 51.1906 0.256807
541 2 79.3932 51.4127 16.0153
542 2 83.3829 51.3124 15.9076
543 2 87.4013 51.3337 15.989
544 2 91.3045 51.5365 0.272606
545 2 95.4081 51.213 0.375521
546 2 99.3016 51.7635 16.1761
547 2 103.225 51.6374 0.352472
548 2 107.254 51.7244 15.8985
549 2 111.269 51.58 0.194241
550 2 115.351 51.516 0.237073
551 2 119.187 51.5677 0.132654
552 2 123.186 51.3861 0.213936
553 2 126.873 51.2931 15.9019
554 2 130.912 51.2994 0.144773
555 2 134.87 51.2139 15.7808
556 2 138.674 51.3895 0.0406082
557 2 142.832 51.1963 15.8634
558 2 146.651 50.9896 15.8451
559 2 150.592 51.0491 0.00271347
560 2 154.575 51.0886 0.119295
561 2 158.406 55.2324 0.0879419
562 2 3.98286 55.1064 0.160488
563 2 7.89133 54.8099 0.105132
564 2 11.6555 54.8439 15.9145
565 2 15.7488 54.6798 15.9638
566 2 19.6049 54.726 15.7693
567 2 23.4281 54.7292 15.9164
568 2 27.3724 54.7649 15.9641
569 2 31.455 54.7294 0.082841
570 2 35.3308 54.5102 15.9781
571 2 39.309 54.6775 0.0228713
572 2 43.1796 54.7607 15.8234
573 2 47.3835 54.961 15.822
574 2 51.1638 54.9787 15.9485
575 2 54.9477 55.086 0.242623
576 2 59.333 55.0779 0.202558
577 2 63.3019 55.0934 15.8815
578 2 67.4103 55.173 0.206557
579 2 71.2816 55.0813 15.9689
580 2 75.3602 55.1344 16.1256
581 2 79.1833 55.1979 16.0257
582 2 83.3128 55.1966 16.0854
583 2 87.3505 55.3071 0.231941
584 2 91.3777 55.3843 -0.0663009
585 2 95.3731 55.2817 0.0022828
586 2 99.2082 55.557 15.9036
587 2 103.294 55.6119 0.235332
588 2 107.236 55.5494 0.10953
589 2 111.313 55.7159 15.9472
590 2 115.268 55.5452 0.269085
591 2 119.336 55.5881 0.187627
592 2 123.185 55.3153 0.275506
593 2 126.917 55.3746 15.9658
594 2 130.801 55.5756 15.8501
595 2 134.769 55.3464 15.7804
596 2 138.717 55.1974 0.126697
597 2 142.63 55.1856 -0.0319458
598 2 146.57 55.1258 15.838
599 2 150.333 54.9691 16.0522
600 2 154.595 55.0432 0.126393
601 2 0.0868527 59.098 0.0609526
602 2 4.07605 58.885 0.322089
603 2 7.89568 58.8399 0.092685
604 2 11.6042 58.8469 15.899
605 2 15.4909 58.7763 0.255261
606 2 19.5386 58.6367 15.7922
607 2 23.4126 58.5841 15.8542
608 2 27.458 58.816 0.0784798
609 2 31.4728 58.5596 15.9012
610 2 35.1974 58.7678 -0.0325639
611 2 39.1806 58.5911 0.164953
612 2 42.9506 58.6176 15.7283
613 2 47.1089 58.8041 0.0903724
614 2 51.1374 58.9136 15.9162
615 2 55.142 58.9754 15.8379
616 2 59.0875 58.8601 15.8827
617 2 63.1 58.9342 -0.0659624
618 2 67.1799 58.9679 15.9667
619 2 71.2766 59.1697 0.340916
620 2 75.153 58.9388 0.249943
621 2 79.2834 59.2207 16.0417
622 2 83.3509 59.2141 16.1767
623 2 87.3276 59.2675 0.19599
624 2 91.2664 59.3018 0.117767
625 2 95.3754 59.3359 0.177952
626 2 99.1833 59.4864 16.0149
627 2 103.257 59.3784 0.293693
628 2 107.153 59.6124 0.0507368
629 2 111.219 59.5332 0.287154
630 2 115.154 59.5366 0.361069
631 2 119.11 59.5029 0.280697
632 2 123.073 59.5173 0.342171
633 2 127.217 59.3455 0.209729
634 2 130.814 59.4107 16.0357
635 2 134.812 59.2222 0.314663
636 2 138.805 59.3266 0.195403
637 2 142.605 59.1147 15.9155
638 2 146.517 59.1337 0.328474
639 2 150.43 59.1569 0.113386
640 2 154.605 58.968 0.267096
641 2 -0.150148 62.979 15.9023
642 2 3.74176 62.8089 15.978
643 2 7.96914 62.8855 0.134132
644 2 11.8308 62.8051 0.303002
645 2 15.6673 62.9252 15.709
646 2 19.525 62.826 15.8574
647 2 23.6011 62.7533 15.8361
648 2 27.352 62.8928 -0.0114006
649 2 31.3225 62.7979 15.8373
650 2 35.1902 62.6327 15.59
651 2 39.0455 62.5172 0.00143297
652 2 43.1862 62.7162 0.0138006
653 2 47.0936 62.5715 15.9403
654 2 51.187 62.6638 0.180797
655 2 55.0498 62.7442 0.15987
656 2 59.0441 62.7936 0.176332
657 2 63.0342 62.893 0.122314
658 2 67.1199 62.7995 0.0168061
659 2 71.0478 63.0378 0.236631
660 2 75.0913 62.9248 16.1183
661 2 79.1089 62.9906 15.9072
662 2 83.136 62.978 16.0172
663 2 87.247 63.1468 0.232096
664 2 91.1756 63.1639 16.0575
665 2 95.222 63.2341 0.0356193
666 2 99.1718 63.3065 0.201538
667 2 103.059 63.2087 0.0853865
668 2 107.092 63.3285 0.245302
669 2 111.181 63.4033 0.142254
670 2 115.083 63.5487 0.146122
671 2 119.058 63.5825 15.8859
672 2 123.198 63.2888 16.1469
673 2 127.002 63.4282 16.0963
674 2 130.847 63.3902 0.442268
675 2 134.811 63.3471 15.9571
676 2 138.65 63.4361 0.116911
677 2 142.675 63.3678 0.283263
678 2 146.587 62.9662 0.250365
679 2 150.484 63.3659 15.9155
680 2 154.362 62.9177 15.9502
681 2 -0.137137 66.9128 0.243898
682 2 3.89918 66.9689 0.0808852
683 2 7.7084 66.6927 0.160175
684 2 11.7542 66.8943 15.913
685 2 15.8368 66.7635 15.8908
686 2 19.5575 66.8805 15.9832
687 2 23.3214 66.7998 15.9489
688 2 27.401 66.6917 15.8045
689 2 31.2576 66.5851 0.0180161
690 2 35.2081 66.6877 0.356741
691 2 39.1117 66.5633 0.0270282
692 2 43.1193 66.6419 15.8289
693 2 46.8193 66.5449 0.147507
694 2 50.9391 66.5687 15.959
695 2 55.0196 66.517 15.9011
696 2 59.0707 66.6093 15.8616
697 2 62.8188 66.7794 15.887
698 2 66.9301 66.955 15.8612
699 2 71.0246 66.7416 0.0907062
700 2 74.9406 66.9832 0.00602595
701 2 78.977 66.7592 15.9638
702 2 83.0659 66.9336 15.8413
703 2 87.2499 67.1158 15.8943
704 2 90.9777 67.1025 0.283118
705 2 95.1724 67.201 16.087
706 2 99.0405 67.1554 15.9712
707 2 103.079 67.1792 0.222448
708 2 106.991 67.2948 15.8511
709 2 111.246 67.5841 0.314665
710 2 115.161 67.3453 0.316662
711 2 119.136 67.4825 0.259936
712 2 122.959 67.4249 16.1325
713 2 127.056 67.4475 16.117
714 2 131.047 67.4997 16.1239
715 2 134.665 67.2152 15.9986
716 2 138.885 67.2904 16.0544
717 2 142.913 67.2502 15.8623
718 2 146.726 67.2194 0.100749
719 2 150.386 67.1481 15.9387
720 2 154.405 67.1303 15.7915
721 2 -0.0105488 70.9119 16.0026
722 2 4.02999 71.0932 15.8711
723 2 7.70022 70.9531 -0.0216426
724 2 11.8388 70.9471 16.1455
725 2 15.6991 70.8122 15.9327
726 2 19.7273 70.6441 0.0847221
727 2 23.5636 70.8625 15.9675
728 2 27.4834 70.7359 15.8949
729 2 31.4366 70.646 15.9257
730 2 35.3277 70.5154 15.9747
731 2 39.1811 70.5084 15.7388
732 2 42.9934 70.5189 0.162607
733 2 46.9464 70.5717 15.7711
734 2 50.9096 70.7692 15.7466
735 2 55.0033 70.4972 15.73
736 2 58.83 70.4613 0.236947
737 2 63.0969 70.7036 15.9948
738 2 66.9138 70.7637 0.125699
739 2 70.9102 70.7995 15.9412
740 2 75.0092 70.6357 15.9434
741 2 79.0998 70.7482 15.795
742 2 83.0554 70.9111 0.170049
743 2 87.0398 71.1551 15.9703
744 2 90.8839 71.1167 0.364627
745 2 94.8729 70.9149 0.464381
746 2 99.1211 71.1262 15.9182
747 2 103.067 71.2741 0.194854
748 2 107.039 71.3699 0.121331
749 2 111.064 71.2024 15.9394
750 2 115.077 71.309 0.282417
751 2 119.042 71.3462 16.02
752 2 123.062 71.5407 0.316034
753 2 127.073 71.2773 16.0499
754 2 130.982 71.4408 16.1063
755 2 135.057 71.4584 16.195
756 2 138.718 71.3492 16.1531
757 2 142.542 71.2826 16.1901
758 2 146.638 71.023 15.8103
759 2 150.633 71.1963 15.9101
760 2 154.472 70.8949 15.8832
761 2 0.0114228 74.9325 16.0882
762 2 4.11719 75.0076 16.037
763 2 7.92513 74.9781 15.9945
764 2 11.7616 74.8933 16.0968
765 2 15.69 75.0796 16.0905
766 2 19.7481 74.7294 15.9929
767 2 23.5829 74.8487 16.0478
768 2 27.4414 74.6465 15.9466
769 2 31.3157 74.7585 -0.0536547
770 2 35.2533 74.5661 15.9178
771 2 39.3007 74.7145 15.9732
772 2 43.148 74.5933 0.146088
773 2 47.0207 74.4526 15.874
774 2 51.1808 74.6372 0.156364
775 2 54.8931 74.335 15.8251
776 2 58.9228 74.4325 15.87
777 2 63.0059 74.4993 15.9377
778 2 66.8689 74.483 15.9158
779 2 71.0729 74.7556 15.92
780 2 75.1626 74.8101 0.329068
781 2 78.8308 74.641 15.8962
782 2 82.9057 75.0231 15.9696
783 2 86.9206 74.9241 15.9714
784 2 90.9637 74.9878 0.175603
785 2 94.9506 75.0146 15.8059
786 2 98.9527 74.8338 0.276945
787 2 103.154 75.0051 16.0314
788 2 107.025 75.2417 0.384003
789 2 111.016 75.1174 16.1114
790 2 115.062 75.2343 0.30851
791 2 118.934 75.0346 16.1517
792 2 123.031 75.2263 15.7958
793 2 127.037 75.3573 0.326818
794 2 130.778 75.4089 0.211025
795 2 135.091 75.438 15.8846
796 2 138.762 75.1655 15.9821
797 2 142.693 75.264 0.289964
798 2 146.628 75.2993 16.0122
799 2 150.703 75.1724 15.963
800 2 154.604 75.2569 0.425905
801 2 0.205922 79.0028 16.0435
802 2 4.0061 78.8412 15.9621
803 2 7.86385 79.0084 15.7894
804 2 11.7284 78.9996 15.9431
805 2 15.6705 79.0498 15.9334
806 2 19.718 78.7592 15.8477
807 2 23.5077 78.8121 15.7791
808 2 27.5928 78.6606 15.9717
809 2 31.4781 78.8431 0.0924936
810 2 35.2306 78.6832 15.9906
811 2 39.2454 78.7906 0.286996
812 2 43.2306 78.5704 0.254698
813 2 47.1571 78.4088 0.0441329
814 2 50.9596 78.4241 15.8172
815 2 54.8089 78.4722 15.7858
816 2 58.8697 78.3636 15.7641
817 2 62.7824 78.5104 15.8006
818 2 66.8112 78.5374 15.8914
819 2 70.8421 78.5925 15.9352
820 2 75.0371 78.5326 16.0047
821 2 79.0107 78.6974 -0.0267108
822 2 82.8493 78.6171 0.229778
823 2 86.8872 78.7238 0.108551
824 2 90.9019 78.9655 0.211944
825 2 94.8953 78.7483 0.409932
826 2 98.7188 78.8227 15.7804
827 2 102.974 79.1879 0.217698
828 2 106.867 78.9246 16.0053
829 2 111.123 79.073 0.205075
830 2 115.041 79.1241 16.0195
831 2 119.003 79.084 0.284549
832 2 122.998 79.147 0.10281
833 2 126.87 79.2342 15.8575
834 2 130.883 79.1046 0.0818927
835 2 135.023 79.3411 15.8998
836 2 138.903 79.4114 16.059
837 2 142.854 79.0811 16.1054
838 2 146.837 79.3065 16.096
839 2 150.561 79.0046 16.0153
840 2 154.447 79.1355 16.0204
841 2 0.284104 82.9843 15.8681
842 2 4.3094 83.1151 16.1451
843 2 8.03908 83.0361 16.0043
844 2 11.8663 83.0916 15.8796
845 2 15.7129 82.8397 16.011
846 2 19.7191 82.9214 15.8679
847 2 23.6564 82.7032 16.0567
848 2 27.6061 82.7306 15.8652
849 2 31.4638 82.7846 15.955
850 2 35.496 82.6205 16.0109
851 2 39.2978 82.6082 0.159432
852 2 43.0855 82.5915 16.1066
853 2 47.175 82.588 15.7451
854 2 50.878 82.5673 15.7519
855 2 54.8713 82.5573 16.0166
856 2 58.7735 82.3754 15.8586
857 2 62.8043 82.3687 15.6458
858 2 66.8415 82.3811 0.0940715
859 2 70.8612 82.6377 0.12458
860 2 74.8714 82.6647 15.8856
861 2 78.9821 82.7398 0.189454
862 2 82.816 82.745 15.9401
863 2 87.0945 82.6388 15.966
864 2 90.9759 82.8682 0.219216
865 2 95.0355 82.8575 16.1249
866 2 98.7784 82.7739 15.7781
867 2 102.751 82.8022 0.208438
868 2 107.061 83.0388 0.190644
869 2 110.94 83.0031 15.9232
870 2 114.948 83.1677 16.0681
871 2 118.81 82.9676 0.370749
872 2 122.929 83.043 15.8253
873 2 126.968 83.0783 0.126055
874 2 130.92 83.1758 15.8437
875 2 134.866 83.193 0.23501
876 2 138.866 83.2301 15.9348
877 2 142.877 83.371 0.26753
878 2 146.739 83.3251 0.183559
879 2 150.687 83.3573 15.8757
880 2 154.63 83.0337 16.0566
881 2 0.126418 86.9409 15.9067
882 2 4.125 86.9547 0.158178
883 2 8.01578 87.036 15.8864
884 2 12.0353 86.9252 15.8658
885 2 15.7371 86.8639 0.175324
886 2 19.7337 86.716 15.8339
887 2 23.5134 86.7082 15.9675
888 2 27.4356 86.8573 15.9795
889 2 31.6124 86.7046 15.9704
890 2 35.4248 86.8467 15.7274
891 2 39.2498 86.6132 15.8656
892 2 43.152 86.5312 15.8452
893 2 47.3689 86.4992 0.128063
894 2 51.1989 86.8145 0.0645664
895 2 54.9073 86.4085 0.283939
896 2 58.8445 86.3993 16.0029
897 2 62.9617 86.3455 16.0592
898 2 66.7714 86.306 0.180098
899 2 70.7651 86.3428 0.179002
900 2 74.8878 86.5027 15.7953
901 2 78.9014 86.4106 0.106762
902 2 82.7315 86.5417 -0.0128492
903 2 86.8605 86.5939 16.0162
904 2 90.9053 86.8874 0.308969
905 2 94.9514 86.7887 16.0904
906 2 98.8372 86.5776 15.8667
907 2 102.688 86.7884 0.320669
908 2 106.855 86.739 0.0077253
909 2 110.98 87.0339 15.8778
910 2 114.957 86.922 0.253963
911 2 118.909 87.0547 0.0912376
912 2 123.015 87.0372 0.271093
913 2 126.948 87.1537 15.7716
914 2 130.903 87.2145 -0.0127079
915 2 134.823 87.0426 15.8464
916 2 139.02 87.1812 0.35084
917 2 142.877 87.2459 0.299526
918 2 146.846 87.1542 0.254104
919 2 150.62 87.3163 16.0055
920 2 154.575 87.1032 16.0425
921 2 0.189509 90.8967 16.0007
922 2 4.2122 90.995 0.284851
923 2 7.98075 90.9323 0.173857
924 2 11.8641 90.8507 0.188999
925 2 15.8378 90.8904 15.9176
926 2 19.7986 90.6746 15.866
927 2 23.5684 90.7685 15.9348
928 2 27.7924 90.8572 15.7723
929 2 31.4985 90.6317 16.1989
930 2 35.3732 90.8366 15.7789
931 2 39.5386 90.6702 15.9423
932 2 43.1664 90.56 0.103013
933 2 47.1583 90.5136 15.8868
934 2 50.9852 90.5545 15.7586
935 2 55.0455 90.5799 15.9508
936 2 59.1292 90.3374 15.8754
937 2 62.9816 90.2282 0.250198
938 2 66.797 90.2144 15.8613
939 2 70.6941 90.1892 15.9757
940 2 74.6942 90.1505 15.8463
941 2 78.8089 90.3994 0.104327
942 2 82.7345 90.3851 0.055404
943 2 86.8997 90.4028 15.9963
944 2 90.9337 90.5705 0.230678
945 2 94.7546 90.8063 0.263854
946 2 98.8334 90.5068 0.185832
947 2 102.753 90.8992 0.206825
948 2 106.712 90.7278 0.175375
949 2 110.939 90.8918 15.7877
950 2 114.83 90.8197 0.156386
951 2 118.735 91.1887 0.0523967
952 2 122.602 90.9589 0.258816
953 2 126.672 90.9847 0.161564
954 2 130.637 91.2064 15.9358
955 2 134.733 91.2943 0.253359
956 2 138.692 91.0295 0.101096
957 2 142.892 91.0834 0.327235
958 2 146.784 91.0938 0.117222
959 2 150.8 90.9259 15.9594
960 2 154.593 91.0506 0.284067
961 2 0.304741 94.8277 15.878
962 2 4.29915 94.8203 15.9589
963 2 8.17685 94.9073 0.0287141
964 2 12.1109 94.8413 15.9254
965 2 15.9193 94.7999 15.741
966 2 19.9389 94.6464 15.8478
967 2 24.0158 94.9522 16.0109
968 2 27.8078 94.696 15.8506
969 2 31.6436 94.7776 15.998
970 2 35.5671 94.6144 0.199271
971 2 39.4653 94.5928 15.7499
972 2 43.5859 94.6944 15.7721
973 2 47.3101 94.5898 15.8713
974 2 51.151 94.5505 0.295262
975 2 55.078 94.4763 15.8962
976 2 59.1216 94.3905 16.0154
977 2 62.9158 94.361 16.0438
978 2 66.9808 94.3857 0.0512357