ITEM: TIMESTEP
16900
ITEM: NUMBER OF ATOMS
32000
ITEM: BOX BOUNDS xy xz yz pp pp pp
0.0000000000000000e+00 1.5831999999999999e+02 0.0000000000000000e+00
0.0000000000000000e+00 1.5831999999999999e+02 0.0000000000000000e+00
1.6547072669816387e-01 1.5932241273301615e+01 0.0000000000000000e+00
ITEM: ATOMS id type x y z
1 2 158.223 157.674 15.7882
2 2 3.93316 157.935 0.0731606
3 2 7.74697 157.929 0.230656
4 2 11.8797 157.995 15.7617
5 2 15.8483 157.985 0.12534
6 2 19.7383 158.099 0.0427014
7 2 23.7775 157.898 16.0556
8 2 28.0736 158.204 0.0118236
9 2 31.9625 158.16 15.8018
10 2 36.0072 158.272 0.218321
11 2 40.0225 158.333 0.324445
12 2 43.8963 158.367 16.0701
13 2 47.9472 -0.0714848 15.8541
14 2 51.9258 0.14127 15.9668
15 2 55.8661 158.628 15.8307
16 2 59.8308 0.22496 16.0444
17 2 63.8267 0.207468 0.0169742
18 2 67.5418 0.340016 0.00453614
19 2 71.5635 158.478 15.9078
20 2 75.4871 158.549 15.8029
21 2 79.3365 158.524 16.0213
22 2 83.4989 158.384 0.209148
23 2 87.338 158.242 0.187179
24 2 91.2212 158.167 0.318555
25 2 95.0062 158.152 0.266858
26 2 98.9382 158.062 0.177263
27 2 102.859 158.103 0.209446
28 2 106.859 158.265 15.9388
29 2 110.641 157.84 0.1508
30 2 114.682 157.781 0.339934
31 2 118.685 157.988 0.0651622
32 2 122.497 157.679 15.8851
33 2 126.39 157.52 16.0074
34 2 130.295 157.577 16.0094
35 2 134.372 157.534 16.0019
36 2 138.186 157.483 16.0913
37 2 142.038 157.64 15.9863
38 2 146.039 157.612 16.0362
39 2 149.971 157.566 15.814
40 2 154.193 157.791 15.9506
41 2 157.93 3.28471 0.0593543
42 2 3.74982 3.43778 15.8057
43 2 7.79209 3.46484 0.063421
44 2 11.6697 3.46798 0.0652061
45 2 15.78 3.63807 0.100976
46 2 19.8264 3.55836 16.061
47 2 23.8571 3.68422 0.0179279
48 2 27.761 3.66328 0.155795
49 2 31.8844 3.69588 0.320885
50 2 35.961 3.76256 0.333196
51 2 39.775 4.03068 0.23869
52 2 43.8117 4.10546 0.195722
53 2 47.7767 4.16984 15.9433
54 2 51.6685 4.07579 -0.0056973
55 2 55.8535 4.17764 0.0335155
56 2 59.9225 4.12881 0.189262
57 2 63.9852 4.18356 15.8977
58 2 67.7 4.28936 0.0581572
59 2 71.7934 4.00489 0.189172
60 2 75.6564 4.18907 0.0329854
61 2 79.4698 4.24878 0.413011
62 2 83.3731 3.84172 0.0541333
63 2 87.1877 4.13478 0.205728
64 2 91.1309 3.92107 0.419417
65 2 95.2266 3.94309 15.8525
66 2 99.1983 3.76995 0.245899
67 2 103.083 3.79784 0.0959997
68 2 106.841 3.62687 16.1042
69 2 111.158 3.64709 15.8921
70 2 114.854 3.72967 15.7827
71 2 118.716 3.75095 15.8618
72 2 122.611 3.53689 0.205994
73 2 126.302 3.27884 15.9256
74 2 130.362 3.27973 0.3809
75 2 134.314 3.37243 15.9905
76 2 138.172 3.09628 0.0936125
77 2 142.246 3.42168 16.0048
78 2 146.239 3.26857 0.0333953
79 2 150.1 3.23317 15.6505
80 2 154.053 3.19529 15.7024
81 2 157.917 7.27642 0.145867
82 2 3.59196 7.26083 15.7571
83 2 7.80493 7.31384 15.8925
84 2 11.5857 7.28096 15.8849
85 2 15.5868 7.48015 0.0573038
86 2 19.7307 7.30599 15.9226
87 2 23.6932 7.54924 0.0883164
88 2 27.7049 7.55809 0.000141526
89 2 31.8659 7.57871 15.8974
90 2 35.9156 7.6946 15.8419
91 2 39.747 7.8196 15.8427
92 2 43.7064 8.03583 15.7516
93 2 47.7227 8.06253 0.0617667
94 2 51.7483 7.9951 16.1087
95 2 55.9421 7.81944 0.409443
96 2 59.9104 7.92606 0.0664743
97 2 63.7857 7.94863 0.239079
98 2 67.8609 8.14368 0.168178
99 2 71.7559 8.16081 0.287773
100 2 75.7982 8.08523 0.274415
101 2 79.6503 8.24503 15.8499
102 2 83.6159 8.07033 0.361212
103 2 87.4112 8.01946 16.1655
104 2 91.1502 7.89431 0.302544
105 2 95.2322 7.91662 0.176873
106 2 99.1624 7.885 0.32324
107 2 102.979 7.72377 0.0200492
108 2 107.012 7.57691 0.15648
109 2 110.715 7.57588 0.309202
110 2 114.707 7.66981 -0.0382187
111 2 118.605 7.57614 0.0395625
112 2 122.536 7.46685 0.241712
113 2 126.675 7.53521 16.0214
114 2 130.331 7.64516 0.125858
115 2 134.295 7.19898 0.170087
116 2 138.248 7.26631 16.0416
117 2 142.068 7.43086 15.8305
118 2 146.198 7.17065 0.00986898
119 2 150.232 7.21956 15.7351
120 2 153.995 7.16738 15.8492
121 2 157.937 11.138 0.0225007
122 2 3.63309 11.2581 0.028966
123 2 7.52241 11.2857 15.7556
124 2 11.8487 11.2589 15.8956
125 2 15.6505 11.4474 15.913
126 2 19.7027 11.2881 0.15277
127 2 23.7841 11.4779 0.116976
128 2 27.7202 11.5439 0.161334
129 2 31.747 11.5875 0.153526
130 2 35.7738 11.705 0.0216009
131 2 39.6276 11.5445 0.188711
132 2 43.793 11.7817 15.8042
133 2 47.6138 11.9448 15.9004
134 2 51.7352 11.8386 15.9278
135 2 55.8277 11.9692 0.133763
136 2 59.9527 11.9354 15.9089
137 2 63.994 12.0205 0.192457
138 2 67.7168 12.1196 15.8543
139 2 71.6694 12.0248 0.22801
140 2 75.8733 12.2102 0.207822
141 2 79.7494 12.046 0.142383
142 2 83.5272 12.0099 0.183271
143 2 87.5611 12.1334 0.256981
144 2 91.4028 11.9135 0.0931273
145 2 95.3384 11.6586 0.153574
146 2 99.201 11.6191 0.237789
147 2 103.085 11.6976 0.25695
148 2 106.885 11.6272 0.205986
149 2 111.088 11.4527 0.300061
150 2 114.896 11.565 -0.0251209
151 2 118.686 11.2912 0.1958
152 2 122.759 11.2916 0.0928364
153 2 126.586 11.4038 0.256999
154 2 130.673 11.3477 16.0223
155 2 134.45 11.3516 0.0853192
156 2 138.18 11.233 0.142173
157 2 142.295 11.268 15.9575
158 2 146.234 11.0623 15.8695
159 2 150.076 11.245 15.807
160 2 153.997 11.0579 15.9344
161 2 157.828 15.1323 0.2274
162 2 3.65079 15.1182 0.220267
163 2 7.77544 15.1795 0.043412
164 2 11.727 15.0764 15.6674
165 2 15.7077 15.2641 15.7156
166 2 19.8483 15.3204 -0.0510736
167 2 23.6702 15.5229 0.0881306
168 2 27.6619 15.5456 15.7132
169 2 31.7948 15.549 15.7524
170 2 35.6174 15.4866 0.108932
171 2 39.814 15.5491 15.9561
172 2 43.7228 15.6046 0.248142
173 2 47.9007 15.9042 0.134214
174 2 51.5828 15.6956 0.39057
175 2 55.7052 15.9714 15.9017
176 2 59.8731 15.8046 -0.0230365
177 2 63.7853 15.7271 0.258824
178 2 67.7076 15.8685 0.208519
179 2 71.7545 15.9995 0.0753661
180 2 75.6856 16.1844 16.0007
181 2 79.6457 16.0536 0.193467
182 2 83.6555 16.0613 0.0276283
183 2 87.6269 15.8885 0.234736
184 2 91.4816 15.9875 0.219528
185 2 95.497 16.006 0.163415
186 2 99.3199 15.7608 0.286017
187 2 103.337 15.7092 0.247154
188 2 107.058 15.7573 0.194342
189 2 111.024 15.5408 0.0480953
190 2 115.202 15.6338 -0.031466
191 2 118.897 15.4543 0.213223
192 2 122.627 15.4712 15.7836
193 2 126.561 15.3025 0.331099
194 2 130.429 15.336 0.340675
195 2 134.443 15.4337 0.176303
196 2 138.641 15.311 0.204509
197 2 142.438 15.0971 -0.0109344
198 2 146.25 15.0241 0.305116
199 2 150.088 15.2516 15.9725
200 2 154.067 15.1126 0.205252
201 2 157.968 19.1621 15.6889
202 2 3.32099 19.074 -0.034614
203 2 7.47564 19.1001 15.6436
204 2 11.7727 19.1617 15.7723
205 2 15.652 19.4422 15.5128
206 2 19.5417 19.1937 -0.0402133
207 2 23.5155 19.2651 0.0326476
208 2 27.6319 19.2045 -0.100329
209 2 31.8449 19.4994 16.0079
210 2 35.7874 19.5623 16.0077
211 2 39.6776 19.3073 0.136534
212 2 43.7584 19.4779 16.0459
213 2 47.9478 19.5913 15.9374
214 2 51.7254 19.696 15.9028
215 2 55.829 19.5811 15.9344
216 2 59.9115 19.7196 15.9055
217 2 63.6971 19.7321 15.8024
218 2 67.5077 19.621 16.1387
219 2 71.6862 19.7357 0.266607
220 2 75.6942 20.0159 0.0559166
221 2 79.6838 19.8646 0.166129
222 2 83.6001 19.9619 0.204542
223 2 87.6977 19.8832 15.8118
224 2 91.5811 19.8522 0.0926894
225 2 95.3751 19.936 -0.0285312
226 2 99.347 19.9374 16.1835
227 2 103.334 19.9386 15.8944
228 2 107.158 19.8817 16.0158
229 2 111.174 19.7917 0.11919
230 2 114.931 19.6087 0.29025
231 2 118.911 19.4985 15.8526
232 2 122.869 19.4898 0.275943
233 2 126.543 19.4876 0.0829661
234 2 130.642 19.509 0.0512341
235 2 134.568 19.3697 15.7551
236 2 138.45 19.3876 15.9774
237 2 142.237 19.2197 0.0654854
238 2 146.038 19.2353 0.259615
239 2 150.222 19.1307 -0.0491876
240 2 154.058 18.9718 15.8491
241 2 158.053 23.1487 15.9105
242 2 3.55062 22.9099 15.6725
243 2 7.48188 23.0135 0.0466421
244 2 11.6469 22.8924 15.8754
245 2 15.5124 23.2937 15.686
246 2 19.4323 23.2023 -0.0442848
247 2 23.6122 23.0907 15.8672
248 2 27.4658 23.3619 15.7847
249 2 31.6083 23.4476 0.141351
250 2 35.7025 23.3088 15.9175
251 2 39.7949 23.3916 0.0558013
252 2 43.801 23.3466 15.8692
253 2 47.7953 23.484 15.9372
254 2 51.7839 23.3907 0.318141
255 2 55.6424 23.6942 15.9602
256 2 59.7351 23.6424 16.045
257 2 63.6883 23.7892 15.9359
258 2 67.6095 23.7417 0.0805001
259 2 71.6299 23.8641 0.0832216
260 2 75.5385 24.0069 0.202033
261 2 79.5823 23.8462 15.8006
262 2 83.6112 23.9818 15.8358
263 2 87.5345 23.7637 0.0326117
264 2 91.6051 23.7423 16.0703
265 2 95.5312 23.8435 15.8662
266 2 99.4972 23.9099 0.264412
267 2 103.381 23.826 0.265096
268 2 107.24 23.7913 0.352726
269 2 110.926 23.8609 0.152554
270 2 114.955 23.6142 15.8912
271 2 118.904 23.5473 15.8977
272 2 122.932 23.5084 0.165088
273 2 126.764 23.3017 0.322009
274 2 130.634 23.283 15.8907
275 2 134.677 23.3041 0.0377122
276 2 138.652 23.2842 15.7293
277 2 142.439 23.1209 0.070589
278 2 146.301 23.0757 0.00828199
279 2 150.299 23.042 0.290891
280 2 154.382 23.1712 0.155319
281 2 158.155 27.0363 -0.0139488
282 2 3.76526 26.8811 15.8392
283 2 7.6051 27.0034 -0.0797409
284 2 11.5606 27.1492 15.7867
285 2 15.6987 27.1096 15.8127
286 2 19.6748 27.2317 -0.155182
287 2 23.3768 26.8878 -0.004501
288 2 27.6117 27.0562 0.180797
289 2 31.8167 27.1234 15.9671
290 2 35.6106 27.2033 0.169289
291 2 39.7443 27.2772 0.144209
292 2 43.5841 27.3812 15.8365
293 2 47.7939 27.5843 0.346865
294 2 51.5844 27.7018 0.175685
295 2 55.6795 27.7938 0.258515
296 2 59.5869 27.6373 0.100264
297 2 63.6943 27.6198 0.113591
298 2 67.7178 27.6997 0.116882
299 2 71.6995 27.7687 0.066715
300 2 75.6706 27.766 16.0892
301 2 79.5953 27.8671 0.19934
302 2 83.6485 27.8697 15.8297
303 2 87.6213 27.7121 0.221155
304 2 91.5499 27.8449 15.8698
305 2 95.4846 27.7775 15.972
306 2 99.3672 27.7737 0.388984
307 2 103.349 27.7579 0.258706
308 2 107.358 27.8414 16.035
309 2 111.342 27.8133 0.27241
310 2 115.054 27.6306 15.9252
311 2 119.101 27.4437 15.8223
312 2 122.745 27.6786 0.0735867
313 2 126.78 27.365 0.275778
314 2 130.718 27.2783 -0.0118293
315 2 134.498 27.446 15.9824
316 2 138.316 27.3089 0.0285819
317 2 142.281 27.3353 0.0461153
318 2 146.468 27.1234 0.214544
319 2 150.234 27.2345 0.0276416
320 2 154.195 26.986 15.8014
321 2 158.278 31.0984 15.609
322 2 3.71256 31.0851 0.039889
323 2 7.61017 30.8803 0.0823536
324 2 11.6151 30.9031 15.6651
325 2 15.6846 31.0358 -0.124272
326 2 19.5811 31.0714 15.7094
327 2 23.6323 31.045 15.8722
328 2 27.5929 31.0604 -0.0321699
329 2 31.6232 31.0493 0.0896911
330 2 35.5688 31.2669 15.8142
331 2 39.727 31.3541 15.7616
332 2 43.7703 31.275 -0.0926844
333 2 47.6696 31.4113 15.7995
334 2 51.4376 31.3874 15.8809
335 2 55.6684 31.6276 -0.00617888
336 2 59.3544 31.4851 0.434689
337 2 63.5306 31.5763 15.8996
338 2 67.5319 31.5447 0.0105428
339 2 71.6223 31.6888 15.9372
340 2 75.5644 31.6832 -0.0102824
341 2 79.5042 31.8705 0.0394278
342 2 83.5144 31.744 15.8167
343 2 87.522 31.6223 0.0822873
344 2 91.3929 31.8736 0.154486
345 2 95.3638 31.7872 0.22209
346 2 99.3009 31.7276 0.392135
347 2 103.317 31.6402 15.9161
348 2 107.199 31.6722 0.195362
349 2 111.223 31.5689 16.1415
350 2 115.146 31.6594 0.362256
351 2 118.942 31.5622 15.9815
352 2 122.905 31.4451 0.0131002
353 2 126.889 31.3822 0.175987
354 2 130.718 31.2938 0.0231825
355 2 134.655 31.4798 0.1023
356 2 138.484 31.4734 15.9589
357 2 142.358 31.1952 15.8014
358 2 146.437 31.3364 15.9119
359 2 150.156 31.0201 15.8891
360 2 154.192 31.1393 15.7326
361 2 158.226 35.0677 15.7139
362 2 3.75069 34.851 0.119881
363 2 7.8569 34.846 0.0707651
364 2 11.6677 34.7567 15.9109
365 2 15.5764 34.9091 0.252316
366 2 19.5309 34.9016 15.9746
367 2 23.5905 35.0358 15.9274
368 2 27.6689 34.9796 0.318304
369 2 31.599 35.0144 0.154757
370 2 35.6485 35.094 15.6218
371 2 39.4089 35.1614 -0.102318
372 2 43.4927 35.1415 15.8321
373 2 47.682 35.2737 15.9474
374 2 51.5738 35.5088 0.104635
375 2 55.6237 35.3468 16.0148
376 2 59.5851 35.5175 0.226743
377 2 63.6254 35.4591 0.234673
378 2 67.4785 35.4071 0.179465
379 2 71.4169 35.5644 0.147075
380 2 75.5151 35.5677 15.764
381 2 79.4851 35.901 15.8567
382 2 83.4773 35.6016 0.0287568
383 2 87.506 35.5664 0.308976
384 2 91.502 35.7231 16.0898
385 2 95.4513 35.6262 16.1313
386 2 99.4374 35.7861 0.0763212
387 2 103.404 35.6666 15.8659
388 2 107.458 35.7958 0.322591
389 2 111.252 35.6134 15.9844
390 2 115.168 35.4888 0.130084
391 2 119.115 35.6901 16.089
392 2 122.979 35.4112 15.8787
393 2 126.73 35.4158 0.122491
394 2 130.847 35.303 0.0820346
395 2 134.8 35.4188 15.8472
396 2 138.682 35.1921 15.89
397 2 142.424 35.2016 15.8092
398 2 146.364 35.2548 15.8693
399 2 150.358 35.2433 0.278963
400 2 154.162 35.1027 0.123421
401 2 158.212 39.0368 0.0501038
402 2 3.7547 38.9346 15.9177
403 2 7.68565 38.8606 15.6484
404 2 11.6235 38.7266 0.0677248
405 2 15.4396 38.8939 0.0175566
406 2 19.4984 38.7686 15.91
407 2 23.6394 38.9253 15.9314
408 2 27.4974 38.9372 0.100298
409 2 31.4917 38.844 15.7157
410 2 35.5816 39.2039 -0.0873355
411 2 39.3974 39.1312 -0.000643731
412 2 43.531 39.0048 0.0568604
413 2 47.4151 39.2085 0.218326
414 2 51.5446 39.1552 0.161174
415 2 55.6336 39.3648 0.134227
416 2 59.5328 39.341 0.273774
417 2 63.4314 39.3369 15.8572
418 2 67.3538 39.3075 -0.139821
419 2 71.3584 39.5895 0.177525
420 2 75.4043 39.4787 0.26965
421 2 79.3176 39.529 15.883
422 2 83.5229 39.6913 16.0717
423 2 87.4825 39.5936 16.0449
424 2 91.4392 39.5563 16.1266
425 2 95.4793 39.7632 15.7867
426 2 99.3767 39.6088 0.171732
427 2 103.498 39.7068 0.178419
428 2 107.389 39.5214 15.8997
429 2 111.251 39.8389 15.8197
430 2 115.284 39.5968 15.7932
431 2 118.906 39.6249 15.9596
432 2 122.964 39.5152 0.0987897
433 2 127.014 39.4744 15.8824
434 2 130.77 39.4144 0.17555
435 2 134.869 39.4288 0.120346
436 2 138.608 39.1661 15.7906
437 2 142.561 39.2907 16.0502
438 2 146.452 39.1562 0.115871
439 2 150.427 39.079 15.7475
440 2 154.227 39.1238 -0.0208843
441 2 158.056 42.9138 0.185009
442 2 3.89722 43.0328 0.0694072
443 2 7.82327 42.783 0.0860308
444 2 11.6977 42.7351 0.294361
445 2 15.618 42.8169 0.0813136
446 2 19.3624 42.9568 16.0545
447 2 23.4959 42.7734 0.216948
448 2 27.2936 42.7402 0.11109
449 2 31.2387 42.7397 0.261602
450 2 35.5804 42.9486 0.275653
451 2 39.6108 42.8565 0.172321
452 2 43.4028 42.8578 0.242995
453 2 47.5791 43.1184 0.144103
454 2 51.3541 43.3202 0.135731
455 2 55.353 43.1647 0.123929
456 2 59.3874 43.232 0.286934
457 2 63.7063 43.2606 0.214642
458 2 67.3946 43.1791 16.1654
459 2 71.2999 43.5021 15.8602
460 2 75.4567 43.5819 0.282614
461 2 79.3987 43.3538 0.133118
462 2 83.2272 43.4944 15.76
463 2 87.3954 43.4486 15.9076
464 2 91.3558 43.6094 15.8164
465 2 95.1832 43.7108 0.0743253
466 2 99.3297 43.5419 0.295952
467 2 103.344 43.801 0.0944368
468 2 107.328 43.7822 -0.062267
469 2 111.219 43.7299 15.6942
470 2 114.983 43.6405 15.8363
471 2 119.267 43.5709 0.250909
472 2 123.155 43.4975 0.0837045
473 2 126.913 43.4756 0.254158
474 2 130.699 43.374 0.0195487
475 2 134.847 43.3937 15.8837
476 2 138.775 43.3962 15.8906
477 2 142.646 43.2759 15.8556
478 2 146.611 43.115 15.7334
479 2 150.521 43.2033 0.124247
480 2 154.325 42.8807 15.8019
481 2 158.259 46.9909 16.2121
482 2 3.64306 46.8688 16.0289
483 2 7.79342 46.7608 15.8802
484 2 11.6931 46.7388 15.9635
485 2 15.5657 46.8323 0.207193
486 2 19.7615 46.8342 15.9226
487 2 23.6068 46.8667 -0.0253136
488 2 27.3791 46.5898 0.135941
489 2 31.3545 46.7013 -0.094838
490 2 35.2565 46.7586 -0.0871726
491 2 39.4847 46.8442 -0.0847627
492 2 43.4685 46.9123 0.0981727
493 2 47.4765 47.1766 15.9681
494 2 51.377 47.2142 15.8967
495 2 55.3761 47.0633 0.154746
496 2 59.2996 47.2364 15.8967
497 2 63.3993 47.2538 0.0674788
498 2 67.3686 47.3026 0.293427
499 2 71.4375 47.2182 0.181229
500 2 75.4469 47.3334 15.9585
501 2 79.2913 47.1658 15.739
502 2 83.2918 47.5129 0.357695
503 2 87.3689 47.5466 0.212208
504 2 91.327 47.4613 15.873
505 2 95.3966 47.5801 0.229642
506 2 99.3393 47.4038 0.116931
507 2 103.391 47.7835 15.8375
508 2 107.276 47.9349 0.242282
509 2 111.43 47.5619 15.8747
510 2 115.059 47.5238 15.8474
511 2 119.158 47.7419 -0.0723021
512 2 123.127 47.4262 0.174973
513 2 126.873 47.3322 0.116489
514 2 130.937 47.4052 0.232906
515 2 134.728 47.3201 15.7539
516 2 138.756 47.233 0.241476
517 2 142.653 47.1787 15.9735
518 2 146.512 47.1192 0.0716968
519 2 150.54 47.0506 15.9854
520 2 154.521 47.0765 0.111673
521 2 158.316 50.9633 0.13748
522 2 3.85093 50.8326 0.141284
523 2 7.82144 50.685 -0.0106466
524 2 11.5706 50.7039 16.0313
525 2 15.6746 50.7171 0.114482
526 2 19.5287 50.8546 -3.00364e-05
527 2 23.4461 50.8014 0.0599324
528 2 27.5174 50.7712 15.8078
529 2 31.4868 50.7638 15.7962
530 2 35.2161 50.6596 0.298713
531 2 39.111 50.6309 15.6677
532 2 43.1804 50.8181 0.13173
533 2 47.3793 51.0169 0.264321
534 2 51.2946 50.9946 15.9218
535 2 55.253 51.1483 15.9507
536 2 59.221 51.1146 16.0346
537 2 63.3377 51.1222 0.235189
538 2 67.2298 51.245 0.330493
539 2 71.2412 51.4417 15.8417
540 2 75.3522 51.2362 0.158994
541 2 79.3277 51.2168 15.8487
542 2 83.2848 51.2764 16.1222
543 2 87.3596 51.3143 15.9097
544 2 91.1677 51.3392 0.174339
545 2 95.2326 51.536 -0.111627
546 2 99.3599 51.4623 15.9018
547 2 103.264 51.6584 0.303334
548 2 107.363 51.6871 16.0378
549 2 111.394 51.6812 0.0683994
550 2 115.123 51.7901 0.367386
551 2 119.218 51.5542 0.0154645
552 2 122.903 51.4849 0.0266267
553 2 127.022 51.488 15.9498
554 2 130.882 51.3825 0.102162
555 2 134.829 51.3527 15.9153
556 2 138.836 51.1268 0.131634
557 2 142.516 51.2874 15.9388
558 2 146.463 51.3162 15.9696
559 2 150.418 51.0943 0.160083
560 2 154.332 51.0401 0.23337
561 2 158.371 54.747 0.333149
562 2 4.06383 54.7593 0.142409
563 2 7.83255 54.9469 0.188034
564 2 11.7145 54.9437 15.9092
565 2 15.6998 54.9742 15.793
566 2 19.5335 54.9433 15.9143
567 2 23.5411 54.7385 15.8698
568 2 27.4327 54.9276 15.5988
569 2 31.3022 54.6691 0.221014
570 2 35.3461 54.9403 15.8898
571 2 39.1306 54.7462 0.304481
572 2 43.171 54.5395 15.8324
573 2 47.1086 54.7876 15.971
574 2 51.293 54.8416 15.9246
575 2 55.1731 54.8827 0.289014
576 2 59.1703 55.0288 0.128428
577 2 63.2282 55.0773 16.0302
578 2 67.0361 55.1 0.313876
579 2 71.2124 55.3006 16.0337
580 2 74.9677 55.2382 15.9363
581 2 79.3284 55.3263 15.9479
582 2 83.1964 55.2263 15.9866
583 2 87.1749 55.2575 0.236094
584 2 91.1841 55.1454 0.2859
585 2 95.2365 55.5194 0.321144
586 2 99.2907 55.3898 16.1418
587 2 103.307 55.504 0.311745
588 2 107.2 55.5872 0.162215
589 2 111.236 55.444 15.9171
590 2 115.241 55.5894 0.106767
591 2 118.923 55.343 0.182763
592 2 122.989 55.6673 0.255375
593 2 126.947 55.4412 16.0352
594 2 130.849 55.1694 15.9554
595 2 134.739 55.2607 15.9519
596 2 138.695 55.3566 0.0767044
597 2 142.549 55.2707 0.163415
598 2 146.417 55.1155 15.9967
599 2 150.652 55.0985 15.8016
600 2 154.398 54.9718 0.265449
601 2 -0.0880646 58.939 0.166415
602 2 3.71928 59.061 0.151676
603 2 7.66492 59.0797 0.143725
604 2 11.687 59.0271 15.9847
605 2 15.6224 58.8256 0.0718395
606 2 19.4714 58.9648 15.8771
607 2 23.5289 58.7867 15.8637
608 2 27.4406 58.7574 -0.240991
609 2 31.2455 58.8562 15.7644
610 2 35.2519 58.6599 0.185247
611 2 39.1876 58.8088 0.223319
612 2 43.1352 58.6757 15.8473
613 2 47.0243 58.6745 0.101292
614 2 51.0917 58.9046 15.671
615 2 55.1376 58.7756 15.7977
616 2 59.0017 58.9423 16.0133
617 2 62.9847 59.035 0.229247
618 2 67.1749 59.0715 15.9544
619 2 71.0137 58.9765 0.266885
620 2 75.1624 59.1591 0.190974
621 2 79.0765 59.0584 16.004
622 2 83.0714 59.0749 16.0112
623 2 87.116 59.2659 0.206159
624 2 91.0094 58.9612 0.0871168
625 2 95.0727 59.3059 0.0449651
626 2 99.2684 59.1208 15.8098
627 2 103.133 59.2871 0.0781842
628 2 107.226 59.3691 0.469442
629 2 111.006 59.3987 0.241904
630 2 115.19 59.457 0.281379
631 2 119.166 59.4562 0.135099
632 2 123.152 59.3011 0.137314
633 2 126.828 59.4354 0.356598
634 2 130.807 59.2243 15.9411
635 2 134.856 59.3115 0.194199
636 2 138.746 59.2392 0.164553
637 2 142.59 59.3206 15.9427
638 2 146.612 59.1905 0.142424
639 2 150.401 59.0001 0.250754
640 2 154.163 59.0323 0.10059
641 2 0.0751069 63.0759 15.9434
642 2 3.99812 62.9897 16.1155
643 2 7.86289 63.0287 0.383954
644 2 11.647 62.9883 0.0838647
645 2 15.587 62.7023 16.06
646 2 19.5044 62.8083 15.873
647 2 23.2715 62.6863 16.0971
648 2 27.2614 62.6803 0.219293
649 2 31.2871 62.7463 15.9435
650 2 35.3583 62.514 15.9383
651 2 39.1687 62.7409 -0.133989
652 2 43.0074 62.6294 0.203114
653 2 46.9146 62.7267 15.9367
654 2 50.8341 62.887 0.0661651
655 2 55.1591 62.8172 0.0824088
656 2 59.0887 62.7308 0.248964
657 2 63.0536 62.8078 0.187377
658 2 66.9841 62.9365 0.208844
659 2 70.9742 63.0022 0.0631885
660 2 75.0402 62.9764 15.9674
661 2 79.0645 63.1182 15.9752
662 2 83.0867 63.0392 15.8936
663 2 87.166 63.1247 0.198106
664 2 91.2489 63.1158 15.9951
665 2 95.1976 63.2669 0.200774
666 2 99.2142 63.156 0.0210997
667 2 103.16 63.3371 0.167479
668 2 107.298 63.3299 0.274891
669 2 111.018 63.4352 0.350924
670 2 115.177 63.3583 0.413196
671 2 119.287 63.3069 15.9833
672 2 123.139 63.523 15.9368
673 2 127.2 63.4046 16.0986
674 2 130.968 63.3045 0.262583
675 2 134.929 63.2292 16.2709
676 2 138.906 63.2168 0.150102
677 2 142.804 63.1877 0.10826
678 2 146.487 63.2903 0.233346
679 2 150.542 62.9736 16.0626
680 2 154.529 63.0566 15.935
681 2 0.247636 67.1253 0.256822
682 2 3.92198 66.9378 0.264227
683 2 7.85841 67.1157 0.235789
684 2 11.6735 66.869 15.9522
685 2 15.5558 66.8271 15.8741
686 2 19.5058 66.7583 16.0015
687 2 23.4425 66.7917 16.0272
688 2 27.271 66.7281 16.0704
689 2 31.3943 66.7095 0.136147
690 2 35.129 66.4507 -0.167277
691 2 39.2099 66.5194 0.0489541
692 2 42.9981 66.5266 15.8639
693 2 47.2606 66.6901 0.0621445
694 2 51.084 66.6923 15.8015
695 2 55.0331 66.7551 16.0238
696 2 58.7859 66.8398 15.7356
697 2 62.8943 66.7521 15.8354
698 2 66.9224 67.04 15.8289
699 2 70.9899 66.92 0.179151
700 2 74.9845 66.9104 0.137325
701 2 79.0944 66.9688 15.7697
702 2 83.0755 66.9725 16.1553
703 2 87.0209 67.0115 15.9575
704 2 91.2471 66.9441 0.113559
705 2 95.0662 67.0472 15.9667
706 2 99.1806 67.1774 15.8281
707 2 103.175 67.3269 0.0940383
708 2 107.064 67.4667 16.2223
709 2 110.94 67.1748 0.276372
710 2 115.097 67.4254 0.212727
711 2 119.021 67.1445 0.273877
712 2 123.113 67.4762 16.0735
713 2 127.078 67.4831 16.1278
714 2 130.926 67.1921 16.0091
715 2 135.069 67.3529 16.0118
716 2 138.778 67.3478 16.1459
717 2 142.602 67.2301 15.9917
718 2 146.674 67.3314 0.092447
719 2 150.61 67.1924 16.0228
720 2 154.517 66.9443 16.1828
721 2 0.262524 71.048 15.8001
722 2 4.11333 71.0762 15.842
723 2 8.02475 70.9174 0.453164
724 2 11.6142 70.8974 15.8286
725 2 15.7496 70.8795 16.0394
726 2 19.496 70.9825 0.15467
727 2 23.4256 70.7155 15.8171
728 2 27.3245 70.6734 15.9202
729 2 31.0915 70.848 15.8392
730 2 35.0571 70.7945 15.9048
731 2 39.1252 70.68 16.1016
732 2 43.0914 70.5268 0.0621192
733 2 46.9957 70.56 15.9809
734 2 51.1739 70.4457 16.0323
735 2 54.8891 70.6046 15.9303
736 2 59.059 70.7819 0.100678
737 2 62.8228 70.6589 15.8326
738 2 66.9746 70.8554 0.0799303
739 2 71.1239 70.7971 16.0312
740 2 75.0206 70.9702 15.7877
741 2 79.0207 70.8612 15.9434
742 2 82.9574 70.9534 0.245218
743 2 86.9907 70.8566 16.0476
744 2 90.9085 70.9333 0.327643
745 2 94.984 71.0742 0.250074
746 2 98.9131 71.1074 16.09
747 2 103.126 71.0318 0.189401
748 2 107.037 71.2907 0.0752073
749 2 111.008 71.3491 15.9104
750 2 115.002 71.0963 0.121666
751 2 119.007 71.254 16.2655
752 2 123.011 71.1851 0.402962
753 2 127.074 71.5261 16.0301
754 2 131.093 71.3908 16.0711
755 2 134.89 71.3186 16.1506
756 2 138.848 71.3999 16.232
757 2 142.924 71.1703 15.8884
758 2 146.646 71.3496 16.2248
759 2 150.518 71.2674 16.0096
760 2 154.531 71.1223 16.0719
761 2 0.130999 74.9523 15.9489
762 2 3.84745 75.042 16.1356
763 2 7.80498 74.9768 15.9744
764 2 11.8042 74.8985 15.8922
765 2 15.8039 74.6718 15.9509
766 2 19.651 74.8079 15.8391
767 2 23.6211 74.6441 15.6972
768 2 27.5202 74.7395 15.8811
769 2 31.475 74.6607 0.169555
770 2 35.3595 74.725 15.9766
771 2 39.141 74.5608 15.9413
772 2 43.1014 74.5493 0.200072
773 2 47.0349 74.7136 15.758
774 2 50.7004 74.5028 0.166889
775 2 54.8861 74.6798 15.9684
776 2 58.8506 74.5656 15.8755
777 2 62.8943 74.718 15.7979
778 2 67.0557 74.6447 15.8943
779 2 70.8885 74.6968 16.0554
780 2 74.8572 74.4503 0.17091
781 2 79.1339 74.6465 15.9436
782 2 82.9526 74.6394 16.0141
783 2 86.7969 74.8328 15.7997
784 2 90.8823 75.0493 0.284818
785 2 94.7393 74.9142 16.0003
786 2 98.8151 75.03 0.230703
787 2 102.848 75.1472 15.9723
788 2 106.905 75.0587 0.189012
789 2 111.054 75.1078 15.9933
790 2 115.019 75.1324 0.29902
791 2 119.003 75.2629 16.1839
792 2 122.895 75.2312 16.0973
793 2 127.001 75.3168 0.194685
794 2 131.09 75.3685 0.167202
795 2 134.751 75.3483 16.1615
796 2 138.91 75.4925 16.2372
797 2 142.793 75.2664 0.229627
798 2 146.619 75.2399 16.0129
799 2 150.52 75.0678 16.0753
800 2 154.463 75.1147 0.0751919
801 2 0.0196027 79.0058 16.0151
802 2 4.05542 79.0968 16.0483
803 2 8.14708 78.889 16.0724
804 2 11.9014 78.8181 15.8598
805 2 15.6562 78.7633 15.9104
806 2 19.6788 78.8164 15.9527
807 2 23.6311 78.6974 16.1189
808 2 27.6147 78.8458 15.7557
809 2 31.5284 78.5523 0.186927
810 2 35.3528 78.5962 15.9652
811 2 39.1017 78.4714 0.256149
812 2 43.1557 78.7335 0.289996
813 2 46.9683 78.6442 0.174478
814 2 51.0197 78.6808 16.014
815 2 54.8498 78.5171 15.9212
816 2 58.7461 78.6757 15.9726
817 2 62.9308 78.512 15.7968
818 2 66.9935 78.3798 15.8371
819 2 71.0723 78.6809 16.0106
820 2 74.9139 78.5414 15.8252
821 2 79.0146 78.5964 0.296635
822 2 83.0332 78.7905 0.169892
823 2 87.0532 78.8063 0.349082
824 2 91.0031 78.8712 0.423753
825 2 95.1087 78.989 0.0681604
826 2 99.0748 79.005 15.831
827 2 102.856 78.8037 0.0645555
828 2 107.007 79.0548 15.9495
829 2 110.915 79.0905 0.168066
830 2 114.973 79.2029 16.0481
831 2 119.026 79.2022 0.378365
832 2 122.987 79.1611 0.232547
833 2 127.095 79.2562 15.8929
834 2 130.966 79.3566 0.205915
835 2 134.901 79.2489 15.9456
836 2 138.921 79.132 16.0562
837 2 142.853 79.4447 16.0171
838 2 146.711 79.1048 15.9875
839 2 150.659 79.1804 16.0478
840 2 154.492 79.1698 16.0162
841 2 0.062068 82.9229 15.8801
842 2 3.92805 82.9806 15.7666
843 2 8.0401 82.7458 15.8769
844 2 11.8495 82.7513 15.9185
845 2 15.9152 82.824 15.9241
846 2 19.8107 82.6991 15.9551
847 2 23.6297 82.7442 15.8998
848 2 27.5357 82.7356 15.9078
849 2 31.6442 82.6737 15.9653
850 2 35.3637 82.6146 15.9129
851 2 39.2392 82.6298 -0.016886
852 2 43.2421 82.5435 15.8823
853 2 47.0776 82.4813 15.9123
854 2 51.1593 82.4924 15.8519
855 2 55.0298 82.5098 15.9951
856 2 58.8204 82.5259 15.9022
857 2 62.8025 82.3734 15.9053
858 2 66.8614 82.4319 0.0921029
859 2 70.9642 82.4203 0.292812
860 2 75.1158 82.4906 15.9284
861 2 78.7791 82.4657 0.264355
862 2 82.9737 82.804 15.7334
863 2 86.8962 82.7542 15.8929
864 2 90.9574 82.7627 0.231744
865 2 94.8156 82.6565 15.9411
866 2 98.8367 82.9579 15.8996
867 2 103.127 83.011 0.136545
868 2 106.764 82.8769 0.226444
869 2 110.864 83.0231 15.8333
870 2 114.922 83.1702 15.9855
871 2 119.093 83.068 0.171979
872 2 122.97 83.2913 15.9629
873 2 126.97 83.0988 0.125865
874 2 130.846 83.0238 15.9568
875 2 134.959 83.1913 0.119211
876 2 138.912 83.2484 16.2489
877 2 142.911 83.0696 0.307031
878 2 146.861 83.2077 0.308271
879 2 150.711 83.2935 16.2419
880 2 154.567 83.3144 15.8575
881 2 0.251749 86.8262 16.0636
882 2 4.25927 86.9705 0.171117
883 2 8.08148 86.7758 15.9217
884 2 11.9182 86.7482 15.8732
885 2 15.9308 86.7914 0.190953
886 2 19.8858 86.9337 16.1873
887 2 23.8465 86.8278 15.9721
888 2 27.5934 86.8345 15.9515
889 2 31.5785 86.7248 15.9481
890 2 35.4176 86.8203 15.9659
891 2 39.4099 86.5995 15.9053
892 2 43.3541 86.7447 15.9525
893 2 47.1251 86.5735 0.123668
894 2 51.0731 86.4803 0.160048
895 2 55.0474 86.4414 0.287473
896 2 58.8916 86.5182 15.873
897 2 62.7234 86.4183 16.1194
898 2 66.6665 86.2086 0.207342
899 2 70.733 86.2688 0.309253
900 2 74.7815 86.2362 15.9698
901 2 78.7295 86.6108 0.121854
902 2 82.9564 86.5976 0.0638916
903 2 86.8269 86.7029 15.8225
904 2 90.8287 86.5577 0.218307
905 2 94.7949 86.7584 16.0919
906 2 98.9249 86.8878 16.0742
907 2 103.088 86.9101 0.085481
908 2 106.848 86.9146 0.280811
909 2 110.887 86.7816 15.9716
910 2 114.957 87.1693 0.234745
911 2 118.96 87.054 0.234781
912 2 122.682 87.113 0.0452682
913 2 126.828 86.9265 15.9022
914 2 130.79 87.109 0.0947763
915 2 134.938 87.1504 16.056
916 2 138.74 87.2643 0.179809
917 2 142.772 87.0984 0.415811
918 2 146.738 87.2727 0.203664
919 2 150.638 87.1891 16.0341
920 2 154.439 87.1233 16.143
921 2 0.314428 91.031 16.0688
922 2 4.14643 90.8823 -0.0490896
923 2 8.08466 90.9034 0.0319072
924 2 11.9965 90.861 -0.0404376
925 2 15.8749 90.7118 15.8058
926 2 19.8014 90.7165 15.8602
927 2 23.8139 90.8209 15.872
928 2 27.4833 90.7274 16.1914
929 2 31.7127 90.7703 15.7878
930 2 35.6338 90.696 15.8625
931 2 39.4989 90.6949 15.8814
932 2 43.4832 90.7451 0.247267
933 2 47.2659 90.6011 15.8504
934 2 51.2615 90.5929 15.732
935 2 55.075 90.235 15.7576
936 2 58.8327 90.5482 16.1142
937 2 62.8267 90.5155 0.0799187
938 2 66.8917 90.4163 16.0339
939 2 70.6685 90.433 16.0523
940 2 74.6262 90.2901 15.8713
941 2 78.7434 90.2929 0.175288
942 2 82.9882 90.6964 0.0945163
943 2 86.6114 90.5554 15.8837
944 2 90.7005 90.5975 0.237993
945 2 94.8943 90.6443 0.341641
946 2 98.8896 90.7632 0.320288
947 2 102.848 90.6723 0.00212186
948 2 106.901 90.6648 0.0717529
949 2 110.803 90.7671 16.1158
950 2 114.902 91.0513 0.0619298
951 2 118.906 90.9868 0.178894
952 2 122.975 91.0132 0.115008
953 2 126.677 91.1391 0.270053
954 2 130.838 90.8689 15.917
955 2 134.773 91.0188 0.181333
956 2 138.782 91.2769 0.216464
957 2 142.735 91.0555 0.041527
958 2 146.887 91.1758 0.241741
959 2 150.865 91.2677 16.05
960 2 154.852 91.0668 0.270084
961 2 0.561231 95.1843 15.9644
962 2 4.19085 94.9911 15.8334
963 2 8.27222 94.9652 0.2993
964 2 12.1171 94.8524 15.8344
965 2 16.1063 94.8505 15.9525
966 2 20.0065 94.9381 16.0062
967 2 23.9051 94.755 15.795
968 2 27.7263 94.7551 15.9542
969 2 31.7338 94.7039 15.9229
970 2 35.4467 94.8106 0.193408
971 2 39.5535 94.6724 15.98
972 2 43.2644 94.7405 15.8035
973 2 47.3439 94.5799 15.7222
974 2 51.2179 94.516 -0.096877
975 2 55.2397 94.373 15.8968
976 2 59.0012 94.3497 15.8438
977 2 63.0557 94.2939 15.882
978 2 66.835 94.2232 0.0583317