ITEM: TIMESTEP
17500
ITEM: NUMBER OF ATOMS
32000
ITEM: BOX BOUNDS xy xz yz pp pp pp
0.0000000000000000e+00 1.5831999999999999e+02 0.0000000000000000e+00
0.0000000000000000e+00 1.5831999999999999e+02 0.0000000000000000e+00
1.6645914910593351e-01 1.5931252850893864e+01 0.0000000000000000e+00
ITEM: ATOMS id type x y z
1 2 158.269 157.981 15.9346
2 2 3.81261 157.839 0.277219
3 2 7.86581 158.141 0.250279
4 2 12.1735 158.079 15.8371
5 2 15.8771 158.157 0.378104
6 2 19.8435 158.163 0.0375919
7 2 23.9244 158.172 15.9351
8 2 27.9963 158.157 0.255285
9 2 32.0367 158.085 15.8211
10 2 36.1448 158.158 0.119071
11 2 39.9246 158.134 0.185746
12 2 43.8466 158.117 15.9177
13 2 47.9215 -0.0886572 15.9275
14 2 51.9457 -0.0481857 15.8235
15 2 55.8015 158.319 15.9567
16 2 59.8753 0.200215 15.7975
17 2 63.8851 0.0793109 0.136942
18 2 67.6538 0.00120952 0.219423
19 2 71.6917 158.298 15.964
20 2 75.4997 158.314 15.8662
21 2 79.3203 158.243 16.0859
22 2 83.2989 158.135 0.00689663
23 2 87.3262 158.1 0.231113
24 2 91.4165 158.156 0.0690425
25 2 95.1719 157.942 0.108051
26 2 98.8863 157.967 -0.0468296
27 2 102.772 158.031 0.22292
28 2 106.88 157.946 15.9651
29 2 110.703 157.815 0.0951521
30 2 114.565 157.976 0.0233905
31 2 118.289 158.013 -0.108511
32 2 122.331 157.748 15.8576
33 2 126.329 157.633 15.8318
34 2 130.397 157.843 15.7714
35 2 134.17 157.614 15.8083
36 2 138.244 157.644 16.0382
37 2 142.286 157.773 15.7767
38 2 146.209 157.972 15.7569
39 2 150.217 157.93 16.0099
40 2 154.178 157.686 15.941
41 2 158.213 3.3632 0.250986
42 2 3.89942 3.60761 16.0168
43 2 7.88148 3.3873 0.0721873
44 2 11.8479 3.69218 0.235753
45 2 15.6991 3.65098 0.222656
46 2 20.0123 3.72474 15.919
47 2 23.8902 3.74574 0.246604
48 2 27.8732 3.80563 0.2998
49 2 31.8825 3.63813 0.162294
50 2 35.971 3.83799 0.17182
51 2 39.8098 3.8931 0.168725
52 2 43.8172 3.85249 0.0260268
53 2 47.9811 4.01479 15.8025
54 2 51.8202 3.87883 0.0602047
55 2 55.7559 4.04735 0.0252995
56 2 59.9191 4.05433 0.0408772
57 2 63.8248 4.17829 15.9837
58 2 67.7879 3.98673 0.13365
59 2 71.4941 3.88322 0.237283
60 2 75.4604 3.99715 -0.0359923
61 2 79.3465 4.03649 0.10524
62 2 83.3222 3.97696 0.0842402
63 2 87.2131 3.83451 0.241867
64 2 91.1059 3.8472 0.182071
65 2 95.148 3.73681 15.8152
66 2 99.0215 3.65984 0.0404602
67 2 102.888 3.63957 0.258167
68 2 106.851 3.64869 15.9551
69 2 110.801 3.58541 15.8274
70 2 114.595 3.50903 15.8612
71 2 118.367 3.73967 15.7833
72 2 122.502 3.61815 0.155851
73 2 126.252 3.41346 15.8118
74 2 130.117 3.42519 0.273465
75 2 134.342 3.53754 16.0122
76 2 138.183 3.30339 0.202537
77 2 141.989 3.30701 15.6271
78 2 146.078 3.21896 0.0672065
79 2 150.163 3.41222 15.9058
80 2 154.032 3.46952 15.9763
81 2 158.19 7.54143 0.286964
82 2 3.96648 7.32551 16.0788
83 2 7.836 7.55076 15.9348
84 2 11.805 7.70941 15.9323
85 2 15.7766 7.68845 0.16812
86 2 19.7454 7.57978 15.8775
87 2 23.887 7.62737 0.12167
88 2 27.6556 7.70537 0.0363653
89 2 31.7876 7.51525 15.8779
90 2 35.7719 7.79821 15.9068
91 2 39.7258 7.92865 15.6886
92 2 43.8247 7.80917 15.8656
93 2 47.8058 8.01593 -0.0813711
94 2 51.658 7.98441 15.8846
95 2 55.7635 7.98674 0.347751
96 2 59.8587 7.9911 0.152314
97 2 63.6772 8.19849 0.177145
98 2 67.7047 8.06052 0.159057
99 2 71.749 8.02787 0.0406872
100 2 75.5298 7.83632 0.145819
101 2 79.3162 8.08704 15.9839
102 2 83.3973 7.82285 0.125997
103 2 87.2452 7.89414 15.9861
104 2 91.2924 7.8015 0.361156
105 2 95.2295 7.75092 0.244675
106 2 98.9005 7.66081 0.31338
107 2 102.806 7.75368 0.206154
108 2 106.835 7.57651 0.0548646
109 2 110.688 7.58806 0.000671808
110 2 114.541 7.56236 0.00795619
111 2 118.703 7.53108 0.0987314
112 2 122.449 7.60463 -0.0566174
113 2 126.558 7.72554 16.0234
114 2 130.301 7.35362 0.216558
115 2 134.145 7.33913 0.212599
116 2 138.17 7.25636 15.9635
117 2 141.944 7.1221 15.9456
118 2 146.104 7.07538 0.000191375
119 2 150.073 7.10622 15.6013
120 2 154.244 7.36605 15.8318
121 2 157.981 11.4971 0.0162292
122 2 3.73064 11.4691 0.056066
123 2 7.603 11.3795 15.8897
124 2 11.7939 11.4593 15.9682
125 2 15.7868 11.4518 15.936
126 2 19.7224 11.5821 0.0581745
127 2 23.7989 11.5796 0.171314
128 2 27.7683 11.5511 0.10904
129 2 31.7591 11.6826 0.289028
130 2 35.6425 11.7261 0.0946786
131 2 39.779 11.8372 0.233879
132 2 43.5926 11.4925 15.8999
133 2 47.8028 11.8453 15.9069
134 2 51.6296 11.7632 15.7493
135 2 55.689 11.978 0.13193
136 2 59.5649 11.9417 15.9407
137 2 63.7229 12.0572 0.143408
138 2 67.6215 12.1406 16.086
139 2 71.4983 11.9172 0.163827
140 2 75.6753 12.0039 0.0209336
141 2 79.4599 11.8726 -0.0342911
142 2 83.3734 11.8694 0.0203803
143 2 87.4105 11.7897 0.132452
144 2 91.3053 11.751 -0.0666318
145 2 95.1283 11.7964 0.154089
146 2 98.8804 11.6867 0.117507
147 2 103.009 11.6324 0.267943
148 2 106.907 11.6493 0.231893
149 2 110.797 11.4225 0.103191
150 2 114.519 11.5701 0.297978
151 2 118.623 11.525 0.135305
152 2 122.661 11.4659 0.0987631
153 2 126.679 11.2106 0.190061
154 2 130.48 11.2257 15.9349
155 2 134.116 11.2138 0.17809
156 2 137.98 11.3227 0.152352
157 2 142.12 11.1484 15.9405
158 2 146.019 11.1084 15.9177
159 2 149.945 11.1374 15.7672
160 2 153.954 10.9792 15.6007
161 2 157.921 15.1858 0.0988065
162 2 3.83799 15.4311 0.283804
163 2 7.72662 15.4409 0.154981
164 2 11.7902 15.3198 15.7856
165 2 15.8338 15.5171 16.0271
166 2 19.942 15.3649 0.124723
167 2 23.8111 15.6064 0.0153016
168 2 27.5987 15.2916 15.94
169 2 31.869 15.3918 15.8678
170 2 35.6608 15.5567 0.371643
171 2 39.5844 15.7933 15.8446
172 2 43.6635 15.7256 0.146765
173 2 47.5767 15.8868 0.304296
174 2 51.6515 15.6595 0.0593841
175 2 55.4016 15.839 15.8264
176 2 59.5826 15.8711 0.166233
177 2 63.6626 15.9553 -0.0102868
178 2 67.5631 16.0424 0.119708
179 2 71.6404 15.887 0.0612731
180 2 75.4473 16.1008 15.9069
181 2 79.3931 15.9907 0.20698
182 2 83.3456 15.9488 -0.0695137
183 2 87.2301 15.8602 0.107745
184 2 91.2216 15.7616 0.321956
185 2 95.0522 15.792 0.293968
186 2 99.1341 15.8133 0.371364
187 2 103.102 15.7031 0.235267
188 2 106.912 15.9659 0.243643
189 2 110.872 15.6479 0.103554
190 2 114.769 15.6148 0.0936937
191 2 118.524 15.5493 0.294321
192 2 122.661 15.3638 16.007
193 2 126.555 15.3011 0.269511
194 2 130.537 15.3532 0.268068
195 2 134.21 15.2527 0.0691071
196 2 138.161 15.314 0.0110031
197 2 142.248 15.0713 -0.0497292
198 2 146.162 15.1191 0.168167
199 2 150.244 15.3318 15.6927
200 2 153.908 14.9878 0.198279
201 2 157.835 19.2887 16.0145
202 2 3.64485 19.1584 0.294312
203 2 7.56105 19.3702 15.9796
204 2 11.6186 19.2726 16.1127
205 2 15.5154 19.339 15.8039
206 2 19.7083 19.3388 0.296672
207 2 23.6197 19.4976 0.153638
208 2 27.5465 19.2936 0.203038
209 2 31.7355 19.3231 16.211
210 2 35.6405 19.3161 15.9942
211 2 39.6593 19.5483 0.148386
212 2 43.5712 19.7625 16.1252
213 2 47.7118 19.5609 16.0117
214 2 51.6307 19.7614 15.9675
215 2 55.5236 19.615 15.8758
216 2 59.6696 19.7455 15.8581
217 2 63.7018 19.8703 15.8479
218 2 67.4549 19.902 15.8909
219 2 71.5889 20.0196 0.292476
220 2 75.6053 19.9522 0.215397
221 2 79.6322 20.0142 0.0781856
222 2 83.3561 19.987 0.0399857
223 2 87.2879 19.7447 15.7966
224 2 91.2969 19.8327 -0.139289
225 2 95.0896 19.9225 -0.0605639
226 2 99.0909 19.9098 15.8875
227 2 103.032 19.7651 15.7454
228 2 107.098 19.8466 15.9787
229 2 110.971 19.64 0.120166
230 2 114.783 19.5145 0.233291
231 2 118.676 19.6463 15.8957
232 2 122.523 19.4469 0.204736
233 2 126.549 19.3176 0.0526462
234 2 130.47 19.3488 0.100796
235 2 134.28 19.4759 15.9645
236 2 138.394 19.3016 15.7146
237 2 142.13 19.0834 0.101584
238 2 146.073 19.0805 0.28341
239 2 149.93 19.2631 0.191004
240 2 154.025 19.174 16.0586
241 2 157.855 23.0546 15.9742
242 2 3.49433 23.1263 15.8371
243 2 7.70968 22.9985 0.227254
244 2 11.4769 23.2136 16.0057
245 2 15.4368 23.0251 15.8452
246 2 19.4912 23.347 0.257133
247 2 23.4055 23.333 16.1324
248 2 27.4882 23.364 15.7413
249 2 31.5892 23.354 0.347585
250 2 35.6614 23.382 15.9248
251 2 39.5633 23.3715 0.135492
252 2 43.5251 23.4953 15.8711
253 2 47.5782 23.7016 15.8575
254 2 51.6403 23.5882 0.105762
255 2 55.4798 23.7091 16.109
256 2 59.3602 23.5337 15.9988
257 2 63.3909 23.8115 16.0532
258 2 67.4004 23.8577 0.188126
259 2 71.4316 23.7717 0.294893
260 2 75.3534 23.7226 0.177272
261 2 79.6099 23.845 15.9936
262 2 83.4634 23.8513 15.9302
263 2 87.3273 23.9202 -0.168652
264 2 91.2857 24.0192 16.0303
265 2 95.2061 24.002 15.7276
266 2 99.0107 23.7379 -0.0430795
267 2 102.953 23.8877 -0.151963
268 2 106.983 23.5348 0.110263
269 2 110.906 23.7771 0.17682
270 2 114.693 23.611 15.7488
271 2 118.659 23.4517 15.9436
272 2 122.793 23.5484 0.227421
273 2 126.524 23.2337 0.248614
274 2 130.295 23.1595 15.9716
275 2 134.397 23.2515 0.175003
276 2 138.42 23.1243 15.9
277 2 142.302 23.1037 0.227544
278 2 146.229 23.1571 0.0713401
279 2 150.036 23.0878 0.180973
280 2 153.963 22.8887 0.127372
281 2 157.929 27.1201 0.355861
282 2 3.67918 26.9827 15.8978
283 2 7.50217 26.9628 0.172435
284 2 11.5599 27.2872 15.9231
285 2 15.5054 27.1539 15.8751
286 2 19.497 27.1579 0.328623
287 2 23.4819 27.2684 0.241535
288 2 27.5248 27.1674 0.150866
289 2 31.4302 27.2823 16.142
290 2 35.4616 27.3603 0.0242169
291 2 39.2866 27.366 0.131801
292 2 43.5026 27.3468 16.0024
293 2 47.5125 27.5686 0.152545
294 2 51.5267 27.5425 0.19013
295 2 55.4321 27.5822 0.298416
296 2 59.4206 27.5473 0.195127
297 2 63.4072 27.4884 0.134568
298 2 67.3313 27.822 0.242089
299 2 71.3419 27.5252 0.18561
300 2 75.2746 27.4627 16.0332
301 2 79.3676 27.6554 0.271294
302 2 83.4327 27.9079 16.0727
303 2 87.4306 28.0264 0.200987
304 2 91.3656 27.8324 16.059
305 2 95.4176 27.8682 15.7574
306 2 99.0912 27.8248 0.0728829
307 2 102.918 27.6365 0.133902
308 2 107.077 27.6966 15.8851
309 2 110.964 27.6054 0.294872
310 2 114.751 27.6352 15.8704
311 2 118.641 27.4098 16.0364
312 2 122.62 27.4859 0.115582
313 2 126.467 27.4527 0.280186
314 2 130.375 27.2118 0.127768
315 2 134.354 27.3108 16.0184
316 2 138.313 27.3298 -0.0323166
317 2 142.304 27.1891 0.323719
318 2 146.26 27.1756 0.0638185
319 2 150.042 27.1193 0.0123376
320 2 154.043 27.1509 15.9745
321 2 157.936 31.0686 15.9155
322 2 3.6252 30.8819 0.134561
323 2 7.54007 31.1115 0.14991
324 2 11.4484 31.0173 16.1202
325 2 15.4062 31.1188 -0.0615062
326 2 19.5555 31.0817 15.8716
327 2 23.4428 30.9255 16.0232
328 2 27.5067 31.0057 0.119288
329 2 31.4455 31.3133 0.170144
330 2 35.5169 31.1726 15.8482
331 2 39.4213 31.1254 15.9531
332 2 43.5065 31.241 0.0525726
333 2 47.4223 31.4459 15.835
334 2 51.2454 31.5168 16.0606
335 2 55.2882 31.4667 0.195804
336 2 59.1966 31.4788 0.349951
337 2 63.3124 31.4179 15.8621
338 2 67.3199 31.5516 0.171651
339 2 71.2066 31.5049 15.917
340 2 75.379 31.6344 0.186864
341 2 79.2247 31.7319 0.283264
342 2 83.3089 31.5446 15.8902
343 2 87.362 31.6999 0.228657
344 2 91.3454 31.7309 0.268745
345 2 95.2469 31.799 -0.0205883
346 2 99.058 31.8548 0.103448
347 2 103.196 31.6375 15.8209
348 2 107.208 31.665 0.217099
349 2 110.989 31.5316 15.7522
350 2 114.895 31.5537 0.151083
351 2 118.795 31.5872 15.7829
352 2 122.581 31.4872 0.1904
353 2 126.706 31.3513 0.284259
354 2 130.556 31.3339 0.15845
355 2 134.453 31.3202 -0.00556258
356 2 138.54 31.2374 15.8791
357 2 142.401 31.337 15.9145
358 2 146.333 31.2825 16.2181
359 2 150.145 31.1732 16.025
360 2 153.912 30.9083 15.869
361 2 157.925 34.9069 15.9852
362 2 3.57735 34.8375 0.253725
363 2 7.47113 34.8501 0.175955
364 2 11.4409 34.8575 15.7834
365 2 15.4233 35.0714 -0.0174998
366 2 19.3612 34.9435 15.8776
367 2 23.291 34.877 15.7297
368 2 27.4523 35.1979 0.238384
369 2 31.3293 35.0238 0.194345
370 2 35.4681 35.2337 15.9954
371 2 39.3927 35.2477 0.321365
372 2 43.2153 35.0451 15.7257
373 2 47.2145 35.5384 16.041
374 2 51.272 35.2454 0.157656
375 2 55.3019 35.4598 16.1038
376 2 59.2108 35.3864 0.0147567
377 2 63.51 35.4664 -0.0111213
378 2 67.3243 35.5002 0.114826
379 2 71.3255 35.625 0.145307
380 2 75.2897 35.561 15.8458
381 2 79.182 35.4801 15.9624
382 2 83.3204 35.4828 0.148953
383 2 87.3463 35.5165 0.247457
384 2 91.2831 35.8991 16.1332
385 2 95.4455 35.7125 16.0294
386 2 99.2371 36.0127 0.411635
387 2 103.028 35.7026 15.7109
388 2 107.229 35.7448 0.191626
389 2 111.08 35.5908 16.0573
390 2 115.065 35.6104 0.321783
391 2 118.933 35.4815 16.0021
392 2 122.63 35.4239 15.9289
393 2 126.718 35.4728 0.270051
394 2 130.477 35.3146 0.0646646
395 2 134.629 35.2575 16.0474
396 2 138.522 35.404 16.1807
397 2 142.371 35.2576 15.9599
398 2 146.3 35.1951 16.1902
399 2 150.139 35.0871 0.136744
400 2 153.947 34.9595 0.215713
401 2 158.044 38.8989 0.24633
402 2 3.46516 38.8973 16.0344
403 2 7.40865 38.7757 15.749
404 2 11.4734 38.9575 0.227565
405 2 15.4359 38.9072 0.161302
406 2 19.4782 38.9464 15.8647
407 2 23.3629 38.6986 15.8695
408 2 27.2185 38.8856 0.0552422
409 2 31.2526 38.9533 15.9957
410 2 35.0889 38.9032 -0.0215927
411 2 39.3701 39.1184 0.262501
412 2 43.4759 39.1892 0.172398
413 2 47.244 39.3095 0.101451
414 2 51.2472 39.356 0.16759
415 2 55.4256 39.3748 0.0101254
416 2 59.3623 39.295 0.132606
417 2 63.3073 39.2839 15.9157
418 2 67.2544 39.209 0.0273314
419 2 71.1321 39.4176 0.162244
420 2 75.3726 39.4725 0.0563624
421 2 79.3194 39.6756 16.0494
422 2 83.1715 39.4237 15.8178
423 2 87.1597 39.5753 15.8994
424 2 91.2717 39.7636 15.9243
425 2 95.3926 39.7482 15.7405
426 2 99.3266 39.6497 0.158658
427 2 103.3 39.8464 0.0620497
428 2 107.169 39.7007 15.9688
429 2 111.009 39.6523 16.061
430 2 115.025 39.4802 16.0278
431 2 118.937 39.5061 15.9738
432 2 122.685 39.4071 0.245216
433 2 126.688 39.4514 15.7861
434 2 130.727 39.253 0.176761
435 2 134.591 39.416 0.346951
436 2 138.421 39.2008 15.9711
437 2 142.52 39.1032 15.9434
438 2 146.374 39.2696 0.177252
439 2 150.331 39.1828 15.8765
440 2 154.252 39.0418 0.293827
441 2 158.294 42.995 0.226724
442 2 3.67794 42.9093 0.303046
443 2 7.79054 42.8933 0.146205
444 2 11.6521 42.7733 0.249466
445 2 15.4666 43.079 0.124889
446 2 19.4506 42.957 15.9652
447 2 23.1725 42.8628 0.398809
448 2 27.0335 43.0646 -0.0079342
449 2 31.0115 42.9159 0.241772
450 2 35.0835 42.9811 0.00518287
451 2 39.339 43.0097 0.192857
452 2 43.2356 43.1331 0.115512
453 2 47.057 43.1027 0.300096
454 2 51.0891 43.17 0.394611
455 2 55.2985 43.2524 0.142368
456 2 59.2469 43.2067 0.191153
457 2 63.3492 43.3803 0.0833957
458 2 67.2771 43.3684 16.0113
459 2 71.2676 43.2035 15.7043
460 2 75.4519 43.6204 0.284446
461 2 79.3342 43.4301 0.157737
462 2 83.3438 43.5009 15.9947
463 2 87.125 43.5718 15.9182
464 2 91.1738 43.396 15.769
465 2 95.2686 43.7407 0.0970907
466 2 99.3044 43.741 0.263632
467 2 103.154 43.862 0.149084
468 2 107.268 43.6557 0.103569
469 2 111.18 43.6605 15.8858
470 2 115.055 43.5396 16.0026
471 2 119.067 43.4725 0.34646
472 2 122.848 43.2943 0.204737
473 2 126.844 43.4026 0.17365
474 2 130.606 43.4423 0.228565
475 2 134.63 43.2858 16.1546
476 2 138.558 43.2461 15.9896
477 2 142.308 43.2981 16.0769
478 2 146.453 43.1432 15.9003
479 2 150.241 43.2215 0.236853
480 2 154.074 43.0198 15.9371
481 2 158.164 47.0685 15.9411
482 2 3.90959 47.0012 16.0326
483 2 7.71693 46.8515 15.8593
484 2 11.6716 46.8372 16.0059
485 2 15.4572 46.9493 0.13808
486 2 19.4765 46.818 16.0765
487 2 23.2895 46.8829 0.130622
488 2 27.1315 46.7257 0.113669
489 2 31.2164 46.9788 0.182017
490 2 35.0056 46.8607 0.311344
491 2 39.2421 46.9838 0.231638
492 2 43.3208 46.9463 0.0710412
493 2 47.4157 46.9972 16.0561
494 2 51.1611 47.2527 16.1974
495 2 55.1834 47.0259 0.110457
496 2 59.2032 47.2581 15.6453
497 2 63.2634 47.2629 0.19823
498 2 67.223 47.2324 0.115005
499 2 71.1634 47.1385 -0.029248
500 2 75.3891 47.4018 16.1211
501 2 79.3593 47.3674 16.047
502 2 83.2267 47.3193 0.293071
503 2 87.2173 47.4007 0.321979
504 2 91.321 47.5348 15.7682
505 2 95.263 47.3853 0.151933
506 2 99.4052 47.6765 0.0497302
507 2 103.116 47.6638 15.8919
508 2 107.261 47.5393 0.285291
509 2 111.284 47.5542 15.9046
510 2 115.267 47.5028 15.9839
511 2 119.064 47.4991 0.106032
512 2 122.943 47.3295 0.278748
513 2 126.897 47.2734 0.107039
514 2 130.839 47.2774 0.349919
515 2 134.778 47.2199 16.0335
516 2 138.634 47.2083 0.19803
517 2 142.639 47.1782 15.9404
518 2 146.225 47.1904 -0.0382006
519 2 150.177 47.1026 16.129
520 2 154.37 47.0579 0.272903
521 2 158.153 51.1254 0.0748147
522 2 4.00294 50.95 0.179875
523 2 7.62396 51.0878 0.136479
524 2 11.6925 51.0653 16.1906
525 2 15.6991 50.8795 0.292597
526 2 19.2893 50.895 0.245011
527 2 23.3438 50.9969 0.175272
528 2 27.3445 50.8632 15.7872
529 2 31.2065 50.7852 15.9421
530 2 35.123 50.7718 0.27831
531 2 39.0806 50.9594 15.9393
532 2 43.3027 50.9312 0.0835499
533 2 47.019 51.1029 0.0888989
534 2 51.2723 51.0249 15.9359
535 2 55.0687 51.1211 15.9035
536 2 59.0933 51.0898 15.9687
537 2 63.2885 51.0315 0.19944
538 2 67.3021 51.1197 0.268783
539 2 71.291 51.2754 15.9903
540 2 75.1392 51.3759 0.245313
541 2 79.2608 51.4408 16.0031
542 2 83.1224 51.2624 15.8726
543 2 87.1359 51.323 15.9416
544 2 91.1799 51.4066 0.139752
545 2 95.1357 51.3419 -0.0249357
546 2 99.3147 51.5339 15.5845
547 2 103.287 51.4757 0.0118743
548 2 107.108 51.4899 16.0113
549 2 111.39 51.4733 0.229986
550 2 115.327 51.4927 0.264731
551 2 119.166 51.6703 0.277059
552 2 122.917 51.3681 0.177237
553 2 126.877 51.221 16.048
554 2 131.067 51.1516 0.0988248
555 2 134.857 51.2554 15.868
556 2 138.652 51.1875 -0.0397565
557 2 142.506 51.206 15.8628
558 2 146.563 51.2844 15.9695
559 2 150.442 51.2384 0.175071
560 2 154.39 51.0046 -0.0270481
561 2 158.32 55.0903 0.111768
562 2 4.0261 55.0891 0.225163
563 2 7.79926 55.1634 0.212857
564 2 11.6421 54.9116 15.9385
565 2 15.6531 54.9766 16.083
566 2 19.7155 54.9832 15.9442
567 2 23.4548 55.0014 15.8546
568 2 27.4181 54.8617 15.8857
569 2 31.4054 54.7374 0.176151
570 2 35.3797 54.8743 15.8434
571 2 39.2652 54.8627 0.273119
572 2 43.159 54.904 15.817
573 2 47.1982 55.0116 15.8649
574 2 51.17 55.0147 15.7921
575 2 55.113 54.8523 0.211078
576 2 59.0972 54.8879 0.150257
577 2 62.7806 54.766 15.906
578 2 67.0768 55.1156 0.128926
579 2 70.9267 55.19 15.7808
580 2 75.1758 55.1666 15.7071
581 2 79.1695 55.3217 16.0351
582 2 83.2109 55.2751 15.8921
583 2 87.155 55.3382 0.31677
584 2 91.0875 55.4687 0.336858
585 2 95.1417 55.4442 0.0942682
586 2 99.1122 55.4351 15.7861
587 2 103.184 55.4902 0.017615
588 2 107.166 55.3606 0.189406
589 2 111.113 55.572 15.8
590 2 115.209 55.4078 0.0790164
591 2 119.257 55.3896 0.255168
592 2 123.062 55.2861 0.154657
593 2 127.038 55.4178 15.9243
594 2 130.727 55.212 15.8687
595 2 134.577 55.2805 15.89
596 2 138.603 55.1623 0.194955
597 2 142.633 55.2751 -0.0806836
598 2 146.515 55.2211 15.8923
599 2 150.476 55.1394 15.805
600 2 154.488 55.1217 0.111373
601 2 0.0750957 59.0587 -0.0837628
602 2 3.97927 59.1824 0.0988228
603 2 7.83265 59.0009 0.0658786
604 2 11.7152 59.0005 16.0517
605 2 15.7603 59.0831 0.224209
606 2 19.5159 58.8618 15.8619
607 2 23.5347 58.9435 15.9702
608 2 27.4673 58.7392 0.202753
609 2 31.3645 58.7241 15.8591
610 2 35.2908 58.9072 0.320087
611 2 39.1197 58.9314 0.356206
612 2 43.1707 58.7695 15.9915
613 2 47.2179 58.73 0.206246
614 2 51.1053 59.0183 15.8632
615 2 55.0308 58.8049 15.8765
616 2 59.0027 58.989 15.6897
617 2 62.9614 58.8715 0.0714039
618 2 67.068 58.8506 15.9323
619 2 71.1397 59.0774 0.227524
620 2 75.0674 59.0832 0.120527
621 2 78.9479 59.101 15.8248
622 2 82.9407 59.1602 15.849
623 2 87.0138 59.2833 0.22227
624 2 91.0971 59.3229 0.137758
625 2 95.2166 59.2632 0.040936
626 2 99.131 59.4051 15.9717
627 2 103.233 59.3975 0.0397833
628 2 107.104 59.1063 0.211291
629 2 111.206 59.2636 0.0284531
630 2 115.35 59.5163 0.162041
631 2 119.304 59.3339 0.1193
632 2 123.198 59.1932 0.173487
633 2 127.269 59.3429 0.211585
634 2 130.969 59.2694 15.9457
635 2 134.976 59.5117 -0.0628454
636 2 138.858 59.3431 0.0405298
637 2 142.672 59.1816 15.7864
638 2 146.479 59.2811 -0.0963856
639 2 150.403 59.1751 0.113814
640 2 154.491 59.1235 0.0522331
641 2 0.0587644 63.0522 15.8371
642 2 3.87075 63.0316 15.9142
643 2 7.98124 62.94 0.174554
644 2 11.7987 62.9345 0.0910415
645 2 15.6961 62.8118 15.9787
646 2 19.3854 63.0313 15.9014
647 2 23.3794 62.9105 16.0447
648 2 27.4774 62.8158 0.107446
649 2 31.4393 62.9696 15.9402
650 2 35.229 62.7236 15.953
651 2 39.2812 62.739 -0.00154161
652 2 43.0334 62.6544 0.150711
653 2 46.9651 62.7303 16.0025
654 2 51.2511 62.6132 0.35147
655 2 55.2577 62.8662 0.274761
656 2 59.127 62.7602 0.255336
657 2 63.0278 62.9496 0.173714
658 2 67.0014 63.0053 0.115422
659 2 71.0981 63.0039 0.184553
660 2 75.128 63.1535 15.926
661 2 78.9016 63.0642 16.045
662 2 82.9246 62.829 15.8181
663 2 87.137 63.2024 0.0861174
664 2 91.0958 63.041 15.8894
665 2 95.1207 63.1138 0.292719
666 2 99.0249 63.2142 0.13656
667 2 103.079 63.2809 0.184027
668 2 107.113 63.3575 0.131683
669 2 111.027 63.1737 -0.0513292
670 2 115.174 63.2937 0.0283661
671 2 119.102 63.3623 15.9062
672 2 123.368 63.1755 15.7703
673 2 127.297 63.2831 16.0234
674 2 131.199 63.2186 0.177931
675 2 134.994 63.4191 16.0212
676 2 138.975 63.5276 0.173871
677 2 142.757 63.2259 0.260493
678 2 146.606 63.4392 0.0188556
679 2 150.726 63.0045 15.7454
680 2 154.518 63.2622 15.8233
681 2 -0.105507 67.2398 0.321081
682 2 3.96555 67.0873 0.0483588
683 2 7.86883 67.1419 0.20441
684 2 11.8937 66.8813 15.9052
685 2 15.8632 66.9466 15.977
686 2 19.6737 66.966 15.9002
687 2 23.37 66.846 15.9206
688 2 27.5176 66.8725 15.8395
689 2 31.4568 66.8189 0.183355
690 2 35.2957 66.7112 0.0886856
691 2 39.3558 66.7111 0.0752357
692 2 43.1206 66.5433 15.8988
693 2 47.0015 66.6856 0.0340571
694 2 51.2142 66.7416 15.9181
695 2 55.0638 66.7125 16.1096
696 2 59.1968 66.6385 15.8761
697 2 62.9201 66.7199 15.828
698 2 67.0659 66.8713 15.8185
699 2 71.0282 66.9909 0.149908
700 2 74.968 66.8808 0.254319
701 2 79.1795 66.8568 15.9183
702 2 82.9574 66.8707 15.9465
703 2 86.8835 66.8728 15.8599
704 2 91.2213 66.9581 0.134593
705 2 95.2081 67.0168 15.8336
706 2 98.9699 67.0898 15.8129
707 2 103.082 67.225 0.0160421
708 2 107.142 67.2217 15.9702
709 2 111.134 67.1584 0.254124
710 2 115.248 67.2458 0.267327
711 2 119.164 67.2005 0.0870368
712 2 123.302 67.3593 15.9645
713 2 127.073 67.2523 15.8299
714 2 130.966 67.3601 16.0494
715 2 134.968 67.3949 16.0186
716 2 138.66 67.4839 15.8774
717 2 143.002 67.5186 15.831
718 2 146.843 67.461 0.109474
719 2 150.398 67.139 15.7254
720 2 154.515 67.2973 15.9738
721 2 0.0701133 71.1783 16.0335
722 2 3.92822 71.0772 15.8561
723 2 8.03253 71.1792 0.268164
724 2 12.0485 71.0102 15.9246
725 2 16.0369 70.9955 15.8913
726 2 19.916 71.0936 0.0456446
727 2 23.7034 71.0402 15.9984
728 2 27.4403 71.0051 15.9708
729 2 31.3498 70.8967 16.0438
730 2 35.3181 70.9522 16.1224
731 2 39.2971 70.7964 16.1127
732 2 43.2344 70.6533 0.0876835
733 2 47.1121 70.6631 16.2459
734 2 50.9809 70.7518 16.0272
735 2 55.0618 70.567 15.988
736 2 59.111 70.5696 0.21428
737 2 63.1256 70.854 16.0193
738 2 67.0945 70.9059 0.271044
739 2 70.9795 70.8729 15.9459
740 2 75.0382 70.9099 16.0305
741 2 78.931 70.9296 15.8999
742 2 83.0449 70.9303 0.251762
743 2 86.9885 70.8435 15.9488
744 2 90.9022 70.7285 0.435806
745 2 94.859 70.8903 0.196983
746 2 99.1436 70.9048 15.7466
747 2 102.9 71.1214 0.0656699
748 2 107.21 71.0968 0.0878066
749 2 111.212 71.013 15.9357
750 2 115.262 71.2137 -0.0447467
751 2 119.153 71.0564 15.7964
752 2 123.221 71.2837 0.168091
753 2 127.308 71.4745 16.0123
754 2 131.189 71.3952 15.9901
755 2 135.252 71.2676 15.803
756 2 139.03 71.4538 15.846
757 2 142.856 71.1544 15.8592
758 2 146.947 71.2011 15.9947
759 2 150.623 71.3257 15.7828
760 2 154.414 71.0062 15.903
761 2 0.280449 75.0852 16.0439
762 2 3.9713 75.0875 16.1072
763 2 7.96368 75.0854 16.0298
764 2 11.7965 74.9688 15.9121
765 2 16.0984 75.0081 15.8587
766 2 19.808 75.0687 15.8144
767 2 23.6704 75.0028 16.117
768 2 27.5921 74.9728 15.9304
769 2 31.4961 74.7768 0.123512
770 2 35.2286 74.9248 16.1285
771 2 39.2846 74.8122 15.8313
772 2 43.2309 74.6071 0.273666
773 2 47.0522 74.7813 15.9906
774 2 51.2561 74.7698 0.322142
775 2 54.9791 74.698 15.7478
776 2 58.9902 74.5581 15.9708
777 2 63.0548 74.7318 15.8208
778 2 66.8571 74.5673 15.7997
779 2 70.6597 74.8101 15.9032
780 2 74.9264 74.6326 0.193278
781 2 78.9994 74.6833 15.8074
782 2 83.1162 74.8748 15.8001
783 2 86.9209 74.8968 15.727
784 2 90.9186 74.7696 0.191967
785 2 94.8293 74.8274 15.9798
786 2 98.889 75.0337 0.0181647
787 2 103.114 74.6883 15.8844
788 2 107.15 74.8986 0.208418
789 2 111.067 74.9656 15.9821
790 2 115.274 74.8591 0.244828
791 2 119.266 75.0992 15.9487
792 2 122.989 74.9438 15.9483
793 2 127.125 75.3219 0.334411
794 2 131.051 75.2908 0.278024
795 2 135.248 75.3488 15.7743
796 2 138.994 75.3441 15.7906
797 2 143.065 75.3028 0.20642
798 2 146.976 75.181 15.9051
799 2 150.706 75.2629 15.8262
800 2 154.576 75.1531 -0.0278675
801 2 0.231116 79.0076 15.8929
802 2 4.15334 78.9732 15.9493
803 2 8.17651 79.0427 15.9349
804 2 11.9458 78.9682 16.0104
805 2 15.9365 78.9852 15.8748
806 2 19.8867 79.0946 15.8218
807 2 23.6247 78.9278 16.1194
808 2 27.5273 78.9135 16.009
809 2 31.5957 78.7371 0.291582
810 2 35.3319 78.6945 15.9894
811 2 39.4338 78.6222 0.335656
812 2 43.3441 78.5371 0.270062
813 2 47.1662 78.566 0.220754
814 2 51.1497 78.5887 16.0382
815 2 54.9011 78.6184 15.7872
816 2 58.9596 78.7064 15.9455
817 2 62.9222 78.5665 15.9076
818 2 66.7473 78.4496 15.8599
819 2 70.936 78.6569 15.9575
820 2 74.9458 78.6146 15.9286
821 2 78.891 78.5958 0.0527009
822 2 82.9903 78.7791 -0.0222608
823 2 86.8841 78.5222 0.220378
824 2 91.062 78.7365 0.303682
825 2 95.1921 78.752 0.376351
826 2 98.9807 78.8352 15.8256
827 2 103.108 78.7576 0.163317
828 2 107.07 78.6586 15.8931
829 2 110.991 78.7859 0.338359
830 2 115.013 78.9514 15.9483
831 2 119.114 78.765 0.15552
832 2 123.161 79.0725 0.202099
833 2 127.103 79.3141 15.8945
834 2 131.027 79.1749 0.0693831
835 2 135.035 79.2506 15.8045
836 2 138.995 79.3072 15.9366
837 2 143.111 79.2861 15.9103
838 2 146.775 79.2282 16.0015
839 2 150.909 79.1425 15.8697
840 2 154.69 79.0221 15.9004
841 2 0.146235 83.2896 15.8379
842 2 4.15457 83.0837 16.1285
843 2 8.11247 82.9691 15.9212
844 2 12.1035 83.0269 16.0308
845 2 15.9063 83.173 16.0477
846 2 19.9379 82.9996 16.069
847 2 23.7311 82.9199 16.0871
848 2 27.6523 83.0004 16.139
849 2 31.7399 82.7566 15.9577
850 2 35.649 82.8378 16.1281
851 2 39.3422 82.559 0.307494
852 2 43.3539 82.7268 16.0739
853 2 47.2645 82.7143 15.9808
854 2 51.0136 82.5319 16.124
855 2 55.1175 82.5443 16.1409
856 2 59.0555 82.6921 16.0016
857 2 62.9823 82.4955 15.9387
858 2 66.7992 82.3402 0.242801
859 2 70.6621 82.5526 0.346998
860 2 75.1171 82.6504 15.8877
861 2 79.0065 82.6401 0.132832
862 2 82.934 82.6762 15.8018
863 2 87.0345 82.5757 15.8533
864 2 90.9395 82.6134 0.243607
865 2 94.8283 82.7068 16.1181
866 2 98.855 82.6996 15.9459
867 2 103.132 82.6589 0.17589
868 2 107.092 82.7556 0.145122
869 2 111.064 82.7629 15.9208
870 2 115.041 82.8112 15.9712
871 2 119.219 82.5938 0.0679259
872 2 123.155 83.1348 15.9545
873 2 127.008 82.8474 0.1607
874 2 130.962 82.9936 15.8091
875 2 134.966 83.0451 0.114509
876 2 139.051 83.1392 16.0131
877 2 143.066 83.3663 0.174903
878 2 146.963 83.4149 0.0713742
879 2 150.761 83.2954 15.9748
880 2 154.883 83.2818 16.0853
881 2 0.361941 87.3091 16.044
882 2 4.31004 86.9971 0.272269
883 2 8.14972 87.0376 16.0985
884 2 12.2556 87.1092 15.9649
885 2 16.0087 87.041 0.103504
886 2 19.9143 86.8468 16.1601
887 2 23.7285 86.9164 16.2069
888 2 27.6854 87.042 15.9632
889 2 31.6412 86.921 16.1041
890 2 35.3182 87.0958 16.0824
891 2 39.3596 86.6565 16.0049
892 2 43.2078 86.7142 15.8789
893 2 47.3798 86.7718 0.128419
894 2 51.215 86.7917 0.247209
895 2 55.0931 86.3732 0.520171
896 2 59.0289 86.5054 15.9858
897 2 62.9169 86.5642 16.0539
898 2 67.0758 86.3773 0.137285
899 2 70.797 86.1937 0.302141
900 2 74.9247 86.3645 16.0217
901 2 78.9149 86.5173 0.0638441
902 2 82.9201 86.513 0.133493
903 2 86.9202 86.3738 15.8708
904 2 91.0699 86.7371 0.243229
905 2 94.9862 86.4566 15.8983
906 2 98.9955 86.4659 15.8162
907 2 103.169 86.7435 -0.0199527
908 2 106.942 86.5921 0.0377003
909 2 110.932 86.5838 15.907
910 2 114.923 86.7278 0.251347
911 2 118.85 86.6326 0.221944
912 2 122.833 86.9873 0.314898
913 2 126.924 86.7059 15.7266
914 2 130.899 87.0303 0.0358257
915 2 134.83 87.0918 15.9186
916 2 139.115 87.1272 0.0538145
917 2 142.966 87.0428 0.329206
918 2 146.986 87.2249 0.0824254
919 2 150.929 87.4431 16.0302
920 2 154.717 87.2945 16.0666
921 2 0.450282 91.2233 15.9891
922 2 4.17783 91.2209 0.288593
923 2 8.22616 90.9971 0.142412
924 2 12.1259 90.8282 0.256393
925 2 15.9384 91.0014 15.9701
926 2 19.8772 90.9756 15.92
927 2 23.785 91.0174 16.0834
928 2 27.7238 90.9636 15.9752
929 2 31.7102 90.9828 15.9591
930 2 35.5033 90.7338 16.025
931 2 39.5586 90.6381 16.0197
932 2 43.4622 90.8596 0.190432
933 2 47.0947 90.6972 15.9625
934 2 51.1728 90.6888 16.1527
935 2 55.2173 90.3678 15.8582
936 2 58.9586 90.7003 15.9771
937 2 63.0709 90.5103 0.226288
938 2 66.9022 90.3778 16.1285
939 2 71.0723 90.3555 16.0226
940 2 74.8855 90.3912 15.7163
941 2 78.9062 90.4669 0.152467
942 2 82.9144 90.4839 0.0391118
943 2 86.9611 90.3657 16.1781
944 2 90.9398 90.6646 0.29609
945 2 95.0398 90.4209 0.246897
946 2 98.9864 90.2848 0.232201
947 2 102.899 90.5171 0.181658
948 2 106.953 90.4644 0.131792
949 2 110.999 90.428 15.9021
950 2 114.927 90.593 0.259682
951 2 118.914 90.7386 0.312557
952 2 122.887 90.7483 0.284671
953 2 126.888 90.8646 0.205601
954 2 130.875 90.9479 15.9374
955 2 135.003 91.1308 0.349131
956 2 138.936 91.0815 0.152952
957 2 142.997 90.9733 0.134746
958 2 146.949 91.266 0.0750523
959 2 150.82 91.2431 15.8717
960 2 154.953 91.3363 0.389758
961 2 0.403609 95.3352 15.948
962 2 4.404 95.0775 15.9892
963 2 8.27391 95.1202 0.404431
964 2 12.1404 95.0129 15.9287
965 2 15.9968 95.0106 16.0761
966 2 20.0556 95.1019 16.1371
967 2 23.9715 94.9872 16.0784
968 2 27.796 94.7743 15.8889
969 2 31.7176 94.8836 16.0094
970 2 35.5801 94.603 0.202511
971 2 39.5694 94.5898 15.7986
972 2 43.6048 94.785 15.9317
973 2 47.2335 94.6795 15.6963
974 2 51.2147 94.5255 0.0410323
975 2 55.247 94.2864 15.925
976 2 59.212 94.4785 16.0637
977 2 62.9774 94.4001 16.2043
978 2 66.9283 94.3668 0.251203
979 2 70.9991 94.4089 0.129382
980 2 74.744 94.3381 16.1055