ITEM: TIMESTEP
17600
ITEM: NUMBER OF ATOMS
32000
ITEM: BOX BOUNDS xy xz yz pp pp pp
0.0000000000000000e+00 1.5831999999999999e+02 0.0000000000000000e+00
0.0000000000000000e+00 1.5831999999999999e+02 0.0000000000000000e+00
1.6725139578604686e-01 1.5930460604213753e+01 0.0000000000000000e+00
ITEM: ATOMS id type x y z
1 2 158.186 157.874 16.0436
2 2 4.04458 158.061 0.0651505
3 2 8.08622 157.993 0.221284
4 2 11.7194 157.985 15.9903
5 2 15.9862 158.075 0.0486702
6 2 20.0215 157.975 0.146529
7 2 23.8816 158.228 15.8247
8 2 28.0412 158.19 0.0941952
9 2 31.8525 158.145 15.9803
10 2 35.8323 158.328 0.182549
11 2 39.8773 158.23 0.10365
12 2 43.8848 158.429 15.9433
13 2 47.8275 -0.189059 15.7942
14 2 51.9811 0.0667026 15.9275
15 2 55.9636 158.361 16.0001
16 2 59.8665 -0.0551604 16.0924
17 2 63.8567 0.213881 0.23943
18 2 67.818 0.159908 0.161743
19 2 71.4914 158.388 15.953
20 2 75.3725 158.225 15.9768
21 2 79.4618 158.288 15.8288
22 2 83.48 158.234 0.167042
23 2 87.2648 158.133 0.105792
24 2 91.0784 158.124 0.226127
25 2 94.9168 157.966 0.0462542
26 2 98.837 157.937 0.208985
27 2 102.817 157.924 0.138753
28 2 106.65 157.895 15.8733
29 2 110.674 158.03 0.0832964
30 2 114.671 157.784 0.145774
31 2 118.701 157.858 0.00821722
32 2 122.453 157.758 15.9198
33 2 126.321 157.721 15.7873
34 2 130.357 157.562 15.927
35 2 134.347 157.703 16.0004
36 2 138.261 157.694 15.6646
37 2 142.028 157.767 15.783
38 2 146.194 157.765 15.7939
39 2 150.229 157.748 15.9337
40 2 154.286 158.017 16.1082
41 2 158.173 3.60614 0.134721
42 2 3.90687 3.64091 15.9762
43 2 7.84185 3.73319 0.249819
44 2 11.8603 3.55542 0.10174
45 2 15.9455 3.70815 0.0779393
46 2 19.8531 3.63792 16.0676
47 2 23.9578 3.67398 0.0550646
48 2 28.0048 3.805 0.273564
49 2 31.9174 3.78689 0.372047
50 2 35.8044 3.73916 0.113359
51 2 39.9414 3.85946 0.156112
52 2 43.7148 4.11718 0.25401
53 2 47.7966 4.0207 15.8509
54 2 51.8551 4.04665 0.150008
55 2 55.9267 3.90449 -0.0395454
56 2 59.7828 3.88293 0.0389431
57 2 63.7327 4.08412 16.1197
58 2 67.7831 4.08371 0.140827
59 2 71.8519 4.11158 0.137261
60 2 75.6522 3.97341 0.222474
61 2 79.149 3.92007 0.105025
62 2 83.141 3.78735 0.181608
63 2 87.0502 3.81009 0.209576
64 2 91.1164 3.76812 0.239629
65 2 95.0836 3.77953 15.9721
66 2 98.9949 3.66111 0.260407
67 2 103.024 3.68245 0.00074033
68 2 106.836 3.5586 15.8129
69 2 110.741 3.6197 15.8152
70 2 114.578 3.83486 15.794
71 2 118.528 3.46106 16.0838
72 2 122.385 3.24264 -0.106423
73 2 126.362 3.25457 15.9196
74 2 130.385 3.2675 0.132805
75 2 134.245 3.31224 15.8906
76 2 137.931 3.533 0.0361533
77 2 142.157 3.39836 15.7821
78 2 146.105 3.41907 -0.0892651
79 2 150.182 3.38079 15.8445
80 2 154.264 3.43677 15.8855
81 2 158.05 7.14138 0.148428
82 2 3.67426 7.61343 16.0328
83 2 7.95337 7.5126 15.9966
84 2 11.8812 7.41191 15.9358
85 2 15.9454 7.53142 0.165146
86 2 19.9404 7.50337 15.9058
87 2 23.7911 7.6758 0.220233
88 2 28.0572 7.58744 0.320516
89 2 31.9102 7.8032 16.0065
90 2 35.8235 7.63875 16.073
91 2 39.6615 7.65762 15.8968
92 2 43.6521 7.98146 15.9472
93 2 47.6791 7.92731 0.150776
94 2 51.8483 7.77279 15.9712
95 2 55.7647 7.84564 0.123927
96 2 59.6919 7.84923 0.0834004
97 2 63.8773 7.90165 0.164182
98 2 67.6227 8.07097 0.204324
99 2 71.4639 7.911 0.199098
100 2 75.505 8.0981 0.207529
101 2 79.4714 7.73952 15.7787
102 2 83.3329 7.97485 0.142823
103 2 87.3352 7.63138 15.7237
104 2 91.1943 7.77729 0.114888
105 2 95.079 7.70595 0.104668
106 2 99.2148 7.74566 0.109372
107 2 103.14 7.58457 0.140569
108 2 106.707 7.61194 0.0850142
109 2 110.672 7.54715 0.249193
110 2 114.567 7.70437 0.0448784
111 2 118.266 7.69017 0.0775595
112 2 122.375 7.54254 0.146006
113 2 126.339 7.24668 15.8044
114 2 130.31 7.34133 0.164289
115 2 134.082 7.2841 0.174326
116 2 137.979 7.30153 16.0363
117 2 142.075 7.25176 15.8086
118 2 145.934 7.3022 0.143303
119 2 150.083 7.37087 15.8526
120 2 154.124 7.23073 15.9737
121 2 158.04 11.3233 0.0652714
122 2 3.72512 11.3607 0.318067
123 2 7.8045 11.5907 16.0341
124 2 11.6106 11.4207 15.8949
125 2 15.747 11.5998 16.0188
126 2 19.765 11.4045 0.123958
127 2 23.6681 11.5932 0.0514214
128 2 27.7464 11.5322 0.254197
129 2 31.8009 11.5015 0.097233
130 2 35.8106 11.5287 0.187568
131 2 39.6893 11.5287 -0.0258042
132 2 43.8015 11.9356 15.8913
133 2 47.6365 11.8168 15.8785
134 2 51.5739 11.7744 15.8953
135 2 55.5976 11.7027 -0.0855729
136 2 59.7482 11.9621 15.9305
137 2 63.588 11.921 0.0867307
138 2 67.7273 12.0126 15.8239
139 2 71.6795 12.0022 0.199675
140 2 75.4175 11.8064 0.187604
141 2 79.5044 11.8355 0.0572528
142 2 83.5026 11.8811 0.173949
143 2 87.251 11.7564 0.0110617
144 2 91.1943 11.8444 0.190513
145 2 95.0252 11.7787 -0.0197973
146 2 99.1191 11.6939 0.238787
147 2 102.937 11.5988 0.0251308
148 2 106.752 11.5599 0.0280301
149 2 110.616 11.7787 0.295948
150 2 114.795 11.5852 0.0453108
151 2 118.475 11.6948 0.235565
152 2 122.505 11.6418 0.196514
153 2 126.436 11.6619 -0.0188622
154 2 130.29 11.4067 16.0089
155 2 134.383 11.3344 0.12805
156 2 138.317 11.1008 0.0856331
157 2 142.165 11.287 15.706
158 2 145.975 11.1896 15.8202
159 2 150.005 11.1179 15.8477
160 2 154.089 11.3462 16.066
161 2 158.008 15.4092 0.172815
162 2 3.61962 15.2994 0.158599
163 2 7.6945 15.359 0.301098
164 2 11.5428 15.3211 16.1901
165 2 15.5546 15.2603 15.71
166 2 19.3831 15.5643 0.041863
167 2 23.4697 15.473 0.148205
168 2 27.6447 15.505 15.9353
169 2 31.4332 15.5222 15.9011
170 2 35.543 15.5684 0.223724
171 2 39.7242 15.5189 15.922
172 2 43.558 15.6882 0.181674
173 2 47.5479 15.6496 0.333908
174 2 51.5787 15.8081 0.185326
175 2 55.5713 15.8274 15.8814
176 2 59.4964 15.7874 -0.0668362
177 2 63.4761 15.9056 0.141982
178 2 67.5035 15.8358 0.203597
179 2 71.5853 16.0402 0.286885
180 2 75.7184 15.85 15.9196
181 2 79.479 15.8462 0.355504
182 2 83.4212 15.8074 0.254757
183 2 87.3055 15.8407 0.134945
184 2 91.2334 15.8251 -0.00609487
185 2 95.2032 15.7958 0.168066
186 2 98.9875 15.6728 -0.136731
187 2 102.857 15.6896 -0.0213541
188 2 106.818 15.5644 0.207838
189 2 110.837 15.7077 0.0598553
190 2 114.731 15.6477 0.220418
191 2 118.755 15.4975 0.0112292
192 2 122.574 15.5413 15.825
193 2 126.492 15.5594 0.155305
194 2 130.345 15.3561 0.252488
195 2 134.327 15.2907 0.0874033
196 2 138.407 15.2377 0.113557
197 2 142.049 15.4012 0.130344
198 2 145.98 15.1218 0.243358
199 2 149.743 14.9834 15.9483
200 2 153.869 15.2936 0.0605764
201 2 157.938 18.9574 16.0009
202 2 3.58073 19.3567 0.186741
203 2 7.66681 19.3768 16.0039
204 2 11.5962 19.4008 15.919
205 2 15.4567 19.3798 15.8365
206 2 19.448 19.3334 -0.0704286
207 2 23.6483 19.3473 0.272063
208 2 27.6321 19.3405 0.196621
209 2 31.3807 19.4934 15.7991
210 2 35.447 19.6465 16.0088
211 2 39.4542 19.5258 0.0289958
212 2 43.5657 19.5628 15.864
213 2 47.555 19.928 15.8942
214 2 51.5155 19.493 15.9598
215 2 55.4323 19.6311 15.8672
216 2 59.4273 19.5673 15.7422
217 2 63.4267 19.6805 15.8548
218 2 67.4936 19.8309 16.0386
219 2 71.5111 19.7466 0.195117
220 2 75.528 19.8669 0.245272
221 2 79.3381 19.7706 0.235654
222 2 83.4214 19.7768 0.0781058
223 2 87.4408 20.111 15.7768
224 2 91.0845 19.7899 0.120075
225 2 95.1768 19.683 0.0888436
226 2 99.0648 20.1483 15.6711
227 2 102.96 19.8988 15.7783
228 2 106.904 19.6453 15.9279
229 2 110.97 19.737 0.255681
230 2 114.786 19.691 0.187728
231 2 118.653 19.4463 16.0401
232 2 122.557 19.4356 0.0354257
233 2 126.481 19.4579 0.271694
234 2 130.442 19.276 0.123621
235 2 134.262 19.3582 15.887
236 2 137.974 19.1472 16.0929
237 2 142.247 19.2276 0.101548
238 2 146.178 19.1637 0.0998297
239 2 149.967 18.9489 -0.0207517
240 2 153.833 19.0532 16.0426
241 2 157.985 23.0253 16.0976
242 2 3.67477 23.077 15.9829
243 2 7.44291 23.1564 0.234068
244 2 11.6815 23.1547 16.083
245 2 15.65 23.4417 15.9037
246 2 19.5896 23.0955 -0.00718171
247 2 23.7332 23.2284 15.8465
248 2 27.4741 23.3598 16.0796
249 2 31.3452 23.1601 0.0558743
250 2 35.445 23.5378 15.9507
251 2 39.4399 23.5503 0.18871
252 2 43.7048 23.5558 16.0574
253 2 47.7088 23.5004 16.1296
254 2 51.5843 23.4721 0.169078
255 2 55.4216 23.4788 15.8292
256 2 59.5248 23.7037 15.891
257 2 63.289 23.6802 15.8562
258 2 67.2593 23.9925 0.303708
259 2 71.2873 23.861 0.15799
260 2 75.4746 23.8621 0.367127
261 2 79.4327 23.8246 16.0775
262 2 83.4818 24.0447 15.9336
263 2 87.3262 23.8937 0.218276
264 2 91.3992 23.7089 15.7957
265 2 95.2589 23.6017 15.8804
266 2 99.2369 23.8979 0.0786668
267 2 103.121 23.8007 0.0556191
268 2 106.948 23.8273 0.223013
269 2 110.868 23.6463 0.0455968
270 2 114.851 23.5982 15.7698
271 2 118.621 23.6066 15.9381
272 2 122.41 23.3203 0.0826
273 2 126.465 23.4776 0.166467
274 2 130.402 23.4516 15.8406
275 2 134.274 23.3665 0.212732
276 2 138.291 23.2445 15.935
277 2 142.195 23.1373 0.153926
278 2 146.181 23.0541 0.388369
279 2 150.219 23.0743 0.127008
280 2 154.038 23.1763 0.339256
281 2 157.978 27.0718 0.194167
282 2 3.45504 26.9393 16.1831
283 2 7.48926 27.1349 0.082878
284 2 11.3595 26.9521 15.969
285 2 15.5611 27.277 16.0899
286 2 19.4685 27.0539 0.0632805
287 2 23.4117 27.0972 0.207291
288 2 27.4989 27.2401 0.141053
289 2 31.4711 27.2169 15.9349
290 2 35.4668 27.378 0.220705
291 2 39.622 27.4461 0.338846
292 2 43.4268 27.6697 16.1438
293 2 47.6251 27.4818 0.171999
294 2 51.4285 27.6635 0.243009
295 2 55.3694 27.5975 0.164115
296 2 59.3222 27.5428 0.212833
297 2 63.3145 27.7555 0.278823
298 2 67.2613 27.7195 0.331646
299 2 71.3457 27.8092 0.157558
300 2 75.3873 27.9018 16.09
301 2 79.3771 27.7444 0.192452
302 2 83.2818 27.8772 16.0776
303 2 87.2852 27.7642 0.186457
304 2 91.4382 27.8987 15.7976
305 2 95.1014 27.7911 15.8206
306 2 99.1952 27.7481 0.120712
307 2 103.18 27.7707 0.108621
308 2 107.066 27.6618 15.9246
309 2 110.985 27.6372 0.0837093
310 2 114.966 27.4815 15.8968
311 2 118.708 27.7499 15.8691
312 2 122.708 27.3167 0.301669
313 2 126.57 27.3132 0.296753
314 2 130.456 27.2799 0.103977
315 2 134.442 27.1949 15.8405
316 2 138.249 27.2344 0.412461
317 2 142.136 27.1974 0.333867
318 2 146.15 27.1904 0.112237
319 2 150 27.1498 0.209635
320 2 153.938 27.052 15.9909
321 2 158.019 31.0372 15.9124
322 2 3.4668 31.0239 0.14179
323 2 7.24925 30.875 0.185925
324 2 11.4455 30.9559 15.5854
325 2 15.3996 31.1022 0.204163
326 2 19.2744 30.9672 15.9531
327 2 23.3461 31.1983 15.8448
328 2 27.2486 31.0917 -0.0195541
329 2 31.3615 31.0143 0.294606
330 2 35.3425 31.3069 16.0901
331 2 39.4075 31.4249 16.0465
332 2 43.3605 31.438 0.367929
333 2 47.4087 31.4897 15.9482
334 2 51.3595 31.582 16.0356
335 2 55.3814 31.4786 0.094657
336 2 59.4872 31.4905 0.167821
337 2 63.3039 31.6877 15.9506
338 2 67.4359 31.6736 0.180087
339 2 71.5196 31.7338 15.8218
340 2 75.2959 31.5061 0.124344
341 2 79.4419 31.6423 0.174391
342 2 83.3424 31.95 16.0808
343 2 87.4501 31.7966 0.165836
344 2 91.4569 31.9227 0.275883
345 2 95.3704 31.7898 0.0988365
346 2 99.3471 31.7382 0.240317
347 2 103.062 31.8754 15.6917
348 2 106.838 31.6815 0.035965
349 2 110.836 31.6888 16.1879
350 2 114.845 31.5822 0.350152
351 2 118.775 31.4234 16.2407
352 2 122.768 31.4214 0.281008
353 2 126.596 31.2558 0.302517
354 2 130.558 31.2074 0.0609585
355 2 134.492 31.2927 0.316027
356 2 138.211 31.1855 16.1214
357 2 142.252 31.149 15.9166
358 2 146.12 31.1506 15.9722
359 2 149.966 31.1671 15.8699
360 2 153.994 31.2052 15.8779
361 2 158.031 35.0236 15.9793
362 2 3.49265 34.9416 0.233873
363 2 7.48885 34.9164 0.178177
364 2 11.3564 35.0236 16.0142
365 2 15.3256 34.8361 0.2956
366 2 19.4187 34.9071 15.8375
367 2 23.2523 35.0354 15.8557
368 2 27.2272 34.9443 0.176226
369 2 31.2804 35.0771 0.284992
370 2 35.3015 34.9899 15.9853
371 2 39.4006 35.1233 0.144417
372 2 43.4427 35.4886 15.9464
373 2 47.2832 35.331 15.8689
374 2 51.4399 35.5858 0.272602
375 2 55.4895 35.3911 15.7804
376 2 59.4366 35.3179 0.206815
377 2 63.2017 35.5208 0.324345
378 2 67.3787 35.4929 0.17029
379 2 71.3328 35.6005 0.214541
380 2 75.3715 35.6022 15.8714
381 2 79.3938 35.7299 15.9357
382 2 83.319 35.8403 0.360195
383 2 87.3458 35.7058 0.161383
384 2 91.3825 35.7749 15.881
385 2 95.1601 35.8096 15.9269
386 2 99.3055 35.5765 -0.000678692
387 2 103.231 35.8957 16.0494
388 2 106.95 35.8401 0.202359
389 2 110.978 35.5107 15.9059
390 2 114.953 35.6243 0.204499
391 2 118.737 35.4515 15.9756
392 2 122.857 35.3806 16.1264
393 2 126.66 35.213 0.343838
394 2 130.591 35.221 0.378704
395 2 134.516 35.2387 15.914
396 2 138.319 35.143 15.6983
397 2 142.118 35.2766 15.9521
398 2 146.121 35.1032 15.8145
399 2 150.328 35.0658 0.358742
400 2 154.146 35.0247 0.237337
401 2 158.085 39.0689 0.389281
402 2 3.76192 39.0026 16.0069
403 2 7.75027 39.2263 15.9755
404 2 11.3503 38.885 0.155044
405 2 15.2111 38.9953 0.145139
406 2 19.307 38.8242 15.9234
407 2 23.3092 39.0399 15.9588
408 2 27.3501 39.0179 0.417512
409 2 31.1079 38.988 16.0384
410 2 35.3785 39.1478 0.265726
411 2 39.2404 39.0743 0.105067
412 2 43.1827 39.2364 0.114147
413 2 47.3266 39.3353 0.122129
414 2 51.4497 39.3182 0.156394
415 2 55.3737 39.2207 0.304966
416 2 59.4464 39.2585 0.0897445
417 2 63.4325 39.424 15.8209
418 2 67.344 39.4054 0.144953
419 2 71.4789 39.5367 0.132014
420 2 75.3997 39.6274 0.209761
421 2 79.2793 39.4539 15.8723
422 2 83.3538 39.5915 15.9332
423 2 87.3017 39.7078 15.941
424 2 91.3709 39.6062 15.9789
425 2 95.0119 39.8319 15.9924
426 2 99.3184 39.6882 0.187933
427 2 103.196 39.8655 0.299081
428 2 107.05 39.5152 15.829
429 2 111.073 39.6827 15.9946
430 2 115.042 39.5077 15.9224
431 2 118.922 39.5301 16.0177
432 2 122.807 39.4295 0.207531
433 2 126.758 39.3371 16.1709
434 2 130.527 39.4523 0.0916607
435 2 134.411 39.1943 0.244032
436 2 138.421 39.3704 16.085
437 2 142.275 39.2667 16.142
438 2 146.255 39.131 0.314526
439 2 150.086 39.1046 16.1823
440 2 153.985 38.9926 0.153749
441 2 158.008 43.0276 0.280976
442 2 3.63149 43.1637 0.33069
443 2 7.55133 43.1107 0.080059
444 2 11.5769 43.0868 0.30526
445 2 15.441 42.7631 0.27879
446 2 19.3633 42.7783 16.067
447 2 23.3944 42.8532 0.195181
448 2 27.2268 42.892 0.223387
449 2 31.3761 42.9861 0.185567
450 2 35.2677 42.9687 0.228653
451 2 38.9381 43.0729 0.244566
452 2 43.0786 42.9782 0.120212
453 2 47.319 43.3137 0.212585
454 2 51.4008 43.4627 0.159892
455 2 55.3567 43.2332 0.168852
456 2 59.3632 43.2869 0.0687949
457 2 63.3071 43.2576 0.304723
458 2 67.3509 43.1384 15.8204
459 2 71.2206 43.5124 16.1558
460 2 75.2377 43.2765 0.193631
461 2 79.3739 43.5023 0.185816
462 2 83.2155 43.45 15.9474
463 2 87.2617 43.4641 15.7292
464 2 91.2275 43.6295 16.0386
465 2 95.1808 43.6353 0.0253965
466 2 99.2922 43.53 0.129444
467 2 103.445 43.6699 0.067951
468 2 107.2 43.8619 -0.0542009
469 2 111.05 43.506 15.7585
470 2 114.893 43.3828 15.8219
471 2 118.956 43.4412 0.229441
472 2 123.084 43.7123 0.394534
473 2 126.704 43.3209 0.222944
474 2 130.696 43.192 0.189307
475 2 134.511 43.2366 15.7864
476 2 138.545 43.2906 15.8136
477 2 142.507 43.1621 15.8399
478 2 146.399 43.4166 16.068
479 2 150.43 43.1001 0.357143
480 2 154.407 43.068 15.9553
481 2 158.336 47.0192 16.0227
482 2 3.76377 47.0504 15.9828
483 2 7.76396 47.085 16.1689
484 2 11.6245 47.0742 16.1197
485 2 15.6315 46.9704 0.256483
486 2 19.4755 47.0108 15.9044
487 2 23.2306 46.9469 0.125621
488 2 27.2389 46.9917 0.183012
489 2 31.2755 46.887 0.116379
490 2 35.3784 46.9703 0.208181
491 2 39.2423 47.1112 0.227995
492 2 43.0683 47.0297 0.313964
493 2 47.0912 47.3015 15.8544
494 2 51.248 47.1119 15.9223
495 2 55.3493 47.2148 0.237706
496 2 59.1879 47.108 16.1187
497 2 63.2832 47.1103 -0.0969495
498 2 67.3216 47.0356 0.0854532
499 2 71.3229 47.4084 0.241137
500 2 75.1443 47.2644 16.0457
501 2 79.0918 47.3417 15.9949
502 2 83.2454 47.4978 0.273128
503 2 87.2377 47.43 0.156731
504 2 91.2182 47.4439 16.02
505 2 95.1967 47.718 0.290342
506 2 99.2477 47.5326 0.0726627
507 2 103.384 47.5187 15.9633
508 2 107.374 47.6679 0.0225724
509 2 111.19 47.4691 15.9463
510 2 115.069 47.3748 15.9274
511 2 119.013 47.4332 0.408256
512 2 122.874 47.4651 0.384771
513 2 126.845 47.3867 0.285134
514 2 130.846 47.2275 0.225798
515 2 134.646 47.2174 15.8519
516 2 138.534 47.2075 0.287771
517 2 142.284 47.2866 16.0025
518 2 146.701 47.135 0.38061
519 2 150.57 47.1427 15.9424
520 2 154.323 47.0162 0.114566
521 2 158.388 50.937 0.271076
522 2 3.66547 51.042 0.189526
523 2 7.76281 50.9254 0.282922
524 2 11.7155 50.8789 15.7892
525 2 15.533 50.9436 0.113881
526 2 19.6742 50.8841 0.152732
527 2 23.4663 50.8478 0.182994
528 2 27.2291 50.8251 15.9547
529 2 31.1672 50.8979 15.904
530 2 35.0768 50.98 0.367222
531 2 39.113 51.0119 16.1903
532 2 43.1505 51.0201 0.29919
533 2 47.3249 51.0475 0.295748
534 2 51.1452 50.9405 15.8292
535 2 55.414 50.9572 15.8977
536 2 59.1486 51.1439 16.0789
537 2 63.1753 51.0777 0.11686
538 2 67.1807 51.2398 0.103958
539 2 71.1005 51.2099 15.6197
540 2 75.0988 51.3184 0.302551
541 2 79.1777 51.1928 15.9702
542 2 83.2801 51.3118 16.2239
543 2 87.2074 51.4432 15.9796
544 2 91.0226 51.4225 -0.169159
545 2 95.3048 51.6632 0.0271139
546 2 99.2087 51.5738 15.8399
547 2 103.291 51.7228 0.0905319
548 2 107.423 51.5576 15.818
549 2 111.369 51.5936 0.114276
550 2 115.223 51.7025 0.186125
551 2 119.052 51.3125 0.037316
552 2 123.142 51.4201 0.158306
553 2 126.891 51.3093 15.8855
554 2 130.726 51.2223 0.300597
555 2 134.891 51.2031 15.9896
556 2 138.653 51.302 0.152149
557 2 142.521 51.153 15.885
558 2 146.346 51.199 15.8588
559 2 150.513 51.1055 0.0699518
560 2 154.326 51.1695 0.101469
561 2 158.45 55.062 0.13952
562 2 3.82786 55.0222 0.296986
563 2 7.96866 54.8924 0.360318
564 2 11.8844 55.0564 15.9842
565 2 15.6733 54.9082 16.0046
566 2 19.5056 54.9584 16.1234
567 2 23.5954 54.9208 16.2223
568 2 27.4428 54.9291 15.904
569 2 31.1836 54.9576 0.297218
570 2 35.0795 54.953 16.1951
571 2 39.0269 54.9998 0.132495
572 2 43.1163 54.9085 15.9546
573 2 47.151 54.7973 15.9622
574 2 51.1659 54.7805 15.8694
575 2 55.213 54.9443 0.0304348
576 2 59.0829 54.998 0.120241
577 2 63.1552 55.1967 15.9202
578 2 67.1719 55.06 0.2146
579 2 71.094 55.1868 15.8025
580 2 74.8746 55.4017 15.9008
581 2 79.1501 55.139 15.8276
582 2 83.2118 55.2329 15.9885
583 2 87.068 55.2554 0.000427472
584 2 91.1025 55.202 0.0834751
585 2 95.085 55.5016 0.135137
586 2 99.3046 55.3894 15.9948
587 2 103.292 55.4503 0.0432675
588 2 107.249 55.3316 0.115163
589 2 111.273 55.2873 15.7561
590 2 115.142 55.6084 0.330661
591 2 119.309 55.4846 0.113402
592 2 123.103 55.4689 0.34596
593 2 126.888 55.1691 16.1264
594 2 130.921 55.2289 15.9896
595 2 134.711 55.3525 15.853
596 2 138.755 55.2973 -0.0175208
597 2 142.518 55.1939 0.169097
598 2 146.474 55.3362 15.6857
599 2 150.475 55.1219 15.8226
600 2 154.449 55.1732 0.11519
601 2 -0.105978 59.2826 0.268841
602 2 3.7637 58.9744 0.335278
603 2 7.81595 59.0339 0.359849
604 2 11.9824 59.0097 15.8371
605 2 15.7135 58.8556 0.309745
606 2 19.63 58.9719 16.0904
607 2 23.6294 58.9315 15.9422
608 2 27.4548 59.0309 0.164534
609 2 31.3446 58.9887 15.8945
610 2 35.2215 58.8221 0.164544
611 2 39.2044 58.8909 0.103168
612 2 43.0516 58.7984 16.05
613 2 47.1179 58.8391 0.185347
614 2 51.1022 58.8602 15.6976
615 2 55.2123 58.9442 15.8223
616 2 59.1791 58.8257 16.0522
617 2 63.1236 58.9741 0.365313
618 2 67.0712 59.0787 15.8593
619 2 71.0634 59.0442 0.130063
620 2 75.1243 59.0893 0.172201
621 2 79.1261 59.0245 16.0777
622 2 83.1179 59.0626 15.8216
623 2 87.028 59.0594 0.147345
624 2 91.1127 59.1853 0.0319195
625 2 95.1297 59.368 0.28561
626 2 99.2523 59.1301 15.8134
627 2 103.255 59.2875 0.0985987
628 2 107.279 59.3703 0.0301238
629 2 111.297 59.3356 0.210391
630 2 115.222 59.3382 0.179114
631 2 119.295 59.3994 0.112687
632 2 123.356 59.5117 0.103139
633 2 126.951 59.3139 0.149792
634 2 131.011 59.2518 15.9748
635 2 135.026 59.4247 0.248298
636 2 138.705 59.3758 -0.0683167
637 2 142.64 59.253 15.9587
638 2 146.733 59.2022 0.0809389
639 2 150.599 59.1866 0.0748936
640 2 154.239 59.222 0.0851993
641 2 0.163669 63.1358 16.0399
642 2 3.94898 63.2239 15.8971
643 2 7.72888 63.0218 0.179036
644 2 11.8207 63.004 0.123685
645 2 15.6483 62.9492 15.9907
646 2 19.707 62.7519 15.8685
647 2 23.4783 62.8565 15.8503
648 2 27.3196 62.9282 0.25162
649 2 31.2718 62.6889 15.9996
650 2 35.3544 62.9539 16.0787
651 2 39.1751 62.7553 0.219217
652 2 43.1111 62.7544 0.0985377
653 2 47.0121 62.6675 15.8969
654 2 50.8783 62.8737 0.244289
655 2 54.9946 62.6951 0.38413
656 2 59.0122 62.7353 0.184066
657 2 63.0595 62.6691 0.33899
658 2 67.1166 62.9795 0.0517988
659 2 71.0881 62.9348 0.221475
660 2 74.9791 62.6573 15.9319
661 2 79.0256 62.9382 15.818
662 2 83.0802 63.1805 15.9305
663 2 86.8883 63.083 0.00757046
664 2 90.9929 63.0612 15.8549
665 2 95.185 63.1833 -0.0229819
666 2 99.2625 63.1533 0.0704759
667 2 103.121 63.2849 -0.015431
668 2 106.96 63.3072 0.12647
669 2 110.894 63.3572 0.281763
670 2 115.391 63.3341 0.282774
671 2 119.451 63.2307 15.9633
672 2 123.087 63.2758 15.9564
673 2 127.169 63.3836 15.9571
674 2 131.105 63.3965 0.214356
675 2 135.128 63.419 15.9431
676 2 139.085 63.2014 0.0620576
677 2 142.945 63.2562 -0.00481027
678 2 146.763 63.0367 0.0977471
679 2 150.442 63.2713 16.0596
680 2 154.573 63.1379 15.8701
681 2 0.273418 67.0045 -0.0881709
682 2 3.99843 67.1449 0.22175
683 2 7.98682 67.062 0.122649
684 2 11.7558 67.0795 15.9258
685 2 15.6357 67.0085 16.0576
686 2 19.5043 66.9335 15.8914
687 2 23.6877 67.0179 15.8734
688 2 27.4055 66.8375 15.9228
689 2 31.4838 66.8895 0.253647
690 2 35.4578 66.846 0.170378
691 2 39.2728 66.6778 0.297726
692 2 43.2625 66.8026 15.8245
693 2 47.3686 66.7127 0.210573
694 2 51.135 66.568 15.8723
695 2 55.1965 66.8518 16.0701
696 2 59.0831 66.8397 16.0934
697 2 63.1534 66.7469 15.9731
698 2 67.0479 67.0016 15.8322
699 2 71.0631 66.9575 0.299337
700 2 75.0794 66.7894 0.198992
701 2 78.8907 66.9673 15.7081
702 2 82.8801 67.0583 15.7684
703 2 86.9967 66.9999 15.8974
704 2 90.8761 66.8323 0.186998
705 2 94.9875 66.8501 15.9413
706 2 99.2347 67.14 15.845
707 2 103.118 67.1205 0.101752
708 2 107.026 67.1725 15.7517
709 2 111.221 67.1714 0.00500713
710 2 115.333 67.0858 0.0379873
711 2 119.402 67.3132 0.0745757
712 2 123.188 67.1116 16.0151
713 2 127.376 67.297 15.9576
714 2 131.327 67.2843 15.9834
715 2 135.068 67.2639 15.7606
716 2 139.128 67.125 15.9043
717 2 142.67 67.2356 15.8282
718 2 146.531 67.1456 0.0453919
719 2 150.794 67.3552 15.7476
720 2 154.444 67.17 15.9995
721 2 0.169669 71.1232 15.6367
722 2 4.20372 71.1187 15.9551
723 2 8.04958 71.1526 0.118441
724 2 11.9561 71.0948 15.8884
725 2 15.7279 71.0813 16.1145
726 2 19.7729 70.8947 0.252781
727 2 23.5641 70.7766 15.944
728 2 27.4532 70.7414 15.9222
729 2 31.5062 70.7918 15.9274
730 2 35.5804 70.8059 16.0197
731 2 39.4242 70.7416 15.9976
732 2 43.1274 70.7707 0.18524
733 2 47.2146 70.5964 15.907
734 2 51.1604 70.6582 16.1602
735 2 55.1422 70.7277 15.9371
736 2 59.0813 70.6844 0.181283
737 2 62.957 70.7032 15.882
738 2 66.963 70.6635 0.067424
739 2 71.06 70.7958 15.9228
740 2 75.005 70.6629 15.743
741 2 78.9505 70.8763 15.7151
742 2 82.995 70.7929 0.0318377
743 2 87.0387 70.9578 15.8618
744 2 91.066 70.9146 0.032398
745 2 95.0871 70.8108 0.034993
746 2 98.9776 71.0447 15.9292
747 2 103.194 70.9626 -0.0315738
748 2 106.93 70.9469 0.225443
749 2 111.182 71.022 15.8393
750 2 115.153 71.0465 0.151767
751 2 119.226 71.1916 16.0665
752 2 123.238 71.0517 0.14156
753 2 127.128 71.1846 15.9717
754 2 131.152 71.1958 15.7381
755 2 134.986 71.4168 16.0212
756 2 138.773 71.0966 15.8592
757 2 142.732 71.5181 15.8243
758 2 146.616 71.4172 15.7609
759 2 150.638 71.1835 15.8391
760 2 154.558 71.3938 15.8917
761 2 0.185347 75.1928 15.8598
762 2 4.16126 75.1294 15.7843
763 2 8.29533 75.1878 15.9699
764 2 12.2759 75.1998 15.8226
765 2 15.8785 75.1071 16.0738
766 2 19.7543 74.8828 16.0818
767 2 23.6811 74.8589 16.0093
768 2 27.7262 74.6877 15.9611
769 2 31.5532 74.8191 0.160018
770 2 35.5523 74.7278 15.8158
771 2 39.3408 74.815 15.8947
772 2 43.3444 74.7453 0.231029
773 2 47.2917 74.4372 15.9835
774 2 51.0542 74.6646 0.429748
775 2 55.0869 74.5351 15.9824
776 2 59.0008 74.5234 15.9471
777 2 62.7863 74.4328 15.923
778 2 66.8208 74.6585 15.9627
779 2 70.9269 74.625 15.8891
780 2 74.8905 74.8779 -0.0945695
781 2 79.0993 74.8046 15.9655
782 2 82.838 74.7852 15.9499
783 2 86.996 74.5493 15.9773
784 2 91.1686 74.8614 0.152014
785 2 95.1728 74.6892 15.9184
786 2 99.1379 74.9303 0.197765
787 2 102.948 75.1219 15.6988
788 2 107.077 74.8655 0.128218
789 2 111.292 74.7168 15.8851
790 2 115.131 75.0788 0.0497934
791 2 119.102 74.9487 15.8272
792 2 123.357 75.3167 15.8365
793 2 127.149 75.1464 0.236143
794 2 131.211 75.1793 0.0354325
795 2 135.005 75.2983 15.7894
796 2 139.213 75.3535 15.7647
797 2 143.062 75.2563 0.100723
798 2 146.841 75.3223 15.9303
799 2 150.841 75.2208 15.9473
800 2 154.776 75.2603 0.00294822
801 2 0.412557 79.3467 15.8902
802 2 4.35305 79.1605 16.091
803 2 8.16212 79.1132 15.9493
804 2 12.0585 79.0833 15.9021
805 2 15.9912 78.9795 15.9284
806 2 19.8153 78.8758 15.9591
807 2 23.8632 78.91 15.8798
808 2 27.6719 78.9299 16.0817
809 2 31.5694 79.0193 0.298185
810 2 35.5727 78.8688 16.2763
811 2 39.2038 78.8749 0.0919342
812 2 43.1356 78.6773 0.264082
813 2 47.2153 78.7464 0.241421
814 2 50.9897 78.7139 16.2011
815 2 55.2485 78.7759 16.1195
816 2 58.9938 78.5866 15.9904
817 2 62.902 78.3628 16.1207
818 2 67.097 78.682 15.9414
819 2 70.8894 78.6607 15.7748
820 2 74.9969 78.6735 15.7247
821 2 78.8455 78.7572 0.312695
822 2 82.9406 78.7734 0.200103
823 2 86.9829 78.8622 0.169375
824 2 90.9407 78.7469 0.297715
825 2 94.6954 78.7324 0.184383
826 2 99.1559 78.8576 15.9494
827 2 103.002 78.7969 0.0951407
828 2 106.951 78.7861 16.0356
829 2 111.112 78.7098 -0.169642
830 2 115.108 78.787 16.008
831 2 119.127 78.9427 0.00886445
832 2 123.094 79.0681 0.0874663
833 2 127.157 78.8382 15.9407
834 2 131.101 79.1863 0.0961558
835 2 135.081 79.1802 15.835
836 2 139.183 79.2165 15.7786
837 2 143.026 79.3524 15.8684
838 2 146.952 79.3671 16.0229
839 2 150.819 79.3791 16.0946
840 2 154.955 79.3565 15.8765
841 2 0.261131 83.0986 15.9583
842 2 4.22865 83.1022 15.7713
843 2 8.24914 83.1075 16.0362
844 2 12.0667 82.9367 15.9619
845 2 15.9845 82.9789 15.8191
846 2 19.8352 82.9635 16.0243
847 2 23.9044 83.1362 15.9754
848 2 27.6045 83.0101 15.9618
849 2 31.4651 82.9806 16.1999
850 2 35.3072 82.8415 16.2061
851 2 39.5358 82.8636 0.281263
852 2 43.3254 82.713 15.9792
853 2 47.0603 82.7753 16.1116
854 2 51.2357 82.6794 15.9291
855 2 55.0294 82.569 15.907
856 2 59.0389 82.4263 16.1409
857 2 63.009 82.3464 16.0336
858 2 66.8965 82.55 0.0175394
859 2 71.053 82.6857 0.287006
860 2 74.8262 82.4174 15.8963
861 2 78.946 82.47 0.199625
862 2 83.0079 82.5849 15.918
863 2 86.9715 82.7218 15.8916
864 2 90.9869 82.6466 0.25707
865 2 94.9932 82.7242 16.0208
866 2 99.3147 82.6184 15.9246
867 2 103.009 82.7923 0.0453452
868 2 106.994 82.7232 0.164959
869 2 110.888 82.4503 15.882
870 2 115.061 82.8517 16.0639
871 2 118.943 83.1958 0.284698
872 2 122.874 82.9424 15.8755
873 2 126.909 83.0509 0.21989
874 2 130.844 82.9768 15.9052
875 2 135.149 83.2419 -0.00301861
876 2 139.044 83.1878 15.8499
877 2 142.973 83.0543 0.209108
878 2 147.019 83.2472 0.432236
879 2 151.044 83.1807 15.9861
880 2 154.598 83.1853 15.8835
881 2 0.36685 87.0413 16.0671
882 2 4.19334 87.2131 0.236149
883 2 8.1544 87.1486 16.0335
884 2 11.941 86.9314 16.061
885 2 16.0432 86.9784 0.306888
886 2 19.951 87.1378 16.1473
887 2 23.8746 86.9764 15.9377
888 2 27.7002 86.9428 16.174
889 2 31.5473 86.8638 16.0461
890 2 35.5942 86.492 16.1267
891 2 39.4952 86.8114 15.9748
892 2 43.4052 86.7071 16.0757
893 2 47.1147 86.5198 0.341818
894 2 51.1586 86.3814 0.242082
895 2 55.1727 86.6745 0.23756
896 2 59.0887 86.4813 16.1072
897 2 63.0124 86.4363 16.0967
898 2 66.8879 86.4856 0.263441
899 2 71.0042 86.6326 0.315905
900 2 74.9022 86.5025 15.8112
901 2 78.6957 86.397 0.37225
902 2 82.9102 86.4803 0.109706
903 2 86.8569 86.6351 15.875
904 2 90.8556 86.5768 0.125901
905 2 94.8988 86.5211 15.8831
906 2 99.002 86.6036 16.1329
907 2 102.818 86.5964 0.316808
908 2 107.085 86.6397 0.0986401
909 2 111.023 86.7291 16.0677
910 2 114.979 86.789 0.218416
911 2 119.085 86.9316 0.341322
912 2 123.027 86.787 -0.013015
913 2 126.911 87.1357 15.9666
914 2 130.878 86.8637 0.126508
915 2 135.098 87.0371 15.7529
916 2 138.855 87.1146 0.191504
917 2 142.939 87.0998 0.0810537
918 2 146.93 87.0966 0.275741
919 2 150.831 87.1289 16.1548
920 2 154.878 87.246 16.0898
921 2 0.343813 91.2385 15.9796
922 2 4.35501 91.12 0.079239
923 2 8.13609 91.1343 0.271087
924 2 12.0422 91.1737 0.0837115
925 2 16.0192 90.9445 16.03
926 2 19.875 90.9689 16.0302
927 2 23.8584 90.9359 15.9415
928 2 27.5852 91.0079 16.0398
929 2 31.5291 90.7859 15.7765
930 2 35.527 90.8064 15.9746
931 2 39.3561 90.7785 16.0692
932 2 43.32 90.686 0.357196
933 2 47.5626 90.705 15.9588
934 2 51.3337 90.469 15.8872
935 2 55.1393 90.5987 16.1827
936 2 59.194 90.4065 15.8413
937 2 62.7989 90.3081 0.267044
938 2 66.9733 90.4912 16.1465
939 2 70.7977 90.3763 16.0525
940 2 74.9078 90.4078 16.0364
941 2 78.9159 90.2721 0.0653195
942 2 82.9447 90.5267 0.352194
943 2 86.7656 90.6839 15.8588
944 2 90.9528 90.4817 0.122147
945 2 94.8281 90.4854 0.348528
946 2 99.0032 90.6017 0.128405
947 2 103.131 90.4216 0.137585
948 2 107.009 90.4942 0.171662
949 2 110.998 90.7277 15.9029
950 2 115.042 90.6462 0.21266
951 2 118.926 90.8293 0.227497
952 2 122.915 90.7166 0.104864
953 2 127.003 90.8654 0.231524
954 2 131.129 90.9023 15.8422
955 2 135.091 90.8735 0.14484
956 2 139.002 90.984 0.14668
957 2 142.942 91.0826 0.277683
958 2 146.948 91.1609 0.399122
959 2 151.034 91.1676 16.0785
960 2 154.89 91.2278 0.262877
961 2 0.610092 95.3827 15.9987
962 2 4.52009 95.2706 16.0562
963 2 8.2546 95.1695 0.356463
964 2 12.1327 95.1409 16.0679
965 2 16.1277 95.0946 16.1548
966 2 19.9077 94.9833 15.9999
967 2 23.8313 95.0099 15.8977
968 2 27.7437 95.0591 16.1991
969 2 31.6198 94.9315 15.9787
970 2 35.6105 94.9665 0.277156
971 2 39.318 94.7926 16.082
972 2 43.3648 94.6285 16.1114
973 2 47.5228 94.642 16.0399
974 2 51.2224 94.6446 0.0197769
975 2 55.2104 94.7286 15.8458
976 2 59.0527 94.4776 15.9163
977 2 63.0039 94.4291 15.9168
978 2 67.0095 94.293 0.178033
979 2 70.8962 94.5268 0.297485
980 2 75.0271 94.4101 15.6892
981 2 78.8072 94.0819 15.8058