ITEM: TIMESTEP
17700
ITEM: NUMBER OF ATOMS
32000
ITEM: BOX BOUNDS xy xz yz pp pp pp
0.0000000000000000e+00 1.5831999999999999e+02 0.0000000000000000e+00
0.0000000000000000e+00 1.5831999999999999e+02 0.0000000000000000e+00
1.6581462848083550e-01 1.5931897371518971e+01 0.0000000000000000e+00
ITEM: ATOMS id type x y z
1 2 158.281 157.911 15.8802
2 2 3.81235 157.865 0.230535
3 2 7.53566 157.839 0.00570349
4 2 12.0163 158.017 16.0308
5 2 15.9655 157.936 0.104943
6 2 19.8716 158.092 0.27683
7 2 23.9888 158.014 15.9303
8 2 27.819 158.213 0.211656
9 2 31.9866 158.352 16.053
10 2 35.7823 158.159 0.130861
11 2 39.9591 158.407 0.156779
12 2 43.9305 158.422 15.8744
13 2 47.8878 0.204886 15.855
14 2 51.7785 0.0329248 15.8178
15 2 55.8136 158.381 15.5768
16 2 59.8934 0.129833 15.7885
17 2 63.761 0.00425048 0.168624
18 2 67.7046 0.0429462 0.211696
19 2 71.6355 158.216 16.0335
20 2 75.534 158.224 16.0177
21 2 79.3085 158.03 15.8406
22 2 83.1021 157.996 0.268582
23 2 86.9521 158.01 0.182839
24 2 90.8424 157.889 0.170345
25 2 95.0449 158.138 0.207784
26 2 99.1073 158.064 0.119545
27 2 102.91 157.845 0.0563223
28 2 106.78 157.83 15.8485
29 2 110.745 157.845 0.27682
30 2 114.68 157.9 0.135093
31 2 118.398 157.643 0.265334
32 2 122.532 157.763 15.6686
33 2 126.41 157.632 15.943
34 2 130.212 157.689 15.8484
35 2 134.233 157.626 15.9606
36 2 137.9 157.845 15.9111
37 2 142.087 157.838 15.7656
38 2 145.979 157.889 15.8593
39 2 150.147 157.886 15.8116
40 2 154.146 157.87 15.8029
41 2 158.101 3.33062 0.193333
42 2 3.77675 3.4657 15.9302
43 2 7.87668 3.64382 0.270661
44 2 11.8111 3.59885 0.033106
45 2 15.8834 3.51089 0.140889
46 2 19.8828 3.48831 15.8271
47 2 23.8234 3.69213 0.236646
48 2 27.7428 3.67375 0.051651
49 2 31.7456 4.03909 0.0386201
50 2 35.8073 3.85156 0.397136
51 2 39.7487 3.82448 0.227319
52 2 43.9109 3.89918 0.168175
53 2 47.7288 3.87409 15.9201
54 2 51.7721 3.89383 0.216163
55 2 55.7146 3.98876 0.32678
56 2 59.7879 4.00217 0.210792
57 2 63.7885 3.85679 15.6718
58 2 67.6679 4.24936 0.231873
59 2 71.6167 4.08537 0.181517
60 2 75.3666 3.86867 0.218854
61 2 79.6062 3.7638 0.156353
62 2 83.4026 3.82003 0.15257
63 2 87.2608 3.70615 0.0430643
64 2 91.1184 3.67071 0.159821
65 2 95.103 3.67449 15.9347
66 2 98.9926 3.71063 0.0501436
67 2 102.715 3.61805 0.0428586
68 2 106.786 3.60363 15.977
69 2 110.656 3.59494 15.9831
70 2 114.63 3.43371 15.7837
71 2 118.548 3.44351 15.6294
72 2 122.358 3.60889 0.337157
73 2 126.481 3.51305 16.0246
74 2 130.286 3.36286 0.171317
75 2 134.066 3.22865 15.9644
76 2 138.303 3.31888 0.0621558
77 2 142.216 3.3167 15.8405
78 2 146.158 3.43828 0.00901236
79 2 150.112 3.41754 15.8006
80 2 154.147 3.46739 16.0282
81 2 158.028 7.51219 0.102775
82 2 3.79522 7.42763 15.9523
83 2 7.50456 7.59947 16.076
84 2 11.7422 7.54765 15.9838
85 2 15.6648 7.49399 0.125164
86 2 19.6717 7.58718 15.9238
87 2 23.8424 7.51726 0.175826
88 2 27.5397 7.75727 0.343061
89 2 31.7492 7.70194 16.1205
90 2 35.745 7.69828 15.8795
91 2 39.8728 7.6827 16.0998
92 2 43.7285 7.88833 15.9241
93 2 47.751 7.80915 0.287316
94 2 51.5804 7.96029 15.8007
95 2 55.6886 7.79788 -0.0780476
96 2 59.728 7.86459 0.0709258
97 2 63.4226 7.84011 0.131647
98 2 67.8264 8.01674 0.188328
99 2 71.7091 8.03973 0.223196
100 2 75.5409 7.84811 0.162454
101 2 79.4767 8.00694 15.9976
102 2 83.3309 7.71948 0.17699
103 2 87.1973 7.89466 15.9806
104 2 91.1028 7.66549 -0.0109312
105 2 94.9582 7.82636 0.0164463
106 2 98.9519 7.74815 0.0432757
107 2 102.698 7.67658 0.00241593
108 2 106.963 7.63009 0.157186
109 2 110.728 7.67009 0.0706446
110 2 114.507 7.62986 0.0605095
111 2 118.615 7.44896 0.245045
112 2 122.524 7.27194 0.188031
113 2 126.321 7.42918 15.9615
114 2 130.15 7.45982 0.111727
115 2 134.419 7.29398 0.147652
116 2 138.192 7.26792 15.6968
117 2 142.172 7.46421 15.8417
118 2 146.123 7.33702 0.0696658
119 2 150.148 7.36062 16.0542
120 2 153.876 7.35155 15.8068
121 2 158.038 11.2191 0.333522
122 2 3.71669 11.3601 0.249651
123 2 7.75731 11.2796 16.0395
124 2 11.8422 11.4143 16.0417
125 2 15.6424 11.3018 15.8224
126 2 19.6584 11.5275 0.200863
127 2 23.7204 11.4751 0.131711
128 2 27.6935 11.7008 0.13581
129 2 31.6732 11.7379 0.281855
130 2 35.703 11.7176 0.206563
131 2 39.6516 11.6669 0.22727
132 2 43.5457 11.7753 16.0583
133 2 47.5176 11.6671 15.9796
134 2 51.6622 11.8656 16.0368
135 2 55.6561 11.8594 0.213025
136 2 59.5551 11.6834 15.7165
137 2 63.7037 11.8559 0.232559
138 2 67.5792 11.7543 15.8578
139 2 71.6519 12.0277 0.0678193
140 2 75.6137 12.079 0.132964
141 2 79.5167 12.0793 0.219189
142 2 83.3109 11.7534 0.0905727
143 2 87.2344 11.8427 0.115622
144 2 91.1791 11.6624 0.149376
145 2 95.1624 11.6494 0.314984
146 2 99.0209 11.9102 0.0275464
147 2 102.879 11.8178 0.11333
148 2 106.807 11.6512 0.156795
149 2 110.727 11.5788 -0.0882626
150 2 114.484 11.5739 0.0514424
151 2 118.739 11.3924 0.069796
152 2 122.417 11.3364 0.147094
153 2 126.001 11.4671 0.2172
154 2 130.198 11.3664 15.9501
155 2 134.333 11.4312 0.128894
156 2 138.2 11.3898 0.14075
157 2 142.11 11.284 15.8413
158 2 146.106 11.2528 15.8391
159 2 150.146 11.3976 15.8648
160 2 154 11.4788 15.8486
161 2 158.063 15.1466 0.202261
162 2 3.63748 15.1594 0.329481
163 2 7.63754 15.2396 0.262049
164 2 11.6821 15.3788 15.9537
165 2 15.4749 15.4512 15.8781
166 2 19.4772 15.4358 -0.00673359
167 2 23.4895 15.2247 0.284572
168 2 27.5841 15.5761 15.9102
169 2 31.6682 15.7032 15.8728
170 2 35.6725 15.6374 0.0659769
171 2 39.4961 15.465 16.072
172 2 43.7063 15.638 0.274445
173 2 47.5504 15.6958 -0.0556223
174 2 51.4962 15.6169 0.2311
175 2 55.6933 15.5036 15.781
176 2 59.6354 15.7028 0.204172
177 2 63.5429 15.6071 0.279257
178 2 67.6538 15.789 0.217237
179 2 71.5711 15.7864 0.222576
180 2 75.5175 15.9375 15.8923
181 2 79.61 15.9639 -0.217248
182 2 83.4824 15.8748 0.0947686
183 2 87.3798 15.8506 -0.00693256
184 2 91.2364 15.8996 -0.0408714
185 2 95.0998 15.6667 -0.0854608
186 2 99.058 15.8955 0.0824791
187 2 102.876 15.7586 0.206938
188 2 106.858 15.6761 0.038964
189 2 110.706 15.5435 0.246674
190 2 114.566 15.4841 0.178392
191 2 118.588 15.5513 0.18387
192 2 122.412 15.5711 15.8146
193 2 126.32 15.38 0.136155
194 2 130.299 15.3567 0.058945
195 2 134.341 15.2502 0.237959
196 2 138.085 15.2463 0.208237
197 2 142.073 15.2481 0.0765328
198 2 145.919 15.2757 -0.104677
199 2 149.975 15.1389 16.0044
200 2 154.058 15.2304 0.124485
201 2 158.011 19.2099 15.9436
202 2 3.62288 19.0885 0.296269
203 2 7.6525 19.0263 15.9632
204 2 11.6261 19.2227 15.8367
205 2 15.7853 19.2922 15.9474
206 2 19.5697 19.2525 0.0336234
207 2 23.4096 19.2568 0.154723
208 2 27.4636 19.5731 0.194977
209 2 31.5629 19.4485 15.782
210 2 35.625 19.3238 15.8882
211 2 39.6177 19.622 0.359127
212 2 43.5367 19.5577 15.904
213 2 47.4293 19.4776 16.0517
214 2 51.5231 19.6389 15.973
215 2 55.6052 19.6895 15.7584
216 2 59.3298 19.7059 15.9924
217 2 63.3948 19.5848 15.8936
218 2 67.5408 19.686 15.9405
219 2 71.4907 19.9042 0.227167
220 2 75.4272 19.8722 0.052828
221 2 79.5857 19.9579 0.241708
222 2 83.5135 19.9277 0.212638
223 2 87.2119 19.8223 15.8266
224 2 91.4486 19.8997 0.0153043
225 2 95.1431 19.8053 0.115903
226 2 99.1697 19.48 15.8704
227 2 102.985 19.6303 15.8764
228 2 106.863 19.661 15.7048
229 2 110.577 19.5472 0.148012
230 2 114.687 19.5391 0.12179
231 2 118.533 19.5492 15.8927
232 2 122.541 19.536 0.19958
233 2 126.484 19.4713 0.183946
234 2 130.289 19.3468 0.172582
235 2 134.279 19.1497 15.9688
236 2 138.365 19.3269 15.9463
237 2 142.096 19.2699 0.15632
238 2 146.05 19.2217 0.0234437
239 2 150.067 19.1645 0.351627
240 2 153.934 19.0536 15.751
241 2 157.912 23.0023 16.0641
242 2 3.44065 23.1002 16.2654
243 2 7.63393 23.3306 0.311962
244 2 11.3756 23.1101 15.7177
245 2 15.5949 23.1512 15.9898
246 2 19.54 23.3227 0.293497
247 2 23.3013 23.2533 15.9517
248 2 27.5768 23.2563 15.9844
249 2 31.5625 23.4875 0.139317
250 2 35.4592 23.2169 15.9481
251 2 39.6251 23.4945 0.290259
252 2 43.32 23.6072 16.0117
253 2 47.3074 23.6412 15.8567
254 2 51.3058 23.759 0.357762
255 2 55.4219 23.6053 15.7958
256 2 59.4181 23.5749 15.7827
257 2 63.6566 23.5725 15.8539
258 2 67.581 23.4932 0.102013
259 2 71.6137 23.8831 0.138753
260 2 75.4038 23.8853 0.135745
261 2 79.3639 23.7638 15.8646
262 2 83.3237 23.7561 15.9465
263 2 87.5302 23.8389 0.159365
264 2 91.1452 23.8315 15.8476
265 2 95.1111 23.8516 15.8804
266 2 99.2037 23.8018 0.0961331
267 2 103.105 23.7238 0.223818
268 2 107.033 23.7304 -0.100824
269 2 110.839 23.5523 0.207511
270 2 114.75 23.5599 16.2928
271 2 118.654 23.4326 15.886
272 2 122.638 23.6318 0.246473
273 2 126.559 23.4491 0.0153909
274 2 130.516 23.4633 15.9627
275 2 134.377 23.2187 0.257496
276 2 138.13 23.2844 16.2252
277 2 142.009 23.234 0.260399
278 2 145.91 23.2587 0.0246173
279 2 149.851 23.1238 0.11704
280 2 153.924 23.0766 0.179372
281 2 157.809 26.9341 0.136927
282 2 3.42642 27.1709 16.013
283 2 7.5325 27.02 0.276772
284 2 11.481 27.0399 15.872
285 2 15.4176 27.026 15.9567
286 2 19.5748 27.28 0.184561
287 2 23.5072 27.1991 0.0874451
288 2 27.365 27.3632 0.212407
289 2 31.4197 27.1668 15.9158
290 2 35.462 27.2327 0.3768
291 2 39.4732 27.395 0.174834
292 2 43.5524 27.4619 15.9293
293 2 47.2962 27.371 0.262229
294 2 51.441 27.3746 0.178879
295 2 55.5139 27.4715 0.0329469
296 2 59.5632 27.6894 0.238477
297 2 63.3699 27.6892 0.316044
298 2 67.6452 27.7034 0.0607221
299 2 71.497 27.8615 0.166386
300 2 75.5587 27.6999 15.8453
301 2 79.4724 27.895 0.339939
302 2 83.563 27.8296 15.9691
303 2 87.4991 27.8043 0.272697
304 2 91.156 27.7819 15.8653
305 2 95.3139 27.7684 16.0227
306 2 99.2639 27.8517 0.00449254
307 2 103.121 27.7973 0.0602357
308 2 106.999 27.6738 15.8168
309 2 110.731 27.6448 0.107368
310 2 114.715 27.5944 16.1018
311 2 118.78 27.3422 15.9341
312 2 122.646 27.5564 0.205278
313 2 126.604 27.3695 0.136939
314 2 130.626 27.4503 0.303067
315 2 134.48 27.3604 15.9755
316 2 138.344 27.1458 0.141055
317 2 142.169 27.1643 -0.0388288
318 2 146.056 27.0454 0.409861
319 2 150.029 26.987 0.266139
320 2 153.999 27.0191 15.8513
321 2 157.807 31.0305 15.9562
322 2 3.48993 31.0674 0.279706
323 2 7.56555 31.0108 0.0862111
324 2 11.3278 31.0292 15.9699
325 2 15.5212 30.8753 0.282062
326 2 19.4457 31.0457 15.9324
327 2 23.3946 31.1468 15.8629
328 2 27.4459 31.2689 0.262746
329 2 31.2301 31.169 0.166308
330 2 35.4132 31.0681 15.9579
331 2 39.4438 31.3907 15.9871
332 2 43.381 31.5288 0.230379
333 2 47.4889 31.3142 16.114
334 2 51.5843 31.366 15.8097
335 2 55.5411 31.5507 0.282833
336 2 59.4386 31.4561 0.0136271
337 2 63.5227 31.6311 16.016
338 2 67.4074 31.6296 0.0728262
339 2 71.3806 31.5973 15.9761
340 2 75.5527 31.8295 0.113126
341 2 79.4635 31.7549 0.197342
342 2 83.4238 31.6822 16.0275
343 2 87.304 31.9177 0.417516
344 2 91.3947 31.7172 0.011497
345 2 95.4026 31.9105 0.245728
346 2 99.2135 31.7087 0.0270552
347 2 103.074 31.866 16.2017
348 2 106.92 31.7812 0.0574723
349 2 110.976 31.6091 15.9395
350 2 114.842 31.5037 0.225039
351 2 118.689 31.6194 16.0526
352 2 122.674 31.3712 0.369453
353 2 126.577 31.4491 0.111747
354 2 130.458 31.3593 0.400729
355 2 134.368 31.1703 0.212179
356 2 138.392 31.2518 15.8858
357 2 142.196 31.2342 16.0733
358 2 146.068 31.2052 15.748
359 2 150.182 31.0347 16.0468
360 2 154.096 31.0428 15.9434
361 2 157.978 35.214 16.0537
362 2 3.71311 35.1952 0.183828
363 2 7.3738 35.1367 0.160303
364 2 11.4525 34.8594 16.0232
365 2 15.4862 34.9233 0.172918
366 2 19.2591 34.9716 15.9799
367 2 23.3794 35.2071 16.2172
368 2 27.2308 34.9635 0.191832
369 2 31.3958 35.0189 0.22057
370 2 35.3238 35.139 15.8602
371 2 39.3034 35.3814 0.0851318
372 2 43.2924 35.3776 16.1157
373 2 47.5733 35.2235 15.8106
374 2 51.3041 35.2765 -0.126474
375 2 55.3469 35.3087 15.9509
376 2 59.3611 35.6225 0.295372
377 2 63.3485 35.5653 0.194818
378 2 67.4109 35.6137 0.0797593
379 2 71.5712 35.4477 0.0620058
380 2 75.4828 35.489 15.9855
381 2 79.4445 35.6187 15.9643
382 2 83.3816 35.7235 0.177773
383 2 87.3525 35.9013 0.258776
384 2 91.3468 35.6086 15.8358
385 2 95.4502 35.8401 15.8536
386 2 99.213 35.7827 0.162593
387 2 103.228 35.6715 16.0304
388 2 107.143 35.4932 0.0174963
389 2 110.83 35.7669 15.7755
390 2 114.715 35.4852 0.0393205
391 2 118.815 35.5058 16.098
392 2 122.708 35.421 16.1017
393 2 126.743 35.4168 0.164324
394 2 130.734 35.3747 0.156955
395 2 134.404 35.33 15.8746
396 2 138.409 35.302 16.0594
397 2 142.316 35.21 15.9917
398 2 146.242 35.2589 15.9965
399 2 149.956 35.2764 0.301826
400 2 154.115 35.3135 0.295265
401 2 158.035 39.1341 0.215315
402 2 3.73474 39.1007 15.9677
403 2 7.51214 38.9773 16.0455
404 2 11.6119 38.9961 0.169017
405 2 15.4202 38.7241 0.271997
406 2 19.2169 38.8828 16.0964
407 2 23.4139 39.0464 16.1475
408 2 27.2601 38.9854 0.428052
409 2 31.5026 38.9414 16.0714
410 2 35.244 39.0573 0.35875
411 2 39.2377 39.0838 0.0423077
412 2 43.2339 39.2125 0.0868917
413 2 47.3119 39.2803 0.241293
414 2 51.2387 39.3386 0.0361381
415 2 55.3368 39.278 0.219962
416 2 59.2157 39.3421 0.226594
417 2 63.2019 39.3423 16.0566
418 2 67.4146 39.536 0.151858
419 2 71.351 39.3389 0.244055
420 2 75.2383 39.421 0.375596
421 2 79.3286 39.6652 16.0574
422 2 83.2905 39.7838 15.9303
423 2 87.4064 39.541 15.8262
424 2 91.1894 39.5791 15.8765
425 2 95.4555 39.5917 16.108
426 2 99.1849 39.8031 0.297886
427 2 103.23 39.4543 0.173112
428 2 107.251 39.9427 15.8108
429 2 111.111 39.4309 15.733
430 2 114.885 39.4987 15.8119
431 2 118.889 39.3263 15.9955
432 2 122.973 39.4551 0.321965
433 2 126.761 39.2764 15.9794
434 2 130.661 39.1191 0.269819
435 2 134.697 39.373 0.0163206
436 2 138.452 39.1959 15.9325
437 2 142.281 39.262 15.9727
438 2 146.221 39.0978 0.148644
439 2 150.18 39.1589 15.959
440 2 154.117 39.2151 0.250698
441 2 158.188 43.1405 0.268376
442 2 3.74885 43.0273 0.0935991
443 2 7.54866 43.0899 0.358711
444 2 11.4829 43.0643 0.237373
445 2 15.3788 43.0174 0.205024
446 2 19.3696 42.8866 15.7011
447 2 23.3176 42.9859 0.0569696
448 2 27.6223 42.9295 0.444538
449 2 31.4752 42.8515 0.134747
450 2 35.3665 42.9574 0.283153
451 2 39.3882 42.967 0.168889
452 2 43.4262 43.2744 0.374846
453 2 47.2982 43.2253 0.126445
454 2 51.2467 43.0374 0.0645087
455 2 55.3086 43.0847 0.265686
456 2 59.3098 43.0906 0.256006
457 2 63.2857 43.157 0.00516678
458 2 67.1981 43.4469 15.8788
459 2 71.3586 43.4059 15.9519
460 2 75.3091 43.4 0.269347
461 2 78.9926 43.4664 0.432705
462 2 83.2461 43.6054 15.8573
463 2 87.3383 43.6116 16.0422
464 2 91.3362 43.6265 15.9224
465 2 95.2837 43.6143 0.233977
466 2 99.3045 43.6809 0.0378539
467 2 103.27 43.5405 0.0509913
468 2 107.307 43.4703 0.125487
469 2 111.151 43.4687 15.9739
470 2 115.119 43.5054 15.935
471 2 118.971 43.415 0.0325487
472 2 122.759 43.4053 0.167447
473 2 126.883 43.4284 0.320972
474 2 130.72 43.4361 0.18038
475 2 134.626 43.3015 15.9049
476 2 138.437 43.1906 16.1085
477 2 142.489 43.2985 15.9027
478 2 146.428 43.0608 15.9788
479 2 150.334 43.081 0.0717153
480 2 154.123 43.1169 15.9908
481 2 158.108 47.0655 15.9746
482 2 3.75847 47.0997 16.052
483 2 7.63167 46.9896 16.0463
484 2 11.6179 46.9371 15.8076
485 2 15.4253 46.8737 0.241973
486 2 19.3431 46.9102 15.7899
487 2 23.7091 46.86 0.188582
488 2 27.5802 46.8638 0.182052
489 2 31.2705 46.7793 0.0904805
490 2 35.1861 46.9046 -0.0152388
491 2 39.113 46.7822 0.218473
492 2 43.165 47.0931 0.432791
493 2 47.0189 47.0017 15.9746
494 2 51.2452 47.0695 15.7893
495 2 55.285 47.1484 0.121526
496 2 59.3969 47.0871 15.8949
497 2 63.1885 47.1536 0.404992
498 2 67.0843 47.3986 0.255093
499 2 71.1724 47.2617 0.174012
500 2 75.1227 47.3654 15.6746
501 2 79.2224 47.3995 15.9846
502 2 83.2542 47.3871 0.222757
503 2 87.2592 47.3907 0.137092
504 2 91.2657 47.5226 15.8682
505 2 95.3888 47.5546 -0.110465
506 2 99.2909 47.4451 0.138112
507 2 103.31 47.6464 15.6595
508 2 107.274 47.6135 0.0860338
509 2 111.374 47.7145 16.0038
510 2 115.017 47.6198 15.9839
511 2 118.946 47.4474 0.181226
512 2 123.015 47.5307 0.178767
513 2 126.812 47.4045 0.389257
514 2 130.549 47.4963 0.130546
515 2 134.556 47.3672 15.9699
516 2 138.608 47.3246 0.0349318
517 2 142.651 47.1679 15.8968
518 2 146.418 47.356 0.240097
519 2 150.442 47.1044 15.7613
520 2 154.308 47.1833 0.0890396
521 2 158.159 51.2028 0.22492
522 2 3.97491 51.1388 0.310189
523 2 7.88693 51.0437 0.270861
524 2 11.6787 50.9258 16.0122
525 2 15.4676 50.8758 0.292932
526 2 19.6064 51.0482 0.288509
527 2 23.4673 50.8716 0.103808
528 2 27.357 50.8242 16.0618
529 2 31.3052 50.8012 15.9069
530 2 35.3363 50.8654 0.202529
531 2 39.1458 50.8125 16.0226
532 2 42.9901 50.8238 0.412109
533 2 47.0896 50.7837 0.150476
534 2 51.2147 51.0646 15.8294
535 2 55.0113 51.0805 16.0254
536 2 59.2985 50.9275 15.7751
537 2 63.2018 51.1678 0.0743932
538 2 67.1059 51.0652 -0.0413683
539 2 71.0871 51.1952 15.9613
540 2 75.1691 51.1189 -0.0295808
541 2 79.0446 51.2749 16.0705
542 2 83.1178 51.3553 15.8593
543 2 87.1873 51.2498 15.8343
544 2 91.4135 51.3025 0.382152
545 2 95.1795 51.4199 0.33176
546 2 99.2364 51.3931 16.0542
547 2 103.287 51.2294 0.0932283
548 2 107.153 51.5932 15.8289
549 2 111.028 51.4555 0.104537
550 2 115.066 51.4777 0.225836
551 2 119.074 51.5104 0.339405
552 2 122.941 51.4576 0.386522
553 2 126.863 51.4237 16.0512
554 2 130.742 51.4812 0.190125
555 2 134.515 51.4108 15.8146
556 2 138.733 51.1909 0.254062
557 2 142.652 51.3361 15.9367
558 2 146.572 51.1005 15.9124
559 2 150.352 51.1496 0.0982132
560 2 154.294 51.1651 0.29855
561 2 158.187 55.1304 0.279417
562 2 3.95131 55.1525 0.170082
563 2 7.63621 54.9885 0.1274
564 2 11.7592 54.9133 16.0582
565 2 15.6358 54.9645 15.8982
566 2 19.6041 54.905 16.013
567 2 23.3793 54.8922 15.7619
568 2 27.2305 54.8418 16.0543
569 2 31.1663 54.8976 0.176557
570 2 35.0772 54.7906 16.0923
571 2 39.0849 54.6403 0.268595
572 2 43.1616 54.6448 16.0197
573 2 47.1983 54.775 15.9769
574 2 51.1788 54.9049 15.9508
575 2 55.1696 55.047 0.124291
576 2 59.2654 54.9403 0.321807
577 2 63.4049 55.0536 15.9401
578 2 67.1944 55.1065 0.0457117
579 2 71.2447 55.0356 16.039
580 2 75.2624 54.9631 16.0615
581 2 79.0841 55.132 15.9309
582 2 83.0284 55.1406 16.0311
583 2 87.1581 55.1765 0.159427
584 2 91.1978 55.275 0.0572449
585 2 95.4019 55.2498 0.214778
586 2 99.2455 55.3081 15.8213
587 2 103.303 55.224 0.205994
588 2 107.369 55.5458 -0.035714
589 2 111.255 55.5291 16.0924
590 2 115.298 55.5414 0.256176
591 2 119.181 55.6268 0.164458
592 2 123.206 55.4512 0.138014
593 2 127.165 55.47 15.84
594 2 131.024 55.4266 15.8627
595 2 135.203 55.2899 15.8622
596 2 138.866 55.4142 0.00787382
597 2 142.683 55.3659 0.210681
598 2 146.658 55.0897 15.8445
599 2 150.437 55.1454 15.8466
600 2 154.263 55.0746 0.0509902
601 2 0.0888079 59.0646 0.226043
602 2 4.04005 59.1277 0.0863926
603 2 7.88319 58.9828 0.255542
604 2 11.6094 58.929 16.011
605 2 15.652 58.9703 0.110155
606 2 19.7116 59.02 16.0581
607 2 23.4788 58.8828 16.0266
608 2 27.4027 58.987 0.152103
609 2 31.2759 58.8806 16.122
610 2 35.1895 58.8056 0.206054
611 2 39.135 58.7142 0.2304
612 2 43.2546 58.7873 15.7905
613 2 47.1843 58.6602 0.0571171
614 2 51.1186 58.5366 16.0855
615 2 55.0674 58.7866 16.0291
616 2 59.1143 58.8241 16.0672
617 2 63.2724 58.937 0.210541
618 2 67.1878 59.0305 15.9478
619 2 71.089 58.9598 0.0674114
620 2 75.0294 59.0217 0.213538
621 2 79.1558 59.1308 15.8479
622 2 83.2081 59.1493 16.1216
623 2 87.2062 59.1611 0.0453005
624 2 91.0564 59.0738 0.146799
625 2 95.1869 59.0947 -0.0136317
626 2 99.0784 59.3188 15.8191
627 2 103.217 59.235 0.184723
628 2 107.224 59.2699 -0.0251118
629 2 111.14 59.5052 0.181771
630 2 115.153 59.4186 0.372465
631 2 119.289 59.3986 0.280703
632 2 123.107 59.4562 0.17435
633 2 127.172 59.4187 0.254751
634 2 131.049 59.5703 15.8942
635 2 134.843 59.1765 0.146919
636 2 138.926 59.1772 0.203966
637 2 142.777 59.248 15.9123
638 2 146.668 59.1013 0.153605
639 2 150.56 59.127 0.0836328
640 2 154.559 59.128 0.0404216
641 2 0.00567223 63.1332 15.8379
642 2 4.09239 62.9918 15.9697
643 2 7.97608 63.18 0.104215
644 2 11.7685 63.0082 0.163452
645 2 15.779 63.0188 15.8254
646 2 19.6456 63.0665 16.111
647 2 23.7508 63.0176 15.9126
648 2 27.5454 62.8808 0.152575
649 2 31.5445 63.0578 15.9213
650 2 35.3053 62.7397 16.0821
651 2 39.276 62.8931 0.444442
652 2 43.2699 62.7711 0.124448
653 2 47.2782 62.6669 15.8715
654 2 51.0376 62.5124 -0.00149586
655 2 54.9026 62.714 -0.0370542
656 2 59.1134 62.8804 0.123491
657 2 63.0584 62.9292 0.0457982
658 2 67.0251 62.9106 0.288236
659 2 71.0246 62.9696 0.104367
660 2 74.9904 63.1796 16.0016
661 2 79.2294 63.0139 15.9225
662 2 83.0252 63.0968 15.8696
663 2 87.0906 62.8929 0.214693
664 2 91.1558 63.0529 15.8495
665 2 95.0861 63.0399 0.137963
666 2 99.167 63.1313 0.0259973
667 2 103.328 63.1093 0.105737
668 2 107.339 63.1101 0.122923
669 2 111.525 63.299 0.245159
670 2 115.068 63.2435 0.317613
671 2 119.132 63.3697 15.9446
672 2 123.372 63.5739 15.9546
673 2 127.289 63.4966 15.8546
674 2 131.069 63.5907 0.213155
675 2 135.023 63.2343 15.7611
676 2 138.739 63.19 0.124581
677 2 142.711 63.1642 0.0893319
678 2 146.588 63.2798 0.178159
679 2 150.448 63.4216 15.6836
680 2 154.305 63.1366 15.8854
681 2 0.148587 67.3265 0.16802
682 2 4.14423 66.9928 0.135621
683 2 7.9458 66.9488 0.237309
684 2 11.8269 67.0324 15.9422
685 2 15.6787 66.9712 15.7829
686 2 19.8082 66.8425 16.0431
687 2 23.5328 66.7769 15.959
688 2 27.5852 66.858 16.0164
689 2 31.2955 66.7403 0.197512
690 2 35.2391 66.8529 0.42105
691 2 39.176 67.0143 0.257728
692 2 43.2944 66.6765 16.0021
693 2 47.0369 66.7344 0.297884
694 2 50.9884 66.7368 16.2019
695 2 54.8097 66.5006 15.7347
696 2 58.8702 66.5456 15.7681
697 2 62.8742 66.7322 15.9141
698 2 66.8049 66.4937 16.026
699 2 70.9647 66.7856 0.0489365
700 2 74.9965 66.9331 0.0738246
701 2 79.0182 66.9292 16.0544
702 2 83.2034 66.9692 15.9439
703 2 87.1308 67.0673 15.8295
704 2 91.0404 67.1004 0.205522
705 2 95.1061 67.1868 15.8105
706 2 99.0288 66.8887 15.9272
707 2 103.106 66.9471 0.0519313
708 2 107.257 67.0555 15.7964
709 2 111.184 67.2062 0.0890829
710 2 115.022 67.2461 0.132141
711 2 119.114 67.2313 0.402912
712 2 123.321 67.3046 15.853
713 2 127.123 67.3732 16.1499
714 2 131.243 67.4478 15.7022
715 2 135.268 67.3825 15.843
716 2 138.948 67.3156 15.8115
717 2 142.928 67.146 15.9486
718 2 146.886 67.1979 0.135774
719 2 150.711 67.1521 16.0223
720 2 154.68 67.1289 15.7031
721 2 0.349467 71.2309 16.0023
722 2 4.2135 71.1446 16.0116
723 2 8.0603 70.9112 0.180539
724 2 11.7067 70.9928 15.999
725 2 15.6043 71.002 15.8742
726 2 19.4865 70.9067 0.331624
727 2 23.5463 70.9529 15.982
728 2 27.6422 70.9382 16.0162
729 2 31.4006 70.9631 15.9152
730 2 35.3043 70.73 15.7587
731 2 39.2515 70.7065 15.7968
732 2 43.439 70.6472 0.227454
733 2 47.2737 70.7287 15.78
734 2 51.0484 70.4813 15.8582
735 2 54.9891 70.5286 15.8581
736 2 58.8234 70.6504 -0.0792862
737 2 62.7565 70.4192 15.7155
738 2 66.8702 70.7366 -0.0372449
739 2 70.8382 70.7563 15.7278
740 2 74.9565 70.9089 15.882
741 2 79.0788 70.7211 15.9457
742 2 82.9286 70.8947 0.0463502
743 2 87.1052 70.7782 15.9163
744 2 91.0299 70.9443 -0.152648
745 2 95.0558 70.9259 0.00787745
746 2 99.1653 70.9677 15.9095
747 2 103.003 71.0026 0.210416
748 2 107.223 71.0444 -0.113373
749 2 111.116 71.0943 15.7833
750 2 115.193 71.0104 0.238984
751 2 119.236 71.1686 15.7802
752 2 123.035 71.2046 0.267474
753 2 127.233 71.1118 16.0231
754 2 131.191 71.2987 16.1091
755 2 135.125 71.4351 15.8255
756 2 139.085 71.5035 15.831
757 2 142.986 71.1406 15.7503
758 2 146.832 71.2174 15.8332
759 2 150.753 71.3167 15.9975
760 2 154.844 71.2651 15.8026
761 2 0.355685 75.1626 15.822
762 2 4.39165 75.2666 15.8065
763 2 8.11683 75.0053 15.7932
764 2 11.9166 75.0862 15.999
765 2 15.8109 74.9183 16.023
766 2 19.8126 75.0732 16.1332
767 2 23.7007 74.8855 15.8414
768 2 27.4007 75.0191 16.0544
769 2 31.508 74.9093 0.420033
770 2 35.5126 74.7794 15.94
771 2 39.4756 74.5754 16.112
772 2 43.3413 74.7481 0.186288
773 2 47.163 74.815 16.0709
774 2 51.0495 74.4872 0.038399
775 2 54.9912 74.5882 16.1342
776 2 58.9605 74.6255 15.8399
777 2 63.0266 74.6131 16.0183
778 2 67.064 74.7257 15.9466
779 2 71.0378 74.6926 15.8134
780 2 75.0701 74.5664 0.148932
781 2 78.738 74.8591 15.7086
782 2 83.0455 74.6567 15.8009
783 2 87.1344 74.9386 16.0075
784 2 91.0047 74.7144 0.162266
785 2 94.9434 74.9393 15.676
786 2 99.0387 74.8488 0.123579
787 2 103.109 74.8491 16.1109
788 2 107.055 75.003 0.00761288
789 2 110.963 75.0762 15.7114
790 2 115.012 74.9975 -0.0813231
791 2 119.236 75.1412 15.8205
792 2 123.031 74.9701 16.0094
793 2 127.273 75.0258 0.0611892
794 2 131.149 75.2672 0.214428
795 2 135.215 75.2543 15.9533
796 2 138.883 75.3434 15.8724
797 2 142.626 75.399 -0.00494875
798 2 146.898 75.2967 15.9693
799 2 150.779 75.2663 15.9727
800 2 154.623 75.2437 0.433513
801 2 0.426795 79.035 16.033
802 2 4.26518 79.2812 15.8175
803 2 8.05823 79.0802 16.0084
804 2 12.0278 79.0947 15.8062
805 2 15.8303 79.0819 16.0769
806 2 19.8281 79.0854 16.1873
807 2 23.7377 78.9776 16.057
808 2 27.7473 78.8364 15.943
809 2 31.5636 78.735 0.318857
810 2 35.4668 78.7995 15.9259
811 2 39.3972 78.5932 0.304051
812 2 43.2987 78.7533 0.180109
813 2 47.2433 78.5889 0.391384
814 2 51.199 78.5093 16.0446
815 2 54.9589 78.38 16.0818
816 2 59.0612 78.4046 15.9805
817 2 63.0498 78.6331 15.8986
818 2 66.7992 78.6075 16.0134
819 2 70.9776 78.5752 15.8841
820 2 74.7457 78.4846 16.0357
821 2 79.0978 78.656 0.0247218
822 2 83.0092 78.5017 0.177835
823 2 87.0733 78.6975 0.134843
824 2 91.0328 78.706 0.160696
825 2 94.9799 78.7876 0.111272
826 2 98.877 78.6769 15.9971
827 2 103.074 79.0119 0.203961
828 2 107.177 78.8901 15.9281
829 2 111.146 78.8267 0.30354
830 2 115.163 78.9919 15.6641
831 2 119.054 79.2898 0.275907
832 2 123.14 78.998 0.0981309
833 2 127.042 79.135 16.0959
834 2 131.144 79.0192 0.311797
835 2 135.214 79.2976 15.8415
836 2 138.925 79.3913 15.7864
837 2 143.081 79.3551 15.9594
838 2 147.114 79.3379 15.827
839 2 150.862 79.1885 15.9471
840 2 154.488 79.2503 16.0094
841 2 0.564132 83.1366 15.9739
842 2 4.35193 83.2471 16.0505
843 2 8.06566 83.155 16.0226
844 2 11.9355 83.1751 15.9014
845 2 15.9337 82.9121 16.1317
846 2 19.8238 83.0014 15.8989
847 2 23.6867 82.7638 16.0156
848 2 27.8021 82.7581 16.1258
849 2 31.5568 82.8776 16.0973
850 2 35.5346 82.7165 15.9115
851 2 39.2945 82.7566 0.238045
852 2 43.2644 82.5167 15.974
853 2 47.3236 82.4516 15.9744
854 2 51.1378 82.5148 16.0822
855 2 55.0489 82.6047 16.0512
856 2 58.9539 82.4877 15.8988
857 2 62.8187 82.5479 16.1055
858 2 67.0847 82.532 0.330043
859 2 70.9226 82.559 0.0517055
860 2 74.8543 82.4585 15.9874
861 2 78.8737 82.5871 0.266042
862 2 82.9776 82.5386 15.9808
863 2 86.8947 82.6198 15.9732
864 2 90.8851 82.7466 0.154394
865 2 95.0611 82.6414 15.9184
866 2 98.7568 82.6959 15.9937
867 2 103.042 82.6887 0.159795
868 2 106.976 82.6057 0.199597
869 2 111.184 82.929 15.8659
870 2 114.987 82.7714 15.7143
871 2 118.925 83.011 0.294405
872 2 123.172 82.765 15.9477
873 2 127.113 83.1573 0.13916
874 2 131.212 83.164 16.0071
875 2 135.104 83.0858 0.225132
876 2 139.099 83.3334 15.7591
877 2 143.036 83.4584 0.0967249
878 2 146.904 83.2912 -0.0889529
879 2 150.847 83.4487 15.9391
880 2 154.867 83.2589 15.9089
881 2 0.272688 87.2899 15.9729
882 2 4.27017 87.1051 0.230027
883 2 8.24277 87.1868 15.8254
884 2 12.1526 87.2115 15.9634
885 2 15.9094 86.984 0.389917
886 2 19.9021 86.9835 15.9478
887 2 23.7687 87.0201 16.0295
888 2 27.707 86.845 15.9675
889 2 31.6959 86.8172 15.9642
890 2 35.61 87.0398 15.8546
891 2 39.4924 86.7216 16.0916
892 2 43.5004 86.6342 16.0283
893 2 47.3845 86.6431 0.23381
894 2 51.2193 86.6769 0.348089
895 2 55.1645 86.6344 0.0315303
896 2 58.9664 86.4923 15.9978
897 2 63.0189 86.3177 15.9654
898 2 66.8782 86.3903 0.407281
899 2 70.8169 86.5016 0.0499155
900 2 74.7306 86.5846 15.9774
901 2 79.127 86.4452 0.0787778
902 2 82.9938 86.5788 0.134126
903 2 86.9759 86.7028 15.898
904 2 90.8999 86.3751 0.0279451
905 2 94.9604 86.602 16.0714
906 2 98.9783 86.5623 15.8946
907 2 103.114 86.5144 0.15215
908 2 107.044 86.6313 0.339862
909 2 111.137 86.6546 15.9364
910 2 115.144 86.7553 0.197229
911 2 118.972 86.8505 0.118507
912 2 123.086 86.8172 0.160111
913 2 127.093 86.9098 15.9643
914 2 131.167 87.0378 0.234781
915 2 134.957 87.0498 16.0466
916 2 139.205 87.1738 0.18097
917 2 142.968 87.2933 0.0627754
918 2 146.982 87.3789 0.223984
919 2 151.127 87.3064 15.8434
920 2 154.816 87.2839 15.9584
921 2 0.387201 91.1045 16.0035
922 2 4.29514 91.1944 0.168568
923 2 8.27816 91.1043 0.150738
924 2 12.1755 91.1457 0.307153
925 2 16.1057 91.1347 16.1277
926 2 19.9945 91.0115 16.2236
927 2 23.6715 90.9591 16.0602
928 2 27.7451 90.788 16.0238
929 2 31.7454 90.8878 16.1944
930 2 35.5946 90.8418 16.0596
931 2 39.5241 90.8512 15.8724
932 2 43.6162 90.6427 0.216935
933 2 47.239 90.5277 16.1408
934 2 51.2317 90.683 15.9785
935 2 55.1825 90.6755 15.9033
936 2 59.0262 90.4591 16.195
937 2 63.2612 90.5367 0.256551
938 2 66.9985 90.2857 16.0095
939 2 70.8535 90.4129 15.9853
940 2 74.7101 90.2833 15.9521
941 2 78.7776 90.3304 0.204894
942 2 82.7898 90.308 0.00943982
943 2 86.9285 90.3457 15.6823
944 2 90.7914 90.2634 -0.0512311
945 2 94.9525 90.5096 -0.114382
946 2 98.8199 90.5749 0.279511
947 2 102.829 90.6609 0.283175
948 2 106.992 90.6858 0.252251
949 2 111.03 90.5931 16.1576
950 2 114.906 90.6031 0.179377
951 2 119.039 90.6128 0.0755028
952 2 123.071 90.9306 0.105757
953 2 127.04 90.8459 0.0932362
954 2 130.796 90.9363 15.9093
955 2 134.735 90.979 -0.00346084
956 2 138.907 91.1656 0.29709
957 2 142.878 91.3604 0.167936
958 2 146.948 91.1353 0.193937
959 2 150.919 91.3496 16.0966
960 2 154.707 91.1515 0.232586
961 2 0.478804 95.0166 16.0099
962 2 4.3682 95.1939 15.8183
963 2 8.32433 95.1223 -0.0509417
964 2 12.1733 95.1882 16.1363
965 2 16.0046 95.0772 15.9296
966 2 19.9466 94.9035 16.0437
967 2 23.8039 94.8532 16.0338
968 2 27.6859 94.8586 16.0486
969 2 31.5868 94.7263 15.9588
970 2 35.6382 94.8987 0.23971
971 2 39.752 94.985 16.1422
972 2 43.4532 94.6688 16.0026
973 2 47.2705 94.6097 16.1536
974 2 51.437 94.6088 0.497502
975 2 55.1954 94.6036 15.9496
976 2 59.0771 94.3723 15.9681
977 2 63.0627 94.3934 15.9482
978 2 66.9595 94.4775 0.366321
979 2 70.8953 94.1578 0.305361
980 2 74.81 94.2086 15.9253