ITEM: TIMESTEP
17900
ITEM: NUMBER OF ATOMS
32000
ITEM: BOX BOUNDS xy xz yz pp pp pp
0.0000000000000000e+00 1.5831999999999999e+02 0.0000000000000000e+00
0.0000000000000000e+00 1.5831999999999999e+02 0.0000000000000000e+00
1.6311202136668879e-01 1.5934599978633116e+01 0.0000000000000000e+00
ITEM: ATOMS id type x y z
1 2 158.2 157.863 15.8724
2 2 3.7129 158.006 0.215554
3 2 7.71462 157.807 0.153356
4 2 11.7644 158.112 15.8431
5 2 15.8575 158.136 0.175052
6 2 19.897 158.105 0.00698013
7 2 23.9352 158.225 16.0077
8 2 27.7039 158.213 0.13095
9 2 31.658 158.115 15.7858
10 2 35.788 158.295 0.160565
11 2 39.6994 158.2 0.256481
12 2 43.6392 158.35 16.215
13 2 47.924 -0.115498 15.897
14 2 51.826 0.0708687 16.1545
15 2 55.7287 158.345 16.033
16 2 59.8461 0.0596439 15.8651
17 2 63.3626 0.177547 0.0317235
18 2 67.5088 0.0293437 0.275911
19 2 71.3596 158.305 16.0362
20 2 75.3665 158.211 16.0563
21 2 79.3303 158.363 15.9608
22 2 83.4716 158.189 0.063742
23 2 87.2232 158.201 0.032439
24 2 91.0507 158.142 0.21742
25 2 94.9534 157.924 -0.235983
26 2 98.7264 157.877 0.031359
27 2 102.537 157.767 0.274002
28 2 106.435 157.872 15.8089
29 2 110.468 157.84 0.192545
30 2 114.425 157.763 0.254144
31 2 118.386 157.79 -0.161917
32 2 122.351 157.681 15.9814
33 2 126.202 157.566 15.8815
34 2 130.099 157.49 15.8416
35 2 134.111 157.681 15.9066
36 2 138.307 157.604 15.8544
37 2 142.091 157.656 15.9074
38 2 146.052 157.731 16.0208
39 2 150.024 157.757 15.9429
40 2 154.072 157.88 15.9842
41 2 158.121 3.58715 0.17677
42 2 3.67495 3.52305 15.8887
43 2 7.7056 3.60631 0.116573
44 2 11.6416 3.51802 -0.111305
45 2 15.8588 3.64234 0.1899
46 2 19.8178 3.76877 16.0361
47 2 23.8123 3.84856 0.0864502
48 2 27.7434 3.7626 0.112967
49 2 31.6607 3.79247 0.273287
50 2 35.77 3.76584 0.130879
51 2 39.8128 3.91752 0.0285168
52 2 43.7414 3.94308 0.297788
53 2 47.5115 4.05076 15.8484
54 2 51.7631 4.09715 0.144503
55 2 55.7221 4.07658 0.111272
56 2 59.7811 4.01121 0.0299436
57 2 63.6667 4.08742 16.0116
58 2 67.5322 3.95273 0.214969
59 2 71.6908 4.08749 0.279592
60 2 75.3702 4.02342 0.200763
61 2 79.1608 4.02254 0.382084
62 2 83.1367 3.86132 0.108302
63 2 87.1199 3.95719 0.187235
64 2 91.0728 3.93984 0.226058
65 2 94.9946 3.79562 15.6527
66 2 98.8101 3.5872 0.137079
67 2 102.622 3.67786 -0.0241045
68 2 106.718 3.52919 15.8779
69 2 110.847 3.58643 15.7528
70 2 114.405 3.56203 15.8687
71 2 118.445 3.35068 16.0595
72 2 122.304 3.28067 -0.0191915
73 2 126.272 3.33469 15.9226
74 2 130.262 3.24312 0.185451
75 2 134.192 3.33303 15.7988
76 2 138.034 3.30347 -0.0306368
77 2 142.103 3.14902 15.7839
78 2 146.022 3.26566 0.227408
79 2 149.964 3.36759 16.0319
80 2 153.971 3.48086 15.8402
81 2 157.966 7.37918 0.220567
82 2 3.58893 7.4704 16.0146
83 2 7.71908 7.42526 15.7932
84 2 11.7877 7.34881 15.9747
85 2 15.7775 7.66637 0.215934
86 2 19.6578 7.69132 16.0101
87 2 23.8587 7.75091 0.120931
88 2 27.7283 7.60682 0.193956
89 2 31.7868 7.62621 15.8215
90 2 35.7495 7.76507 15.9554
91 2 39.6075 7.83358 15.9638
92 2 43.3618 7.96606 15.9599
93 2 47.7097 7.87317 0.106057
94 2 51.806 7.81005 16.0309
95 2 55.6846 7.91282 0.380751
96 2 59.835 7.96691 0.292575
97 2 63.6546 8.10276 0.248685
98 2 67.6798 8.0926 0.157276
99 2 71.4303 7.86078 0.102449
100 2 75.4967 8.19429 0.199915
101 2 79.3689 7.75526 16.0022
102 2 83.3654 7.85842 0.212442
103 2 87.2029 7.86964 15.9172
104 2 91.2543 7.80483 0.0145887
105 2 95.047 7.77873 -0.0513098
106 2 99.1418 7.53554 0.156589
107 2 102.804 7.60941 0.312084
108 2 106.758 7.45813 0.0202449
109 2 110.696 7.42823 0.0990545
110 2 114.494 7.5668 0.119254
111 2 118.359 7.49447 0.221906
112 2 122.425 7.31913 0.312678
113 2 126.209 7.20551 15.8483
114 2 130.185 7.42314 0.134299
115 2 134.09 7.20935 0.147641
116 2 138.103 7.22513 16.1507
117 2 141.901 7.1659 15.9526
118 2 145.693 7.17088 0.239426
119 2 150.12 7.23357 15.9096
120 2 153.956 7.30813 15.7372
121 2 157.958 11.3559 0.105098
122 2 3.66174 11.2312 0.31636
123 2 7.70227 11.4179 15.8321
124 2 11.6946 11.445 15.8061
125 2 15.6892 11.4255 16.0723
126 2 19.7934 11.4756 0.213394
127 2 23.5787 11.773 0.00804492
128 2 27.5725 11.567 0.127712
129 2 31.7863 11.4445 0.0915454
130 2 35.6876 11.7557 0.235974
131 2 39.6471 11.7703 0.11119
132 2 43.7076 11.7559 16.0347
133 2 47.6326 11.5552 15.9588
134 2 51.5586 11.8641 15.8391
135 2 55.5223 12.0397 0.118907
136 2 59.7577 12.1409 16.1267
137 2 63.712 12.14 0.0268397
138 2 67.695 12.0482 15.8089
139 2 71.5823 11.931 0.203909
140 2 75.4623 11.886 0.0898889
141 2 79.3418 11.8335 0.106256
142 2 83.4918 11.9138 0.104161
143 2 87.2449 11.7037 0.00463998
144 2 91.2079 11.6154 0.0546302
145 2 94.9319 11.6193 0.100611
146 2 98.9295 11.5559 0.227775
147 2 103.021 11.5089 0.0706738
148 2 106.818 11.3716 0.00994129
149 2 110.902 11.5689 0.232398
150 2 114.545 11.4563 -0.0323722
151 2 118.426 11.5191 0.384698
152 2 122.567 11.5811 0.235399
153 2 126.262 11.5671 0.128529
154 2 130.369 11.2138 16.0478
155 2 134.179 11.3697 -0.000764169
156 2 138.122 11.2113 0.132274
157 2 142.035 11.3432 15.9959
158 2 145.879 11.177 15.9181
159 2 149.975 11.159 15.7431
160 2 153.861 11.2563 15.957
161 2 157.844 15.2381 0.213775
162 2 3.55383 15.2695 0.119248
163 2 7.42778 15.4418 0.0761441
164 2 11.4682 15.2284 15.9646
165 2 15.5342 15.2591 15.991
166 2 19.537 15.6031 0.260781
167 2 23.397 15.5569 0.194188
168 2 27.4709 15.4115 15.8913
169 2 31.5632 15.6262 16.0911
170 2 35.5678 15.675 0.343045
171 2 39.4701 15.4975 15.8425
172 2 43.7242 15.5973 0.331111
173 2 47.6473 15.6481 0.367762
174 2 51.6549 15.8042 0.226276
175 2 55.5437 15.7696 15.9509
176 2 59.6083 16.0865 0.0332121
177 2 63.4535 16.0283 0.110953
178 2 67.5615 15.8782 0.0417361
179 2 71.7201 16.004 0.0453544
180 2 75.7609 15.7 15.7868
181 2 79.4873 15.8308 0.186862
182 2 83.4653 15.9673 -0.0411506
183 2 87.1815 15.7819 0.182717
184 2 91.1901 15.8254 0.117759
185 2 95.1894 15.7804 0.448533
186 2 98.9944 15.71 0.202723
187 2 102.858 15.6114 0.0794901
188 2 106.879 15.3993 0.132341
189 2 110.819 15.6456 -0.0594121
190 2 114.581 15.4637 0.0614865
191 2 118.651 15.4239 0.01563
192 2 122.498 15.4386 15.8639
193 2 126.538 15.3592 0.0994262
194 2 130.274 15.3915 0.206421
195 2 134.128 15.387 0.0192954
196 2 138.139 15.3038 0.035706
197 2 141.936 15.4153 0.266626
198 2 146.021 15.2526 0.440049
199 2 149.915 15.0145 16.0484
200 2 153.769 15.1951 0.132958
201 2 157.853 19.0307 15.9927
202 2 3.36139 19.1841 0.190856
203 2 7.55503 19.232 15.7982
204 2 11.4178 19.2599 15.8917
205 2 15.2802 19.2214 15.9211
206 2 19.3839 19.3408 0.174052
207 2 23.5334 19.4208 0.230256
208 2 27.5317 19.299 0.179433
209 2 31.4331 19.3388 15.9375
210 2 35.53 19.5062 16.0305
211 2 39.3922 19.5967 0.119299
212 2 43.5404 19.4697 15.9073
213 2 47.5062 19.8024 15.8837
214 2 51.5645 19.562 15.8449
215 2 55.4247 19.9305 15.948
216 2 59.5953 19.6782 15.8994
217 2 63.5619 19.7935 15.8788
218 2 67.626 20.032 15.8936
219 2 71.6589 19.7828 -0.124058
220 2 75.7758 19.9284 0.0504194
221 2 79.5362 19.8769 0.0929706
222 2 83.4133 19.7549 -0.032246
223 2 87.2944 20.0045 15.6849
224 2 91.1845 19.7263 0.202757
225 2 95.0875 19.7081 0.235595
226 2 99.0698 19.8197 15.9159
227 2 102.737 19.7119 15.8767
228 2 107.029 19.4684 16.1058
229 2 110.959 19.6007 0.270534
230 2 114.793 19.6369 0.0344839
231 2 118.565 19.3616 15.9771
232 2 122.555 19.3484 0.167033
233 2 126.608 19.6089 0.148963
234 2 130.413 19.374 0.182185
235 2 134.267 19.3514 16.0321
236 2 138.054 19.3051 16.0136
237 2 142.129 19.2289 0.180354
238 2 146.198 19.2149 0.316444
239 2 149.902 19.1362 0.0921221
240 2 153.844 19.0913 16.0197
241 2 157.886 23.0302 15.9736
242 2 3.43408 23.0295 15.8098
243 2 7.49761 23.0682 0.174947
244 2 11.5501 23.1016 16.0995
245 2 15.3797 23.3627 15.7938
246 2 19.5168 23.1845 0.177078
247 2 23.5517 23.3478 15.8187
248 2 27.4945 23.3361 15.9967
249 2 31.2898 23.2935 0.115759
250 2 35.4501 23.6917 16.0022
251 2 39.6387 23.4021 0.208616
252 2 43.5382 23.4107 15.9096
253 2 47.7316 23.4954 15.8308
254 2 51.523 23.6503 0.00665031
255 2 55.536 23.5946 15.8138
256 2 59.6717 23.6592 15.9032
257 2 63.61 23.736 16.0114
258 2 67.5307 23.8679 0.228664
259 2 71.5408 23.7037 0.0221382
260 2 75.5831 23.8321 0.270553
261 2 79.7079 23.6648 15.8865
262 2 83.4209 23.8967 15.9287
263 2 87.6041 23.987 0.114499
264 2 91.4735 23.6999 15.8365
265 2 95.3054 23.5069 15.7587
266 2 99.1001 23.8271 0.0473306
267 2 102.946 23.6153 -0.0104834
268 2 106.91 23.7565 0.146024
269 2 110.666 23.5641 0.152601
270 2 114.795 23.4324 15.879
271 2 118.64 23.4896 16.0862
272 2 122.513 23.3121 0.166307
273 2 126.506 23.3606 0.348543
274 2 130.272 23.4346 16.0727
275 2 134.223 23.3101 0.384645
276 2 138.348 23.2131 15.851
277 2 142.261 23.1979 0.0730517
278 2 146.243 23.2264 0.314623
279 2 150.199 23.1356 0.0781737
280 2 154.008 23.1084 0.259444
281 2 157.943 27.1221 0.216738
282 2 3.57145 27.0735 16.0993
283 2 7.48045 27.1185 0.0990635
284 2 11.2907 27.0198 16.1246
285 2 15.4633 27.4501 16.0397
286 2 19.4302 27.1251 0.151622
287 2 23.3621 27.2309 0.289133
288 2 27.4888 27.4289 0.167718
289 2 31.5171 27.3274 15.8704
290 2 35.5144 27.4866 0.04659
291 2 39.4407 27.3681 0.150888
292 2 43.433 27.3275 15.9171
293 2 47.5664 27.3875 -0.104312
294 2 51.45 27.4044 0.108061
295 2 55.5277 27.4452 0.120973
296 2 59.4656 27.5299 0.125666
297 2 63.2908 27.5832 0.188054
298 2 67.6667 27.5096 0.278477
299 2 71.4084 27.6005 0.166588
300 2 75.4938 27.6837 15.9239
301 2 79.3964 27.7727 0.057312
302 2 83.4089 27.9904 15.8045
303 2 87.3971 27.8455 -0.0209733
304 2 91.365 27.8984 15.9251
305 2 95.3741 27.8291 15.7811
306 2 99.0681 27.6725 0.172392
307 2 102.962 27.484 0.117216
308 2 107.043 27.412 16.0811
309 2 110.918 27.5494 0.2636
310 2 114.871 27.3906 16.0382
311 2 118.714 27.5652 15.9222
312 2 122.837 27.427 0.216638
313 2 126.576 27.3229 0.313706
314 2 130.365 27.3207 0.134796
315 2 134.429 27.3497 15.7896
316 2 138.269 27.2656 0.250415
317 2 142.202 27.3697 0.0182032
318 2 146.269 27.2926 0.0334846
319 2 150.016 27.2732 0.18138
320 2 153.977 27.304 16.1204
321 2 158.144 31.0925 15.9964
322 2 3.6575 31.1992 0.122637
323 2 7.38817 31.1429 0.684141
324 2 11.4172 31.046 15.7995
325 2 15.578 31.1751 0.23777
326 2 19.3485 31.1699 16.1437
327 2 23.4664 31.1232 16.1365
328 2 27.46 31.0003 0.126257
329 2 31.2406 31.2678 0.154936
330 2 35.6038 31.334 15.931
331 2 39.3785 31.1949 15.8472
332 2 43.324 31.1686 0.15997
333 2 47.3576 31.272 15.8962
334 2 51.4091 31.4387 15.9612
335 2 55.416 31.3491 0.287198
336 2 59.3019 31.1719 0.117901
337 2 63.287 31.421 15.8159
338 2 67.5771 31.3593 0.131526
339 2 71.6598 31.5422 16.0104
340 2 75.3124 31.6456 0.154346
341 2 79.4269 31.6469 0.122604
342 2 83.5556 31.8423 16.002
343 2 87.4965 31.6147 0.153592
344 2 91.4555 31.9515 0.327543
345 2 95.36 31.7627 -0.121503
346 2 99.2493 31.5852 0.229037
347 2 103.029 31.6616 15.7754
348 2 107.064 31.5108 0.057919
349 2 110.971 31.4273 16.0011
350 2 114.998 31.542 0.0128514
351 2 118.812 31.5323 15.9384
352 2 122.796 31.2768 0.0717134
353 2 126.762 31.315 0.250815
354 2 130.516 31.3208 0.0725224
355 2 134.545 31.2952 0.0807741
356 2 138.32 31.3193 15.9392
357 2 142.446 31.2176 15.9247
358 2 146.245 31.1562 15.9798
359 2 150.138 31.21 15.9465
360 2 154.092 31.2912 16.1121
361 2 158.052 35.1173 15.9196
362 2 3.69513 35.0899 0.39427
363 2 7.57 35.0453 0.366138
364 2 11.5646 35.092 16.1093
365 2 15.4719 34.9477 0.456115
366 2 19.4472 35.0177 16.0298
367 2 23.4578 34.9841 16.0083
368 2 27.3154 35.0178 0.251813
369 2 31.2755 35.2666 0.244808
370 2 35.3062 35.2078 16.0207
371 2 39.5533 35.0897 0.20658
372 2 43.3744 35.3703 16.0947
373 2 47.3468 35.0139 15.8884
374 2 51.4392 35.2683 0.330157
375 2 55.4191 35.2182 15.781
376 2 59.423 35.4095 0.133094
377 2 63.2801 35.3501 0.10759
378 2 67.3771 35.2758 0.291622
379 2 71.3054 35.5734 0.187113
380 2 75.4169 35.4527 16.0397
381 2 79.3758 35.5716 15.9175
382 2 83.4875 35.5679 0.227621
383 2 87.4693 35.5897 0.057075
384 2 91.52 35.7535 16.0052
385 2 95.28 35.7443 15.7802
386 2 99.4182 35.6457 0.0793299
387 2 103.245 35.9312 15.8141
388 2 107.108 35.5025 0.0899204
389 2 111.205 35.6782 15.994
390 2 115.084 35.6293 0.00492647
391 2 118.974 35.5089 15.8973
392 2 122.691 35.3643 15.9809
393 2 126.665 35.3041 0.230139
394 2 130.618 35.563 0.326984
395 2 134.598 35.4911 16.0581
396 2 138.532 35.3532 15.8183
397 2 142.397 35.3562 15.989
398 2 146.448 35.2686 15.8152
399 2 150.38 35.1248 0.366014
400 2 154.285 35.1523 0.176271
401 2 158.186 39.0416 0.292072
402 2 3.80362 38.9009 15.9347
403 2 7.57601 39.0268 15.9812
404 2 11.5561 39.2263 0.180004
405 2 15.3994 39.2138 0.218848
406 2 19.5694 38.8494 16.1006
407 2 23.3468 38.7475 15.8797
408 2 27.3602 38.855 0.177579
409 2 31.2516 39.0438 15.9091
410 2 35.3373 39.1558 0.3018
411 2 39.3162 38.8803 0.287842
412 2 43.3931 38.9374 0.118981
413 2 47.3043 39.1389 0.211282
414 2 51.3254 39.1822 0.0846486
415 2 55.4397 39.2364 0.182034
416 2 59.4657 39.2031 0.186307
417 2 63.3518 39.2621 16.0455
418 2 67.273 39.2376 0.202143
419 2 71.4049 39.3064 0.121494
420 2 75.4723 39.6072 0.198828
421 2 79.3545 39.4119 15.8892
422 2 83.5324 39.4253 16.0323
423 2 87.5173 39.5458 15.9801
424 2 91.3632 39.6964 15.8973
425 2 95.4101 39.7038 16.0097
426 2 99.2755 39.5667 0.250776
427 2 103.178 39.9049 0.0832072
428 2 107.141 39.6397 15.92
429 2 111.291 39.7024 15.9174
430 2 115.01 39.6414 16.0019
431 2 118.885 39.7778 15.9493
432 2 122.825 39.6212 0.0403448
433 2 126.772 39.4466 15.8511
434 2 130.686 39.514 0.0893887
435 2 134.525 39.2779 0.357759
436 2 138.501 39.2874 16.0076
437 2 142.429 39.2162 16.0468
438 2 146.487 39.1188 0.0474182
439 2 150.223 39.1434 15.9456
440 2 154.044 39.0611 0.00648304
441 2 158.07 43.0712 0.250801
442 2 3.58394 43.1719 0.29255
443 2 7.61836 43.0772 0.130936
444 2 11.6769 43.113 0.291782
445 2 15.4235 43.0182 0.137676
446 2 19.4869 42.9511 16.1417
447 2 23.185 42.8184 0.21887
448 2 27.2206 42.7864 0.105511
449 2 31.1161 42.9438 0.298308
450 2 35.0248 42.8652 0.184158
451 2 39.0327 43.0117 0.198509
452 2 43.3122 42.9766 0.205793
453 2 47.3305 43.1 0.382329
454 2 51.3668 43.2037 0.287488
455 2 55.2757 43.0015 0.057367
456 2 59.4149 43.2458 0.0612465
457 2 63.2925 43.2786 0.46377
458 2 67.152 43.0759 15.9553
459 2 71.1651 43.532 16.0094
460 2 75.3159 43.1836 0.142487
461 2 79.4512 43.2749 0.164454
462 2 83.3677 43.4656 16.0218
463 2 87.3603 43.6182 15.9106
464 2 91.4121 43.6356 15.9732
465 2 95.294 43.6052 0.0101222
466 2 99.2597 43.687 0.21326
467 2 103.41 43.8284 0.079467
468 2 107.446 43.7144 0.0766732
469 2 111.154 43.6909 15.8561
470 2 114.957 43.6035 15.911
471 2 119.014 43.5523 0.119345
472 2 122.95 43.7328 -0.0570219
473 2 126.724 43.4651 -0.0499088
474 2 130.705 43.4451 0.256874
475 2 134.641 43.2624 16.0899
476 2 138.54 43.211 16.0093
477 2 142.549 43.2997 15.6139
478 2 146.366 43.3877 15.7049
479 2 150.296 43.2159 0.0919573
480 2 154.226 43.071 16.0216
481 2 158.104 46.9448 16.0759
482 2 3.73968 46.9502 15.825
483 2 7.79832 47.0564 16.0049
484 2 11.7071 47.0158 15.8918
485 2 15.5691 46.8908 0.191565
486 2 19.2841 47.0427 15.8681
487 2 23.1715 46.9028 0.250214
488 2 26.9939 46.9267 0.176273
489 2 31.1143 46.8162 0.424403
490 2 35.2695 46.7255 0.382374
491 2 39.2623 47.01 0.123989
492 2 43.2686 46.7113 0.323137
493 2 47.048 46.9818 16.0396
494 2 51.4046 46.9162 15.9699
495 2 55.2779 47.1282 0.177972
496 2 59.2533 47.1955 15.9775
497 2 63.3136 47.1768 0.046
498 2 67.3375 47.1182 0.187124
499 2 71.3305 47.3108 0.215791
500 2 75.1751 47.2819 16.0008
501 2 79.208 47.2917 15.8326
502 2 83.2959 47.401 0.22053
503 2 87.2849 47.3466 0.140167
504 2 91.1824 47.4631 16.0006
505 2 95.2462 47.5417 0.352205
506 2 99.3321 47.4984 0.0819695
507 2 103.178 47.6323 16.0163
508 2 107.247 47.8484 0.248817
509 2 111.243 47.5261 15.8166
510 2 115.228 47.6731 15.7409
511 2 119.007 47.5191 0.255225
512 2 123.149 47.6634 0.126821
513 2 126.986 47.5187 0.208074
514 2 130.838 47.2712 0.231562
515 2 134.703 47.253 16.0696
516 2 138.521 47.365 0.303664
517 2 142.374 47.3012 15.9445
518 2 146.457 47.2412 0.384165
519 2 150.467 47.1164 15.926
520 2 154.167 47.1323 0.109205
521 2 158.292 51.0061 0.279683
522 2 3.59163 51.1662 0.0946942
523 2 7.63449 51.0144 0.133703
524 2 11.5521 51.0885 15.9489
525 2 15.4547 51.0406 0.150462
526 2 19.6207 50.9819 0.164633
527 2 23.387 50.8888 0.200015
528 2 27.2164 50.8202 15.9867
529 2 31.1354 50.7895 16.1956
530 2 35.1163 50.8397 0.554059
531 2 39.2484 50.9322 16.0817
532 2 43.2575 50.8415 0.108931
533 2 47.2835 50.9056 0.220374
534 2 51.1546 50.8009 15.83
535 2 55.0967 50.8677 15.8817
536 2 59.2279 51.0717 15.9356
537 2 63.1492 51.0509 0.236338
538 2 67.1754 51.0782 0.421639
539 2 71.11 51.1195 15.7664
540 2 75.3271 51.3384 0.358772
541 2 79.2642 51.0962 15.9049
542 2 83.4579 51.2874 16.0217
543 2 87.1835 51.5406 16.0198
544 2 91.2054 51.3807 0.132424
545 2 95.226 51.3816 0.0495076
546 2 99.1987 51.5181 15.7833
547 2 103.299 51.5462 0.0950973
548 2 107.242 51.5585 15.9956
549 2 111.408 51.6056 0.248037
550 2 115.39 51.664 0.263611
551 2 119.308 51.3916 0.147824
552 2 123.2 51.5401 0.199607
553 2 126.951 51.4405 15.7613
554 2 131.012 51.2595 0.200938
555 2 134.913 51.2485 15.8323
556 2 138.543 51.2417 0.128278
557 2 142.435 51.125 15.9383
558 2 146.449 51.1574 16.0567
559 2 150.336 51.2727 0.227052
560 2 154.336 51.3829 0.0624184
561 2 158.403 55.2139 0.0792809
562 2 3.93468 55.1618 0.161008
563 2 7.77093 54.9957 0.226891
564 2 11.7285 55.3276 16.2326
565 2 15.5825 54.9764 15.9546
566 2 19.5205 54.9384 15.9583
567 2 23.4445 54.844 16.0816
568 2 27.4573 54.9248 15.8943
569 2 31.3197 54.8272 0.477712
570 2 35.2336 54.7018 16.0126
571 2 39.1967 54.8761 0.206164
572 2 43.0289 54.7757 15.9915
573 2 47.0195 54.8574 15.997
574 2 50.9815 54.7877 15.9569
575 2 55.0437 54.7865 0.160618
576 2 59.0297 54.9172 0.0324968
577 2 63.0621 55.0038 15.9124
578 2 67.1146 54.8903 0.30826
579 2 71.2033 55.1039 16.02
580 2 75.0381 55.2928 15.7763
581 2 79.2738 55.1694 15.7424
582 2 83.3021 55.1331 15.9631
583 2 87.094 55.3282 0.0628151
584 2 91.1515 55.4353 0.320339
585 2 95.3284 55.4376 0.186847
586 2 99.2429 55.3268 15.8717
587 2 103.412 55.5255 0.208539
588 2 107.299 55.4573 0.238827
589 2 111.247 55.3468 15.7644
590 2 115.389 55.58 0.214166
591 2 119.237 55.5636 0.254759
592 2 123.003 55.5201 0.385426
593 2 126.958 55.3572 15.9639
594 2 130.936 55.3311 15.8739
595 2 134.764 55.3871 15.7526
596 2 138.724 55.2763 0.159927
597 2 142.576 55.3517 0.389274
598 2 146.536 55.3514 15.9609
599 2 150.402 55.2235 16.124
600 2 154.414 55.1972 0.325722
601 2 -0.109179 59.2441 0.144148
602 2 3.69428 59.0221 0.0421989
603 2 7.75481 59.1514 0.104629
604 2 11.8084 59.1851 15.8359
605 2 15.6771 58.9204 0.20655
606 2 19.5786 59.0232 15.9433
607 2 23.5286 58.6794 16.0285
608 2 27.3922 58.8684 0.228579
609 2 31.3691 58.8036 16.0321
610 2 35.1598 58.7676 0.215419
611 2 39.2429 58.8822 0.204569
612 2 43.0143 58.8168 16.1956
613 2 46.8873 58.6342 0.233013
614 2 51.0697 58.8271 16.0089
615 2 55.0933 58.8642 15.8165
616 2 58.9514 58.9387 15.8341
617 2 62.9952 58.9457 0.0932398
618 2 67.0823 58.8319 15.8268
619 2 71.1507 58.8737 0.241122
620 2 75.2058 58.931 0.0650466
621 2 79.2547 59.0068 16.0797
622 2 83.2585 59.0129 15.8604
623 2 87.1225 59.1236 0.284604
624 2 91.1559 59.2644 0.18478
625 2 95.3447 59.4097 0.261248
626 2 99.0837 59.1535 15.7884
627 2 103.282 59.3754 0.302509
628 2 107.308 59.2648 0.24732
629 2 111.31 59.3019 0.0354167
630 2 115.324 59.36 -0.0547572
631 2 119.247 59.5207 0.202057
632 2 123.294 59.4947 0.0762833
633 2 127.112 59.4855 0.12318
634 2 130.929 59.2829 15.7868
635 2 134.995 59.4367 0.150263
636 2 138.956 59.3077 0.190432
637 2 142.64 59.3704 16.0724
638 2 146.679 59.1876 0.199665
639 2 150.522 59.0872 0.195941
640 2 154.263 59.1731 0.167856
641 2 0.182982 62.9811 16.0486
642 2 3.99947 63.107 15.8531
643 2 7.67068 63.1616 0.0877424
644 2 11.816 63.1425 0.145265
645 2 15.7497 62.9435 16.0219
646 2 19.4706 62.8433 15.9332
647 2 23.4635 62.7644 16.1685
648 2 27.3353 62.6234 0.333457
649 2 31.2316 62.6782 16.1108
650 2 35.2398 62.8758 16.1044
651 2 39.0745 62.655 0.0666836
652 2 42.9473 62.6928 0.152523
653 2 46.7892 62.5218 15.9629
654 2 51.049 62.7642 0.316256
655 2 54.945 62.6712 0.350935
656 2 58.8496 62.746 0.0505781
657 2 62.9075 62.7142 0.219815
658 2 66.9964 62.9093 -0.00573604
659 2 71.1093 62.9907 0.174509
660 2 75.0669 62.6995 16.0263
661 2 79.134 62.9731 15.8604
662 2 83.1423 63.1377 16.0283
663 2 87.0731 63.0426 -0.0558437
664 2 91.2541 63.1265 15.8406
665 2 95.3047 63.1521 0.113892
666 2 99.2524 63.1116 0.142713
667 2 103.221 63.293 0.259446
668 2 106.751 63.3351 0.0633229
669 2 111.197 63.4222 0.0485676
670 2 115.216 63.472 0.169394
671 2 119.309 63.2719 15.9898
672 2 123.217 63.3553 16.0307
673 2 127.297 63.3227 15.7737
674 2 131.012 63.3046 0.116087
675 2 135.057 63.2725 15.9018
676 2 138.993 63.2085 0.163161
677 2 142.966 63.3008 0.0761543
678 2 146.823 63.0179 0.305706
679 2 150.534 63.3896 16.1336
680 2 154.589 63.1418 15.9033
681 2 0.160639 67.191 0.236086
682 2 3.91522 67.1066 0.267906
683 2 7.95814 67.0043 0.0434651
684 2 11.8269 67.0167 15.9305
685 2 15.706 67.0235 16.1248
686 2 19.6173 66.8384 15.9751
687 2 23.626 66.7821 16.1521
688 2 27.6403 66.6488 16.1205
689 2 31.3551 66.7913 0.190588
690 2 35.5492 66.7412 -0.0465155
691 2 39.2173 66.5487 0.141512
692 2 43.2147 66.5954 15.9324
693 2 47.0723 66.7849 0.144866
694 2 51.0444 66.6288 16.0001
695 2 55.1443 66.608 15.8592
696 2 59.045 66.6184 15.833
697 2 63.1147 66.6893 15.9351
698 2 66.9717 66.8399 15.7007
699 2 71.1011 66.7521 0.15067
700 2 75.0517 66.5877 0.246639
701 2 78.9029 66.9033 15.8848
702 2 83.0907 66.8285 15.9335
703 2 87.156 67.0626 15.9396
704 2 91.1023 67.0376 0.343124
705 2 95.2274 67.003 15.9402
706 2 99.1668 67.116 15.896
707 2 103.063 67.1204 0.320751
708 2 107.141 67.4392 15.9324
709 2 111.283 67.249 0.0463831
710 2 115.1 67.3269 0.0161117
711 2 119.183 67.4556 0.129846
712 2 123.327 67.18 15.9293
713 2 127.302 67.4257 15.8581
714 2 131.245 67.4002 16.077
715 2 135.082 67.2595 15.7124
716 2 138.923 67.369 15.8967
717 2 142.718 67.449 15.9478
718 2 146.672 67.1722 0.10433
719 2 150.509 67.2726 15.754
720 2 154.435 67.0802 16.132
721 2 -0.146272 71.0843 15.791
722 2 3.82788 71.2048 16.1632
723 2 8.05824 71.131 0.260498
724 2 11.777 71.0322 15.9382
725 2 15.8593 71.0773 15.9894
726 2 19.9074 70.8498 0.198323
727 2 23.5902 70.7961 16.087
728 2 27.4883 70.6734 16.1562
729 2 31.4419 70.8185 16.0155
730 2 35.4977 70.95 16.1645
731 2 39.2881 70.8499 16.1102
732 2 43.0365 70.8976 0.292346
733 2 46.922 70.587 15.9067
734 2 51.1565 70.7604 16.0017
735 2 54.9512 70.734 15.8094
736 2 59.0166 70.6356 0.172046
737 2 63.1133 70.728 15.9729
738 2 67.0623 70.7677 0.0984205
739 2 71.1135 70.6537 16.0469
740 2 75.0406 70.6477 15.9259
741 2 78.9735 70.6786 15.9153
742 2 83.1216 70.7391 0.176815
743 2 87.1178 70.8356 15.9343
744 2 91.2382 70.9402 0.114459
745 2 95.1013 70.7858 -0.0145356
746 2 99.1786 71.0336 15.7572
747 2 103.149 71.2295 0.0555725
748 2 107.211 71.076 0.366681
749 2 111.233 71.0715 16.0148
750 2 115.157 71.1091 0.241572
751 2 119.167 71.222 16.0052
752 2 123.071 71.1772 0.0894833
753 2 127.247 71.4066 15.9609
754 2 131.209 71.2741 16.0107
755 2 135.111 71.4862 15.9847
756 2 138.788 71.2265 15.7947
757 2 142.959 71.3662 16.0391
758 2 146.733 71.4304 15.9921
759 2 150.54 71.1593 15.9169
760 2 154.483 71.2937 15.9754
761 2 -0.020501 75.1415 15.9813
762 2 4.01335 75.1621 15.8859
763 2 8.07719 75.1873 16.0796
764 2 12.0329 75.2101 15.9238
765 2 15.8185 74.8918 15.934
766 2 19.7609 74.9 15.9497
767 2 23.693 74.7835 15.9782
768 2 27.4874 74.7698 16.1228
769 2 31.4101 74.7286 0.268393
770 2 35.2823 74.8164 16.0454
771 2 39.1982 75.0535 15.9297
772 2 43.2162 74.8977 0.301039
773 2 47.1442 74.425 15.8958
774 2 51.01 74.6717 0.139709
775 2 55.0706 74.7234 15.6941
776 2 58.8811 74.4287 15.9515
777 2 62.981 74.5321 15.832
778 2 66.8678 74.5796 15.8039
779 2 70.9827 74.3141 15.9844
780 2 75.0641 74.7199 0.202269
781 2 79.0609 74.6375 16.1121
782 2 82.8753 74.7957 15.8534
783 2 86.9065 74.6237 15.6702
784 2 91.1678 74.833 0.147483
785 2 95.2605 74.841 15.7821
786 2 99.0507 75.0368 -0.044718
787 2 102.841 75.0692 15.8258
788 2 107.117 74.9611 0.241362
789 2 111.168 74.9638 16.0614
790 2 115.053 75.2046 0.104774
791 2 119.138 74.7898 16.0177
792 2 123.245 75.3022 16.0795
793 2 127.288 75.3377 0.270102
794 2 131.103 75.4152 0.0518528
795 2 135.201 75.3021 15.9573
796 2 139.176 75.2539 15.8216
797 2 143.231 75.2329 0.111526
798 2 147.017 75.2065 15.8786
799 2 150.757 75.2362 15.9138
800 2 154.662 75.1972 0.100052
801 2 0.327367 79.2892 15.9564
802 2 4.30068 79.2843 16.1123
803 2 7.91056 79.1567 16.0088
804 2 12.0155 79.1192 15.9502
805 2 15.9741 78.9907 15.9499
806 2 19.7486 78.8111 15.9763
807 2 23.6077 78.9293 16.0859
808 2 27.516 78.7757 16.0724
809 2 31.451 78.8306 0.087019
810 2 35.3868 78.7821 16.1993
811 2 39.3158 78.7539 0.147349
812 2 43.1098 78.6887 0.203027
813 2 47.1768 78.7223 0.152297
814 2 51.0074 78.7453 15.8897
815 2 54.979 78.7369 15.9492
816 2 59.1332 78.435 15.957
817 2 62.9438 78.2793 15.9579
818 2 66.8744 78.4013 16.0401
819 2 70.8458 78.4355 15.955
820 2 74.9553 78.4857 16.0383
821 2 78.9643 78.4514 0.218757
822 2 83.0152 78.689 0.0735857
823 2 86.8712 78.6439 -0.0229062
824 2 90.9482 78.7422 0.143952
825 2 94.8445 78.7023 0.17567
826 2 98.9454 78.98 15.9373
827 2 102.988 78.8304 0.0457733
828 2 106.968 78.951 16.0763
829 2 111.056 78.9052 0.0707232
830 2 115.102 79.0108 16.0316
831 2 119.164 78.9367 0.186983
832 2 123.18 79.3029 0.237564
833 2 127.169 78.9194 15.946
834 2 131.056 79.2076 0.0985011
835 2 135.119 79.2576 15.9904
836 2 139.076 79.2195 16.0267
837 2 143.07 79.3535 15.8741
838 2 146.994 79.3034 15.7671
839 2 150.786 79.1458 15.8779
840 2 154.649 79.3806 15.9839
841 2 0.244633 83.2131 15.9787
842 2 4.15545 83.2168 15.9033
843 2 8.3095 83.2366 16.0628
844 2 12.1851 83.0649 15.9163
845 2 16.0574 83.0137 15.8639
846 2 19.7958 83.0649 16.1274
847 2 23.7912 82.9612 16.0811
848 2 27.6506 82.8075 15.9387
849 2 31.4183 82.9064 15.8116
850 2 35.3354 82.79 16.0094
851 2 39.542 82.983 0.257258
852 2 43.3991 82.8586 16.0045
853 2 47.2703 82.7195 16.0542
854 2 51.2749 82.6096 15.9525
855 2 54.9647 82.569 15.9247
856 2 59.1102 82.3553 15.9911
857 2 63.0365 82.2285 15.8464
858 2 66.9675 82.2845 -0.028232
859 2 70.8603 82.3376 0.423705
860 2 74.912 82.3785 16.0539
861 2 78.93 82.4059 0.171354
862 2 83.0275 82.5298 15.7601
863 2 86.8836 82.502 15.7495
864 2 90.951 82.716 0.140291
865 2 95.0079 82.641 15.883
866 2 99.032 82.6698 15.7064
867 2 103.028 82.7261 0.0777734
868 2 106.787 82.8699 0.285029
869 2 110.811 82.9673 15.8548
870 2 114.958 82.9993 16.0106
871 2 118.958 82.912 0.213555
872 2 123.136 82.8457 15.8644
873 2 126.874 83.1915 -0.0297277
874 2 130.923 83.0973 15.9619
875 2 135.063 83.0963 0.194582
876 2 139.157 83.1424 16.166
877 2 143.037 83.2994 0.184369
878 2 147.011 83.4036 0.0821344
879 2 150.964 83.199 15.7601
880 2 154.584 83.3395 15.8631
881 2 0.371205 87.231 15.9436
882 2 4.37731 87.3155 0.152112
883 2 8.31443 87.3228 16.0425
884 2 12.0753 87.0368 15.9261
885 2 16.107 87.1469 0.0370149
886 2 20.1236 87.2157 16.1278
887 2 23.9031 87.0454 16.0107
888 2 27.7602 86.8703 16.0915
889 2 31.7045 86.8473 15.8728
890 2 35.491 86.6239 16.0476
891 2 39.3497 86.7855 15.953
892 2 43.411 86.8647 16
893 2 47.0783 86.7527 0.316316
894 2 51.1094 86.4571 0.376419
895 2 55.1683 86.6135 0.533687
896 2 58.9929 86.6204 15.9412
897 2 63.1074 86.4335 15.9157
898 2 66.9847 86.4558 -0.0455558
899 2 71.016 86.3947 0.181347
900 2 74.645 86.4157 15.7356
901 2 78.8218 86.2508 0.277728
902 2 82.8191 86.3185 -0.0528742
903 2 86.7811 86.6843 16.021
904 2 90.7627 86.4842 0.0677852
905 2 94.8021 86.5923 15.7007
906 2 98.8727 86.6189 15.9248
907 2 102.89 86.7153 0.232333
908 2 106.878 86.8327 0.0833739
909 2 110.969 86.7271 16.0227
910 2 115.081 86.8103 0.00685519
911 2 119.093 87.0238 0.123712
912 2 123.09 86.8241 -0.0725171
913 2 126.996 87.0817 15.9393
914 2 130.935 86.876 0.16615
915 2 135.007 87.2186 15.8909
916 2 139.134 87.1552 0.28953
917 2 142.885 87.178 -0.0299016
918 2 146.866 87.2709 -0.120706
919 2 150.83 87.3562 15.8945
920 2 154.959 87.4569 16.0296
921 2 0.51918 91.1695 15.8273
922 2 4.40289 91.269 0.0356084
923 2 8.21896 91.2818 0.301443
924 2 12.3346 91.2077 0.0115806
925 2 16.0165 90.9832 15.8188
926 2 20.2147 91.1052 15.9471
927 2 24.0163 91.048 15.776
928 2 27.8216 90.9169 15.9914
929 2 31.7414 90.7961 15.8047
930 2 35.5275 90.7344 15.984
931 2 39.2646 90.7507 16.0536
932 2 43.4152 90.6523 0.328637
933 2 47.2682 90.5907 15.9704
934 2 51.3696 90.5575 15.9499
935 2 55.1868 90.7208 16.3084
936 2 59.1327 90.5255 15.8314
937 2 62.8965 90.3971 0.318628
938 2 66.8174 90.4307 16.0424
939 2 70.9146 90.191 15.86
940 2 74.8955 90.1331 15.9697
941 2 78.9278 90.2873 0.095018
942 2 82.8713 90.262 0.170784
943 2 86.8164 90.5205 16.0231
944 2 90.8299 90.5188 0.26681
945 2 94.8721 90.5885 0.258782
946 2 98.9438 90.6693 0.0379077
947 2 102.941 90.5539 0.0567176
948 2 106.953 90.5312 0.143016
949 2 110.922 90.754 15.6768
950 2 115.028 90.5281 0.0183467
951 2 118.982 90.8806 0.177455
952 2 122.928 90.8127 0.188772
953 2 127.022 91.0109 0.160916
954 2 131.081 90.9578 15.858
955 2 135.191 90.9426 0.200502
956 2 138.964 91.2781 0.0148047
957 2 142.953 90.9883 0.101634
958 2 147.092 91.1717 0.23582
959 2 150.977 91.2941 15.8602
960 2 155.017 91.2816 0.00137873
961 2 0.63702 95.3928 15.8044
962 2 4.43941 95.1578 16.0257
963 2 8.34994 95.1627 0.318141
964 2 12.2247 95.2889 15.845
965 2 16.3807 95.2841 15.9662
966 2 20.1182 95.0441 15.8771
967 2 24.2205 95.0675 15.763
968 2 28.0432 95.1379 16.1133
969 2 31.6219 94.752 15.9179
970 2 35.7571 94.9513 0.251943
971 2 39.6834 94.8389 16.1016
972 2 43.583 94.649 15.9526
973 2 47.3326 94.6563 15.9649
974 2 51.338 94.4887 0.124196
975 2 55.3226 94.5643 15.9622
976 2 59.1367 94.3668 15.9354
977 2 63.1692 94.2153 15.9197
978 2 67.0488 94.2308 0.00369835
979 2 71.0568 94.2629 0.195267
980 2 74.8975 94.206 15.8274
981 2 78.787 94.1471 15.9183