ITEM: TIMESTEP
18100
ITEM: NUMBER OF ATOMS
32000
ITEM: BOX BOUNDS xy xz yz pp pp pp
0.0000000000000000e+00 1.5831999999999999e+02 0.0000000000000000e+00
0.0000000000000000e+00 1.5831999999999999e+02 0.0000000000000000e+00
1.6579415755079374e-01 1.5931917842449023e+01 0.0000000000000000e+00
ITEM: ATOMS id type x y z
1 2 157.94 157.844 16.1753
2 2 3.81863 157.979 0.183709
3 2 7.88154 158.129 15.9454
4 2 11.739 158.011 16.0682
5 2 15.6057 158.118 16.0253
6 2 19.775 157.996 16.0136
7 2 23.6766 158.235 0.183498
8 2 27.8398 158.131 15.9973
9 2 31.783 158.141 15.9356
10 2 35.8131 158.288 16.1155
11 2 39.7238 158.239 0.231176
12 2 43.8935 0.047059 0.0720773
13 2 47.7625 158.62 16.0941
14 2 51.8933 -0.00345953 0.0381853
15 2 55.8237 158.524 16.0355
16 2 59.855 0.054484 0.0522392
17 2 63.7122 0.104113 15.8209
18 2 67.6664 -0.0900126 0.104286
19 2 71.5578 158.337 0.0684838
20 2 75.3207 158.285 0.204251
21 2 79.2806 -0.231586 15.9659
22 2 83.099 158.205 15.9346
23 2 87.0073 158.014 16.0299
24 2 90.9969 158.17 0.022804
25 2 95.0227 158.026 16.0984
26 2 99.0089 157.96 15.9375
27 2 102.913 157.9 -0.105432
28 2 106.941 157.716 15.9423
29 2 110.667 157.694 0.15959
30 2 114.459 157.72 0.0660389
31 2 118.382 158.023 15.5899
32 2 122.317 157.769 16.022
33 2 126.266 157.687 15.8908
34 2 130.205 157.628 15.8725
35 2 133.924 157.608 15.878
36 2 137.852 157.576 16.0553
37 2 141.711 157.844 0.19452
38 2 146.135 157.768 0.138346
39 2 150.02 157.778 0.113431
40 2 154.015 157.64 0.159711
41 2 158.064 3.38771 0.180721
42 2 3.71281 3.33822 16.1035
43 2 7.53194 3.75581 0.125043
44 2 11.8001 3.7176 16.0903
45 2 15.6201 3.509 0.0310097
46 2 19.5124 3.50626 0.229814
47 2 23.6433 3.61324 15.9563
48 2 27.8286 3.85478 16.0212
49 2 31.7147 3.68023 0.175424
50 2 35.6995 3.82573 0.149796
51 2 39.7597 3.94147 16.1081
52 2 43.9362 3.79327 0.163365
53 2 47.8228 4.04295 16.1599
54 2 51.8308 3.8648 0.143277
55 2 55.753 3.99956 0.312421
56 2 59.7306 4.02695 15.9952
57 2 63.6987 4.05493 15.96
58 2 67.7455 3.96385 0.246606
59 2 71.5061 3.83721 0.221145
60 2 75.4152 3.82823 0.114061
61 2 79.4893 3.94143 0.118618
62 2 83.282 3.78979 15.8969
63 2 87.1107 3.76996 16.0341
64 2 91.0066 3.78472 0.0917503
65 2 94.9529 3.6297 15.8675
66 2 98.8494 3.71397 15.7826
67 2 102.975 3.64175 16.0379
68 2 106.741 3.44396 15.8938
69 2 110.441 3.42974 16.0023
70 2 114.431 3.42667 15.8743
71 2 118.495 3.62955 16.0805
72 2 122.389 3.54409 15.7743
73 2 126.135 3.6284 0.0257461
74 2 129.933 3.37053 0.113608
75 2 134.175 3.19825 16.1027
76 2 138.118 3.28458 16.1549
77 2 141.721 3.43808 16.1086
78 2 145.78 3.29023 0.171865
79 2 149.971 3.45153 16.0162
80 2 153.828 3.18459 0.0200865
81 2 157.996 7.46595 0.166434
82 2 3.56393 7.58721 0.0539261
83 2 7.67566 7.54399 15.963
84 2 11.7168 7.64152 0.00805215
85 2 15.6586 7.664 0.0961205
86 2 19.648 7.61576 0.0958727
87 2 23.6337 7.53696 15.9776
88 2 27.6646 7.61408 -0.00670409
89 2 31.52 7.83547 15.9672
90 2 35.5741 7.75396 15.9557
91 2 39.7611 7.88578 0.100878
92 2 43.8085 7.71423 16.0196
93 2 47.7678 7.77664 15.8516
94 2 51.5451 7.76975 16.0105
95 2 55.6928 8.07005 0.0414421
96 2 59.7089 8.03984 0.0595753
97 2 63.897 7.94561 0.0790671
98 2 67.8094 7.90681 15.8762
99 2 71.5815 7.97297 15.9204
100 2 75.3797 7.86312 -0.0971675
101 2 79.3025 7.81603 0.0472894
102 2 83.2151 7.95629 0.215738
103 2 87.1181 7.70835 0.143119
104 2 90.9215 7.84356 15.9565
105 2 94.8027 7.59296 16.0064
106 2 98.8341 7.55762 0.00627687
107 2 102.889 7.66819 0.0603756
108 2 106.727 7.61285 15.9848
109 2 110.547 7.46798 -0.0188547
110 2 114.717 7.33175 15.9094
111 2 118.641 7.5469 0.0336707
112 2 122.383 7.39674 0.123555
113 2 126.224 7.349 15.9565
114 2 130.227 7.47957 16.0242
115 2 134.174 7.54367 0.147325
116 2 138.053 7.29649 0.294432
117 2 142.148 7.25882 0.139931
118 2 145.871 7.30001 0.133298
119 2 149.865 7.19418 15.8015
120 2 153.89 7.37624 16.0189
121 2 157.808 11.2677 15.7715
122 2 3.54478 11.4357 0.0014488
123 2 7.37476 11.3229 15.9845
124 2 11.5953 11.4395 15.9282
125 2 15.4885 11.4543 0.148909
126 2 19.557 11.3818 0.00306637
127 2 23.5744 11.6446 16.0794
128 2 27.5128 11.6064 16.0324
129 2 31.5934 11.7478 15.8706
130 2 35.5288 11.7526 0.0924372
131 2 39.6683 11.7002 15.9629
132 2 43.6433 11.5165 0.0290633
133 2 47.7174 11.8801 -0.00366251
134 2 51.6682 11.8628 15.9275
135 2 55.7876 11.8761 16.0432
136 2 59.5764 11.719 0.0017107
137 2 63.757 11.7303 15.9151
138 2 67.7696 11.9506 15.9596
139 2 71.6238 11.8784 -0.103103
140 2 75.6361 11.8775 15.7596
141 2 79.3809 11.8013 0.0298164
142 2 83.2809 11.7973 0.161778
143 2 87.1592 11.778 16.1114
144 2 91.1346 11.8948 16.0243
145 2 95.0932 11.6931 0.0517446
146 2 98.9145 11.5766 0.2581
147 2 102.818 11.597 16.0954
148 2 106.877 11.639 15.9004
149 2 110.697 11.5603 16.0497
150 2 114.621 11.261 15.8225
151 2 118.444 11.3243 0.0928545
152 2 122.602 11.3122 0.178722
153 2 126.457 11.3453 15.9814
154 2 130.192 11.3873 -0.0552427
155 2 134.088 11.3814 16.0334
156 2 138.167 11.3163 15.8011
157 2 141.892 11.1195 0.272873
158 2 145.963 11.2871 0.258893
159 2 149.92 11.3067 15.9496
160 2 153.786 11.1536 0.13164
161 2 157.821 15.2285 0.0205958
162 2 3.6256 15.3671 15.7846
163 2 7.61209 15.3944 15.9077
164 2 11.4905 15.4903 0.0841065
165 2 15.6765 15.5045 0.189802
166 2 19.6154 15.3986 15.9671
167 2 23.7483 15.4492 0.182435
168 2 27.5985 15.555 16.0428
169 2 31.5947 15.7092 0.160051
170 2 35.6745 15.4907 -0.0444934
171 2 39.5622 15.7684 15.978
172 2 43.4878 15.6316 -0.105466
173 2 47.4765 15.7368 -0.0231977
174 2 51.8411 15.6517 0.0907462
175 2 55.6328 15.6507 16.1932
176 2 59.5696 15.568 15.8717
177 2 63.7294 15.7283 16.0983
178 2 67.6798 15.7274 15.9761
179 2 71.6322 15.7868 15.918
180 2 75.5941 15.9031 15.9695
181 2 79.3589 15.9475 15.9303
182 2 83.4423 15.9312 15.7502
183 2 87.2123 15.7984 -0.112814
184 2 91.2787 15.618 15.7159
185 2 95.3251 15.8145 -0.02653
186 2 98.9304 15.501 16.0355
187 2 102.997 15.4948 0.218376
188 2 106.787 15.6047 16.0088
189 2 110.707 15.3307 15.8838
190 2 114.783 15.4177 15.9442
191 2 118.647 15.4496 15.973
192 2 122.43 15.283 16.0983
193 2 126.329 15.2479 0.0746865
194 2 130.486 15.2991 0.076687
195 2 134.266 15.5076 15.9611
196 2 138.243 15.2394 15.8582
197 2 142.137 15.0229 0.146699
198 2 146.058 15.1867 0.118468
199 2 149.858 15.3712 0.105963
200 2 153.781 15.1502 -0.00590064
201 2 157.78 19.1657 15.933
202 2 3.44197 19.151 16.0482
203 2 7.47787 18.9879 16.1002
204 2 11.5524 19.2243 15.8894
205 2 15.5666 19.3279 15.9561
206 2 19.6557 19.342 16.1857
207 2 23.5252 19.2707 0.24814
208 2 27.6401 19.5772 0.234294
209 2 31.7458 19.4777 16.0364
210 2 35.6432 19.4518 0.0888709
211 2 39.4076 19.3411 0.202427
212 2 43.7245 19.6529 16.0643
213 2 47.5183 19.4398 0.0807762
214 2 51.6167 19.6125 16.1027
215 2 55.6195 19.5932 16.177
216 2 59.7629 19.5784 16.0008
217 2 63.6082 19.6085 16.09
218 2 67.5016 19.7086 16.0273
219 2 71.5807 19.8968 16.0306
220 2 75.6109 19.9403 16.1163
221 2 79.6675 19.9324 15.7794
222 2 83.6077 19.8336 15.7895
223 2 87.467 19.6891 15.8124
224 2 91.2395 19.7868 15.7715
225 2 95.2407 19.7204 -0.107427
226 2 99.1885 19.545 0.0592176
227 2 103.039 19.4152 15.8539
228 2 106.908 19.4649 15.9999
229 2 110.708 19.5556 0.0257475
230 2 114.651 19.372 16.0398
231 2 118.778 19.4132 0.0531163
232 2 122.436 19.462 15.9645
233 2 126.497 19.4104 0.00954441
234 2 130.312 19.3221 15.9511
235 2 134.461 19.4322 0.0641132
236 2 138.28 19.2546 0.0764483
237 2 142.07 19.3129 15.9928
238 2 145.868 19.2159 0.21069
239 2 149.787 19.3501 0.296116
240 2 153.949 19.2152 16.0427
241 2 157.794 23.198 0.232648
242 2 3.52114 23.2275 16.142
243 2 7.42491 23.0825 0.274977
244 2 11.5512 23.1816 0.0302593
245 2 15.2495 23.2111 16.0867
246 2 19.5634 23.3453 0.297464
247 2 23.5525 23.2842 16.2349
248 2 27.3482 23.4638 0.383573
249 2 31.4973 23.3923 16.0758
250 2 35.5413 23.2076 0.280395
251 2 39.5079 23.3213 0.127792
252 2 43.45 23.4265 15.7684
253 2 47.5116 23.5495 16.0199
254 2 51.6175 23.4258 0.221781
255 2 55.6157 23.7412 15.9321
256 2 59.4548 23.7274 16.0468
257 2 63.3992 23.6347 0.209395
258 2 67.4887 23.635 0.1886
259 2 71.4731 23.5837 16.1079
260 2 75.6042 23.7195 0.0544063
261 2 79.6014 23.9063 15.9702
262 2 83.5869 23.7855 15.7252
263 2 87.4052 23.7745 15.9201
264 2 91.2445 23.7329 15.6848
265 2 95.0777 23.6557 15.8801
266 2 99.1452 23.439 15.9085
267 2 103.191 23.5444 15.9284
268 2 107.183 23.5786 15.9352
269 2 110.958 23.3076 15.8953
270 2 114.85 23.3492 15.9022
271 2 118.727 23.5272 0.199128
272 2 122.757 23.3867 -0.0085356
273 2 126.705 23.2591 0.191583
274 2 130.469 23.2461 0.0876388
275 2 134.453 23.2889 -0.0660263
276 2 138.271 23.2741 0.00395929
277 2 141.997 23.3552 16.1244
278 2 146.056 23.1076 0.14901
279 2 149.925 23.2824 16.1589
280 2 153.878 23.0942 0.130318
281 2 158.024 27.1814 0.22452
282 2 3.48732 26.9888 0.182817
283 2 7.45626 27.0545 15.9352
284 2 11.4806 27.0757 0.0674739
285 2 15.4183 26.8057 0.215016
286 2 19.5068 27.0913 16.2236
287 2 23.3422 27.2419 0.329258
288 2 27.4986 27.2785 0.255594
289 2 31.4531 27.4184 16.074
290 2 35.3868 27.0159 0.0997408
291 2 39.4349 27.3784 15.9957
292 2 43.3575 27.3099 15.8287
293 2 47.5777 27.4471 16.0323
294 2 51.4035 27.2788 16.0383
295 2 55.4932 27.5215 15.9634
296 2 59.4173 27.4885 0.166194
297 2 63.5838 27.4153 0.0591122
298 2 67.404 27.7136 0.150188
299 2 71.3718 27.5739 0.175796
300 2 75.4527 27.8683 15.9409
301 2 79.606 27.7982 15.9808
302 2 83.6424 27.8006 16.0806
303 2 87.5989 27.7251 16.0545
304 2 91.5284 27.6961 15.9323
305 2 95.3052 27.7057 15.7974
306 2 99.3729 27.687 15.9051
307 2 103.469 27.5997 15.907
308 2 107.065 27.5804 -0.0549295
309 2 111.063 27.6615 -0.0372581
310 2 114.841 27.4429 0.0893679
311 2 118.757 27.5205 16.0926
312 2 122.463 27.4628 0.151317
313 2 126.503 27.5319 -0.0471229
314 2 130.43 27.3026 15.9007
315 2 134.292 27.3032 16.045
316 2 138.37 27.3376 0.0643438
317 2 142.318 27.2806 16.0679
318 2 146.232 27.3783 0.017866
319 2 150.205 27.2513 0.140712
320 2 154.071 27.1917 0.118042
321 2 157.925 31.0894 0.313766
322 2 3.64064 31.0453 16.0325
323 2 7.5378 31.009 0.0961697
324 2 11.5248 31.0182 16.166
325 2 15.2915 30.9619 0.0214124
326 2 19.1812 31.1077 0.0684523
327 2 23.3411 31.04 0.0449925
328 2 27.2964 31.1587 -0.0445221
329 2 31.3675 31.0087 0.0480248
330 2 35.4105 31.2635 15.8985
331 2 39.3519 31.0829 16.0142
332 2 43.4687 31.1078 15.9526
333 2 47.3852 31.3454 15.8238
334 2 51.3831 31.3844 -0.0437654
335 2 55.3702 31.3752 -0.0491196
336 2 59.3352 31.5171 16.1053
337 2 63.5259 31.5362 15.9781
338 2 67.5365 31.7135 16.0032
339 2 71.473 31.5839 0.0948231
340 2 75.3316 31.6282 0.0136316
341 2 79.6053 31.6167 15.9261
342 2 83.5523 31.6999 0.228714
343 2 87.5716 31.7063 0.283233
344 2 91.3396 31.7533 0.0886616
345 2 95.5102 31.6956 15.8401
346 2 99.3827 31.8205 15.6391
347 2 103.387 31.4838 15.7679
348 2 107.212 31.6257 15.9858
349 2 111.008 31.5168 -0.0855146
350 2 114.776 31.4426 15.7468
351 2 118.837 31.3794 15.9393
352 2 122.586 31.4819 16.0139
353 2 126.427 31.4658 15.9188
354 2 130.44 31.2313 16.0237
355 2 134.546 31.2581 15.8825
356 2 138.38 31.3127 0.151722
357 2 142.205 31.1459 0.201934
358 2 146.336 31.3135 16.1094
359 2 150.236 31.2665 0.256325
360 2 154.041 31.2135 0.107422
361 2 158.054 35.0642 0.303903
362 2 3.6677 35.0897 0.178774
363 2 7.4792 34.9138 0.1892
364 2 11.2731 34.8869 0.129436
365 2 15.475 34.838 0.0921751
366 2 19.3182 34.9026 0.249667
367 2 23.1418 34.9429 0.0504917
368 2 27.2994 35.3103 0.120479
369 2 31.4306 35.1623 0.112209
370 2 35.294 35.0566 0.0606751
371 2 39.296 35.1497 15.8651
372 2 43.248 35.1958 0.0761567
373 2 47.4103 35.3397 15.9848
374 2 51.5715 35.2333 0.0276504
375 2 55.2469 35.4788 16.0716
376 2 59.5327 35.448 0.159679
377 2 63.4833 35.5476 15.8959
378 2 67.5275 35.611 0.148251
379 2 71.3628 35.5513 0.201442
380 2 75.5209 35.5356 0.0040985
381 2 79.303 35.5518 15.9617
382 2 83.5031 35.6487 0.0796733
383 2 87.4067 35.6502 15.8663
384 2 91.5925 35.6833 -0.0303689
385 2 95.3985 35.7257 15.8346
386 2 99.4306 35.8781 15.929
387 2 103.266 35.5023 15.8987
388 2 107.138 35.7405 16.0029
389 2 111.059 35.4615 -0.0502142
390 2 114.816 35.5789 15.9375
391 2 118.877 35.4815 15.9809
392 2 122.857 35.4873 0.0310081
393 2 126.738 35.2686 -0.0120296
394 2 130.579 35.3544 0.0776084
395 2 134.479 35.3839 -0.0012136
396 2 138.544 35.3686 15.9585
397 2 142.323 35.2769 0.27139
398 2 146.084 35.2682 16.115
399 2 150.095 35.2965 -0.0276433
400 2 154.02 35.0315 0.189889
401 2 158.12 39.0672 0.241098
402 2 3.47537 39.1434 0.339044
403 2 7.59983 39.0191 0.399417
404 2 11.4122 38.8904 16.1729
405 2 15.2764 39.0246 0.260376
406 2 19.4214 38.8171 0.18155
407 2 23.0647 38.933 16.1436
408 2 27.563 38.9812 0.3086
409 2 31.4133 39.0227 16.1549
410 2 35.3632 39.152 0.20336
411 2 39.2858 39.0739 0.263597
412 2 43.3777 39.0878 16.0512
413 2 47.303 39.2473 0.112084
414 2 51.3768 39.0517 15.9646
415 2 55.4032 39.2159 0.150437
416 2 59.3489 39.2958 16.0517
417 2 63.3183 39.4146 0.105788
418 2 67.3657 39.4958 0.122495
419 2 71.5041 39.3131 16.0571
420 2 75.2697 39.3203 0.275409
421 2 79.3273 39.5433 15.8058
422 2 83.4084 39.5009 15.8023
423 2 87.3679 39.6073 -0.12648
424 2 91.558 39.492 15.7995
425 2 95.5428 39.7496 0.164155
426 2 99.5693 39.642 0.239994
427 2 103.343 39.6278 15.8597
428 2 107.467 39.5524 0.201854
429 2 111.062 39.7488 15.8499
430 2 115.084 39.526 -0.0158662
431 2 118.862 39.4221 0.00238666
432 2 122.672 39.3287 15.8382
433 2 126.938 39.5015 15.7211
434 2 130.857 39.432 15.9169
435 2 134.699 39.2203 0.0640015
436 2 138.578 39.2511 0.183689
437 2 142.377 39.2429 0.0786964
438 2 146.371 39.2273 15.9918
439 2 150.3 39.3035 15.791
440 2 154.354 39.1754 16.1192
441 2 158.184 43.1391 -0.0251745
442 2 3.85592 43.0753 0.249753
443 2 7.74011 42.9337 0.377059
444 2 11.5887 42.9365 0.265381
445 2 15.3635 42.8877 0.11028
446 2 19.2576 43.0242 0.398827
447 2 23.3701 42.972 0.345362
448 2 27.2552 42.9432 0.452454
449 2 31.3043 43.0079 0.379837
450 2 35.3036 42.9356 0.185014
451 2 39.2965 43.1974 0.372338
452 2 43.1922 43.0972 0.350563
453 2 47.142 42.9364 0.0933808
454 2 51.1356 42.9768 0.23436
455 2 55.2084 43.0824 16.0574
456 2 59.233 43.0828 15.968
457 2 63.1898 43.2087 0.315183
458 2 67.3349 43.3898 16.079
459 2 71.3575 43.3839 0.117452
460 2 75.2558 43.3382 16.0592
461 2 79.5221 43.5919 15.9873
462 2 83.3411 43.4355 0.0798203
463 2 87.4025 43.4633 0.0207661
464 2 91.4223 43.5122 0.0377126
465 2 95.5043 43.462 16.0018
466 2 99.4742 43.7175 16.0877
467 2 103.376 43.5733 16.0036
468 2 107.417 43.6159 16.1363
469 2 111.323 43.6871 16.2332
470 2 115.148 43.6428 15.9124
471 2 118.988 43.3821 15.8476
472 2 122.925 43.2947 15.8123
473 2 127.093 43.4654 15.9422
474 2 130.83 43.4015 0.0751921
475 2 134.775 43.4124 0.0964092
476 2 138.571 43.3635 0.0538073
477 2 142.468 43.1245 16.1294
478 2 146.395 43.1708 15.9856
479 2 150.327 43.2201 15.8315
480 2 154.295 43.2421 0.147512
481 2 158.252 47.3391 0.173968
482 2 3.94749 46.9648 0.254252
483 2 7.66605 47.0766 0.125985
484 2 11.5177 46.9085 16.1331
485 2 15.4556 46.8603 0.275837
486 2 19.5535 46.796 16.2308
487 2 23.5875 46.9214 0.259194
488 2 27.4212 46.8669 0.357663
489 2 31.482 46.7465 0.256347
490 2 35.1621 46.9418 0.183461
491 2 39.2002 46.9252 16.2179
492 2 43.3392 47.053 0.222858
493 2 47.1302 46.9438 0.104339
494 2 51.1681 47.043 0.0599232
495 2 55.0657 46.9982 0.244046
496 2 59.115 47.105 16.1019
497 2 63.0199 47.2828 16.0191
498 2 67.2386 47.265 0.267594
499 2 71.3231 47.0696 0.148502
500 2 75.3369 47.3182 0.113115
501 2 79.3902 47.4665 16.1202
502 2 83.2761 47.267 -0.073185
503 2 87.2517 47.2923 0.0050178
504 2 91.5431 47.4355 0.0480644
505 2 95.4178 47.5075 15.8778
506 2 99.4238 47.7028 15.8531
507 2 103.471 47.6403 0.154788
508 2 107.422 47.5979 0.257355
509 2 111.26 47.5536 16.1243
510 2 115.3 47.5828 16.0381
511 2 119.089 47.8478 -0.152693
512 2 123.05 47.3835 15.8713
513 2 126.777 47.4461 0.202676
514 2 130.827 47.4755 15.8914
515 2 134.889 47.5183 0.0753307
516 2 138.73 47.3865 0.196925
517 2 142.667 47.3091 0.264153
518 2 146.496 47.2214 -0.0404772
519 2 150.238 47.3279 15.9003
520 2 154.142 47.2746 15.9914
521 2 158.192 51.219 0.295219
522 2 3.93051 51.0413 16.1272
523 2 7.78198 51.0715 0.0995103
524 2 11.7814 51.0512 16.0006
525 2 15.705 50.9451 0.253143
526 2 19.3334 50.8543 0.240643
527 2 23.3819 50.7827 16.0743
528 2 27.4586 50.7859 0.317988
529 2 31.3749 50.6081 0.170046
530 2 35.1965 50.719 0.0545376
531 2 39.2332 50.6408 0.364913
532 2 42.9724 50.8654 16.2219
533 2 47.0891 50.864 16.0423
534 2 51.1597 50.9978 15.8726
535 2 55.3159 51.0744 0.0269295
536 2 59.2102 51.0945 15.9951
537 2 63.2177 50.9108 15.9864
538 2 67.1988 51.1505 0.120829
539 2 71.213 51.0252 16.1424
540 2 75.3769 51.1283 -0.049011
541 2 79.32 51.3714 0.112214
542 2 83.1587 51.2086 0.180098
543 2 87.1978 51.2302 0.0882794
544 2 91.5238 51.2111 0.183144
545 2 95.3487 51.4249 16.0181
546 2 99.3274 51.3933 16.0373
547 2 103.261 51.5694 16.1343
548 2 107.424 51.4013 0.00154616
549 2 111.446 51.7325 0.0796748
550 2 115.189 51.5642 0.0374165
551 2 118.952 51.806 15.9389
552 2 123.05 51.4512 0.10509
553 2 126.965 51.3933 16.097
554 2 130.767 51.3713 0.16558
555 2 134.827 51.3941 16.0225
556 2 138.665 51.5417 0.127262
557 2 142.805 51.2474 16.1983
558 2 146.556 51.4149 0.326892
559 2 150.375 51.2037 0.24665
560 2 154.436 51.0456 15.9616
561 2 -0.152748 55.2469 0.195565
562 2 3.9138 55.085 0.264486
563 2 7.82671 55.0531 0.259289
564 2 11.5985 55.0134 0.163717
565 2 15.5925 54.8679 16.1226
566 2 19.5801 54.6522 0.133722
567 2 23.4977 54.8219 0.247931
568 2 27.1478 54.9407 16.0268
569 2 31.4011 54.585 0.142436
570 2 35.2626 54.5464 0.221423
571 2 39.107 54.5389 0.17417
572 2 43.2577 54.7088 0.231591
573 2 47.2749 54.8298 0.1074
574 2 51.2326 55.0383 0.090459
575 2 54.9228 54.8654 16.081
576 2 59.1724 54.912 15.9018
577 2 63.1546 54.7868 15.8632
578 2 67.1431 54.9412 0.0280141
579 2 71.2172 55.0097 0.087706
580 2 75.1174 54.9943 15.8485
581 2 79.1743 55.0264 16.0322
582 2 83.2628 55.3044 0.191194
583 2 87.3365 55.1179 16.056
584 2 91.4252 55.1881 0.139408
585 2 95.3766 55.2752 0.102059
586 2 99.2206 55.5641 16.0897
587 2 103.234 55.4169 0.316323
588 2 107.254 55.5259 0.106556
589 2 111.106 55.779 16.0449
590 2 115.167 55.5011 0.059681
591 2 119.141 55.5741 15.8615
592 2 123.263 55.6123 -0.147183
593 2 127.179 55.4449 0.0943827
594 2 130.947 55.4932 16.0859
595 2 134.637 55.5117 16.0389
596 2 138.753 55.4252 15.9186
597 2 142.691 55.2945 0.0400083
598 2 146.633 55.3013 0.306697
599 2 150.54 55.2642 0.00172489
600 2 154.397 55.1568 0.352414
601 2 158.505 59.1098 0.220985
602 2 4.19346 59.0192 16.0403
603 2 7.78198 59.1198 0.110726
604 2 11.8373 58.919 16.0012
605 2 15.7848 59.0404 16.0595
606 2 19.6228 58.8969 0.35807
607 2 23.5793 58.8986 0.230711
608 2 27.2837 58.8379 0.318756
609 2 31.2903 58.8275 0.33947
610 2 35.2102 58.7167 16.2199
611 2 39.421 58.5789 0.124208
612 2 43.0796 58.549 -0.086417
613 2 47.2821 58.6342 0.180598
614 2 51.1665 58.6876 0.247007
615 2 54.984 58.9062 16.0729
616 2 59.0227 58.9685 16.0307
617 2 63.1642 58.7966 15.8973
618 2 67.1918 58.9381 16.0308
619 2 71.0905 58.9193 15.9767
620 2 75.0255 59.0741 15.8193
621 2 79.0066 59.068 -0.0404655
622 2 83.2154 58.9685 -0.0767603
623 2 87.3057 59.0506 0.290681
624 2 91.4059 59.1269 0.228503
625 2 95.2204 59.1927 0.0819352
626 2 99.1734 59.3575 15.9711
627 2 103.346 59.3643 0.0204035
628 2 107.206 59.5527 0.202283
629 2 111.278 59.5369 16.1378
630 2 115.224 59.5858 16.1038
631 2 119.083 59.4548 15.868
632 2 123.228 59.487 15.7948
633 2 127.154 59.6585 0.122917
634 2 131.009 59.5798 16.107
635 2 134.792 59.5121 16.0044
636 2 138.681 59.4122 15.9879
637 2 142.584 59.2083 0.208071
638 2 146.45 59.5243 0.336326
639 2 150.45 59.0581 0.248633
640 2 154.597 59.1878 0.329796
641 2 0.0412247 62.9505 0.212295
642 2 4.00329 63.0992 0.161281
643 2 7.92756 62.951 16.0554
644 2 11.7706 62.9287 16
645 2 15.752 62.9024 0.150013
646 2 19.7774 62.9959 0.323241
647 2 23.5021 62.9309 0.385048
648 2 27.6415 62.9755 0.330746
649 2 31.4791 62.7092 0.229796
650 2 35.323 62.9162 0.227386
651 2 39.2412 62.6765 0.0880245
652 2 43.1992 62.6476 16.0442
653 2 47.1639 62.6014 16.2389
654 2 51.0918 62.5514 0.45071
655 2 55.0287 62.7358 0.0517989
656 2 59.1661 62.7466 15.9414
657 2 63.1376 62.6912 0.253665
658 2 67.0969 62.7728 15.8937
659 2 71.0645 62.8171 16.1425
660 2 75.1263 63.0385 0.254717
661 2 79.1321 62.954 15.9694
662 2 83.2152 63.0381 0.10848
663 2 87.2725 63.0725 16.0645
664 2 91.2187 62.9632 16.3019
665 2 95.2239 63.0649 16.0928
666 2 99.1435 63.3306 16.24
667 2 103.237 63.2405 0.265356
668 2 107.191 63.2 15.8312
669 2 111.22 63.2932 15.8485
670 2 115.15 63.4095 0.169707
671 2 119.218 63.391 0.0769805
672 2 122.987 63.588 0.06325
673 2 126.981 63.5923 16.0215
674 2 131.166 63.5514 -0.0286445
675 2 134.821 63.6337 15.983
676 2 138.702 63.4074 0.162951
677 2 142.695 63.3082 16.1018
678 2 146.578 63.4943 0.178311
679 2 150.516 63.3821 0.236927
680 2 154.55 63.2341 0.320293
681 2 0.181624 67.1228 0.281695
682 2 4.05387 67.0971 0.37608
683 2 8.05478 67.138 16.1457
684 2 11.8129 66.9568 16.1087
685 2 15.8342 66.9472 0.235229
686 2 19.5756 66.9776 0.314508
687 2 23.5792 66.9496 0.25785
688 2 27.3815 66.9742 0.311191
689 2 31.3945 66.8308 0.386589
690 2 35.3853 66.6507 15.8978
691 2 39.0756 66.6701 16.1194
692 2 43.051 66.8787 16.121
693 2 46.8475 66.6442 16.1098
694 2 50.8684 66.3542 0.108966
695 2 54.9436 66.5166 16.0972
696 2 58.8467 66.5509 15.889
697 2 63.0033 66.5626 0.0730291
698 2 67.1437 66.7356 16.2335
699 2 71.0782 66.6694 0.2455
700 2 75.3121 66.7959 0.288065
701 2 79.1646 66.813 16.0474
702 2 83.0107 66.7419 15.8947
703 2 87.063 66.7927 16.0762
704 2 91.194 67.0265 0.00963162
705 2 95.1462 67.161 16.0623
706 2 99.1777 67.2503 16.0305
707 2 103.353 67.2011 0.18399
708 2 107.213 67.2883 0.137417
709 2 111.253 67.207 16.101
710 2 115.163 67.3073 16.3719
711 2 119.139 67.5967 0.0407652
712 2 123.193 67.6134 15.9922
713 2 127.111 67.4939 0.0666592
714 2 130.93 67.5418 0.206296
715 2 135.019 67.7408 15.9921
716 2 139.002 67.635 0.139033
717 2 142.865 67.4376 16.0659
718 2 146.759 67.3658 16.1284
719 2 150.607 67.246 0.00592859
720 2 154.595 67.2149 0.148046
721 2 158.808 71.2922 16.1925
722 2 4.22961 71.1944 0.116957
723 2 8.19133 71.1567 0.27677
724 2 11.9644 70.8925 0.324576
725 2 15.8422 71.014 16.1514
726 2 19.6439 71.1408 0.0695473
727 2 23.6817 70.9367 0.101751
728 2 27.7449 70.9432 0.160244
729 2 31.3905 70.7744 0.265434
730 2 35.2138 70.6819 0.0844851
731 2 39.1802 70.6025 0.150582
732 2 43.2216 70.6513 0.0262816
733 2 47.0304 70.6028 15.9519
734 2 50.9964 70.5422 0.187387
735 2 54.865 70.5307 16.0841
736 2 58.7727 70.4084 15.865
737 2 62.9293 70.4947 15.957
738 2 66.8505 70.4138 16.0448
739 2 71.0539 70.7182 0.194184
740 2 75.1647 70.7344 16.1352
741 2 78.9178 70.8538 0.242349
742 2 83.2071 70.788 -0.0462599
743 2 87.1062 70.9263 15.8933
744 2 91.0675 70.7946 16.0846
745 2 94.8919 71.1992 15.9239
746 2 98.979 70.9429 15.9209
747 2 103.211 71.1431 15.9921
748 2 106.957 71.1895 0.0229532
749 2 111.069 71.1291 0.106417
750 2 115.136 71.2414 0.163192
751 2 119.125 71.3592 0.182917
752 2 123.169 71.5654 15.7741
753 2 127.013 71.3835 0.168037
754 2 131.115 71.5121 0.119327
755 2 135.32 71.4429 0.165865
756 2 139.062 71.362 15.9493
757 2 142.925 71.3842 16.0656
758 2 146.863 71.3141 16.0121
759 2 150.811 71.0568 0.127309
760 2 154.75 71.3034 0.291739
761 2 0.421324 75.1882 15.9772
762 2 4.43269 75.063 16.0192
763 2 7.9117 75.2766 0.17635
764 2 11.8568 75.0531 0.141019
765 2 15.918 75.0198 16.0715
766 2 19.7658 74.9343 0.263282
767 2 23.6354 75.1856 0.230343
768 2 27.6978 74.9565 0.188825
769 2 31.6212 74.8493 0.322037
770 2 35.3772 74.745 0.267273
771 2 39.3626 74.732 0.0829841
772 2 43.2567 74.5206 0.251414
773 2 47.0915 74.5964 0.282296
774 2 51.0483 74.5666 16.1429
775 2 54.8986 74.2641 15.9971
776 2 58.9355 74.5012 15.8676
777 2 62.8505 74.5524 15.9012
778 2 66.8172 74.3418 16.0857
779 2 70.9731 74.6753 0.282448
780 2 74.8094 74.7079 0.301851
781 2 79.0859 74.6419 0.179339
782 2 83.0937 74.8722 15.9726
783 2 86.8958 74.8365 15.9149
784 2 91.0018 74.9277 0.0875753
785 2 95.0549 75.0447 15.9377
786 2 99.0983 74.8288 15.9289
787 2 103.088 74.962 15.9958
788 2 107.205 75.1465 0.128028
789 2 111.134 75.2139 0.194553
790 2 115.191 75.2222 0.178046
791 2 118.918 75.3459 0.13156
792 2 122.987 75.2656 -0.0149831
793 2 126.954 75.3771 15.9125
794 2 130.877 75.3157 16.0271
795 2 135.158 75.3713 0.0921991
796 2 138.852 75.4938 15.9492
797 2 142.895 75.3381 15.8699
798 2 146.839 75.3389 15.8086
799 2 150.593 75.3229 15.947
800 2 154.664 75.1674 15.967
801 2 0.145867 79.3292 -0.0361663
802 2 4.26157 78.9888 0.196707
803 2 8.21447 79.0145 -0.0298651
804 2 12.1322 79.046 16.0361
805 2 16.0034 79.3079 16.0199
806 2 19.9021 78.9529 0.165992
807 2 23.8519 78.9624 0.174115
808 2 27.6725 78.8935 0.382264
809 2 31.5375 79.0988 16.2037
810 2 35.5206 78.7421 0.265274
811 2 39.5469 78.6434 0.153765
812 2 43.3425 78.3921 0.190896
813 2 47.3406 78.5169 0.235631
814 2 51.0884 78.5594 0.144814
815 2 54.8681 78.3514 0.18644
816 2 58.8107 78.2983 -0.0559474
817 2 62.8192 78.3744 0.0459576
818 2 66.9998 78.3587 0.328572
819 2 70.823 78.5838 16.1402
820 2 74.9871 78.5123 0.342719
821 2 78.7533 78.4017 0.148046
822 2 83.066 78.5323 15.7821
823 2 86.9813 78.7741 16.1476
824 2 90.8962 78.5333 16.0554
825 2 95.0417 78.8758 0.150237
826 2 99.1796 78.8624 0.0519545
827 2 103.043 78.8919 16.0857
828 2 107.118 78.9902 0.111214
829 2 111.004 79.2345 15.8988
830 2 115.041 79.1079 0.127939
831 2 119.011 79.3801 0.0579615
832 2 122.858 79.266 16.0631
833 2 127.055 79.2863 -0.0778983
834 2 131.01 79.4974 15.9248
835 2 135.064 79.2718 0.194062
836 2 138.973 79.427 0.0754028
837 2 142.92 79.417 15.9925
838 2 146.922 79.4096 15.8633
839 2 150.842 79.2852 15.7919
840 2 154.763 79.0132 0.0163255
841 2 0.480716 83.2485 0.158077
842 2 4.27329 83.0044 16.1253
843 2 8.15356 83.139 0.0903919
844 2 11.9541 83.1837 15.8678
845 2 15.8768 83.3299 15.9236
846 2 20.0233 82.9552 0.113998
847 2 23.8392 83.1201 0.0992254
848 2 27.6605 82.9869 0.12507
849 2 31.8134 82.9506 15.9286
850 2 35.5067 82.932 0.0492255
851 2 39.3792 82.742 0.203884
852 2 43.3077 82.6868 0.189554
853 2 47.219 82.6266 0.159793
854 2 51.0608 82.5326 0.187664
855 2 55.021 82.4312 0.190455
856 2 59.0691 82.3096 15.8989
857 2 62.8425 82.3467 15.8703
858 2 66.7839 82.284 16.0482
859 2 70.6929 82.2507 0.0335318
860 2 74.8434 82.2838 0.0262793
861 2 78.9196 82.5642 -0.0547755
862 2 83.0133 82.5533 15.8347
863 2 86.9573 82.5334 15.9005
864 2 91.1417 82.6193 15.8723
865 2 95.0885 82.6196 15.907
866 2 98.995 82.7188 15.7942
867 2 103.092 82.7595 15.8558
868 2 107.226 82.8667 0.037298
869 2 111.067 82.9406 15.9732
870 2 115.027 83.171 0.101655
871 2 119.001 82.9586 0.0345912
872 2 123.005 83.1694 16.058
873 2 127.135 83.1422 15.8888
874 2 131.034 83.3402 15.9406
875 2 134.898 83.3508 0.1407
876 2 139.05 83.3009 0.000352987
877 2 143.078 83.3014 0.172191
878 2 147.018 83.4445 15.7064
879 2 151.044 83.243 15.7039
880 2 154.84 83.1909 15.9043
881 2 0.525063 87.1794 0.0271953
882 2 4.17256 87.2081 0.130224
883 2 8.02095 87.053 -0.0365841
884 2 12.2583 87.0218 15.8792
885 2 15.9243 87.1961 15.9414
886 2 19.8748 86.9611 0.0563497
887 2 23.7004 86.9584 0.0256382
888 2 27.7501 87.1265 0.0911605
889 2 31.6865 87.0415 16.0178
890 2 35.587 86.9348 0.00440816
891 2 39.4633 86.7236 0.128875
892 2 43.4303 86.6533 0.0718008
893 2 47.4311 86.8703 0.121252
894 2 51.3574 86.482 0.160509
895 2 55.1573 86.3884 -0.0217141
896 2 59.0482 86.4598 0.0290048
897 2 62.9658 86.3578 15.9608
898 2 66.9049 86.1325 15.9892
899 2 70.7174 86.1529 0.211261
900 2 74.766 86.2519 15.9426
901 2 78.7494 86.4002 -0.0426297
902 2 83.0198 86.4237 15.9787
903 2 86.8684 86.319 -0.0949223
904 2 90.8702 86.5819 15.8695
905 2 95.1847 86.5277 15.8216
906 2 98.902 86.7712 15.6994
907 2 102.94 86.786 15.6978
908 2 106.917 86.901 15.7059
909 2 111 86.811 0.0325397
910 2 114.831 86.9269 15.9644
911 2 118.933 86.9694 15.9716
912 2 123.023 87.1792 16.1046
913 2 127.027 86.9731 15.9638
914 2 130.905 87.0913 15.8796
915 2 135.105 87.2144 0.16873
916 2 139.073 87.2027 0.116904
917 2 143.18 87.3383 15.9523
918 2 146.996 87.2551 15.8196
919 2 150.874 87.3484 15.8281
920 2 154.854 87.1825 0.00415761
921 2 0.604593 91.2953 15.9418
922 2 4.34636 91.1377 15.8963
923 2 8.30346 91.2436 -0.0600275
924 2 12.2565 91.0338 15.8026
925 2 15.9852 90.9744 15.9935
926 2 20.0251 91.07 0.0987071
927 2 23.8457 90.897 15.9733
928 2 27.9528 91.168 0.166338
929 2 31.6848 90.9731 16.1998
930 2 35.7105 90.6753 0.182298
931 2 39.8451 90.6916 0.186906
932 2 43.6187 90.7073 0.0673512
933 2 47.4451 90.7316 0.114005
934 2 51.3817 90.6794 16.0811
935 2 55.1837 90.2847 0.0354037
936 2 59.181 90.37 15.9095
937 2 63.2613 90.3595 0.133393
938 2 67.018 90.3276 0.135691
939 2 70.9399 90.1162 0.172277
940 2 74.6344 90.1859 15.9714
941 2 78.7226 90.1356 15.8472
942 2 82.9051 90.2824 15.9549
943 2 86.7931 90.2403 15.815
944 2 90.8652 90.4283 -0.0845083
945 2 94.9097 90.399 15.8094
946 2 98.828 90.6151 15.8114
947 2 102.958 90.681 15.7571
948 2 106.823 90.5385 15.7867
949 2 110.75 90.7843 15.8956
950 2 114.882 90.8832 16.1042
951 2 118.886 90.9031 0.1044
952 2 122.922 91.0394 0.0705757
953 2 126.915 91.0312 0.0599418
954 2 131.081 90.9978 16.0615
955 2 135.02 91.1647 0.194403
956 2 138.981 91.1414 16.0187
957 2 143.045 91.2005 15.9108
958 2 146.81 91.3331 -0.104106
959 2 150.961 91.3012 15.8613
960 2 154.911 91.1252 15.8435
961 2 0.443979 95.1097 15.7379
962 2 4.32378 95.2916 15.8036
963 2 8.39284 95.2086 -0.198053
964 2 12.1521 95.1024 15.672
965 2 16.2004 95.1043 15.991
966 2 19.9827 95.1846 16.0992
967 2 23.7932 95.0307 16.0527
968 2 27.9238 94.9135 0.0615529
969 2 31.938 94.9444 16.2268
970 2 35.7372 94.7349 0.267748
971 2 39.5718 94.7294 0.123546
972 2 43.6238 94.8067 0.128275
973 2 47.4745 94.7724 16.1045
974 2 51.4037 94.5118 16.0621
975 2 55.3774 94.3333 16.0618
976 2 59.1909 94.5374 0.140212
977 2 63.2707 94.5688 16.088