ITEM: TIMESTEP
18300
ITEM: NUMBER OF ATOMS
32000
ITEM: BOX BOUNDS xy xz yz pp pp pp
0.0000000000000000e+00 1.5831999999999999e+02 0.0000000000000000e+00
0.0000000000000000e+00 1.5831999999999999e+02 0.0000000000000000e+00
1.6422090474401863e-01 1.5933491095255821e+01 0.0000000000000000e+00
ITEM: ATOMS id type x y z
1 2 157.803 157.849 15.9875
2 2 3.6159 157.996 0.216832
3 2 7.62049 157.905 15.9507
4 2 11.6603 157.839 15.8334
5 2 15.5971 158.279 15.8789
6 2 19.5698 158.169 16.1022
7 2 23.5339 158.054 -0.0802195
8 2 27.7736 158.163 15.9005
9 2 31.6386 158.299 16.1559
10 2 35.7811 158.206 15.9735
11 2 39.9648 158.234 0.166625
12 2 43.9035 -0.046236 0.203079
13 2 47.7361 158.365 15.9196
14 2 51.6849 0.0418033 0.297782
15 2 55.7471 158.321 15.9084
16 2 59.7993 0.053141 0.353044
17 2 63.8638 0.0386307 16.1118
18 2 67.6952 0.114601 0.0870085
19 2 71.5684 158.306 0.210244
20 2 75.3917 158.147 0.0623124
21 2 79.4974 -0.206099 15.829
22 2 83.2844 158.039 16.0345
23 2 87.1358 158.105 15.9236
24 2 91.0499 158.095 0.184955
25 2 95.04 158.27 15.9617
26 2 98.7514 157.988 15.8978
27 2 102.759 157.91 0.174195
28 2 106.573 157.954 16.0026
29 2 110.616 157.94 0.0145963
30 2 114.566 157.724 0.188814
31 2 118.455 157.661 16.1098
32 2 122.39 157.718 15.7144
33 2 126.264 157.645 15.8869
34 2 130.286 157.612 16.0008
35 2 134.072 157.583 15.9026
36 2 138.094 157.548 15.7748
37 2 141.976 157.275 0.193185
38 2 145.985 157.529 0.343136
39 2 149.92 157.621 0.295998
40 2 153.934 158.026 0.200084
41 2 157.948 3.37603 0.0912673
42 2 3.65671 3.59388 16.0286
43 2 7.70401 3.49675 0.201992
44 2 11.6467 3.63412 15.7892
45 2 15.6613 3.80052 0.157104
46 2 19.6224 3.80159 0.10107
47 2 23.5902 3.74159 15.8889
48 2 27.6842 3.90669 15.9009
49 2 31.6809 3.91424 0.141737
50 2 35.6628 3.89024 0.150111
51 2 39.5792 3.74595 16.0624
52 2 43.5853 4.04107 0.201473
53 2 47.8787 3.86526 15.8365
54 2 51.9017 4.09882 0.306809
55 2 55.9159 3.72441 0.159949
56 2 59.8759 3.99786 15.961
57 2 63.8074 3.90388 15.8376
58 2 67.7287 4.22773 -0.118081
59 2 71.6109 4.14595 -0.115222
60 2 75.435 3.93544 0.267854
61 2 79.3302 3.76733 0.0664841
62 2 83.3916 3.67619 15.9941
63 2 87.2224 3.7277 15.853
64 2 91.2291 3.70213 0.336041
65 2 95.1136 3.76197 16.1185
66 2 98.9805 3.80967 15.8978
67 2 102.741 3.81941 15.9867
68 2 106.766 3.89416 15.7381
69 2 110.607 3.74685 15.825
70 2 114.674 3.47118 15.9115
71 2 118.574 3.32961 15.795
72 2 122.43 3.45089 15.8925
73 2 126.504 3.25919 0.318648
74 2 130.327 3.24863 -0.0261525
75 2 134.09 3.15971 15.8842
76 2 138.19 3.27112 15.8424
77 2 142.032 3.28471 15.831
78 2 145.961 3.20235 0.316074
79 2 149.9 3.13457 16.0644
80 2 154.002 3.52451 0.212064
81 2 157.9 7.27347 0.0512941
82 2 3.74773 7.47679 0.199419
83 2 7.50503 7.37897 15.9229
84 2 11.5164 7.61567 -0.0971258
85 2 15.4737 7.63101 0.160709
86 2 19.7263 7.8364 0.287249
87 2 23.4432 7.78253 16.0643
88 2 27.8069 7.67155 0.313985
89 2 31.6053 7.65183 16.1424
90 2 35.8458 7.57745 16.0371
91 2 39.8739 7.66657 0.156079
92 2 43.7513 7.99812 15.7716
93 2 47.6878 7.71979 16.0107
94 2 51.7269 7.97546 15.8847
95 2 55.8056 7.95011 0.276415
96 2 59.7093 8.09121 0.44254
97 2 63.826 7.97653 0.0914008
98 2 67.5833 7.97803 15.8945
99 2 71.7116 8.23477 15.9506
100 2 75.5413 7.85656 0.135928
101 2 79.4397 7.96518 -0.0806362
102 2 83.3506 7.82702 0.0603203
103 2 87.3495 7.58813 0.177745
104 2 91.2784 7.58037 15.7906
105 2 95.1411 7.62096 15.8898
106 2 99.1203 7.94802 0.171533
107 2 102.88 7.61512 0.168591
108 2 106.858 7.67083 15.9144
109 2 110.746 7.57964 0.314353
110 2 114.397 7.68952 15.9715
111 2 118.52 7.44419 0.328171
112 2 122.544 7.40309 0.152112
113 2 126.41 7.35906 15.9243
114 2 130.248 7.18662 15.9405
115 2 134.309 7.30099 0.264346
116 2 138.071 7.25178 0.047052
117 2 141.9 7.18986 0.250837
118 2 145.847 7.08979 0.30532
119 2 149.813 7.04479 15.8729
120 2 153.822 7.22364 15.9434
121 2 157.858 11.0574 16.063
122 2 3.40354 11.2792 0.170927
123 2 7.51688 11.4223 15.9727
124 2 11.4605 11.3221 16.0249
125 2 15.5177 11.4395 0.331485
126 2 19.474 11.6474 0.256835
127 2 23.7039 11.523 15.9255
128 2 27.6799 11.5652 16.0804
129 2 31.7119 11.5535 15.8833
130 2 35.6943 11.6868 0.133637
131 2 39.7401 11.5409 15.8754
132 2 43.6512 11.82 0.155056
133 2 47.732 11.7508 0.259005
134 2 51.7184 11.8726 16.0239
135 2 55.8439 11.7667 15.815
136 2 59.535 12.0504 0.214032
137 2 63.6793 12.016 16.0167
138 2 67.6507 12.0061 15.8981
139 2 71.6822 12.0187 0.191746
140 2 75.5029 12.0512 15.9343
141 2 79.448 12.0567 0.0379594
142 2 83.497 11.7555 0.0317482
143 2 87.2379 11.7021 15.7036
144 2 91.3084 11.7436 15.8145
145 2 95.0945 11.6755 0.186951
146 2 99.2212 11.6367 0.128043
147 2 102.793 11.5531 16.0344
148 2 107.011 11.5958 15.9307
149 2 110.755 11.4161 15.8661
150 2 114.686 11.4445 16.1432
151 2 118.744 11.4796 0.145306
152 2 122.429 11.3658 0.268278
153 2 126.41 11.4443 15.9786
154 2 130.422 11.4232 0.100867
155 2 134.289 11.2576 15.9345
156 2 138.244 11.3482 16.0176
157 2 142.114 11.2733 0.0317834
158 2 145.889 11.1949 -0.0148054
159 2 149.75 11.1477 15.8457
160 2 153.833 11.1776 -0.0536914
161 2 157.75 15.1114 0.147855
162 2 3.3485 15.0141 15.9925
163 2 7.45509 15.2541 15.7803
164 2 11.4036 15.3151 0.287586
165 2 15.5449 15.3496 0.123555
166 2 19.5311 15.4334 16.0459
167 2 23.5717 15.2924 0.20957
168 2 27.6541 15.4666 15.9777
169 2 31.5325 15.4025 0.258544
170 2 35.6937 15.5128 0.111452
171 2 39.6066 15.54 15.9042
172 2 43.7332 15.643 0.192565
173 2 47.6858 15.6942 0.238151
174 2 51.5756 15.6546 0.168473
175 2 55.5628 15.9523 15.8036
176 2 59.6633 16.0105 16.1626
177 2 63.7561 16.031 15.8024
178 2 67.6487 16.0529 16.0513
179 2 71.6065 15.8727 16.0414
180 2 75.6547 16.0619 15.8176
181 2 79.661 16.0606 15.7974
182 2 83.4925 15.8045 15.8338
183 2 87.4088 15.8003 0.0722041
184 2 91.0713 15.6532 16.1756
185 2 95.1387 15.7334 0.151274
186 2 99.0545 15.5615 15.7096
187 2 102.997 15.645 0.102969
188 2 106.982 15.6303 15.9186
189 2 110.943 15.3242 16.0134
190 2 114.731 15.5886 15.8608
191 2 118.71 15.5241 15.8144
192 2 122.799 15.3909 15.6527
193 2 126.534 15.3554 0.125971
194 2 130.485 15.2729 -0.0890382
195 2 134.361 15.3454 15.7946
196 2 138.282 15.3765 15.9028
197 2 141.959 15.3439 0.302744
198 2 146.008 15.0902 0.207108
199 2 149.866 15.0707 0.0795276
200 2 153.746 14.9243 0.0976876
201 2 157.745 19.1309 16.1133
202 2 3.45773 18.8579 15.879
203 2 7.57701 19.2136 15.8729
204 2 11.4844 19.239 15.9802
205 2 15.4649 19.2912 16.0385
206 2 19.718 19.2755 16.0185
207 2 23.49 19.2974 0.242536
208 2 27.4924 19.1933 0.296094
209 2 31.4189 19.2959 15.9227
210 2 35.6701 19.4443 0.245298
211 2 39.5038 19.4898 0.0332083
212 2 43.6728 19.4275 15.7974
213 2 47.7032 19.5044 0.258299
214 2 51.5747 19.8195 16.0069
215 2 55.7107 19.5503 15.8438
216 2 59.5766 19.7935 16.0237
217 2 63.6134 19.9713 15.9465
218 2 67.6743 19.9259 16.0159
219 2 71.6972 20.0663 16.1298
220 2 75.4751 19.7448 15.862
221 2 79.5128 19.7912 16.0736
222 2 83.5362 20.0001 15.8878
223 2 87.4934 19.8292 15.9096
224 2 91.2637 19.8678 15.9178
225 2 95.2625 19.6682 0.137313
226 2 98.9865 19.7326 -0.0969765
227 2 102.915 19.6126 15.8791
228 2 106.954 19.5738 15.7914
229 2 110.965 19.8911 0.187894
230 2 114.769 19.6178 15.8983
231 2 118.733 19.5998 0.131056
232 2 122.646 19.4779 15.6749
233 2 126.614 19.3941 0.121662
234 2 130.409 19.5029 15.8154
235 2 134.279 19.2747 0.107228
236 2 138.071 19.4325 0.377369
237 2 142.269 19.2744 15.9854
238 2 146.321 19.1688 0.140767
239 2 150.074 19.1793 -0.00410383
240 2 153.985 19.0851 15.8532
241 2 157.878 23.0056 0.19633
242 2 3.32334 22.9056 16.0222
243 2 7.33334 23.1276 0.0115697
244 2 11.4038 23.0362 0.289369
245 2 15.4237 23.3015 16.0808
246 2 19.3668 23.3434 0.164646
247 2 23.4645 23.2483 15.86
248 2 27.5289 23.1098 0.180055
249 2 31.5884 23.2026 15.9065
250 2 35.4922 23.2174 0.0556347
251 2 39.4402 23.5807 0.282025
252 2 43.5903 23.5446 16.0766
253 2 47.6358 23.5441 15.8207
254 2 51.526 23.6208 0.112456
255 2 55.3623 23.4857 15.9409
256 2 59.6283 23.6221 15.9216
257 2 63.5095 23.6896 0.373598
258 2 67.7384 23.8042 0.336011
259 2 71.5354 23.9446 15.9384
260 2 75.5981 23.7621 0.232224
261 2 79.37 23.8752 16.1634
262 2 83.656 23.8891 15.9371
263 2 87.5572 23.7487 15.9201
264 2 91.6647 23.7292 15.9865
265 2 95.4015 23.8013 15.7785
266 2 99.2376 23.6393 15.6363
267 2 102.94 23.7971 15.7546
268 2 107.065 23.7417 15.8579
269 2 110.884 23.4825 15.9078
270 2 114.814 23.5394 15.9818
271 2 118.722 23.4139 0.0840276
272 2 122.548 23.4073 0.164693
273 2 126.52 23.3994 0.0314569
274 2 130.292 23.4531 0.0515175
275 2 134.342 23.5142 0.0707785
276 2 138.2 23.1015 0.323167
277 2 142.341 23.1809 15.9823
278 2 146.158 23.2254 0.0752702
279 2 150.053 23.1705 15.8465
280 2 153.955 23.1931 0.184821
281 2 158.038 27.1286 0.109398
282 2 3.4918 26.8747 0.120218
283 2 7.37381 26.9006 16.2433
284 2 11.3593 26.8949 0.178216
285 2 15.3951 27.2212 0.0689006
286 2 19.4122 27.1777 15.8297
287 2 23.53 27.2606 0.159196
288 2 27.5492 27.1705 0.0705817
289 2 31.3665 27.2167 15.8335
290 2 35.6098 27.2591 0.275665
291 2 39.6008 27.2852 15.9634
292 2 43.41 27.4884 16.0136
293 2 47.5923 27.2321 15.8711
294 2 51.4581 27.4875 15.8404
295 2 55.6117 27.4592 15.9225
296 2 59.4051 27.498 0.175972
297 2 63.6115 27.6638 0.399264
298 2 67.5074 27.5459 0.180899
299 2 71.7657 27.9367 0.139309
300 2 75.5641 27.7211 16.0648
301 2 79.7229 27.6929 15.8796
302 2 83.6656 27.7027 15.837
303 2 87.5943 27.9334 15.8172
304 2 91.6209 27.8309 15.7934
305 2 95.2907 27.9437 15.7841
306 2 99.3148 27.7641 15.7645
307 2 103.067 27.7874 15.8355
308 2 106.896 27.5378 0.0951973
309 2 110.948 27.4857 0.038157
310 2 114.922 27.4721 0.215193
311 2 118.843 27.4584 15.8298
312 2 122.809 27.4877 0.0751445
313 2 126.764 27.406 -0.0332484
314 2 130.637 27.3872 15.9838
315 2 134.496 27.3517 15.8148
316 2 138.424 27.3529 0.0675654
317 2 142.314 27.1822 15.8751
318 2 146.157 27.1671 0.298075
319 2 150.028 26.999 0.302719
320 2 153.714 27.0085 0.239295
321 2 157.934 31.0349 -0.0288183
322 2 3.47497 31.0452 15.928
323 2 7.39458 30.8533 0.0837389
324 2 11.3108 31.0106 15.9703
325 2 15.4257 30.9576 0.202223
326 2 19.5343 31.0071 0.322744
327 2 23.4666 31.1974 0.334095
328 2 27.3677 31.0001 0.320044
329 2 31.4679 30.9863 0.252834
330 2 35.3285 31.1917 15.8007
331 2 39.504 31.2671 15.8284
332 2 43.4561 31.3468 15.9992
333 2 47.4558 31.291 15.9899
334 2 51.4935 31.3476 0.462559
335 2 55.6082 31.2731 0.23837
336 2 59.5675 31.5669 15.774
337 2 63.4819 31.583 15.7909
338 2 67.4874 31.425 15.9564
339 2 71.431 31.6515 0.154182
340 2 75.718 31.5315 0.256391
341 2 79.5818 31.5954 15.907
342 2 83.4634 31.5999 0.0674287
343 2 87.5959 31.8986 -0.0383321
344 2 91.6231 31.8079 6.27372e-05
345 2 95.4904 31.82 15.9062
346 2 99.3218 31.8049 15.9509
347 2 103.158 31.7251 15.9884
348 2 106.915 31.6812 15.9286
349 2 111.229 31.4925 0.11014
350 2 114.99 31.4457 15.918
351 2 118.981 31.4088 15.8617
352 2 122.955 31.5381 15.992
353 2 126.671 31.6244 15.7853
354 2 130.713 31.3825 15.6635
355 2 134.444 31.339 15.981
356 2 138.512 31.2414 0.0586358
357 2 142.349 31.3199 0.0630798
358 2 146.177 31.2288 15.7311
359 2 150.1 31.1636 0.43563
360 2 154.109 31.122 0.142363
361 2 158.12 35.2162 0.131373
362 2 3.57108 34.9469 -0.000721491
363 2 7.51598 35.1521 0.291871
364 2 11.414 34.8946 0.226107
365 2 15.5044 34.7988 0.158024
366 2 19.271 34.8958 0.138474
367 2 23.3545 35.1355 0.216114
368 2 27.3997 34.8774 0.254391
369 2 31.2786 35.1071 0.230572
370 2 35.5626 35.0405 0.321468
371 2 39.3208 35.1005 16.0792
372 2 43.4035 35.0363 0.205341
373 2 47.2757 35.1535 15.8175
374 2 51.2448 35.3556 0.164142
375 2 55.2517 35.2262 16.0618
376 2 59.5051 35.2765 0.198701
377 2 63.3395 35.4437 15.9524
378 2 67.4302 35.3503 0.0884028
379 2 71.6072 35.4028 0.307223
380 2 75.5466 35.6743 0.126045
381 2 79.4502 35.6268 16.0407
382 2 83.613 35.7038 0.193431
383 2 87.5799 35.7372 16.0133
384 2 91.6647 35.6701 0.119144
385 2 95.6019 35.7748 16.0115
386 2 99.4552 35.7833 15.9166
387 2 103.364 35.6174 16.1
388 2 107.191 35.7158 15.8492
389 2 111.331 35.4191 0.110888
390 2 115.263 35.5608 15.7421
391 2 118.911 35.447 15.8492
392 2 123.045 35.5317 0.115168
393 2 126.809 35.4644 0.185893
394 2 130.708 35.4119 0.122548
395 2 134.671 35.4652 0.10102
396 2 138.48 35.3783 15.9367
397 2 142.394 35.3286 0.120334
398 2 146.366 35.2576 16.1854
399 2 150.137 35.2526 0.351885
400 2 154.294 35.2024 0.198904
401 2 158.021 39.1816 0.164066
402 2 3.6879 39.0791 0.300572
403 2 7.66836 39.1347 0.175169
404 2 11.6422 38.9181 15.7749
405 2 15.4848 38.9128 0.136062
406 2 19.3247 38.782 0.146052
407 2 23.2113 38.7959 15.9206
408 2 27.3171 38.7932 0.193117
409 2 31.1005 38.864 16.0165
410 2 35.2548 38.7632 0.154644
411 2 39.3314 38.8601 0.0949115
412 2 43.292 38.9966 15.9111
413 2 47.3651 39.0049 0.162817
414 2 51.3246 39.3186 16.0298
415 2 55.2095 39.0462 0.143376
416 2 59.274 39.4246 15.9939
417 2 63.5133 39.2376 0.421256
418 2 67.4276 39.1896 0.343295
419 2 71.4345 39.4845 15.9049
420 2 75.28 39.3683 0.164842
421 2 79.4 39.4911 16.0396
422 2 83.4326 39.536 15.8463
423 2 87.5347 39.4931 0.0830693
424 2 91.505 39.5837 15.8508
425 2 95.4334 39.5864 -0.0695186
426 2 99.5331 39.756 0.200857
427 2 103.403 39.6333 16.0463
428 2 107.304 39.6961 -0.0295694
429 2 111.211 39.6448 15.9562
430 2 115.279 39.4927 0.250261
431 2 119.192 39.4421 0.146144
432 2 122.933 39.5488 15.8179
433 2 126.839 39.4976 15.9204
434 2 130.68 39.4444 15.9444
435 2 134.5 39.3288 0.00656614
436 2 138.425 39.3694 0.169389
437 2 142.36 39.3422 0.139009
438 2 146.333 39.2079 16.0239
439 2 150.131 39.2122 16.055
440 2 154.107 39.2852 15.9835
441 2 158.156 43.0664 0.413723
442 2 3.75448 43.0915 0.113993
443 2 7.56543 43.0124 0.154595
444 2 11.5892 42.9737 0.1125
445 2 15.608 43.0415 0.342917
446 2 19.4354 42.7829 0.152224
447 2 23.3774 42.7734 0.105072
448 2 27.2537 42.8619 0.233492
449 2 31.4151 42.6798 0.127311
450 2 35.2899 42.8437 0.328966
451 2 39.1131 42.7154 0.0416919
452 2 43.3693 43.0096 0.265997
453 2 47.3731 43.0604 0.219635
454 2 51.4162 43.0799 0.150051
455 2 55.3516 43.1564 15.8653
456 2 59.3084 43.0583 16.0827
457 2 63.3988 43.0562 0.136439
458 2 67.5856 43.2426 15.8497
459 2 71.5433 43.3054 0.0729996
460 2 75.3365 43.5274 15.8132
461 2 79.2976 43.1914 15.8631
462 2 83.3349 43.4576 0.218107
463 2 87.5701 43.3876 0.0793508
464 2 91.3816 43.5436 0.0633731
465 2 95.5446 43.6162 15.9647
466 2 99.4635 43.4365 15.7718
467 2 103.439 43.6428 15.9811
468 2 107.273 43.8163 15.9844
469 2 111.367 43.575 15.7506
470 2 115.181 43.4524 15.8928
471 2 119.061 43.6024 15.8363
472 2 122.916 43.7157 15.7923
473 2 127.004 43.7272 15.9196
474 2 130.756 43.1947 0.0190677
475 2 134.723 43.3835 0.2731
476 2 138.477 43.3486 0.213343
477 2 142.517 43.3719 15.8103
478 2 146.477 43.2948 15.8448
479 2 150.278 43.0711 15.9893
480 2 154.131 43.2113 0.122143
481 2 158.369 47.1657 0.128091
482 2 3.66338 47.1232 0.274134
483 2 7.51617 46.964 0.172186
484 2 11.7015 46.8429 15.8961
485 2 15.4527 46.9406 0.263026
486 2 19.375 46.7279 15.9499
487 2 23.2767 46.7399 0.201067
488 2 27.2382 46.783 0.210719
489 2 30.9879 46.6534 0.320442
490 2 34.9511 46.7939 0.26096
491 2 39.0471 46.7551 15.8948
492 2 43.1543 46.8797 0.212372
493 2 47.4396 46.7762 0.348165
494 2 51.2441 47.0231 0.262322
495 2 55.29 47.0572 0.00360923
496 2 59.4639 47.0424 16.0305
497 2 63.4004 47.1909 16.0032
498 2 67.3134 47.0813 0.184158
499 2 71.1774 47.2028 0.164528
500 2 75.2948 47.2957 0.2088
501 2 79.3648 47.0673 15.8851
502 2 83.4776 47.3108 0.196804
503 2 87.4444 47.4891 0.213851
504 2 91.4311 47.3317 0.27422
505 2 95.5136 47.4619 15.7877
506 2 99.3771 47.4765 16.0783
507 2 103.536 47.6574 0.182071
508 2 107.391 47.5568 0.077814
509 2 111.528 47.6577 15.8124
510 2 115.125 47.4833 15.784
511 2 119.188 47.5617 0.375765
512 2 123.115 47.6678 15.9594
513 2 126.935 47.5635 0.0171869
514 2 130.857 47.5427 15.9991
515 2 134.702 47.474 0.18376
516 2 138.494 47.2726 0.174923
517 2 142.513 47.4237 0.0202669
518 2 146.473 47.2886 0.187574
519 2 150.487 47.3426 15.9242
520 2 154.435 47.0406 15.9324
521 2 158.194 51.1717 0.117259
522 2 3.97169 51.0496 16.003
523 2 7.79726 50.9752 0.472527
524 2 11.6897 50.8659 16.16
525 2 15.4827 50.828 0.40007
526 2 19.5391 51.1305 0.255135
527 2 23.351 50.8902 16.0014
528 2 27.1318 50.5729 0.377559
529 2 31.2234 50.6823 0.336413
530 2 35.1087 50.7485 0.227721
531 2 39.006 50.7327 0.253425
532 2 43.1721 50.7916 15.9511
533 2 47.2379 50.6607 15.9375
534 2 51.0687 50.7735 15.9309
535 2 55.2563 50.8157 0.218259
536 2 59.2581 50.7673 16.0537
537 2 63.2491 51.0596 15.8457
538 2 67.3613 51.16 -0.0343742
539 2 71.2043 51.1952 16.0669
540 2 75.1816 51.0809 0.250888
541 2 79.2349 51.1244 0.24015
542 2 83.2681 51.2719 0.15123
543 2 87.2804 51.4457 0.0683896
544 2 91.3211 51.4855 0.144948
545 2 95.3975 51.4716 16.017
546 2 99.4826 51.4612 16.0442
547 2 103.374 51.4765 15.8909
548 2 107.338 51.7704 0.297294
549 2 111.209 51.4851 0.128363
550 2 115.451 51.676 0.0947359
551 2 119.2 51.6287 16.0345
552 2 123.114 51.4695 0.0352016
553 2 127.064 51.5518 16.0853
554 2 130.711 51.6581 0.296082
555 2 134.633 51.5404 15.9416
556 2 138.58 51.4795 0.237466
557 2 142.61 51.564 16
558 2 146.454 51.3034 0.186925
559 2 150.47 51.2432 0.140474
560 2 154.277 51.198 16.1709
561 2 0.0811913 55.0873 0.411943
562 2 3.81279 55.1632 0.150572
563 2 7.72259 54.9408 0.445471
564 2 11.7941 54.8608 0.374849
565 2 15.761 54.9466 16.1364
566 2 19.5536 54.9644 0.3568
567 2 23.4994 55.0965 0.203336
568 2 27.2283 54.7 16.1261
569 2 31.3351 54.9775 0.159333
570 2 35.1247 54.7577 0.480776
571 2 39.0629 54.6882 0.167668
572 2 43.0341 54.6903 0.383808
573 2 47.0599 54.6688 0.23895
574 2 51.1651 54.5366 0.148798
575 2 55.1605 54.7741 15.8706
576 2 59.2552 54.6531 15.841
577 2 63.2529 55.0128 16.1054
578 2 67.0492 54.9382 0.370446
579 2 71.3312 55.1245 0.217527
580 2 75.2585 55.0671 16.1084
581 2 79.4322 54.9437 15.856
582 2 83.2509 55.0585 0.15898
583 2 87.2682 55.1381 16.0837
584 2 91.186 55.2439 0.0825887
585 2 95.2612 55.3798 0.202806
586 2 99.2678 55.4656 16.0036
587 2 103.302 55.4357 0.0649744
588 2 107.448 55.5036 0.237354
589 2 111.294 55.3858 15.9759
590 2 115.442 55.6509 0.298637
591 2 119.2 55.6346 15.8896
592 2 123.089 55.6897 0.138473
593 2 126.814 55.6703 0.279966
594 2 130.817 55.5801 15.8562
595 2 134.939 55.2398 15.9088
596 2 138.877 55.4857 15.9171
597 2 142.612 55.504 0.335873
598 2 146.467 55.3075 -0.000380406
599 2 150.383 55.4843 0.111122
600 2 154.266 55.2343 0.0282439
601 2 158.274 59.2574 0.281662
602 2 3.77623 59.2864 15.9517
603 2 7.64624 59.1319 0.485163
604 2 11.8803 58.8953 16.1447
605 2 15.3906 59.1463 15.9964
606 2 19.4423 58.9413 0.2928
607 2 23.4567 58.9389 0.117543
608 2 27.476 58.7435 0.18327
609 2 31.3229 58.7673 0.400887
610 2 35.1471 58.7535 15.9966
611 2 39.0282 58.7389 0.0704814
612 2 42.9583 58.6372 0.294973
613 2 47.0295 58.5245 0.26775
614 2 50.9892 58.4795 0.0727348
615 2 55.1678 58.642 16.0234
616 2 59.2763 58.6419 15.9692
617 2 63.1406 58.8827 16.0237
618 2 67.1204 58.7956 15.9382
619 2 71.1538 58.9135 15.9401
620 2 75.3087 58.8903 16.0537
621 2 79.3865 59.0732 0.180665
622 2 83.1467 58.9592 0.33682
623 2 87.0832 58.9655 0.0451996
624 2 91.2916 59.1723 0.159888
625 2 95.1465 59.0689 0.263432
626 2 99.2432 59.1422 16.0618
627 2 103.121 59.3854 0.337859
628 2 107.248 59.4785 0.177261
629 2 111.251 59.4137 15.8802
630 2 115.252 59.6507 15.8844
631 2 119.259 59.5086 16.0095
632 2 123.2 59.8306 16.0558
633 2 126.939 59.5037 0.171692
634 2 131.038 59.5315 15.8776
635 2 134.921 59.4589 16.0758
636 2 138.785 59.3576 15.991
637 2 142.786 59.296 0.220903
638 2 146.694 59.3809 0.171759
639 2 150.492 59.3372 0.226956
640 2 154.488 59.4329 0.176376
641 2 0.208645 63.4902 0.316012
642 2 3.97982 63.126 0.325578
643 2 7.95483 63.0039 15.9777
644 2 11.9323 63.0662 16.0651
645 2 15.6476 63.0332 0.182303
646 2 19.7806 62.9268 0.320726
647 2 23.4182 62.7638 0.140315
648 2 27.3701 62.7632 0.372422
649 2 31.2992 62.6326 0.239814
650 2 35.299 62.5733 0.146523
651 2 39.1902 62.8021 0.196339
652 2 43.0444 62.5794 15.825
653 2 47.176 62.5807 15.8818
654 2 50.9588 62.6266 0.053561
655 2 55.1184 62.4077 0.267105
656 2 59.0129 62.555 15.9308
657 2 63.1158 62.7651 0.109295
658 2 67.1254 62.8221 15.937
659 2 71.202 62.7113 15.9366
660 2 75.0584 62.869 0.167752
661 2 79.2004 62.9274 16.0255
662 2 83.1789 63.0767 0.105426
663 2 87.0201 63.0044 15.8297
664 2 90.9695 63.0234 15.8803
665 2 95.3595 63.031 15.8561
666 2 99.118 63.1385 15.8673
667 2 102.938 63.1917 0.233466
668 2 107.328 63.3472 16.1189
669 2 111.243 63.5215 15.9342
670 2 115.131 63.5346 -0.0672253
671 2 119.243 63.5269 0.305164
672 2 123.485 63.5834 0.0297979
673 2 127.271 63.683 15.9363
674 2 131.077 63.6814 0.383742
675 2 134.889 63.416 16.0071
676 2 138.94 63.3476 0.333066
677 2 142.677 63.3728 16.0474
678 2 146.719 63.4378 0.215288
679 2 150.433 63.2238 0.105223
680 2 154.393 63.1399 0.17933
681 2 0.0821595 67.1687 0.206293
682 2 4.01948 67.0853 0.297177
683 2 8.10914 67.0963 15.9489
684 2 11.8673 67.2031 16.1334
685 2 15.8512 66.888 0.161027
686 2 19.8409 66.9015 0.268066
687 2 23.6428 66.8731 0.266341
688 2 27.4775 66.8433 0.141441
689 2 31.4683 66.7606 -0.0877104
690 2 35.2654 66.6905 15.969
691 2 39.1029 66.6301 15.9701
692 2 43.1633 66.6351 15.808
693 2 47.295 66.467 15.9022
694 2 51.0709 66.4576 0.0937131
695 2 55.1117 66.4587 15.8739
696 2 58.9362 66.5801 16.1992
697 2 62.7775 66.7295 0.275089
698 2 67.011 66.6219 16.0027
699 2 71.0392 66.6897 0.237106
700 2 75.0481 66.7741 0.205951
701 2 79.1564 66.79 15.8347
702 2 83.2135 66.8527 15.9805
703 2 87.1554 66.9583 15.9208
704 2 91.0222 67.0272 0.344776
705 2 95.0422 67.0364 16.0042
706 2 99.1314 66.9164 16.0066
707 2 102.916 67.1388 0.430822
708 2 106.976 67.2928 0.133335
709 2 111.134 67.6543 15.7452
710 2 115.125 67.4159 15.793
711 2 119.225 67.4809 0.154527
712 2 122.959 67.3615 15.7129
713 2 127.182 67.4292 0.320526
714 2 131.18 67.6677 0.2433
715 2 135.009 67.4626 16.0979
716 2 138.894 67.374 0.317986
717 2 142.843 67.3144 15.9801
718 2 146.696 67.3672 16.0235
719 2 150.734 67.2876 0.442321
720 2 154.594 67.2895 0.0393635
721 2 158.514 71.2372 16.086
722 2 4.10707 71.1574 0.123543
723 2 7.88243 71.0535 0.111613
724 2 11.9724 71.0821 0.199677
725 2 15.857 70.9098 15.9911
726 2 19.6943 71.1054 0.155616
727 2 23.7133 70.8731 0.253929
728 2 27.6377 70.9425 0.251707
729 2 31.6078 70.725 0.124843
730 2 35.4742 70.6825 0.131472
731 2 39.2781 70.655 0.299131
732 2 43.3493 70.5424 0.417595
733 2 47.3224 70.5808 15.9527
734 2 50.9473 70.3834 0.223332
735 2 55.1988 70.3605 15.8349
736 2 58.9864 70.437 16.0565
737 2 63.1003 70.5423 15.9487
738 2 66.9531 70.5306 15.9046
739 2 70.8411 70.5818 0.143922
740 2 75.0283 70.6187 15.7986
741 2 79.0577 70.6679 0.0734102
742 2 82.8872 70.5948 0.21613
743 2 87.0199 70.7497 16.0212
744 2 91.1555 70.8878 15.9814
745 2 95.1833 70.8647 15.9415
746 2 98.9456 71.074 15.9237
747 2 103.176 70.9289 16.0641
748 2 107.043 71.1426 0.425733
749 2 111.222 71.4375 0.210496
750 2 115.013 71.4176 0.0975044
751 2 118.981 71.3113 0.0959749
752 2 123.14 71.265 15.944
753 2 127.084 71.4584 0.105884
754 2 131.185 71.5323 0.0560476
755 2 134.943 71.3595 0.197546
756 2 139.011 71.6011 16.0528
757 2 142.846 71.4767 15.9966
758 2 146.786 71.292 16.0481
759 2 150.56 71.4288 0.286549
760 2 154.419 71.2655 0.195896
761 2 0.0488875 75.1545 15.6452
762 2 4.21202 75.1357 15.9109
763 2 8.06703 75.1071 0.0215746
764 2 12.1567 74.9103 0.217049
765 2 15.9452 75.0297 15.8855
766 2 19.939 75.022 0.151602
767 2 23.6947 74.9564 0.269357
768 2 27.6146 74.8395 0.28881
769 2 31.5478 74.7882 0.245791
770 2 35.6132 74.7719 0.00886547
771 2 39.3618 74.6008 0.285046
772 2 43.132 74.5354 0.123801
773 2 47.1491 74.6011 0.332769
774 2 51.0966 74.3677 15.7709
775 2 55.1001 74.4399 16.0394
776 2 59.143 74.4972 16.1999
777 2 62.9325 74.3063 16.2622
778 2 66.9608 74.6001 15.9031
779 2 70.9399 74.4596 0.17124
780 2 74.8405 74.3395 0.187322
781 2 78.9853 74.8137 0.226701
782 2 83.0879 74.666 15.9288
783 2 87.0597 74.7307 16.1493
784 2 90.9216 74.8087 0.406655
785 2 94.9254 74.6806 16.0431
786 2 99.0043 74.9521 15.8516
787 2 103.089 75.1126 15.9206
788 2 107.032 75.1188 0.265138
789 2 110.919 75.2087 0.11076
790 2 115.111 75.22 -0.0101685
791 2 119.006 75.3155 0.0994596
792 2 123.143 75.213 0.144645
793 2 126.981 75.3857 15.8176
794 2 131.178 75.3438 15.9396
795 2 135.261 75.5897 -0.0511599
796 2 139.127 75.5242 16.0006
797 2 143.068 75.4733 15.9281
798 2 146.928 75.3801 16.1701
799 2 150.969 75.4885 16.0068
800 2 154.674 75.3095 16.0212
801 2 0.40559 79.2299 0.207842
802 2 4.29524 79.1128 0.180181
803 2 8.15216 79.0775 0.33771
804 2 12.0653 78.9472 15.8527
805 2 15.8731 78.9471 15.8648
806 2 19.8714 79.0157 0.267234
807 2 23.8436 78.7116 0.11606
808 2 27.7049 78.8533 0.080874
809 2 31.4805 78.7638 15.8719
810 2 35.4959 78.7556 0.0554768
811 2 39.3823 78.7231 0.256639
812 2 43.1977 78.5953 0.230527
813 2 47.1532 78.5085 0.137192
814 2 51.1254 78.3107 0.209978
815 2 55.1744 78.2526 0.098493
816 2 59.1 78.2828 0.375403
817 2 62.9095 78.2627 0.42811
818 2 66.8452 78.3138 0.0826804
819 2 70.9267 78.3536 16.0124
820 2 74.9204 78.4822 0.227956
821 2 78.9856 78.54 0.402576
822 2 82.8151 78.4234 16.0001
823 2 86.9229 78.5921 15.8083
824 2 91.2233 78.737 15.9778
825 2 95.1596 78.7817 0.243635
826 2 99.0794 78.8812 0.169725
827 2 103.067 79.1921 15.8904
828 2 106.903 79.0299 0.191239
829 2 110.837 79.0481 15.7341
830 2 114.989 79.1388 -0.0320248
831 2 119.029 79.276 0.385136
832 2 123.047 79.1612 15.8799
833 2 127.002 79.3498 0.283383
834 2 131.032 79.1224 15.8
835 2 135.235 79.3422 0.175683
836 2 139.148 79.4356 0.318673
837 2 143.195 79.4919 15.877
838 2 147.004 79.3047 15.9351
839 2 150.823 79.3942 15.9777
840 2 154.712 79.3692 0.108208
841 2 0.454407 83.0791 0.118276
842 2 4.24091 83.2479 15.5977
843 2 8.24029 83.0692 0.0292664
844 2 12.2019 83.2018 15.9257
845 2 15.968 82.893 15.8819
846 2 20.0502 82.9573 0.366365
847 2 23.8197 82.8875 0.307681
848 2 27.8802 82.8745 0.106496
849 2 31.725 82.6253 15.9896
850 2 35.5707 82.8106 0.176545
851 2 39.5228 82.676 0.0793814
852 2 43.4603 82.7195 0.175432
853 2 47.3088 82.4262 0.0676929
854 2 51.137 82.3046 0.0524608
855 2 55.1142 82.345 0.197767
856 2 59.0693 82.2606 15.8247
857 2 62.9742 82.352 15.8026
858 2 66.824 82.3208 15.9897
859 2 71.0406 82.3391 0.222573
860 2 74.8849 82.2079 0.175147
861 2 78.8641 82.2555 0.142437
862 2 82.8284 82.3154 15.9738
863 2 86.8658 82.6916 16.0483
864 2 90.97 82.5593 16.0777
865 2 94.8495 82.8025 15.8837
866 2 98.8875 82.6595 16.0352
867 2 102.872 82.9017 15.8615
868 2 106.93 82.9119 0.0708845
869 2 111.068 83.0195 15.9213
870 2 115.078 83.0337 0.146043
871 2 119.048 83.0949 0.358227
872 2 122.952 83.0689 15.8469
873 2 127.006 83.2817 15.9521
874 2 130.993 83.2167 15.7846
875 2 135.048 83.392 0.159961
876 2 138.982 83.5044 0.256002
877 2 142.977 83.2834 0.0519201
878 2 146.866 83.2687 15.7979
879 2 150.811 83.3562 16.1129
880 2 154.786 83.1664 15.9715
881 2 0.365154 87.1539 0.294345
882 2 4.61717 87.2482 0.0472539
883 2 8.33898 86.909 0.183551
884 2 12.2114 87.0427 15.8429
885 2 16.0079 87.0164 16.0113
886 2 20.2254 87.0064 0.190395
887 2 24.0421 87.0593 0.315217
888 2 27.874 86.9247 0.111206
889 2 31.7451 86.9107 15.7468
890 2 35.7444 86.816 0.233718
891 2 39.564 86.7247 0.169192
892 2 43.442 86.743 0.216892
893 2 47.2969 86.4586 0.16161
894 2 51.2975 86.428 0.0717272
895 2 55.0877 86.5325 0.142243
896 2 59.1016 86.2923 0.226629
897 2 62.9825 86.3973 15.6886
898 2 66.8749 86.1493 15.8264
899 2 70.778 86.3421 0.0227173
900 2 74.9335 86.3612 15.7853
901 2 78.9363 86.3273 0.14926
902 2 82.9552 86.4117 15.9762
903 2 87.0374 86.4694 0.359929
904 2 90.9645 86.6292 15.977
905 2 94.9254 86.7224 15.9043
906 2 98.9472 86.6437 15.6612
907 2 103.085 86.6657 15.8809
908 2 106.996 86.8742 16.1009
909 2 110.988 86.9748 0.11388
910 2 114.85 86.9009 15.9757
911 2 118.79 87.0317 15.9164
912 2 122.967 87.0697 15.8656
913 2 126.958 87.216 15.8949
914 2 131.043 87.3412 15.9295
915 2 135.049 87.0192 0.161601
916 2 138.85 87.2856 -0.0270468
917 2 143.034 87.3267 15.7804
918 2 147.025 87.2467 15.8447
919 2 151.141 87.3065 15.8777
920 2 154.869 87.218 0.157538
921 2 0.512519 91.1055 15.7002
922 2 4.33464 91.0104 15.8204
923 2 8.25084 90.9332 0.203633
924 2 12.1214 91.1134 15.9307
925 2 16.1761 91.0482 15.8123
926 2 20.124 90.9551 0.0650704
927 2 23.9019 91.0555 15.8965
928 2 27.8835 90.9341 0.083806
929 2 31.6463 90.7506 15.874
930 2 35.6922 90.8359 0.294237
931 2 39.6536 90.6505 -0.0388609
932 2 43.4686 90.5944 0.0944315
933 2 47.3147 90.3981 0.119044
934 2 51.2483 90.4859 15.8202
935 2 55.2644 90.489 0.134408
936 2 59.0244 90.3353 15.9459
937 2 63.0114 90.2751 0.0439168
938 2 66.833 90.2213 0.135668
939 2 70.7855 90.2103 0.23382
940 2 74.716 90.2909 15.7455
941 2 78.805 90.2832 15.9331
942 2 82.9275 90.2729 15.8897
943 2 86.8379 90.2354 15.9321
944 2 90.894 90.492 0.0948418
945 2 94.942 90.6171 15.9447
946 2 98.771 90.4923 15.888
947 2 102.934 90.8016 15.9787
948 2 106.88 90.8432 15.7104
949 2 111.037 90.7944 15.9645
950 2 114.925 90.9625 15.7077
951 2 118.781 90.8174 0.191129
952 2 122.986 91.0067 0.0727536
953 2 126.97 91.067 0.243992
954 2 130.989 91.1582 15.9152
955 2 134.844 91.2402 -0.0762146
956 2 138.832 90.9645 15.8118
957 2 142.957 91.2944 15.7939
958 2 146.915 91.1944 0.196315
959 2 151.013 91.0164 15.8811
960 2 155.025 91.4207 15.9275
961 2 0.818418 95.2058 15.8823
962 2 4.59665 95.1142 15.9803
963 2 8.52128 95.0339 0.241345
964 2 12.2801 94.9882 16.1631
965 2 16.0451 94.9466 15.7634
966 2 20.2477 94.8491 15.832
967 2 23.9501 94.8076 15.9998
968 2 27.8015 94.7396 0.043453
969 2 31.8185 94.699 15.7247
970 2 35.7237 94.7725 0.0771823
971 2 39.779 94.7652 0.0493739
972 2 43.5515 94.6444 0.203978
973 2 47.4636 94.4345 15.831
974 2 51.4548 94.5813 15.8059
975 2 55.3731 94.381 15.9126
976 2 59.2355 94.4016 0.0948512
977 2 63.0644 94.2841 15.6737
978 2 66.9009 94.1502 15.8794
979 2 71.1231 94.1132 0.245607
980 2 74.9103 94.1874 15.7845