ITEM: TIMESTEP
18500
ITEM: NUMBER OF ATOMS
32000
ITEM: BOX BOUNDS xy xz yz pp pp pp
0.0000000000000000e+00 1.5831999999999999e+02 0.0000000000000000e+00
0.0000000000000000e+00 1.5831999999999999e+02 0.0000000000000000e+00
1.6372664525573644e-01 1.5933985354744109e+01 0.0000000000000000e+00
ITEM: ATOMS id type x y z
1 2 158.077 157.432 15.7949
2 2 3.59384 157.519 0.194296
3 2 7.64869 157.968 16.1988
4 2 11.5307 158.054 15.9891
5 2 15.7969 157.863 16.0122
6 2 19.7987 158.069 15.972
7 2 23.8954 158.082 0.50288
8 2 27.8146 158.145 15.8126
9 2 31.7286 158.055 15.8005
10 2 35.8758 158.198 15.9305
11 2 39.9938 158.399 0.110081
12 2 43.9238 0.0136351 0.151209
13 2 47.9101 158.249 15.9533
14 2 51.8669 0.322114 0.257499
15 2 55.8874 158.66 16.0585
16 2 59.8246 0.257791 0.290826
17 2 63.654 0.0745832 15.8744
18 2 67.6621 0.0198424 0.275093
19 2 71.7407 158.427 0.0663254
20 2 75.5774 158.245 0.0414002
21 2 79.4113 0.184968 15.9466
22 2 83.4724 158.263 15.7777
23 2 87.4131 158.244 15.8184
24 2 91.321 158.228 0.113245
25 2 95.2461 158.081 15.9277
26 2 99.1217 157.976 15.9993
27 2 103.015 157.89 0.37282
28 2 106.952 157.916 15.9869
29 2 110.785 157.845 0.270839
30 2 114.574 157.679 0.0582817
31 2 118.645 157.819 15.9617
32 2 122.455 157.891 15.8687
33 2 126.369 157.8 15.8733
34 2 130.26 157.704 15.8005
35 2 134.128 157.603 15.8237
36 2 138.31 157.644 15.9773
37 2 141.958 157.642 0.197297
38 2 146.021 157.692 0.0897166
39 2 149.937 157.481 0.147376
40 2 153.941 157.522 0.0762509
41 2 157.827 3.35894 0.48917
42 2 3.6242 3.39593 16.0461
43 2 7.66247 3.57213 0.0905338
44 2 11.5293 3.51972 15.8992
45 2 15.7002 3.48279 0.278993
46 2 19.8057 3.58103 0.257005
47 2 23.7666 3.56404 16.15
48 2 27.7668 3.54351 16.1328
49 2 31.8059 3.67584 0.211491
50 2 35.706 3.90485 0.247338
51 2 39.8107 4.05407 15.973
52 2 43.896 3.93507 0.286953
53 2 47.819 3.93995 15.9371
54 2 51.5494 4.05168 0.13343
55 2 55.6746 4.26774 0.11287
56 2 59.8053 4.04376 16.0866
57 2 63.8646 4.43246 16.0775
58 2 67.8126 4.00616 0.230028
59 2 71.6492 3.94151 0.275839
60 2 75.6921 4.19582 0.00749659
61 2 79.4274 4.07875 0.0927123
62 2 83.4467 3.94465 15.836
63 2 87.3657 4.06752 15.9072
64 2 91.1156 3.92252 -0.0964041
65 2 95.0608 3.81975 15.8114
66 2 99.0792 3.46891 15.9354
67 2 103.068 3.5251 15.6338
68 2 107.1 3.53013 15.9702
69 2 111.018 3.61754 15.9741
70 2 114.7 3.6699 16.2253
71 2 118.593 3.50234 16.1694
72 2 122.523 3.54109 16.1531
73 2 126.174 3.31383 0.10987
74 2 130.087 3.37665 0.247025
75 2 134.279 3.31877 15.8898
76 2 138.014 3.28881 16.0401
77 2 142.004 3.32128 15.9429
78 2 146.112 3.28571 0.132716
79 2 149.918 3.24887 15.6714
80 2 153.807 3.16143 0.343245
81 2 157.667 7.34636 0.405955
82 2 3.59432 7.11864 0.344305
83 2 7.60501 7.366 15.9609
84 2 11.6193 7.36418 0.345775
85 2 15.6337 7.25194 0.192147
86 2 19.5487 7.3207 0.271791
87 2 23.4987 7.58741 15.8734
88 2 27.7785 7.70254 0.096772
89 2 31.518 7.57305 15.7113
90 2 35.6111 7.76609 15.9524
91 2 39.7045 7.92861 0.252825
92 2 43.7701 7.91137 15.9869
93 2 47.7241 7.93861 16.0618
94 2 51.8804 7.89179 15.9645
95 2 55.6987 8.06833 0.431408
96 2 59.747 7.9089 -0.0349598
97 2 63.8566 8.04679 0.278349
98 2 67.8445 8.14355 15.9122
99 2 71.7043 7.86 15.7865
100 2 75.7011 8.06156 0.00661024
101 2 79.5387 7.89956 0.22596
102 2 83.5453 7.97046 0.158126
103 2 87.1994 8.03329 0.226499
104 2 91.2395 7.66355 15.9983
105 2 95.0986 7.76427 15.7125
106 2 99.1586 7.79537 0.137345
107 2 102.927 7.51816 0.129669
108 2 106.852 7.38832 15.7461
109 2 110.962 7.57913 0.147488
110 2 114.747 7.6915 15.9342
111 2 118.682 7.42951 0.186581
112 2 122.531 7.38328 0.219917
113 2 126.396 7.34776 15.9305
114 2 130.348 7.49559 15.7762
115 2 134.155 7.2625 0.036359
116 2 138.295 7.16468 0.246471
117 2 142.12 7.09889 0.087971
118 2 146.054 7.20221 0.0585749
119 2 149.988 7.36528 16.0747
120 2 154.049 7.06725 15.9393
121 2 157.958 11.1952 15.8297
122 2 3.58769 11.2116 0.237159
123 2 7.67655 11.3634 15.9458
124 2 11.675 11.4158 15.9505
125 2 15.8029 11.3098 0.278718
126 2 19.3991 11.2069 0.326451
127 2 23.5474 11.3844 15.9574
128 2 27.5267 11.5143 15.8489
129 2 31.6254 11.6107 16.0569
130 2 35.6822 11.6985 0.19368
131 2 39.8251 11.7642 16.1883
132 2 43.6373 11.5806 0.177455
133 2 47.5272 11.8582 0.0322384
134 2 51.6526 11.8674 15.9814
135 2 55.7922 11.9775 16.1592
136 2 59.9415 11.8708 0.126174
137 2 63.8212 11.8396 15.8455
138 2 67.8297 11.8591 15.8117
139 2 71.7534 12.0085 0.0413195
140 2 75.72 11.901 15.7139
141 2 79.5529 11.7199 0.102692
142 2 83.5078 11.7839 0.196189
143 2 87.2677 11.8507 16.0085
144 2 91.4122 11.789 15.8933
145 2 95.2283 11.7682 0.0871063
146 2 99.2036 11.7174 0.166329
147 2 103.086 11.8745 15.8412
148 2 106.894 11.7492 15.9134
149 2 110.949 11.8882 15.8178
150 2 114.877 11.6249 15.8011
151 2 118.636 11.5012 0.0631833
152 2 122.582 11.4942 0.139121
153 2 126.477 11.4487 15.7638
154 2 130.239 11.4589 0.0860948
155 2 134.245 11.269 15.6835
156 2 138.192 11.2046 15.9676
157 2 142.312 11.313 0.135426
158 2 146.114 11.1553 0.171386
159 2 149.954 11.3083 15.9152
160 2 153.929 11.1921 0.115309
161 2 157.92 15.0689 0.218745
162 2 3.5624 15.3702 16.0027
163 2 7.41282 15.0917 16.2165
164 2 11.5504 15.3437 0.17262
165 2 15.556 15.3294 0.243054
166 2 19.5763 15.2487 16.1304
167 2 23.4247 15.3989 0.263261
168 2 27.5384 15.329 15.9292
169 2 31.5595 15.3473 0.0808173
170 2 35.536 15.5556 0.409239
171 2 39.5422 15.609 16.0292
172 2 43.6757 15.7129 0.249453
173 2 47.6584 15.6979 0.0867848
174 2 51.722 15.7926 0.294075
175 2 55.6605 15.8538 16.0038
176 2 59.7195 15.7537 15.8946
177 2 63.6115 15.6525 15.9729
178 2 67.7479 15.7137 15.9501
179 2 71.7768 15.8967 15.8239
180 2 75.7788 15.8395 15.9269
181 2 79.5117 15.8063 16.0609
182 2 83.546 15.7872 15.979
183 2 87.5133 15.9744 0.304653
184 2 91.5563 15.9796 15.9909
185 2 95.3923 15.8594 0.152327
186 2 99.317 15.7602 15.8791
187 2 103.09 15.7984 0.260726
188 2 106.903 15.7193 15.9408
189 2 110.693 15.6684 15.7205
190 2 114.83 15.5896 15.9683
191 2 118.644 15.4825 15.9294
192 2 122.422 15.4755 16.0396
193 2 126.449 15.5077 0.16894
194 2 130.212 15.3569 0.131408
195 2 134.039 15.1254 15.8678
196 2 138.284 15.1539 15.964
197 2 142.11 15.2192 0.186067
198 2 146.136 15.0813 0.107307
199 2 149.92 15.0223 0.204687
200 2 154.051 15.11 0.246637
201 2 157.926 19.0777 15.922
202 2 3.38457 19.2716 16.0424
203 2 7.39396 19.1187 15.8837
204 2 11.4507 19.281 15.8843
205 2 15.3387 19.3413 15.987
206 2 19.3962 19.2182 15.7751
207 2 23.5286 19.4833 0.0951359
208 2 27.5795 19.2024 0.221418
209 2 31.4634 19.4831 16.0379
210 2 35.5567 19.433 0.128988
211 2 39.6352 19.5352 0.337295
212 2 43.4902 19.4325 15.8944
213 2 47.5793 19.6551 0.0963423
214 2 51.6003 19.7782 15.9424
215 2 55.3748 19.7185 16.1458
216 2 59.2832 19.69 15.9204
217 2 63.5767 19.7588 16.1727
218 2 67.7321 19.6445 16.0087
219 2 71.7952 19.6963 15.9403
220 2 75.7661 19.9348 16.0547
221 2 79.6083 19.9883 16.0172
222 2 83.5823 19.8872 15.898
223 2 87.4433 19.7657 15.9323
224 2 91.4513 19.727 15.934
225 2 95.4708 19.8559 0.0904218
226 2 99.1821 19.8978 0.139641
227 2 103.268 19.7101 15.9186
228 2 107.158 19.7068 16.084
229 2 111.077 19.5831 0.244493
230 2 114.809 19.445 15.7634
231 2 118.773 19.5016 0.112497
232 2 122.732 19.5383 15.9062
233 2 126.516 19.4424 0.152994
234 2 130.507 19.3559 15.9099
235 2 134.461 19.2417 0.0589519
236 2 138.284 19.3087 -0.00640425
237 2 142.034 19.1675 15.9672
238 2 145.997 19.2822 0.309421
239 2 149.703 18.9999 0.185815
240 2 153.852 19.0918 15.9371
241 2 157.875 22.9619 0.122082
242 2 3.40937 23.1026 15.826
243 2 7.57523 23.1896 0.21345
244 2 11.3355 23.0568 0.0901979
245 2 15.5407 23.0172 15.8419
246 2 19.4101 23.1539 0.320494
247 2 23.4914 23.2175 15.9092
248 2 27.5955 23.3224 0.22502
249 2 31.4947 23.1899 16.0623
250 2 35.5904 23.3514 0.168147
251 2 39.5035 23.2056 0.23362
252 2 43.641 23.327 15.9961
253 2 47.5616 23.439 15.9584
254 2 51.4336 23.5655 0.29728
255 2 55.4523 23.7862 16.0353
256 2 59.7322 23.6844 15.9534
257 2 63.5596 23.558 0.0256233
258 2 67.6737 23.6062 0.103226
259 2 71.5399 23.4384 15.9515
260 2 75.7576 23.6831 0.301454
261 2 79.8794 23.7942 15.8452
262 2 83.7452 23.9916 16.144
263 2 87.4927 23.858 15.8217
264 2 91.3691 23.6514 16.074
265 2 95.2817 23.6893 15.8471
266 2 99.2879 23.6394 16.0743
267 2 103.197 23.6708 16.0459
268 2 107.139 23.6772 16.0269
269 2 110.895 23.7344 15.8179
270 2 114.776 23.5155 15.7607
271 2 118.955 23.3997 0.109153
272 2 122.765 23.4722 0.161349
273 2 126.926 23.4885 0.123072
274 2 130.657 23.2208 0.160723
275 2 134.47 23.2156 0.243604
276 2 138.172 23.2236 0.077498
277 2 142.198 23.2076 15.7214
278 2 146.021 23.4588 0.395564
279 2 150.05 23.0371 15.8727
280 2 153.897 23.0814 0.228932
281 2 157.865 27.015 0.20146
282 2 3.3329 27.1443 0.205592
283 2 7.25518 27.088 15.758
284 2 11.4608 26.9637 0.175554
285 2 15.3256 27.1465 0.41269
286 2 19.1482 26.9511 16.1195
287 2 23.4753 27.0203 0.306021
288 2 27.4446 27.2072 0.283132
289 2 31.3616 27.1114 15.9803
290 2 35.4369 27.4968 0.215356
291 2 39.5265 27.315 15.9316
292 2 43.4083 27.3629 16.1157
293 2 47.4465 27.44 15.8507
294 2 51.4221 27.5535 15.8276
295 2 55.6161 27.5581 15.8852
296 2 59.4918 27.4366 0.0632217
297 2 63.5162 27.424 0.0139395
298 2 67.5413 27.6509 0.250321
299 2 71.4811 27.4545 0.456951
300 2 75.4476 27.715 15.7525
301 2 79.6424 27.8331 15.993
302 2 83.5006 27.9905 15.9673
303 2 87.4321 27.9917 16.015
304 2 91.5341 27.8776 15.7821
305 2 95.4891 27.7213 15.9807
306 2 99.351 27.6302 15.8918
307 2 103.322 27.7626 15.9411
308 2 107.415 27.6267 0.235016
309 2 111.046 27.5779 0.186182
310 2 115.042 27.6911 -0.0118618
311 2 118.83 27.6429 16.0599
312 2 122.9 27.4172 0.230426
313 2 126.657 27.3318 0.253641
314 2 130.502 27.4417 15.8647
315 2 134.436 27.2275 15.7373
316 2 138.28 27.3609 0.156313
317 2 142.073 27.2844 15.9273
318 2 146.071 27.2345 0.0407046
319 2 150.11 27.1671 -0.149645
320 2 153.97 27.0193 0.0149913
321 2 157.953 30.9894 0.298042
322 2 3.40614 31.3357 15.8734
323 2 7.41761 30.888 0.299334
324 2 11.3543 30.8114 15.846
325 2 15.3232 30.9046 0.331388
326 2 19.2982 31.0551 0.210882
327 2 23.3715 30.819 0.0908805
328 2 27.5071 30.9845 0.0757746
329 2 31.5629 31.0769 0.173229
330 2 35.4734 31.0737 16.0931
331 2 39.3684 31.2497 16.0074
332 2 43.3361 31.2825 15.961
333 2 47.4532 31.3922 15.9335
334 2 51.3754 31.4361 -0.0938227
335 2 55.4994 31.4256 0.303328
336 2 59.517 31.4282 16.0788
337 2 63.2472 31.5541 16.0702
338 2 67.6375 31.5883 16.0222
339 2 71.4944 31.448 0.224275
340 2 75.3246 31.5383 0.00155037
341 2 79.4457 31.7106 16.0299
342 2 83.5599 31.8881 0.378724
343 2 87.5826 31.7341 0.217465
344 2 91.7009 31.776 0.226327
345 2 95.3954 31.705 15.8155
346 2 99.4278 31.6557 15.9306
347 2 103.462 31.7011 15.797
348 2 107.255 31.6108 15.8687
349 2 111.165 31.6413 0.0284107
350 2 114.93 31.7851 15.7526
351 2 118.999 31.4968 15.9544
352 2 122.842 31.4941 15.8654
353 2 126.59 31.328 15.9576
354 2 130.601 31.4707 15.9239
355 2 134.453 31.4273 16.0354
356 2 138.403 31.3063 0.000275961
357 2 142.331 31.3314 0.266668
358 2 146.115 31.1951 16.1289
359 2 150.057 31.1529 -0.262241
360 2 154.031 31.0858 0.154141
361 2 157.941 35.0116 0.201547
362 2 3.40902 34.9968 0.305839
363 2 7.44614 35.0159 0.254516
364 2 11.4541 34.9563 0.176111
365 2 15.2509 34.8986 0.203618
366 2 19.4959 34.8803 0.140515
367 2 23.2092 34.6945 0.10195
368 2 27.4183 34.9051 0.223219
369 2 31.3399 35.0762 0.190489
370 2 35.4442 35.1826 0.157257
371 2 39.3758 35.0612 16.0471
372 2 43.5315 35.2555 0.210383
373 2 47.2884 35.3629 16.0943
374 2 51.4588 35.299 0.347228
375 2 55.551 35.5287 15.8185
376 2 59.4187 35.3931 0.187503
377 2 63.3839 35.473 16.129
378 2 67.4281 35.578 0.374639
379 2 71.452 35.5601 0.0510762
380 2 75.1039 35.5627 0.35975
381 2 79.6497 35.5525 15.747
382 2 83.7448 35.6956 0.177362
383 2 87.4776 35.6801 15.7934
384 2 91.4253 35.8078 0.202621
385 2 95.5788 35.7569 15.8654
386 2 99.5539 35.6502 15.8331
387 2 103.328 35.9002 15.7012
388 2 107.036 35.5933 15.9321
389 2 111 35.5907 0.139264
390 2 115.122 35.8201 15.9724
391 2 118.98 35.6475 15.9524
392 2 122.816 35.5086 0.128022
393 2 126.517 35.5039 0.066937
394 2 130.507 35.3722 0.201435
395 2 134.72 35.4051 0.226229
396 2 138.454 35.3731 15.8639
397 2 142.25 35.4689 0.251654
398 2 146.292 35.2878 15.8645
399 2 150.127 35.1304 -0.0553454
400 2 154.015 35.1062 0.128984
401 2 158.049 39.0367 0.0546367
402 2 3.69709 38.9934 0.128566
403 2 7.427 38.94 0.197936
404 2 11.268 39.0056 15.9786
405 2 15.4123 38.8394 0.104234
406 2 19.4252 38.7416 0.202265
407 2 23.364 38.6906 16.1227
408 2 27.2226 38.7127 0.291957
409 2 31.3247 38.9613 15.9789
410 2 35.2874 38.9692 0.127732
411 2 39.4483 39.1365 0.302368
412 2 43.3857 39.1818 15.9915
413 2 47.433 39.1465 0.313768
414 2 51.4709 39.1143 15.9154
415 2 55.27 39.3727 0.474363
416 2 59.4195 39.192 15.7531
417 2 63.4474 39.1986 0.041499
418 2 67.3766 39.3178 0.351796
419 2 71.4513 39.4387 15.8299
420 2 75.5526 39.2507 0.155053
421 2 79.698 39.4635 16.053
422 2 83.4333 39.386 15.9136
423 2 87.5228 39.6583 0.2764
424 2 91.5354 39.7517 15.9292
425 2 95.5019 39.6163 0.129148
426 2 99.5178 39.662 0.0357784
427 2 103.392 39.8608 15.7215
428 2 107.189 39.5709 0.242069
429 2 111.127 39.5948 15.8907
430 2 115.034 39.6238 -0.03737
431 2 118.94 39.5956 0.0692913
432 2 122.935 39.4075 15.874
433 2 126.933 39.3989 15.9783
434 2 130.802 39.5419 15.8474
435 2 134.699 39.5524 0.0360087
436 2 138.545 39.481 0.0706982
437 2 142.541 39.332 0.290374
438 2 146.397 39.3604 15.9223
439 2 150.17 39.1964 15.9191
440 2 154.099 39.087 15.8538
441 2 157.988 43.1472 0.057154
442 2 3.604 43.0789 0.0740495
443 2 7.63851 42.8594 0.261795
444 2 11.2846 42.8472 0.11597
445 2 15.362 42.8409 0.0888589
446 2 19.3013 42.7455 0.160219
447 2 23.1556 42.6607 0.30386
448 2 27.2155 42.7141 0.176653
449 2 31.0963 42.7384 0.165311
450 2 34.9305 43.0659 0.192773
451 2 39.3358 43.0213 0.325216
452 2 43.3776 42.9569 0.0973444
453 2 47.1969 43.0417 0.221962
454 2 51.325 42.9677 0.120463
455 2 55.3711 43.0359 16.1237
456 2 59.507 43.2052 16.156
457 2 63.2223 43.1076 0.244992
458 2 67.4325 43.2442 16.1217
459 2 71.3888 43.0999 0.245668
460 2 75.3761 43.3017 16.1334
461 2 79.626 43.4522 15.9242
462 2 83.4712 43.5336 0.184394
463 2 87.3775 43.5953 0.0575145
464 2 91.5102 43.484 0.270186
465 2 95.5423 43.6245 15.89
466 2 99.5573 43.6363 15.9522
467 2 103.526 43.7677 15.7174
468 2 107.427 43.7514 15.9488
469 2 111.175 43.6947 16.0328
470 2 115.157 43.6158 16.0776
471 2 119.115 43.8318 15.7952
472 2 123.003 43.5248 16.0942
473 2 126.679 43.3938 15.8947
474 2 130.718 43.504 0.331173
475 2 134.609 43.6048 0.140512
476 2 138.618 43.4473 0.197943
477 2 142.425 43.4607 15.9825
478 2 146.44 43.3049 15.9692
479 2 150.209 43.3898 15.85
480 2 154.201 43.0941 0.180605
481 2 157.996 47.0609 0.322946
482 2 3.6696 47.0431 0.138122
483 2 7.78807 46.9438 0.309678
484 2 11.6258 46.9447 15.9673
485 2 15.522 46.8434 -0.00619658
486 2 19.3987 46.8447 15.8224
487 2 23.2519 46.8505 0.181603
488 2 27.3355 46.6627 0.159718
489 2 31.3397 46.8421 0.103254
490 2 35.4406 46.7227 0.111753
491 2 39.2262 46.933 16.034
492 2 43.2106 46.703 0.313739
493 2 47.2024 47.0331 0.0344779
494 2 51.1051 46.8628 0.17203
495 2 55.4 46.889 0.297209
496 2 59.3807 47.2981 15.926
497 2 63.2989 47.079 16.0456
498 2 67.4025 46.9796 0.169129
499 2 71.443 47.1693 0.228579
500 2 75.4983 47.1734 0.322183
501 2 79.4102 47.4122 15.7988
502 2 83.4123 47.3872 0.234033
503 2 87.4375 47.3567 0.149189
504 2 91.4122 47.422 0.212482
505 2 95.4109 47.386 16.1317
506 2 99.2858 47.6582 15.9417
507 2 103.321 47.5031 0.146254
508 2 107.408 47.4961 0.0757827
509 2 111.315 47.6828 15.9892
510 2 115.169 47.8246 16.0507
511 2 118.973 47.4898 0.12643
512 2 122.917 47.5437 15.8425
513 2 126.87 47.5613 0.225969
514 2 130.663 47.5222 15.9838
515 2 134.753 47.5967 0.17394
516 2 138.636 47.4193 0.14118
517 2 142.625 47.4561 0.346909
518 2 146.427 47.289 0.163557
519 2 150.13 47.2663 15.9711
520 2 154.135 47.2774 15.9865
521 2 158.244 51.1017 0.438173
522 2 3.66228 51.0834 16.0286
523 2 7.62824 51.1615 0.205802
524 2 11.4485 51.0594 15.9702
525 2 15.5729 50.9902 0.191896
526 2 19.4951 50.7711 0.187114
527 2 23.5557 50.8436 16.1867
528 2 27.3426 50.8421 0.0624418
529 2 31.2397 50.8221 0.0252475
530 2 35.1929 50.6641 0.210075
531 2 39.1655 50.9811 0.277393
532 2 43.2571 50.7184 16.115
533 2 47.3764 51.0911 15.8484
534 2 51.1707 50.9691 15.8991
535 2 55.1575 50.9657 0.0591389
536 2 59.2394 50.9438 15.8543
537 2 63.128 50.9967 16.1434
538 2 67.4049 51.0321 0.389865
539 2 71.4439 51.1282 15.7883
540 2 75.2062 50.8956 0.297356
541 2 79.4371 51.1759 0.209928
542 2 83.4247 51.2775 0.234187
543 2 87.3583 51.3136 0.380415
544 2 91.3749 51.5058 0.0313379
545 2 95.3867 51.4251 15.7762
546 2 99.4216 51.5051 15.9312
547 2 103.349 51.4909 15.8687
548 2 107.522 51.7182 0.0825082
549 2 111.325 51.7957 0.259573
550 2 115.243 51.6804 0.331364
551 2 119.025 51.5215 15.8436
552 2 123.073 51.5241 0.309366
553 2 126.979 51.5587 15.8913
554 2 131.012 51.5395 0.19686
555 2 135.03 51.4954 15.9184
556 2 138.808 51.3123 0.172292
557 2 142.393 51.3783 15.8667
558 2 146.497 51.2438 0.226774
559 2 150.29 51.2208 0.164518
560 2 154.175 51.3998 15.9989
561 2 -0.072471 55.255 0.161526
562 2 3.97698 55.2906 0.305414
563 2 7.87786 55.1128 0.0714922
564 2 11.6159 55.2327 0.242197
565 2 15.5782 55.0743 15.863
566 2 19.3691 54.9692 0.201963
567 2 23.3732 54.5186 0.150851
568 2 27.4166 54.6747 15.8779
569 2 31.1961 54.6987 0.318828
570 2 35.241 54.4959 0.0466751
571 2 39.2453 54.5356 0.331721
572 2 43.0579 54.644 -0.0257094
573 2 47.1911 54.8708 0.182595
574 2 51.0821 55.0851 0.249274
575 2 55.2618 54.8848 15.8753
576 2 59.0668 54.9913 15.9526
577 2 63.2093 54.6994 16.0061
578 2 67.2394 54.8974 0.21661
579 2 71.3079 54.9377 0.183897
580 2 75.1209 55.062 15.6979
581 2 79.3277 55.2155 15.8254
582 2 83.3793 55.1661 0.174665
583 2 87.2891 55.2182 15.9586
584 2 91.2876 55.2784 0.09841
585 2 95.432 55.383 -0.0089551
586 2 99.2861 55.3394 15.9093
587 2 103.386 55.5321 0.194919
588 2 107.376 55.454 0.194658
589 2 111.328 55.6298 15.875
590 2 115.346 55.7308 0.351921
591 2 119.107 55.6543 16.184
592 2 123.101 55.3956 0.314337
593 2 127.261 55.4441 0.171917
594 2 130.979 55.4065 16.0638
595 2 134.724 55.5122 15.9041
596 2 138.474 55.5506 16.1014
597 2 142.653 55.6202 0.206556
598 2 146.487 55.481 0.214078
599 2 150.472 55.3083 0.347302
600 2 154.561 55.178 0.219683
601 2 158.4 59.1627 0.186548
602 2 3.9319 59.2954 15.9423
603 2 7.88317 59.0563 0.0278851
604 2 11.9132 59.1447 15.9024
605 2 15.7333 58.879 15.974
606 2 19.7821 58.9745 0.196551
607 2 23.5432 58.8158 0.321761
608 2 27.34 58.7808 0.2493
609 2 31.3059 58.6936 0.234393
610 2 35.3708 58.5856 15.8468
611 2 39.1984 58.5954 0.181076
612 2 43.222 58.5061 0.127167
613 2 47.183 58.6113 0.125877
614 2 51.146 58.8706 0.280763
615 2 54.9895 58.8818 15.7569
616 2 59.1656 58.8864 15.8764
617 2 63.1488 58.7277 15.7695
618 2 67.2377 58.8397 15.8082
619 2 71.2364 58.8958 16.0506
620 2 75.162 59.0795 16.0239
621 2 79.108 59.0399 0.124824
622 2 83.2925 59.1196 0.114814
623 2 87.2936 59.1804 0.291953
624 2 91.3637 59.1871 0.102081
625 2 95.3127 59.284 0.0131588
626 2 99.4199 59.2845 15.7857
627 2 103.392 59.4839 0.198956
628 2 107.138 59.4362 -0.00354518
629 2 111.334 59.617 15.9687
630 2 115.287 59.3192 16.065
631 2 119.14 59.6469 15.9553
632 2 123.124 59.6077 15.9646
633 2 127.071 59.5766 0.232732
634 2 130.862 59.4288 16.0823
635 2 134.835 59.4562 15.8436
636 2 138.787 59.4208 15.8663
637 2 142.662 59.6051 0.046219
638 2 146.591 59.2084 0.105132
639 2 150.536 59.5974 0.145563
640 2 154.545 59.2789 0.336743
641 2 0.0943704 63.2956 0.196197
642 2 4.0164 63.0719 0.165277
643 2 7.90775 63.0826 15.9796
644 2 11.8491 63.0508 15.9632
645 2 15.6316 62.8839 0.436429
646 2 19.5879 62.8892 0.201672
647 2 23.5258 62.6872 0.252987
648 2 27.6227 62.7003 0.226898
649 2 31.3458 62.8384 0.266854
650 2 35.3278 62.5912 0.0419838
651 2 39.129 62.5607 0.0416888
652 2 43.1229 62.4748 16.0807
653 2 47.025 62.4701 16.0815
654 2 50.9624 62.6293 0.341681
655 2 55.175 62.6567 0.134799
656 2 58.9932 62.6093 16.0068
657 2 63.132 62.6522 0.137695
658 2 67.3383 62.7462 16.0667
659 2 71.1659 62.9049 16.0412
660 2 75.0865 62.8307 0.262506
661 2 79.0857 62.939 15.8215
662 2 83.2734 62.9083 0.00957751
663 2 87.2078 63.0988 16.0718
664 2 91.2339 63.0441 15.839
665 2 95.2113 63.0555 16.1106
666 2 99.1432 63.2824 16.1503
667 2 103.426 63.3156 0.0828364
668 2 107.136 63.3348 15.7703
669 2 111.167 63.3217 15.9665
670 2 115.374 63.2878 0.251844
671 2 119.133 63.5497 0.0116079
672 2 123.073 63.462 0.320781
673 2 126.996 63.4679 16.1026
674 2 130.892 63.3291 0.281992
675 2 134.972 63.4316 15.9862
676 2 138.954 63.5259 0.0906642
677 2 142.675 63.5993 15.8955
678 2 146.782 63.3031 0.327476
679 2 150.766 63.1957 0.258215
680 2 154.643 63.3225 0.163362
681 2 0.404081 67.122 0.221319
682 2 4.04842 67.1548 0.0930743
683 2 8.0052 66.9712 15.8965
684 2 11.8011 67.0178 15.7715
685 2 15.7305 66.846 0.265231
686 2 19.648 66.8208 0.135851
687 2 23.5566 66.8055 0.11001
688 2 27.6358 66.7895 0.197336
689 2 31.7613 67.0088 0.364539
690 2 35.3632 66.9047 15.8419
691 2 39.4394 66.5707 15.7783
692 2 43.157 66.4225 15.9777
693 2 47.1411 66.4531 15.8528
694 2 51.0007 66.3937 0.231269
695 2 55.0375 66.4604 15.9969
696 2 59.1955 66.5473 15.736
697 2 63.2561 66.5325 0.200548
698 2 67.1317 66.7896 15.5792
699 2 71.019 66.759 0.208891
700 2 75.0828 66.6725 0.322321
701 2 79.0301 66.7959 15.9354
702 2 83.1872 66.8591 15.8946
703 2 87.1562 66.8262 16.0067
704 2 91.2011 66.8621 0.171878
705 2 95.2427 67.0427 15.8345
706 2 99.2626 67.1839 16.0354
707 2 103.222 67.3416 0.034897
708 2 107.117 67.2935 0.00845933
709 2 111.175 67.0728 15.9996
710 2 115.146 67.5356 15.8408
711 2 119.178 67.3734 -0.074766
712 2 123.177 67.6233 15.8908
713 2 127.217 67.4635 0.182832
714 2 131.155 67.4979 0.325031
715 2 135.012 67.6965 16.1089
716 2 138.854 67.4752 0.171337
717 2 142.924 67.3859 16.1083
718 2 146.749 67.402 15.8295
719 2 150.57 67.4671 -0.00739957
720 2 154.471 67.2637 0.338371
721 2 158.517 71.2418 15.8473
722 2 4.25155 71.0898 0.22803
723 2 8.0329 71.0832 0.184448
724 2 12.0592 70.9816 0.236761
725 2 15.9643 71.0413 15.9248
726 2 19.9098 70.8556 0.206052
727 2 23.7455 70.8221 0.157047
728 2 27.3767 70.698 0.132931
729 2 31.5144 70.7964 0.195844
730 2 35.2501 70.8145 0.240255
731 2 39.4322 70.6384 -0.103147
732 2 43.1765 70.7599 0.0747694
733 2 46.9979 70.5229 15.7867
734 2 51.0577 70.6487 0.145536
735 2 55.1601 70.3361 16.0885
736 2 58.9853 70.4419 16.0527
737 2 62.9561 70.5043 16.0819
738 2 67.1667 70.6166 15.9559
739 2 71.0545 70.634 0.207452
740 2 75.0518 70.6247 15.9763
741 2 79.162 70.6835 0.298746
742 2 83.0585 70.8622 0.276201
743 2 87.1054 70.9945 15.9255
744 2 91.0881 70.9223 16.1302
745 2 95.2031 71.0918 15.9704
746 2 99.1597 71.0435 15.9568
747 2 103.209 71.1149 15.7911
748 2 107.165 71.2174 0.0788249
749 2 111.219 71.0958 0.115084
750 2 115.155 71.4452 0.117198
751 2 119.273 71.3366 0.00490137
752 2 123.159 71.4217 15.9541
753 2 127.239 71.5982 0.109154
754 2 130.982 71.3439 0.312406
755 2 135.085 71.5138 0.13369
756 2 138.98 71.5747 15.8327
757 2 142.932 71.4576 15.9285
758 2 146.863 71.3851 15.9805
759 2 150.863 71.4698 0.0552705
760 2 154.758 71.2652 0.25889
761 2 0.33136 75.1432 16.1858
762 2 4.2855 75.1671 15.7949
763 2 8.0609 74.9858 0.072477
764 2 12.025 75.0945 0.175127
765 2 15.9218 74.9595 16.0196
766 2 19.9442 74.9923 0.0080479
767 2 23.7967 74.7331 0.0650749
768 2 27.6934 74.7828 0.184836
769 2 31.477 74.781 0.101938
770 2 35.3038 74.6611 0.210097
771 2 39.5004 74.5808 0.0422562
772 2 43.4391 74.6272 0.108637
773 2 47.3762 74.3409 0.137636
774 2 51.2026 74.3792 16.0596
775 2 54.9586 74.6047 16.0061
776 2 58.8489 74.2775 15.8223
777 2 62.9069 74.342 15.7512
778 2 67.0544 74.4216 16.1019
779 2 71.0326 74.4548 0.243433
780 2 75.1227 74.7116 0.225783
781 2 79.0283 74.5801 0.344503
782 2 83.0073 74.9608 15.8577
783 2 87.2294 74.7135 15.9405
784 2 91.0044 74.775 0.0881191
785 2 95.132 74.906 15.9612
786 2 98.9452 74.9106 16.0313
787 2 103.015 75.0636 16.0217
788 2 107.106 75.1883 0.206266
789 2 110.938 75.0169 0.0646422
790 2 115.07 75.2223 0.25591
791 2 119.161 75.2969 0.041923
792 2 123.215 75.464 0.128249
793 2 127.004 75.3996 15.9536
794 2 131.283 75.527 15.7947
795 2 134.974 75.4595 0.416011
796 2 138.943 75.3029 15.9868
797 2 142.922 75.3893 16.1518
798 2 146.858 75.4935 15.8436
799 2 150.843 75.2009 15.9303
800 2 154.674 75.3019 15.9167
801 2 0.430596 79.0837 0.113477
802 2 4.37325 79.219 0.103977
803 2 8.06579 79.0958 -0.0219562
804 2 12.1008 79.0931 15.7826
805 2 16.1189 78.8431 15.9718
806 2 20.0452 78.8426 0.214475
807 2 23.8367 78.8425 0.340255
808 2 27.7751 78.8695 0.25236
809 2 31.8953 78.6652 15.9427
810 2 35.5885 78.639 0.292756
811 2 39.5641 78.5209 0.0673555
812 2 43.5409 78.5121 0.200384
813 2 47.3919 78.6096 0.191845
814 2 51.2386 78.4909 0.307084
815 2 55.1354 78.5854 0.159871
816 2 59.0764 78.4129 0.205885
817 2 62.8926 78.3559 0.0368499
818 2 66.9876 78.3519 0.352344
819 2 71.0923 78.4114 15.9106
820 2 74.861 78.7089 0.137376
821 2 79.0287 78.5332 0.101421
822 2 83.0686 78.7354 16.0648
823 2 87.0394 78.4899 16.2206
824 2 90.861 78.8361 16.0648
825 2 95.0045 78.7162 0.318894
826 2 98.845 78.9309 0.107021
827 2 102.943 78.7645 16.0196
828 2 107.031 79.141 0.304547
829 2 111.151 79.0955 16.1078
830 2 115.001 79.2474 0.216326
831 2 119.006 79.1529 -0.163954
832 2 123.096 79.4268 15.8428
833 2 127.11 79.2827 0.0653181
834 2 131.135 79.3344 15.8495
835 2 134.891 79.4907 0.241528
836 2 139.122 79.3059 0.064989
837 2 142.875 79.3101 15.9202
838 2 146.843 79.4368 15.9493
839 2 151.059 79.448 15.8813
840 2 154.824 79.4627 0.295298
841 2 0.48981 83.1766 0.175301
842 2 4.16459 83.2642 16.1063
843 2 8.22779 83.0641 0.197541
844 2 12.216 82.9921 16.0179
845 2 16.2732 83.0377 16.098
846 2 19.8976 82.919 0.142233
847 2 23.8653 82.7452 0.0419705
848 2 27.789 82.6958 0.183683
849 2 31.7159 82.659 15.7701
850 2 35.5873 82.6551 0.168526
851 2 39.6033 82.5623 0.0164902
852 2 43.5194 82.6664 0.189464
853 2 47.4702 82.589 0.356781
854 2 51.3846 82.5511 0.268986
855 2 55.1393 82.3712 -0.0383218
856 2 58.9419 82.432 15.9197
857 2 63.0261 82.2039 16.0737
858 2 66.9307 82.2693 15.8934
859 2 70.7987 82.1835 0.230647
860 2 74.9072 82.5155 0.31787
861 2 78.9165 82.3996 0.155603
862 2 83.0152 82.5824 15.9942
863 2 86.9302 82.5997 16.182
864 2 90.8231 82.6017 15.9929
865 2 94.7919 82.6133 15.7739
866 2 99.0289 82.865 15.9155
867 2 102.895 82.6616 16.1219
868 2 106.871 82.8363 0.271723
869 2 110.935 83.0357 15.8484
870 2 114.853 83.1059 0.0802894
871 2 119.035 83.1554 -0.0102836
872 2 122.895 83.1666 15.9755
873 2 127.115 83.0692 15.9253
874 2 131.119 83.2228 15.9874
875 2 135.062 83.4163 0.0265976
876 2 139.018 83.2225 0.0601105
877 2 143.085 83.317 0.156885
878 2 147.16 83.3415 16.0372
879 2 151.014 83.2971 15.9268
880 2 154.977 83.3028 16.0321
881 2 0.553161 87.3491 0.113099
882 2 4.30293 87.1169 0.201576
883 2 8.38047 87.1611 0.123417
884 2 12.2583 86.8763 16.044
885 2 16.1055 86.894 15.944
886 2 19.939 86.9709 0.173105
887 2 23.8034 86.7543 -0.026062
888 2 27.9475 86.5539 0.0111492
889 2 31.8753 86.6924 15.819
890 2 35.8657 86.5256 -0.0136504
891 2 39.6457 86.6542 0.00601688
892 2 43.4141 86.5287 -0.0179198
893 2 47.4179 86.3675 0.159853
894 2 51.3239 86.5018 0.0409243
895 2 55.1466 86.5969 0.298958
896 2 59.2587 86.3874 0.106642
897 2 63.1445 86.3198 16.0202
898 2 67.054 86.3888 15.8792
899 2 70.8555 86.2689 0.193452
900 2 74.7271 86.2528 15.9719
901 2 78.7636 86.3993 0.136613
902 2 82.8689 86.3767 15.8467
903 2 86.7756 86.4311 0.144096
904 2 90.8807 86.433 15.8696
905 2 94.6849 86.6547 15.9366
906 2 98.7174 86.7821 16.1804
907 2 102.845 86.8593 16.0896
908 2 107.011 86.7335 15.7389
909 2 110.932 87.0748 0.158906
910 2 114.955 87.0934 15.8965
911 2 119.152 87.1492 15.7418
912 2 122.952 87.0065 16.0209
913 2 127.052 87.0926 15.8205
914 2 131.029 87.1517 15.9771
915 2 134.917 87.2203 0.0962154
916 2 138.918 87.3046 0.156221
917 2 142.946 87.1447 16.1395
918 2 147.287 87.4604 15.8689
919 2 150.936 87.2124 15.9183
920 2 154.869 87.2472 0.215454
921 2 0.747501 91.2136 16.1786
922 2 4.50184 91.1826 16.0824
923 2 8.46554 91.0682 0.0026924
924 2 12.4129 91.1283 15.8851
925 2 16.2262 90.8404 15.9832
926 2 20.0381 90.797 0.191801
927 2 24.0276 90.8605 15.804
928 2 28.0407 90.659 0.100487
929 2 32.0627 90.7103 15.7605
930 2 35.8948 90.6631 0.0138453
931 2 39.6593 90.4658 0.0747391
932 2 43.5701 90.405 0.0552104
933 2 47.6557 90.605 0.090766
934 2 51.4759 90.4845 15.9778
935 2 55.3923 90.473 0.256139
936 2 59.2641 90.3527 15.6613
937 2 63.2361 90.2432 0.0489281
938 2 67.1499 90.3127 0.0833219
939 2 70.881 90.3789 0.0127582
940 2 75.0051 90.2341 16.1299
941 2 78.6935 90.3317 16.055
942 2 82.7417 90.2842 15.9295
943 2 86.7259 90.5572 15.8869
944 2 90.7393 90.3832 0.150746
945 2 94.7341 90.6008 15.9972
946 2 98.8218 90.8213 16.1142
947 2 102.751 90.6072 15.9098
948 2 106.949 90.8761 16.0371
949 2 110.858 90.8023 15.8097
950 2 114.941 90.8538 15.8212
951 2 119.033 90.978 0.129249
952 2 122.927 90.9718 0.16538
953 2 126.787 91.0943 0.0414724
954 2 130.608 91.077 15.8022
955 2 134.93 91.1275 0.16174
956 2 139.025 91.1479 15.7448
957 2 142.959 91.0493 15.9503
958 2 147.019 91.1174 0.121571
959 2 150.948 91.1748 15.768
960 2 154.87 91.2773 15.9099
961 2 0.562594 95.2086 15.9907
962 2 4.44281 95.2331 15.8
963 2 8.22648 95.0731 0.330541
964 2 12.5333 95.027 15.8307
965 2 16.2609 94.9679 15.8393
966 2 20.2864 94.8974 15.912
967 2 24.2251 94.9124 15.9382
968 2 28.1844 94.8099 0.192028
969 2 31.8468 94.6735 15.8316
970 2 35.941 94.6025 0.162381
971 2 39.7001 94.569 0.0895153
972 2 43.7403 94.5271 -0.0799361
973 2 47.4824 94.513 15.8204
974 2 51.4404 94.4621 16.052
975 2 55.2085 94.5086 15.6905
976 2 59.0705 94.3858 -0.012865
977 2 63.2213 94.1511 15.9266
978 2 67.151 94.2905 15.9651
979 2 70.9048 94.2365 0.232023
980 2 74.7638 94.2283 16.1382
981 2 78.7607 94.3061 16.0395