ITEM: TIMESTEP
18600
ITEM: NUMBER OF ATOMS
32000
ITEM: BOX BOUNDS xy xz yz pp pp pp
0.0000000000000000e+00 1.5831999999999999e+02 0.0000000000000000e+00
0.0000000000000000e+00 1.5831999999999999e+02 0.0000000000000000e+00
1.6552138468474631e-01 1.5932190615315102e+01 0.0000000000000000e+00
ITEM: ATOMS id type x y z
1 2 157.895 157.767 16.1196
2 2 3.71024 157.927 0.338886
3 2 7.64953 157.773 15.9081
4 2 11.9475 157.839 15.9593
5 2 15.7449 158.06 16.0064
6 2 19.709 158.013 16.0207
7 2 23.7094 158.076 0.000571359
8 2 27.8518 158.197 15.9125
9 2 31.772 158.211 16.0091
10 2 35.8712 158.247 15.9619
11 2 39.8226 158.351 0.146856
12 2 43.7856 0.0865426 0.184897
13 2 47.7697 158.284 15.8555
14 2 51.6351 0.00498305 0.247735
15 2 55.6393 158.429 15.8444
16 2 59.8425 0.24654 0.0712732
17 2 63.8229 0.295678 16.0433
18 2 67.7154 0.209587 0.132289
19 2 71.5528 158.522 0.226498
20 2 75.4139 158.44 0.106678
21 2 79.4643 -0.131141 15.8764
22 2 83.3621 158.244 15.9199
23 2 87.3146 158.225 15.8072
24 2 91.2829 158.187 0.067695
25 2 95.0524 158.262 15.7999
26 2 98.8691 158.069 15.9969
27 2 102.861 158.041 0.186173
28 2 106.627 157.983 16.0883
29 2 110.639 157.937 0.285903
30 2 114.636 157.889 0.576878
31 2 118.56 157.784 16.1579
32 2 122.573 157.671 15.9811
33 2 126.275 157.56 15.9052
34 2 130.084 157.573 16.0957
35 2 134.287 157.579 16.015
36 2 138.075 157.63 15.8462
37 2 142.218 157.549 0.24711
38 2 146.142 157.822 0.182835
39 2 150.06 157.615 0.0497303
40 2 154.064 157.653 0.140316
41 2 158.014 3.08413 0.0301203
42 2 3.59528 3.43807 15.9837
43 2 7.77525 3.33803 0.456252
44 2 11.7746 3.44879 16.0435
45 2 15.8115 3.53935 0.292165
46 2 19.7014 3.7293 0.212228
47 2 23.7675 3.72318 16.0074
48 2 27.7266 3.96767 15.8639
49 2 31.6379 3.84331 0.153608
50 2 35.7845 3.7449 0.135765
51 2 39.6545 3.84742 15.6656
52 2 43.5968 4.11668 0.144707
53 2 47.7088 3.74821 15.8467
54 2 51.8435 4.24091 0.221523
55 2 55.8519 3.94593 0.0398067
56 2 59.8838 4.22288 15.7865
57 2 63.8434 3.94536 16.0756
58 2 67.7135 4.23067 0.369299
59 2 71.5322 4.24767 -0.0253026
60 2 75.6327 4.10466 0.214035
61 2 79.5314 3.90685 0.070071
62 2 83.5073 3.88826 15.7992
63 2 87.364 3.79871 15.7497
64 2 91.3186 3.76432 0.266826
65 2 95.2079 3.73727 15.826
66 2 99.1217 3.80382 15.8847
67 2 102.99 3.67525 16.1241
68 2 107.033 3.86468 15.9702
69 2 110.879 3.71463 16.0683
70 2 114.844 3.38339 15.8955
71 2 118.719 3.33548 15.9387
72 2 122.458 3.43918 15.9711
73 2 126.586 3.44377 0.380598
74 2 130.291 3.2827 0.0579162
75 2 133.943 3.21406 16.0087
76 2 138.133 3.24713 15.8005
77 2 142.196 3.18399 15.7256
78 2 146.051 3.29405 0.133632
79 2 149.99 3.21343 15.9066
80 2 154.065 3.2963 0.124933
81 2 158.077 7.16875 0.211216
82 2 3.5615 7.39372 0.158142
83 2 7.66671 7.40652 16.1381
84 2 11.6819 7.43251 0.227858
85 2 15.5095 7.31529 0.139546
86 2 19.7221 7.61848 0.248696
87 2 23.7038 7.54659 16.0961
88 2 27.5476 7.5718 0.149839
89 2 31.7726 7.7184 16.0299
90 2 35.8505 7.71013 16.1423
91 2 39.8038 7.75695 0.169403
92 2 43.7958 8.0024 15.934
93 2 47.66 7.79095 16.0132
94 2 51.6868 7.96558 16.0079
95 2 55.8084 7.92779 0.342296
96 2 59.8431 7.97793 0.460087
97 2 63.7961 8.02402 0.246782
98 2 67.8521 7.995 16.1563
99 2 71.8993 8.1803 15.9338
100 2 75.7761 8.06065 0.151842
101 2 79.6683 8.01433 0.156167
102 2 83.5252 7.82636 0.240658
103 2 87.6011 7.75086 0.237825
104 2 91.302 7.91128 15.7955
105 2 95.2973 7.66005 15.8796
106 2 99.2533 7.63182 0.128078
107 2 103.136 7.62968 0.341567
108 2 107.021 7.84384 15.964
109 2 110.918 7.60981 0.195291
110 2 114.736 7.51823 15.6511
111 2 118.698 7.52449 0.146289
112 2 122.588 7.59677 0.160457
113 2 126.519 7.45316 15.8588
114 2 130.321 7.28276 16.0367
115 2 134.295 7.09065 0.237451
116 2 138.15 7.22193 0.0725803
117 2 142 7.24586 0.195664
118 2 145.917 7.18564 0.264728
119 2 150.094 7.05414 15.7318
120 2 153.878 7.32727 16.1226
121 2 157.913 11.2773 15.9411
122 2 3.45909 10.9852 0.0752725
123 2 7.48916 11.2855 15.9849
124 2 11.5269 11.2828 15.9927
125 2 15.4188 11.2583 0.134235
126 2 19.7005 11.4619 0.00989148
127 2 23.5586 11.4796 15.8022
128 2 27.6153 11.5963 15.9152
129 2 31.6901 11.4663 15.7583
130 2 35.5789 11.6165 0.353164
131 2 39.5347 11.6623 15.845
132 2 43.6577 12.042 0.447928
133 2 47.9027 11.7196 0.405412
134 2 51.801 11.7883 16.0481
135 2 55.689 11.7614 15.8126
136 2 59.6802 12.0176 0.230142
137 2 63.7007 11.856 15.9116
138 2 67.7342 11.9948 16.0918
139 2 71.8981 11.9566 0.186822
140 2 75.7199 12.0612 15.9891
141 2 79.6951 12.0833 0.348297
142 2 83.6281 11.978 0.235044
143 2 87.6123 11.9096 15.8524
144 2 91.4434 11.8915 15.8591
145 2 95.2674 11.7354 0.0780838
146 2 99.1541 11.6306 0.122339
147 2 102.908 11.5162 15.9458
148 2 106.967 11.6475 15.7722
149 2 110.878 11.6433 15.6966
150 2 114.807 11.5594 15.8854
151 2 118.714 11.4413 0.196626
152 2 122.538 11.3753 0.276919
153 2 126.348 11.3837 15.9676
154 2 130.566 11.2769 0.0789756
155 2 134.351 11.2355 15.8859
156 2 138.264 11.1696 15.9501
157 2 142.107 11.208 -0.0105638
158 2 146.074 11.1656 -0.0157381
159 2 150.085 10.9692 15.9702
160 2 153.941 11.0026 0.128011
161 2 157.736 15.1402 0.169633
162 2 3.36972 14.9021 16.0571
163 2 7.36309 15.1204 15.9247
164 2 11.4106 15.1555 0.308957
165 2 15.4379 15.1964 -0.0291454
166 2 19.4861 15.1869 15.8841
167 2 23.5839 15.2877 -0.0126961
168 2 27.4524 15.5098 15.7823
169 2 31.5409 15.4848 0.385617
170 2 35.5558 15.3945 0.187827
171 2 39.6103 15.57 16.0635
172 2 43.6048 15.6273 0.326786
173 2 47.6823 15.7662 0.48174
174 2 51.581 15.8204 0.296012
175 2 55.5547 15.7757 15.8842
176 2 59.8219 15.8766 16.0392
177 2 63.8368 15.8966 15.7846
178 2 67.6942 15.8205 16.0331
179 2 71.8262 15.8665 15.8812
180 2 75.7786 15.9387 15.8211
181 2 79.8563 15.9999 16.0353
182 2 83.6872 16.0282 15.9752
183 2 87.7752 15.8558 0.268573
184 2 91.4545 15.7479 16.1027
185 2 95.3663 15.7985 0.210263
186 2 99.0995 15.7031 15.9341
187 2 103.001 15.6784 0.185222
188 2 106.842 15.7678 15.8752
189 2 110.966 15.5982 15.8806
190 2 114.592 15.676 15.7427
191 2 118.665 15.4958 15.9266
192 2 122.713 15.3519 15.773
193 2 126.52 15.326 0.231902
194 2 130.493 15.2906 0.124968
195 2 134.465 15.4464 16.1131
196 2 138.188 15.3844 15.7413
197 2 142.045 15.2534 0.0105673
198 2 145.929 15.0723 0.244555
199 2 150.044 15.1469 0.127791
200 2 153.805 15.0135 0.12823
201 2 157.867 19.0805 16.0968
202 2 3.62657 18.969 16.0015
203 2 7.54123 19.0647 16.1312
204 2 11.3413 19.1428 16.0684
205 2 15.489 19.1735 16.0106
206 2 19.5789 19.0696 16.1236
207 2 23.3994 19.3651 0.246304
208 2 27.2943 19.4246 0.238384
209 2 31.4499 19.1766 16.0959
210 2 35.5798 19.4773 0.4205
211 2 39.4463 19.4706 0.0418438
212 2 43.6115 19.5668 15.923
213 2 47.5609 19.583 0.33704
214 2 51.5108 19.7691 16.0632
215 2 55.7718 19.6639 15.925
216 2 59.6969 19.6078 16.0058
217 2 63.7145 19.7131 15.7668
218 2 67.7698 19.7522 15.8925
219 2 71.6997 19.8638 15.9251
220 2 75.6986 19.6822 15.7866
221 2 79.7142 19.7708 15.987
222 2 83.5426 19.9791 15.734
223 2 87.4474 19.9157 15.8211
224 2 91.4258 19.9349 15.7874
225 2 95.3008 19.7772 0.176924
226 2 99.2793 19.8074 0.441777
227 2 103.008 19.8603 16.2167
228 2 107.122 19.5741 15.7962
229 2 110.983 19.6053 0.0867914
230 2 115.021 19.6195 15.8824
231 2 118.735 19.5112 0.235405
232 2 122.654 19.3282 15.8721
233 2 126.63 19.3922 0.194568
234 2 130.477 19.3407 15.8626
235 2 134.323 19.2059 0.190346
236 2 138.331 19.2474 0.132543
237 2 142.382 19.2054 15.7281
238 2 146.219 19.1098 0.301099
239 2 150.132 19.215 0.181905
240 2 153.998 18.9331 15.9195
241 2 157.875 23.0949 0.198634
242 2 3.56133 22.9035 16.0469
243 2 7.3881 23.1157 0.203292
244 2 11.4652 23.1107 0.296748
245 2 15.2688 23.0903 15.9954
246 2 19.3961 22.9801 0.322127
247 2 23.4907 23.3042 15.9241
248 2 27.3948 23.227 0.33572
249 2 31.4492 23.3639 16.204
250 2 35.3352 23.4102 0.229379
251 2 39.5354 23.5878 0.175492
252 2 43.5582 23.5024 15.9656
253 2 47.5647 23.6039 15.842
254 2 51.5316 23.7713 0.219679
255 2 55.4422 23.4251 16.1753
256 2 59.5257 23.396 15.8477
257 2 63.5459 23.6246 0.268036
258 2 67.659 23.6035 0.204419
259 2 71.7452 23.7909 15.9348
260 2 75.6365 23.6935 0.120127
261 2 79.3536 23.8105 16.0941
262 2 83.6267 23.8801 15.9398
263 2 87.6522 24.0351 15.9334
264 2 91.5248 23.9691 15.9274
265 2 95.4679 23.8975 16.0078
266 2 99.3688 23.8081 15.9041
267 2 103.272 23.9529 15.7482
268 2 107.338 23.8698 15.7785
269 2 111.091 23.5764 15.9709
270 2 115.054 23.7286 15.8082
271 2 118.779 23.6152 0.183162
272 2 122.748 23.4081 0.187362
273 2 126.5 23.3708 0.131794
274 2 130.389 23.4004 0.0725463
275 2 134.321 23.3888 0.0546401
276 2 138.466 23.1344 0.0733953
277 2 142.389 23.3081 15.9965
278 2 146.247 23.1583 0.139103
279 2 150.097 23.1614 16.0113
280 2 154.075 23.1096 0.160071
281 2 158.029 27.2599 0.107702
282 2 3.57877 26.9393 -0.0687867
283 2 7.58227 27.0261 16.0572
284 2 11.4781 27.0166 0.139508
285 2 15.2447 27.0613 0.0291428
286 2 19.393 26.9574 15.8685
287 2 23.4241 27.1898 0.155563
288 2 27.5076 27.153 0.0803503
289 2 31.4674 27.2874 16.1708
290 2 35.5452 27.1794 0.340659
291 2 39.3715 27.1111 15.869
292 2 43.5022 27.4476 15.9116
293 2 47.6238 27.4143 15.8859
294 2 51.4933 27.5774 15.9514
295 2 55.4915 27.4835 16.0009
296 2 59.5516 27.5845 0.116404
297 2 63.5496 27.7604 0.366933
298 2 67.5416 27.2446 0.174003
299 2 71.6438 27.5768 0.0666146
300 2 75.5475 27.3994 16.1702
301 2 79.4578 27.53 15.9316
302 2 83.72 27.9272 16.1109
303 2 87.5754 28.1268 15.8734
304 2 91.6138 27.8797 16.0136
305 2 95.3757 27.7317 15.9823
306 2 99.3058 27.711 16.0311
307 2 103.172 27.6933 15.8124
308 2 107.128 27.7586 0.221071
309 2 111.169 27.8 0.191196
310 2 115.036 27.6572 0.231431
311 2 119 27.4729 15.8512
312 2 122.995 27.5641 0.0738457
313 2 126.823 27.3396 -0.00407125
314 2 130.528 27.2712 16.1063
315 2 134.561 27.4175 16.036
316 2 138.347 27.2235 0.159434
317 2 142.339 27.2402 15.9806
318 2 146.293 27.204 0.216223
319 2 150.058 27.1181 0.073381
320 2 153.846 27.2205 0.166181
321 2 157.902 31.0764 0.0159242
322 2 3.62726 30.9953 15.8361
323 2 7.41599 31.1498 0.0749203
324 2 11.374 31.0595 15.9186
325 2 15.366 30.9107 0.158588
326 2 19.3238 30.7027 0.276509
327 2 23.4011 31.0702 0.267089
328 2 27.3428 31.1095 0.169932
329 2 31.3257 31.1587 0.289778
330 2 35.437 31.2043 15.7627
331 2 39.434 31.0091 15.7495
332 2 43.4879 31.233 16.0643
333 2 47.501 31.4159 15.9435
334 2 51.5346 31.5051 0.21606
335 2 55.5916 31.3774 0.0802111
336 2 59.5479 31.524 15.9643
337 2 63.6344 31.4117 15.9556
338 2 67.4997 31.323 16.0667
339 2 71.4958 31.4116 0.202509
340 2 75.5565 31.458 0.247383
341 2 79.5857 31.6842 16.0729
342 2 83.4516 31.8021 0.322672
343 2 87.5269 32.059 0.0722441
344 2 91.5186 31.868 0.238652
345 2 95.5793 31.825 15.8277
346 2 99.3083 31.6872 15.8304
347 2 103.213 31.6823 15.8684
348 2 107.252 31.7816 15.9406
349 2 111.023 31.653 0.232961
350 2 114.979 31.8313 15.9275
351 2 118.952 31.683 15.9423
352 2 122.893 31.5131 16.0159
353 2 126.777 31.5885 15.919
354 2 130.569 31.3232 15.923
355 2 134.473 31.4393 16.1207
356 2 138.422 31.337 0.224738
357 2 142.452 31.2102 0.0329365
358 2 146.273 31.2873 15.4417
359 2 150.036 31.2674 0.268754
360 2 154.007 31.17 0.0588343
361 2 158.033 35.128 0.185297
362 2 3.62687 35.1096 0.104987
363 2 7.45507 35.0675 0.302118
364 2 11.4964 34.8697 0.202002
365 2 15.3684 34.7431 0.22665
366 2 18.933 34.8864 0.182857
367 2 23.357 34.92 0.173621
368 2 27.3829 34.9613 0.159253
369 2 31.3632 35.204 0.220874
370 2 35.4456 35.0784 0.262723
371 2 39.4284 35.0791 16.0153
372 2 43.3191 35.04 0.29271
373 2 47.4036 35.1209 15.7816
374 2 51.4111 35.3561 -0.0262054
375 2 55.3286 35.1643 15.7978
376 2 59.4759 35.3329 0.353031
377 2 63.4657 35.48 15.9903
378 2 67.5716 35.3428 -0.0495629
379 2 71.541 35.3504 0.327846
380 2 75.7339 35.3744 0.213433
381 2 79.2248 35.6343 16.1875
382 2 83.4481 35.66 0.241389
383 2 87.5718 35.8253 16.116
384 2 91.7663 35.7579 0.337824
385 2 95.6559 35.7567 15.9727
386 2 99.5351 35.7855 15.77
387 2 103.252 35.6068 15.7792
388 2 107.145 35.8113 16.0035
389 2 111.144 35.6462 0.0585103
390 2 115.066 35.6921 15.6743
391 2 118.76 35.515 15.9393
392 2 122.913 35.5602 0.296596
393 2 126.867 35.5177 0.393023
394 2 130.769 35.5532 0.311864
395 2 134.626 35.439 0.166895
396 2 138.583 35.3609 15.9219
397 2 142.404 35.4935 0.0505096
398 2 146.302 35.3241 15.7654
399 2 150.222 35.3088 0.0961634
400 2 154.277 35.1925 0.127277
401 2 157.99 39.1902 0.064531
402 2 3.63815 39.0473 0.144867
403 2 7.51251 39.0972 0.19853
404 2 11.5846 38.838 15.7922
405 2 15.1682 38.9783 0.067513
406 2 19.1445 38.7781 0.173135
407 2 23.1902 38.7649 15.9414
408 2 27.3282 38.9208 0.0801456
409 2 31.142 39.0791 15.9548
410 2 35.3817 39.0858 0.113012
411 2 39.2624 38.8348 0.107714
412 2 43.3217 38.9476 15.8941
413 2 47.3051 38.9881 0.27656
414 2 51.3262 39.3089 15.9746
415 2 55.3787 39.1153 0.0887072
416 2 59.261 39.4582 16.1328
417 2 63.5262 39.4538 0.418598
418 2 67.6487 39.3228 0.153193
419 2 71.5055 39.3454 16.0773
420 2 75.418 39.4847 0.434971
421 2 79.3367 39.5194 16.055
422 2 83.5388 39.6457 15.8684
423 2 87.4902 39.5894 0.100198
424 2 91.4793 39.6601 16.1062
425 2 95.5074 39.7134 0.0224437
426 2 99.312 39.7467 0.0487822
427 2 103.42 39.7328 15.7124
428 2 107.36 39.6787 -0.103255
429 2 111.163 39.6677 15.9335
430 2 115.088 39.6971 0.322772
431 2 119.04 39.7066 0.108879
432 2 122.844 39.6709 15.8354
433 2 126.765 39.5526 15.8447
434 2 130.714 39.4764 16.0338
435 2 134.6 39.4223 0.0949735
436 2 138.488 39.3377 0.0863634
437 2 142.351 39.547 0.0613945
438 2 146.397 39.1448 15.9112
439 2 150.319 39.1563 15.9744
440 2 154.13 39.2231 15.785
441 2 158.204 43.1079 0.321787
442 2 3.6341 43.1732 0.0679137
443 2 7.43684 43.0794 0.241583
444 2 11.5583 42.9591 0.335274
445 2 15.2839 43.0269 0.14532
446 2 19.3985 42.7566 0.172608
447 2 23.3216 42.6317 0.0817517
448 2 27.3121 42.8173 -0.0176406
449 2 31.2855 42.7502 0.18142
450 2 35.4335 42.9269 0.184481
451 2 39.1872 42.8317 0.102659
452 2 43.3472 42.971 0.202324
453 2 47.4589 42.8976 0.219164
454 2 51.4523 43.1317 0.267456
455 2 55.3635 43.1592 15.9575
456 2 59.2705 43.1959 15.8418
457 2 63.5508 43.123 0.068524
458 2 67.4925 43.1417 15.858
459 2 71.5881 43.4136 0.347797
460 2 75.5833 43.4235 16.0396
461 2 79.283 43.2989 16.0252
462 2 83.3618 43.5406 0.209748
463 2 87.4749 43.4465 0.241324
464 2 91.3684 43.6913 0.107197
465 2 95.4935 43.6535 16.0376
466 2 99.2957 43.5754 15.6915
467 2 103.324 43.7411 15.7661
468 2 107.418 43.7603 16.0984
469 2 111.47 43.7014 15.9695
470 2 115.131 43.7008 15.9009
471 2 118.883 43.5296 15.892
472 2 122.822 43.6885 15.6801
473 2 126.876 43.622 16.0115
474 2 130.633 43.3734 0.116951
475 2 134.671 43.5867 0.399893
476 2 138.515 43.4062 0.231081
477 2 142.63 43.3109 15.9405
478 2 146.347 43.3088 15.875
479 2 150.282 43.0124 16.0108
480 2 154.067 43.3315 0.0406888
481 2 158.299 47.2973 0.236998
482 2 3.68331 47.1302 0.267162
483 2 7.56288 47.108 0.135045
484 2 11.5202 46.9214 15.7947
485 2 15.3916 46.9707 0.114154
486 2 19.4427 46.8454 15.8924
487 2 23.1779 46.6297 0.189306
488 2 27.1733 46.8261 -0.141268
489 2 31.209 46.5641 0.196262
490 2 35.1178 46.9256 0.204472
491 2 39.3395 46.8994 15.9969
492 2 43.2591 46.9186 0.191528
493 2 47.3349 46.7443 0.340459
494 2 51.5175 47.0164 0.334187
495 2 55.271 47.1043 0.0882389
496 2 59.3577 46.8609 16.0162
497 2 63.4113 46.9947 15.9073
498 2 67.3194 47.1244 0.394056
499 2 71.1445 47.2341 0.318572
500 2 75.2735 47.2552 0.294209
501 2 79.4498 47.2007 15.9916
502 2 83.4522 47.503 0.228145
503 2 87.4305 47.4648 0.375757
504 2 91.3296 47.4332 0.296447
505 2 95.4833 47.5981 15.7337
506 2 99.5018 47.5991 15.7977
507 2 103.458 47.6808 0.0640151
508 2 107.281 47.7784 0.368749
509 2 111.33 47.7745 16.1479
510 2 115.096 47.5677 15.96
511 2 118.983 47.7032 0.305813
512 2 122.72 47.6137 16.126
513 2 126.692 47.5061 0.0863871
514 2 130.841 47.4291 16.0235
515 2 134.558 47.5703 0.167154
516 2 138.563 47.4331 0.302738
517 2 142.403 47.4319 0.232528
518 2 146.343 47.3585 0.289699
519 2 150.413 47.3012 15.9912
520 2 154.205 47.1593 15.9086
521 2 158.195 51.3029 0.181689
522 2 3.84626 51.0914 15.8449
523 2 7.74281 50.977 -0.00286546
524 2 11.6464 51.035 15.6997
525 2 15.3146 50.8465 0.0272361
526 2 19.6019 51.0346 0.272924
527 2 23.2518 50.7788 15.9208
528 2 27.228 50.4923 0.235325
529 2 31.1489 50.5642 0.0793458
530 2 35.2333 50.7076 -0.0456488
531 2 39.3946 50.7289 0.166705
532 2 43.3353 50.7513 15.9402
533 2 47.2147 50.6139 16.0023
534 2 51.2468 50.866 16.0005
535 2 55.3555 50.9081 0.234224
536 2 59.2109 50.8871 16.1284
537 2 63.2576 50.8447 15.8128
538 2 67.2694 50.8852 0.0669174
539 2 71.1316 51.0488 15.8711
540 2 75.2919 51.2084 0.235183
541 2 79.2392 51.2482 0.295774
542 2 83.3211 51.4186 0.157266
543 2 87.2368 51.2434 0.0528735
544 2 91.3051 51.3624 0.115634
545 2 95.4125 51.4342 15.8523
546 2 99.3751 51.608 15.7574
547 2 103.409 51.498 15.8016
548 2 107.315 51.6325 0.263202
549 2 111.306 51.5427 0.323639
550 2 115.239 51.8052 0.33289
551 2 119.078 51.5442 16.1322
552 2 122.905 51.4877 0.157198
553 2 127.018 51.5359 16.1526
554 2 130.958 51.4545 0.297352
555 2 134.731 51.4876 15.7801
556 2 138.562 51.5428 0.090824
557 2 142.631 51.5573 15.9136
558 2 146.408 51.3358 0.279617
559 2 150.338 51.3654 0.232526
560 2 154.223 51.1565 15.9316
561 2 0.139363 54.9573 0.313918
562 2 3.88412 55.1303 -0.126481
563 2 7.6589 55.1008 0.155119
564 2 11.8792 54.9449 0.0811932
565 2 15.7792 54.8646 15.9659
566 2 19.6348 54.7772 0.267198
567 2 23.3962 55.0659 0.383444
568 2 27.3034 54.6492 16.0688
569 2 31.1643 54.8069 -0.0270815
570 2 35.0939 54.6503 0.211544
571 2 39.1334 54.6753 0.0173689
572 2 43.3836 54.6473 0.317902
573 2 47.129 54.8096 0.158487
574 2 51.3243 54.6321 0.149877
575 2 55.1818 54.9279 15.9306
576 2 59.1956 54.7761 15.7035
577 2 63.0778 55.1247 15.8695
578 2 67.0823 54.7725 0.419066
579 2 71.2591 55.0212 0.109683
580 2 75.326 55.0269 16.0048
581 2 79.3493 55.0771 15.9295
582 2 83.337 55.2062 0.172341
583 2 87.3811 55.1791 16.0446
584 2 91.1859 55.3889 0.0747714
585 2 95.2356 55.431 0.115444
586 2 99.4063 55.4929 15.8067
587 2 103.341 55.4259 -0.0547734
588 2 107.399 55.5658 0.128118
589 2 111.493 55.6725 15.8424
590 2 115.325 55.4776 0.162876
591 2 119.221 55.4827 15.8928
592 2 122.971 55.6982 0.308599
593 2 126.789 55.662 0.33799
594 2 130.855 55.652 15.9844
595 2 134.837 55.4032 15.9309
596 2 138.925 55.4221 15.8439
597 2 142.573 55.4024 0.291998
598 2 146.623 55.2643 0.156093
599 2 150.517 55.3373 0.426859
600 2 154.283 55.2677 0.178998
601 2 158.266 59.1923 0.207889
602 2 3.73249 59.2197 15.7503
603 2 7.73826 59.1974 0.238195
604 2 11.8112 58.8478 15.9949
605 2 15.7051 59.0923 15.8726
606 2 19.5507 58.8857 0.0665819
607 2 23.4495 58.7063 -0.00307404
608 2 27.5216 58.6676 0.0532255
609 2 31.3513 58.6373 0.113052
610 2 35.1226 58.5666 15.8863
611 2 39.1736 58.6012 0.177625
612 2 43.0293 58.6477 0.428918
613 2 47.0936 58.6036 0.154805
614 2 51.0865 58.7282 0.0458709
615 2 55.3858 58.7395 16.0816
616 2 59.3075 58.6575 15.9051
617 2 63.0723 58.9403 15.842
618 2 67.088 58.6697 15.8899
619 2 71.2171 58.8185 15.8212
620 2 75.3799 58.7503 15.8233
621 2 79.3573 59.1404 0.264456
622 2 83.1689 58.9929 0.236516
623 2 87.1818 59.038 0.15374
624 2 91.1773 59.353 0.246231
625 2 95.3235 59.4029 0.366071
626 2 99.2344 59.3679 15.886
627 2 103.192 59.3582 -0.0206216
628 2 107.423 59.4045 0.2325
629 2 111.369 59.3858 15.8675
630 2 115.305 59.6436 15.6655
631 2 119.212 59.4218 15.7944
632 2 123.226 59.6076 15.9838
633 2 127.14 59.4695 0.209064
634 2 131.053 59.6044 15.9629
635 2 134.697 59.4931 16.0744
636 2 138.699 59.5095 15.8824
637 2 142.865 59.3169 0.180581
638 2 146.833 59.524 0.181338
639 2 150.628 59.065 0.356738
640 2 154.438 59.1943 0.300155
641 2 0.247986 63.3451 0.220699
642 2 3.86447 63.1919 0.254145
643 2 7.79897 63.0959 15.8116
644 2 11.8328 63.06 15.9871
645 2 15.8236 62.9901 0.0196051
646 2 19.8206 62.777 0.116676
647 2 23.6201 62.8584 0.249382
648 2 27.312 62.7452 0.35781
649 2 31.4356 62.5008 0.26387
650 2 35.3818 62.6368 0.333555
651 2 39.4005 62.5359 0.29399
652 2 43.2034 62.439 15.8697
653 2 47.044 62.4272 15.9347
654 2 51.1997 62.743 0.264741
655 2 55.1939 62.5897 0.321881
656 2 59.223 62.6166 15.6421
657 2 63.2249 62.7075 -0.0235787
658 2 67.1444 62.8318 15.8509
659 2 71.2779 62.6955 15.9166
660 2 75.0702 62.8134 0.0848357
661 2 79.352 62.871 16.0097
662 2 83.1761 63.0089 0.244202
663 2 87.204 62.8703 15.7631
664 2 91.0011 63.1389 15.9579
665 2 95.3224 63.3276 15.8598
666 2 99.3016 63.286 15.6713
667 2 103.019 63.2628 -0.111799
668 2 107.251 63.3488 15.8821
669 2 111.345 63.5867 16.098
670 2 115.161 63.6405 0.23599
671 2 119.348 63.4574 0.213109
672 2 123.277 63.5962 0.0723894
673 2 127.246 63.5563 15.9101
674 2 131.004 63.7842 0.363491
675 2 134.73 63.6129 15.9018
676 2 138.717 63.5474 0.298565
677 2 142.725 63.3817 15.92
678 2 146.715 63.407 0.175389
679 2 150.519 63.4034 0.141402
680 2 154.39 63.1758 0.217873
681 2 0.100446 67.3187 0.0759656
682 2 4.15081 67.1153 0.211967
683 2 7.93382 67.115 15.8484
684 2 11.7973 67.1371 16.0458
685 2 15.7801 66.9544 -0.000294047
686 2 19.787 66.8886 0.145317
687 2 23.6706 66.7213 0.315164
688 2 27.5783 66.684 0.299597
689 2 31.4498 66.6106 0.0494776
690 2 35.5884 66.57 15.9311
691 2 39.2833 66.4785 15.8877
692 2 43.3339 66.4512 15.8801
693 2 47.1859 66.3873 15.9451
694 2 51.179 66.5324 0.250257
695 2 55.1169 66.4511 15.9045
696 2 59.0076 66.4949 15.9292
697 2 62.7694 66.6052 -0.0565657
698 2 67.0775 66.5422 16.0178
699 2 71.2759 66.6961 0.197153
700 2 75.0917 66.8164 0.358279
701 2 79.1497 66.8875 16.0432
702 2 83.1712 66.87 16.1373
703 2 87.1707 67.1177 15.9233
704 2 91.0585 67.0809 0.406618
705 2 95.0033 67.0546 15.8974
706 2 99.0715 66.9955 15.8329
707 2 103.106 67.0755 0.160855
708 2 107.048 67.1943 -0.0311901
709 2 111.155 67.6119 15.7924
710 2 115.252 67.3178 15.9609
711 2 119.285 67.4375 0.330799
712 2 123.02 67.3027 15.9309
713 2 127.155 67.5764 0.186605
714 2 131.11 67.6818 0.25551
715 2 135.178 67.4387 15.9404
716 2 138.945 67.6231 0.263481
717 2 142.678 67.6081 15.7639
718 2 146.726 67.3185 15.8809
719 2 150.72 67.196 0.190269
720 2 154.683 67.3802 -0.0442969
721 2 158.552 71.0749 15.9607
722 2 4.04609 71.1685 0.133924
723 2 8.01732 71.004 0.128782
724 2 11.9455 70.9224 0.00873794
725 2 15.9263 70.7195 16.0052
726 2 19.748 70.9253 0.0893836
727 2 23.6058 70.7064 0.223425
728 2 27.5883 70.6929 0.318313
729 2 31.5678 70.6452 0.145724
730 2 35.6398 70.7042 0.274476
731 2 39.2883 70.6337 0.211858
732 2 43.3977 70.3414 0.136187
733 2 47.3462 70.5564 15.8339
734 2 51.0567 70.3303 0.377957
735 2 54.894 70.4284 15.7728
736 2 58.9728 70.3896 15.9125
737 2 63.0857 70.3914 15.8142
738 2 67.0218 70.4898 16.0951
739 2 71.1825 70.5699 0.327417
740 2 75.2939 70.7652 16.0177
741 2 79.0396 70.8523 0.283591
742 2 82.8752 70.7393 0.434062
743 2 87.0384 70.7836 15.9638
744 2 91.29 70.9265 15.7886
745 2 95.1613 70.8616 15.7857
746 2 99.108 71.137 15.9493
747 2 103.155 71.0708 15.8922
748 2 107.114 71.1035 0.203243
749 2 111.062 71.2427 0.170516
750 2 115.198 71.2746 0.139241
751 2 119.038 71.3312 0.178286
752 2 123.226 71.5442 15.9515
753 2 127.132 71.5492 0.287786
754 2 131.156 71.5733 0.151666
755 2 134.852 71.3793 0.358717
756 2 139.161 71.5582 16.051
757 2 142.98 71.6269 16.1239
758 2 146.886 71.3784 15.9763
759 2 150.738 71.3084 0.068618
760 2 154.637 71.2804 -0.0289278
761 2 0.0892296 75.268 15.7455
762 2 4.1508 75.0737 16.0011
763 2 8.3236 75.136 0.110982
764 2 12.1263 74.7893 0.182685
765 2 15.97 74.88 15.957
766 2 19.8961 74.7812 0.190377
767 2 23.8263 74.72 0.166389
768 2 27.6248 74.5368 0.0938375
769 2 31.6786 74.5039 0.20027
770 2 35.7034 74.6542 0.141876
771 2 39.3251 74.5771 0.0848083
772 2 43.2577 74.5804 -0.111418
773 2 47.145 74.6868 0.0615319
774 2 51.1528 74.6377 15.6752
775 2 55.0843 74.4022 15.8601
776 2 59.2059 74.4536 15.9531
777 2 63.069 74.3783 15.9606
778 2 67.0033 74.539 15.9651
779 2 70.9717 74.4655 0.345666
780 2 75.0632 74.4868 0.304549
781 2 78.9803 74.7888 0.134117
782 2 83.1513 74.5567 16.0075
783 2 86.9327 74.8179 16.0061
784 2 91.1022 74.9349 0.159291
785 2 95.0408 74.6959 15.8965
786 2 99.2299 75.0037 15.9604
787 2 102.973 75.1265 16.014
788 2 106.964 75.0247 0.112254
789 2 111.107 75.0143 0.12368
790 2 115.117 75.0931 0.0100742
791 2 119.198 75.3508 0.0902768
792 2 123.11 75.4124 0.224507
793 2 127.151 75.5649 16.0383
794 2 131.06 75.2999 16.0921
795 2 135.12 75.5656 0.0820594
796 2 139.015 75.509 15.8912
797 2 143.056 75.3343 15.8206
798 2 146.877 75.1103 16.0176
799 2 150.978 75.526 15.876
800 2 154.762 75.2065 16.0504
801 2 0.433804 79.2025 0.410811
802 2 4.1659 79.071 0.315252
803 2 8.23151 79.104 0.384169
804 2 12.1681 78.8631 15.9391
805 2 15.9699 78.8944 15.8201
806 2 19.7394 78.8939 0.190368
807 2 23.9054 78.6365 0.104405
808 2 27.7486 78.567 0.171048
809 2 31.5377 78.5505 15.9553
810 2 35.637 78.5124 0.23018
811 2 39.4386 78.5741 0.216682
812 2 43.3809 78.5725 0.128726
813 2 47.4171 78.5035 0.186051
814 2 51.2587 78.5909 0.262954
815 2 55.2183 78.3086 -0.0599544
816 2 59.0485 78.4512 0.166973
817 2 63.1039 78.2757 0.183512
818 2 67.0476 78.2829 0.06399
819 2 70.8949 78.3127 15.9957
820 2 75.0845 78.7458 0.0425415
821 2 79.0823 78.5933 0.169765
822 2 82.8236 78.5909 16.0205
823 2 86.9659 78.7477 15.7878
824 2 91.2162 78.7568 15.8695
825 2 94.9767 78.699 0.191999
826 2 99.0605 78.9413 0.33863
827 2 103.015 79.1328 16.0024
828 2 107.003 78.877 0.208197
829 2 110.84 78.7975 15.9128
830 2 114.979 78.9391 0.12824
831 2 119.111 79.1848 0.350829
832 2 123.107 79.2689 15.7906
833 2 127.033 79.3297 0.354776
834 2 131.125 79.2391 15.8793
835 2 135.196 79.4705 0.165031
836 2 138.964 79.4814 0.124262
837 2 143.116 79.2881 15.9559
838 2 146.98 79.1897 16.0892
839 2 150.783 79.2825 15.9871
840 2 154.777 79.2232 0.181825
841 2 0.26542 83.2311 0.349847
842 2 4.21284 83.1631 15.8724
843 2 8.18284 82.9165 0.165724
844 2 12.3574 82.9604 16.0358
845 2 16.1361 82.6704 15.7505
846 2 20.0574 82.7132 0.290234
847 2 23.7366 82.7297 0.192669
848 2 27.9006 82.7013 0.039753
849 2 31.6746 82.485 15.984
850 2 35.6557 82.4901 0.205624
851 2 39.5824 82.4696 0.08097
852 2 43.6678 82.5118 0.0641508
853 2 47.3003 82.4293 0.152623
854 2 51.3983 82.3564 0.237013
855 2 55.3159 82.5166 0.28852
856 2 59.173 82.2746 15.8418
857 2 63.1191 82.3493 15.7302
858 2 66.986 82.1909 15.9903
859 2 70.9885 82.3491 0.320827
860 2 74.9001 82.6591 0.253823
861 2 78.9235 82.624 0.335527
862 2 82.8387 82.4907 15.8937
863 2 86.9199 82.5415 15.7451
864 2 90.9673 82.5794 15.937
865 2 94.6884 82.764 15.9608
866 2 98.733 82.8018 16.0969
867 2 103.014 83.0569 15.9656
868 2 106.999 82.9223 0.159018
869 2 110.972 83.0513 16.0665
870 2 115.027 83.083 0.286772
871 2 118.967 82.9785 0.07253
872 2 123.108 83.2065 15.6219
873 2 126.949 83.3219 15.8517
874 2 130.864 83.1885 15.7857
875 2 134.807 83.4535 0.196542
876 2 138.994 83.6123 0.192027
877 2 142.988 83.2883 0.291214
878 2 146.835 83.3803 15.9108
879 2 150.965 83.4482 15.8976
880 2 154.849 83.4939 15.9046
881 2 0.422616 87.3285 0.37376
882 2 4.69909 87.2754 0.233013
883 2 8.38532 86.9121 0.398782
884 2 12.2371 87.0805 16.017
885 2 16.1881 86.8402 15.9389
886 2 20.2041 86.7718 0.0574376
887 2 24.2211 86.7459 0.206091
888 2 27.94 86.7955 0.214069
889 2 31.9115 86.6075 15.7393
890 2 35.6328 86.6736 0.204669
891 2 39.5546 86.5037 0.121635
892 2 43.6831 86.6435 0.15472
893 2 47.3811 86.4811 0.139297
894 2 51.417 86.3481 0.217605
895 2 55.3654 86.4626 0.298292
896 2 59.146 86.3788 0.324593
897 2 63.1887 86.3504 15.9842
898 2 67.0011 86.1702 15.9695
899 2 70.8978 86.2848 0.165207
900 2 74.8315 86.5052 15.9629
901 2 79.0106 86.4213 0.414626
902 2 82.7848 86.4019 15.7909
903 2 86.9451 86.5846 0.139213
904 2 90.7542 86.5144 15.8946
905 2 94.7127 86.7475 16.1066
906 2 98.9781 86.7462 15.8271
907 2 103.046 86.6791 15.8303
908 2 106.868 86.8691 16.1225
909 2 110.868 86.8157 0.078925
910 2 114.864 86.9613 15.9785
911 2 118.754 86.8931 15.9226
912 2 122.963 86.9953 15.7056
913 2 126.845 87.1225 15.8404
914 2 130.903 87.3506 15.7873
915 2 134.931 87.3717 0.202212
916 2 139.027 87.3545 0.241479
917 2 143.076 87.3598 15.9391
918 2 146.718 87.0955 15.8738
919 2 151.063 87.261 15.8573
920 2 154.962 87.4865 0.252844
921 2 0.616909 91.3663 15.8366
922 2 4.67309 91.1506 15.7374
923 2 8.4529 91.0312 0.221171
924 2 12.4205 91.0542 15.8519
925 2 16.3368 90.9831 15.8352
926 2 20.1969 90.8717 0.0843748
927 2 24.1574 90.764 15.7923
928 2 27.999 90.677 0.113396
929 2 31.8465 90.5586 15.8897
930 2 35.7585 90.6334 0.258985
931 2 39.6562 90.5117 0.042393
932 2 43.6367 90.558 0.176435
933 2 47.2873 90.2747 0.0919115
934 2 51.2787 90.4827 15.8847
935 2 55.3125 90.4913 0.116932
936 2 59.1777 90.3999 15.9456
937 2 63.0594 90.4744 0.371349
938 2 66.8199 90.3388 0.274709
939 2 70.9027 90.1976 0.192664
940 2 74.6773 90.2419 15.8344
941 2 78.8971 90.2562 16.1029
942 2 82.7398 90.42 15.9867
943 2 86.6454 90.3998 16.0904
944 2 90.677 90.5768 0.309281
945 2 94.7857 90.7058 16.0372
946 2 98.6788 90.5283 16.0172
947 2 102.913 90.8717 15.9979
948 2 106.746 90.7598 15.7729
949 2 110.816 90.9778 15.9656
950 2 114.794 90.8708 15.7567
951 2 118.807 90.7789 0.279785
952 2 122.815 90.7268 0.0941927
953 2 126.811 90.976 0.145141
954 2 130.989 91.1079 15.7805
955 2 134.856 91.2106 -0.0420425
956 2 138.767 91.1614 15.8861
957 2 142.954 91.0989 15.925
958 2 146.872 91.2025 0.122336
959 2 150.858 91.1234 15.9348
960 2 155.096 91.2945 16.0358
961 2 0.684572 95.2055 15.9545
962 2 4.65886 95.0864 16.0581
963 2 8.76549 95.0645 0.201233
964 2 12.3647 94.9758 16.0907
965 2 16.3647 94.8555 15.8904
966 2 20.2277 94.8156 15.8882
967 2 24.1865 94.718 15.9053
968 2 27.7978 94.6801 0.163388
969 2 31.978 94.6012 15.8123
970 2 35.6561 94.6138 -0.000219622
971 2 39.8084 94.4809 -0.053772
972 2 43.5168 94.4687 0.100287
973 2 47.4772 94.3385 15.7648
974 2 51.3736 94.5214 15.8051
975 2 55.4127 94.2734 15.935
976 2 59.3746 94.3667 0.123187
977 2 62.9547 94.5128 15.8066
978 2 66.9037 94.3474 15.788
979 2 71.0748 94.387 0.0914011
980 2 74.8735 94.3968 15.7388
981 2 78.8037 94.1939 16.0187