ITEM: TIMESTEP
18700
ITEM: NUMBER OF ATOMS
32000
ITEM: BOX BOUNDS xy xz yz pp pp pp
0.0000000000000000e+00 1.5831999999999999e+02 0.0000000000000000e+00
0.0000000000000000e+00 1.5831999999999999e+02 0.0000000000000000e+00
1.6664818879466736e-01 1.5931063811205185e+01 0.0000000000000000e+00
ITEM: ATOMS id type x y z
1 2 158.179 157.829 16.1524
2 2 3.79887 157.788 0.182994
3 2 7.92824 157.748 15.8533
4 2 11.7363 157.802 15.9393
5 2 15.8487 157.936 15.9543
6 2 19.8113 158.044 16.0267
7 2 23.7352 157.986 0.0175727
8 2 27.7379 158.172 15.9906
9 2 31.8741 158.34 15.9837
10 2 35.6541 158.37 15.9256
11 2 39.7659 158.085 0.0170831
12 2 43.7593 -0.0202524 0.0372519
13 2 47.7384 158.574 16.0004
14 2 51.8612 0.000991796 0.125359
15 2 55.9327 158.309 15.8095
16 2 59.9407 0.232766 0.10592
17 2 63.9431 0.236067 15.918
18 2 67.7753 0.267068 0.218229
19 2 71.5522 158.301 0.230419
20 2 75.5138 158.393 0.351829
21 2 79.3283 0.0880562 15.9776
22 2 83.3194 158.329 15.8974
23 2 87.1434 158.28 15.9333
24 2 90.9795 158.07 0.140776
25 2 95.0015 158.002 15.844
26 2 99.0426 157.994 15.7415
27 2 102.772 157.996 0.131971
28 2 106.828 157.96 15.9262
29 2 110.691 157.784 0.18429
30 2 114.645 157.94 0.195495
31 2 118.521 157.772 16.0587
32 2 122.359 157.693 16.0069
33 2 126.468 157.767 16.0382
34 2 130.441 157.576 15.7876
35 2 134.023 157.537 15.8564
36 2 138.073 157.456 15.7724
37 2 142.132 157.602 -0.0916236
38 2 146.1 157.485 0.0638408
39 2 150.183 157.858 0.193521
40 2 154.134 157.761 0.310395
41 2 158.025 3.50399 0.184446
42 2 3.7919 3.39083 16.0737
43 2 7.59254 3.41249 0.255491
44 2 11.8359 3.46161 15.9978
45 2 15.5231 3.68182 0.150752
46 2 19.6502 3.45048 0.284922
47 2 23.5377 3.74917 15.7585
48 2 27.6396 3.55009 15.8205
49 2 31.8492 3.87607 0.245575
50 2 35.8421 3.93111 0.271231
51 2 39.8749 3.90306 16.1411
52 2 43.7933 3.9103 -0.0175611
53 2 47.8558 4.19229 15.9308
54 2 51.8647 3.76354 0.22771
55 2 55.8374 4.02723 0.411922
56 2 59.7612 4.12171 15.977
57 2 63.8422 4.16304 15.7894
58 2 67.7773 4.25797 0.132111
59 2 71.9354 4.2002 0.10168
60 2 75.5618 3.98639 0.110704
61 2 79.5604 4.00631 0.19312
62 2 83.3545 3.97867 15.9999
63 2 87.3668 3.89036 15.9378
64 2 91.3988 3.87134 0.085683
65 2 95.2382 3.76761 16.0685
66 2 99.1456 3.85267 15.7883
67 2 102.997 3.82876 16.0488
68 2 106.64 3.65351 15.8821
69 2 110.58 3.39662 15.8319
70 2 114.541 3.62977 15.8006
71 2 118.532 3.58231 15.8041
72 2 122.588 3.33032 15.8659
73 2 126.372 3.33537 -0.0243855
74 2 130.483 3.27958 0.194941
75 2 134.45 3.3511 15.7042
76 2 138.199 3.17105 15.8458
77 2 142.039 3.22738 16.0392
78 2 146.038 3.14681 0.0689853
79 2 150.229 3.26332 16.015
80 2 154.167 3.37826 0.121909
81 2 157.943 7.26198 0.0573024
82 2 3.64668 7.30447 0.335171
83 2 7.6944 7.25002 15.9732
84 2 11.6439 7.29859 0.141116
85 2 15.8174 7.69693 0.270448
86 2 19.5951 7.55899 0.0354117
87 2 23.6629 7.64669 15.9051
88 2 27.8273 7.7309 0.389351
89 2 31.6582 7.62216 16.0684
90 2 35.6102 7.69902 15.8693
91 2 39.6671 7.8322 0.17571
92 2 43.6408 7.81619 15.8747
93 2 47.8357 7.87886 15.825
94 2 51.6775 7.99259 16.1479
95 2 55.7375 7.96137 -0.133107
96 2 59.6774 8.23462 0.109034
97 2 63.8795 8.04678 0.0723849
98 2 67.7624 8.11374 15.8443
99 2 71.7602 8.195 15.9294
100 2 75.6308 7.99443 0.327098
101 2 79.7163 8.00588 0.123782
102 2 83.6141 8.0371 0.185867
103 2 87.3969 7.89567 0.065356
104 2 91.504 7.75743 15.8903
105 2 95.3514 7.81766 16.0322
106 2 99.0527 7.75798 0.158774
107 2 103.069 7.81915 0.0343358
108 2 107.084 7.67613 16.053
109 2 110.753 7.67597 -0.025128
110 2 114.743 7.54183 16.1283
111 2 118.535 7.50701 0.171354
112 2 122.666 7.38106 0.237058
113 2 126.455 7.31878 16.0308
114 2 130.387 7.29868 15.9222
115 2 134.338 7.45104 0.126009
116 2 138.148 7.22621 0.160777
117 2 142.143 7.16022 0.120227
118 2 146.047 7.0454 0.0471866
119 2 149.773 7.12548 16.0642
120 2 154.099 7.15046 15.8101
121 2 157.699 10.9175 16.0799
122 2 3.4732 11.2341 0.381519
123 2 7.57827 11.0659 16.058
124 2 11.4527 11.2007 15.9213
125 2 15.4184 11.3908 0.0350952
126 2 19.5633 11.4814 0.186644
127 2 23.7269 11.5263 15.9514
128 2 27.7453 11.4949 15.9763
129 2 31.5304 11.7088 16.0561
130 2 35.7261 11.6365 0.134113
131 2 39.611 11.6585 15.8282
132 2 43.6986 11.6561 0.0285537
133 2 47.6048 11.9141 0.188407
134 2 51.6594 11.8909 16.0055
135 2 55.6797 11.7987 16.0062
136 2 59.5724 11.7811 0.151158
137 2 63.7953 12.1496 15.9569
138 2 67.8521 12.028 15.8325
139 2 71.7823 12.1281 0.249392
140 2 75.9132 12.0947 16.1289
141 2 79.9408 12.2094 0.258037
142 2 83.8044 12.1145 0.190582
143 2 87.5983 11.9019 15.9713
144 2 91.3627 11.8043 16.1026
145 2 95.4231 11.84 0.367997
146 2 99.1755 11.8233 0.0473076
147 2 103.218 11.7879 15.9291
148 2 107.105 11.6012 16.0495
149 2 110.843 11.4486 16.0409
150 2 114.605 11.4406 15.9401
151 2 118.641 11.568 0.219356
152 2 122.634 11.5945 0.0482363
153 2 126.695 11.3878 16.0995
154 2 130.395 11.3239 0.251789
155 2 134.302 11.3583 16.1064
156 2 138.133 11.3305 15.8213
157 2 142.022 11.1426 0.185353
158 2 145.924 11.1745 0.144419
159 2 149.879 11.1371 15.8264
160 2 153.926 11.1754 0.29866
161 2 157.89 15.0029 0.290001
162 2 3.43172 15.0754 15.8482
163 2 7.43082 15.0846 15.8231
164 2 11.4984 15.1551 0.124471
165 2 15.4037 15.1309 0.400946
166 2 19.4544 15.3385 15.7559
167 2 23.5732 15.4216 0.213144
168 2 27.565 15.3725 16.1959
169 2 31.5704 15.4652 0.182756
170 2 35.6486 15.6918 0.184411
171 2 39.6294 15.6452 15.7789
172 2 43.6395 15.798 0.102352
173 2 47.6715 15.6812 0.0893395
174 2 51.6383 15.7373 0.1192
175 2 55.8655 15.8047 15.9071
176 2 59.63 15.8126 15.744
177 2 63.6678 15.9763 16.0013
178 2 67.748 16.0814 15.7481
179 2 71.681 15.9859 16.0477
180 2 75.7465 16.0233 16.0717
181 2 79.8646 16.0864 15.8143
182 2 83.9194 16.0595 15.9538
183 2 87.4209 16.0059 0.0636747
184 2 91.3125 16.0033 15.8071
185 2 95.191 15.8127 0.229644
186 2 99.2322 15.7794 15.9083
187 2 103.093 15.7208 0.0991186
188 2 107.175 15.4352 15.9161
189 2 111.079 15.6554 16.0665
190 2 114.996 15.4451 15.9216
191 2 118.849 15.4916 15.8371
192 2 122.831 15.5828 15.9086
193 2 126.656 15.355 0.0638687
194 2 130.553 15.4069 0.0848995
195 2 134.514 15.4178 15.5802
196 2 138.335 15.1657 15.935
197 2 142.205 15.1116 0.171163
198 2 146.151 15.2688 0.0242618
199 2 149.99 15.0594 0.24292
200 2 153.887 15.1486 0.212944
201 2 157.966 18.9738 16.0094
202 2 3.45705 18.9261 16.0045
203 2 7.2771 19.0576 16.0492
204 2 11.4089 18.917 16.0601
205 2 15.3619 18.9122 15.9464
206 2 19.2819 19.2117 15.9841
207 2 23.4817 19.0061 0.295074
208 2 27.4421 19.3363 0.363611
209 2 31.5313 19.5056 16.0624
210 2 35.3893 19.3366 0.204471
211 2 39.5535 19.538 0.138208
212 2 43.5443 19.6872 16.081
213 2 47.7185 19.7394 0.288704
214 2 51.6695 19.5735 16.0336
215 2 55.6826 19.6366 16.0285
216 2 59.9076 19.8554 15.9714
217 2 63.6654 19.7837 15.8846
218 2 67.5739 19.9394 15.9291
219 2 71.7088 19.806 15.8815
220 2 75.6737 19.908 15.8991
221 2 79.8615 19.954 15.9395
222 2 83.9076 20.0284 16.0604
223 2 87.7855 20.0612 15.9321
224 2 91.3979 20.0027 16.1321
225 2 95.3007 19.9352 0.310689
226 2 99.3014 19.721 0.119814
227 2 103.24 19.7315 15.8886
228 2 106.948 19.8178 15.9847
229 2 110.962 19.7388 0.0890191
230 2 114.917 19.7038 15.9875
231 2 118.939 19.4801 0.13293
232 2 122.682 19.4867 15.9603
233 2 126.645 19.3608 0.0898436
234 2 130.521 19.3253 15.9363
235 2 134.368 19.7108 0.16098
236 2 138.279 19.3466 0.188015
237 2 142.313 19.3056 16.083
238 2 146.228 19.1306 -0.0148934
239 2 150.26 19.2156 0.28212
240 2 154.002 19.2276 16.0323
241 2 157.969 23.0867 0.275405
242 2 3.50903 23.1449 16.0275
243 2 7.50214 22.7991 0.206059
244 2 11.3665 22.8546 0.0475568
245 2 15.3944 22.9743 16.1313
246 2 19.3764 23.1396 0.198526
247 2 23.2489 23.1072 16.2357
248 2 27.4099 23.2252 0.180892
249 2 31.3879 23.2041 15.8558
250 2 35.5312 23.1803 0.41669
251 2 39.4837 23.3491 0.233821
252 2 43.4695 23.5597 16.0426
253 2 47.6077 23.5411 16.1189
254 2 51.6905 23.4457 0.139921
255 2 55.8308 23.5509 15.8688
256 2 59.6827 23.7872 16.07
257 2 63.7329 23.7508 0.210344
258 2 67.6 23.6629 0.196734
259 2 71.6764 23.7509 15.9355
260 2 75.5109 23.7119 0.127926
261 2 79.6308 23.7812 16.1217
262 2 83.6147 23.8576 15.7732
263 2 87.7375 23.8331 15.9988
264 2 91.5813 23.9752 15.8005
265 2 95.4996 23.7566 15.9564
266 2 99.3175 23.7827 15.8969
267 2 103.332 23.6882 15.9454
268 2 107.135 23.5955 15.9206
269 2 111.327 23.7332 15.917
270 2 114.971 23.574 16.1091
271 2 118.938 23.5015 0.116382
272 2 122.697 23.5451 0.165198
273 2 126.522 23.429 0.174606
274 2 130.438 23.4969 0.158382
275 2 134.491 23.3652 0.0948485
276 2 138.426 23.5425 0.334286
277 2 142.323 23.1442 15.8973
278 2 146.239 23.1679 0.0104448
279 2 150.14 23.2565 15.9554
280 2 154.048 23.18 0.134126
281 2 157.942 26.9689 -0.00658732
282 2 3.53535 27.0327 0.34828
283 2 7.37444 26.9509 15.9541
284 2 11.1818 27.0424 0.117595
285 2 15.5035 26.8135 0.236427
286 2 19.3813 26.9599 16.0215
287 2 23.3845 27.2239 0.180966
288 2 27.3378 27.1903 0.26171
289 2 31.3886 27.1594 15.87
290 2 35.2846 27.1409 0.129299
291 2 39.5329 27.5004 16.0938
292 2 43.556 27.3532 15.9353
293 2 47.4393 27.4435 16.0625
294 2 51.7491 27.3264 15.9068
295 2 55.657 27.3468 15.9083
296 2 59.7134 27.392 0.26595
297 2 63.6783 27.4273 0.221656
298 2 67.6977 27.7333 0.16574
299 2 71.6158 27.6626 -0.00852938
300 2 75.8023 27.8088 15.8519
301 2 79.8006 27.8157 16.0767
302 2 83.4915 27.5892 15.844
303 2 87.6123 27.6483 15.9841
304 2 91.485 28.0073 16.2234
305 2 95.4336 27.8862 16.0379
306 2 99.2877 27.8088 15.815
307 2 103.25 27.6797 15.9467
308 2 106.997 27.7239 0.0592761
309 2 111.161 27.5332 0.109272
310 2 114.94 27.6162 0.240723
311 2 118.826 27.6363 15.9136
312 2 122.456 27.5409 0.324449
313 2 126.579 27.8158 0.328901
314 2 130.679 27.4552 15.8084
315 2 134.387 27.3553 16.09
316 2 138.507 27.2628 0.126516
317 2 142.484 27.2183 15.7847
318 2 146.287 27.1396 0.106552
319 2 150.186 27.1993 0.315645
320 2 154.306 27.1292 0.0330643
321 2 158.081 31.1927 -0.0272681
322 2 3.51221 30.9463 15.9915
323 2 7.61384 31.0223 0.174015
324 2 11.4946 30.8705 16.0397
325 2 15.3472 30.8402 0.143688
326 2 19.2381 30.9625 0.0851842
327 2 23.2175 31.1378 0.210428
328 2 27.2422 31.1395 0.255878
329 2 31.2565 31.2282 0.101418
330 2 35.2464 31.2891 16.079
331 2 39.3973 31.291 16.1465
332 2 43.4133 31.2307 15.8563
333 2 47.4714 31.1731 16.0021
334 2 51.5261 31.128 0.370418
335 2 55.4796 31.3363 0.0967344
336 2 59.5576 31.3236 15.7541
337 2 63.6249 31.5689 15.9193
338 2 67.5831 31.4457 15.8319
339 2 71.6769 31.5741 0.0649025
340 2 75.7616 31.6045 0.271845
341 2 79.6544 31.5596 15.9372
342 2 83.6489 31.6268 0.0572954
343 2 87.5234 31.7978 0.314199
344 2 91.692 31.8031 0.278895
345 2 95.5042 31.9343 16.2184
346 2 99.3775 31.8557 15.9261
347 2 103.187 31.7436 15.9014
348 2 107.017 31.6664 15.6936
349 2 111.197 31.8147 0.0171323
350 2 115.083 31.4572 15.9834
351 2 118.76 31.5706 15.8984
352 2 122.722 31.5843 16.0444
353 2 126.942 31.5919 16.0475
354 2 130.758 31.4537 16.0823
355 2 134.644 31.2662 15.7916
356 2 138.494 31.2039 0.227104
357 2 142.225 31.3145 0.0668067
358 2 146.369 31.3531 15.9543
359 2 150.253 31.2238 0.190788
360 2 154.171 31.2172 0.00843641
361 2 158.109 35.0958 -0.0635883
362 2 3.63262 35.086 0.141578
363 2 7.59595 34.9343 0.192013
364 2 11.3136 34.922 0.248481
365 2 15.2446 34.967 0.0831395
366 2 19.368 34.7761 0.173137
367 2 23.2431 35.0701 0.338759
368 2 27.2663 35.1799 0.0828472
369 2 31.2587 34.9038 0.102002
370 2 35.1262 34.9795 0.268216
371 2 39.248 35.0107 15.7862
372 2 43.2228 34.9783 0.149985
373 2 47.5312 35.3029 16.0124
374 2 51.4616 35.3191 0.220164
375 2 55.516 35.2348 16.1707
376 2 59.5196 35.3784 0.112766
377 2 63.6009 35.1748 15.9374
378 2 67.4433 35.2373 0.471476
379 2 71.5921 35.4368 0.300462
380 2 75.4544 35.567 0.241113
381 2 79.6278 35.5536 16.1276
382 2 83.3197 35.7308 0.326394
383 2 87.5701 35.7178 16.0294
384 2 91.3453 35.7466 0.0979123
385 2 95.3149 35.8332 15.9722
386 2 99.2343 35.9854 15.9749
387 2 103.325 35.7905 16.0455
388 2 107.334 35.686 15.6726
389 2 111.279 35.7633 0.155656
390 2 115.077 35.5822 15.9263
391 2 119.186 35.7271 15.7955
392 2 122.84 35.5421 0.160705
393 2 126.847 35.6394 0.162801
394 2 130.784 35.5184 0.25185
395 2 134.543 35.3716 0.29291
396 2 138.416 35.2963 15.9755
397 2 142.427 35.1161 0.0772478
398 2 146.307 35.2108 15.8921
399 2 150.224 35.2407 0.29017
400 2 153.963 35.149 -0.0374979
401 2 158.042 39.2502 0.212636
402 2 3.5245 39.175 0.182761
403 2 7.61096 39.0172 0.249763
404 2 11.3108 39.0467 16.1013
405 2 15.4605 38.8188 0.267312
406 2 19.1443 38.9147 0.165065
407 2 23.1655 38.9379 15.6961
408 2 27.2365 38.9726 0.115592
409 2 31.3995 38.7744 15.8759
410 2 35.2345 38.8597 0.400263
411 2 39.2625 38.9279 0.133944
412 2 43.4078 38.9809 16.0169
413 2 47.3776 39.0362 -0.0199027
414 2 51.341 39.2102 15.9685
415 2 55.417 39.173 0.174131
416 2 59.4638 39.1499 16.1702
417 2 63.3516 39.1399 0.305894
418 2 67.3545 39.2234 0.311968
419 2 71.4505 39.2567 16.2198
420 2 75.3412 39.5683 0.235563
421 2 79.4312 39.4134 15.9189
422 2 83.4237 39.5607 16.0932
423 2 87.5078 39.5961 0.218253
424 2 91.6002 39.6639 15.8319
425 2 95.4629 39.8256 0.298945
426 2 99.5768 39.8695 -0.0414998
427 2 103.376 39.7115 16.0069
428 2 107.168 40.0638 0.318946
429 2 111.24 39.7675 16.0069
430 2 115.256 39.6899 0.0922958
431 2 119.028 39.502 0.0632075
432 2 122.868 39.5872 15.9639
433 2 126.652 39.6301 15.979
434 2 130.622 39.4584 15.9563
435 2 134.551 39.5222 0.395655
436 2 138.46 39.3821 0.305917
437 2 142.405 39.0718 0.233953
438 2 146.285 39.2732 15.9738
439 2 150.19 39.3208 15.9356
440 2 154.198 39.272 16.0027
441 2 158.076 43.3691 -0.181767
442 2 3.80586 43.0256 0.338471
443 2 7.57311 43.2207 -0.011919
444 2 11.6037 43.1066 -0.0591553
445 2 15.5704 42.8161 0.132455
446 2 19.2998 42.8458 0.103695
447 2 23.2732 42.9645 0.143975
448 2 27.1938 42.7426 0.269277
449 2 31.2877 43.0023 0.193159
450 2 35.2725 42.7835 0.266316
451 2 39.3728 42.9045 0.190677
452 2 43.2389 42.8202 0.297687
453 2 47.3913 43.0587 0.193918
454 2 51.2691 43.0749 0.183232
455 2 55.3341 43.2729 15.8881
456 2 59.3662 43.0059 16.1123
457 2 63.3696 43.3686 0.406432
458 2 67.3677 43.1758 16.0008
459 2 71.1467 43.2231 0.251837
460 2 75.2346 43.2568 15.9905
461 2 79.4684 43.4025 16.0697
462 2 83.4907 43.2911 0.209766
463 2 87.4872 43.5041 0.340742
464 2 91.5566 43.5154 0.251379
465 2 95.4093 43.7045 15.7327
466 2 99.3876 43.849 15.7354
467 2 103.401 43.6201 16.0197
468 2 107.243 43.6663 15.8487
469 2 111.146 43.8131 16.0942
470 2 115.165 43.6608 15.8352
471 2 119.073 43.606 15.9988
472 2 122.866 43.6265 15.922
473 2 126.955 43.5359 15.932
474 2 131.075 43.625 0.156797
475 2 134.695 43.1909 0.0450274
476 2 138.628 43.3795 0.262694
477 2 142.432 43.3496 16.1011
478 2 146.436 43.2214 15.9892
479 2 150.299 43.341 15.8974
480 2 154.253 43.1532 0.14013
481 2 158.164 47.1381 -0.153565
482 2 3.84163 47.1104 0.0352396
483 2 7.55416 46.9861 0.0170911
484 2 11.6134 46.9461 15.7739
485 2 15.4382 46.8343 0.0722392
486 2 19.2724 46.7638 15.9518
487 2 23.4209 46.7868 0.05451
488 2 27.2005 46.5878 0.37468
489 2 31.0372 46.6876 0.159736
490 2 35.2005 46.7073 0.278031
491 2 39.2695 46.6757 15.9056
492 2 43.3707 46.8891 0.286143
493 2 47.2919 46.9018 0.265467
494 2 51.2088 47.1088 0.0259787
495 2 55.4348 47.1436 0.119512
496 2 59.1983 47.0087 16.001
497 2 63.215 47.1201 16.0237
498 2 67.2941 47.1795 0.114059
499 2 71.4782 47.0806 0.225849
500 2 75.3454 47.2672 0.28288
501 2 79.1563 47.3889 16.2491
502 2 83.3546 47.2184 0.223359
503 2 87.333 47.4777 0.140688
504 2 91.4916 47.5264 0.0805774
505 2 95.4061 47.5949 16.0082
506 2 99.4219 47.5769 15.8895
507 2 103.43 47.6484 0.106393
508 2 107.427 47.732 0.253208
509 2 111.139 47.6068 16.1181
510 2 115.227 47.6667 16.1036
511 2 119.134 47.5643 0.311678
512 2 123.183 47.5255 15.9215
513 2 127.016 47.5014 0.409165
514 2 130.807 47.6088 16.0445
515 2 134.821 47.3549 0.287953
516 2 138.585 47.5053 -0.0275488
517 2 142.558 47.3423 0.0870705
518 2 146.506 47.3565 0.0853054
519 2 150.355 47.1748 15.8773
520 2 154.439 47.2738 15.9503
521 2 158.227 51.0112 -0.0109767
522 2 3.88659 51.1693 15.7416
523 2 7.76049 51.049 0.081792
524 2 11.6688 50.8923 15.863
525 2 15.7285 50.8084 0.150755
526 2 19.3159 50.6931 0.113284
527 2 23.3286 50.6936 15.8052
528 2 27.2629 50.8013 0.0677736
529 2 31.2297 50.4979 0.190255
530 2 35.2016 50.5551 0.229784
531 2 39.066 50.5495 0.119799
532 2 43.2681 50.8767 15.9738
533 2 47.1842 50.6942 16.0245
534 2 51.4066 50.8681 15.8275
535 2 55.3613 50.9694 0.0831131
536 2 59.4683 50.923 15.8459
537 2 63.3219 51.0024 15.9014
538 2 67.1413 51.0543 0.0183574
539 2 71.3496 51.0027 16.0394
540 2 75.4147 51.2396 0.225915
541 2 79.4078 51.1127 0.190988
542 2 83.3742 51.1947 0.303661
543 2 87.4727 51.4077 0.23932
544 2 91.3472 51.4572 0.260989
545 2 95.3369 51.5974 16.027
546 2 99.371 51.3511 15.8891
547 2 103.385 51.7661 15.9659
548 2 107.207 51.5572 0.265659
549 2 111.33 51.6444 0.268722
550 2 115.321 51.4687 0.282749
551 2 119.274 51.7182 16.0744
552 2 123.153 51.736 0.328238
553 2 126.852 51.6384 16.0736
554 2 130.627 51.7104 0.308515
555 2 134.513 51.5567 16.1163
556 2 138.589 51.4989 0.217839
557 2 142.69 51.2829 16.0498
558 2 146.576 51.4593 0.1038
559 2 150.558 51.1915 0.238515
560 2 154.468 51.1576 16.0452
561 2 -0.186491 55.4049 0.0719121
562 2 3.86316 55.0211 0.125857
563 2 7.87266 55.039 -0.0778054
564 2 11.7005 54.9233 0.0670248
565 2 15.5993 54.8632 15.8797
566 2 19.5235 54.8606 0.00830356
567 2 23.6645 54.8447 0.024712
568 2 27.2903 54.9811 15.7992
569 2 31.4055 54.4422 0.185348
570 2 35.2252 54.6271 0.0627875
571 2 39.1047 54.5096 0.0140676
572 2 43.0375 54.828 0.228403
573 2 47.3484 54.5097 0.111262
574 2 51.1357 54.7504 0.0510582
575 2 55.3905 54.7534 15.8316
576 2 59.4371 54.8278 16.0327
577 2 63.4327 54.8132 15.8672
578 2 67.3896 54.9635 -0.0102425
579 2 71.2159 54.9046 0.126547
580 2 75.4082 55.0601 15.9922
581 2 79.3091 55.0579 16.084
582 2 83.2473 55.097 0.261935
583 2 87.1922 55.2298 15.8526
584 2 91.4846 55.2867 0.140011
585 2 95.3837 55.434 0.227704
586 2 99.2793 55.5722 15.7833
587 2 103.353 55.5582 0.0375462
588 2 107.398 55.5964 0.0667801
589 2 111.215 55.395 16.1307
590 2 115.303 55.6479 0.0836086
591 2 119.328 55.629 15.8393
592 2 123.318 55.7207 0.20877
593 2 127.054 55.6404 0.36686
594 2 130.968 55.4441 16.0243
595 2 134.962 55.6418 16.1463
596 2 138.778 55.4173 15.8642
597 2 142.8 55.2912 0.116924
598 2 146.596 55.3974 0.342463
599 2 150.37 55.1697 0.0935866
600 2 154.315 55.1799 0.320824
601 2 158.33 59.1112 0.194593
602 2 4.11758 58.9604 15.9907
603 2 7.87605 58.9037 0.130036
604 2 11.5404 58.9976 15.8153
605 2 15.5728 58.821 15.7414
606 2 19.5629 58.6563 -0.00614006
607 2 23.5591 58.8777 0.13385
608 2 27.4525 58.7208 0.426315
609 2 31.3119 58.671 0.150911
610 2 35.2109 58.6082 15.9727
611 2 39.003 58.3697 0.115336
612 2 43.2438 58.5536 0.0517899
613 2 47.2119 58.713 0.262595
614 2 51.3055 58.5053 0.362442
615 2 55.0603 58.6227 16.0215
616 2 59.1579 58.7794 15.7588
617 2 63.3643 58.7945 15.9586
618 2 67.3255 58.9173 15.9612
619 2 71.2664 58.8079 15.8521
620 2 75.0942 59.0358 15.8378
621 2 79.3482 58.8609 0.0423784
622 2 83.4518 59.1296 0.2143
623 2 87.3306 59.1305 0.0604003
624 2 91.3023 59.1373 0.186979
625 2 95.1386 59.2176 0.0293927
626 2 99.117 59.297 16.0397
627 2 103.304 59.2911 0.0737556
628 2 107.317 59.5224 0.0388435
629 2 111.338 59.5889 15.8453
630 2 115.307 59.6897 16.0117
631 2 119.347 59.6259 16.0207
632 2 123.236 59.606 15.8831
633 2 127.075 59.7038 0.232798
634 2 131.029 59.6761 15.899
635 2 135.048 59.6129 15.9663
636 2 138.834 59.451 15.8107
637 2 142.608 59.3199 0.198199
638 2 146.584 59.3255 0.431103
639 2 150.513 59.4016 0.196451
640 2 154.338 59.1861 0.136351
641 2 -0.0414762 63.0028 0.0979399
642 2 4.07066 63.0643 0.122757
643 2 8.00451 62.9738 15.9714
644 2 11.7997 62.7774 15.8218
645 2 15.6769 62.8141 -0.0248904
646 2 19.5587 62.8959 0.119174
647 2 23.5698 62.6992 0.0667795
648 2 27.6036 62.6848 0.0609901
649 2 31.4611 62.682 0.171282
650 2 35.3413 62.5037 0.187696
651 2 39.1313 62.4658 0.123334
652 2 43.137 62.5052 15.8509
653 2 47.3033 62.6563 15.7959
654 2 51.1747 62.3944 0.0988461
655 2 55.1448 62.7493 0.182195
656 2 59.2091 62.7274 15.9884
657 2 63.1258 62.8058 0.11569
658 2 67.117 62.5286 15.8395
659 2 71.0709 62.6528 15.8944
660 2 75.3965 62.8802 0.147068
661 2 79.1428 62.9747 15.8226
662 2 83.3096 62.9528 0.258863
663 2 87.1168 63.1134 15.9086
664 2 91.4471 63.2214 15.91
665 2 95.1575 63.2801 15.7606
666 2 99.209 63.1437 15.751
667 2 103.167 63.2457 0.150876
668 2 107.317 63.4184 15.8966
669 2 111.163 63.4271 15.7366
670 2 115.207 63.6401 0.133702
671 2 119.069 63.5722 0.32094
672 2 123.323 63.554 0.162693
673 2 127.236 63.7272 15.9924
674 2 131.207 63.7728 0.266079
675 2 135.016 63.5271 16.0665
676 2 138.788 63.3684 0.0147945
677 2 142.836 63.3044 15.8022
678 2 146.589 63.2837 0.055496
679 2 150.467 63.1782 0.292176
680 2 154.57 63.2433 0.173415
681 2 0.0125387 67.1228 0.0789211
682 2 3.93017 67.0197 0.210427
683 2 7.90162 67.0252 16.051
684 2 11.9411 66.7557 15.8452
685 2 15.7355 66.9394 0.234525
686 2 19.7364 66.7826 0.132068
687 2 23.6298 66.8851 0.214368
688 2 27.4402 66.7153 0.186071
689 2 31.3824 66.4827 0.135799
690 2 35.2945 66.4213 15.964
691 2 39.2834 66.574 16.0131
692 2 43.2317 66.6521 15.8212
693 2 47.1729 66.447 15.9869
694 2 51.0931 66.4981 0.267046
695 2 55.0808 66.5643 16.056
696 2 59.0307 66.6564 16.0195
697 2 63.1953 66.7249 0.0704684
698 2 67.206 66.5955 16.1114
699 2 71.2118 66.6116 0.360842
700 2 75.3285 66.785 0.0899945
701 2 79.279 66.7312 15.8312
702 2 83.1709 66.8377 15.7963
703 2 87.1342 66.9553 15.9454
704 2 91.1663 67.1643 0.0124007
705 2 95.2574 67.2731 16.0428
706 2 99.3061 67.3244 15.8475
707 2 103.173 67.1588 0.0960941
708 2 107.289 67.3185 0.24027
709 2 111.129 67.3683 15.9916
710 2 115.247 67.447 15.8704
711 2 119.141 67.602 0.282505
712 2 123.315 67.545 15.988
713 2 127.114 67.6375 0.231618
714 2 131.161 67.4007 0.227407
715 2 134.934 67.5021 16.0484
716 2 138.977 67.4178 0.192468
717 2 142.918 67.3707 15.9196
718 2 146.759 67.3894 16.0781
719 2 150.705 67.3015 0.307246
720 2 154.587 67.1325 0.150926
721 2 158.63 71.3551 15.7844
722 2 4.15014 71.1052 0.124625
723 2 7.99619 71.0991 0.125968
724 2 11.8854 71.088 0.279154
725 2 15.685 71.0176 15.7685
726 2 19.6843 70.6931 0.264072
727 2 23.7664 70.8003 0.28952
728 2 27.8421 70.7285 0.169559
729 2 31.5968 70.4165 0.174499
730 2 35.5076 70.3899 -0.0295903
731 2 39.4765 70.4035 0.248784
732 2 43.3118 70.5487 0.0879232
733 2 47.2665 70.4153 16.1023
734 2 51.1615 70.4936 -0.0444965
735 2 55.0408 70.6148 15.9358
736 2 59.1056 70.4397 15.7573
737 2 63.0696 70.6529 15.7433
738 2 67.1228 70.4288 15.8236
739 2 71.0687 70.6182 0.315736
740 2 75.0056 70.6437 16.1511
741 2 79.1018 70.6917 0.0273258
742 2 83.2896 70.7789 0.0700018
743 2 87.1594 70.9911 15.9161
744 2 90.7984 71.1228 15.8419
745 2 94.9801 71.0778 16.075
746 2 99.1035 71.1425 15.9122
747 2 102.913 71.1067 16.1536
748 2 107.139 71.1516 0.20171
749 2 111.116 71.4368 0.201219
750 2 115.067 71.1373 0.176893
751 2 119.245 71.4389 0.222828
752 2 123.149 71.3635 15.9024
753 2 127.049 71.4009 0.155951
754 2 131.123 71.5166 0.155486
755 2 135.184 71.5321 0.283917
756 2 138.882 71.5603 15.9501
757 2 142.986 71.3897 15.9712
758 2 146.749 71.2915 15.8655
759 2 150.629 71.2168 0.228967
760 2 154.517 71.1987 0.0780649
761 2 0.523916 75.2462 15.8556
762 2 4.28527 75.2477 16.0447
763 2 8.05954 74.9975 0.236538
764 2 12.0622 75.0794 0.0765014
765 2 16.0145 74.8363 15.8329
766 2 19.7938 74.6985 0.208055
767 2 23.6153 74.732 0.320038
768 2 27.7061 74.6327 0.322553
769 2 31.572 74.6339 0.301359
770 2 35.4909 74.4486 0.206254
771 2 39.5278 74.5034 0.317354
772 2 43.3643 74.4163 0.21435
773 2 47.1236 74.4952 0.127503
774 2 51.1238 74.3851 15.9295
775 2 55.2394 74.3477 15.8347
776 2 59.1318 74.3385 15.9055
777 2 63.1178 74.2936 15.9698
778 2 67.0076 74.2826 15.861
779 2 71.1333 74.6043 0.223266
780 2 75.1004 74.772 0.120315
781 2 79.0916 74.8346 0.237484
782 2 82.837 74.7411 16.0674
783 2 86.87 75.0057 16.0511
784 2 91.1075 74.9072 0.220467
785 2 95.0428 75.075 15.9031
786 2 98.891 75.1606 15.9644
787 2 103.303 75.0922 15.9639
788 2 107.051 74.8864 0.377228
789 2 111.14 75.2536 0.301687
790 2 115.104 75.2459 0.0724469
791 2 118.981 75.2065 0.238678
792 2 123.197 75.3417 0.098014
793 2 127.152 75.2182 15.766
794 2 131.003 75.4482 15.8175
795 2 135.164 75.3727 0.182513
796 2 139.196 75.6602 16.021
797 2 143.032 75.6777 15.9973
798 2 146.848 75.6049 15.9834
799 2 150.746 75.2342 15.9183
800 2 154.753 75.2695 15.7126
801 2 0.129127 79.5328 0.217987
802 2 4.26779 79.1499 0.1918
803 2 8.30952 79.0411 0.201198
804 2 12.0704 78.9938 16.0698
805 2 16.0312 78.7571 15.9546
806 2 20.0501 78.6273 0.00109869
807 2 23.7481 78.7273 -0.000994402
808 2 27.6862 78.5439 0.0778431
809 2 31.587 78.5789 15.9544
810 2 35.4421 78.5984 -0.00905554
811 2 39.4781 78.4552 0.0717064
812 2 43.221 78.5737 -0.0414383
813 2 47.2424 78.4193 0.0894815
814 2 51.3239 78.2844 -0.068376
815 2 55.1626 78.4005 0.30422
816 2 59.1823 78.2391 0.0299083
817 2 63.0604 78.3344 0.146931
818 2 66.8791 78.3157 0.100894
819 2 70.9769 78.3829 16.0835
820 2 74.9166 78.3259 0.389225
821 2 78.8512 78.789 0.385459
822 2 83.0714 78.5949 15.9218
823 2 86.8885 78.8811 15.9295
824 2 90.7933 78.7079 15.852
825 2 95.0437 79.0598 0.0438975
826 2 98.9394 78.9354 0.233148
827 2 103.076 79.0209 15.9955
828 2 107.042 78.9057 0.196145
829 2 110.987 79.0993 15.8114
830 2 115.066 79.0818 0.0235893
831 2 118.999 79.1389 0.0798402
832 2 122.955 79.1844 15.9648
833 2 127.091 79.2925 0.00693907
834 2 130.98 79.4347 16.0062
835 2 135.116 79.2841 0.148076
836 2 139.121 79.4827 0.381012
837 2 142.969 79.569 15.9812
838 2 146.981 79.551 15.9317
839 2 150.834 79.2937 15.9818
840 2 154.739 79.1981 0.192335
841 2 0.375426 83.3348 0.268384
842 2 4.642 83.1423 16.0334
843 2 8.39975 83.2266 0.352997
844 2 11.9589 82.9885 15.8747
845 2 15.8775 83.0725 16.0172
846 2 20.04 82.8082 0.00946782
847 2 24.1944 82.7228 0.109063
848 2 27.8414 82.5466 0.104667
849 2 31.8646 82.6805 15.9444
850 2 35.6764 82.5832 0.055468
851 2 39.4713 82.6678 0.317396
852 2 43.2347 82.4721 0.0883058
853 2 47.528 82.4648 0.0267089
854 2 51.2392 82.4915 -0.124285
855 2 55.2982 82.3303 0.0884097
856 2 59.2883 82.465 15.9035
857 2 63.0278 82.3682 15.8358
858 2 66.9493 82.4028 15.8918
859 2 70.9781 82.3396 0.0417216
860 2 75.0189 82.2706 0.148582
861 2 78.8918 82.5208 0.297494
862 2 82.8633 82.6937 16.0089
863 2 86.9335 82.7668 15.9776
864 2 90.9248 82.808 15.9033
865 2 95.0662 82.8422 16.0988
866 2 98.9948 82.7703 16.0244
867 2 102.957 82.7975 15.8817
868 2 107.016 82.9131 0.182845
869 2 110.934 82.7944 15.8402
870 2 114.867 82.8271 0.0662018
871 2 118.957 83.0889 0.333364
872 2 122.795 83.0717 15.9695
873 2 126.973 83.1626 15.8227
874 2 130.958 83.359 15.7196
875 2 135.148 83.2777 0.178962
876 2 138.889 83.2951 0.217914
877 2 142.957 83.2875 0.0174796
878 2 147.062 83.2332 15.9472
879 2 151.014 83.3021 16.0175
880 2 154.805 83.1807 16.087
881 2 0.730833 87.1909 0.326777
882 2 4.4176 87.104 0.260279
883 2 8.33091 87.2536 0.137596
884 2 12.2535 86.95 15.984
885 2 16.2293 86.8626 15.8819
886 2 20.1828 86.7635 0.108884
887 2 23.933 86.7406 0.0994364
888 2 27.8881 86.7923 0.0911304
889 2 31.6336 86.6635 16.0157
890 2 35.7309 86.5151 0.255947
891 2 39.7359 86.5363 0.114248
892 2 43.4057 86.3837 0.181032
893 2 47.599 86.4873 0.112304
894 2 51.3721 86.4849 0.214801
895 2 55.2677 86.3276 3.83344e-05
896 2 59.2131 86.4516 0.106932
897 2 62.9333 86.4152 15.8468
898 2 66.8739 86.419 15.9649
899 2 70.9188 86.3627 0.184857
900 2 74.9908 86.2913 16.0414
901 2 78.7181 86.4638 0.177276
902 2 82.9201 86.59 16.1742
903 2 86.8695 86.6002 0.210929
904 2 90.8743 86.8485 16.0402
905 2 94.9292 86.7248 15.9053
906 2 98.7544 86.6928 15.9985
907 2 102.678 86.8922 15.9854
908 2 106.863 86.8712 16.0274
909 2 110.799 86.9357 0.378583
910 2 114.766 86.8885 15.7748
911 2 118.768 86.8126 15.9189
912 2 122.668 87.141 15.7957
913 2 126.963 87.2017 15.862
914 2 130.835 86.9861 15.7861
915 2 134.988 87.1113 0.000741801
916 2 138.852 87.1864 0.0166882
917 2 142.835 87.1918 15.7956
918 2 146.797 87.1935 16.1448
919 2 150.868 87.4599 15.9029
920 2 154.962 87.3176 0.241621
921 2 0.60959 91.1882 15.8379
922 2 4.57659 91.2709 16.0268
923 2 8.48847 91.0952 0.395515
924 2 12.2557 90.8253 16.1025
925 2 16.195 90.9076 15.7465
926 2 20.2922 90.8763 0.00898048
927 2 23.9846 90.6192 16.0633
928 2 27.908 90.7099 0.207926
929 2 31.6481 90.7261 15.9441
930 2 35.6858 90.5659 0.0976335
931 2 39.5669 90.6143 0.104428
932 2 43.3628 90.3853 0.0156822
933 2 47.5191 90.615 0.0623505
934 2 51.3404 90.2597 15.8918
935 2 55.1614 90.352 0.136311
936 2 59.0553 90.5862 16.1494
937 2 62.9148 90.4186 0.118488
938 2 67.0169 90.3384 0.158371
939 2 70.7655 90.44 0.262619
940 2 74.6927 90.424 16.0987
941 2 78.7009 90.3094 15.8828
942 2 82.9584 90.4471 15.9649
943 2 86.9312 90.5048 15.895
944 2 90.881 90.5915 0.164807
945 2 94.6988 90.4803 16.0261
946 2 98.8194 90.634 15.8554
947 2 102.609 90.5498 15.9636
948 2 106.817 90.7185 16.075
949 2 110.765 90.773 15.9644
950 2 114.588 90.8548 16.0314
951 2 118.594 90.8603 -0.142137
952 2 122.705 91.1064 -0.049785
953 2 126.999 91.0277 0.0674959
954 2 130.86 91.0977 15.9555
955 2 134.865 91.0474 0.203318
956 2 139 91.0511 16.0703
957 2 142.946 91.3246 16.0741
958 2 146.882 91.1446 0.228458
959 2 150.952 91.3659 15.9963
960 2 154.794 91.3122 15.9477
961 2 0.637511 95.3 16.0722
962 2 4.64641 95.1656 15.9443
963 2 8.37887 95.1532 0.121628
964 2 12.3863 95.015 15.9622
965 2 16.2107 94.9801 15.9773
966 2 20.0865 94.9451 15.8692
967 2 23.9069 94.7496 15.892
968 2 27.9792 94.6957 0.0723953
969 2 31.6648 94.7303 15.9541
970 2 35.7348 94.5838 0.115994
971 2 39.4229 94.6929 0.291179
972 2 43.4824 94.5164 0.209779
973 2 47.5532 94.642 16.1138
974 2 51.4329 94.3259 15.9725
975 2 55.1733 94.6464 16.09
976 2 59.122 94.5479 0.184742
977 2 63.2048 94.5238 15.8725
978 2 67.0623 94.3756 15.9657