ITEM: TIMESTEP
18800
ITEM: NUMBER OF ATOMS
32000
ITEM: BOX BOUNDS xy xz yz pp pp pp
0.0000000000000000e+00 1.5831999999999999e+02 0.0000000000000000e+00
0.0000000000000000e+00 1.5831999999999999e+02 0.0000000000000000e+00
1.6545502229216602e-01 1.5932256977707691e+01 0.0000000000000000e+00
ITEM: ATOMS id type x y z
1 2 158.065 157.792 15.7452
2 2 3.773 157.68 0.16977
3 2 7.61888 158.015 16.1152
4 2 11.7519 157.898 16.0191
5 2 15.7116 157.893 15.8174
6 2 19.7399 157.862 15.7902
7 2 23.7614 158.214 0.28483
8 2 27.761 157.96 15.861
9 2 31.6695 157.948 15.924
10 2 35.8956 158.062 15.7954
11 2 39.7008 158.422 0.158669
12 2 43.8976 0.0822582 0.140321
13 2 47.9388 158.422 15.8338
14 2 51.9568 0.0950148 0.229968
15 2 55.9634 158.542 16.0899
16 2 59.8525 0.0161495 0.0937786
17 2 63.8061 0.176246 15.787
18 2 67.83 0.205173 0.270511
19 2 71.734 158.521 0.151655
20 2 75.5584 158.258 0.0908404
21 2 79.568 0.0444991 15.9717
22 2 83.3225 158.223 15.8889
23 2 87.245 158.131 15.816
24 2 91.2689 158.255 0.138135
25 2 95.1552 158.126 15.9518
26 2 98.9988 158.134 15.833
27 2 103.223 157.993 0.159642
28 2 107.038 157.863 15.9369
29 2 110.926 158.08 0.19382
30 2 114.714 157.754 -0.00697113
31 2 118.532 157.895 15.6098
32 2 122.539 157.817 15.9062
33 2 126.477 157.684 15.9443
34 2 130.367 157.849 15.8852
35 2 134.485 157.651 15.8959
36 2 138.295 157.656 15.9297
37 2 142.071 157.69 -0.0139143
38 2 146.055 157.566 0.00600928
39 2 150.05 157.525 0.287841
40 2 154.085 157.791 0.124932
41 2 158.08 3.3148 0.294017
42 2 3.68207 3.20698 15.9372
43 2 7.83708 3.44094 -0.0550371
44 2 11.4891 3.4483 16.0331
45 2 15.8248 3.41989 0.147068
46 2 19.7723 3.60423 -0.0246172
47 2 23.8227 3.64132 15.9028
48 2 27.7481 3.62859 16.1117
49 2 31.7139 3.66808 0.232224
50 2 35.5853 3.77214 0.0249221
51 2 39.6101 3.7577 15.8879
52 2 43.7545 3.87878 0.25073
53 2 47.6227 3.96758 16.0099
54 2 51.6618 3.97619 0.135074
55 2 55.7518 4.04598 -0.023814
56 2 59.955 3.93739 15.9258
57 2 63.8267 4.26692 15.774
58 2 68.0482 4.0654 0.100662
59 2 71.7266 4.01441 0.336232
60 2 75.68 4.09615 0.237232
61 2 79.3594 4.18083 0.316223
62 2 83.3991 3.94517 15.9344
63 2 87.2831 4.07293 16.0645
64 2 91.1749 3.78609 0.140123
65 2 95.2231 3.85181 15.9
66 2 99.0488 3.62039 16.0954
67 2 102.854 3.53303 15.717
68 2 107.001 3.44308 16.0344
69 2 110.88 3.69191 16.0108
70 2 114.611 3.52081 16.0803
71 2 118.501 3.58076 15.8847
72 2 122.448 3.55623 15.9703
73 2 126.496 3.42545 0.236758
74 2 130.3 3.48657 0.318649
75 2 134.332 3.27353 15.9932
76 2 138.207 3.18245 15.8864
77 2 142.117 3.03877 15.8409
78 2 146.016 3.12886 0.249977
79 2 149.923 3.44701 15.9676
80 2 153.828 3.18972 0.430482
81 2 157.873 7.2133 0.1972
82 2 3.67623 7.25152 0.157811
83 2 7.51159 7.26043 15.9466
84 2 11.6708 7.34991 0.288285
85 2 15.5 7.1924 0.00369691
86 2 19.7674 7.37703 0.277402
87 2 23.7397 7.50563 15.8595
88 2 27.5207 7.5152 0.0709533
89 2 31.5635 7.62077 16.0126
90 2 35.651 7.84319 15.8191
91 2 39.5632 7.77413 0.0752991
92 2 43.734 7.8247 15.895
93 2 47.5596 8.12114 16.0109
94 2 51.7877 7.94701 15.6668
95 2 55.6069 8.06169 0.236935
96 2 59.8241 7.76236 -0.0906684
97 2 63.7381 8.13346 0.251843
98 2 67.8391 8.16123 15.9013
99 2 71.818 8.04133 16.0853
100 2 75.8187 8.2448 0.157538
101 2 79.6131 8.13618 0.363773
102 2 83.5118 7.96303 0.11433
103 2 87.3918 7.994 0.173445
104 2 91.3074 7.89496 16.0155
105 2 95.1844 8.00066 16.0029
106 2 99.1137 7.94286 0.318753
107 2 102.95 7.65262 0.174533
108 2 106.795 7.5023 15.8854
109 2 110.776 7.39528 0.259984
110 2 114.72 7.46374 15.9452
111 2 118.735 7.39848 0.0863199
112 2 122.472 7.413 0.0391295
113 2 126.488 7.37541 15.9317
114 2 130.514 7.43445 15.8443
115 2 134.248 7.36081 0.00601043
116 2 138.289 7.29066 0.09292
117 2 142.12 7.12467 0.0320598
118 2 146.063 7.09815 0.190611
119 2 150.067 7.25465 16.0383
120 2 153.739 7.07861 15.9616
121 2 158.025 11.2159 15.9981
122 2 3.68199 11.2983 0.21359
123 2 7.55992 11.1727 15.99
124 2 11.7233 11.2153 15.9749
125 2 15.8403 11.299 0.297606
126 2 19.6725 11.3213 0.194964
127 2 23.5559 11.4786 16.11
128 2 27.4335 11.5911 16.285
129 2 31.723 11.6448 16.1638
130 2 35.4907 11.725 -0.0625183
131 2 39.7747 11.8474 15.9743
132 2 43.4962 11.6133 0.144516
133 2 47.4606 11.8555 0.0493524
134 2 51.648 11.8799 15.8401
135 2 55.7404 12.1075 15.9915
136 2 59.9733 11.9658 0.204448
137 2 63.7538 11.913 15.9759
138 2 67.7016 11.9881 15.933
139 2 71.7557 12.0841 0.231871
140 2 75.7884 12.0257 15.906
141 2 79.7302 11.9516 -0.025119
142 2 83.6259 11.952 0.196312
143 2 87.3848 11.9474 16.0559
144 2 91.5266 11.9672 15.8231
145 2 95.2178 11.9155 0.198814
146 2 99.25 11.8597 0.507618
147 2 103.246 11.8222 15.9764
148 2 106.954 11.6977 15.9826
149 2 110.905 11.7801 16.0681
150 2 115.009 11.5939 16.0735
151 2 118.774 11.444 0.0284682
152 2 122.698 11.3149 0.235113
153 2 126.522 11.4378 15.8097
154 2 130.381 11.3917 0.23336
155 2 134.364 11.2891 15.7844
156 2 138.257 11.249 15.8669
157 2 142.245 11.2254 0.132555
158 2 146.098 11.075 0.236758
159 2 149.904 11.2196 15.9855
160 2 153.758 11.0957 0.18097
161 2 157.883 15.0526 0.215938
162 2 3.63001 15.1913 16.015
163 2 7.66915 15.0622 16.1005
164 2 11.4591 15.1005 0.0890275
165 2 15.6341 15.2209 0.103962
166 2 19.6202 15.3362 16.1866
167 2 23.4676 15.4663 0.442496
168 2 27.5431 15.4487 16.1103
169 2 31.6228 15.6589 0.170529
170 2 35.4767 15.4995 0.202646
171 2 39.4995 15.613 15.9543
172 2 43.6623 15.5561 0.221475
173 2 47.5515 15.7108 0.172787
174 2 51.7822 15.6177 0.209921
175 2 55.5457 15.7206 15.9922
176 2 59.7278 15.7323 15.97
177 2 63.7505 15.784 15.8778
178 2 67.7478 15.8266 16.0148
179 2 71.7929 15.8858 15.9238
180 2 75.6907 15.948 16.0385
181 2 79.6327 16.086 15.9832
182 2 83.5161 16.0565 15.8561
183 2 87.5881 15.9344 0.0421239
184 2 91.5872 15.9308 15.8288
185 2 95.4224 15.8688 0.229211
186 2 99.2769 15.8004 16.1327
187 2 103.457 15.6991 0.24643
188 2 107.213 15.903 15.9288
189 2 110.856 15.5497 15.9316
190 2 114.901 15.6239 16.2225
191 2 118.826 15.5179 16.0624
192 2 122.616 15.4558 16.1189
193 2 126.611 15.535 0.211772
194 2 130.586 15.3392 0.182496
195 2 134.308 15.3159 16.1009
196 2 138.284 15.3337 15.8947
197 2 142.335 15.3106 0.137471
198 2 146.127 15.1847 0.13222
199 2 150.005 15.1808 0.133946
200 2 154.107 15.0584 0.31809
201 2 157.824 19.1828 15.8557
202 2 3.37162 19.2173 15.984
203 2 7.41339 18.9693 15.8964
204 2 11.4082 18.9742 15.8879
205 2 15.3067 19.0163 16.019
206 2 19.5142 19.3101 15.8873
207 2 23.3987 19.5613 0.278853
208 2 27.4766 19.2267 0.250137
209 2 31.4052 19.4693 15.9645
210 2 35.624 19.6085 0.26906
211 2 39.5254 19.4922 0.38051
212 2 43.685 19.5039 15.9704
213 2 47.6123 19.449 0.0877871
214 2 51.6959 19.5341 15.8781
215 2 55.5572 19.6761 15.918
216 2 59.3184 19.7149 15.8603
217 2 63.669 19.7186 16.1296
218 2 67.8704 19.77 15.8748
219 2 71.7904 19.8859 15.8979
220 2 75.6603 19.9686 16.142
221 2 79.5877 20.107 15.8953
222 2 83.6845 19.9714 15.9622
223 2 87.7082 19.973 15.9273
224 2 91.7921 19.8288 15.9801
225 2 95.6368 19.8268 0.232807
226 2 99.4121 19.8031 0.0131886
227 2 103.323 19.6542 15.7527
228 2 107.283 19.5708 15.953
229 2 111.059 19.5516 0.284163
230 2 114.843 19.4388 16.0345
231 2 118.802 19.482 0.171726
232 2 122.928 19.545 15.8314
233 2 126.665 19.451 0.0954025
234 2 130.687 19.5074 15.8984
235 2 134.602 19.2845 0.0151643
236 2 138.46 19.2981 0.0396315
237 2 142.091 19.1462 15.8544
238 2 146.191 19.4927 0.132496
239 2 149.924 19.0844 0.00103957
240 2 153.991 19.1214 15.9662
241 2 157.965 22.9307 0.0821684
242 2 3.52475 23.0192 15.8794
243 2 7.44736 23.0438 0.288778
244 2 11.4186 22.8822 0.416198
245 2 15.3927 22.8188 15.9068
246 2 19.3563 23.1851 0.270478
247 2 23.3895 23.1548 16.0253
248 2 27.3365 23.3116 0.255404
249 2 31.4771 23.4254 16.0341
250 2 35.3688 23.5844 0.0842759
251 2 39.4757 23.3521 0.230392
252 2 43.6127 23.3688 15.9002
253 2 47.5243 23.4599 16.0173
254 2 51.6951 23.4988 0.260702
255 2 55.5955 23.712 15.9123
256 2 59.7123 23.6193 16.0112
257 2 63.7287 23.5599 0.113591
258 2 67.8441 23.8995 -0.0254073
259 2 71.6312 23.7035 15.7524
260 2 75.8544 23.9327 0.16236
261 2 79.9081 23.9155 15.7675
262 2 83.8537 23.8895 16.0572
263 2 87.6531 23.9478 15.8669
264 2 91.7015 23.9218 16.2881
265 2 95.4234 23.9422 15.9595
266 2 99.4597 23.8048 16.0005
267 2 103.175 23.695 15.8921
268 2 107.032 23.6851 15.8574
269 2 110.736 23.619 15.9232
270 2 114.978 23.596 15.98
271 2 118.791 23.5446 0.303382
272 2 122.693 23.5048 0.0773382
273 2 126.949 23.645 0.0691443
274 2 130.826 23.3473 0.105194
275 2 134.591 23.4979 0.356654
276 2 138.398 23.2358 0.149508
277 2 142.257 23.3293 15.862
278 2 146.184 23.2624 0.168477
279 2 150.15 23.0344 15.8457
280 2 154.021 23.0145 0.154934
281 2 157.982 27.07 0.337249
282 2 3.52095 27.088 0.211924
283 2 7.38532 27.0039 15.9032
284 2 11.5032 26.7063 0.346131
285 2 15.1013 26.9559 0.260376
286 2 19.2202 27.2868 16.0425
287 2 23.1958 27.0556 0.365334
288 2 27.2833 27.2117 0.252279
289 2 31.196 27.2387 15.9266
290 2 35.421 27.3962 0.232427
291 2 39.3106 27.3009 15.9192
292 2 43.3311 27.33 16.1106
293 2 47.6143 27.3765 16.0985
294 2 51.4256 27.4339 16.1871
295 2 55.6057 27.5885 16.0287
296 2 59.5745 27.6325 0.260129
297 2 63.7257 27.5906 -0.0129999
298 2 67.6511 27.7903 0.0893072
299 2 71.7288 27.7955 0.304867
300 2 75.5417 27.8651 15.8558
301 2 79.6272 27.7698 15.9709
302 2 83.7368 27.8904 15.874
303 2 87.5919 27.8798 16.249
304 2 91.5031 27.806 15.8931
305 2 95.6743 27.914 16.0754
306 2 99.4884 27.7702 16.0036
307 2 103.328 27.9301 15.8754
308 2 107.3 27.6913 -0.0509875
309 2 110.873 27.7699 0.173554
310 2 114.999 27.5051 0.121801
311 2 118.69 27.589 16.0909
312 2 122.828 27.5257 0.0540124
313 2 126.507 27.4914 0.172309
314 2 130.389 27.7213 15.9903
315 2 134.652 27.4027 15.7976
316 2 138.445 27.5416 0.234363
317 2 142.239 27.417 15.958
318 2 146.206 27.4071 0.0365194
319 2 150.197 27.1929 0.199407
320 2 153.994 27.0843 0.216777
321 2 158.017 30.9774 0.165296
322 2 3.63019 31.1462 15.86
323 2 7.50236 30.7916 0.117971
324 2 11.2932 30.8634 15.8762
325 2 15.2449 30.9212 0.109194
326 2 19.3098 31.1387 0.174764
327 2 23.35 31.0349 0.0779194
328 2 27.3994 31.1552 0.102973
329 2 31.4213 30.9959 0.189996
330 2 35.4029 31.0274 15.9861
331 2 39.3848 31.2311 15.9161
332 2 43.4237 31.2041 16.0207
333 2 47.4841 31.3353 15.9357
334 2 51.4711 31.402 -0.0277067
335 2 55.5769 31.4109 0.396714
336 2 59.5604 31.4195 16.0813
337 2 63.459 31.2903 15.8341
338 2 67.6485 31.6944 15.8986
339 2 71.6546 31.6884 0.318657
340 2 75.4902 31.7437 0.207344
341 2 79.6617 31.7369 16.023
342 2 83.6421 31.7044 0.356895
343 2 87.6608 31.6465 0.276789
344 2 91.4329 31.9757 0.210092
345 2 95.505 31.7394 16.032
346 2 99.5032 31.8453 16.0302
347 2 103.35 31.8536 15.9955
348 2 107.423 31.8326 15.9555
349 2 111.143 31.5583 0.0570627
350 2 114.947 31.7105 15.8142
351 2 119.053 31.5172 15.9076
352 2 122.767 31.5288 15.8278
353 2 126.535 31.5263 16.025
354 2 130.761 31.5186 15.821
355 2 134.494 31.4659 16.0646
356 2 138.367 31.518 -0.00165362
357 2 142.439 31.316 0.301147
358 2 146.156 31.2177 16.2609
359 2 150.279 31.1383 0.0352053
360 2 154.186 31.1763 0.25616
361 2 157.961 35.2347 0.119101
362 2 3.60143 34.9456 0.0466615
363 2 7.47375 34.8933 -0.0517567
364 2 11.4418 34.9362 0.121439
365 2 15.3341 34.7993 0.24616
366 2 19.3081 34.8571 0.171836
367 2 23.2249 34.9012 0.0766283
368 2 27.2425 34.9582 0.287489
369 2 31.2591 34.9731 0.15603
370 2 35.399 35.0666 0.00758899
371 2 39.3315 35.2132 15.9283
372 2 43.4873 35.3056 0.01338
373 2 47.2736 35.0929 15.9042
374 2 51.4861 34.9947 0.249087
375 2 55.4651 35.4458 15.8941
376 2 59.5242 35.2594 0.198121
377 2 63.3991 35.4512 16.0394
378 2 67.6263 35.6126 0.137855
379 2 71.4536 35.5325 0.124022
380 2 75.5568 35.635 0.406052
381 2 79.5946 35.4799 15.8855
382 2 83.7974 35.5495 0.359955
383 2 87.5205 35.6499 15.9267
384 2 91.4209 35.9026 0.0471474
385 2 95.5076 35.8875 15.9029
386 2 99.516 35.6891 16.0305
387 2 103.455 35.9079 15.9996
388 2 107.22 35.7797 16.0164
389 2 111.082 35.706 0.0315403
390 2 115.09 35.7672 16.1153
391 2 118.975 35.5246 15.9808
392 2 122.976 35.5947 0.0997183
393 2 126.738 35.3736 0.032818
394 2 130.593 35.3749 0.0741534
395 2 134.595 35.3996 0.113371
396 2 138.422 35.4105 15.8503
397 2 142.206 35.3994 0.257386
398 2 146.348 35.1601 15.9994
399 2 150.21 35.1042 -0.116191
400 2 154.176 35.2707 0.147504
401 2 158.123 39.0237 0.143828
402 2 3.77328 39.0429 0.167525
403 2 7.52235 38.9351 0.0189715
404 2 11.5704 38.9166 15.978
405 2 15.329 38.8495 0.286789
406 2 19.4766 38.6765 0.0544996
407 2 23.2887 38.896 15.9002
408 2 27.2771 38.8846 0.169661
409 2 31.146 38.936 16.0128
410 2 35.3325 38.866 0.144194
411 2 39.4507 39.0939 0.297731
412 2 43.3518 39.1184 15.8902
413 2 47.4772 39.2284 0.225302
414 2 51.5263 38.943 15.8595
415 2 55.3465 39.4151 0.397587
416 2 59.4036 39.0849 15.7203
417 2 63.4737 39.2038 0.135508
418 2 67.2807 39.2865 0.445093
419 2 71.4236 39.4695 15.81
420 2 75.6286 39.3603 0.282156
421 2 79.5199 39.6139 16.2044
422 2 83.4763 39.4447 16.1876
423 2 87.5065 39.7009 0.347741
424 2 91.4012 39.7072 15.8863
425 2 95.5422 39.7035 0.145702
426 2 99.4046 39.7821 0.337219
427 2 103.239 39.8998 16.0867
428 2 107.367 39.5237 0.20544
429 2 111.186 39.6786 15.8732
430 2 114.983 39.6245 0.0512458
431 2 119.011 39.6157 0.302412
432 2 122.967 39.4128 15.9929
433 2 126.962 39.4122 16.053
434 2 130.791 39.4246 15.9659
435 2 134.667 39.2377 0.173109
436 2 138.613 39.3449 0.242787
437 2 142.488 39.4441 0.0440502
438 2 146.265 39.4118 15.7921
439 2 150.266 39.19 15.8993
440 2 154.199 39.0199 15.9751
441 2 158.08 43.0574 0.139793
442 2 3.60896 43.233 -0.0973606
443 2 7.83845 42.922 0.110597
444 2 11.4332 42.8608 0.0665114
445 2 15.3517 42.8189 0.14978
446 2 19.3582 42.8696 0.122083
447 2 23.2384 42.7994 0.077469
448 2 27.1673 42.7847 0.171847
449 2 31.1219 42.6762 0.0563149
450 2 35.1003 42.7533 0.25567
451 2 39.327 42.9448 0.18835
452 2 43.4163 42.987 0.0592395
453 2 47.2478 43.0386 0.131259
454 2 51.4198 42.9743 0.0509842
455 2 55.4098 43.0082 15.963
456 2 59.4996 43.1208 15.9636
457 2 63.2401 43.022 0.2687
458 2 67.3405 43.3053 16.2207
459 2 71.3235 43.167 0.142573
460 2 75.3411 43.3541 16.125
461 2 79.4794 43.4805 16.0024
462 2 83.4997 43.5808 0.320128
463 2 87.4335 43.6451 0.060923
464 2 91.3927 43.6463 0.0562308
465 2 95.5159 43.6591 15.8996
466 2 99.6277 43.744 15.9783
467 2 103.566 43.8897 15.8989
468 2 107.389 43.8918 16.0544
469 2 111.117 43.5795 15.9999
470 2 115.111 43.5307 16.1225
471 2 119.164 43.601 16.0575
472 2 123.111 43.398 16.1215
473 2 126.908 43.47 15.8612
474 2 130.658 43.4306 0.349145
475 2 134.705 43.6001 0.270665
476 2 138.582 43.3233 0.0585899
477 2 142.489 43.3531 15.8283
478 2 146.383 43.3121 15.8439
479 2 150.491 43.3929 15.8388
480 2 154.269 43.1429 0.128918
481 2 158.122 47.1656 0.14126
482 2 3.81167 47.0471 -0.0596444
483 2 7.882 47.0257 -0.0109164
484 2 11.6102 46.9933 15.8363
485 2 15.6351 46.8674 0.148578
486 2 19.4893 46.8532 15.7839
487 2 23.2533 46.8481 0.0497705
488 2 27.3315 46.7765 0.0808585
489 2 31.2804 46.7653 0.223047
490 2 35.3271 46.5938 0.137162
491 2 39.2281 46.7695 15.8267
492 2 43.3047 46.8595 0.177418
493 2 47.219 47.2206 0.0858994
494 2 51.3811 46.9358 0.254448
495 2 55.2742 46.7912 0.33064
496 2 59.4419 47.2077 15.8418
497 2 63.4832 47.1053 16.0088
498 2 67.3772 47.1388 0.104639
499 2 71.3967 47.3337 0.177169
500 2 75.4774 47.211 0.167282
501 2 79.4692 47.2957 15.9948
502 2 83.3931 47.293 0.284859
503 2 87.4388 47.4044 0.0591253
504 2 91.4398 47.6681 0.134659
505 2 95.4327 47.7566 15.8631
506 2 99.2756 47.8694 15.7325
507 2 103.413 47.9132 0.35461
508 2 107.367 47.728 0.245119
509 2 111.412 47.7235 15.9032
510 2 115.289 47.7596 16.021
511 2 119.146 47.6842 0.180612
512 2 123.115 47.7528 15.8422
513 2 127.049 47.6208 0.0196735
514 2 130.855 47.4385 15.8545
515 2 134.744 47.567 0.210268
516 2 138.722 47.2947 0.1678
517 2 142.776 47.4065 0.215439
518 2 146.517 47.2228 0.170458
519 2 150.458 47.355 15.9659
520 2 154.244 47.0947 15.8491
521 2 158.281 51.2091 0.0600639
522 2 3.90228 51.1381 15.8481
523 2 7.71879 50.9798 -0.0931147
524 2 11.7096 50.886 15.7739
525 2 15.6 50.9942 0.0226705
526 2 19.6042 50.8573 -0.137767
527 2 23.4808 50.7345 15.8859
528 2 27.3908 50.649 0.177573
529 2 31.3043 50.8236 0.119937
530 2 35.132 50.5328 0.276736
531 2 39.283 50.591 0.164118
532 2 43.113 50.6923 16.0101
533 2 47.3694 51.0998 15.9424
534 2 51.2502 50.937 16.0405
535 2 55.2267 50.9727 0.174938
536 2 59.2163 51.0077 15.8494
537 2 63.3497 51.0417 15.9237
538 2 67.5529 51.1136 0.193961
539 2 71.4722 51.2341 15.9437
540 2 75.3022 51.038 0.315046
541 2 79.3825 51.2875 0.354822
542 2 83.329 51.0866 0.143093
543 2 87.3289 51.4766 0.179695
544 2 91.5517 51.4209 0.171908
545 2 95.4688 51.5727 16.0025
546 2 99.3421 51.7575 15.9565
547 2 103.387 51.6958 15.946
548 2 107.455 51.5964 0.205345
549 2 111.338 51.6237 0.0327
550 2 115.261 51.7778 0.0251482
551 2 119.309 51.6789 15.9231
552 2 123.156 51.6383 0.339262
553 2 126.948 51.5588 15.8619
554 2 130.824 51.3486 0.128502
555 2 134.98 51.3438 16.0458
556 2 138.893 51.2219 0.211787
557 2 142.522 51.34 15.8663
558 2 146.694 51.3183 0.285847
559 2 150.374 51.2254 0.108521
560 2 154.279 51.2823 15.796
561 2 -0.157305 55.0621 0.0519778
562 2 3.89841 55.1081 0.239484
563 2 7.81613 54.848 0.0824327
564 2 11.5896 54.9296 0.0671378
565 2 15.4848 54.9365 15.6206
566 2 19.4993 54.9126 -0.213638
567 2 23.3221 54.6251 -0.153624
568 2 27.5154 54.5651 15.6299
569 2 31.226 54.6769 0.112648
570 2 35.2975 54.3524 0.176412
571 2 39.24 54.4337 0.250344
572 2 43.0625 54.5747 -0.107073
573 2 47.0992 54.9234 0.283465
574 2 51.3905 54.8012 0.177539
575 2 55.2233 54.7269 16.1374
576 2 59.1584 55.0011 15.914
577 2 63.2347 54.8962 15.9451
578 2 67.2394 55.0492 0.0491975
579 2 71.407 55.0111 0.159388
580 2 75.2125 55.1946 16.0265
581 2 79.338 55.06 16.0446
582 2 83.4475 55.152 0.208626
583 2 87.4552 55.4517 15.9425
584 2 91.3089 55.4615 0.336726
585 2 95.3336 55.4058 0.174553
586 2 99.3324 55.3087 16.0375
587 2 103.362 55.6226 0.221902
588 2 107.197 55.5681 0.252677
589 2 111.086 55.6697 15.8694
590 2 115.266 55.6848 0.157159
591 2 119.328 55.8737 16.1297
592 2 123.246 55.5272 0.187313
593 2 127.184 55.4122 0.0664585
594 2 130.982 55.6339 16.0865
595 2 134.772 55.3642 15.9825
596 2 138.648 55.4296 16.1948
597 2 142.605 55.4727 0.234276
598 2 146.517 55.2232 0.252765
599 2 150.577 55.3789 0.103328
600 2 154.488 55.2924 -0.0210498
601 2 158.314 59.1391 0.116938
602 2 3.95194 59.0388 15.897
603 2 7.89714 58.947 -0.0280517
604 2 11.8945 58.8594 15.7695
605 2 15.7033 58.8319 15.8563
606 2 19.721 58.9635 0.273739
607 2 23.6783 58.7105 0.196486
608 2 27.4284 58.7413 -0.0772907
609 2 31.3788 58.5504 0.190246
610 2 35.3856 58.4381 15.9832
611 2 39.3892 58.5054 0.163825
612 2 43.2074 58.4777 0.0127369
613 2 47.3637 58.5848 0.0678372
614 2 51.1806 58.7337 0.0610139
615 2 55.2137 58.8578 15.8825
616 2 59.2776 58.8731 16.1446
617 2 63.1293 58.8215 15.8473
618 2 67.1748 58.9879 15.7936
619 2 71.2709 58.9158 16.0019
620 2 75.3964 59.0689 16.055
621 2 79.0698 59.1118 0.231151
622 2 83.2331 59.0252 0.17896
623 2 87.3188 59.3282 0.303015
624 2 91.3681 59.3465 0.145554
625 2 95.3092 59.4333 -0.00324053
626 2 99.3758 59.4581 15.6039
627 2 103.341 59.6673 0.11436
628 2 107.008 59.5154 0.0173355
629 2 111.195 59.4555 15.9407
630 2 115.158 59.3359 15.9911
631 2 119.273 59.7003 15.9436
632 2 123.281 59.5821 16.0361
633 2 127.136 59.6172 0.18599
634 2 131.17 59.4819 16.1069
635 2 134.995 59.3835 15.98
636 2 138.786 59.3525 16.1645
637 2 142.677 59.4614 0.112661
638 2 146.443 59.2727 0.0162786
639 2 150.321 59.3219 0.0618533
640 2 154.495 59.2211 0.212788
641 2 0.180472 63.1304 0.0959118
642 2 4.04262 62.9877 -0.00473789
643 2 7.91921 62.9596 15.9715
644 2 11.7855 63.0367 15.7834
645 2 15.7386 62.8783 0.11743
646 2 19.5771 62.7125 0.102564
647 2 23.5729 62.6948 0.153223
648 2 27.5461 62.7438 0.111913
649 2 31.282 62.6124 0.0405192
650 2 35.2789 62.5315 -0.0271912
651 2 39.2127 62.5157 0.0810262
652 2 43.2161 62.3267 15.9695
653 2 47.2449 62.4392 15.9594
654 2 51.2658 62.5789 0.132724
655 2 55.1992 62.5918 0.0624383
656 2 59.1309 62.7127 16.086
657 2 63.1897 62.7408 0.247342
658 2 67.1969 62.8919 16.2337
659 2 71.2753 62.8918 15.8639
660 2 75.1464 62.924 0.228783
661 2 79.3508 62.8513 16.0129
662 2 83.2321 63.0415 0.100873
663 2 87.4209 63.2443 16.1067
664 2 91.092 63.1774 15.9492
665 2 95.1555 63.125 15.9695
666 2 98.9201 63.338 15.9528
667 2 103.41 63.4462 0.185191
668 2 107.242 63.467 15.978
669 2 111.272 63.4093 15.7407
670 2 115.242 63.1859 0.183719
671 2 119.253 63.645 0.151607
672 2 123.014 63.5067 0.352037
673 2 127.015 63.5623 16.0724
674 2 131.129 63.2091 0.0122286
675 2 135.082 63.4805 15.9927
676 2 139.071 63.5023 0.27854
677 2 142.717 63.4574 16.1073
678 2 146.669 63.4382 0.248698
679 2 150.711 63.374 0.104078
680 2 154.436 63.1158 0.0746737
681 2 0.22514 67.0915 0.0835937
682 2 4.03653 67.0817 0.0832398
683 2 8.11058 66.8524 15.8237
684 2 11.7912 66.974 15.8784
685 2 15.8473 66.8037 0.00730094
686 2 19.5274 66.7733 0.15018
687 2 23.6194 66.5493 0.171759
688 2 27.6191 66.669 0.0240878
689 2 31.6385 66.6385 0.302054
690 2 35.502 66.6088 15.8915
691 2 39.4232 66.3965 15.9674
692 2 43.3343 66.3078 15.9475
693 2 47.1379 66.498 15.8302
694 2 51.2104 66.3711 -0.0112719
695 2 55.0805 66.5017 15.7775
696 2 59.2734 66.6368 15.5712
697 2 63.2638 66.5129 0.203426
698 2 67.1726 66.6486 15.8357
699 2 70.9499 66.6485 0.0788463
700 2 75.137 66.7133 0.116184
701 2 79.1987 66.9412 15.9354
702 2 83.1949 67.0478 15.9125
703 2 87.2187 67.0225 16.0027
704 2 91.1775 67.1349 0.0527998
705 2 95.1803 67.2063 15.823
706 2 99.0404 67.3238 15.937
707 2 103.185 67.4344 0.152285
708 2 107.166 67.3848 0.227775
709 2 111.334 67.1897 15.9451
710 2 115.084 67.49 16.151
711 2 119.142 67.2593 0.283281
712 2 123.127 67.5523 15.9583
713 2 127.278 67.4126 0.221234
714 2 131.098 67.6638 0.112825
715 2 135.03 67.6634 16.1069
716 2 138.906 67.4409 0.224477
717 2 142.876 67.3976 16.043
718 2 146.713 67.318 15.7601
719 2 150.529 67.3285 -0.0568896
720 2 154.428 67.1999 0.112501
721 2 158.384 71.1961 15.9606
722 2 4.12634 70.9763 0.111288
723 2 8.06628 70.8737 0.176794
724 2 11.9162 70.7276 0.0516057
725 2 15.8543 70.8535 15.9009
726 2 19.8116 70.7251 0.0591563
727 2 23.7125 70.5907 0.217622
728 2 27.592 70.5593 0.0805659
729 2 31.5471 70.7918 0.137296
730 2 35.3303 70.5904 0.290364
731 2 39.5005 70.4251 -0.0133185
732 2 43.3577 70.4422 0.289949
733 2 47.0018 70.4277 15.7256
734 2 51.2335 70.4944 0.00764094
735 2 55.4053 70.459 15.853
736 2 59.2036 70.6116 15.7362
737 2 63.1546 70.4168 16.0565
738 2 67.1296 70.5967 16.0189
739 2 71.0301 70.5046 0.139962
740 2 75.1472 70.7324 15.7462
741 2 79.1429 70.7941 0.193801
742 2 83.0004 70.9945 0.177857
743 2 86.9855 71.0839 15.9503
744 2 91.1702 70.9832 16.0578
745 2 94.9692 71.3169 16.0273
746 2 99.114 71.1864 15.9236
747 2 103.281 71.22 15.9176
748 2 107.138 71.1938 0.274174
749 2 111.214 71.0739 0.069103
750 2 115.196 71.547 0.197138
751 2 119.105 71.2654 0.250795
752 2 123.135 71.4725 16.0206
753 2 127.262 71.3921 0.101612
754 2 131.036 71.3721 0.385331
755 2 135.094 71.5358 0.102426
756 2 139.028 71.3146 15.9087
757 2 142.746 71.2911 15.8177
758 2 146.823 71.3942 15.9397
759 2 150.764 71.3261 0.107897
760 2 154.747 71.2859 0.280134
761 2 0.324053 75.2116 16.0991
762 2 4.19502 75.0702 15.8475
763 2 8.0794 75.0117 0.207881
764 2 11.8615 75.0265 0.22397
765 2 15.819 74.8903 15.87
766 2 19.8584 74.7934 0.0279367
767 2 23.8588 74.5882 0.0740415
768 2 27.6604 74.7477 0.195598
769 2 31.5984 74.5944 0.0942444
770 2 35.493 74.5068 0.0783788
771 2 39.4655 74.3856 0.0430918
772 2 43.4378 74.5053 0.239757
773 2 47.3585 74.2387 0.148626
774 2 51.1676 74.3008 15.8411
775 2 55.0437 74.4769 16.0174
776 2 58.8852 74.4321 15.7107
777 2 62.983 74.5063 15.7765
778 2 67.223 74.5221 15.9865
779 2 71.0339 74.4375 0.15555
780 2 75.0357 74.3741 0.228137
781 2 79.0417 74.4676 0.354822
782 2 83.1169 75.0363 15.9524
783 2 87.1407 74.8028 15.7985
784 2 90.7178 74.9839 0.0180229
785 2 94.9574 75.2154 15.9947
786 2 99.0092 74.9893 15.8504
787 2 102.837 74.9686 15.773
788 2 107.163 75.2733 0.0584711
789 2 110.933 75.3365 -0.0100164
790 2 115.032 75.2684 0.365798
791 2 119.118 75.1593 0.206751
792 2 122.93 75.1765 0.139559
793 2 126.974 75.3737 15.9421
794 2 131.165 75.4598 15.9558
795 2 134.999 75.3913 0.294381
796 2 138.838 75.219 15.9347
797 2 142.929 75.3883 15.9973
798 2 147.038 75.5815 15.9548
799 2 150.678 75.3031 15.9695
800 2 154.637 75.2567 15.9074
801 2 0.464035 78.9963 0.0602965
802 2 4.38222 79.2213 0.229404
803 2 8.11637 79.0622 0.158078
804 2 12.1066 79.0567 15.8118
805 2 16.0725 78.9911 15.8887
806 2 19.9254 78.9839 0.231546
807 2 23.9924 78.7641 0.247397
808 2 27.8832 78.7061 0.138275
809 2 31.8999 78.5346 15.8335
810 2 35.7252 78.4748 0.144714
811 2 39.5051 78.5616 0.0648444
812 2 43.5029 78.4081 0.0812701
813 2 47.2413 78.5213 -0.00213291
814 2 51.1119 78.4865 0.050057
815 2 55.1578 78.4156 0.0764539
816 2 59.1243 78.5052 0.155372
817 2 63.0156 78.3813 0.0782133
818 2 67.0688 78.3444 0.344602
819 2 71.0381 78.6413 15.9057
820 2 74.929 78.5076 0.282544
821 2 78.8655 78.3415 0.261116
822 2 83.0045 78.8768 15.9556
823 2 87.1086 78.751 15.8422
824 2 90.7931 79.0128 15.8285
825 2 94.8717 79.0062 0.333208
826 2 99.0285 78.95 -0.0381493
827 2 102.91 78.7464 15.8272
828 2 106.974 79.2784 0.0447566
829 2 111.098 79.2476 15.9845
830 2 114.999 79.3321 0.279162
831 2 118.999 79.1584 0.0458545
832 2 122.952 79.1746 16.0228
833 2 126.981 79.2781 0.0480559
834 2 131.042 79.274 15.9165
835 2 134.786 79.2854 0.252358
836 2 138.998 79.244 0.129433
837 2 142.904 79.4501 15.7362
838 2 147.004 79.4176 15.7603
839 2 151.05 79.4317 15.8128
840 2 154.818 79.3291 0.221918
841 2 0.757412 83.229 0.179865
842 2 4.32982 83.401 16.1768
843 2 8.28745 83.107 0.258329
844 2 12.2811 82.9561 15.9882
845 2 16.2365 82.9009 15.9102
846 2 20.0748 82.74 0.0012822
847 2 23.9289 82.6673 0.103131
848 2 27.9171 82.6438 0.247358
849 2 31.7183 82.5534 15.8806
850 2 35.6345 82.6284 0.211674
851 2 39.4803 82.3391 0.0856922
852 2 43.5017 82.4628 0.0291475
853 2 47.2322 82.4128 -0.0679421
854 2 51.2872 82.438 0.0550536
855 2 55.1833 82.4815 -0.0510582
856 2 58.9476 82.3261 16.0333
857 2 63.0102 82.2895 16.0862
858 2 67.0304 82.316 16.0381
859 2 70.8407 82.3269 0.308344
860 2 74.7264 82.3135 0.304165
861 2 78.9668 82.5517 0.174259
862 2 82.9963 82.7286 15.9995
863 2 86.8697 82.7489 15.9471
864 2 90.8807 82.8811 15.9136
865 2 94.8843 82.8263 15.7597
866 2 98.8799 82.9198 15.8782
867 2 102.792 82.7677 16.0315
868 2 106.858 82.9731 0.204108
869 2 110.89 83.0942 15.8796
870 2 114.942 83.1203 0.133163
871 2 118.834 83.0808 0.072036
872 2 122.866 83.1818 16.0723
873 2 126.944 83.1915 15.8491
874 2 131.042 83.0863 16.0326
875 2 134.838 82.9913 0.114696
876 2 139.062 83.0217 0.192108
877 2 142.972 83.3526 0.266926
878 2 146.981 83.4572 15.9579
879 2 150.892 83.2343 15.9653
880 2 154.939 83.3014 16.0119
881 2 0.405581 87.3492 -0.0166795
882 2 4.38387 87.214 0.286182
883 2 8.31634 87.1255 0.169721
884 2 12.3864 86.9459 15.8684
885 2 16.1515 86.9118 15.8513
886 2 19.925 86.8029 0.236396
887 2 23.8918 86.6298 0.219425
888 2 27.8525 86.4881 0.207091
889 2 31.8023 86.517 16.0492
890 2 35.6441 86.5707 0.0174093
891 2 39.3752 86.5281 0.278795
892 2 43.5298 86.5121 0.0209982
893 2 47.2839 86.4995 0.0885695
894 2 51.3048 86.3711 -0.0802599
895 2 55.0958 86.4849 0.102169
896 2 59.0319 86.2701 0.131468
897 2 63.0768 86.2675 15.8943
898 2 66.9621 86.2719 15.986
899 2 70.8838 86.1955 0.265043
900 2 74.7178 86.2701 15.957
901 2 78.7643 86.4466 0.100991
902 2 82.7731 86.6184 16.0126
903 2 86.7961 86.5728 0.184692
904 2 90.8516 86.5579 15.9954
905 2 94.8971 86.5858 15.938
906 2 98.7954 86.6537 15.971
907 2 102.849 86.6799 16.0219
908 2 106.822 86.8014 15.8281
909 2 110.872 86.7952 0.0948462
910 2 114.932 86.8137 16.0953
911 2 118.839 87.2359 15.8207
912 2 122.881 87.0291 16.0114
913 2 126.634 86.8687 15.7262
914 2 130.961 87.1185 15.9153
915 2 134.726 87.0035 0.207588
916 2 138.961 87.0954 0.29169
917 2 142.852 87.0716 16.053
918 2 147.133 87.421 15.828
919 2 150.977 87.266 16.1298
920 2 154.911 87.1728 0.242296
921 2 0.567584 91.1866 16.2314
922 2 4.42055 91.0853 16.225
923 2 8.31531 91.0988 0.0911713
924 2 12.2755 91.1731 15.9309
925 2 16.198 90.8366 16.187
926 2 19.9176 90.7205 0.278803
927 2 23.9294 90.8814 15.8121
928 2 27.6779 90.6577 0.187158
929 2 31.7943 90.5694 16.0594
930 2 35.6068 90.5697 0.0971295
931 2 39.5114 90.5179 0.201835
932 2 43.6308 90.5863 0.345734
933 2 47.514 90.466 0.265739
934 2 51.4135 90.5449 15.9375
935 2 55.3169 90.3606 0.170293
936 2 59.2463 90.3333 15.9511
937 2 63.2491 90.3576 0.183193
938 2 67.048 90.3946 0.108254
939 2 71.0422 90.2758 -0.0722724
940 2 74.986 90.2198 15.8022
941 2 78.7178 90.4223 15.8918
942 2 82.596 90.39 16.0001
943 2 86.7252 90.5373 15.9083
944 2 90.7259 90.4962 0.181052
945 2 94.8645 90.6507 15.8503
946 2 98.7662 90.7208 15.8807
947 2 102.798 90.6418 15.8188
948 2 106.689 90.8559 16.0047
949 2 110.672 90.7524 16.072
950 2 114.953 90.8988 15.9788
951 2 118.722 91.0515 0.135992
952 2 122.624 91.1581 0.117515
953 2 126.49 91.0307 0.190087
954 2 130.737 90.9346 15.9685
955 2 134.874 91.0881 0.195236
956 2 138.767 91.1953 15.9664
957 2 142.804 90.9928 15.7927
958 2 146.948 91.2052 0.180266
959 2 150.899 91.1788 16.0117
960 2 154.879 91.2886 15.8647
961 2 0.427744 94.9353 15.842
962 2 4.35038 95.2916 15.924
963 2 8.4367 95.0232 0.298016
964 2 12.3978 95.0236 15.7163
965 2 16.2776 94.8383 15.904
966 2 20.1843 94.7662 15.988
967 2 24.0441 94.8337 15.9176
968 2 27.8994 94.6792 0.0531826
969 2 31.8849 94.6562 15.8274
970 2 35.6733 94.7205 0.26824
971 2 39.6756 94.5781 0.275028
972 2 43.7327 94.6564 0.0752656
973 2 47.2373 94.4857 15.9735
974 2 51.3308 94.5969 16.0022
975 2 55.2867 94.4545 16.0025
976 2 59.0874 94.4054 0.373603
977 2 63.2063 94.2893 16.026
978 2 67.1219 94.3184 15.8889
979 2 70.8491 94.3028 0.258354
980 2 74.8668 94.26 15.9865