ITEM: TIMESTEP
18900
ITEM: NUMBER OF ATOMS
32000
ITEM: BOX BOUNDS xy xz yz pp pp pp
0.0000000000000000e+00 1.5831999999999999e+02 0.0000000000000000e+00
0.0000000000000000e+00 1.5831999999999999e+02 0.0000000000000000e+00
1.6330350753517298e-01 1.5934408492464676e+01 0.0000000000000000e+00
ITEM: ATOMS id type x y z
1 2 158.15 157.555 15.8996
2 2 3.77455 157.704 0.214873
3 2 7.82622 157.614 15.9269
4 2 11.8021 157.754 15.9579
5 2 15.7288 157.938 15.9052
6 2 19.7493 158.127 15.8433
7 2 23.8092 157.915 0.215723
8 2 27.8334 158.052 15.9576
9 2 31.6955 158.01 15.7935
10 2 35.6035 158.213 15.9759
11 2 39.8312 158.231 0.222133
12 2 43.7398 -0.0624796 0.199046
13 2 47.833 158.263 16.0353
14 2 51.6837 0.346239 0.309246
15 2 55.6433 158.49 16.0307
16 2 59.8223 0.221406 0.223956
17 2 63.9264 0.198572 16.0201
18 2 67.848 0.127021 -0.000234427
19 2 71.8993 158.597 0.234325
20 2 75.7116 158.578 0.29165
21 2 79.3846 -0.0666054 16.0262
22 2 83.4115 158.233 16.0901
23 2 87.4467 158.342 16.0892
24 2 91.3032 158.297 0.190294
25 2 95.1935 158.205 15.8937
26 2 99.1537 158.101 15.9818
27 2 102.982 158.257 -0.00242965
28 2 106.831 158.112 15.774
29 2 110.844 157.925 -0.173387
30 2 114.678 157.909 0.110237
31 2 118.692 157.81 15.9593
32 2 122.62 157.706 15.927
33 2 126.33 157.674 15.8846
34 2 130.34 157.578 16.0579
35 2 134.337 157.617 16.0199
36 2 138.28 157.53 15.9173
37 2 142.036 157.289 0.239483
38 2 146.109 157.615 0.190515
39 2 150.128 157.599 0.0479193
40 2 154.001 157.594 0.261535
41 2 157.926 3.16467 0.0983055
42 2 3.68547 3.48903 15.8478
43 2 7.6059 3.30707 0.354127
44 2 11.7735 3.3649 15.7282
45 2 15.7917 3.4378 0.116409
46 2 19.8123 3.63959 0.165337
47 2 23.7319 3.50738 16.1183
48 2 27.8139 3.75158 15.9685
49 2 31.6348 3.57298 0.0707921
50 2 35.5398 3.62326 0.0877687
51 2 39.6491 4.02959 15.718
52 2 43.627 4.04034 0.169252
53 2 47.733 3.8374 15.8727
54 2 51.8083 4.21131 0.113585
55 2 55.8397 4.13727 0.0559369
56 2 59.6286 4.15218 15.6716
57 2 63.9432 4.00527 15.9681
58 2 67.6177 4.19152 0.16356
59 2 71.7316 4.31667 0.177275
60 2 75.7397 4.21326 0.355727
61 2 79.5886 4.00656 0.291324
62 2 83.4927 3.9636 16.0835
63 2 87.2735 3.78886 15.8912
64 2 91.2304 4.00627 0.271083
65 2 95.0964 3.90975 15.7832
66 2 99.1769 3.91158 15.7596
67 2 103.184 3.84352 15.8779
68 2 107.005 3.86672 15.7078
69 2 110.986 3.55452 15.8601
70 2 114.924 3.52603 15.8485
71 2 118.738 3.33123 15.9443
72 2 122.563 3.33167 15.9225
73 2 126.412 3.38874 0.290098
74 2 130.407 3.24525 0.0348956
75 2 134.137 3.33723 15.9281
76 2 138.146 3.42992 15.9686
77 2 142.18 3.40454 15.7845
78 2 145.982 3.27174 0.162568
79 2 149.858 3.04697 15.9793
80 2 153.989 3.30766 0.147198
81 2 158.009 7.16783 0.309064
82 2 3.62212 7.14363 0.254268
83 2 7.79273 7.19447 15.9428
84 2 11.6127 7.22565 -0.000433716
85 2 15.7919 7.24814 0.199107
86 2 19.642 7.49921 0.18092
87 2 23.5955 7.47556 16.1248
88 2 27.6674 7.73786 0.189845
89 2 31.7617 7.79457 15.8253
90 2 35.6409 7.59772 15.934
91 2 39.783 7.73415 0.19619
92 2 43.5794 7.80343 15.8755
93 2 47.6726 7.73736 15.7571
94 2 51.5942 7.72255 15.9269
95 2 55.95 7.87666 0.21007
96 2 59.7448 7.96983 0.217889
97 2 63.8737 7.93943 -0.00961698
98 2 67.8272 7.97098 15.8383
99 2 71.778 8.1093 15.8186
100 2 75.8067 8.11873 0.268704
101 2 79.6592 8.0368 0.197152
102 2 83.4756 7.93193 0.313383
103 2 87.3711 7.93253 0.299678
104 2 91.1102 8.078 15.9857
105 2 95.1625 7.67443 16.0238
106 2 99.1607 7.67694 0.210772
107 2 103.203 7.68373 0.21204
108 2 107.1 7.8274 15.7658
109 2 110.984 7.74741 0.356676
110 2 114.854 7.52941 15.8414
111 2 118.674 7.53308 0.100092
112 2 122.577 7.49736 0.168692
113 2 126.594 7.45551 15.8699
114 2 130.351 7.36656 16.0043
115 2 134.414 7.16401 0.1562
116 2 138.263 7.1903 0.0663951
117 2 142.213 7.27556 0.238611
118 2 146.082 7.29493 0.169633
119 2 149.976 7.07418 15.7509
120 2 154.105 7.16861 16.1494
121 2 158.025 11.3987 15.9494
122 2 3.64938 10.9671 0.207942
123 2 7.71059 11.2564 15.8637
124 2 11.5153 11.2621 15.9174
125 2 15.4948 11.2726 0.244752
126 2 19.5549 11.3847 0.364051
127 2 23.5816 11.3733 16.1044
128 2 27.7099 11.5874 15.8254
129 2 31.4957 11.497 15.7481
130 2 35.5723 11.5952 0.287456
131 2 39.4083 11.521 15.7543
132 2 43.6616 11.824 -0.0169313
133 2 47.7528 11.6141 0.0222665
134 2 51.7809 11.7077 15.878
135 2 55.5932 11.4951 15.7625
136 2 59.6359 11.8008 0.00712771
137 2 63.6285 11.7966 15.6668
138 2 67.8041 12.005 16.0012
139 2 71.7858 11.8905 0.159461
140 2 75.7055 12.0856 15.8942
141 2 79.5531 12.0204 0.360033
142 2 83.3321 11.9164 0.116464
143 2 87.4646 11.9325 15.75
144 2 91.2268 11.9175 16.0282
145 2 95.2595 11.8172 0.142739
146 2 99.247 11.7226 0.123698
147 2 102.972 11.6072 15.9984
148 2 107.121 11.7377 15.8285
149 2 111.171 11.4934 15.9975
150 2 114.967 11.4997 15.971
151 2 118.818 11.4545 0.233575
152 2 122.641 11.4314 0.188705
153 2 126.524 11.4081 15.8854
154 2 130.677 11.4088 0.116823
155 2 134.417 11.3784 15.8008
156 2 138.48 11.3121 16.0653
157 2 142.252 11.2525 0.140074
158 2 146.204 11.2127 0.0701113
159 2 150.099 10.9542 15.9072
160 2 154.081 10.9704 0.0627468
161 2 157.902 15.1676 0.159921
162 2 3.64326 15.0716 16.0615
163 2 7.42372 15.1048 16.0127
164 2 11.7636 15.043 0.317153
165 2 15.5529 15.2235 0.176387
166 2 19.3586 15.2171 16.1023
167 2 23.5024 15.4664 0.292795
168 2 27.5601 15.4733 15.862
169 2 31.5815 15.5304 0.291096
170 2 35.4965 15.5866 0.0502726
171 2 39.5638 15.5834 16.1931
172 2 43.5394 15.5809 0.0518641
173 2 47.6521 15.5422 0.0757299
174 2 51.4689 15.9497 0.177816
175 2 55.686 15.7208 16.0013
176 2 59.7627 15.8453 15.9635
177 2 63.6797 15.7415 16.0149
178 2 67.7167 15.8883 16.07
179 2 71.8068 16.0632 15.9788
180 2 75.803 15.9973 15.9618
181 2 79.7677 15.9243 16.0101
182 2 83.5622 15.9702 16.0477
183 2 87.6929 15.9221 0.326271
184 2 91.5771 15.8129 16.1213
185 2 95.5404 15.7735 0.163487
186 2 99.4379 15.6537 15.8717
187 2 103.088 15.7077 0.204694
188 2 106.901 15.6255 16.0926
189 2 111.137 15.6402 16.0746
190 2 114.825 15.5718 15.8379
191 2 118.707 15.5134 15.9473
192 2 122.643 15.3901 15.839
193 2 126.55 15.3525 0.262938
194 2 130.335 15.4647 0.209285
195 2 134.417 15.4031 16.0086
196 2 138.461 15.3534 15.9382
197 2 142.166 15.2387 0.182921
198 2 146.119 15.1565 0.29606
199 2 150.057 15.1079 0.041397
200 2 153.781 14.9781 0.0963639
201 2 157.968 18.9316 16.0543
202 2 3.55583 18.8938 15.9275
203 2 7.60276 18.9276 15.9064
204 2 11.5798 19.1424 15.9319
205 2 15.731 19.2851 15.9624
206 2 19.5 19.2953 16.0305
207 2 23.3755 19.3277 0.336725
208 2 27.5095 19.5637 0.230298
209 2 31.6271 19.4806 15.9237
210 2 35.4472 19.5333 0.0703009
211 2 39.551 19.5005 0.185003
212 2 43.4744 19.4566 15.851
213 2 47.4464 19.5813 0.131548
214 2 51.519 19.7728 15.8669
215 2 55.6954 19.6568 15.9641
216 2 59.6794 19.5994 16.1024
217 2 63.7746 19.7601 15.8595
218 2 67.7215 19.7291 16.0249
219 2 71.672 19.895 16.0278
220 2 75.843 19.8694 15.8839
221 2 79.7834 19.9136 15.8553
222 2 83.6919 19.8783 15.8593
223 2 87.6067 19.8215 16.0503
224 2 91.5246 19.8412 15.8508
225 2 95.4218 19.7398 -0.0248767
226 2 99.4523 19.7653 0.278244
227 2 103.146 19.9104 16.0527
228 2 107.081 19.7139 15.9591
229 2 110.975 19.4925 0.241064
230 2 115.068 19.5819 15.953
231 2 118.784 19.6071 0.291294
232 2 122.621 19.4446 15.9488
233 2 126.679 19.648 0.351877
234 2 130.467 19.4004 15.8447
235 2 134.342 19.2857 0.304451
236 2 138.374 19.2678 0.291952
237 2 142.482 19.3763 15.8814
238 2 146.115 18.9971 0.167969
239 2 150.166 19.3001 0.112734
240 2 153.96 18.91 15.9453
241 2 157.834 23.1966 0.222876
242 2 3.437 22.8507 16.0673
243 2 7.25651 22.9131 0.128827
244 2 11.3026 23.0232 0.145643
245 2 15.3592 23.1815 15.9908
246 2 19.3899 23.203 0.162159
247 2 23.3346 23.4876 15.846
248 2 27.4956 23.3372 0.329863
249 2 31.3624 23.3417 15.996
250 2 35.319 23.4454 -0.00105025
251 2 39.5087 23.4065 0.152957
252 2 43.4876 23.3956 16.0943
253 2 47.6159 23.3746 15.8869
254 2 51.3464 23.5854 0.103063
255 2 55.4322 23.5155 16.188
256 2 59.4428 23.5594 15.7716
257 2 63.4064 23.723 -0.00492873
258 2 67.4674 23.5866 0.301712
259 2 71.82 23.8875 16.0456
260 2 75.664 23.8255 0.274986
261 2 79.4726 24.0559 15.8691
262 2 83.6991 23.9478 15.9757
263 2 87.8133 24.0155 16.1561
264 2 91.6066 23.9168 16.0146
265 2 95.6424 23.7883 16.1703
266 2 99.336 23.7255 15.8448
267 2 103.353 23.8135 15.8672
268 2 107.242 23.8536 16.0074
269 2 111.046 23.6686 16.0488
270 2 114.773 23.6528 15.768
271 2 118.897 23.5387 0.236199
272 2 122.89 23.4694 0.269312
273 2 126.659 23.4015 0.366975
274 2 130.572 23.5721 0.27083
275 2 134.508 23.2315 0.0752304
276 2 138.386 23.263 0.129666
277 2 142.308 23.4151 16.1085
278 2 146.215 23.211 0.24649
279 2 150.097 23.2753 15.9827
280 2 154.106 23.0851 0.246247
281 2 158.005 27.1033 0.144304
282 2 3.50305 26.9159 0.0873134
283 2 7.61657 26.9294 15.9422
284 2 11.2452 27.1132 0.105224
285 2 15.3786 26.8829 0.266508
286 2 19.2468 27.0592 16.0746
287 2 23.4094 27.2659 0.188785
288 2 27.3931 27.0964 0.252158
289 2 31.4277 27.3281 16.0961
290 2 35.3964 27.2403 0.139133
291 2 39.389 27.1031 15.8842
292 2 43.5497 27.3203 15.941
293 2 47.4289 27.3355 15.8169
294 2 51.4768 27.4317 15.9605
295 2 55.3319 27.5347 16.159
296 2 59.5395 27.457 0.0660255
297 2 63.3394 27.5515 0.158399
298 2 67.5526 27.4019 0.154323
299 2 71.5103 27.7298 0.0824456
300 2 75.6039 27.7285 16.1716
301 2 79.6458 27.9026 15.8047
302 2 83.7568 27.9767 16.1214
303 2 87.7645 28.0725 15.7861
304 2 91.9216 27.9704 16.0417
305 2 95.5875 27.9248 16.0275
306 2 99.5029 27.9154 16.2239
307 2 103.266 27.7238 15.9835
308 2 107.189 27.8689 0.506849
309 2 111.172 27.5693 0.0355821
310 2 114.9 27.766 0.0877002
311 2 119.206 27.5862 15.8791
312 2 122.958 27.4888 0.201419
313 2 126.946 27.4078 0.158557
314 2 130.647 27.2849 15.9799
315 2 134.579 27.5438 15.8539
316 2 138.406 27.2401 0.0970513
317 2 142.229 27.3354 16.1615
318 2 146.33 27.1364 0.235938
319 2 150.127 27.1894 -0.119484
320 2 153.978 27.1811 0.184352
321 2 158.025 31.1508 0.33387
322 2 3.59438 30.9063 15.9787
323 2 7.30907 31.184 0.196798
324 2 11.361 30.9745 15.8907
325 2 15.2523 30.7928 0.193623
326 2 19.3408 30.8172 0.193047
327 2 23.3457 31.0855 0.218721
328 2 27.1963 31.0138 0.148382
329 2 31.2563 31.1694 0.192435
330 2 35.4023 31.2071 15.8064
331 2 39.4306 31.1906 15.8652
332 2 43.4819 31.3505 15.9436
333 2 47.4752 31.2506 15.9263
334 2 51.536 31.2866 0.3162
335 2 55.4942 31.3991 0.17971
336 2 59.4994 31.4332 16.0693
337 2 63.5616 31.5994 16.0458
338 2 67.4912 31.5548 16.1173
339 2 71.4257 31.6837 0.118488
340 2 75.661 31.78 0.144325
341 2 79.6621 31.7408 16.0749
342 2 83.7056 31.891 0.301124
343 2 87.5508 32.0068 0.0919307
344 2 91.679 31.8695 0.190492
345 2 95.588 31.975 15.8039
346 2 99.4563 31.8121 16.0277
347 2 103.549 31.7499 16.0038
348 2 107.283 31.7223 15.9815
349 2 111.069 31.7102 0.261673
350 2 115.106 31.7475 15.874
351 2 118.907 31.6525 15.9384
352 2 122.924 31.5741 15.8681
353 2 126.795 31.4826 15.8152
354 2 130.379 31.3457 15.9127
355 2 134.553 31.5167 15.7328
356 2 138.495 31.3872 0.109553
357 2 142.329 31.2751 0.366501
358 2 146.363 31.3737 15.7102
359 2 150.084 31.334 0.212609
360 2 154.034 31.0901 0.0680597
361 2 158.159 34.9908 0.125502
362 2 3.64875 35.1856 0.195191
363 2 7.64296 35.1197 0.276397
364 2 11.5394 34.862 0.0538546
365 2 15.3841 34.8681 0.00548357
366 2 19.2584 35.0347 0.120183
367 2 23.335 35.0012 0.00853026
368 2 27.2848 34.9551 0.114606
369 2 31.4334 35.0837 0.264438
370 2 35.4221 35.0935 0.29578
371 2 39.5003 35.1283 16.083
372 2 43.466 35.1697 0.268925
373 2 47.5618 35.2218 15.9422
374 2 51.3583 35.4583 0.312126
375 2 55.5202 35.2472 15.8921
376 2 59.449 35.3142 0.276154
377 2 63.6385 35.4724 15.9193
378 2 67.403 35.5842 0.178281
379 2 71.6078 35.7139 0.165848
380 2 75.5791 35.5174 -0.0416305
381 2 79.5575 35.8657 16.1301
382 2 83.4044 35.7329 0.0981485
383 2 87.6137 35.7911 15.9469
384 2 91.8383 35.8024 0.336572
385 2 95.7142 35.7243 16.0715
386 2 99.6014 35.8644 16.0228
387 2 103.457 35.804 16.0059
388 2 107.323 35.746 16.191
389 2 111.192 35.603 0.267827
390 2 115.089 35.5149 15.8688
391 2 118.786 35.6376 15.9921
392 2 122.825 35.4832 0.0901877
393 2 126.742 35.5965 0.26429
394 2 130.64 35.5657 0.210156
395 2 134.67 35.4182 0.0790109
396 2 138.67 35.2756 15.9517
397 2 142.555 35.3442 0.309587
398 2 146.309 35.4336 15.8637
399 2 150.26 35.3517 0.216978
400 2 154.202 35.0668 0.179887
401 2 158.169 39.1433 -0.0874485
402 2 3.80744 39.0362 -0.167007
403 2 7.71452 39.0385 0.0725413
404 2 11.4839 38.836 15.7236
405 2 15.4659 39.0399 -0.161275
406 2 19.3445 38.9622 0.216201
407 2 23.3106 38.714 16.0259
408 2 27.2235 38.7522 0.257531
409 2 31.3564 38.9697 15.9635
410 2 35.3511 39.0596 0.0791761
411 2 39.3456 39.0311 0.100557
412 2 43.4301 39.172 15.7751
413 2 47.3384 39.1138 0.258447
414 2 51.3629 39.1513 16.0617
415 2 55.4814 38.9949 0.143569
416 2 59.4605 39.346 16.0174
417 2 63.5005 39.446 0.223465
418 2 67.7114 39.5543 0.0759545
419 2 71.528 39.4563 15.9685
420 2 75.3743 39.4713 0.231225
421 2 79.5908 39.4744 15.9769
422 2 83.5226 39.6566 15.949
423 2 87.3823 39.6112 0.046116
424 2 91.4405 39.8564 16.0295
425 2 95.4411 39.8665 0.0601302
426 2 99.3839 39.7793 0.256378
427 2 103.619 39.8691 16.1417
428 2 107.28 39.7829 0.245642
429 2 111.112 39.5593 16.0205
430 2 115.103 39.6349 0.45215
431 2 119.051 39.6503 0.331281
432 2 122.957 39.6456 15.9781
433 2 126.782 39.4428 15.8477
434 2 130.864 39.4346 15.9237
435 2 134.75 39.4775 0.0833031
436 2 138.525 39.2736 0.0492006
437 2 142.457 39.6105 0.258785
438 2 146.535 39.1574 16.0058
439 2 150.361 39.192 15.8497
440 2 154.149 39.2791 15.6801
441 2 158.211 43.0047 0.215956
442 2 3.78907 43.0177 -0.145705
443 2 7.60743 42.9158 -0.0286911
444 2 11.6139 42.8836 0.159235
445 2 15.4622 43.0349 -0.0312381
446 2 19.3982 42.689 0.128134
447 2 23.257 42.6362 0.189417
448 2 27.3078 42.7073 0.0857251
449 2 31.3556 42.8092 0.296525
450 2 35.4516 42.905 0.00963617
451 2 39.3658 42.909 0.171055
452 2 43.4322 42.9989 0.166523
453 2 47.4919 43.0246 0.0756369
454 2 51.4035 43.0111 0.20951
455 2 55.4736 42.97 16.0553
456 2 59.3303 43.3046 15.8491
457 2 63.573 43.2623 0.130069
458 2 67.529 43.2239 15.851
459 2 71.6264 43.5041 0.29395
460 2 75.5844 43.443 16.0033
461 2 79.4479 43.444 16.0901
462 2 83.3176 43.5151 0.272644
463 2 87.3925 43.5542 0.131817
464 2 91.3628 43.719 0.0742541
465 2 95.3952 43.7748 16.0558
466 2 99.3135 43.8211 16.1413
467 2 103.421 43.8113 16.1039
468 2 107.396 43.6308 16.1192
469 2 111.37 43.7413 15.9624
470 2 115.195 43.837 15.9719
471 2 119.073 43.6775 16.0159
472 2 123.099 43.7949 15.9624
473 2 126.813 43.4817 16.1986
474 2 130.722 43.3363 0.119127
475 2 134.751 43.4028 0.376563
476 2 138.553 43.3762 0.303279
477 2 142.574 43.3551 15.911
478 2 146.467 43.4046 15.97
479 2 150.289 43.0838 16.0118
480 2 154.19 43.2288 0.219469
481 2 158.266 47.0757 0.178068
482 2 3.70914 47.0455 -0.00259662
483 2 7.72504 47.06 0.187712
484 2 11.6831 46.8503 15.8384
485 2 15.4998 46.8852 -0.0234868
486 2 19.5553 46.9136 15.87
487 2 23.354 46.6276 0.30675
488 2 27.1629 46.7213 0.0526058
489 2 31.417 46.6295 0.146037
490 2 35.1873 46.8824 0.157984
491 2 39.4322 46.7271 16.0388
492 2 43.3602 46.764 0.0667315
493 2 47.4765 46.7195 0.0261434
494 2 51.2773 46.7658 0.160039
495 2 55.5058 46.9985 0.147445
496 2 59.393 47.0054 16.0451
497 2 63.3335 47.1608 15.9024
498 2 67.466 47.1579 0.212051
499 2 71.4135 47.3073 0.13068
500 2 75.2508 47.3848 0.211352
501 2 79.4563 47.2938 15.7753
502 2 83.4937 47.6178 0.15792
503 2 87.3449 47.6163 0.271802
504 2 91.2945 47.5391 0.190999
505 2 95.3901 47.5175 16.0032
506 2 99.5324 47.6339 16.1761
507 2 103.295 47.5744 0.166558
508 2 107.412 47.7386 0.0550635
509 2 111.396 47.7659 15.8391
510 2 115.325 47.613 15.8256
511 2 119.234 47.7195 0.0714885
512 2 122.961 47.4762 16.1001
513 2 126.784 47.5065 0.130908
514 2 130.898 47.412 16.0705
515 2 134.729 47.2788 0.262767
516 2 138.815 47.3753 0.409877
517 2 142.479 47.2338 0.147881
518 2 146.509 47.2147 0.0838249
519 2 150.377 47.1124 15.961
520 2 154.355 47.3428 15.8952
521 2 158.278 51.217 0.185726
522 2 3.70128 50.8967 15.7652
523 2 7.83157 50.9677 0.137928
524 2 11.6197 51.0501 15.7959
525 2 15.5127 50.8911 -0.182506
526 2 19.6037 50.9766 0.104836
527 2 23.5924 50.803 15.818
528 2 27.4052 50.6495 0.11732
529 2 31.2291 50.553 0.312602
530 2 35.3734 50.6717 0.191015
531 2 39.2805 50.7082 0.320878
532 2 43.4363 50.7143 15.7527
533 2 47.311 50.7482 15.8629
534 2 51.2735 50.8888 16.0189
535 2 55.4197 50.6657 0.176542
536 2 59.351 51.0025 16.1754
537 2 63.3313 51.01 15.9666
538 2 67.2255 51.1284 0.257822
539 2 71.1877 51.1816 15.6947
540 2 75.4287 51.2521 0.0920556
541 2 79.3727 51.209 0.135572
542 2 83.4099 51.5918 0.117902
543 2 87.3242 51.3038 0.172692
544 2 91.109 51.7339 0.200413
545 2 95.3272 51.5468 15.8082
546 2 99.3042 51.6442 15.9181
547 2 103.37 51.5495 16.0727
548 2 107.385 51.871 0.0635019
549 2 111.373 51.7955 0.163893
550 2 115.364 51.7761 0.182251
551 2 119.197 51.6806 15.8459
552 2 123.098 51.5263 0.00381435
553 2 127.169 51.4901 15.8686
554 2 131.234 51.5131 0.254089
555 2 134.875 51.429 15.9574
556 2 138.505 51.4693 0.218836
557 2 142.738 51.3777 15.9568
558 2 146.401 51.1389 0.101524
559 2 150.437 51.3961 0.0786498
560 2 154.34 51.1992 15.7299
561 2 0.22965 55.1643 0.123068
562 2 3.99448 55.0159 -0.103369
563 2 7.71488 55.1346 0.168292
564 2 11.7101 54.9573 -0.0275934
565 2 15.7645 54.903 15.7968
566 2 19.5862 54.7603 0.0833042
567 2 23.4655 54.7824 0.125853
568 2 27.2866 54.616 16.098
569 2 31.1885 54.7362 0.182835
570 2 35.2539 54.6743 0.300117
571 2 39.2207 54.6274 0.192193
572 2 43.444 54.5366 0.243817
573 2 47.4184 54.7512 0.147189
574 2 51.2319 54.8117 0.329422
575 2 55.1518 55.04 15.9207
576 2 59.1533 54.6524 15.9892
577 2 63.1093 55.1248 15.996
578 2 67.3118 55.0025 0.401469
579 2 71.297 55.2401 0.184555
580 2 75.4046 55.0075 15.9297
581 2 79.36 55.2954 15.8931
582 2 83.2933 55.3765 0.151567
583 2 87.2906 55.3073 16.0322
584 2 91.2083 55.4207 0.0770823
585 2 95.2394 55.5401 0.0250771
586 2 99.3749 55.7495 15.9413
587 2 103.213 55.6092 0.292965
588 2 107.296 55.6452 0.157004
589 2 111.444 55.7157 15.8179
590 2 115.351 55.5468 0.313542
591 2 119.187 55.5616 15.993
592 2 123.05 55.6942 0.340563
593 2 126.992 55.6313 0.11579
594 2 130.886 55.3885 16.0088
595 2 134.799 55.4088 15.9176
596 2 138.748 55.3479 15.8928
597 2 142.546 55.2261 0.304283
598 2 146.647 55.3216 -0.0852942
599 2 150.546 55.2107 0.231276
600 2 154.399 55.1749 0.0749198
601 2 158.347 59.1358 -0.0577789
602 2 3.80158 59.1482 15.7865
603 2 7.9006 59.0891 0.162502
604 2 11.8283 58.9933 15.7618
605 2 15.7854 58.9652 15.8527
606 2 19.6301 58.8466 -0.176878
607 2 23.3836 58.729 -0.162222
608 2 27.4442 58.6045 0.040958
609 2 31.3867 58.5654 -0.0948096
610 2 35.4002 58.5179 15.7983
611 2 39.2628 58.6169 0.12032
612 2 43.2499 58.4879 0.211078
613 2 47.1606 58.6486 0.094685
614 2 51.2086 58.7718 -0.0135263
615 2 55.3575 58.6758 15.8227
616 2 59.2132 58.7439 15.9499
617 2 63.2069 58.9467 16.1734
618 2 67.3484 58.892 15.9606
619 2 71.3436 59.164 16.0323
620 2 75.25 58.9582 15.9486
621 2 79.5042 59.1469 0.303168
622 2 83.1851 59.2857 0.0407155
623 2 87.2605 59.327 0.215612
624 2 91.1397 59.3787 -0.005629
625 2 95.3063 59.3316 0.217807
626 2 99.1664 59.5029 16.1126
627 2 103.078 59.5106 0.116603
628 2 107.42 59.5257 0.220012
629 2 111.171 59.5354 15.8484
630 2 115.3 59.583 15.9496
631 2 119.13 59.5732 16.0498
632 2 123.151 59.6723 16.1351
633 2 127.231 59.404 0.283939
634 2 130.846 59.4144 15.9924
635 2 134.722 59.3874 16.0418
636 2 138.839 59.4003 15.9144
637 2 142.747 59.2733 0.199489
638 2 146.819 59.4895 -0.065002
639 2 150.58 59.1454 0.000919712
640 2 154.36 59.1424 -0.0026503
641 2 0.055896 63.2037 0.0240995
642 2 3.89721 63.1449 0.287571
643 2 7.8601 63.0116 15.7138
644 2 11.9174 62.8277 15.8761
645 2 15.7636 62.8108 0.0777541
646 2 19.8329 62.8139 0.0266698
647 2 23.5671 62.7103 -0.0230908
648 2 27.3819 62.6004 0.007842
649 2 31.5599 62.5168 0.184528
650 2 35.5365 62.5539 0.275541
651 2 39.4654 62.3762 0.183906
652 2 43.3817 62.521 15.8624
653 2 47.1182 62.3834 15.98
654 2 51.3076 62.6345 0.209937
655 2 55.3339 62.6465 0.119389
656 2 59.1889 62.682 15.6459
657 2 63.2905 62.7263 0.271508
658 2 67.2652 62.8956 15.6852
659 2 71.2679 62.91 16.0655
660 2 75.3204 62.8816 0.0806695
661 2 79.1971 63.1386 15.808
662 2 83.2658 63.1375 0.156808
663 2 87.035 63.0335 15.8599
664 2 91.1599 63.2136 15.8308
665 2 95.2012 63.3542 15.8327
666 2 99.3373 63.4936 16.0475
667 2 103.005 63.6122 0.228505
668 2 107.131 63.4224 15.8915
669 2 111.227 63.4398 16.2163
670 2 115.255 63.4863 0.364072
671 2 119.166 63.2069 0.196518
672 2 123.286 63.5542 0.24041
673 2 127.162 63.3936 15.9723
674 2 130.83 63.7573 0.388319
675 2 134.982 63.4434 15.9379
676 2 138.795 63.4453 0.386228
677 2 142.862 63.4388 16.1042
678 2 146.622 63.3287 0.25128
679 2 150.558 63.3102 -0.00417622
680 2 154.499 63.3313 0.138257
681 2 0.254273 67.1461 0.176058
682 2 4.29672 67.0904 -0.00990379
683 2 7.83555 67.151 15.8696
684 2 12.0081 66.9313 15.9093
685 2 15.7426 66.8015 0.187746
686 2 19.8239 66.8037 0.0634168
687 2 23.6324 66.6804 -0.0162315
688 2 27.6411 66.5555 0.179252
689 2 31.5722 66.6366 0.148992
690 2 35.4671 66.507 15.8915
691 2 39.3398 66.4602 15.7407
692 2 43.1906 66.3848 16.0162
693 2 47.3469 66.3236 15.8808
694 2 51.1324 66.5495 0.0475083
695 2 55.4149 66.5868 15.8054
696 2 59.2173 66.6114 16.1883
697 2 62.8549 66.6564 0.0574811
698 2 67.1146 66.84 15.8274
699 2 71.2916 66.8285 -0.0398989
700 2 75.0233 66.8615 0.251638
701 2 79.1265 66.8733 15.8137
702 2 83.1488 66.9971 15.9764
703 2 87.161 67.2348 15.9132
704 2 91.1966 67.0032 0.457645
705 2 94.9321 67.0385 15.8236
706 2 98.968 67.1606 16.0274
707 2 103.228 67.3097 0.319434
708 2 107.19 67.3727 0.182296
709 2 111.013 67.4929 15.8078
710 2 115.225 67.2113 15.846
711 2 119.186 67.4252 -0.0065489
712 2 123.148 67.3746 15.9556
713 2 126.973 67.5213 0.0878524
714 2 131.124 67.5916 0.310872
715 2 135.215 67.38 15.8173
716 2 138.923 67.5064 0.22308
717 2 142.63 67.411 15.7971
718 2 146.735 67.3768 15.9946
719 2 150.645 67.3198 0.216778
720 2 154.668 67.3763 0.355
721 2 158.636 70.9969 15.9025
722 2 4.12572 71.0716 0.164869
723 2 8.05161 71.0025 0.138973
724 2 12.0807 71.0396 0.131737
725 2 15.9799 70.7129 15.954
726 2 19.8472 70.8361 0.0564964
727 2 23.7123 70.6708 -0.0558227
728 2 27.5273 70.5966 0.239415
729 2 31.512 70.4581 0.0382092
730 2 35.5524 70.5986 0.199349
731 2 39.2654 70.5943 0.220542
732 2 43.2633 70.3463 0.241798
733 2 47.4285 70.4142 16.0593
734 2 51.1182 70.2927 0.368758
735 2 54.9873 70.3971 15.7828
736 2 59.1964 70.6004 15.9198
737 2 63.1478 70.6028 15.791
738 2 67.0746 70.7277 15.9398
739 2 71.1175 70.6279 0.0653452
740 2 75.0825 70.562 15.9229
741 2 79.1214 70.835 0.249503
742 2 82.9954 71.0089 0.0137394
743 2 87.2396 70.9653 15.8414
744 2 91.1614 71.1643 15.8722
745 2 95.2936 71.179 15.8219
746 2 99.01 70.9722 15.9706
747 2 103.029 71.2056 15.6961
748 2 107.153 71.3519 0.0331804
749 2 111.017 71.3301 0.282327
750 2 115.073 71.2202 0.130829
751 2 119.087 71.2465 -0.00558741
752 2 123.022 71.1944 15.8659
753 2 126.923 71.496 0.191634
754 2 131.116 71.5461 -0.0717424
755 2 134.985 71.3545 0.147795
756 2 138.998 71.5232 15.9174
757 2 142.944 71.5948 15.9998
758 2 146.897 71.3803 15.9683
759 2 150.817 71.3514 0.0966585
760 2 154.597 71.1684 0.064631
761 2 0.140799 75.0846 15.869
762 2 4.27015 75.0213 15.9457
763 2 8.12636 75.0115 0.0231391
764 2 12.0864 74.7903 0.179076
765 2 15.9325 74.8275 16.0301
766 2 19.9963 74.7811 0.225748
767 2 23.8986 74.7718 0.142413
768 2 27.7696 74.5137 -0.0798241
769 2 31.7628 74.5542 -0.0402469
770 2 35.7061 74.6644 0.116258
771 2 39.5086 74.5535 0.170613
772 2 43.3654 74.2915 0.159064
773 2 47.2247 74.5021 0.164277
774 2 51.2451 74.4403 15.8787
775 2 55.0479 74.3284 15.8258
776 2 59.2998 74.5138 15.9301
777 2 63.1378 74.5194 15.8065
778 2 66.9421 74.5885 16.0224
779 2 71.0369 74.5754 0.22322
780 2 74.8848 74.6645 0.219205
781 2 78.8239 74.8357 0.0868709
782 2 83.0567 74.7248 15.8639
783 2 86.9706 74.9799 16.0119
784 2 91.1503 75.063 0.178812
785 2 95.1003 74.9035 15.8646
786 2 99.0981 75.0042 15.9075
787 2 103.051 75.1813 15.9507
788 2 106.898 75.2436 0.0218151
789 2 111.149 75.0391 0.277881
790 2 114.976 75.3064 0.26968
791 2 119.059 75.4386 0.140885
792 2 123.003 75.2821 0.123307
793 2 126.937 75.4728 15.8853
794 2 130.901 75.2305 15.9131
795 2 134.924 75.497 0.013589
796 2 139.106 75.4498 15.8227
797 2 142.954 75.3133 15.7865
798 2 146.822 75.2528 15.763
799 2 151.037 75.5168 15.738
800 2 154.648 75.2672 16.1085
801 2 0.530983 79.2657 0.338876
802 2 4.34067 79.0211 0.0316744
803 2 8.22641 78.9759 0.126441
804 2 12.0942 78.861 15.9879
805 2 15.9596 78.7101 15.8915
806 2 19.8186 78.6374 0.190275
807 2 23.8647 78.5733 0.226608
808 2 27.8735 78.7082 0.367627
809 2 31.6617 78.5877 15.864
810 2 35.5634 78.5466 0.115378
811 2 39.6334 78.3782 0.14238
812 2 43.4475 78.4053 0.182497
813 2 47.4708 78.3312 0.168292
814 2 51.2839 78.5188 0.269573
815 2 55.0641 78.2846 0.0128655
816 2 58.8111 78.2422 0.139108
817 2 62.9721 78.4797 0.2186
818 2 67.0361 78.6073 0.194869
819 2 71.0524 78.3298 16.0076
820 2 75.0321 78.6255 0.0692779
821 2 79.0027 78.6546 0.13962
822 2 82.7489 78.6611 16.0091
823 2 86.8976 78.7688 16.1087
824 2 91.1608 78.9192 16.0629
825 2 94.9909 78.6874 -0.0378736
826 2 98.9235 78.9483 0.105737
827 2 102.868 79.1649 15.7789
828 2 106.879 79.0211 0.276977
829 2 110.71 79.0752 15.9217
830 2 114.778 79.0461 0.159044
831 2 118.944 79.1359 0.310962
832 2 122.981 79.2984 15.86
833 2 126.853 79.2124 0.220558
834 2 130.907 79.3014 15.798
835 2 135.125 79.3754 0.136795
836 2 138.857 79.2661 -0.0462782
837 2 143.025 79.1662 16.0389
838 2 146.951 79.3534 15.9128
839 2 150.815 79.4403 15.9737
840 2 154.946 79.2507 0.106407
841 2 0.320834 83.1079 0.25969
842 2 4.24126 82.9113 15.929
843 2 8.27874 82.8704 0.0889354
844 2 12.3709 82.9461 15.9392
845 2 16.163 82.7703 15.9311
846 2 19.9537 82.8217 0.342792
847 2 23.7825 82.6971 0.221306
848 2 27.7133 82.6205 0.161647
849 2 31.6188 82.5 15.9715
850 2 35.5805 82.3723 0.125242
851 2 39.693 82.7573 0.00504037
852 2 43.5376 82.5548 0.186186
853 2 47.3437 82.5209 0.259679
854 2 51.2171 82.3948 0.135014
855 2 54.993 82.3493 0.199267
856 2 59.0023 82.3231 15.7871
857 2 62.8821 82.3362 15.8013
858 2 66.8364 82.297 15.9344
859 2 70.9038 82.3875 0.230718
860 2 74.8868 82.5412 0.229514
861 2 78.813 82.3419 0.246513
862 2 82.7804 82.5055 15.9695
863 2 86.9816 82.6045 16.052
864 2 90.985 82.6945 15.946
865 2 94.821 82.7163 15.8372
866 2 98.7557 82.7725 15.6834
867 2 102.998 82.9859 15.9058
868 2 106.85 83.0289 0.120891
869 2 110.95 83.0959 16.0377
870 2 114.867 83.1429 0.222738
871 2 118.969 83.1038 0.0502054
872 2 122.952 83.0778 15.8641
873 2 126.782 83.1273 16.0553
874 2 130.695 83.2643 15.9917
875 2 134.803 83.412 0.154602
876 2 138.707 83.5135 -0.00882262
877 2 142.938 83.2265 0.121061
878 2 146.858 83.2963 16.0917
879 2 150.898 83.3909 15.9436
880 2 154.946 83.3797 15.7685
881 2 0.508997 87.0814 0.273924
882 2 4.48158 86.9902 0.334686
883 2 8.42521 86.8742 0.320079
884 2 12.1364 87.0868 16.0732
885 2 16.1517 86.8081 16.1277
886 2 20.0361 86.8275 0.129875
887 2 23.9654 86.7716 0.102256
888 2 27.7612 86.7826 0.27267
889 2 31.6809 86.6688 15.8153
890 2 35.5216 86.739 0.262546
891 2 39.6138 86.5762 0.188519
892 2 43.4217 86.7004 0.230159
893 2 47.364 86.3615 0.092434
894 2 51.1436 86.5313 0.155732
895 2 55.1758 86.3256 0.101027
896 2 59.1458 86.3518 0.13001
897 2 63.0251 86.285 16.0175
898 2 66.9866 86.2675 15.9189
899 2 70.8085 86.4623 0.0530947
900 2 74.7373 86.4584 15.9529
901 2 78.8717 86.326 0.270194
902 2 82.8051 86.3777 15.7451
903 2 86.8574 86.5729 0.223986
904 2 90.8215 86.6426 15.773
905 2 94.6619 87.0169 15.9382
906 2 98.9711 86.8633 15.8694
907 2 102.866 86.8418 15.8907
908 2 106.758 86.8514 15.9855
909 2 110.773 87.0284 0.146794
910 2 114.777 87.1682 15.8237
911 2 118.914 86.8561 16.0455
912 2 122.789 87.0822 15.8127
913 2 126.891 87.2018 16.1675
914 2 130.683 87.2092 16.0561
915 2 134.869 87.1213 0.345086
916 2 138.748 87.1636 0.154257
917 2 142.932 87.3717 15.9256
918 2 146.833 87.1318 16.0685
919 2 150.89 87.1977 15.9974
920 2 154.821 87.2257 0.0935987
921 2 0.539948 91.2184 16.0102
922 2 4.40088 91.1622 15.9733
923 2 8.36982 91.0436 0.299077
924 2 12.3738 90.8757 15.8339
925 2 16.0996 90.9807 15.7882
926 2 20.0913 90.934 0.135422
927 2 23.9505 90.7824 15.8685
928 2 28.0252 90.6369 0.164852
929 2 31.7851 90.5969 15.8206
930 2 35.7326 90.579 0.323603
931 2 39.6299 90.4194 0.387593
932 2 43.5332 90.571 0.282354
933 2 47.3305 90.4646 0.151479
934 2 51.3303 90.6082 16.1039
935 2 55.1783 90.4969 0.144095
936 2 59.1617 90.3331 15.7245
937 2 63.0373 90.2691 0.104642
938 2 67.054 90.1299 0.114948
939 2 70.8307 90.2777 0.187054
940 2 74.7637 90.3072 15.9443
941 2 78.8219 90.2602 15.8723
942 2 82.6964 90.33 15.9011
943 2 86.641 90.3965 15.9909
944 2 90.777 90.6437 0.0813075
945 2 94.6791 90.74 15.8267
946 2 98.7826 90.623 16.0595
947 2 102.782 90.8606 15.9931
948 2 106.742 90.7621 15.8718
949 2 110.801 90.9087 15.9352
950 2 114.506 90.7003 15.8467
951 2 118.909 90.8807 0.313061
952 2 122.832 90.6311 0.156978
953 2 126.781 90.9947 0.120863
954 2 130.76 91.0382 15.8608
955 2 134.809 90.941 0.237976
956 2 138.772 91.1253 15.8308
957 2 142.801 91.0712 16.0492
958 2 146.816 91.2532 0.183798
959 2 150.858 91.0487 16.0178
960 2 154.96 91.0023 16.0963
961 2 0.577097 95.2074 15.9475
962 2 4.63895 95.0614 16.1163
963 2 8.40834 95.1018 0.225211
964 2 12.3701 94.8976 16.0647
965 2 16.1736 94.9046 15.8402
966 2 19.9681 94.8453 15.7423
967 2 24.0921 94.7135 15.848
968 2 27.9033 94.7668 0.34486
969 2 31.7868 94.5719 16.015
970 2 35.7714 94.5163 0.239235
971 2 39.6002 94.4642 0.162237
972 2 43.339 94.3899 0.307329
973 2 47.6321 94.4268 15.8561
974 2 51.3488 94.5101 15.9718
975 2 55.2332 94.342 15.8249
976 2 59.2619 94.2144 0.0187388
977 2 62.8968 94.3255 15.8921
978 2 66.7843 94.2801 15.8987
979 2 70.875 94.3246 0.163701
980 2 74.7144 94.3257 15.8243