ITEM: TIMESTEP
19000
ITEM: NUMBER OF ATOMS
32000
ITEM: BOX BOUNDS xy xz yz pp pp pp
0.0000000000000000e+00 1.5831999999999999e+02 0.0000000000000000e+00
0.0000000000000000e+00 1.5831999999999999e+02 0.0000000000000000e+00
1.6271155231850987e-01 1.5935000447681325e+01 0.0000000000000000e+00
ITEM: ATOMS id type x y z
1 2 158.005 157.742 16.0912
2 2 3.80435 157.824 0.153496
3 2 7.77461 157.707 15.9958
4 2 11.7769 157.805 15.7982
5 2 15.8597 157.828 15.9264
6 2 19.7419 158.016 16.0796
7 2 23.8472 157.968 0.0846787
8 2 27.7703 158.189 15.8905
9 2 31.885 158.296 15.8622
10 2 35.8374 158.204 16.0536
11 2 39.7844 158.219 0.143805
12 2 43.7336 0.0459577 0.324273
13 2 47.6101 158.333 16.0715
14 2 51.8687 -0.0787879 0.0386719
15 2 55.8474 158.358 15.6933
16 2 59.9756 0.290963 0.200252
17 2 63.819 0.225113 15.9258
18 2 67.8422 0.393438 0.382551
19 2 71.6973 158.446 0.428162
20 2 75.5653 158.38 0.449655
21 2 79.6088 0.19769 16.112
22 2 83.5048 158.433 16.0182
23 2 87.3033 158.239 15.9595
24 2 91.082 158.097 0.295756
25 2 94.9826 158.14 15.8054
26 2 98.8518 158.15 15.9147
27 2 102.81 158.034 0.263577
28 2 106.798 158.12 15.7617
29 2 110.677 157.917 0.269454
30 2 114.719 157.9 0.171158
31 2 118.494 157.725 15.9499
32 2 122.42 157.723 15.9094
33 2 126.486 157.795 16.0291
34 2 130.347 157.651 16.0329
35 2 134.071 157.623 16.0738
36 2 137.998 157.574 15.9362
37 2 142.229 157.67 0.0790261
38 2 146.081 157.421 0.16363
39 2 150.091 157.625 0.123643
40 2 154.247 157.657 0.144761
41 2 158.12 3.29592 0.28395
42 2 3.71786 3.16961 16.0177
43 2 7.73789 3.22109 0.20202
44 2 11.7485 3.33367 16.016
45 2 15.5963 3.51292 0.129027
46 2 19.5853 3.35776 0.341468
47 2 23.775 3.79457 15.9437
48 2 27.4372 3.75277 15.6783
49 2 31.7851 3.86954 -0.0253424
50 2 35.9236 3.86219 0.243867
51 2 39.7659 3.73153 15.9551
52 2 43.8052 3.80952 0.00412584
53 2 47.8886 4.04389 15.835
54 2 51.8053 3.8879 0.120359
55 2 55.7533 3.9208 0.249141
56 2 59.8812 4.08742 15.9927
57 2 63.7177 4.14623 15.9322
58 2 67.7643 4.14447 0.258174
59 2 71.7887 4.23965 0.180493
60 2 75.7143 4.26887 0.313889
61 2 79.7663 4.15994 0.20676
62 2 83.5092 3.99097 16.0477
63 2 87.4958 4.06314 16.0093
64 2 91.2659 3.8805 0.192645
65 2 95.0894 3.7514 16.0205
66 2 99.0174 3.87745 15.759
67 2 103.067 4.06734 16.1105
68 2 107.054 3.94411 15.8853
69 2 110.779 3.59661 15.861
70 2 114.78 3.56819 15.7576
71 2 118.815 3.56719 15.8239
72 2 122.671 3.36047 15.951
73 2 126.576 3.36769 0.0204059
74 2 130.458 3.35068 0.21597
75 2 134.407 3.32912 15.8776
76 2 138.334 3.17233 15.8894
77 2 142.073 3.24485 16.0572
78 2 146.145 3.06624 0.172193
79 2 150.181 3.17364 15.9798
80 2 154.234 3.23896 0.282406
81 2 158.07 7.40985 0.000884721
82 2 3.77022 7.33644 0.150067
83 2 7.66645 7.31387 15.8351
84 2 11.7906 7.28701 0.152218
85 2 15.5557 7.69782 0.241479
86 2 19.6518 7.55864 0.215758
87 2 23.6217 7.68839 16.2533
88 2 27.6873 7.49824 0.24885
89 2 31.671 7.47542 15.9124
90 2 35.6254 7.59188 15.9364
91 2 39.5239 7.80101 -0.0276729
92 2 43.7725 7.81908 15.8352
93 2 47.7719 7.84381 15.9326
94 2 51.8036 8.08455 16.0375
95 2 55.6454 7.89301 -0.0841622
96 2 59.8918 8.11496 0.277035
97 2 63.8012 8.02313 0.164206
98 2 67.7043 8.18882 16.0964
99 2 71.77 8.18088 16.0952
100 2 75.6076 8.0636 0.267094
101 2 79.6188 8.04024 0.247945
102 2 83.4913 8.13556 0.208466
103 2 87.4329 7.88621 0.241134
104 2 91.3451 7.77412 16.0345
105 2 95.2487 7.84976 15.7484
106 2 99.2839 7.69235 0.0557377
107 2 103.156 7.89413 0.26184
108 2 107.287 7.74844 16.1384
109 2 111.183 7.70042 -0.0111112
110 2 115.004 7.65638 16.05
111 2 118.843 7.51917 0.337123
112 2 122.885 7.41834 0.301058
113 2 126.517 7.36253 15.9131
114 2 130.56 7.28504 15.8798
115 2 134.393 7.48598 0.212663
116 2 138.367 7.38001 0.19988
117 2 142.244 7.41863 0.199969
118 2 146.172 7.04902 0.209821
119 2 150.011 7.09522 16.1344
120 2 154.011 7.24955 15.8888
121 2 157.883 10.9819 15.8699
122 2 3.55228 11.2089 0.205935
123 2 7.62503 11.0397 15.9315
124 2 11.6989 11.1468 15.9575
125 2 15.4952 11.3881 0.0753477
126 2 19.5392 11.4863 0.196242
127 2 23.6233 11.5293 15.9725
128 2 27.5861 11.4455 15.9219
129 2 31.7093 11.7826 15.8099
130 2 35.662 11.6566 0.152273
131 2 39.5647 11.6099 16.02
132 2 43.6293 11.6478 0.30899
133 2 47.6842 11.8141 0.292407
134 2 51.5979 11.8423 15.9819
135 2 55.7568 11.9367 15.9999
136 2 59.6751 11.8787 0.131189
137 2 63.8726 12.0789 16.0639
138 2 67.7266 12.0192 15.8652
139 2 71.8527 12.2264 0.0714074
140 2 75.8455 12.0715 15.972
141 2 79.6689 12.1262 0.344204
142 2 83.6307 12.1615 0.379922
143 2 87.5102 12.031 16.0022
144 2 91.3709 11.843 16.0095
145 2 95.3842 11.6997 0.305688
146 2 99.24 11.5743 0.201563
147 2 103.343 11.6864 16.1139
148 2 107.223 11.5349 16.1176
149 2 110.948 11.6699 15.9528
150 2 114.816 11.5326 15.8599
151 2 118.834 11.586 0.392079
152 2 122.805 11.6248 0.128722
153 2 126.731 11.4446 16.0497
154 2 130.471 11.4608 0.108666
155 2 134.557 11.3882 16.1636
156 2 138.212 11.249 15.7975
157 2 142.305 11.2159 0.228222
158 2 146.093 11.2736 0.183643
159 2 150.189 11.2403 15.8628
160 2 153.958 11.1757 0.231378
161 2 157.933 14.9133 0.115512
162 2 3.50108 14.847 15.9953
163 2 7.71285 14.9122 15.8857
164 2 11.3716 15.4792 0.292041
165 2 15.5403 15.3095 0.473297
166 2 19.6999 15.3768 15.8399
167 2 23.5269 15.1994 0.0377781
168 2 27.4075 15.6626 15.8869
169 2 31.4807 15.4047 0.0629406
170 2 35.7015 15.5952 0.223792
171 2 39.5718 15.5317 15.7063
172 2 43.5872 15.6607 0.147707
173 2 47.608 15.7212 0.15837
174 2 51.6825 15.62 -0.010538
175 2 55.8247 15.7865 15.8099
176 2 59.7042 15.7829 15.8369
177 2 63.79 16.0809 15.9057
178 2 67.6774 15.9743 15.8213
179 2 71.7352 15.9711 15.8451
180 2 75.8632 16.186 15.7314
181 2 79.773 16.1459 15.8748
182 2 83.7387 15.9228 15.9335
183 2 87.5171 15.9915 0.185557
184 2 91.4703 15.9434 15.9476
185 2 95.3061 15.8455 0.30274
186 2 99.2058 15.7906 16.0834
187 2 103.102 15.7246 0.317234
188 2 107.269 15.5737 15.8957
189 2 111.131 15.7074 16.0182
190 2 115.071 15.5738 15.912
191 2 118.865 15.507 15.9384
192 2 122.932 15.717 15.9873
193 2 126.611 15.5761 0.206117
194 2 130.607 15.4559 0.233597
195 2 134.679 15.5253 15.7159
196 2 138.335 15.2655 16.0172
197 2 142.274 15.2058 0.179984
198 2 146.215 15.1931 0.118497
199 2 150.142 15.0726 0.336988
200 2 154.059 15.2314 -0.0809929
201 2 157.931 18.9626 15.8504
202 2 3.59846 18.9098 15.9973
203 2 7.49354 19.0396 16.1996
204 2 11.5388 19.0871 16.0684
205 2 15.3596 19.2366 16.054
206 2 19.4893 19.1272 16.1409
207 2 23.6182 19.2049 0.194895
208 2 27.4209 19.4296 0.104916
209 2 31.4467 19.4624 16.0797
210 2 35.5632 19.3733 0.13617
211 2 39.4026 19.4728 -0.0739944
212 2 43.5001 19.4688 15.8039
213 2 47.6677 19.5123 0.180165
214 2 51.5624 19.5851 16.0868
215 2 55.5946 19.644 15.9409
216 2 59.8226 19.8524 15.7726
217 2 63.6251 19.8817 15.804
218 2 67.5679 19.9219 15.9756
219 2 71.8446 19.9445 15.8176
220 2 75.7907 20.0497 15.8501
221 2 79.8375 19.9637 16.0057
222 2 83.6849 20.1196 15.9049
223 2 87.6127 20.0818 15.8326
224 2 91.2775 19.9856 16.0334
225 2 95.2837 19.9187 0.379276
226 2 99.162 19.7377 0.331461
227 2 103.243 19.5439 16.1555
228 2 107.1 19.6319 16.0162
229 2 111.152 19.787 0.0286364
230 2 114.842 19.6888 15.867
231 2 118.838 19.53 0.19796
232 2 122.65 19.6349 16.1203
233 2 126.622 19.3517 0.28176
234 2 130.536 19.4285 16.1633
235 2 134.433 19.5289 0.173981
236 2 138.352 19.3839 0.0413669
237 2 142.281 19.3108 15.9538
238 2 146.302 19.315 0.197125
239 2 150.209 19.1548 0.285478
240 2 154.089 19.2742 15.7347
241 2 157.993 22.8784 0.284185
242 2 3.5459 23.1196 15.7636
243 2 7.6408 22.9056 0.045864
244 2 11.4792 22.975 0.0368031
245 2 15.5269 23.2483 15.9874
246 2 19.5554 23.1575 0.204615
247 2 23.527 23.1551 16.0045
248 2 27.4504 23.2919 0.014065
249 2 31.6106 23.3814 15.9392
250 2 35.6576 23.2257 0.276811
251 2 39.3798 23.4998 -0.00735898
252 2 43.5349 23.5569 15.7782
253 2 47.3716 23.5677 15.85
254 2 51.6575 23.4556 0.248833
255 2 55.645 23.4989 15.8943
256 2 59.5925 23.5458 15.8768
257 2 63.7014 23.7166 0.21384
258 2 67.6379 23.7152 0.262566
259 2 71.5198 23.7554 16.0004
260 2 75.616 23.9009 0.246676
261 2 79.6419 23.8242 15.9909
262 2 83.6278 23.9055 15.8256
263 2 87.6807 24.0017 15.9092
264 2 91.5932 23.9782 15.6953
265 2 95.2921 23.88 15.7421
266 2 99.4298 23.9023 16.1472
267 2 103.349 23.7313 16.0334
268 2 107.311 23.5389 15.8732
269 2 111.286 23.5499 15.8366
270 2 115.184 23.5297 16.0694
271 2 118.883 23.5738 -0.00138603
272 2 122.737 23.5484 0.127934
273 2 126.624 23.5094 0.117726
274 2 130.444 23.3167 0.149074
275 2 134.461 23.5208 0.129963
276 2 138.462 23.3613 0.120997
277 2 142.362 23.1562 15.885
278 2 146.193 23.2544 0.159388
279 2 150.12 23.1327 15.8598
280 2 153.918 23.1039 0.0941201
281 2 157.967 27.0382 0.234479
282 2 3.68887 27.0366 0.189429
283 2 7.37074 26.8835 15.9883
284 2 11.352 27.0244 0.0472418
285 2 15.389 26.9984 0.158244
286 2 19.5959 26.8865 15.8724
287 2 23.4906 27.1348 0.0469835
288 2 27.4583 27.3675 0.128424
289 2 31.5683 27.2057 15.9543
290 2 35.4955 27.213 0.0918766
291 2 39.6055 27.4848 15.8461
292 2 43.4815 27.3872 15.7818
293 2 47.4788 27.3347 15.8568
294 2 51.5788 27.3446 15.8477
295 2 55.6652 27.2984 15.8745
296 2 59.5286 27.5366 0.212072
297 2 63.7099 27.7059 0.367174
298 2 67.6379 27.6235 0.250818
299 2 71.7083 27.5903 0.158084
300 2 75.7442 27.7638 15.8213
301 2 79.7838 27.8366 16.0051
302 2 83.5018 27.7019 15.9886
303 2 87.6674 27.8763 15.908
304 2 91.5105 28.1346 15.9436
305 2 95.5343 27.7674 15.9171
306 2 99.2625 27.7939 15.8011
307 2 103.307 27.7099 16.1197
308 2 107.141 27.628 0.206577
309 2 111.166 27.6981 0.393724
310 2 115.167 27.4769 0.156431
311 2 118.792 27.5329 15.7814
312 2 122.794 27.5347 0.156567
313 2 126.758 27.5527 0.121943
314 2 130.816 27.4724 15.9224
315 2 134.453 27.2718 16.0506
316 2 138.465 27.3682 0.140244
317 2 142.524 27.2207 15.8102
318 2 146.228 27.2155 0.197781
319 2 150.204 27.1692 0.414523
320 2 154.207 27.0668 0.119854
321 2 158.015 31.0658 0.188289
322 2 3.61723 31.1319 16.0576
323 2 7.63397 30.9059 0.137902
324 2 11.4655 30.8945 15.976
325 2 15.4775 30.8829 0.176698
326 2 19.2149 30.8103 0.169176
327 2 23.2532 30.9483 0.226419
328 2 27.4522 31.0397 0.288358
329 2 31.3201 31.3354 0.267525
330 2 35.3376 31.2736 15.9643
331 2 39.4064 31.1536 15.9021
332 2 43.4124 31.1594 15.7956
333 2 47.5238 31.3032 16.0394
334 2 51.4042 31.307 0.404256
335 2 55.448 31.2313 0.12059
336 2 59.5187 31.403 15.916
337 2 63.5893 31.5311 15.9843
338 2 67.5914 31.3688 15.8854
339 2 71.6679 31.5704 0.147333
340 2 75.6146 31.5441 0.167228
341 2 79.5812 31.8806 15.8843
342 2 83.5742 31.7888 0.126629
343 2 87.7912 31.8886 0.134114
344 2 91.8638 31.9315 0.194299
345 2 95.6555 32.0156 15.8731
346 2 99.5775 31.9279 15.9335
347 2 103.298 31.842 16.0633
348 2 107.142 31.6876 16.2214
349 2 111.216 31.7855 0.316737
350 2 115.041 31.534 16.0161
351 2 118.929 31.5494 15.9664
352 2 122.968 31.515 15.9999
353 2 126.842 31.5588 15.8457
354 2 130.88 31.5979 15.9016
355 2 134.647 31.2749 15.9931
356 2 138.599 31.217 0.34338
357 2 142.576 31.2772 -0.0263839
358 2 146.365 31.1428 15.8136
359 2 150.25 31.1296 0.195365
360 2 154.116 31.1238 0.343947
361 2 158.02 35.1399 0.251155
362 2 3.68663 34.9084 0.142056
363 2 7.62576 34.9602 0.08671
364 2 11.4653 34.9662 0.072222
365 2 15.4716 34.9754 0.0624545
366 2 19.3377 34.6725 0.15354
367 2 23.3184 34.8513 0.411504
368 2 27.4876 35.0621 0.127823
369 2 31.2619 35.1208 0.214959
370 2 35.3161 35.1207 0.315128
371 2 39.3656 35.0315 15.7479
372 2 43.3161 35.0592 0.264824
373 2 47.4612 35.2916 16.0011
374 2 51.5772 35.1753 0.0241791
375 2 55.5021 35.1236 16.1154
376 2 59.5839 35.4565 0.148114
377 2 63.4084 35.3637 15.929
378 2 67.6382 35.2101 0.139566
379 2 71.4659 35.2971 0.257759
380 2 75.5089 35.6626 0.250687
381 2 79.5368 35.5326 15.9927
382 2 83.6692 35.7078 0.271913
383 2 87.6293 35.6848 16.0244
384 2 91.4592 35.7953 0.149864
385 2 95.4721 36.1314 15.8744
386 2 99.5393 36.1087 16.0418
387 2 103.509 35.7497 16.1337
388 2 107.377 35.6672 16.0233
389 2 111.273 35.7438 0.403971
390 2 115.012 35.6783 16.031
391 2 119.131 35.5232 16.0801
392 2 122.863 35.5472 0.422955
393 2 126.849 35.4568 0.16382
394 2 130.913 35.3569 0.201869
395 2 134.703 35.434 0.211358
396 2 138.659 35.3944 15.9665
397 2 142.533 35.2415 0.0332766
398 2 146.47 35.1634 15.9812
399 2 150.388 35.2222 0.464161
400 2 154.14 35.1133 0.219756
401 2 158.122 39.0485 0.167779
402 2 3.6917 39.058 0.0958778
403 2 7.61632 38.899 -0.0550126
404 2 11.6683 39.1411 15.6957
405 2 15.3865 38.8397 0.0997385
406 2 19.2934 38.9004 0.223869
407 2 23.1822 38.9355 15.8975
408 2 27.3753 38.9072 0.164418
409 2 31.4347 38.961 15.8875
410 2 35.4035 39.0622 0.26523
411 2 39.3459 38.974 0.0153222
412 2 43.3464 38.9379 16.1064
413 2 47.4205 38.9462 -0.0132849
414 2 51.393 39.3663 15.9628
415 2 55.4141 39.2053 0.00641599
416 2 59.5184 39.3046 15.9221
417 2 63.4991 39.4211 0.0412288
418 2 67.3109 39.2102 -0.0190634
419 2 71.5689 39.5079 16.0008
420 2 75.6952 39.6216 0.171828
421 2 79.355 39.7158 15.8426
422 2 83.5181 39.7238 15.7818
423 2 87.7022 39.6918 0.160875
424 2 91.6992 39.6255 15.8683
425 2 95.5503 39.8048 0.305504
426 2 99.6909 39.9352 0.264333
427 2 103.489 39.7285 15.9123
428 2 107.47 39.8828 0.393343
429 2 111.394 39.8694 16.1919
430 2 115.235 39.7981 0.136716
431 2 118.963 39.7187 0.21716
432 2 122.938 39.605 15.9501
433 2 126.897 39.671 16.0231
434 2 130.628 39.4378 15.9183
435 2 134.564 39.348 0.119501
436 2 138.711 39.4457 0.220533
437 2 142.498 38.9847 0.120389
438 2 146.385 39.2571 15.905
439 2 150.361 39.2499 15.8675
440 2 154.339 39.1751 15.8943
441 2 158.193 43.1973 -0.126296
442 2 3.84038 42.9756 0.308072
443 2 7.61174 43.1526 -0.0256735
444 2 11.7493 43.1343 -0.139665
445 2 15.6102 42.7728 0.0748956
446 2 19.4568 43.0111 0.0772787
447 2 23.5307 42.8901 0.1537
448 2 27.3777 42.7307 0.223195
449 2 31.3801 43.0466 0.113807
450 2 35.3421 43.0681 0.246719
451 2 39.3456 42.9036 -0.0201457
452 2 43.312 42.9072 0.0757806
453 2 47.3483 42.8839 0.268722
454 2 51.4298 43.0358 0.272574
455 2 55.4262 43.2671 15.807
456 2 59.5442 42.9288 16.0158
457 2 63.4395 43.3732 0.142802
458 2 67.4362 43.4144 15.754
459 2 71.3399 43.3835 0.0737364
460 2 75.453 43.41 15.9122
461 2 79.4888 43.4558 15.9217
462 2 83.6196 43.5692 0.126922
463 2 87.5721 43.5763 0.35836
464 2 91.4337 43.6707 0.381062
465 2 95.4784 43.7843 15.9103
466 2 99.4024 43.7115 16.0233
467 2 103.334 43.68 16.1565
468 2 107.51 43.9593 15.8923
469 2 111.46 43.9192 16.0496
470 2 115.242 43.5927 15.939
471 2 119.11 43.6464 15.7983
472 2 122.794 43.4916 15.7932
473 2 126.969 43.5134 15.8343
474 2 131.078 43.5743 0.233098
475 2 134.725 43.3142 0.0521394
476 2 138.777 43.3643 0.28977
477 2 142.581 43.1351 15.8989
478 2 146.454 42.9677 15.7635
479 2 150.351 43.1706 15.7483
480 2 154.284 43.0165 0.0613554
481 2 158.193 47.0391 0.0174957
482 2 3.95696 46.9496 0.25148
483 2 7.57977 46.915 0.0149399
484 2 11.5997 46.9582 15.8062
485 2 15.5014 47.0555 -0.0797531
486 2 19.4299 46.7001 15.8279
487 2 23.5862 46.9263 -0.0212805
488 2 27.5348 46.6576 0.136195
489 2 31.0529 46.8578 0.0919094
490 2 35.5287 46.887 0.257868
491 2 39.3515 46.9867 15.7619
492 2 43.3648 46.8994 -0.0103975
493 2 47.2379 46.8299 0.228385
494 2 51.5396 47.1109 0.132375
495 2 55.3206 47.0307 0.149776
496 2 59.3424 47.0396 15.9682
497 2 63.4525 47.213 16.0344
498 2 67.3346 47.2685 0.301387
499 2 71.4203 47.1781 0.241059
500 2 75.5518 47.3553 0.184387
501 2 79.2108 47.5711 16.1032
502 2 83.3921 47.4481 0.192928
503 2 87.4499 47.493 0.284608
504 2 91.4895 47.5678 0.216941
505 2 95.3728 47.7311 16.0646
506 2 99.2039 47.6682 16.054
507 2 103.567 47.7545 0.262997
508 2 107.415 47.8464 0.193381
509 2 111.25 47.7185 16.064
510 2 115.172 47.8122 15.959
511 2 119.116 47.525 0.243847
512 2 123.104 47.6109 15.7616
513 2 127.041 47.5275 0.257169
514 2 130.799 47.5598 15.8572
515 2 134.793 47.4413 0.204502
516 2 138.462 47.4791 0.0839528
517 2 142.637 47.2299 0.147094
518 2 146.444 47.2211 0.15767
519 2 150.38 47.1698 15.721
520 2 154.26 46.9482 15.8456
521 2 158.293 50.9536 0.0340099
522 2 3.94745 51.1612 15.8914
523 2 7.63157 50.9817 0.0140188
524 2 11.692 50.7896 15.7486
525 2 15.5658 50.7795 0.181747
526 2 19.572 50.6554 0.0611138
527 2 23.2917 50.6727 15.9079
528 2 27.3144 50.7667 0.161866
529 2 31.4086 50.7144 0.0751811
530 2 35.3597 50.7244 0.0820732
531 2 39.4603 50.7586 0.0750086
532 2 43.4051 50.8138 15.9309
533 2 47.3283 50.5722 15.8866
534 2 51.4793 50.7409 15.8911
535 2 55.2883 51.102 0.297811
536 2 59.3506 50.8534 15.9162
537 2 63.3851 51.0761 16.1153
538 2 67.3716 51.0888 0.315674
539 2 71.3165 51.0653 16.242
540 2 75.3825 51.3175 0.171422
541 2 79.4343 51.3746 0.0879225
542 2 83.3836 51.4222 0.242636
543 2 87.4144 51.5734 0.205204
544 2 91.1645 51.3646 0.0031118
545 2 95.1475 51.4995 15.9494
546 2 99.4836 51.4647 15.9163
547 2 103.344 51.6429 15.9201
548 2 107.138 51.636 0.166749
549 2 111.355 51.7388 0.169047
550 2 115.26 51.5935 0.216441
551 2 119.266 51.5627 15.9264
552 2 123.095 51.6654 0.163746
553 2 127.001 51.5655 15.9977
554 2 130.829 51.6157 0.0400429
555 2 134.709 51.3485 15.8144
556 2 138.788 51.343 0.212634
557 2 142.519 51.3106 16.1061
558 2 146.576 51.3471 -0.043668
559 2 150.505 51.011 -0.0615675
560 2 154.357 51.1367 15.8703
561 2 -0.00630573 55.1516 0.0130612
562 2 3.82315 55.0786 0.0750474
563 2 7.82558 54.9089 -0.0644307
564 2 11.9537 54.9765 0.0770346
565 2 15.7216 54.7626 15.9374
566 2 19.6983 54.8538 0.161104
567 2 23.5578 54.748 0.122603
568 2 27.3308 55.0869 15.7552
569 2 31.5287 54.4678 0.134788
570 2 35.2009 54.6723 0.040064
571 2 39.4099 54.6078 0.156508
572 2 43.2203 54.8032 0.286777
573 2 47.2342 54.4931 -0.0375378
574 2 51.2957 54.7441 0.0953367
575 2 55.5395 54.7044 15.9526
576 2 59.5107 54.9303 16.0462
577 2 63.4551 54.9014 16.0379
578 2 67.3907 54.9858 0.257703
579 2 71.357 54.9958 0.243073
580 2 75.3953 55.21 15.9039
581 2 79.4019 55.1986 15.8967
582 2 83.2922 55.3837 0.196977
583 2 87.1342 55.3051 15.9557
584 2 91.2644 55.4681 0.0551245
585 2 95.321 55.4191 0.250589
586 2 99.1623 55.5311 15.7634
587 2 103.391 55.5195 0.0818695
588 2 107.421 55.6459 0.18198
589 2 111.275 55.5306 16.0751
590 2 115.303 55.6978 -0.0764726
591 2 119.162 55.5441 15.7419
592 2 123.127 55.6263 0.160716
593 2 126.947 55.6845 0.425599
594 2 130.955 55.5509 15.8713
595 2 135.008 55.5856 15.9829
596 2 138.903 55.3268 15.8668
597 2 142.92 55.3665 0.0372927
598 2 146.633 55.3157 0.133183
599 2 150.319 55.2348 -0.16106
600 2 154.368 55.0481 -0.0737567
601 2 158.342 59.0489 0.154975
602 2 4.06206 59.0223 15.8329
603 2 7.67261 58.9945 0.0390324
604 2 11.7661 58.8353 15.9782
605 2 15.6616 58.7218 15.7151
606 2 19.6321 58.7258 0.0144935
607 2 23.5908 58.8302 -0.0468097
608 2 27.4416 58.6705 0.0681082
609 2 31.4713 58.7374 0.138347
610 2 35.235 58.6938 15.9523
611 2 39.2981 58.4829 0.161387
612 2 43.2936 58.6371 0.229025
613 2 47.2528 58.6918 0.203052
614 2 51.4019 58.6471 0.257582
615 2 55.3458 58.7995 15.9881
616 2 59.3885 58.7146 15.7724
617 2 63.3029 58.7795 15.9765
618 2 67.2865 58.9121 16.1065
619 2 71.3017 58.9001 15.8607
620 2 75.3304 59.0168 15.9291
621 2 79.1256 59.0357 0.053997
622 2 83.3288 59.3114 0.325296
623 2 87.1874 59.0655 0.0705365
624 2 91.2444 59.2133 0.363638
625 2 95.0382 59.4121 0.339908
626 2 99.1836 59.402 16.1123
627 2 103.252 59.3235 0.470227
628 2 107.161 59.4698 0.438093
629 2 111.424 59.633 16.0313
630 2 115.224 59.6356 15.8939
631 2 119.303 59.5066 15.8771
632 2 123.114 59.556 15.8468
633 2 126.846 59.783 0.17588
634 2 130.967 59.6352 15.8878
635 2 134.996 59.5553 15.9374
636 2 138.802 59.3504 16.0837
637 2 142.744 59.3058 0.232709
638 2 146.686 59.1857 0.309707
639 2 150.799 59.2899 0.121039
640 2 154.485 59.2019 -0.0138802
641 2 0.143442 63.2059 0.213377
642 2 3.94271 63.0661 0.0486196
643 2 7.93371 63.0225 15.9096
644 2 11.8001 62.9844 15.8683
645 2 15.8353 62.8255 -0.0742052
646 2 19.6659 62.8949 0.0105876
647 2 23.6592 62.7051 -0.0125233
648 2 27.7293 62.5634 0.0740875
649 2 31.4875 62.664 0.0740766
650 2 35.4892 62.6136 0.203175
651 2 39.2965 62.674 0.134834
652 2 43.1514 62.4867 15.9241
653 2 47.3514 62.5944 15.7499
654 2 51.1314 62.5861 -0.164436
655 2 55.2936 62.6158 -0.128485
656 2 59.3199 62.5705 15.9104
657 2 63.1544 62.7862 0.0749414
658 2 67.1741 62.7935 15.8413
659 2 71.185 63.0275 15.7378
660 2 75.1433 63.0774 0.232123
661 2 79.0763 63.0192 16.0371
662 2 83.1147 63.1677 0.265156
663 2 87.1901 63.3306 15.8242
664 2 91.2459 63.1819 15.9627
665 2 95.2227 63.2961 15.9755
666 2 99.1378 63.148 15.8344
667 2 103.15 63.1398 0.242529
668 2 107.221 63.45 16.1898
669 2 110.887 63.4872 15.9276
670 2 115.018 63.736 -2.40067e-05
671 2 119.102 63.6579 0.2004
672 2 123.187 63.5167 0.13119
673 2 127.189 63.618 15.9852
674 2 131.188 63.6671 0.320174
675 2 134.775 63.4567 16.0855
676 2 138.816 63.4444 0.190431
677 2 142.733 63.3486 15.8954
678 2 146.813 63.2438 0.0543278
679 2 150.542 63.1784 0.141858
680 2 154.543 63.3208 0.0458647
681 2 0.172152 67.2416 0.130569
682 2 3.83377 67.0499 0.257033
683 2 8.22432 66.9699 15.7912
684 2 11.8802 66.8881 15.7872
685 2 15.8758 66.8628 0.0502355
686 2 19.8322 66.7019 -0.0043328
687 2 23.7395 66.8332 0.120459
688 2 27.4523 66.6151 0.0426637
689 2 31.2983 66.4472 -0.0278375
690 2 35.3776 66.5276 15.9935
691 2 39.1352 66.5272 16.0464
692 2 43.1724 66.5614 15.887
693 2 47.141 66.3595 15.8659
694 2 51.2625 66.2663 0.107293
695 2 55.0463 66.4627 15.8034
696 2 59.057 66.6591 15.7896
697 2 63.3514 66.7906 0.178488
698 2 67.2001 66.7698 15.8762
699 2 71.1141 66.8991 0.25216
700 2 75.2731 66.8884 0.0614651
701 2 79.1578 66.9626 16.0549
702 2 83.1285 67.0165 15.9472
703 2 87.1782 67.0024 15.9347
704 2 90.9678 67.2511 0.0334911
705 2 95.2061 67.2768 16.0204
706 2 99.3728 67.2356 16.0158
707 2 102.984 67.2741 0.144582
708 2 107.069 67.2632 0.0968051
709 2 111.09 67.4034 16.0556
710 2 115.027 67.5367 15.848
711 2 119.069 67.5096 0.205356
712 2 123.028 67.3397 15.8521
713 2 127.275 67.589 0.21688
714 2 131.186 67.4116 0.0487683
715 2 134.93 67.5525 15.8443
716 2 139.11 67.434 0.209745
717 2 142.974 67.5208 16.1166
718 2 146.713 67.3203 16.0192
719 2 150.811 67.2365 0.120888
720 2 154.626 67.1225 -0.0902029
721 2 158.635 71.2606 15.9534
722 2 4.20443 71.0517 0.0537209
723 2 8.08933 70.9913 0.0276724
724 2 11.9536 70.9016 0.260346
725 2 15.8354 70.9387 15.8386
726 2 19.8396 70.6783 0.0735777
727 2 23.6716 70.8612 0.105549
728 2 27.7261 70.7398 0.0347497
729 2 31.4914 70.6039 0.145005
730 2 35.4733 70.5233 0.0309886
731 2 39.3696 70.5425 0.194863
732 2 43.3501 70.5237 0.0362763
733 2 47.1449 70.3563 15.9512
734 2 51.1345 70.3074 -0.112291
735 2 54.9334 70.4379 15.8297
736 2 59.0279 70.4917 15.9341
737 2 63.0582 70.8882 15.9504
738 2 67.1428 70.587 15.827
739 2 71.0809 70.9769 0.233337
740 2 75.0673 70.8282 16.0066
741 2 79.0566 70.8201 0.0974404
742 2 83.2057 70.8038 0.359168
743 2 87.0176 71.0487 16.0041
744 2 90.9962 71.0393 15.7995
745 2 94.752 70.7554 15.8591
746 2 99.0892 71.3229 15.7811
747 2 102.889 71.2261 16.2104
748 2 106.913 71.1708 0.230039
749 2 111.077 71.3226 0.0779981
750 2 114.916 71.1086 0.196351
751 2 118.855 71.5131 0.20817
752 2 123.012 71.5331 15.9417
753 2 127.06 71.5371 0.150091
754 2 130.987 71.3913 0.154295
755 2 135.129 71.4599 0.0993834
756 2 138.997 71.6667 15.8359
757 2 143.059 71.3927 15.9491
758 2 146.739 71.3016 15.8579
759 2 150.675 71.28 0.1635
760 2 154.594 71.2084 0.0455767
761 2 0.43159 75.1181 15.8754
762 2 4.15931 75.194 15.9646
763 2 8.14361 74.9212 0.140224
764 2 12.206 74.9981 0.016476
765 2 16.1961 74.7482 15.9111
766 2 19.7923 74.6314 0.184889
767 2 23.7768 74.7593 0.159098
768 2 27.7517 74.7832 0.182631
769 2 31.4663 74.6433 0.124799
770 2 35.3773 74.4597 0.0334952
771 2 39.2421 74.5329 0.185985
772 2 43.2922 74.6366 -0.0100421
773 2 47.3129 74.5122 0.1607
774 2 51.1167 74.3437 15.862
775 2 55.1805 74.4482 15.6696
776 2 58.958 74.3281 15.8617
777 2 63.0567 74.6376 16.0901
778 2 66.985 74.648 15.8793
779 2 71.0037 74.6947 0.144992
780 2 75.2093 74.7569 -0.0149301
781 2 79.1694 74.7288 0.054693
782 2 82.7445 74.6519 15.9131
783 2 86.921 75.0285 15.9734
784 2 91.1809 74.8638 0.25138
785 2 94.9995 74.9988 15.7687
786 2 98.9224 75.1434 15.7703
787 2 102.942 75.1911 15.7716
788 2 106.994 74.9635 0.183768
789 2 110.855 75.2552 0.13408
790 2 115.01 75.0601 -0.03136
791 2 118.794 75.1224 0.326084
792 2 122.986 75.4531 0.318322
793 2 127.126 75.2484 16.0591
794 2 131.147 75.4762 15.8995
795 2 135.14 75.3109 0.0914666
796 2 138.946 75.4969 15.7646
797 2 142.998 75.6477 15.789
798 2 146.82 75.3397 15.98
799 2 150.778 75.1418 15.9777
800 2 154.967 75.2376 15.8265
801 2 0.104069 79.325 0.195253
802 2 4.11438 78.9284 0.195572
803 2 8.25026 78.9044 0.13951
804 2 12.1546 78.8074 15.8177
805 2 16.0809 78.8188 15.966
806 2 19.9599 78.8127 0.272248
807 2 23.6817 78.8104 0.0983761
808 2 27.5546 78.6213 0.0274544
809 2 31.5058 78.6073 16.0406
810 2 35.5646 78.6415 0.124242
811 2 39.3051 78.6816 0.170304
812 2 43.3239 78.6299 0.108256
813 2 47.1753 78.5014 0.32361
814 2 51.0634 78.1657 0.165742
815 2 54.9758 78.3704 0.276366
816 2 59.1218 78.4103 0.130024
817 2 62.924 78.249 0.205418
818 2 66.8973 78.4623 0.00503425
819 2 70.7386 78.6018 15.9761
820 2 74.8672 78.5446 0.183693
821 2 78.9798 78.674 0.136894
822 2 83.0594 78.5646 15.9457
823 2 86.9482 78.9328 15.9046
824 2 90.8923 78.7248 15.9592
825 2 94.8858 79.0238 0.201585
826 2 98.9666 78.9866 0.115257
827 2 102.895 79.2199 15.916
828 2 106.926 78.9568 0.0152032
829 2 110.969 78.9498 15.955
830 2 114.984 79.1637 0.159581
831 2 118.841 79.3174 0.227947
832 2 122.827 79.1806 15.9472
833 2 127.062 79.1806 0.39488
834 2 130.959 79.2604 16.0485
835 2 134.916 79.3269 0.0926581
836 2 139.063 79.5099 0.18327
837 2 142.922 79.5416 15.8502
838 2 146.93 79.3419 16.0661
839 2 150.918 79.255 15.8235
840 2 154.791 79.1991 0.169224
841 2 0.253244 83.1423 0.0418995
842 2 4.34693 83.0187 15.8711
843 2 8.19306 83.0097 0.193396
844 2 11.9491 82.8944 15.7774
845 2 15.8558 82.9471 16.0757
846 2 19.8616 82.7302 0.348327
847 2 23.7365 82.7364 0.392856
848 2 27.7412 82.7444 0.296343
849 2 31.7655 82.7724 15.9185
850 2 35.6685 82.8374 0.12169
851 2 39.3901 82.49 0.172207
852 2 43.3317 82.4678 0.135299
853 2 47.3528 82.3216 0.266338
854 2 51.0748 82.4152 0.210915
855 2 55.1371 82.333 0.210797
856 2 59.0841 82.3805 15.8829
857 2 62.9978 82.2806 15.9502
858 2 66.9037 82.5382 15.9449
859 2 70.8567 82.5412 0.269628
860 2 74.8914 82.5934 0.270756
861 2 78.6948 82.6317 0.184263
862 2 82.9045 82.5433 15.8105
863 2 86.8553 82.7197 15.8923
864 2 90.8348 82.7121 15.8657
865 2 94.8986 82.8768 16.0136
866 2 98.9363 82.954 16.0665
867 2 102.773 83.062 15.7452
868 2 106.869 82.9876 0.0578728
869 2 110.734 82.9591 15.9843
870 2 114.894 83.084 0.138207
871 2 118.782 83.0584 0.418198
872 2 122.784 83.0979 15.8889
873 2 126.938 83.0543 16.0589
874 2 130.875 83.1714 15.8503
875 2 135.029 83.2341 0.294151
876 2 138.908 83.3434 0.33421
877 2 142.92 83.336 0.159897
878 2 147.019 83.2848 15.879
879 2 151.01 83.3583 15.8687
880 2 154.735 83.2118 15.9876
881 2 0.449967 87.132 0.318113
882 2 4.25717 87.035 0.0701796
883 2 8.02643 87.0347 0.101013
884 2 12.2607 86.7721 15.9979
885 2 16.0547 86.9756 15.9638
886 2 19.9783 86.7863 0.30775
887 2 23.7149 86.8924 0.242881
888 2 27.8259 86.6918 0.157377
889 2 31.6751 86.6278 15.9344
890 2 35.687 86.4072 0.130799
891 2 39.6856 86.5311 -0.0416097
892 2 43.5618 86.3565 0.182291
893 2 47.3572 86.5436 0.244037
894 2 51.2856 86.4179 0.297986
895 2 55.1528 86.3903 0.227154
896 2 59.0859 86.3328 0.136887
897 2 62.9578 86.367 15.7728
898 2 66.8587 86.3489 15.7751
899 2 70.8378 86.3493 0.0411193
900 2 74.9 86.4096 15.8327
901 2 78.7633 86.4875 0.101484
902 2 82.61 86.4037 15.9137
903 2 86.7525 86.5986 0.0451133
904 2 90.767 86.8231 15.9624
905 2 94.8467 86.639 15.8369
906 2 98.5715 86.7448 15.8738
907 2 102.707 87.0748 15.8045
908 2 106.863 86.9111 15.9315
909 2 110.708 86.9678 0.302735
910 2 114.79 86.8235 15.9003
911 2 118.635 86.9345 15.9138
912 2 122.981 86.8096 16.1293
913 2 126.838 86.9474 16.0204
914 2 130.822 86.9492 16.0707
915 2 134.8 87.3583 0.0649512
916 2 138.801 87.3663 0.0875826
917 2 142.862 87.1753 15.995
918 2 146.766 87.0908 16.0525
919 2 150.922 87.3168 15.8158
920 2 154.987 87.2488 0.218332
921 2 0.308304 91.003 15.7091
922 2 4.48852 90.9261 15.869
923 2 8.36218 90.8766 0.241855
924 2 12.0955 90.8743 16.06
925 2 16.1438 90.827 15.926
926 2 20.1383 90.8309 0.139549
927 2 24.0513 90.6524 16
928 2 27.9332 90.7461 0.0840028
929 2 31.8341 90.6246 15.9456
930 2 35.738 90.5232 0.247401
931 2 39.6109 90.6239 0.0115534
932 2 43.3905 90.4186 0.020678
933 2 47.2354 90.5328 0.162461
934 2 51.1621 90.2406 15.8454
935 2 55.109 90.2764 0.088646
936 2 58.8256 90.4966 15.921
937 2 62.8609 90.2478 0.079944
938 2 66.6427 90.424 0.0449293
939 2 70.6225 90.4725 0.0923235
940 2 74.6164 90.2878 15.7591
941 2 78.7389 90.4379 15.9383
942 2 82.7665 90.4165 15.75
943 2 86.7586 90.4979 15.8775
944 2 90.7369 90.5876 0.173945
945 2 94.6941 90.7266 16.0696
946 2 98.6291 90.8953 15.7318
947 2 102.733 90.7339 15.9589
948 2 106.818 90.7625 15.879
949 2 110.702 90.7469 15.7498
950 2 114.887 90.9965 16.0488
951 2 118.619 90.6943 0.151365
952 2 122.854 91.0404 0.28834
953 2 126.959 90.8443 0.300469
954 2 130.88 91.0939 16.0848
955 2 134.775 91.2051 0.248521
956 2 138.943 90.992 16.0493
957 2 142.933 91.2672 15.9466
958 2 146.797 90.9214 0.166708
959 2 150.844 91.1496 15.9868
960 2 154.706 91.2745 16.0359
961 2 0.430746 95.1542 16.1151
962 2 4.28623 94.9704 15.8849
963 2 8.34342 94.9346 0.0359674
964 2 12.0099 94.8848 15.8707
965 2 16.0173 94.8298 15.8934
966 2 19.9992 94.8586 16.0255
967 2 23.848 94.8393 16.1478
968 2 27.8844 94.538 0.183515
969 2 31.7727 94.6944 16.045
970 2 35.6139 94.5247 0.147503
971 2 39.5451 94.6087 0.240844
972 2 43.5875 94.6152 0.112684
973 2 47.2659 94.6539 16.0715
974 2 51.2844 94.3766 15.8424
975 2 55.2475 94.5158 15.7317
976 2 58.947 94.4716 -0.0655064
977 2 63.0148 94.3306 15.7448
978 2 66.8648 94.3674 15.8605
979 2 70.7146 94.4186 -0.125366