ITEM: TIMESTEP
19300
ITEM: NUMBER OF ATOMS
32000
ITEM: BOX BOUNDS xy xz yz pp pp pp
0.0000000000000000e+00 1.5831999999999999e+02 0.0000000000000000e+00
0.0000000000000000e+00 1.5831999999999999e+02 0.0000000000000000e+00
1.6716942991208228e-01 1.5930542570087749e+01 0.0000000000000000e+00
ITEM: ATOMS id type x y z
1 2 158.192 157.61 15.9518
2 2 3.789 157.93 0.191814
3 2 7.87625 157.789 16.1276
4 2 11.9435 157.832 15.935
5 2 15.6895 157.869 15.9394
6 2 19.9202 158.112 16.0605
7 2 23.7049 157.847 0.118766
8 2 27.8076 158.064 16.0396
9 2 31.7148 158.196 15.986
10 2 35.8697 158.1 16.0751
11 2 39.7119 158.289 0.109116
12 2 43.8378 0.0151061 0.428123
13 2 47.6862 158.305 15.8098
14 2 51.7857 0.0396771 0.144121
15 2 55.8698 158.471 15.8
16 2 59.935 0.284897 0.223889
17 2 64.0867 0.186868 15.9451
18 2 67.8337 0.274997 0.135606
19 2 71.7064 158.477 0.251431
20 2 75.4132 158.569 0.220357
21 2 79.5296 0.231962 15.9005
22 2 83.3639 158.458 16.1422
23 2 87.4466 158.301 15.9679
24 2 91.1801 158.215 0.211001
25 2 95.0572 158.282 15.8841
26 2 99.1333 158.216 16.0336
27 2 102.933 158.075 0.307384
28 2 106.985 157.978 15.7972
29 2 110.814 157.97 0.328272
30 2 114.807 158.066 0.37304
31 2 118.646 157.917 16.0012
32 2 122.468 157.818 15.9087
33 2 126.433 157.726 15.9506
34 2 130.29 157.63 16.0537
35 2 134.168 157.682 16.0411
36 2 138.023 157.501 15.9237
37 2 142.208 157.439 0.16699
38 2 146.189 157.486 0.185471
39 2 150.107 157.531 0.176286
40 2 154.26 157.564 0.0998885
41 2 158.002 3.38285 0.175895
42 2 3.73389 3.37889 15.9801
43 2 7.79298 3.44276 0.23903
44 2 11.7206 3.3798 16.0863
45 2 15.6468 3.64606 0.0419891
46 2 19.7079 3.53083 0.094874
47 2 23.7921 3.67309 15.9467
48 2 27.666 3.68641 15.8614
49 2 31.7857 3.60529 0.0835654
50 2 35.8211 3.77067 0.275931
51 2 39.7456 3.99011 16.0082
52 2 43.7473 4.00216 0.096586
53 2 47.7974 3.89803 15.8561
54 2 51.9009 4.0149 0.274682
55 2 55.8189 4.11886 0.186342
56 2 59.8853 4.17404 16.037
57 2 63.9082 4.08886 15.8358
58 2 67.6444 4.16132 0.180428
59 2 71.6183 4.25749 0.100267
60 2 75.7652 4.23185 0.3514
61 2 79.6858 4.05219 0.0575613
62 2 83.3858 4.1337 16.1044
63 2 87.4899 4.01641 16.034
64 2 91.3256 3.83051 0.222042
65 2 95.1943 4.05954 15.9928
66 2 99.1679 3.94474 15.9789
67 2 103.177 3.84957 16.0913
68 2 107.075 3.65155 15.9627
69 2 110.775 3.68225 15.9934
70 2 114.858 3.50149 15.8405
71 2 118.719 3.54475 15.9444
72 2 122.426 3.45609 16.0405
73 2 126.519 3.23198 0.0545724
74 2 130.285 3.35713 0.179843
75 2 134.332 3.26165 15.8536
76 2 138.167 3.2131 15.7693
77 2 142.274 3.25339 15.9405
78 2 146.117 3.06701 0.167637
79 2 150.081 2.99807 15.8241
80 2 154.05 2.89904 0.321648
81 2 158.008 7.11073 0.0831847
82 2 3.65826 7.41381 0.156826
83 2 7.54986 7.51544 16.0256
84 2 11.8036 7.33181 0.200726
85 2 15.6719 7.51871 0.130316
86 2 19.5712 7.24401 0.188048
87 2 23.8433 7.59607 16.1442
88 2 27.7704 7.52528 0.0409853
89 2 31.6551 7.53809 15.9058
90 2 35.7617 7.66236 16.0127
91 2 39.5008 7.68214 -0.0899825
92 2 43.8445 7.74709 15.8775
93 2 47.8374 7.70078 15.9066
94 2 51.6947 7.98951 15.9208
95 2 55.677 7.81222 -0.0658664
96 2 59.7169 8.08633 0.243497
97 2 63.6292 7.92499 0.117301
98 2 67.5903 8.064 16.1451
99 2 71.8397 8.12401 16.1087
100 2 75.6512 8.23941 0.22469
101 2 79.5518 7.88708 0.266196
102 2 83.3377 7.96608 0.115237
103 2 87.3608 8.00447 0.0945826
104 2 91.3183 7.76887 16.0989
105 2 95.2726 7.78917 16.0697
106 2 99.2831 7.66829 0.208849
107 2 103.116 7.89756 0.183618
108 2 107.04 7.95376 16.1434
109 2 111.147 7.78486 0.130381
110 2 114.704 7.71936 16.0271
111 2 118.608 7.57684 0.220957
112 2 122.742 7.42235 0.245662
113 2 126.436 7.40032 15.9477
114 2 130.392 7.24813 15.9461
115 2 134.318 7.32231 0.2166
116 2 138.278 7.27566 0.169879
117 2 142.153 7.33802 0.174071
118 2 146.1 6.99431 0.196391
119 2 149.99 6.95211 16.0276
120 2 153.979 7.13083 15.8999
121 2 157.829 11.1279 15.9066
122 2 3.66229 11.2687 0.174893
123 2 7.47409 11.3169 15.9331
124 2 11.7749 11.2682 15.9198
125 2 15.7227 11.4417 0.0662437
126 2 19.6628 11.4819 0.0287488
127 2 23.7228 11.5105 15.7676
128 2 27.676 11.3915 15.9568
129 2 31.8621 11.4763 15.8712
130 2 35.6497 11.4439 0.272909
131 2 39.7663 11.7011 16.0336
132 2 43.7145 11.5948 0.243067
133 2 47.7776 11.728 0.164606
134 2 51.5228 11.6796 16.0004
135 2 55.8727 11.6446 16.0298
136 2 59.7565 11.8473 0.184664
137 2 63.7199 11.9742 16.1068
138 2 67.5735 11.7767 16.0591
139 2 71.8295 12.1057 0.285751
140 2 75.828 11.9882 16.1242
141 2 79.503 12.0941 0.356176
142 2 83.3858 12.1059 0.184759
143 2 87.3907 11.9665 15.7986
144 2 91.1386 11.8754 15.992
145 2 95.315 11.7871 0.474319
146 2 99.1147 11.8246 0.277586
147 2 103.237 11.8868 15.9021
148 2 107.116 11.619 15.9072
149 2 110.94 11.6799 16.0867
150 2 114.758 11.6249 15.9149
151 2 118.688 11.5673 0.145084
152 2 122.593 11.5958 -0.00615284
153 2 126.718 11.4094 16.047
154 2 130.459 11.4612 0.106229
155 2 134.504 11.2783 16.1257
156 2 138.334 11.2289 15.8707
157 2 142.099 11.2764 0.332007
158 2 146.263 11.0575 0.0554657
159 2 150.043 11.1634 15.7841
160 2 154.076 11.1566 0.0714931
161 2 158.004 14.9531 0.295327
162 2 3.67572 15.0874 16.069
163 2 7.66757 15.1381 15.711
164 2 11.598 15.3052 0.104105
165 2 15.6596 15.2089 0.24011
166 2 19.7416 15.4552 15.7777
167 2 23.7088 15.1714 0.0509376
168 2 27.6845 15.5 15.9028
169 2 31.5042 15.4562 0.173235
170 2 35.7683 15.6817 0.271494
171 2 39.7151 15.4663 15.8886
172 2 43.6924 15.6594 0.170258
173 2 47.7595 15.7823 0.284003
174 2 51.8526 15.5278 0.151031
175 2 55.8107 15.8661 15.8475
176 2 59.7498 15.8069 16.0497
177 2 63.7299 16.0693 15.945
178 2 67.6359 16.0981 16.2361
179 2 71.7157 16.0166 16.1821
180 2 75.6798 15.9549 15.8415
181 2 79.8188 15.9823 16.1569
182 2 83.5767 15.9533 16.0288
183 2 87.5225 16.0683 0.150173
184 2 91.3122 16.0323 15.9516
185 2 95.2935 15.9276 0.127187
186 2 99.2739 15.8331 15.8676
187 2 102.887 15.7161 0.255249
188 2 107.043 15.7048 15.7873
189 2 111.075 15.674 16.0166
190 2 114.967 15.5439 15.9903
191 2 118.81 15.4364 15.7763
192 2 122.645 15.6742 15.6123
193 2 126.523 15.6145 0.00987161
194 2 130.478 15.3369 -0.00393596
195 2 134.662 15.416 15.8787
196 2 138.453 15.1929 16.1247
197 2 142.435 15.0944 0.16556
198 2 146.175 15.1814 0.136903
199 2 150.162 15.079 0.20289
200 2 154.105 15.2237 0.0189112
201 2 158.076 19.0444 15.9786
202 2 3.71433 18.9883 15.9507
203 2 7.47282 19.0074 15.9562
204 2 11.6215 19.0638 15.7691
205 2 15.7205 19.2369 15.9196
206 2 19.5913 19.1702 15.8965
207 2 23.6213 19.249 0.156581
208 2 27.8701 19.3332 0.0819763
209 2 31.6135 19.3968 15.9226
210 2 35.5422 19.4067 0.00183953
211 2 39.6188 19.5097 0.0565113
212 2 43.6244 19.6127 16.0618
213 2 47.6618 19.442 0.172659
214 2 51.6685 19.6989 15.9075
215 2 55.7393 19.5572 16.0021
216 2 59.7226 19.8672 15.9144
217 2 63.6493 19.9683 15.8612
218 2 67.6485 19.8494 16.0684
219 2 71.841 19.8494 15.8945
220 2 75.5945 20.0189 15.829
221 2 79.622 19.8944 15.9399
222 2 83.6795 19.9318 15.8844
223 2 87.5321 20.1644 15.9303
224 2 91.3785 19.8849 16.0287
225 2 95.1736 19.9805 0.174593
226 2 99.364 19.8468 0.00768739
227 2 103.28 19.7709 16.0475
228 2 106.957 19.6634 15.9162
229 2 111.062 19.8845 0.252515
230 2 114.831 19.7188 15.9649
231 2 118.62 19.4615 0.186657
232 2 122.701 19.6351 16.0773
233 2 126.506 19.3671 0.167558
234 2 130.504 19.3779 16.0101
235 2 134.501 19.3873 0.112152
236 2 138.579 19.1334 0.253308
237 2 142.444 19.0277 15.9483
238 2 146.404 19.2768 0.200431
239 2 150.215 18.888 0.220076
240 2 154.081 19.1766 15.9263
241 2 158.096 22.9831 0.309374
242 2 3.682 23.1151 15.6268
243 2 7.66675 22.897 -0.0042109
244 2 11.5888 22.9838 0.210559
245 2 15.7541 23.178 16.0148
246 2 19.4743 23.0059 0.0430529
247 2 23.6902 23.2948 15.9712
248 2 27.7371 23.3439 0.162723
249 2 31.6999 23.2041 15.9521
250 2 35.5147 23.2575 0.0717385
251 2 39.6352 23.5721 0.13664
252 2 43.4975 23.4212 16.0163
253 2 47.5197 23.3719 15.7929
254 2 51.7488 23.6477 0.207804
255 2 55.7301 23.547 16.1028
256 2 59.5976 23.6135 15.7823
257 2 63.6981 23.8208 -0.0449868
258 2 67.607 23.7056 -0.0375988
259 2 71.5274 23.8568 16.0594
260 2 75.6177 23.9661 0.155227
261 2 79.7395 23.8312 15.7576
262 2 83.6569 23.8447 15.7827
263 2 87.683 24.0371 15.9919
264 2 91.6688 24.0922 15.9448
265 2 95.6166 23.813 16.0265
266 2 99.5719 23.9314 16.006
267 2 103.496 23.7094 15.8676
268 2 107.37 23.8071 15.9442
269 2 111.279 23.6936 16.0439
270 2 114.983 23.4901 16.1767
271 2 118.901 23.6117 0.315267
272 2 122.833 23.492 0.380551
273 2 126.683 23.453 0.211981
274 2 130.702 23.1879 0.148842
275 2 134.495 23.2735 0.186958
276 2 138.559 23.2439 0.210547
277 2 142.503 23.2467 16.2102
278 2 146.263 23.1314 0.208945
279 2 150.228 23.2235 15.7117
280 2 154.129 23.1866 0.283158
281 2 158.204 27.1787 0.122247
282 2 3.7234 27.3635 0.00811867
283 2 7.67773 26.9469 15.961
284 2 11.7033 27.0642 0.142186
285 2 15.6609 26.9737 0.267111
286 2 19.6398 26.9647 15.7686
287 2 23.5206 27.2088 -0.00401993
288 2 27.6293 27.228 0.270528
289 2 31.5103 27.1377 15.9381
290 2 35.4644 27.1804 0.00473115
291 2 39.5625 27.34 15.7774
292 2 43.4718 27.3412 15.7461
293 2 47.6183 27.4296 15.6421
294 2 51.6369 27.5416 15.7382
295 2 55.5681 27.5244 15.9475
296 2 59.6693 27.5579 -0.000513047
297 2 63.6588 27.6966 0.118018
298 2 67.7043 27.6462 0.120671
299 2 71.8096 27.6969 0.146948
300 2 75.8274 27.7433 15.902
301 2 79.81 27.9089 16.0147
302 2 83.5855 27.8866 15.874
303 2 87.4442 27.9334 15.8302
304 2 91.6593 27.9705 16.1231
305 2 95.6228 27.8255 16.2501
306 2 99.3132 27.8805 16.0862
307 2 103.471 27.8977 16.2061
308 2 107.207 27.5964 0.347973
309 2 111.318 27.8043 0.394967
310 2 115.194 27.4559 0.271211
311 2 119.046 27.5033 15.9289
312 2 122.968 27.4701 0.317557
313 2 126.932 27.4312 0.302132
314 2 130.733 27.4354 16.0355
315 2 134.59 27.21 15.9266
316 2 138.422 27.2682 0.191136
317 2 142.334 26.9103 16.1586
318 2 146.314 27.1268 0.271542
319 2 150.289 27.0752 0.0823826
320 2 154.326 27.1743 0.01162
321 2 158.093 31.131 -0.137301
322 2 3.8039 31.079 15.8688
323 2 7.85781 30.9638 0.198525
324 2 11.6489 31.0865 15.9243
325 2 15.7105 30.8204 0.216464
326 2 19.5643 30.7728 0.094227
327 2 23.5961 31.0309 0.0441055
328 2 27.4838 30.9848 0.176529
329 2 31.3674 31.0888 0.00604682
330 2 35.2655 31.1107 15.7898
331 2 39.4821 31.2345 15.8302
332 2 43.4706 31.2362 15.6707
333 2 47.422 31.4378 15.7882
334 2 51.5057 31.5164 0.272409
335 2 55.5799 31.4745 0.113822
336 2 59.4245 31.5744 15.8498
337 2 63.6362 31.6649 15.9327
338 2 67.6194 31.569 15.821
339 2 71.5914 31.8376 0.153503
340 2 75.6386 31.6833 0.329423
341 2 79.7584 31.7982 15.9997
342 2 83.5287 31.8129 0.204031
343 2 87.8329 31.845 -0.146775
344 2 91.6233 31.9301 0.165392
345 2 95.533 31.7403 15.979
346 2 99.5449 31.9181 15.9548
347 2 103.378 31.741 16.0345
348 2 107.403 31.7558 16.1812
349 2 111.226 31.6655 0.173093
350 2 114.958 31.5938 15.8749
351 2 118.942 31.5438 15.8796
352 2 122.901 31.5616 15.9774
353 2 126.9 31.6557 15.9064
354 2 130.652 31.4915 15.9253
355 2 134.498 31.2964 15.904
356 2 138.592 31.2934 0.347139
357 2 142.601 31.2706 0.196731
358 2 146.32 31.261 15.6399
359 2 150.221 31.2074 -0.0767895
360 2 153.96 31.2234 0.104955
361 2 157.971 35.1607 0.0848819
362 2 3.78455 35.059 0.181041
363 2 7.79432 34.9739 0.370965
364 2 11.6193 34.8523 0.209389
365 2 15.686 34.9365 0.102107
366 2 19.6305 34.8867 0.0777248
367 2 23.7333 35.0062 0.085734
368 2 27.5107 34.7925 -0.0653921
369 2 31.5282 34.8281 0.12248
370 2 35.3787 34.9193 0.370234
371 2 39.5208 34.9242 15.927
372 2 43.4299 35.1669 0.148425
373 2 47.5022 35.3582 15.7694
374 2 51.6656 35.371 -0.145554
375 2 55.4628 35.3709 15.8078
376 2 59.5141 35.4778 0.204204
377 2 63.4203 35.5443 16.0794
378 2 67.7086 35.4451 0.0921782
379 2 71.4192 35.5902 0.246362
380 2 75.6227 35.8141 0.0296088
381 2 79.6399 35.6181 16.098
382 2 83.6787 35.8994 0.219107
383 2 87.4778 35.6697 16.0175
384 2 91.4429 35.6392 0.320325
385 2 95.2962 35.8255 15.9029
386 2 99.3582 35.8289 15.9455
387 2 103.475 35.6116 16.0217
388 2 107.447 35.5603 15.9367
389 2 111.186 35.669 0.175995
390 2 115.093 35.6608 16.0159
391 2 119.08 35.5488 16.0298
392 2 122.828 35.7099 0.309738
393 2 126.799 35.5394 0.141871
394 2 130.801 35.4193 0.216421
395 2 134.812 35.2783 0.129616
396 2 138.598 35.1797 15.87
397 2 142.56 35.2423 0.145181
398 2 146.564 35.1157 16.0756
399 2 150.291 35.2899 0.116706
400 2 154.098 35.1312 -0.0136095
401 2 158.196 39.1852 0.0415887
402 2 3.77032 38.9738 0.209414
403 2 7.68062 38.9383 0.226151
404 2 11.6985 39.08 15.9272
405 2 15.5473 38.7966 0.218089
406 2 19.5295 38.9731 0.180323
407 2 23.4587 38.8263 15.7957
408 2 27.4157 38.8008 0.0321027
409 2 31.5365 38.9033 15.8025
410 2 35.5627 38.9435 0.0390878
411 2 39.4225 39.0341 -0.142782
412 2 43.4648 39.2116 16.0388
413 2 47.5287 39.1593 0.0337346
414 2 51.381 39.4679 15.8791
415 2 55.5643 39.2289 -0.00172846
416 2 59.4397 39.2882 15.9178
417 2 63.4989 39.4846 0.12334
418 2 67.4266 39.3473 0.120162
419 2 71.6394 39.5891 15.9841
420 2 75.4452 39.6068 0.149523
421 2 79.4698 39.5153 15.8159
422 2 83.5997 39.6097 15.8337
423 2 87.5415 39.7684 0.23455
424 2 91.6351 39.7079 15.867
425 2 95.5745 39.7783 0.363346
426 2 99.391 39.7022 0.184108
427 2 103.655 39.5919 15.9046
428 2 107.375 39.5866 0.108038
429 2 111.213 39.7307 16.0333
430 2 115.118 39.7396 0.186966
431 2 119.11 39.7622 0.276014
432 2 123.018 39.7326 15.8867
433 2 127.087 39.7711 15.9055
434 2 130.84 39.4253 15.8347
435 2 134.64 39.5628 -0.0802193
436 2 138.505 39.6326 0.181971
437 2 142.574 39.1291 0.187425
438 2 146.541 39.1567 15.9231
439 2 150.244 39.1184 15.8814
440 2 154.214 39.0906 15.8048
441 2 158.407 43.1426 -0.0184869
442 2 3.9541 42.9228 0.215608
443 2 7.71819 43.0163 0.238209
444 2 11.7428 42.9749 0.188863
445 2 15.7292 42.8186 0.207395
446 2 19.4041 42.6825 0.246157
447 2 23.4313 42.8585 0.160189
448 2 27.4377 42.7101 0.227616
449 2 31.5225 42.9018 -0.0312551
450 2 35.3504 43.0281 0.133321
451 2 39.3495 42.9752 0.100769
452 2 43.3873 43.0635 0.081123
453 2 47.4336 43.0787 0.0218068
454 2 51.3987 43.2342 0.236175
455 2 55.591 43.2494 15.8835
456 2 59.4691 43.076 15.8795
457 2 63.4254 43.4224 0.160084
458 2 67.4292 43.2763 15.8072
459 2 71.3169 43.3089 0.154804
460 2 75.1787 43.5116 15.9182
461 2 79.4967 43.5433 15.7908
462 2 83.5676 43.5972 0.142967
463 2 87.527 43.645 0.153894
464 2 91.4995 43.689 0.166589
465 2 95.577 43.6067 15.7943
466 2 99.403 43.6548 15.6797
467 2 103.535 43.5581 15.9975
468 2 107.38 43.7104 15.9569
469 2 111.427 43.6561 16.0545
470 2 115.321 43.7571 16.0113
471 2 119.307 43.7788 16.0172
472 2 123.077 43.6066 16.0011
473 2 127.056 43.6095 15.9853
474 2 131.058 43.598 0.382796
475 2 134.831 43.3908 0.147158
476 2 138.652 43.3964 0.205541
477 2 142.685 43.2749 15.8361
478 2 146.562 43.1348 15.7902
479 2 150.227 43.2196 15.9295
480 2 154.388 43.0976 0.412664
481 2 158.37 47.17 0.143371
482 2 4.05295 46.9409 0.288575
483 2 7.73386 46.8611 0.0960158
484 2 11.7566 46.908 16.1442
485 2 15.6369 46.958 0.0837274
486 2 19.5879 46.6983 16.1004
487 2 23.6256 46.7553 0.199381
488 2 27.4462 46.5905 0.00780851
489 2 31.1461 46.8703 0.0961615
490 2 35.4204 46.8146 0.186228
491 2 39.2794 46.7914 15.9971
492 2 43.2651 47.0431 0.141042
493 2 47.3223 46.9451 0.150113
494 2 51.4483 47.0668 -0.00645713
495 2 55.4365 47.0095 0.0832806
496 2 59.4109 47.1651 15.8068
497 2 63.3532 47.228 15.8657
498 2 67.3483 47.1473 0.152883
499 2 71.2961 47.2312 -0.137792
500 2 75.412 47.4222 -0.101437
501 2 79.1409 47.4428 15.8394
502 2 83.3264 47.574 -0.0338363
503 2 87.5339 47.5037 0.155256
504 2 91.4049 47.6362 0.185617
505 2 95.5004 47.5344 15.8324
506 2 99.2991 47.2966 15.8662
507 2 103.418 47.4282 0.319191
508 2 107.337 47.7123 0.185952
509 2 111.37 47.6043 15.9675
510 2 115.377 47.5865 15.8862
511 2 119.314 47.7269 0.275127
512 2 123.344 47.7144 16
513 2 127.049 47.5284 0.239164
514 2 130.996 47.5651 15.8747
515 2 134.826 47.4971 0.284559
516 2 138.666 47.2924 -0.0157887
517 2 142.714 47.1757 0.115803
518 2 146.495 47.2614 0.26244
519 2 150.472 47.4407 16.0515
520 2 154.521 46.998 16.0492
521 2 158.423 51.0746 0.102344
522 2 4.18266 51.048 15.8582
523 2 7.69857 50.9349 0.1917
524 2 11.771 50.9316 15.9067
525 2 15.752 50.8236 0.257538
526 2 19.6901 50.8364 0.209548
527 2 23.464 50.7156 15.9685
528 2 27.399 50.8556 0.365408
529 2 31.2494 50.5781 0.15913
530 2 35.1699 50.6112 -0.102006
531 2 39.4103 50.7707 0.167424
532 2 43.314 50.8099 16.064
533 2 47.3661 50.6458 15.9168
534 2 51.2154 50.9087 16.0063
535 2 55.327 51.1329 0.227503
536 2 59.2848 50.8547 15.8353
537 2 63.3727 51.1929 15.8024
538 2 67.3865 51.1449 -0.0856788
539 2 71.2151 51.0972 15.7117
540 2 75.3153 51.3179 -0.00076019
541 2 79.2232 51.3688 -0.0625954
542 2 83.2618 51.3853 0.0443394
543 2 87.4224 51.5068 0.314638
544 2 91.4226 51.2541 0.0517109
545 2 95.378 51.493 16.0153
546 2 99.4552 51.4015 15.9743
547 2 103.356 51.5068 16.09
548 2 107.23 51.6445 0.273836
549 2 111.299 51.6808 0.188619
550 2 115.433 51.7163 0.328464
551 2 119.453 51.5507 15.9681
552 2 123.152 51.746 -0.0359233
553 2 127.247 51.6402 15.8144
554 2 131.181 51.5759 0.071548
555 2 134.862 51.5128 15.814
556 2 138.919 51.3419 0.0921644
557 2 142.548 51.2424 15.7584
558 2 146.613 51.2811 -0.0279178
559 2 150.655 51.2787 0.227978
560 2 154.571 51.3491 16.2663
561 2 0.145126 55.0987 0.13046
562 2 4.01989 55.244 0.114748
563 2 8.16075 55.0375 0.216414
564 2 12.1054 54.9834 0.168428
565 2 15.9087 54.7123 15.8487
566 2 19.8264 54.9248 0.0817851
567 2 23.6283 54.8995 0.362198
568 2 27.3071 54.968 15.9494
569 2 31.3173 54.6012 0.138914
570 2 35.1722 54.5572 -0.0170871
571 2 39.1325 54.6712 0.204659
572 2 43.3411 54.8959 0.147027
573 2 47.0582 54.7081 -0.0904879
574 2 51.349 54.8628 0.207754
575 2 55.3817 54.7569 15.9805
576 2 59.4365 55.0801 15.8106
577 2 63.3089 54.9832 15.898
578 2 67.3374 55.1466 0.0862643
579 2 71.2774 55.0384 0.105171
580 2 75.4321 55.1487 15.9342
581 2 79.3141 55.0136 15.7988
582 2 83.366 55.3575 -0.0292808
583 2 87.2553 55.1733 15.9725
584 2 91.1747 55.4811 0.168831
585 2 95.1369 55.4396 0.365604
586 2 99.3848 55.4325 16.0075
587 2 103.237 55.3761 0.175848
588 2 107.211 55.525 0.0107011
589 2 111.278 55.5893 15.8874
590 2 115.318 55.563 0.211447
591 2 119.194 55.4717 15.8809
592 2 123.079 55.6667 0.138369
593 2 127.157 55.6686 0.369887
594 2 130.907 55.566 15.7993
595 2 134.929 55.5061 16.0703
596 2 138.793 55.2858 15.6919
597 2 142.822 55.3969 -0.028844
598 2 146.619 55.0789 0.137012
599 2 150.468 55.2707 0.136006
600 2 154.299 55.1332 0.192605
601 2 158.253 59.0582 0.253133
602 2 4.04501 58.9668 15.8882
603 2 7.88802 58.9976 0.0328809
604 2 11.8126 58.8792 16.0472
605 2 15.839 58.8456 15.7222
606 2 19.7386 58.8121 0.141697
607 2 23.4748 58.8221 0.0374321
608 2 27.2983 58.6949 -0.00641442
609 2 31.2964 58.6701 0.0920578
610 2 35.1673 58.724 15.7614
611 2 39.3074 58.5507 0.144415
612 2 43.1238 58.6488 0.112853
613 2 47.057 58.5423 0.195811
614 2 51.1511 58.767 0.429982
615 2 55.3013 58.7165 15.9246
616 2 59.262 58.7324 15.6744
617 2 63.0376 58.9379 15.6953
618 2 67.2457 59.0589 16.012
619 2 71.2597 59.2176 15.9116
620 2 75.3701 59.0628 16.0374
621 2 79.2806 59.073 0.0298062
622 2 83.2649 59.3388 0.237635
623 2 87.0597 59.1043 0.10471
624 2 91.2215 59.0527 0.29857
625 2 95.2649 59.3328 0.250634
626 2 99.0727 59.4549 16.1228
627 2 103.111 59.4112 0.278318
628 2 107.158 59.4469 0.183372
629 2 111.287 59.5069 15.9132
630 2 115.297 59.597 15.8678
631 2 119.226 59.4669 15.9906
632 2 122.942 59.6964 15.9582
633 2 126.701 59.6337 0.128643
634 2 130.816 59.4034 15.8247
635 2 134.934 59.4009 15.8063
636 2 138.901 59.3834 16.1005
637 2 142.807 59.4674 0.0280537
638 2 146.767 59.2039 0.0148155
639 2 150.727 59.0739 0.118044
640 2 154.514 59.172 0.144929
641 2 0.253866 63.1985 0.238242
642 2 3.93952 63.0268 0.100401
643 2 7.89781 62.9006 15.8423
644 2 11.9032 62.7994 15.9424
645 2 15.7332 62.7619 0.0957245
646 2 19.6917 62.7373 0.221029
647 2 23.5794 62.8204 0.211458
648 2 27.5418 62.6862 0.227941
649 2 31.4896 62.5919 0.172079
650 2 35.4618 62.525 0.153082
651 2 39.3376 62.5706 -0.025604
652 2 43.0879 62.4841 15.8202
653 2 47.0551 62.5055 15.7829
654 2 51.1691 62.6018 0.184931
655 2 55.062 62.7553 0.0910268
656 2 59.2712 62.5688 15.9249
657 2 62.9738 62.7803 0.12383
658 2 67.0745 62.8263 15.8068
659 2 71.1431 63.0908 15.7988
660 2 75.1819 63.1235 0.226477
661 2 79.229 63.0646 15.9148
662 2 82.9447 63.1756 0.0779325
663 2 87.1751 63.2399 15.8285
664 2 91.0471 63.1192 15.8834
665 2 95.248 63.2948 15.8343
666 2 99.0549 63.3272 15.8325
667 2 103.032 63.2872 0.0935487
668 2 107.111 63.353 15.9919
669 2 111.095 63.4045 15.8782
670 2 114.984 63.6419 0.109123
671 2 119.013 63.4854 0.304522
672 2 123.162 63.4321 0.186542
673 2 127.098 63.7398 15.9991
674 2 131.065 63.4762 0.339826
675 2 134.823 63.3368 15.8558
676 2 139.037 63.3457 0.155298
677 2 142.858 63.2868 15.7522
678 2 146.785 63.2389 -0.0836987
679 2 150.632 63.0541 0.089632
680 2 154.448 63.1212 0.114345
681 2 0.142841 67.2219 -0.0370537
682 2 4.11423 66.9898 0.151929
683 2 7.97711 66.9496 15.7143
684 2 11.816 67.0398 15.911
685 2 15.8452 67.0621 0.134568
686 2 19.6651 66.846 0.0781212
687 2 23.7319 66.8021 0.272268
688 2 27.424 66.6003 0.217621
689 2 31.3395 66.4721 0.0359153
690 2 35.3193 66.67 15.9596
691 2 39.0202 66.7408 15.8762
692 2 43.1895 66.4674 15.7102
693 2 47.0714 66.4704 15.836
694 2 51.115 66.4103 0.393913
695 2 55.0889 66.7086 16.0706
696 2 59.052 66.6061 15.8866
697 2 63.0663 66.6709 0.238121
698 2 67.0856 66.8011 15.8902
699 2 71.1113 67.005 0.141537
700 2 75.212 66.862 0.120652
701 2 79.1187 67.1202 16.059
702 2 83.0434 67.0451 15.7425
703 2 86.9231 67.0321 16.0433
704 2 90.9258 67.3241 0.209428
705 2 95.1717 67.1565 16.1084
706 2 99.1954 67.2112 16.2139
707 2 102.865 67.3853 0.290156
708 2 107.026 67.3161 0.00346797
709 2 111.143 67.3261 15.9512
710 2 115.099 67.2607 15.8272
711 2 118.94 67.4254 0.267427
712 2 123.078 67.2835 15.8522
713 2 127.213 67.4358 0.230371
714 2 131.129 67.3803 -0.112668
715 2 134.937 67.2881 15.7239
716 2 138.74 67.2893 0.159131
717 2 142.824 67.383 15.7724
718 2 146.685 67.2271 15.813
719 2 150.935 67.2004 0.142745
720 2 154.74 67.0898 -0.0528576
721 2 158.547 71.0058 15.9766
722 2 4.15013 71.1196 0.00611003
723 2 7.9423 71.004 0.0279593
724 2 11.6663 70.947 0.151183
725 2 15.7993 70.8926 15.9908
726 2 19.8326 70.9307 0.0222605
727 2 23.5737 70.8077 0.181151
728 2 27.5123 70.659 0.00504651
729 2 31.5047 70.6198 0.187523
730 2 35.4054 70.5698 0.0821821
731 2 39.4958 70.4921 0.127158
732 2 43.1371 70.7325 0.0736874
733 2 47.0167 70.4017 15.9223
734 2 50.9721 70.2889 0.101022
735 2 54.8262 70.4681 16.0293
736 2 58.9997 70.494 15.9859
737 2 62.9473 70.6802 15.9565
738 2 66.8098 70.4843 15.9404
739 2 71.0315 70.9311 0.212531
740 2 75.0356 70.7552 16.077
741 2 78.7719 70.8974 0.237366
742 2 83.0105 70.6966 0.225729
743 2 86.7387 71.1186 15.9149
744 2 90.9617 71.1928 15.9152
745 2 94.7964 70.964 15.934
746 2 98.8999 71.2618 16.0046
747 2 102.942 71.2083 16.168
748 2 107.012 71.2397 0.134595
749 2 110.897 71.3137 0.127074
750 2 115.076 71.1084 0.281407
751 2 119.014 71.2931 0.102602
752 2 122.969 71.3859 15.9254
753 2 127.001 71.3594 0.164261
754 2 131.017 71.5599 0.327695
755 2 134.881 71.4225 0.315021
756 2 138.87 71.3193 15.859
757 2 142.707 71.2975 15.9563
758 2 146.732 71.3398 15.5859
759 2 150.769 71.042 0.066958
760 2 154.549 70.9097 0.128969
761 2 0.447801 74.9578 15.7965
762 2 3.9449 75.0531 15.8791
763 2 8.01027 75.008 0.173123
764 2 11.9473 74.8533 0.116392
765 2 15.9131 74.7646 15.9348
766 2 19.7034 74.7149 0.113156
767 2 23.6998 74.7527 0.11666
768 2 27.7223 74.858 0.190016
769 2 31.5755 74.6298 -0.0569027
770 2 35.3947 74.5482 0.0417711
771 2 39.2328 74.5916 0.0844027
772 2 43.1023 74.7697 -0.0555751
773 2 47.2382 74.546 0.25158
774 2 51.0541 74.4167 15.9977
775 2 55.0756 74.5326 15.7306
776 2 58.7373 74.3987 15.8697
777 2 62.8937 74.7432 15.9471
778 2 66.963 74.5857 16.1677
779 2 70.8783 74.6444 0.309033
780 2 75.0448 74.8777 0.11076
781 2 78.9053 74.9957 0.0853329
782 2 82.848 74.912 15.7862
783 2 86.7831 75.015 15.736
784 2 91.0048 75.0084 0.207471
785 2 94.8655 75.0086 15.9171
786 2 98.7788 75.1551 16.0362
787 2 102.929 75.2331 15.9914
788 2 106.865 74.9141 0.13482
789 2 110.864 75.1686 0.135171
790 2 114.903 75.0481 0.153489
791 2 118.902 75.234 0.219291
792 2 122.85 75.4078 0.19082
793 2 127.137 75.4044 16.0097
794 2 130.999 75.3816 15.9199
795 2 135.014 75.1309 0.355921
796 2 138.846 75.1933 16.0153
797 2 142.777 75.2666 15.9337
798 2 146.645 75.174 15.7705
799 2 150.758 75.1596 15.8253
800 2 154.772 75.1604 15.7643
801 2 0.203259 79.1187 0.0965623
802 2 4.10319 78.995 0.119055
803 2 8.04357 79.072 0.0533369
804 2 11.9585 78.9486 15.75
805 2 15.798 78.7989 15.8122
806 2 19.7761 78.6507 0.148009
807 2 23.6746 78.6346 0.163621
808 2 27.5414 78.7053 0.061468
809 2 31.5029 78.6671 16.0014
810 2 35.3915 78.6835 0.10815
811 2 39.3399 78.6555 0.126202
812 2 43.3334 78.6261 0.125851
813 2 47.0914 78.5602 0.160476
814 2 51.0244 78.4317 -0.0794654
815 2 54.7182 78.4683 0.0999967
816 2 58.9715 78.545 0.177538
817 2 62.8173 78.1997 0.183697
818 2 66.8136 78.411 0.0560809
819 2 70.6805 78.4407 15.9083
820 2 74.8116 78.7553 0.033796
821 2 78.7694 78.8427 0.128781
822 2 82.8766 78.834 15.9527
823 2 86.7951 78.8947 15.8912
824 2 90.8458 78.4991 15.8124
825 2 94.8254 78.9343 0.0696427
826 2 98.8756 78.8359 0.124722
827 2 102.977 79.1556 16.1995
828 2 106.838 79.0923 0.184875
829 2 110.907 78.9555 16.0139
830 2 114.996 79.053 0.287182
831 2 118.855 79.2862 0.293538
832 2 122.782 79.2232 15.8131
833 2 126.963 79.1555 0.406455
834 2 130.804 79.1922 15.7785
835 2 135.023 79.148 0.184101
836 2 138.86 79.167 0.283445
837 2 142.911 79.1544 16.033
838 2 146.691 78.9504 16.0736
839 2 150.631 79.0463 15.7049
840 2 154.586 79.1913 0.248323
841 2 -0.0499577 83.0908 0.159437
842 2 4.12526 82.945 15.8319
843 2 7.99474 82.8608 0.0307063
844 2 11.7869 82.915 15.9167
845 2 15.6693 82.9115 15.991
846 2 19.7691 82.6792 0.15734
847 2 23.6725 82.8245 0.291337
848 2 27.6169 82.7317 0.364944
849 2 31.4852 82.7114 15.9295
850 2 35.5112 82.7832 0.19294
851 2 39.3964 82.6828 0.121205
852 2 43.311 82.7194 0.123303
853 2 47.2868 82.5989 0.0337052
854 2 51.0668 82.3422 0.0356
855 2 54.9721 82.5556 0.13591
856 2 58.8261 82.5036 15.7877
857 2 62.9584 82.3805 15.8962
858 2 66.706 82.5403 15.9366
859 2 70.5276 82.4661 0.192999
860 2 74.6549 82.7703 0.0968429
861 2 78.7465 82.8127 0.0924411
862 2 82.6844 82.6558 15.683
863 2 86.8957 82.9125 15.8558
864 2 90.8839 82.7155 15.8544
865 2 94.7758 82.531 15.9403
866 2 98.9753 82.7915 16.1069
867 2 102.766 83.1004 15.8973
868 2 106.719 82.9459 0.322429
869 2 110.561 83.0292 16.0921
870 2 114.834 83.0648 0.16712
871 2 118.807 83.0347 0.448974
872 2 122.88 83.0955 15.8989
873 2 126.838 83.1683 16.1454
874 2 130.831 83.3493 15.9007
875 2 134.994 83.2267 0.294824
876 2 138.954 83.1534 0.163534
877 2 142.824 83.3234 0.198631
878 2 146.933 83.3152 15.8282
879 2 150.732 83.1264 15.7072
880 2 154.557 82.922 15.8303
881 2 0.140723 86.7676 0.106858
882 2 3.89027 87.0266 0.277763
883 2 7.95274 86.9946 0.16771
884 2 12.0624 86.8114 16.0267
885 2 15.8502 86.9957 15.9207
886 2 19.7641 86.8453 0.123658
887 2 23.679 86.8 0.211401
888 2 27.4171 86.6346 0.242171
889 2 31.342 86.6769 15.9332
890 2 35.5325 86.671 0.255819
891 2 39.6266 86.5266 0.174588
892 2 43.4853 86.5216 0.258185
893 2 47.431 86.758 0.106403
894 2 51.0374 86.4614 0.166184
895 2 55.1646 86.5251 0.26464
896 2 59.0614 86.4019 0.0997731
897 2 62.9079 86.3187 15.8706
898 2 66.8133 86.4338 15.953
899 2 70.6304 86.5271 0.166076
900 2 74.486 86.4951 15.7028
901 2 78.589 86.5797 0.263712
902 2 82.5844 86.4713 15.7354
903 2 86.8557 86.8232 0.0901961
904 2 90.9008 86.9596 15.9802
905 2 94.7065 86.6914 15.8674
906 2 98.7543 86.6937 15.9616
907 2 102.619 86.9537 15.871
908 2 106.808 86.8974 16.1068
909 2 110.747 87.1966 0.269204
910 2 114.768 86.8307 15.9681
911 2 118.824 86.9036 15.963
912 2 122.836 86.7962 16.0245
913 2 126.836 87.1178 15.9432
914 2 130.76 87.2003 16.1517
915 2 134.76 87.2556 0.308216
916 2 138.805 87.0105 0.16414
917 2 142.634 87.0914 15.9268
918 2 146.863 87.1588 16.0329
919 2 150.89 87.1947 15.8729
920 2 154.79 87.0694 0.218093
921 2 0.044928 91.0733 15.5264
922 2 4.32705 90.8853 15.7306
923 2 8.1658 90.7928 0.249294
924 2 11.9606 90.8501 16.0225
925 2 15.9519 90.8817 15.9688
926 2 19.8954 90.8149 0.0694818
927 2 23.8761 90.7386 15.881
928 2 27.6943 90.7361 0.0878406
929 2 31.6236 90.6115 15.9153
930 2 35.5923 90.5964 0.340434
931 2 39.5811 90.6454 0.365478
932 2 43.2128 90.4667 0.367404
933 2 47.317 90.5659 0.18557
934 2 51.0914 90.3698 15.8087
935 2 54.9878 90.5388 0.154404
936 2 59.03 90.6012 15.9165
937 2 62.8304 90.3431 0.24886
938 2 66.7658 90.47 0.422918
939 2 70.6578 90.4803 0.358035
940 2 74.4214 90.3195 15.9105
941 2 78.6659 90.4393 16.147
942 2 82.8752 90.5691 15.8772
943 2 86.6762 90.5223 16.0996
944 2 90.9539 90.5291 0.155855
945 2 94.7013 90.7176 16.043
946 2 98.6905 90.5609 15.8399
947 2 102.712 90.6601 15.9367
948 2 106.753 90.8532 15.94
949 2 110.778 90.8409 15.846
950 2 114.706 91.0242 15.9898
951 2 118.713 90.6005 0.141844
952 2 122.851 91.0012 0.132738
953 2 126.891 90.9095 0.18429
954 2 130.846 90.9492 15.915
955 2 134.949 90.9886 0.0347825
956 2 138.965 90.8011 16.0627
957 2 142.814 91.1408 15.8113
958 2 146.863 90.9317 -0.0158272
959 2 150.736 91.008 15.9575
960 2 154.629 91.1396 15.8669
961 2 0.370468 95.2198 15.9645
962 2 4.34824 95.0266 15.9042
963 2 8.21279 94.9631 0.218926
964 2 11.8556 94.972 15.9767
965 2 15.8966 94.7866 15.837
966 2 19.7583 94.8258 15.9227
967 2 23.7649 94.939 16.0939
968 2 27.77 94.7147 0.212839
969 2 31.646 94.7366 16.0044
970 2 35.561 94.6319 0.028209
971 2 39.4278 94.6826 0.312057
972 2 43.3667 94.6205 -0.0575035
973 2 47.1697 94.5623 15.7589
974 2 51.2784 94.542 15.7405
975 2 55.0774 94.5129 15.9975
976 2 59.0727 94.5773 0.150858
977 2 62.9454 94.3556 15.9685
978 2 66.9641 94.4483 16.1152
979 2 70.7109 94.4238 0.0866281
980 2 74.7458 94.4497 15.7859