ITEM: TIMESTEP
19500
ITEM: NUMBER OF ATOMS
32000
ITEM: BOX BOUNDS xy xz yz pp pp pp
0.0000000000000000e+00 1.5831999999999999e+02 0.0000000000000000e+00
0.0000000000000000e+00 1.5831999999999999e+02 0.0000000000000000e+00
1.6219457273993765e-01 1.5935517427259894e+01 0.0000000000000000e+00
ITEM: ATOMS id type x y z
1 2 158.003 157.803 15.8787
2 2 3.76299 157.767 0.125787
3 2 7.79218 157.791 15.832
4 2 11.6524 157.934 15.8774
5 2 15.8183 157.994 16.0179
6 2 19.7542 158.027 15.8431
7 2 23.7724 157.993 0.178747
8 2 27.8682 158.149 15.7633
9 2 31.7674 158.197 15.7646
10 2 35.8357 158.143 15.9073
11 2 39.8237 158.211 0.229418
12 2 43.8124 -0.0268533 -0.0199179
13 2 47.7663 158.185 16.2946
14 2 51.8607 0.125792 0.268965
15 2 55.9672 158.421 16.1163
16 2 59.7795 0.102046 -0.0341218
17 2 63.7692 0.38413 15.7435
18 2 67.8816 0.427647 0.195295
19 2 71.7495 158.563 0.224594
20 2 75.6439 158.561 0.150079
21 2 79.4485 0.0502369 16.0471
22 2 83.3259 158.376 15.829
23 2 87.3667 158.172 15.9319
24 2 91.2469 158.298 0.253629
25 2 95.1858 158.288 15.9473
26 2 98.98 157.986 16.1236
27 2 102.983 158.097 0.175802
28 2 106.788 158.221 16.165
29 2 110.836 158.139 0.0151802
30 2 114.692 158.012 0.103002
31 2 118.45 157.953 15.9176
32 2 122.54 157.801 16.1101
33 2 126.576 157.762 15.9987
34 2 130.332 157.749 16.0541
35 2 134.491 157.591 15.919
36 2 138.241 157.638 15.9731
37 2 142.07 157.341 0.102614
38 2 145.94 157.692 0.215692
39 2 150.138 157.623 0.237862
40 2 154.247 157.885 0.106778
41 2 158.187 3.50984 0.246477
42 2 3.75692 3.36288 15.6047
43 2 7.72273 3.31191 0.0286681
44 2 11.7926 3.50008 15.7271
45 2 15.9997 3.47848 0.300827
46 2 19.7479 3.57776 0.0830313
47 2 23.9143 3.61553 15.8346
48 2 27.7316 3.91664 16.0164
49 2 31.8076 3.60207 0.21175
50 2 35.8287 3.68351 0.0590216
51 2 39.7598 3.90493 15.8265
52 2 43.7378 3.8954 0.267654
53 2 47.8153 3.95876 15.78
54 2 51.8146 4.00881 0.0862491
55 2 55.8413 4.03064 0.1954
56 2 59.6491 4.04327 15.8123
57 2 63.9685 4.17465 16.1044
58 2 67.8851 4.09155 0.0242785
59 2 71.4723 4.15094 0.418053
60 2 75.5668 4.06442 0.199791
61 2 79.5078 4.13045 0.179174
62 2 83.4091 4.06168 15.9163
63 2 87.196 3.99774 15.7649
64 2 91.3101 3.9264 0.122738
65 2 95.1228 3.78715 16.2706
66 2 98.9916 3.79503 16.038
67 2 102.736 3.75897 15.9919
68 2 106.884 3.72965 16.1796
69 2 110.605 3.54051 16.0892
70 2 114.765 3.60849 15.9251
71 2 118.691 3.42312 15.9054
72 2 122.461 3.45291 15.9012
73 2 126.682 3.62746 0.338265
74 2 130.603 3.49945 0.261091
75 2 134.249 3.37785 15.936
76 2 138.128 3.252 16.1632
77 2 142.141 3.34603 15.9617
78 2 146.049 3.33125 0.213568
79 2 149.965 3.14487 15.9037
80 2 154.137 3.4489 0.101103
81 2 158.108 7.21339 0.176789
82 2 3.92234 7.22047 0.135906
83 2 7.60838 7.21986 15.8942
84 2 11.9191 7.41405 0.160057
85 2 15.8326 7.26644 0.054437
86 2 20.0257 7.6136 0.153057
87 2 23.8524 7.41483 15.8441
88 2 27.921 7.63018 0.0223505
89 2 31.7907 7.6691 15.9237
90 2 35.8535 7.63869 15.8584
91 2 39.809 7.72639 0.278654
92 2 43.7389 7.79171 15.9982
93 2 47.642 8.06557 15.9779
94 2 51.9146 7.85605 15.8304
95 2 55.9594 8.05167 0.433886
96 2 59.8879 8.07054 0.147124
97 2 63.8778 7.90425 0.206927
98 2 67.9577 8.10271 15.8865
99 2 71.8851 8.03122 15.9653
100 2 75.7096 8.19459 0.311959
101 2 79.4459 8.2927 0.208511
102 2 83.6859 8.16107 0.028018
103 2 87.5282 8.20436 0.341188
104 2 91.2497 8.02623 15.8595
105 2 95.0925 7.93027 15.8668
106 2 99.0325 7.89435 0.299976
107 2 102.87 7.87943 0.417726
108 2 106.742 7.64931 16.0517
109 2 110.878 7.64375 0.43098
110 2 114.83 7.73111 15.8107
111 2 118.493 7.71394 0.129969
112 2 122.573 7.53031 0.227152
113 2 126.521 7.51874 15.8082
114 2 130.581 7.50404 16.0038
115 2 134.266 7.19601 -0.0235373
116 2 138.405 7.18739 0.171805
117 2 142.274 7.25008 0.274261
118 2 146.207 7.09849 0.101856
119 2 150.186 7.16507 16.0298
120 2 154.023 7.23657 16.0924
121 2 158.095 11.2935 15.956
122 2 3.68978 10.9278 0.272577
123 2 7.70884 11.4514 15.8723
124 2 11.6142 11.3599 15.9479
125 2 15.6018 11.4504 0.108891
126 2 19.8116 11.4696 0.1298
127 2 23.7901 11.4995 15.9909
128 2 27.852 11.5335 15.8739
129 2 31.8273 11.6806 16.0329
130 2 35.6575 11.6019 0.161449
131 2 39.8386 11.476 15.9475
132 2 43.7265 11.9433 0.123229
133 2 47.8546 11.8227 0.00717483
134 2 51.7974 12.0171 15.9175
135 2 55.5597 12.0507 15.8851
136 2 59.7409 12.1466 0.224101
137 2 63.7216 11.9798 15.9962
138 2 67.7391 12.1447 15.9803
139 2 71.7602 12.1218 0.313497
140 2 75.6282 12.1944 15.9471
141 2 79.6769 12.1839 -0.040717
142 2 83.6818 12.2779 0.362511
143 2 87.6056 12.0738 16.0082
144 2 91.4381 12.0988 16.11
145 2 95.3757 12.0452 0.024862
146 2 99.0683 12.0609 0.0341361
147 2 103.025 11.8588 16.0286
148 2 106.901 11.8093 16.0031
149 2 110.921 11.5755 16.074
150 2 114.813 11.658 16.1042
151 2 118.852 11.5476 0.310426
152 2 122.474 11.4391 0.256043
153 2 126.688 11.2673 15.6968
154 2 130.558 11.4869 0.0207194
155 2 134.524 11.323 15.8693
156 2 138.381 11.1252 16.0695
157 2 142.413 11.0995 0.048506
158 2 146.27 11.218 0.309508
159 2 150.156 11.1544 15.797
160 2 154.049 10.9626 0.150426
161 2 158.036 15.149 0.0679427
162 2 3.69123 14.989 16.0366
163 2 7.47769 15.1931 16.0064
164 2 11.6989 15.2734 0.0726875
165 2 15.6631 15.2687 0.181042
166 2 19.6852 15.3634 15.8736
167 2 23.5688 15.3726 0.332205
168 2 27.705 15.5435 16.0727
169 2 31.7152 15.3283 0.236135
170 2 35.6612 15.4419 0.190485
171 2 39.9469 15.4918 16.0863
172 2 43.7612 15.6867 0.269888
173 2 47.6837 15.5789 0.177691
174 2 51.6947 16.0383 0.19722
175 2 55.7473 15.8389 16.0786
176 2 59.5753 15.8738 15.8751
177 2 63.7887 15.936 15.9115
178 2 67.7329 15.9435 15.8821
179 2 71.7413 16.1703 16.0779
180 2 75.7802 16.1217 16.1174
181 2 79.6802 16.0349 15.8393
182 2 83.7074 15.9093 15.9531
183 2 87.7507 15.9573 0.407347
184 2 91.6804 15.9672 15.9035
185 2 95.3578 15.831 0.195757
186 2 99.3592 15.7973 15.8969
187 2 103.218 16.0353 0.229376
188 2 107.151 15.691 15.9467
189 2 110.845 15.6544 15.9233
190 2 114.975 15.7186 15.7643
191 2 118.796 15.6163 16.1301
192 2 122.82 15.3989 16.1546
193 2 126.781 15.4365 0.34584
194 2 130.469 15.1757 0.188624
195 2 134.57 15.5335 15.9592
196 2 138.462 15.3423 15.8709
197 2 142.244 15.3795 -0.0561086
198 2 146.237 15.169 0.0534998
199 2 150.189 15.0552 0.122171
200 2 153.82 15.0162 0.155865
201 2 158.047 19.0303 15.828
202 2 3.68094 19.1721 15.936
203 2 7.55956 19.2785 15.949
204 2 11.6367 19.0988 15.8906
205 2 15.7905 19.3452 15.7595
206 2 19.5292 19.2572 15.8484
207 2 23.4145 19.4651 0.184835
208 2 27.7459 19.2156 -0.0214391
209 2 31.7005 19.4052 15.9887
210 2 35.557 19.4902 0.148577
211 2 39.7836 19.4814 0.244337
212 2 43.8457 19.536 15.7912
213 2 47.6399 19.6797 0.105437
214 2 51.6461 19.8689 15.7786
215 2 55.6647 19.7573 16.0424
216 2 59.5531 19.9136 15.8995
217 2 63.7342 19.7821 15.9681
218 2 67.7209 19.7477 15.9115
219 2 71.8133 19.9516 15.9963
220 2 75.754 19.8926 16.0734
221 2 79.8867 19.9761 15.9144
222 2 83.7023 20.1408 15.9084
223 2 87.7013 19.8378 15.8668
224 2 91.718 20.0192 15.8787
225 2 95.4941 19.8453 0.105531
226 2 99.3981 19.7763 0.051865
227 2 103.281 19.8378 16.056
228 2 107.209 19.6929 15.9583
229 2 111.147 19.5658 0.100911
230 2 115.015 19.6783 15.84
231 2 118.995 19.5922 0.293319
232 2 122.905 19.3813 15.9423
233 2 126.901 19.3831 0.162569
234 2 130.81 19.391 15.8288
235 2 134.622 19.3072 0.430071
236 2 138.261 19.205 0.162327
237 2 142.408 19.3077 15.873
238 2 146.213 19.1718 0.0949643
239 2 150.292 19.2503 0.0240228
240 2 154.167 18.9652 15.8236
241 2 158.037 23.0131 0.00112828
242 2 3.6849 22.887 15.9923
243 2 7.55495 22.9492 0.130636
244 2 11.3901 23.3041 0.0769171
245 2 15.6123 23.0042 15.6583
246 2 19.4999 23.2606 0.268558
247 2 23.4854 23.1522 15.665
248 2 27.6474 23.0416 0.00890356
249 2 31.7107 23.3324 15.9337
250 2 35.7601 23.4254 0.311213
251 2 39.6985 23.3791 0.29989
252 2 43.7143 23.4835 15.8078
253 2 47.597 23.5524 15.8908
254 2 51.587 23.5904 0.293008
255 2 55.4831 23.6849 15.9042
256 2 59.499 23.6147 15.9399
257 2 63.655 23.5922 0.22888
258 2 67.5624 23.9916 0.254206
259 2 71.4902 23.8943 15.7579
260 2 75.5238 23.8077 0.143691
261 2 79.4083 23.9777 15.8015
262 2 83.6828 24.0676 16.0674
263 2 87.5973 23.9446 16.0119
264 2 91.5585 24.0406 16.005
265 2 95.2766 24.1143 15.9895
266 2 99.1685 23.7673 16.0622
267 2 103.255 23.8386 15.9761
268 2 107.257 23.944 16.0287
269 2 111.038 23.641 15.8837
270 2 115.004 23.7693 15.8207
271 2 119.032 23.6272 0.146469
272 2 122.926 23.5592 0.0272328
273 2 126.774 23.3955 0.404066
274 2 130.678 23.3831 0.286463
275 2 134.585 23.2635 0.0631988
276 2 138.587 23.2921 0.0388646
277 2 142.509 23.2205 16.0261
278 2 146.408 23.1807 0.119659
279 2 150.34 23.3328 15.8142
280 2 154.134 23.0997 0.104977
281 2 158.232 27.1809 0.31429
282 2 3.71493 26.874 0.202883
283 2 7.56633 26.9017 15.9196
284 2 11.4828 27.0342 -0.0164099
285 2 15.4817 26.9678 -0.142808
286 2 19.4911 26.9877 15.9035
287 2 23.7471 27.1224 0.243491
288 2 27.512 27.1163 -0.0794392
289 2 31.7218 27.3286 15.8494
290 2 35.8161 27.273 0.192503
291 2 39.8472 27.3506 15.9635
292 2 43.4735 27.5066 16.1606
293 2 47.7364 27.6053 16.0647
294 2 51.5773 27.3838 15.94
295 2 55.6995 27.6252 15.7262
296 2 59.7015 27.6825 0.0137729
297 2 63.5349 27.7299 0.0724344
298 2 67.2025 27.7083 0.179641
299 2 71.5794 27.6443 0.0532875
300 2 75.4381 27.6668 16.0073
301 2 79.495 27.8867 15.9228
302 2 83.5411 27.7922 16.1499
303 2 87.5939 27.8825 16.0587
304 2 91.6817 27.7307 16.0214
305 2 95.5881 27.9105 15.9197
306 2 99.3974 27.9786 15.8512
307 2 103.238 27.786 15.8651
308 2 107.313 27.9323 0.0630738
309 2 111.254 27.7079 -0.0894697
310 2 115.077 27.8355 -0.0916319
311 2 119.151 27.5083 15.8804
312 2 122.988 27.5417 0.210813
313 2 126.841 27.3368 0.116483
314 2 130.753 27.2641 15.9897
315 2 134.732 27.3396 15.933
316 2 138.856 27.26 0.151745
317 2 142.534 27.2531 15.7674
318 2 146.51 27.3551 0.0814175
319 2 150.385 27.4075 0.0389599
320 2 154.123 27.0997 0.235849
321 2 158.307 31.0324 0.235094
322 2 3.74917 30.9482 15.9809
323 2 7.59 30.9609 0.16058
324 2 11.4239 30.9522 15.9889
325 2 15.5324 30.7495 0.0254471
326 2 19.5019 31.0868 0.00250779
327 2 23.3714 31.1395 -0.0539053
328 2 27.394 31.0359 -0.0838456
329 2 31.734 31.2615 -0.0752496
330 2 35.699 31.2346 15.8714
331 2 39.5704 31.4335 16.0189
332 2 43.6851 31.4786 15.979
333 2 47.6543 31.3467 15.9489
334 2 51.5876 31.4656 -0.00170172
335 2 55.533 31.5142 0.0400991
336 2 59.588 31.3394 16.0579
337 2 63.5989 31.4906 15.8021
338 2 67.4671 31.7304 16.1455
339 2 71.5064 31.7167 0.207738
340 2 75.5351 31.7796 0.0195207
341 2 79.5759 31.746 15.8801
342 2 83.5307 31.7702 0.240744
343 2 87.4301 31.7582 0.322449
344 2 91.4883 31.7021 0.285077
345 2 95.3191 32.0272 15.7268
346 2 99.5332 31.9137 15.9012
347 2 103.543 31.9245 15.6929
348 2 107.477 31.9146 15.9611
349 2 111.273 31.7799 0.206266
350 2 115.275 31.7335 16.0723
351 2 119.271 31.6986 15.8937
352 2 123.21 31.5754 15.9575
353 2 126.867 31.4686 15.9389
354 2 130.791 31.4483 15.863
355 2 134.923 31.4648 16.0431
356 2 138.555 31.2413 0.0157994
357 2 142.358 31.4054 0.245699
358 2 146.515 31.1368 16.0101
359 2 150.433 31.3787 0.311396
360 2 154.437 31.2656 0.0495453
361 2 158.313 35.103 0.278343
362 2 3.90925 34.8441 0.217042
363 2 7.78027 35.1904 0.00245449
364 2 11.6954 34.8479 0.12689
365 2 15.546 34.9782 0.245433
366 2 19.3533 35.0012 0.15837
367 2 23.3876 34.9153 0.175445
368 2 27.3359 35.1513 0.144447
369 2 31.5378 35.0633 -0.0911774
370 2 35.6901 35.0759 -0.0537014
371 2 39.4746 35.2555 15.6914
372 2 43.5293 35.3152 0.00651911
373 2 47.5607 35.2416 15.9864
374 2 51.4361 35.2502 0.24318
375 2 55.6275 35.3363 15.982
376 2 59.5615 35.3735 0.242323
377 2 63.4666 35.3912 15.6607
378 2 67.524 35.6267 0.142
379 2 71.4517 35.5494 0.0635693
380 2 75.3446 35.6669 0.0292802
381 2 79.3441 35.7517 15.728
382 2 83.5352 35.6746 0.187699
383 2 87.3972 35.6355 15.8525
384 2 91.3766 35.7527 0.129201
385 2 95.7734 35.878 16.0618
386 2 99.4684 35.7464 15.803
387 2 103.409 35.8728 15.9899
388 2 107.635 36.0107 16.0533
389 2 111.287 35.7341 0.360255
390 2 115.382 35.5419 15.8975
391 2 119.25 35.5938 15.9014
392 2 123.08 35.446 0.0246717
393 2 126.999 35.3018 0.150976
394 2 130.821 35.4797 0.215398
395 2 134.765 35.4892 0.231148
396 2 138.486 35.277 16.0204
397 2 142.57 35.2251 0.424132
398 2 146.335 35.2536 15.7544
399 2 150.385 35.1902 0.173067
400 2 154.434 35.0564 0.206761
401 2 158.395 39.0596 0.236922
402 2 4.06663 39.3018 0.368751
403 2 7.80771 38.9755 0.164562
404 2 11.5946 38.9784 16.1588
405 2 15.6642 38.914 0.0793694
406 2 19.6284 38.9632 0.309735
407 2 23.3952 38.7736 15.8705
408 2 27.4182 38.9081 0.106835
409 2 31.4646 38.9738 15.7821
410 2 35.4292 39.1185 -0.00744976
411 2 39.5423 39.088 0.0931692
412 2 43.4316 39.0017 15.694
413 2 47.3556 39.1064 0.149419
414 2 51.3884 39.1627 15.843
415 2 55.4036 39.2041 0.0384403
416 2 59.2923 39.5593 15.7662
417 2 63.5482 39.3255 0.00871588
418 2 67.5146 39.5292 0.150871
419 2 71.4282 39.4348 15.79
420 2 75.4939 39.2963 0.136642
421 2 79.4159 39.595 16.1337
422 2 83.4389 39.5793 15.8774
423 2 87.4103 39.6301 0.226835
424 2 91.5141 39.7132 15.8879
425 2 95.4 39.6495 0.160856
426 2 99.3706 39.7907 0.470789
427 2 103.472 39.9201 15.8233
428 2 107.488 39.8408 0.0461551
429 2 111.324 39.6088 15.9745
430 2 115.442 39.6817 0.261631
431 2 119.093 39.6761 0.192661
432 2 123.093 39.3973 15.936
433 2 127.018 39.4598 15.9028
434 2 130.758 39.5012 16.0531
435 2 134.827 39.3204 0.159918
436 2 138.766 39.2266 0.0262157
437 2 142.535 39.2918 0.208488
438 2 146.637 39.5961 15.912
439 2 150.412 39.2021 16.0099
440 2 154.358 39.0733 15.9971
441 2 158.211 43.0984 0.342404
442 2 3.71519 43.0986 0.166572
443 2 7.8765 42.9245 0.0892242
444 2 11.7475 42.8461 0.139704
445 2 15.5872 42.7438 0.149819
446 2 19.6689 42.886 0.228165
447 2 23.4173 42.8066 0.0549214
448 2 27.4484 42.8441 -0.0791285
449 2 31.4493 42.7663 0.234807
450 2 35.2609 42.7136 -0.0376033
451 2 39.4767 42.8006 0.0251591
452 2 43.402 43.0093 -0.0376561
453 2 47.3867 43.0066 0.0510448
454 2 51.3467 43.0512 0.186585
455 2 55.2892 43.2743 15.8896
456 2 59.4042 43.3437 15.7222
457 2 63.3571 43.1869 0.159625
458 2 67.4518 43.4251 15.7716
459 2 71.6255 43.4546 0.151168
460 2 75.4987 43.3973 15.9049
461 2 79.4129 43.461 16.0668
462 2 83.33 43.3291 0.111735
463 2 87.3192 43.4646 0.0761643
464 2 91.1079 43.3809 0.246892
465 2 95.3394 43.677 15.9403
466 2 99.2251 43.9738 16.0392
467 2 103.202 43.7325 15.8846
468 2 107.41 43.603 15.9898
469 2 111.387 43.7815 15.9129
470 2 115.101 43.6128 16.1671
471 2 119.155 43.5052 15.9977
472 2 123.096 43.4739 16.0195
473 2 126.867 43.4198 15.8479
474 2 130.856 43.3257 0.0148189
475 2 134.855 43.2472 0.1689
476 2 138.623 43.4043 0.109981
477 2 142.598 43.4196 16.0753
478 2 146.536 43.3973 16.2209
479 2 150.609 43.1531 15.95
480 2 154.444 43.2116 0.0306452
481 2 158.244 47.2095 0.381117
482 2 3.93742 46.8798 0.249996
483 2 7.83907 47.0489 0.352847
484 2 11.6814 46.8254 16.034
485 2 15.5571 46.8722 0.263767
486 2 19.6264 46.739 15.9934
487 2 23.4639 46.7806 0.34862
488 2 27.4032 46.7516 0.24645
489 2 31.1428 46.9598 0.0404202
490 2 35.3749 46.7497 0.0301466
491 2 39.3916 46.7704 15.7817
492 2 43.3207 46.7732 -0.0758363
493 2 47.1576 47.1198 0.16764
494 2 51.2322 46.9149 0.20039
495 2 55.179 46.9139 0.17177
496 2 59.2071 47.3461 15.8335
497 2 63.2527 47.2289 15.672
498 2 67.4216 47.1679 0.0769398
499 2 71.3544 47.4142 -0.074602
500 2 75.476 47.3518 0.168931
501 2 79.4079 47.2945 16.0129
502 2 83.3933 47.3545 0.238959
503 2 87.3804 47.4608 0.0297514
504 2 91.2887 47.5633 0.182392
505 2 95.3447 47.455 15.8841
506 2 99.4136 47.7389 15.8167
507 2 103.389 47.5818 0.147339
508 2 107.215 47.5176 0.203568
509 2 111.247 47.6816 15.9531
510 2 115.16 47.5265 15.996
511 2 119.154 47.5427 0.254142
512 2 123.049 47.5058 15.92
513 2 126.815 47.5381 -0.0813991
514 2 130.792 47.3787 15.8726
515 2 134.951 47.3611 0.118197
516 2 138.847 47.5371 0.207889
517 2 142.767 47.2873 0.158479
518 2 146.503 47.2722 0.240341
519 2 150.48 47.1155 15.9687
520 2 154.501 47.1534 15.9866
521 2 158.337 51.1176 0.383393
522 2 3.7672 50.9732 16.1013
523 2 7.91907 50.9109 0.353638
524 2 11.8728 50.9099 16.1281
525 2 15.5586 50.8237 0.179099
526 2 19.7746 50.8456 -0.00329945
527 2 23.5081 50.671 16.0283
528 2 27.4217 50.6977 0.148464
529 2 31.4918 50.8032 0.233012
530 2 35.3365 51.016 0.226014
531 2 39.1075 50.572 0.0310972
532 2 43.3062 50.7896 15.8859
533 2 47.2446 50.9646 16.0621
534 2 51.2663 51.0069 15.8746
535 2 55.2722 50.9885 0.208622
536 2 59.2263 51.0104 15.9881
537 2 63.0448 51.0148 15.7896
538 2 67.3191 51.2642 0.0348241
539 2 71.1214 51.328 15.7937
540 2 75.316 51.2492 0.0813546
541 2 79.4052 51.2539 0.198445
542 2 83.4714 51.3559 0.301997
543 2 87.3686 51.3066 0.0301112
544 2 91.1789 51.5274 0.136554
545 2 95.1929 51.4167 15.8917
546 2 99.3868 51.749 15.8583
547 2 103.205 51.5364 15.8264
548 2 107.283 51.4595 0.107494
549 2 111.171 51.4628 0.0942981
550 2 115.218 51.4252 0.135485
551 2 119.145 51.565 15.8261
552 2 122.839 51.4982 0.288929
553 2 126.892 51.2883 15.7854
554 2 130.857 51.4253 0.268898
555 2 134.828 51.2498 15.8477
556 2 138.803 51.3997 0.157197
557 2 142.808 51.3784 16.0343
558 2 146.629 51.2021 0.214503
559 2 150.55 51.0987 0.173394
560 2 154.425 51.0465 15.683
561 2 0.10045 55.1827 0.19983
562 2 3.87867 54.8893 0.13665
563 2 8.00422 54.8555 0.349511
564 2 11.5796 54.8693 0.161693
565 2 15.6097 54.7323 16.0726
566 2 19.5008 54.5958 0.191376
567 2 23.4869 54.5719 0.00050099
568 2 27.4254 54.7645 16.0027
569 2 31.3942 54.6464 0.383543
570 2 35.3454 54.6937 0.136123
571 2 39.3533 54.7729 0.117642
572 2 43.1138 54.564 0.205434
573 2 47.2448 54.9553 0.229716
574 2 51.0758 55.0517 0.237195
575 2 55.0983 54.9443 15.907
576 2 58.9069 54.9389 16.0141
577 2 63.1462 55.1083 15.8507
578 2 67.2436 54.9426 0.139772
579 2 71.2498 55.1478 0.0984144
580 2 75.292 55.0402 15.8241
581 2 79.0812 55.4535 15.9795
582 2 83.1085 55.2302 0.243695
583 2 87.2733 55.3852 15.9542
584 2 91.2254 55.6725 0.00492721
585 2 95.2587 55.4137 -0.0229789
586 2 99.1753 55.3564 16.1003
587 2 103.222 55.4444 -0.111471
588 2 107.378 55.4019 0.279149
589 2 111.15 55.3526 16.0007
590 2 115.297 55.3803 0.179793
591 2 119.195 55.7022 15.815
592 2 122.952 55.367 0.171284
593 2 127.081 55.4588 -0.0776299
594 2 130.948 55.1904 15.8766
595 2 134.806 55.3332 15.9473
596 2 138.716 55.2803 15.8774
597 2 142.625 55.1745 0.228497
598 2 146.788 55.209 0.13295
599 2 150.738 55.1607 0.216793
600 2 154.566 55.1616 0.0134157
601 2 158.529 58.9277 -0.0585281
602 2 4.04866 58.9374 15.9757
603 2 7.91783 59.1481 0.0850031
604 2 11.8091 58.8746 15.8292
605 2 15.6456 58.8849 16.1562
606 2 19.6371 58.8164 0.177456
607 2 23.5542 58.7787 0.122425
608 2 27.5665 58.6791 0.305326
609 2 31.374 58.6986 -0.0194158
610 2 35.1664 58.787 15.8845
611 2 39.326 58.72 0.193791
612 2 43.193 58.6488 0.0844866
613 2 47.0837 58.8575 0.130617
614 2 51.0858 58.6281 -0.0451831
615 2 54.9886 58.8077 15.9156
616 2 59.074 58.8015 15.9911
617 2 63.0855 59.1007 16.0273
618 2 67.3354 58.8773 15.7409
619 2 71.2183 58.9399 15.8947
620 2 75.101 59.0221 15.7882
621 2 79.3177 59.2255 0.328204
622 2 83.2047 59.1487 0.058322
623 2 87.1598 59.1558 0.119657
624 2 91.1467 59.428 0.0110902
625 2 94.9326 59.2256 0.214477
626 2 99.1508 59.3218 15.9388
627 2 103.375 59.5081 0.087475
628 2 107.261 59.3141 0.142558
629 2 111.298 59.5362 15.9728
630 2 115.077 59.3093 15.8848
631 2 119.245 59.5687 15.8629
632 2 123.216 59.4504 16.0249
633 2 127.198 59.3168 0.206725
634 2 131.096 59.3824 15.8964
635 2 134.856 59.3817 15.809
636 2 138.664 59.2237 15.7648
637 2 142.749 59.3273 0.223138
638 2 146.447 59.4233 0.103666
639 2 150.641 59.0798 0.12062
640 2 154.402 59.0971 0.198504
641 2 0.0681155 63.1415 -0.158078
642 2 3.95446 63.0348 0.363208
643 2 7.76855 63.0133 15.9773
644 2 11.8748 62.8964 16.003
645 2 15.837 62.8209 0.242946
646 2 19.7141 62.852 0.106392
647 2 23.633 62.8703 0.268492
648 2 27.5306 62.7245 0.167448
649 2 31.1834 62.8091 0.130459
650 2 35.207 62.6361 0.282252
651 2 39.3432 62.5435 0.151123
652 2 43.1573 62.6243 16.116
653 2 47.1144 62.6851 16.0813
654 2 50.989 62.8146 0.0949727
655 2 55.1305 62.6651 0.133533
656 2 59.0298 62.7967 15.7951
657 2 62.9899 62.7943 0.0525017
658 2 67.0814 62.7619 15.8157
659 2 71.1206 62.7818 16.0584
660 2 74.9121 62.9864 0.0932109
661 2 79.195 63.0242 16.0653
662 2 83.07 62.8897 0.32842
663 2 87.2459 63.2632 15.9258
664 2 91.1391 63.142 15.9036
665 2 95.2541 63.3173 16.0976
666 2 99.04 63.262 16.2346
667 2 103.122 63.3659 0.223137
668 2 107.195 63.4333 15.9063
669 2 111.01 63.297 15.9
670 2 115.104 63.3431 0.255834
671 2 119.125 63.2595 0.114607
672 2 123.17 63.5172 0.138878
673 2 126.838 63.221 15.8203
674 2 130.959 63.5531 -0.132322
675 2 134.813 63.3562 15.8086
676 2 138.901 63.3304 0.2391
677 2 142.661 63.0672 15.9256
678 2 146.628 63.1538 0.212918
679 2 150.473 63.2119 0.0857043
680 2 154.54 63.1421 0.160773
681 2 0.031765 66.9852 0.0655839
682 2 3.96824 66.918 0.131644
683 2 7.91444 67.0835 16.0329
684 2 11.8558 66.9617 15.8258
685 2 15.6565 66.7865 0.21119
686 2 19.6663 66.7189 0.102432
687 2 23.6432 66.8261 0.02149
688 2 27.421 66.6237 0.132871
689 2 31.351 66.8029 0.234039
690 2 35.4665 66.7776 15.8484
691 2 39.2058 66.5398 15.7043
692 2 43.1308 66.731 16.2762
693 2 46.9684 66.8912 15.6098
694 2 51.1183 66.7401 0.1247
695 2 55.1004 66.6754 15.8896
696 2 58.9779 66.8427 15.8878
697 2 62.9089 66.5905 0.0592051
698 2 67.0553 66.7613 15.9351
699 2 71.0283 66.6006 0.149724
700 2 75.0099 66.8686 0.0789352
701 2 79.032 66.8409 15.8416
702 2 82.9259 66.8941 15.9573
703 2 87.0769 67.1079 15.8088
704 2 91.1146 66.9552 0.218028
705 2 94.9525 67.1038 15.7842
706 2 98.9639 66.9448 15.9611
707 2 103.23 67.1413 0.306476
708 2 107.186 67.348 0.220847
709 2 110.995 67.3609 15.8289
710 2 115.123 67.2566 15.8798
711 2 119.206 67.4033 0.133883
712 2 123.029 67.4364 16.091
713 2 126.891 67.3539 0.00737103
714 2 130.921 67.5105 0.275236
715 2 134.977 67.4973 16.0817
716 2 138.956 67.5482 0.246108
717 2 142.651 67.2582 15.8295
718 2 146.433 67.0276 15.9575
719 2 150.489 67.26 -0.00380573
720 2 154.4 67.0263 0.185326
721 2 158.384 71.0241 15.7336
722 2 4.14265 70.9155 0.0414024
723 2 7.97625 70.9185 0.207036
724 2 12.0155 70.9602 0.172647
725 2 15.7336 70.9046 15.7694
726 2 19.6565 70.8408 0.329441
727 2 23.5834 70.7735 0.0753052
728 2 27.4247 70.7815 0.193823
729 2 31.3141 70.7844 0.121857
730 2 35.2558 70.7845 0.435608
731 2 39.1879 70.8177 0.0657682
732 2 43.263 70.495 0.247704
733 2 47.1087 70.5432 15.9299
734 2 51.1081 70.5831 0.135563
735 2 54.9657 70.5535 16.0038
736 2 58.7554 70.5729 15.9174
737 2 62.9001 70.524 15.9014
738 2 66.9563 70.6149 16.1081
739 2 70.825 70.7384 0.0691011
740 2 74.9015 70.6292 15.9012
741 2 79.0174 70.8596 -0.0261839
742 2 83.081 71.1825 0.0896581
743 2 86.9092 70.8609 15.9536
744 2 91.2132 70.9341 15.8635
745 2 94.9435 71.1941 16.0515
746 2 98.9379 70.8785 16.0053
747 2 102.97 71.0077 15.751
748 2 107.069 71.2392 0.215697
749 2 111.015 71.2283 0.229591
750 2 114.971 71.279 0.158669
751 2 118.891 71.3463 0.170683
752 2 122.967 71.1412 15.9575
753 2 126.937 71.4042 0.218769
754 2 130.875 71.3821 0.0167156
755 2 134.942 71.3563 0.142641
756 2 138.861 71.4304 16.0059
757 2 142.665 71.2889 15.9718
758 2 146.597 71.1471 15.9656
759 2 150.695 71.2824 0.143811
760 2 154.509 71.1131 0.0517356
761 2 -0.0429866 75.0547 15.7382
762 2 4.01727 74.9992 15.8222
763 2 7.99667 74.9608 -0.0325589
764 2 11.8131 74.8817 0.118555
765 2 15.78 74.9528 15.8981
766 2 19.6139 74.6744 0.174309
767 2 23.5546 74.8744 0.151398
768 2 27.5114 74.756 0.0173171
769 2 31.4174 74.8233 0.140994
770 2 35.4335 74.7437 0.246255
771 2 39.3674 74.6129 0.217754
772 2 43.0807 74.6538 0.278967
773 2 46.9714 74.6271 0.11917
774 2 50.922 74.5729 15.8231
775 2 55.0556 74.4713 15.9022
776 2 59.0908 74.3862 16.0529
777 2 62.8952 74.4474 15.976
778 2 66.7268 74.6548 15.9236
779 2 70.8932 74.6337 0.023082
780 2 74.9098 74.6433 0.235076
781 2 78.6763 74.7131 0.196548
782 2 82.8651 74.869 15.9893
783 2 86.97 74.8427 16.2413
784 2 90.8798 74.9317 0.202949
785 2 95.028 75.0129 15.8966
786 2 99.0652 74.7735 15.8818
787 2 102.993 74.909 16.101
788 2 107.066 74.9095 0.20299
789 2 110.833 74.9378 0.222152
790 2 114.989 75.3846 0.100887
791 2 119.208 75.1829 0.22437
792 2 122.926 75.1851 0.220254
793 2 126.845 75.3378 15.9119
794 2 130.981 75.2631 16.0219
795 2 134.93 75.3667 0.0102331
796 2 138.864 75.4285 15.907
797 2 142.87 75.2265 15.7172
798 2 146.751 75.197 15.7677
799 2 150.423 75.0389 15.8972
800 2 154.39 74.955 16.0176
801 2 0.220168 79.004 -0.121472
802 2 4.15502 78.9563 -0.0886215
803 2 7.95655 78.9459 0.20087
804 2 11.8962 78.9808 15.9404
805 2 15.7192 78.8147 15.8878
806 2 19.6428 79.0246 0.119529
807 2 23.7486 78.8442 0.205138
808 2 27.5121 78.8992 0.20491
809 2 31.4196 78.6741 15.8966
810 2 35.6195 78.6362 0.138114
811 2 39.2205 78.4695 0.067393
812 2 43.1947 78.5746 0.0797678
813 2 47.0842 78.6861 -0.0569172
814 2 51.2621 78.6062 0.286984
815 2 55.0896 78.5535 -0.0790277
816 2 58.8861 78.5468 0.00444099
817 2 62.8719 78.5485 0.190745
818 2 67.0049 78.7009 0.389387
819 2 70.8047 78.552 16.0713
820 2 74.8557 78.5133 -0.00955863
821 2 78.8235 78.6448 0.101725
822 2 82.813 78.7316 15.999
823 2 86.8393 78.8284 15.9178
824 2 90.9801 79.0166 15.9128
825 2 94.8216 78.8303 0.313786
826 2 98.7677 78.9584 0.233771
827 2 102.706 78.9845 15.7875
828 2 106.948 78.9753 0.334394
829 2 111.071 79.0465 16.0562
830 2 114.887 79.1038 0.335336
831 2 118.888 79.1646 0.177024
832 2 122.884 79.1305 16.065
833 2 126.98 79.1542 0.269636
834 2 130.697 79.0721 16.0113
835 2 134.941 79.3914 0.0944145
836 2 138.938 79.4556 -0.073956
837 2 142.68 78.9115 15.9956
838 2 146.87 79.3058 15.9044
839 2 150.796 79.0401 16.0408
840 2 154.36 79.1446 -0.164429
841 2 0.262364 83.084 0.0405466
842 2 4.10396 82.9675 15.8742
843 2 8.18351 82.9157 0.232054
844 2 12.044 82.9385 15.8212
845 2 15.8706 82.8251 15.7456
846 2 19.6657 82.8747 0.0916451
847 2 23.7098 82.8335 -0.0285557
848 2 27.665 82.8552 -0.0617082
849 2 31.501 82.6443 15.814
850 2 35.2541 82.6386 0.0815515
851 2 39.2397 82.6856 0.0631323
852 2 43.1763 82.7495 0.0400736
853 2 47.1243 82.5701 0.0651321
854 2 51.0153 82.6426 -0.100587
855 2 54.9899 82.4682 0.164585
856 2 58.9236 82.3695 15.8554
857 2 62.8352 82.428 15.8649
858 2 66.7726 82.4248 16.0728
859 2 70.8184 82.3189 0.201491
860 2 74.7152 82.3537 0.195302
861 2 78.7098 82.5193 0.207741
862 2 82.7883 82.6711 16.0496
863 2 86.7228 82.5322 15.9918
864 2 90.9794 82.9585 16.0818
865 2 94.855 82.9567 16.0033
866 2 98.8258 82.9663 15.9529
867 2 102.863 82.7598 16.1398
868 2 106.771 82.7594 0.0740457
869 2 110.879 83.0626 15.9602
870 2 114.871 83.1219 0.212076
871 2 118.88 82.9846 0.118042
872 2 122.76 83.1813 16.0362
873 2 126.767 83.0098 16.0088
874 2 130.809 82.9937 15.888
875 2 134.897 83.0891 0.0450146
876 2 138.902 83.2003 0.245519
877 2 142.751 83.1946 0.223077
878 2 146.703 83.0099 16.006
879 2 150.637 83.2159 16.0204
880 2 154.538 83.0853 15.8029
881 2 0.224404 87.1699 0.058976
882 2 4.29358 86.9655 0.0553112
883 2 8.09877 87.0446 0.18618
884 2 12.0159 86.9238 15.9295
885 2 15.8523 86.8222 15.9478
886 2 19.7218 86.9068 -0.0113961
887 2 23.8074 86.9569 -0.0841006
888 2 27.6589 86.8104 0.13383
889 2 31.6359 86.7711 15.7988
890 2 35.3502 86.8295 0.0104642
891 2 39.2815 86.8635 -0.0673999
892 2 43.021 86.6423 0.0408269
893 2 47.0101 86.5709 0.166614
894 2 51.0469 86.719 -0.0834234
895 2 55.0298 86.4292 0.011889
896 2 58.8213 86.3123 0.156834
897 2 62.8863 86.4814 16.1615
898 2 66.8333 86.2853 16.1129
899 2 70.8196 86.4446 0.291527
900 2 74.7238 86.4558 15.9735
901 2 78.8296 86.4602 0.253235
902 2 82.5995 86.7334 15.9337
903 2 86.8008 86.5826 0.162281
904 2 90.6976 86.5986 15.822
905 2 94.7056 86.8822 16.0055
906 2 98.8796 86.76 15.962
907 2 102.804 86.7614 16.103
908 2 106.893 86.7429 16.0047
909 2 110.814 86.8287 0.15811
910 2 114.706 86.8028 15.827
911 2 118.831 87.1893 15.9242
912 2 122.81 87.1029 15.9043
913 2 126.781 87.0127 15.938
914 2 130.795 86.9912 15.8369
915 2 134.887 87.0153 -0.0189343
916 2 138.712 87.0405 0.285858
917 2 142.761 87.1504 16.2335
918 2 146.78 87.0476 15.8539
919 2 150.525 86.9816 15.8807
920 2 154.498 87.025 0.0263859
921 2 0.264508 91.0876 16.0199
922 2 4.17107 90.9375 16.1199
923 2 8.18372 91.2227 0.213815
924 2 11.9727 91.0101 15.8118
925 2 15.9103 90.9666 16.0179
926 2 19.7263 90.8734 0.275032
927 2 23.8285 90.6996 15.9323
928 2 27.665 90.7353 0.186195
929 2 31.5437 90.7906 15.8324
930 2 35.4541 90.6758 0.148291
931 2 39.4941 90.78 0.0839034
932 2 43.2384 90.7603 0.18591
933 2 47.1928 90.6714 0.132595
934 2 51.0206 90.7017 15.8182
935 2 55.1651 90.4536 0.200372
936 2 59.0484 90.7008 15.9967
937 2 62.9178 90.4369 0.310458
938 2 67.0272 90.144 0.13067
939 2 70.8782 90.2721 0.119411
940 2 74.8367 90.3447 16.0024
941 2 78.8668 90.3866 15.6438
942 2 82.5616 90.5052 16.0735
943 2 86.6661 90.5342 16.0607
944 2 90.8003 90.5505 0.155238
945 2 94.6267 90.6476 15.9417
946 2 98.7392 90.5929 15.8625
947 2 102.87 90.7351 16.046
948 2 106.696 90.8212 16.0837
949 2 110.59 90.8262 15.9267
950 2 114.651 90.6995 15.8765
951 2 118.871 90.9626 0.149498
952 2 122.692 90.8992 0.209656
953 2 126.693 90.8879 0.31494
954 2 130.639 90.8298 15.7127
955 2 134.701 90.8731 0.238452
956 2 138.858 91.2351 15.8331
957 2 142.82 90.9898 16.0324
958 2 146.802 91.0213 0.0313222
959 2 150.677 91.0436 15.8976
960 2 154.922 91.1475 15.8398
961 2 0.342076 95.0345 15.7895
962 2 4.29641 94.9108 15.8762
963 2 8.19307 95.0707 0.247286
964 2 12.2288 94.8943 16.0506
965 2 16.3061 94.9926 15.9955
966 2 19.9941 94.8891 15.9047
967 2 23.8426 94.7776 15.6591
968 2 27.6567 94.7113 0.0208157
969 2 31.5063 94.7771 16.0123
970 2 35.4972 94.6147 0.203817
971 2 39.5345 94.6537 0.122227
972 2 43.3621 94.6709 0.349241
973 2 47.4025 94.4464 15.9879
974 2 51.365 94.6285 16.0072
975 2 55.1333 94.5814 15.9132
976 2 59.1686 94.4105 0.320425
977 2 62.8307 94.4124 16.0841
978 2 66.8364 94.3475 15.9973