ITEM: TIMESTEP
19800
ITEM: NUMBER OF ATOMS
32000
ITEM: BOX BOUNDS xy xz yz pp pp pp
0.0000000000000000e+00 1.5831999999999999e+02 0.0000000000000000e+00
0.0000000000000000e+00 1.5831999999999999e+02 0.0000000000000000e+00
1.6657260936287255e-01 1.5931139390636968e+01 0.0000000000000000e+00
ITEM: ATOMS id type x y z
1 2 158.188 157.639 15.7907
2 2 3.846 157.631 0.284109
3 2 7.86615 157.725 16.0134
4 2 11.844 157.757 15.9108
5 2 15.803 157.926 15.8163
6 2 19.8322 157.958 15.6818
7 2 23.8924 158.121 0.114381
8 2 27.9251 158.223 15.9709
9 2 31.9412 158.086 15.8717
10 2 36.0597 158.157 15.9062
11 2 40.0554 158.346 0.271782
12 2 43.8559 0.0132815 0.121249
13 2 47.8971 158.273 16.1175
14 2 51.7719 -0.042157 0.112717
15 2 55.9018 158.333 15.9617
16 2 59.9563 -0.100592 0.0314335
17 2 63.8275 0.144974 15.9176
18 2 67.7804 0.240022 0.130033
19 2 71.6454 158.505 -0.183661
20 2 75.3942 158.601 -0.106453
21 2 79.2224 0.0614349 16.0815
22 2 83.4528 158.344 15.8992
23 2 87.4499 158.286 15.9964
24 2 91.3601 158.257 0.290379
25 2 95.2167 158.131 15.849
26 2 99.1136 157.81 15.8495
27 2 102.956 157.968 0.036046
28 2 107.046 157.916 16.0422
29 2 110.955 157.944 0.149864
30 2 114.822 158.04 0.336747
31 2 118.735 158.024 15.9667
32 2 122.764 157.897 16.0967
33 2 126.602 157.822 15.7591
34 2 130.367 157.62 15.966
35 2 134.279 157.525 15.849
36 2 138.274 157.602 15.8995
37 2 141.975 157.609 0.150056
38 2 146.016 157.59 0.203488
39 2 150.147 157.52 0.221253
40 2 154.122 157.945 0.0227598
41 2 158.075 3.56353 0.207494
42 2 3.89845 3.27662 15.7783
43 2 7.82528 3.3916 0.302812
44 2 11.7959 3.4268 15.9745
45 2 15.9436 3.41225 0.172953
46 2 19.8309 3.66068 0.0276891
47 2 23.7974 3.73405 15.7174
48 2 27.7516 3.7336 16.1963
49 2 31.8024 3.55962 0.231117
50 2 35.9295 3.69923 -0.0739919
51 2 39.8801 3.85942 15.9966
52 2 43.9302 3.92967 0.121873
53 2 47.886 3.89464 15.8112
54 2 51.8098 3.8611 0.186977
55 2 55.7112 4.06065 0.0947769
56 2 59.7663 3.98405 15.7219
57 2 63.8744 4.04729 16.0688
58 2 67.8878 4.08412 -0.151204
59 2 71.6504 4.24377 0.117251
60 2 75.6193 3.96228 -0.135328
61 2 79.6357 3.96938 0.154512
62 2 83.5797 4.02072 15.913
63 2 87.3073 3.92013 15.7896
64 2 91.4039 3.90039 -0.0173389
65 2 95.4702 3.87914 15.9829
66 2 99.2909 3.76707 15.8504
67 2 102.906 3.66475 15.6606
68 2 106.902 3.72233 15.8448
69 2 110.787 3.62938 15.9743
70 2 114.696 3.65675 16.0741
71 2 118.731 3.59615 16.1496
72 2 122.548 3.52646 15.9483
73 2 126.641 3.50836 0.393857
74 2 130.374 3.49247 0.234118
75 2 134.263 3.31938 15.9517
76 2 138.12 3.26519 16.1223
77 2 141.973 3.30693 15.9448
78 2 146.039 3.32918 0.149638
79 2 150.005 3.18545 15.7899
80 2 154.098 3.3191 -0.000880806
81 2 158.002 7.19882 -0.037285
82 2 3.81732 7.28117 0.0367065
83 2 7.78147 7.06778 15.9669
84 2 11.8485 7.4504 0.303389
85 2 15.9072 7.40515 0.0547285
86 2 19.8582 7.65075 0.306366
87 2 23.9535 7.53296 15.9384
88 2 27.9217 7.65315 0.0545113
89 2 31.9806 7.63618 15.9493
90 2 35.8287 7.6192 15.8646
91 2 39.7849 7.74835 0.298335
92 2 43.8902 7.74431 15.9612
93 2 47.8213 8.01849 16.1831
94 2 51.8132 7.81774 15.8869
95 2 55.9986 7.89463 0.321104
96 2 59.7402 8.03153 -0.141279
97 2 63.8238 8.03754 0.0750436
98 2 67.9336 8.13014 15.712
99 2 72.0158 7.97903 15.6264
100 2 75.6112 7.96452 0.0614234
101 2 79.5653 8.07444 0.171485
102 2 83.6428 7.95705 0.0189409
103 2 87.3531 8.05145 0.136918
104 2 91.2195 7.95246 15.852
105 2 95.1196 8.01713 15.8618
106 2 99.3718 7.90208 0.129437
107 2 103.175 8.05914 0.257616
108 2 106.996 7.69186 15.8271
109 2 111.026 7.6313 0.133946
110 2 114.791 7.54107 15.9149
111 2 118.669 7.7743 0.199618
112 2 122.62 7.43635 0.390675
113 2 126.34 7.54126 16.0545
114 2 130.547 7.51396 16.1827
115 2 134.285 7.29481 0.0361788
116 2 138.354 7.32473 0.324582
117 2 142.031 7.24153 0.0875044
118 2 146.136 7.22326 -0.0734632
119 2 149.919 7.10345 15.9717
120 2 153.964 7.15566 15.8105
121 2 157.775 11.2919 15.8415
122 2 3.65421 11.0397 0.214876
123 2 7.73718 11.2065 15.8642
124 2 11.697 11.184 15.8918
125 2 15.7562 11.3416 0.0752186
126 2 19.7169 11.2613 0.0938878
127 2 23.6887 11.3962 15.9399
128 2 27.8891 11.5561 15.9174
129 2 31.8883 11.5252 15.9143
130 2 35.6907 11.5242 0.203929
131 2 39.9977 11.4914 15.9489
132 2 43.767 11.8455 0.0557325
133 2 47.7759 11.7979 -0.0130387
134 2 51.7544 11.9206 15.9004
135 2 55.6684 11.8489 15.817
136 2 59.6993 11.9072 0.179053
137 2 63.7416 12.0729 16.0058
138 2 67.6763 12.1048 15.7755
139 2 71.4885 12.0964 -0.0524
140 2 75.5487 11.8319 16.006
141 2 79.4475 11.8107 0.190214
142 2 83.5302 11.9308 0.291842
143 2 87.299 11.797 15.7684
144 2 91.1865 11.891 16.0802
145 2 95.2772 11.8545 0.179095
146 2 99.227 11.9505 0.048413
147 2 103.169 11.8702 15.9617
148 2 107.093 11.8453 15.8733
149 2 111.054 11.5495 15.9222
150 2 115.076 11.8267 15.9037
151 2 118.881 11.5399 -0.0223489
152 2 122.64 11.5959 0.173906
153 2 126.61 11.4428 15.8973
154 2 130.504 11.5987 0.309401
155 2 134.315 11.4695 15.8886
156 2 138.215 11.3171 16.183
157 2 142.244 11.4393 0.180174
158 2 146.167 11.0638 0.292469
159 2 150.059 11.1256 15.8294
160 2 154.154 10.9286 0.0450025
161 2 158.11 15.0768 0.122487
162 2 3.58217 15.2107 16.0872
163 2 7.54118 15.0168 15.91
164 2 11.6815 15.2063 0.0104188
165 2 15.6592 15.0405 0.00627212
166 2 19.7097 15.1951 15.8897
167 2 23.7645 15.301 0.101659
168 2 27.6143 15.2771 15.9781
169 2 31.7846 15.2362 0.151087
170 2 35.7153 15.5961 0.0718183
171 2 39.7785 15.4892 15.8666
172 2 43.8034 15.7772 0.0342517
173 2 47.7747 15.5132 0.202312
174 2 51.7749 15.7371 0.183202
175 2 55.7683 15.7112 15.9662
176 2 59.7202 15.8054 15.8655
177 2 63.6864 15.9273 15.8925
178 2 67.64 15.8391 15.8421
179 2 71.6071 15.9086 15.951
180 2 75.6612 15.804 15.9229
181 2 79.6183 15.8791 16.1567
182 2 83.4446 16.0112 16.1059
183 2 87.4299 15.8956 0.248235
184 2 91.5178 15.9997 15.9653
185 2 95.1178 15.8895 0.204738
186 2 99.2625 15.6815 15.7395
187 2 103.106 16.0555 0.0585256
188 2 107.237 15.8249 15.9361
189 2 111.015 15.6946 15.8158
190 2 115.003 15.6611 15.7323
191 2 118.906 15.5772 15.9755
192 2 122.794 15.4256 16.0034
193 2 126.789 15.4405 0.206905
194 2 130.356 15.4842 0.0969653
195 2 134.338 15.534 16.0667
196 2 138.273 15.1996 15.8644
197 2 142.273 15.3367 0.00959718
198 2 146.122 15.3114 0.134921
199 2 150.215 15.1028 0.274496
200 2 153.823 14.9812 0.306619
201 2 158.057 19.0314 15.9241
202 2 3.62908 19.0106 16.0298
203 2 7.66366 19.0747 15.9684
204 2 11.6468 19.08 16.0425
205 2 15.6351 19.29 15.9106
206 2 19.5485 19.1158 15.702
207 2 23.5596 19.2514 0.132857
208 2 27.5542 19.1218 0.0211108
209 2 31.5313 19.3829 15.981
210 2 35.6832 19.1789 0.116476
211 2 39.5454 19.3876 0.17708
212 2 43.7001 19.5773 15.9859
213 2 47.6207 19.5731 0.281204
214 2 51.669 19.7146 15.6683
215 2 55.5594 19.5884 15.889
216 2 59.4745 19.8835 15.8332
217 2 63.5934 19.7395 15.8471
218 2 67.7196 19.8678 15.8821
219 2 71.6358 19.8866 15.953
220 2 75.7336 19.8212 15.9992
221 2 79.6055 19.9106 16.1922
222 2 83.8084 20.0515 16.0867
223 2 87.4983 19.8348 15.9271
224 2 91.7657 20.1012 16.0056
225 2 95.4368 19.9706 0.0953341
226 2 99.3667 19.9515 -0.123549
227 2 103.292 19.9152 15.7296
228 2 107.066 19.7301 15.7389
229 2 111.085 19.593 0.133755
230 2 114.965 19.6668 15.8699
231 2 118.989 19.5557 0.124194
232 2 122.833 19.4801 15.7479
233 2 126.944 19.5838 0.0448466
234 2 130.672 19.4903 15.7832
235 2 134.446 19.4942 0.264503
236 2 138.424 19.2529 0.0300097
237 2 142.251 19.2001 15.8697
238 2 146.387 19.2387 0.232446
239 2 150.237 19.1291 0.145068
240 2 154.128 19.0389 15.9923
241 2 157.9 22.8652 0.161347
242 2 3.59318 22.9472 15.9571
243 2 7.71245 22.9306 0.163823
244 2 11.4773 23.1344 0.338516
245 2 15.5641 22.9748 15.9199
246 2 19.6389 23.166 0.297335
247 2 23.6413 23.0188 15.8042
248 2 27.3702 22.9869 0.138302
249 2 31.6806 23.2671 15.8452
250 2 35.6555 23.4093 0.132036
251 2 39.6612 23.2453 0.268617
252 2 43.6598 23.4816 15.8783
253 2 47.6763 23.6272 16.0597
254 2 51.5554 23.4885 0.273818
255 2 55.4949 23.6945 15.8404
256 2 59.559 23.7768 15.9934
257 2 63.508 23.5681 0.13172
258 2 67.6214 23.7269 0.0690339
259 2 71.4035 23.7984 15.8075
260 2 75.4444 23.8322 0.130923
261 2 79.3837 23.8739 16.0015
262 2 83.4685 24.0404 16.0452
263 2 87.6405 23.9631 15.8449
264 2 91.3643 24.0087 16.0655
265 2 95.4414 24.176 15.8545
266 2 99.3634 23.8435 16.0378
267 2 103.13 23.7213 15.795
268 2 107.061 23.7402 15.8551
269 2 110.967 23.6603 16.0384
270 2 115 23.799 15.992
271 2 118.99 23.6628 0.080487
272 2 122.74 23.5879 -0.0906118
273 2 126.607 23.4247 0.11472
274 2 130.477 23.3821 0.152802
275 2 134.227 23.5475 0.00785034
276 2 138.399 23.3265 0.091039
277 2 142.419 23.0749 15.9498
278 2 146.385 23.1617 0.0559351
279 2 150.23 23.2623 16.0805
280 2 154.104 22.9547 0.158139
281 2 158.227 27.0318 0.197983
282 2 3.75586 26.8825 0.170898
283 2 7.49155 26.7345 15.8928
284 2 11.5376 26.8773 0.313241
285 2 15.5244 26.9599 0.0389697
286 2 19.4957 26.9227 15.8721
287 2 23.6469 26.9439 0.334661
288 2 27.5783 27.0514 0.0959876
289 2 31.56 27.2282 15.909
290 2 35.6018 27.2048 0.134923
291 2 39.6051 27.189 15.8065
292 2 43.674 27.2621 15.9839
293 2 47.6353 27.5109 15.9808
294 2 51.5096 27.4254 16.0033
295 2 55.5099 27.6264 15.8482
296 2 59.7128 27.5108 0.0792645
297 2 63.5359 27.5468 0.186769
298 2 67.3351 27.6433 0.147683
299 2 71.4696 27.5948 0.139591
300 2 75.4361 27.6724 16.0612
301 2 79.452 27.7895 15.8656
302 2 83.415 27.838 15.749
303 2 87.5796 27.8605 15.7899
304 2 91.623 27.8445 15.8906
305 2 95.6226 28.0839 15.8368
306 2 99.4168 27.8796 15.9478
307 2 103.385 27.7953 15.9846
308 2 107.334 27.8344 0.0561194
309 2 111.272 27.6818 -0.00560417
310 2 114.994 27.6632 0.187712
311 2 118.926 27.6834 15.9905
312 2 122.731 27.6459 0.0997067
313 2 126.652 27.4952 0.00809073
314 2 130.462 27.572 15.7313
315 2 134.561 27.3708 15.807
316 2 138.49 27.3097 0.231771
317 2 142.408 27.2662 15.7295
318 2 146.603 27.1909 0.131912
319 2 150.318 27.2019 0.353724
320 2 154.166 27.028 0.237113
321 2 158.3 31.0032 0.194966
322 2 3.86088 30.8738 15.9285
323 2 7.87625 30.9994 0.260493
324 2 11.6974 30.9565 16.1236
325 2 15.4797 30.7262 0.232734
326 2 19.392 30.921 0.175802
327 2 23.352 30.8984 0.0686826
328 2 27.3591 31.0307 0.208601
329 2 31.5987 31.1109 0.137732
330 2 35.6007 30.9702 16.0371
331 2 39.5161 31.2928 16.0486
332 2 43.6392 31.3625 16.0215
333 2 47.458 31.4046 15.7226
334 2 51.4601 31.4239 0.0359921
335 2 55.4703 31.5357 0.153609
336 2 59.5058 31.4887 15.9242
337 2 63.5925 31.4516 15.9313
338 2 67.3654 31.6283 16.1014
339 2 71.5314 31.6207 0.198613
340 2 75.3748 31.4744 0.237503
341 2 79.4153 31.6024 15.893
342 2 83.4465 31.7238 0.115713
343 2 87.5155 31.8214 0.233345
344 2 91.433 31.8218 0.22312
345 2 95.3471 32.2094 16.0313
346 2 99.4736 31.8937 16.1226
347 2 103.307 31.8513 15.8198
348 2 107.229 31.7869 15.8556
349 2 111.264 31.6954 0.0707316
350 2 115.289 31.8165 16.1067
351 2 118.981 31.6043 15.8739
352 2 122.881 31.4796 15.8965
353 2 126.913 31.3956 16.0025
354 2 130.783 31.4463 15.6556
355 2 134.61 31.3202 15.997
356 2 138.655 31.3824 0.0838144
357 2 142.443 31.2325 0.121706
358 2 146.375 31.0697 15.9964
359 2 150.439 31.2019 0.369316
360 2 154.318 31.1287 0.0883344
361 2 158.175 35.1062 0.237623
362 2 3.70185 34.8846 0.225614
363 2 7.79304 34.9245 -0.0428664
364 2 11.8251 34.7413 0.120024
365 2 15.6123 34.7649 0.0159466
366 2 19.395 34.8032 0.149228
367 2 23.3459 34.8163 0.181272
368 2 27.1808 34.9706 0.333773
369 2 31.4494 35.0554 0.183454
370 2 35.3481 35.1601 0.252051
371 2 39.4608 35.1014 15.8439
372 2 43.3167 35.1143 -0.00205117
373 2 47.3578 35.4056 16.0429
374 2 51.4868 35.411 0.234023
375 2 55.3844 35.5638 16.0829
376 2 59.427 35.4948 0.162211
377 2 63.5407 35.3243 15.9358
378 2 67.4379 35.6045 0.254751
379 2 71.3438 35.4867 0.297907
380 2 75.2947 35.5273 0.185833
381 2 79.3508 35.5944 15.9489
382 2 83.3022 35.755 0.213121
383 2 87.2954 35.7924 15.8305
384 2 91.4818 35.8769 0.0314392
385 2 95.5064 36.0458 15.8606
386 2 99.4751 35.7931 15.7965
387 2 103.078 35.9246 15.9145
388 2 107.241 35.8866 15.8007
389 2 111.227 35.6734 -0.0341938
390 2 115.211 35.6525 15.7918
391 2 118.98 35.6304 15.884
392 2 122.913 35.4371 0.0699565
393 2 126.939 35.2388 0.13221
394 2 130.688 35.515 0.0639063
395 2 134.615 35.5072 0.104441
396 2 138.605 35.17 16.003
397 2 142.569 35.3 0.279429
398 2 146.459 35.0831 15.8643
399 2 150.306 35.1714 0.230356
400 2 154.134 35.0154 0.325743
401 2 158.248 38.9395 0.174252
402 2 3.88688 38.9915 0.273178
403 2 7.6105 39.0217 0.10414
404 2 11.666 38.8072 16.1323
405 2 15.4089 38.7992 0.184741
406 2 19.5953 38.9099 0.15339
407 2 23.4038 38.7712 15.8187
408 2 27.433 39.0135 0.156081
409 2 31.3768 39.0009 15.9025
410 2 35.3315 39.0013 0.270868
411 2 39.4914 39.0941 0.275521
412 2 43.3391 38.9791 15.9309
413 2 47.3355 39.1602 0.371226
414 2 51.2895 39.2387 15.7856
415 2 55.3604 39.3675 0.12691
416 2 59.2895 39.4564 15.9349
417 2 63.3153 39.3094 0.0522536
418 2 67.2426 39.4758 0.384324
419 2 71.3808 39.4427 15.8996
420 2 75.384 39.3571 0.318075
421 2 79.1988 39.6889 16.0866
422 2 83.3544 39.5755 16.059
423 2 87.3911 39.7233 0.387466
424 2 91.389 39.574 15.864
425 2 95.3208 39.6885 0.0473946
426 2 99.37 39.6934 0.12125
427 2 103.396 39.9242 15.7496
428 2 107.294 39.9143 0.199237
429 2 111.146 39.7158 15.8898
430 2 115.103 39.5745 -0.019474
431 2 118.87 39.5245 0.0423959
432 2 122.992 39.5105 15.9036
433 2 126.881 39.4515 15.8462
434 2 130.733 39.3185 15.8882
435 2 134.872 39.2827 0.084093
436 2 138.892 39.2696 0.156383
437 2 142.62 39.0786 0.0886665
438 2 146.604 39.3289 15.8798
439 2 150.331 39.2132 16.2204
440 2 154.232 39.1491 16.1879
441 2 158.061 43.0727 0.229579
442 2 3.69822 43.0178 0.0993344
443 2 7.80733 42.926 0.0299315
444 2 11.7547 42.9115 0.27873
445 2 15.4558 42.9504 0.250973
446 2 19.5334 42.898 0.147362
447 2 23.4809 42.8732 0.054234
448 2 27.3224 42.9607 -0.0125157
449 2 31.4726 42.8539 0.125571
450 2 35.188 42.8879 0.2634
451 2 39.201 42.8427 0.290076
452 2 43.3101 42.9733 0.299102
453 2 47.1693 43.147 0.131995
454 2 51.351 43.1472 0.095335
455 2 55.3182 43.3474 15.9104
456 2 59.3719 43.4468 16.0268
457 2 63.3968 43.2052 0.370288
458 2 67.2474 43.4265 15.899
459 2 71.2845 43.3825 0.368046
460 2 75.3592 43.3953 15.7937
461 2 79.1838 43.5603 15.6645
462 2 83.1869 43.5905 0.141488
463 2 87.258 43.6498 0.0779705
464 2 90.9831 43.2483 0.217363
465 2 95.2136 43.5532 16.0876
466 2 99.321 43.6576 15.8807
467 2 103.219 43.58 15.7335
468 2 107.301 43.6979 16.0544
469 2 111.285 43.737 15.8077
470 2 115.012 43.8151 15.7688
471 2 118.975 43.5659 15.6238
472 2 122.935 43.303 15.853
473 2 126.907 43.4952 15.9271
474 2 130.906 43.3704 0.0797583
475 2 135.141 43.1867 0.172365
476 2 138.761 43.4541 0.0556921
477 2 142.691 43.1909 15.9282
478 2 146.752 43.334 16.1275
479 2 150.601 43.0067 16.0238
480 2 154.424 43.0568 0.0300706
481 2 158.115 47.2507 0.274366
482 2 3.91577 46.9433 0.156716
483 2 7.99509 46.9566 0.105989
484 2 11.6304 46.9167 15.9713
485 2 15.4253 46.8638 0.294755
486 2 19.4299 46.9122 15.8559
487 2 23.4072 46.7949 0.282925
488 2 27.281 46.617 0.0414971
489 2 31.158 46.9587 0.0688796
490 2 35.2058 46.9283 0.297296
491 2 39.3527 46.9801 15.8841
492 2 43.2422 46.8981 0.063799
493 2 47.2237 46.9557 0.189621
494 2 51.1265 47.0032 -0.0295733
495 2 55.0892 47.2169 0.101586
496 2 59.2014 47.3506 15.9972
497 2 63.1641 47.3083 16.0348
498 2 67.194 47.3361 0.360413
499 2 71.1529 47.5553 0.257308
500 2 75.2141 47.1571 0.12916
501 2 79.2126 47.3546 15.8232
502 2 83.1734 47.6162 0.238584
503 2 87.2567 47.4733 0.0639845
504 2 91.2553 47.5508 0.20023
505 2 95.2721 47.3415 15.9022
506 2 99.3682 47.5356 15.8018
507 2 103.243 47.4633 0.212986
508 2 107.377 47.6003 0.128064
509 2 111.359 47.7793 15.9607
510 2 115.243 47.472 15.8307
511 2 119.191 47.7165 -0.088586
512 2 123.08 47.6523 15.9667
513 2 126.927 47.4434 0.17299
514 2 130.939 47.3756 16.1007
515 2 134.816 47.3196 0.228283
516 2 138.852 47.2413 0.241809
517 2 142.769 47.3209 0.153546
518 2 146.766 47.2805 0.0673183
519 2 150.539 47.1345 16.0085
520 2 154.399 47.0542 15.9756
521 2 158.332 51.1759 0.440312
522 2 3.77531 51.0562 15.8884
523 2 7.78827 50.965 0.079791
524 2 11.8258 50.8489 15.9374
525 2 15.737 50.8745 0.2557
526 2 19.6506 50.8339 0.117512
527 2 23.3937 50.7878 15.9456
528 2 27.245 50.7822 0.0628134
529 2 31.2049 50.8352 0.271486
530 2 35.2464 50.9366 0.285144
531 2 39.0899 50.7767 0.106886
532 2 43.1018 50.8724 15.9068
533 2 47.2413 50.9577 15.8106
534 2 51.1717 51.1952 15.8263
535 2 55.0454 50.9865 0.0691429
536 2 59.1661 50.9612 15.9266
537 2 63.1375 51.247 15.908
538 2 67.1262 51.3066 0.266421
539 2 70.9783 51.3888 16.2383
540 2 75.1687 51.1744 0.19232
541 2 79.266 51.2856 0.0793918
542 2 83.162 51.3481 0.326773
543 2 87.177 51.2887 0.270413
544 2 91.2608 51.3187 0.231726
545 2 95.1448 51.2996 15.9801
546 2 99.1613 51.4481 16.0762
547 2 103.26 51.4037 15.9569
548 2 107.286 51.4367 0.197986
549 2 111.296 51.5995 0.0920037
550 2 115.335 51.5665 0.185527
551 2 119.238 51.6212 15.7469
552 2 123.178 51.5776 0.214557
553 2 127.056 51.354 16.1146
554 2 130.849 51.2417 0.333243
555 2 134.776 51.2949 15.7712
556 2 138.661 51.348 0.378657
557 2 142.578 51.1802 15.9877
558 2 146.4 51.1634 0.282782
559 2 150.385 51.0802 0.268661
560 2 154.314 50.9567 15.8543
561 2 -0.036999 54.9607 0.424513
562 2 3.92565 54.8925 0.191724
563 2 7.68103 54.839 0.265039
564 2 11.5955 54.8098 0.0474549
565 2 15.6068 54.9278 16.1131
566 2 19.5332 54.8283 0.286399
567 2 23.5662 54.6903 0.222332
568 2 27.3643 54.8563 15.8986
569 2 31.3131 54.7129 0.300822
570 2 35.411 54.7946 0.0437164
571 2 39.2159 54.6559 0.175807
572 2 43.0741 54.5698 0.29646
573 2 47.0483 54.8766 0.164136
574 2 51.1193 54.9923 0.0771937
575 2 55.0741 55.0019 15.9451
576 2 58.9695 54.9243 15.7887
577 2 63.1079 54.9683 15.8491
578 2 67.0805 55.158 0.15529
579 2 71.2489 55.1547 0.164916
580 2 75.0924 55.1322 15.8502
581 2 78.8491 55.3043 15.8386
582 2 82.9886 55.1619 0.199024
583 2 87.2222 55.2343 16.0451
584 2 91.2409 55.4119 0.0942236
585 2 95.1283 55.2377 -0.00648305
586 2 99.1975 55.2648 16.1864
587 2 103.048 55.4567 0.0413428
588 2 107.265 55.3391 0.208794
589 2 111.308 55.5598 15.8602
590 2 115.193 55.2944 0.189145
591 2 119.115 55.5713 15.8712
592 2 123.088 55.3373 0.0626358
593 2 127.04 55.4078 0.0544966
594 2 131.009 55.3311 16.0344
595 2 134.941 55.2512 16.2218
596 2 138.682 55.2027 15.9209
597 2 142.538 55.2818 0.410545
598 2 146.492 55.1453 0.14188
599 2 150.512 55.1444 0.24653
600 2 154.391 55.161 0.0871548
601 2 158.342 59.0911 0.362891
602 2 4.02441 58.8408 16.2331
603 2 7.86892 58.8755 0.097458
604 2 11.7872 58.9083 15.8996
605 2 15.6283 59.012 16.1897
606 2 19.5748 58.9277 0.432627
607 2 23.6106 59.0199 0.341832
608 2 27.6298 58.8434 0.30985
609 2 31.5121 58.709 0.117403
610 2 35.298 58.8121 15.9314
611 2 39.0906 58.782 0.116597
612 2 43.1261 58.7822 -0.0729791
613 2 47.2313 58.8822 0.150015
614 2 51.1069 58.9093 -0.0385931
615 2 55.0248 59.1147 15.8125
616 2 58.8343 58.7695 15.8662
617 2 63.0335 59.0281 16.0675
618 2 67.3365 59.0422 15.9511
619 2 71.1035 59.0372 15.9939
620 2 75.1509 58.9359 15.9185
621 2 78.9636 59.0747 0.187663
622 2 83.1363 59.0223 0.106775
623 2 87.0424 59.1945 0.20838
624 2 91.0511 59.5169 0.00479528
625 2 95.1817 59.157 0.117391
626 2 99.0909 59.1533 15.802
627 2 103.281 59.3119 0.140391
628 2 107.264 59.2413 0.184435
629 2 111.252 59.5405 15.8829
630 2 115.206 59.2912 15.8657
631 2 119.182 59.6574 15.8679
632 2 123.162 59.3743 15.9701
633 2 127.037 59.171 0.239891
634 2 130.998 59.3932 16.0807
635 2 134.81 59.3398 16.0373
636 2 138.73 59.0763 15.9333
637 2 142.547 59.1116 0.260333
638 2 146.495 59.2428 0.211884
639 2 150.367 58.9568 0.184728
640 2 154.479 59.2455 0.417764
641 2 0.121185 63.0655 0.126918
642 2 3.93633 62.9278 0.301671
643 2 7.91702 63.0821 15.9551
644 2 11.7181 63.0431 15.8615
645 2 15.8049 62.7788 0.226399
646 2 19.6643 62.9129 0.0952223
647 2 23.4989 62.9407 0.25942
648 2 27.5901 62.8845 0.131698
649 2 31.3111 62.8702 0.28731
650 2 35.1936 63.0766 0.380384
651 2 39.2708 62.6961 0.0231884
652 2 43.0313 62.756 16.0295
653 2 47.0298 62.8402 16.0979
654 2 50.9882 62.7701 0.116037
655 2 54.9802 62.7565 0.116459
656 2 58.9385 62.9224 15.8008
657 2 62.9424 62.8376 0.200444
658 2 66.8949 62.9118 15.8376
659 2 71.0725 62.8344 16.17
660 2 74.9525 63.0231 0.0909993
661 2 79.0342 62.9263 15.9548
662 2 83.1277 62.81 0.255981
663 2 87.2866 63.1268 15.8999
664 2 91.1797 63.0527 16.0031
665 2 95.1575 63.1505 16.1361
666 2 99.1632 63.2118 15.8806
667 2 103.208 63.1231 0.11992
668 2 106.974 63.3535 15.869
669 2 110.919 63.2095 15.7106
670 2 115.076 63.2711 0.214883
671 2 118.972 63.2102 -0.0516824
672 2 123.136 63.6053 0.189652
673 2 127.006 63.4606 16.0052
674 2 131.121 63.3105 0.106381
675 2 134.747 63.2435 15.7898
676 2 138.614 63.2373 0.020541
677 2 142.643 63.0781 15.859
678 2 146.795 63.2615 0.468454
679 2 150.472 63.2348 0.0803153
680 2 154.522 63.039 0.246614
681 2 0.0816215 66.9299 0.242939
682 2 3.99243 66.8273 0.0530725
683 2 7.88537 66.9788 15.9269
684 2 11.8145 66.8938 15.9109
685 2 15.6856 67.0435 0.217606
686 2 19.6224 66.7709 0.229681
687 2 23.5618 67.0425 0.0366802
688 2 27.475 66.6916 0.174162
689 2 31.4176 67.2098 0.292584
690 2 35.4059 66.791 16.0213
691 2 39.2433 66.9013 15.8765
692 2 43.1027 66.7613 16.3939
693 2 46.9014 66.6513 15.7291
694 2 50.972 66.5961 0.226629
695 2 54.9275 66.4434 15.8528
696 2 58.9142 66.8288 15.779
697 2 62.9226 66.6801 0.0807621
698 2 67.0183 66.8679 15.8182
699 2 71.055 66.8754 0.201352
700 2 75.0524 66.9653 0.198952
701 2 79.0495 66.755 15.9889
702 2 82.9816 66.8714 15.9203
703 2 87.0187 67.0363 15.8484
704 2 91.1715 66.8832 0.229552
705 2 94.9599 67.0245 15.7876
706 2 99.1301 67.0117 15.8639
707 2 103.174 67.1512 0.194991
708 2 107.178 67.3012 0.267428
709 2 110.992 67.3244 15.8985
710 2 115.166 67.3056 15.9912
711 2 119.123 67.2897 0.196313
712 2 123.277 67.5131 16.0017
713 2 127.05 67.5414 0.318282
714 2 131.119 67.2783 0.34176
715 2 135.087 67.1583 15.9548
716 2 138.777 67.2756 0.0184529
717 2 142.89 67.212 15.7976
718 2 146.69 67.2249 16.0176
719 2 150.513 67.3885 0.0557673
720 2 154.525 67.0691 0.273294
721 2 158.461 71.1163 15.9345
722 2 4.26674 70.9459 0.214638
723 2 7.87541 71.1039 0.296385
724 2 11.8882 71.1452 0.204919
725 2 15.8861 70.9803 15.9146
726 2 19.6768 70.8041 0.324472
727 2 23.617 70.8881 0.00267405
728 2 27.4307 70.8582 0.119698
729 2 31.2209 70.9284 -0.0351405
730 2 35.2978 70.8649 0.349886
731 2 39.2047 70.8311 0.152348
732 2 43.2371 70.75 0.109546
733 2 47.2131 70.736 15.9237
734 2 51.0879 70.5232 0.065297
735 2 54.9598 70.6702 15.8983
736 2 58.9143 70.6218 15.7525
737 2 62.8376 70.6396 15.8557
738 2 66.845 70.817 15.9187
739 2 70.8537 70.8511 0.095225
740 2 75.0268 70.8552 16.097
741 2 79.0472 70.7686 0.0344244
742 2 83.1435 70.876 0.126682
743 2 87.0686 70.7471 15.8252
744 2 91.0377 70.7461 15.8642
745 2 95.0321 70.9373 16.0517
746 2 98.9441 70.9237 16.0037
747 2 103.003 71.1058 15.641
748 2 107.202 71.1045 0.254211
749 2 111.097 71.0931 0.201106
750 2 114.956 71.1522 0.115139
751 2 118.921 71.1267 0.102486
752 2 123.196 71.0737 15.8789
753 2 127.057 71.2825 0.0344666
754 2 131.111 71.2989 0.0393813
755 2 135.048 71.126 -0.0334984
756 2 138.859 71.086 15.8445
757 2 142.58 71.31 15.8219
758 2 146.728 71.1151 15.8494
759 2 150.728 71.1742 0.0573381
760 2 154.703 71.1609 0.114062
761 2 0.0620874 75.0307 15.912
762 2 3.97087 74.9903 16.096
763 2 8.05727 75.1068 0.100084
764 2 11.9381 75.0806 0.195132
765 2 15.7568 75.1444 15.9337
766 2 19.6308 74.7446 0.0578074
767 2 23.6634 74.8549 0.04143
768 2 27.5407 74.7961 0.0878316
769 2 31.3017 74.8188 0.120235
770 2 35.2641 74.828 0.072787
771 2 39.397 74.6448 0.162169
772 2 43.25 74.7071 0.194317
773 2 46.995 74.5796 0.155395
774 2 50.9527 74.6698 15.8328
775 2 55.0943 74.5541 15.9375
776 2 59.0729 74.4849 15.9125
777 2 62.8793 74.4193 15.8687
778 2 66.7104 74.6636 15.7203
779 2 70.9605 74.6712 0.15576
780 2 74.8855 74.6453 0.576576
781 2 78.8543 74.724 0.226206
782 2 82.9698 74.7057 15.9442
783 2 87.0266 74.6462 16.1682
784 2 90.9134 74.6843 -0.019139
785 2 95.0751 74.9185 15.815
786 2 99.1771 74.7879 15.921
787 2 103.161 74.9745 16.1103
788 2 107.012 74.9641 0.118247
789 2 111.186 75.1181 -0.0037926
790 2 114.911 75.201 0.058453
791 2 119.121 75.0479 0.130139
792 2 123.019 75.1179 0.0587401
793 2 127.062 75.2084 15.6258
794 2 130.991 75.1892 15.9667
795 2 134.95 75.3975 -0.0525427
796 2 138.791 75.4184 16.0603
797 2 142.753 75.0751 15.734
798 2 146.662 75.1852 15.8035
799 2 150.591 75.0558 15.7917
800 2 154.432 75.0568 15.9619
801 2 0.190352 78.9672 0.105181
802 2 3.98344 79.0143 0.170499
803 2 7.88761 79.0295 0.286229
804 2 11.9796 78.8291 15.9428
805 2 15.8854 78.9258 15.8668
806 2 19.7395 78.8967 0.0192058
807 2 23.6917 78.8204 0.2113
808 2 27.3567 78.9287 0.211567
809 2 31.3676 78.908 15.9471
810 2 35.4553 78.8989 -0.026052
811 2 39.3852 78.7191 0.097189
812 2 43.4138 78.8099 0.241576
813 2 47.082 78.5917 0.173693
814 2 51.3472 78.5595 0.29819
815 2 55.0425 78.5506 0.16369
816 2 59.0131 78.6992 0.277203
817 2 62.891 78.5676 0.204037
818 2 66.7475 78.4623 0.317135
819 2 70.8629 78.509 16.0722
820 2 75.0395 78.6603 0.131164
821 2 78.9664 78.7293 0.249887
822 2 83.0093 78.6152 15.9592
823 2 86.977 78.76 15.7885
824 2 91.0271 78.8514 15.7513
825 2 94.8909 78.8158 0.185141
826 2 98.7774 78.9131 0.0572653
827 2 102.724 78.881 15.7673
828 2 107.107 78.9816 0.195605
829 2 111.169 78.9312 15.8362
830 2 114.874 78.9506 0.148288
831 2 118.956 78.8687 0.0786688
832 2 122.878 79.0201 15.9937
833 2 126.813 79.2079 0.188484
834 2 131.092 79.1811 15.933
835 2 135.014 79.3171 0.163847
836 2 138.89 79.4374 -0.0462901
837 2 142.828 79.0118 15.8592
838 2 146.87 79.4195 15.5993
839 2 150.9 79.0893 15.7982
840 2 154.529 79.1419 0.0719983
841 2 0.280439 83.082 0.370632
842 2 4.25989 83.0953 15.9387
843 2 8.14733 82.9559 0.163739
844 2 11.9649 83.1265 15.738
845 2 15.9476 82.8028 15.8378
846 2 19.8176 82.9311 0.19111
847 2 23.5401 82.8543 0.074029
848 2 27.466 82.8882 0.158113
849 2 31.457 82.6328 15.9489
850 2 35.3356 82.6957 0.255283
851 2 39.4981 82.6836 0.280119
852 2 43.3348 82.5844 0.126749
853 2 47.321 82.7251 0.313877
854 2 51.041 82.7694 0.144497
855 2 55.1278 82.698 0.351984
856 2 59.0391 82.5156 16.0055
857 2 62.9607 82.5062 15.845
858 2 66.6935 82.3996 15.8038
859 2 70.793 82.1797 0.0821357
860 2 74.8716 82.3615 0.172827
861 2 78.7924 82.6246 0.269685
862 2 82.9294 82.584 16.0522
863 2 86.9706 82.4267 15.8976
864 2 90.8618 82.8551 16.133
865 2 95.0088 82.6957 16.0182
866 2 98.9757 83.0486 15.9744
867 2 103.004 82.8084 16.0885
868 2 106.74 82.7223 -0.102807
869 2 110.942 82.7819 15.8889
870 2 114.839 83.0164 0.0968537
871 2 118.809 82.9492 0.121982
872 2 122.893 83.0253 15.9546
873 2 126.837 83.0847 15.7987
874 2 131.054 82.8975 15.9351
875 2 134.874 83.0815 0.103481
876 2 138.97 83.124 0.073946
877 2 143.018 83.0607 -0.0648639
878 2 146.886 83.0229 15.8142
879 2 150.813 83.2627 15.8831
880 2 154.774 83.0497 15.8023
881 2 0.488469 87.2237 -0.0566658
882 2 4.25456 87.0632 0.0746235
883 2 8.14969 87.1487 0.233562
884 2 12.0812 87.135 15.9351
885 2 16.0898 87.1082 15.9663
886 2 19.8427 87.0278 0.215457
887 2 23.7332 86.9857 -0.01991
888 2 27.6803 86.8448 -0.0267332
889 2 31.5973 86.8047 15.7313
890 2 35.5002 86.7914 0.204194
891 2 39.3149 86.6116 0.195996
892 2 43.3293 86.5664 0.0585734
893 2 47.3451 86.5692 0.340743
894 2 51.2353 86.6341 0.228504
895 2 55.1694 86.4447 0.185371
896 2 59.003 86.4477 0.125986
897 2 62.836 86.529 15.9692
898 2 66.7338 86.3761 15.9236
899 2 70.7681 86.5184 0.242429
900 2 74.7747 86.4561 16.0823
901 2 78.7902 86.3579 0.248674
902 2 82.9448 86.4937 15.9364
903 2 86.8061 86.383 0.0684848
904 2 90.7163 86.3133 15.9153
905 2 94.7565 86.7496 15.92
906 2 98.8978 86.7808 15.8659
907 2 102.93 86.8756 16.0191
908 2 106.967 86.6768 15.8156
909 2 110.778 86.7417 0.178337
910 2 114.907 86.805 15.9558
911 2 118.936 87.0913 15.9675
912 2 122.86 87.0494 15.8451
913 2 126.953 87.0079 15.7783
914 2 130.8 86.9726 16.0203
915 2 134.914 87.0024 0.20333
916 2 138.92 87.0288 0.165602
917 2 142.904 87.0328 15.9112
918 2 146.914 87.0132 15.8391
919 2 150.747 87.333 15.9473
920 2 154.703 87.1978 0.0633664
921 2 0.486561 90.9312 16.0484
922 2 4.32905 90.9176 15.9914
923 2 8.1065 91.1434 0.123358
924 2 12.0051 90.9609 15.6968
925 2 15.8577 90.9683 15.9025
926 2 19.9397 90.9957 0.192532
927 2 23.8378 90.8646 15.9482
928 2 27.8443 90.7621 0.0719493
929 2 31.685 90.839 15.6038
930 2 35.6826 90.8212 0.185171
931 2 39.5718 90.973 -0.166622
932 2 43.4515 90.6908 0.0439438
933 2 47.2621 90.6733 0.194714
934 2 51.3083 90.7416 15.9957
935 2 55.2712 90.5944 0.18918
936 2 59.0854 90.6137 15.9809
937 2 62.9942 90.4388 0.0644751
938 2 66.9688 90.3842 -0.0317253
939 2 70.8086 90.3711 0.132143
940 2 74.7505 90.4795 16.185
941 2 78.9639 90.341 15.8088
942 2 82.8258 90.3398 16.0567
943 2 86.7292 90.5306 16.0102
944 2 90.8838 90.5198 0.0731442
945 2 94.8041 90.5816 15.95
946 2 98.8876 90.5518 15.8769
947 2 102.929 90.8058 16.0801
948 2 106.749 90.8477 15.9421
949 2 110.743 90.6963 15.937
950 2 114.86 90.7122 16.0291
951 2 118.861 90.8108 0.221876
952 2 122.783 90.7809 0.219313
953 2 126.902 90.8838 0.323727
954 2 130.584 91.0468 16.0407
955 2 134.815 90.9632 0.382294
956 2 138.859 91.1667 15.7683
957 2 142.946 90.92 15.9606
958 2 146.78 91.1133 0.0657032
959 2 150.743 91.2151 16.0104
960 2 155.01 91.1157 15.8715
961 2 0.618472 95.148 15.8704
962 2 4.31029 94.9637 15.7757
963 2 8.29644 95.0907 0.115235
964 2 12.2852 95.0189 15.9371
965 2 16.1701 94.9898 15.9245
966 2 20.0343 94.9851 15.9062
967 2 23.9777 94.9424 15.8558
968 2 27.7304 94.8821 0.0393622
969 2 31.697 94.9884 15.9121
970 2 35.7207 94.6972 0.117728
971 2 39.6062 94.764 0.188455
972 2 43.4955 94.6838 0.205436
973 2 47.4273 94.6558 15.9753
974 2 51.4202 94.7181 16.0596
975 2 55.2265 94.5694 16.0009
976 2 59.04 94.5144 0.237033
977 2 62.919 94.5897 15.8455
978 2 66.7972 94.4044 15.9735
979 2 70.7812 94.3278 0.267001