ITEM: TIMESTEP
19900
ITEM: NUMBER OF ATOMS
32000
ITEM: BOX BOUNDS xy xz yz pp pp pp
0.0000000000000000e+00 1.5831999999999999e+02 0.0000000000000000e+00
0.0000000000000000e+00 1.5831999999999999e+02 0.0000000000000000e+00
1.6567122471106988e-01 1.5932040775288772e+01 0.0000000000000000e+00
ITEM: ATOMS id type x y z
1 2 158.031 157.89 15.9233
2 2 3.84636 157.893 15.7206
3 2 7.8425 157.877 0.241169
4 2 11.942 158.054 0.198219
5 2 16.0337 157.959 0.306811
6 2 20.0704 158.15 15.9553
7 2 24.0203 158.017 15.7249
8 2 27.9626 158.218 15.8144
9 2 31.9974 158.219 0.196096
10 2 35.8234 158.239 15.6569
11 2 39.8584 0.036991 15.7643
12 2 43.9756 0.00158392 0.196801
13 2 47.8151 0.0675035 15.7232
14 2 52.0039 0.0419801 0.458959
15 2 55.9304 158.209 0.210713
16 2 59.9555 158.477 15.8394
17 2 63.9491 0.215248 15.7009
18 2 67.9008 0.280499 15.6647
19 2 71.8343 0.11333 15.8072
20 2 75.752 158.195 15.7835
21 2 79.685 0.0117765 15.7145
22 2 83.2389 158.303 15.7957
23 2 87.409 158.213 15.834
24 2 91.2855 158.056 0.16206
25 2 95.2047 158.07 15.8307
26 2 98.992 158.279 15.8001
27 2 102.899 158.087 15.8661
28 2 107.03 158.232 15.8591
29 2 110.916 158.11 0.263936
30 2 114.778 157.81 0.156242
31 2 118.655 157.685 16.0297
32 2 122.376 157.699 0.247265
33 2 126.39 157.795 0.495248
34 2 130.547 157.8 0.330869
35 2 134.37 157.908 15.9568
36 2 138.107 157.516 15.8901
37 2 142.103 157.474 15.8129
38 2 145.983 157.547 15.8478
39 2 150.016 157.583 0.16317
40 2 154.123 157.687 0.216485
41 2 158.107 3.28825 15.6904
42 2 3.83281 3.35641 15.8771
43 2 7.84015 3.30217 0.244337
44 2 11.9745 3.46665 15.9215
45 2 15.7669 3.53473 15.8932
46 2 20.0085 3.56109 15.8923
47 2 24.0126 3.4433 0.280326
48 2 28.0091 3.83192 0.0805737
49 2 31.9331 3.78877 0.330476
50 2 35.8453 3.83142 0.270517
51 2 39.8831 3.98252 0.285612
52 2 43.7895 4.01415 15.9464
53 2 47.9135 4.0107 15.9154
54 2 52.0149 4.00895 15.8801
55 2 55.9884 3.83131 0.297043
56 2 59.8876 4.03032 15.9533
57 2 63.8463 4.08316 15.7891
58 2 67.8531 4.2745 15.9368
59 2 71.7564 3.92902 15.7185
60 2 75.6094 4.09315 15.93
61 2 79.581 4.04192 15.7346
62 2 83.4911 4.04055 15.8488
63 2 87.4796 3.92344 15.9765
64 2 91.2045 3.7546 0.354874
65 2 95.1331 3.78057 15.8802
66 2 98.9247 3.76608 0.183539
67 2 103.097 3.75117 15.968
68 2 106.79 3.74183 15.8971
69 2 110.905 3.69866 0.343874
70 2 114.897 3.51896 0.150315
71 2 118.715 3.58828 0.166902
72 2 122.639 3.47001 0.468244
73 2 126.573 3.40737 0.369339
74 2 130.662 3.52855 0.378705
75 2 134.389 3.34108 15.9373
76 2 138.187 3.2488 0.176634
77 2 142.081 3.17703 0.244356
78 2 145.983 3.18465 0.232331
79 2 149.96 3.29464 15.908
80 2 153.867 3.6146 15.8294
81 2 158.174 7.35675 15.9918
82 2 3.78629 7.0292 15.9353
83 2 7.88368 7.51845 15.942
84 2 11.7897 7.30837 0.107362
85 2 15.7665 7.5111 15.9249
86 2 19.7924 7.26838 15.6455
87 2 23.7929 7.47135 0.172839
88 2 27.8834 7.66949 15.9285
89 2 31.7937 7.54008 15.8731
90 2 35.8425 7.57082 15.8261
91 2 39.8441 7.87561 0.0914727
92 2 43.713 7.91885 0.277982
93 2 47.7857 7.6325 15.6747
94 2 51.8606 7.76144 0.277255
95 2 55.7962 7.94898 15.7299
96 2 59.7033 8.08613 0.402272
97 2 63.8014 7.87567 15.882
98 2 67.7624 7.94124 15.8469
99 2 71.4796 8.16367 15.9613
100 2 75.5625 8.0458 15.759
101 2 79.6376 7.96599 0.133353
102 2 83.535 8.21274 15.9154
103 2 87.5396 7.95733 15.8238
104 2 91.4047 7.80808 15.8299
105 2 95.3599 7.73532 15.8039
106 2 99.0818 7.74583 0.225226
107 2 103.047 7.71488 0.24989
108 2 106.929 7.70831 15.9095
109 2 110.861 7.60924 0.256003
110 2 114.823 7.6368 15.8352
111 2 118.851 7.47296 15.8557
112 2 122.578 7.78585 15.8457
113 2 126.511 7.49561 15.8614
114 2 130.285 7.56036 0.262659
115 2 134.438 7.46041 0.373862
116 2 138.098 7.21542 15.9111
117 2 142.163 7.25116 15.9805
118 2 145.905 7.25116 0.364897
119 2 150.107 7.36378 0.234382
120 2 153.991 7.27716 15.8671
121 2 158.177 11.048 15.8832
122 2 3.69391 10.9741 15.8222
123 2 7.42896 11.1664 15.806
124 2 11.7952 11.3895 0.153525
125 2 15.8044 11.2343 15.8542
126 2 19.8598 11.6018 15.8844
127 2 23.8984 11.3373 15.7913
128 2 27.7113 11.3994 15.8158
129 2 31.7583 11.5151 15.7955
130 2 35.831 11.5905 15.7708
131 2 39.5464 11.8367 15.8471
132 2 43.7918 11.6684 0.328986
133 2 47.7689 11.7389 0.310925
134 2 51.7241 11.6467 15.8129
135 2 55.8077 11.8108 0.263666
136 2 59.7509 11.9543 15.7944
137 2 63.8308 11.8017 0.10549
138 2 67.7665 11.7802 15.8367
139 2 71.5532 12.0189 15.8991
140 2 75.7454 12.1088 15.7185
141 2 79.707 12.2409 15.8468
142 2 83.5581 11.9088 15.8051
143 2 87.5481 12.1248 0.261016
144 2 91.4733 11.9226 0.116457
145 2 95.146 11.925 15.7717
146 2 99.1739 11.7058 15.7548
147 2 103.155 12.0346 0.178897
148 2 107.127 11.6111 15.6603
149 2 110.942 11.7801 0.218856
150 2 114.839 11.7215 15.6684
151 2 118.555 11.754 0.286061
152 2 122.47 11.577 0.153707
153 2 126.515 11.4205 15.7663
154 2 130.515 11.2526 15.8425
155 2 134.508 11.3567 0.366692
156 2 138.343 11.3142 0.196047
157 2 142.192 11.0794 0.217402
158 2 146.139 11.1901 0.128201
159 2 150.134 11.1063 0.308901
160 2 153.712 11.2265 0.24942
161 2 157.998 15.1001 15.9009
162 2 3.64333 14.7879 15.7234
163 2 7.73151 15.1111 15.9343
164 2 11.6586 15.1886 15.9546
165 2 15.7343 15.393 15.8729
166 2 19.6924 15.3577 0.178727
167 2 23.6086 15.2171 0.349231
168 2 27.6654 15.4271 15.6748
169 2 31.433 15.3837 0.254768
170 2 35.5457 15.3437 15.8237
171 2 39.6218 15.428 0.339158
172 2 43.6383 15.5755 0.406274
173 2 47.7527 15.6972 0.192494
174 2 51.727 15.8423 0.188822
175 2 55.6981 15.7769 15.9059
176 2 59.6787 15.7716 0.274959
177 2 63.6891 15.8325 15.7447
178 2 67.6058 16.0504 15.7743
179 2 71.726 15.9949 0.309101
180 2 75.6137 16.0552 0.351638
181 2 79.634 16.0609 15.8535
182 2 83.6275 15.9194 0.171765
183 2 87.7078 16.0149 15.8164
184 2 91.3136 15.8932 0.153962
185 2 95.4292 15.9971 15.7319
186 2 99.2027 15.894 15.8289
187 2 103.053 15.712 15.8683
188 2 106.926 15.5728 15.6699
189 2 111.232 15.834 15.8643
190 2 114.867 15.6706 15.8358
191 2 118.943 15.5473 0.260268
192 2 122.802 15.6071 15.7613
193 2 126.494 15.5213 15.8807
194 2 130.589 15.473 0.30677
195 2 134.489 15.2862 0.200598
196 2 138.474 15.3757 0.331485
197 2 142.352 15.1981 15.9121
198 2 146.118 15.1175 0.336451
199 2 149.847 15.0635 0.157187
200 2 153.999 15.1279 15.8349
201 2 158.109 18.982 15.8267
202 2 3.72078 18.9483 0.249347
203 2 7.59341 18.9034 0.301802
204 2 11.5996 19.0816 15.7291
205 2 15.4258 19.0957 15.6831
206 2 19.5787 19.196 16.0312
207 2 23.6689 19.2407 15.8642
208 2 27.579 19.2624 15.6964
209 2 31.8006 19.3486 15.8841
210 2 35.4995 19.6175 15.9222
211 2 39.6861 19.3902 0.199784
212 2 43.6244 19.3939 15.8371
213 2 47.7394 19.3627 15.8192
214 2 51.5249 19.7067 0.369854
215 2 55.5462 19.6208 15.8998
216 2 59.6769 19.7047 15.8763
217 2 63.6357 19.8256 15.8565
218 2 67.5607 19.7849 15.816
219 2 71.5777 19.8509 0.313475
220 2 75.429 19.9215 0.293106
221 2 79.3877 20.0351 0.184016
222 2 83.2381 19.9919 15.8375
223 2 87.5481 20.0249 0.157948
224 2 91.2739 20.1409 0.188029
225 2 95.3211 19.8274 15.7527
226 2 99.2286 19.6644 15.8442
227 2 103.258 19.7507 15.816
228 2 107.199 19.6862 15.8404
229 2 110.974 19.836 0.180932
230 2 114.967 19.5184 15.8409
231 2 118.846 19.5773 15.8902
232 2 122.761 19.6135 15.8256
233 2 126.663 19.5257 15.8237
234 2 130.654 19.4419 15.8566
235 2 134.429 19.3946 0.235546
236 2 138.251 19.2551 16.0086
237 2 142.134 19.3274 15.9692
238 2 146.145 19.2066 0.265196
239 2 150.224 19.0438 15.8261
240 2 154.16 18.9936 0.189364
241 2 158.147 23.0972 15.8162
242 2 3.76764 23.0729 15.8492
243 2 7.55963 22.946 0.270765
244 2 11.594 22.7509 0.0564325
245 2 15.6009 23.1137 15.8809
246 2 19.3976 22.7593 15.7624
247 2 23.4266 23.0668 15.9133
248 2 27.5913 23.0185 15.6988
249 2 31.5102 23.2188 0.338721
250 2 35.569 23.3113 15.9788
251 2 39.5263 23.5495 0.244442
252 2 43.695 23.4026 15.9581
253 2 47.6522 23.3839 0.148209
254 2 51.6672 23.596 0.262349
255 2 55.6104 23.4614 0.392961
256 2 59.3332 23.5904 15.5379
257 2 63.54 23.7941 0.13987
258 2 67.3738 23.6477 15.7368
259 2 71.6131 23.7924 15.8941
260 2 75.5083 23.7911 0.186702
261 2 79.5984 23.8347 15.7739
262 2 83.5943 23.915 0.10177
263 2 87.428 24.086 15.8812
264 2 91.6195 24.1051 15.7051
265 2 95.3517 23.8023 15.8998
266 2 99.1354 23.9399 0.178349
267 2 103.318 23.7581 15.8432
268 2 107.357 23.7292 15.9727
269 2 111.071 23.6573 0.148242
270 2 114.937 23.3381 15.8725
271 2 118.854 23.47 15.9635
272 2 122.766 23.6258 0.372016
273 2 126.683 23.6392 15.6864
274 2 130.691 23.4019 15.8217
275 2 134.628 23.3456 15.9407
276 2 138.425 23.2768 15.8307
277 2 142.319 23.2893 15.8757
278 2 146.361 23.2104 0.316909
279 2 150.214 23.0284 0.132422
280 2 154.078 23.1096 0.266989
281 2 158.187 27.0684 0.251859
282 2 3.8568 27.1475 0.360545
283 2 7.7979 27.1046 0.309659
284 2 11.4953 27.0567 15.8162
285 2 15.4682 26.653 15.9492
286 2 19.5169 26.9408 0.318861
287 2 23.1539 27.0049 15.7434
288 2 27.3978 26.9867 15.881
289 2 31.5992 27.1131 0.314554
290 2 35.5422 27.2209 0.373414
291 2 39.5427 27.4116 0.304351
292 2 43.5364 27.4393 0.297849
293 2 47.4858 27.365 0.228499
294 2 51.5684 27.5416 15.8025
295 2 55.4155 27.6457 0.180928
296 2 59.2499 27.5922 15.7415
297 2 63.3893 27.5645 15.8223
298 2 67.5014 27.7316 15.9125
299 2 71.3999 27.6083 15.7564
300 2 75.5519 27.6543 0.0697353
301 2 79.5681 27.7345 0.172914
302 2 83.5523 27.7571 15.9813
303 2 87.3329 27.9114 0.257998
304 2 91.4138 27.9813 0.276977
305 2 95.3594 27.86 0.320317
306 2 99.2461 27.8147 0.195963
307 2 103.009 27.7711 15.8599
308 2 107.077 27.841 0.228362
309 2 110.978 27.8263 15.7514
310 2 115.154 27.5328 15.7894
311 2 119.048 27.6778 0.112909
312 2 122.919 27.6657 0.198554
313 2 126.62 27.5243 15.8308
314 2 130.616 27.3157 15.9004
315 2 134.651 27.3511 15.8427
316 2 138.576 27.4369 15.7038
317 2 142.65 27.2349 0.298242
318 2 146.356 27.1813 0.228684
319 2 150.164 27.2454 0.0984937
320 2 154.299 27.0713 0.208972
321 2 158.101 31.0151 15.9225
322 2 3.81472 31.0239 15.9164
323 2 7.60687 30.834 15.8513
324 2 11.5588 30.8847 0.17508
325 2 15.4586 30.8766 0.216513
326 2 19.5002 30.9002 15.8209
327 2 23.3828 30.8282 15.8792
328 2 27.5005 30.8701 0.164625
329 2 31.4087 31.2402 15.9175
330 2 35.3993 31.2616 15.842
331 2 39.4819 31.2697 15.8711
332 2 43.2278 31.3705 0.132433
333 2 47.3552 31.3613 15.9412
334 2 51.3647 31.3378 0.304839
335 2 55.4489 31.4517 15.8548
336 2 59.4259 31.4703 0.31059
337 2 63.4017 31.5535 15.9059
338 2 67.4679 31.5015 0.167932
339 2 71.371 31.6006 0.275704
340 2 75.436 31.7326 0.127709
341 2 79.4581 31.8626 15.9039
342 2 83.409 31.7659 0.207401
343 2 87.3888 31.7535 15.7547
344 2 91.4229 31.7808 15.8321
345 2 95.5047 31.7287 15.7394
346 2 99.452 31.7889 0.0421808
347 2 103.386 31.8398 15.8665
348 2 107.391 31.8514 15.8421
349 2 111.087 31.7224 15.8243
350 2 114.941 31.6256 15.6946
351 2 118.982 31.6796 15.8898
352 2 122.88 31.6545 15.6979
353 2 126.721 31.7513 15.5903
354 2 130.525 31.4184 15.8544
355 2 134.633 31.4009 15.7357
356 2 138.533 31.3573 15.9174
357 2 142.425 31.1366 0.38559
358 2 146.351 31.2818 15.8724
359 2 150.288 31.0487 0.148606
360 2 154.162 30.9986 0.319879
361 2 -0.0427698 34.9195 0.339875
362 2 3.80449 34.9901 15.8479
363 2 7.73508 34.8669 16.0004
364 2 11.6394 35.0303 15.9688
365 2 15.5336 34.8915 0.305621
366 2 19.4235 34.8391 0.168618
367 2 23.3386 34.9447 0.224395
368 2 27.4784 34.7838 0.244012
369 2 31.5405 35.0794 0.251099
370 2 35.4873 35.0118 0.333763
371 2 39.4463 35.2164 0.370157
372 2 43.5144 35.3586 15.9839
373 2 47.4538 35.1544 15.7249
374 2 51.3242 35.2199 15.8049
375 2 55.2573 35.1751 0.262852
376 2 59.384 35.279 0.373944
377 2 63.2771 35.5064 15.8506
378 2 67.2719 35.3811 0.268407
379 2 71.3138 35.4999 0.374861
380 2 75.4018 35.7783 15.8922
381 2 79.4596 35.6764 0.181709
382 2 83.3998 35.6958 15.9169
383 2 87.3952 35.6228 0.235285
384 2 91.3402 35.7214 0.195689
385 2 95.4337 35.6517 15.9628
386 2 99.3231 35.878 0.232453
387 2 103.57 35.6424 15.7728
388 2 107.355 35.7016 15.8338
389 2 111.255 35.7926 15.9322
390 2 115.166 35.6208 15.9087
391 2 119.13 35.5657 15.8339
392 2 122.882 35.534 15.9619
393 2 126.534 35.7238 15.8328
394 2 130.694 35.415 15.7823
395 2 134.724 35.252 15.801
396 2 138.619 35.2448 0.0826656
397 2 142.339 35.0581 0.270162
398 2 146.31 35.0761 0.365693
399 2 150.332 35.0041 15.985
400 2 154.468 35.0829 0.154251
401 2 158.294 39.101 0.387997
402 2 3.80815 38.8281 0.172377
403 2 7.76962 38.744 0.213976
404 2 11.6233 38.9826 15.7493
405 2 15.5693 39.0475 0.307194
406 2 19.4544 39.0235 15.8639
407 2 23.4267 38.8372 15.8779
408 2 27.4362 38.9544 15.9414
409 2 31.4031 38.7757 0.330662
410 2 35.3572 38.8747 0.248432
411 2 39.2188 38.9469 15.8585
412 2 43.3658 39.2206 0.234744
413 2 47.2929 39.064 0.181227
414 2 51.3486 39.2985 15.9507
415 2 55.3189 39.1861 0.251176
416 2 59.3891 39.2467 0.308811
417 2 63.1524 39.4387 0.450033
418 2 67.3779 39.397 0.251405
419 2 71.314 39.3956 0.267193
420 2 75.1497 39.6656 0.143922
421 2 79.3013 39.6612 0.196924
422 2 83.3503 39.6489 15.879
423 2 87.1973 39.7139 15.7871
424 2 91.2697 39.6402 15.7922
425 2 95.4217 39.7601 15.8907
426 2 99.3885 39.8194 0.30301
427 2 103.299 39.5604 15.851
428 2 107.401 39.6042 15.6185
429 2 111.278 39.6133 15.6582
430 2 115.01 39.5948 15.8614
431 2 119.114 39.6962 15.7731
432 2 122.904 39.4836 15.8959
433 2 126.962 39.4111 0.243717
434 2 130.822 39.4358 15.7014
435 2 134.674 39.3029 15.761
436 2 138.564 39.1461 15.7545
437 2 142.502 39.3399 15.9496
438 2 146.479 39.0805 0.26272
439 2 150.374 39.2135 15.7472
440 2 154.264 39.0094 15.8375
441 2 158.339 42.9746 0.18927
442 2 3.9382 42.9266 15.8274
443 2 7.58949 42.9968 15.7906
444 2 11.5419 42.7664 0.095354
445 2 15.6094 42.8569 0.248254
446 2 19.3638 42.8386 0.265436
447 2 23.2897 42.7856 15.936
448 2 27.4279 42.7398 15.8919
449 2 31.0736 42.8121 0.393324
450 2 35.24 42.656 0.322772
451 2 39.2397 42.8048 0.249094
452 2 43.1274 42.9582 0.14208
453 2 47.216 43.1584 15.8814
454 2 51.2253 43.0723 15.8127
455 2 55.2218 43.0348 0.177505
456 2 59.1311 43.3064 15.8764
457 2 63.1083 43.3219 0.199024
458 2 67.3275 43.2679 0.272955
459 2 71.1367 43.4356 0.214215
460 2 75.1453 43.3131 0.38253
461 2 79.2483 43.5136 0.391552
462 2 83.1941 43.4278 15.9459
463 2 87.1204 43.6117 15.9165
464 2 91.4046 43.6008 0.263309
465 2 95.3142 43.4621 0.162213
466 2 99.377 43.8606 15.8786
467 2 103.403 43.6877 15.9196
468 2 107.439 43.7181 15.7986
469 2 111.368 43.72 15.864
470 2 115.301 43.4445 15.7503
471 2 119.182 43.7981 15.7861
472 2 123.02 43.5974 15.8534
473 2 126.745 43.4018 0.193889
474 2 130.804 43.1801 0.284703
475 2 134.531 43.283 15.8527
476 2 138.687 43.0161 15.906
477 2 142.709 43.1337 15.923
478 2 146.564 43.2431 0.202444
479 2 150.502 43.4423 0.255479
480 2 154.339 43.0425 0.316164
481 2 0.167258 47.0589 0.329656
482 2 3.96784 47.0358 0.224857
483 2 7.78944 46.9204 0.209805
484 2 11.775 46.9026 0.385013
485 2 15.5272 46.942 0.128979
486 2 19.6185 46.7781 0.302453
487 2 23.3967 46.8972 0.304778
488 2 27.3821 46.9056 15.8913
489 2 31.2406 46.764 0.350818
490 2 35.3336 46.7027 0.26415
491 2 39.1807 46.5692 15.9539
492 2 43.1325 47.1965 15.7943
493 2 47.1738 47.1433 0.08079
494 2 51.2943 47.218 15.8847
495 2 55.2631 46.9949 15.8572
496 2 59.2207 47.1344 15.7803
497 2 63.267 47.1632 0.15496
498 2 67.1357 47.3635 0.249939
499 2 71.084 47.3027 15.8787
500 2 75.0398 47.3398 0.173191
501 2 79.1315 47.4359 15.8835
502 2 83.2882 47.2267 15.8493
503 2 87.1717 47.451 0.44722
504 2 91.2697 47.3469 0.318814
505 2 95.26 47.4431 0.268826
506 2 99.2575 47.759 0.369278
507 2 103.238 47.6134 0.196105
508 2 107.153 47.4982 15.7311
509 2 111.263 47.5348 15.813
510 2 115.302 47.6283 0.185595
511 2 119.102 47.5406 15.8489
512 2 123.101 47.4033 15.8624
513 2 126.851 47.421 15.7895
514 2 130.775 47.1631 15.831
515 2 134.929 47.1502 15.8993
516 2 138.816 47.2626 15.8645
517 2 142.591 47.0343 15.9076
518 2 146.401 47.1717 0.535208
519 2 150.482 47.1223 0.17058
520 2 154.41 47.0335 15.8389
521 2 158.087 51.2236 0.403744
522 2 4.09163 50.9719 15.7742
523 2 7.8405 50.9118 15.9732
524 2 11.8489 51.0656 15.8791
525 2 15.5445 50.8038 0.164496
526 2 19.4212 50.8796 15.89
527 2 23.463 50.8173 15.9019
528 2 27.3809 50.7601 15.9966
529 2 31.1641 50.9014 0.294969
530 2 35.2593 50.7406 0.211027
531 2 39.2474 50.6637 15.9519
532 2 43.0622 50.7728 15.9521
533 2 47.0832 50.9643 0.34475
534 2 50.9841 51.0597 0.331391
535 2 55.1914 51.0276 0.240503
536 2 59.053 51.1371 15.8222
537 2 63.1651 51.1122 15.8273
538 2 67.0357 51.1909 0.306193
539 2 71.0675 51.267 0.178194
540 2 75.1415 51.2043 0.189627
541 2 78.9532 51.1971 0.355131
542 2 83.1073 51.3466 0.249874
543 2 87.2661 51.3503 0.19558
544 2 91.1722 51.5196 0.199875
545 2 95.3539 51.3017 0.153921
546 2 99.4496 51.4851 0.171149
547 2 103.312 51.5057 15.8663
548 2 107.172 51.413 0.325688
549 2 111.245 51.4064 0.290708
550 2 115.13 51.5807 15.6966
551 2 118.982 51.4191 15.9176
552 2 122.94 51.2292 15.8361
553 2 126.946 51.3492 15.8407
554 2 131.042 51.239 0.239077
555 2 134.763 51.1228 0.488919
556 2 138.791 51.0661 0.326563
557 2 142.629 51.1056 0.232549
558 2 146.635 51.0431 15.865
559 2 150.551 51.1356 0.209787
560 2 154.345 51.1992 0.360202
561 2 158.284 55.2026 0.223303
562 2 3.86743 55.0258 0.312782
563 2 7.81264 55.066 0.308312
564 2 12.0165 55.0731 0.304065
565 2 15.6259 54.9236 0.149778
566 2 19.5028 55.0344 15.8757
567 2 23.3661 54.9266 15.9034
568 2 27.3981 54.8275 15.907
569 2 31.3069 54.8952 0.17921
570 2 35.0708 54.7925 0.271808
571 2 39.0476 54.7163 15.8275
572 2 43.1392 54.846 15.701
573 2 47.2358 54.9424 0.147913
574 2 51.1688 55.0179 15.8397
575 2 55.0648 54.9534 15.6353
576 2 59.1769 55.0819 15.8831
577 2 63.0165 55.2997 15.877
578 2 67.1006 55.1549 0.317722
579 2 70.9417 55.2072 0.267823
580 2 75.0681 55.0253 15.7533
581 2 79.3476 55.0253 0.28812
582 2 83.2856 55.2389 0.271971
583 2 87.1693 55.1836 0.115649
584 2 91.0563 55.3252 15.8228
585 2 95.1415 55.1989 0.309647
586 2 99.3191 55.3167 15.7446
587 2 103.468 55.2963 15.9161
588 2 107.14 55.3606 0.252076
589 2 111.105 55.3205 15.9287
590 2 115.1 55.5448 15.7589
591 2 119.188 55.5704 15.6664
592 2 123.119 55.3683 0.282346
593 2 127.204 55.3138 16.0057
594 2 130.949 55.2674 15.9216
595 2 134.706 55.2172 0.0859986
596 2 138.602 55.2016 16.0339
597 2 142.638 55.2297 0.389573
598 2 146.608 55.1003 0.420968
599 2 150.489 55.0867 0.337514
600 2 154.374 55.0968 16.018
601 2 158.254 59.0202 0.216906
602 2 3.89892 59.037 15.732
603 2 7.78553 58.9917 15.8506
604 2 11.7038 58.9701 0.190017
605 2 15.7114 58.9419 15.8382
606 2 19.6552 58.8459 0.148225
607 2 23.5394 58.7452 0.15057
608 2 27.4279 59.0444 0.134226
609 2 31.207 58.9763 15.8259
610 2 35.1248 58.8038 15.7367
611 2 39.3661 58.7704 15.7564
612 2 43.1309 58.5995 15.9395
613 2 47.0315 58.6563 15.8127
614 2 50.8935 58.9149 15.7974
615 2 55.0659 58.6929 15.7796
616 2 59.1722 58.9951 0.135312
617 2 63.0115 59.0971 15.7962
618 2 66.9723 59.0048 0.194231
619 2 71.172 59.0265 15.9427
620 2 74.9536 58.939 0.212649
621 2 79.0237 58.956 0.351474
622 2 83.0517 59.1222 0.375044
623 2 87.1558 59.0461 15.8406
624 2 91.2907 58.9337 15.9548
625 2 95.1933 59.1415 0.27889
626 2 99.2215 59.1673 0.436525
627 2 103.163 59.3473 15.8611
628 2 107.228 59.3391 0.0928612
629 2 111.128 59.2323 15.8903
630 2 115.1 59.3622 15.7225
631 2 119.098 59.4412 15.7876
632 2 123.143 59.5405 0.264794
633 2 126.958 59.4923 15.9183
634 2 130.933 59.2978 0.301154
635 2 134.915 59.1823 15.7974
636 2 138.792 59.3649 0.242567
637 2 142.659 59.3349 0.317677
638 2 146.534 59.1651 0.20407
639 2 150.575 59.2331 15.8949
640 2 154.414 59.1401 0.304222
641 2 -0.0359852 62.9842 0.221185
642 2 3.79392 63.0446 0.22293
643 2 7.7046 62.8472 15.8211
644 2 11.8077 62.9336 15.9452
645 2 15.5985 62.9673 15.919
646 2 19.6831 62.9458 0.389528
647 2 23.5891 62.8491 0.176492
648 2 27.574 62.942 0.284773
649 2 31.4188 62.8272 0.33275
650 2 35.3588 62.7014 0.221497
651 2 39.2624 62.7514 15.9479
652 2 43.2762 62.7069 0.230986
653 2 47.1556 62.7045 15.7798
654 2 51.1606 62.7706 15.8482
655 2 54.9109 62.7402 0.180861
656 2 58.8814 62.6558 15.8714
657 2 63.0597 62.9249 0.184287
658 2 67.2711 62.8756 15.9228
659 2 70.9918 63.06 0.245697
660 2 75.0715 63.0047 0.329011
661 2 78.9069 62.8335 0.424866
662 2 83.005 62.9604 0.263855
663 2 86.938 62.9175 15.8404
664 2 91.1201 63.0912 15.8917
665 2 95.0185 63.0064 0.213739
666 2 99.1837 63.1622 0.301583
667 2 103.132 63.3165 15.8374
668 2 107.239 63.3002 15.7342
669 2 111.047 63.4298 15.9006
670 2 115.01 63.2476 0.11228
671 2 119.248 63.5059 15.9827
672 2 123.296 63.3195 0.267687
673 2 127.029 63.2419 15.8567
674 2 130.811 63.3572 0.382789
675 2 135.114 63.2814 15.9543
676 2 138.989 63.2607 15.9014
677 2 142.807 63.4355 15.8962
678 2 146.53 63.09 0.0168146
679 2 150.524 62.9398 15.9732
680 2 154.23 63.1126 0.281483
681 2 0.060745 67.1097 0.162394
682 2 3.9555 67.1259 0.344662
683 2 7.78163 66.9868 15.8277
684 2 11.7066 67.0529 15.8359
685 2 15.7175 66.7492 0.26041
686 2 19.6517 66.9492 0.158855
687 2 23.5198 66.7851 0.219097
688 2 27.4366 66.9727 0.175549
689 2 31.2618 66.8599 0.255926
690 2 35.2199 66.904 0.389625
691 2 39.17 66.6005 15.9426
692 2 43.1926 66.6297 0.0917733
693 2 47.2535 66.679 15.9866
694 2 51.1122 66.6555 15.8049
695 2 55.0581 66.8887 15.8741
696 2 58.8819 66.6655 15.7969
697 2 63.0587 66.7273 15.8373
698 2 67.0771 66.7934 15.9244
699 2 70.9897 66.8608 0.222755
700 2 74.983 66.7155 15.8757
701 2 79.0811 66.9762 15.8708
702 2 83.1661 66.9889 0.165609
703 2 86.9995 66.8036 15.8575
704 2 90.9875 67.0561 15.8966
705 2 95.2444 67.1249 0.256233
706 2 99.1123 66.9673 0.306681
707 2 103.03 67.0414 0.155794
708 2 107.087 67.1938 15.6798
709 2 111.206 67.1756 15.7699
710 2 115.115 67.0654 15.7704
711 2 119.133 67.2204 0.20824
712 2 123.052 67.0646 0.280306
713 2 127.23 67.2083 0.093168
714 2 131.095 67.3901 15.647
715 2 134.996 67.4198 0.289552
716 2 138.946 67.2892 0.209802
717 2 142.743 67.2727 15.8384
718 2 146.6 67.2874 15.7681
719 2 150.596 67.2575 15.7316
720 2 154.486 67.0399 0.205989
721 2 0.176396 71.0211 0.363446
722 2 3.91899 71.1282 15.8812
723 2 8.20223 70.9421 0.152266
724 2 11.8169 70.8837 15.6974
725 2 15.5246 70.8064 0.244316
726 2 19.686 70.8129 0.163873
727 2 23.5716 70.8661 0.249625
728 2 27.3228 70.8633 15.8429
729 2 31.329 70.9598 0.35807
730 2 35.6926 70.9504 0.20901
731 2 39.3881 70.7746 15.9373
732 2 43.1254 70.8 0.52961
733 2 46.9659 70.7042 15.8489
734 2 50.8691 70.6625 15.8423
735 2 54.8655 70.6071 0.23919
736 2 58.9574 70.6432 0.355056
737 2 62.8468 70.5122 0.232983
738 2 66.9532 70.5847 15.8593
739 2 71.1309 70.8334 15.8441
740 2 74.9387 70.6227 15.866
741 2 78.9312 70.9474 0.21593
742 2 82.9957 70.8273 0.262718
743 2 86.8627 70.8326 15.9167
744 2 90.9247 70.7334 15.8884
745 2 95.0044 71.0186 15.819
746 2 99.033 70.7594 15.7066
747 2 103.064 70.9107 15.9714
748 2 106.913 71.1541 15.6271
749 2 111.016 71.1732 15.7247
750 2 115.18 71.0691 0.23451
751 2 119.124 71.1103 15.7055
752 2 122.977 71.2172 0.268868
753 2 127.059 71.3341 15.8875
754 2 131.127 71.3048 15.9067
755 2 135.079 71.314 15.9591
756 2 138.943 71.5158 15.8693
757 2 142.84 71.3169 0.326207
758 2 146.611 71.2845 0.182921
759 2 150.661 71.1793 0.166306
760 2 154.419 71.029 15.9756
761 2 0.123299 75.0581 0.273856
762 2 4.04219 75.1037 15.7546
763 2 7.86242 75.1436 15.8833
764 2 11.9841 74.9108 15.8455
765 2 15.8659 74.725 15.8274
766 2 19.6214 75.0153 15.8599
767 2 23.6094 74.8541 15.8517
768 2 27.7626 75.014 15.8008
769 2 31.6321 74.8742 0.1656
770 2 35.5453 74.8445 15.9979
771 2 39.2223 74.8116 15.8546
772 2 43.0979 74.8163 0.276946
773 2 47.078 74.87 15.9344
774 2 51.1508 74.6241 0.20272
775 2 55.0968 74.6246 15.8856
776 2 58.818 74.537 15.9044
777 2 62.8189 74.6612 15.9316
778 2 67.0789 74.6017 0.371234
779 2 70.8241 74.7557 0.230689
780 2 74.9264 74.8469 0.091418
781 2 79.0819 74.7416 0.213046
782 2 83.0725 74.796 0.250786
783 2 86.9129 74.7843 0.183573
784 2 91.1209 74.7881 15.9386
785 2 94.8262 74.8545 15.8904
786 2 98.8539 74.8263 0.199268
787 2 102.907 74.9424 15.781
788 2 107.086 75.062 15.7738
789 2 110.916 75.0383 15.8234
790 2 115.129 74.9285 15.9096
791 2 118.899 75.1089 0.22552
792 2 123.006 74.9211 15.9401
793 2 127.005 75.3114 15.9984
794 2 131.135 75.3563 0.164397
795 2 135.195 75.1842 15.925
796 2 139.131 75.3036 15.6946
797 2 143.044 75.425 15.794
798 2 146.851 75.179 15.6215
799 2 150.646 75.0407 0.21529
800 2 154.472 75.1981 0.274172
801 2 0.295474 79.1963 0.195239
802 2 4.28303 79.05 15.8542
803 2 8.16495 79.0972 0.308262
804 2 11.992 79.1207 0.137721
805 2 15.85 79.0303 15.6815
806 2 19.6551 78.915 15.8493
807 2 23.556 78.9805 0.239334
808 2 27.7258 78.804 0.168324
809 2 31.6978 78.7842 0.167503
810 2 35.6349 78.8369 0.308546
811 2 39.4065 78.7489 15.8388
812 2 43.3005 78.6566 15.9132
813 2 47.3143 78.9312 15.9584
814 2 50.8879 78.7711 0.167563
815 2 55.136 78.6969 0.153987
816 2 59.0286 78.45 15.7432
817 2 62.8785 78.3653 15.893
818 2 66.9338 78.6065 0.116478
819 2 70.8815 78.6782 15.8262
820 2 74.8404 78.5962 0.254676
821 2 78.9342 78.5887 15.8547
822 2 82.8871 78.5441 15.8913
823 2 86.9521 78.6144 0.321679
824 2 90.8654 78.6008 0.286731
825 2 95.0123 78.7344 0.118806
826 2 99.0709 78.7581 15.845
827 2 103.074 78.9138 15.985
828 2 107.083 78.9595 0.153062
829 2 111.007 78.8998 0.296427
830 2 115.172 79.0705 0.166061
831 2 119.067 79.0744 0.404837
832 2 123.021 79.0248 15.7983
833 2 126.998 79.0132 0.228876
834 2 130.994 79.0504 15.8961
835 2 135.067 79.3199 0.212764
836 2 138.959 79.3041 15.8598
837 2 142.984 79.2265 15.8047
838 2 147.028 79.0844 16.0764
839 2 150.527 79.2266 15.8904
840 2 154.638 79.005 0.303993
841 2 0.318908 83.0942 15.7955
842 2 4.22665 83.1055 15.8911
843 2 8.05026 82.948 0.148102
844 2 12.182 82.9049 15.8885
845 2 15.8977 83.0781 15.8122
846 2 19.7426 82.947 0.235026
847 2 23.8522 82.9377 15.9079
848 2 27.7311 82.9034 0.21084
849 2 31.5302 83.0445 15.8039
850 2 35.4682 82.9977 0.215778
851 2 39.2898 82.8497 0.146392
852 2 43.208 82.9315 15.9695
853 2 47.0919 82.8393 0.34449
854 2 51.2501 82.5153 0.303025
855 2 55.0928 82.6735 0.246079
856 2 58.7888 82.6564 15.8642
857 2 62.8397 82.4055 15.9641
858 2 66.8838 82.544 15.8881
859 2 70.6068 82.57 15.933
860 2 74.6912 82.4878 15.7657
861 2 78.9287 82.5492 15.8839
862 2 82.8872 82.5909 0.17938
863 2 86.9766 82.6993 0.217012
864 2 90.9334 82.5447 15.6532
865 2 94.8105 82.6284 0.186608
866 2 98.9632 82.6891 15.8224
867 2 102.897 82.8694 0.0826083
868 2 106.995 82.7983 15.8035
869 2 110.96 82.9088 15.8765
870 2 115.029 82.9038 15.8842
871 2 119.058 82.962 15.9448
872 2 122.888 83.0253 15.8636
873 2 127.05 82.8971 16.0117
874 2 130.778 83.0505 15.8586
875 2 135.088 83.2308 0.223762
876 2 139.084 83.2521 15.8954
877 2 142.939 83.1965 0.325303
878 2 146.94 83.2765 15.9529
879 2 150.985 83.1565 0.269591
880 2 154.797 83.1552 0.347724
881 2 0.353225 87.1262 15.9202
882 2 4.33628 87.1128 0.219896
883 2 8.21542 87.0191 15.7454
884 2 12.1185 86.9661 15.7671
885 2 15.8564 86.8367 15.8368
886 2 19.8109 86.8673 15.7681
887 2 23.7352 87.0443 15.8793
888 2 27.6006 86.9636 0.343425
889 2 31.5434 86.8051 16.0112
890 2 35.4828 86.8295 0.163422
891 2 39.4487 86.7828 15.7984
892 2 43.2387 86.9736 15.932
893 2 47.1176 86.7851 15.7921
894 2 51.1738 86.5859 15.9148
895 2 55.1675 86.7314 15.9306
896 2 59.2218 86.7136 0.298318
897 2 62.9964 86.3724 0.240869
898 2 67.0163 86.4042 15.9683
899 2 70.9293 86.359 0.224055
900 2 74.8178 86.3606 15.8422
901 2 78.7015 86.7735 0.273579
902 2 82.7205 86.4233 0.196179
903 2 86.9088 86.486 15.9423
904 2 90.9477 86.7826 15.8528
905 2 94.9177 86.5583 15.8245
906 2 98.8977 86.5604 15.8363
907 2 102.791 86.7614 0.247949
908 2 106.87 86.619 0.274082
909 2 110.9 86.8292 15.7785
910 2 114.975 86.8273 0.108773
911 2 118.96 86.7306 0.159094
912 2 122.984 86.8831 0.252025
913 2 126.936 86.9448 15.9898
914 2 130.842 87.0359 15.8435
915 2 134.7 86.9814 15.7882
916 2 138.725 87.108 15.8643
917 2 142.975 87.2296 15.8994
918 2 146.917 87.038 0.215111
919 2 150.941 87.2074 15.8762
920 2 154.761 87.2821 16.0247
921 2 0.416805 91.4748 0.136898
922 2 4.28665 91.0902 0.183288
923 2 8.18701 90.9966 15.7998
924 2 12.1415 91.1489 15.9543
925 2 16.0924 91.0294 0.422588
926 2 19.9161 90.869 0.165724
927 2 23.923 91.0474 15.8187
928 2 27.8042 90.9957 15.9186
929 2 31.6723 90.7987 15.9946
930 2 35.5688 90.7689 0.194573
931 2 39.5323 90.649 16.0427
932 2 43.3006 90.7536 15.9867
933 2 47.2063 90.8773 0.217412
934 2 51.2074 90.4348 0.232672
935 2 55.07 90.6544 0.303071
936 2 59.0462 90.5288 0.15699
937 2 63.1387 90.4877 0.38324
938 2 66.9112 90.5227 15.8897
939 2 70.8967 90.444 15.8227
940 2 74.8901 90.3644 0.386753
941 2 78.6821 90.3807 0.396229
942 2 82.7446 90.3807 0.356507
943 2 86.7917 90.3839 0.524051
944 2 90.7983 90.3844 0.280201
945 2 94.8271 90.5769 15.893
946 2 98.7359 90.563 15.9169
947 2 102.688 90.6161 0.165953
948 2 106.893 90.6347 15.8327
949 2 111.009 90.703 15.8363
950 2 114.855 90.652 0.325961
951 2 118.726 90.8922 0.377473
952 2 122.908 90.9039 15.8588
953 2 126.68 90.9232 0.259895
954 2 130.932 90.9287 0.162339
955 2 134.956 90.8051 15.7001
956 2 138.884 90.8715 15.72
957 2 142.763 91.1779 15.7031
958 2 146.884 90.9621 15.687
959 2 150.988 91.1543 15.8447
960 2 154.748 91.3512 15.9791
961 2 0.356657 95.283 0.213514
962 2 4.44536 95.0709 15.8297
963 2 8.08868 95.013 15.6771
964 2 12.3017 95.1336 15.8977
965 2 16.3058 95.0469 15.8411
966 2 20.0406 95.0629 15.8817
967 2 23.8966 94.9523 15.9189
968 2 27.7751 94.8621 15.8762
969 2 31.6762 94.6778 15.8247
970 2 35.5662 94.8237 15.8402
971 2 39.5259 94.7717 15.8304
972 2 43.286 94.7589 15.8316
973 2 47.3063 94.7992 0.112616
974 2 51.4185 94.7209 15.7557
975 2 55.17 94.5282 0.181358
976 2 59.1696 94.6173 15.8012
977 2 63.0352 94.4361 0.353286
978 2 66.972 94.4472 0.212383
979 2 70.9963 94.2943 0.265815
980 2 74.7113 94.3826 0.211333
981 2 78.7157 94.4013 15.8344
982 2 82.5908 94.4142 0.184425
983 2 86.7671 94.2077 0.337125
984 2 90.7078 94.4862 0.191394
985 2 94.7431 94.7535 15.8562
986 2 98.7878 94.5012 15.8763
987 2 102.853 94.472 15.7429