ITEM: TIMESTEP
20000
ITEM: NUMBER OF ATOMS
32000
ITEM: BOX BOUNDS xy xz yz pp pp pp
0.0000000000000000e+00 1.5831999999999999e+02 0.0000000000000000e+00
0.0000000000000000e+00 1.5831999999999999e+02 0.0000000000000000e+00
1.6355049057295634e-01 1.5934161509426875e+01 0.0000000000000000e+00
ITEM: ATOMS id type x y z
1 2 158.207 157.879 15.8832
2 2 3.75655 157.94 15.9171
3 2 7.86107 157.942 0.0712273
4 2 11.921 158.002 0.138492
5 2 15.8401 158.051 -0.0277154
6 2 19.7702 157.958 15.8711
7 2 23.6924 158.063 16.0384
8 2 27.9527 158.054 15.9184
9 2 31.8363 158.254 0.168704
10 2 35.8675 158.276 16.1329
11 2 39.8391 -0.135267 15.8217
12 2 43.9754 -0.00840326 0.150983
13 2 48.1301 0.100316 15.8631
14 2 51.9016 0.0517968 -0.0731467
15 2 55.8534 158.448 0.212656
16 2 59.834 158.613 15.9234
17 2 63.8733 0.131175 15.7194
18 2 67.7917 -0.0133586 15.6587
19 2 71.7377 0.00296137 15.7425
20 2 75.6326 158.419 15.8971
21 2 79.4984 0.0334014 15.6868
22 2 83.5986 158.253 15.892
23 2 87.2517 158.126 15.8849
24 2 91.2317 158.226 0.152449
25 2 95.1732 158.093 16.0728
26 2 99.2365 158.304 15.9316
27 2 103.104 158.125 16.0561
28 2 106.742 157.885 15.8173
29 2 110.688 157.86 0.162298
30 2 114.613 157.8 0.191863
31 2 118.553 157.858 16.1028
32 2 122.546 157.804 0.309755
33 2 126.365 157.76 0.222906
34 2 130.18 157.83 0.161537
35 2 134.294 157.653 16.0738
36 2 138.213 157.787 16.1035
37 2 142.233 157.711 16.1196
38 2 146.135 157.513 15.9441
39 2 150.165 157.812 0.0513557
40 2 154.067 157.731 0.0885243
41 2 158.039 3.48831 15.9842
42 2 3.6126 3.62498 16.0906
43 2 7.81401 3.62621 0.0408772
44 2 11.6262 3.63486 15.9352
45 2 15.8889 3.60258 15.8189
46 2 19.7054 3.50805 15.8269
47 2 23.7683 3.76889 -0.0123112
48 2 27.7891 3.49043 0.0358258
49 2 31.9298 3.85097 -0.116702
50 2 35.8761 3.89649 0.220682
51 2 39.8643 3.87173 -0.05128
52 2 43.9657 3.87032 15.9326
53 2 47.9678 3.87489 15.853
54 2 51.8574 4.03732 16.0332
55 2 55.8801 4.2206 0.102483
56 2 59.8942 4.19474 15.9532
57 2 63.8658 4.13608 15.7894
58 2 67.7458 3.89479 15.8845
59 2 71.785 4.14783 15.7383
60 2 75.7464 4.18045 15.9301
61 2 79.5763 4.06679 15.8141
62 2 83.4872 3.84012 15.8556
63 2 87.358 3.77709 15.8613
64 2 91.3307 3.94887 0.0447247
65 2 95.0986 3.74047 15.8833
66 2 99.1569 3.88257 0.0623194
67 2 103.036 3.87223 16.1657
68 2 107.21 3.76271 15.9827
69 2 110.897 3.57969 0.0562813
70 2 114.738 3.58728 0.158525
71 2 118.693 3.40803 0.234516
72 2 122.581 3.59729 0.153503
73 2 126.343 3.53207 0.00675415
74 2 130.176 3.30534 0.108103
75 2 134.375 3.60496 16.0809
76 2 138.383 3.45986 0.0526962
77 2 142.243 3.26381 0.199507
78 2 146.132 3.13171 0.195767
79 2 150.106 3.17167 15.8822
80 2 154.246 3.28612 15.8445
81 2 158.047 7.14282 15.7734
82 2 3.73586 7.47559 15.9692
83 2 7.61776 7.35227 15.953
84 2 11.6946 7.3925 0.0077274
85 2 15.7308 7.30711 15.8891
86 2 19.7844 7.6409 16.0104
87 2 23.7366 7.5056 0.0754474
88 2 27.6581 7.40463 15.9132
89 2 31.7731 7.87838 15.9369
90 2 35.9045 7.9359 16.033
91 2 39.8007 7.698 0.0423822
92 2 43.9137 7.74468 -0.0383762
93 2 47.7375 7.7771 15.8819
94 2 51.7901 7.9613 0.0651671
95 2 55.8002 7.90753 15.9471
96 2 59.8644 7.90278 0.201579
97 2 63.7513 8.10109 15.8848
98 2 67.6555 8.07535 15.9896
99 2 71.7381 8.01846 15.8542
100 2 75.8337 8.20983 15.8633
101 2 79.7692 8.20162 0.0253297
102 2 83.5527 7.83051 15.955
103 2 87.5997 7.85 15.956
104 2 91.4403 7.87283 15.911
105 2 95.1665 7.75189 15.9831
106 2 99.2039 7.73944 -0.020902
107 2 102.933 7.67469 -0.0571773
108 2 107.073 7.72887 16.0171
109 2 110.913 7.72814 0.0585919
110 2 114.806 7.6089 15.8933
111 2 118.555 7.5634 15.9881
112 2 122.656 7.34868 15.8771
113 2 126.593 7.43669 15.9938
114 2 130.524 7.22789 0.0585198
115 2 134.38 7.39279 0.309383
116 2 138.335 7.33436 15.9318
117 2 142.24 7.15521 16.1691
118 2 146.28 7.06779 0.293561
119 2 150.093 7.03213 -0.0111625
120 2 154.237 7.33755 15.7794
121 2 158.056 11.1289 15.8389
122 2 3.72107 11.3334 15.8189
123 2 7.9025 11.2612 16.0287
124 2 11.6793 11.189 0.0166482
125 2 15.6421 11.4553 15.9498
126 2 19.6079 11.1436 15.8779
127 2 23.624 11.476 15.9899
128 2 27.6957 11.3119 15.8641
129 2 31.7072 11.4937 15.9005
130 2 35.7016 11.6471 15.8902
131 2 39.63 11.7655 15.9678
132 2 43.6193 11.6942 0.25053
133 2 47.8902 11.6394 0.0795191
134 2 51.8382 11.7392 16.0602
135 2 55.8333 11.8543 0.0638223
136 2 59.7361 11.8512 15.9419
137 2 63.5118 11.9089 -0.129902
138 2 67.6735 11.9954 15.9119
139 2 71.9882 12.0453 15.9492
140 2 75.7715 12.1291 15.8842
141 2 79.7442 12.0774 15.8351
142 2 83.663 12.1975 15.9272
143 2 87.7253 12.0139 0.254452
144 2 91.5432 11.9339 -0.0606627
145 2 95.5103 11.8173 15.8339
146 2 99.2207 11.8217 15.9649
147 2 103.06 11.4861 -0.0547064
148 2 106.937 11.7265 16.0575
149 2 110.913 11.6124 -0.104057
150 2 114.687 11.5445 16.0232
151 2 118.779 11.5381 0.136924
152 2 122.698 11.5407 -0.0196326
153 2 126.551 11.5958 16.0131
154 2 130.414 11.5738 15.866
155 2 134.49 11.288 0.160919
156 2 138.387 11.229 0.0471475
157 2 142.219 11.2722 0.256569
158 2 146.119 11.173 0.143749
159 2 149.851 11.2251 0.17717
160 2 154.154 11.2467 0.196895
161 2 157.946 14.8629 15.9232
162 2 3.74108 15.1725 16.0542
163 2 7.63077 15.1911 15.8536
164 2 11.6926 15.2337 15.8854
165 2 15.6699 15.1705 16.0739
166 2 19.5921 15.2317 0.0995297
167 2 23.8067 15.2928 -0.0864977
168 2 27.7272 15.3137 15.8682
169 2 31.8197 15.4795 -0.14049
170 2 35.8884 15.6082 15.9906
171 2 39.5949 15.8767 0.0441144
172 2 43.6425 15.3955 0.0749
173 2 47.6846 15.7567 0.0947882
174 2 51.5924 15.5493 0.012376
175 2 55.6154 15.8859 15.7868
176 2 59.5857 15.888 -0.100577
177 2 63.6142 15.7686 15.7983
178 2 67.7426 15.7625 15.8832
179 2 71.4961 15.784 0.0560744
180 2 75.5887 16.0599 0.109098
181 2 79.7378 16.0238 15.898
182 2 83.7054 16.0029 0.0891207
183 2 87.4258 16.1308 16.1227
184 2 91.6231 15.9075 -0.0825844
185 2 95.321 15.8331 15.7186
186 2 99.3557 15.8128 15.8102
187 2 103.26 15.6829 15.8183
188 2 107.154 15.8219 15.8505
189 2 110.775 15.6262 15.8303
190 2 114.875 15.6215 15.8958
191 2 118.592 15.6165 -0.0648657
192 2 122.546 15.5446 15.8766
193 2 126.575 15.5083 15.8474
194 2 130.55 15.2853 -0.0252776
195 2 134.545 15.2129 0.0092754
196 2 138.431 15.2939 0.235541
197 2 142.215 15.1758 16.293
198 2 146.165 15.2383 0.31424
199 2 150.169 15.2339 0.378464
200 2 154.199 15.1225 15.9038
201 2 157.93 19.0589 15.8871
202 2 3.6193 18.8699 0.0514639
203 2 7.49006 18.9949 0.0702116
204 2 11.5802 19.0236 15.842
205 2 15.7469 19.0502 16.011
206 2 19.7002 19.1165 15.9289
207 2 23.6653 19.0904 15.8927
208 2 27.7167 19.3703 15.9762
209 2 31.5179 19.2855 15.8612
210 2 35.7559 19.4334 15.9715
211 2 39.6103 19.6651 0.0479012
212 2 43.6837 19.5741 15.8981
213 2 47.5812 19.8155 15.9404
214 2 51.6179 19.5133 0.277061
215 2 55.6851 19.7676 15.9798
216 2 59.5236 19.6913 15.9088
217 2 63.511 19.729 15.9397
218 2 67.4781 19.7612 16.0162
219 2 71.4902 19.8269 0.0496967
220 2 75.5003 19.8368 0.16685
221 2 79.6776 19.7926 0.0479766
222 2 83.6078 19.7302 15.9799
223 2 87.4217 19.9863 0.113936
224 2 91.3183 19.8005 0.0211029
225 2 95.2594 19.7839 15.8486
226 2 99.2956 20.0489 16.0616
227 2 103.094 19.7468 15.8846
228 2 107 19.7982 15.9614
229 2 111.089 19.6201 -0.0476919
230 2 114.933 19.7074 15.9245
231 2 118.761 19.5382 15.9962
232 2 122.777 19.5435 16.1327
233 2 126.497 19.4623 15.9069
234 2 130.353 19.4559 15.9769
235 2 134.487 19.1947 -0.025141
236 2 138.499 19.3757 16.006
237 2 142.451 19.1395 16.0853
238 2 146.163 19.0807 0.246155
239 2 149.97 19.1175 16.2398
240 2 153.866 19.2585 0.108499
241 2 158.293 23.1992 16.1639
242 2 3.67061 22.9041 16.0935
243 2 7.58282 22.8964 0.152105
244 2 11.4873 23.0323 0.14785
245 2 15.5551 22.8106 15.8725
246 2 19.5693 23.1758 15.8988
247 2 23.6398 23.2159 15.8036
248 2 27.663 23.4456 16.1212
249 2 31.5617 23.3228 0.172491
250 2 35.5254 23.2992 16.046
251 2 39.6116 23.3726 -0.00505208
252 2 43.3843 23.3963 15.9515
253 2 47.4215 23.4593 0.0524456
254 2 51.4206 23.6357 0.0438359
255 2 55.3217 23.6647 -0.0108884
256 2 59.5747 23.5761 16.0426
257 2 63.4535 23.6584 0.0512202
258 2 67.6368 23.763 16.0575
259 2 71.4784 23.7345 16.011
260 2 75.6479 23.8401 0.172213
261 2 79.686 23.9518 15.9913
262 2 83.4818 23.6486 0.0625026
263 2 87.5533 23.7641 16.1191
264 2 91.4187 23.7654 15.946
265 2 95.3727 23.7547 15.914
266 2 99.3969 23.6427 0.0120262
267 2 103.237 23.7171 16.0007
268 2 107.054 23.7411 15.869
269 2 111.165 23.7102 0.0419314
270 2 114.901 23.8327 15.9051
271 2 118.791 23.6366 16.0012
272 2 122.877 23.4753 0.136243
273 2 126.754 23.5282 16.0106
274 2 130.617 23.4832 15.7931
275 2 134.635 23.3073 15.8741
276 2 138.545 23.3152 16.0496
277 2 142.385 23.295 16.1447
278 2 146.226 23.0519 0.241696
279 2 150.237 23.1079 0.138115
280 2 154.266 23.1022 0.232292
281 2 158.003 26.9986 0.160789
282 2 3.57217 27.0232 0.0683322
283 2 7.65576 26.9093 0.30432
284 2 11.6647 26.8202 15.941
285 2 15.5285 27.1389 16.0246
286 2 19.4811 26.9446 0.161822
287 2 23.6881 27.0334 16.041
288 2 27.5268 27.157 16.0622
289 2 31.3821 27.2026 0.225384
290 2 35.4286 27.3035 0.138991
291 2 39.4394 27.2796 0.125074
292 2 43.4229 27.4193 -0.010981
293 2 47.3946 27.429 0.0887653
294 2 51.4027 27.4522 16.0394
295 2 55.4399 27.3501 0.0986863
296 2 59.4449 27.467 15.8828
297 2 63.4217 27.6526 15.8635
298 2 67.4438 27.4247 15.9112
299 2 71.6094 27.7708 16.1596
300 2 75.4694 27.8324 0.0905495
301 2 79.478 27.8562 0.113599
302 2 83.4471 27.9091 16.0206
303 2 87.5519 27.7996 0.301354
304 2 91.3443 27.8443 0.209459
305 2 95.2942 27.7844 0.193879
306 2 99.2723 27.8092 0.301803
307 2 103.331 27.7525 15.9413
308 2 107.078 27.4989 0.108095
309 2 111.131 27.5128 16.0203
310 2 114.838 27.7915 15.8527
311 2 118.801 27.5112 0.0333323
312 2 122.769 27.3682 0.0358492
313 2 126.954 27.6196 15.9333
314 2 130.807 27.4835 15.8793
315 2 134.438 27.4039 15.7864
316 2 138.389 27.1228 15.9065
317 2 142.203 27.199 0.260736
318 2 146.175 27.1497 0.180514
319 2 150.311 26.9172 0.177073
320 2 154.088 27.0961 0.2632
321 2 158.038 30.9386 15.9887
322 2 3.47276 30.9354 15.9727
323 2 7.60192 30.9784 16.029
324 2 11.4552 30.8915 0.117458
325 2 15.5386 30.9076 0.140235
326 2 19.3487 30.7857 16.0066
327 2 23.5548 31.1155 16.0086
328 2 27.4334 31.0806 0.0780712
329 2 31.3499 30.845 16.0347
330 2 35.2864 31.1853 16.1467
331 2 39.3432 31.1693 16.0276
332 2 43.518 31.2773 0.126676
333 2 47.4422 31.3233 16.1133
334 2 51.4964 31.3542 0.247143
335 2 55.3454 31.2843 16.0383
336 2 59.3805 31.4834 0.0416147
337 2 63.3868 31.612 15.9265
338 2 67.3132 31.4391 0.119889
339 2 71.2957 31.5076 0.137941
340 2 75.4814 31.8167 0.185389
341 2 79.459 31.7165 16.0756
342 2 83.3389 31.6672 0.0798546
343 2 87.442 31.7474 15.9866
344 2 91.4272 31.8619 15.8603
345 2 95.3652 31.6879 15.9324
346 2 99.2176 31.8979 0.0264961
347 2 103.376 31.6305 15.9306
348 2 107.098 31.5531 15.8633
349 2 111.215 31.6893 15.7821
350 2 115.012 31.6768 15.7744
351 2 119.004 31.5242 15.8229
352 2 122.807 31.5754 15.8662
353 2 126.652 31.4854 15.8095
354 2 130.644 31.4597 15.9035
355 2 134.569 31.3899 15.7216
356 2 138.485 31.1028 15.8751
357 2 142.461 31.3513 0.0881148
358 2 146.343 31.08 16.0354
359 2 150.221 31.1781 0.217389
360 2 154.243 31.0213 0.202822
361 2 -0.179304 35.137 -0.133434
362 2 3.81848 34.9644 15.8669
363 2 7.59033 34.9287 16.1306
364 2 11.4323 34.8066 16.1329
365 2 15.3881 35.0093 0.372098
366 2 19.5198 34.9436 0.193781
367 2 23.4829 34.7995 0.0140192
368 2 27.3902 34.9603 -0.0907427
369 2 31.1879 34.7743 0.259356
370 2 35.2779 35.1792 0.314221
371 2 39.2466 34.9733 0.222205
372 2 43.1892 35.1884 16.0241
373 2 47.2565 35.2951 16.0024
374 2 51.383 35.3691 16.0241
375 2 55.371 35.3333 0.0671733
376 2 59.2408 35.3447 0.079751
377 2 63.3335 35.4372 16.0707
378 2 67.3564 35.4743 0.215403
379 2 71.2566 35.5155 0.231208
380 2 75.2899 35.473 16.0943
381 2 79.1482 35.7329 0.198319
382 2 83.2914 35.6052 15.7746
383 2 87.3502 35.6301 0.143846
384 2 91.3075 35.5952 0.106442
385 2 95.2141 35.6142 15.8141
386 2 99.434 35.7096 0.116748
387 2 103.25 35.7879 15.9482
388 2 107.243 35.596 15.8114
389 2 111.242 35.567 15.7483
390 2 114.999 35.6471 15.7142
391 2 118.853 35.555 15.9049
392 2 122.766 35.7246 15.8515
393 2 126.887 35.6704 15.8211
394 2 130.79 35.3514 15.9154
395 2 134.572 35.3742 15.8741
396 2 138.533 35.4465 -0.0257507
397 2 142.597 35.3736 0.0648761
398 2 146.438 35.2293 0.156327
399 2 150.243 35.169 15.9886
400 2 154.232 35.0972 0.053104
401 2 158.202 38.9198 0.0498876
402 2 3.66712 39.0886 -0.0166313
403 2 7.66868 39.1116 0.12723
404 2 11.67 38.8959 16.0361
405 2 15.6599 38.825 0.0799931
406 2 19.4374 38.6733 15.9698
407 2 23.3894 38.881 15.9685
408 2 27.219 38.5664 15.9429
409 2 31.219 38.9279 0.462625
410 2 35.3247 38.99 0.420178
411 2 39.315 38.9208 16.079
412 2 43.2599 39.0716 0.109121
413 2 47.3253 39.2167 -0.0257143
414 2 51.2202 39.1741 16.028
415 2 55.2362 39.1965 0.216581
416 2 59.1715 39.2172 0.237871
417 2 63.2991 39.3296 0.268929
418 2 67.2027 39.3266 0.273986
419 2 71.1247 39.4672 0.499195
420 2 75.1169 39.573 0.179885
421 2 79.24 39.3943 0.100815
422 2 83.0721 39.4754 15.7427
423 2 87.1726 39.3733 15.7765
424 2 91.2878 39.6015 15.9556
425 2 95.2827 39.5993 15.9978
426 2 99.3112 39.7731 0.0820552
427 2 103.349 39.6286 15.9103
428 2 107.062 39.5666 15.8875
429 2 111.305 39.705 15.8721
430 2 115.324 39.6887 15.7201
431 2 119.116 39.5763 15.8782
432 2 122.925 39.6026 15.8233
433 2 126.748 39.5788 0.0209306
434 2 130.717 39.2878 16.0239
435 2 134.564 39.3018 15.8743
436 2 138.464 39.3298 15.8806
437 2 142.518 39.0824 16.0757
438 2 146.491 39.0941 0.178121
439 2 150.381 39.0021 15.862
440 2 154.339 39.1102 15.821
441 2 158.309 43.0794 0.196019
442 2 3.80714 43.0477 16.0914
443 2 7.79282 42.931 16.0985
444 2 11.5988 43.1255 0.116861
445 2 15.5286 42.8837 0.160774
446 2 19.541 42.7837 0.136925
447 2 23.5037 42.8451 16.0498
448 2 27.1563 42.7791 16.142
449 2 31.4142 42.8132 0.418229
450 2 35.2507 42.9094 0.377339
451 2 39.2418 42.9936 0.318611
452 2 43.3741 43.0814 0.0748238
453 2 47.2962 43.0658 15.9008
454 2 51.0498 43.2462 15.8905
455 2 55.1944 43.1688 0.196447
456 2 59.1828 42.9738 16.033
457 2 63.1309 43.5008 0.0450491
458 2 66.898 43.3119 0.366859
459 2 71.2294 43.2826 0.360612
460 2 75.0331 43.5834 0.357053
461 2 79.0829 43.3182 0.241884
462 2 83.3255 43.411 15.9359
463 2 87.2884 43.2586 15.9866
464 2 91.2464 43.6425 0.123303
465 2 95.3785 43.6649 0.162324
466 2 99.2656 43.4454 16.0516
467 2 103.362 43.6505 15.9487
468 2 107.137 43.4117 15.7844
469 2 111.287 43.493 15.8035
470 2 115.185 43.718 15.8405
471 2 119.173 43.3911 16.0307
472 2 123.102 43.5138 15.8738
473 2 127.026 43.346 0.094552
474 2 130.672 43.5459 -0.0680952
475 2 134.611 43.3894 15.7647
476 2 138.593 43.2489 15.8922
477 2 142.397 43.1494 15.9912
478 2 146.364 42.9321 0.227488
479 2 150.263 43.0109 0.185821
480 2 154.388 43.1899 0.231881
481 2 -0.0705805 47.0321 0.225315
482 2 3.80308 47.0366 0.237824
483 2 7.62707 46.9852 0.166559
484 2 11.6738 46.9006 -0.0165315
485 2 15.8157 46.8907 0.243458
486 2 19.3651 46.9102 0.229718
487 2 23.5604 46.8391 0.0414208
488 2 27.311 46.7426 16.1677
489 2 31.3886 46.763 0.318155
490 2 35.0555 46.6466 0.259501
491 2 38.9086 46.951 16.1612
492 2 43.1473 46.6733 16.0745
493 2 47.2041 47.0961 0.0330632
494 2 51.0911 47.0387 15.9677
495 2 55.121 47.0776 15.9934
496 2 59.1524 47.1029 16.014
497 2 63.1063 47.2549 0.0931815
498 2 67.1319 47.2275 0.0913681
499 2 71.1035 47.0313 15.9859
500 2 75.1992 47.384 0.168798
501 2 79.1791 47.2247 16.0716
502 2 83.0484 47.3364 15.9998
503 2 87.1294 47.3217 0.00240626
504 2 91.1762 47.4711 0.276583
505 2 95.3062 47.648 0.285422
506 2 99.2258 47.227 0.210976
507 2 103.446 47.5658 0.0450634
508 2 107.376 47.4976 16.052
509 2 111.191 47.4835 15.8476
510 2 115.093 47.5967 -0.170486
511 2 119.156 47.3939 15.9986
512 2 122.962 47.4204 15.8615
513 2 127.039 47.2412 16.08
514 2 130.947 47.4078 15.9951
515 2 134.698 47.2973 15.9658
516 2 138.575 47.0877 15.954
517 2 142.491 47.2207 16.1048
518 2 146.442 47.1046 0.0592538
519 2 150.426 47.1618 0.160776
520 2 154.423 47.2979 16.1772
521 2 158.41 50.8819 0.112922
522 2 3.87478 51.0445 16.3679
523 2 7.86947 51.0415 16.1231
524 2 11.4862 50.8023 15.9548
525 2 15.5608 51.0347 0.170165
526 2 19.5264 50.8904 16.0547
527 2 23.5086 50.9249 15.9519
528 2 27.4498 50.9259 16.1098
529 2 31.4259 50.628 0.22288
530 2 35.1202 50.6268 0.146281
531 2 39.0195 50.832 16.0198
532 2 43.2609 50.9735 15.9908
533 2 47.0355 51.179 0.155879
534 2 51.1766 50.8128 0.0719758
535 2 55.0771 51.0453 0.029809
536 2 59.2826 51.1657 15.9297
537 2 63.1589 51.1283 15.9999
538 2 67.1965 51.2289 0.0178284
539 2 71.1349 51.0792 -0.00167974
540 2 75.0043 51.3507 0.123058
541 2 79.2253 51.245 0.0735191
542 2 83.1802 51.1678 0.104245
543 2 87.0548 51.3787 0.204086
544 2 91.1586 51.102 0.233692
545 2 95.0885 51.5323 0.265611
546 2 99.1828 51.4613 0.0461288
547 2 103.332 51.4783 16.1066
548 2 107.397 51.4819 0.00166295
549 2 111.275 51.4179 0.0248774
550 2 115.223 51.5759 15.9008
551 2 119.154 51.4562 15.8057
552 2 123.046 51.5634 15.9222
553 2 127.007 51.3576 15.9671
554 2 130.889 51.3743 0.166149
555 2 134.917 51.502 0.179785
556 2 138.759 51.3856 0.117901
557 2 142.647 51.2351 0.328516
558 2 146.644 51.2512 16.1223
559 2 150.497 51.0867 0.203705
560 2 154.419 51.1168 0.389101
561 2 158.343 54.8675 0.221605
562 2 3.90259 55.0166 0.17513
563 2 7.8701 54.9406 -0.00774289
564 2 11.6348 55.0046 0.131997
565 2 15.7316 55.0232 0.0366186
566 2 19.6474 54.7818 16.0142
567 2 23.4613 54.9338 16.1273
568 2 27.3768 54.7821 16.0416
569 2 31.2045 54.677 0.0804673
570 2 35.1517 54.7437 0.0786406
571 2 39.0493 54.7649 15.7805
572 2 43.0435 54.7663 15.7782
573 2 47.0074 54.8435 -0.0311501
574 2 50.8126 54.7879 15.9967
575 2 55.1018 54.9435 15.9155
576 2 59.1 55.098 16.0312
577 2 63.0576 55.0385 16.0261
578 2 67.0123 55.0706 0.0928152
579 2 71.1966 55.0678 0.11493
580 2 75.1216 55.2041 16.1758
581 2 78.9735 55.099 0.15718
582 2 82.9825 55.0998 0.24986
583 2 87.073 55.185 0.194545
584 2 91.2691 55.0254 16.0911
585 2 95.2568 55.3259 0.234686
586 2 99.0899 55.3069 15.8947
587 2 103.189 55.4184 16.1542
588 2 107.386 55.4544 0.113056
589 2 111.336 55.3414 15.9566
590 2 115.261 55.5776 15.8144
591 2 119.243 55.3075 16.0965
592 2 123.182 55.567 0.166816
593 2 126.946 55.4956 15.9585
594 2 130.905 55.3357 15.929
595 2 134.875 55.2649 0.132231
596 2 138.977 55.303 16.0955
597 2 142.789 55.0564 -0.0324763
598 2 146.674 55.3182 0.0847422
599 2 150.462 55.2137 0.0871942
600 2 154.344 55.1028 16.1754
601 2 158.334 59.0132 0.196211
602 2 3.84512 59.0977 15.9123
603 2 7.81151 59.0082 16.0303
604 2 11.8271 58.9971 0.123572
605 2 15.74 58.9534 15.8916
606 2 19.543 59.0342 0.196797
607 2 23.3664 58.9248 0.244935
608 2 27.2065 58.6358 0.217413
609 2 31.1992 58.8657 16.119
610 2 35.2606 58.5741 15.9374
611 2 39.0075 58.612 15.8917
612 2 43.1409 58.7396 15.8751
613 2 46.9085 58.7149 15.8197
614 2 51.0263 58.6834 15.8442
615 2 54.8684 58.7582 15.9022
616 2 59.0686 58.8531 0.0870135
617 2 63.0068 58.8732 15.7958
618 2 66.9152 59.0061 0.0850678
619 2 70.7915 59.1959 16.0053
620 2 75.1841 59.0911 0.142127
621 2 79.1868 59.0523 0.168179
622 2 83.1295 59.069 0.275199
623 2 87.1307 59.0714 15.9917
624 2 90.9434 59.065 16.0807
625 2 95.1904 59.1505 0.270714
626 2 99.266 59.2883 0.165946
627 2 103.102 59.309 16.091
628 2 107.05 59.4353 -0.000734965
629 2 111.274 59.355 15.8306
630 2 115.026 59.7154 15.9179
631 2 119.282 59.2715 16.003
632 2 123.263 59.406 0.142473
633 2 127.324 59.3664 16.0365
634 2 130.949 59.2961 -0.0206101
635 2 134.906 59.3538 16.0601
636 2 138.861 59.1078 0.265183
637 2 142.82 59.0804 0.130959
638 2 146.76 59.0854 0.111653
639 2 150.596 59.108 16.049
640 2 154.378 58.9619 0.108485
641 2 -0.00593074 63.1392 0.358685
642 2 4.05749 63.1234 0.0851216
643 2 7.97394 63.1094 15.9452
644 2 11.7504 62.9459 15.9352
645 2 15.6566 63.0204 16.0318
646 2 19.4353 62.9134 0.146361
647 2 23.5191 62.8892 0.203336
648 2 27.1995 62.8104 0.313747
649 2 31.3612 62.7903 0.0351833
650 2 35.2525 62.6728 0.089699
651 2 39.0846 62.6897 16.0263
652 2 43.1709 62.6655 0.00375393
653 2 47.1319 62.5586 15.8634
654 2 50.8479 62.6572 15.829
655 2 55.0744 62.7234 0.134243
656 2 59.2093 62.8606 16.0125
657 2 63.0359 62.8744 0.0375706
658 2 66.8413 63.0029 16.0497
659 2 71.1174 62.9192 0.021363
660 2 75.095 62.912 0.220618
661 2 79.1504 63.1467 0.0544417
662 2 82.9204 63.2031 0.0530784
663 2 86.9388 62.9343 16.0353
664 2 90.9526 63.0106 15.8842
665 2 95.2482 63.1326 0.0980309
666 2 99.0566 63.0473 0.251923
667 2 103.034 63.1593 16.0539
668 2 107.189 63.1592 16.0083
669 2 111.392 63.2181 15.9316
670 2 115.376 63.3838 -0.0401817
671 2 119.235 63.2656 15.9319
672 2 123.042 63.2661 0.0131355
673 2 127.298 63.3685 15.9794
674 2 131.084 63.3561 0.201051
675 2 134.895 63.4031 16.0807
676 2 138.922 63.247 16.0362
677 2 142.788 63.0841 16.04
678 2 146.622 63.219 0.0525834
679 2 150.603 63.4165 16.0677
680 2 154.535 63.0234 0.199486
681 2 0.081263 67.0997 0.298764
682 2 4.02097 67.0777 0.214013
683 2 7.96732 66.9035 16.0687
684 2 11.8516 66.8292 16.0501
685 2 15.6782 67.1296 0.0266592
686 2 19.5563 66.9061 0.200411
687 2 23.5258 66.8983 0.218724
688 2 27.4608 66.9369 0.147444
689 2 31.5166 66.7201 0.0514696
690 2 35.2818 66.7602 0.0265744
691 2 39.1971 66.8535 16.0635
692 2 43.1082 66.7006 0.0249635
693 2 47.109 66.6034 15.9937
694 2 50.9863 66.6842 15.8474
695 2 54.9926 66.695 16.0805
696 2 59.1023 66.6127 16.0932
697 2 62.9023 66.8682 15.9699
698 2 66.9559 66.8757 16.0399
699 2 71.0767 66.9612 0.134428
700 2 75.1071 67.0047 16.0565
701 2 79.026 66.9575 15.9895
702 2 82.8918 66.8583 -0.0254405
703 2 86.9782 66.8963 15.8862
704 2 90.884 66.9329 15.7712
705 2 94.9345 66.8063 0.161373
706 2 99.0895 67.0817 0.163671
707 2 103.068 67.1432 0.049359
708 2 107.092 67.0656 15.8022
709 2 111.093 67.09 15.8634
710 2 115.081 67.1392 15.8589
711 2 119.121 67.2219 -0.072078
712 2 123.1 67.3069 -0.097051
713 2 127 67.2898 -0.0286604
714 2 130.897 67.2802 16.0254
715 2 135.037 67.2996 0.0724712
716 2 138.816 67.1788 0.147781
717 2 142.602 67.2328 16.0315
718 2 146.751 67.0402 15.8769
719 2 150.67 66.91 16.1143
720 2 154.394 67.2149 0.188389
721 2 0.039335 71.1148 0.108518
722 2 4.01373 71.0665 16.0912
723 2 7.73336 71.0225 0.131813
724 2 11.8782 70.9617 16.1041
725 2 15.9138 71.0095 0.00856172
726 2 19.5745 71.0702 0.0861643
727 2 23.5433 70.8612 0.220853
728 2 27.6754 70.9054 16.0858
729 2 31.6383 70.7094 0.265385
730 2 35.244 70.7131 -0.100876
731 2 39.2973 70.6806 16.0163
732 2 43.225 70.6093 8.05982e-05
733 2 47.054 70.6544 16.0544
734 2 50.9947 70.7751 16.0479
735 2 55.0318 70.6145 0.16033
736 2 58.9649 70.704 0.118427
737 2 63.0201 70.8529 0.117503
738 2 67.0198 70.8473 15.9534
739 2 70.8809 70.7557 16.1558
740 2 74.9476 70.8095 15.9927
741 2 79.002 70.6824 0.2511
742 2 82.9136 70.8814 -0.0301835
743 2 86.9844 70.8844 15.8235
744 2 91.013 71.0673 15.8589
745 2 95.0152 70.707 15.8045
746 2 99.0947 71.198 15.9802
747 2 103.015 70.991 15.8891
748 2 107.069 71.0539 15.6486
749 2 111.041 71.0502 15.7636
750 2 115.104 71.0606 0.022609
751 2 119.046 71.2201 16.1644
752 2 123.167 71.1882 0.0766164
753 2 127.215 71.2094 15.916
754 2 131.071 71.3235 15.9368
755 2 135.127 71.4896 16.0144
756 2 139.187 71.2283 15.9942
757 2 143.051 71.209 -0.0559486
758 2 146.809 71.162 -0.0548063
759 2 150.492 70.9696 0.158403
760 2 154.536 71.1674 16.1092
761 2 0.319993 75.1739 0.166196
762 2 4.26873 75.0391 15.9717
763 2 8.06156 74.7591 15.9828
764 2 11.7734 74.9322 15.878
765 2 15.7354 75.0188 15.9129
766 2 19.8177 74.9184 15.9951
767 2 23.6126 74.956 16.034
768 2 27.4958 74.8401 16.0927
769 2 31.5812 74.8083 0.170621
770 2 35.5101 74.694 15.905
771 2 39.4268 74.8455 16.034
772 2 43.3416 74.6465 0.146986
773 2 47.2854 74.7555 16.0351
774 2 51.0583 74.7045 0.203073
775 2 54.7948 74.714 16.0621
776 2 58.8659 74.5991 15.9943
777 2 62.8996 74.5876 15.9435
778 2 66.6675 74.6057 0.192621
779 2 71.0837 74.6859 0.0557559
780 2 74.937 74.597 -0.00424129
781 2 78.8689 74.7938 0.156668
782 2 82.8427 74.8502 0.0122351
783 2 86.9811 74.7816 -0.0701534
784 2 90.7756 74.8438 16.0617
785 2 95.1109 74.7905 15.8932
786 2 98.8584 75.0806 -0.0752623
787 2 102.992 74.9809 15.7301
788 2 106.939 74.9716 15.9662
789 2 111.119 74.9148 15.9709
790 2 115.047 75.0628 16.0063
791 2 119.156 75.1309 0.19197
792 2 123.075 75.4037 15.932
793 2 127.102 74.9628 16.1122
794 2 131.107 75.1093 0.157296
795 2 135.076 75.371 15.9879
796 2 139.039 75.1907 15.7585
797 2 143.107 75.3282 15.8463
798 2 146.805 75.22 16.0278
799 2 150.693 75.3749 0.103749
800 2 154.736 75.0777 0.163923
801 2 0.220881 79.0567 0.272626
802 2 4.22989 79.1462 15.8853
803 2 8.11572 78.9689 -0.129146
804 2 11.9478 78.9082 0.0914605
805 2 15.7927 78.877 16.0433
806 2 19.8829 78.9523 15.9301
807 2 23.8008 78.9078 -0.0605453
808 2 27.7413 78.9154 0.159272
809 2 31.5976 78.8771 0.191423
810 2 35.2712 78.7777 0.170208
811 2 39.3769 78.8305 16.1763
812 2 43.2397 78.834 15.9491
813 2 47.1416 78.6307 16.0288
814 2 51.232 78.6108 0.170888
815 2 54.9323 78.4602 0.216723
816 2 58.7825 78.5194 15.9648
817 2 62.7489 78.5803 15.8948
818 2 66.9001 78.5042 0.0744616
819 2 70.8709 78.4914 15.827
820 2 74.7917 78.6256 -0.0845571
821 2 78.7862 78.5962 16.0684
822 2 82.943 78.8432 16.1695
823 2 86.9326 78.6665 0.244566
824 2 90.9553 78.6596 0.284709
825 2 94.9969 78.7188 0.138042
826 2 99.0029 78.8351 16.0061
827 2 102.987 78.7925 16.0585
828 2 106.831 78.8857 0.273431
829 2 110.964 79.0628 0.123429
830 2 114.885 78.9518 0.157952
831 2 119.014 79.1097 -0.00903514
832 2 123.065 79.0879 15.8949
833 2 127.134 79.0933 0.0419881
834 2 131.01 79.2765 15.9651
835 2 135.024 79.0575 0.0737858
836 2 139.097 78.9681 15.9136
837 2 143.134 79.5031 15.8776
838 2 146.692 79.2665 15.8687
839 2 150.831 79.0901 16.0939
840 2 154.633 79.2452 0.182545
841 2 0.304114 83.1497 15.9281
842 2 4.16133 82.9729 15.9837
843 2 8.06969 83.2498 0.0533743
844 2 11.906 83.1932 16.0584
845 2 15.9929 83.0368 16.1304
846 2 19.9849 82.9367 0.15845
847 2 23.8507 83.0137 15.9704
848 2 27.7367 82.8259 0.210943
849 2 31.6587 82.7893 16.0353
850 2 35.5884 82.6832 0.24771
851 2 39.4281 82.7682 0.222494
852 2 43.2568 82.7071 16.0463
853 2 47.2208 82.6252 -0.0221158
854 2 51.1007 82.8667 0.274577
855 2 54.9984 82.4869 0.115613
856 2 59.0573 82.4615 15.8741
857 2 62.8873 82.5228 15.9047
858 2 66.8563 82.3555 16.0243
859 2 71.1039 82.5619 15.8542
860 2 74.9248 82.5627 15.8914
861 2 78.8092 82.5652 15.9861
862 2 82.9119 82.5441 0.192097
863 2 86.7341 82.7007 0.136041
864 2 90.9548 82.5267 16.0144
865 2 95.0221 82.6058 -0.0414238
866 2 98.8627 82.4595 15.9167
867 2 102.913 82.742 -0.0605465
868 2 107.023 82.8536 16.2675
869 2 111.107 82.8296 15.9598
870 2 115.059 82.7863 15.8781
871 2 119.016 82.8685 15.9387
872 2 123.128 82.898 15.8473
873 2 126.825 83.0453 15.8531
874 2 131.078 83.1434 15.8837
875 2 134.92 83.0355 0.138307
876 2 138.771 83.2809 15.9293
877 2 142.988 83.2512 0.0752847
878 2 147.09 83.2948 15.9282
879 2 150.823 83.2773 0.189774
880 2 154.657 83.2818 0.278894
881 2 0.358026 87.1217 16.1279
882 2 4.29743 87.1342 0.0984983
883 2 8.12559 87.0195 15.8619
884 2 11.9872 86.9681 15.9543
885 2 16.0105 87.0888 15.9509
886 2 20.0049 87.018 16.033
887 2 23.8577 86.7577 16.0551
888 2 27.8255 86.831 0.263513
889 2 31.6592 86.9197 16.0683
890 2 35.6466 86.7106 0.169127
891 2 39.5243 86.9031 15.9264
892 2 43.3586 86.6228 15.9662
893 2 47.1859 86.729 16.0508
894 2 51.1171 86.7406 16.1177
895 2 55.0656 86.6127 16.0489
896 2 58.9581 86.4414 0.111915
897 2 63.0255 86.5516 0.168238
898 2 66.9013 86.5088 16.0999
899 2 70.756 86.4235 0.0174419
900 2 74.8331 86.3514 15.803
901 2 78.9916 86.3304 0.0813696
902 2 82.9553 86.5401 0.314242
903 2 86.9252 86.5734 16.0066
904 2 90.9667 86.4327 15.8716
905 2 95.0691 86.5836 15.8954
906 2 98.922 86.6514 15.9525
907 2 102.946 86.483 -0.0477722
908 2 106.765 86.8962 0.0950443
909 2 110.987 86.7219 15.9647
910 2 114.942 86.7521 0.0965553
911 2 118.853 86.8056 0.135027
912 2 122.891 86.7846 0.126244
913 2 126.899 86.8066 15.9731
914 2 131.042 86.8803 15.9115
915 2 135.117 87.0708 15.9574
916 2 139.055 87.1908 15.8429
917 2 142.851 87.0382 15.7983
918 2 146.948 87.4189 -0.130598
919 2 150.959 87.1206 15.794
920 2 154.955 87.1851 15.904
921 2 0.399744 91.2066 0.0102306
922 2 4.30462 91.2214 -0.147836
923 2 8.35874 91.0018 15.8224
924 2 12.3139 90.9432 15.8771
925 2 16.1361 91.0759 -0.120124
926 2 19.9289 91.0526 0.175612
927 2 23.7938 90.8955 15.9894
928 2 27.6898 90.9163 15.9667
929 2 31.6664 90.8288 16.1134
930 2 35.5644 90.7062 0.178133
931 2 39.3366 90.8049 16.0605
932 2 43.3572 90.7832 16.0594
933 2 47.4125 90.5649 0.162386
934 2 51.111 90.9274 0.0570287
935 2 55.1596 90.5049 0.111779
936 2 59.0468 90.4831 0.177062
937 2 62.87 90.5051 0.0927765
938 2 66.9665 90.3575 16.1748
939 2 70.8533 90.2456 16.1773
940 2 74.8201 90.1942 -0.0514994
941 2 78.6053 90.669 0.316999
942 2 82.761 90.4099 0.151201
943 2 86.831 90.2613 -0.0370522
944 2 90.8715 90.6005 0.178211
945 2 94.895 90.4175 16.0281
946 2 98.9917 90.5354 15.922
947 2 102.911 90.3709 -0.0854934
948 2 106.759 90.4816 15.9899
949 2 110.725 90.6638 16.0818
950 2 114.912 90.8646 0.0902542
951 2 118.982 90.6717 0.158026
952 2 122.906 90.8575 16.0703
953 2 127.041 90.8252 -0.0166794
954 2 130.939 90.6858 -0.00321949
955 2 134.762 91.0757 15.9736
956 2 138.712 91.0793 16.1964
957 2 142.8 91.0276 15.7562
958 2 146.898 91.1931 15.8615
959 2 150.762 91.0898 15.6923
960 2 154.624 91.1186 16.0074
961 2 0.416375 95.1486 0.165477
962 2 4.34643 95.3262 16.0008
963 2 8.3715 95.0588 15.8959
964 2 12.0194 94.8899 15.7883
965 2 15.856 94.9584 15.8783
966 2 20.1416 94.9032 15.9489
967 2 23.9612 94.9086 15.9079
968 2 28.0046 94.985 15.9448
969 2 31.8224 94.9276 16.1432
970 2 35.6098 94.8166 16.1005
971 2 39.479 94.682 15.9403
972 2 43.555 94.7414 15.8567
973 2 47.4598 94.6433 -0.0248264
974 2 51.1034 94.5582 15.948
975 2 55.3082 94.6139 0.0771449
976 2 59.1494 94.4353 16.0123
977 2 63.2137 94.4095 0.0943977
978 2 67.186 94.3606 0.0456963