ITEM: TIMESTEP
20200
ITEM: NUMBER OF ATOMS
32000
ITEM: BOX BOUNDS xy xz yz pp pp pp
0.0000000000000000e+00 1.5831999999999999e+02 0.0000000000000000e+00
0.0000000000000000e+00 1.5831999999999999e+02 0.0000000000000000e+00
1.6333116399686265e-01 1.5934380836002976e+01 0.0000000000000000e+00
ITEM: ATOMS id type x y z
1 2 158.037 157.826 15.9802
2 2 3.88376 157.791 15.9005
3 2 7.93069 157.918 0.108469
4 2 11.7375 158.003 -0.00589668
5 2 15.7921 157.879 0.209873
6 2 19.9888 158.029 16.0208
7 2 23.9561 158.015 15.9992
8 2 28.0247 158.13 15.9613
9 2 31.8388 158.046 0.0958039
10 2 35.8537 158.169 15.5277
11 2 39.6274 -0.15431 15.8701
12 2 43.9079 -0.190122 0.236798
13 2 47.8865 0.00986679 15.9268
14 2 51.956 -0.0900828 0.111144
15 2 56.0398 158.183 -0.0386522
16 2 60.0919 158.544 16.0515
17 2 63.9602 0.146254 16.0246
18 2 67.7775 0.329845 16.024
19 2 71.7846 0.0364101 15.9493
20 2 75.685 158.2 15.872
21 2 79.6854 0.00396346 15.9436
22 2 83.408 158.337 15.9089
23 2 87.3525 158.064 15.8802
24 2 91.2995 158.133 0.173058
25 2 95.1683 158.056 15.809
26 2 98.8905 158.064 15.8873
27 2 102.837 157.883 15.7489
28 2 106.854 157.974 15.8637
29 2 110.885 158.036 0.201535
30 2 114.652 157.865 -0.0226062
31 2 118.563 157.919 15.699
32 2 122.482 157.812 -0.326397
33 2 126.529 157.794 0.0685729
34 2 130.295 157.693 0.133827
35 2 134.237 157.537 15.8894
36 2 138.004 157.633 15.9814
37 2 142.154 157.591 15.9299
38 2 146.08 157.877 15.9603
39 2 149.957 157.608 0.0965594
40 2 153.852 157.69 0.119169
41 2 158.081 3.27902 15.7582
42 2 3.79452 3.3142 15.6753
43 2 7.83296 3.46103 0.0648381
44 2 11.7743 3.5584 15.9666
45 2 15.7014 3.53444 15.8022
46 2 19.7886 3.57553 15.8555
47 2 23.9639 3.63224 0.338777
48 2 27.8357 3.90181 0.208868
49 2 31.8473 3.42408 0.281523
50 2 35.9026 3.5766 0.110867
51 2 39.8588 3.86768 0.287876
52 2 43.6676 3.95954 15.9247
53 2 47.9488 3.9415 16.0893
54 2 51.8427 3.98493 15.8256
55 2 55.8704 4.08556 0.0618857
56 2 59.8308 4.02252 15.8447
57 2 64.0199 3.96602 16.0166
58 2 67.9808 4.13434 16.0795
59 2 71.8287 3.98792 15.9553
60 2 75.6531 3.93626 15.9671
61 2 79.5517 3.96713 15.9233
62 2 83.6768 4.04479 15.8643
63 2 87.4826 3.97472 15.8123
64 2 91.2509 3.9212 0.268117
65 2 95.1137 3.75861 15.992
66 2 99.1315 3.853 0.0763673
67 2 102.834 3.65364 15.8824
68 2 106.88 3.76708 15.778
69 2 110.802 3.59246 0.213226
70 2 114.69 3.61173 0.189801
71 2 118.529 3.65616 0.0452625
72 2 122.481 3.6137 0.174068
73 2 126.619 3.34731 0.111696
74 2 130.515 3.43226 0.10373
75 2 134.145 3.34359 15.833
76 2 138.127 3.32205 0.385392
77 2 142.003 3.27734 0.273698
78 2 146.155 3.48153 0.254949
79 2 149.821 3.29864 15.8897
80 2 154.014 3.3961 15.8712
81 2 157.872 7.34519 16.0795
82 2 3.70072 7.15455 15.8338
83 2 7.69433 7.57898 16.003
84 2 11.8061 7.32771 0.162262
85 2 15.8248 7.53076 15.9334
86 2 19.734 7.66464 15.9114
87 2 23.4824 7.57847 0.241351
88 2 27.6793 7.94751 15.9408
89 2 31.6771 7.66013 15.8534
90 2 35.7537 7.47966 15.9043
91 2 39.7998 7.66151 0.263383
92 2 43.744 7.69017 0.076382
93 2 47.6716 7.69492 15.7226
94 2 51.7814 7.85159 0.400058
95 2 55.6901 7.91858 15.7577
96 2 59.6656 7.97015 0.2254
97 2 63.8081 8.00052 16.0479
98 2 67.7967 8.01406 15.7529
99 2 71.6752 8.1344 15.8111
100 2 75.7477 7.91531 15.9455
101 2 79.5911 7.81385 0.276017
102 2 83.4676 7.92267 15.6223
103 2 87.4776 7.92526 15.5483
104 2 91.1968 7.7201 15.6978
105 2 95.2361 7.80018 15.8279
106 2 99.178 7.67618 0.265123
107 2 102.953 7.75705 0.142533
108 2 106.866 7.59249 15.8315
109 2 110.835 7.59929 0.308609
110 2 114.724 7.71768 15.748
111 2 118.635 7.50296 15.7877
112 2 122.468 7.66012 15.9735
113 2 126.415 7.41634 15.8091
114 2 130.176 7.3858 0.193777
115 2 134.374 7.47601 0.222829
116 2 138.112 7.30528 15.9836
117 2 142.114 7.2927 15.9757
118 2 146.08 7.29014 0.217323
119 2 149.964 7.34142 0.0643661
120 2 154.022 7.13626 15.8006
121 2 158.033 11.2251 15.9891
122 2 3.6264 11.1972 15.9791
123 2 7.61422 11.2203 15.7884
124 2 11.6595 11.4932 0.147547
125 2 15.7396 11.4394 15.8387
126 2 19.7044 11.5139 16.1323
127 2 23.7966 11.5035 15.9117
128 2 27.7323 11.5735 15.9187
129 2 31.765 11.4513 15.9785
130 2 35.5683 11.3288 15.7949
131 2 39.6771 11.7385 15.8074
132 2 43.5294 11.7966 0.052495
133 2 47.7549 11.8287 0.214916
134 2 51.732 11.8509 15.9148
135 2 55.7281 11.6964 0.23506
136 2 59.6958 11.8922 15.8035
137 2 63.7961 11.8713 0.233762
138 2 67.8413 11.9972 15.8589
139 2 71.7609 11.9323 15.7809
140 2 75.6899 11.8997 15.7304
141 2 79.4684 11.9499 16.0067
142 2 83.313 11.7769 15.8378
143 2 87.3046 11.9491 -0.0213425
144 2 91.1529 11.8182 0.155351
145 2 95.0427 11.8495 15.8997
146 2 99.0891 11.764 15.881
147 2 103.046 11.838 0.377349
148 2 107.046 11.6157 15.8536
149 2 110.884 11.6847 0.267663
150 2 114.766 11.5961 15.695
151 2 118.611 11.5941 0.150403
152 2 122.401 11.6074 0.303273
153 2 126.442 11.3771 15.9153
154 2 130.408 11.4734 15.8417
155 2 134.372 11.3298 0.333909
156 2 138.191 11.4929 0.358738
157 2 142.143 11.1436 -0.0185657
158 2 146.266 11.2557 0.0992533
159 2 150.042 11.1796 0.322731
160 2 153.822 11.1493 0.290849
161 2 157.945 15.2524 16.1518
162 2 3.74216 15.2134 15.8906
163 2 7.70641 15.2618 15.8517
164 2 11.5928 15.2556 15.9394
165 2 15.7772 15.2761 15.8072
166 2 19.5619 15.5048 0.00114353
167 2 23.6124 15.4039 0.274199
168 2 27.6862 15.6512 15.9017
169 2 31.4702 15.4541 0.414631
170 2 35.5188 15.2917 15.8846
171 2 39.546 15.3991 0.163839
172 2 43.5496 15.6153 0.239824
173 2 47.5627 15.8177 0.0738379
174 2 51.6962 15.8949 0.0268545
175 2 55.5717 15.6725 15.9364
176 2 59.5948 15.6609 0.196766
177 2 63.7513 15.8096 15.8865
178 2 67.7808 15.9671 15.786
179 2 71.6302 15.8655 0.209367
180 2 75.6275 15.922 0.239402
181 2 79.3822 15.9189 15.7874
182 2 83.4581 15.9348 0.133232
183 2 87.2275 16.0173 15.8173
184 2 91.3346 15.7883 0.128015
185 2 95.0096 15.6967 15.8164
186 2 99.1547 15.5577 15.9497
187 2 102.947 15.6312 16.1564
188 2 106.764 15.6766 15.922
189 2 110.954 15.7151 16.0093
190 2 114.919 15.5496 15.8547
191 2 118.854 15.5204 0.179082
192 2 122.724 15.4577 15.8939
193 2 126.554 15.5015 16.1353
194 2 130.453 15.3122 0.419762
195 2 134.261 15.297 0.207618
196 2 138.461 15.3379 0.285542
197 2 142.244 15.2233 15.7416
198 2 146.123 15.1763 0.163732
199 2 149.94 15.0902 0.167953
200 2 153.942 15.1313 16.0536
201 2 158.065 19.1964 16.1229
202 2 3.73331 19.1835 0.262775
203 2 7.64164 19.1824 0.215061
204 2 11.5426 19.1857 15.8908
205 2 15.5123 19.2342 15.916
206 2 19.4818 19.303 15.932
207 2 23.4915 19.4406 15.908
208 2 27.568 19.304 15.8951
209 2 31.7359 19.4023 16.0365
210 2 35.5118 19.4874 15.7518
211 2 39.4605 19.2472 0.163308
212 2 43.526 19.6261 15.8701
213 2 47.5771 19.4138 15.7636
214 2 51.4305 19.6129 0.101898
215 2 55.5627 19.6257 15.7905
216 2 59.7301 19.6995 15.9062
217 2 63.6279 19.7898 16.0679
218 2 67.5105 19.784 15.8952
219 2 71.5732 19.992 0.135967
220 2 75.3744 19.717 0.138549
221 2 79.2532 19.7857 0.154463
222 2 83.2792 19.9408 15.8241
223 2 87.3313 19.9047 0.0641413
224 2 91.2604 19.9308 0.1675
225 2 95.3293 19.922 15.6816
226 2 99.2342 19.8363 15.8445
227 2 103.03 19.7027 15.8612
228 2 106.918 19.5162 15.9232
229 2 110.84 19.7648 0.17581
230 2 114.727 19.4985 15.8256
231 2 118.714 19.4511 15.801
232 2 122.701 19.4414 15.8462
233 2 126.553 19.4568 15.7762
234 2 130.526 19.422 15.9389
235 2 134.304 19.2836 0.265882
236 2 138.26 19.2437 15.9829
237 2 142.245 19.2411 15.9106
238 2 146.038 19.1839 0.105878
239 2 150.26 19.1833 15.9449
240 2 154.021 19.1191 0.387657
241 2 157.978 23.1339 15.73
242 2 3.48798 23.101 15.7959
243 2 7.46554 23.1855 0.0612566
244 2 11.5611 22.9898 0.278589
245 2 15.6046 23.2707 16.0665
246 2 19.3549 23.1029 15.9133
247 2 23.3341 23.2265 15.9769
248 2 27.5471 23.182 15.926
249 2 31.3947 23.2929 0.268129
250 2 35.5192 23.345 15.7592
251 2 39.3858 23.4177 0.182302
252 2 43.4682 23.4965 16.0546
253 2 47.5494 23.3952 0.149784
254 2 51.6384 23.4975 0.114451
255 2 55.5926 23.5215 0.342128
256 2 59.468 23.5719 15.8014
257 2 63.6066 23.7353 0.322078
258 2 67.5138 23.8469 15.8304
259 2 71.4277 23.8173 15.8983
260 2 75.4406 23.7643 0.208598
261 2 79.4431 23.8694 15.7682
262 2 83.5241 23.9185 0.151238
263 2 87.4732 23.8347 15.9414
264 2 91.4544 24.0409 15.8165
265 2 95.2758 23.6983 15.8508
266 2 99.1286 23.8663 0.309445
267 2 103.166 23.5467 15.9275
268 2 106.982 23.7364 15.9058
269 2 111.021 23.5866 0.103294
270 2 114.654 23.3792 15.836
271 2 118.821 23.5493 15.7549
272 2 122.685 23.4228 0.00713932
273 2 126.532 23.2768 15.7993
274 2 130.434 23.3047 15.9031
275 2 134.446 23.3593 16.0794
276 2 138.296 23.3665 15.8614
277 2 142.208 23.2539 15.844
278 2 146.277 23.1686 0.335086
279 2 150.143 23.2142 0.194304
280 2 153.758 23.0952 0.43042
281 2 158.092 27.0973 0.35458
282 2 3.50247 27.1627 0.203051
283 2 7.59881 27.0465 0.186011
284 2 11.3966 27.0831 15.8776
285 2 15.4521 27.0483 16.0007
286 2 19.3084 27.1377 0.198448
287 2 23.0645 27.0659 16.0444
288 2 27.1867 27.1418 15.8727
289 2 31.4697 27.2286 0.0488449
290 2 35.3574 27.1502 0.13134
291 2 39.5211 27.3791 0.293853
292 2 43.3434 27.2779 0.343241
293 2 47.273 27.3906 0.257982
294 2 51.3672 27.3961 15.68
295 2 55.2897 27.5208 0.213653
296 2 59.4389 27.6043 15.9477
297 2 63.2597 27.3847 15.9811
298 2 67.2041 27.6248 16.1862
299 2 71.2345 27.5347 15.9667
300 2 75.2203 27.405 0.170582
301 2 79.2744 27.6792 0.122771
302 2 83.4105 27.8875 15.761
303 2 87.4364 27.8939 -0.0767088
304 2 91.3508 27.6782 0.211164
305 2 95.4097 27.8375 0.261333
306 2 99.134 27.8468 0.118716
307 2 103.02 27.8006 15.7721
308 2 106.988 27.7178 0.108081
309 2 111.05 27.6198 15.7506
310 2 115.026 27.4214 15.8274
311 2 118.964 27.4884 0.0955666
312 2 122.808 27.4022 0.169541
313 2 126.555 27.4459 15.8332
314 2 130.536 27.1492 16.0455
315 2 134.447 27.2679 15.9681
316 2 138.661 27.3855 15.9217
317 2 142.712 27.2566 0.143374
318 2 146.233 27.2434 -0.0128124
319 2 150.101 27.0881 0.224898
320 2 154.05 27.0847 0.298728
321 2 158.058 31.0569 15.7868
322 2 3.62706 31.0449 15.9511
323 2 7.59958 30.9424 15.7687
324 2 11.5165 31.0844 0.251602
325 2 15.4231 30.9208 0.259165
326 2 19.3469 31.0177 15.8741
327 2 23.441 31.024 16.155
328 2 27.3781 31.0245 0.335532
329 2 31.3936 31.1975 15.6891
330 2 35.2205 31.0975 15.8252
331 2 39.4515 31.3061 15.8779
332 2 43.26 31.2697 0.068165
333 2 47.046 31.2453 15.9807
334 2 51.2871 31.4079 0.168627
335 2 55.1736 31.4378 15.8327
336 2 59.2708 31.5626 0.456423
337 2 63.3068 31.5741 16.0634
338 2 67.2605 31.7226 0.320301
339 2 71.1639 31.488 0.36413
340 2 75.3429 31.6574 0.233777
341 2 79.3314 31.5091 15.8849
342 2 83.2334 31.5366 0.0277906
343 2 87.4144 31.801 15.7899
344 2 91.3743 31.7987 16.0576
345 2 95.4574 31.6562 15.8604
346 2 99.3689 31.7655 0.133539
347 2 103.273 31.7037 15.8991
348 2 107.078 31.722 15.8692
349 2 111.084 31.6702 15.9471
350 2 114.765 31.4406 15.8682
351 2 118.797 31.4583 15.9305
352 2 122.644 31.4159 15.8578
353 2 126.741 31.2394 15.8537
354 2 130.607 31.1892 16.0264
355 2 134.68 31.3232 16.0635
356 2 138.609 31.2788 15.9166
357 2 142.4 31.4507 0.0943689
358 2 146.379 31.3469 15.6576
359 2 150.202 31.0238 0.119427
360 2 154.051 30.9666 0.288244
361 2 -0.192681 35.0549 0.339893
362 2 3.61115 35.0949 15.8192
363 2 7.61738 34.8657 15.778
364 2 11.5874 34.8345 15.8843
365 2 15.2319 35.0144 0.28147
366 2 19.3406 34.9668 0.231655
367 2 23.2977 34.8693 0.408839
368 2 27.2235 34.8724 0.501856
369 2 31.3485 35.2898 0.186804
370 2 35.6403 35.1097 0.143314
371 2 39.3713 35.2147 0.216134
372 2 43.3475 35.322 16.0528
373 2 47.2638 35.215 15.9282
374 2 51.2573 35.3565 16.0038
375 2 55.1423 35.3666 0.240627
376 2 59.2807 35.2956 0.216915
377 2 63.1586 35.4031 15.6567
378 2 67.1859 35.4615 0.162347
379 2 71.2587 35.5604 0.190058
380 2 75.438 35.5851 15.8718
381 2 79.3363 35.6446 0.118723
382 2 83.4366 35.7655 16.0398
383 2 87.4311 35.7169 0.344837
384 2 91.4418 35.7189 0.225246
385 2 95.3893 35.6936 16.1175
386 2 99.3246 35.5989 0.0914108
387 2 103.29 35.7793 15.8377
388 2 107.08 35.7929 15.8777
389 2 111.157 35.6812 16.066
390 2 115.133 35.3619 15.861
391 2 119.099 35.4893 15.8049
392 2 122.795 35.3852 15.9485
393 2 126.656 35.5327 15.9716
394 2 130.673 35.2783 15.9105
395 2 134.598 35.2306 16.0213
396 2 138.613 35.1757 0.147272
397 2 142.363 34.984 0.166995
398 2 146.243 35.0606 0.142048
399 2 150.149 35.07 15.8954
400 2 154.306 35.2198 0.165971
401 2 158.28 38.9532 0.280173
402 2 3.71931 39.0196 0.200973
403 2 7.6689 38.7925 0.244846
404 2 11.4545 39.0178 15.8396
405 2 15.3984 38.8903 0.367957
406 2 19.3839 38.7932 16.0719
407 2 23.2379 38.7322 16.0456
408 2 27.2082 39.0261 16.115
409 2 31.2326 38.9607 0.137394
410 2 35.1701 38.9523 0.117975
411 2 39.1933 39.0415 15.8249
412 2 43.1572 39.0894 0.371807
413 2 47.2243 39.0435 0.358408
414 2 51.2211 39.1188 15.9865
415 2 55.2841 39.2666 0.0341199
416 2 59.3026 39.4655 0.049482
417 2 63.223 39.2957 0.16701
418 2 67.4156 39.3095 0.0933811
419 2 71.2579 39.4172 0.126307
420 2 75.3013 39.5999 0.0188575
421 2 79.3944 39.3345 0.244509
422 2 83.3167 39.5717 16.1309
423 2 87.3196 39.6303 15.9279
424 2 91.3969 39.463 15.8893
425 2 95.3658 39.6054 15.8658
426 2 99.3172 39.7078 0.288812
427 2 103.206 39.5041 15.7809
428 2 107.236 39.8872 15.7904
429 2 111.193 39.6032 15.8868
430 2 115.029 39.2743 15.9665
431 2 118.983 39.4582 15.6554
432 2 122.937 39.3755 15.8365
433 2 126.921 39.3055 0.121088
434 2 130.746 39.3337 15.8117
435 2 134.708 39.3269 15.9161
436 2 138.606 39.2063 15.8549
437 2 142.336 39.4504 15.7466
438 2 146.443 39.2725 0.170574
439 2 150.055 39.2302 15.8808
440 2 153.967 38.9793 15.8147
441 2 158.049 42.9402 0.165778
442 2 3.78878 42.9195 15.8155
443 2 7.52848 43.0107 15.8461
444 2 11.5852 43.0252 0.260047
445 2 15.3675 43.0821 0.31581
446 2 19.1788 43.0064 0.210052
447 2 23.276 42.8417 15.9499
448 2 27.083 43.0717 15.874
449 2 31.0769 42.8997 0.229765
450 2 35.0962 42.7823 0.287416
451 2 39.1348 43.0404 0.307729
452 2 42.9592 42.9265 0.25745
453 2 47.2003 42.9931 16.1519
454 2 51.2072 43.064 15.8542
455 2 55.2013 43.1652 0.12522
456 2 59.0476 43.2428 15.9083
457 2 63.1106 43.2916 0.0705791
458 2 67.3528 43.2716 0.191605
459 2 71.3384 43.313 0.146969
460 2 75.3148 43.2515 0.188887
461 2 79.4043 43.5851 0.191321
462 2 83.2716 43.3571 15.8337
463 2 87.2626 43.63 15.9021
464 2 91.3758 43.5628 0.258797
465 2 95.4012 43.3412 0.126905
466 2 99.2412 43.6961 15.6275
467 2 103.364 43.5893 15.8973
468 2 107.265 43.8489 16.0221
469 2 111.429 43.6731 15.9077
470 2 115.057 43.4112 15.8013
471 2 119.083 43.5959 15.707
472 2 123.123 43.4347 15.8334
473 2 126.748 43.2698 0.0529789
474 2 130.709 43.2705 0.273227
475 2 134.665 43.3674 16.0637
476 2 138.714 43.2837 16.0572
477 2 142.442 43.3859 15.7466
478 2 146.527 43.2063 0.150168
479 2 150.449 43.2857 0.175704
480 2 154.312 43.101 0.27259
481 2 -0.0473866 47.03 0.388204
482 2 3.92119 47.07 0.103284
483 2 7.83731 46.9819 0.154372
484 2 11.6007 46.8633 0.352204
485 2 15.5025 47.0091 0.128696
486 2 19.3973 46.762 0.162045
487 2 23.5056 46.9166 0.25297
488 2 27.0893 46.7711 15.9758
489 2 31.2026 46.7798 0.29378
490 2 35.2632 46.8469 0.19694
491 2 39.1081 46.7406 15.8995
492 2 43.0309 47.0545 15.8657
493 2 47.005 46.7252 0.123469
494 2 51.2886 47.1037 15.8311
495 2 55.2095 47.028 15.892
496 2 59.2579 47.13 16.1084
497 2 63.2376 47.0776 0.226527
498 2 67.3126 47.2207 0.259731
499 2 71.2484 47.2457 16.0538
500 2 75.2278 47.0625 0.131661
501 2 79.1721 47.3768 15.7861
502 2 83.207 47.4089 15.7705
503 2 87.277 47.4193 0.253847
504 2 91.3496 47.4552 0.133649
505 2 95.1873 47.4339 0.0625731
506 2 99.2151 47.4996 0.216301
507 2 103.164 47.4677 0.235633
508 2 107.093 47.6636 15.8496
509 2 111.194 47.7174 15.6929
510 2 115.374 47.6112 0.153561
511 2 119.305 47.6401 15.9417
512 2 123.001 47.5178 15.8313
513 2 126.866 47.5512 15.7594
514 2 130.749 47.2965 15.7672
515 2 134.883 47.2459 15.7641
516 2 138.688 47.3941 15.972
517 2 142.569 47.1691 15.8608
518 2 146.435 47.0604 0.462738
519 2 150.374 46.9902 0.208354
520 2 154.338 46.8692 15.7774
521 2 158.15 51.1247 0.341462
522 2 3.97978 50.9673 15.6931
523 2 7.85407 50.8751 15.8277
524 2 11.7374 51.0728 15.9362
525 2 15.5534 50.7425 0.164071
526 2 19.5557 51.0315 15.8069
527 2 23.3888 50.8695 15.943
528 2 27.2493 50.7903 15.9837
529 2 31.1292 50.8782 0.0632869
530 2 35.2824 50.895 0.203277
531 2 39.0708 50.8935 15.9331
532 2 42.8765 50.8668 15.9417
533 2 46.821 50.6494 0.170753
534 2 50.8892 50.9347 0.0785642
535 2 55.1206 50.918 0.431887
536 2 59.1865 51.0087 16.1056
537 2 63.1763 50.8958 15.8573
538 2 67.1613 51.0734 0.20466
539 2 71.1989 51.2839 0.189264
540 2 75.2033 51.2531 0.26358
541 2 79.0659 51.2473 0.342241
542 2 83.117 51.3629 0.308654
543 2 87.2633 51.3276 0.194096
544 2 91.1994 51.5346 0.0700479
545 2 95.1943 51.178 0.120106
546 2 99.384 51.554 0.334813
547 2 103.078 51.5078 15.8928
548 2 107.334 51.4846 0.149121
549 2 111.229 51.5578 0.119528
550 2 115.336 51.64 15.8576
551 2 119.244 51.6906 15.9904
552 2 123.061 51.4277 16.0408
553 2 127.018 51.4601 15.8618
554 2 130.934 51.457 0.172974
555 2 134.746 51.298 0.378862
556 2 138.736 51.336 0.145165
557 2 142.609 51.2141 0.124368
558 2 146.596 51.1469 15.7182
559 2 150.52 50.9299 0.16713
560 2 154.303 51.1328 0.219092
561 2 158.568 55.1827 0.151858
562 2 4.00796 55.132 0.255153
563 2 7.75682 55.0037 0.246433
564 2 11.8575 55.05 0.289676
565 2 15.718 54.8612 0.187025
566 2 19.5719 54.9386 16.0881
567 2 23.3713 54.8696 16.0634
568 2 27.4895 54.9939 16.0732
569 2 31.2914 54.7991 0.26798
570 2 35.1623 54.8119 0.374116
571 2 39.053 54.6487 16.0693
572 2 43.1243 54.6089 15.9296
573 2 47.1384 54.5689 0.21279
574 2 51.0102 55.0071 15.9883
575 2 55.0203 54.9587 15.829
576 2 59.1006 54.9032 16.1142
577 2 63.0447 55.1043 15.8123
578 2 67.1363 54.9706 0.186798
579 2 70.9535 55.1547 0.193218
580 2 75.2068 55.0821 15.7622
581 2 79.3198 55.2089 0.0641756
582 2 83.245 55.2948 0.233371
583 2 87.1141 55.1899 0.289163
584 2 91.2366 55.2845 15.8442
585 2 95.1957 55.1825 0.298852
586 2 99.0988 55.3602 16.0084
587 2 103.216 55.2868 15.8494
588 2 107.248 55.3867 0.119345
589 2 111.144 55.4911 15.9223
590 2 115.261 55.3683 15.9084
591 2 119.31 55.4885 15.668
592 2 123.178 55.4219 0.11759
593 2 127.227 55.4797 15.8006
594 2 131.077 55.3858 15.8763
595 2 134.782 55.3286 0.0421946
596 2 138.725 55.2999 15.8481
597 2 142.526 55.2584 0.232621
598 2 146.679 55.1552 0.306408
599 2 150.506 55.1973 0.220528
600 2 154.364 55.1378 15.8761
601 2 158.511 59.2047 0.148595
602 2 4.24513 59.2642 15.969
603 2 7.88976 59.0739 15.9836
604 2 11.7514 59.0081 0.242166
605 2 15.6225 58.9331 15.9767
606 2 19.6048 58.9382 0.243757
607 2 23.5543 58.6354 0.219259
608 2 27.5331 58.8494 0.195613
609 2 31.3862 59.0264 15.7941
610 2 35.1999 58.7609 15.7887
611 2 39.1887 58.7532 15.8168
612 2 43.0657 58.6854 16.0715
613 2 47.0871 58.7294 16.1123
614 2 50.9799 58.8086 16.0571
615 2 54.9844 58.7612 16.0264
616 2 59.272 58.8709 0.385657
617 2 63.0954 58.9613 16.0474
618 2 67.1324 58.9928 0.150557
619 2 70.9833 58.9143 16.0753
620 2 74.8805 58.9327 0.0766773
621 2 78.9216 59.0983 0.107686
622 2 83.1099 59.2824 0.191536
623 2 87.195 59.1379 15.9982
624 2 91.2293 59.1327 15.8958
625 2 95.1608 59.2844 0.0315456
626 2 99.2036 59.2755 0.136182
627 2 103.114 59.2948 15.8497
628 2 107.148 59.3647 0.143793
629 2 111.286 59.3464 15.8913
630 2 115.01 59.3716 15.8736
631 2 119.155 59.5269 15.64
632 2 123.205 59.5344 -0.00058432
633 2 127.055 59.4074 15.8599
634 2 131.046 59.4108 0.284734
635 2 134.975 59.2824 15.7962
636 2 138.765 59.2555 0.097195
637 2 142.8 59.2808 0.320285
638 2 146.56 59.1238 0.043327
639 2 150.602 59.1637 15.7621
640 2 154.469 59.1848 0.111611
641 2 0.187419 63.1997 0.0656207
642 2 4.09798 63.2009 0.462593
643 2 7.90291 62.8957 15.9908
644 2 12.0164 63.0163 15.9634
645 2 15.9008 63.1586 15.9788
646 2 19.6648 63.0382 0.220018
647 2 23.6252 62.9649 -0.122505
648 2 27.5257 63.0517 0.167901
649 2 31.3967 63.0213 0.146354
650 2 35.2996 62.7318 0.133959
651 2 39.2028 62.8582 15.8218
652 2 43.2367 62.6896 0.373325
653 2 47.1471 62.5248 16.0187
654 2 51.0357 62.7079 16.1647
655 2 54.8454 62.7806 0.316861
656 2 58.8381 62.838 16.2019
657 2 62.8946 62.9952 0.419852
658 2 67.2348 62.7257 15.9824
659 2 71.0101 62.839 0.266193
660 2 74.9567 62.9388 0.224836
661 2 78.959 62.9027 0.158838
662 2 83.0764 63.0666 0.0925275
663 2 87.0589 63.0514 15.9686
664 2 91.0181 63.2359 15.966
665 2 95.0706 63.2636 -0.0324949
666 2 99.0163 63.1225 0.00694983
667 2 103.15 63.181 15.7435
668 2 107.321 63.1705 15.9753
669 2 111.114 63.3624 15.9954
670 2 115.222 63.2017 -0.0464476
671 2 119.254 63.4896 15.7538
672 2 123.274 63.4603 0.234322
673 2 127.187 63.3715 15.7857
674 2 131.11 63.6219 0.321039
675 2 135.143 63.3272 15.7908
676 2 138.977 63.301 15.9378
677 2 142.755 63.3858 16.0205
678 2 146.77 63.1038 0.245886
679 2 150.673 63.1041 15.9674
680 2 154.478 63.0784 0.178074
681 2 0.312135 67.1132 -0.0391581
682 2 4.14608 67.0427 0.0715993
683 2 7.89855 67.01 15.8566
684 2 11.9279 67.1206 15.7087
685 2 15.9794 66.835 0.19053
686 2 19.883 67.1315 0.0200093
687 2 23.7162 66.9557 0.0738855
688 2 27.4203 67.0121 0.0943759
689 2 31.2815 66.8227 0.289981
690 2 35.2914 66.9749 0.287875
691 2 39.2048 66.6666 15.8832
692 2 43.2013 66.6846 0.131825
693 2 47.2531 66.7167 15.9114
694 2 51.0611 66.5502 15.9737
695 2 54.9455 66.6461 15.862
696 2 58.8041 66.7005 16.0492
697 2 62.9208 66.6312 15.9938
698 2 66.7758 66.8018 16.0783
699 2 70.9232 66.819 0.242044
700 2 74.9754 66.9528 15.8861
701 2 79.0842 66.9091 15.7676
702 2 83.0912 67.0103 0.168664
703 2 87.1462 67.0107 15.9996
704 2 91.0674 67.142 16.0945
705 2 95.069 67.1107 0.309982
706 2 99.079 66.9934 0.215963
707 2 103.194 67.0317 0.239432
708 2 107.301 67.0954 16.0347
709 2 111.132 67.2237 16.102
710 2 115.209 67.1327 15.9095
711 2 119.134 67.363 -0.0357237
712 2 123.319 67.4411 0.210124
713 2 127.263 67.5383 0.246454
714 2 131.281 67.4551 15.9822
715 2 135.115 67.2348 0.334508
716 2 138.98 67.3592 0.153473
717 2 142.863 67.4658 16.0854
718 2 146.905 67.2223 15.9743
719 2 150.787 67.2134 15.8555
720 2 154.653 67.2365 0.195167
721 2 0.275575 71.0286 0.155749
722 2 4.06287 71.1647 15.7995
723 2 8.34878 71.1932 0.384803
724 2 12.0934 71.1711 15.8993
725 2 15.7819 71.0309 0.235673
726 2 19.7277 71.0626 0.183301
727 2 23.7258 70.7922 0.22459
728 2 27.3985 70.8351 15.8212
729 2 31.2814 70.7631 0.257263
730 2 35.5642 70.8104 0.159418
731 2 39.3579 70.7211 15.919
732 2 43.2872 70.7764 0.377664
733 2 47.0632 70.7096 15.8087
734 2 51.1188 70.7068 15.9554
735 2 55.0222 70.4375 0.26155
736 2 58.9082 70.6412 0.361391
737 2 62.8419 70.7172 0.291226
738 2 66.8345 70.6629 15.7868
739 2 71.1293 70.8326 15.9055
740 2 74.8962 70.6316 15.9352
741 2 78.7753 70.8867 -0.00256211
742 2 82.9994 70.8235 0.0745115
743 2 86.8907 70.9567 15.9531
744 2 90.9796 70.8261 16.014
745 2 95.0305 71.0742 16.0101
746 2 99.2033 70.7155 15.772
747 2 103.061 70.7779 16.0153
748 2 107.039 71.1453 15.868
749 2 111.021 71.2921 16.0355
750 2 115.142 71.2278 0.338069
751 2 119.024 71.1496 15.7291
752 2 123.235 71.0736 0.121679
753 2 127.069 71.4291 16.03
754 2 131.114 71.3144 16.0767
755 2 135.105 71.2146 16.0973
756 2 138.863 71.3089 15.8889
757 2 142.762 71.2253 0.316487
758 2 146.735 71.5011 0.443042
759 2 150.815 71.1994 0.232453
760 2 154.692 71.098 15.8936
761 2 0.106579 75.1882 0.185893
762 2 4.08528 75.1381 15.7881
763 2 7.98119 75.1834 16.0389
764 2 12.1917 75.2694 16.0427
765 2 16.0278 75.0122 16.0839
766 2 19.8126 74.9668 15.9501
767 2 23.7794 74.9 15.8461
768 2 27.6673 74.9281 16.0384
769 2 31.5145 74.9181 0.253093
770 2 35.3548 74.7353 15.9769
771 2 39.1985 74.8183 15.7211
772 2 43.3563 74.6647 0.234975
773 2 47.0684 74.7381 15.9934
774 2 51.1732 74.5743 0.158252
775 2 55.3038 74.6568 15.9344
776 2 59.0685 74.4975 15.9896
777 2 62.9152 74.4603 16.0103
778 2 66.862 74.5741 0.220566
779 2 70.9327 74.7201 0.214374
780 2 74.9796 74.9472 0.122864
781 2 78.9329 74.7406 0.20287
782 2 83.0303 74.7343 0.0551
783 2 87.079 74.7456 0.26358
784 2 90.92 74.7217 15.8419
785 2 95.0779 74.8726 15.8891
786 2 98.7393 74.6725 0.199291
787 2 102.869 74.8224 15.8928
788 2 107.085 74.8393 15.9958
789 2 111.057 74.97 15.9512
790 2 115.071 75.0732 15.8439
791 2 119.101 75.1405 0.190309
792 2 122.994 75.0576 15.869
793 2 126.869 75.338 15.879
794 2 131.24 75.3287 0.194447
795 2 135.105 75.377 16.0039
796 2 139.043 75.3411 15.9502
797 2 142.987 75.4348 16.0395
798 2 146.877 75.3341 15.8045
799 2 150.725 75.2573 0.310937
800 2 154.542 75.2183 0.248554
801 2 0.408866 79.2801 0.10732
802 2 4.23688 79.4204 16.0108
803 2 8.17031 79.273 0.196845
804 2 12.0742 79.0691 0.161745
805 2 15.8817 78.963 15.9029
806 2 19.7635 78.9952 15.9389
807 2 23.6851 78.9969 0.33067
808 2 27.7202 78.8222 0.339271
809 2 31.6872 78.8744 0.38308
810 2 35.6565 78.9728 0.298739
811 2 39.609 78.801 15.8999
812 2 43.4118 78.7325 15.9938
813 2 47.2735 78.8104 15.961
814 2 51.0664 78.679 0.255553
815 2 55.2145 78.5277 0.215924
816 2 59.1735 78.4448 15.9558
817 2 62.9199 78.3966 16.0639
818 2 66.9558 78.4685 0.0960686
819 2 70.8434 78.5538 15.9033
820 2 74.9463 78.6272 0.247091
821 2 78.9367 78.6687 15.8313
822 2 82.8731 78.6412 15.8658
823 2 86.8081 78.6682 0.126618
824 2 90.7672 78.752 0.113675
825 2 95.0166 78.6447 0.154727
826 2 98.989 78.7657 15.7937
827 2 102.979 78.7273 16.1
828 2 107.023 78.8049 0.0219137
829 2 111.118 78.872 0.146285
830 2 115.078 79.0445 0.085858
831 2 119.028 79.0438 0.310139
832 2 122.982 78.864 16.0014
833 2 127.117 79.2309 0.156049
834 2 131.113 79.2738 15.9459
835 2 135.042 79.3772 0.150793
836 2 138.907 79.3039 15.6395
837 2 142.964 79.1766 15.9114
838 2 147.013 79.263 16.0535
839 2 150.832 79.2737 15.7607
840 2 154.501 79.1644 0.0192402
841 2 0.467505 83.4578 15.74
842 2 4.25669 83.1665 15.9572
843 2 8.01445 83.2434 0.238318
844 2 12.1133 83.013 15.832
845 2 15.8977 83.2082 15.8751
846 2 19.873 82.9951 0.26513
847 2 23.9963 83.0073 15.8695
848 2 27.7762 82.8125 0.132348
849 2 31.5669 83.015 15.9415
850 2 35.4464 83.0151 0.454504
851 2 39.5216 82.8458 0.332875
852 2 43.4666 82.9807 15.971
853 2 47.2275 82.7688 0.204115
854 2 51.3194 82.6568 0.18998
855 2 55.0455 82.5908 0.241349
856 2 58.9009 82.7176 16.0318
857 2 62.7821 82.5472 16.037
858 2 66.6573 82.425 15.8298
859 2 70.6696 82.4819 15.8297
860 2 74.8319 82.4713 15.7605
861 2 78.9465 82.678 15.7759
862 2 82.9649 82.4858 0.139565
863 2 86.7251 82.4999 0.15995
864 2 90.8375 82.5829 15.7764
865 2 94.7552 82.6323 0.431035
866 2 98.8842 82.6256 15.9501
867 2 102.659 82.7798 0.0769869
868 2 106.957 82.6092 15.6309
869 2 110.864 82.7127 15.9562
870 2 115.031 82.8176 16.0281
871 2 119.031 82.8094 15.9204
872 2 122.856 83.0211 15.826
873 2 126.98 82.9966 15.8246
874 2 130.921 83.0363 15.8293
875 2 134.943 83.083 0.219543
876 2 139.026 83.2616 15.876
877 2 143.002 83.2137 0.206578
878 2 146.854 83.1092 15.7877
879 2 150.882 83.171 0.0528502
880 2 154.831 83.198 0.0220169
881 2 0.369373 87.2342 15.765
882 2 4.41036 87.3474 0.228289
883 2 8.26511 87.2626 15.9875
884 2 12.1175 87.1909 15.8825
885 2 15.8982 87.0278 15.9002
886 2 19.9914 86.825 15.7912
887 2 23.9664 86.9307 15.842
888 2 27.7798 86.9772 0.163798
889 2 31.53 86.891 15.8567
890 2 35.6138 86.8412 0.384295
891 2 39.5921 86.7733 15.9208
892 2 43.4777 86.7992 15.996
893 2 47.3691 86.6913 15.851
894 2 51.3211 86.4843 15.8692
895 2 55.4007 86.6704 15.7233
896 2 59.0796 86.5772 0.151835
897 2 62.9111 86.3763 0.154357
898 2 66.8636 86.4442 15.9256
899 2 70.8104 86.489 0.25855
900 2 74.8116 86.5118 15.9211
901 2 78.8188 86.6224 -0.0621601
902 2 82.7669 86.3738 -0.0734729
903 2 86.8715 86.489 15.9197
904 2 90.5444 86.5627 16.068
905 2 94.9471 86.5734 16.1074
906 2 98.8128 86.5202 15.8747
907 2 102.816 86.5691 0.245232
908 2 106.728 86.5755 0.250917
909 2 110.833 86.6559 15.8778
910 2 114.898 86.6917 0.141927
911 2 118.946 86.7823 0.0402559
912 2 122.971 86.9624 0.122222
913 2 127.059 87.0321 15.8493
914 2 130.869 87.2274 15.9488
915 2 134.847 86.9986 16.0129
916 2 138.793 87.0725 16.009
917 2 142.978 87.0964 16.1255
918 2 146.991 87.066 0.197277
919 2 150.683 87.3396 15.9449
920 2 154.769 87.3059 15.9231
921 2 0.538087 91.4005 0.0768267
922 2 4.38484 91.1468 0.27158
923 2 8.25599 91.2313 15.8859
924 2 11.9792 91.3758 15.8961
925 2 16.0374 90.9982 0.244509
926 2 19.9553 90.9452 0.334758
927 2 23.9325 91.0944 15.9676
928 2 28.0179 91.1995 15.8257
929 2 31.8539 90.87 15.943
930 2 35.8012 90.9007 0.270188
931 2 39.7641 90.7737 16.1651
932 2 43.5249 90.7112 15.9648
933 2 47.5633 90.832 0.2654
934 2 51.1388 90.5856 0.191526
935 2 55.2427 90.6115 0.147649
936 2 59.0659 90.5946 -0.0385099
937 2 62.9851 90.4748 0.145992
938 2 66.9112 90.4544 15.8141
939 2 70.6321 90.4243 15.8189
940 2 74.8805 90.4593 0.213422
941 2 78.6518 90.4103 0.12395
942 2 82.7144 90.2513 0.0598035
943 2 86.8357 90.4286 0.112442
944 2 90.6608 90.561 0.136513
945 2 94.6141 90.367 15.9952
946 2 98.7274 90.2648 16.0039
947 2 102.808 90.558 0.221076
948 2 106.882 90.5668 15.8589
949 2 110.888 90.6581 15.7981
950 2 115.007 90.6087 0.213597
951 2 118.72 90.8733 0.361687
952 2 122.701 90.7455 15.8523
953 2 126.782 90.8857 0.253022
954 2 130.89 91.0447 0.16018
955 2 135.019 90.8246 15.955
956 2 138.931 90.9483 15.8944
957 2 142.841 91.2475 16.0113
958 2 146.872 90.9366 16.011
959 2 150.852 91.214 16.0537
960 2 154.789 91.4123 16.0468
961 2 0.334615 95.2778 0.192716
962 2 4.46623 95.1376 15.9012
963 2 8.36351 95.2488 15.8923
964 2 12.3926 95.25 16.0704
965 2 16.1967 94.9108 15.8416
966 2 20.0227 95.0815 15.9145
967 2 23.8653 94.9599 16.1932
968 2 27.8091 95.0485 16.0328
969 2 31.6846 94.8818 16.1333
970 2 35.7619 95.0444 16.0604
971 2 39.6724 94.7975 15.9682
972 2 43.4924 94.8475 16.0021
973 2 47.4521 94.8736 0.125799
974 2 51.3906 94.7582 15.836
975 2 55.1731 94.7519 0.245245
976 2 59.2307 94.7795 15.9322
977 2 62.9981 94.5013 0.145188
978 2 66.8338 94.4843 -0.0242554
979 2 70.7424 94.2729 0.194857
980 2 74.7928 94.3013 0.149917
981 2 78.7218 94.1388 15.7222
982 2 82.7773 94.1947 -0.0176668
983 2 86.6866 94.4614 -0.0850409
984 2 90.9142 94.4413 0.0700835