ITEM: TIMESTEP
20600
ITEM: NUMBER OF ATOMS
32000
ITEM: BOX BOUNDS xy xz yz pp pp pp
0.0000000000000000e+00 1.5831999999999999e+02 0.0000000000000000e+00
0.0000000000000000e+00 1.5831999999999999e+02 0.0000000000000000e+00
1.6249123092485895e-01 1.5935220769074988e+01 0.0000000000000000e+00
ITEM: ATOMS id type x y z
1 2 158.166 157.928 15.913
2 2 3.72751 157.816 15.9389
3 2 7.65481 157.78 0.352719
4 2 11.714 158.162 0.264303
5 2 15.8661 158.022 0.160699
6 2 19.6004 157.908 15.8962
7 2 23.7056 158.109 15.8906
8 2 27.6108 158.21 15.9252
9 2 31.7575 158.189 0.0271502
10 2 35.6743 158.345 15.9002
11 2 39.6991 -0.224057 15.7843
12 2 43.6696 -0.171462 0.210073
13 2 47.7968 -0.0166214 15.7882
14 2 51.8398 0.0947597 0.175483
15 2 55.5818 158.315 0.360777
16 2 59.7187 158.435 16.029
17 2 63.6485 0.181018 15.9999
18 2 67.6177 -0.0557966 15.9327
19 2 71.3613 0.0995851 15.9221
20 2 75.4347 158.415 15.8952
21 2 79.474 0.06183 15.7815
22 2 83.3406 158.216 15.9077
23 2 87.1633 158.209 16.0474
24 2 91.033 158.162 0.146542
25 2 94.9465 157.932 15.8746
26 2 98.9522 158.036 15.6756
27 2 102.698 157.919 16.0197
28 2 106.834 158.054 15.8715
29 2 110.624 157.913 0.0778001
30 2 114.551 157.848 0.0841187
31 2 118.429 157.789 15.6528
32 2 122.251 157.78 0.166561
33 2 126.205 157.657 0.150618
34 2 130.307 157.789 0.115836
35 2 134.181 157.677 15.8176
36 2 138.008 157.546 15.8692
37 2 141.922 157.605 16.0046
38 2 145.823 157.87 15.9067
39 2 149.938 157.614 0.235683
40 2 154.119 157.838 0.210677
41 2 157.994 3.2756 15.9205
42 2 3.64142 3.43631 15.9331
43 2 7.66522 3.62448 0.272008
44 2 11.5799 3.62419 16.0543
45 2 15.6645 3.69372 16.0429
46 2 19.7429 3.69868 15.8321
47 2 23.5768 3.63917 0.00396748
48 2 27.637 3.64208 0.167688
49 2 31.5978 3.88019 0.116573
50 2 35.6616 3.80404 0.394175
51 2 39.8108 3.9092 0.0743521
52 2 43.7877 3.85836 15.9066
53 2 47.7386 3.78645 15.8056
54 2 51.6574 4.03959 16.1542
55 2 55.7936 4.09021 0.0892446
56 2 59.8587 4.08191 16.0319
57 2 63.7738 4.19828 15.9012
58 2 67.5888 4.21707 16.0481
59 2 71.5624 4.10609 15.7793
60 2 75.4613 4.17929 16.3463
61 2 79.3616 3.89984 15.9711
62 2 83.2327 3.84203 15.7966
63 2 87.2113 3.81745 15.8745
64 2 91.1879 3.73844 0.259744
65 2 94.9036 3.72361 15.9244
66 2 98.7791 3.65298 0.0645726
67 2 102.974 3.65385 15.7615
68 2 106.844 3.64218 15.8317
69 2 110.771 3.62635 0.382353
70 2 114.569 3.54562 0.174762
71 2 118.591 3.22548 0.0302208
72 2 122.485 3.37476 0.24872
73 2 126.475 3.48785 0.210126
74 2 130.214 3.46461 0.203176
75 2 134.125 3.5641 15.8246
76 2 137.902 3.41016 -0.116056
77 2 141.914 3.38335 0.12613
78 2 145.854 3.3031 0.180081
79 2 149.917 3.20515 15.9648
80 2 153.745 3.41952 15.7478
81 2 158.054 7.35924 16.088
82 2 3.5717 7.49046 16.1127
83 2 7.63127 7.34511 15.9088
84 2 11.439 7.3921 0.166026
85 2 15.5818 7.52029 16.0002
86 2 19.7494 7.53609 15.9585
87 2 23.8012 7.75488 0.238612
88 2 27.5251 7.56428 15.9815
89 2 31.5982 7.68473 15.9138
90 2 35.6378 7.56172 15.9863
91 2 39.7664 7.84967 -0.00756201
92 2 43.7427 7.84183 0.120323
93 2 47.7073 7.62507 15.9765
94 2 51.6468 7.87952 0.362206
95 2 55.5504 7.70831 15.884
96 2 59.6967 7.82442 0.169246
97 2 63.7972 7.90348 15.8689
98 2 67.7192 8.15847 16.0603
99 2 71.4793 7.95403 15.9946
100 2 75.4885 8.04767 16.1961
101 2 79.5887 7.92291 0.317541
102 2 83.292 7.92891 16.1339
103 2 87.2328 7.64911 15.8188
104 2 91.2092 7.68862 15.8164
105 2 95.0505 7.65029 16.0057
106 2 99.0969 7.88352 0.11272
107 2 102.918 7.68066 0.0515935
108 2 106.718 7.7427 15.7977
109 2 110.792 7.76833 0.0781966
110 2 114.612 7.62287 15.8538
111 2 118.602 7.44113 15.8753
112 2 122.354 7.22419 15.9061
113 2 126.435 7.29156 15.8609
114 2 130.337 7.22406 -0.124617
115 2 133.94 7.31045 0.289957
116 2 138.086 7.29162 15.7129
117 2 142.14 7.25631 15.8537
118 2 146.123 7.29588 0.333248
119 2 149.858 7.15296 0.160162
120 2 153.667 7.07376 15.9826
121 2 157.99 11.2416 15.9896
122 2 3.67502 11.4357 15.9226
123 2 7.55616 11.3536 16.0428
124 2 11.588 11.2148 0.427603
125 2 15.6777 11.3529 15.9477
126 2 19.576 11.4442 15.7213
127 2 23.431 11.5933 16.0413
128 2 27.598 11.6056 15.7846
129 2 31.5936 11.4558 15.9319
130 2 35.6375 11.5094 15.9239
131 2 39.4263 11.5415 15.8388
132 2 43.7462 11.6276 0.200133
133 2 47.5622 11.6534 0.206092
134 2 51.5833 11.7436 16.2292
135 2 55.6164 12.0161 0.35843
136 2 59.6095 11.7249 16.1144
137 2 63.5702 11.8384 0.0587857
138 2 67.6504 11.9435 16.0137
139 2 71.7279 12.1311 15.9428
140 2 75.5599 12.0779 16.1522
141 2 79.5348 11.7896 16.1925
142 2 83.315 11.8622 15.9203
143 2 87.3468 12.1344 0.266655
144 2 91.0749 11.866 0.112588
145 2 94.8986 11.6779 15.8707
146 2 99.1899 11.6322 15.83
147 2 102.998 11.6991 0.0830377
148 2 106.907 11.6701 16.0034
149 2 110.832 11.4289 -0.0739138
150 2 114.673 11.363 15.7602
151 2 118.671 11.4264 0.193196
152 2 122.596 11.2371 0.153425
153 2 126.352 11.3626 15.8143
154 2 130.248 11.1497 15.8679
155 2 134.176 11.3624 0.321544
156 2 138.209 11.1724 -0.00246294
157 2 142.038 11.1825 0.113836
158 2 145.999 11.2728 -0.138871
159 2 149.886 11.2758 0.153056
160 2 153.74 11.1095 0.198456
161 2 157.847 15.1327 16.0172
162 2 3.82326 15.3191 15.858
163 2 7.64701 15.1058 15.9125
164 2 11.5054 15.2706 16.1587
165 2 15.5662 15.4991 16.0166
166 2 19.5807 15.2816 0.143754
167 2 23.4747 15.3874 0.154864
168 2 27.6616 15.5642 16.0121
169 2 31.744 15.5471 0.265687
170 2 35.6704 15.4217 16.0914
171 2 39.5024 15.5769 0.208909
172 2 43.6599 15.6769 0.2683
173 2 47.7478 15.8737 0.207636
174 2 51.4497 15.7536 0.116805
175 2 55.5944 15.883 15.8557
176 2 59.7503 15.8677 0.168535
177 2 63.5361 15.9146 15.9636
178 2 67.5669 15.9257 16.033
179 2 71.623 15.9678 0.2237
180 2 75.6053 15.8594 0.255931
181 2 79.555 15.9205 16.1972
182 2 83.3339 15.7959 0.130244
183 2 87.2601 15.9238 16.0416
184 2 91.1306 15.8009 0.111324
185 2 95.2968 15.7297 15.637
186 2 99.137 15.7822 15.7765
187 2 103.096 15.5285 15.7909
188 2 107.099 15.4733 15.8732
189 2 110.884 15.5687 15.8596
190 2 114.726 15.6331 15.8762
191 2 118.559 15.3836 -0.0741904
192 2 122.667 15.3934 16.0578
193 2 126.679 15.3831 15.7564
194 2 130.345 15.3812 0.0997962
195 2 134.455 15.2124 0.230942
196 2 138.251 15.2182 0.282157
197 2 142.077 15.279 15.9769
198 2 146.065 15.2425 0.0153411
199 2 149.909 15.2845 -0.00937813
200 2 153.914 15.1697 16.0592
201 2 157.931 19.237 15.8379
202 2 3.5259 19.1278 -0.00610172
203 2 7.58743 19.3571 0.233927
204 2 11.5757 19.1371 16.0183
205 2 15.5766 19.3121 15.8074
206 2 19.518 19.4704 15.8726
207 2 23.522 19.2321 15.9415
208 2 27.6316 19.4953 16.0628
209 2 31.6171 19.3986 15.9176
210 2 35.6288 19.4468 15.8897
211 2 39.694 19.7208 0.241183
212 2 43.5612 19.432 16.0431
213 2 47.5298 19.6065 15.9878
214 2 51.6882 19.6178 0.1894
215 2 55.5462 19.7397 16.111
216 2 59.5283 19.6347 15.9588
217 2 63.456 19.721 15.899
218 2 67.6144 19.95 15.9092
219 2 71.7057 19.7129 0.180358
220 2 75.7306 19.8875 0.113223
221 2 79.6165 19.906 0.0896237
222 2 83.523 19.9772 16.0482
223 2 87.1815 20.0791 0.250351
224 2 91.2087 19.8835 0.0113868
225 2 95.2368 19.7631 15.9123
226 2 99.0762 19.7961 15.8526
227 2 103.03 19.758 16.0341
228 2 106.824 19.7183 15.8587
229 2 110.933 19.4053 0.0578292
230 2 114.789 19.5812 16.0326
231 2 118.624 19.4171 16.0265
232 2 122.536 19.5071 15.956
233 2 126.36 19.4205 15.8334
234 2 130.277 19.3914 15.9497
235 2 134.248 19.3175 0.161713
236 2 138.098 19.3317 15.8646
237 2 141.978 19.2734 15.8735
238 2 146.121 19.1178 0.285949
239 2 149.8 19.0098 15.7854
240 2 153.677 19.2186 0.0869704
241 2 157.982 23.2813 15.9738
242 2 3.51186 23.1588 15.8179
243 2 7.40921 23.0796 0.145608
244 2 11.4735 23.0503 0.0693692
245 2 15.47 23.2095 16.0862
246 2 19.357 23.3472 15.7059
247 2 23.2962 23.1542 15.8379
248 2 27.4693 23.1804 15.9743
249 2 31.5423 23.4191 0.187853
250 2 35.5406 23.2886 16.0211
251 2 39.5275 23.4924 0.295802
252 2 43.5467 23.3375 16.1378
253 2 47.5146 23.2981 0.0747777
254 2 51.3772 23.5495 0.180069
255 2 55.4985 23.5934 0.195128
256 2 59.569 23.6019 15.8748
257 2 63.5248 23.742 -0.00131994
258 2 67.539 23.6667 15.8404
259 2 71.6575 23.8001 15.8199
260 2 75.5107 23.6265 -0.0615776
261 2 79.6159 23.8955 16.0972
262 2 83.7455 23.9397 0.122483
263 2 87.6827 24.0117 15.9346
264 2 91.4666 23.7703 15.8462
265 2 95.4717 23.8301 16.0594
266 2 99.1589 23.6926 -0.113088
267 2 103.106 23.8116 15.8591
268 2 107.057 23.5414 16.0014
269 2 110.883 23.578 0.135054
270 2 114.587 23.7703 15.8447
271 2 118.659 23.3915 16.0692
272 2 122.654 23.4436 0.413253
273 2 126.329 23.6516 15.8275
274 2 130.326 23.5373 15.8048
275 2 134.218 23.318 15.8228
276 2 138.125 23.2937 15.9061
277 2 142.343 23.346 15.8339
278 2 145.993 23.3527 0.0708417
279 2 150.015 23.0368 0.189525
280 2 154.042 23.2467 0.067712
281 2 157.83 27.2093 0.0409082
282 2 3.51389 27.1221 0.181146
283 2 7.52191 27.1266 0.317486
284 2 11.475 27.1257 16.016
285 2 15.5132 27.2323 15.9541
286 2 19.4475 27.1922 0.35524
287 2 23.4091 27.1229 15.9272
288 2 27.4459 27.2202 15.9341
289 2 31.4248 27.1409 0.115238
290 2 35.4745 27.3427 0.154094
291 2 39.5341 27.256 0.250478
292 2 43.291 27.3261 0.322473
293 2 47.4374 27.1368 0.0498763
294 2 51.4151 27.3754 15.913
295 2 55.439 27.3791 0.100265
296 2 59.2981 27.5995 15.9663
297 2 63.5878 27.624 15.9185
298 2 67.7045 27.2949 15.9948
299 2 71.4254 27.494 16.0334
300 2 75.5013 27.5388 0.291122
301 2 79.568 27.7845 -0.0439914
302 2 83.473 27.7138 15.9519
303 2 87.4662 27.9813 -0.0081713
304 2 91.5212 27.9769 0.0583135
305 2 95.2994 27.8329 0.178561
306 2 98.9895 27.7006 0.23189
307 2 103.036 27.6012 15.8695
308 2 106.891 27.6051 0.153379
309 2 111.108 27.4857 15.9699
310 2 114.803 27.6117 16.0756
311 2 118.712 27.5271 0.254144
312 2 122.611 27.4342 0.132044
313 2 126.532 27.368 15.901
314 2 130.537 27.4566 15.9193
315 2 134.377 27.3304 16.0146
316 2 138.345 27.2011 15.7321
317 2 142.144 27.3798 0.0626326
318 2 146.258 27.1649 0.0912558
319 2 150.15 27.2499 -0.0306708
320 2 153.887 27.2058 0.224762
321 2 157.996 31.2254 16.1044
322 2 3.33029 31.2813 15.8605
323 2 7.45828 31.0042 15.7896
324 2 11.3365 30.88 0.135414
325 2 15.521 31.1093 0.180639
326 2 19.1917 31.0358 15.7592
327 2 23.2335 31.0895 15.7689
328 2 27.2911 31.2503 0.120374
329 2 31.462 31.1753 16.0479
330 2 35.5065 31.2524 15.814
331 2 39.5514 31.2758 15.9006
332 2 43.3934 31.0224 0.284036
333 2 47.3946 31.2038 15.7602
334 2 51.3572 31.3958 -0.0178288
335 2 55.4108 31.5559 16.0022
336 2 59.5109 31.2013 0.118431
337 2 63.4633 31.6064 15.8276
338 2 67.3454 31.22 0.231336
339 2 71.2882 31.5077 0.293403
340 2 75.4398 31.4942 0.0359498
341 2 79.4525 31.588 15.7984
342 2 83.633 31.6863 0.120583
343 2 87.4864 31.725 15.7566
344 2 91.4668 31.82 15.6984
345 2 95.4921 31.8196 16.0563
346 2 99.4378 31.9566 -0.0263386
347 2 103.272 31.756 15.9588
348 2 107.202 31.6216 15.9667
349 2 111.02 31.4244 16.0193
350 2 114.959 31.6336 15.7929
351 2 118.723 31.5803 16.0043
352 2 122.594 31.3049 15.936
353 2 126.399 31.5006 15.8615
354 2 130.574 31.4098 16.0118
355 2 134.444 31.4778 15.8484
356 2 138.362 31.2578 16.0414
357 2 142.402 31.1978 0.128176
358 2 146.222 31.1138 15.8032
359 2 150.084 31.1525 0.242761
360 2 154.114 31.2476 0.126496
361 2 -0.215902 35.2854 0.135267
362 2 3.65585 35.1323 15.8644
363 2 7.53021 35.2539 15.8573
364 2 11.3152 35.0998 15.9338
365 2 15.3007 35.0165 0.322898
366 2 19.1682 35.0633 0.0431805
367 2 23.2845 34.9696 0.0786842
368 2 27.3044 35.0439 0.208517
369 2 31.331 35.0191 0.117534
370 2 35.3986 35.0402 0.196728
371 2 39.2784 34.9377 0.172416
372 2 43.3642 35.1168 15.7117
373 2 47.2685 35.1703 15.8528
374 2 51.3182 35.2237 15.9196
375 2 55.3576 35.1061 0.163757
376 2 59.3946 35.3459 0.262765
377 2 63.4002 35.2583 15.8579
378 2 67.3938 35.3627 0.106833
379 2 71.3684 35.2994 0.221139
380 2 75.4402 35.8212 15.7068
381 2 79.2678 35.6014 0.462716
382 2 83.4989 35.6107 15.8273
383 2 87.4657 35.6784 0.323014
384 2 91.2875 35.6721 0.393571
385 2 95.5668 35.6476 15.9316
386 2 99.3977 35.7585 0.243476
387 2 103.504 35.705 15.8054
388 2 107.297 35.6247 16.0001
389 2 111.207 35.4534 16.1458
390 2 114.839 35.8445 15.9441
391 2 118.811 35.4913 15.8163
392 2 122.655 35.5857 16.029
393 2 126.882 35.361 16.0232
394 2 130.739 35.5453 15.9223
395 2 134.679 35.4473 15.7644
396 2 138.389 35.3739 0.0824946
397 2 142.455 35.3048 0.209069
398 2 146.168 35.146 0.118869
399 2 150.009 35.2175 15.999
400 2 154.231 35.1365 0.176751
401 2 157.869 39.2458 0.149183
402 2 3.74171 39.0774 0.163442
403 2 7.60027 39.1766 0.0525022
404 2 11.6235 39.0437 15.9141
405 2 15.2957 39.1519 0.139206
406 2 19.3137 38.9237 15.9122
407 2 23.1831 38.9019 15.8659
408 2 27.1376 38.878 15.8279
409 2 31.1199 38.8467 0.00812472
410 2 35.3992 38.873 0.141429
411 2 39.169 38.7561 16.0133
412 2 43.3479 39.0359 0.165817
413 2 47.3536 39.0181 0.193043
414 2 51.3058 39.1638 16.1
415 2 55.2372 39.2751 0.0511266
416 2 59.3385 39.1583 0.217318
417 2 63.2406 39.304 0.128342
418 2 67.3797 39.3014 0.00512843
419 2 71.3468 39.4378 0.201749
420 2 75.3934 39.4401 -0.0435451
421 2 79.3823 39.5381 0.211392
422 2 83.4373 39.4096 15.6811
423 2 87.5125 39.5428 15.9161
424 2 91.3271 39.7482 15.9106
425 2 95.4268 39.6229 15.938
426 2 99.4279 39.5911 0.122568
427 2 103.35 39.6517 15.8849
428 2 107.192 39.6499 15.6095
429 2 111.114 39.6797 15.956
430 2 114.957 39.7764 15.8672
431 2 119.024 39.6865 15.8275
432 2 122.789 39.5002 15.8564
433 2 126.78 39.6069 0.186917
434 2 130.711 39.3605 15.876
435 2 134.736 39.3555 15.9952
436 2 138.539 39.3135 15.8607
437 2 142.619 39.4351 15.9043
438 2 146.295 39.1815 0.265389
439 2 150.206 39.1615 15.8843
440 2 154.189 39.2045 15.7202
441 2 158.349 43.2169 0.212146
442 2 3.65993 43.0698 15.9805
443 2 7.67861 43.1927 16.0037
444 2 11.3228 43.1068 0.257093
445 2 15.3854 43.0185 0.0306604
446 2 19.2843 42.9412 0.191467
447 2 23.1382 42.9754 15.7854
448 2 27.1366 42.5394 15.8096
449 2 31.4667 42.8935 0.23647
450 2 35.2939 42.6202 0.227736
451 2 39.3198 42.8887 0.269565
452 2 43.2894 42.8065 0.260258
453 2 47.3419 42.8628 15.9603
454 2 51.2161 43.193 15.8635
455 2 55.336 43.1688 0.145457
456 2 59.3747 43.2227 15.8823
457 2 63.1446 43.3401 0.215122
458 2 67.4216 43.2489 0.155249
459 2 71.2529 43.2633 0.27826
460 2 75.2497 43.4662 0.185237
461 2 79.2583 43.1651 0.200411
462 2 83.3121 43.4122 15.8172
463 2 87.3624 43.3036 15.9747
464 2 91.3585 43.5944 0.0250601
465 2 95.438 43.5699 -0.126768
466 2 99.4071 43.5206 15.8592
467 2 103.31 43.8086 15.8578
468 2 107.295 43.4921 15.7368
469 2 111.255 43.8352 15.9747
470 2 115.021 43.5308 15.8349
471 2 119.114 43.4987 15.8804
472 2 122.958 43.6108 15.6689
473 2 127.078 43.3018 0.151267
474 2 130.967 43.5715 0.00559432
475 2 134.788 43.5215 15.9737
476 2 138.544 43.4152 15.9031
477 2 142.438 43.2218 15.9623
478 2 146.365 43.3449 0.18892
479 2 150.144 43.3133 0.264685
480 2 154.096 43.3145 0.0358041
481 2 -0.167031 47.208 0.0496492
482 2 3.73091 47.2749 -0.0363533
483 2 7.80326 47.0311 0.134433
484 2 11.7346 47.1694 0.231688
485 2 15.6912 46.9206 0.00999299
486 2 19.2828 47.0016 0.0723433
487 2 23.4685 46.8228 0.102315
488 2 27.3281 46.7901 16.0024
489 2 31.1775 46.6515 0.298727
490 2 35.375 46.654 0.344995
491 2 39.1722 47.0552 15.9925
492 2 43.1515 46.787 15.8283
493 2 47.0113 46.9719 -0.00633256
494 2 51.1013 46.7954 15.846
495 2 55.2536 46.8744 16.2081
496 2 59.1123 47.1266 16.073
497 2 63.2549 47.1283 0.182179
498 2 67.194 47.1627 0.177706
499 2 71.2767 47.0871 15.9593
500 2 75.2128 47.3922 0.176024
501 2 79.2743 47.1956 15.9499
502 2 83.1426 47.2524 15.8122
503 2 87.2204 47.4822 -0.101493
504 2 91.202 47.4318 0.0628439
505 2 95.3223 47.3488 0.196163
506 2 99.3417 47.3833 0.349366
507 2 103.278 47.5763 -0.0404715
508 2 107.206 47.6622 15.7798
509 2 111.177 47.6572 15.928
510 2 115.41 47.7567 0.133071
511 2 119.405 47.5821 15.9497
512 2 123.231 47.6823 15.7951
513 2 126.818 47.4356 15.7454
514 2 130.856 47.4814 15.7946
515 2 134.826 47.4367 16.0925
516 2 138.834 47.474 15.7601
517 2 142.532 47.4696 15.8889
518 2 146.365 47.4083 0.235376
519 2 150.28 47.2893 0.220212
520 2 154.186 47.3457 16.0318
521 2 158.101 51.2831 0.127844
522 2 3.80102 51.2815 16.0132
523 2 7.86371 51.1767 15.9929
524 2 11.5894 50.9448 15.8931
525 2 15.5815 51.2019 -0.00225993
526 2 19.4317 50.8594 15.83
527 2 23.4707 50.9008 15.9473
528 2 27.2697 50.8825 16.0513
529 2 31.35 50.7023 0.21786
530 2 35.1897 50.5816 0.00034488
531 2 39.222 50.747 16.1888
532 2 43.222 50.6635 15.8728
533 2 47.0672 50.6629 0.14652
534 2 51.1809 50.638 0.370724
535 2 55.0754 50.8099 0.304769
536 2 59.1034 50.8805 16.1642
537 2 63.2026 50.9581 15.7423
538 2 67.2463 51.1387 0.105827
539 2 71.3367 50.9145 0.0675781
540 2 75.2056 51.1848 0.0192514
541 2 79.2341 51.2267 0.12657
542 2 83.1119 51.2239 0.329704
543 2 87.1705 51.2881 0.135559
544 2 91.2637 51.2091 -0.0674803
545 2 95.2412 51.519 0.318879
546 2 99.0156 51.4045 0.127233
547 2 103.296 51.4428 16.2048
548 2 107.236 51.5036 0.0491601
549 2 111.403 51.4455 0.0720698
550 2 115.368 51.5002 15.9857
551 2 119.191 51.4572 16.1391
552 2 123.241 51.5419 16.1074
553 2 126.985 51.6831 15.8854
554 2 131.105 51.4064 0.0900508
555 2 134.866 51.444 0.0965546
556 2 138.723 51.3903 0.0221644
557 2 142.616 51.3908 0.0678673
558 2 146.757 51.3032 15.9876
559 2 150.566 51.2974 0.0646986
560 2 154.239 51.3447 0.33179
561 2 158.191 55.4118 0.149327
562 2 3.96739 55.3213 0.0104923
563 2 7.93377 55.2179 0.110854
564 2 11.6951 54.9482 0.304938
565 2 15.7019 54.9935 0.21291
566 2 19.7216 54.8338 16.0063
567 2 23.4955 55.0123 16.2339
568 2 27.2623 54.7759 16.1644
569 2 31.2075 54.7935 0.0726953
570 2 35.1644 54.6222 0.207999
571 2 39.0446 54.8476 15.8664
572 2 42.9934 54.5838 15.8902
573 2 46.979 54.6817 0.166305
574 2 51.1114 54.8926 15.9239
575 2 55.0827 54.7744 16.0372
576 2 59.1414 54.9231 16.1836
577 2 63.0196 54.8977 15.754
578 2 67.2127 55.0584 -0.00331442
579 2 71.1363 54.9251 -0.0853569
580 2 75.1111 55.0017 15.8099
581 2 78.9739 55.0688 0.136027
582 2 83.188 55.2676 0.145576
583 2 87.1825 55.1404 0.129483
584 2 91.0043 55.1389 15.9421
585 2 95.2164 55.2736 0.22911
586 2 99.2504 55.2536 15.7766
587 2 103.219 55.3922 16.0579
588 2 107.235 55.4951 0.235325
589 2 111.308 55.294 15.9509
590 2 115.299 55.6271 15.7363
591 2 119.137 55.2709 15.9931
592 2 123.261 55.4917 0.258146
593 2 127.251 55.6699 15.9643
594 2 130.987 55.4109 16.0204
595 2 134.748 55.467 0.0104816
596 2 138.705 55.2896 15.8744
597 2 142.728 55.3013 0.103734
598 2 146.551 55.4657 0.149316
599 2 150.57 55.4165 0.216578
600 2 154.319 55.3778 16.0105
601 2 158.517 59.289 0.254218
602 2 4.15575 59.328 16.0712
603 2 7.93311 59.2415 16.2002
604 2 11.7626 59.2412 0.333486
605 2 15.764 59.0703 16.0439
606 2 19.4552 58.9714 0.31545
607 2 23.6213 58.9248 0.176513
608 2 27.5445 58.8312 0.0987888
609 2 31.3725 58.6943 15.921
610 2 35.2164 58.6718 15.7861
611 2 38.9439 58.5242 15.845
612 2 43.125 58.6109 16.1928
613 2 46.991 58.6324 16.0994
614 2 50.9153 58.7302 15.9957
615 2 55.1298 58.6263 15.9873
616 2 58.7677 58.8459 0.282021
617 2 62.9324 58.7718 15.7897
618 2 66.9981 58.9756 0.129395
619 2 71.0693 58.9808 15.9464
620 2 75.0655 58.9441 0.114226
621 2 79.2186 59.0437 0.0148146
622 2 83.2166 59.0462 0.281721
623 2 87.1559 59.0281 15.7884
624 2 90.9158 59.0593 15.8323
625 2 95.2312 59.0836 0.264464
626 2 99.0699 59.2712 0.2473
627 2 103.018 59.2775 15.6864
628 2 107.205 59.2694 0.0561366
629 2 111.099 59.3834 15.9425
630 2 115.183 59.5601 15.8187
631 2 119.36 59.4691 15.8507
632 2 123.166 59.477 0.225783
633 2 127.265 59.4373 16.0944
634 2 131.186 59.4624 0.243179
635 2 134.937 59.3524 15.891
636 2 138.74 59.6048 0.0231509
637 2 142.533 59.4182 0.0223358
638 2 146.687 59.342 0.175049
639 2 150.59 59.3395 15.8994
640 2 154.331 59.2676 -0.0814343
641 2 0.145189 63.2283 0.360116
642 2 4.11132 63.1726 0.145091
643 2 7.98851 63.2222 16.0625
644 2 12.0362 63.1248 16.1337
645 2 15.6851 63.2393 15.9316
646 2 19.8517 63.0277 0.207266
647 2 23.7361 62.9511 0.225803
648 2 27.479 62.8234 0.266772
649 2 31.4443 62.8352 0.210159
650 2 35.3562 62.6598 0.131657
651 2 39.1682 62.6321 15.9876
652 2 43.0358 62.7395 0.40381
653 2 47.2155 62.6196 16.0842
654 2 50.9111 62.5446 15.9368
655 2 54.8659 62.5421 0.216346
656 2 59.0283 62.7327 16.0099
657 2 63.0888 62.5368 0.160675
658 2 66.877 62.8675 16.0421
659 2 70.8608 62.7734 0.316269
660 2 75.1182 62.7476 0.186569
661 2 79.1209 63 0.067899
662 2 83.0735 63.0578 0.153118
663 2 86.9864 63.1345 16.0136
664 2 91.0558 62.9341 15.8859
665 2 95.1756 63.2152 0.103533
666 2 99.0935 63.2808 0.17916
667 2 103.135 63.11 15.9366
668 2 107.099 63.1869 15.9654
669 2 111.268 63.3321 15.9905
670 2 115.175 63.4855 0.071187
671 2 119.257 63.4576 15.8306
672 2 123.163 63.6724 -0.0196265
673 2 127.143 63.3642 16.0208
674 2 131.258 63.5538 0.262071
675 2 135.26 63.8276 15.9124
676 2 138.911 63.3389 15.7454
677 2 142.827 63.4956 15.9755
678 2 146.751 63.4641 0.0943915
679 2 150.648 63.2506 15.9308
680 2 154.459 63.3531 0.297494
681 2 0.224107 67.2203 0.120483
682 2 4.25347 67.0435 0.197237
683 2 8.1618 67.0312 16.052
684 2 12.2289 67.0933 16.0369
685 2 16.0167 67.1488 0.116519
686 2 19.7339 67.0417 0.332988
687 2 23.6938 66.8664 0.171762
688 2 27.6188 66.7836 0.0866251
689 2 31.5258 66.878 0.24961
690 2 35.296 66.8613 0.335958
691 2 39.1836 66.9168 15.9071
692 2 43.1099 66.8389 0.203244
693 2 47.1862 66.6741 15.9888
694 2 50.938 66.7304 15.7092
695 2 55.0169 66.5493 15.8703
696 2 58.8402 66.4608 16.0266
697 2 63.0103 66.6408 16.1442
698 2 66.8954 66.4558 16.0857
699 2 71.0507 66.655 0.221034
700 2 74.8615 66.5829 16.0498
701 2 78.8825 66.9375 15.8601
702 2 83.0947 66.9436 -0.0889242
703 2 87.044 66.9507 15.9727
704 2 90.8903 66.7853 15.9933
705 2 95.0915 66.997 0.451573
706 2 99.0307 67.1601 0.15627
707 2 103.022 66.8618 0.237617
708 2 106.997 67.1532 15.9619
709 2 111.107 67.3046 15.8982
710 2 115.125 67.1698 15.9491
711 2 119.067 67.3914 0.065347
712 2 122.99 67.3652 0.216784
713 2 127.122 67.43 0.101442
714 2 131.123 67.5702 15.8815
715 2 135.301 67.7939 0.189026
716 2 139.167 67.3681 0.000978284
717 2 142.79 67.3495 15.7715
718 2 146.97 67.706 15.8321
719 2 150.773 67.4393 16.0247
720 2 154.615 67.2333 0.0467478
721 2 0.348388 71.1947 0.00277025
722 2 4.23759 71.0926 15.9722
723 2 7.85343 71.1031 0.239498
724 2 11.8987 71.2063 15.8074
725 2 16.0859 71.2545 0.189903
726 2 19.9072 71.0779 0.160959
727 2 23.5532 71.0913 -0.0576941
728 2 27.418 70.8252 15.987
729 2 31.4516 70.8752 0.547745
730 2 35.1144 70.7053 0.154801
731 2 39.3771 70.7586 15.9359
732 2 43.1811 70.7624 0.364381
733 2 46.9397 70.6734 16.2534
734 2 50.9981 70.6448 15.9288
735 2 55.0089 70.4843 0.137994
736 2 58.925 70.4903 0.289952
737 2 62.8669 70.5639 0.155032
738 2 66.8505 70.3965 15.9784
739 2 71.0382 70.4304 16.0028
740 2 74.9592 70.7327 15.9296
741 2 79.0024 70.69 0.135783
742 2 83.1196 70.879 0.0321892
743 2 87.021 70.8944 16.1305
744 2 91.0166 70.9541 16.1453
745 2 95 70.7787 15.8507
746 2 98.9021 71.07 16.0649
747 2 103.156 70.9588 16.0905
748 2 106.988 71.0538 15.8759
749 2 111.179 71.099 15.9161
750 2 115.055 71.1594 0.119948
751 2 119.051 71.1954 15.947
752 2 123.037 71.2119 0.108178
753 2 127.177 71.3941 15.8758
754 2 131.094 71.456 15.8746
755 2 135.269 71.5189 15.9267
756 2 139.159 71.4421 15.8241
757 2 143.129 71.6675 0.118704
758 2 146.933 71.4753 -0.048939
759 2 150.763 71.4967 0.260877
760 2 154.853 71.4859 16.0816
761 2 0.255134 75.3056 0.181688
762 2 4.11133 75.2358 15.9277
763 2 8.18043 75.2795 16.2351
764 2 11.9977 75.0388 15.9914
765 2 15.878 75.029 15.9179
766 2 19.7613 74.9531 15.774
767 2 23.5805 74.9793 15.8459
768 2 27.4484 74.9832 15.9053
769 2 31.4639 74.7872 0.260512
770 2 35.4524 74.8326 15.9934
771 2 39.4408 74.7047 16.066
772 2 43.1011 74.687 0.258927
773 2 47.1671 74.7269 16.0494
774 2 51.3335 74.6832 0.26902
775 2 55.0982 74.6366 15.9852
776 2 59.0661 74.5891 16.1173
777 2 62.7784 74.6574 15.8342
778 2 66.771 74.4674 0.187411
779 2 70.9512 74.7468 0.168079
780 2 74.9541 74.6533 0.270169
781 2 78.7494 74.663 0.114234
782 2 82.9427 74.8929 0.256003
783 2 86.8861 74.7129 -0.0291034
784 2 90.9572 74.8288 16.0724
785 2 94.9558 74.8334 15.9496
786 2 99.0679 74.9779 0.0508359
787 2 103.084 74.6788 15.9389
788 2 107.149 75.0951 15.8729
789 2 111.048 74.9224 16.1347
790 2 115.126 75.014 16.0013
791 2 119 75.1251 0.0977756
792 2 123.016 75.1232 15.9219
793 2 127.208 75.2488 16.155
794 2 130.89 75.1414 0.0874372
795 2 135.196 75.3859 15.9919
796 2 139.005 75.2934 15.5715
797 2 143.206 75.6642 15.8086
798 2 147.104 75.5749 15.9465
799 2 150.959 75.5144 0.275604
800 2 154.862 75.4952 0.300033
801 2 0.402674 79.4073 0.208653
802 2 4.25933 79.2827 15.7476
803 2 8.22231 79.081 0.22967
804 2 11.9548 79.1232 0.176053
805 2 15.8521 78.9811 15.8376
806 2 19.7799 78.9624 15.9034
807 2 23.7428 78.9217 0.16544
808 2 27.7657 78.893 0.206538
809 2 31.602 78.8833 0.193109
810 2 35.5004 78.8426 0.301396
811 2 39.284 78.973 15.8232
812 2 43.1886 78.8508 15.7767
813 2 47.2018 78.6668 16.1377
814 2 51.4011 78.6588 0.177326
815 2 55.1781 78.4933 0.142026
816 2 59.0486 78.3519 16.0407
817 2 62.9182 78.3194 16.0094
818 2 66.9088 78.2044 0.0527606
819 2 70.998 78.2628 15.9951
820 2 74.9264 78.4849 0.161587
821 2 78.8437 78.4386 16.0054
822 2 82.9357 78.6141 15.8736
823 2 86.902 78.4896 0.205203
824 2 90.9571 78.5961 0.165925
825 2 94.9708 78.8453 0.0970949
826 2 98.9221 78.8556 15.9884
827 2 103.014 78.7863 15.9756
828 2 106.791 78.7951 0.0770436
829 2 110.878 78.8208 0.203159
830 2 115.04 79.0876 0.255038
831 2 119.124 78.9082 0.310892
832 2 122.962 79.206 15.9484
833 2 126.97 79.0615 0.20627
834 2 130.879 79.1826 15.8394
835 2 134.971 79.1003 0.148987
836 2 139.181 79.3859 15.9276
837 2 143.105 79.3991 15.8769
838 2 147.124 79.3335 15.9164
839 2 151.031 79.3831 15.7939
840 2 154.785 79.4107 0.151019
841 2 0.651057 83.3147 15.9106
842 2 4.18491 83.3585 16.0407
843 2 8.14638 83.1873 0.166504
844 2 12.0563 83.2457 15.9351
845 2 16.1385 83.058 15.9502
846 2 19.9118 83.0625 0.370441
847 2 23.9389 83.0167 16.1154
848 2 27.6601 82.9969 -0.0164853
849 2 31.5227 82.8522 15.7706
850 2 35.5427 82.7967 0.237481
851 2 39.4173 82.8819 0.273051
852 2 43.4192 82.8051 15.9568
853 2 47.337 82.5041 0.204504
854 2 51.1945 82.6617 0.349165
855 2 55.2177 82.6412 0.141463
856 2 59.0819 82.3287 15.9619
857 2 62.8128 82.2494 15.9762
858 2 66.9022 82.3034 15.8439
859 2 70.7216 82.1876 15.9005
860 2 74.8881 82.4873 15.9453
861 2 78.9732 82.3453 15.8541
862 2 82.7964 82.3474 0.00490782
863 2 86.9255 82.4102 0.0434045
864 2 90.9222 82.5399 16.0616
865 2 95.0504 82.6443 0.202094
866 2 98.9159 82.8202 15.9455
867 2 103.004 82.7509 0.0736788
868 2 106.849 82.6593 16.1985
869 2 111.063 82.6689 16.0035
870 2 114.933 82.7314 16.0058
871 2 119.04 82.8687 16.0086
872 2 122.934 82.9417 15.9947
873 2 127.048 83.075 15.8674
874 2 130.966 83.1797 16.0347
875 2 134.941 82.9907 0.389449
876 2 138.853 83.2896 16.057
877 2 142.967 83.3058 0.38366
878 2 147.145 83.3635 16.052
879 2 151.09 83.316 0.201105
880 2 154.821 83.4466 0.396143
881 2 0.476608 87.3722 16.0106
882 2 4.47283 87.2281 0.235434
883 2 8.23839 87.0903 15.9634
884 2 12.0297 87.053 15.9239
885 2 15.9922 87.049 15.9646
886 2 20.1124 87.0822 16.029
887 2 24.0666 87.0992 15.9334
888 2 27.8004 87.1308 0.138581
889 2 31.6122 86.8447 15.8444
890 2 35.4439 86.8922 0.0544553
891 2 39.5589 86.898 15.9136
892 2 43.4549 86.5986 15.8072
893 2 47.3596 86.6371 15.9759
894 2 51.4061 86.8644 15.9229
895 2 55.1814 86.6205 15.9547
896 2 59.2535 86.3023 0.194353
897 2 63.1514 86.3632 0.298391
898 2 66.9098 86.3819 16.1194
899 2 70.617 86.4065 0.13277
900 2 74.7475 86.1354 15.9039
901 2 78.8017 86.3018 0.114377
902 2 83.0483 86.2678 0.236687
903 2 86.8364 86.4773 15.7916
904 2 90.9561 86.6683 15.8878
905 2 94.8526 86.4241 15.9564
906 2 98.9961 86.5828 16.1072
907 2 102.886 86.8437 0.211273
908 2 106.962 86.7747 0.175326
909 2 110.73 86.5514 15.9877
910 2 114.96 86.5933 0.428953
911 2 118.815 86.7389 0.276042
912 2 122.888 86.8064 0.136134
913 2 126.941 87.0539 15.9485
914 2 131.022 86.7599 15.8239
915 2 135.037 86.9099 16.0321
916 2 139.082 87.2425 16.0303
917 2 143.067 87.155 16.1346
918 2 147.03 87.1027 0.170687
919 2 151.007 87.241 16.0455
920 2 155.005 87.3878 15.9755
921 2 0.35768 91.4031 0.37703
922 2 4.37132 91.2417 0.263233
923 2 8.35514 91.2802 15.9709
924 2 12.2339 91.0507 16.1865
925 2 15.9873 91.2918 0.269877
926 2 19.9209 91.1014 0.28206
927 2 24.1462 91.0266 16.0818
928 2 27.8546 91.1229 15.8384
929 2 31.7256 91.0044 15.9196
930 2 35.9265 90.7543 0.229869
931 2 39.6945 90.7873 15.9397
932 2 43.5047 90.7135 15.9341
933 2 47.3739 90.6369 0.163094
934 2 51.315 90.6035 0.182394
935 2 55.2286 90.4917 0.208776
936 2 59.0456 90.2538 0.267061
937 2 63.0403 90.6236 0.131545
938 2 66.9514 90.2762 15.9769
939 2 70.8885 90.2387 16.0142
940 2 74.8703 90.0487 0.160253
941 2 78.7622 90.0694 0.0235391
942 2 82.6718 90.0145 0.0637164
943 2 86.6708 90.358 0.0215717
944 2 90.7306 90.3373 0.319075
945 2 94.9303 90.4625 15.9626
946 2 98.9566 90.4509 15.9232
947 2 102.97 90.4074 0.28364
948 2 106.733 90.5532 15.8761
949 2 110.817 90.6253 15.8774
950 2 114.843 90.6384 0.401267
951 2 118.96 90.6384 0.212429
952 2 123.165 90.9182 16.0429
953 2 127.089 90.8872 0.143511
954 2 131.111 90.8796 0.290546
955 2 134.744 90.9508 15.9449
956 2 138.98 91.0209 15.9929
957 2 142.941 91.1718 15.9607
958 2 147.156 91.2181 16.0814
959 2 150.862 91.1997 16.1085
960 2 154.913 91.4241 16.0857
961 2 0.560282 95.2132 0.310568
962 2 4.44444 95.1535 15.9982
963 2 8.31533 95.0898 15.8719
964 2 12.2267 95.0826 15.9641
965 2 16.2168 95.3498 16.0169
966 2 20.3157 95.0185 16.1249
967 2 23.9353 95.0251 15.9697
968 2 27.7956 94.9895 15.9309
969 2 31.7217 94.9485 16.0639
970 2 35.7193 94.8091 15.8051
971 2 39.7474 94.8976 15.9519
972 2 43.4452 94.7217 15.9539
973 2 47.6393 94.4567 -0.0326912
974 2 51.3104 94.5499 16.0781
975 2 55.4553 94.456 0.241659
976 2 59.2496 94.3225 15.9941
977 2 63.2465 94.429 0.3368
978 2 67.2901 94.3083 0.331971
979 2 71.1136 94.2793 0.0485859
980 2 75.001 94.1476 0.13273
981 2 78.5792 94.1622 15.8986