ITEM: TIMESTEP
20800
ITEM: NUMBER OF ATOMS
32000
ITEM: BOX BOUNDS xy xz yz pp pp pp
0.0000000000000000e+00 1.5831999999999999e+02 0.0000000000000000e+00
0.0000000000000000e+00 1.5831999999999999e+02 0.0000000000000000e+00
1.6440633756762235e-01 1.5933305662432236e+01 0.0000000000000000e+00
ITEM: ATOMS id type x y z
1 2 157.811 157.785 16.0368
2 2 3.597 158.015 16.2142
3 2 7.71965 158.08 0.180574
4 2 11.7984 157.919 0.151162
5 2 15.6138 157.866 0.319329
6 2 19.865 158.111 16.0874
7 2 23.8166 158.114 15.9831
8 2 27.8379 158.274 15.8734
9 2 31.5857 158.207 0.27743
10 2 35.7908 158.112 15.876
11 2 39.6771 -0.12752 16.0584
12 2 43.7734 0.0119179 0.134321
13 2 47.8825 0.0523699 16.0927
14 2 51.6133 -0.149954 0.157286
15 2 55.8121 158.545 0.134964
16 2 59.8337 158.605 15.9709
17 2 63.5983 0.215143 15.9613
18 2 67.5832 0.00448008 16.0802
19 2 71.4404 0.039904 16.0111
20 2 75.3997 158.287 16.0589
21 2 79.1858 0.017125 15.9665
22 2 83.1034 158.03 15.9906
23 2 87.1429 158.109 15.9575
24 2 91.1509 158.141 0.208965
25 2 95.1075 157.997 15.9089
26 2 98.9604 158.011 16.0043
27 2 102.759 157.916 15.8566
28 2 106.683 157.895 15.9432
29 2 110.625 157.77 0.151133
30 2 114.579 157.841 0.408912
31 2 118.492 157.812 16.054
32 2 122.392 157.717 0.0923273
33 2 126.256 157.54 0.00446673
34 2 130.158 157.445 0.122444
35 2 133.999 157.48 15.8382
36 2 138.099 157.674 16.0235
37 2 141.931 157.656 15.8326
38 2 145.865 157.678 15.6384
39 2 149.895 157.681 0.0139221
40 2 153.778 157.857 0.134453
41 2 158.042 3.34456 16.0734
42 2 3.65571 3.32009 16.0336
43 2 7.53772 3.53461 0.157628
44 2 11.6606 3.49344 15.9113
45 2 15.6605 3.59435 15.8632
46 2 19.8715 3.68674 16.0471
47 2 23.6934 3.693 0.361237
48 2 27.7959 3.91109 0.218631
49 2 31.7684 3.56944 0.139371
50 2 35.8179 3.63195 0.0534731
51 2 39.709 3.66757 0.336295
52 2 43.7071 3.86651 15.8759
53 2 47.7165 4.05886 16.1267
54 2 51.7746 3.92058 15.8027
55 2 55.5038 4.15481 0.439335
56 2 59.5979 4.0528 15.9752
57 2 63.6811 3.95016 16.1021
58 2 67.8337 3.99252 15.8648
59 2 71.6483 3.99032 16.1615
60 2 75.3575 3.89295 15.8755
61 2 79.3436 4.04293 15.9622
62 2 83.3755 3.95366 16.0148
63 2 87.3294 3.85562 16.0892
64 2 91.0212 3.85693 0.08054
65 2 95.235 3.73937 15.7893
66 2 98.9585 3.6067 0.138171
67 2 102.909 3.62423 16.0176
68 2 106.709 3.67443 15.8502
69 2 110.611 3.42868 0.179153
70 2 114.417 3.43594 0.131107
71 2 118.454 3.62231 0.269548
72 2 122.298 3.51926 -0.0457138
73 2 126.395 3.46727 0.155829
74 2 130.162 3.23722 -0.047674
75 2 134.025 3.20932 15.8355
76 2 138.045 3.17847 0.374219
77 2 142.112 3.13844 0.0964634
78 2 145.896 3.27783 0.0633975
79 2 149.901 3.31024 15.8462
80 2 153.992 3.42424 16.0315
81 2 157.827 7.52926 15.8297
82 2 3.46743 7.48114 15.9864
83 2 7.59419 7.51513 15.9826
84 2 11.6175 7.4787 0.300087
85 2 15.6052 7.42565 16.0001
86 2 19.5897 7.54747 15.997
87 2 23.5652 7.54436 0.240259
88 2 27.6186 7.81541 15.78
89 2 31.4415 7.68112 16.0533
90 2 35.6763 7.70283 15.846
91 2 39.6875 7.6129 0.201702
92 2 43.6142 7.69025 0.364935
93 2 47.6167 7.85971 16.0061
94 2 51.7294 7.77842 0.0708807
95 2 55.459 7.91638 16.0298
96 2 59.5667 7.92373 0.282986
97 2 63.6766 8.10019 16.0125
98 2 67.6535 8.0379 15.7676
99 2 71.7564 7.9075 16.0344
100 2 75.6365 7.85654 15.9535
101 2 79.3267 7.98977 0.154121
102 2 83.3691 7.81735 15.8472
103 2 87.2191 7.87877 15.9101
104 2 91.1391 7.77544 15.8262
105 2 95.042 7.69415 15.7777
106 2 99.06 7.76205 0.145704
107 2 102.833 7.41848 0.220491
108 2 106.788 7.56248 15.9749
109 2 110.774 7.46314 0.0756098
110 2 114.573 7.48515 15.8073
111 2 118.445 7.50382 15.7695
112 2 122.5 7.67464 15.6073
113 2 126.218 7.38622 15.9287
114 2 130.251 7.33674 0.174568
115 2 134.182 7.35213 -0.0245128
116 2 138.215 7.24401 16.0924
117 2 141.984 7.20217 15.9718
118 2 145.811 7.21248 -0.147137
119 2 150.094 7.21341 0.180211
120 2 153.842 7.29161 15.818
121 2 157.86 11.226 15.8662
122 2 3.55524 11.1947 16.059
123 2 7.42697 11.4374 15.9389
124 2 11.5996 11.3581 0.176381
125 2 15.4905 11.4983 16.1685
126 2 19.5714 11.6385 16.0054
127 2 23.5015 11.499 15.9013
128 2 27.6867 11.4815 15.9854
129 2 31.5829 11.5508 15.9995
130 2 35.6493 11.6677 15.9856
131 2 39.5667 11.7168 15.8887
132 2 43.5776 11.5334 0.169555
133 2 47.5534 11.888 0.217158
134 2 51.7429 11.9419 15.9555
135 2 55.6971 11.638 0.13375
136 2 59.627 11.9615 15.8727
137 2 63.7138 12.0346 0.366977
138 2 67.6806 11.6622 15.9034
139 2 71.7147 11.8764 15.9696
140 2 75.5629 12.0489 15.9884
141 2 79.4734 12.0482 16.2127
142 2 83.3526 11.9029 16.1408
143 2 87.4389 11.9838 0.0902566
144 2 91.3104 11.7829 0.326532
145 2 95.2529 11.744 16.0083
146 2 99.0333 11.6621 15.8383
147 2 102.797 11.7273 0.233591
148 2 106.763 11.6302 15.9145
149 2 110.666 11.5671 0.0226061
150 2 114.615 11.4238 16.0118
151 2 118.513 11.5191 0.0707892
152 2 122.377 11.4643 0.0484674
153 2 126.534 11.4327 15.896
154 2 130.407 11.2323 15.8298
155 2 134.104 11.5421 -0.0365945
156 2 138.183 11.3208 0.286079
157 2 142.081 11.2248 -0.0582814
158 2 145.957 11.1451 0.0164945
159 2 149.838 11.2537 0.191997
160 2 153.828 11.3491 0.230199
161 2 157.692 15.2818 16.054
162 2 3.37567 15.0284 15.9385
163 2 7.35298 15.1832 16.0134
164 2 11.3846 15.4164 15.9809
165 2 15.578 15.138 15.9486
166 2 19.5023 15.4686 0.0803426
167 2 23.4343 15.489 0.154292
168 2 27.6974 15.3717 15.7967
169 2 31.4372 15.4168 0.0722331
170 2 35.5547 15.4414 15.9756
171 2 39.677 15.3309 0.196477
172 2 43.5637 15.6321 -0.0935161
173 2 47.4677 15.6906 0.322688
174 2 51.5511 15.6073 0.302432
175 2 55.6142 15.4604 16.025
176 2 59.5119 15.7017 0.154752
177 2 63.6185 15.836 15.9012
178 2 67.6712 15.8936 15.8542
179 2 71.6038 15.7377 0.0824855
180 2 75.6317 15.9716 0.230745
181 2 79.6874 16.0397 16.1776
182 2 83.6981 16.0562 0.265127
183 2 87.4208 15.7205 15.8471
184 2 91.2037 15.7379 0.223827
185 2 95.0142 15.6729 15.9899
186 2 99.047 15.6433 15.9576
187 2 102.761 15.7431 15.9442
188 2 106.716 15.6328 15.8134
189 2 110.861 15.6509 15.9355
190 2 114.633 15.6983 15.8675
191 2 118.676 15.3989 0.202817
192 2 122.524 15.3747 15.831
193 2 126.44 15.2931 16.0096
194 2 130.23 15.4895 0.232516
195 2 134.175 15.4268 0.0232349
196 2 138.146 15.5271 -0.0271125
197 2 142.112 15.1706 15.6267
198 2 146.014 15.2547 0.158309
199 2 150.016 15.2429 -0.0243458
200 2 153.807 15.0948 15.8855
201 2 157.773 19.0803 16.0387
202 2 3.24206 19.0409 0.158807
203 2 7.30992 19.1378 0.0761937
204 2 11.3921 19.2547 15.946
205 2 15.3657 19.3023 15.8466
206 2 19.4516 19.4223 15.9184
207 2 23.6389 19.3293 15.8803
208 2 27.4836 19.2479 15.6363
209 2 31.4286 19.599 15.9817
210 2 35.412 19.4669 16.024
211 2 39.5047 19.2209 0.250191
212 2 43.5106 19.6075 15.8491
213 2 47.5413 19.4077 16.0946
214 2 51.5508 19.5343 0.086176
215 2 55.5357 19.6425 15.788
216 2 59.6078 19.5638 15.7632
217 2 63.678 19.5697 15.9568
218 2 67.4188 19.4785 15.9592
219 2 71.5713 19.7985 0.0916916
220 2 75.5897 19.848 0.103093
221 2 79.3088 19.9138 0.108259
222 2 83.7469 19.88 15.9923
223 2 87.5775 19.9554 -0.141381
224 2 91.308 19.74 0.355281
225 2 95.4549 19.6759 15.9225
226 2 99.1472 19.7529 15.9734
227 2 103.064 19.6476 15.7769
228 2 107.024 19.7319 15.885
229 2 110.819 19.5824 -0.00930301
230 2 114.82 19.6269 15.723
231 2 118.693 19.7253 15.8809
232 2 122.606 19.4898 15.7917
233 2 126.643 19.4414 15.8905
234 2 130.699 19.3128 15.987
235 2 134.313 19.3061 0.12322
236 2 138.354 19.5554 16.0542
237 2 142.13 19.207 15.835
238 2 146.155 19.3662 -0.0163216
239 2 150.141 19.0948 16.0033
240 2 153.905 19.1409 0.30004
241 2 157.719 23.0403 15.7884
242 2 3.28307 22.9748 15.9554
243 2 7.55704 23.0206 0.122705
244 2 11.4061 23.2184 0.397373
245 2 15.3604 23.1368 15.9303
246 2 19.5251 22.9874 15.956
247 2 23.6038 23.3569 15.7145
248 2 27.587 23.2475 15.8002
249 2 31.4064 23.2708 0.174238
250 2 35.5881 23.3828 15.9362
251 2 39.5131 23.3627 0.289103
252 2 43.5299 23.5447 15.8492
253 2 47.5347 23.6011 0.254572
254 2 51.5109 23.5041 0.204173
255 2 55.5917 23.5067 0.218958
256 2 59.6812 23.4455 16.0219
257 2 63.6816 23.4636 0.213673
258 2 67.5458 23.7839 15.8633
259 2 71.6148 23.8794 15.9329
260 2 75.5949 23.7921 0.227266
261 2 79.6399 23.748 15.768
262 2 83.6184 23.8002 0.150407
263 2 87.5406 23.683 15.9892
264 2 91.509 23.6669 15.9378
265 2 95.1912 23.6423 15.9964
266 2 99.3007 23.7914 0.237028
267 2 103.196 23.4547 16.0907
268 2 107.16 23.6093 15.8391
269 2 110.886 23.613 0.139818
270 2 114.91 23.6819 15.8704
271 2 118.841 23.6169 15.6963
272 2 122.646 23.4733 -0.0811304
273 2 126.631 23.5582 16.0249
274 2 130.65 23.4205 15.9748
275 2 134.473 23.4082 15.9576
276 2 138.237 23.4194 15.9377
277 2 142.308 23.3439 15.9667
278 2 146.06 23.2567 0.171961
279 2 150.018 23.4399 0.148126
280 2 153.953 23.1197 0.0287054
281 2 157.913 27.0438 0.167642
282 2 3.53671 26.987 0.110052
283 2 7.35977 26.9438 0.00516748
284 2 11.162 26.9742 15.8978
285 2 15.3374 26.7451 15.7846
286 2 19.3064 27.1344 -0.159022
287 2 23.2268 27.0816 15.8467
288 2 27.3349 27.2619 15.805
289 2 31.44 27.087 0.151769
290 2 35.2427 27.0698 0.0774136
291 2 39.4877 27.4093 0.154595
292 2 43.3614 27.3525 0.0619272
293 2 47.3878 27.4512 0.238264
294 2 51.4368 27.2545 15.9473
295 2 55.5377 27.2717 0.135492
296 2 59.5398 27.4693 15.9578
297 2 63.441 27.1704 15.8837
298 2 67.3734 27.7842 15.9208
299 2 71.2286 27.6583 15.8032
300 2 75.3784 27.8433 0.251929
301 2 79.4086 27.8579 0.126989
302 2 83.5562 27.8991 15.8498
303 2 87.4943 27.838 0.154993
304 2 91.3694 27.5792 0.336773
305 2 95.4987 27.7343 0.0233941
306 2 99.4117 27.7608 0.189507
307 2 103.261 27.648 15.9125
308 2 107.136 27.7927 0.338776
309 2 110.95 27.7941 15.8404
310 2 114.963 27.4932 15.802
311 2 119.087 27.5774 0.147019
312 2 122.838 27.5341 0.187495
313 2 126.775 27.3028 15.8319
314 2 130.345 27.3455 15.7554
315 2 134.223 27.3729 15.9694
316 2 138.536 27.335 16.0155
317 2 142.375 27.262 0.0182327
318 2 146.146 27.4293 0.155149
319 2 149.959 27.2766 0.137539
320 2 153.972 27.1321 0.104709
321 2 157.99 31.0927 15.7089
322 2 3.60528 31.0572 16.0909
323 2 7.6173 30.8648 15.868
324 2 11.4632 30.9487 0.0603167
325 2 15.3224 30.9468 -0.0277182
326 2 19.4466 30.9787 15.8576
327 2 23.3693 31.151 15.9431
328 2 27.331 30.9551 0.336647
329 2 31.2976 31.1561 16.1222
330 2 35.2996 30.892 16.0227
331 2 39.3546 31.0593 16.0095
332 2 43.4173 31.3621 0.395493
333 2 47.4076 31.3976 16.1791
334 2 51.5225 31.3962 0.196895
335 2 55.4691 31.2876 15.7203
336 2 59.5401 31.3728 0.134132
337 2 63.3026 31.3498 15.9342
338 2 67.36 31.5727 0.284565
339 2 71.5293 31.5787 0.0723506
340 2 75.5878 31.5562 0.152811
341 2 79.414 31.7342 15.8366
342 2 83.5409 31.6363 0.171927
343 2 87.6748 31.7149 15.9731
344 2 91.5176 31.8417 16.0411
345 2 95.3508 31.7211 15.9831
346 2 99.4295 31.734 0.298731
347 2 103.224 31.7488 16.1541
348 2 107.234 31.8068 15.9446
349 2 111.084 31.7602 16.0627
350 2 114.969 31.6391 16.1685
351 2 118.92 31.6096 15.9786
352 2 122.92 31.5015 15.8814
353 2 126.899 31.536 15.9664
354 2 130.662 31.3591 15.9267
355 2 134.547 31.4284 16.0168
356 2 138.432 31.3619 15.8499
357 2 142.344 31.5885 0.130786
358 2 146.145 31.317 15.8442
359 2 150.142 31.3233 0.0310958
360 2 154.015 31.1798 0.0653714
361 2 -0.396937 35.0781 0.213595
362 2 3.59328 35.1008 15.9149
363 2 7.71802 34.9939 15.9196
364 2 11.5963 34.9981 15.7605
365 2 15.3092 35.0388 0.0498258
366 2 19.2284 34.8366 0.0158119
367 2 23.2866 34.8709 0.0476664
368 2 27.3604 34.9263 0.129435
369 2 31.3386 34.8876 0.151834
370 2 35.4595 35.0671 0.198179
371 2 39.5089 35.1819 0.30763
372 2 43.2168 35.2628 16.1802
373 2 47.5919 35.2691 16.1251
374 2 51.5587 35.1514 15.9828
375 2 55.4113 35.1864 0.154816
376 2 59.3538 35.3251 0.0231104
377 2 63.3038 35.2943 15.8357
378 2 67.5676 35.5339 0.154921
379 2 71.3641 35.523 0.0739548
380 2 75.3708 35.5327 15.9673
381 2 79.3555 35.5917 0.0413327
382 2 83.4961 35.6341 15.9004
383 2 87.3604 35.7054 0.0435324
384 2 91.5638 35.6905 -0.0560194
385 2 95.3853 35.8043 15.8673
386 2 99.1979 35.8883 0.0715621
387 2 103.254 35.8428 16.1679
388 2 107.179 35.7861 16.0732
389 2 111.09 35.8157 15.8339
390 2 115.022 35.5859 15.7308
391 2 119.091 35.4771 15.9787
392 2 123.001 35.6347 15.6576
393 2 126.834 35.3921 15.8467
394 2 130.505 35.574 15.9486
395 2 134.458 35.49 15.9736
396 2 138.39 35.282 0.12287
397 2 142.544 35.5485 0.25484
398 2 146.366 35.3188 0.0249336
399 2 150.149 35.3278 15.8395
400 2 154.264 35.251 0.083204
401 2 158.157 39.1467 -0.0892854
402 2 3.79025 39.0799 0.259685
403 2 7.52062 39.1415 0.343929
404 2 11.4601 38.88 15.9567
405 2 15.2967 38.9508 0.0290066
406 2 19.4833 38.8702 15.8023
407 2 23.4116 38.7824 15.8403
408 2 27.3698 38.996 16.0184
409 2 31.353 39.0662 0.163614
410 2 35.3744 39.0636 0.114456
411 2 39.1736 39.3257 15.8405
412 2 43.3218 39.0106 0.3349
413 2 47.4618 39.2036 0.19384
414 2 51.3155 38.9463 15.7763
415 2 55.2125 39.1538 0.152246
416 2 59.5051 39.2008 0.191199
417 2 63.5336 39.2461 0.238102
418 2 67.3709 39.3074 0.296435
419 2 71.4158 39.2962 0.0674218
420 2 75.357 39.2604 0.147962
421 2 79.1167 39.4644 0.0469033
422 2 83.4818 39.7018 16.0038
423 2 87.542 39.4232 15.8826
424 2 91.4389 39.5513 15.8915
425 2 95.4356 39.7264 15.8601
426 2 99.106 39.8072 0.279598
427 2 103.362 39.7589 15.9699
428 2 107.363 39.8345 16.1068
429 2 111.483 39.6518 15.8061
430 2 115.188 39.4608 15.9794
431 2 119.122 39.7385 15.8832
432 2 123.063 39.5836 15.8153
433 2 126.922 39.5464 -0.0399462
434 2 130.643 39.6059 15.7766
435 2 134.62 39.715 15.7675
436 2 138.289 39.5788 16.0013
437 2 142.436 39.5589 15.78
438 2 146.4 39.3823 0.0823891
439 2 150.082 39.3577 16.1033
440 2 154.373 39.2641 16.0755
441 2 158.255 43.2678 -0.0478954
442 2 3.7597 43.329 15.7679
443 2 7.79587 42.9994 15.9899
444 2 11.5308 43.1516 0.0388895
445 2 15.6448 43.0066 0.201011
446 2 19.6023 42.9116 0.0347721
447 2 23.5619 42.9149 15.9482
448 2 27.2288 42.9348 15.8522
449 2 31.1147 42.9749 0.245735
450 2 35.1368 42.9905 0.0930662
451 2 39.2817 43.0469 0.094449
452 2 43.1869 43.011 0.109406
453 2 47.1555 42.965 15.8229
454 2 51.1579 42.897 15.8918
455 2 55.1961 43.0043 0.242702
456 2 59.2032 43.0207 16.1092
457 2 63.2309 43.0709 0.00474927
458 2 67.4612 43.0606 0.0736686
459 2 71.1733 43.1524 0.0643492
460 2 75.3615 43.2348 0.171014
461 2 79.5722 43.331 0.0946553
462 2 83.3882 43.4654 16.1006
463 2 87.4394 43.523 15.8898
464 2 91.4815 43.4262 0.252554
465 2 95.2731 43.5975 0.292529
466 2 99.3895 43.743 15.9291
467 2 103.383 43.6323 15.9506
468 2 107.466 43.882 16.21
469 2 111.336 43.5899 15.7613
470 2 115.407 43.7041 15.9933
471 2 118.991 43.7263 15.8018
472 2 123.087 43.566 15.9451
473 2 126.76 43.5909 0.0523681
474 2 130.668 43.4477 0.211277
475 2 134.645 43.4341 15.7905
476 2 138.59 43.5346 15.935
477 2 142.484 43.4103 15.993
478 2 146.612 43.4985 0.223219
479 2 150.428 43.2962 0.055928
480 2 154.174 43.3586 0.122444
481 2 0.0502582 47.2247 0.294606
482 2 3.95493 47.1751 0.310065
483 2 7.65533 47.0937 0.0969228
484 2 11.5987 47.0772 0.104966
485 2 15.4725 46.9671 0.0215896
486 2 19.5607 46.8842 0.114488
487 2 23.4316 46.8988 0.181614
488 2 27.2177 46.888 15.7661
489 2 31.1004 46.945 -0.013925
490 2 35.1626 46.8022 0.313438
491 2 39.1932 46.692 16.0167
492 2 43.0932 46.8691 15.9077
493 2 47.2786 46.8602 0.237548
494 2 51.2181 47.0178 15.8536
495 2 55.1474 46.8819 15.7875
496 2 59.1388 46.9493 15.8913
497 2 63.3126 46.9216 0.287202
498 2 67.1546 47.0052 0.113708
499 2 71.452 47.2443 15.9191
500 2 75.244 47.0091 0.0816377
501 2 79.3448 47.4598 15.7717
502 2 83.3415 47.3737 15.8848
503 2 87.319 47.3556 0.128017
504 2 91.4485 47.4237 0.084512
505 2 95.3902 47.4734 -0.0658672
506 2 99.361 47.6019 0.101498
507 2 103.26 47.6551 0.257944
508 2 107.319 47.4757 15.9607
509 2 111.266 47.4375 16.0075
510 2 115.258 47.6619 0.0969001
511 2 118.958 47.6391 15.9705
512 2 122.84 47.6317 16.0016
513 2 126.764 47.5734 15.927
514 2 130.962 47.5458 16.0848
515 2 134.803 47.4756 15.7623
516 2 138.716 47.5217 16.1408
517 2 142.542 47.4915 15.9099
518 2 146.443 47.242 0.257552
519 2 150.45 47.3354 0.262379
520 2 154.433 47.2206 16.0195
521 2 158.26 51.0745 0.32818
522 2 3.92685 51.0525 15.7643
523 2 7.76018 51.2029 15.8914
524 2 11.7778 51.0006 15.9945
525 2 15.7025 51.0787 0.2235
526 2 19.4936 50.8082 15.9525
527 2 23.5272 50.8986 15.9545
528 2 27.3735 50.8488 16.0595
529 2 31.3135 50.8226 0.442121
530 2 35.2256 51.021 0.173366
531 2 39.0658 50.6305 15.9442
532 2 42.9968 50.7638 15.9775
533 2 47.2293 50.7228 0.0107031
534 2 51.1283 50.9394 0.144491
535 2 55.0867 50.9116 0.221404
536 2 59.2244 50.9704 15.8638
537 2 63.1917 50.8873 16.1703
538 2 67.1892 50.7666 0.289228
539 2 71.2386 51.2156 0.238387
540 2 75.153 51.1999 0.368429
541 2 79.1893 51.1405 0.12454
542 2 83.2642 51.2452 0.0748426
543 2 87.3788 51.2551 0.26666
544 2 91.2965 51.3668 0.0798751
545 2 95.3219 51.2958 0.0400353
546 2 99.4043 51.5952 0.152856
547 2 103.3 51.5006 15.7671
548 2 107.32 51.4657 0.263026
549 2 111.295 51.6579 0.148467
550 2 115.126 51.626 15.8522
551 2 119.201 51.8509 15.7765
552 2 123.172 51.5802 15.8192
553 2 126.839 51.6066 15.9294
554 2 130.831 51.6637 0.162056
555 2 134.751 51.4969 0.344622
556 2 138.719 51.4819 0.266849
557 2 142.61 51.3437 0.133696
558 2 146.383 51.4308 15.9067
559 2 150.361 51.3183 0.187395
560 2 154.577 51.1977 0.21538
561 2 158.3 55.0902 0.273568
562 2 3.87573 55.2063 0.414745
563 2 7.8012 55.2913 0.43894
564 2 11.9163 55.219 0.140521
565 2 15.7935 54.8281 0.115489
566 2 19.5497 55.0649 15.8765
567 2 23.3643 54.862 15.9893
568 2 27.5069 54.7561 15.9402
569 2 31.4465 54.7079 0.347637
570 2 35.3284 54.6979 0.211646
571 2 39.3789 54.7115 16.0814
572 2 43.2072 54.6782 16.0513
573 2 47.1387 54.6979 -0.0533667
574 2 51.0815 54.6905 15.9357
575 2 54.9757 54.7392 15.7668
576 2 59.0441 54.7832 15.9415
577 2 62.855 54.888 15.9666
578 2 67.1067 54.8743 0.374365
579 2 71.2231 55.0599 0.336764
580 2 75.1175 54.8853 15.8426
581 2 79.3322 54.965 0.124249
582 2 83.2057 55.1608 0.0738084
583 2 87.2404 55.271 0.144842
584 2 91.2627 55.4614 15.894
585 2 95.2549 55.207 0.300876
586 2 99.1811 55.5148 15.8206
587 2 103.34 55.3109 15.8153
588 2 107.248 55.5313 0.211565
589 2 111.101 55.5896 15.8352
590 2 115.165 55.4701 16.0739
591 2 119.349 55.8083 15.818
592 2 123.122 55.5459 0.0415439
593 2 126.876 55.6235 15.9255
594 2 130.966 55.6997 16.0933
595 2 134.992 55.6627 0.363006
596 2 138.903 55.5765 15.9129
597 2 142.704 55.3961 0.323401
598 2 146.681 55.4125 0.349665
599 2 150.621 55.2433 0.213517
600 2 154.514 55.2972 15.9086
601 2 158.296 59.2746 0.118389
602 2 3.95768 59.2374 16.0914
603 2 7.74641 58.9601 15.7929
604 2 11.8546 59.0548 0.0562876
605 2 15.8278 58.8933 15.9158
606 2 19.5561 58.9531 0.155823
607 2 23.3843 58.698 0.0984093
608 2 27.5134 58.8497 0.398269
609 2 31.4902 58.6708 16.0418
610 2 35.4658 58.8226 15.8528
611 2 39.1558 58.8998 16.1171
612 2 43.2837 58.7433 15.8888
613 2 47.1147 58.5225 15.8842
614 2 51.005 58.7204 15.663
615 2 54.9473 58.7197 15.8621
616 2 58.992 58.6689 0.108422
617 2 63.0901 58.9263 15.9705
618 2 67.1467 58.6644 0.038065
619 2 70.8209 58.8149 16.0042
620 2 74.9696 58.9043 0.163791
621 2 79.1172 59.004 0.143861
622 2 83.1302 58.9807 0.109739
623 2 87.233 59.076 15.9692
624 2 91.2893 59.2083 16.1027
625 2 95.2767 59.2015 0.134707
626 2 99.1658 59.3093 0.24899
627 2 103.215 59.4363 16.0472
628 2 107.25 59.3716 0.153072
629 2 111.08 59.4866 15.8502
630 2 114.961 59.2545 15.9755
631 2 119.034 59.4045 15.9806
632 2 122.938 59.6327 0.0285759
633 2 126.976 59.5844 16.1156
634 2 130.935 59.6794 0.147174
635 2 135.026 59.6416 15.9729
636 2 138.894 59.5934 0.148892
637 2 142.911 59.46 0.217507
638 2 146.711 59.4351 0.0926259
639 2 150.617 59.2758 15.9582
640 2 154.491 59.2848 0.364642
641 2 0.0952858 63.3681 -0.0335175
642 2 3.88008 63.1912 0.263138
643 2 7.83364 63.202 16.0075
644 2 11.7746 62.9538 16.0301
645 2 15.6607 63.0043 15.9902
646 2 19.6256 63.0924 0.249347
647 2 23.5988 63.0775 0.199681
648 2 27.4435 62.8559 0.253968
649 2 31.3349 62.9091 0.11113
650 2 35.1323 62.6038 0.341976
651 2 39.3365 62.73 15.8767
652 2 43.1355 62.4881 0.149117
653 2 47.0705 62.5605 15.6601
654 2 51.0915 62.5612 16.0319
655 2 54.9897 62.7346 0.0812675
656 2 58.9571 62.4973 15.7929
657 2 62.9579 62.7268 0.00932865
658 2 66.9909 62.7481 15.8385
659 2 71.0357 62.7113 0.258039
660 2 75.0768 62.9125 0.100048
661 2 79.0532 62.6182 0.196355
662 2 83.1228 63.0538 0.112415
663 2 87.1737 62.9329 15.984
664 2 91.3525 63.07 15.961
665 2 95.0772 63.0124 0.242514
666 2 99.1599 63.0913 0.258451
667 2 103.218 63.3174 15.8836
668 2 107.137 63.1843 15.8661
669 2 111.24 63.1993 15.8266
670 2 115.356 63.2805 0.0964958
671 2 119.202 63.361 16.016
672 2 123.117 63.3488 0.230439
673 2 127.115 63.549 15.8136
674 2 131.044 63.595 0.0209189
675 2 134.976 63.263 15.8103
676 2 138.739 63.5541 15.8875
677 2 142.741 63.6439 15.6828
678 2 146.644 63.3533 0.268159
679 2 150.652 63.2911 15.7702
680 2 154.529 63.3313 0.220525
681 2 0.303156 67.2221 0.138196
682 2 3.92999 67.3975 0.333941
683 2 7.79113 67.1851 15.9691
684 2 11.738 66.9435 16.0354
685 2 15.8517 66.9688 0.192271
686 2 19.609 67.0623 0.122168
687 2 23.483 67.0196 0.200105
688 2 27.4727 66.8398 0.246364
689 2 31.3996 66.7218 0.0790616
690 2 35.349 66.6364 0.11388
691 2 39.3297 66.6054 16.0303
692 2 43.1381 66.4369 0.24009
693 2 47.0114 66.6034 15.9354
694 2 51.0371 66.7387 16.0573
695 2 55.0072 66.6318 15.951
696 2 58.8643 66.5314 15.9775
697 2 62.8611 66.4375 15.8667
698 2 66.8977 66.6074 15.9579
699 2 70.8441 66.7567 0.0953608
700 2 75.1303 66.8582 15.9434
701 2 78.934 66.7595 15.8384
702 2 82.9329 66.7271 0.30824
703 2 87.0324 66.8547 15.977
704 2 91.1761 67.0469 15.9553
705 2 95.1443 67.0108 0.141239
706 2 99.0532 66.9761 0.0697366
707 2 103.11 67.0757 0.126824
708 2 107.136 67.3512 15.8929
709 2 111.24 67.1383 15.7827
710 2 115.062 67.3496 15.9007
711 2 119.124 67.396 0.182838
712 2 123.05 67.3536 0.125869
713 2 127.075 67.5549 0.215753
714 2 131.073 67.6927 16.1731
715 2 134.876 67.2884 0.0589879
716 2 139.008 67.7299 -0.0241237
717 2 143.03 67.4913 15.8175
718 2 146.741 67.1962 15.8931
719 2 150.663 67.2676 15.8131
720 2 154.549 67.2019 0.215655
721 2 0.207748 71.2583 0.354341
722 2 4.0267 71.2756 15.9847
723 2 8.25652 71.0923 0.217897
724 2 12.0433 71.13 16.0642
725 2 15.7488 71.1236 0.294922
726 2 19.5346 70.9913 0.101587
727 2 23.7362 70.9372 0.26051
728 2 27.7084 70.8819 15.7944
729 2 31.5095 70.7611 0.0781755
730 2 35.496 70.693 0.177402
731 2 39.5257 70.7368 15.9163
732 2 43.1405 70.588 0.129921
733 2 47.22 70.5144 15.7509
734 2 51.1389 70.509 16.0027
735 2 54.952 70.5423 0.0624455
736 2 59.019 70.4262 -0.0544441
737 2 62.8609 70.3526 0.326937
738 2 66.8767 70.5946 15.9741
739 2 70.9285 70.5133 15.7336
740 2 74.8504 70.625 15.6987
741 2 78.875 70.8253 0.200379
742 2 82.9365 70.6482 0.317563
743 2 87.1248 70.7415 15.8868
744 2 91.049 70.9603 16.1021
745 2 95.0864 70.9834 15.9892
746 2 99.0774 70.7722 15.9231
747 2 103.004 71.0636 15.7638
748 2 107.131 71.0979 15.9703
749 2 111.102 71.1942 16.0249
750 2 114.902 71.2411 0.195528
751 2 119.119 71.2153 15.9703
752 2 123.061 71.0629 0.207701
753 2 127.146 71.494 16.0401
754 2 130.979 71.3797 16.0467
755 2 135.005 71.4368 15.7851
756 2 138.929 71.4683 15.7333
757 2 142.881 71.394 0.048296
758 2 146.801 71.4286 0.333227
759 2 150.608 71.2335 0.203645
760 2 154.717 71.3262 15.842
761 2 0.271894 75.3892 0.15342
762 2 4.17259 75.3668 15.9331
763 2 8.27087 75.3049 15.8195
764 2 12.1487 75.1256 15.76
765 2 15.9866 75.0553 15.9818
766 2 19.975 75.0215 15.9505
767 2 23.9376 74.9202 16.094
768 2 27.6726 75.0815 15.8934
769 2 31.5863 74.8438 0.142076
770 2 35.5152 74.6747 16.0784
771 2 39.3468 74.676 15.9394
772 2 43.3781 74.5227 0.0637595
773 2 47.0752 74.5421 15.6642
774 2 50.9098 74.3138 0.209416
775 2 55.0074 74.3139 16.0715
776 2 58.9226 74.3397 15.9304
777 2 62.8419 74.3763 16.0588
778 2 66.8161 74.5823 0.251933
779 2 70.8256 74.5753 -0.000348248
780 2 74.9886 74.359 0.0114503
781 2 79.0655 74.5565 0.225535
782 2 83.0214 74.3766 0.0456663
783 2 86.9143 74.6754 0.450149
784 2 91.0756 74.7126 15.8348
785 2 95.0053 74.8532 16.0329
786 2 98.97 74.7378 0.374667
787 2 102.853 75.0158 16.0067
788 2 106.858 74.8933 16.1071
789 2 111.018 75.1507 15.8852
790 2 115.054 74.9264 15.9116
791 2 119.065 75.1053 0.18964
792 2 122.951 75.0757 15.8807
793 2 127.071 75.3705 15.6808
794 2 131.035 75.352 0.166288
795 2 135.146 75.4576 15.8624
796 2 139.114 75.4587 15.9459
797 2 142.963 75.3339 16.0428
798 2 146.825 75.3766 15.8491
799 2 150.819 75.1982 0.198832
800 2 154.686 75.436 0.0260663
801 2 0.513764 79.343 0.29771
802 2 4.17976 79.3402 16.1088
803 2 8.09149 79.3255 0.211817
804 2 12.2132 79.1309 0.217689
805 2 16.1803 79.0842 15.826
806 2 19.9635 79.0161 16.0381
807 2 23.7792 79.1319 0.206194
808 2 27.7025 78.6905 0.173449
809 2 31.5526 78.9337 0.290155
810 2 35.6179 78.7828 0.00740634
811 2 39.3894 78.4602 15.9299
812 2 43.5404 78.6817 16.0587
813 2 47.2989 78.5154 15.9373
814 2 51.074 78.5294 0.341505
815 2 55.0363 78.4393 0.260145
816 2 59.0332 78.4132 15.9784
817 2 62.8821 78.3375 16.1789
818 2 66.8767 78.3965 0.18634
819 2 70.6617 78.3319 15.9861
820 2 74.7991 78.2646 -0.00886331
821 2 78.9106 78.5361 15.9269
822 2 83.0112 78.4416 15.8385
823 2 86.9538 78.6619 0.320842
824 2 90.915 78.6859 0.129451
825 2 94.9481 78.5952 0.182878
826 2 99.0337 78.7747 15.8279
827 2 102.944 78.8852 15.8804
828 2 107.111 78.9028 0.0972323
829 2 110.865 79.0859 0.00794131
830 2 115.01 79.0023 0.219245
831 2 119.026 79.0429 0.147548
832 2 122.9 79.0065 16.1456
833 2 126.925 78.9986 0.325015
834 2 131.186 79.3827 16.0954
835 2 135.115 79.3394 0.184831
836 2 139.077 79.4408 15.8034
837 2 142.86 79.4143 16.0946
838 2 147.127 79.4918 16.075
839 2 150.933 79.3797 16.0575
840 2 154.769 79.3726 0.288915
841 2 0.52935 83.1999 16.1687
842 2 4.14009 83.3074 16.1339
843 2 8.29209 83.1279 0.222445
844 2 12.1912 83.3271 16.039
845 2 16.0201 83.064 15.8106
846 2 19.8794 83.2138 0.130622
847 2 23.986 82.9419 15.8906
848 2 27.9103 82.8886 0.307373
849 2 31.5744 82.9326 16.0446
850 2 35.5937 82.7323 0.24612
851 2 39.422 82.7212 0.287591
852 2 43.5398 82.621 15.9144
853 2 47.3693 82.5999 0.253974
854 2 50.9653 82.5987 0.108799
855 2 55.0414 82.4504 0.202345
856 2 59.0171 82.5171 16.2685
857 2 62.9821 82.3918 16.0032
858 2 66.9535 82.2865 15.9477
859 2 70.803 82.3564 16.0115
860 2 74.811 82.2679 15.9207
861 2 78.741 82.2399 15.9769
862 2 82.8547 82.2862 0.258523
863 2 86.7432 82.5969 0.205826
864 2 90.8649 82.5548 15.9901
865 2 94.8514 82.5157 0.182122
866 2 98.8076 82.6047 15.8644
867 2 102.964 82.6882 0.196929
868 2 106.85 82.8577 15.6432
869 2 111.042 83.0352 15.9192
870 2 114.966 83.0154 15.965
871 2 118.932 83.0243 16.0607
872 2 122.974 82.8732 16.1593
873 2 126.906 82.9491 15.9791
874 2 130.945 83.0438 15.9084
875 2 134.848 83.1977 0.127217
876 2 138.967 83.1897 16.025
877 2 143.01 83.2571 0.124266
878 2 146.892 83.5027 15.8294
879 2 150.845 83.5181 0.306906
880 2 154.839 83.1646 0.230431
881 2 0.493574 87.4276 16.1497
882 2 4.37271 87.313 0.379874
883 2 8.25493 87.3493 16.062
884 2 12.4095 87.2486 15.9712
885 2 16.2571 87.0841 15.9606
886 2 20.047 86.9547 15.718
887 2 23.9266 86.8031 15.9742
888 2 27.8942 87.0212 0.429227
889 2 31.8932 86.6953 15.9894
890 2 35.7001 86.7044 0.366706
891 2 39.5875 86.7714 15.929
892 2 43.4441 86.6618 16.0601
893 2 47.2814 86.6151 15.9103
894 2 51.3337 86.3589 15.9337
895 2 55.0855 86.3496 15.9552
896 2 58.9627 86.4923 0.302334
897 2 62.8988 86.4901 0.160427
898 2 66.9434 86.1609 15.8836
899 2 70.9891 86.2804 0.382353
900 2 74.8527 86.2422 16.005
901 2 78.6621 86.1892 0.174821
902 2 82.7914 86.475 0.0833458
903 2 86.8057 86.3674 15.971
904 2 90.8036 86.4647 16.078
905 2 94.8459 86.6739 15.9335
906 2 98.8371 86.4746 15.8788
907 2 102.812 86.6645 0.226172
908 2 106.953 86.7475 0.173507
909 2 110.765 87.0098 15.9602
910 2 115.068 86.9023 0.199269
911 2 118.842 86.9405 0.0935083
912 2 122.906 86.7729 0.152447
913 2 126.873 86.8277 16.0325
914 2 131.036 87.1634 16.1122
915 2 135.038 87.1863 15.8201
916 2 139.04 87.1434 15.8972
917 2 142.901 87.3288 15.9601
918 2 146.926 87.2521 0.293841
919 2 150.84 87.3853 16.1736
920 2 154.921 87.3839 16.0236
921 2 0.56729 91.3397 0.131748
922 2 4.59384 91.3471 0.342939
923 2 8.28863 91.2838 16.1055
924 2 12.3962 91.1932 15.8421
925 2 16.3585 90.9236 0.287348
926 2 20.0674 91.0005 0.289832
927 2 24.1398 90.919 15.8143
928 2 27.9076 90.8703 15.9838
929 2 31.798 90.7821 15.892
930 2 35.5867 90.7488 0.0255602
931 2 39.6553 90.7787 16.0043
932 2 43.6549 90.6381 15.9168
933 2 47.5157 90.73 0.00304612
934 2 51.4676 90.5271 0.125436
935 2 55.1336 90.5306 0.272032
936 2 59.1955 90.3367 0.175271
937 2 63.121 90.128 0.388723
938 2 67.0909 90.261 15.9082
939 2 70.8504 90.2201 16.0244
940 2 74.677 90.2244 0.10103
941 2 78.8248 90.1905 0.326603
942 2 82.7155 90.2756 0.116021
943 2 86.6137 90.3256 0.349959
944 2 90.5794 90.3687 0.245109
945 2 94.6984 90.4845 15.7442
946 2 98.8205 90.4401 15.8912
947 2 102.888 90.447 0.180282
948 2 106.762 90.5539 15.8374
949 2 110.982 90.8166 16.1188
950 2 114.91 90.7319 0.0632543
951 2 118.868 90.8151 0.139469
952 2 122.926 90.7914 16.0519
953 2 126.64 90.6637 0.155189
954 2 130.702 91.0087 0.0331491
955 2 134.907 90.8413 15.8431
956 2 139.003 91.1508 15.871
957 2 142.896 91.2007 15.855
958 2 146.699 91.2616 16.0191
959 2 150.909 91.3973 15.9858
960 2 155.063 91.3618 16.0556
961 2 0.651323 95.2861 0.100324
962 2 4.58014 95.1987 15.9243
963 2 8.69025 95.2411 16.0275
964 2 12.5292 95.3368 16.1839
965 2 16.2242 95.1289 16.0743
966 2 20.099 95.0871 15.747
967 2 24.1031 94.9709 16.044
968 2 28.1324 95.005 16.0224
969 2 31.911 94.8907 16.0073
970 2 35.7038 94.8562 15.8725
971 2 39.8815 94.6517 15.9614
972 2 43.5182 94.6716 15.9432
973 2 47.5741 94.6996 0.0598167
974 2 51.356 94.6537 15.9358
975 2 55.39 94.4506 0.200933
976 2 59.2321 94.4664 15.9414
977 2 63.1722 94.4656 0.224292
978 2 66.8142 94.2392 0.0930613
979 2 70.6179 94.2009 0.258285
980 2 74.8412 94.0688 0.167362
981 2 78.8953 94.179 16.1186
982 2 82.7374 94.1419 0.211524
983 2 86.7906 94.0478 -0.126676