ITEM: TIMESTEP
20900
ITEM: NUMBER OF ATOMS
32000
ITEM: BOX BOUNDS xy xz yz pp pp pp
0.0000000000000000e+00 1.5831999999999999e+02 0.0000000000000000e+00
0.0000000000000000e+00 1.5831999999999999e+02 0.0000000000000000e+00
1.6636403821035906e-01 1.5931347961789498e+01 0.0000000000000000e+00
ITEM: ATOMS id type x y z
1 2 158.122 157.728 16.0041
2 2 3.72612 157.712 15.8822
3 2 7.72639 157.878 0.269617
4 2 11.5616 158.231 0.174059
5 2 15.8907 158.173 0.334588
6 2 19.5996 158.002 16.0508
7 2 23.6489 158.014 15.8956
8 2 27.5805 158.08 15.9227
9 2 31.7558 158.102 -0.00487058
10 2 35.5589 158.361 15.747
11 2 39.7704 -0.0245304 15.8537
12 2 43.7433 0.00287735 0.367343
13 2 47.7043 -0.00873439 15.9991
14 2 51.9428 -0.043598 0.0613099
15 2 55.7746 158.308 0.231415
16 2 59.788 158.442 15.9841
17 2 63.8379 0.159696 15.9597
18 2 67.5583 0.133204 15.9735
19 2 71.567 0.150215 16.0963
20 2 75.4515 158.264 15.8475
21 2 79.3169 -0.163008 15.9449
22 2 83.2855 158.241 15.9153
23 2 87.1503 158.054 15.9085
24 2 91.0929 157.99 0.0613625
25 2 94.9749 157.886 15.9384
26 2 98.8875 157.979 15.7682
27 2 102.778 157.868 15.9208
28 2 106.726 157.889 15.8234
29 2 110.552 157.831 0.073853
30 2 114.483 157.684 0.0303426
31 2 118.332 157.896 15.7
32 2 122.319 157.818 0.08619
33 2 126.38 157.785 0.125198
34 2 130.184 157.765 0.0903995
35 2 134.053 157.806 15.9513
36 2 137.935 157.748 16.097
37 2 141.933 157.515 16.0212
38 2 145.912 157.855 15.7708
39 2 149.941 157.592 0.144594
40 2 154.037 157.828 0.238288
41 2 157.832 3.31851 15.9491
42 2 3.59355 3.40121 15.8827
43 2 7.83109 3.6351 0.226085
44 2 11.6138 3.62374 15.9625
45 2 15.7939 3.70057 16.1501
46 2 19.5977 3.65204 15.8316
47 2 23.5575 3.56155 0.0256112
48 2 27.59 3.66389 0.230527
49 2 31.5521 3.87789 0.223366
50 2 35.4248 3.86283 0.397351
51 2 39.6809 4.02477 0.267948
52 2 43.7929 3.94388 16.0952
53 2 47.7001 3.86861 15.9912
54 2 51.646 4.02742 16.0222
55 2 55.8626 4.00644 0.0146214
56 2 59.9629 4.05937 16.1327
57 2 63.9284 4.1149 15.8959
58 2 67.7404 4.15264 16.1495
59 2 71.66 4.13056 15.839
60 2 75.4607 4.04601 16.1753
61 2 79.4181 3.73019 15.921
62 2 83.3026 3.75833 16.0004
63 2 87.3442 3.8017 15.8773
64 2 91.3082 3.74376 0.286302
65 2 94.8463 3.67814 15.9316
66 2 98.8524 3.66459 0.156947
67 2 102.868 3.57748 15.748
68 2 106.913 3.62422 15.6821
69 2 110.73 3.50967 0.243478
70 2 114.639 3.59826 0.172909
71 2 118.604 3.27875 0.08775
72 2 122.601 3.44324 0.313212
73 2 126.397 3.34647 0.115135
74 2 130.339 3.62879 0.212767
75 2 134.086 3.58011 15.8775
76 2 137.938 3.56099 0.208729
77 2 141.812 3.30179 0.240673
78 2 145.987 3.24397 0.0269689
79 2 149.869 3.21864 16.0096
80 2 153.788 3.48242 15.8776
81 2 157.925 7.20268 16.177
82 2 3.58067 7.20364 16.1153
83 2 7.50468 7.45454 15.9414
84 2 11.4048 7.62306 0.105976
85 2 15.7313 7.75861 16.1028
86 2 19.6422 7.704 16.0361
87 2 23.6788 7.6921 0.20893
88 2 27.5401 7.73655 15.9436
89 2 31.6615 7.74791 15.8081
90 2 35.5372 7.59027 16.0813
91 2 39.66 7.88451 0.270959
92 2 43.7657 7.78775 0.204387
93 2 47.7629 7.75705 15.8743
94 2 51.5748 8.04703 0.180444
95 2 55.6759 7.80115 15.6198
96 2 59.8418 7.95477 0.163155
97 2 63.7888 7.75621 15.8526
98 2 67.8328 7.92495 15.881
99 2 71.6404 7.98143 15.8874
100 2 75.6337 8.06972 15.9298
101 2 79.7193 7.96498 0.1239
102 2 83.3708 7.97335 16.0933
103 2 87.3657 7.87356 15.9637
104 2 91.306 7.7126 16.0117
105 2 95.1894 7.71188 16.0227
106 2 99.1347 7.71391 0.284862
107 2 103.117 7.71288 0.253683
108 2 106.852 7.57069 15.6648
109 2 110.714 7.51525 0.10979
110 2 114.657 7.54072 15.7971
111 2 118.573 7.40723 15.8162
112 2 122.235 7.36141 15.8664
113 2 126.437 7.52759 15.8814
114 2 130.252 7.3662 -0.0395024
115 2 134.098 7.28068 0.19072
116 2 138.067 7.34433 15.674
117 2 142.152 7.26567 15.7413
118 2 146.332 7.33436 0.239984
119 2 149.77 7.35756 -0.092667
120 2 153.833 7.23189 15.9008
121 2 157.846 11.2762 15.8965
122 2 3.34438 11.299 16.0728
123 2 7.58277 11.2149 15.9586
124 2 11.4759 11.3755 0.223808
125 2 15.6978 11.3855 15.7726
126 2 19.4904 11.4651 16.0219
127 2 23.4517 11.4948 16.1553
128 2 27.5029 11.7608 15.7306
129 2 31.6404 11.5946 15.9153
130 2 35.6321 11.5605 15.9018
131 2 39.7305 11.5982 15.9828
132 2 43.7003 11.7791 0.305266
133 2 47.5589 11.9161 0.172468
134 2 51.6444 11.6356 15.9479
135 2 55.5922 11.8389 0.193915
136 2 59.5788 11.5909 15.99
137 2 63.6771 11.8097 0.0875041
138 2 67.7377 12.1149 15.9541
139 2 71.7147 12.0769 15.8617
140 2 75.8215 12.0545 15.8523
141 2 79.6523 11.9417 15.9983
142 2 83.4953 11.7622 15.8416
143 2 87.5082 11.7454 0.397806
144 2 91.2979 11.7761 0.208663
145 2 95.094 11.7382 16.0147
146 2 99.1599 11.7445 15.8989
147 2 103.087 11.6692 0.151201
148 2 106.748 11.5929 15.9741
149 2 110.834 11.4173 0.249433
150 2 114.666 11.3883 15.748
151 2 118.522 11.37 0.0996935
152 2 122.405 11.3837 0.0670199
153 2 126.242 11.4401 15.8591
154 2 130.213 11.471 15.863
155 2 134.226 11.5607 0.11492
156 2 138.013 11.2569 0.0431356
157 2 141.855 11.2476 0.207327
158 2 146.04 11.3926 0.0535775
159 2 149.857 11.2664 0.168832
160 2 153.828 11.0345 -0.0371266
161 2 157.821 15.152 15.9994
162 2 3.52588 15.3082 16.008
163 2 7.54528 15.1024 15.8684
164 2 11.4813 15.1882 15.851
165 2 15.44 15.5154 15.8752
166 2 19.494 15.4261 0.165475
167 2 23.6478 15.3329 0.181941
168 2 27.4488 15.5631 15.8454
169 2 31.7303 15.6688 0.136985
170 2 35.7095 15.6517 15.8724
171 2 39.657 15.6598 0.206193
172 2 43.7231 15.5852 0.40569
173 2 47.697 15.7112 0.129492
174 2 51.7108 15.7578 0.0784494
175 2 55.6148 15.7723 15.7567
176 2 59.719 15.6242 0.175047
177 2 63.6162 15.8411 15.9763
178 2 67.6167 15.8267 15.8851
179 2 71.4322 15.9808 0.174398
180 2 75.6883 16.004 0.0964874
181 2 79.6269 16.0526 15.9531
182 2 83.5367 15.6895 0.121898
183 2 87.4476 15.9614 16.0001
184 2 91.3711 15.7801 0.172366
185 2 95.3163 15.7232 15.8229
186 2 99.0564 15.75 16.101
187 2 103.159 15.6827 15.9385
188 2 106.993 15.5533 15.8479
189 2 110.744 15.5333 15.8839
190 2 114.76 15.4289 15.9041
191 2 118.496 15.5698 -0.202285
192 2 122.456 15.5169 15.9632
193 2 126.485 15.6348 15.8661
194 2 130.435 15.4156 0.131805
195 2 134.332 15.4022 -0.0110817
196 2 138.173 15.207 0.10375
197 2 142.017 15.3018 15.9188
198 2 145.923 15.2647 0.162176
199 2 149.884 15.2408 0.127777
200 2 153.937 15.1685 15.8863
201 2 157.787 19.141 15.9669
202 2 3.47386 19.0143 0.313279
203 2 7.43654 19.2464 0.314503
204 2 11.3395 19.0641 15.9314
205 2 15.6114 19.2194 15.8571
206 2 19.5811 19.2587 15.9453
207 2 23.4726 19.3476 15.8873
208 2 27.6577 19.4379 15.8725
209 2 31.6494 19.4212 15.9081
210 2 35.7389 19.5016 15.6548
211 2 39.6602 19.7345 0.0263904
212 2 43.7006 19.4657 15.8748
213 2 47.5849 19.615 15.8485
214 2 51.5871 19.5655 0.178746
215 2 55.6198 19.4243 15.9274
216 2 59.4933 19.6385 16.0223
217 2 63.3117 19.8338 16.0328
218 2 67.7028 19.9933 15.834
219 2 71.5544 19.6858 0.294005
220 2 75.5663 20.0768 0.150687
221 2 79.8062 19.8437 0.212983
222 2 83.4425 19.8041 15.947
223 2 87.4755 19.8973 0.385811
224 2 91.349 19.873 0.0656154
225 2 95.057 19.8333 15.9496
226 2 99.0574 19.6851 16.0155
227 2 103.055 19.6049 15.9874
228 2 106.969 19.4654 15.8149
229 2 110.989 19.5017 0.0215645
230 2 114.796 19.8314 15.8361
231 2 118.582 19.3752 15.6824
232 2 122.433 19.5488 15.8241
233 2 126.409 19.519 15.8261
234 2 130.335 19.541 15.8092
235 2 134.32 19.4379 0.122241
236 2 138.143 19.3329 15.8325
237 2 142.156 19.4568 15.8817
238 2 146.231 19.2715 0.434016
239 2 149.884 19.2861 15.6486
240 2 153.868 19.1969 0.0122393
241 2 157.938 23.2288 15.9328
242 2 3.46352 23.1111 15.8184
243 2 7.19591 23.0642 0.148125
244 2 11.267 23.0145 0.106265
245 2 15.3386 23.0808 16.1673
246 2 19.2781 23.4196 15.7246
247 2 23.4271 23.2204 15.899
248 2 27.4527 23.2448 15.8063
249 2 31.3867 23.3282 0.319095
250 2 35.4477 23.2517 15.8835
251 2 39.4996 23.554 0.148486
252 2 43.5813 23.4103 16.0248
253 2 47.5169 23.3415 0.0408126
254 2 51.4949 23.4079 0.20754
255 2 55.5575 23.5367 0.175477
256 2 59.4317 23.6546 15.7435
257 2 63.4051 23.6021 0.112231
258 2 67.5396 23.4583 15.871
259 2 71.4514 23.7644 15.9713
260 2 75.6148 23.8132 0.0333495
261 2 79.6116 23.8271 16.0819
262 2 83.6389 23.7809 0.164897
263 2 87.7206 24.001 16.0646
264 2 91.4884 23.8359 15.9966
265 2 95.4081 23.8313 16.0169
266 2 99.1103 23.7244 0.152955
267 2 103.184 23.8871 15.9106
268 2 107.054 23.6473 16.105
269 2 110.906 23.6173 0.105072
270 2 114.656 23.8564 15.67
271 2 118.762 23.6221 15.7603
272 2 122.745 23.4671 0.130198
273 2 126.548 23.3638 15.7766
274 2 130.404 23.3679 15.8211
275 2 134.211 23.3146 15.8892
276 2 138.342 23.3521 16.0752
277 2 142.365 23.3732 15.8787
278 2 146.273 23.3233 0.299587
279 2 150.173 23.0184 0.212537
280 2 153.981 23.3078 0.143828
281 2 157.803 27.3171 -0.0042667
282 2 3.46497 27.14 0.0830638
283 2 7.49913 27.0823 0.259637
284 2 11.3874 27.0033 15.9605
285 2 15.1886 27.321 15.7223
286 2 19.4683 27.0786 0.284165
287 2 23.4808 27.1946 15.8616
288 2 27.5216 27.1699 15.8608
289 2 31.2403 27.1536 0.0806845
290 2 35.5163 27.2006 0.279112
291 2 39.402 27.2312 0.324304
292 2 43.4386 27.3843 0.229297
293 2 47.5556 27.3482 0.0827149
294 2 51.5015 27.4747 16.0404
295 2 55.3846 27.5218 0.182738
296 2 59.3976 27.5587 16.0114
297 2 63.489 27.6583 16.0117
298 2 67.5386 27.3253 16.073
299 2 71.484 27.684 15.9026
300 2 75.5994 27.522 0.321892
301 2 79.5638 27.7143 0.0137781
302 2 83.4332 27.3945 15.9391
303 2 87.5234 27.7169 0.149429
304 2 91.5589 27.8492 0.266804
305 2 95.18 27.8538 0.207052
306 2 99.0482 27.6817 0.15778
307 2 103.091 27.7022 15.9435
308 2 106.839 27.6794 0.154112
309 2 111.059 27.5578 15.7778
310 2 115.035 27.8845 15.961
311 2 118.877 27.6608 0.0860487
312 2 122.916 27.5304 0.030933
313 2 126.694 27.6341 15.9797
314 2 130.675 27.4699 15.9708
315 2 134.451 27.391 15.865
316 2 138.361 27.3056 15.6638
317 2 142.224 27.3663 0.150539
318 2 146.263 27.1082 0.0917633
319 2 150.17 27.1993 0.169898
320 2 153.875 27.3141 0.248873
321 2 157.995 31.228 15.9506
322 2 3.56725 31.2404 15.7877
323 2 7.59259 31.1528 15.736
324 2 11.4841 30.8998 0.180157
325 2 15.4783 30.9223 0.15294
326 2 19.401 30.9981 15.8481
327 2 23.3667 30.9602 15.8862
328 2 27.2807 31.2427 0.17886
329 2 31.4582 31.0693 15.9444
330 2 35.4251 31.2385 15.6803
331 2 39.4795 31.3842 16.0461
332 2 43.457 31.15 0.244551
333 2 47.3965 31.3152 16.0384
334 2 51.3577 31.1891 0.262104
335 2 55.3975 31.4852 16.062
336 2 59.4043 31.3174 0.285881
337 2 63.5373 31.484 15.9165
338 2 67.3797 31.3229 0.263458
339 2 71.2664 31.5547 0.214039
340 2 75.4483 31.6714 0.173137
341 2 79.5481 31.6079 15.8647
342 2 83.5693 31.6376 0.170626
343 2 87.3791 31.6447 15.7157
344 2 91.5799 31.6765 15.8012
345 2 95.5458 31.7389 16.0418
346 2 99.3153 31.9524 0.0282768
347 2 103.183 31.744 16.0971
348 2 107.074 31.6486 16.012
349 2 111.136 31.4752 15.8482
350 2 115.152 31.7022 15.6266
351 2 118.981 31.7149 16.0977
352 2 122.746 31.5512 15.9312
353 2 126.591 31.3548 15.8134
354 2 130.614 31.5045 15.9642
355 2 134.468 31.5139 15.8435
356 2 138.442 31.2987 15.9746
357 2 142.329 31.1961 0.129653
358 2 146.275 31.2894 15.8502
359 2 150.037 31.2341 0.322212
360 2 154.081 31.1634 -0.0438991
361 2 -0.0703499 35.352 0.0111265
362 2 3.80729 35.1448 15.8524
363 2 7.57978 35.1282 15.9244
364 2 11.4117 34.9433 15.8667
365 2 15.5312 34.9503 0.103329
366 2 19.4831 35.0377 0.180202
367 2 23.3332 34.8767 0.182332
368 2 27.2816 35.0037 0.253105
369 2 31.4363 35.0611 0.207737
370 2 35.3509 35.1188 0.221241
371 2 39.2878 35.0391 0.248042
372 2 43.5049 35.3078 15.7802
373 2 47.1856 35.1671 15.9552
374 2 51.1813 35.2784 16.0805
375 2 55.3454 35.3471 0.101628
376 2 59.4831 35.4516 0.194239
377 2 63.4085 35.2476 15.9
378 2 67.2942 35.2905 0.278434
379 2 71.534 35.2964 0.228698
380 2 75.583 35.6208 15.8863
381 2 79.3746 35.5744 0.506075
382 2 83.3763 35.661 15.9152
383 2 87.5192 35.6209 0.228133
384 2 91.3721 35.6314 0.17205
385 2 95.4973 35.6306 15.7823
386 2 99.3543 35.7587 0.231535
387 2 103.288 35.8805 15.9468
388 2 107.301 35.717 16.0056
389 2 111.141 35.3802 15.8815
390 2 115.047 35.723 15.7557
391 2 119.01 35.7557 15.8089
392 2 122.865 35.5334 16.1444
393 2 126.858 35.53 15.924
394 2 130.846 35.4722 15.8257
395 2 134.732 35.5122 15.8109
396 2 138.456 35.5226 0.123638
397 2 142.378 35.3182 0.2588
398 2 146.251 35.2493 0.260846
399 2 150.194 35.2856 15.9185
400 2 154.1 35.2677 0.039336
401 2 158.091 39.3704 0.244723
402 2 3.68241 39.187 0.00341901
403 2 7.687 38.9887 -0.0708331
404 2 11.6484 39.0649 15.8645
405 2 15.4717 39.281 0.138821
406 2 19.37 38.9575 15.9617
407 2 23.2737 38.8763 15.9582
408 2 27.3869 38.9222 15.8049
409 2 31.2129 38.7921 0.123779
410 2 35.2682 38.9015 0.275962
411 2 39.2951 38.8978 15.9918
412 2 43.3277 39.183 0.113584
413 2 47.3209 38.9683 0.297748
414 2 51.2659 39.1181 16.1904
415 2 55.3138 39.3046 -0.0569306
416 2 59.272 39.3251 0.0885607
417 2 63.2203 39.3212 0.130396
418 2 67.4588 39.1619 0.147188
419 2 71.3517 39.2903 0.226678
420 2 75.3719 39.4718 0.0689251
421 2 79.5863 39.3948 0.157946
422 2 83.3897 39.4909 15.7604
423 2 87.3793 39.7278 15.8258
424 2 91.4492 39.5753 15.7976
425 2 95.1949 39.6589 15.8784
426 2 99.4894 39.7493 0.27053
427 2 103.362 39.84 16.0009
428 2 107.418 39.7667 15.8986
429 2 111.167 39.7636 15.9935
430 2 115.081 39.7206 15.8593
431 2 119.024 39.6813 15.9754
432 2 122.954 39.4937 15.8958
433 2 126.85 39.4759 0.271863
434 2 130.9 39.3908 15.98
435 2 134.675 39.3423 15.9706
436 2 138.692 39.3407 15.7887
437 2 142.509 39.5138 15.719
438 2 146.318 39.4468 0.185818
439 2 150.448 39.2956 15.8822
440 2 154.21 39.3249 15.7606
441 2 158.099 43.2257 0.373239
442 2 3.76084 43.0395 16.0285
443 2 7.59635 43.1541 15.8358
444 2 11.6241 42.9581 0.21734
445 2 15.4597 43.0076 0.0616396
446 2 19.3802 43.011 0.324469
447 2 23.1686 42.9661 15.9022
448 2 27.1785 42.7681 15.7623
449 2 31.3553 43.0095 0.207458
450 2 35.2256 42.6423 0.273982
451 2 39.3683 43.0583 0.173234
452 2 43.3478 42.8203 0.318369
453 2 47.3518 42.9552 16.1427
454 2 51.2586 43.2508 15.8561
455 2 55.3349 43.1137 0.053277
456 2 59.4169 43.2275 15.7138
457 2 63.2089 43.4076 0.143557
458 2 67.1908 43.2677 0.342332
459 2 71.3973 43.1029 0.194381
460 2 75.1919 43.3077 0.146097
461 2 79.1092 43.2099 0.133769
462 2 83.4375 43.4641 15.822
463 2 87.3128 43.2849 16.1311
464 2 91.297 43.5202 0.2136
465 2 95.3691 43.4921 -0.0194757
466 2 99.3028 43.5848 15.9794
467 2 103.415 43.7283 15.9846
468 2 107.295 43.4486 16.0278
469 2 111.338 43.7357 16.2381
470 2 114.872 43.5769 15.7691
471 2 119.161 43.5255 15.9594
472 2 122.878 43.6641 15.8353
473 2 127.129 43.4041 0.347079
474 2 130.932 43.6143 0.265461
475 2 134.778 43.7616 15.9585
476 2 138.687 43.6635 15.903
477 2 142.434 43.4847 15.7193
478 2 146.387 43.4634 -0.0907359
479 2 150.3 43.4215 0.159491
480 2 154.19 43.2769 0.194903
481 2 -0.134801 47.2005 0.318993
482 2 4.00992 47.2329 0.120188
483 2 7.8963 47.0659 0.279619
484 2 11.8858 47.1313 0.390588
485 2 15.6613 46.929 0.292199
486 2 19.2996 46.9478 0.322233
487 2 23.4969 46.9422 0.181858
488 2 27.2597 46.8085 15.9793
489 2 31.07 46.7645 0.202053
490 2 35.1999 46.6964 0.0750954
491 2 39.0972 46.9061 15.7655
492 2 43.2749 46.8802 16.048
493 2 47.025 47.0488 0.356907
494 2 51.158 46.9927 15.8833
495 2 55.2007 46.9364 15.9091
496 2 59.2242 47.1495 15.9282
497 2 63.1396 47.1032 0.283934
498 2 67.2622 47.0047 0.242439
499 2 71.1391 46.9745 15.9229
500 2 75.2155 47.2704 0.130669
501 2 79.129 47.1019 15.7781
502 2 83.4088 47.3006 15.8834
503 2 87.4065 47.4435 0.141095
504 2 91.2026 47.3472 0.196934
505 2 95.2209 47.3181 0.155273
506 2 99.3078 47.4922 0.257706
507 2 103.399 47.5919 -0.0851021
508 2 107.246 47.7215 16.1079
509 2 111.373 47.6859 16.0099
510 2 115.253 47.6094 0.144127
511 2 119.297 47.596 15.7429
512 2 123.033 47.6807 15.8849
513 2 126.886 47.5255 16.0329
514 2 130.582 47.5829 15.9376
515 2 134.767 47.5335 16.1241
516 2 138.748 47.5055 15.9701
517 2 142.554 47.4478 15.998
518 2 146.532 47.594 0.321508
519 2 150.316 47.43 0.0118137
520 2 154.185 47.5057 15.9537
521 2 158.442 51.2809 0.186788
522 2 4.00001 51.3369 16.0768
523 2 7.935 51.1652 16.031
524 2 11.6977 51.0403 15.9782
525 2 15.5862 50.8694 0.288436
526 2 19.4849 50.8501 15.9762
527 2 23.4392 50.9028 15.9091
528 2 27.3481 50.8504 15.7907
529 2 31.2595 50.7625 -0.0385064
530 2 35.3102 50.5589 -0.00323985
531 2 39.1819 50.7627 15.9567
532 2 43.192 50.6372 15.8291
533 2 47.1056 50.9545 0.192426
534 2 51.2506 50.7604 0.103291
535 2 55.0512 50.765 -0.0172429
536 2 59.1032 50.8651 15.9632
537 2 63.1268 50.9318 15.8481
538 2 67.1223 51.0942 0.306927
539 2 71.2898 50.8471 0.162719
540 2 75.2822 51.0041 0.0930789
541 2 79.1349 51.0935 0.100743
542 2 83.285 51.2976 0.245882
543 2 87.2485 51.3927 0.0823971
544 2 91.3997 51.3873 0.0538606
545 2 95.2766 51.4327 0.11436
546 2 99.1977 51.3622 -0.0707655
547 2 103.423 51.3963 15.9651
548 2 107.375 51.6008 -0.0162284
549 2 111.392 51.4667 0.178787
550 2 115.442 51.626 15.9447
551 2 119.159 51.7393 15.8616
552 2 122.961 51.5932 15.9599
553 2 127.02 51.6037 16.0921
554 2 130.993 51.4794 0.345304
555 2 134.759 51.5421 0.319988
556 2 138.646 51.4271 0.324442
557 2 142.473 51.5197 0.320004
558 2 146.704 51.4685 16.0085
559 2 150.647 51.3512 0.0477035
560 2 154.244 51.2978 0.239576
561 2 158.626 55.409 0.141568
562 2 4.04 55.3597 0.172101
563 2 7.91175 55.1103 0.144637
564 2 11.9157 54.9221 0.211469
565 2 15.7046 55.0723 0.19439
566 2 19.6721 54.7361 16.0178
567 2 23.5676 54.9265 15.888
568 2 27.2446 54.9356 15.9897
569 2 31.1349 54.8656 0.109149
570 2 35.3048 54.8098 0.385388
571 2 39.1765 54.9612 15.8359
572 2 43.1185 54.598 15.7605
573 2 47.0901 54.658 0.0888344
574 2 51.1044 54.9754 15.6781
575 2 55.0052 54.5446 15.6921
576 2 59.0778 54.7676 15.8797
577 2 63.2298 54.9413 16.0184
578 2 67.0936 54.7668 0.260809
579 2 70.9807 54.8455 0.0584268
580 2 75.267 55.0478 15.9549
581 2 79.0836 55.1542 0.119968
582 2 83.3021 55.2072 0.0422957
583 2 87.3067 55.2106 0.210859
584 2 91.299 55.3283 15.9245
585 2 95.3086 55.311 0.0180836
586 2 99.3802 55.2244 15.7962
587 2 103.248 55.3649 15.9433
588 2 107.303 55.474 0.0963939
589 2 111.303 55.3657 15.9823
590 2 115.164 55.5968 15.8554
591 2 119.146 55.6565 15.8287
592 2 123.087 55.6607 0.0590151
593 2 126.994 55.5782 15.8857
594 2 131.031 55.4353 16.1291
595 2 134.996 55.5762 0.165033
596 2 138.817 55.4111 16.0399
597 2 142.684 55.5037 0.235892
598 2 146.49 55.5222 0.221825
599 2 150.596 55.5035 0.307014
600 2 154.524 55.1663 16.0449
601 2 158.613 59.2288 0.36728
602 2 4.10614 59.1534 16.0244
603 2 8.03929 59.2234 16.0584
604 2 11.7659 59.0297 0.0984461
605 2 15.5557 58.9736 15.9174
606 2 19.4635 58.9669 0.330437
607 2 23.6531 58.9748 0.215657
608 2 27.446 58.6904 0.0126063
609 2 31.3555 58.7915 16.0721
610 2 35.2162 58.5742 16.2295
611 2 39.142 58.5626 15.78
612 2 43.1379 58.5526 15.9386
613 2 47.1092 58.8618 15.8097
614 2 51.0575 58.8076 15.8921
615 2 55.0372 58.4858 15.8196
616 2 58.7258 58.6296 0.382311
617 2 62.9791 58.6622 16.0735
618 2 66.9624 58.8709 0.327309
619 2 71.2096 58.8391 15.9838
620 2 75.151 58.7927 0.197563
621 2 79.2003 58.8966 0.174919
622 2 83.2997 59.0198 0.309961
623 2 87.2981 59.1042 15.9842
624 2 91.1923 59.126 15.9387
625 2 95.3119 59.083 0.172091
626 2 99.238 59.1986 0.278872
627 2 103.117 59.1936 15.8806
628 2 107.222 59.3376 0.190931
629 2 111.24 59.4721 15.8688
630 2 114.978 59.5994 15.9355
631 2 119.235 59.6171 15.9654
632 2 123.225 59.5124 0.289921
633 2 127.094 59.61 15.9489
634 2 131.164 59.354 0.143478
635 2 135.018 59.4015 15.8495
636 2 139.04 59.5268 0.234791
637 2 142.808 59.5332 0.0802053
638 2 146.721 59.2949 0.0533547
639 2 150.615 59.2875 15.9083
640 2 154.622 59.2031 -0.0645828
641 2 0.17478 63.1715 0.376181
642 2 4.11218 63.1128 0.248553
643 2 7.84843 63.1408 15.8351
644 2 11.8483 63.0308 15.9518
645 2 15.6289 63.1624 15.9109
646 2 19.8923 62.9319 0.272402
647 2 23.7254 62.886 0.193708
648 2 27.4346 62.816 0.0636588
649 2 31.2933 62.6078 0.100635
650 2 35.5129 62.6305 0.0879598
651 2 39.2491 62.424 15.9639
652 2 43.141 62.5819 0.249664
653 2 47.2448 62.6312 16.0117
654 2 51.1545 62.6997 15.8237
655 2 55.0075 62.7447 0.0255116
656 2 58.9035 62.8082 15.7407
657 2 63.1239 62.7183 0.179714
658 2 67.1142 62.869 15.8766
659 2 71.0893 62.7579 -0.00361189
660 2 75.0681 62.6601 0.16166
661 2 79.1131 62.9463 0.270154
662 2 83.0131 62.7499 0.333685
663 2 87.0881 63.1156 16.1347
664 2 91.0832 62.9871 15.9798
665 2 95.3099 63.1695 0.0467797
666 2 99.1299 63.2651 0.103559
667 2 103.219 63.1288 15.9538
668 2 107.243 63.3259 15.9108
669 2 111.175 63.479 15.95
670 2 115.109 63.4908 0.0830087
671 2 119.107 63.552 15.9898
672 2 123.145 63.7211 0.197527
673 2 127.22 63.5136 15.9513
674 2 131.139 63.4466 0.0900419
675 2 134.959 63.6444 15.8907
676 2 138.965 63.3439 15.9883
677 2 142.948 63.5356 16.0605
678 2 146.804 63.2481 0.150999
679 2 150.794 63.2297 16.0834
680 2 154.712 63.248 0.308737
681 2 0.207303 67.309 0.116993
682 2 4.20131 67.0825 0.19688
683 2 8.12955 67.0011 15.9607
684 2 12.0623 67.1224 15.8716
685 2 15.8495 67.0792 0.112765
686 2 19.8012 67.024 0.307055
687 2 23.7682 66.8294 0.24062
688 2 27.5782 66.8351 0.0249382
689 2 31.5588 66.7711 0.0821543
690 2 35.5141 66.6282 0.305403
691 2 39.2389 66.6019 15.9078
692 2 43.1344 66.6904 0.0680808
693 2 47.1691 66.4961 15.7985
694 2 50.9921 66.5169 15.8646
695 2 55.0931 66.5112 15.9052
696 2 58.9509 66.4932 15.7233
697 2 62.9995 66.6959 15.847
698 2 67.0646 66.8163 15.6907
699 2 71.1985 66.6538 -0.0813235
700 2 74.8256 66.5917 15.9364
701 2 79.0684 66.8889 16.0012
702 2 83.0206 67.0014 0.0741145
703 2 87.133 66.8583 15.7891
704 2 91.0625 66.9307 15.7519
705 2 95.0923 67.1246 0.35035
706 2 99.1043 67.2108 0.14506
707 2 103.145 67.0214 0.238961
708 2 107.161 67.1343 15.8254
709 2 111.078 67.2428 15.9143
710 2 115.148 67.2238 15.9862
711 2 118.924 67.511 0.138359
712 2 123.087 67.3292 0.389786
713 2 127.158 67.5088 0.281238
714 2 131.051 67.4146 15.8693
715 2 135.065 67.5449 0.40715
716 2 138.917 67.2906 0.204066
717 2 142.762 67.4032 15.8931
718 2 147.035 67.5539 16.037
719 2 150.875 67.2456 15.8668
720 2 154.862 67.429 0.0388047
721 2 0.300026 71.2765 -0.0127355
722 2 4.3214 71.225 16.0028
723 2 8.005 71.1899 0.295865
724 2 11.939 70.9832 15.9549
725 2 15.8982 70.9233 0.336472
726 2 19.88 70.8932 0.385461
727 2 23.6424 70.8972 0.219998
728 2 27.4558 70.759 15.9571
729 2 31.382 70.7845 0.268515
730 2 35.2926 70.5809 0.13126
731 2 39.2888 70.5773 15.793
732 2 43.2819 70.5695 0.154037
733 2 46.9587 70.6172 16.0321
734 2 51.1307 70.63 15.8983
735 2 55.0472 70.3107 0.231573
736 2 58.8581 70.4454 0.226685
737 2 63.0581 70.5423 0.0791725
738 2 66.9694 70.4818 15.9399
739 2 71.015 70.6498 15.986
740 2 75.0627 70.6631 15.9294
741 2 79.12 70.7103 0.146346
742 2 83.1374 70.731 0.133205
743 2 86.9242 70.6879 16.0681
744 2 91.1404 70.7207 15.8176
745 2 95.0411 70.878 15.8768
746 2 98.9663 71.1653 16.008
747 2 103.168 70.955 16.0007
748 2 107.041 71.0734 15.7543
749 2 111.116 71.121 15.8732
750 2 115.123 71.2339 0.322524
751 2 118.949 71.4448 15.8234
752 2 123.117 71.4736 0.0588617
753 2 127.053 71.4673 15.8956
754 2 131.119 71.4055 15.8675
755 2 135.088 71.4245 15.8579
756 2 138.855 71.3941 15.8307
757 2 142.758 71.3224 0.206218
758 2 146.674 71.2462 0.0338746
759 2 150.865 71.2879 0.15217
760 2 154.756 71.3434 15.9133
761 2 0.132304 75.3917 0.259155
762 2 4.15903 75.1797 15.9087
763 2 8.28122 75.1979 16.0332
764 2 12.1393 75.1263 16.0584
765 2 16.0036 75.0045 16.0424
766 2 19.786 74.8323 16.0461
767 2 23.7176 74.8735 16.0035
768 2 27.6211 74.6933 15.8518
769 2 31.5332 74.7675 0.010379
770 2 35.5101 74.7081 15.9225
771 2 39.5064 74.5458 15.8982
772 2 43.157 74.653 0.209416
773 2 47.1678 74.6684 15.9056
774 2 51.2568 74.6554 0.12705
775 2 55.0875 74.577 15.9518
776 2 59.0212 74.3193 15.9257
777 2 62.8888 74.2919 15.7445
778 2 66.8945 74.2707 0.182611
779 2 70.8018 74.594 0.21349
780 2 74.8101 74.6994 0.159191
781 2 78.9305 74.7322 0.0640998
782 2 82.9514 74.8034 0.396522
783 2 87.0427 74.523 0.0192123
784 2 90.9103 74.7414 15.9311
785 2 95.0108 74.7994 16.0437
786 2 99.0758 75.0483 -0.05608
787 2 103.026 74.7003 15.9326
788 2 107.251 75.158 15.907
789 2 111.037 75.0717 16.0999
790 2 114.902 75.2249 15.8995
791 2 119.096 75.2381 0.142004
792 2 123.042 75.2166 16.0903
793 2 127.003 75.3443 16.1158
794 2 130.97 75.3537 0.0403556
795 2 134.967 75.4297 16.0442
796 2 138.942 75.2479 15.9412
797 2 142.947 75.342 16.0095
798 2 146.863 75.3633 16.0635
799 2 150.833 75.4918 0.384187
800 2 154.642 75.3813 0.283848
801 2 0.301168 79.3878 0.419521
802 2 4.32075 79.3534 15.9292
803 2 8.28826 79.0986 0.129111
804 2 12.0763 79.1467 0.29263
805 2 15.925 78.961 16.0424
806 2 19.9871 78.9913 15.9783
807 2 23.7985 78.7233 0.252108
808 2 27.8214 78.9435 0.383154
809 2 31.71 78.7078 0.222422
810 2 35.5426 78.6948 0.30873
811 2 39.5178 78.8204 15.9174
812 2 43.33 78.6534 15.8848
813 2 47.3009 78.5654 16.087
814 2 51.3685 78.4626 -0.0340103
815 2 55.1378 78.4471 0.0449235
816 2 59.0575 78.3228 15.9286
817 2 62.9504 78.2774 16.026
818 2 66.8266 78.2196 0.293522
819 2 71.0018 78.4228 15.9761
820 2 74.807 78.4797 0.0508227
821 2 78.9735 78.3966 15.9171
822 2 82.9326 78.477 16.1139
823 2 86.8683 78.5196 0.240838
824 2 90.8113 78.5906 0.0734498
825 2 94.9039 78.7519 0.148549
826 2 98.9372 78.8352 15.905
827 2 103.057 78.8801 15.9954
828 2 106.887 78.985 0.0495007
829 2 111.15 78.9436 0.269299
830 2 114.854 79.181 0.0600958
831 2 119.07 79.0073 0.290885
832 2 122.962 79.2644 16.1177
833 2 126.968 79.3581 0.245694
834 2 130.818 79.2861 15.8062
835 2 134.759 79.1524 0.137999
836 2 138.94 79.3928 15.9658
837 2 143.041 79.2162 15.962
838 2 146.878 79.3753 16.1017
839 2 150.849 79.6106 15.9302
840 2 154.552 79.4578 0.0483623
841 2 0.283873 83.3296 15.9793
842 2 4.23294 83.3476 16.1798
843 2 8.14606 83.2054 0.21001
844 2 12.3137 83.1583 15.9543
845 2 16.1591 83.0327 16.068
846 2 19.9212 82.886 0.205138
847 2 23.9328 82.9198 15.9508
848 2 27.747 82.8873 0.194326
849 2 31.6881 82.614 16.0556
850 2 35.4922 82.7157 0.36559
851 2 39.5659 82.6669 0.281828
852 2 43.5169 82.7329 16.0004
853 2 47.264 82.4388 0.181801
854 2 51.2743 82.4924 0.321916
855 2 55.173 82.4979 0.335489
856 2 59.0773 82.2603 16.0116
857 2 62.9257 82.329 16.1788
858 2 66.9015 82.2489 15.9655
859 2 70.7521 82.2058 16.1336
860 2 74.755 82.5222 15.9826
861 2 78.942 82.3299 15.9588
862 2 82.7649 82.4781 0.356963
863 2 86.96 82.3083 0.27736
864 2 90.8784 82.5348 15.8172
865 2 94.8915 82.4747 0.327597
866 2 98.7933 82.796 15.9586
867 2 102.821 82.7845 -0.121286
868 2 106.985 82.8737 15.9967
869 2 110.943 82.8572 15.9802
870 2 114.9 82.9205 15.9126
871 2 119.067 83.0145 15.7518
872 2 122.816 83.0844 15.9649
873 2 126.877 83.0489 15.8567
874 2 130.898 83.3939 16.0018
875 2 134.899 83.07 0.23432
876 2 138.806 83.3168 15.6345
877 2 142.91 83.3936 0.153404
878 2 146.856 83.1372 15.9797
879 2 151.024 83.4231 0.283728
880 2 154.637 83.3948 0.329129
881 2 0.518435 87.2717 15.8278
882 2 4.51322 87.1346 0.144841
883 2 8.43155 87.0972 16.0519
884 2 12.2423 87.1163 16.0118
885 2 16.1869 87.0696 15.9447
886 2 20.29 87.1159 15.9135
887 2 23.9804 87.097 15.7837
888 2 27.9687 86.9322 0.286136
889 2 31.7123 86.823 16.0138
890 2 35.5561 86.8341 0.156665
891 2 39.6024 86.7668 16.0192
892 2 43.5252 86.661 15.8722
893 2 47.5426 86.4571 15.9537
894 2 51.3334 86.6357 15.8795
895 2 55.2646 86.5624 15.9485
896 2 59.1661 86.2708 0.273405
897 2 63.0686 86.2224 0.303705
898 2 66.8806 86.3694 16.0273
899 2 70.6915 86.2907 0.329531
900 2 74.8498 86.2463 16.1171
901 2 78.8634 86.2285 0.216803
902 2 82.8848 86.1526 0.407551
903 2 86.8096 86.2972 15.9625
904 2 90.7631 86.5509 15.8307
905 2 94.8408 86.328 15.9299
906 2 98.7897 86.6541 15.8808
907 2 102.928 86.744 0.0881718
908 2 106.783 86.7521 0.11389
909 2 110.912 86.7463 15.923
910 2 114.623 86.7487 0.0728881
911 2 118.924 87.0191 0.0728125
912 2 122.798 86.9312 0.228361
913 2 126.93 86.993 15.9213
914 2 130.746 86.8598 15.7226
915 2 134.922 86.955 16.0553
916 2 139.004 87.209 15.9116
917 2 143.009 87.234 15.8859
918 2 146.902 87.1942 0.127675
919 2 150.964 87.3027 16.0917
920 2 154.94 87.3742 15.9884
921 2 0.774481 91.3008 0.225534
922 2 4.55833 91.1742 0.198651
923 2 8.51464 91.2648 15.9975
924 2 12.3811 91.1856 16.2554
925 2 16.1061 91.4397 0.184562
926 2 20.0879 91.0859 0.0697761
927 2 24.087 91.0502 16.1236
928 2 28.0963 91.0321 15.9784
929 2 31.819 90.9664 15.889
930 2 35.9253 90.8172 0.322346
931 2 39.6891 90.7969 15.9936
932 2 43.6165 90.7471 15.9135
933 2 47.5802 90.6304 0.308586
934 2 51.2939 90.6452 0.276072
935 2 55.3227 90.5001 0.160787
936 2 58.9974 90.4001 0.161967
937 2 62.8537 90.6611 -0.0847335
938 2 66.7914 90.3189 15.8275
939 2 70.7451 90.3357 16.0811
940 2 74.9278 90.2043 0.504692
941 2 78.7645 90.1573 0.238962
942 2 82.7772 90.0422 0.41365
943 2 86.5468 90.4904 0.119589
944 2 90.7123 90.1789 0.369572
945 2 94.839 90.5085 16.071
946 2 98.7871 90.5421 15.8626
947 2 102.647 90.5194 0.0867271
948 2 106.663 90.5233 15.803
949 2 110.631 90.7129 15.6172
950 2 114.812 90.6905 0.0733175
951 2 118.926 90.7661 0.110431
952 2 122.739 90.8411 16.1082
953 2 126.956 90.919 0.301724
954 2 131.008 90.8608 0.323215
955 2 134.844 91.0219 16.0403
956 2 138.899 91.0896 15.8884
957 2 142.862 91.1897 15.8591
958 2 147.042 91.057 15.9398
959 2 151.055 91.1291 15.9141
960 2 154.993 91.336 15.8933
961 2 0.569083 95.2831 0.228383
962 2 4.68234 95.3188 16.0408
963 2 8.46966 95.2745 15.8848
964 2 12.4054 94.9814 16.0529
965 2 16.3582 95.1356 15.8726
966 2 20.3473 95.13 15.9203
967 2 24.0626 95.0488 15.78
968 2 27.8924 94.934 15.8616
969 2 31.7957 94.7821 16.0241
970 2 35.7173 94.6542 15.934
971 2 39.5683 94.7454 15.9361
972 2 43.7142 94.7947 16.0253
973 2 47.5491 94.7097 0.0319225
974 2 51.3208 94.7493 15.9252
975 2 55.3453 94.6691 0.177661
976 2 59.2204 94.3782 15.8245
977 2 62.9947 94.3016 0.166967
978 2 67.1117 94.3427 0.252473
979 2 71.0797 94.2154 0.134572
980 2 74.906 94.1394 0.304656
981 2 78.6532 94.1898 16.0078
982 2 82.7005 94.1515 0.143009
983 2 86.6973 94.4239 0.260515
984 2 90.6685 94.1889 0.114733