ITEM: TIMESTEP
21000
ITEM: NUMBER OF ATOMS
32000
ITEM: BOX BOUNDS xy xz yz pp pp pp
0.0000000000000000e+00 1.5831999999999999e+02 0.0000000000000000e+00
0.0000000000000000e+00 1.5831999999999999e+02 0.0000000000000000e+00
1.6642416072025856e-01 1.5931287839279598e+01 0.0000000000000000e+00
ITEM: ATOMS id type x y z
1 2 157.871 157.865 15.8987
2 2 3.71357 157.931 15.7985
3 2 7.74831 157.976 0.148359
4 2 11.7974 157.934 0.264252
5 2 15.3934 158.077 0.0676391
6 2 19.7582 157.957 16.0542
7 2 23.6692 158.124 16.0695
8 2 27.7746 157.969 16.059
9 2 31.6759 158.306 0.187236
10 2 35.8242 158.295 16.0819
11 2 39.7439 -0.0278522 16.0319
12 2 43.7702 -0.0441 0.167789
13 2 47.8626 -0.0657366 15.8053
14 2 51.6681 0.324382 0.294702
15 2 55.9053 158.394 0.266538
16 2 59.881 158.214 15.9371
17 2 63.8448 -0.0155018 15.9453
18 2 67.8894 0.137649 16.167
19 2 71.5322 0.0147179 16.0185
20 2 75.4332 158.475 16.0657
21 2 79.5761 -0.0101968 15.8197
22 2 83.4146 158.248 15.8547
23 2 87.2837 158.128 15.8082
24 2 91.0765 158.099 0.176276
25 2 94.8755 158.262 15.8601
26 2 98.8264 158.014 15.9228
27 2 102.915 158.018 15.9041
28 2 106.806 157.904 15.8562
29 2 110.838 157.925 0.297973
30 2 114.649 157.87 0.0614321
31 2 118.606 157.547 15.9124
32 2 122.433 157.681 0.141505
33 2 126.307 157.761 0.218852
34 2 130.293 157.765 0.236545
35 2 134.176 157.584 16.006
36 2 137.947 157.575 15.82
37 2 142.068 157.677 15.9405
38 2 146.068 157.428 15.9825
39 2 149.972 157.666 0.189012
40 2 154.01 157.555 0.0408574
41 2 157.798 3.3949 15.7223
42 2 3.55024 3.49856 16.0382
43 2 7.54892 3.47415 0.0974314
44 2 11.7678 3.7522 15.9596
45 2 15.5257 3.70605 16.0103
46 2 19.5075 3.54406 16.2474
47 2 23.7592 3.71335 0.300471
48 2 27.6923 3.59713 0.190771
49 2 31.6035 3.92613 0.168667
50 2 35.5247 4.02268 0.246842
51 2 39.5635 3.95142 0.129147
52 2 43.6079 3.81051 16.0142
53 2 47.8306 3.78236 15.7886
54 2 51.8551 3.94144 15.9541
55 2 55.8233 3.85826 0.134559
56 2 59.6698 3.90775 15.7471
57 2 63.7007 4.17078 15.9109
58 2 67.6229 4.11751 16.0702
59 2 71.7019 4.19755 16.0931
60 2 75.7775 4.12036 15.9239
61 2 79.4771 4.10943 15.8699
62 2 83.2534 3.91143 15.8226
63 2 87.0327 3.81285 15.8726
64 2 91.0404 3.75801 0.287215
65 2 95.1074 3.6959 16.095
66 2 98.946 3.6163 0.156611
67 2 102.855 3.56044 15.9589
68 2 106.732 3.45286 15.9896
69 2 110.815 3.53502 0.0107161
70 2 114.742 3.34441 0.131676
71 2 118.525 3.49877 0.0217197
72 2 122.399 3.36896 0.105687
73 2 126.36 3.4465 0.133469
74 2 130.288 3.31778 0.195637
75 2 134.2 3.22496 15.9451
76 2 138.149 3.32295 -0.168312
77 2 142.162 3.31809 0.161545
78 2 145.84 3.30019 0.192775
79 2 149.903 3.22019 15.8094
80 2 153.702 3.0921 15.6602
81 2 157.697 7.28667 15.9175
82 2 3.49027 7.48665 15.8833
83 2 7.61875 7.37509 15.8445
84 2 11.7731 7.41321 0.0488864
85 2 15.469 7.3899 15.6971
86 2 19.665 7.58923 15.953
87 2 23.5252 7.47989 0.276229
88 2 27.6868 7.47464 16.089
89 2 31.7393 7.70883 16.036
90 2 35.7264 7.91511 16.0215
91 2 39.6785 7.81261 0.161921
92 2 43.6745 7.93267 0.135049
93 2 47.6649 7.90259 16.0241
94 2 51.8058 7.71195 0.200603
95 2 55.8159 7.90743 16.0225
96 2 59.6784 7.81174 0.112508
97 2 63.7192 8.11433 15.8313
98 2 67.643 8.02794 16.0174
99 2 71.6889 8.15357 15.8481
100 2 75.6546 8.10152 15.9067
101 2 79.4358 7.85725 0.158737
102 2 83.4779 7.71697 15.8403
103 2 87.3299 7.70079 15.9696
104 2 91.1948 7.81987 15.9904
105 2 95.0821 7.71286 16.1451
106 2 98.9137 7.63556 0.222933
107 2 102.958 7.70568 0.0774469
108 2 106.892 7.5072 16.18
109 2 110.768 7.46442 0.269042
110 2 114.733 7.37141 15.917
111 2 118.557 7.51595 15.9538
112 2 122.666 7.40517 16.0084
113 2 126.43 7.35437 15.7513
114 2 130.26 7.49869 0.192089
115 2 134.095 7.50591 0.17241
116 2 137.897 7.3191 15.8515
117 2 141.945 7.31689 15.9384
118 2 145.606 7.19715 0.213485
119 2 149.731 7.0973 0.178486
120 2 153.667 7.20418 15.95
121 2 157.715 11.2058 16.2249
122 2 3.50622 11.3718 15.9502
123 2 7.38238 11.3941 15.9073
124 2 11.5865 11.4626 0.0874646
125 2 15.4635 11.6514 15.9872
126 2 19.701 11.5447 15.8513
127 2 23.7414 11.5752 15.98
128 2 27.5733 11.5559 16.074
129 2 31.5702 11.6693 15.8767
130 2 35.632 11.7079 15.8697
131 2 39.577 11.7659 15.923
132 2 43.6634 11.7358 0.156528
133 2 47.8299 11.496 0.240374
134 2 51.68 11.8474 16.0071
135 2 55.6822 11.8279 0.118206
136 2 59.6395 11.9431 15.9112
137 2 63.5983 11.7952 0.103272
138 2 67.6566 11.8718 15.8574
139 2 71.6783 11.9899 15.8739
140 2 75.5598 11.9388 15.9098
141 2 79.6071 11.9351 15.5788
142 2 83.5255 12.0874 15.9154
143 2 87.1699 11.852 0.069584
144 2 91.1705 11.7925 0.120465
145 2 95.1703 11.6363 15.9846
146 2 99.1621 11.7547 16.1184
147 2 103.069 11.6126 0.218538
148 2 107.102 11.4674 15.9736
149 2 110.766 11.5985 0.179109
150 2 114.76 11.6393 15.7527
151 2 118.762 11.5154 0.0315713
152 2 122.638 11.5265 0.143945
153 2 126.376 11.4347 15.7996
154 2 130.093 11.5022 15.9951
155 2 134.107 11.0976 0.227488
156 2 138.077 11.3257 -0.00836368
157 2 142.154 11.412 0.116705
158 2 145.867 11.1417 0.131472
159 2 149.919 11.2148 -0.158846
160 2 153.605 11.2073 0.137377
161 2 157.83 15.0751 16.0595
162 2 3.40214 15.1078 16.0194
163 2 7.31942 15.2811 15.8155
164 2 11.4892 15.3566 15.9626
165 2 15.5426 15.5307 15.8485
166 2 19.6336 15.3379 0.135186
167 2 23.4992 15.5093 0.138326
168 2 27.519 15.6306 15.9152
169 2 31.4685 15.3628 0.119545
170 2 35.5483 15.4968 15.8981
171 2 39.4856 15.8251 0.143202
172 2 43.5683 15.6918 0.180934
173 2 47.6788 15.6394 0.166008
174 2 51.5935 15.6683 0.0748921
175 2 55.5865 15.8717 15.8617
176 2 59.5899 15.9348 0.129578
177 2 63.6354 15.7643 16.0214
178 2 67.6155 15.8826 16.1588
179 2 71.8636 15.9203 0.236694
180 2 75.6096 15.9378 0.141024
181 2 79.5496 15.7241 15.6408
182 2 83.3125 15.9299 0.0142128
183 2 87.4863 15.7723 16.0042
184 2 91.3367 15.7745 0.153228
185 2 95.361 15.8595 16.1297
186 2 99.2551 15.6934 15.8801
187 2 103.14 15.5472 16.0508
188 2 107.091 15.575 16.0468
189 2 110.97 15.4733 15.8495
190 2 114.704 15.5314 15.7374
191 2 118.682 15.5215 0.285055
192 2 122.579 15.5852 15.9468
193 2 126.394 15.4196 15.8917
194 2 130.268 15.4734 0.0921045
195 2 134.308 15.3741 0.341828
196 2 138.13 15.3939 0.171812
197 2 142.01 15.4728 16.0489
198 2 146.058 15.2478 -0.0309523
199 2 149.925 15.1129 0.19977
200 2 153.649 15.1646 16.0361
201 2 157.874 19.0766 15.9827
202 2 3.60419 19.2631 0.16643
203 2 7.41678 18.9379 0.211829
204 2 11.3664 19.1199 15.9791
205 2 15.2353 19.426 15.9702
206 2 19.4182 19.3545 15.817
207 2 23.4164 19.3548 15.8301
208 2 27.4009 19.4893 15.9959
209 2 31.5534 19.3147 15.7958
210 2 35.4436 19.3343 16.1088
211 2 39.516 19.5937 0.251594
212 2 43.522 19.4907 16.0927
213 2 47.5743 19.5324 15.8174
214 2 51.6109 19.6769 0.213243
215 2 55.6334 19.836 16.0676
216 2 59.6651 19.6603 15.9275
217 2 63.6696 19.7436 15.826
218 2 67.5314 19.6959 15.9776
219 2 71.6894 19.9506 0.0863901
220 2 75.6993 19.6485 0.103033
221 2 79.4659 19.9138 0.0987698
222 2 83.7028 19.8718 15.9126
223 2 87.5178 19.9168 0.216935
224 2 91.342 19.8304 0.146626
225 2 95.278 19.7593 16.0557
226 2 99.2314 19.7507 15.9545
227 2 103.119 19.7718 16.0245
228 2 107.006 19.7762 16.0009
229 2 110.921 19.7641 0.148938
230 2 114.769 19.4111 15.7303
231 2 118.742 19.7931 15.8769
232 2 122.639 19.5505 15.9744
233 2 126.378 19.4291 15.9169
234 2 130.175 19.3533 15.9178
235 2 134.344 19.3367 0.117193
236 2 138.224 19.2891 15.8761
237 2 142.226 19.2052 15.9381
238 2 145.883 19.263 -0.163945
239 2 150.071 19.1365 16.0013
240 2 153.864 19.1568 0.160583
241 2 157.934 23.1232 16.0663
242 2 3.57881 23.1202 15.9467
243 2 7.37509 23.0741 0.165227
244 2 11.3187 22.9304 0.105113
245 2 15.3228 23.2453 15.5891
246 2 19.466 23.3163 15.9179
247 2 23.2866 23.1566 15.9205
248 2 27.337 23.3773 16.051
249 2 31.6998 23.3114 0.0296922
250 2 35.3495 23.3122 15.9237
251 2 39.5392 23.3298 0.176319
252 2 43.4146 23.3454 16.0502
253 2 47.5279 23.4447 0.208855
254 2 51.6229 23.5606 0.140394
255 2 55.4466 23.4964 0.151866
256 2 59.4375 23.6679 16.0016
257 2 63.5104 23.8043 0.0590133
258 2 67.5421 23.8564 15.9874
259 2 71.5853 23.6433 15.9044
260 2 75.5404 23.7203 0.167551
261 2 79.5969 23.7353 15.8276
262 2 83.4857 23.7491 0.211726
263 2 87.381 23.7748 15.8652
264 2 91.4484 24.0845 15.9395
265 2 95.3398 23.8555 16.0085
266 2 99.2726 23.6541 0.319144
267 2 103.057 23.6298 15.8904
268 2 106.822 23.7758 15.805
269 2 110.936 23.7623 -0.0195381
270 2 114.994 23.4635 15.9404
271 2 118.756 23.5782 15.963
272 2 122.633 23.713 0.224573
273 2 126.568 23.5589 15.8558
274 2 130.353 23.5075 15.8025
275 2 134.582 23.5231 15.9274
276 2 138.27 23.3161 15.6999
277 2 142.06 23.287 15.8313
278 2 146.213 23.2452 0.0132372
279 2 149.996 23.3446 -0.0469583
280 2 154.055 23.1426 0.252844
281 2 158.042 27.1083 0.0343151
282 2 3.48629 27.2357 0.121874
283 2 7.41627 27.1488 0.0661324
284 2 11.4382 27.0229 15.8957
285 2 15.4466 27.1747 16.0708
286 2 19.2689 27.224 0.0930535
287 2 23.4768 27.1496 15.8247
288 2 27.3179 27.0868 16.0318
289 2 31.5865 27.278 0.360752
290 2 35.4202 27.3932 0.214299
291 2 39.4874 27.3253 0.163793
292 2 43.581 27.2531 0.346089
293 2 47.4342 27.2937 0.320214
294 2 51.4424 27.3505 15.9315
295 2 55.5808 27.5878 0.32684
296 2 59.4575 27.5594 15.7685
297 2 63.4807 27.6602 15.8376
298 2 67.5139 27.5773 15.9234
299 2 71.6396 27.5093 16.0156
300 2 75.5665 27.6416 -0.0842119
301 2 79.616 27.5083 0.200734
302 2 83.6625 27.8245 15.8775
303 2 87.6491 27.7558 0.160862
304 2 91.4616 28.0546 -0.0637428
305 2 95.5333 27.7388 0.353578
306 2 99.2832 27.8502 0.109449
307 2 103.072 27.8548 16.0901
308 2 107.309 27.5524 0.165268
309 2 111.019 27.6384 16.0769
310 2 114.782 27.6026 15.7575
311 2 118.763 27.5329 -0.10262
312 2 122.55 27.5818 0.0281062
313 2 126.576 27.4351 15.753
314 2 130.741 27.5535 15.8913
315 2 134.634 27.504 15.9181
316 2 138.327 27.4899 16.1053
317 2 142.296 27.3083 0.18072
318 2 146.071 27.4003 0.107412
319 2 150.061 27.2275 0.125978
320 2 154.241 27.222 -0.0220464
321 2 157.964 31.2637 15.8597
322 2 3.56199 31.0193 15.6826
323 2 7.38476 31.0653 15.8451
324 2 11.4059 31.2478 0.0153396
325 2 15.5187 31.1661 0.168193
326 2 19.2955 30.9205 15.8242
327 2 23.2177 30.9028 15.777
328 2 27.528 31.1158 0.116658
329 2 31.4218 31.1309 15.8775
330 2 35.3571 31.2268 16.202
331 2 39.2744 31.0864 15.7974
332 2 43.1857 31.2042 -0.00615311
333 2 47.4274 31.1461 15.9266
334 2 51.4203 31.4464 0.288655
335 2 55.3495 31.4793 16.1092
336 2 59.3246 31.6078 0.117613
337 2 63.5347 31.4907 15.8948
338 2 67.6099 31.4375 0.13076
339 2 71.5589 31.3275 0.307171
340 2 75.5102 31.4587 0.0771719
341 2 79.5189 31.4941 16.0732
342 2 83.4095 31.498 0.0742791
343 2 87.4731 31.5993 15.9551
344 2 91.3891 31.8119 15.912
345 2 95.45 31.9195 15.7963
346 2 99.3829 31.6269 0.25471
347 2 103.364 31.8792 15.8497
348 2 107.17 31.6344 16.1039
349 2 110.971 31.7675 15.904
350 2 114.911 31.6554 15.8497
351 2 118.915 31.5239 15.5528
352 2 122.842 31.5808 15.8023
353 2 126.774 31.7822 15.8527
354 2 130.615 31.5583 15.6967
355 2 134.546 31.399 15.8008
356 2 138.422 31.5069 15.8658
357 2 142.413 31.3967 0.0956437
358 2 146.295 31.2063 16.0123
359 2 150.254 31.2382 0.0786506
360 2 154.029 31.3786 0.239774
361 2 -0.261163 35.1744 0.11729
362 2 3.57259 35.1132 15.8447
363 2 7.57045 35.0436 15.6831
364 2 11.6139 35.1169 15.9288
365 2 15.4566 34.879 0.100947
366 2 19.4913 34.9649 0.235884
367 2 23.3573 35.092 0.319649
368 2 27.352 34.9936 0.247808
369 2 31.1726 34.9698 0.217808
370 2 35.219 35.0229 0.121279
371 2 39.2926 35.0689 0.0456219
372 2 43.1426 34.8795 16.0468
373 2 47.2617 35.0883 15.8526
374 2 51.3934 35.2373 15.8916
375 2 55.3784 35.2998 0.161011
376 2 59.3301 35.1545 0.0970458
377 2 63.4883 35.5904 15.9977
378 2 67.4368 35.2957 0.13506
379 2 71.3228 35.505 0.154698
380 2 75.328 35.4015 15.8856
381 2 79.5706 35.4332 0.0798104
382 2 83.5563 35.4112 16.0595
383 2 87.4687 35.5221 0.209671
384 2 91.4114 35.6715 0.412665
385 2 95.5325 35.8324 16.1491
386 2 99.5809 35.7512 0.330437
387 2 103.527 35.6372 16.1304
388 2 107.233 35.6314 16.0176
389 2 111.2 35.9997 16.1168
390 2 114.943 35.5665 16.0077
391 2 118.822 35.5394 15.8026
392 2 122.813 35.5979 15.8538
393 2 126.763 35.6623 16.0003
394 2 130.772 35.4838 15.9692
395 2 134.572 35.3887 15.8454
396 2 138.656 35.3913 -0.0495668
397 2 142.448 35.3234 -0.0299348
398 2 146.222 35.4349 0.134789
399 2 150.288 35.2506 15.9624
400 2 154.146 35.1727 0.161572
401 2 158.141 39.0312 0.188093
402 2 3.67297 39.0541 0.0888762
403 2 7.71343 39.1506 0.132935
404 2 11.5851 38.9361 15.8635
405 2 15.6231 38.6931 0.0973692
406 2 19.3461 38.8738 15.8916
407 2 23.3881 39.1234 15.8885
408 2 27.0752 38.7973 15.8948
409 2 31.2484 38.9941 0.182192
410 2 35.2176 38.8586 0.192843
411 2 39.3396 38.9374 16.0003
412 2 43.3014 38.9911 0.0851177
413 2 47.1143 39.0282 0.0153812
414 2 51.3369 39.3289 15.9394
415 2 55.4293 39.1501 0.27618
416 2 59.2882 39.1583 0.0142163
417 2 63.3373 39.2796 0.0853586
418 2 67.2371 39.4425 0.0502661
419 2 71.3668 39.2452 0.129688
420 2 75.4501 39.3979 0.14591
421 2 79.3457 39.4403 0.278335
422 2 83.4027 39.3195 16.0217
423 2 87.357 39.4728 16.2092
424 2 91.2515 39.6322 16.0899
425 2 95.6264 39.606 16.0368
426 2 99.4855 39.6976 0.0840862
427 2 103.499 39.6282 16.0247
428 2 107.195 39.5834 16.0462
429 2 110.977 39.6028 15.9428
430 2 114.914 39.6966 15.8253
431 2 118.997 39.4895 15.925
432 2 122.781 39.7209 16.0558
433 2 126.837 39.6837 0.168242
434 2 130.738 39.5126 16.0027
435 2 134.766 39.4824 15.8632
436 2 138.746 39.5522 15.8339
437 2 142.556 39.2094 16.05
438 2 146.5 39.2297 0.115258
439 2 150.229 39.2898 15.8
440 2 154.143 39.1045 15.8493
441 2 158.209 43.2672 0.0997986
442 2 3.76247 43.1643 15.8447
443 2 7.66087 43.0206 16.0761
444 2 11.5251 43.0137 0.245047
445 2 15.4416 42.8299 0.163771
446 2 19.28 42.8433 0.133953
447 2 23.2524 42.7528 15.936
448 2 27.2225 42.8329 15.8836
449 2 31.135 42.6236 -0.0255115
450 2 35.3016 42.9409 0.264155
451 2 39.011 42.6332 0.418081
452 2 43.2659 43.1347 0.174104
453 2 47.2675 43.1079 15.7799
454 2 51.3137 42.9588 15.9354
455 2 55.2876 43.1779 -0.00580142
456 2 59.1359 43.266 15.8862
457 2 63.2648 43.0266 0.337896
458 2 67.3272 43.1874 0.152368
459 2 71.2695 43.393 0.154231
460 2 75.435 43.268 -0.0270197
461 2 79.3263 43.3991 0.166912
462 2 83.2481 43.2955 15.9503
463 2 87.4036 43.6217 15.8972
464 2 91.199 43.4145 -0.0481297
465 2 95.3547 43.534 0.160877
466 2 99.4647 43.5948 15.9334
467 2 103.28 43.5957 15.9323
468 2 107.313 43.755 15.7632
469 2 111.177 43.8409 16.0044
470 2 115.168 43.798 16.1995
471 2 119.047 43.7335 16.0716
472 2 122.973 43.5463 16.0187
473 2 126.713 43.9337 -0.062813
474 2 130.931 43.4897 0.103102
475 2 134.81 43.3353 16.1612
476 2 138.602 43.2861 15.8547
477 2 142.668 43.5502 15.8937
478 2 146.415 43.349 0.286937
479 2 150.292 43.3213 0.140941
480 2 154.367 43.2273 0.0963733
481 2 -0.11743 47.3935 0.0615542
482 2 3.62231 47.083 0.100209
483 2 7.89706 47.1549 0.303693
484 2 11.5785 46.9252 0.221985
485 2 15.4941 47.0594 0.253867
486 2 19.5366 46.9234 0.0896597
487 2 23.2586 46.7564 0.154922
488 2 27.4064 46.7457 15.8862
489 2 31.4057 46.6822 0.137617
490 2 35.2082 46.7177 0.154953
491 2 39.3606 46.8587 16.12
492 2 43.1693 46.8802 15.92
493 2 47.3258 46.9287 -0.00470607
494 2 51.3392 46.8644 15.8504
495 2 55.3414 47.0904 15.7948
496 2 59.277 47.0514 15.7884
497 2 63.2259 47.2779 -0.0848452
498 2 67.2479 47.2068 0.292346
499 2 71.124 47.1237 15.9424
500 2 75.2574 47.2473 0.163917
501 2 79.4011 47.1836 16.0358
502 2 83.1713 47.3565 15.986
503 2 87.3116 47.3825 0.25825
504 2 91.3696 47.4172 0.184423
505 2 95.4125 47.413 0.262291
506 2 99.3703 47.3413 0.0478555
507 2 103.43 47.4644 0.276846
508 2 107.479 47.605 15.8484
509 2 111.302 47.8372 15.9832
510 2 115.397 47.7584 0.167389
511 2 119.165 47.7947 15.7807
512 2 123.206 47.5936 15.8316
513 2 127.063 47.6585 15.9589
514 2 131.023 47.5941 15.857
515 2 134.676 47.6429 16.0638
516 2 138.654 47.4344 15.8536
517 2 142.66 47.4707 15.9745
518 2 146.43 47.4203 -0.00956765
519 2 150.458 47.2354 0.243494
520 2 154.202 47.2051 16.0335
521 2 158.178 51.3428 0.0508962
522 2 3.88576 51.0173 16.0279
523 2 7.83005 50.8374 16.0461
524 2 11.772 51.0688 16.0425
525 2 15.7139 51.0032 0.0643051
526 2 19.5629 51.1286 15.9835
527 2 23.417 50.8565 15.9921
528 2 27.3293 50.79 15.9579
529 2 31.2892 50.7392 -0.00102584
530 2 35.1053 50.6888 0.178781
531 2 39.3962 50.8073 15.8129
532 2 43.1663 50.795 15.9662
533 2 47.0977 50.7664 0.292851
534 2 50.9436 50.8086 0.0999503
535 2 55.3103 50.9325 0.0897517
536 2 59.2618 50.962 15.882
537 2 63.2045 51.1516 15.8084
538 2 67.2422 51.1457 0.152379
539 2 71.013 51.0777 0.235406
540 2 75.1286 51.1034 0.000691353
541 2 79.4654 51.2482 0.0731945
542 2 83.3216 51.1873 0.125511
543 2 87.2293 51.2871 0.184585
544 2 91.2518 51.3125 0.18392
545 2 95.364 51.3394 0.0680612
546 2 99.2793 51.1673 0.175502
547 2 103.21 51.5109 15.8953
548 2 107.216 51.6422 0.30506
549 2 111.24 51.7023 0.208152
550 2 115.306 51.6644 15.9362
551 2 119.318 51.5722 15.8625
552 2 123.095 51.8268 15.8811
553 2 126.974 51.5671 15.8813
554 2 130.9 51.5465 0.219211
555 2 135.004 51.4726 0.156085
556 2 138.749 51.5485 0.197182
557 2 142.828 51.3939 0.246422
558 2 146.586 51.3094 16.0685
559 2 150.39 51.4947 0.401231
560 2 154.37 51.2823 0.213502
561 2 158.279 55.1166 0.144263
562 2 4.09725 55.0045 0.00221632
563 2 7.96377 54.9517 0.0409004
564 2 11.5701 55.0171 0.259497
565 2 15.6038 54.9594 0.336801
566 2 19.3553 55.3002 15.9998
567 2 23.5227 54.8876 16.0563
568 2 27.4343 54.6697 15.9398
569 2 31.382 54.7044 0.0482065
570 2 35.1319 54.7004 -0.0941591
571 2 39.0006 54.3921 15.8643
572 2 43.1265 54.6664 15.9414
573 2 47.0507 54.7763 0.0488748
574 2 51.0397 54.6006 15.7503
575 2 55.2273 54.9701 16.0806
576 2 59.0497 54.8096 16.0272
577 2 63.0886 54.8353 15.901
578 2 67.099 55.1939 0.172559
579 2 71.3487 54.8878 0.251812
580 2 75.0539 54.9418 16.034
581 2 79.339 54.9757 0.156737
582 2 83.1417 55.0529 0.375825
583 2 87.1481 55.2162 0.183148
584 2 91.2687 55.1282 15.9844
585 2 95.3196 55.3416 0.1301
586 2 99.1808 55.1339 16.004
587 2 103.161 55.3893 15.8814
588 2 107.256 55.3916 0.161408
589 2 111.336 55.5888 15.919
590 2 115.34 55.7011 15.7585
591 2 119.116 55.4595 16.0064
592 2 123.364 55.7494 0.241564
593 2 127.208 55.6095 15.9476
594 2 131.001 55.6337 15.7732
595 2 134.818 55.3481 0.25825
596 2 138.638 55.5068 16.0062
597 2 142.698 55.4848 0.187256
598 2 146.711 55.3179 0.208922
599 2 150.491 55.2132 0.14177
600 2 154.391 55.3379 15.9033
601 2 158.42 59.1884 0.0556358
602 2 4.17313 59.1194 15.7347
603 2 8.04887 59.0456 15.9372
604 2 11.8074 58.9896 0.25746
605 2 15.6323 59.183 15.9006
606 2 19.9534 58.9367 0.129765
607 2 23.6628 58.8867 0.249068
608 2 27.4482 58.9469 0.20198
609 2 31.2455 58.7808 15.6797
610 2 35.2277 58.6932 15.8237
611 2 39.2622 58.5401 16.1009
612 2 43.0477 58.602 15.9333
613 2 47.134 58.5176 15.7923
614 2 51.2057 58.5411 15.8121
615 2 55.132 58.7861 15.9464
616 2 59.3044 58.8378 0.0784661
617 2 63.0899 58.9017 15.7542
618 2 67.218 59.0075 0.245558
619 2 71.2207 58.8669 15.9379
620 2 75.2642 58.9726 0.210555
621 2 79.1808 58.8923 0.173674
622 2 83.1398 58.9972 0.148601
623 2 87.0173 59.0757 15.9254
624 2 91.2119 59.1946 15.939
625 2 95.1854 59.3314 0.23305
626 2 99.2494 59.2611 -0.0320263
627 2 103.315 59.2925 15.7797
628 2 107.262 59.3635 0.00828067
629 2 111.259 59.3639 15.9559
630 2 115.501 59.6217 15.9298
631 2 119.264 59.7111 15.8431
632 2 123.35 59.8194 0.126736
633 2 127.33 59.6079 15.735
634 2 131 59.5964 0.26354
635 2 134.935 59.5509 16.0541
636 2 138.77 59.4603 0.0835329
637 2 142.633 59.3625 0.145952
638 2 146.737 59.3729 0.397491
639 2 150.655 59.4884 16.0003
640 2 154.471 59.2423 0.290142
641 2 0.192809 63.1928 0.136879
642 2 4.13502 63.1437 -0.00962305
643 2 8.2014 62.9995 16.0054
644 2 11.9695 63.2181 15.7098
645 2 16.0295 62.9132 16.0162
646 2 19.5764 62.8524 0.0748496
647 2 23.5867 62.7682 0.180926
648 2 27.6239 62.7819 0.131372
649 2 31.6232 62.8483 0.263476
650 2 35.2598 62.8391 0.0525879
651 2 39.1334 62.761 15.9562
652 2 43.2926 62.7616 0.117668
653 2 47.0584 62.6045 16.0931
654 2 50.987 62.5322 15.6021
655 2 55.1118 62.3233 0.0143404
656 2 59.1439 62.6175 15.9108
657 2 63.0818 62.7182 0.140436
658 2 67.1143 62.7187 15.982
659 2 71.0849 62.843 0.169987
660 2 75.2177 62.767 0.263059
661 2 78.9485 63.0383 0.160528
662 2 83.1433 62.9596 0.295949
663 2 87.0766 62.9455 15.8961
664 2 91.0311 63.0422 16.0019
665 2 95.1742 63.1399 0.259333
666 2 99.2728 63.212 0.183769
667 2 103.018 63.1848 15.8925
668 2 107.103 63.211 15.9207
669 2 110.998 63.4551 15.8099
670 2 114.981 63.617 0.372787
671 2 119.22 63.6221 15.9155
672 2 123.136 63.5794 0.15483
673 2 127.115 63.6911 15.9133
674 2 131.125 63.5571 0.30983
675 2 135.135 63.5101 16.0405
676 2 139.006 63.4782 15.8015
677 2 142.816 63.2293 15.9521
678 2 146.906 63.5921 0.1885
679 2 150.791 63.5635 16.1173
680 2 154.619 63.239 0.183656
681 2 0.282044 67.221 0.164703
682 2 4.17163 67.231 0.0610481
683 2 8.08451 67.2029 15.975
684 2 11.9391 67.0319 15.8386
685 2 15.846 66.8629 0.32937
686 2 19.8413 66.8059 0.285341
687 2 23.7312 66.8447 0.112516
688 2 27.6951 66.7286 0.0796971
689 2 31.4515 66.6177 0.244275
690 2 35.2225 66.8231 -0.0986446
691 2 39.4272 66.6132 15.7469
692 2 43.3908 66.6904 0.169153
693 2 47.1292 66.6021 16.0143
694 2 51.1635 66.4893 15.6671
695 2 54.9442 66.4356 15.6108
696 2 59.1688 66.6686 15.7914
697 2 63.1151 66.5775 15.8095
698 2 67.0561 66.3259 16.0101
699 2 70.9151 66.5721 0.288046
700 2 75.1616 66.5748 15.8675
701 2 79.0863 66.6702 15.9884
702 2 83.2916 66.6924 0.173135
703 2 87.0392 66.9197 16.2037
704 2 91.0586 66.7626 16.2369
705 2 95.1606 66.9242 0.0252279
706 2 99.1901 67.0669 0.25676
707 2 103.129 67.2681 0.0492961
708 2 106.924 67.0521 15.9059
709 2 111 67.5334 15.9921
710 2 115.115 67.5311 15.9866
711 2 119.272 67.3432 0.36521
712 2 123.085 67.7434 0.121941
713 2 127.139 67.5145 -0.00800463
714 2 131.093 67.39 15.8497
715 2 135.151 67.6449 0.014758
716 2 138.854 67.3766 0.145969
717 2 142.666 67.2966 15.9371
718 2 146.766 67.395 15.9995
719 2 150.737 67.5257 16.2179
720 2 154.545 67.4075 0.296509
721 2 0.409703 71.399 0.107705
722 2 4.11607 71.2368 15.8434
723 2 7.97686 71.1377 0.0159652
724 2 11.946 71.123 15.8053
725 2 16.0876 70.9744 0.170527
726 2 19.9354 70.8873 0.21503
727 2 23.7299 70.7045 0.0504216
728 2 27.6717 70.7427 15.9269
729 2 31.6119 70.5932 0.180276
730 2 35.473 70.7263 0.147321
731 2 39.2855 70.5556 16.0051
732 2 43.2826 70.5837 0.066415
733 2 47.357 70.5455 15.9338
734 2 51.0755 70.2893 15.8537
735 2 54.9754 70.6553 0.0957306
736 2 59.0023 70.3782 0.275849
737 2 62.934 70.474 -0.0102226
738 2 67.0191 70.4398 15.6813
739 2 71.0132 70.5891 15.8068
740 2 74.9318 70.6301 15.9931
741 2 78.9612 70.5951 0.118569
742 2 82.9017 70.8523 0.0956974
743 2 87.0645 70.8434 15.8835
744 2 90.8918 70.8264 15.9224
745 2 95.0814 70.8563 16.0237
746 2 99.1312 71.0265 15.8936
747 2 102.973 71.0533 16.0882
748 2 107.021 71.2762 15.9353
749 2 110.923 71.2293 15.7891
750 2 115.188 71.2801 0.0614764
751 2 119.141 71.3373 16.0416
752 2 122.944 71.4433 0.30402
753 2 127.132 71.3343 15.9569
754 2 131.05 71.5762 15.8541
755 2 135.024 71.4914 16.102
756 2 139.086 71.4753 15.8813
757 2 142.971 71.4514 0.0592405
758 2 146.94 71.5378 0.288483
759 2 150.763 71.5361 0.182863
760 2 154.637 71.3283 16.0749
761 2 0.333737 75.2046 0.041527
762 2 4.19391 75.2575 15.9943
763 2 7.93475 75.0494 16.0584
764 2 11.9622 75.0157 16.0506
765 2 15.908 74.9604 16.0172
766 2 19.8936 74.966 16.0641
767 2 23.6943 74.7731 15.7536
768 2 27.6948 74.8005 16.0472
769 2 31.5541 74.661 0.395591
770 2 35.4281 74.7266 15.7939
771 2 39.2727 74.7373 15.8563
772 2 43.3107 74.4467 0.0710918
773 2 47.3503 74.4198 16.1646
774 2 51.3762 74.5027 0.178338
775 2 55.1915 74.4021 15.875
776 2 58.9784 74.5251 15.9844
777 2 63.0327 74.4829 16.0825
778 2 66.9393 74.5507 0.108954
779 2 71.1082 74.4421 0.263072
780 2 74.9469 74.6675 0.184342
781 2 78.8321 74.435 0.107751
782 2 82.8282 74.6941 0.177303
783 2 86.9097 74.7457 0.218246
784 2 90.9609 74.7394 16.0495
785 2 94.9536 74.7473 15.7244
786 2 98.8687 74.8462 0.20211
787 2 103.112 75.1022 15.8287
788 2 106.694 75.0575 15.6725
789 2 111.118 75.0731 15.8564
790 2 115.175 75.319 15.9476
791 2 118.898 75.2428 0.2069
792 2 123.026 75.4332 15.9696
793 2 127.033 75.2989 16.1804
794 2 131.078 75.3643 0.295105
795 2 134.971 75.1936 15.8785
796 2 138.906 75.4177 15.7917
797 2 142.961 75.476 15.8362
798 2 146.857 75.4117 16.0022
799 2 150.681 75.4785 0.0211815
800 2 154.775 75.2436 0.198895
801 2 0.219947 79.2065 0.0782297
802 2 4.23186 79.0042 15.9673
803 2 8.16968 79.1851 0.300478
804 2 12.059 79.0184 0.103345
805 2 16.0195 79.0522 15.9607
806 2 19.8425 78.7979 15.9
807 2 24.016 78.9922 0.221099
808 2 27.7618 78.8058 0.281573
809 2 31.6989 78.7454 0.244761
810 2 35.553 78.6926 0.259116
811 2 39.5605 78.6434 16.0447
812 2 43.3387 78.4825 15.9814
813 2 47.2478 78.5348 15.8215
814 2 51.2407 78.5879 0.233606
815 2 55.1789 78.3697 0.295224
816 2 59.0445 78.365 16.1391
817 2 62.9407 78.3404 15.9027
818 2 66.9245 78.3253 0.192319
819 2 70.8736 78.4517 15.9579
820 2 74.9092 78.5715 0.352307
821 2 78.7387 78.5852 15.7997
822 2 82.7254 78.6448 16.1024
823 2 86.8004 78.3199 0.0807673
824 2 91.022 78.5398 0.268569
825 2 94.9861 78.8001 0.269224
826 2 98.9619 78.7791 15.9173
827 2 102.808 78.8587 15.7084
828 2 106.924 78.867 0.107048
829 2 110.873 78.9859 0.11276
830 2 115.198 79.0336 0.142111
831 2 118.909 79.3241 0.107464
832 2 122.901 79.2651 15.843
833 2 126.895 79.3071 0.145777
834 2 130.909 79.0801 15.8977
835 2 135 79.316 0.167317
836 2 138.888 79.2371 16.0804
837 2 142.878 79.5002 15.8642
838 2 146.809 79.2463 15.8288
839 2 150.735 79.2416 15.9548
840 2 154.808 79.2192 0.308557
841 2 0.316931 83.2664 16.0718
842 2 4.58131 83.0623 15.7211
843 2 8.30062 83.1292 0.324908
844 2 12.1241 82.9454 16.0723
845 2 16.1825 83.0758 15.9625
846 2 20.2101 82.9423 0.27786
847 2 23.8481 82.9081 16.0911
848 2 27.8208 82.7508 0.359697
849 2 31.9228 82.9712 15.9872
850 2 35.8378 82.8603 0.289596
851 2 39.5725 82.7829 0.098283
852 2 43.3796 82.5669 16.1452
853 2 47.4686 82.7718 0.251666
854 2 51.5097 82.4935 0.203416
855 2 55.2951 82.3448 0.0705867
856 2 59.0615 82.3831 15.7787
857 2 62.9944 82.2534 15.8621
858 2 66.8638 82.3523 16.2157
859 2 70.8053 82.3111 15.862
860 2 74.8589 82.2003 15.9841
861 2 78.7724 82.5324 15.9289
862 2 82.968 82.4691 0.166212
863 2 86.7387 82.4554 0.163095
864 2 90.8278 82.5194 16.107
865 2 94.895 82.7212 0.116412
866 2 99.0595 82.6465 15.8449
867 2 102.836 82.8707 0.213397
868 2 106.8 82.7638 15.9653
869 2 110.71 82.7463 15.8718
870 2 115.038 83.0063 15.7198
871 2 118.783 82.9706 16.055
872 2 122.921 83.2571 15.8697
873 2 126.926 83.4145 16.1411
874 2 131 82.9771 15.7612
875 2 135.009 83.3317 0.157989
876 2 139.077 83.2488 16.1757
877 2 143.008 83.2093 0.314223
878 2 146.993 83.3351 16.0838
879 2 150.882 83.367 0.233311
880 2 154.887 83.387 0.403675
881 2 0.593774 87.2017 16.0082
882 2 4.39502 87.2751 0.292107
883 2 8.38274 87.1251 16.0231
884 2 12.2505 87.0313 16.0956
885 2 16.1069 87.1371 15.9143
886 2 19.9263 86.9752 16.0649
887 2 24.184 86.9655 15.981
888 2 27.8683 86.7042 0.0679396
889 2 31.7071 86.8755 16.118
890 2 35.7885 86.6838 0.299493
891 2 39.6949 86.5884 16.1279
892 2 43.6546 86.7256 15.9362
893 2 47.4087 86.7028 16.0657
894 2 51.3887 86.4483 16.1243
895 2 55.3533 86.5085 16.0426
896 2 59.179 86.5292 -0.0175942
897 2 63.0773 86.3776 0.117039
898 2 66.9566 86.3004 16.1229
899 2 70.8492 86.2527 0.168308
900 2 74.6379 86.3383 16.0466
901 2 78.773 86.2895 0.359928
902 2 82.6121 86.3709 0.306442
903 2 86.719 86.5197 16.1015
904 2 90.8237 86.2524 15.9693
905 2 94.7712 86.5084 16.0062
906 2 98.9155 86.7792 16.0282
907 2 102.79 86.6649 0.0433523
908 2 106.822 86.7177 0.0377314
909 2 110.816 86.8119 15.6647
910 2 114.969 87.0125 -0.0239652
911 2 118.91 86.757 0.123701
912 2 123.048 87.1312 0.227958
913 2 126.898 87.1965 15.9912
914 2 130.925 87.1393 15.8045
915 2 134.812 87.1092 15.9201
916 2 138.824 87.0926 16.048
917 2 142.835 87.1367 16.1207
918 2 146.99 87.1655 0.285563
919 2 151.033 87.19 15.8539
920 2 154.997 87.361 15.9279
921 2 0.552825 91.348 0.313603
922 2 4.65822 91.3072 0.351943
923 2 8.53053 91.1349 16.0272
924 2 12.242 91.1787 16.024
925 2 16.153 91.0393 0.284117
926 2 20.3329 91.1264 0.0288173
927 2 24.0785 90.9745 15.7249
928 2 27.8199 90.793 15.9083
929 2 31.9705 90.8034 16.185
930 2 35.8656 90.7747 0.251439
931 2 39.7783 90.5942 15.9342
932 2 43.4897 90.58 16.1559
933 2 47.4051 90.5086 0.169497
934 2 51.4027 90.5022 0.276556
935 2 55.2905 90.4671 0.175529
936 2 59.238 90.5832 0.178831
937 2 63.1206 90.2775 0.053715
938 2 66.9966 90.3102 16.0788
939 2 71.009 90.2166 15.9312
940 2 74.8766 90.2902 0.163414
941 2 78.7474 90.2345 0.300974
942 2 82.6355 90.2096 0.136362
943 2 87.0239 90.1811 0.25008
944 2 90.8102 90.3393 0.108746
945 2 94.7399 90.2214 15.9888
946 2 98.777 90.5477 15.8561
947 2 102.845 90.7874 0.0475379
948 2 106.875 90.7847 15.7751
949 2 110.738 90.6043 15.7149
950 2 114.813 90.881 0.17751
951 2 118.788 90.9158 0.169605
952 2 122.961 90.9578 15.9713
953 2 126.911 91.0609 0.175822
954 2 130.839 90.9831 0.0817635
955 2 134.938 91.079 15.9077
956 2 138.815 90.9171 16.1544
957 2 142.934 91.0447 15.9554
958 2 146.919 91.2003 15.9514
959 2 150.847 91.1697 15.8116
960 2 154.814 91.1821 15.8348
961 2 0.656183 95.155 0.275617
962 2 4.5425 95.1596 15.8446
963 2 8.44629 95.1825 15.9918
964 2 12.2779 95.3511 15.8343
965 2 16.4326 95.207 16.0426
966 2 20.2862 94.9918 16.1149
967 2 24.1409 94.9949 15.9251
968 2 27.9278 94.8763 15.9298
969 2 32.0317 94.8696 15.8403
970 2 36.1066 94.9213 15.955
971 2 39.8202 94.8728 15.9441
972 2 43.5302 94.5909 15.8479
973 2 47.5561 94.6622 0.418777
974 2 51.4955 94.4682 15.9151
975 2 55.2634 94.383 0.0475675
976 2 59.0987 94.4775 15.8981
977 2 63.3147 94.4094 0.0238289
978 2 67.2121 94.3225 0.23987
979 2 71.0672 94.36 0.294135
980 2 74.8627 94.5259 0.216263
981 2 78.8768 94.1014 15.8872
982 2 82.7587 94.0149 0.246971