ITEM: TIMESTEP
21100
ITEM: NUMBER OF ATOMS
32000
ITEM: BOX BOUNDS xy xz yz pp pp pp
0.0000000000000000e+00 1.5831999999999999e+02 0.0000000000000000e+00
0.0000000000000000e+00 1.5831999999999999e+02 0.0000000000000000e+00
1.6508727002470724e-01 1.5932624729975146e+01 0.0000000000000000e+00
ITEM: ATOMS id type x y z
1 2 158.047 157.828 15.7373
2 2 3.56067 157.844 15.9933
3 2 7.60731 157.897 0.0268486
4 2 11.559 157.923 0.156838
5 2 15.6853 158.009 0.252967
6 2 19.5482 158.256 16.0307
7 2 23.8062 158.131 16.0848
8 2 27.7964 158.335 16.0846
9 2 31.8781 158.104 0.448522
10 2 35.6614 158.223 16.15
11 2 39.7835 0.00314742 16.0709
12 2 43.7331 -0.0903968 0.141837
13 2 47.7148 0.0636372 16.047
14 2 51.8928 -0.130758 0.180128
15 2 55.7832 158.325 0.0811372
16 2 59.7771 158.391 15.8687
17 2 63.7685 0.141253 15.8991
18 2 67.7127 0.0360624 15.8049
19 2 71.7358 0.0319683 15.9882
20 2 75.5494 158.155 16.0552
21 2 79.331 -0.087943 15.8477
22 2 83.2634 158.053 15.848
23 2 87.1344 158.143 15.868
24 2 91.0811 158.173 0.171609
25 2 95.0607 157.958 15.9007
26 2 99.1033 158.032 16.0098
27 2 102.869 157.911 15.8826
28 2 106.798 157.891 15.9078
29 2 110.65 157.874 -0.0292872
30 2 114.809 157.877 0.116078
31 2 118.598 158.021 15.8261
32 2 122.5 157.774 0.103584
33 2 126.287 157.692 0.165169
34 2 130.219 157.586 0.163243
35 2 134.225 157.601 15.8624
36 2 138.44 157.614 15.844
37 2 142.071 157.591 15.8615
38 2 145.77 157.586 16.0658
39 2 149.91 157.591 0.153034
40 2 153.795 157.695 0.149045
41 2 158.03 3.32871 15.9338
42 2 3.63377 3.39041 15.776
43 2 7.4486 3.4992 0.170494
44 2 11.3698 3.37199 15.9731
45 2 15.5778 3.55902 15.7941
46 2 19.6538 3.75446 15.9825
47 2 23.5883 3.59195 0.356145
48 2 27.6944 3.7884 0.249666
49 2 31.8989 3.59862 0.241346
50 2 35.9776 3.87515 0.216657
51 2 39.8952 3.72487 0.197488
52 2 43.7268 3.92161 15.6689
53 2 47.5974 3.99735 16.0322
54 2 51.764 3.92318 15.8472
55 2 55.7762 3.93477 0.307533
56 2 59.8867 3.95208 15.8578
57 2 63.6123 4.00268 16.0785
58 2 67.6639 3.96859 15.6857
59 2 71.737 3.96209 15.9158
60 2 75.5686 3.92295 15.9272
61 2 79.5269 3.94756 16.0418
62 2 83.4658 3.8057 15.7947
63 2 87.4202 3.77414 15.9929
64 2 91.0736 3.84178 -0.0199207
65 2 95.2294 3.78397 15.9075
66 2 99.1389 3.75984 0.281347
67 2 102.875 3.81084 16.0644
68 2 106.789 3.81103 16.0235
69 2 110.622 3.61707 0.129138
70 2 114.588 3.58504 -0.0237557
71 2 118.688 3.51222 0.0977183
72 2 122.517 3.4408 -0.0804557
73 2 126.255 3.29875 0.205937
74 2 130.219 3.27138 0.0608886
75 2 134.359 3.35788 15.8894
76 2 138.235 3.27635 0.29818
77 2 141.934 3.29553 0.100566
78 2 145.955 3.13141 0.243644
79 2 149.703 3.21228 15.8676
80 2 154.005 3.21958 16.1019
81 2 157.639 7.15361 15.5961
82 2 3.49152 7.32489 15.839
83 2 7.54828 7.37559 15.9417
84 2 11.4207 7.58069 0.261705
85 2 15.5697 7.61964 15.9158
86 2 19.4771 7.48608 15.9573
87 2 23.72 7.68016 0.203455
88 2 27.5702 7.73599 15.8777
89 2 31.4042 7.72507 16.0894
90 2 35.6242 7.77739 15.8981
91 2 39.7328 7.80281 0.264015
92 2 43.5785 7.65867 0.206897
93 2 47.6763 7.65925 15.9663
94 2 51.7747 7.89667 0.184861
95 2 55.7318 7.97457 16.0182
96 2 59.7127 7.98827 -0.0159439
97 2 63.6717 8.08711 15.9811
98 2 67.6134 8.15379 15.9574
99 2 71.7261 8.08873 15.9455
100 2 75.6459 7.98449 15.9253
101 2 79.4603 8.07132 0.0991545
102 2 83.4431 7.97354 15.9316
103 2 87.2693 7.85161 15.9183
104 2 91.0658 7.67341 16.0784
105 2 95.0138 7.75483 15.9874
106 2 99.0296 7.68418 0.165043
107 2 102.831 7.4887 0.21173
108 2 106.826 7.69713 15.9223
109 2 110.814 7.59213 0.0484839
110 2 114.693 7.58247 15.9601
111 2 118.714 7.39078 15.9431
112 2 122.596 7.64397 15.8526
113 2 126.406 7.39497 16.1193
114 2 130.338 7.34888 0.234725
115 2 134.294 7.24053 0.109267
116 2 138.2 7.40446 16.0437
117 2 141.78 7.34625 15.9085
118 2 145.894 7.28245 0.0990821
119 2 149.868 7.23282 0.21253
120 2 153.84 7.08173 15.7852
121 2 157.589 11.0808 15.8109
122 2 3.51487 11.0544 15.9734
123 2 7.60982 11.3949 15.9905
124 2 11.491 11.3499 0.0996106
125 2 15.6194 11.3195 16.0233
126 2 19.4322 11.4894 15.96
127 2 23.5143 11.4792 15.8515
128 2 27.5804 11.4565 16.0006
129 2 31.5091 11.5487 15.9526
130 2 35.5189 11.6205 16.1073
131 2 39.5991 11.7025 16.0974
132 2 43.6532 11.6514 0.0758275
133 2 47.5227 11.8239 0.0640264
134 2 51.6984 11.6409 15.7983
135 2 55.774 11.8809 0.119013
136 2 59.7308 11.9511 15.746
137 2 63.5833 12.1325 0.120294
138 2 67.6687 11.9829 16.0327
139 2 71.6721 11.9392 15.9494
140 2 75.5217 11.938 15.7659
141 2 79.3552 11.9086 15.8729
142 2 83.5055 11.8098 15.8634
143 2 87.3296 11.8857 0.140395
144 2 91.2314 11.8567 0.319821
145 2 95.2508 11.8619 16.0286
146 2 98.9879 11.6486 15.8672
147 2 102.857 11.6904 0.189826
148 2 106.941 11.7747 15.8917
149 2 110.965 11.5572 0.037425
150 2 114.749 11.5623 16.0092
151 2 118.492 11.6821 0.0952069
152 2 122.493 11.5551 0.170344
153 2 126.518 11.476 16.0634
154 2 130.572 11.3015 15.8095
155 2 134.368 11.7586 -0.0849914
156 2 138.233 11.3948 0.327794
157 2 142.01 11.1813 0.168286
158 2 145.984 11.1964 0.281853
159 2 149.776 11.0988 0.293645
160 2 153.818 11.1912 0.317176
161 2 157.576 15.23 15.7606
162 2 3.3634 15.0283 15.8959
163 2 7.41818 15.1705 16.2066
164 2 11.4277 15.2608 15.9757
165 2 15.5283 15.1464 16.0455
166 2 19.3531 15.4897 0.121539
167 2 23.4199 15.4418 0.192197
168 2 27.5451 15.2782 15.9769
169 2 31.3863 15.4527 0.0567937
170 2 35.3486 15.4979 15.9398
171 2 39.6138 15.3702 0.0730974
172 2 43.5261 15.535 -0.0919421
173 2 47.525 15.4641 0.178667
174 2 51.508 15.5996 0.204191
175 2 55.6297 15.6876 16.0822
176 2 59.4716 15.7727 0.143876
177 2 63.6034 15.8074 15.8358
178 2 67.7368 15.8149 15.8595
179 2 71.5492 15.7581 0.0319797
180 2 75.6465 15.6947 0.0631811
181 2 79.5568 15.9225 15.8964
182 2 83.7996 16.1584 0.313189
183 2 87.3932 15.9055 15.9388
184 2 91.3299 15.9338 0.36781
185 2 95.0965 15.6833 15.9357
186 2 99.1496 15.7722 15.9032
187 2 102.951 15.8851 15.9606
188 2 106.874 15.7021 15.9456
189 2 110.827 15.7368 16.0335
190 2 114.773 15.7708 15.934
191 2 118.68 15.5987 0.0437345
192 2 122.501 15.4214 15.7165
193 2 126.442 15.4337 15.799
194 2 130.348 15.3985 0.0486082
195 2 134.165 15.4345 0.0384929
196 2 138.177 15.4275 0.21161
197 2 142.255 15.1674 15.9706
198 2 146.044 15.249 0.341158
199 2 149.93 15.2388 0.0576488
200 2 153.976 15.1453 15.813
201 2 157.834 19.1572 15.8029
202 2 3.2689 18.9954 0.104937
203 2 7.24738 19.1005 -0.068609
204 2 11.399 19.158 15.9127
205 2 15.4555 19.2862 15.9285
206 2 19.365 19.3746 15.9161
207 2 23.4498 19.3961 16.0507
208 2 27.3499 19.2272 16.0033
209 2 31.2549 19.4124 16.0475
210 2 35.1654 19.2789 15.966
211 2 39.4332 19.1487 0.205226
212 2 43.4878 19.4059 15.8763
213 2 47.5557 19.5128 16.1824
214 2 51.5527 19.6041 0.111868
215 2 55.4205 19.7624 15.8816
216 2 59.4872 19.8571 15.8738
217 2 63.6414 19.6307 16.0334
218 2 67.5563 19.6244 16.1468
219 2 71.5493 19.7004 0.106029
220 2 75.548 19.8075 0.108436
221 2 79.6099 19.7834 0.069333
222 2 83.5468 19.9487 16.0448
223 2 87.6484 19.8153 0.0564224
224 2 91.6234 19.8109 0.422827
225 2 95.4508 19.8028 15.975
226 2 99.3241 19.7306 15.9973
227 2 103.182 19.6497 15.9487
228 2 107.034 19.7089 15.9612
229 2 110.709 19.6309 0.183378
230 2 114.811 19.6962 16.0242
231 2 118.79 19.4 15.9792
232 2 122.736 19.5127 15.8582
233 2 126.705 19.573 15.8734
234 2 130.617 19.569 15.8213
235 2 134.238 19.4057 0.0178737
236 2 138.435 19.4526 15.9385
237 2 142.125 19.3146 15.8235
238 2 146.149 19.4151 0.107671
239 2 149.877 19.3604 15.8435
240 2 153.978 19.2189 0.153093
241 2 157.787 23.1094 15.8689
242 2 3.4764 23.1541 16.0165
243 2 7.54241 22.9825 0.0116273
244 2 11.4259 23.1328 0.13658
245 2 15.5024 23.1739 15.9216
246 2 19.4145 23.1153 16.0308
247 2 23.5343 23.2818 15.9605
248 2 27.5382 23.1668 15.9731
249 2 31.2498 23.3563 0.190152
250 2 35.7336 23.4001 15.9714
251 2 39.4335 23.2948 0.251432
252 2 43.621 23.4181 15.9193
253 2 47.3721 23.506 0.320806
254 2 51.4551 23.5359 0.287822
255 2 55.631 23.6821 0.151594
256 2 59.643 23.5334 15.9771
257 2 63.6441 23.5524 0.393204
258 2 67.5425 23.6496 15.9679
259 2 71.6758 23.6932 15.8785
260 2 75.6268 23.6668 0.249894
261 2 79.5617 23.767 16.0132
262 2 83.5016 23.9197 0.27013
263 2 87.5949 23.7521 15.936
264 2 91.4984 23.7602 15.9437
265 2 95.3285 23.7082 15.9823
266 2 99.3077 23.9407 0.0889462
267 2 103.108 23.838 16.0304
268 2 107.226 23.685 15.7803
269 2 111.117 23.5394 0.318901
270 2 114.902 23.5851 15.9172
271 2 118.806 23.5879 15.8563
272 2 122.655 23.4434 0.0687208
273 2 126.614 23.6235 16.0017
274 2 130.733 23.4737 15.9944
275 2 134.446 23.3361 15.6986
276 2 138.379 23.4667 15.7923
277 2 142.308 23.3116 15.9325
278 2 145.94 23.4235 0.0852613
279 2 150.042 23.3252 0.172129
280 2 153.896 23.1888 -0.00262358
281 2 158 27.149 0.341627
282 2 3.7133 27.0069 0.0798401
283 2 7.44658 26.9804 0.00600405
284 2 11.3664 27.0427 15.7904
285 2 15.3695 26.8514 15.8422
286 2 19.418 27.0032 0.10105
287 2 23.1869 26.9744 16.0696
288 2 27.4163 27.2705 15.9495
289 2 31.2707 27.2381 -0.0645265
290 2 35.3123 27.2914 0.0483098
291 2 39.3793 27.1849 0.181388
292 2 43.2566 27.3664 -0.0335955
293 2 47.4412 27.3484 0.170416
294 2 51.4816 27.4529 16.0356
295 2 55.3527 27.3686 0.0635028
296 2 59.6058 27.5185 16.0125
297 2 63.4414 27.366 15.8838
298 2 67.4011 28.0002 15.8502
299 2 71.4444 27.6312 15.8343
300 2 75.4929 27.7618 0.307862
301 2 79.3537 27.8888 0.352075
302 2 83.3297 27.8639 16.0462
303 2 87.3718 27.9466 0.161427
304 2 91.4519 27.657 0.120252
305 2 95.496 28.0835 0.131323
306 2 99.5648 27.8627 0.40823
307 2 103.454 27.6181 15.8693
308 2 107.064 27.929 0.166995
309 2 110.984 27.823 15.6336
310 2 115.067 27.5925 15.8384
311 2 118.817 27.7121 0.149609
312 2 122.785 27.5812 0.0638063
313 2 126.753 27.601 15.93
314 2 130.412 27.5471 15.7701
315 2 134.365 27.5065 15.8258
316 2 138.542 27.5055 15.9742
317 2 142.351 27.3609 0.153938
318 2 146.347 27.3303 0.332103
319 2 150.3 27.4696 0.0804987
320 2 154.017 27.231 0.181725
321 2 158.095 31.0023 15.7965
322 2 3.60764 31.2159 15.9718
323 2 7.49665 31.0649 15.9079
324 2 11.519 30.9124 0.131021
325 2 15.264 30.842 0.16227
326 2 19.3905 30.9324 16.0945
327 2 23.479 31.1518 16.0172
328 2 27.1567 30.8209 0.071208
329 2 31.3041 31.2276 15.9004
330 2 35.2944 31.1613 16.0011
331 2 39.2352 31.1163 16.0057
332 2 43.4721 31.2285 0.139997
333 2 47.3602 31.2967 15.8092
334 2 51.3584 31.2737 0.151029
335 2 55.5131 31.1788 15.8446
336 2 59.5589 31.3625 0.0706752
337 2 63.339 31.4694 15.9102
338 2 67.2628 31.7094 -0.0254346
339 2 71.4421 31.5772 -0.00292037
340 2 75.5044 31.5279 0.214384
341 2 79.4387 31.6322 15.8642
342 2 83.5235 31.7971 0.223511
343 2 87.603 31.8477 16.0728
344 2 91.4918 31.9016 16.0685
345 2 95.4077 31.7796 16.1076
346 2 99.5236 31.8814 0.374055
347 2 103.423 31.6277 15.9604
348 2 107.277 31.7647 15.7301
349 2 111.083 31.7901 16.0509
350 2 114.869 31.6235 15.9683
351 2 118.739 31.6699 15.9154
352 2 122.835 31.5502 15.8273
353 2 126.847 31.5696 15.9677
354 2 130.734 31.4831 15.9269
355 2 134.637 31.5294 15.9139
356 2 138.529 31.4433 15.7901
357 2 142.253 31.6497 0.162705
358 2 146.307 31.5427 15.8268
359 2 150.324 31.3834 0.0559374
360 2 154.301 31.1099 0.215067
361 2 -0.381016 35.0763 -0.0194761
362 2 3.65663 35.1538 15.7399
363 2 7.5979 35.0975 15.9321
364 2 11.5008 34.8638 15.8741
365 2 15.4176 34.9575 0.272313
366 2 19.1723 34.8479 0.135384
367 2 23.311 34.9084 0.102695
368 2 27.2836 34.9517 -0.040385
369 2 31.323 35.0971 0.0724564
370 2 35.4417 35.0239 0.246888
371 2 39.3162 35.2037 0.223154
372 2 43.3383 35.2136 15.8127
373 2 47.4262 35.2062 15.8253
374 2 51.4302 35.1893 15.9542
375 2 55.4094 35.2488 0.337951
376 2 59.3729 35.5335 0.117817
377 2 63.3969 35.2678 15.8211
378 2 67.4587 35.6098 0.0364102
379 2 71.4568 35.4251 0.207003
380 2 75.3202 35.2254 16.1035
381 2 79.3479 35.4802 0.0109906
382 2 83.2925 35.6034 15.822
383 2 87.3407 35.658 0.155324
384 2 91.5521 35.7873 0.0377641
385 2 95.3672 35.6938 15.9828
386 2 99.3912 35.721 0.0494846
387 2 103.236 35.7511 15.8149
388 2 107.29 35.7474 15.9752
389 2 111.061 35.7835 16.1031
390 2 115.153 35.7688 16.0193
391 2 119.001 35.5783 15.9874
392 2 122.722 35.6812 15.8267
393 2 126.58 35.4841 15.8698
394 2 130.498 35.5999 15.8966
395 2 134.639 35.5337 15.8791
396 2 138.495 35.516 0.136516
397 2 142.472 35.6588 0.0942707
398 2 146.461 35.2697 0.0633491
399 2 150.213 35.3256 15.7768
400 2 154.123 35.2784 0.115474
401 2 158.029 39.2473 -0.0327473
402 2 3.75864 39.0991 0.229774
403 2 7.55446 38.9344 0.0738737
404 2 11.4611 38.9457 15.9164
405 2 15.2678 38.995 0.235189
406 2 19.4729 38.856 16.0045
407 2 23.2238 38.5786 15.9786
408 2 27.3126 38.8012 16.1138
409 2 31.3397 38.9621 0.217716
410 2 35.323 39.0659 0.200131
411 2 39.123 39.206 15.8573
412 2 43.2234 38.9719 0.154339
413 2 47.3216 39.1598 0.0906025
414 2 51.3241 38.9951 15.8077
415 2 55.2985 39.1936 0.227472
416 2 59.4208 39.2401 0.251437
417 2 63.4194 39.2233 0.138827
418 2 67.4966 39.384 0.234571
419 2 71.3726 39.6033 0.155486
420 2 75.2584 39.2615 0.263279
421 2 79.2181 39.3211 0.0425822
422 2 83.3842 39.5116 16.0656
423 2 87.4326 39.4711 15.874
424 2 91.4872 39.605 16.0636
425 2 95.3014 39.6678 15.9213
426 2 99.4012 39.5754 0.236083
427 2 103.269 39.6077 15.9262
428 2 107.104 39.9005 15.966
429 2 111.4 39.8842 16.1077
430 2 115.251 39.6526 16.1887
431 2 118.917 39.6841 15.957
432 2 122.997 39.5681 15.9978
433 2 126.692 39.5392 0.15203
434 2 130.581 39.7147 15.8543
435 2 134.594 39.5132 15.9723
436 2 138.578 39.3886 16.0219
437 2 142.501 39.6434 15.7578
438 2 146.282 39.3832 0.11541
439 2 150.305 39.2228 15.9378
440 2 154.15 39.2776 16.0122
441 2 158.281 42.9876 0.153488
442 2 3.7454 43.053 15.9604
443 2 7.68998 43.0373 15.9078
444 2 11.6207 42.9616 0.11037
445 2 15.5543 42.8926 0.364102
446 2 19.4144 42.7227 0.152211
447 2 23.4406 42.8736 15.9461
448 2 27.3326 42.6889 16.0245
449 2 31.2411 42.8389 0.422646
450 2 35.1126 43.0681 0.0844576
451 2 39.2832 43.044 0.148142
452 2 43.1902 42.9345 0.0855646
453 2 47.2042 42.9163 15.9764
454 2 51.1835 43.0371 16.0791
455 2 55.2807 43.0577 0.267787
456 2 59.326 42.8969 15.8843
457 2 63.2959 43.1987 -0.0674405
458 2 67.3804 43.3177 0.11579
459 2 71.3739 43.3165 0.205955
460 2 75.3267 43.2963 0.289272
461 2 79.4959 43.3275 0.109061
462 2 83.3427 43.3037 16.0053
463 2 87.2056 43.4523 15.8457
464 2 91.5025 43.6218 0.322651
465 2 95.402 43.6275 0.353343
466 2 99.3264 43.501 15.8715
467 2 103.516 43.4816 15.9005
468 2 107.432 43.6878 16.1051
469 2 111.457 43.6828 15.8833
470 2 115.382 43.7934 15.9427
471 2 119.028 43.7204 15.864
472 2 123.097 43.7101 16.052
473 2 126.844 43.5596 0.331866
474 2 130.761 43.6165 0.264715
475 2 134.65 43.5927 15.7127
476 2 138.716 43.4698 15.9376
477 2 142.563 43.2235 16.0559
478 2 146.518 43.313 0.281991
479 2 150.405 43.1965 0.247514
480 2 154.192 43.2115 0.121654
481 2 -0.0986215 46.9391 0.149804
482 2 3.91474 47.0413 0.411123
483 2 7.45664 46.9542 0.18533
484 2 11.582 46.9071 0.110762
485 2 15.6065 46.7122 0.202912
486 2 19.4288 46.7266 0.152664
487 2 23.4199 46.8172 0.16104
488 2 27.1556 46.861 15.9679
489 2 31.2161 46.849 0.0489592
490 2 35.2407 46.9069 0.136468
491 2 39.0704 46.7501 15.8944
492 2 43.279 46.8684 15.9165
493 2 47.2253 46.7039 0.00974058
494 2 51.0784 46.8869 15.8279
495 2 55.1751 46.9296 15.8934
496 2 59.1792 47.0176 15.7934
497 2 63.3341 46.9184 0.117468
498 2 67.2444 47.1883 -0.0685238
499 2 71.4532 47.2978 16.0328
500 2 75.3412 47.1067 0.186456
501 2 79.3173 47.3992 15.8733
502 2 83.3826 47.2663 15.8813
503 2 87.191 47.2718 0.0445904
504 2 91.3101 47.4019 0.182557
505 2 95.4148 47.5277 0.0312442
506 2 99.3078 47.6063 0.0418849
507 2 103.183 47.5559 0.132025
508 2 107.177 47.6254 15.8496
509 2 111.434 47.6448 15.9211
510 2 115.217 47.8719 0.122218
511 2 119.203 47.7144 16.0408
512 2 122.924 47.6319 16.0572
513 2 127.054 47.6493 15.8911
514 2 131.066 47.5545 16.0334
515 2 134.95 47.3914 15.7927
516 2 138.642 47.4866 16.0338
517 2 142.569 47.3625 15.7606
518 2 146.53 47.2119 0.282835
519 2 150.331 47.3394 0.273249
520 2 154.531 47.1499 15.7701
521 2 158.345 51.0315 0.176352
522 2 3.79965 51.0697 15.8333
523 2 7.76186 51.1706 15.8569
524 2 11.799 50.7989 15.9344
525 2 15.6476 50.939 0.249307
526 2 19.6392 50.8529 15.8749
527 2 23.4095 50.8923 15.9739
528 2 27.3409 50.6867 15.8307
529 2 31.2886 50.6614 0.221822
530 2 35.2566 50.7859 -0.122505
531 2 39.0721 50.599 15.8314
532 2 43.335 50.8675 15.9184
533 2 47.1997 50.6226 -0.0625371
534 2 51.2318 50.8154 -0.0463045
535 2 55.2092 51.0601 0.179284
536 2 59.2128 50.9123 15.8115
537 2 63.3278 50.866 15.917
538 2 67.2036 50.9354 -0.0770418
539 2 71.2506 51.2774 0.112492
540 2 75.3342 51.1445 0.215415
541 2 79.1436 50.9962 0.261727
542 2 83.2512 51.0994 0.191412
543 2 87.2382 51.0828 0.209723
544 2 91.2962 51.2198 0.283949
545 2 95.2906 51.3418 0.24261
546 2 99.3367 51.6495 0.192345
547 2 103.261 51.5373 15.8698
548 2 107.375 51.3862 0.257233
549 2 111.412 51.7411 0.202461
550 2 115.12 51.7802 15.8307
551 2 119.305 51.8032 16.021
552 2 123.365 51.6114 15.8656
553 2 127.015 51.5987 15.8087
554 2 130.87 51.5764 0.0416091
555 2 134.716 51.4969 0.190977
556 2 138.905 51.423 0.111205
557 2 142.619 51.439 0.0584693
558 2 146.506 51.2944 15.8951
559 2 150.426 51.1158 0.195729
560 2 154.435 51.1819 -0.0207235
561 2 158.361 55.094 0.160565
562 2 3.81425 55.0909 0.264521
563 2 7.76783 55.0076 0.263902
564 2 11.9335 54.9888 0.0843735
565 2 15.6177 54.9558 0.0851305
566 2 19.7384 54.9705 15.946
567 2 23.4452 54.7823 16.0097
568 2 27.4529 54.8557 15.7793
569 2 31.3252 54.6087 0.150247
570 2 35.3011 54.619 0.0765725
571 2 39.3324 54.691 15.882
572 2 43.1496 54.6539 15.9
573 2 47.2493 54.5778 0.14959
574 2 51.1956 54.6766 15.9834
575 2 55.1755 54.8408 15.8315
576 2 59.3242 54.9626 15.7943
577 2 63.0732 54.8876 15.733
578 2 67.3451 54.803 -0.0168395
579 2 71.1236 55.1604 0.164727
580 2 75.3914 55.0044 15.8774
581 2 79.1512 55.1114 0.212163
582 2 83.34 55.0971 0.208318
583 2 87.0579 55.1084 0.114938
584 2 91.1495 55.1565 15.9288
585 2 95.1323 55.2756 0.275408
586 2 99.1915 55.5429 15.9082
587 2 103.32 55.3867 15.8873
588 2 107.266 55.4794 0.0815446
589 2 111.102 55.6168 15.7876
590 2 115.274 55.5639 16.2241
591 2 119.449 55.7084 15.9949
592 2 123.129 55.6995 0.180443
593 2 127.165 55.7311 15.9004
594 2 130.811 55.6352 15.9091
595 2 134.827 55.6049 0.244623
596 2 138.898 55.4916 15.9469
597 2 142.716 55.2979 0.151214
598 2 146.693 55.2935 0.114655
599 2 150.555 55.419 0.194469
600 2 154.406 55.1871 15.9416
601 2 158.396 59.1686 0.0552516
602 2 3.91483 59.0396 15.8746
603 2 7.82106 59.0373 15.805
604 2 11.995 59.1466 0.196437
605 2 15.9179 58.8729 16.1261
606 2 19.5542 59.0461 0.160263
607 2 23.4662 58.7683 0.127447
608 2 27.4195 58.7385 0.220795
609 2 31.5733 58.6294 16
610 2 35.4519 58.8031 15.5491
611 2 39.2244 58.7321 15.7442
612 2 43.1683 58.5934 15.8249
613 2 47.0422 58.3738 16.0625
614 2 51.0394 58.4901 15.7628
615 2 55.1879 58.7365 15.7109
616 2 59.2531 58.7563 -0.0246283
617 2 63.2976 58.757 15.9457
618 2 67.2207 58.6333 -0.0727514
619 2 71.2398 58.8544 15.9146
620 2 75.0749 58.9065 0.165093
621 2 79.1474 59.007 0.193037
622 2 83.0594 59.2055 0.196823
623 2 87.1542 59.0008 16.0098
624 2 91.1193 59.1719 15.8914
625 2 95.2001 59.2043 -0.0137068
626 2 99.162 59.2283 0.107525
627 2 103.129 59.3446 15.9149
628 2 107.209 59.3812 0.150245
629 2 111.24 59.6549 15.9219
630 2 115.029 59.4715 15.9975
631 2 119.24 59.448 16.0529
632 2 122.97 59.5601 0.0782292
633 2 126.971 59.8328 16.1405
634 2 130.906 59.7971 0.16715
635 2 134.793 59.4461 16.039
636 2 138.697 59.4078 0.25721
637 2 142.879 59.2696 0.32578
638 2 146.608 59.4849 0.199663
639 2 150.497 59.2015 15.9987
640 2 154.605 59.3608 0.367525
641 2 0.0146106 63.3093 0.110798
642 2 4.09304 63.1514 0.189989
643 2 7.90822 63.2009 15.7749
644 2 11.9576 62.9797 16.0378
645 2 15.6699 62.963 15.8539
646 2 19.7864 62.9868 0.23058
647 2 23.5681 63.0179 0.14043
648 2 27.5379 62.7064 0.154544
649 2 31.4722 62.7138 0.129163
650 2 35.3623 62.5799 0.16513
651 2 39.407 62.7583 15.7066
652 2 43.0626 62.4333 0.0145817
653 2 47.0964 62.4583 15.6372
654 2 51.0888 62.4237 16.0044
655 2 55.073 62.711 0.126023
656 2 59.3053 62.6582 15.9189
657 2 63.1023 62.6905 0.0992663
658 2 67.1638 62.5034 15.9053
659 2 71.2819 62.6507 0.201209
660 2 75.0292 62.8944 0.114843
661 2 79.2828 62.6633 0.136911
662 2 83.2355 62.9287 0.006066
663 2 87.1657 62.9396 15.9041
664 2 91.2324 63.0487 15.849
665 2 95.0696 63.0117 0.0776771
666 2 99.1453 63.0656 0.0812784
667 2 103.35 63.3086 15.8466
668 2 107.237 63.3143 15.9403
669 2 111.28 63.452 16.1014
670 2 115.202 63.4702 0.274186
671 2 119.129 63.4027 16.0257
672 2 123.324 63.5546 0.211666
673 2 127.227 63.5592 15.8598
674 2 131.067 63.7886 0.202436
675 2 134.997 63.4699 15.9066
676 2 138.717 63.3272 16.1113
677 2 142.728 63.4656 15.9005
678 2 146.66 63.344 0.371112
679 2 150.543 63.239 15.8948
680 2 154.443 63.4076 0.306619
681 2 0.14831 67.2352 0.287067
682 2 3.95931 67.2203 0.164638
683 2 7.91897 67.1317 15.8379
684 2 11.9193 67.1391 16.0334
685 2 15.8747 67.1116 0.137359
686 2 19.637 66.9845 -0.0394369
687 2 23.5391 66.8767 0.158816
688 2 27.4739 66.8301 0.407343
689 2 31.5453 66.7942 0.189713
690 2 35.6518 66.7528 0.206048
691 2 39.2762 66.7793 15.9198
692 2 43.3073 66.4966 0.101696
693 2 47.308 66.434 15.936
694 2 51.0917 66.4362 16.0064
695 2 55.1028 66.3816 16.016
696 2 59.0497 66.395 16.1257
697 2 63.1447 66.5493 15.9123
698 2 66.9781 66.7344 15.8169
699 2 71.0476 66.6863 0.15779
700 2 75.0567 66.8248 15.9974
701 2 79.04 66.8202 15.803
702 2 82.8222 66.8602 0.297408
703 2 87.0993 66.9082 15.9368
704 2 91.0028 67.037 15.7579
705 2 95.0476 66.9706 0.103674
706 2 99.0805 66.9613 0.0383914
707 2 103.155 67.1403 0.210159
708 2 107.211 67.3625 15.9656
709 2 111.081 67.2892 15.9087
710 2 115.092 67.3546 15.9401
711 2 119.088 67.479 0.0428874
712 2 123.178 67.37 0.161493
713 2 127.014 67.4793 0.176808
714 2 131.207 67.6966 16.0007
715 2 134.813 67.3333 0.0448038
716 2 139.205 67.6722 0.230439
717 2 143.099 67.4122 16.1633
718 2 146.639 67.3322 15.9777
719 2 150.498 67.5849 16.0239
720 2 154.559 67.2027 0.308673
721 2 0.133183 71.2045 0.324189
722 2 4.08507 71.2302 15.803
723 2 8.24564 71.0807 0.179529
724 2 12.072 70.9866 16.0867
725 2 15.8867 71.0704 0.183292
726 2 19.7878 70.9482 0.0657794
727 2 23.9176 71.0719 0.33667
728 2 27.7269 70.8574 16.0749
729 2 31.6334 70.8533 0.0485626
730 2 35.5928 70.6733 0.10494
731 2 39.5012 70.6944 15.8692
732 2 43.3971 70.5449 0.312125
733 2 47.3246 70.3846 15.9547
734 2 51.2597 70.5165 16.0003
735 2 55.2958 70.3388 0.0377404
736 2 59.1861 70.5019 -0.126637
737 2 63.1 70.4103 -0.0102878
738 2 66.8963 70.7843 15.8457
739 2 70.8578 70.3465 15.8668
740 2 74.9653 70.4576 15.8456
741 2 78.9588 70.5772 0.24565
742 2 82.9869 70.5911 0.335428
743 2 87.037 70.8435 15.8577
744 2 91.163 70.846 16.017
745 2 94.9179 70.9106 15.8194
746 2 98.9281 70.8226 15.9006
747 2 103.153 71.1384 15.68
748 2 107.05 70.9596 15.8871
749 2 111.149 71.3502 15.881
750 2 114.891 71.3963 0.0542964
751 2 119.125 71.2521 15.9816
752 2 123.181 71.4535 0.281233
753 2 126.986 71.5215 15.9064
754 2 131.12 71.2777 15.9935
755 2 135.148 71.4093 15.9101
756 2 139.044 71.4542 16.2853
757 2 143.046 71.5138 0.302323
758 2 146.924 71.4222 0.0641963
759 2 150.601 71.4015 0.278779
760 2 154.682 71.3305 15.8951
761 2 0.348668 75.1036 0.270104
762 2 4.28706 75.0072 16.0213
763 2 8.23151 75.1707 15.7823
764 2 12.0346 75.0764 15.9528
765 2 16.0274 74.989 15.9821
766 2 20.0135 74.9231 15.8505
767 2 24.0169 75.1143 16.1682
768 2 27.6808 74.9294 16.0614
769 2 31.7301 74.8373 0.0444429
770 2 35.6133 74.6264 16.0125
771 2 39.386 74.5937 16.0426
772 2 43.5605 74.6516 0.36582
773 2 47.2533 74.4475 15.7799
774 2 51.061 74.2725 0.154471
775 2 55.0913 74.37 15.9613
776 2 59.1464 74.2895 15.944
777 2 62.9258 74.358 15.8524
778 2 67.1007 74.3078 0.121878
779 2 70.8261 74.4261 0.0619305
780 2 75.0039 74.2846 0.303019
781 2 78.9943 74.6141 0.341532
782 2 82.8643 74.4883 -0.0493322
783 2 86.9937 74.6285 0.141672
784 2 91.0457 74.758 15.7777
785 2 95.0044 74.8325 15.9617
786 2 99.059 74.7908 0.251734
787 2 102.76 75.0408 15.9484
788 2 107.031 74.7952 15.9664
789 2 110.935 75.3204 15.7378
790 2 115.037 75.1464 15.9231
791 2 119.147 75.4477 0.216879
792 2 122.954 75.2959 15.9781
793 2 126.871 75.3499 15.6192
794 2 130.98 75.3619 0.228596
795 2 135.034 75.4266 15.9396
796 2 139.102 75.4858 16.0029
797 2 142.983 75.4976 15.8448
798 2 146.917 75.486 15.7308
799 2 150.85 75.0683 0.101177
800 2 154.547 75.2905 0.0975733
801 2 0.442322 79.1773 0.102396
802 2 4.25896 79.1963 15.8957
803 2 8.07536 79.0254 0.203245
804 2 12.2205 79.0186 0.39714
805 2 16.1482 79.004 16.0222
806 2 19.9746 79.158 16.1641
807 2 23.7274 78.9544 0.134648
808 2 27.7676 78.7755 0.12219
809 2 31.6198 78.8719 0.204782
810 2 35.7624 78.6976 0.157439
811 2 39.4207 78.4917 15.9984
812 2 43.5758 78.5623 16.1122
813 2 47.4466 78.4254 16.1242
814 2 51.1252 78.3313 0.34793
815 2 55.1099 78.4174 0.152742
816 2 58.9743 78.5168 15.6959
817 2 62.971 78.3845 15.8029
818 2 66.9156 78.569 0.172564
819 2 70.8459 78.2393 16.0646
820 2 74.8882 78.3321 0.173583
821 2 78.8714 78.6892 16.2504
822 2 82.8719 78.5667 15.8143
823 2 87.0225 78.8912 0.265002
824 2 90.8603 78.7072 0.249723
825 2 94.9388 78.6179 0.115626
826 2 98.954 78.7038 15.9818
827 2 102.957 79.0137 16.021
828 2 106.993 78.9132 0.22266
829 2 110.916 79.0791 0.124859
830 2 114.854 79.2653 0.0436235
831 2 118.966 79.1779 -0.0792878
832 2 122.948 79.2352 15.7808
833 2 126.812 79.1809 0.203458
834 2 131.118 79.3995 16.0294
835 2 135.048 79.3921 0.23002
836 2 138.997 79.374 15.8502
837 2 143.043 79.432 16.0253
838 2 147.097 79.4749 15.9868
839 2 150.849 79.1346 16.0694
840 2 154.744 79.2906 0.298885
841 2 0.699898 83.2647 15.6813
842 2 4.18091 83.2288 15.9842
843 2 8.39345 83.0228 0.119523
844 2 12.1968 83.2417 16.018
845 2 15.9604 82.9202 16.0169
846 2 19.9996 83.1109 0.385247
847 2 24.0971 82.9159 15.9471
848 2 27.9282 82.9142 0.191178
849 2 31.7701 82.7406 16.0518
850 2 35.6817 82.5343 0.0768134
851 2 39.6777 82.4911 0.285554
852 2 43.5655 82.5129 15.7737
853 2 47.4407 82.4304 0.254434
854 2 51.1421 82.5944 0.130067
855 2 55.1717 82.478 0.166543
856 2 59.1023 82.5608 15.8773
857 2 63.033 82.5803 15.7586
858 2 66.9053 82.3063 15.798
859 2 71.0525 82.2744 15.9278
860 2 74.8571 82.3736 15.9875
861 2 78.9191 82.4228 16.1665
862 2 82.7072 82.3773 0.292621
863 2 86.9491 82.5743 0.252826
864 2 90.8243 82.414 16.058
865 2 94.8172 82.6936 0.0897431
866 2 98.841 82.6961 16.0504
867 2 103.083 82.6986 0.281378
868 2 106.844 82.8825 15.7632
869 2 111.009 83.0901 15.781
870 2 114.753 83.113 15.8964
871 2 118.929 83.3658 15.8225
872 2 123.016 83.1586 15.9452
873 2 126.955 83.1953 15.793
874 2 130.74 83.1951 16.0192
875 2 134.804 83.2322 0.0721631
876 2 138.767 83.116 16.074
877 2 142.932 83.3792 0.212413
878 2 146.958 83.4751 15.8829
879 2 150.975 83.1588 0.0903239
880 2 154.977 83.2891 -0.0811039
881 2 0.600516 87.3634 15.9899
882 2 4.51417 87.2134 0.283425
883 2 8.19831 87.2452 16.082
884 2 12.1513 87.2207 15.9608
885 2 16.1419 86.9275 16.245
886 2 20.1199 86.9355 16.1441
887 2 23.8356 86.7675 16.1016
888 2 27.9178 87.0065 0.302053
889 2 31.988 86.7173 15.8466
890 2 35.6636 86.7367 0.242156
891 2 39.5895 86.699 15.9131
892 2 43.4667 86.5178 16.1466
893 2 47.4574 86.5874 16.0305
894 2 51.3092 86.5347 15.9323
895 2 55.2092 86.3135 15.9098
896 2 59.0684 86.4412 0.12761
897 2 63.0791 86.5261 -0.0103897
898 2 67.0079 86.3514 15.9299
899 2 71.0302 86.3228 0.190628
900 2 74.949 86.1135 15.8929
901 2 78.6588 86.3312 0.335278
902 2 82.8683 86.304 0.288356
903 2 86.9096 86.2017 15.95
904 2 90.8754 86.3917 16.0805
905 2 94.961 86.5865 15.9739
906 2 98.8071 86.3681 15.7866
907 2 102.891 86.7858 0.101091
908 2 106.947 86.7511 0.0707209
909 2 110.708 86.7554 15.8231
910 2 114.869 86.9487 0.124942
911 2 118.784 87.2881 0.21978
912 2 122.791 87.1344 0.0661374
913 2 126.852 87.2025 15.972
914 2 130.906 87.2884 16.2503
915 2 135.018 87.3098 15.8627
916 2 138.856 87.1185 16.1136
917 2 142.91 87.132 15.9069
918 2 146.873 87.4156 0.128234
919 2 150.877 87.4317 15.7297
920 2 154.962 87.1566 15.8342
921 2 0.524994 91.0711 0.0710157
922 2 4.56916 91.1475 0.0497696
923 2 8.36276 91.2412 16.0572
924 2 12.3686 91.2139 15.7698
925 2 16.3553 90.8462 0.277845
926 2 20.0645 90.8345 0.408925
927 2 23.9754 90.8103 16.033
928 2 28.0573 90.9211 16.0081
929 2 31.9345 90.8787 15.9015
930 2 35.5884 90.6473 0.162713
931 2 39.5096 90.6637 16.0984
932 2 43.7029 90.5356 15.8796
933 2 47.5017 90.7495 0.166041
934 2 51.2935 90.5168 0.0481017
935 2 55.2185 90.4666 0.162351
936 2 59.3373 90.3226 0.052125
937 2 63.1984 90.3627 0.375431
938 2 67.1028 90.3494 15.9412
939 2 71.0431 90.3393 16.0272
940 2 74.8222 90.2084 0.141111
941 2 78.7594 90.1903 0.200937
942 2 82.6852 90.2722 0.107341
943 2 86.5824 90.2247 0.316525
944 2 90.9434 90.3425 0.188667
945 2 94.7199 90.3917 15.8104
946 2 98.8403 90.5463 16.0283
947 2 102.878 90.5498 0.124353
948 2 106.787 90.6932 15.8395
949 2 110.891 90.7835 16.0677
950 2 114.798 90.847 0.0611468
951 2 118.708 90.8902 0.235974
952 2 122.786 91.2053 15.8525
953 2 126.704 90.9882 0.084874
954 2 130.83 91.3618 0.194852
955 2 134.831 91.1043 16.039
956 2 138.839 91.1189 16.0272
957 2 142.83 91.0852 16.1837
958 2 146.768 91.0729 15.9461
959 2 150.869 91.0909 16.0536
960 2 154.949 91.1471 15.9401
961 2 0.513486 95.1435 -0.0226504
962 2 4.58302 95.1466 15.9894
963 2 8.56597 95.0527 16.0056
964 2 12.6152 95.2468 15.8193
965 2 16.2359 94.9777 15.9336
966 2 20.0485 94.974 15.8441
967 2 24.1625 94.7521 16.1183
968 2 28.2306 94.849 16.0877
969 2 31.9666 94.8643 15.9744
970 2 35.7432 94.8316 16.0064
971 2 39.7741 94.598 15.9697
972 2 43.6986 94.7 15.9862
973 2 47.4825 94.5055 0.107724
974 2 51.4064 94.5041 16.0543
975 2 55.4391 94.5315 0.180721
976 2 59.3468 94.4494 15.8232
977 2 63.0446 94.4958 0.0751606
978 2 66.8551 94.2954 -0.00195652
979 2 70.8085 94.3022 0.190361
980 2 75.0079 94.1272 0.241531
981 2 78.9079 94.3381 16.0611
982 2 82.7449 94.2833 0.273985