ITEM: TIMESTEP
21200
ITEM: NUMBER OF ATOMS
32000
ITEM: BOX BOUNDS xy xz yz pp pp pp
0.0000000000000000e+00 1.5831999999999999e+02 0.0000000000000000e+00
0.0000000000000000e+00 1.5831999999999999e+02 0.0000000000000000e+00
1.6345790863018372e-01 1.5934254091369663e+01 0.0000000000000000e+00
ITEM: ATOMS id type x y z
1 2 157.991 157.597 15.9834
2 2 3.74762 157.752 15.7794
3 2 7.53214 157.889 0.140563
4 2 11.6408 157.933 0.130742
5 2 15.773 157.971 0.121094
6 2 19.7351 158.079 15.9832
7 2 23.5537 158.117 16.0611
8 2 27.7096 158.189 15.992
9 2 31.7017 158.22 0.0921135
10 2 35.9419 158.219 15.9299
11 2 39.8026 -0.13375 15.9385
12 2 43.7872 0.0445848 0.158256
13 2 47.8585 0.0881363 16.0196
14 2 51.7726 0.0711645 0.146305
15 2 55.7413 158.432 0.163187
16 2 59.9016 158.635 15.8526
17 2 63.8131 0.204484 15.7835
18 2 67.6318 0.175905 15.9054
19 2 71.6809 -0.0132515 16.0053
20 2 75.5745 158.286 15.7385
21 2 79.3484 -0.174644 16.1254
22 2 83.2874 158.254 16.0452
23 2 87.1883 158.069 16.0263
24 2 91.1593 158.016 0.127176
25 2 95.1577 158.059 16.1111
26 2 98.9798 157.969 15.996
27 2 102.952 158.067 16.1738
28 2 106.766 158.011 16.0572
29 2 110.653 157.987 0.156427
30 2 114.43 157.871 0.145816
31 2 118.427 157.774 16.0006
32 2 122.398 157.871 0.165026
33 2 126.59 157.802 0.195123
34 2 130.396 157.779 0.155732
35 2 134.232 157.78 15.926
36 2 137.925 157.702 16.0467
37 2 141.955 157.49 15.9697
38 2 145.945 157.679 15.837
39 2 149.859 157.621 0.186526
40 2 154.011 157.854 0.141043
41 2 157.886 3.29651 15.8511
42 2 3.56668 3.35794 15.7665
43 2 7.74633 3.36129 0.0617477
44 2 11.6301 3.40542 15.8764
45 2 15.6436 3.62518 15.9788
46 2 19.6454 3.66318 15.825
47 2 23.6589 3.85056 0.183136
48 2 27.7443 3.88992 0.274142
49 2 31.6341 3.83594 0.317686
50 2 35.5634 3.61073 0.189821
51 2 39.6349 3.92563 0.295735
52 2 43.757 3.85727 16.0747
53 2 47.8518 3.93962 15.9578
54 2 51.8073 4.05001 16.1002
55 2 55.8071 4.17695 0.162289
56 2 59.6235 4.12056 16.043
57 2 63.9179 3.94163 15.6562
58 2 67.912 4.23426 16.0253
59 2 71.6049 4.01146 15.8534
60 2 75.417 3.93688 15.8328
61 2 79.488 3.82341 15.824
62 2 83.4553 3.92547 16.105
63 2 87.4614 3.96446 15.8358
64 2 91.4255 3.77209 0.214486
65 2 95.1101 3.75689 15.8093
66 2 98.988 3.72496 0.165703
67 2 103.05 3.61102 16.0574
68 2 106.884 3.74661 15.9771
69 2 110.795 3.68314 0.250103
70 2 114.647 3.68238 0.263622
71 2 118.494 3.55432 0.235195
72 2 122.533 3.66987 0.321824
73 2 126.621 3.54889 0.0737806
74 2 130.559 3.61009 0.256225
75 2 134.094 3.39865 15.8626
76 2 138.113 3.38576 0.254059
77 2 141.997 3.23676 0.277364
78 2 145.78 3.33236 0.0215226
79 2 149.943 3.24001 16.1035
80 2 153.881 3.39251 15.9398
81 2 157.98 7.16482 15.9481
82 2 3.61113 7.26151 15.8581
83 2 7.48023 7.41183 15.9904
84 2 11.4934 7.35001 0.267484
85 2 15.4997 7.47332 16.1109
86 2 19.6491 7.61483 15.9032
87 2 23.5523 7.49447 0.102987
88 2 27.725 7.58281 16.0717
89 2 31.764 7.59214 15.8884
90 2 35.6453 7.59462 15.8777
91 2 39.6964 7.68961 -0.00755544
92 2 43.7358 7.79647 0.130228
93 2 47.687 8.00048 15.8749
94 2 51.6995 7.88362 0.102501
95 2 55.7373 7.88351 15.7322
96 2 59.7968 8.09427 0.22699
97 2 63.8138 7.9648 15.8465
98 2 67.894 8.04477 15.854
99 2 71.789 7.83508 16.0602
100 2 75.6147 7.8122 15.8567
101 2 79.5895 7.83328 0.0550407
102 2 83.3815 7.813 15.7992
103 2 87.4067 7.86508 15.8211
104 2 91.5527 7.95036 15.7506
105 2 95.3283 7.76987 15.7488
106 2 99.1292 7.7421 0.227226
107 2 103.107 7.9174 0.363165
108 2 106.873 7.82419 15.7153
109 2 110.844 7.71561 0.163599
110 2 114.727 7.67587 15.8996
111 2 118.541 7.72888 15.8108
112 2 122.364 7.42407 15.8481
113 2 126.519 7.65903 15.8893
114 2 130.34 7.44536 0.19376
115 2 134.359 7.51229 0.196119
116 2 138.272 7.34751 15.9683
117 2 142.474 7.30346 16.0122
118 2 146.252 7.3008 0.272445
119 2 150.058 7.16516 0.0606827
120 2 153.864 7.19724 15.876
121 2 157.911 11.1357 15.7904
122 2 3.25446 11.1428 15.8181
123 2 7.34478 11.1387 15.8757
124 2 11.4859 11.3144 0.407628
125 2 15.4905 11.3897 15.8482
126 2 19.5399 11.4003 16.1164
127 2 23.4066 11.4368 15.9811
128 2 27.5979 11.4996 15.8769
129 2 31.5793 11.5614 16.1155
130 2 35.5899 11.6461 15.9052
131 2 39.6902 11.5615 15.8147
132 2 43.5489 11.7061 0.101533
133 2 47.5413 11.7234 0.0714845
134 2 51.6482 11.8284 15.9604
135 2 55.6563 11.8847 0.199885
136 2 59.6179 11.8316 16.0277
137 2 63.8725 11.952 0.225362
138 2 67.7434 12.0599 15.9487
139 2 71.7366 11.8983 15.985
140 2 75.7582 11.8802 15.9791
141 2 79.6765 12.0375 16.0741
142 2 83.36 11.9068 15.9022
143 2 87.6572 11.8916 0.104859
144 2 91.389 11.6966 0.110387
145 2 95.1391 11.7856 16.015
146 2 99.1801 11.7771 15.9174
147 2 103.054 11.7613 0.0695788
148 2 106.718 11.6336 15.8826
149 2 110.829 11.7257 0.284227
150 2 114.735 11.6198 15.8968
151 2 118.662 11.5149 0.381781
152 2 122.451 11.4559 0.169645
153 2 126.446 11.4678 15.8944
154 2 130.449 11.5982 15.9012
155 2 134.393 11.4881 0.236694
156 2 138.254 11.4609 0.39721
157 2 142.179 11.3927 0.3113
158 2 146.075 11.406 0.0903074
159 2 150.08 11.3965 0.297856
160 2 154.046 11.0856 0.090042
161 2 157.986 15.0378 15.9162
162 2 3.37198 15.0986 15.7807
163 2 7.44024 15.1416 15.8005
164 2 11.5183 15.3099 15.9555
165 2 15.316 15.2441 16.0772
166 2 19.5118 15.3898 0.2913
167 2 23.4891 15.3762 0.276357
168 2 27.3525 15.4635 16.0154
169 2 31.5655 15.573 0.439858
170 2 35.7214 15.4574 16.1311
171 2 39.4846 15.5147 0.379244
172 2 43.6409 15.5325 0.311872
173 2 47.5462 15.6975 0.23947
174 2 51.7147 15.6442 0.314253
175 2 55.6832 15.7416 15.801
176 2 59.8386 15.7936 0.10505
177 2 63.6853 15.9569 15.961
178 2 67.5969 15.851 15.8406
179 2 71.6428 15.8903 0.112699
180 2 75.616 16.1208 0.103724
181 2 79.8293 16.0417 15.9355
182 2 83.5822 15.7976 0.00699235
183 2 87.5989 15.9872 15.7571
184 2 91.3222 15.7971 0.197968
185 2 95.3164 15.7945 16.0869
186 2 99.1044 15.6295 16.2126
187 2 103.024 15.6949 15.897
188 2 106.901 15.7814 15.9286
189 2 110.828 15.7315 15.9453
190 2 114.803 15.5641 16.1392
191 2 118.725 15.5622 0.133913
192 2 122.762 15.5904 16.1529
193 2 126.712 15.5878 16.0227
194 2 130.528 15.4841 0.222453
195 2 134.418 15.659 -0.0174548
196 2 138.404 15.2907 0.201564
197 2 142.049 15.3537 15.7702
198 2 145.981 15.3629 0.0773332
199 2 150.2 15.3185 0.296608
200 2 153.958 15.157 16.0204
201 2 157.779 19.1826 15.8339
202 2 3.467 19.121 0.0494062
203 2 7.50958 19.2663 0.117379
204 2 11.4104 19.2217 15.8331
205 2 15.5854 19.0411 15.9329
206 2 19.5534 19.1225 16.0196
207 2 23.4273 19.3195 16.0486
208 2 27.5959 19.3234 15.8501
209 2 31.5123 19.5223 16.1819
210 2 35.6951 19.573 16.0677
211 2 39.4183 19.3851 0.30617
212 2 43.6336 19.5473 15.9722
213 2 47.4933 19.5055 15.9507
214 2 51.334 19.4458 0.44397
215 2 55.5806 19.4495 15.8786
216 2 59.6336 19.6295 15.9815
217 2 63.4622 19.7916 15.9947
218 2 67.5974 19.9132 15.6903
219 2 71.6428 19.7435 0.219884
220 2 75.6339 19.8938 0.223696
221 2 79.714 19.8312 0.218509
222 2 83.816 19.8938 15.8272
223 2 87.5081 19.8932 0.174237
224 2 91.3016 19.8887 0.0289734
225 2 95.3995 19.7501 15.9263
226 2 99.184 19.7472 15.9837
227 2 102.98 19.8715 15.9711
228 2 106.889 19.6012 16.0237
229 2 111.128 19.64 0.236596
230 2 114.875 19.7256 16.0423
231 2 118.788 19.5972 15.9249
232 2 122.638 19.5 15.9326
233 2 126.718 19.5565 15.8473
234 2 130.77 19.566 15.9261
235 2 134.626 19.5912 0.208773
236 2 138.144 19.3855 15.9119
237 2 142.245 19.5509 15.8708
238 2 146.095 19.2731 0.293093
239 2 150.038 19.2502 15.801
240 2 153.895 19.1755 0.0970998
241 2 158.04 23.2101 15.7163
242 2 3.41973 22.9703 15.6932
243 2 7.40962 23.1284 0.194822
244 2 11.4543 23.0386 0.0579388
245 2 15.2592 22.9037 15.9766
246 2 19.3241 22.9933 15.8247
247 2 23.348 23.1267 16.0376
248 2 27.2978 23.2531 15.8379
249 2 31.3072 23.2813 0.48582
250 2 35.1943 23.3154 16.0819
251 2 39.5419 23.3493 0.272245
252 2 43.4016 23.3266 15.9688
253 2 47.5179 23.4707 0.151258
254 2 51.3924 23.4986 0.189263
255 2 55.3891 23.5426 0.293333
256 2 59.4387 23.6458 15.8443
257 2 63.3541 23.5544 0.0297131
258 2 67.5066 23.6489 15.7308
259 2 71.2938 23.7205 15.8823
260 2 75.6235 23.7804 0.0903654
261 2 79.4336 23.8237 15.9939
262 2 83.7707 23.8377 0.0221866
263 2 87.5284 23.9528 15.8669
264 2 91.4693 23.7582 15.9818
265 2 95.6512 23.973 16.0328
266 2 99.2952 23.7925 0.44996
267 2 103.364 23.6901 16.0183
268 2 107.135 23.6464 16.1553
269 2 110.891 23.6433 0.118709
270 2 114.768 23.6803 15.9338
271 2 118.851 23.5307 15.8327
272 2 122.721 23.6549 -0.0402157
273 2 126.688 23.495 15.8209
274 2 130.634 23.5854 15.8011
275 2 134.39 23.6393 15.8965
276 2 138.47 23.3928 16.0438
277 2 142.28 23.5099 15.7399
278 2 146.301 23.2708 0.14742
279 2 150.058 23.1341 0.176079
280 2 154.055 23.1583 0.133402
281 2 157.925 27.0472 0.00304042
282 2 3.49202 27.1019 0.178287
283 2 7.61178 27.0599 0.269056
284 2 11.3747 26.8203 15.9474
285 2 15.1753 27.0267 15.7411
286 2 19.2832 26.9287 0.18838
287 2 23.4064 27.1205 16.0672
288 2 27.3494 27.0018 15.8316
289 2 31.2946 27.1387 0.0754537
290 2 35.5261 27.1452 0.204077
291 2 39.4453 27.3313 0.178686
292 2 43.4642 27.2769 0.115802
293 2 47.3882 27.5025 0.0510615
294 2 51.3879 27.3906 15.8493
295 2 55.5485 27.439 0.174988
296 2 59.4065 27.4082 15.9677
297 2 63.4459 27.5968 15.9891
298 2 67.4697 27.2225 15.9656
299 2 71.4665 27.7002 15.8604
300 2 75.4373 27.4906 0.323371
301 2 79.5027 27.7529 0.0930801
302 2 83.473 27.7034 16.0961
303 2 87.4898 27.7803 0.165717
304 2 91.4484 27.7354 0.340262
305 2 95.3625 27.724 0.298182
306 2 99.2913 27.8556 0.152781
307 2 103.189 27.8554 15.9764
308 2 107.194 27.5808 -0.00652774
309 2 111.082 27.5559 15.9972
310 2 115.077 27.8714 16.2052
311 2 118.984 27.4619 0.174559
312 2 122.792 27.5493 0.255754
313 2 126.751 27.5716 15.8483
314 2 130.633 27.4047 15.8461
315 2 134.533 27.3577 15.7575
316 2 138.492 27.3231 15.6603
317 2 142.46 27.4367 0.0965223
318 2 146.333 27.3253 -0.142189
319 2 150.037 27.0764 0.0951674
320 2 154.086 27.0783 0.223043
321 2 158.155 31.262 16.0594
322 2 3.76394 30.9626 15.9385
323 2 7.71119 31.0567 15.7655
324 2 11.3503 30.9213 0.22572
325 2 15.263 30.9108 0.136443
326 2 19.2019 30.8818 15.9739
327 2 23.1925 30.8867 16.1331
328 2 27.3597 31.2067 0.202914
329 2 31.2385 31.0909 15.9463
330 2 35.3976 31.0581 15.6545
331 2 39.5368 31.2805 16.0641
332 2 43.4256 31.2017 0.317975
333 2 47.4238 31.3286 16.0099
334 2 51.4876 31.2514 -0.0467451
335 2 55.3674 31.4415 15.812
336 2 59.2901 31.2938 0.276409
337 2 63.3924 31.3911 15.8616
338 2 67.5077 31.4625 0.251369
339 2 71.2877 31.6014 0.0455087
340 2 75.3291 31.624 0.213454
341 2 79.4856 31.7143 15.9663
342 2 83.463 31.7017 0.321791
343 2 87.2738 31.7931 15.8839
344 2 91.5134 31.6586 15.936
345 2 95.4748 31.7554 16.0967
346 2 99.471 31.8716 0.150117
347 2 103.171 31.7522 15.9434
348 2 107.169 31.8205 15.8938
349 2 111.226 31.5357 15.9039
350 2 115.222 31.8192 16.0047
351 2 119.109 31.7075 16.1749
352 2 122.765 31.6025 15.9496
353 2 126.693 31.4027 15.7824
354 2 130.654 31.5226 15.9727
355 2 134.464 31.3557 15.88
356 2 138.578 31.3744 15.9214
357 2 142.556 31.1472 0.0182383
358 2 146.292 31.25 15.7378
359 2 150.139 31.2341 0.156917
360 2 154.089 31.2751 0.00488432
361 2 -0.0873239 35.3337 0.369457
362 2 3.7682 35.0818 16.1078
363 2 7.61106 34.8988 16.0221
364 2 11.4559 35.0405 15.9473
365 2 15.2244 35.0602 0.0835208
366 2 19.2544 34.8984 0.22722
367 2 23.1709 34.7043 0.155862
368 2 27.272 34.8769 0.230961
369 2 31.3805 35.0423 0.337477
370 2 35.193 35.3359 0.13363
371 2 39.3648 35.0223 0.257628
372 2 43.4305 35.165 15.9928
373 2 47.3653 35.2265 15.9371
374 2 51.2764 35.1601 15.8227
375 2 55.2704 35.2583 0.0806805
376 2 59.4081 35.1904 0.201039
377 2 63.3283 35.3272 15.8068
378 2 67.3489 35.3814 0.23129
379 2 71.4877 35.4913 0.0109314
380 2 75.5388 35.7364 15.8656
381 2 79.3391 35.4752 0.243558
382 2 83.4331 35.6766 15.8972
383 2 87.5522 35.6289 0.244623
384 2 91.3948 35.5788 0.275362
385 2 95.4596 35.6464 15.9118
386 2 99.3109 35.7214 0.204194
387 2 103.443 35.7668 15.8615
388 2 107.308 35.8823 15.9975
389 2 111.206 35.5328 15.8929
390 2 115.118 35.6268 16.0053
391 2 119.006 35.8416 16.0556
392 2 123.032 35.4948 15.9442
393 2 126.985 35.534 15.8229
394 2 130.66 35.5254 15.8091
395 2 134.541 35.5821 15.9304
396 2 138.493 35.4126 0.252078
397 2 142.405 35.2419 0.228302
398 2 146.361 35.4444 0.0135788
399 2 150.269 35.2494 15.8036
400 2 154.231 35.1278 0.118338
401 2 158.143 39.1473 0.304667
402 2 3.76851 39.1516 0.113706
403 2 7.70644 39.0694 0.377828
404 2 11.5244 38.9711 16.1064
405 2 15.4325 39.0467 0.308352
406 2 19.2135 38.8721 15.9151
407 2 23.3863 38.9428 16.0612
408 2 27.2875 38.8911 16.0027
409 2 31.2444 38.8705 0.251548
410 2 35.3289 39.1519 0.0166278
411 2 39.398 38.9917 15.8785
412 2 43.3605 39.0645 0.188512
413 2 47.4608 39.0362 0.12522
414 2 51.2162 39.1192 15.8896
415 2 55.1646 39.1714 -0.00415575
416 2 59.2469 39.2491 0.194091
417 2 63.3492 39.2262 0.0818094
418 2 67.3889 39.2767 0.0151208
419 2 71.3946 39.1798 0.0493914
420 2 75.4655 39.3869 0.0139586
421 2 79.4309 39.4096 0.0793934
422 2 83.3699 39.5832 15.8747
423 2 87.4122 39.5481 15.905
424 2 91.5064 39.5097 15.8154
425 2 95.3629 39.5972 16.0074
426 2 99.2756 39.6177 0.173379
427 2 103.339 39.9359 15.8608
428 2 107.67 39.7178 15.9628
429 2 111.41 39.7717 16.0212
430 2 115.226 39.7818 15.9974
431 2 119.051 39.8014 16.2015
432 2 122.945 39.5653 15.75
433 2 126.969 39.5246 0.11669
434 2 130.743 39.3834 15.9525
435 2 134.584 39.4845 15.9245
436 2 138.442 39.5257 15.943
437 2 142.411 39.2634 15.9713
438 2 146.5 39.5071 0.240769
439 2 150.241 39.3205 15.9909
440 2 154.315 39.1818 15.8893
441 2 158.034 43.2789 0.056896
442 2 3.84602 43.0755 16.0368
443 2 7.6861 43.0356 15.9281
444 2 11.66 42.9527 0.254101
445 2 15.5397 42.9078 0.0284786
446 2 19.651 42.9932 0.229789
447 2 23.4204 42.7136 16.0287
448 2 27.2352 42.9606 16.0463
449 2 31.2287 43.0483 0.135585
450 2 35.354 42.8752 0.020502
451 2 39.3121 42.9907 0.0296739
452 2 43.2841 42.7295 0.0803389
453 2 47.3771 42.8841 15.7545
454 2 51.3202 43.031 15.6083
455 2 55.2638 43.0113 0.227955
456 2 59.3746 43.2591 15.9292
457 2 63.3629 43.1824 0.0761509
458 2 67.2749 43.117 0.0243755
459 2 71.4714 43.2229 0.0999229
460 2 75.3615 43.109 0.269048
461 2 79.0712 43.1807 0.138568
462 2 83.3679 43.4369 16.0364
463 2 87.3685 43.1249 16.0878
464 2 91.3443 43.3623 0.246767
465 2 95.4398 43.6148 0.0279327
466 2 99.4668 43.8058 15.9873
467 2 103.228 43.8868 15.9181
468 2 107.416 43.7714 15.8626
469 2 111.343 43.7947 15.9158
470 2 115.182 43.7003 15.7992
471 2 119.241 43.5416 16.0656
472 2 122.906 43.5447 15.8925
473 2 126.994 43.3718 0.223021
474 2 130.699 43.4183 0.134943
475 2 134.726 43.4426 15.7837
476 2 138.547 43.4581 15.9833
477 2 142.368 43.6851 15.7442
478 2 146.487 43.362 0.0257164
479 2 150.34 43.3367 0.211171
480 2 154.332 43.2267 0.260177
481 2 0.0794616 47.2589 0.180046
482 2 3.87901 47.1797 -0.0374168
483 2 7.93031 47.0094 0.169271
484 2 11.6822 47.0128 0.22425
485 2 15.5032 47.0455 0.0367948
486 2 19.633 46.9552 0.24935
487 2 23.5042 46.8681 0.17611
488 2 27.3327 46.6353 15.8647
489 2 31.0156 46.7602 0.241471
490 2 35.1484 46.7563 0.0337734
491 2 39.3122 46.9408 15.6958
492 2 43.1483 46.8341 15.7992
493 2 47.0933 46.8722 0.214112
494 2 51.2507 47.2116 15.8703
495 2 55.2018 46.9446 15.9636
496 2 59.4523 46.9703 16.0027
497 2 63.2506 47.0389 0.139041
498 2 67.427 46.9651 0.0733411
499 2 71.2985 47.0957 15.6938
500 2 75.2943 47.2592 0.129054
501 2 79.2306 46.9786 15.9095
502 2 83.2346 47.1774 15.9897
503 2 87.4415 47.2276 0.172438
504 2 91.2487 47.3121 0.199094
505 2 95.249 47.4856 0.286798
506 2 99.3309 47.6661 0.495391
507 2 103.35 47.702 0.0921086
508 2 107.269 47.5626 15.9315
509 2 111.253 47.5852 15.7387
510 2 115.336 47.4942 0.269154
511 2 119.135 47.6126 16.0471
512 2 123.073 47.5937 15.9326
513 2 126.836 47.4857 15.8619
514 2 130.609 47.535 15.808
515 2 134.725 47.5182 15.9179
516 2 138.804 47.3603 15.8767
517 2 142.603 47.3804 16.0279
518 2 146.59 47.3758 0.280225
519 2 150.496 47.1948 0.0618649
520 2 154.283 47.4357 15.9258
521 2 158.443 51.1706 0.111121
522 2 3.9802 51.1965 15.8332
523 2 7.74625 51.1141 15.8999
524 2 11.5199 51.1279 15.8749
525 2 15.5815 50.8033 0.139972
526 2 19.2969 50.7097 15.9578
527 2 23.4243 50.7137 15.8771
528 2 27.4296 50.7799 16.0093
529 2 31.2032 50.782 0.146634
530 2 35.2422 50.7895 0.232325
531 2 39.1294 50.7061 15.981
532 2 43.0814 50.6734 15.7811
533 2 47.2911 50.9661 0.0411258
534 2 51.2921 50.9825 0.165734
535 2 55.2223 50.6982 0.137045
536 2 59.3777 50.9521 15.904
537 2 63.2579 50.8658 15.8111
538 2 67.2835 50.9039 0.0591863
539 2 71.5516 50.9488 0.0799028
540 2 75.3591 51.0643 0.366763
541 2 79.1708 51.1751 0.363933
542 2 83.1094 51.2501 0.219449
543 2 87.2616 51.1716 0.148093
544 2 91.2246 51.2732 0.230961
545 2 95.3275 51.4476 0.302346
546 2 99.3175 51.4971 0.264308
547 2 103.37 51.4403 16.0336
548 2 107.258 51.6754 0.0076883
549 2 111.208 51.4538 0.078113
550 2 115.512 51.7593 16.0257
551 2 119.134 51.6925 16.0851
552 2 122.944 51.5805 16.0338
553 2 127.076 51.5826 15.893
554 2 130.982 51.5923 -0.0296749
555 2 134.877 51.6663 0.0319528
556 2 138.653 51.3724 0.101142
557 2 142.666 51.2673 0.114865
558 2 146.606 51.3616 15.8865
559 2 150.592 51.4135 0.0103759
560 2 154.48 51.2702 0.222109
561 2 158.426 55.2563 0.146155
562 2 4.03133 55.2854 0.252093
563 2 7.87935 55.2943 0.193945
564 2 11.8735 55.0965 0.143864
565 2 15.8981 54.9578 0.0859466
566 2 19.5661 54.6899 15.928
567 2 23.5808 54.8367 15.8567
568 2 27.4416 54.7236 15.925
569 2 31.2405 54.8797 -0.000686523
570 2 35.2662 54.7205 0.0862355
571 2 39.2222 54.9814 15.967
572 2 43.3196 54.6013 15.9848
573 2 47.1409 54.6938 0.150517
574 2 51.2665 54.8349 15.8978
575 2 55.3133 54.7963 15.8642
576 2 59.2136 54.7435 15.8265
577 2 63.4922 54.8191 15.8298
578 2 67.1745 54.7097 0.0761002
579 2 71.2489 54.9488 -0.0411972
580 2 75.134 54.9986 15.9768
581 2 79.369 54.9507 0.282507
582 2 83.0306 55.1462 -0.0472734
583 2 87.3287 55.0834 0.302004
584 2 91.2275 55.239 15.9278
585 2 95.2871 55.2543 0.192436
586 2 99.3476 55.4038 15.9848
587 2 103.308 55.458 15.9619
588 2 107.32 55.5212 0.171225
589 2 111.359 55.6033 16.0438
590 2 115.126 55.6936 15.8323
591 2 119.067 55.7584 16.023
592 2 123.12 55.4379 0.0569276
593 2 126.836 55.6127 15.8877
594 2 131.067 55.4903 15.9963
595 2 135.13 55.459 0.027428
596 2 138.799 55.2936 15.861
597 2 142.751 55.3952 0.234267
598 2 146.582 55.4523 0.417912
599 2 150.61 55.2619 0.28378
600 2 154.556 55.1957 15.9022
601 2 158.407 59.2557 0.269937
602 2 3.93801 59.2531 16.0207
603 2 7.97066 59.152 15.9683
604 2 11.7795 58.898 0.0775691
605 2 15.6364 58.9424 15.7568
606 2 19.5283 58.7893 0.174326
607 2 23.4918 58.9144 0.235811
608 2 27.5192 58.774 0.015149
609 2 31.4352 58.9147 15.9214
610 2 35.3258 58.5861 16.0293
611 2 39.1432 58.7316 15.6469
612 2 43.1809 58.4073 15.8738
613 2 47.0069 58.6584 15.7203
614 2 50.9939 58.717 16.0928
615 2 55.1713 58.6203 16.0146
616 2 59.152 58.6394 0.311382
617 2 63.1475 58.5716 15.7256
618 2 67.1797 58.7185 0.0931529
619 2 71.1854 58.8747 15.9443
620 2 75.29 58.9189 0.118547
621 2 79.1941 58.9462 0.0660863
622 2 83.3713 58.8114 0.156257
623 2 87.3137 59.0813 15.8567
624 2 91.2492 58.9372 15.9129
625 2 95.1028 59.0273 0.298821
626 2 99.1549 59.3612 0.382556
627 2 103.304 59.415 15.9861
628 2 107.233 59.4385 0.26534
629 2 111.135 59.4808 15.8746
630 2 115.124 59.494 16.1068
631 2 119.109 59.6612 15.9724
632 2 123.237 59.4888 0.248242
633 2 126.995 59.5066 15.966
634 2 131.151 59.4762 0.211373
635 2 134.917 59.6194 15.9305
636 2 138.943 59.4045 0.34043
637 2 142.768 59.5916 0.200427
638 2 146.727 59.142 0.223631
639 2 150.642 59.3822 16.0433
640 2 154.415 59.2061 -0.024565
641 2 0.124156 63.1586 0.0929642
642 2 3.86316 63.1546 0.237797
643 2 7.70639 63.2376 15.9095
644 2 11.7139 63.0507 16.0269
645 2 15.8556 63.1114 15.9686
646 2 19.7366 62.8547 0.136822
647 2 23.5988 62.7321 0.174376
648 2 27.4112 62.9895 0.350233
649 2 31.284 62.7464 0.105786
650 2 35.4291 62.7644 -0.0397151
651 2 39.2315 62.5192 15.7914
652 2 43.348 62.5833 0.0293252
653 2 47.0775 62.4154 15.9104
654 2 51.0922 62.5037 15.9203
655 2 55.2163 62.6225 0.190571
656 2 58.9875 62.5354 15.798
657 2 63.2293 62.5007 0.0624748
658 2 67.0328 62.8023 15.6738
659 2 71.0395 62.7636 0.190785
660 2 75.3383 62.8685 0.208441
661 2 79.074 63.0594 0.0895517
662 2 83.033 62.8491 0.249485
663 2 87.1861 63.0281 16.0032
664 2 91.1116 62.8983 16.0198
665 2 95.1734 63.0481 0.133322
666 2 99.0538 63.1839 0.100549
667 2 102.989 63.2265 15.8709
668 2 107.231 63.3601 15.859
669 2 111.204 63.3272 15.964
670 2 115.345 63.3911 0.0521658
671 2 119.298 63.5119 15.976
672 2 122.914 63.4886 0.107427
673 2 126.96 63.5819 16.0712
674 2 131.143 63.3423 0.152871
675 2 134.865 63.4636 16.0798
676 2 139.038 63.5033 16.0135
677 2 142.868 63.4304 16.0531
678 2 146.652 63.2774 0.185698
679 2 150.529 63.3367 16.0284
680 2 154.415 63.1618 0.131007
681 2 0.103301 67.1233 0.246138
682 2 3.99635 67.0459 0.209592
683 2 7.99991 67.0478 15.837
684 2 11.9627 66.9409 15.8803
685 2 15.9029 66.9158 0.0169894
686 2 19.7967 67.056 0.125047
687 2 23.7943 66.9163 0.269747
688 2 27.7354 66.9123 0.147728
689 2 31.5871 66.7802 0.135009
690 2 35.2957 66.5867 0.188766
691 2 39.4024 66.5314 15.9563
692 2 43.0623 66.6076 0.131115
693 2 47.0478 66.5032 15.7427
694 2 51.1446 66.4748 15.9908
695 2 55.1288 66.6359 16.1074
696 2 59.0298 66.477 15.7704
697 2 63.0052 66.4866 16.0662
698 2 67.111 66.6304 15.9552
699 2 71.154 66.6519 0.145269
700 2 75.1432 66.7041 16.0549
701 2 79.1594 66.7455 16.0772
702 2 83.1957 66.8645 0.262255
703 2 87.079 66.8089 15.7746
704 2 91.1008 67.0949 16.0066
705 2 95.0097 67.1493 0.243193
706 2 98.9636 67.1325 0.00927939
707 2 102.99 67.0376 0.0314642
708 2 107.161 67.1555 15.8952
709 2 111.36 67.2462 15.954
710 2 115.213 67.4015 15.9604
711 2 119.167 67.4655 0.217654
712 2 123.042 67.4688 0.213829
713 2 127.06 67.5669 0.427475
714 2 130.909 67.3934 16.0131
715 2 135.161 67.4902 0.436953
716 2 138.988 67.4056 0.199674
717 2 142.924 67.6533 15.9575
718 2 146.912 67.4251 16.0489
719 2 150.753 66.9964 15.8952
720 2 154.545 67.2642 0.191869
721 2 0.232241 71.0766 0.104601
722 2 4.23376 70.9076 16.019
723 2 8.04147 71.0845 0.1318
724 2 11.9462 71.1187 15.9025
725 2 15.8258 70.9102 0.160225
726 2 19.8518 70.9564 0.130613
727 2 23.6938 70.9887 0.202724
728 2 27.8088 70.9464 15.9693
729 2 31.5801 70.8958 0.17767
730 2 35.4238 70.7239 0.228195
731 2 39.5781 70.724 15.9587
732 2 43.2934 70.5471 0.0376906
733 2 47.166 70.6007 15.7992
734 2 51.314 70.5074 15.8256
735 2 55.0193 70.4116 0.100912
736 2 58.889 70.4152 0.112395
737 2 62.9891 70.4954 0.435936
738 2 67.0978 70.356 16.1167
739 2 71.1462 70.62 16.0112
740 2 75.156 70.6917 16.0573
741 2 79.1856 70.8217 0.282489
742 2 83.1295 70.7473 0.142021
743 2 86.993 70.6888 16.1493
744 2 90.9166 70.9529 15.8656
745 2 95.1328 71.03 15.8184
746 2 98.9888 71.0338 15.7719
747 2 102.876 70.9205 15.9542
748 2 107.171 71.2513 15.9095
749 2 111.088 71.1432 15.9142
750 2 115.196 71.3075 0.257711
751 2 118.927 71.5621 15.7248
752 2 122.981 71.3315 0.0463393
753 2 127.095 71.4385 15.9582
754 2 131.077 71.5944 15.9874
755 2 134.989 71.52 15.8788
756 2 138.894 71.5657 15.8064
757 2 142.827 71.5181 0.41957
758 2 146.706 71.4353 0.286087
759 2 150.744 71.1974 0.193186
760 2 154.564 71.1317 15.9287
761 2 0.238346 75.4006 0.1683
762 2 4.14832 75.3446 15.7059
763 2 8.22977 75.1381 15.9182
764 2 12.1867 75.1442 15.8671
765 2 15.97 75.1112 15.7577
766 2 19.7841 75.0108 15.9656
767 2 23.8264 74.9214 16.0635
768 2 27.8779 74.8478 15.955
769 2 31.6969 74.8418 0.109992
770 2 35.7091 74.7338 16.1199
771 2 39.7407 74.6432 15.9948
772 2 43.4477 74.6609 0.148433
773 2 47.3898 74.6422 15.9031
774 2 51.1724 74.6207 0.248368
775 2 55.0957 74.377 15.9725
776 2 58.9741 74.4095 15.798
777 2 63.0344 74.3063 15.8286
778 2 66.7596 74.5837 0.0361989
779 2 70.9307 74.4884 0.0520917
780 2 74.8365 74.5454 0.0708476
781 2 79.0608 74.628 0.230122
782 2 83.063 74.747 0.412134
783 2 87.0578 74.8359 0.173458
784 2 90.9626 74.7767 16.0004
785 2 94.9968 74.7992 15.9329
786 2 98.9688 74.9788 0.0561369
787 2 103.1 74.859 16.0107
788 2 107.045 75.2067 16.0119
789 2 110.978 75.0821 15.8657
790 2 114.877 75.2342 15.7308
791 2 118.994 75.2024 0.0255324
792 2 123.09 75.295 15.9314
793 2 127.05 75.4039 15.9212
794 2 131.068 75.3965 0.14399
795 2 135.013 75.5457 16.0226
796 2 139.001 75.395 16.0791
797 2 143.171 75.3141 16.161
798 2 146.977 75.3227 15.9325
799 2 150.724 75.4742 0.242888
800 2 154.767 75.3023 0.238191
801 2 0.481481 79.2319 0.326296
802 2 4.2626 79.271 15.9267
803 2 8.33155 79.1468 0.0596157
804 2 12.0395 79.1685 0.121178
805 2 15.9461 78.9161 15.9376
806 2 20.0344 79.1048 15.9939
807 2 23.882 78.9186 0.311666
808 2 27.8273 79.0023 0.163539
809 2 31.7931 78.6215 0.136614
810 2 35.55 78.6526 0.147191
811 2 39.6023 78.6472 16.0213
812 2 43.3764 78.5879 15.9398
813 2 47.3786 78.6463 15.9931
814 2 51.464 78.514 0.0754896
815 2 55.2425 78.4936 0.214755
816 2 59.2071 78.3903 15.8755
817 2 62.9923 78.3723 15.8612
818 2 66.8949 78.18 0.0418499
819 2 70.9706 78.409 15.763
820 2 74.9043 78.3442 0.247215
821 2 79.0282 78.2522 15.8949
822 2 83.0173 78.471 15.9571
823 2 86.8384 78.6226 0.146759
824 2 90.9446 78.6521 0.138265
825 2 94.792 78.7315 0.197223
826 2 98.9429 78.9256 15.8339
827 2 103.008 78.7052 15.9661
828 2 106.886 79.0852 -0.011619
829 2 110.978 79.1718 -0.05053
830 2 114.828 79.1322 0.0511394
831 2 119.024 79.2431 0.286759
832 2 123.001 79.3197 16.0521
833 2 127.206 79.2764 0.128579
834 2 130.819 79.3253 16.0565
835 2 134.869 79.2057 0.33701
836 2 139.044 79.4116 15.9926
837 2 143.016 79.2983 15.9555
838 2 146.927 79.4319 15.9333
839 2 151.06 79.5827 15.7511
840 2 154.984 79.3357 0.00776417
841 2 0.441423 83.2242 16.0058
842 2 4.40703 83.1661 16.1116
843 2 8.06596 83.1859 0.168292
844 2 12.1497 82.9988 15.8962
845 2 16.0799 83.0746 16.0785
846 2 19.7409 83.0027 0.258417
847 2 23.9867 82.9033 16.0006
848 2 27.9853 82.8792 0.146441
849 2 31.6884 82.6737 15.8234
850 2 35.5368 82.7256 0.20061
851 2 39.4225 82.678 0.135196
852 2 43.5293 82.625 16.0605
853 2 47.243 82.4375 0.177074
854 2 51.2001 82.3674 0.214296
855 2 55.0841 82.4392 0.222584
856 2 59.1991 82.3273 15.8485
857 2 63.0202 82.3865 15.8447
858 2 67.0431 82.4493 15.7084
859 2 70.8358 82.3226 15.9695
860 2 74.824 82.359 16.1526
861 2 78.7311 82.3671 16.0134
862 2 83.0089 82.5792 0.240128
863 2 86.8712 82.578 0.272203
864 2 90.9742 82.8066 15.7765
865 2 94.8702 82.3879 0.35306
866 2 98.7479 82.611 15.967
867 2 102.678 82.8611 0.0109796
868 2 107.04 83.0091 15.8749
869 2 110.822 82.933 15.8535
870 2 115.068 83.1415 15.993
871 2 118.987 83.0792 15.8842
872 2 122.798 83.1804 15.8356
873 2 126.813 83.0023 15.9538
874 2 130.926 83.4975 16.1042
875 2 134.957 83.2347 0.320229
876 2 138.962 83.3303 15.7973
877 2 142.931 83.2447 0.13939
878 2 146.94 83.1518 15.9342
879 2 150.945 83.3863 0.175724
880 2 154.942 83.1996 0.175071
881 2 0.636408 87.209 15.8081
882 2 4.50091 87.1298 0.00926473
883 2 8.4655 87.0426 15.9189
884 2 12.3272 86.9598 15.9856
885 2 16.2518 86.9438 15.9675
886 2 19.9842 86.8898 16.0536
887 2 23.9176 87.0347 16.0001
888 2 27.987 86.8554 0.401485
889 2 31.7024 86.7351 15.9197
890 2 35.7358 86.717 -0.0057365
891 2 39.5164 86.6401 15.9705
892 2 43.4633 86.6551 15.8731
893 2 47.3459 86.4577 15.863
894 2 51.2667 86.5302 15.7206
895 2 55.1674 86.7266 15.7031
896 2 59.2205 86.3614 0.122754
897 2 63.042 86.3507 0.143807
898 2 66.9854 86.4246 15.643
899 2 70.8877 86.1979 0.0629121
900 2 74.8615 86.3573 15.9271
901 2 78.9542 86.233 0.107528
902 2 82.837 86.4095 0.197569
903 2 86.8447 86.6042 16.0268
904 2 90.755 86.7017 15.9114
905 2 94.7019 86.4642 15.8055
906 2 98.8204 86.7287 15.9243
907 2 102.885 86.5477 0.187863
908 2 106.759 86.8696 0.137824
909 2 111.001 87.0069 15.9575
910 2 114.665 86.9198 0.1948
911 2 118.857 87.0361 0.0977838
912 2 122.831 87.0555 0.0803671
913 2 126.914 87.0829 15.8378
914 2 130.664 87.2534 15.8468
915 2 134.693 87.1191 16.1064
916 2 138.94 87.1862 15.9601
917 2 142.958 87.2731 16.1022
918 2 146.918 87.0962 0.253527
919 2 150.864 87.0644 16.1172
920 2 154.791 87.1528 15.9079
921 2 0.572923 91.1405 0.0466294
922 2 4.25426 91.1463 0.0717527
923 2 8.53867 91.1587 15.8358
924 2 12.4056 90.9179 16.1179
925 2 16.0753 91.1669 0.153735
926 2 20.0021 90.978 0.242363
927 2 24.1341 90.9293 16.1984
928 2 28.0142 90.7454 16.0852
929 2 31.7459 90.5906 15.8166
930 2 35.9357 90.8292 0.288092
931 2 39.7376 90.7926 15.9028
932 2 43.3361 90.8475 15.9922
933 2 47.4952 90.3637 0.215323
934 2 51.5825 90.6203 0.168182
935 2 55.4223 90.4331 0.133529
936 2 59.0413 90.4401 0.191851
937 2 63.1404 90.4753 -0.0113529
938 2 66.9951 90.4515 15.7512
939 2 70.7873 90.2895 15.8956
940 2 74.7968 90.2512 0.153139
941 2 78.7363 90.2154 0.129988
942 2 82.8668 90.2013 0.446479
943 2 86.6634 90.3094 0.247667
944 2 90.5382 90.393 0.297755
945 2 94.8705 90.6201 15.9643
946 2 98.8125 90.3904 15.8214
947 2 102.661 90.4548 0.143927
948 2 106.667 90.6105 15.988
949 2 110.689 90.9896 15.7834
950 2 114.667 90.8408 0.0469309
951 2 118.857 91.0932 0.00309407
952 2 122.667 90.8281 15.8029
953 2 126.921 91.1729 0.155355
954 2 130.8 90.9729 0.226717
955 2 134.826 91.1314 15.9788
956 2 138.911 91.0879 15.7668
957 2 142.882 91.0553 15.8883
958 2 146.911 91.2438 15.9368
959 2 150.972 91.2992 15.854
960 2 154.946 91.2226 15.9006
961 2 0.405873 95.1708 0.19727
962 2 4.49116 95.0572 15.8762
963 2 8.46484 95.2147 15.7332
964 2 12.3685 94.9728 16.0804
965 2 16.3308 94.972 15.9647
966 2 20.2308 94.9698 16.0639
967 2 23.9725 95.0496 15.9083
968 2 27.899 94.8439 15.8831
969 2 31.8011 94.693 16.0372
970 2 35.7099 94.629 16.0599
971 2 39.5481 94.7394 16.0551
972 2 43.6098 94.5972 16.2939
973 2 47.6118 94.6417 0.172475
974 2 51.4086 94.5666 15.8264
975 2 55.3688 94.5099 0.336657
976 2 59.2753 94.418 15.9268
977 2 63.2054 94.3214 0.274941
978 2 67.1706 94.5158 0.228901
979 2 71.0234 94.2635 0.0964128
980 2 74.7971 94.2445 0.157688
981 2 78.7693 94.1603 15.9851
982 2 82.7304 94.2031 0.133497