ITEM: TIMESTEP
21400
ITEM: NUMBER OF ATOMS
32000
ITEM: BOX BOUNDS xy xz yz pp pp pp
0.0000000000000000e+00 1.5831999999999999e+02 0.0000000000000000e+00
0.0000000000000000e+00 1.5831999999999999e+02 0.0000000000000000e+00
1.6393500678890849e-01 1.5933776993210920e+01 0.0000000000000000e+00
ITEM: ATOMS id type x y z
1 2 158.01 157.825 15.7991
2 2 3.73962 157.833 15.9184
3 2 7.66403 157.895 0.0904139
4 2 11.6323 157.849 0.1594
5 2 15.7911 157.716 0.25896
6 2 19.7702 157.989 16.049
7 2 23.6515 157.851 15.9261
8 2 27.8439 158.124 15.9176
9 2 31.7521 158.088 0.328241
10 2 35.5656 158.149 16.1246
11 2 39.7647 0.0159731 15.925
12 2 43.6933 -0.0614767 0.0940721
13 2 47.7808 0.15552 16.0774
14 2 51.8565 0.0726931 0.286069
15 2 55.6725 158.405 0.135138
16 2 59.8128 158.317 15.7947
17 2 63.7456 0.0887195 15.9831
18 2 67.7007 0.00597601 15.7794
19 2 71.6514 0.136969 15.9717
20 2 75.3122 158.288 16.0459
21 2 79.3077 0.0609614 15.8082
22 2 83.6263 158.317 15.8597
23 2 87.2274 158.249 15.9623
24 2 91.0866 158.329 0.0666154
25 2 95.2701 158.084 15.8579
26 2 99.0269 158.159 16.0111
27 2 103.031 158.076 15.9181
28 2 106.976 157.992 16.026
29 2 111.026 158.107 0.186533
30 2 114.942 158.141 0.311402
31 2 118.677 157.993 15.9848
32 2 122.544 157.768 0.26315
33 2 126.53 157.762 0.220943
34 2 130.176 157.723 0.220047
35 2 134.264 157.77 15.9963
36 2 138.44 157.684 15.9816
37 2 142.197 157.541 15.9366
38 2 146.019 157.605 16.1169
39 2 150.044 157.546 0.0839475
40 2 153.886 157.547 0.123316
41 2 157.904 3.36191 15.9824
42 2 3.70534 3.41176 16.1113
43 2 7.63419 3.3315 0.346361
44 2 11.6436 3.39905 15.98
45 2 15.5708 3.43591 15.8933
46 2 19.8094 3.58231 16.0233
47 2 23.5226 3.61812 0.381451
48 2 27.6641 3.71764 0.08304
49 2 31.758 3.64241 0.0808639
50 2 35.8844 3.92646 0.135402
51 2 39.8978 3.81337 0.175783
52 2 43.6883 3.90213 15.8188
53 2 47.5997 3.85817 15.8933
54 2 51.6694 3.94323 15.8492
55 2 55.7511 4.04371 0.224491
56 2 59.8934 3.80795 15.8086
57 2 63.7984 3.95702 16.0524
58 2 67.7157 3.88866 15.8742
59 2 71.7883 4.22389 15.9309
60 2 75.6494 4.12152 15.904
61 2 79.4324 3.99631 15.97
62 2 83.358 3.92576 15.8453
63 2 87.3981 3.91348 16.0251
64 2 91.2316 3.76986 0.0788479
65 2 95.2483 3.79667 15.9845
66 2 99.1518 3.89302 0.219489
67 2 102.971 3.69039 15.8222
68 2 107.05 3.80567 16.0291
69 2 110.816 3.6306 0.273057
70 2 114.819 3.59148 0.184536
71 2 118.844 3.62333 0.265312
72 2 122.637 3.54947 0.0517478
73 2 126.251 3.34827 0.205119
74 2 130.451 3.27903 0.265791
75 2 134.438 3.26881 16.1248
76 2 138.45 3.20901 0.144864
77 2 142.15 3.46437 0.205288
78 2 146.075 3.34029 0.315796
79 2 150.032 3.24227 15.8459
80 2 154.037 3.16802 15.9883
81 2 157.808 7.37309 15.8175
82 2 3.48208 7.34667 16.0402
83 2 7.36409 7.28267 15.8647
84 2 11.5561 7.20072 0.0825892
85 2 15.6746 7.36886 15.9255
86 2 19.6226 7.38119 15.7842
87 2 23.6863 7.44134 0.222753
88 2 27.6452 7.59495 15.9281
89 2 31.3768 7.76378 16.0409
90 2 35.5584 7.69697 15.966
91 2 39.6751 7.71398 0.332687
92 2 43.5276 7.87639 0.269433
93 2 47.7208 7.75805 16.0664
94 2 51.5443 7.97117 0.272795
95 2 55.7197 7.7512 16.1942
96 2 59.6966 8.07531 -0.0191109
97 2 63.8554 8.06316 16.0506
98 2 67.7478 8.01778 15.9775
99 2 71.7024 7.96267 15.673
100 2 75.7154 8.18823 16.0295
101 2 79.7502 8.12283 0.220857
102 2 83.4671 7.86113 16.0206
103 2 87.3405 7.84452 15.991
104 2 91.1303 7.82511 15.9932
105 2 95.043 7.93029 15.8763
106 2 98.9868 7.75387 -0.120223
107 2 102.978 7.62958 -0.0349284
108 2 106.975 7.77631 16.0747
109 2 110.927 7.49897 0.286165
110 2 114.781 7.55716 16.2537
111 2 118.817 7.50993 16.1053
112 2 122.836 7.69854 16.1479
113 2 126.636 7.49594 15.9214
114 2 130.325 7.37908 0.254413
115 2 134.436 7.31841 0.216816
116 2 138.164 7.2983 15.9706
117 2 142.101 7.1856 16.0579
118 2 145.978 7.08381 0.232295
119 2 150.08 7.2221 0.093227
120 2 154.097 7.28255 15.8989
121 2 157.956 11.422 15.9368
122 2 3.782 11.2325 15.9029
123 2 7.52238 11.2 15.754
124 2 11.6471 11.1518 -0.0776936
125 2 15.6825 11.2364 15.9774
126 2 19.6425 11.4459 15.9529
127 2 23.405 11.5659 15.842
128 2 27.6251 11.6254 15.9859
129 2 31.5911 11.507 16.0246
130 2 35.6305 11.6225 16.0339
131 2 39.6032 11.7709 16.1186
132 2 43.6234 11.7868 0.264311
133 2 47.4871 11.9077 0.310873
134 2 51.5506 11.7043 15.8079
135 2 55.6051 12.028 0.13615
136 2 59.6572 11.879 15.9363
137 2 63.7608 11.9796 0.0514928
138 2 67.6278 11.9144 15.9089
139 2 71.7948 11.8993 15.9868
140 2 75.6216 12.016 16.0186
141 2 79.5652 11.9724 15.8761
142 2 83.4998 12.0587 15.8233
143 2 87.4559 11.8284 0.007603
144 2 91.2206 11.8862 -0.122199
145 2 95.3026 11.9316 15.8568
146 2 99.0941 11.827 15.8394
147 2 103.064 11.6316 0.304869
148 2 107.12 11.7123 16.0504
149 2 111.233 11.6582 0.22621
150 2 114.937 11.5663 16.0161
151 2 118.707 11.6125 0.211916
152 2 122.76 11.543 0.224431
153 2 126.755 11.4627 16.1002
154 2 130.621 11.2984 15.9278
155 2 134.435 11.5057 -0.0157728
156 2 138.404 11.3426 0.234329
157 2 142.165 11.0553 0.0927755
158 2 146.088 11.2258 0.106449
159 2 149.926 11.1957 0.135902
160 2 153.941 11.2406 0.274164
161 2 157.83 15.0394 15.7936
162 2 3.65052 15.1555 15.7549
163 2 7.66079 15.1929 16.0158
164 2 11.4433 15.0534 15.7945
165 2 15.507 15.1202 16.0177
166 2 19.4816 15.3649 0.205372
167 2 23.4463 15.5206 0.161021
168 2 27.4929 15.4324 16.1063
169 2 31.5433 15.3788 0.0863712
170 2 35.6703 15.497 16.0019
171 2 39.6008 15.5064 0.155783
172 2 43.4092 15.5849 0.257372
173 2 47.5634 15.6704 0.254082
174 2 51.6256 15.7907 0.158519
175 2 55.4775 15.7601 16.0494
176 2 59.6415 15.7155 0.142643
177 2 63.6272 15.757 15.8613
178 2 67.6496 15.6224 15.8653
179 2 71.6949 15.8932 0.264547
180 2 75.6603 15.7996 0.331302
181 2 79.5421 15.8486 15.8891
182 2 83.5626 16.0471 0.265216
183 2 87.3554 15.8818 15.9958
184 2 91.2587 16.1872 0.068024
185 2 95.2235 15.7753 15.8125
186 2 99.1726 15.8811 15.8838
187 2 103.09 15.9222 15.8545
188 2 107.066 15.5686 15.978
189 2 111.016 15.7302 15.9815
190 2 115.004 15.6018 15.955
191 2 118.78 15.6197 0.104587
192 2 122.584 15.4273 15.9482
193 2 126.511 15.3991 16.0394
194 2 130.525 15.2097 0.208418
195 2 134.306 15.5293 0.121946
196 2 138.395 15.3482 0.27222
197 2 142.387 15.2464 15.9122
198 2 146.039 15.183 0.198706
199 2 150.326 15.1377 0.0467997
200 2 153.92 15.092 15.8945
201 2 158.079 19.1828 16.0294
202 2 3.47872 18.8936 0.208046
203 2 7.51565 19.0482 -0.124262
204 2 11.3366 18.9944 15.8965
205 2 15.4413 19.0252 16.0373
206 2 19.4112 19.1796 16.0372
207 2 23.1525 19.2295 15.971
208 2 27.3035 19.1895 15.9675
209 2 31.2765 19.4579 16.0427
210 2 35.4304 19.3515 15.9845
211 2 39.3592 19.406 0.232645
212 2 43.5413 19.5073 15.9684
213 2 47.6184 19.6333 16.0665
214 2 51.4787 19.5862 -0.0259568
215 2 55.4728 19.5842 15.873
216 2 59.6013 19.7672 15.8266
217 2 63.4545 19.5411 15.8183
218 2 67.5883 19.7565 16.0196
219 2 71.7314 19.719 0.129192
220 2 75.6756 19.8664 0.243176
221 2 79.6092 19.9096 0.142099
222 2 83.4845 19.8017 15.871
223 2 87.5186 19.8765 0.122442
224 2 91.3524 19.814 0.217612
225 2 95.3544 19.9095 16.0177
226 2 99.3264 19.7118 15.9921
227 2 103.288 19.8737 15.9497
228 2 107.09 19.8289 15.835
229 2 110.921 19.7081 0.123696
230 2 114.883 19.8506 15.8366
231 2 118.878 19.4692 16.1357
232 2 122.796 19.4648 16.1035
233 2 126.606 19.4818 16.0231
234 2 130.497 19.3917 16.0183
235 2 134.527 19.2793 0.221446
236 2 138.524 19.5102 15.9188
237 2 142.257 19.398 15.8154
238 2 146.263 19.3923 0.0558842
239 2 150.115 19.2871 15.9215
240 2 154.112 19.1589 0.402597
241 2 157.98 23.1964 15.9805
242 2 3.57056 23.1019 16.0838
243 2 7.59388 22.9399 0.168962
244 2 11.4056 23.0105 0.25527
245 2 15.49 23.057 15.9276
246 2 19.488 23.0841 16.1338
247 2 23.6162 23.1592 15.9578
248 2 27.4605 23.1734 16.1003
249 2 31.2956 23.2685 0.194897
250 2 35.5297 23.2217 16.0291
251 2 39.6067 23.3652 0.158367
252 2 43.4787 23.517 15.9626
253 2 47.5514 23.4318 0.173953
254 2 51.5659 23.6049 0.10068
255 2 55.7431 23.7319 0.144427
256 2 59.4847 23.5411 15.864
257 2 63.5845 23.4886 0.0597174
258 2 67.7475 23.6451 15.8786
259 2 71.5605 23.6924 15.9471
260 2 75.8064 23.742 0.19064
261 2 79.4356 23.9262 15.9189
262 2 83.7504 23.9382 0.254182
263 2 87.556 23.9111 15.8495
264 2 91.4116 24.0631 15.9899
265 2 95.3275 23.8423 15.9611
266 2 99.0971 23.9524 -0.0240297
267 2 103.128 23.6667 16.0095
268 2 107.344 23.7811 15.8023
269 2 111.131 23.7425 0.416506
270 2 115.095 23.7349 16.0235
271 2 119.034 23.6911 16.1115
272 2 122.685 23.5756 0.155958
273 2 126.525 23.558 15.9449
274 2 130.85 23.407 15.9507
275 2 134.57 23.2459 16.0091
276 2 138.371 23.4638 15.9285
277 2 142.194 23.3036 15.8514
278 2 146.104 23.4405 -0.122322
279 2 150.039 23.3556 0.0261614
280 2 154.021 23.196 0.112773
281 2 157.978 26.9225 0.153965
282 2 3.53432 27.0895 0.00529552
283 2 7.38506 26.9856 0.14362
284 2 11.4818 26.9502 15.9973
285 2 15.4479 26.8715 15.9054
286 2 19.5511 27.0729 0.182554
287 2 23.3856 26.9122 15.9986
288 2 27.4127 27.1393 16.2163
289 2 31.4 27.2971 0.323847
290 2 35.2807 27.2308 0.322702
291 2 39.2165 27.1941 0.209803
292 2 43.3154 27.5465 0.141495
293 2 47.5188 27.3315 0.243964
294 2 51.5145 27.4849 15.9731
295 2 55.4663 27.3799 0.048466
296 2 59.6249 27.5807 15.9517
297 2 63.4051 27.4178 15.7864
298 2 67.5675 27.6513 15.8835
299 2 71.6371 27.6554 15.9202
300 2 75.4858 27.5518 0.113633
301 2 79.5141 27.8361 0.167902
302 2 83.4516 27.7045 16.0555
303 2 87.5586 27.9054 0.100725
304 2 91.6382 27.8232 -0.0142361
305 2 95.5096 27.9937 0.0472349
306 2 99.5771 27.7939 0.140571
307 2 103.337 27.7765 16.0063
308 2 107.134 27.7915 0.41338
309 2 110.964 27.6566 16.0691
310 2 115.058 27.6543 16.0343
311 2 118.84 27.6463 0.234182
312 2 122.793 27.5387 0.115337
313 2 126.738 27.636 15.9201
314 2 130.521 27.4704 15.8966
315 2 134.411 27.4168 16.0657
316 2 138.273 27.3258 16.1403
317 2 142.182 27.3964 0.370354
318 2 146.393 27.3384 0.148235
319 2 150.15 27.3813 -0.104082
320 2 154.093 27.1373 0.0445556
321 2 158.032 31.1103 15.9837
322 2 3.5202 31.0958 16.0826
323 2 7.40771 31.2507 15.8622
324 2 11.4501 31.0463 0.295995
325 2 15.4697 30.8542 0.257463
326 2 19.4851 30.9004 16.0368
327 2 23.4443 31.1283 16.0186
328 2 27.3267 31.0355 0.321213
329 2 31.2336 31.0851 16.203
330 2 35.4126 30.9372 16.1394
331 2 39.3524 31.1683 15.9587
332 2 43.4742 31.3741 0.0443479
333 2 47.236 31.136 15.8701
334 2 51.3977 31.4166 0.334025
335 2 55.5921 31.3167 15.9314
336 2 59.6224 31.5118 0.0276625
337 2 63.3755 31.3794 16.0644
338 2 67.3541 31.5377 0.125268
339 2 71.4101 31.3831 0.0891772
340 2 75.4877 31.6286 0.075361
341 2 79.705 31.5994 15.7444
342 2 83.6965 31.5671 0.168646
343 2 87.514 31.7154 15.9752
344 2 91.6895 31.8872 15.9528
345 2 95.5263 31.8625 15.874
346 2 99.6286 31.952 0.0430357
347 2 103.412 31.7384 15.962
348 2 107.27 31.9058 16.022
349 2 111.11 31.7758 16.0816
350 2 114.822 31.6958 15.902
351 2 118.878 31.4967 15.9145
352 2 122.873 31.6941 15.8359
353 2 126.898 31.5685 16.135
354 2 130.661 31.633 15.9616
355 2 134.472 31.4427 15.9347
356 2 138.414 31.3419 15.8705
357 2 142.191 31.4151 0.177041
358 2 146.024 31.3797 15.9574
359 2 150.254 31.2838 0.118837
360 2 154.274 31.1211 0.280664
361 2 -0.372928 35.0407 0.13535
362 2 3.53103 35.092 15.9667
363 2 7.56063 34.9189 16.1554
364 2 11.6285 34.9493 15.9146
365 2 15.5597 35.0257 0.0755946
366 2 19.3256 35.0409 0.21921
367 2 23.381 34.9406 0.254262
368 2 27.2712 35.0067 0.199903
369 2 31.32 34.9808 0.094339
370 2 35.3644 34.9686 0.0474006
371 2 39.5051 35.1334 0.0244763
372 2 43.2849 34.9634 15.7093
373 2 47.3923 35.1757 15.9421
374 2 51.5281 35.2858 16.0431
375 2 55.5433 35.2453 0.256626
376 2 59.4932 35.4357 -0.0109415
377 2 63.4718 35.3019 15.8986
378 2 67.5268 35.5684 0.155947
379 2 71.4453 35.311 0.193464
380 2 75.4107 35.2874 16.0351
381 2 79.4186 35.4611 0.0242213
382 2 83.3692 35.3014 15.9365
383 2 87.4417 35.5309 0.183445
384 2 91.4206 35.8174 0.036833
385 2 95.4769 35.8496 15.862
386 2 99.4591 35.8109 0.15514
387 2 103.515 35.8348 15.9275
388 2 107.234 35.8766 16.1125
389 2 111.119 35.8032 15.798
390 2 115.138 35.8025 15.9411
391 2 118.853 35.5912 15.9719
392 2 122.712 35.5911 15.9971
393 2 126.711 35.473 15.9492
394 2 130.638 35.4407 16.0154
395 2 134.775 35.5082 15.8125
396 2 138.641 35.5004 -0.0163234
397 2 142.421 35.4661 0.0575969
398 2 146.361 35.3427 0.1591
399 2 150.25 35.1028 15.8749
400 2 154.117 35.0488 0.353865
401 2 157.999 39.1057 0.197111
402 2 3.76836 39.0133 0.164389
403 2 7.74671 38.9337 0.206453
404 2 11.5666 38.9225 15.8297
405 2 15.3453 38.9353 0.231538
406 2 19.4328 38.9586 15.942
407 2 23.2337 38.8904 16.0917
408 2 27.3778 38.905 16.0388
409 2 31.2336 38.7866 -0.0307639
410 2 35.3826 38.7422 0.21076
411 2 39.213 38.9831 15.9212
412 2 43.2476 39.2055 0.0415987
413 2 47.4402 39.343 0.0925672
414 2 51.4417 39.1171 15.8905
415 2 55.4559 39.2629 -0.0195574
416 2 59.4575 39.1917 0.16218
417 2 63.4928 39.2679 0.157042
418 2 67.4538 39.2999 0.19684
419 2 71.4202 39.4831 0.105206
420 2 75.355 39.2364 0.185452
421 2 79.2006 39.4107 0.20066
422 2 83.5575 39.554 16.2033
423 2 87.3846 39.4517 15.9522
424 2 91.5437 39.5707 15.9493
425 2 95.3491 39.5746 15.8763
426 2 99.4228 39.6578 0.297118
427 2 103.295 39.6278 15.9923
428 2 107.071 39.7345 15.8016
429 2 111.102 39.6989 15.8629
430 2 115.162 39.6061 15.9018
431 2 118.721 39.685 15.9793
432 2 123.02 39.6697 16.0706
433 2 126.764 39.5608 0.228839
434 2 130.812 39.7568 15.9591
435 2 134.686 39.521 15.9187
436 2 138.613 39.4212 16.0185
437 2 142.606 39.38 15.8156
438 2 146.386 39.2592 0.0352135
439 2 150.274 39.2874 15.8894
440 2 154.315 39.2755 16.0479
441 2 158.205 43.0367 -0.0552349
442 2 3.88452 43.0997 15.9659
443 2 7.85418 43.1878 15.8385
444 2 11.5617 42.9377 0.20141
445 2 15.5344 42.8827 0.246906
446 2 19.4081 42.7257 0.139023
447 2 23.3385 42.8135 16.0881
448 2 27.2293 42.741 16.0076
449 2 31.1568 42.7722 0.16458
450 2 35.1849 42.5989 0.190074
451 2 39.3841 42.9854 0.0915395
452 2 43.2839 43.1075 -0.042208
453 2 47.3357 43.1305 15.8702
454 2 51.2826 42.917 15.9663
455 2 55.3979 43.0395 0.161259
456 2 59.3643 42.9313 15.761
457 2 63.4956 43.1399 0.139616
458 2 67.2087 43.2332 0.326336
459 2 71.3618 43.2198 0.0203246
460 2 75.479 43.2918 0.133239
461 2 79.4849 43.419 0.238304
462 2 83.4787 43.4842 16.0916
463 2 87.2101 43.5027 15.919
464 2 91.407 43.7047 0.0141715
465 2 95.477 43.6078 0.197528
466 2 99.4059 43.4842 15.7798
467 2 103.419 43.6502 15.8707
468 2 107.452 43.7118 15.9576
469 2 111.242 43.658 15.9362
470 2 115.103 43.7078 15.9767
471 2 118.984 43.6204 15.9387
472 2 123.008 43.7319 16.0781
473 2 126.829 43.6988 0.0125974
474 2 130.858 43.5907 0.123734
475 2 134.881 43.4736 15.7223
476 2 138.702 43.2533 15.9386
477 2 142.711 43.3773 16.021
478 2 146.616 43.1653 0.165678
479 2 150.236 43.2977 0.16594
480 2 154.252 43.1675 0.175522
481 2 -0.0844515 46.9864 0.0949995
482 2 3.8471 47.1848 0.288511
483 2 7.56952 47.0643 0.311483
484 2 11.6473 47.0248 0.129631
485 2 15.6096 46.9785 0.138277
486 2 19.5305 46.8627 0.131888
487 2 23.233 46.959 0.275169
488 2 27.2108 46.6837 16.1494
489 2 31.3207 46.7905 0.111896
490 2 35.2547 46.7372 0.139522
491 2 39.2396 46.6134 15.9164
492 2 43.2521 46.9722 16.0028
493 2 47.3 46.7717 -0.0500325
494 2 51.1442 46.7932 15.8958
495 2 55.1395 46.9626 15.8736
496 2 59.3145 46.9499 15.7281
497 2 63.3055 47.2019 0.144781
498 2 67.3925 47.3459 0.034304
499 2 71.352 47.177 16.051
500 2 75.2676 47.1728 0.15697
501 2 79.5086 47.3385 15.9034
502 2 83.4969 47.208 15.9495
503 2 87.2264 47.4268 0.16838
504 2 91.3643 47.4932 0.104365
505 2 95.4199 47.4386 -0.060926
506 2 99.2805 47.5861 0.0168522
507 2 103.171 47.6469 0.148429
508 2 107.188 47.7872 15.9275
509 2 111.372 47.6841 16.0124
510 2 115.218 47.8289 0.235615
511 2 119.172 47.7501 16.0513
512 2 122.921 47.7172 15.9852
513 2 126.946 47.6114 15.8825
514 2 131.01 47.5617 15.9644
515 2 134.919 47.4072 15.9227
516 2 138.622 47.3211 16.0349
517 2 142.709 47.415 15.7574
518 2 146.476 47.2977 0.0504188
519 2 150.205 47.1076 0.233533
520 2 154.313 47.1059 15.834
521 2 158.27 51.0256 0.380749
522 2 3.74578 51.0713 16.004
523 2 7.82879 51.1526 16.0227
524 2 11.8791 50.8501 16.0375
525 2 15.6456 50.9646 0.241635
526 2 19.5742 50.9484 15.8261
527 2 23.483 50.9718 16.1122
528 2 27.5198 50.6972 15.8559
529 2 31.3632 50.7482 0.173969
530 2 35.3613 50.7635 0.0490027
531 2 39.2626 50.6358 15.8471
532 2 43.3229 50.881 15.8757
533 2 47.2705 50.7574 -0.01617
534 2 51.2089 50.5888 0.060693
535 2 55.1417 50.9649 0.221659
536 2 59.2111 50.9763 15.8459
537 2 63.1854 50.9976 15.973
538 2 67.199 51.17 0.145446
539 2 71.2054 51.217 0.223454
540 2 75.3051 51.1411 0.0264165
541 2 79.3368 51.1908 0.16276
542 2 83.3057 51.3193 0.241092
543 2 87.3738 51.3023 0.263564
544 2 91.1448 51.2464 0.475151
545 2 95.4062 51.3038 0.279044
546 2 99.2796 51.3456 0.115827
547 2 103.22 51.488 16.0284
548 2 107.403 51.5599 0.314223
549 2 111.341 51.8822 0.330824
550 2 115.107 51.7337 15.8701
551 2 119.177 51.4969 15.9086
552 2 123.234 51.4806 16.0605
553 2 126.95 51.5834 16.0458
554 2 130.793 51.5457 0.202814
555 2 134.684 51.6157 0.185156
556 2 138.729 51.5758 -0.00929402
557 2 142.801 51.3031 0.157179
558 2 146.471 51.2543 15.9514
559 2 150.356 51.1724 0.279831
560 2 154.295 51.2103 0.0368963
561 2 158.144 55.1146 0.0988318
562 2 3.94855 55.0362 0.324993
563 2 7.79065 55.04 0.213215
564 2 11.6474 55.1859 0.199618
565 2 15.5235 55.1639 -0.021045
566 2 19.6679 54.9105 15.7725
567 2 23.5011 54.9589 15.8438
568 2 27.519 54.8245 15.8162
569 2 31.3367 54.5491 0.279588
570 2 35.2891 54.531 0.210957
571 2 39.2884 54.6333 16.1556
572 2 43.1495 54.7837 15.8047
573 2 47.2653 54.7554 0.0419618
574 2 51.1627 54.7274 15.9507
575 2 55.2152 54.7884 15.9881
576 2 59.197 55.012 15.9329
577 2 63.0972 54.8825 15.9229
578 2 67.2715 55.055 0.249643
579 2 71.1297 55.0481 0.242549
580 2 75.093 54.8833 15.9331
581 2 79.4067 55.0419 0.134748
582 2 83.2007 55.1425 0.310086
583 2 87.1369 55.2901 0.147654
584 2 91.197 55.3097 15.8562
585 2 95.1173 55.2889 0.0522516
586 2 99.1023 55.306 16.0035
587 2 103.27 55.3664 16.0329
588 2 107.277 55.4837 0.0971312
589 2 111.116 55.6616 15.823
590 2 115.269 55.5405 16.0524
591 2 119.3 55.535 15.9942
592 2 123.176 55.7216 0.45804
593 2 127.148 55.748 16.0121
594 2 130.868 55.5454 15.863
595 2 134.833 55.415 0.128227
596 2 138.688 55.4295 15.9301
597 2 142.686 55.2729 0.0661468
598 2 146.727 55.1851 0.161717
599 2 150.35 55.317 0.202447
600 2 154.381 55.2471 16.064
601 2 158.352 59.1862 -0.0345976
602 2 3.97457 58.9419 15.8436
603 2 7.98124 59.1067 15.9806
604 2 11.9069 58.963 0.312566
605 2 15.8972 58.8427 16.0425
606 2 19.7139 59.0867 -0.12943
607 2 23.5121 58.8758 0.0132738
608 2 27.4832 58.7157 0.141662
609 2 31.5067 58.6506 16.0261
610 2 35.3709 58.5202 15.7719
611 2 39.2121 58.5271 15.9549
612 2 43.3922 58.7156 15.9015
613 2 47.0915 58.6167 15.9204
614 2 51.1422 58.6816 15.7109
615 2 55.2482 58.6946 15.8607
616 2 59.1754 58.7568 0.139379
617 2 63.1379 58.9617 16.0731
618 2 67.2467 58.8473 0.244998
619 2 71.2544 58.8051 15.8959
620 2 75.1948 58.9784 0.0923251
621 2 79.1497 59.2276 0.190747
622 2 83.0913 59.1777 0.224909
623 2 86.9596 59.1282 16.0225
624 2 91.1483 59.3586 15.8771
625 2 95.1551 59.3058 0.12485
626 2 99.1225 59.2774 0.203572
627 2 103.06 59.2672 15.9587
628 2 107.074 59.3352 0.118941
629 2 111.163 59.5064 15.7739
630 2 115.068 59.3718 15.7756
631 2 119.302 59.4912 15.9494
632 2 123.075 59.6481 0.199954
633 2 127.004 59.8367 15.9498
634 2 131.038 59.6519 0.117692
635 2 134.742 59.592 16.079
636 2 138.713 59.3829 0.184032
637 2 142.754 59.5032 0.134183
638 2 146.531 59.61 0.0778051
639 2 150.486 59.1578 15.8963
640 2 154.596 59.2686 0.298894
641 2 0.201475 63.1521 -0.0367919
642 2 4.24988 63.0166 0.172248
643 2 8.17193 63.2577 15.907
644 2 12.0273 62.9535 15.9849
645 2 15.9247 62.9515 15.7702
646 2 19.9154 62.9591 0.225192
647 2 23.6811 62.8857 -0.00189646
648 2 27.7515 62.8133 0.13017
649 2 31.5671 62.6575 0.212726
650 2 35.3777 62.7196 0.260999
651 2 39.3677 62.7423 16.0077
652 2 43.2161 62.5306 0.307232
653 2 47.1997 62.6538 15.8968
654 2 51.2428 62.4702 15.9165
655 2 55.2483 62.5219 0.109635
656 2 59.328 62.6092 15.9936
657 2 63.2248 62.8005 0.11851
658 2 67.1907 62.7471 15.9541
659 2 71.1778 62.709 0.107251
660 2 75.2289 62.9706 0.125745
661 2 79.104 62.9343 0.240369
662 2 83.2593 63.1522 0.0920359
663 2 87.2011 63.0928 16.0235
664 2 91.1124 63.0232 16.1004
665 2 95.2062 63.0987 0.367204
666 2 99.4084 63.1805 0.175519
667 2 103.316 63.3435 15.9133
668 2 107.167 63.2882 15.8445
669 2 111.073 63.4523 16.0198
670 2 115.251 63.5222 0.155377
671 2 119.294 63.3988 15.9975
672 2 123.214 63.6385 0.149965
673 2 127.217 63.4804 15.9182
674 2 131.132 63.6369 0.35151
675 2 135.015 63.5548 16.0943
676 2 138.679 63.4526 16.1725
677 2 142.604 63.4813 15.6836
678 2 146.688 63.382 0.140161
679 2 150.749 63.3396 15.7538
680 2 154.481 63.1845 0.192442
681 2 0.420792 67.2128 0.201372
682 2 4.16514 67.186 0.329063
683 2 8.18033 66.9643 15.9215
684 2 12.0042 67.1377 15.8852
685 2 15.9974 66.9117 0.241717
686 2 19.7494 66.866 0.121414
687 2 23.6972 66.7918 0.0197577
688 2 27.5487 66.7372 0.198756
689 2 31.5697 66.7721 0.0890071
690 2 35.4348 66.6636 0.137549
691 2 39.6322 66.6739 15.997
692 2 43.4248 66.5953 0.153628
693 2 47.261 66.5414 16.0622
694 2 51.197 66.724 15.9002
695 2 55.0651 66.6058 15.7495
696 2 59.1511 66.5046 16.0815
697 2 63.1826 66.6559 15.8347
698 2 67.1588 66.7141 15.8242
699 2 71.0829 66.7864 0.140724
700 2 75.0582 66.7915 16.0633
701 2 78.9281 66.6879 15.8279
702 2 82.9574 67.0287 0.269455
703 2 87.0692 66.9185 16.0521
704 2 91.0604 67.0375 15.9176
705 2 95.0679 66.884 0.206738
706 2 99.2526 67.0535 0.146087
707 2 103.019 67.2016 0.285991
708 2 107.025 67.2977 15.8933
709 2 111.067 67.3029 15.8623
710 2 114.979 67.3909 15.9866
711 2 119.234 67.3787 0.136679
712 2 123.173 67.2368 0.156354
713 2 127.103 67.5435 0.187898
714 2 131.237 67.6693 15.9576
715 2 135.01 67.4268 0.195752
716 2 138.894 67.6551 0.249585
717 2 142.914 67.3914 15.9912
718 2 146.65 67.1396 15.9164
719 2 150.627 67.3129 16.0056
720 2 154.576 67.229 0.251796
721 2 0.282377 71.1377 0.193377
722 2 4.21664 71.188 15.7836
723 2 8.2666 71.124 0.096867
724 2 12.0605 70.9213 15.8889
725 2 16.0502 70.9412 0.171299
726 2 19.9177 70.7401 0.210864
727 2 23.8375 70.9305 0.140852
728 2 27.8263 70.8021 15.8491
729 2 31.6435 70.7601 -0.0290666
730 2 35.3487 70.6182 0.169629
731 2 39.429 70.6674 15.7977
732 2 43.4531 70.4645 0.164054
733 2 47.3297 70.4953 15.8692
734 2 51.2625 70.5574 15.9403
735 2 55.1139 70.3063 0.145646
736 2 59.1869 70.666 0.206709
737 2 63.1024 70.5486 0.00856829
738 2 66.9178 70.638 15.8036
739 2 70.9039 70.4718 15.7933
740 2 75.0259 70.7756 15.8359
741 2 78.9776 70.8504 0.208758
742 2 83.1221 70.7692 0.321453
743 2 87.1424 70.9647 15.8596
744 2 91.1878 70.8401 16.0691
745 2 95.0979 70.8429 15.9992
746 2 98.994 70.9261 16.1574
747 2 102.928 71.2131 15.8675
748 2 107.067 70.9498 16.0208
749 2 111.065 71.3426 15.8469
750 2 115.155 71.2894 0.151893
751 2 119.035 71.1732 16.0083
752 2 123.06 71.2758 0.29027
753 2 127.118 71.3071 15.972
754 2 131.133 71.4218 16.0212
755 2 135.189 71.4989 15.9092
756 2 139.075 71.4156 16.1406
757 2 143.041 71.3327 0.287702
758 2 147.094 71.4969 0.250246
759 2 150.866 71.4541 0.44906
760 2 154.826 71.305 15.8926
761 2 0.517938 75.2287 0.0631306
762 2 4.31638 75.1426 15.9515
763 2 8.25454 75.0192 15.8565
764 2 12.0149 74.9555 15.9794
765 2 16.0446 75.0046 15.9144
766 2 20.0273 74.9038 15.769
767 2 23.9842 74.9922 15.8492
768 2 27.659 74.6097 16.0058
769 2 31.7231 74.7704 0.0745482
770 2 35.5023 74.5905 15.995
771 2 39.3228 74.5422 15.8764
772 2 43.3412 74.7453 0.197876
773 2 47.2471 74.3381 15.761
774 2 51.0145 74.4232 0.0204367
775 2 55.2305 74.4347 15.7976
776 2 59.1391 74.5003 16.1662
777 2 63.0418 74.545 16.036
778 2 66.9947 74.5502 0.18344
779 2 70.9755 74.5953 0.242222
780 2 75.0103 74.5884 0.150029
781 2 79.0293 74.7593 0.193861
782 2 82.8942 74.712 0.0127356
783 2 87.1608 74.7757 0.0445467
784 2 91.1853 74.7907 15.8339
785 2 94.9519 74.7856 16.1059
786 2 99.008 74.8127 0.219204
787 2 102.833 75.0852 15.8954
788 2 106.849 74.7522 15.855
789 2 110.948 75.19 15.7059
790 2 115.128 75.0522 15.9586
791 2 119.102 75.2891 0.222505
792 2 122.949 75.287 16.0349
793 2 126.952 75.2556 15.7156
794 2 130.991 75.3352 0.34837
795 2 134.995 75.4114 15.9078
796 2 139.01 75.3784 16.003
797 2 142.889 75.3845 15.8382
798 2 147.029 75.3026 16.0124
799 2 150.97 75.1282 0.1718
800 2 154.775 75.1743 0.0253489
801 2 0.413323 78.9367 0.0680683
802 2 4.19149 79.2588 15.8694
803 2 8.11101 78.9588 0.269265
804 2 12.2333 79.115 0.275806
805 2 16.1283 78.8058 15.7395
806 2 19.9661 79.001 15.9108
807 2 23.6759 78.7333 0.0915272
808 2 27.6939 78.79 0.222173
809 2 31.677 78.7998 0.310925
810 2 35.7786 78.7261 0.140397
811 2 39.5255 78.5229 15.8658
812 2 43.5525 78.5388 15.8642
813 2 47.3748 78.4492 15.9325
814 2 51.2263 78.3537 0.078743
815 2 55.1711 78.5974 0.039086
816 2 58.8523 78.511 15.8193
817 2 63.0491 78.4098 15.729
818 2 67.0061 78.4269 0.189074
819 2 70.882 78.3921 16.0494
820 2 75.0264 78.7189 -0.0365676
821 2 78.7971 78.7687 16.0101
822 2 83.0602 78.5085 15.7386
823 2 86.9832 78.7857 0.403205
824 2 90.9635 78.7046 0.415425
825 2 94.8274 78.87 -0.0103631
826 2 98.957 78.6074 15.7978
827 2 103.023 78.9882 15.6687
828 2 106.787 78.8166 0.207422
829 2 110.904 79.0292 0.203894
830 2 115.004 79.0949 0.189156
831 2 118.902 79.0611 0.115411
832 2 122.862 79.1246 15.8041
833 2 126.996 79.1537 0.132421
834 2 130.984 79.0937 15.8274
835 2 135.126 79.2407 0.172228
836 2 139.081 79.3254 15.9339
837 2 143.155 79.5277 16.0526
838 2 146.969 79.445 15.8202
839 2 150.735 79.1187 16.0789
840 2 154.775 79.1211 0.413967
841 2 0.27865 83.1106 15.6982
842 2 4.33509 82.9695 15.9411
843 2 8.30927 82.8742 0.102129
844 2 12.2841 83.0239 15.8109
845 2 16.0932 82.9103 15.7675
846 2 19.8495 82.9356 0.176703
847 2 24.0597 82.7203 15.8871
848 2 27.8002 82.8527 0.273899
849 2 31.775 82.6793 16.1802
850 2 35.7861 82.6311 0.0953411
851 2 39.7379 82.5601 0.0783765
852 2 43.6795 82.6809 15.6239
853 2 47.6117 82.5854 -0.0425611
854 2 51.4635 82.6795 -0.100974
855 2 55.1525 82.3556 0.05887
856 2 59.2034 82.394 15.7102
857 2 62.9937 82.5035 15.8358
858 2 67.0876 82.312 15.8826
859 2 71.0427 82.3903 15.8852
860 2 74.8558 82.5131 15.7147
861 2 78.8198 82.7624 15.7979
862 2 82.7968 82.4417 0.0282318
863 2 86.866 82.67 0.235316
864 2 91.1084 82.6971 15.9668
865 2 94.8946 82.8054 0.0420114
866 2 98.9983 82.7868 15.9544
867 2 102.97 82.8098 0.245683
868 2 106.918 82.8316 16.0416
869 2 110.764 82.9064 15.9168
870 2 114.842 82.9718 15.9994
871 2 118.909 83.1361 15.8389
872 2 122.979 83.024 16.1014
873 2 126.787 83.1278 15.8577
874 2 130.886 83.1682 15.8535
875 2 134.95 83.2316 -0.139081
876 2 138.845 83.1637 16.1671
877 2 142.894 83.3215 0.193169
878 2 146.886 83.4029 16.0494
879 2 151.05 83.2232 0.276735
880 2 154.963 83.3699 0.0273123
881 2 0.397091 87.2483 16.1962
882 2 4.28232 87.1113 0.290938
883 2 8.15286 87.1447 15.9557
884 2 12.0789 87.1785 15.8946
885 2 16.1579 86.8482 15.9853
886 2 20.095 86.7279 15.9163
887 2 23.9385 86.6679 15.8143
888 2 27.8565 86.9858 0.0891407
889 2 31.7902 86.7172 16.1178
890 2 35.7071 86.6218 0.189202
891 2 39.6327 86.6751 15.7848
892 2 43.5285 86.5164 16.127
893 2 47.6311 86.52 15.9584
894 2 51.5225 86.5711 16.0367
895 2 55.1857 86.5826 15.9811
896 2 59.2339 86.407 -0.0039911
897 2 63.2216 86.5694 0.0583786
898 2 67.019 86.3011 15.9128
899 2 71.0591 86.4675 -0.0351949
900 2 74.8789 86.2975 15.7885
901 2 78.7666 86.4197 0.160327
902 2 82.6658 86.4826 0.00456413
903 2 87.0573 86.4526 15.7862
904 2 90.9139 86.6148 15.9632
905 2 94.8773 86.8654 16.0379
906 2 98.9183 86.6899 15.7352
907 2 102.923 86.9951 0.143913
908 2 106.664 86.6906 0.263263
909 2 110.924 86.8756 15.9877
910 2 114.724 86.7852 -0.0624453
911 2 118.667 87.0601 0.151846
912 2 122.787 86.9635 0.0394964
913 2 126.848 87.137 15.9529
914 2 130.892 87.1555 15.9548
915 2 134.973 87.1628 15.6396
916 2 138.899 87.176 16.0109
917 2 142.941 87.2203 15.7899
918 2 146.884 87.3176 0.203167
919 2 150.962 87.2231 15.872
920 2 154.715 87.1578 16.019
921 2 0.537961 90.9667 0.275469
922 2 4.42715 91.0663 0.0334
923 2 8.32909 91.1742 16.0514
924 2 12.0492 91.059 15.9392
925 2 16.3576 90.8266 0.177374
926 2 20.0657 90.7976 0.0944739
927 2 24.0198 90.6993 15.8267
928 2 27.8928 90.743 15.9968
929 2 31.7369 90.7773 16.0933
930 2 35.5498 90.639 0.130406
931 2 39.6404 90.4509 15.9754
932 2 43.5975 90.5589 15.7898
933 2 47.6711 90.6399 0.318203
934 2 51.4142 90.616 0.171955
935 2 55.2123 90.38 0.25222
936 2 59.2555 90.3076 0.114532
937 2 63.3138 90.2772 0.30953
938 2 67.1083 90.4726 15.9149
939 2 71.0759 90.4318 15.8627
940 2 74.9438 90.228 0.0115595
941 2 78.8343 90.3112 0.0840358
942 2 82.8074 90.4219 -0.0473069
943 2 86.8135 90.4267 0.0690843
944 2 90.9814 90.5782 0.0459117
945 2 94.7278 90.476 15.8966
946 2 98.8628 90.6124 16.0166
947 2 102.835 90.7186 0.050551
948 2 106.857 90.7063 16.0486
949 2 110.98 90.8113 16.1116
950 2 114.834 90.7953 -0.0145352
951 2 118.81 90.6834 0.178783
952 2 122.719 90.9826 15.8295
953 2 126.855 90.775 0.0548818
954 2 130.914 91.0461 0.0348323
955 2 134.718 91.0028 15.8571
956 2 138.786 91.0454 15.8994
957 2 142.946 91.1983 16.1076
958 2 146.7 91.1905 15.7027
959 2 150.819 91.0091 15.9241
960 2 154.863 91.1246 15.9782
961 2 0.35423 95.0923 0.0281606
962 2 4.61628 95.1853 16.0452
963 2 8.28316 94.8801 16.037
964 2 12.3262 95.1264 15.7174
965 2 16.1077 94.907 16.0637
966 2 20.094 94.8226 16.0024
967 2 24.167 94.77 16.0174
968 2 27.9586 94.7554 16.1283
969 2 31.9253 94.8391 16.0504
970 2 35.8135 94.6411 16.084
971 2 39.8523 94.5122 15.817
972 2 43.6488 94.6241 15.869
973 2 47.5735 94.5839 0.264168
974 2 51.5304 94.4963 16.1362
975 2 55.3597 94.5339 0.300176
976 2 59.2528 94.4259 15.9829
977 2 62.9987 94.3741 0.181444
978 2 66.8018 94.3126 0.127691
979 2 71.0061 94.2746 0.144093
980 2 75.0323 94.2088 0.0685216
981 2 78.9311 94.4907 15.9159
982 2 82.6568 94.3794 0.10628
983 2 86.6634 94.2317 0.238771