ITEM: TIMESTEP
21900
ITEM: NUMBER OF ATOMS
32000
ITEM: BOX BOUNDS xy xz yz pp pp pp
0.0000000000000000e+00 1.5831999999999999e+02 0.0000000000000000e+00
0.0000000000000000e+00 1.5831999999999999e+02 0.0000000000000000e+00
1.6299079478493006e-01 1.5934721205214894e+01 0.0000000000000000e+00
ITEM: ATOMS id type x y z
1 2 157.953 157.694 16.0551
2 2 3.78251 157.839 16.0131
3 2 7.77538 157.644 0.486258
4 2 11.8474 157.795 0.13566
5 2 15.7755 157.931 0.268331
6 2 19.9078 157.778 15.934
7 2 23.8211 157.975 15.8888
8 2 27.6074 158.176 15.5876
9 2 31.7155 158.289 0.0532531
10 2 35.8282 158.13 15.8026
11 2 39.9337 -0.199208 15.8501
12 2 43.8604 -0.252954 -0.0306339
13 2 47.7126 -0.0795597 15.6791
14 2 51.8548 0.259847 0.0295859
15 2 55.7947 158.657 0.26409
16 2 59.8376 158.505 15.9359
17 2 63.8012 0.138321 15.9276
18 2 67.8678 0.367629 16.0345
19 2 71.8151 0.158464 15.9694
20 2 75.4821 158.52 15.9718
21 2 79.3852 0.150658 15.7204
22 2 83.4608 158.176 15.8921
23 2 87.3202 158.381 15.7501
24 2 91.3585 158.455 0.316961
25 2 95.2289 158.109 16.0633
26 2 99.134 158.174 15.9865
27 2 102.983 158.218 15.9436
28 2 106.88 158.053 16.0579
29 2 110.86 158.061 0.355173
30 2 114.847 157.868 0.223601
31 2 118.739 157.89 15.9164
32 2 122.464 157.717 0.0995165
33 2 126.4 157.76 0.16631
34 2 130.544 157.712 0.242077
35 2 134.383 157.77 16.1662
36 2 138.131 157.908 15.9693
37 2 142.172 157.691 16.0006
38 2 146.105 157.508 15.9325
39 2 150.008 157.713 0.191256
40 2 154.115 157.557 0.251801
41 2 158.008 3.40306 16.0021
42 2 3.72492 3.32455 15.9609
43 2 7.85715 3.31055 0.251267
44 2 11.7797 3.39363 16.098
45 2 15.7319 3.53344 15.9504
46 2 19.6841 3.34329 15.967
47 2 23.6784 3.61385 0.175109
48 2 27.6371 3.58287 0.124127
49 2 31.7627 3.74804 0.0593511
50 2 35.5719 3.9687 0.196218
51 2 39.7063 3.73 0.0426371
52 2 43.7983 3.73819 15.8871
53 2 47.6669 3.96332 15.8435
54 2 51.6749 3.93073 16.0618
55 2 55.8391 4.28683 0.101234
56 2 59.7577 4.20628 16.1845
57 2 63.7372 4.03265 15.893
58 2 67.8583 4.21022 15.9454
59 2 71.7114 4.20801 15.8599
60 2 75.7551 4.2833 15.9204
61 2 79.6605 4.23317 15.9325
62 2 83.3593 4.03409 15.8392
63 2 87.4355 4.04731 15.8614
64 2 91.424 4.11985 0.28318
65 2 95.1307 3.93672 15.8673
66 2 99.11 3.95279 0.155976
67 2 102.989 3.79449 16.0575
68 2 106.876 3.81128 15.9358
69 2 110.913 3.66283 0.054571
70 2 114.849 3.62437 0.199265
71 2 118.873 3.68837 0.123863
72 2 122.697 3.47021 0.0125479
73 2 126.591 3.52932 -0.0192419
74 2 130.437 3.32142 0.165376
75 2 134.086 3.33126 15.8684
76 2 138.224 3.18958 0.0809992
77 2 142.249 3.31754 0.389985
78 2 146.176 3.14025 0.213694
79 2 150.142 3.08165 16.0741
80 2 153.999 3.41188 15.7499
81 2 158.251 7.12228 16.0575
82 2 3.70021 7.2415 16.0558
83 2 7.56656 7.2196 16.0434
84 2 11.7015 7.37611 0.109983
85 2 15.7414 7.21644 15.9187
86 2 19.8066 7.38882 16.139
87 2 23.7465 7.59098 0.148693
88 2 27.6203 7.41231 15.8749
89 2 31.5217 7.51009 15.8021
90 2 35.5853 7.52673 15.8129
91 2 39.5192 7.5903 0.1365
92 2 43.5551 7.88835 0.0467766
93 2 47.6465 7.78211 15.7726
94 2 51.7681 7.91096 0.243509
95 2 55.7863 7.86009 15.795
96 2 59.6969 8.17816 0.139327
97 2 63.8948 7.87241 15.928
98 2 67.7575 8.10831 16.0837
99 2 71.7144 8.258 15.8901
100 2 75.6479 8.15925 15.8901
101 2 79.6639 8.22267 0.103364
102 2 83.5201 7.95714 15.8715
103 2 87.6398 8.05297 15.8084
104 2 91.2986 7.93574 15.934
105 2 95.1813 7.9164 16.0272
106 2 99.3206 7.91695 0.188462
107 2 103.068 7.98825 0.328059
108 2 107.011 7.76557 15.8806
109 2 111.018 7.67062 0.250754
110 2 115.126 7.64767 15.8754
111 2 118.954 7.51306 15.8521
112 2 122.649 7.57811 15.9001
113 2 126.795 7.53118 15.9718
114 2 130.501 7.44629 -0.0279582
115 2 134.627 7.32039 0.160058
116 2 138.363 7.22081 16.0353
117 2 142.303 7.21331 16.0067
118 2 146.085 7.25933 0.20982
119 2 149.898 7.23775 0.189917
120 2 154.013 7.1299 15.9098
121 2 157.949 11.181 15.9098
122 2 3.47136 11.0458 15.9844
123 2 7.441 11.1775 16.0282
124 2 11.4584 10.9912 0.161444
125 2 15.4469 11.2535 15.8927
126 2 19.7493 11.5047 15.7827
127 2 23.6143 11.4464 15.9847
128 2 27.5695 11.3113 15.7625
129 2 31.7047 11.503 15.8207
130 2 35.6861 11.4437 15.8431
131 2 39.5683 11.4876 15.7483
132 2 43.6853 11.5349 0.0877941
133 2 47.6637 11.6264 0.0678892
134 2 51.8759 11.6923 15.9698
135 2 55.82 11.9797 0.0471144
136 2 59.7258 11.9761 15.9627
137 2 63.6522 11.8051 0.149172
138 2 67.8277 12.0616 15.7542
139 2 71.983 12.1761 15.8319
140 2 75.7886 12.061 15.7837
141 2 79.774 12.1643 16.056
142 2 83.8729 12.1978 15.7367
143 2 87.6047 12.1028 0.215827
144 2 91.3708 12.0749 0.274232
145 2 95.2525 11.9844 15.8873
146 2 99.0895 12.1509 16.0017
147 2 103.099 11.9878 0.223827
148 2 106.904 11.692 15.8412
149 2 111 11.7983 0.292902
150 2 114.917 11.7196 15.9425
151 2 118.695 11.568 0.0895019
152 2 122.843 11.5061 0.216421
153 2 126.618 11.493 15.9346
154 2 130.602 11.5559 15.9539
155 2 134.525 11.2737 0.18504
156 2 138.331 11.4751 0.117686
157 2 142.241 11.483 0.360533
158 2 146.292 11.0944 0.148269
159 2 150.196 11.1994 0.335586
160 2 154.222 11.1559 0.110871
161 2 158.069 15.1215 16.0798
162 2 3.46131 15.1768 15.8773
163 2 7.4045 15.0133 15.8471
164 2 11.5934 15.1143 15.8462
165 2 15.5471 15.1047 15.9633
166 2 19.6898 15.3803 0.226503
167 2 23.589 15.4435 0.104128
168 2 27.6031 15.5313 15.7568
169 2 31.604 15.4284 0.217425
170 2 35.6532 15.5134 15.9621
171 2 39.6316 15.5639 0.0652959
172 2 43.5244 15.7091 0.217735
173 2 47.5844 15.5365 0.0852507
174 2 51.6126 15.7426 0.112573
175 2 55.6635 15.7723 15.8569
176 2 59.57 15.8723 0.280182
177 2 63.7505 15.9022 16.067
178 2 67.675 15.9585 15.9494
179 2 71.716 16.1676 0.143905
180 2 75.6536 15.8637 0.0890026
181 2 79.8172 15.9333 16.0592
182 2 83.7732 16.0959 0.248293
183 2 87.6889 16.1253 15.6743
184 2 91.4243 16.0452 0.0962583
185 2 95.3679 15.8532 15.9284
186 2 99.4613 15.995 15.7993
187 2 103.349 15.6691 15.9868
188 2 107.255 15.7858 16.0343
189 2 110.837 15.731 15.9545
190 2 114.953 15.6293 15.7777
191 2 118.961 15.597 0.111532
192 2 122.799 15.51 16.0175
193 2 126.755 15.5495 16.0348
194 2 130.679 15.5539 0.0554235
195 2 134.695 15.3071 0.23234
196 2 138.514 15.3163 0.379158
197 2 142.3 15.3176 16.118
198 2 146.269 15.2108 0.0108628
199 2 150.095 15.1971 0.345721
200 2 154.177 15.4663 16.0163
201 2 158.012 19.0937 15.8965
202 2 3.61619 19.3357 0.142932
203 2 7.61461 18.938 0.376545
204 2 11.5087 19.1224 15.9274
205 2 15.3884 19.1311 15.7096
206 2 19.4626 19.2349 15.925
207 2 23.7423 19.2517 15.8643
208 2 27.4858 19.3941 15.9688
209 2 31.7296 19.4098 15.7655
210 2 35.5805 19.4981 15.8056
211 2 39.5499 19.4075 0.172067
212 2 43.6023 19.519 15.5954
213 2 47.5135 19.4521 15.774
214 2 51.5166 19.5224 0.123057
215 2 55.514 19.7412 15.9293
216 2 59.6895 19.7596 15.9701
217 2 63.6036 19.7398 16.1143
218 2 67.5648 19.7381 15.931
219 2 71.6289 19.8589 0.179759
220 2 75.6144 19.915 -0.0387786
221 2 79.7218 20.0207 0.0993738
222 2 83.5705 20.0544 15.8518
223 2 87.8147 20.1613 0.223104
224 2 91.6101 19.815 0.212652
225 2 95.5583 19.998 15.8336
226 2 99.3552 19.9411 15.847
227 2 103.319 19.7453 15.9836
228 2 107.177 19.7556 15.9945
229 2 111.328 19.6342 0.166347
230 2 114.981 19.4843 15.9835
231 2 118.887 19.6228 15.7974
232 2 122.975 19.5418 15.8095
233 2 126.928 19.5263 16.0319
234 2 130.71 19.5501 15.9565
235 2 134.748 19.238 0.0453097
236 2 138.584 19.4119 15.9052
237 2 142.398 19.215 15.9523
238 2 146.228 19.3231 0.141154
239 2 150.241 19.3915 16.1691
240 2 154.081 19.3197 0.190893
241 2 158.013 22.9995 15.9939
242 2 3.5123 23.0564 15.8733
243 2 7.71876 22.9604 0.10264
244 2 11.4414 23.0356 -0.0802248
245 2 15.4226 23.0542 15.8312
246 2 19.3647 23.0813 15.8212
247 2 23.3972 23.2606 15.9149
248 2 27.5852 23.2137 15.8411
249 2 31.7164 23.1884 0.254222
250 2 35.394 23.4254 16.0397
251 2 39.6214 23.2838 0.158529
252 2 43.4878 23.3808 15.8864
253 2 47.5039 23.5388 0.273043
254 2 51.5774 23.4762 0.245408
255 2 55.6678 23.4801 0.151265
256 2 59.5379 23.6017 15.8826
257 2 63.7723 23.7756 0.301118
258 2 67.6568 23.706 15.8989
259 2 71.4266 23.776 15.9535
260 2 75.6604 23.9231 0.243456
261 2 79.4899 23.7858 15.8738
262 2 83.6898 23.937 0.0570119
263 2 87.715 23.8877 15.977
264 2 91.4446 24.0961 16.0337
265 2 95.7108 23.9114 16.0116
266 2 99.4602 23.7438 0.177392
267 2 103.461 23.7249 16.094
268 2 107.154 23.7384 16.0459
269 2 110.986 23.6496 0.133655
270 2 115.049 23.4501 15.9422
271 2 118.87 23.7075 15.8165
272 2 123.033 23.4607 0.173115
273 2 126.947 23.5571 15.9097
274 2 130.91 23.4455 15.9577
275 2 134.743 23.5545 15.924
276 2 138.507 23.5072 16.1733
277 2 142.52 23.2823 16.1416
278 2 146.444 23.2279 0.366221
279 2 150.575 23.3625 0.425912
280 2 154.281 23.2732 0.280944
281 2 158.283 27.1171 0.277473
282 2 3.74029 27.112 0.152699
283 2 7.57891 27.0887 0.148536
284 2 11.567 26.952 15.9804
285 2 15.3357 26.8323 15.6962
286 2 19.3921 26.961 0.308451
287 2 23.4738 27.022 16.0338
288 2 27.4572 27.0369 15.9315
289 2 31.5041 27.0895 0.336296
290 2 35.4632 27.365 0.0867444
291 2 39.4047 27.2033 0.262787
292 2 43.5027 27.102 0.252862
293 2 47.6099 27.4605 0.269108
294 2 51.5202 27.37 15.9888
295 2 55.3934 27.4749 0.282922
296 2 59.3884 27.4548 15.937
297 2 63.6422 27.5611 15.7489
298 2 67.4005 27.5876 16.0278
299 2 71.4051 27.7623 15.9939
300 2 75.5198 27.8293 0.0460187
301 2 79.5229 27.8642 0.122629
302 2 83.4892 27.7963 15.8076
303 2 87.6023 27.9374 0.0732464
304 2 91.5582 27.9308 0.0971065
305 2 95.5592 27.9118 0.0645488
306 2 99.481 27.6099 0.193235
307 2 103.239 27.8582 15.8909
308 2 107.263 27.6529 0.261033
309 2 111.252 27.6227 15.9849
310 2 115.151 27.4659 16.1314
311 2 119.106 27.6446 0.0742766
312 2 123.052 27.4239 0.14994
313 2 126.846 27.4942 16.0504
314 2 130.799 27.376 16.113
315 2 134.825 27.4665 16.0639
316 2 138.682 27.4372 15.9659
317 2 142.655 27.3891 0.218868
318 2 146.237 27.2204 0.119443
319 2 150.177 27.3091 0.419792
320 2 154.33 27.2148 0.169414
321 2 158.175 31.3357 16.0111
322 2 3.85842 30.9564 15.857
323 2 7.70976 31.0288 15.9523
324 2 11.5147 30.9931 -0.00314239
325 2 15.4769 30.959 0.276407
326 2 19.6332 30.7606 15.831
327 2 23.4621 31.0714 15.7236
328 2 27.439 30.9721 0.176892
329 2 31.4718 30.9734 15.8463
330 2 35.486 31.0236 15.9862
331 2 39.4986 31.207 15.774
332 2 43.4309 31.0771 0.19147
333 2 47.3636 31.3488 16.0522
334 2 51.3619 31.1977 0.347143
335 2 55.5224 31.604 16.0634
336 2 59.5003 31.417 0.103
337 2 63.4425 31.5099 15.8742
338 2 67.5147 31.5402 0.0207294
339 2 71.4831 31.7131 0.357397
340 2 75.4948 31.8484 0.121848
341 2 79.4031 31.6828 15.8379
342 2 83.6263 31.8958 0.0742216
343 2 87.5189 31.6593 15.764
344 2 91.6668 31.7783 16.0047
345 2 95.4907 31.8893 16.1394
346 2 99.3647 31.8388 0.237005
347 2 103.429 31.7625 16.0923
348 2 107.118 31.5958 15.9076
349 2 111.185 31.7432 16.089
350 2 114.98 31.6326 16.0192
351 2 118.978 31.5994 16.0678
352 2 122.812 31.4509 15.8911
353 2 126.784 31.5206 15.9832
354 2 130.72 31.2815 15.9461
355 2 134.71 31.4234 16.0809
356 2 138.593 31.2727 16.033
357 2 142.696 31.321 0.288954
358 2 146.441 31.2154 16.0927
359 2 150.3 31.3759 0.256918
360 2 154.299 31.3567 0.149867
361 2 0.0267562 35.1709 0.208618
362 2 3.98915 35.1568 16.1262
363 2 7.83342 34.9085 15.8901
364 2 11.6995 34.9342 15.9585
365 2 15.4862 34.8585 0.15228
366 2 19.4331 34.9136 0.11127
367 2 23.5728 34.8646 0.0203718
368 2 27.5448 34.9213 0.125183
369 2 31.3139 34.766 0.148911
370 2 35.3062 34.9669 0.164366
371 2 39.6175 34.951 0.167907
372 2 43.5265 35.1776 16.0743
373 2 47.5667 35.2666 16.0333
374 2 51.3541 35.1735 15.9394
375 2 55.3911 35.2184 0.0708624
376 2 59.3156 35.456 0.212006
377 2 63.4786 35.3668 15.8694
378 2 67.4797 35.4407 0.0548471
379 2 71.453 35.4811 0.268655
380 2 75.5673 35.7097 15.7699
381 2 79.5094 35.6731 0.230435
382 2 83.5126 35.6604 15.7763
383 2 87.5378 35.7176 0.179624
384 2 91.6226 35.7182 0.144452
385 2 95.5171 35.8757 15.9509
386 2 99.5302 35.7467 0.17437
387 2 103.415 35.6922 16.0497
388 2 107.116 35.8844 15.8952
389 2 111.102 35.5864 15.9422
390 2 114.934 35.6148 15.7917
391 2 119.176 35.4793 15.7785
392 2 122.751 35.507 16.1547
393 2 126.908 35.5026 16.0148
394 2 130.64 35.3697 16.0113
395 2 134.488 35.3858 15.9359
396 2 138.654 35.2409 0.501435
397 2 142.477 35.298 0.326329
398 2 146.55 35.2156 0.372667
399 2 150.413 35.3258 15.888
400 2 154.258 35.2311 0.122439
401 2 158.422 39.2748 0.222292
402 2 3.69743 39.0779 0.295341
403 2 7.67578 39.0269 0.44886
404 2 11.6135 38.9399 15.9441
405 2 15.6736 38.8916 0.0667913
406 2 19.5396 38.8974 15.8925
407 2 23.3527 38.9132 15.9899
408 2 27.2685 38.8687 15.982
409 2 31.2312 38.9842 0.0695446
410 2 35.3416 38.9619 -0.0826239
411 2 39.399 38.9061 15.9232
412 2 43.3112 39.0801 0.235641
413 2 47.4167 38.9173 0.0235778
414 2 51.2951 39.1178 16.0325
415 2 55.3735 39.1464 0.32021
416 2 59.3754 39.349 0.298008
417 2 63.4146 39.5151 0.0700907
418 2 67.391 39.3789 0.227705
419 2 71.4899 39.448 0.27633
420 2 75.5455 39.6738 -0.016404
421 2 79.4835 39.5439 0.29463
422 2 83.3749 39.3924 15.8261
423 2 87.4828 39.7403 16.0038
424 2 91.3739 39.613 15.8494
425 2 95.4244 39.7446 16.0076
426 2 99.4933 39.9505 0.238555
427 2 103.478 39.8125 15.9271
428 2 107.516 39.8302 15.9269
429 2 111.292 39.6262 15.8661
430 2 115.21 39.579 16.0397
431 2 118.997 39.4115 16.0488
432 2 123.067 39.7566 16.0012
433 2 126.966 39.5874 0.346633
434 2 130.95 39.601 15.8656
435 2 134.806 39.2558 15.83
436 2 138.736 39.3867 15.8478
437 2 142.675 39.4537 16.2405
438 2 146.546 39.1243 0.387115
439 2 150.558 39.2269 16.0098
440 2 154.443 39.1417 15.8683
441 2 158.425 43.4399 0.0807194
442 2 3.88493 42.9371 16.0977
443 2 8.07266 43.1011 16.0055
444 2 11.5512 42.9618 0.155914
445 2 15.4828 42.9465 0.100689
446 2 19.4363 42.8611 0.230426
447 2 23.5244 43.2456 16.2406
448 2 27.3526 42.8835 15.9184
449 2 31.2489 42.8842 0.327271
450 2 35.2112 42.8909 0.335171
451 2 39.0811 42.8136 0.163512
452 2 43.3055 42.9568 0.413672
453 2 47.3034 42.876 16.1747
454 2 51.1115 43.0743 16.0648
455 2 55.3376 43.1164 0.236891
456 2 59.2974 43.3132 15.9219
457 2 63.4323 43.3745 0.132219
458 2 67.3534 43.1234 0.279722
459 2 71.4345 43.4509 0.250708
460 2 75.4003 43.3981 0.136392
461 2 79.4277 43.4287 0.213754
462 2 83.2318 43.2427 15.8893
463 2 87.4194 43.5087 15.9577
464 2 91.4555 43.4411 0.090993
465 2 95.4467 43.6198 0.133865
466 2 99.4397 43.7278 16.0712
467 2 103.367 43.8605 15.9367
468 2 107.502 43.6103 15.9927
469 2 111.181 43.6679 15.8455
470 2 115.254 43.5012 15.8998
471 2 119.244 43.5182 16.113
472 2 123.032 43.357 15.9764
473 2 127.033 43.4369 0.277212
474 2 130.99 43.3903 0.131518
475 2 134.919 43.3094 16.0571
476 2 138.609 43.3123 15.862
477 2 142.614 43.3457 16.2583
478 2 146.623 43.3745 0.249597
479 2 150.631 43.2194 0.319961
480 2 154.382 43.1492 0.194157
481 2 0.10578 47.2219 0.160416
482 2 3.98093 47.0525 0.113258
483 2 7.8651 47.0803 0.328505
484 2 11.5904 47.0373 0.102912
485 2 15.7198 46.9717 -0.00802215
486 2 19.5645 47.1578 0.186059
487 2 23.7811 46.9473 0.121667
488 2 27.5197 46.7878 15.9653
489 2 31.2914 46.7024 0.255991
490 2 35.3232 46.7853 0.361648
491 2 39.4766 46.864 16.0116
492 2 43.2402 46.7273 16.0205
493 2 47.3274 46.9976 0.366716
494 2 51.3387 46.9592 16.0749
495 2 55.4515 46.8953 16.1555
496 2 59.3359 47.2493 15.9692
497 2 63.3499 47.2012 0.169239
498 2 67.3927 47.2873 0.182253
499 2 71.4396 47.3763 15.9162
500 2 75.2273 47.1869 0.348583
501 2 79.2851 47.2529 15.9848
502 2 83.2252 47.5974 15.8434
503 2 87.265 47.4673 0.299339
504 2 91.4554 47.4435 0.216877
505 2 95.3946 47.592 0.28615
506 2 99.3829 47.763 0.259769
507 2 103.431 47.5096 0.0843579
508 2 107.362 47.6745 16.007
509 2 111.232 47.575 15.8712
510 2 115.184 47.5351 0.225519
511 2 119.141 47.6165 15.7991
512 2 122.962 47.5968 15.8316
513 2 126.941 47.3411 15.9662
514 2 130.797 47.4058 15.8839
515 2 134.701 47.3603 16.046
516 2 138.748 47.3188 15.9985
517 2 142.619 47.2033 15.9502
518 2 146.506 47.2955 0.470904
519 2 150.601 47.2109 0.372464
520 2 154.539 47.3688 16.0687
521 2 158.403 51.3326 0.0191594
522 2 3.76011 51.1176 15.8723
523 2 7.73136 50.9951 16.0144
524 2 11.6463 51.0354 15.6723
525 2 15.7647 50.9317 0.00217238
526 2 19.7572 51.0302 16.2324
527 2 23.607 50.6474 15.8547
528 2 27.3219 51.0126 15.9487
529 2 31.4148 50.7626 0.316988
530 2 35.2828 50.6776 0.215992
531 2 39.1622 50.6871 16.0312
532 2 43.2123 50.9568 15.9766
533 2 47.2678 50.7807 0.300622
534 2 51.2443 50.8185 0.27981
535 2 55.2714 50.8616 0.23169
536 2 59.2628 51.0722 16.0763
537 2 63.4011 51.0889 15.8484
538 2 67.2572 51.0774 0.276906
539 2 71.3016 51.2035 0.100989
540 2 75.3583 51.2094 0.101939
541 2 79.2937 51.3283 0.27862
542 2 83.283 51.5034 -0.029859
543 2 87.4909 51.3388 0.291181
544 2 91.4106 51.3624 -0.00778018
545 2 95.247 51.6061 0.173146
546 2 99.26 51.5319 0.0968415
547 2 103.345 51.5867 15.8787
548 2 107.229 51.6092 0.205266
549 2 111.109 51.4797 0.157296
550 2 115.316 51.6602 15.8513
551 2 119.176 51.6121 16.013
552 2 123.196 51.6659 15.8477
553 2 127.118 51.4604 15.7937
554 2 131.051 51.3673 0.232965
555 2 134.976 51.2602 0.258476
556 2 138.807 51.421 0.271284
557 2 142.628 51.2645 0.303053
558 2 146.498 51.2169 16.0694
559 2 150.614 51.4309 0.180897
560 2 154.351 51.1472 0.140559
561 2 158.187 55.1555 -0.0496147
562 2 4.05829 55.1267 -0.0218793
563 2 7.90732 54.9493 0.289693
564 2 11.8976 55.1136 0.206393
565 2 15.7647 55.0839 0.165394
566 2 19.64 55.0241 16.1467
567 2 23.7486 54.915 16.0225
568 2 27.5167 54.8476 16.0993
569 2 31.4339 54.5139 0.038396
570 2 35.275 54.8132 0.284831
571 2 39.2339 54.7095 15.9373
572 2 43.1592 54.6818 15.7954
573 2 47.2266 54.7558 0.211619
574 2 51.2719 54.8324 16.02
575 2 55.2405 54.7306 16.0555
576 2 59.2047 54.8038 15.9355
577 2 63.3003 55.0074 15.8624
578 2 67.3097 55.1003 0.121911
579 2 71.4366 55.1918 0.140644
580 2 75.4297 55.2671 15.9335
581 2 79.29 54.9966 0.24816
582 2 83.3517 55.2786 0.236343
583 2 87.3545 55.2737 0.129077
584 2 91.3514 55.2036 15.9557
585 2 95.1056 55.4378 0.243792
586 2 99.3183 55.3582 15.9385
587 2 103.288 55.5402 15.9392
588 2 107.108 55.6502 0.240352
589 2 111.036 55.5582 15.7787
590 2 115.322 55.7952 15.8586
591 2 119.101 55.4961 15.7495
592 2 123.274 55.3943 0.108842
593 2 126.933 55.4143 15.8417
594 2 130.915 55.4556 15.7216
595 2 134.96 55.2744 0.134784
596 2 138.909 55.3781 15.913
597 2 142.74 55.3272 0.222778
598 2 146.668 55.3021 0.285761
599 2 150.521 55.2103 0.141452
600 2 154.431 55.0973 16.0154
601 2 158.392 59.2804 0.0562119
602 2 4.034 59.1174 15.9231
603 2 7.92509 59.0067 15.9274
604 2 11.9352 59.019 -0.138896
605 2 15.8569 58.9799 15.8027
606 2 19.6423 59.0139 0.214752
607 2 23.7589 58.8019 0.370932
608 2 27.6436 58.8286 0.228012
609 2 31.2831 58.799 15.9077
610 2 35.3799 58.7765 16.0093
611 2 39.1636 58.6279 15.9186
612 2 43.2274 58.6794 16.0072
613 2 47.1827 58.6388 15.7548
614 2 51.0898 58.5927 15.8545
615 2 55.0874 58.944 16.1664
616 2 59.1845 58.8757 0.124491
617 2 63.2907 58.9683 15.8145
618 2 67.3384 58.9128 0.161176
619 2 71.1186 59.1503 16.0681
620 2 75.3044 59.1183 0.18512
621 2 79.2113 58.9627 0.0173823
622 2 83.2237 59.1639 0.108605
623 2 87.3004 59.0107 15.8913
624 2 91.21 59.3118 15.7583
625 2 95.2545 59.12 0.327835
626 2 99.194 59.2121 0.270465
627 2 103.146 59.2404 15.7319
628 2 107.108 59.5446 0.323617
629 2 111.168 59.4291 15.9496
630 2 115.022 59.5598 15.8788
631 2 119.166 59.6066 16.0411
632 2 123.138 59.2843 0.192027
633 2 127.196 59.4703 15.9632
634 2 131.063 59.4358 0.0962741
635 2 134.967 59.2035 16.0532
636 2 138.972 59.3181 -0.0903864
637 2 142.585 59.2855 0.213733
638 2 146.594 59.4194 0.224414
639 2 150.475 59.3896 16.039
640 2 154.515 59.2574 -0.210675
641 2 0.0660242 62.9166 0.343881
642 2 4.05195 63.0693 0.224304
643 2 8.01485 63.0157 15.8656
644 2 11.9417 63.0805 16.0648
645 2 15.8551 63.1207 15.8525
646 2 19.5623 62.8355 -0.0020325
647 2 23.4896 62.8942 0.197192
648 2 27.619 62.6811 0.123488
649 2 31.4136 62.7121 0.249155
650 2 35.4723 62.6873 -0.0766189
651 2 39.1842 62.5604 15.8643
652 2 43.2201 62.4849 0.213586
653 2 47.0647 62.6625 15.7021
654 2 51.0192 62.6299 15.8277
655 2 54.9215 62.692 0.353387
656 2 59.0739 62.5904 15.9376
657 2 63.2553 62.5331 0.0622595
658 2 67.0588 62.9792 15.9908
659 2 70.9453 63.1234 0.1636
660 2 75.2577 62.9229 0.0652948
661 2 79.1715 63.0816 -0.0294847
662 2 83.302 63.0663 0.195636
663 2 87.2391 63.19 15.9173
664 2 90.8995 63.0747 15.6543
665 2 95.1224 63.2915 -0.0621197
666 2 99.0748 63.2667 0.253617
667 2 103.194 63.3138 15.8993
668 2 107.201 63.3536 15.9496
669 2 111.072 63.3548 15.7609
670 2 115.022 63.4301 0.155557
671 2 118.97 63.5246 15.8856
672 2 122.978 63.6357 0.0523063
673 2 127.295 63.4084 15.8197
674 2 131.071 63.6669 -0.0114956
675 2 134.978 63.2969 15.8001
676 2 138.902 63.415 15.8774
677 2 142.834 63.2686 15.8214
678 2 146.72 63.4147 0.0248617
679 2 150.564 63.2264 16.1372
680 2 154.522 63.1805 0.00762509
681 2 0.243842 67.0128 0.290183
682 2 3.99245 66.9648 0.23268
683 2 8.05903 66.8487 15.7538
684 2 11.9226 67.1685 15.9225
685 2 15.9102 66.9924 0.167146
686 2 20.0239 67.1212 0.113834
687 2 23.8427 66.8764 0.186992
688 2 27.6265 66.5679 0.211497
689 2 31.7063 66.5908 0.0463602
690 2 35.4212 66.6025 0.0659503
691 2 39.2494 66.6362 15.8223
692 2 43.2941 66.5244 -0.0409756
693 2 47.1225 66.6055 16.1284
694 2 51.1832 66.5809 16.1328
695 2 55.3071 66.6432 16.0574
696 2 59.104 66.5344 15.6894
697 2 62.9459 66.6023 15.8212
698 2 67.1146 66.8 15.793
699 2 70.9246 66.852 0.0966853
700 2 74.9915 66.7671 15.7555
701 2 79.1085 67.0049 16.0913
702 2 83.0281 66.9693 -0.0980125
703 2 86.9829 66.9101 15.9396
704 2 91.1361 67.1112 15.8081
705 2 94.8154 67.3863 0.148074
706 2 99.0356 67.1218 0.203736
707 2 102.995 67.2055 0.162036
708 2 107.018 67.3121 15.8288
709 2 111.102 67.3451 15.8868
710 2 114.978 67.2362 16.0254
711 2 119.227 67.4508 0.0649748
712 2 122.918 67.3339 0.402106
713 2 127.027 67.6294 0.0891449
714 2 130.943 67.4427 15.9443
715 2 134.917 67.3788 0.0753163
716 2 139.01 67.4327 0.111123
717 2 142.863 67.378 15.6017
718 2 146.827 67.249 15.9193
719 2 150.8 67.2328 15.7377
720 2 154.486 67.1269 -0.0544069
721 2 0.255518 70.9941 0.153606
722 2 4.1664 70.8719 15.8329
723 2 7.85683 70.9624 0.155994
724 2 11.9807 70.8799 16.0221
725 2 15.85 71.0681 0.163947
726 2 19.938 70.9182 0.0258501
727 2 23.832 70.8925 0.0607842
728 2 27.6744 70.6851 15.8233
729 2 31.5583 70.6108 0.204408
730 2 35.6344 70.7609 -0.0701894
731 2 39.5105 70.6418 15.7937
732 2 43.1932 70.5172 0.196174
733 2 47.2389 70.5784 16.0115
734 2 51.2021 70.489 15.8456
735 2 55.0437 70.5413 0.157107
736 2 59.07 70.5313 -0.0254941
737 2 62.9885 70.6255 0.316769
738 2 66.7458 70.6147 16.0287
739 2 70.9824 70.8197 15.9117
740 2 75.1023 70.8117 15.9269
741 2 79.0315 70.8951 0.136418
742 2 83.0112 70.9161 0.237687
743 2 86.7644 71.093 15.9076
744 2 90.7991 71.1125 15.7426
745 2 94.9308 71.1037 15.7837
746 2 98.9445 71.2207 15.9043
747 2 103.045 71.0056 15.8956
748 2 107.236 71.3141 15.832
749 2 111.09 71.193 15.9391
750 2 115.167 71.1846 0.0364046
751 2 118.924 71.2077 16.0846
752 2 123.181 71.2515 0.0618212
753 2 127.113 71.3658 15.9486
754 2 130.825 71.3697 15.7527
755 2 134.985 71.3515 15.809
756 2 139.065 71.3394 15.8737
757 2 143.011 71.3767 0.104875
758 2 146.786 71.233 0.0340959
759 2 150.723 71.2421 -0.237005
760 2 154.769 71.1221 15.9669
761 2 0.227353 75.1686 0.165947
762 2 4.0767 74.9328 15.9529
763 2 7.94194 74.8835 15.9878
764 2 12.0541 74.8299 15.8982
765 2 15.8228 74.6974 15.9436
766 2 19.5774 74.7985 15.6776
767 2 23.7003 74.7647 16.0178
768 2 27.8611 74.8289 15.8598
769 2 31.6576 74.8877 0.122243
770 2 35.4428 74.6502 15.8453
771 2 39.6203 74.6437 16.0064
772 2 43.3441 74.6663 0.0866752
773 2 47.2986 74.5203 15.951
774 2 51.1935 74.61 0.367436
775 2 55.0945 74.5866 16.0719
776 2 58.9663 74.4929 15.7291
777 2 62.841 74.3725 15.7833
778 2 66.9243 74.5884 0.0422518
779 2 70.9658 74.6446 -0.0784179
780 2 74.9282 74.7411 0.288713
781 2 78.8899 74.668 0.154315
782 2 82.7286 74.8796 0.135144
783 2 86.8236 74.8323 -0.00457979
784 2 90.7646 75.054 16.0473
785 2 94.8029 75.0529 15.7822
786 2 98.7711 75.1224 -0.194285
787 2 102.983 74.7774 15.8344
788 2 107.131 75.2396 15.9228
789 2 111.136 75.0277 15.9814
790 2 114.856 75.1054 15.8828
791 2 118.869 75.0833 0.217196
792 2 123.029 75.1321 15.8918
793 2 126.941 75.3698 15.9894
794 2 131.026 75.2745 0.0480823
795 2 135.101 75.301 15.9726
796 2 138.907 75.2592 15.8433
797 2 142.767 75.4837 16.0107
798 2 146.69 75.1128 15.7416
799 2 150.676 75.1061 0.0411969
800 2 154.702 75.2172 0.0538245
801 2 0.341444 79.0789 0.112773
802 2 4.18982 78.9382 15.9306
803 2 8.03486 79.0901 -0.0545873
804 2 11.809 79.0302 0.13772
805 2 15.8124 78.7117 15.8484
806 2 19.6771 78.7001 15.697
807 2 23.6839 78.7213 0.15741
808 2 27.8507 78.6403 0.250433
809 2 31.6538 78.6982 0.270145
810 2 35.5253 78.6527 0.248332
811 2 39.3001 78.7946 15.9268
812 2 43.2529 78.6476 15.7406
813 2 47.2141 78.6098 15.8754
814 2 51.136 78.4308 0.252557
815 2 54.9896 78.4433 0.238311
816 2 58.8733 78.4694 16.0217
817 2 63.0195 78.4014 15.9639
818 2 66.7246 78.3515 0.0317614
819 2 70.8987 78.5147 15.8817
820 2 74.736 78.5007 0.287723
821 2 78.6257 78.5556 15.9769
822 2 82.8765 78.8371 15.8919
823 2 86.7739 78.7494 -0.0022667
824 2 90.7577 78.8664 0.170018
825 2 94.9135 79.0226 0.247458
826 2 98.8901 79.0757 16.1306
827 2 102.811 78.8563 16.0466
828 2 107.036 79.0769 0.122309
829 2 110.984 78.9723 0.36326
830 2 115.03 79.084 0.276998
831 2 119.045 79.128 0.308238
832 2 122.719 79.0738 15.9868
833 2 126.937 79.2111 0.341485
834 2 130.901 79.283 15.9326
835 2 134.897 79.3375 0.199897
836 2 139.045 79.4171 15.7606
837 2 142.931 79.0964 15.9332
838 2 147.003 79.1997 15.7447
839 2 150.832 79.094 15.9468
840 2 154.641 79.1858 0.0378401
841 2 0.129263 83.1101 15.8576
842 2 4.20638 83.0131 15.8915
843 2 7.93034 82.9599 0.0972543
844 2 11.8745 82.8577 15.9754
845 2 15.7782 82.9198 15.9008
846 2 19.8392 82.7881 0.0913995
847 2 23.78 82.7079 15.9377
848 2 27.7108 82.6799 0.173713
849 2 31.5346 82.7954 15.8994
850 2 35.2966 82.6119 0.0620398
851 2 39.3244 82.6582 0.35532
852 2 43.2693 82.5522 16.2133
853 2 47.1671 82.6516 0.215219
854 2 51.1643 82.7325 0.178103
855 2 55.0755 82.4918 0.121891
856 2 59.1757 82.5077 15.9013
857 2 63.055 82.7888 15.9287
858 2 66.9425 82.4932 15.7098
859 2 70.8362 82.5119 15.8842
860 2 74.9003 82.6246 15.9328
861 2 78.8054 82.4626 16.0607
862 2 82.8338 82.7631 0.223652
863 2 86.7851 82.6914 0.0397463
864 2 90.8438 82.8117 15.9568
865 2 94.6545 82.6076 0.114339
866 2 98.9477 82.93 15.6888
867 2 102.934 82.833 0.0676863
868 2 106.946 82.7769 15.9651
869 2 110.759 82.8021 15.946
870 2 114.872 83.0593 16.0684
871 2 118.832 83.107 15.8695
872 2 122.867 83.145 15.9269
873 2 126.761 82.9856 16.0692
874 2 130.906 83.0431 15.925
875 2 134.703 83.0776 0.241345
876 2 138.871 83.3679 15.669
877 2 142.991 83.1098 -0.0095202
878 2 146.891 83.0923 15.7407
879 2 150.873 83.1574 0.148724
880 2 154.706 82.9783 0.1629
881 2 0.488015 87.057 15.8361
882 2 4.21515 87.2656 -0.0113652
883 2 8.12921 86.8261 15.744
884 2 11.9988 86.8737 15.9652
885 2 15.7486 86.8986 15.7728
886 2 19.7744 86.8553 15.7792
887 2 23.812 86.8266 15.8206
888 2 27.6727 86.7037 0.104372
889 2 31.5329 86.6606 15.8862
890 2 35.4923 86.5869 0.0372056
891 2 39.5257 86.4493 15.8513
892 2 43.4284 86.6427 15.8761
893 2 47.3182 86.526 15.8812
894 2 51.2031 86.4058 16.0979
895 2 55.1641 86.4723 15.8858
896 2 58.9823 86.413 0.152988
897 2 62.936 86.5627 0.0896414
898 2 67.0991 86.4567 15.9393
899 2 70.7085 86.637 0.25192
900 2 74.7086 86.3519 15.812
901 2 78.7939 86.4243 0.0747444
902 2 82.6824 86.5227 0.359279
903 2 86.8385 86.6549 15.8597
904 2 90.7149 86.7131 15.8585
905 2 94.8555 86.6761 15.8504
906 2 98.6311 86.6095 15.9696
907 2 102.698 86.8007 0.17463
908 2 106.697 86.758 0.135598
909 2 110.691 86.8562 15.9689
910 2 114.906 86.8821 0.164054
911 2 118.839 86.9337 0.271613
912 2 122.896 86.9235 0.291515
913 2 126.721 86.8601 16.0793
914 2 130.944 87.0272 16.0252
915 2 135.002 87.1141 15.8886
916 2 138.861 87.142 15.8168
917 2 142.924 87.1346 15.888
918 2 146.814 86.9872 0.0254852
919 2 150.801 87.0959 15.8605
920 2 154.715 86.9928 15.7918
921 2 0.515156 91.0887 0.0257696
922 2 4.14056 91.0632 0.341156
923 2 8.13872 90.876 15.7948
924 2 12.0076 90.9068 15.8687
925 2 16.072 90.6963 0.144008
926 2 19.6558 90.9172 0.0999863
927 2 23.7017 90.6959 15.9816
928 2 27.8969 90.5964 15.9274
929 2 31.7467 90.6666 15.8586
930 2 35.643 90.6772 -0.0712854
931 2 39.5369 90.5947 15.8503
932 2 43.5294 90.4759 15.8707
933 2 47.4052 90.5304 -0.0160439
934 2 51.17 90.4092 0.259002
935 2 55.3094 90.4491 0.076377
936 2 58.9948 90.6126 0.344724
937 2 62.8966 90.2238 0.0906162
938 2 66.9366 90.3426 15.9369
939 2 70.8484 90.6873 16.0505
940 2 74.8313 90.4649 0.130997
941 2 78.6622 90.4622 0.0423703
942 2 82.6615 90.2805 0.312475
943 2 86.5659 90.5102 0.058016
944 2 90.7354 90.5699 0.250514
945 2 94.5656 90.4597 15.8607
946 2 98.6882 90.7373 15.8509
947 2 102.619 90.5647 0.26549
948 2 106.86 90.8584 15.9957
949 2 110.495 90.5314 15.9915
950 2 114.798 90.8606 0.218494
951 2 118.781 90.9616 0.344164
952 2 122.838 90.9105 16.1133
953 2 126.842 90.7424 0.350588
954 2 130.814 90.947 0.393298
955 2 134.785 91.1841 15.9692
956 2 138.798 90.8938 15.9904
957 2 142.703 91.1176 15.9933
958 2 146.842 91.0098 15.9279
959 2 150.81 91.2277 15.9031
960 2 154.728 91.2677 15.81
961 2 0.466639 95.052 0.0916363
962 2 4.29187 94.9351 15.6376
963 2 8.24574 94.9239 15.7904
964 2 12.252 94.8683 15.8146
965 2 16.1805 94.8834 15.8241
966 2 19.8884 94.8855 15.8883
967 2 23.8396 94.9502 15.9732
968 2 27.9004 94.4693 15.909
969 2 31.7117 94.6506 15.9584
970 2 35.7059 94.6558 15.7646
971 2 39.5158 94.7925 15.7471
972 2 43.4155 94.5454 15.7766
973 2 47.4331 94.692 -0.0434257
974 2 51.4135 94.4734 15.897
975 2 55.0282 94.5816 0.125663
976 2 59.0073 94.5541 16.2369
977 2 63.0751 94.5231 0.287675
978 2 66.9436 94.4344 0.224268
979 2 70.7369 94.357 0.282757
980 2 74.5815 94.4181 0.138935
981 2 78.6853 94.4491 15.8149
982 2 82.7093 94.3077 -0.166007