ITEM: TIMESTEP
22300
ITEM: NUMBER OF ATOMS
32000
ITEM: BOX BOUNDS xy xz yz pp pp pp
0.0000000000000000e+00 1.5831999999999999e+02 0.0000000000000000e+00
0.0000000000000000e+00 1.5831999999999999e+02 0.0000000000000000e+00
1.6561090611179097e-01 1.5932101093888058e+01 0.0000000000000000e+00
ITEM: ATOMS id type x y z
1 2 157.919 157.61 15.9154
2 2 3.77494 157.908 16.0339
3 2 7.85954 157.883 0.0610986
4 2 11.8044 157.799 0.203287
5 2 15.7746 157.639 0.199552
6 2 19.443 157.773 15.9126
7 2 23.8405 158.001 15.8663
8 2 27.724 158.152 15.9982
9 2 31.9049 158.227 0.0880945
10 2 35.5933 158.079 15.8602
11 2 39.8584 -0.133145 15.9072
12 2 43.8724 -0.0884457 0.050296
13 2 47.8252 -0.0616902 16.0024
14 2 51.7304 0.169956 0.26567
15 2 55.7532 158.455 0.159283
16 2 59.8292 158.459 15.9882
17 2 63.8893 0.178131 15.9559
18 2 67.9737 0.256117 16.0383
19 2 71.6159 0.349515 15.9035
20 2 75.5567 158.554 16.0132
21 2 79.4482 0.200837 16.1566
22 2 83.3704 158.492 16.054
23 2 87.3197 158.287 15.7911
24 2 91.3935 158.37 0.182324
25 2 95.2702 158.369 16.0139
26 2 98.9087 158.032 15.8284
27 2 102.933 158.171 15.8326
28 2 106.797 158.313 16.0814
29 2 110.84 157.846 0.109455
30 2 114.728 157.783 0.130761
31 2 118.687 157.749 16.1216
32 2 122.653 157.933 0.271799
33 2 126.427 157.876 0.203907
34 2 130.32 157.749 0.479121
35 2 134.196 157.68 16.0057
36 2 138.259 157.708 16.0236
37 2 142.141 157.669 15.9864
38 2 145.957 157.54 15.9568
39 2 150.026 157.424 0.5439
40 2 153.975 157.664 0.213064
41 2 158.001 3.20594 16.0341
42 2 3.75183 3.44999 15.923
43 2 7.66487 3.567 0.239801
44 2 11.9016 3.43484 15.95
45 2 15.7414 3.40317 16.0335
46 2 19.9134 3.43024 15.8982
47 2 23.8781 3.40195 0.251785
48 2 27.716 3.64847 0.0100545
49 2 31.7533 3.81609 -0.0567915
50 2 35.8511 3.65842 -0.0100471
51 2 39.8797 3.85989 0.0023926
52 2 43.7928 3.9072 15.9455
53 2 47.8408 3.83401 15.9731
54 2 51.7334 4.13941 16.0523
55 2 55.6401 3.98922 0.123737
56 2 59.8482 3.9513 15.8437
57 2 63.9736 4.04999 15.993
58 2 67.8716 4.0845 16.1678
59 2 71.7792 4.2684 16.0454
60 2 75.7507 4.10641 16.2098
61 2 79.5981 4.3464 16.0984
62 2 83.4003 4.08152 15.9675
63 2 87.4329 3.88751 15.8381
64 2 91.3482 3.91218 0.111537
65 2 95.3209 4.01318 15.8245
66 2 99.0255 3.82227 0.172101
67 2 102.998 3.80941 16.0351
68 2 106.986 3.67658 15.836
69 2 110.822 3.77062 0.0940455
70 2 114.895 3.63795 0.24461
71 2 118.784 3.58109 0.191016
72 2 122.629 3.67571 0.259736
73 2 126.585 3.47673 0.266499
74 2 130.436 3.56813 0.13169
75 2 134.409 3.27137 15.9784
76 2 138.262 3.38709 0.191386
77 2 142.105 3.46125 0.20427
78 2 146.05 3.30887 0.443824
79 2 149.993 3.28163 16.0432
80 2 154.014 3.18706 16.004
81 2 157.973 7.27026 16.033
82 2 3.57237 7.30536 15.9828
83 2 7.55385 7.44565 15.967
84 2 11.7592 7.30896 -0.000174692
85 2 15.5756 7.31059 15.7566
86 2 19.5846 7.12479 15.8222
87 2 23.6941 7.25924 0.397858
88 2 27.8457 7.46634 15.9013
89 2 31.8544 7.67339 15.8533
90 2 35.7946 7.69722 15.7534
91 2 39.8263 7.79971 0.201093
92 2 43.8433 7.79256 0.102668
93 2 47.7587 7.90128 15.8477
94 2 51.6745 7.87851 0.304542
95 2 55.8293 7.8964 15.9305
96 2 59.8478 8.01905 0.142524
97 2 63.8319 8.11525 15.824
98 2 67.6747 8.00761 15.9835
99 2 71.7955 8.04908 15.8293
100 2 75.8097 8.16863 15.8856
101 2 79.6057 8.13358 0.102178
102 2 83.6175 8.13091 15.8618
103 2 87.5979 7.81396 15.773
104 2 91.3804 7.90218 15.7868
105 2 95.3219 8.05286 15.9533
106 2 99.1978 7.90934 0.117143
107 2 103.079 7.81291 0.0489561
108 2 106.999 7.79042 15.9609
109 2 111.012 7.64086 0.0512035
110 2 114.797 7.6762 15.919
111 2 118.809 7.74725 15.8201
112 2 122.677 7.46606 15.8991
113 2 126.576 7.45746 15.7787
114 2 130.516 7.4351 0.266587
115 2 134.379 7.47616 0.299066
116 2 138.139 7.28181 15.9579
117 2 142.177 7.43667 16.097
118 2 145.919 7.30925 0.243642
119 2 150.055 7.19911 0.0942387
120 2 153.962 7.15609 15.9361
121 2 157.968 11.0749 15.9993
122 2 3.56271 10.9434 15.7549
123 2 7.34925 11.1316 16.0469
124 2 11.7184 11.3734 -0.0961837
125 2 15.7439 11.1467 15.9064
126 2 19.7676 11.3593 15.7973
127 2 23.6776 11.3627 15.745
128 2 27.7572 11.2926 15.8576
129 2 31.7236 11.4284 15.9801
130 2 35.6498 11.6243 15.6676
131 2 39.6266 11.6565 15.9043
132 2 43.6348 11.8121 0.236421
133 2 47.5461 11.6788 0.168149
134 2 51.6825 11.8025 15.9638
135 2 55.7542 11.8744 0.00426294
136 2 59.676 12.094 15.9054
137 2 63.9273 11.8578 -0.0768288
138 2 67.7125 12.0244 16.0214
139 2 71.6327 12.1886 16.0191
140 2 75.7079 12.0364 15.9049
141 2 79.7327 12.0805 16.1176
142 2 83.7398 12.3062 15.9633
143 2 87.7824 12.1196 0.0817825
144 2 91.4605 11.939 0.280961
145 2 95.22 11.9751 16.1072
146 2 99.1806 11.9802 15.7377
147 2 103.047 11.9147 0.151337
148 2 107.033 11.7842 15.7878
149 2 110.876 11.5365 0.165467
150 2 114.998 11.6988 15.9982
151 2 118.911 11.6796 0.0481368
152 2 122.718 11.5144 0.406464
153 2 126.703 11.3393 16.1619
154 2 130.416 11.3848 16.1576
155 2 134.51 11.5583 0.345688
156 2 138.347 11.4552 0.096663
157 2 142.286 11.2384 0.265868
158 2 146.089 11.2351 0.0992687
159 2 150.135 11.2571 0.0665057
160 2 153.901 11.3359 0.0229288
161 2 158.028 15.0441 15.8676
162 2 3.53541 14.9137 15.8837
163 2 7.49585 15.2261 15.7397
164 2 11.3704 15.1804 15.8074
165 2 15.6513 15.1713 15.7911
166 2 19.8706 15.1048 0.137269
167 2 23.6631 15.3101 0.264556
168 2 27.6352 15.2606 15.8998
169 2 31.7529 15.4167 0.250012
170 2 35.7574 15.513 15.9105
171 2 39.529 15.6433 0.0924468
172 2 43.5957 15.78 0.0981759
173 2 47.7065 15.669 0.318521
174 2 51.7272 15.5974 0.31232
175 2 55.6296 15.8317 15.9133
176 2 59.892 15.9186 0.156422
177 2 63.599 15.8896 16.0577
178 2 67.7885 15.8997 15.8569
179 2 71.7344 16.0023 0.260856
180 2 75.4505 15.8462 0.298971
181 2 79.6321 15.8098 16.0767
182 2 83.8388 16.1131 -0.0665447
183 2 87.8139 15.9737 15.8605
184 2 91.6345 15.9214 0.0155121
185 2 95.5383 15.9546 15.7085
186 2 99.3038 15.8124 15.8107
187 2 103.41 15.9583 16.0073
188 2 107.116 15.743 15.8365
189 2 111.311 15.6628 15.9329
190 2 115.054 15.5124 16.0138
191 2 118.823 15.5036 0.127226
192 2 122.985 15.6481 16.311
193 2 126.77 15.5125 16.1714
194 2 130.492 15.2803 0.200953
195 2 134.377 15.529 0.308266
196 2 138.358 15.6449 0.20262
197 2 142.341 15.3663 16.0391
198 2 146.198 15.1116 0.195483
199 2 150.318 15.1831 0.28362
200 2 154.085 15.0102 16.0393
201 2 158.166 19.0898 16.0103
202 2 3.62629 18.8287 0.163443
203 2 7.82052 19.1723 0.132926
204 2 11.6358 19.2088 15.9428
205 2 15.5445 18.962 15.9621
206 2 19.6722 19.073 15.854
207 2 23.4981 19.1079 15.9501
208 2 27.5117 19.3411 15.7787
209 2 31.6578 19.3276 16.0313
210 2 35.5639 19.5055 16.0265
211 2 39.7094 19.5871 0.00256916
212 2 43.5553 19.6426 15.9182
213 2 47.7207 19.6908 15.9048
214 2 51.513 19.4141 0.127696
215 2 55.4473 19.5455 16.0421
216 2 59.4571 19.7918 16.0012
217 2 63.6586 19.9528 15.8322
218 2 67.4548 19.629 15.9203
219 2 71.6617 19.9853 0.151336
220 2 75.6254 19.9148 0.180415
221 2 79.5101 19.8481 0.277517
222 2 83.7051 19.9458 15.7118
223 2 87.7656 19.973 0.262922
224 2 91.4465 19.8654 0.152337
225 2 95.3445 20.067 16.1093
226 2 99.5051 19.9009 16.032
227 2 103.441 19.9009 16.0487
228 2 107.316 19.7457 15.9492
229 2 111.135 19.7867 0.252762
230 2 114.93 20.0729 15.7703
231 2 118.701 19.6031 15.892
232 2 122.804 19.4418 16.0428
233 2 126.801 19.3797 16.0342
234 2 130.716 19.4129 15.7846
235 2 134.559 19.5529 0.0499958
236 2 138.416 19.4082 15.9875
237 2 142.185 19.3619 15.7575
238 2 146.327 19.2838 -0.0359977
239 2 150.133 19.192 15.9625
240 2 154.09 18.9464 0.238468
241 2 158.043 23.0884 16.0658
242 2 3.74876 22.9361 15.8253
243 2 7.56579 22.9756 0.220155
244 2 11.6499 23.0432 0.297826
245 2 15.4751 22.9266 15.7075
246 2 19.4283 22.857 15.8376
247 2 23.5658 23.3181 16.0359
248 2 27.649 23.1509 15.9593
249 2 31.6793 23.2324 0.012263
250 2 35.6935 23.3028 15.9725
251 2 39.3544 23.295 0.0978874
252 2 43.7177 23.512 15.896
253 2 47.6814 23.4807 0.0564416
254 2 51.5326 23.6092 0.169422
255 2 55.4638 23.5961 -0.0183222
256 2 59.299 23.8257 15.9185
257 2 63.5758 23.8309 -0.185397
258 2 67.4338 23.7925 15.8059
259 2 71.6903 23.8333 16.0273
260 2 75.6751 23.6565 0.208278
261 2 79.7033 23.7805 15.8735
262 2 83.5937 23.7364 0.0426813
263 2 87.6415 24.0059 15.8882
264 2 91.6251 23.8661 16.1766
265 2 95.555 23.8577 15.8741
266 2 99.6089 23.9341 0.238716
267 2 103.298 24.028 15.9809
268 2 107.315 23.8406 15.8839
269 2 111.191 23.6708 0.298169
270 2 115.009 23.8614 15.8986
271 2 118.919 23.6502 15.9219
272 2 122.986 23.7335 0.207142
273 2 126.882 23.4687 15.9973
274 2 130.74 23.5714 15.8287
275 2 134.766 23.3476 15.9907
276 2 138.587 23.3581 15.8596
277 2 142.6 23.305 15.9231
278 2 146.395 23.1613 0.154718
279 2 150.419 23.2921 0.161197
280 2 154.084 23.1452 0.267417
281 2 158.257 27.0846 -0.00200327
282 2 3.77748 27.0792 0.112503
283 2 7.65866 26.8594 0.175812
284 2 11.4994 26.8475 15.9436
285 2 15.3869 26.891 16.0757
286 2 19.4656 26.857 0.292123
287 2 23.5636 27.2042 15.9786
288 2 27.7631 27.1777 16.0698
289 2 31.5531 27.2068 0.0347859
290 2 35.5464 27.3052 0.20519
291 2 39.5447 27.1984 -0.0298042
292 2 43.4716 27.4165 0.307806
293 2 47.4124 27.3289 0.323722
294 2 51.5714 27.5583 15.9711
295 2 55.519 27.3878 0.0957702
296 2 59.6798 27.6173 15.7985
297 2 63.5371 27.6375 15.9229
298 2 67.7301 27.6431 15.8261
299 2 71.5887 27.7222 15.8927
300 2 75.5943 27.6862 0.0823345
301 2 79.6325 27.6692 0.219888
302 2 83.8292 27.8471 15.8408
303 2 87.6968 27.7892 0.126227
304 2 91.848 27.8688 0.276051
305 2 95.724 27.9205 0.269253
306 2 99.6031 27.736 0.295235
307 2 103.487 27.889 15.9108
308 2 107.493 27.8834 0.0792735
309 2 111.344 27.7911 16.0507
310 2 115.225 27.6692 15.9459
311 2 118.958 27.4511 0.211878
312 2 123.113 27.4637 -0.0652839
313 2 126.867 27.6878 15.6841
314 2 130.945 27.4776 15.9314
315 2 134.806 27.3177 15.778
316 2 138.729 27.1743 15.8845
317 2 142.595 27.2205 0.0479642
318 2 146.453 27.1798 0.1788
319 2 150.411 26.9923 0.203631
320 2 154.224 27.0513 0.174575
321 2 158.216 31.028 16.0687
322 2 3.77666 31.2413 15.8538
323 2 7.60466 30.9441 15.7346
324 2 11.5858 30.9937 0.360394
325 2 15.5579 30.7496 0.203531
326 2 19.4367 30.7905 15.8898
327 2 23.5266 30.9469 15.9655
328 2 27.4983 31.1043 0.0901813
329 2 31.3002 30.9331 15.9097
330 2 35.4414 31.0648 15.9503
331 2 39.437 31.2753 15.9267
332 2 43.531 31.2742 0.192546
333 2 47.4029 31.1321 15.9688
334 2 51.3842 31.4961 0.357672
335 2 55.3965 31.3724 15.8346
336 2 59.5328 31.6125 0.225401
337 2 63.5246 31.4135 15.8932
338 2 67.5639 31.6002 0.233984
339 2 71.5444 31.5585 0.197788
340 2 75.5812 31.705 0.102587
341 2 79.5428 31.8067 15.9425
342 2 83.6203 31.6442 0.0808691
343 2 87.4965 31.652 15.7912
344 2 91.5405 31.7945 16.0479
345 2 95.4834 32.0202 16.0456
346 2 99.632 31.6881 0.214644
347 2 103.453 31.7343 15.9874
348 2 107.266 31.6656 15.9867
349 2 111.154 31.5975 15.9601
350 2 115.072 31.8914 16.1826
351 2 119.064 31.4869 15.7535
352 2 122.988 31.656 15.7704
353 2 127.001 31.4725 15.768
354 2 130.925 31.5374 15.9085
355 2 134.595 31.2718 15.8476
356 2 138.602 31.309 15.9918
357 2 142.605 31.2447 0.133925
358 2 146.501 31.1688 15.7367
359 2 150.39 31.0137 0.0712371
360 2 154.259 31.0437 0.0435611
361 2 0.115212 35.1427 0.0243402
362 2 4.00405 35.0038 16.0278
363 2 7.83398 35.1038 16.0233
364 2 11.7022 34.8312 15.8833
365 2 15.5606 34.8096 0.232306
366 2 19.4261 34.8476 0.120196
367 2 23.4348 35.087 0.168989
368 2 27.4482 34.8692 0.305631
369 2 31.2264 34.9566 0.325138
370 2 35.3125 34.8526 0.124389
371 2 39.3939 35.1354 0.290276
372 2 43.3347 35.0844 15.9723
373 2 47.487 35.1427 15.8107
374 2 51.5151 35.0845 15.7905
375 2 55.4473 35.5432 0.125122
376 2 59.4918 35.4165 0.133912
377 2 63.3453 35.4691 15.9511
378 2 67.5226 35.2534 0.0918041
379 2 71.3967 35.6033 0.0920213
380 2 75.4131 35.5644 15.6526
381 2 79.5204 35.6946 0.053949
382 2 83.4833 35.5709 16.0781
383 2 87.3674 35.8771 0.367928
384 2 91.5144 35.8173 0.349713
385 2 95.4827 35.8226 16.0656
386 2 99.2938 35.7553 0.43822
387 2 103.39 35.7662 15.9678
388 2 107.308 35.6718 16.0979
389 2 111.208 35.8187 16.1873
390 2 115.322 35.6748 16.0236
391 2 119.032 35.4818 16.0511
392 2 123.178 35.525 15.8435
393 2 127.057 35.5239 15.9444
394 2 130.954 35.5222 15.7955
395 2 134.858 35.4361 15.8654
396 2 138.486 35.3928 0.0559935
397 2 142.693 35.184 0.179607
398 2 146.584 35.0552 0.177183
399 2 150.38 35.1028 15.8473
400 2 154.337 35.2343 -0.180467
401 2 158.265 39.0889 0.0442216
402 2 4.01397 39.0072 0.224081
403 2 7.87629 39.0216 0.00236719
404 2 11.5997 39.1409 15.8958
405 2 15.5001 39.0045 0.10037
406 2 19.5154 38.8418 15.9919
407 2 23.5385 38.7761 15.8545
408 2 27.2665 38.8838 15.8067
409 2 31.2398 38.9774 0.218495
410 2 35.2827 39.0216 0.0517298
411 2 39.3021 38.8563 15.8724
412 2 43.303 39.0576 0.283073
413 2 47.4 39.1329 0.0834082
414 2 51.235 39.1241 15.8913
415 2 55.3128 39.2962 0.157479
416 2 59.2833 39.3322 0.172972
417 2 63.2177 39.3461 0.160137
418 2 67.4288 39.2995 0.0281614
419 2 71.4575 39.5376 0.0703722
420 2 75.4069 39.5488 -0.0297684
421 2 79.4275 39.5575 0.172492
422 2 83.3716 39.5878 15.8094
423 2 87.3414 39.6171 15.6412
424 2 91.4726 39.6694 15.8534
425 2 95.4756 39.7809 15.9371
426 2 99.549 39.885 0.248942
427 2 103.475 39.6956 15.9942
428 2 107.363 39.7839 15.8959
429 2 111.225 39.6072 15.9699
430 2 115.259 39.5682 15.9133
431 2 119.119 39.7398 15.978
432 2 123.073 39.4846 16.0927
433 2 127.005 39.6276 -0.0140855
434 2 130.893 39.5336 15.6869
435 2 134.978 39.5183 15.8221
436 2 138.908 39.3132 15.8298
437 2 142.753 39.1833 15.92
438 2 146.513 39.1474 0.0188063
439 2 150.544 39.2378 15.9047
440 2 154.345 39.2036 15.7864
441 2 158.28 42.8674 0.0759172
442 2 3.78514 43.1545 15.7508
443 2 7.72641 43.0792 16.3671
444 2 11.5748 42.919 0.138448
445 2 15.506 42.862 -0.0392823
446 2 19.49 43.1333 0.140904
447 2 23.4936 42.7226 15.9595
448 2 27.2411 42.8734 15.8769
449 2 31.2665 42.806 0.359797
450 2 35.216 43.0439 0.231127
451 2 39.2574 42.8108 0.312158
452 2 43.1167 43.0148 0.321559
453 2 47.267 43.1723 15.7206
454 2 51.2504 43.064 15.8238
455 2 55.2768 43.134 0.15382
456 2 59.3284 43.4336 15.9635
457 2 63.3057 43.3217 0.200802
458 2 67.2805 43.4 0.0964482
459 2 71.3239 43.3977 0.0183107
460 2 75.1779 43.4122 -0.102225
461 2 79.4291 43.4343 0.253601
462 2 83.3525 43.4035 15.752
463 2 87.2374 43.5545 15.9401
464 2 91.3002 43.5078 -0.0059831
465 2 95.3318 43.5304 0.210532
466 2 99.2944 43.7769 15.9825
467 2 103.523 43.7422 16.0633
468 2 107.438 43.828 15.9713
469 2 111.276 43.7097 16.1567
470 2 115.081 43.4388 16.1516
471 2 119.129 43.7178 15.921
472 2 123.192 43.6228 15.779
473 2 126.973 43.3967 -0.0971679
474 2 131.128 43.4274 0.0510423
475 2 134.701 43.4929 15.837
476 2 138.79 43.3048 15.8179
477 2 142.59 43.2264 16.0169
478 2 146.506 43.0708 0.0871748
479 2 150.417 43.31 -0.0313881
480 2 154.555 43.1736 -0.11629
481 2 -0.171617 47.0167 0.0304693
482 2 3.76434 46.9884 0.117669
483 2 7.91993 46.7687 0.32712
484 2 11.6497 46.9126 0.0291366
485 2 15.611 47.0709 0.0584219
486 2 19.6159 46.8544 0.268807
487 2 23.6649 46.8325 -0.114147
488 2 27.6217 46.717 15.772
489 2 31.4136 46.7612 0.337648
490 2 35.379 46.5933 0.192512
491 2 39.3713 46.6925 15.9351
492 2 43.3583 46.8092 15.9522
493 2 47.3188 46.7806 0.05002
494 2 51.1328 46.9918 15.8477
495 2 55.2038 47.0989 15.8413
496 2 59.2747 47.2187 15.9308
497 2 63.3404 47.3299 0.259807
498 2 67.1276 47.3764 0.234849
499 2 71.3102 47.3491 15.9775
500 2 75.3141 47.3303 -0.0510684
501 2 79.2033 47.3592 15.9935
502 2 83.1424 47.3652 15.8642
503 2 87.3476 47.5955 0.0493354
504 2 91.247 47.416 0.144577
505 2 95.2929 47.569 0.213937
506 2 99.0418 47.5804 0.160575
507 2 103.409 47.7476 0.141409
508 2 107.504 47.5114 15.9187
509 2 111.344 47.4877 16.0702
510 2 115.476 47.6353 -0.0218431
511 2 119.419 47.6748 16.075
512 2 123.068 47.5938 15.9673
513 2 127.096 47.538 15.8198
514 2 130.968 47.3441 15.8453
515 2 134.759 47.1673 15.8886
516 2 138.637 47.1251 15.8641
517 2 142.718 47.2474 16.0196
518 2 146.716 47.1762 -0.101281
519 2 150.474 47.2303 0.13087
520 2 154.393 47.1314 16.0023
521 2 158.276 50.992 0.236925
522 2 3.9977 51.0023 15.9539
523 2 7.89744 50.9214 16.0602
524 2 11.7573 50.7261 15.8949
525 2 15.7554 50.803 0.0553995
526 2 19.8442 50.7503 15.9435
527 2 23.668 50.9726 15.8336
528 2 27.5802 50.5085 15.7503
529 2 31.3519 50.5771 0.0190565
530 2 35.3063 50.6072 0.45335
531 2 39.3106 50.718 15.9529
532 2 43.1052 50.5933 15.8384
533 2 47.2056 50.8648 0.276032
534 2 51.1689 50.8546 0.440132
535 2 55.1954 50.9916 0.316895
536 2 59.1769 51.232 15.892
537 2 63.2215 51.0542 16.0295
538 2 67.2898 51.2274 0.0777809
539 2 71.2256 51.1826 0.143926
540 2 75.2096 51.2798 0.0781812
541 2 79.1353 51.3712 0.0345671
542 2 83.1502 51.6252 0.10404
543 2 87.2502 51.48 0.06506
544 2 91.3306 51.3675 0.20695
545 2 95.244 51.4822 0.267166
546 2 99.3091 51.5644 0.131523
547 2 103.228 51.4854 15.809
548 2 107.296 51.5531 0.220568
549 2 111.481 51.5116 -0.0109153
550 2 115.465 51.6963 15.9367
551 2 119.305 51.7131 15.8228
552 2 123.197 51.3775 15.8703
553 2 127.168 51.5956 15.8911
554 2 131.052 51.512 0.074694
555 2 134.682 51.3479 0.0817596
556 2 138.923 51.2049 0.0297135
557 2 142.727 51.2879 0.129774
558 2 146.791 51.2515 15.9883
559 2 150.646 51.1162 0.315238
560 2 154.35 51.3382 0.219942
561 2 158.312 55.0604 -0.0229707
562 2 4.04948 54.9717 0.198082
563 2 7.89592 54.9199 0.272014
564 2 11.814 54.8973 0.112185
565 2 15.7838 55.0924 0.199554
566 2 19.7872 54.924 15.981
567 2 23.5515 54.7628 15.8835
568 2 27.6796 54.6907 15.8487
569 2 31.3787 54.8194 0.322183
570 2 35.3174 54.56 0.147724
571 2 39.2178 54.5703 15.8995
572 2 43.0681 54.6984 15.8446
573 2 47.0832 54.7904 0.0375702
574 2 51.0502 54.9161 15.9779
575 2 55.1145 54.9319 16.003
576 2 59.2152 55.1561 15.8454
577 2 63.1023 55.0581 15.9105
578 2 67.1843 54.9524 0.235026
579 2 71.0828 55.1838 0.17312
580 2 75.1495 55.0962 15.9179
581 2 79.254 55.1375 -0.0360881
582 2 83.0399 55.2046 0.141019
583 2 87.1438 55.285 0.0837036
584 2 91.2338 55.371 15.9066
585 2 95.259 55.2613 0.330746
586 2 99.0946 55.4404 16.1102
587 2 103.213 55.3984 15.8751
588 2 107.34 55.3885 0.285542
589 2 111.25 55.4223 15.878
590 2 115.17 55.6163 15.8752
591 2 119.154 55.6013 15.8571
592 2 123.328 55.8278 0.232049
593 2 127.222 55.4421 15.8661
594 2 130.894 55.3916 15.8337
595 2 134.946 55.3315 0.0908178
596 2 139.044 55.102 15.8075
597 2 142.867 55.2089 0.0896925
598 2 146.683 55.1978 0.194793
599 2 150.587 55.2491 0.303023
600 2 154.448 55.2789 15.7031
601 2 158.376 59.0879 0.0471216
602 2 4.08783 58.9478 16.0794
603 2 8.08315 59.0089 16.1198
604 2 11.813 58.8467 0.124417
605 2 15.6211 58.8699 15.7464
606 2 19.5388 58.9465 0.316017
607 2 23.393 58.86 0.104044
608 2 27.5726 58.8216 0.118286
609 2 31.5434 58.903 15.9224
610 2 35.3569 58.7586 15.9992
611 2 39.4261 58.5188 16.139
612 2 43.2422 58.6151 16.0503
613 2 47.0964 58.698 15.9773
614 2 50.849 58.8777 16.141
615 2 54.9519 59.0346 16.0478
616 2 59.0905 58.9851 0.0836137
617 2 63.0092 59.0316 15.7509
618 2 67.1331 59.1328 0.355903
619 2 71.216 58.9954 15.9176
620 2 75.1778 59.138 0.202217
621 2 79.0736 59.1767 0.230343
622 2 83.0983 59.1225 0.0749371
623 2 87.1048 59.1328 16.1057
624 2 91.1696 59.0945 16.0322
625 2 95.0778 59.3554 0.188385
626 2 99.1048 59.2145 0.223365
627 2 103.105 59.3389 16.1533
628 2 107.184 59.2863 0.068615
629 2 111.235 59.4519 16.0115
630 2 115.171 59.5749 15.9795
631 2 119.09 59.4692 16.0549
632 2 123.066 59.557 0.374862
633 2 127.072 59.4133 15.9131
634 2 130.956 59.3523 0.279326
635 2 135.233 59.2839 15.8487
636 2 138.912 59.0474 0.255611
637 2 142.661 59.1841 0.100704
638 2 146.654 59.2717 0.170795
639 2 150.629 58.9784 15.8146
640 2 154.641 59.2166 0.199117
641 2 0.123363 63.1809 0.318136
642 2 4.01602 62.9532 0.26056
643 2 8.02398 63.1086 15.9085
644 2 11.7539 62.9108 15.8211
645 2 15.6404 62.9638 15.9718
646 2 19.6927 62.9016 0.133374
647 2 23.5199 62.6076 0.130872
648 2 27.5221 62.7215 0.187163
649 2 31.4415 62.7293 0.0752553
650 2 35.223 62.8378 0.0344149
651 2 39.1046 62.6961 15.9513
652 2 42.9581 62.6057 0.137905
653 2 46.9922 62.526 15.9698
654 2 50.9954 62.5606 15.948
655 2 55.0616 62.8597 0.320851
656 2 59.0216 62.7609 15.9892
657 2 62.9955 62.9701 0.133886
658 2 67.2639 63.0364 16.1364
659 2 71.1524 62.9028 0.227835
660 2 75.0898 62.938 -0.00229633
661 2 79.015 62.9091 0.0667872
662 2 83.0379 63.0555 0.151971
663 2 87.1433 62.9953 16.0565
664 2 91.234 63.2099 15.9067
665 2 95.0175 63.1746 0.229319
666 2 99.1077 63.1824 0.169225
667 2 103.169 63.2095 15.889
668 2 107.166 63.2157 16.0155
669 2 111.144 63.4895 15.9452
670 2 115.15 63.2852 0.19718
671 2 119.295 63.4932 15.828
672 2 123.216 63.5236 0.245356
673 2 127.129 63.6413 15.9494
674 2 131.074 63.2755 0.336035
675 2 135.031 63.2792 16.031
676 2 139.01 63.0399 15.7559
677 2 142.594 63.3078 15.8509
678 2 146.633 63.2767 0.336992
679 2 150.632 63.1076 15.9402
680 2 154.479 63.0166 0.180879
681 2 0.136687 67.0748 0.140895
682 2 4.11641 67.0505 -0.0125242
683 2 7.94253 66.9843 15.9414
684 2 11.797 66.8993 15.856
685 2 15.8397 67.007 0.14788
686 2 19.7886 66.6602 0.188774
687 2 23.7498 66.7173 0.337489
688 2 27.5204 66.8019 0.131874
689 2 31.273 66.7106 0.302424
690 2 35.3536 66.7633 0.130509
691 2 39.3019 66.5996 15.9771
692 2 43.1345 66.6484 0.193391
693 2 47.0482 66.6445 16.0046
694 2 50.9398 66.7709 15.8627
695 2 54.7524 66.6363 16.038
696 2 59.05 66.7796 15.9797
697 2 62.9885 66.689 15.9214
698 2 67.1153 66.8472 16.1643
699 2 71.0763 66.9362 0.163551
700 2 75.0777 66.9264 15.9625
701 2 79.0718 66.8427 15.7553
702 2 83.0859 66.9213 0.186439
703 2 86.9932 67.0336 16.0124
704 2 91.0775 67.0728 15.9493
705 2 95.1249 67.2333 0.176948
706 2 99.0036 67.2739 0.377156
707 2 103.065 67.1523 0.00443281
708 2 107.135 67.2829 15.8847
709 2 111.105 67.2763 15.9239
710 2 115.108 67.2618 15.975
711 2 119.105 67.3663 0.252092
712 2 122.997 67.5146 0.185803
713 2 127.112 67.4923 0.29149
714 2 130.952 67.385 15.855
715 2 134.766 67.1977 0.169019
716 2 138.907 67.2332 0.139892
717 2 142.791 67.1756 16.0412
718 2 146.588 67.1017 15.9363
719 2 150.403 67.0258 15.8192
720 2 154.515 66.9661 0.128676
721 2 0.266071 71.0167 0.310648
722 2 4.10912 71.1209 15.7699
723 2 7.98149 70.9476 -0.0879772
724 2 11.9566 71.0108 15.787
725 2 15.7913 70.9099 0.060749
726 2 19.6819 71.0099 0.256279
727 2 23.6141 70.6252 0.186974
728 2 27.6352 70.7636 16.0007
729 2 31.6769 70.9136 0.151857
730 2 35.2901 70.8232 0.143538
731 2 39.3165 70.7358 16.0315
732 2 43.1974 70.585 0.0671163
733 2 47.1243 70.5531 15.9294
734 2 50.9021 70.6862 16.2372
735 2 54.8651 70.6353 0.376193
736 2 58.9413 70.7866 0.196012
737 2 62.8655 70.6009 0.170319
738 2 66.9419 70.8409 15.8937
739 2 71.1105 70.7617 15.8564
740 2 74.8932 70.8845 15.9692
741 2 78.9608 70.9505 0.279139
742 2 83.0887 70.9458 0.172676
743 2 87.1486 70.8895 16.0136
744 2 90.9699 71.153 16.1598
745 2 95.07 71.3113 16.0764
746 2 99.0419 71.0607 15.9472
747 2 103.056 71.0851 15.8529
748 2 107.158 71.1708 15.934
749 2 111.054 71.1164 15.8577
750 2 114.938 71.3259 0.0374124
751 2 119.043 71.2678 15.8972
752 2 123.01 71.2181 0.04627
753 2 127.01 71.3325 15.9818
754 2 130.96 71.3083 15.8562
755 2 134.825 71.2207 16.0148
756 2 138.953 71.3344 15.9095
757 2 142.947 71.3299 0.183727
758 2 146.729 71.1153 0.0303464
759 2 150.735 71.2049 0.234312
760 2 154.54 71.0128 16.0149
761 2 0.0971188 75.0182 0.0388056
762 2 4.12658 75.0037 15.9143
763 2 8.04864 74.9335 15.8034
764 2 11.8339 74.8431 15.9328
765 2 15.8013 74.8969 15.9026
766 2 19.733 74.7528 15.8322
767 2 23.613 74.7456 15.7266
768 2 27.5642 74.8347 15.9925
769 2 31.4497 74.7144 0.400853
770 2 35.3944 74.783 15.7803
771 2 39.2792 74.8838 15.9709
772 2 43.2511 74.8004 0.107717
773 2 47.1624 74.7363 15.8277
774 2 51.0731 74.6324 0.132328
775 2 54.8917 74.4567 15.7737
776 2 58.6471 74.502 15.7889
777 2 62.8057 74.4603 16.0016
778 2 66.7172 74.5466 0.178407
779 2 70.7907 74.91 0.111515
780 2 75.0011 74.7261 0.151906
781 2 78.8854 74.6695 -0.052015
782 2 83.0866 74.882 0.024185
783 2 86.9686 74.7011 0.199852
784 2 90.9602 74.9165 16.0232
785 2 94.926 74.9797 15.9723
786 2 98.9629 74.9465 0.0921831
787 2 102.926 74.9842 16.0528
788 2 106.94 75.1815 15.8467
789 2 110.91 75.1906 15.9466
790 2 114.869 75.0813 16.0046
791 2 118.994 75.0992 0.15403
792 2 122.879 75.3146 15.7064
793 2 127.024 75.3042 15.9416
794 2 130.876 75.247 0.243018
795 2 134.812 75.4177 16.067
796 2 138.791 75.1278 15.8783
797 2 142.56 74.8767 16.0065
798 2 146.653 75.1978 16.0126
799 2 150.538 75.0779 0.0222537
800 2 154.566 74.99 0.0827706
801 2 0.260599 78.9456 0.0463221
802 2 4.21287 79.1524 15.9219
803 2 7.97094 78.9009 0.311922
804 2 11.9638 79.0732 0.041727
805 2 15.7749 78.9746 15.7116
806 2 19.8419 78.6843 15.8096
807 2 23.782 78.811 0.184384
808 2 27.5555 78.8425 0.185451
809 2 31.396 78.781 0.104508
810 2 35.3678 78.7959 0.17731
811 2 39.2748 78.7569 15.9522
812 2 43.1083 78.752 15.8652
813 2 47.0371 78.6856 15.885
814 2 51.0934 78.6506 0.163099
815 2 54.8624 78.6035 0.179674
816 2 58.7784 78.5308 15.8931
817 2 62.9468 78.3922 15.9189
818 2 66.9638 78.5726 0.242471
819 2 70.882 78.5355 15.8223
820 2 74.8532 78.5985 0.0701582
821 2 78.8635 78.6266 15.7589
822 2 82.9872 78.7126 15.8716
823 2 86.9029 78.7154 0.172658
824 2 90.8444 78.7272 0.365246
825 2 94.842 78.9173 0.372929
826 2 98.902 78.7153 15.9672
827 2 102.969 78.9564 15.8839
828 2 106.937 78.9256 0.446286
829 2 110.903 79.0126 0.364401
830 2 114.812 79.1135 0.182236
831 2 118.86 78.9868 0.33475
832 2 122.896 79.1127 15.8775
833 2 126.888 79.2137 0.167554
834 2 130.851 79.0524 15.9067
835 2 134.978 79.3306 0.404832
836 2 139.005 79.1539 15.9988
837 2 142.943 79.296 15.9152
838 2 146.801 79.0989 15.9992
839 2 150.588 79.2559 15.8253
840 2 154.549 79.0114 0.114936
841 2 0.000546556 82.9599 15.8885
842 2 4.00381 83.0871 15.8896
843 2 8.15275 82.93 0.0905543
844 2 11.9957 82.8519 16.0453
845 2 15.9316 82.8824 15.8885
846 2 19.8462 82.8301 -0.041996
847 2 23.9153 82.9503 15.8634
848 2 27.5406 82.8301 0.243676
849 2 31.4096 82.795 15.9282
850 2 35.4961 82.7272 0.161837
851 2 39.3003 82.7376 0.106874
852 2 43.0658 82.8179 15.8682
853 2 47.0824 82.703 0.07955
854 2 51.2427 82.5589 0.286344
855 2 55.02 82.5625 0.203799
856 2 59.053 82.4562 15.9033
857 2 62.9206 82.3989 15.8462
858 2 66.776 82.4493 15.7661
859 2 70.7332 82.5464 16.0323
860 2 74.8753 82.5144 15.9911
861 2 78.8373 82.5556 15.9669
862 2 82.8609 82.3806 0.0384132
863 2 86.808 82.7699 -0.0179
864 2 90.9418 82.588 15.8516
865 2 94.8012 82.8122 0.114966
866 2 98.8849 82.6345 16.0778
867 2 102.955 82.7598 0.216961
868 2 106.777 82.8376 16.0781
869 2 110.809 82.9076 16.0568
870 2 114.772 82.9249 15.9318
871 2 118.927 82.8617 15.976
872 2 122.733 82.9561 15.7999
873 2 126.994 83.0224 15.9426
874 2 130.891 83.0993 15.9747
875 2 134.814 83.2225 0.103856
876 2 138.959 83.1879 16.0354
877 2 142.889 83.2361 0.211729
878 2 146.677 83.0464 16.0482
879 2 150.762 83.0262 0.19434
880 2 154.507 83.2493 0.0134794
881 2 0.144651 87.135 15.7648
882 2 4.1247 86.8663 0.162973
883 2 7.92919 86.9659 15.8004
884 2 12.0587 86.8215 15.8398
885 2 16.0363 86.8687 15.7799
886 2 19.7391 87.002 15.8563
887 2 23.8983 87.0095 15.9146
888 2 27.7194 87.0816 -0.0975655
889 2 31.5401 86.8513 15.8273
890 2 35.5422 86.7794 0.0688322
891 2 39.5351 86.7276 15.7993
892 2 43.3781 86.6792 15.9529
893 2 47.2107 86.5741 15.992
894 2 51.3355 86.6042 15.9033
895 2 54.9577 86.5163 16.0897
896 2 58.8953 86.575 0.0955604
897 2 62.9472 86.3958 0.143654
898 2 66.8136 86.4593 15.8995
899 2 70.8612 86.4663 0.150846
900 2 74.7694 86.5461 15.7294
901 2 78.7482 86.5593 0.265068
902 2 82.8966 86.3884 0.382153
903 2 86.615 86.541 15.8632
904 2 90.8349 86.4851 15.9971
905 2 94.8831 86.5494 15.986
906 2 98.866 86.6621 15.8916
907 2 102.86 86.6369 0.126079
908 2 106.82 86.7952 0.193779
909 2 110.683 86.7537 15.9014
910 2 114.728 86.7599 0.137918
911 2 118.863 86.9011 0.0631293
912 2 122.9 87.024 0.120555
913 2 126.758 86.7648 15.9846
914 2 130.799 86.9792 15.6364
915 2 134.752 87.1994 16.0224
916 2 138.612 87.2517 15.8129
917 2 142.792 86.8607 15.8607
918 2 146.747 86.9684 0.230536
919 2 150.732 86.8865 15.917
920 2 154.56 87.046 15.7314
921 2 0.416367 91.1064 0.330054
922 2 4.38081 91.0719 0.000871329
923 2 7.97438 90.8822 15.8892
924 2 11.8275 90.855 15.9123
925 2 15.8656 91.0467 0.00902203
926 2 19.8997 90.9711 0.0235939
927 2 23.7618 90.8964 15.749
928 2 27.665 90.9208 15.8425
929 2 31.6548 90.9243 16.1213
930 2 35.4958 90.9542 0.161924
931 2 39.5209 90.639 16.0072
932 2 43.3117 90.7262 15.9821
933 2 47.3295 90.6609 0.262554
934 2 51.2436 90.6665 -0.149973
935 2 55.0721 90.6829 0.100302
936 2 59.0575 90.3976 -0.0148032
937 2 62.9816 90.5086 0.175417
938 2 66.8687 90.28 15.8244
939 2 70.7745 90.2178 16.1471
940 2 74.7377 90.4443 0.139417
941 2 78.757 90.2835 0.285398
942 2 82.6944 90.438 0.14923
943 2 86.5265 90.4263 0.0820912
944 2 90.7314 90.4612 0.128599
945 2 94.8443 90.4401 15.7767
946 2 98.7562 90.3846 16.0492
947 2 102.691 90.6389 0.195234
948 2 106.707 90.7016 16.0787
949 2 110.885 90.7684 15.775
950 2 114.685 90.7468 0.329226
951 2 118.916 90.7415 0.0569311
952 2 122.933 90.7793 16.0016
953 2 126.851 90.8169 0.171873
954 2 130.788 90.8442 -0.000124175
955 2 134.871 90.8904 16.0064
956 2 138.878 91.1116 16.035
957 2 142.882 90.9218 16.0889
958 2 146.835 91.0122 15.8886
959 2 150.821 91.1505 15.8411
960 2 154.66 91.1001 15.8337
961 2 0.409485 94.8966 0.210887
962 2 4.31226 95.0633 15.7486
963 2 8.12249 95 15.8796
964 2 12.2052 94.9731 15.8372
965 2 16.0093 95.0169 15.8715
966 2 20.0064 94.8693 15.8045
967 2 23.8044 94.9548 15.7207
968 2 27.7159 95.134 16.0522
969 2 31.7577 94.832 15.8174
970 2 35.6437 94.8065 15.9938
971 2 39.619 94.8252 15.9322
972 2 43.35 94.8061 15.8486
973 2 47.4068 94.5993 0.202585
974 2 51.309 94.643 15.8473
975 2 55.1735 94.532 -0.153459
976 2 59.1086 94.5739 15.8388
977 2 63.1512 94.5984 0.0514647
978 2 67.0407 94.2789 0.137857
979 2 71.0361 94.223 0.10125
980 2 74.6085 94.3102 0.158524
981 2 78.567 94.2334 15.9245
982 2 82.5676 94.2647 0.393518