ITEM: TIMESTEP
22700
ITEM: NUMBER OF ATOMS
32000
ITEM: BOX BOUNDS xy xz yz pp pp pp
0.0000000000000000e+00 1.5831999999999999e+02 0.0000000000000000e+00
0.0000000000000000e+00 1.5831999999999999e+02 0.0000000000000000e+00
1.6593077866510431e-01 1.5931781221334756e+01 0.0000000000000000e+00
ITEM: ATOMS id type x y z
1 2 158.115 157.871 16.0476
2 2 3.88215 157.762 15.7149
3 2 7.73539 157.824 0.0118463
4 2 11.8842 157.811 0.284607
5 2 15.7179 157.783 0.266664
6 2 19.9789 158.075 15.9761
7 2 23.9551 158.144 15.9024
8 2 27.9068 158.275 16.0366
9 2 31.6946 158.202 0.26387
10 2 35.8987 158.109 16.0379
11 2 39.8421 -0.0142026 15.9357
12 2 43.7606 0.154435 0.231608
13 2 47.8982 -0.0880923 16.117
14 2 51.9929 0.0453232 0.329612
15 2 56.1153 158.291 -0.00408084
16 2 59.8643 158.317 15.9769
17 2 63.7991 0.105568 16.0556
18 2 67.8139 0.125918 16.179
19 2 71.8682 0.124755 15.8627
20 2 75.7734 158.289 15.8624
21 2 79.5775 -0.169037 16.1006
22 2 83.4483 158.251 16.0612
23 2 87.4115 158.341 16.1245
24 2 91.3114 158.301 0.234411
25 2 95.2703 158.227 15.894
26 2 99.0508 158.159 15.9544
27 2 103.06 158.257 16.054
28 2 106.792 157.962 15.829
29 2 110.715 158.173 0.149413
30 2 114.68 157.786 0.262463
31 2 118.588 157.84 15.8565
32 2 122.506 157.902 0.209172
33 2 126.393 157.739 0.215221
34 2 130.322 157.653 0.275128
35 2 134.195 157.547 15.898
36 2 138.287 157.457 15.8237
37 2 142.112 157.668 15.833
38 2 146.033 157.49 16.0791
39 2 150.025 157.659 0.269132
40 2 154.038 157.654 0.119473
41 2 157.975 3.24304 15.7565
42 2 3.67963 3.55179 15.9578
43 2 7.75864 3.38288 0.127072
44 2 11.6403 3.50152 15.9763
45 2 15.8641 3.43459 16.0621
46 2 19.5694 3.65729 16.0853
47 2 23.7424 3.71066 0.24225
48 2 27.8491 3.7468 0.375282
49 2 31.7789 3.70883 0.170921
50 2 35.7646 3.80656 -0.0131622
51 2 39.7308 3.89472 0.394611
52 2 43.7225 3.91462 16.0261
53 2 47.8771 3.89916 15.904
54 2 51.901 3.90721 15.7435
55 2 55.9517 3.91901 0.179693
56 2 59.9596 3.99435 15.8402
57 2 63.8665 4.17827 16.0594
58 2 67.8424 4.00662 16.0991
59 2 71.6693 4.12189 15.8903
60 2 75.7143 4.16782 15.8919
61 2 79.5209 4.04787 16.0757
62 2 83.5703 4.11453 16.1356
63 2 87.3334 4.13855 15.9242
64 2 91.3574 3.89757 0.0370224
65 2 95.3339 3.72577 16.1373
66 2 99.241 3.85907 0.2925
67 2 103.131 3.70812 15.7798
68 2 107.025 3.6616 16.1963
69 2 110.929 3.55981 0.252572
70 2 114.661 3.62368 0.187858
71 2 118.713 3.57277 0.229923
72 2 122.733 3.65198 0.245665
73 2 126.461 3.60597 0.0063899
74 2 130.384 3.17843 0.237829
75 2 134.4 3.36657 15.9173
76 2 138.294 3.31175 0.124315
77 2 142.057 3.13896 0.238875
78 2 145.861 3.31334 0.07967
79 2 149.972 3.30309 15.9679
80 2 154.102 3.30038 15.8319
81 2 158.021 7.4209 15.7937
82 2 3.79416 7.14373 15.9299
83 2 7.67823 7.18549 15.8739
84 2 11.7306 7.48815 0.241601
85 2 15.7781 7.44137 16.0764
86 2 19.8314 7.41122 15.9494
87 2 23.6792 7.46022 0.125965
88 2 27.6823 7.63066 16.022
89 2 31.8298 7.66806 15.8805
90 2 35.6229 7.77536 16.1029
91 2 39.8652 7.87998 0.320451
92 2 43.5974 7.79312 0.529273
93 2 47.8662 7.64342 15.93
94 2 51.7449 7.85199 -0.0707326
95 2 55.4987 7.96981 15.8868
96 2 59.6786 8.10483 0.0995599
97 2 63.9256 8.08984 16.0744
98 2 67.7869 8.19859 15.9867
99 2 71.726 8.00005 15.9121
100 2 75.9377 8.02967 15.7491
101 2 79.7269 7.9013 0.178926
102 2 83.4834 8.0551 16.144
103 2 87.4441 8.08291 16.0671
104 2 91.3665 8.01945 15.9009
105 2 95.2415 7.77419 15.9405
106 2 99.1252 8.06965 0.295327
107 2 103.066 7.80937 0.217647
108 2 107.007 7.67409 15.9822
109 2 110.74 7.73854 0.199065
110 2 114.864 7.84711 15.9943
111 2 118.574 7.51752 15.8375
112 2 122.712 7.69062 15.8381
113 2 126.606 7.40882 15.7062
114 2 130.43 7.39668 0.116136
115 2 134.329 7.32944 0.164534
116 2 138.361 7.19196 15.7757
117 2 142.051 7.25277 16.021
118 2 145.958 7.15698 0.0538964
119 2 149.979 7.15317 0.190972
120 2 154.008 7.31752 15.7776
121 2 158.109 11.1175 15.7995
122 2 3.6407 11.0604 15.8014
123 2 7.57185 11.0966 15.8248
124 2 11.5061 11.219 0.377977
125 2 15.6254 11.3613 15.8459
126 2 19.7191 11.3821 16.0837
127 2 23.7494 11.4501 15.9759
128 2 27.779 11.6339 16.0756
129 2 31.631 11.6865 16.1086
130 2 35.8173 11.6289 16.1655
131 2 39.6462 11.6068 16.1399
132 2 43.6947 11.5365 0.380194
133 2 47.8414 11.8193 0.210652
134 2 51.7562 11.796 15.8718
135 2 55.7041 11.9426 0.160907
136 2 59.7394 12.0337 15.7111
137 2 63.6937 12.3356 0.138136
138 2 67.7895 11.9786 16.1072
139 2 71.6933 12.0161 16.07
140 2 75.786 11.9821 16.0543
141 2 79.8298 11.8668 15.9426
142 2 83.7777 12.0404 16.0723
143 2 87.4623 11.9584 0.422532
144 2 91.2152 12.0317 0.311676
145 2 95.203 11.7826 16.0178
146 2 99.1541 11.735 16.147
147 2 103.051 11.6868 0.109065
148 2 106.914 11.7675 16.1259
149 2 110.857 11.6386 0.217386
150 2 114.781 11.5795 15.8508
151 2 118.924 11.5816 0.0977918
152 2 122.811 11.4632 0.0488798
153 2 126.742 11.4464 15.7912
154 2 130.703 11.4757 15.8545
155 2 134.405 11.2374 0.0870607
156 2 138.336 11.2073 0.231284
157 2 142.358 11.2756 0.209772
158 2 146.042 11.3461 0.33286
159 2 150.162 11.1766 -0.0510089
160 2 153.938 11.0796 0.0351439
161 2 158.073 15.0193 15.798
162 2 3.64201 15.1031 15.6578
163 2 7.59303 15.1507 16.1615
164 2 11.5724 15.1772 15.9711
165 2 15.5642 15.1679 15.8772
166 2 19.702 15.3834 0.246366
167 2 23.4844 15.2942 0.237713
168 2 27.5839 15.4456 16.158
169 2 31.7707 15.3439 0.291323
170 2 35.5337 15.4322 16.0319
171 2 39.6299 15.5985 0.243173
172 2 43.7371 15.5815 0.318068
173 2 47.8562 15.7233 0.135092
174 2 51.6306 15.5918 -0.0813631
175 2 55.6936 15.6619 15.9837
176 2 59.6677 15.8467 0.0825021
177 2 63.694 15.8451 15.7709
178 2 67.5879 15.846 16.1391
179 2 71.6482 15.9158 0.219079
180 2 75.8642 16.0407 0.217963
181 2 79.5488 15.8707 15.804
182 2 83.6563 16.0351 0.0810859
183 2 87.4401 15.9079 16.0194
184 2 91.3938 15.94 0.143358
185 2 95.3237 15.7648 15.9262
186 2 99.1862 15.8389 15.8827
187 2 102.868 15.7308 16.0875
188 2 107.013 15.7363 15.914
189 2 110.935 15.7846 16.047
190 2 114.805 15.6151 15.8585
191 2 118.835 15.4952 0.306914
192 2 122.713 15.3862 15.9725
193 2 126.709 15.3402 15.8481
194 2 130.688 15.4352 0.125333
195 2 134.359 15.4677 -0.0190772
196 2 138.215 15.4006 -0.0688916
197 2 141.995 15.4851 15.7299
198 2 146.259 15.2764 0.357634
199 2 150.203 15.0326 0.0524596
200 2 154.225 15.09 15.8819
201 2 157.928 18.8092 15.9242
202 2 3.71509 19.0812 0.032891
203 2 7.64992 19.0524 0.0945511
204 2 11.6522 19.0139 15.9627
205 2 15.5245 19.0624 15.9443
206 2 19.5982 18.9852 15.9001
207 2 23.6334 19.3661 15.9644
208 2 27.5317 19.2014 16.132
209 2 31.5975 19.3226 16.062
210 2 35.6963 19.4462 16.1131
211 2 39.5118 19.4241 0.282673
212 2 43.8117 19.46 16.2161
213 2 47.8799 19.715 16.033
214 2 51.9019 19.6373 0.156575
215 2 55.7997 19.5355 15.8267
216 2 59.6799 19.822 16.0103
217 2 63.8101 19.8589 15.9396
218 2 67.677 19.8114 16.0453
219 2 71.5852 19.6767 0.142384
220 2 75.7887 19.8395 0.180194
221 2 79.6255 19.8181 0.140109
222 2 83.5951 19.8872 15.9902
223 2 87.5539 19.982 0.118567
224 2 91.4377 19.9313 0.227518
225 2 95.2954 19.801 15.9058
226 2 99.4387 19.8508 16.0584
227 2 103.334 19.7887 16.0408
228 2 107.033 19.6833 15.9979
229 2 110.89 19.8535 0.19959
230 2 114.864 19.5541 15.8159
231 2 118.764 19.7608 15.9043
232 2 122.621 19.5754 16.1868
233 2 126.535 19.4129 15.6856
234 2 130.58 19.2742 15.6614
235 2 134.318 19.5101 0.132434
236 2 138.232 19.3329 15.7919
237 2 142.319 19.237 15.9568
238 2 146.222 19.2495 0.081961
239 2 150.119 19.1547 15.7733
240 2 153.9 19.1326 0.162968
241 2 158.091 22.9768 15.7235
242 2 3.68507 23.0242 15.9384
243 2 7.50635 22.9508 0.160903
244 2 11.5038 23.0995 0.192484
245 2 15.3649 22.9489 15.8476
246 2 19.6416 22.8914 16.0675
247 2 23.5198 23.255 16.0477
248 2 27.5057 23.3446 16.2172
249 2 31.7134 23.1562 0.167838
250 2 35.5118 23.298 16.0693
251 2 39.5659 23.4321 0.057964
252 2 43.5441 23.3684 15.8477
253 2 47.5838 23.57 0.0410542
254 2 51.6372 23.6027 0.0235747
255 2 55.4905 23.4596 0.0258567
256 2 59.7607 23.6929 15.8789
257 2 63.6318 23.8258 0.149037
258 2 67.5418 23.7008 15.6252
259 2 71.5757 23.9776 15.9419
260 2 75.469 23.6911 0.24834
261 2 79.45 23.8776 15.9364
262 2 83.6188 23.9416 0.042443
263 2 87.6429 23.8806 15.8081
264 2 91.5059 23.9302 15.9092
265 2 95.3744 23.9543 16.0182
266 2 99.3903 23.9196 0.250144
267 2 103.084 23.7315 16.1179
268 2 107.338 23.685 15.977
269 2 111.081 23.6927 0.348933
270 2 115.102 23.5408 16.0366
271 2 119.019 23.5954 16.09
272 2 122.749 23.5252 0.267687
273 2 126.708 23.4886 15.978
274 2 130.823 23.3138 15.9693
275 2 134.607 23.297 15.8103
276 2 138.533 23.338 15.7835
277 2 142.185 23.2553 15.8469
278 2 146.149 23.3369 -0.10402
279 2 149.964 23.05 -0.00530144
280 2 153.971 23.2055 0.185821
281 2 158.08 27.1209 -0.0367799
282 2 3.65413 26.8279 -0.0806776
283 2 7.49504 26.892 0.0861413
284 2 11.4623 26.9044 16.0537
285 2 15.453 27.0897 15.9362
286 2 19.2934 26.9104 0.213043
287 2 23.4413 27.1965 16.1123
288 2 27.4948 27.2671 15.8833
289 2 31.6082 27.2262 0.106702
290 2 35.446 27.0717 0.168011
291 2 39.3431 27.2053 0.136676
292 2 43.6349 27.4365 0.187346
293 2 47.5549 27.3981 0.245672
294 2 51.3968 27.5097 16.1343
295 2 55.5621 27.5369 0.0552004
296 2 59.3836 27.6098 15.9574
297 2 63.6132 27.5039 15.9474
298 2 67.3322 27.8771 15.9458
299 2 71.6127 27.7092 15.8032
300 2 75.4833 27.8221 0.259035
301 2 79.2987 27.9418 0.114244
302 2 83.4156 27.7255 15.8913
303 2 87.5011 27.8768 0.201438
304 2 91.5039 27.9234 0.199608
305 2 95.4825 27.7559 0.0584718
306 2 99.5303 27.9973 0.114403
307 2 103.373 27.8306 15.9637
308 2 107.262 27.7968 0.244115
309 2 111.139 27.7073 15.8891
310 2 114.817 27.4983 16.0937
311 2 118.861 27.68 0.100405
312 2 122.82 27.6894 0.209831
313 2 126.791 27.4723 15.9193
314 2 130.743 27.4692 15.8196
315 2 134.612 27.4493 15.8135
316 2 138.584 27.4104 15.8237
317 2 142.502 27.1272 0.14382
318 2 146.48 27.1786 0.0637722
319 2 150.194 27.0466 0.179315
320 2 154 27.0762 0.152463
321 2 158.111 30.9995 15.6993
322 2 3.6613 30.9306 16.0318
323 2 7.52597 30.9309 16.0008
324 2 11.525 30.8457 0.00581032
325 2 15.4475 30.9598 0.114487
326 2 19.3047 31.1253 16.0429
327 2 23.5578 31.0627 16.0588
328 2 27.6383 31.029 0.210706
329 2 31.3188 31.1205 16.0359
330 2 35.5157 31.0346 15.8771
331 2 39.4375 31.1121 15.9571
332 2 43.3223 31.334 0.307615
333 2 47.3114 31.2728 15.8954
334 2 51.4268 31.3355 0.128062
335 2 55.5407 31.5159 15.9864
336 2 59.5838 31.5316 0.0745637
337 2 63.5096 31.5707 16.1033
338 2 67.4617 31.6355 0.26172
339 2 71.3982 31.6395 0.120661
340 2 75.4636 31.657 0.110183
341 2 79.4578 31.8123 16.0032
342 2 83.3287 31.724 0.225736
343 2 87.3529 31.6386 15.92
344 2 91.4666 31.7939 15.79
345 2 95.4994 31.7316 15.7169
346 2 99.4024 31.8019 0.045284
347 2 103.209 31.7279 15.815
348 2 107.207 31.7509 15.8868
349 2 111.071 31.77 15.9734
350 2 115.084 31.5931 15.8217
351 2 118.97 31.6204 15.8934
352 2 122.918 31.5557 15.9808
353 2 126.691 31.4703 16.0177
354 2 130.407 31.3498 15.8351
355 2 134.515 31.3229 15.9138
356 2 138.397 31.3314 15.829
357 2 142.393 31.2289 0.135705
358 2 146.571 31.1823 15.7829
359 2 150.417 31.1325 0.119117
360 2 154.271 30.9405 0.210931
361 2 -0.0459944 34.9229 0.171469
362 2 3.82677 35.0481 15.7101
363 2 7.72842 34.8881 15.6914
364 2 11.4277 35.0479 15.8409
365 2 15.4017 34.7944 0.0675042
366 2 19.3927 34.786 0.0457549
367 2 23.3332 34.848 0.308862
368 2 27.2969 35.0355 -0.0231002
369 2 31.3981 35.0361 0.104875
370 2 35.3673 35.0372 0.0933549
371 2 39.4233 35.1978 0.00602829
372 2 43.3096 35.0909 15.7912
373 2 47.1256 35.0062 15.8314
374 2 51.1966 35.522 16.1071
375 2 55.3639 35.2469 0.191941
376 2 59.3701 35.4916 0.151208
377 2 63.3721 35.3713 15.8749
378 2 67.3942 35.4694 0.202134
379 2 71.4126 35.5751 0.00669419
380 2 75.326 35.7272 15.8351
381 2 79.3488 35.741 0.300785
382 2 83.4844 35.709 16.0873
383 2 87.4833 35.6044 -0.0561035
384 2 91.4144 35.8138 0.159107
385 2 95.4984 35.7669 15.9578
386 2 99.5183 35.6741 0.189257
387 2 103.331 35.8555 15.9566
388 2 107.307 35.6287 15.8729
389 2 111.208 35.589 15.9856
390 2 115.122 35.7328 15.8829
391 2 118.888 35.5519 15.7794
392 2 123.061 35.548 15.9429
393 2 126.856 35.5753 15.8348
394 2 130.66 35.4205 15.8548
395 2 134.787 35.4479 15.8898
396 2 138.795 35.444 0.0205955
397 2 142.568 35.2122 0.0780774
398 2 146.311 35.1165 0.10112
399 2 150.284 35.0525 15.8541
400 2 154.282 35.0712 0.20109
401 2 158.247 38.9679 0.0171373
402 2 3.85713 38.9334 0.0716939
403 2 7.83265 38.9741 0.0748144
404 2 11.6099 38.8775 15.7108
405 2 15.4101 38.8378 0.0131091
406 2 19.4619 39.0946 15.9379
407 2 23.3906 38.7797 15.8391
408 2 27.27 38.7186 16.0112
409 2 31.2907 38.8936 0.216086
410 2 35.1779 38.9474 0.145381
411 2 39.2579 39.0914 15.9178
412 2 43.1376 39.1162 0.236583
413 2 47.3273 39.2734 0.155127
414 2 51.3121 39.0878 15.8118
415 2 55.3225 39.2909 0.0221138
416 2 59.3571 39.3849 0.128261
417 2 63.1992 39.4747 0.0492613
418 2 67.3634 39.2533 0.0566781
419 2 71.266 39.6096 -0.0381525
420 2 75.1171 39.4793 -0.094163
421 2 79.3269 39.6384 0.144405
422 2 83.3055 39.527 15.9996
423 2 87.3981 39.6889 15.957
424 2 91.4012 39.6623 15.8851
425 2 95.3717 39.6065 15.8478
426 2 99.3089 39.7539 0.0413386
427 2 103.315 39.8411 15.6982
428 2 107.328 39.721 15.7491
429 2 111.192 39.707 15.7562
430 2 115.296 39.6853 15.6824
431 2 119.106 39.4906 15.7832
432 2 123.047 39.5819 15.8447
433 2 126.839 39.4899 -0.00877035
434 2 130.74 39.4333 15.9207
435 2 134.661 39.4015 15.8202
436 2 138.704 39.2547 15.8092
437 2 142.617 39.2793 15.7408
438 2 146.586 39.2322 0.135418
439 2 150.301 38.9673 15.7418
440 2 154.26 38.9423 15.791
441 2 158.07 43.0558 -0.023351
442 2 3.67967 42.8565 15.9141
443 2 7.45603 42.8222 15.8148
444 2 11.3411 42.9177 0.0716954
445 2 15.3517 42.9796 -0.00843792
446 2 19.4414 42.8128 0.289603
447 2 23.4633 42.7846 15.8069
448 2 27.2849 42.6586 15.8714
449 2 31.0506 42.829 0.0784197
450 2 35.1182 42.9575 -0.0207756
451 2 39.3776 42.9678 0.156832
452 2 43.3512 43.1237 0.183164
453 2 47.2453 43.2025 15.9912
454 2 51.3718 43.0749 15.9691
455 2 55.2231 43.1434 0.131443
456 2 59.084 43.2621 16.0957
457 2 63.0712 43.3509 0.0673225
458 2 67.2428 43.4496 0.252932
459 2 71.2314 43.4049 0.208964
460 2 75.359 43.4686 0.159778
461 2 79.2686 43.263 0.26039
462 2 83.1321 43.5172 15.92
463 2 87.3019 43.4375 15.7577
464 2 91.2764 43.3651 0.0895303
465 2 95.2832 43.5485 0.133228
466 2 99.2584 43.5003 15.8772
467 2 103.328 43.6272 15.7083
468 2 107.344 43.5191 15.8958
469 2 111.319 43.6052 16.101
470 2 115.319 43.5627 15.9268
471 2 119.158 43.7425 15.8448
472 2 122.907 43.6389 15.7973
473 2 126.761 43.7343 -0.342832
474 2 130.634 43.3643 0.0111818
475 2 134.963 43.3967 15.8223
476 2 138.871 43.4757 16.052
477 2 142.618 43.2419 15.7077
478 2 146.597 43.3249 0.105697
479 2 150.453 42.9776 -0.0508847
480 2 154.44 43.1605 0.214804
481 2 -0.145809 47.0642 0.172446
482 2 3.86818 47.0733 0.0546045
483 2 7.56401 47.1564 0.168615
484 2 11.4401 46.9894 0.0514723
485 2 15.2777 46.7722 0.0727229
486 2 19.4627 46.6785 0.0717235
487 2 23.3724 46.7206 0.238021
488 2 27.4078 46.9064 15.7178
489 2 31.1266 46.7166 0.0579877
490 2 35.1383 46.6641 0.307146
491 2 38.9892 46.917 15.8282
492 2 43.0804 46.9911 15.9147
493 2 47.0616 47.0653 0.0739727
494 2 51.0674 46.8869 15.9497
495 2 55.1721 47.0086 15.8358
496 2 59.0969 47.1461 15.9729
497 2 63.2563 47.0377 0.0860694
498 2 67.24 47.3681 0.292787
499 2 70.9167 47.3432 16.0767
500 2 75.2573 47.4292 0.255958
501 2 79.0964 47.4616 16.223
502 2 83.1601 47.33 16.0767
503 2 87.0386 47.3735 0.292662
504 2 91.1956 47.388 0.118578
505 2 95.3581 47.4212 0.34704
506 2 99.3593 47.5343 0.103798
507 2 103.335 47.5256 0.217838
508 2 107.309 47.4438 15.9444
509 2 111.199 47.6917 15.9999
510 2 115.352 47.5964 0.223031
511 2 119.109 47.6776 15.8139
512 2 123.105 47.4977 15.9974
513 2 127.194 47.5183 15.7952
514 2 130.937 47.324 16.1825
515 2 134.688 47.402 15.9132
516 2 138.555 47.3746 16.1837
517 2 142.492 47.2278 15.929
518 2 146.481 47.0907 0.0386962
519 2 150.336 47.1999 0.0159543
520 2 154.262 46.9316 15.9429
521 2 158.3 51.0654 0.21959
522 2 3.9157 51.1335 15.7742
523 2 7.81698 51.0651 15.6523
524 2 11.7568 50.9402 15.816
525 2 15.6699 50.9345 0.150058
526 2 19.4829 50.8384 15.8702
527 2 23.4857 50.6807 15.945
528 2 27.4272 50.7337 15.9047
529 2 31.0396 50.7184 0.376317
530 2 34.9683 50.8742 -0.0539729
531 2 39.1037 50.7738 15.9329
532 2 43.1792 50.9427 15.9883
533 2 46.9026 50.9598 0.351811
534 2 51.1177 50.9143 0.217654
535 2 55.2306 50.9936 0.114013
536 2 59.0633 50.9418 15.9343
537 2 62.999 51.0955 16.0541
538 2 66.9148 51.1966 0.262157
539 2 71.1274 51.2942 0.11431
540 2 75.0809 51.1866 0.226016
541 2 79.122 51.38 0.279614
542 2 83.155 51.2817 0.272983
543 2 87.0519 51.4408 0.0888278
544 2 91.1876 51.3709 0.379177
545 2 95.0026 51.292 0.359258
546 2 99.0085 51.4321 0.146965
547 2 103.31 51.486 15.8009
548 2 107.206 51.2894 0.126148
549 2 111.154 51.5909 0.240827
550 2 115.249 51.5168 15.7406
551 2 119.363 51.4355 15.9228
552 2 123.182 51.5433 16.0946
553 2 127.123 51.5716 15.9125
554 2 130.951 51.4294 0.215117
555 2 134.82 51.4508 0.0531959
556 2 138.523 51.381 0.069279
557 2 142.871 51.1711 0.185631
558 2 146.49 51.1311 16.014
559 2 150.377 51.0933 0.415559
560 2 154.465 51.0761 0.232276
561 2 158.317 55.1276 -0.00165947
562 2 3.86685 55.0778 0.080216
563 2 7.96644 55.0571 0.0728908
564 2 11.7948 54.8635 -0.134016
565 2 15.6675 54.8637 0.0963192
566 2 19.7011 55.1002 15.9798
567 2 23.5298 54.9598 16.1117
568 2 27.3505 54.8636 16.0887
569 2 31.2431 54.61 0.169178
570 2 35.1367 54.6254 0.326374
571 2 38.9936 54.7949 16.0947
572 2 42.9856 54.7499 15.7283
573 2 47.0123 54.9002 0.0310967
574 2 51.0103 54.8285 16.0456
575 2 54.9078 55.1169 15.8262
576 2 58.9712 55.1068 15.8043
577 2 62.9548 54.7716 15.8715
578 2 67.0735 54.9899 0.241927
579 2 71.0775 54.8301 0.231652
580 2 75.064 55.0675 16.0547
581 2 78.939 55.2299 0.303203
582 2 83.112 55.24 0.0215725
583 2 87.2535 55.2461 0.305204
584 2 91.0349 55.1145 15.9365
585 2 95.2077 55.3005 0.299226
586 2 99.0086 55.5462 16.0842
587 2 103.045 55.3149 15.8845
588 2 107.111 55.292 0.154691
589 2 111.22 55.3406 15.8072
590 2 115.313 55.417 15.9248
591 2 119.349 55.4625 15.9269
592 2 123.295 55.5375 0.18064
593 2 127.266 55.5234 15.8225
594 2 131.287 55.552 16.0887
595 2 134.935 55.1836 0.198664
596 2 138.866 55.5785 15.9856
597 2 142.628 55.2424 0.12851
598 2 146.53 55.2488 0.270808
599 2 150.532 55.2267 0.20513
600 2 154.409 55.126 15.8742
601 2 158.405 59.1829 0.166798
602 2 3.97023 59.1521 15.9328
603 2 7.90163 58.8848 15.8482
604 2 11.6455 58.9989 0.0778697
605 2 15.5231 58.9938 15.9047
606 2 19.4509 58.8541 -0.0193373
607 2 23.543 59.0944 0.0891977
608 2 27.3827 59.111 0.217837
609 2 31.5059 58.7941 15.9467
610 2 35.2555 58.6507 15.8074
611 2 39.0047 58.7898 15.9551
612 2 43.1377 58.6359 15.8835
613 2 46.919 58.6162 15.8521
614 2 51.1226 58.744 15.8924
615 2 54.9369 58.924 15.9218
616 2 58.8703 58.9381 0.134027
617 2 62.9509 58.7899 15.9218
618 2 66.9148 58.767 0.261832
619 2 71.0687 58.8929 16.0245
620 2 74.8615 58.9425 0.173845
621 2 79.154 59.0682 0.0904952
622 2 83.16 58.9152 0.380785
623 2 87.0733 59.1239 16.1752
624 2 91.094 59.1231 16.0999
625 2 95.0878 59.0958 0.291232
626 2 99.0801 59.2771 0.253074
627 2 103.082 59.2002 15.8819
628 2 107.16 59.2078 0.434863
629 2 111.192 59.2838 15.9432
630 2 115.16 59.2672 16.1925
631 2 119.181 59.3722 15.9612
632 2 123.388 59.4849 0.25506
633 2 127.202 59.3159 15.8255
634 2 131.157 59.4189 0.0836153
635 2 135.06 59.6768 16.093
636 2 138.938 59.3225 0.0515172
637 2 142.73 59.2176 0.093548
638 2 146.702 59.1059 0.157407
639 2 150.411 59.3026 15.8239
640 2 154.41 59.0345 0.0664738
641 2 0.0276917 63.0866 0.0378451
642 2 4.00497 63.1843 0.228854
643 2 8.06174 62.7643 15.9333
644 2 11.8531 63.1363 15.8955
645 2 15.7199 62.9643 15.8011
646 2 19.6487 62.9088 0.337921
647 2 23.5427 62.9525 0.134214
648 2 27.4252 62.7651 0.0517764
649 2 31.5344 62.88 0.0275988
650 2 35.2046 62.8796 0.357203
651 2 39.2528 62.835 15.7949
652 2 43.2557 62.7899 -7.96329e-05
653 2 47.176 62.6706 15.7739
654 2 50.8548 62.6249 15.8513
655 2 54.7898 62.7454 0.243074
656 2 58.9504 62.7957 15.8308
657 2 62.9329 62.8121 0.229987
658 2 67.0202 62.7886 16.0744
659 2 70.9853 62.8078 0.105891
660 2 74.9043 62.9416 0.178943
661 2 79.0026 62.9994 0.150151
662 2 82.9496 62.9194 0.253535
663 2 86.9241 62.9344 16.0048
664 2 90.8989 62.9283 15.6935
665 2 94.9756 63.0783 0.173823
666 2 99.1428 63.113 0.305626
667 2 103.003 63.0482 16.0435
668 2 107.097 63.2468 16.0811
669 2 111.014 63.3355 16.2618
670 2 115.209 63.4476 0.38701
671 2 119.107 63.1764 16.2233
672 2 123.18 63.4099 0.213394
673 2 127.101 63.3225 16.0649
674 2 130.948 63.3907 0.237953
675 2 135.148 63.4464 15.8497
676 2 139.004 63.5096 16.0699
677 2 142.73 63.2715 15.9953
678 2 146.707 63.241 0.257904
679 2 150.556 63.3178 15.698
680 2 154.56 63.194 0.2396
681 2 0.267851 67.0752 0.137319
682 2 4.1982 67.2083 0.182818
683 2 8.06854 67.2015 15.8334
684 2 11.9935 66.8873 15.9565
685 2 15.8823 67.03 0.358719
686 2 19.7139 66.882 0.268203
687 2 23.4015 66.8469 0.151645
688 2 27.5412 66.8033 0.269414
689 2 31.4069 67.0021 -0.0957682
690 2 35.2739 66.9483 -0.0694718
691 2 39.2078 66.9426 15.7416
692 2 43.0925 66.6467 0.0380859
693 2 47.09 66.7775 15.6829
694 2 50.9385 66.6285 16.0186
695 2 54.897 66.8116 16.0254
696 2 58.9479 66.7667 15.9043
697 2 62.6674 66.8087 16.0857
698 2 67.0011 66.8104 15.9767
699 2 70.9824 66.7164 0.155186
700 2 74.9688 66.8208 16.1568
701 2 78.911 66.9076 16.0133
702 2 82.8755 66.882 0.20583
703 2 86.9718 66.9152 15.9543
704 2 90.7891 66.9594 15.9229
705 2 95.0098 66.9477 0.32699
706 2 99.0916 66.951 0.268178
707 2 103.223 67.1352 0.216299
708 2 107.056 67.1464 15.9135
709 2 110.994 67.1896 16.0882
710 2 115.336 67.1954 15.7944
711 2 119.181 67.2965 0.235755
712 2 123.285 67.2559 -0.0611306
713 2 127.226 67.4371 0.229561
714 2 131.119 67.3449 15.9912
715 2 135.097 67.3678 0.120304
716 2 139.101 67.4016 0.118258
717 2 143.045 67.398 16.1588
718 2 146.671 67.3122 15.9792
719 2 150.832 67.228 16.0907
720 2 154.733 67.3194 0.334989
721 2 0.211397 71.3053 0.068643
722 2 4.14075 71.0574 15.8004
723 2 8.13281 71.0207 0.104082
724 2 11.8692 70.9875 15.9076
725 2 15.7829 70.9917 0.330729
726 2 19.7076 71.0675 0.035863
727 2 23.5478 71.0065 0.229105
728 2 27.6404 70.9599 15.8891
729 2 31.4697 71.0844 -0.0931342
730 2 35.4698 70.9127 0.127417
731 2 39.3264 70.7743 15.8937
732 2 43.3888 70.8224 0.220702
733 2 47.1737 70.5932 15.8705
734 2 51.0566 70.6745 16.024
735 2 54.9871 70.68 0.398041
736 2 58.8217 70.5768 0.428358
737 2 63.0427 70.5713 0.0242694
738 2 66.9425 70.5853 15.7751
739 2 70.8846 70.8639 15.7802
740 2 74.9581 70.6968 16.1392
741 2 78.9151 70.8633 0.103015
742 2 82.8671 70.8358 0.244077
743 2 86.8326 70.7914 15.92
744 2 91.0828 70.907 15.9945
745 2 94.9273 70.86 16.0091
746 2 99.0008 70.9586 15.9429
747 2 102.823 71.079 16.0597
748 2 107.059 71.0746 15.895
749 2 111.123 71.2014 15.8949
750 2 115.091 71.1377 0.163986
751 2 119.151 71.1214 16.0087
752 2 123.151 71.3317 0.225854
753 2 127.108 71.1238 15.9189
754 2 131.009 71.1402 16.0747
755 2 134.829 71.2646 16.0207
756 2 139.005 71.3735 15.8919
757 2 143.051 71.3853 0.0553981
758 2 146.924 71.3655 0.0324913
759 2 150.638 71.1152 0.125397
760 2 154.694 71.2588 15.8311
761 2 0.319386 75.1474 0.112466
762 2 4.28053 75.0018 15.9143
763 2 8.18508 75.1916 15.9558
764 2 11.9553 75.1436 15.8959
765 2 15.7882 74.9525 15.8407
766 2 19.8372 74.9962 15.9352
767 2 23.7998 74.9818 15.8194
768 2 27.5855 74.8721 15.9469
769 2 31.431 74.9304 0.0292863
770 2 35.3805 75.0478 15.9256
771 2 39.3805 74.8148 15.8221
772 2 43.205 74.8181 -0.00752777
773 2 47.2558 74.7475 15.8701
774 2 51.026 74.586 0.0767319
775 2 54.9316 74.7302 15.765
776 2 58.8103 74.5681 15.8736
777 2 62.8501 74.5383 15.8021
778 2 66.9206 74.6397 0.156086
779 2 71.0418 74.6613 0.2012
780 2 74.7073 74.6571 0.193374
781 2 78.9477 74.7175 0.142049
782 2 82.8656 74.7169 0.196389
783 2 86.8794 74.6412 0.268956
784 2 90.8532 74.7732 16.0307
785 2 95.0847 74.8838 16.0359
786 2 99.0773 74.6386 0.282211
787 2 102.927 75.016 15.865
788 2 106.965 74.9865 16.0592
789 2 110.993 75.0222 15.9641
790 2 114.874 74.9184 15.8371
791 2 118.854 75.1335 0.389257
792 2 123.23 75.0671 15.8686
793 2 127.113 75.1108 15.8577
794 2 130.979 75.2114 0.184631
795 2 135.194 75.1997 15.9736
796 2 139.127 75.2679 16.0304
797 2 143.107 75.5613 15.8262
798 2 146.877 75.0614 15.9564
799 2 150.691 75.5224 0.200194
800 2 154.675 75.3001 0.149314
801 2 0.167069 79.242 -0.0591243
802 2 4.16095 79.0609 15.9059
803 2 8.14974 79.0789 0.196151
804 2 12.0626 78.9612 0.19947
805 2 15.9187 78.9889 15.8205
806 2 19.7872 79.1839 15.7495
807 2 23.8259 79.0161 0.0434484
808 2 27.5194 78.8644 0.212222
809 2 31.5163 78.8611 0.222255
810 2 35.4348 78.9812 0.0299281
811 2 39.4008 78.8175 15.8398
812 2 43.0512 78.7573 15.8232
813 2 47.0864 78.7107 15.8238
814 2 51.1671 78.5718 0.145287
815 2 55.1416 78.5704 0.14461
816 2 59.1095 78.451 15.9455
817 2 62.9721 78.5952 15.9677
818 2 66.9489 78.4282 0.231849
819 2 70.8376 78.3598 15.8896
820 2 75.0073 78.6172 0.22179
821 2 78.9444 78.5855 16.0568
822 2 82.9659 78.6523 15.953
823 2 86.9852 78.5552 0.1928
824 2 90.9479 78.7205 0.26341
825 2 94.924 78.6962 0.22014
826 2 98.9431 78.7919 15.9143
827 2 102.944 78.7993 16.0261
828 2 106.949 78.9148 0.240678
829 2 110.839 79.1375 0.304661
830 2 114.872 78.9062 0.160158
831 2 118.938 78.8768 0.367153
832 2 122.996 78.8501 16.0496
833 2 127.064 79.0078 0.307441
834 2 131.029 79.0944 15.9828
835 2 134.968 79.1292 0.133089
836 2 139.093 79.2205 15.8392
837 2 143.015 79.3583 15.7387
838 2 146.993 79.5733 15.9006
839 2 150.782 79.1226 15.8182
840 2 154.696 79.2188 0.22191
841 2 0.309768 83.1625 16.0334
842 2 4.19882 83.0251 16.0449
843 2 8.10783 83.1918 0.234372
844 2 11.9413 83.143 15.8552
845 2 15.9025 82.9498 15.8005
846 2 19.9295 83.1148 0.183724
847 2 23.7057 82.9979 16.0829
848 2 27.473 82.9959 0.245697
849 2 31.5792 82.9109 16.0103
850 2 35.6914 82.8496 0.282068
851 2 39.4083 82.7181 0.0172247
852 2 43.2755 82.594 15.6312
853 2 47.3295 82.8357 0.196066
854 2 51.2148 82.8516 -0.0417279
855 2 54.9942 82.7067 0.266786
856 2 58.9353 82.5907 15.8217
857 2 62.9346 82.424 15.9332
858 2 66.9182 82.4959 15.8917
859 2 70.7409 82.3121 15.9211
860 2 74.8632 82.6137 16.0938
861 2 78.7904 82.561 15.8681
862 2 82.9876 82.4192 0.273484
863 2 86.9199 82.5568 0.0814128
864 2 90.8203 82.6423 15.9678
865 2 94.9511 82.634 0.382291
866 2 98.8741 82.7356 16.1772
867 2 102.806 82.844 0.130304
868 2 106.893 82.8843 16.0308
869 2 110.808 82.9343 15.8695
870 2 114.882 82.6591 15.9046
871 2 118.997 82.6843 16.1173
872 2 122.983 82.8513 16.0897
873 2 126.83 83.0146 15.8902
874 2 130.867 82.9341 15.7503
875 2 135.061 83.1318 0.212563
876 2 138.905 83.311 15.7629
877 2 142.936 83.2879 0.0143679
878 2 147.006 83.495 16.2365
879 2 150.768 83.201 0.45561
880 2 154.611 83.0398 0.16731
881 2 0.220295 86.9978 16.1454
882 2 3.99473 87.1866 0.151494
883 2 7.98259 87.0741 15.9901
884 2 11.8413 87.1224 15.8413
885 2 15.9206 87.0865 15.9554
886 2 19.9721 87.0191 15.8998
887 2 23.9128 86.951 15.9152
888 2 27.7988 86.85 0.0886804
889 2 31.6426 86.9999 15.9838
890 2 35.5778 86.7603 0.145609
891 2 39.3193 86.8444 15.8381
892 2 43.3681 86.7383 15.7259
893 2 47.3923 86.8949 15.8862
894 2 51.4239 86.6473 15.9324
895 2 55.1283 86.762 16.003
896 2 59.2359 86.4597 0.156982
897 2 63.1223 86.4592 0.266175
898 2 67.0963 86.4272 15.8973
899 2 70.9533 86.4234 -0.0406273
900 2 74.7137 86.4324 15.829
901 2 78.9319 86.5465 0.372295
902 2 82.8383 86.5639 0.164742
903 2 86.9136 86.5322 16.0146
904 2 90.9736 86.4538 15.9416
905 2 94.7831 86.5619 15.8866
906 2 99.0057 86.6258 15.9857
907 2 102.795 86.8314 0.223383
908 2 106.837 86.717 0.0860459
909 2 111.102 86.7858 15.9395
910 2 114.945 86.7759 0.182726
911 2 118.902 86.7502 0.187532
912 2 122.854 86.7451 0.208758
913 2 126.962 86.9076 15.7661
914 2 130.924 86.8117 16.0155
915 2 134.912 87.1234 15.6831
916 2 139.06 87.2292 15.9981
917 2 142.91 87.1769 15.8078
918 2 146.972 87.1624 0.176385
919 2 150.912 87.1485 16.0291
920 2 154.869 87.2663 16.0464
921 2 0.506725 91.387 0.276062
922 2 4.40191 91.2119 0.153529
923 2 8.1088 91.2169 15.9592
924 2 11.9652 91.1311 15.9714
925 2 15.9959 90.9319 0.258074
926 2 19.961 90.8384 0.0928206
927 2 23.8342 90.9974 15.725
928 2 27.7214 90.8514 15.8682
929 2 31.7186 90.9049 15.9163
930 2 35.526 90.7109 0.387933
931 2 39.4617 90.7768 16.0135
932 2 43.3933 90.7019 15.9142
933 2 47.2 90.7601 0.243239
934 2 51.3985 90.974 0.0597449
935 2 55.1049 90.6478 0.245317
936 2 59.1408 90.6245 0.365819
937 2 63.1126 90.4751 0.233169
938 2 66.9179 90.3668 16.0352
939 2 70.9769 90.3522 15.6907
940 2 74.8597 90.267 0.0274436
941 2 78.8407 90.4104 0.154949
942 2 82.7512 90.4426 0.170189
943 2 86.6642 90.4169 0.25536
944 2 90.6262 90.2474 0.194561
945 2 94.9661 90.5761 16.06
946 2 98.6398 90.422 15.9719
947 2 102.841 90.4357 0.30196
948 2 106.712 90.5694 15.8381
949 2 110.634 90.5894 16.0462
950 2 114.782 90.5769 0.209189
951 2 118.879 90.682 0.281804
952 2 122.999 90.8198 16.0372
953 2 126.862 90.7011 0.207965
954 2 130.786 90.8827 -0.0481586
955 2 134.875 90.9176 15.886
956 2 138.589 91.2035 15.9772
957 2 142.829 91.0508 15.8191
958 2 146.987 91.057 15.8166
959 2 150.76 90.9936 15.852
960 2 154.833 91.2377 16.0244
961 2 0.413753 95.2126 0.10151
962 2 4.50656 95.2656 15.9867
963 2 8.21047 95.0115 16.0896
964 2 12.1495 95.216 16.061
965 2 16.1008 95.1691 15.9162
966 2 19.983 95.2215 15.7873
967 2 23.9505 95.0126 15.8713
968 2 27.8319 94.8836 15.8142
969 2 31.7696 94.837 15.9287
970 2 35.6857 94.8514 15.7563
971 2 39.5347 94.7657 15.8124
972 2 43.4948 94.836 15.779
973 2 47.4285 94.6123 0.345027
974 2 51.3416 94.598 15.8491
975 2 55.2613 94.6239 0.195553
976 2 59.1648 94.4381 15.8517
977 2 63.1948 94.3943 0.164137
978 2 66.8966 94.339 0.202175
979 2 70.9093 94.467 0.0717894
980 2 74.8042 94.5205 0.103335
981 2 78.7621 94.099 15.8067
982 2 82.7622 94.4144 0.198921