ITEM: TIMESTEP
23100
ITEM: NUMBER OF ATOMS
32000
ITEM: BOX BOUNDS xy xz yz pp pp pp
0.0000000000000000e+00 1.5831999999999999e+02 0.0000000000000000e+00
0.0000000000000000e+00 1.5831999999999999e+02 0.0000000000000000e+00
1.6168012427802569e-01 1.5936031875721813e+01 0.0000000000000000e+00
ITEM: ATOMS id type x y z
1 2 157.885 157.866 15.6654
2 2 3.71304 157.887 16.1003
3 2 7.83438 157.999 0.188472
4 2 11.7462 158.046 0.212149
5 2 15.7567 157.93 0.142246
6 2 19.7644 158.028 16.0099
7 2 23.6391 158.256 16.1311
8 2 27.9655 158.206 15.9954
9 2 31.7967 158.058 0.164367
10 2 35.9282 158.352 15.8436
11 2 39.864 0.0468266 15.9224
12 2 43.9504 -0.0889233 0.262221
13 2 47.8727 0.150438 15.9817
14 2 51.8128 -0.0284017 0.175885
15 2 55.8304 158.321 0.404138
16 2 59.8718 158.443 15.8464
17 2 63.825 0.014749 16.0491
18 2 67.7467 0.362925 15.9995
19 2 71.7167 0.0533454 16.0367
20 2 75.762 158.367 16.0341
21 2 79.5225 0.142104 15.9809
22 2 83.3005 158.392 16.1016
23 2 87.3738 158.266 16.0414
24 2 91.3041 158.22 -0.000811264
25 2 94.9175 158.17 15.7927
26 2 98.9869 158.111 15.799
27 2 102.905 157.935 15.9796
28 2 106.824 158.019 16.08
29 2 110.758 157.908 -0.0322214
30 2 114.587 157.821 0.375173
31 2 118.731 157.747 15.8516
32 2 122.543 157.682 0.210254
33 2 126.46 157.744 0.237794
34 2 130.275 157.916 -0.114607
35 2 134.286 157.63 15.8799
36 2 138.07 157.688 15.7394
37 2 142.061 157.51 15.9509
38 2 145.928 157.471 16.0609
39 2 150.035 157.642 -0.00929591
40 2 154.042 157.589 0.378937
41 2 157.824 3.46881 16.234
42 2 3.7596 3.40564 16.0403
43 2 7.80658 3.58628 0.00139523
44 2 11.8014 3.73838 15.983
45 2 15.5624 3.60594 16.108
46 2 19.9194 3.66107 15.9881
47 2 23.6992 3.62754 0.302499
48 2 27.8113 3.76681 0.333958
49 2 31.6846 3.77065 0.0288822
50 2 35.7337 3.75624 0.0718493
51 2 39.822 3.92573 0.048867
52 2 43.8755 3.87524 15.7656
53 2 47.722 3.76659 15.8113
54 2 51.8032 3.92296 15.9073
55 2 55.7565 3.82632 0.17544
56 2 59.678 4.0278 15.871
57 2 63.8238 4.0323 15.9104
58 2 67.6558 4.14449 15.8393
59 2 71.748 4.08884 15.904
60 2 75.5634 4.01763 15.8121
61 2 79.3651 3.95677 15.996
62 2 83.2814 3.88787 16.0234
63 2 87.5135 3.94973 16.0326
64 2 91.3227 3.97234 0.0574742
65 2 95.053 3.87384 15.8672
66 2 99.0981 3.79827 0.0922688
67 2 103.17 3.55344 15.9826
68 2 106.856 3.57997 15.593
69 2 110.857 3.76008 0.0570267
70 2 114.816 3.69363 0.176914
71 2 118.443 3.46305 0.131345
72 2 122.291 3.25613 0.193532
73 2 126.415 3.40687 0.232801
74 2 130.357 3.43148 0.111246
75 2 134.322 3.43914 15.8303
76 2 138.308 3.29344 0.0691602
77 2 141.96 3.33507 -0.0232989
78 2 145.958 3.08919 0.208683
79 2 149.797 3.12062 15.9206
80 2 154.029 3.40254 16.0894
81 2 157.758 7.16925 15.9806
82 2 3.42486 7.20424 15.8719
83 2 7.61877 7.27931 15.9014
84 2 11.5867 7.68815 0.216205
85 2 15.7614 7.47304 15.8368
86 2 19.5353 7.47596 15.9574
87 2 23.8168 7.50592 0.0257002
88 2 27.8314 7.6997 16.0365
89 2 31.6967 7.81277 15.8406
90 2 35.801 7.67426 15.8548
91 2 39.603 7.64272 0.209212
92 2 43.7259 7.70832 0.146233
93 2 47.6157 7.76256 15.9801
94 2 51.8046 7.84448 0.0688228
95 2 55.7929 7.95344 16.1486
96 2 59.7097 7.9454 -0.0415584
97 2 63.7671 8.18071 15.7505
98 2 67.7158 7.98825 15.7639
99 2 71.658 8.02336 15.947
100 2 75.6534 8.12199 15.9349
101 2 79.5664 7.98047 -0.0491337
102 2 83.574 8.01958 15.8841
103 2 87.4265 7.98854 15.9103
104 2 91.2423 7.75743 15.9248
105 2 95.2939 7.92192 15.9989
106 2 99.0899 7.69767 0.190701
107 2 102.989 7.69912 0.189859
108 2 106.862 7.58521 15.9484
109 2 110.896 7.53201 0.218994
110 2 114.641 7.61089 15.9829
111 2 118.766 7.47844 16.0375
112 2 122.578 7.36045 15.9381
113 2 126.462 7.43654 15.9483
114 2 130.308 7.32414 0.0873478
115 2 134.218 7.33024 -0.0383739
116 2 138.172 7.36926 15.9701
117 2 142.043 7.09975 15.7602
118 2 145.895 7.14287 0.305325
119 2 149.948 7.15578 0.120366
120 2 153.788 7.5131 15.9666
121 2 157.675 11.2315 15.8721
122 2 3.49406 11.2984 15.9759
123 2 7.45378 11.1485 15.8967
124 2 11.5178 11.4255 0.103517
125 2 15.8583 11.4824 15.9289
126 2 19.8171 11.2843 15.8738
127 2 23.5859 11.3384 15.8495
128 2 27.7008 11.6241 16.0223
129 2 31.8429 11.7178 15.6656
130 2 35.4918 11.6422 15.9058
131 2 39.7269 11.7619 15.9131
132 2 43.7192 11.6167 0.0255969
133 2 47.7926 11.7321 0.0294108
134 2 51.5177 11.8568 15.801
135 2 55.3732 11.7847 0.273025
136 2 59.6754 12.0486 15.7452
137 2 63.6006 11.9349 0.0807712
138 2 67.6358 11.9656 15.8801
139 2 71.5739 11.8222 15.939
140 2 75.563 11.8638 15.8897
141 2 79.4449 12.1339 15.6903
142 2 83.5196 11.8413 15.8544
143 2 87.3288 12.0263 0.0898752
144 2 91.2324 11.7113 0.0852972
145 2 95.159 11.7179 15.8607
146 2 99.1428 11.5692 15.9247
147 2 102.971 11.71 0.295806
148 2 106.892 11.5941 15.8721
149 2 110.858 11.5846 0.13561
150 2 114.779 11.4721 15.8371
151 2 118.702 11.5431 0.198968
152 2 122.531 11.6058 -0.0179747
153 2 126.461 11.4844 15.9296
154 2 130.431 11.2074 15.8727
155 2 134.151 11.3282 0.232815
156 2 138.024 11.2843 0.191095
157 2 142.145 11.2688 0.0157852
158 2 146.149 11.1028 0.122251
159 2 150.027 11.2486 0.185672
160 2 154.068 11.2072 0.227602
161 2 157.971 15.1204 15.9206
162 2 3.60557 15.031 15.8032
163 2 7.51765 15.1305 15.8532
164 2 11.6022 15.1489 15.9445
165 2 15.5913 15.4863 15.9353
166 2 19.6738 15.1427 0.108196
167 2 23.7848 15.4008 0.179977
168 2 27.6708 15.3558 16.0454
169 2 31.5198 15.5576 -0.154629
170 2 35.7465 15.6481 15.7076
171 2 39.6101 15.5571 -0.102318
172 2 43.6801 15.4958 0.0763741
173 2 47.666 15.6823 0.0327111
174 2 51.7352 15.848 0.0694598
175 2 55.5741 15.805 16.1941
176 2 59.6609 15.8256 0.0925448
177 2 63.6418 15.9578 15.789
178 2 67.6268 15.7303 16.085
179 2 71.5859 15.7985 0.21501
180 2 75.663 16.019 0.168712
181 2 79.5579 15.9568 15.8091
182 2 83.4287 15.8683 -0.0513724
183 2 87.3723 16.1691 15.8491
184 2 91.3716 15.8337 0.168486
185 2 95.1203 15.7208 15.8528
186 2 99.0328 15.7465 16.2085
187 2 102.934 15.7085 15.6632
188 2 106.942 15.5783 15.9302
189 2 110.871 15.392 16.0111
190 2 114.797 15.6073 15.8626
191 2 118.75 15.5461 0.17835
192 2 122.586 15.498 15.8432
193 2 126.42 15.5376 15.9933
194 2 130.564 15.3629 0.201408
195 2 134.436 15.267 0.180281
196 2 138.172 15.33 0.150003
197 2 142.239 15.1918 15.8344
198 2 146.059 15.1768 0.187322
199 2 149.966 15.1057 0.125749
200 2 153.848 15.0775 15.8918
201 2 157.847 19.1331 15.9287
202 2 3.68529 19.064 0.0327765
203 2 7.39574 18.9997 0.109721
204 2 11.4125 19.0472 15.6516
205 2 15.3659 19.1515 15.6797
206 2 19.62 19.2962 15.9823
207 2 23.4634 19.2225 15.9326
208 2 27.4629 19.4163 16.0729
209 2 31.5322 19.4303 15.8509
210 2 35.4065 19.4921 15.8989
211 2 39.5086 19.5548 0.213833
212 2 43.5112 19.5403 16.104
213 2 47.5163 19.5707 16.0414
214 2 51.4903 19.7162 0.222276
215 2 55.326 19.6183 16.1123
216 2 59.7172 19.6445 15.949
217 2 63.393 19.591 15.7774
218 2 67.4839 19.6201 15.8917
219 2 71.4416 19.6206 0.359482
220 2 75.5598 19.9043 0.448965
221 2 79.6248 19.9061 0.268981
222 2 83.605 19.9009 15.9332
223 2 87.5413 19.9673 0.0790291
224 2 91.2947 20.0088 0.0915403
225 2 95.3563 19.8415 15.629
226 2 99.2104 19.6488 15.7272
227 2 103.13 19.6041 15.8767
228 2 107.046 19.6631 15.69
229 2 110.864 19.6303 -0.00759318
230 2 114.783 19.7508 15.8356
231 2 118.826 19.6369 16.17
232 2 122.645 19.4205 15.9273
233 2 126.553 19.3787 15.8708
234 2 130.478 19.4749 15.7894
235 2 134.43 19.1757 0.118389
236 2 138.298 19.2811 16.0121
237 2 142.234 19.2919 16.0362
238 2 146.235 19.2002 0.252426
239 2 149.987 19.2707 15.6724
240 2 153.878 19.1096 0.173566
241 2 158.038 23.2797 16.05
242 2 3.63169 23.1526 15.9821
243 2 7.50046 23.1397 0.216178
244 2 11.1999 22.7748 0.288007
245 2 15.3809 22.9815 16.0194
246 2 19.292 23.0594 15.9454
247 2 23.3296 23.1577 15.9997
248 2 27.3439 23.3914 15.954
249 2 31.4114 23.3555 0.386827
250 2 35.3778 23.3784 15.9516
251 2 39.4307 23.4899 0.203284
252 2 43.4548 23.3761 16.0531
253 2 47.6241 23.6206 0.267435
254 2 51.6289 23.5133 -0.0121397
255 2 55.6049 23.466 0.0604274
256 2 59.5143 23.5195 15.9296
257 2 63.4412 23.5081 0.185395
258 2 67.5279 23.7515 15.9558
259 2 71.4741 23.5369 15.8486
260 2 75.5384 23.9294 0.0993922
261 2 79.3408 23.9624 16.0385
262 2 83.2692 23.729 0.276255
263 2 87.4565 23.8392 16.1163
264 2 91.3332 23.8618 16.1963
265 2 95.2161 23.7677 16.0494
266 2 99.1557 23.6727 0.200333
267 2 103.18 23.6943 15.854
268 2 106.877 23.6753 15.8085
269 2 110.984 23.6158 0.131631
270 2 114.849 23.7286 16.0342
271 2 118.705 23.4937 15.9118
272 2 122.782 23.51 0.162181
273 2 126.761 23.4447 15.7942
274 2 130.676 23.3872 15.9395
275 2 134.383 23.346 15.8933
276 2 138.322 23.3679 16.0672
277 2 142.277 23.3092 15.8987
278 2 146.325 23.3483 -0.0768768
279 2 149.921 23.3061 -0.0045363
280 2 153.982 22.9821 -0.00551753
281 2 157.881 27.1232 -0.0273154
282 2 3.71532 27.1099 0.236333
283 2 7.39872 26.9932 0.216297
284 2 11.4794 26.8889 15.923
285 2 15.2049 26.9147 15.9314
286 2 19.2421 27.2688 0.301875
287 2 23.3102 27.2647 16.0365
288 2 27.3613 27.3685 15.9447
289 2 31.3195 27.3874 0.27259
290 2 35.4497 27.3919 0.330889
291 2 39.1614 27.3348 0.295631
292 2 43.3377 27.3521 0.223046
293 2 47.3326 27.4719 0.395101
294 2 51.3818 27.3561 16.0986
295 2 55.4379 27.5384 0.267079
296 2 59.4436 27.4403 16.0169
297 2 63.4624 27.5198 15.9989
298 2 67.3256 27.4245 15.8292
299 2 71.4215 27.6451 16.0936
300 2 75.399 27.8317 0.194041
301 2 79.5207 27.747 0.180209
302 2 83.4626 27.6427 15.9784
303 2 87.5041 27.68 0.170426
304 2 91.2068 27.786 0.462719
305 2 95.1829 27.8036 0.119473
306 2 99.4299 27.7176 0.155073
307 2 103.244 27.7026 16.0091
308 2 106.994 27.6166 0.117218
309 2 110.757 27.5477 15.8819
310 2 114.822 27.7217 15.655
311 2 118.872 27.543 0.1724
312 2 122.638 27.5432 0.18184
313 2 126.699 27.3528 15.7881
314 2 130.616 27.2857 15.7753
315 2 134.568 27.3267 16.0126
316 2 138.451 27.3983 15.9062
317 2 142.41 27.1822 0.255352
318 2 146.239 27.1844 0.156928
319 2 150.057 27.4165 0.133022
320 2 154.204 27.235 0.162902
321 2 158.149 31.0822 15.8682
322 2 3.58762 31.1231 15.842
323 2 7.57678 31.0337 16.1847
324 2 11.2725 31.0113 0.201498
325 2 15.1421 31.2058 0.175212
326 2 19.1745 31.0476 16.0644
327 2 23.3704 31.178 16.0946
328 2 27.2904 31.0275 0.298425
329 2 31.3196 31.2497 16.1761
330 2 35.2291 31.3398 16.0262
331 2 39.3305 31.3872 15.9208
332 2 43.26 31.2913 0.00846231
333 2 47.4861 31.2761 15.9031
334 2 51.2711 31.3367 0.420546
335 2 55.4374 31.3565 16.0062
336 2 59.31 31.4479 0.356438
337 2 63.464 31.475 16.0256
338 2 67.3119 31.5119 0.345094
339 2 71.326 31.6408 0.0774794
340 2 75.2478 31.6542 0.200531
341 2 79.2795 31.7183 16.1112
342 2 83.4487 31.5314 0.217945
343 2 87.4482 31.7545 16.03
344 2 91.4284 31.7906 15.963
345 2 95.2631 31.7108 15.9766
346 2 99.4188 31.8945 -0.0135325
347 2 103.21 31.8684 15.7921
348 2 107.342 31.8475 15.9698
349 2 111.023 31.627 15.8918
350 2 114.72 31.6141 15.7198
351 2 118.713 31.618 15.8357
352 2 122.763 31.4546 15.8005
353 2 126.657 31.3358 15.942
354 2 130.437 31.4218 15.8279
355 2 134.546 31.3191 15.841
356 2 138.629 31.4094 15.9257
357 2 142.448 31.3429 0.198381
358 2 146.302 31.226 15.8356
359 2 150.274 31.1956 0.167763
360 2 154.147 31.1261 0.110689
361 2 -0.230741 35.0902 -0.0291563
362 2 3.61122 35.1805 15.9825
363 2 7.69984 35.083 16.1329
364 2 11.5664 34.8755 15.9413
365 2 15.1568 35.0195 0.120215
366 2 19.2996 35.0158 0.110356
367 2 23.3124 34.8841 0.0432144
368 2 27.3501 35.1136 0.2335
369 2 31.2787 35.0743 0.320296
370 2 35.2856 35.066 0.104834
371 2 39.3258 35.0966 0.0583644
372 2 43.1555 35.001 15.9187
373 2 47.1438 35.1072 16.0062
374 2 51.378 35.1599 15.8999
375 2 55.4399 35.2757 0.293743
376 2 59.3286 35.2213 0.0949118
377 2 63.3703 35.5002 16.0102
378 2 67.3173 35.4416 0.24295
379 2 71.148 35.6514 0.232051
380 2 75.192 35.3949 15.9202
381 2 79.3418 35.5484 0.271137
382 2 83.1529 35.5536 15.8535
383 2 87.2918 35.7846 0.147286
384 2 91.3383 35.7644 0.216545
385 2 95.3362 35.6165 16.1881
386 2 99.3026 35.8499 0.143789
387 2 103.351 35.6296 15.7507
388 2 107.063 35.808 16.0504
389 2 111.017 35.6499 15.8524
390 2 114.883 35.5964 15.7564
391 2 118.898 35.7192 15.9004
392 2 122.772 35.4092 15.9511
393 2 126.627 35.2347 16.0113
394 2 130.601 35.5966 16.1005
395 2 134.456 35.4798 15.8417
396 2 138.488 35.15 0.286147
397 2 142.288 35.1819 0.153001
398 2 146.517 35.3345 0.146206
399 2 150.347 35.0702 15.8347
400 2 154.117 34.9507 0.260321
401 2 158.157 39.1477 0.213518
402 2 3.61297 39.2161 -0.0116246
403 2 7.54078 38.9504 0.222685
404 2 11.5664 38.9574 15.8664
405 2 15.4642 39.0249 0.0978097
406 2 19.3483 38.8579 15.7072
407 2 23.225 38.8963 16.0714
408 2 27.1001 38.927 15.8863
409 2 31.1926 39.0539 0.29152
410 2 34.9941 38.9972 0.343883
411 2 39.3218 39.0769 16.0466
412 2 43.4028 39.1216 0.122998
413 2 47.1833 39.0603 0.169371
414 2 51.3133 39.2075 15.9563
415 2 55.3062 39.223 0.214114
416 2 59.0737 39.4556 0.0355235
417 2 63.2779 39.276 0.0885996
418 2 67.268 39.4241 0.0879603
419 2 71.3544 39.3423 0.199946
420 2 75.3324 39.6217 0.120378
421 2 79.2662 39.3325 0.114838
422 2 83.1826 39.4945 16.1745
423 2 87.3524 39.5139 15.9616
424 2 91.2417 39.8064 16.0099
425 2 95.3947 39.7726 16.1884
426 2 99.4962 39.544 0.281397
427 2 103.302 39.8681 15.8924
428 2 107.242 39.6409 15.7755
429 2 111.173 39.6052 16.0087
430 2 115.071 39.4736 15.9129
431 2 119.107 39.7175 16.0763
432 2 122.964 39.5154 15.9382
433 2 126.778 39.3793 0.0275741
434 2 130.675 39.3728 15.7744
435 2 134.623 39.2663 16.0566
436 2 138.324 39.3812 16.0687
437 2 142.27 39.2023 15.9684
438 2 146.315 39.443 0.378661
439 2 150.217 39.4215 15.8202
440 2 154.12 39.2834 15.9056
441 2 158.144 43.1398 0.0660277
442 2 3.62762 43.0031 15.9306
443 2 7.41931 43.0264 15.9119
444 2 11.5198 43.0312 0.237302
445 2 15.5192 43.0522 0.38318
446 2 19.5004 42.9309 -0.0336797
447 2 23.2932 42.946 15.8544
448 2 27.2604 42.8351 15.7981
449 2 31.2698 42.6667 0.0686396
450 2 35.2785 42.9263 0.294057
451 2 38.9754 43.0667 0.252873
452 2 43.1283 43.1201 0.361091
453 2 46.9955 43.0127 16.0503
454 2 51.0549 42.9981 16.0142
455 2 55.1899 43.3332 0.269765
456 2 59.2829 43.2182 15.9347
457 2 63.4502 43.3634 0.147032
458 2 67.2821 43.349 0.245907
459 2 71.0274 43.424 0.219293
460 2 75.297 43.2835 0.232393
461 2 79.2094 43.5224 0.0265468
462 2 83.2358 43.481 15.9882
463 2 87.2818 43.438 15.9713
464 2 91.1825 43.7344 0.299539
465 2 95.3399 43.4898 0.308188
466 2 99.3369 43.6178 15.7669
467 2 103.153 43.5033 15.9861
468 2 107.42 43.6241 15.8999
469 2 111.243 43.7401 15.897
470 2 115.26 43.6214 16.0343
471 2 118.991 43.4583 15.9757
472 2 122.898 43.6168 15.7347
473 2 126.682 43.4497 0.20286
474 2 130.634 43.3653 0.0191463
475 2 134.755 43.3842 15.8682
476 2 138.559 43.2751 16.0118
477 2 142.748 43.4006 16.0048
478 2 146.459 43.2402 0.118093
479 2 150.281 43.1908 0.235606
480 2 154.18 43.1533 0.187216
481 2 -0.114045 47.1118 0.147646
482 2 3.6414 47.0314 0.212284
483 2 7.62925 46.965 -0.000654676
484 2 11.5038 46.9647 0.252035
485 2 15.5112 46.9849 0.0649867
486 2 19.4174 47 -0.0435138
487 2 23.3969 46.8605 0.0298273
488 2 27.2024 46.6361 15.8879
489 2 31.1223 46.7583 0.117646
490 2 34.9831 46.9416 0.113561
491 2 39.1103 46.8476 15.902
492 2 42.9647 46.8432 15.9406
493 2 47.012 47.0055 0.037771
494 2 51.1589 46.8293 15.8669
495 2 55.1826 47.0826 15.9517
496 2 59.161 46.9662 15.7913
497 2 63.1144 47.102 0.380412
498 2 67.1124 47.2146 0.325274
499 2 71.198 47.2534 15.9861
500 2 75.2292 47.2031 0.42408
501 2 79.3318 47.2141 16.0304
502 2 83.2552 47.3618 16.0538
503 2 87.1842 47.3074 0.0647058
504 2 91.1399 47.3404 0.370546
505 2 95.0682 47.3466 0.272526
506 2 99.2447 47.4922 0.263994
507 2 103.261 47.4338 0.158411
508 2 107.2 47.6202 15.9853
509 2 111.159 47.5403 15.9712
510 2 115.18 47.6358 0.211509
511 2 119.129 47.3206 15.9368
512 2 122.917 47.6105 15.9201
513 2 126.708 47.4327 15.8336
514 2 130.873 47.5354 15.8506
515 2 134.803 47.4164 16.0458
516 2 138.543 47.3602 15.9353
517 2 142.445 47.3799 15.992
518 2 146.379 47.2576 0.214939
519 2 150.414 46.928 0.0351084
520 2 154.411 46.947 15.9496
521 2 158.216 51.1547 0.0405227
522 2 3.89303 51.1157 16.0407
523 2 8.00474 51.1353 15.8241
524 2 11.8654 51.1878 15.8542
525 2 15.6057 50.9998 0.161784
526 2 19.6344 50.9059 15.8179
527 2 23.4667 50.8433 15.8362
528 2 27.4201 50.8441 16.0503
529 2 31.0818 50.8877 0.154141
530 2 35.0221 50.8854 0.0910701
531 2 39.0959 50.9464 15.8395
532 2 43.2402 50.764 15.8465
533 2 46.9861 50.8089 0.090806
534 2 51.1208 50.8122 0.11858
535 2 54.9776 50.9937 0.0841629
536 2 59.0729 50.9475 15.9484
537 2 63.1499 51.0933 15.9544
538 2 67.1957 51.3492 0.182535
539 2 70.9615 51.0853 0.147504
540 2 75.2542 51.1268 0.275489
541 2 79.1408 51.2738 0.335926
542 2 83.1357 51.2291 0.227063
543 2 87.2219 51.4862 0.0638519
544 2 91.2138 51.3702 0.131422
545 2 95.294 51.4647 0.254047
546 2 99.1577 51.4777 0.30665
547 2 103.2 51.3507 16.0245
548 2 107.338 51.3609 0.124851
549 2 111.131 51.5538 0.113875
550 2 115.322 51.6502 15.8568
551 2 119.205 51.4551 15.949
552 2 123.047 51.6992 16.0018
553 2 127.055 51.5078 15.8957
554 2 130.975 51.4082 0.228508
555 2 134.815 51.5319 0.0401705
556 2 138.594 51.5822 0.0751583
557 2 142.69 51.3154 0.189525
558 2 146.482 51.2396 15.9996
559 2 150.442 51.0885 0.0259938
560 2 154.43 50.9695 0.280337
561 2 158.498 55.2592 0.165049
562 2 4.03535 55.2275 0.0550839
563 2 8.01167 55.0593 -0.113647
564 2 11.7185 55.0861 0.203059
565 2 15.7902 54.925 0.00853843
566 2 19.5285 54.9053 15.8545
567 2 23.6318 55.0898 15.9989
568 2 27.3404 54.8568 15.9166
569 2 31.3383 54.8539 0.287926
570 2 35.1996 54.8153 0.0983813
571 2 39.1821 54.6145 15.9925
572 2 43.2567 54.7545 15.9203
573 2 47.0311 54.6383 0.0339568
574 2 50.993 54.684 15.9192
575 2 55.0704 54.9054 15.8399
576 2 58.8937 54.9318 16.1521
577 2 63.1319 54.9296 15.9828
578 2 67.0317 55.0071 0.139337
579 2 71.1284 55.182 0.156967
580 2 75.1084 54.8664 15.9112
581 2 79.149 55.1605 0.136735
582 2 83.2484 55.1416 0.307906
583 2 86.9618 55.4141 0.0181434
584 2 91.1122 55.2469 16.1696
585 2 95.0965 55.4521 0.318388
586 2 99.3141 55.2146 15.833
587 2 103.25 55.3439 15.7724
588 2 107.223 55.2135 -0.0586544
589 2 111.142 55.4927 15.728
590 2 115.086 55.4371 15.7631
591 2 119.184 55.6469 15.9955
592 2 123.267 55.7626 0.24443
593 2 126.978 55.7375 15.9359
594 2 131.055 55.4072 15.9653
595 2 135.029 55.5364 0.0764318
596 2 138.718 55.3195 15.7684
597 2 142.764 55.4227 0.103911
598 2 146.705 55.2373 0.110112
599 2 150.551 55.2836 -0.0215118
600 2 154.382 55.282 15.8895
601 2 158.48 59.2141 0.0447267
602 2 3.95084 59.1964 15.9382
603 2 7.85453 59.2357 16.0848
604 2 12 59.0852 0.29622
605 2 15.8679 59.1518 15.8657
606 2 19.6691 59.0451 0.0975143
607 2 23.581 59.0187 0.0497967
608 2 27.407 58.7387 0.0877455
609 2 31.3583 58.7047 15.9365
610 2 35.2616 58.8062 16.0477
611 2 39.1175 58.6051 16.0271
612 2 43.0878 58.6548 15.8778
613 2 47.1407 58.6975 15.8873
614 2 51.0018 58.7272 16.0289
615 2 54.7357 58.5803 15.9901
616 2 58.9365 58.7358 0.170063
617 2 63.1039 58.7877 16.0078
618 2 67.0725 58.8275 0.253058
619 2 71.1622 58.8076 15.8918
620 2 74.9693 58.7276 0.0884743
621 2 79.0657 58.9591 0.151514
622 2 82.8821 59.0864 0.31165
623 2 87.0298 59.2555 15.9878
624 2 91.0435 59.0339 15.8385
625 2 95.0327 59.1879 0.115652
626 2 99.1783 59.2684 0.0915924
627 2 103.033 59.2005 15.8542
628 2 107.27 59.3047 -0.0950679
629 2 111.207 59.3156 15.94
630 2 115.22 59.2832 15.8276
631 2 119.162 59.3425 15.8912
632 2 123.17 59.5844 0.0785157
633 2 127.086 59.5903 15.9955
634 2 131.039 59.4211 0.00544004
635 2 134.91 59.4045 15.9386
636 2 138.824 59.5348 0.149149
637 2 142.808 59.2812 0.215542
638 2 146.525 59.3325 0.166206
639 2 150.482 59.2495 15.8273
640 2 154.462 59.3089 0.114625
641 2 0.30366 63.23 0.256235
642 2 4.07869 63.0467 0.273081
643 2 8.0644 63.3051 16.0167
644 2 12.1201 63.0219 15.8262
645 2 15.9409 63.0165 15.9129
646 2 19.5255 62.906 -0.00205531
647 2 23.7342 62.8695 0.124524
648 2 27.573 62.902 0.115878
649 2 31.437 62.8274 0.236427
650 2 35.3865 62.7877 0.130544
651 2 39.1854 62.7075 16.1089
652 2 43.3495 62.6807 0.148845
653 2 47.0384 62.5001 15.8153
654 2 51.0034 62.6604 16.0239
655 2 54.9456 62.8399 0.184687
656 2 58.9049 62.6505 15.7962
657 2 62.8652 62.6827 0.220099
658 2 66.8444 62.7362 16.0322
659 2 71.1583 62.9069 0.210674
660 2 74.9295 63.0086 0.332764
661 2 79.0936 63.0461 0.257679
662 2 82.9731 62.988 0.196729
663 2 87.0589 62.9553 15.8624
664 2 90.8972 63.0965 15.933
665 2 95.1156 63.0471 0.0860391
666 2 98.9764 63.0673 0.2946
667 2 103.035 63.0645 15.8609
668 2 107.032 63.2526 15.9292
669 2 111.263 63.4465 15.9205
670 2 115.172 63.2872 0.254778
671 2 119.055 63.3313 16.1113
672 2 123.144 63.5256 0.206954
673 2 127.187 63.5816 15.9687
674 2 131.072 63.3831 0.371688
675 2 134.834 63.4082 16.0594
676 2 138.994 63.495 15.62
677 2 142.903 63.2118 16.1653
678 2 146.71 63.1943 0.208636
679 2 150.683 63.0483 15.77
680 2 154.564 63.1908 0.0606963
681 2 0.429245 67.2933 0.231479
682 2 4.11989 67.2322 0.126635
683 2 8.1119 67.1607 16.028
684 2 12.017 67.2745 16.0285
685 2 16.0157 66.9241 0.232145
686 2 19.7448 66.8701 0.159576
687 2 23.5675 66.7484 0.111187
688 2 27.4958 66.9424 0.0930086
689 2 31.4617 66.8592 0.0434154
690 2 35.2608 66.6779 0.139828
691 2 39.1967 66.5909 15.8551
692 2 43.259 66.7731 0.144753
693 2 46.7894 66.4276 15.8448
694 2 51.0356 66.5828 15.9488
695 2 54.9717 66.6505 15.9532
696 2 58.9743 66.8343 16.0488
697 2 63.2122 66.7193 15.9613
698 2 66.9834 66.6713 16.1409
699 2 71.104 66.7685 0.182443
700 2 74.9339 66.7907 16.0558
701 2 79.091 66.7947 16.0398
702 2 82.8127 66.9664 0.20617
703 2 86.7707 66.8644 15.7733
704 2 91.0695 66.9946 15.7641
705 2 95.0153 67.0533 0.31443
706 2 99.0657 67.1796 0.172778
707 2 102.835 67.0265 0.204342
708 2 106.999 67.174 15.7554
709 2 110.969 67.2164 15.8699
710 2 115.032 67.4007 16.0147
711 2 119.118 67.2479 0.0696013
712 2 123.169 67.406 0.184192
713 2 127.072 67.2622 0.103342
714 2 131.082 67.4846 16.0923
715 2 135.065 67.4266 0.00261215
716 2 139.024 67.3538 0.111042
717 2 143.098 67.3833 15.8922
718 2 146.958 67.1987 16.1333
719 2 150.801 67.4125 15.9426
720 2 154.78 67.2943 0.386088
721 2 0.406015 71.3628 0.0145735
722 2 4.30666 71.4033 16.0123
723 2 8.16125 71.313 0.313243
724 2 11.9888 71.146 15.9562
725 2 15.8818 71.0153 0.10491
726 2 19.7455 70.8691 0.24696
727 2 23.7749 71.0711 0.0510278
728 2 27.7083 71.038 15.9039
729 2 31.5736 70.6434 0.0933631
730 2 35.4053 70.6936 0.129141
731 2 39.3582 70.6656 16.0584
732 2 43.2378 70.5342 0.134249
733 2 47.0549 70.5945 16.0486
734 2 51.0355 70.5162 15.8804
735 2 54.9683 70.6229 0.144039
736 2 58.9835 70.5744 0.121781
737 2 62.8126 70.5087 -0.0257241
738 2 67.0543 70.6526 15.8823
739 2 70.8782 70.8106 16.1367
740 2 74.9013 70.7896 16.052
741 2 78.9259 70.8736 0.272832
742 2 82.8493 70.9908 0.0560285
743 2 86.8854 70.8245 15.9687
744 2 90.9835 70.871 15.9645
745 2 94.9917 70.887 15.9209
746 2 99.0653 70.9397 16.0328
747 2 103.089 70.8841 15.8833
748 2 106.804 71.1256 15.9302
749 2 111.119 71.0896 15.8747
750 2 115.177 71.0376 0.0291051
751 2 119.131 71.1135 15.8161
752 2 123.247 71.3184 0.208131
753 2 127.127 71.4132 15.9456
754 2 131.241 71.454 16.0692
755 2 135.171 71.2103 15.848
756 2 139.022 71.3995 15.8729
757 2 143.049 71.4167 -0.0657612
758 2 146.835 71.4031 0.160695
759 2 150.936 71.4986 0.258493
760 2 154.704 71.4269 16.0516
761 2 0.360808 75.1752 0.30827
762 2 4.40384 75.2175 16.0182
763 2 8.19263 75.1238 16.0286
764 2 12.162 75.1687 15.9749
765 2 15.9189 75.1141 15.8599
766 2 19.8861 75.0176 15.8287
767 2 23.9696 74.9851 15.9789
768 2 27.907 74.9646 15.864
769 2 31.6751 74.8949 -0.0207057
770 2 35.5409 74.6478 15.9118
771 2 39.3509 74.7545 15.7601
772 2 43.2282 74.5309 0.22467
773 2 47.1208 74.3005 15.8778
774 2 51.0154 74.6754 0.0498178
775 2 55.0022 74.5088 16.0338
776 2 59.0782 74.4636 16.0679
777 2 62.9715 74.4261 15.7329
778 2 66.9449 74.4597 0.319489
779 2 70.8997 74.6504 0.309104
780 2 74.9557 74.6068 0.263807
781 2 78.8732 74.7397 0.333355
782 2 82.777 74.6428 0.14158
783 2 86.9839 74.8761 0.209615
784 2 90.9869 74.9788 15.9784
785 2 94.9342 74.9059 16.0194
786 2 98.8778 74.9443 0.118075
787 2 102.841 74.8105 15.8946
788 2 107.095 74.9036 16.0908
789 2 111.105 74.9883 15.9238
790 2 115.183 74.9665 16.0883
791 2 119.17 75.0838 0.187701
792 2 123.12 75.241 16.0403
793 2 127.12 75.0961 15.8005
794 2 130.993 75.4434 0.158778
795 2 135.166 75.1088 16.0131
796 2 139.128 75.6135 16.1326
797 2 143.204 75.5952 15.921
798 2 147.069 75.4627 15.8311
799 2 150.955 75.3015 0.159687
800 2 154.87 75.4409 0.271909
801 2 0.246551 79.1709 0.142437
802 2 4.28168 79.3232 15.8687
803 2 8.20972 79.1 0.300638
804 2 12.1689 79.068 0.239096
805 2 15.9382 79.2004 15.81
806 2 19.8256 79.0414 15.9162
807 2 23.7164 78.8268 0.117585
808 2 27.7657 78.9165 0.205458
809 2 31.7124 78.7491 0.267874
810 2 35.696 78.6931 0.208722
811 2 39.6082 78.6761 15.8152
812 2 43.2515 78.5273 15.9875
813 2 47.3246 78.5645 15.9572
814 2 51.2889 78.5208 0.090312
815 2 55.1418 78.4577 0.0940617
816 2 59.0244 78.5095 15.9005
817 2 62.9217 78.572 16.053
818 2 66.721 78.5047 0.229737
819 2 70.8548 78.5777 16.0878
820 2 74.7678 78.4224 0.305344
821 2 78.7329 78.4634 15.9001
822 2 82.7142 78.4817 15.8097
823 2 86.8667 78.5625 0.235326
824 2 90.9721 78.7089 0.0566148
825 2 95.0225 78.8375 0.107689
826 2 99.0291 78.7736 15.9863
827 2 102.874 78.5801 16.0632
828 2 106.895 78.8851 0.126597
829 2 110.979 78.757 0.110516
830 2 114.91 78.7698 0.180149
831 2 119.005 78.9695 0.226593
832 2 123.04 79.1093 16.1203
833 2 127.006 79.1099 0.248746
834 2 131.153 79.2087 16.0619
835 2 135.243 79.1997 0.179986
836 2 139.1 79.352 15.9962
837 2 143.097 79.5913 16.034
838 2 147.057 79.406 15.9784
839 2 150.762 79.5553 15.9368
840 2 154.931 79.4382 -0.0277358
841 2 0.510374 83.1531 15.9287
842 2 4.53072 83.2138 15.9528
843 2 8.27807 83.1168 0.283655
844 2 12.2057 83.1964 15.7769
845 2 16.0423 83.2448 15.8252
846 2 20.1012 82.9341 0.226663
847 2 23.8196 82.9869 15.8141
848 2 27.676 82.8679 0.142242
849 2 31.753 82.8022 16.0923
850 2 35.6656 82.8833 0.049086
851 2 39.5551 82.7701 0.124899
852 2 43.3589 82.7377 15.8876
853 2 47.2478 82.6182 0.0936296
854 2 50.9917 82.5917 0.222027
855 2 54.8994 82.6133 0.0130981
856 2 58.9432 82.3914 15.8465
857 2 63.0147 82.7027 15.8635
858 2 67.1086 82.6524 15.9522
859 2 70.7812 82.3422 15.7681
860 2 74.7078 82.4328 15.8832
861 2 78.9017 82.4549 16.0877
862 2 82.6789 82.398 0.2111
863 2 86.9328 82.5648 0.193887
864 2 90.833 82.6448 15.8689
865 2 94.9431 82.6535 0.0903325
866 2 99.0414 82.5949 15.8965
867 2 102.867 82.6129 0.339493
868 2 107.016 82.7669 15.9932
869 2 111.042 82.8002 15.9893
870 2 114.912 82.9251 15.856
871 2 118.801 82.7811 15.8923
872 2 122.999 82.8677 15.903
873 2 126.976 83.0928 16.0069
874 2 131.017 83.0451 16.1455
875 2 135.078 83.1746 0.195017
876 2 139.019 83.197 16.0468
877 2 142.686 83.4801 0.265418
878 2 146.984 83.4447 15.9469
879 2 151.153 83.3181 0.226863
880 2 154.915 83.1858 0.458167
881 2 0.432881 87.2693 15.8007
882 2 4.29937 87.345 0.263156
883 2 8.30493 87.228 15.9619
884 2 12.1121 87.2034 16.0906
885 2 15.9703 87.035 16.1802
886 2 20.2427 86.9938 15.9604
887 2 23.8589 86.9532 15.7065
888 2 27.6476 86.9395 0.152054
889 2 31.8287 86.8807 15.8156
890 2 35.6812 86.7901 0.328591
891 2 39.4442 86.6189 15.9725
892 2 43.3193 86.8849 15.8771
893 2 47.6111 86.6785 15.9066
894 2 51.3299 86.6935 15.7599
895 2 55.3466 86.5526 15.6164
896 2 59.1368 86.6165 -0.0331216
897 2 62.957 86.3858 -0.0681225
898 2 67.0459 86.4192 15.9167
899 2 70.8062 86.399 0.0809446
900 2 74.8941 86.2922 15.8542
901 2 78.8034 86.4182 0.162519
902 2 82.7012 86.4694 0.077372
903 2 86.628 86.4881 15.8479
904 2 90.7201 86.4769 15.6321
905 2 94.7126 86.542 15.752
906 2 98.76 86.5932 15.9343
907 2 102.884 86.5504 0.136269
908 2 106.818 86.5752 0.145165
909 2 110.832 86.7858 15.8887
910 2 114.882 86.6672 0.185606
911 2 118.902 86.8914 0.205292
912 2 122.957 87.056 0.240876
913 2 126.798 86.8615 15.9721
914 2 130.736 86.8092 15.9118
915 2 134.978 86.9567 16.0657
916 2 138.918 87.27 16.0014
917 2 142.761 87.4253 16.1678
918 2 147.067 87.3101 0.139498
919 2 150.731 87.2491 15.7641
920 2 154.642 87.4709 15.8971
921 2 0.652003 91.2859 0.0312981
922 2 4.53821 91.367 0.145455
923 2 8.43228 91.3705 15.8035
924 2 12.2339 91.2072 15.9177
925 2 16.214 91.1879 0.142333
926 2 19.956 91.2883 -0.0184434
927 2 23.9741 90.9882 15.9162
928 2 28.0335 90.9245 15.8646
929 2 31.7738 90.7575 15.9654
930 2 35.7834 90.6983 0.326014
931 2 39.5545 90.721 15.9335
932 2 43.5544 90.6849 15.8044
933 2 47.4692 90.5809 0.0700825
934 2 51.3205 90.5402 0.3692
935 2 55.4257 90.5202 0.0535247
936 2 59.1988 90.5183 0.017595
937 2 63.1533 90.4678 0.173086
938 2 67.0854 90.323 15.9348
939 2 70.9058 90.3288 15.7479
940 2 74.831 90.2301 0.0479628
941 2 78.7472 90.4129 0.0884171
942 2 82.7192 90.584 0.0559686
943 2 86.6246 90.2614 0.196211
944 2 90.9106 90.2503 0.156544
945 2 94.7902 90.3733 15.9947
946 2 98.7866 90.4394 16.0918
947 2 102.782 90.4057 0.0761445
948 2 106.994 90.3736 15.7599
949 2 110.871 90.6012 16.0049
950 2 114.865 90.5666 0.195273
951 2 118.843 90.7527 0.192788
952 2 122.958 90.8238 15.9761
953 2 126.804 90.7015 -0.0121833
954 2 130.731 90.7207 0.324266
955 2 134.842 91.0979 16.0389
956 2 139.019 91.0149 15.9133
957 2 142.959 91.2006 15.8504
958 2 146.918 91.1439 15.857
959 2 150.838 91.2736 15.74
960 2 154.856 91.3689 16.1465
961 2 0.649506 95.3135 0.270917
962 2 4.68377 95.4571 16.0882
963 2 8.55524 95.3839 16.1664
964 2 12.3663 95.22 16.215
965 2 16.3391 95.2876 16.1012
966 2 20.0752 95.238 15.9167
967 2 24.1402 95.1289 15.9548
968 2 28.136 94.972 15.9011
969 2 31.9232 94.9434 15.8251
970 2 35.8455 94.8202 15.9424
971 2 39.6461 94.9816 15.7576
972 2 43.5986 94.7722 15.9958
973 2 47.4719 94.7974 0.108583
974 2 51.4663 94.5662 15.8711
975 2 55.4015 94.5125 0.128378
976 2 59.3703 94.391 15.8642
977 2 63.0721 94.4009 0.136775
978 2 66.98 94.4095 0.188256
979 2 70.8811 94.4114 0.203127
980 2 74.8808 94.2395 0.309941
981 2 78.7957 94.5769 15.9749
982 2 82.711 94.322 -0.00762782