ITEM: TIMESTEP
23200
ITEM: NUMBER OF ATOMS
32000
ITEM: BOX BOUNDS xy xz yz pp pp pp
0.0000000000000000e+00 1.5831999999999999e+02 0.0000000000000000e+00
0.0000000000000000e+00 1.5831999999999999e+02 0.0000000000000000e+00
1.6378126626400480e-01 1.5933930733735835e+01 0.0000000000000000e+00
ITEM: ATOMS id type x y z
1 2 158.133 157.853 15.9994
2 2 3.7864 157.828 15.86
3 2 7.69435 158.027 0.181298
4 2 11.7906 157.992 0.160346
5 2 15.6616 158.1 0.177429
6 2 19.8564 158.028 15.8711
7 2 23.9061 158.102 15.9574
8 2 27.7708 158.037 15.9736
9 2 31.9082 158.018 0.1384
10 2 35.7814 158.097 15.8053
11 2 39.769 -0.234571 16.1444
12 2 43.8699 0.0275086 0.189623
13 2 47.9346 -0.315318 15.9743
14 2 51.9454 0.094609 0.184579
15 2 55.7697 158.419 0.0710198
16 2 59.6898 158.515 15.8989
17 2 63.6614 0.173826 16.0649
18 2 67.6778 -0.0838974 16.006
19 2 71.7247 0.123742 15.836
20 2 75.3514 158.264 15.8862
21 2 79.3249 0.182213 15.944
22 2 83.3625 158.51 16.0914
23 2 87.2312 158.159 15.947
24 2 91.1254 158.162 0.115861
25 2 95.2923 158.18 15.78
26 2 98.9211 158.007 15.9541
27 2 102.853 157.879 15.8163
28 2 106.746 157.835 15.9148
29 2 110.792 157.867 0.366958
30 2 114.788 157.925 -0.0340944
31 2 118.505 157.867 15.9392
32 2 122.415 157.742 0.00338523
33 2 126.281 157.652 0.130952
34 2 130.333 157.873 0.0273236
35 2 134.102 157.689 15.6917
36 2 137.996 157.489 15.9081
37 2 141.925 157.418 15.9306
38 2 145.871 157.657 16.0698
39 2 149.823 157.485 0.251464
40 2 153.845 157.882 -0.00486434
41 2 158.017 3.44338 15.8371
42 2 3.45342 3.45818 15.9755
43 2 7.6451 3.44875 0.144649
44 2 11.7241 3.37692 15.9871
45 2 15.7955 3.54324 15.799
46 2 19.7187 3.65869 15.8954
47 2 23.9026 3.68617 0.053432
48 2 27.9696 3.74248 -0.00900357
49 2 31.9858 3.70533 0.0792734
50 2 35.6773 3.80301 -0.0727524
51 2 39.7653 3.7239 -0.00552545
52 2 43.8736 3.81609 16.0712
53 2 47.8642 3.87837 15.9303
54 2 51.7473 3.89215 16.01
55 2 55.6725 4.10106 0.148663
56 2 59.8841 4.0271 15.898
57 2 63.7204 4.09477 15.959
58 2 67.8202 4.14033 15.8998
59 2 71.6701 4.14855 15.9286
60 2 75.6459 3.99921 15.903
61 2 79.4661 4.10209 15.8184
62 2 83.4345 3.98374 15.9442
63 2 87.2639 3.87747 15.9525
64 2 91.1875 3.76949 0.266313
65 2 95.0835 3.86298 15.6978
66 2 99.0872 3.73796 -0.0532603
67 2 102.815 3.75792 15.8232
68 2 106.871 3.63982 15.9446
69 2 110.709 3.3783 0.0326837
70 2 114.626 3.51275 0.00684003
71 2 118.572 3.5373 0.0978741
72 2 122.393 3.59529 0.0195982
73 2 126.206 3.52499 0.293916
74 2 130.226 3.47378 0.0682085
75 2 134.273 3.27584 15.8589
76 2 138.101 3.38254 0.280208
77 2 142.118 3.02813 0.203517
78 2 145.926 3.27462 0.225004
79 2 149.984 3.21547 15.824
80 2 153.879 3.44245 15.9434
81 2 157.811 7.21543 16.0073
82 2 3.66988 7.44919 15.8236
83 2 7.66488 7.45095 15.8793
84 2 11.8321 7.33866 0.150355
85 2 15.5703 7.42028 15.9691
86 2 19.7146 7.41927 15.9512
87 2 23.7663 7.62545 0.143102
88 2 27.7691 7.71713 15.8472
89 2 31.8412 7.56897 15.9797
90 2 35.6984 7.55404 15.9159
91 2 39.8705 7.7117 0.0775943
92 2 43.8368 7.82841 0.0932862
93 2 47.8658 7.87898 15.9486
94 2 51.6658 7.78763 0.26874
95 2 55.6797 7.84484 15.9662
96 2 59.6911 7.83952 0.260713
97 2 63.528 7.85417 16.0688
98 2 67.5624 8.05451 16.0241
99 2 71.5924 8.00895 15.8559
100 2 75.5383 7.87103 15.8126
101 2 79.5191 8.11016 0.228969
102 2 83.4021 7.86423 15.9882
103 2 87.3429 7.81573 16.0555
104 2 91.3555 7.93253 15.9057
105 2 95.1869 7.76088 15.968
106 2 99.0953 7.74702 0.0641977
107 2 102.992 7.66119 0.254778
108 2 106.876 7.70979 16.0431
109 2 110.574 7.66738 0.219475
110 2 114.661 7.42018 15.9318
111 2 118.518 7.58022 16.0195
112 2 122.456 7.50921 15.8415
113 2 126.53 7.43538 15.9639
114 2 130.442 7.3038 0.0288211
115 2 134.32 7.17013 0.230653
116 2 138.072 7.21671 16.0783
117 2 142.205 7.48934 15.8789
118 2 146.133 7.15572 0.0719109
119 2 149.891 7.15863 -0.0242306
120 2 153.735 7.052 15.9553
121 2 157.919 10.99 15.9977
122 2 3.51239 11.131 15.8932
123 2 7.65008 11.5388 15.9452
124 2 11.7895 11.198 0.140716
125 2 15.5389 11.2759 15.9503
126 2 19.5097 11.3207 15.7753
127 2 23.7099 11.5837 15.8111
128 2 27.6322 11.4075 15.7782
129 2 31.4655 11.6237 16.0773
130 2 35.7598 11.5675 15.7747
131 2 39.6182 11.5065 15.9232
132 2 43.4938 11.7486 0.187264
133 2 47.5629 11.7684 0.311781
134 2 51.6399 11.7679 15.9878
135 2 55.7694 11.585 0.192353
136 2 59.6864 11.6944 16.1276
137 2 63.536 11.6704 0.0480056
138 2 67.6545 11.8537 15.8437
139 2 71.8124 11.9709 15.8727
140 2 75.6581 12.1064 15.8412
141 2 79.5143 11.9807 15.8142
142 2 83.1679 12.0655 15.8025
143 2 87.4789 11.7735 0.118355
144 2 91.4093 11.8914 0.0224489
145 2 95.3308 11.8785 15.9077
146 2 99.0587 11.8476 15.8189
147 2 102.967 11.6292 0.0700258
148 2 106.923 11.6818 15.7455
149 2 110.807 11.5863 0.180061
150 2 114.492 11.7491 16.0866
151 2 118.424 11.4893 0.308827
152 2 122.502 11.4698 0.17232
153 2 126.568 11.4061 15.7718
154 2 130.322 11.5048 16.0576
155 2 134.281 11.3426 0.125081
156 2 138.185 11.434 0.073707
157 2 142.011 11.2264 0.167679
158 2 145.848 11.289 0.15487
159 2 149.912 11.0854 0.344726
160 2 153.733 11.188 0.117126
161 2 157.631 15.1945 15.9325
162 2 3.26491 15.0628 16.0043
163 2 7.27872 15.0966 15.7427
164 2 11.505 15.3006 15.9634
165 2 15.6049 15.1428 15.8293
166 2 19.4789 15.4109 0.137014
167 2 23.4291 15.1982 -0.00320245
168 2 27.583 15.527 15.7663
169 2 31.4899 15.7307 0.195364
170 2 35.4274 15.6119 16.021
171 2 39.5915 15.556 0.370371
172 2 43.5745 15.5824 0.12762
173 2 47.6033 15.682 0.0878076
174 2 51.3947 15.7475 0.276409
175 2 55.5401 15.6671 15.8393
176 2 59.616 15.724 0.225997
177 2 63.5819 15.7391 16.1252
178 2 67.6056 15.9461 15.8432
179 2 71.7383 15.9348 0.0738626
180 2 75.5384 15.8759 0.0743197
181 2 79.7571 16.034 15.8765
182 2 83.4854 15.7957 0.279466
183 2 87.423 15.7158 15.8683
184 2 91.2503 15.9035 0.116542
185 2 95.3331 15.8871 16.0238
186 2 99.2553 15.633 15.734
187 2 103.234 15.665 15.9381
188 2 106.925 15.5786 15.8552
189 2 110.852 15.7055 15.6473
190 2 114.851 15.671 15.6622
191 2 118.539 15.6026 -0.0247301
192 2 122.474 15.5978 15.9602
193 2 126.649 15.5848 15.89
194 2 130.28 15.3762 0.0730845
195 2 134.352 15.4705 0.154066
196 2 138.32 15.1389 0.232566
197 2 142.278 15.2373 16.0234
198 2 146.198 15.2424 0.0563636
199 2 149.938 15.2593 0.243657
200 2 153.772 15.2488 15.9838
201 2 157.995 19.193 15.9012
202 2 3.34012 18.9993 0.245698
203 2 7.28255 19.0807 0.175587
204 2 11.3256 19.3226 15.8416
205 2 15.4847 19.2053 15.8302
206 2 19.3822 19.1877 15.9219
207 2 23.5929 19.2708 15.895
208 2 27.5859 19.4358 15.83
209 2 31.3373 19.6913 16.0663
210 2 35.5844 19.5016 15.8398
211 2 39.491 19.4128 0.0803264
212 2 43.5224 19.4625 15.9078
213 2 47.3902 19.4553 15.8877
214 2 51.3787 19.6008 0.151814
215 2 55.5664 19.751 15.9306
216 2 59.2928 19.661 15.9923
217 2 63.4797 19.8128 15.9379
218 2 67.551 19.8431 16.0821
219 2 71.6636 19.7943 0.139327
220 2 75.6095 19.9815 -0.00329583
221 2 79.5928 19.8946 0.0965047
222 2 83.4388 19.904 15.7709
223 2 87.3283 19.9287 0.179623
224 2 91.313 19.812 0.0471395
225 2 95.1899 19.7542 16.1353
226 2 98.9871 19.8005 15.8801
227 2 103.026 19.7919 15.7831
228 2 107.068 19.7853 15.8333
229 2 111.071 19.647 0.0324837
230 2 114.915 19.4532 15.9363
231 2 118.737 19.5501 15.7932
232 2 122.872 19.6637 15.9009
233 2 126.653 19.4258 16.0457
234 2 130.532 19.3875 16.0862
235 2 134.57 19.4285 0.121647
236 2 138.31 19.2018 15.9962
237 2 142.296 19.1582 16.0335
238 2 146.116 19.2225 0.122292
239 2 150.067 19.1349 15.975
240 2 154.034 19.1734 0.0257208
241 2 157.941 23.1834 15.9779
242 2 3.58303 23.0515 15.694
243 2 7.4396 22.9572 0.211283
244 2 11.3718 23.1832 0.129166
245 2 15.3973 23.0187 15.9449
246 2 19.4026 23.1223 15.9326
247 2 23.3568 23.2042 15.8581
248 2 27.283 23.3715 15.8882
249 2 31.209 23.4568 0.295611
250 2 35.5164 23.3671 15.9148
251 2 39.5471 23.3715 0.236734
252 2 43.4914 23.4662 16.1294
253 2 47.2489 23.4262 0.395457
254 2 51.2809 23.5157 0.426022
255 2 55.3324 23.6342 0.3554
256 2 59.4395 23.5333 16.051
257 2 63.4897 23.6649 0.236227
258 2 67.4295 23.5553 16.1574
259 2 71.4233 23.6655 16.0575
260 2 75.3706 23.8413 0.190547
261 2 79.6666 23.7185 16.0304
262 2 83.6114 23.9111 0.11162
263 2 87.2948 23.9329 15.8673
264 2 91.1186 23.7813 15.8539
265 2 95.27 23.8533 15.9513
266 2 99.3418 23.8709 0.0997035
267 2 102.953 23.6914 15.9344
268 2 107.012 23.6157 15.9579
269 2 110.87 23.6734 -0.0318461
270 2 114.754 23.5972 15.8227
271 2 118.692 23.4985 15.9293
272 2 122.733 23.3948 0.0760591
273 2 126.671 23.5546 15.7662
274 2 130.429 23.4975 15.6801
275 2 134.485 23.4291 15.9249
276 2 138.351 23.2177 15.9237
277 2 142.453 23.2858 16.1545
278 2 146.217 23.0311 0.453588
279 2 150.323 23.1587 0.128896
280 2 154.134 23.2812 0.168822
281 2 158.103 27.12 0.25114
282 2 3.58427 27.2232 0.132915
283 2 7.61172 27.103 0.228118
284 2 11.2151 27.0298 16.0244
285 2 15.339 27.0765 16.0167
286 2 19.4805 27.1518 0.287856
287 2 23.4499 27.0675 16.0585
288 2 27.3068 27.3258 16.1248
289 2 31.2712 27.3837 0.377453
290 2 35.3949 27.2777 0.121459
291 2 39.6582 27.4103 0.27822
292 2 43.5056 27.2918 0.221669
293 2 47.535 27.4533 0.181396
294 2 51.3836 27.4144 15.9688
295 2 55.4251 27.2925 0.265834
296 2 59.3969 27.401 15.8565
297 2 63.3035 27.4312 15.7282
298 2 67.4876 27.4345 16.0785
299 2 71.3913 27.547 16.01
300 2 75.3138 27.5889 0.100124
301 2 79.4249 27.7929 0.254745
302 2 83.4237 27.7883 16.0469
303 2 87.2322 27.9064 0.300321
304 2 91.4422 27.7755 0.0675757
305 2 95.3992 27.7993 0.319641
306 2 99.1814 27.7485 0.00410589
307 2 103.249 27.6636 15.6818
308 2 107.035 27.6654 0.286314
309 2 110.98 27.6416 15.811
310 2 114.879 27.6843 15.9184
311 2 118.794 27.5234 0.204763
312 2 122.729 27.3269 0.23595
313 2 126.604 27.4932 16.1655
314 2 130.57 27.5257 16.1319
315 2 134.496 27.4069 15.8441
316 2 138.485 27.2824 16.0225
317 2 142.267 27.3738 0.216124
318 2 146.205 27.2348 0.0446783
319 2 150.243 27.0356 0.141524
320 2 153.987 27.1557 0.1916
321 2 158.006 31.1565 15.9551
322 2 3.72141 31.2419 16.0386
323 2 7.52347 31.2911 15.7952
324 2 11.4052 31.0424 0.237002
325 2 15.3132 30.8432 0.257193
326 2 19.1962 31.0125 16.001
327 2 23.1868 31.0993 15.9399
328 2 27.2992 31.318 0.265499
329 2 31.4108 31.1456 15.9122
330 2 35.4142 31.1675 15.8664
331 2 39.2494 31.0005 15.99
332 2 43.3829 31.1753 0.197639
333 2 47.1147 31.3401 16.2273
334 2 51.3963 31.3709 0.19153
335 2 55.2667 31.3063 16.1513
336 2 59.3771 31.3377 0.173189
337 2 63.369 31.4308 15.988
338 2 67.3652 31.2801 0.288426
339 2 71.2503 31.5031 0.244609
340 2 75.4741 31.5516 0.229991
341 2 79.4671 31.6153 15.9836
342 2 83.383 31.7815 0.343221
343 2 87.3496 31.8278 15.8828
344 2 91.4244 31.5806 16.0199
345 2 95.3816 31.7732 15.9328
346 2 99.2305 31.7098 0.276937
347 2 103.351 31.5642 16.0006
348 2 107.126 31.609 15.9234
349 2 111.081 31.8517 15.8323
350 2 114.996 31.635 15.8447
351 2 118.948 31.361 15.9043
352 2 122.705 31.3807 15.9891
353 2 126.662 31.5122 15.9653
354 2 130.836 31.3675 16.0405
355 2 134.733 31.4563 15.9535
356 2 138.422 31.2029 15.9541
357 2 142.45 31.3402 -0.10864
358 2 146.119 31.4982 16.0275
359 2 150.046 31.1949 0.220494
360 2 154.162 31.1683 0.227633
361 2 -0.227537 35.1513 0.191268
362 2 3.52918 35.0141 15.8729
363 2 7.44947 35.0372 16.001
364 2 11.4064 35.162 15.8471
365 2 15.5685 34.975 0.0914792
366 2 19.3341 34.8497 0.309511
367 2 23.3388 35.0001 0.146517
368 2 27.3333 35.1208 0.304309
369 2 31.1935 34.9265 0.272613
370 2 35.0888 34.9505 0.378289
371 2 39.2614 34.994 0.266084
372 2 43.3666 35.2125 15.9101
373 2 47.3363 35.3095 16.1388
374 2 51.1796 35.3366 16.1506
375 2 55.2372 35.3374 0.320625
376 2 59.3143 35.3809 0.272727
377 2 63.3286 35.3651 15.882
378 2 67.3539 35.4089 0.291792
379 2 71.3585 35.3771 0.0855975
380 2 75.4426 35.4972 16.1036
381 2 79.1449 35.3835 0.144682
382 2 83.394 35.7901 15.9504
383 2 87.2305 35.7452 0.191416
384 2 91.3985 35.5916 0.28179
385 2 95.2001 35.7584 15.9261
386 2 99.3744 35.6464 0.254963
387 2 103.278 35.7528 15.9375
388 2 107.114 35.5606 15.7951
389 2 110.965 35.6824 15.8268
390 2 114.959 35.541 15.8699
391 2 118.962 35.467 15.9944
392 2 122.757 35.4505 15.9887
393 2 126.727 35.5185 15.7335
394 2 130.538 35.2494 15.7695
395 2 134.463 35.2813 15.9791
396 2 138.315 35.6109 0.0211513
397 2 142.404 35.4235 0.15116
398 2 146.321 35.3211 0.104012
399 2 150.202 35.3382 16.0242
400 2 154.174 35.5194 0.200687
401 2 158.052 39.0601 0.101504
402 2 3.64435 39.0206 0.26238
403 2 7.50354 39.2226 0.207456
404 2 11.4272 39.1123 15.9762
405 2 15.4808 38.9333 0.222504
406 2 19.4299 39.0566 16.0873
407 2 23.3193 38.9055 15.8411
408 2 27.2437 39.0598 15.7939
409 2 31.2687 38.9936 -0.0672879
410 2 35.2982 38.7328 0.0478424
411 2 39.1958 38.8449 15.8389
412 2 42.994 39.0544 0.0159077
413 2 47.1997 38.9797 0.111809
414 2 51.1566 39.082 15.9334
415 2 55.2229 39.2776 0.303066
416 2 59.4369 39.2301 0.189878
417 2 63.3167 39.281 0.066425
418 2 67.2779 39.5098 0.354064
419 2 71.2243 39.4207 0.222314
420 2 75.2706 39.3125 0.326683
421 2 79.2665 39.604 0.173416
422 2 83.2656 39.558 15.8503
423 2 87.1786 39.6472 15.954
424 2 91.4009 39.5755 16.0431
425 2 95.1569 39.6666 16.0726
426 2 99.1422 39.8177 0.0618201
427 2 103.288 39.5507 15.9145
428 2 107.18 39.8401 15.9978
429 2 111.014 39.5871 15.9941
430 2 114.763 39.7185 16.1082
431 2 118.866 39.611 15.8438
432 2 122.939 39.6009 15.7969
433 2 126.885 39.416 0.188256
434 2 130.673 39.5547 15.8346
435 2 134.51 39.3928 15.7268
436 2 138.573 39.3189 15.845
437 2 142.546 39.3738 16.0053
438 2 146.351 39.3284 -0.0192062
439 2 150.313 39.2326 16.1254
440 2 154.056 39.3944 15.9824
441 2 158.353 43.0715 0.209724
442 2 3.75403 43.0818 15.9171
443 2 7.81598 43.0566 15.7952
444 2 11.6679 43.2153 0.378612
445 2 15.4724 43.031 0.228406
446 2 19.3232 42.9851 0.225673
447 2 23.3327 42.8798 15.9438
448 2 27.1763 42.8241 15.9278
449 2 31.1997 43.1245 0.0748308
450 2 35.067 42.7844 0.188233
451 2 39.3121 42.7866 0.0646351
452 2 43.1652 43.0164 0.16496
453 2 47.2391 42.977 16.0378
454 2 51.2068 43.1078 15.8446
455 2 55.2601 43.063 0.137361
456 2 59.2047 43.1636 15.6944
457 2 63.1169 43.0395 0.149909
458 2 67.1785 43.2873 0.117314
459 2 71.3787 43.1706 0.060798
460 2 75.1803 43.547 0.241943
461 2 79.1859 43.4826 0.266999
462 2 83.1373 43.3175 16.1159
463 2 87.1512 43.6023 15.9274
464 2 91.2279 43.4542 0.300541
465 2 95.2611 43.6439 0.266467
466 2 99.2855 43.6505 16.1206
467 2 103.236 43.6779 15.7702
468 2 107.173 43.8644 15.9154
469 2 111.258 43.7007 15.9773
470 2 115.056 43.632 15.9915
471 2 119.131 43.5566 16.0697
472 2 123.057 43.4599 15.9432
473 2 126.962 43.4724 0.162266
474 2 130.799 43.5134 0.28623
475 2 134.46 43.3056 16.0156
476 2 138.52 43.4193 15.7974
477 2 142.382 43.2653 15.849
478 2 146.4 43.4321 0.0830305
479 2 150.272 43.3234 0.122367
480 2 154.176 43.2347 -0.0559307
481 2 0.0991542 47.0033 0.145513
482 2 3.97493 47.0924 -0.121252
483 2 7.72009 47.1167 0.184585
484 2 11.6429 47.1072 0.0723947
485 2 15.7672 47.0626 0.320738
486 2 19.5889 47.1532 0.186769
487 2 23.3242 46.9223 0.134696
488 2 27.3255 46.9158 15.9926
489 2 31.3463 46.83 -0.00599974
490 2 35.2291 46.6726 0.0907436
491 2 39.0312 46.9158 16.0347
492 2 43.2358 47.0411 15.957
493 2 47.2885 46.9938 0.46158
494 2 51.1773 47.0664 16.1149
495 2 55.324 47.0708 15.9329
496 2 59.2002 47.1193 16.0552
497 2 63.1783 47.1495 0.0488026
498 2 67.2693 47.1538 0.0252734
499 2 71.2675 47.2477 15.9276
500 2 75.1683 47.3318 0.09606
501 2 79.1535 47.4722 15.9676
502 2 83.1847 47.4682 15.9299
503 2 87.0779 47.3721 0.171899
504 2 91.3347 47.5212 0.130705
505 2 95.3098 47.4069 0.342277
506 2 99.2414 47.612 0.140603
507 2 103.11 47.432 -0.0144617
508 2 107.441 47.5946 15.9768
509 2 111.433 47.7321 16.018
510 2 115.233 47.5532 0.193482
511 2 119.03 47.721 15.948
512 2 123.041 47.5987 15.6975
513 2 126.801 47.6667 16.181
514 2 130.828 47.4298 15.7642
515 2 134.737 47.3968 15.8949
516 2 138.609 47.4387 15.8786
517 2 142.519 47.3969 15.7452
518 2 146.649 47.3882 0.144497
519 2 150.471 47.4585 0.38598
520 2 154.321 47.3543 15.9381
521 2 158.352 51.181 0.223392
522 2 3.75724 51.2278 15.709
523 2 7.67407 51.0167 15.9237
524 2 11.6035 50.8168 15.8633
525 2 15.4923 50.9539 0.0378913
526 2 19.6279 51.1279 16.0847
527 2 23.6171 50.8951 16.0454
528 2 27.2029 50.8603 16.0665
529 2 31.2935 50.7487 0.196023
530 2 35.3074 50.8585 0.460383
531 2 39.1601 50.6318 15.9888
532 2 42.9741 50.766 15.953
533 2 47.23 50.651 0.039917
534 2 51.1319 50.775 0.171878
535 2 55.3158 50.963 0.0762668
536 2 59.2144 50.8993 16.0214
537 2 63.1915 50.9765 15.9668
538 2 67.135 50.8159 0.0159752
539 2 71.3328 51.2397 0.236083
540 2 75.0973 51.1637 0.202744
541 2 79.1432 51.2547 0.16671
542 2 83.2186 51.3259 0.314646
543 2 87.1424 51.1761 0.333398
544 2 91.2298 51.2107 0.242342
545 2 95.2097 51.2751 0.32903
546 2 99.3377 51.3838 0.15433
547 2 103.337 51.4989 15.9369
548 2 107.247 51.5217 0.193672
549 2 111.414 51.5127 0.142589
550 2 115.1 51.6244 15.7819
551 2 119.022 51.5403 15.8366
552 2 123.208 51.5631 15.8238
553 2 127.041 51.7755 15.9888
554 2 130.824 51.616 0.235839
555 2 134.781 51.4602 0.296288
556 2 138.656 51.2015 0.152209
557 2 142.621 51.4039 0.178408
558 2 146.66 51.3305 15.9563
559 2 150.607 51.3407 0.253169
560 2 154.35 51.4896 0.143763
561 2 158.454 55.2108 0.0744614
562 2 3.93538 55.1255 0.126734
563 2 7.72159 55.2883 0.0580921
564 2 11.8218 55.1107 0.0190452
565 2 15.6749 55.068 0.196016
566 2 19.6309 54.9029 15.9226
567 2 23.3865 54.8752 15.8011
568 2 27.4899 54.8702 15.8079
569 2 31.2737 54.9602 0.172849
570 2 35.3726 54.7962 0.181126
571 2 39.1518 54.7908 15.909
572 2 43.2304 54.7176 15.836
573 2 47.0888 54.578 0.257299
574 2 51.1511 54.8317 16.0658
575 2 55.0227 54.831 16.2968
576 2 59.3119 54.8473 15.9096
577 2 63.0668 55.0353 16.0082
578 2 67.1909 55.1055 0.0927688
579 2 71.1535 55.0647 0.222022
580 2 75.1857 55.1927 16.031
581 2 79.1302 55.0619 0.221857
582 2 82.9794 55.1201 0.236281
583 2 87.2471 55.16 0.361107
584 2 91.1976 55.1752 16.0447
585 2 95.1486 55.3224 0.0957675
586 2 99.106 55.431 15.94
587 2 103.156 55.3096 16.0257
588 2 107.248 55.4389 0.204289
589 2 111.245 55.5875 15.8833
590 2 115.259 55.593 15.6372
591 2 119.259 55.529 15.8619
592 2 123.201 55.4271 -0.0931077
593 2 127.253 55.6511 15.8276
594 2 131.141 55.7176 15.6127
595 2 134.815 55.4757 0.192379
596 2 138.825 55.4032 16.0271
597 2 142.627 55.3907 0.149759
598 2 146.645 55.2841 0.188867
599 2 150.64 55.3027 0.242946
600 2 154.431 55.346 16.0211
601 2 158.413 59.0173 0.202983
602 2 4.11014 59.0147 15.9519
603 2 7.97062 59.2548 15.634
604 2 11.8959 59.0608 -0.0620821
605 2 15.9284 58.9074 15.7781
606 2 19.7313 58.8878 0.0736831
607 2 23.5485 58.767 0.209784
608 2 27.5532 58.9136 0.0810186
609 2 31.4291 58.9761 15.9805
610 2 35.4507 58.806 16.0021
611 2 39.2672 58.7681 15.9724
612 2 43.141 58.5324 15.9982
613 2 47.0632 58.7218 15.9889
614 2 50.9479 58.7012 16.0871
615 2 55.2416 58.8006 15.9588
616 2 59.114 58.8001 0.116197
617 2 62.9256 58.8848 16.0758
618 2 67.0933 58.923 0.0453581
619 2 71.0719 59.0787 15.9972
620 2 75.1577 59.1987 0.331196
621 2 78.9052 58.8692 0.251168
622 2 83.2008 59.1701 0.200943
623 2 87.1639 58.9944 15.9652
624 2 91.1649 59.3028 15.9157
625 2 95.0949 59.2913 0.0243977
626 2 99.1962 59.2453 0.248926
627 2 103.299 59.229 15.9049
628 2 106.99 59.3226 0.276803
629 2 111.12 59.452 15.9606
630 2 115.154 59.4397 15.8134
631 2 119.243 59.6618 15.9955
632 2 123.158 59.5725 0.000546993
633 2 127.037 59.5636 15.8648
634 2 131.133 59.5566 0.295536
635 2 134.928 59.6856 15.7484
636 2 138.927 59.3385 0.109204
637 2 142.827 59.5298 0.147316
638 2 146.826 59.2922 -0.0311105
639 2 150.631 59.2971 15.9204
640 2 154.58 59.2521 -0.0346806
641 2 0.184589 63.0921 0.148036
642 2 4.01475 63.2427 -0.121071
643 2 7.86886 63.1215 15.879
644 2 11.7899 63.199 15.8824
645 2 15.7161 63.0861 15.8708
646 2 19.7259 63.1 0.119612
647 2 23.5333 62.8743 0.221068
648 2 27.6123 62.7581 0.191023
649 2 31.43 62.6945 -0.00388591
650 2 35.4057 62.7407 -0.129012
651 2 39.477 62.6933 15.8532
652 2 42.9967 62.4976 0.149803
653 2 47.0774 62.6153 15.7859
654 2 51.134 62.684 15.9748
655 2 55.0423 62.5079 0.196599
656 2 59.0272 62.8185 16.1671
657 2 63.1036 62.8286 0.268071
658 2 67.1034 62.7789 16.0331
659 2 70.9547 62.8273 0.278419
660 2 75.1498 62.852 0.140993
661 2 79.0453 62.7937 0.23512
662 2 82.9936 62.9555 0.350931
663 2 87.047 62.9847 15.9876
664 2 91.1967 63.0618 15.906
665 2 95.0381 63.3095 0.150955
666 2 99.1827 63.2312 0.0939618
667 2 103.169 63.2453 16.0991
668 2 107.066 62.9383 15.9443
669 2 111.123 63.0574 15.9357
670 2 115.103 63.2831 0.170857
671 2 119.281 63.4571 15.8628
672 2 123.265 63.4083 0.0623195
673 2 127.201 63.4428 16.0007
674 2 131.008 63.5267 0.308309
675 2 135.05 63.429 15.7213
676 2 138.923 63.3598 16.122
677 2 142.979 63.6379 15.7216
678 2 146.906 63.3576 0.029143
679 2 150.726 63.4621 16.0872
680 2 154.727 63.2736 0.139297
681 2 0.0971996 67.1217 0.138982
682 2 4.10405 67.1454 0.0415668
683 2 8.04259 67.2748 15.9358
684 2 11.8291 67.2015 16.0395
685 2 15.614 67.0881 0.125491
686 2 19.7294 67.0338 0.0956974
687 2 23.7799 67.0896 -0.131153
688 2 27.6398 66.798 -0.077639
689 2 31.5386 66.7139 0.0395436
690 2 35.5283 66.753 0.0275923
691 2 39.5036 66.671 16.0101
692 2 43.2502 66.4092 0.0465088
693 2 47.3944 66.6919 15.9786
694 2 51.0065 66.5693 15.9971
695 2 55.034 66.5815 16.1439
696 2 58.9841 66.6588 16.043
697 2 62.7536 66.6687 16.1689
698 2 66.9874 66.6645 15.9502
699 2 70.852 66.7856 0.306884
700 2 75.025 66.8552 15.9784
701 2 78.9259 66.8317 16.13
702 2 83.0668 66.6725 0.303451
703 2 87.0667 66.859 15.8271
704 2 90.9344 66.9659 15.9174
705 2 95.0729 67.0097 -0.0248813
706 2 99.0194 66.999 0.242765
707 2 103.122 67.0019 0.182219
708 2 107.168 67.0377 16.0773
709 2 111.262 67.0336 15.8512
710 2 115.226 67.0694 15.8155
711 2 119.039 67.286 -0.00268177
712 2 123.179 67.363 0.143902
713 2 127.078 67.3676 0.106859
714 2 131.135 67.542 16.1372
715 2 135.032 67.4778 0.126113
716 2 139.055 67.4918 0.187502
717 2 142.863 67.3848 15.9009
718 2 146.889 67.464 15.8203
719 2 150.672 67.2065 15.9784
720 2 154.553 67.3122 0.0782633
721 2 0.357105 71.2884 0.242525
722 2 4.19168 71.1362 15.9953
723 2 8.09708 71.3354 0.224152
724 2 12.0933 71.2634 15.9582
725 2 15.9438 71.0839 0.253772
726 2 19.9398 71.0482 0.090524
727 2 23.7714 70.8287 0.053585
728 2 27.6135 70.8751 15.7343
729 2 31.4233 70.9477 0.170042
730 2 35.5678 70.784 0.215067
731 2 39.3303 70.6708 15.6661
732 2 43.1202 70.7102 0.305474
733 2 47.024 70.6162 15.8662
734 2 51.0627 70.6332 15.8182
735 2 55.1036 70.4529 0.242364
736 2 58.9587 70.6208 0.257174
737 2 63.1181 70.6019 0.17431
738 2 66.9 70.5754 16.0874
739 2 70.9355 70.4832 16.009
740 2 74.9955 70.6651 15.8181
741 2 78.8648 70.7843 0.390833
742 2 82.9326 70.7646 0.302991
743 2 86.9002 70.7878 15.8827
744 2 90.9561 70.832 15.7637
745 2 95.1293 70.9631 15.9147
746 2 98.9935 71.0645 15.9782
747 2 102.934 70.9282 15.8196
748 2 107.126 70.9507 16.0538
749 2 111.025 71.0144 15.9742
750 2 114.931 71.3042 0.322579
751 2 119.156 71.092 15.9426
752 2 122.98 71.1707 0.0700172
753 2 127.103 71.3139 16.0098
754 2 131.189 71.4815 15.9999
755 2 135.248 71.6006 16.0247
756 2 139.346 71.5286 15.8796
757 2 143.039 71.4494 0.398349
758 2 147.087 71.5568 0.309309
759 2 150.928 71.3074 0.0506531
760 2 154.864 71.2424 16.0593
761 2 0.39771 75.2813 -0.0316874
762 2 4.15926 75.3257 15.8064
763 2 8.19631 75.4023 16.0371
764 2 11.9882 75.146 16.003
765 2 16.1091 74.9965 16.0436
766 2 19.84 74.8656 16.0257
767 2 23.5188 74.8599 15.8443
768 2 27.6557 74.8756 15.8855
769 2 31.7852 74.8463 0.325659
770 2 35.5349 74.845 15.9185
771 2 39.4293 74.6693 16.1385
772 2 43.2486 74.6844 0.173431
773 2 47.2307 74.8081 15.9706
774 2 51.226 74.4457 0.198006
775 2 55.2431 74.5383 16.0034
776 2 59.0414 74.5738 15.8972
777 2 62.7812 74.3979 16.2023
778 2 66.9009 74.6027 -0.0664262
779 2 70.792 74.4835 0.090219
780 2 74.7668 74.5668 0.285092
781 2 78.9054 74.6961 0.319068
782 2 82.9896 74.7714 0.222767
783 2 86.9157 74.6893 -0.020724
784 2 90.9197 74.5362 15.8269
785 2 94.9413 74.8938 15.774
786 2 99.0464 74.8778 0.0789284
787 2 103.063 74.9064 16.0424
788 2 106.879 74.9119 15.8696
789 2 110.877 74.835 16.0609
790 2 114.97 75.1046 15.8828
791 2 119.114 74.9802 0.0861728
792 2 123.055 75.0635 16.0437
793 2 127.041 75.4962 16.0695
794 2 131.152 75.3337 0.334755
795 2 135.081 75.5714 15.867
796 2 139.166 75.2303 15.8494
797 2 143.012 75.36 15.9909
798 2 147.059 75.5084 15.9049
799 2 150.795 75.3631 -0.0334521
800 2 154.687 75.1237 0.052533
801 2 0.513417 79.2996 0.140998
802 2 4.38341 79.1718 16.0638
803 2 8.3788 79.3881 0.129277
804 2 12.2873 79.4371 0.197002
805 2 16.1624 79.017 15.9382
806 2 20.0832 78.8776 15.9324
807 2 23.9377 79.0014 0.246974
808 2 27.6799 78.8316 0.148087
809 2 31.6911 78.8564 0.226824
810 2 35.6052 78.8223 0.151883
811 2 39.4883 78.8871 15.8856
812 2 43.4895 78.7509 15.7592
813 2 47.2915 78.5923 15.984
814 2 50.9578 78.5299 -0.0306628
815 2 54.9861 78.7592 -0.0740868
816 2 58.9019 78.5117 15.9671
817 2 62.877 78.3286 15.9084
818 2 66.8491 78.3923 0.0727054
819 2 70.8454 78.4816 15.8432
820 2 74.8966 78.5446 0.145795
821 2 78.7205 78.6787 16.1833
822 2 82.9409 78.6026 15.9644
823 2 86.8618 78.7615 0.058461
824 2 90.8408 78.6785 -0.0122832
825 2 94.8144 78.8046 0.212963
826 2 98.9888 78.841 16.0367
827 2 103.04 78.8784 15.8443
828 2 106.904 78.9302 0.146927
829 2 111.002 78.815 0.112868
830 2 115.137 79.1302 0.285617
831 2 119.141 79.0263 0.229896
832 2 122.937 79.1664 16.0648
833 2 127.016 79.2293 -0.0608469
834 2 131.058 79.2659 16.0047
835 2 135.008 79.3937 0.214506
836 2 139.043 79.3516 16.0097
837 2 142.837 79.4134 16.1595
838 2 146.962 79.3562 15.9943
839 2 151.117 79.3056 15.8768
840 2 154.718 79.2359 0.136844
841 2 0.496378 83.3675 15.8719
842 2 4.24872 83.299 15.9039
843 2 8.27184 83.2288 -0.0808846
844 2 12.236 83.2051 15.8603
845 2 16.3997 83.137 15.9696
846 2 19.9808 83.1521 0.0239882
847 2 23.9658 83.0894 15.7619
848 2 27.9692 82.9713 0.120128
849 2 31.6026 82.799 15.8623
850 2 35.5062 82.7465 0.184592
851 2 39.4685 82.762 0.130004
852 2 43.3964 82.711 15.9053
853 2 47.2947 82.6541 0.100314
854 2 51.2548 82.5873 0.214257
855 2 55.2563 82.3957 0.0406578
856 2 59.0974 82.558 15.9232
857 2 63.0467 82.2445 15.9092
858 2 67.0293 82.3582 15.9259
859 2 71.0456 82.5869 15.8845
860 2 74.9926 82.2985 15.957
861 2 78.7082 82.4375 15.9439
862 2 82.8519 82.5633 -0.0133344
863 2 86.6793 82.5703 0.109328
864 2 90.8381 82.4793 15.8262
865 2 94.7679 82.6878 0.209194
866 2 98.7943 82.6737 15.8045
867 2 102.847 82.6452 0.26318
868 2 106.827 82.7429 15.9741
869 2 110.803 82.7041 15.8685
870 2 114.956 82.7748 16.0451
871 2 119.009 83.067 15.9837
872 2 122.898 83.2165 16.0896
873 2 127.041 82.8924 16.0406
874 2 131.017 83.1428 16.0857
875 2 135.075 83.1412 0.265538
876 2 139.051 83.2623 16.01
877 2 143.205 83.3802 0.156059
878 2 146.864 83.1546 15.8715
879 2 150.801 83.4309 0.086231
880 2 154.928 83.4011 0.00150558
881 2 0.502559 87.2914 15.8747
882 2 4.45301 87.2452 -0.0118852
883 2 8.43539 87.249 15.8372
884 2 12.4139 87.192 16.0994
885 2 16.2394 87.2702 15.8321
886 2 19.9411 87.3007 16.0343
887 2 23.9086 87.168 16.2129
888 2 27.9452 86.9277 0.26958
889 2 31.7539 86.8738 16.1454
890 2 35.6338 86.8667 0.055474
891 2 39.639 86.8953 16.0316
892 2 43.5017 86.5843 15.9647
893 2 47.0915 86.7405 16.0019
894 2 51.2365 86.5483 15.9254
895 2 55.1305 86.6445 15.9444
896 2 59.0355 86.346 0.132354
897 2 63.007 86.4227 0.0473415
898 2 66.9181 86.3572 15.851
899 2 70.9932 86.3823 -0.00866382
900 2 74.9488 86.3319 16.0898
901 2 78.7553 86.3264 -0.123848
902 2 82.8362 86.4888 0.0617841
903 2 86.8462 86.3662 15.9281
904 2 90.7943 86.4436 15.8739
905 2 94.7871 86.48 15.9627
906 2 98.7486 86.4906 15.9827
907 2 102.71 86.5259 0.312536
908 2 106.75 86.577 0.3004
909 2 110.788 86.5989 16.1142
910 2 114.823 86.7484 0.0489793
911 2 118.866 86.8486 0.40915
912 2 122.889 86.7852 0.347405
913 2 127.055 86.8722 16.0809
914 2 131.02 87.0216 16.0971
915 2 135.024 87.0861 16.0682
916 2 138.843 87.0831 15.8569
917 2 142.704 87.2616 15.9439
918 2 146.828 87.2503 0.170475
919 2 151.069 87.3605 15.9876
920 2 154.813 87.3155 16.0228
921 2 0.373534 91.2155 0.0812816
922 2 4.67851 91.2933 0.170064
923 2 8.48874 91.2216 15.8356
924 2 12.4225 91.222 15.9787
925 2 16.0189 91.2018 0.28751
926 2 19.9594 91.1944 0.129737
927 2 23.9699 91.1572 15.7895
928 2 27.8957 91.1392 16.0387
929 2 31.9242 91.0307 16.0074
930 2 35.7658 90.9408 -0.0774059
931 2 39.6786 91.0023 15.8018
932 2 43.4925 90.7658 16.059
933 2 47.3667 90.7893 0.167598
934 2 51.4072 90.6244 -0.0645253
935 2 55.2285 90.5049 0.0365609
936 2 59.1064 90.3774 0.0400934
937 2 63.1088 90.4463 0.161958
938 2 67.1772 90.4869 15.9118
939 2 70.8641 90.2196 16.0007
940 2 74.8151 90.3821 0.0866964
941 2 78.6945 90.4026 -0.0139331
942 2 82.6883 90.134 0.0610232
943 2 86.7243 90.3665 0.0596689
944 2 90.5453 90.5913 -0.01981
945 2 94.7174 90.2607 15.9038
946 2 98.6951 90.5021 15.9181
947 2 102.787 90.4721 0.209274
948 2 106.623 90.6897 16.0121
949 2 110.71 90.5579 15.8789
950 2 114.863 90.7944 0.0388402
951 2 118.882 90.7243 0.213975
952 2 122.79 90.8326 15.989
953 2 126.908 90.9717 0.21429
954 2 130.876 90.814 0.270519
955 2 134.981 90.9001 16.0877
956 2 138.826 91.1198 16.053
957 2 142.852 91.1462 16.2634
958 2 146.886 91.3511 15.8602
959 2 150.828 91.4351 16.0125
960 2 154.897 91.3693 15.6884
961 2 0.548814 95.3305 0.247822
962 2 4.59445 95.3538 16.0308
963 2 8.51257 95.4519 15.9216
964 2 12.3715 95.239 15.9881
965 2 16.0672 95.1553 16.0142
966 2 20.2033 95.0938 16.0932
967 2 23.9107 95.0733 15.9215
968 2 27.7936 95.0531 16.0386
969 2 31.9129 94.9571 16.033
970 2 35.8376 94.9475 15.9982
971 2 39.7532 94.799 16.1383
972 2 43.4834 94.9502 16.0594
973 2 47.4883 94.6085 0.129559
974 2 51.3556 94.6097 16.0511
975 2 55.3607 94.4889 0.236611
976 2 59.0359 94.5212 15.8926
977 2 63.0922 94.3571 0.227083
978 2 67.1699 94.3339 0.183063
979 2 70.9273 94.2129 0.255569
980 2 74.7612 94.3301 0.184462
981 2 78.7836 94.0778 16.0834
982 2 82.6675 94.1986 0.0705729