ITEM: TIMESTEP
23300
ITEM: NUMBER OF ATOMS
32000
ITEM: BOX BOUNDS xy xz yz pp pp pp
0.0000000000000000e+00 1.5831999999999999e+02 0.0000000000000000e+00
0.0000000000000000e+00 1.5831999999999999e+02 0.0000000000000000e+00
1.6619436163699852e-01 1.5931517638362820e+01 0.0000000000000000e+00
ITEM: ATOMS id type x y z
1 2 157.943 157.835 15.9887
2 2 3.63756 158.03 15.7626
3 2 7.80555 157.856 0.225306
4 2 11.7197 157.85 0.126488
5 2 16.0045 157.977 0.0160503
6 2 19.837 158.095 15.8417
7 2 23.8447 158.02 15.7246
8 2 27.7227 157.981 15.8691
9 2 31.7672 158.196 0.13648
10 2 35.8939 158.088 15.9887
11 2 39.9498 0.045014 15.6929
12 2 43.7634 -0.15627 0.202626
13 2 47.6472 0.0763353 16.0043
14 2 51.6855 -0.130913 0.119066
15 2 55.8137 158.407 -0.0492928
16 2 59.7248 158.443 16.1674
17 2 63.8535 0.22137 15.8825
18 2 67.8144 0.178309 15.7961
19 2 71.3938 0.0395764 15.6701
20 2 75.2998 158.59 15.6541
21 2 79.358 -0.229188 15.9303
22 2 83.2943 158.026 15.8746
23 2 87.1068 158.296 15.9102
24 2 91.1701 158.018 0.268999
25 2 95.0751 157.968 15.9141
26 2 99.1072 157.956 15.7904
27 2 102.918 158.105 15.6595
28 2 106.801 157.919 15.6976
29 2 110.629 157.789 0.0845269
30 2 114.457 157.812 0.0253277
31 2 118.309 157.821 15.8268
32 2 122.261 157.885 0.216883
33 2 126.258 158.087 0.113209
34 2 130.205 157.441 0.258211
35 2 134.208 157.691 15.8851
36 2 138.152 157.641 15.9647
37 2 142.026 157.648 15.8936
38 2 145.862 157.548 15.677
39 2 149.811 157.679 0.337236
40 2 154.055 157.771 0.193895
41 2 157.933 3.3777 15.8264
42 2 3.74217 3.58946 15.666
43 2 7.58784 3.61561 0.322889
44 2 11.6536 3.59384 15.8059
45 2 15.7482 3.60457 15.9938
46 2 19.8407 3.50737 15.8683
47 2 23.7788 3.64886 0.0885579
48 2 27.6298 3.64711 -0.00476159
49 2 31.6362 3.6831 0.103336
50 2 35.9188 3.67551 0.185558
51 2 39.7771 3.81536 0.226422
52 2 43.6224 3.96355 15.9555
53 2 47.6093 3.9662 16.0887
54 2 51.691 3.91396 15.9416
55 2 55.8533 3.90885 0.275466
56 2 59.5178 3.89953 16.0814
57 2 63.7801 4.08694 15.9977
58 2 67.6568 3.98836 16.0419
59 2 71.5895 3.90117 15.7111
60 2 75.5151 4.03148 15.6864
61 2 79.5019 3.95065 15.8254
62 2 83.3638 3.82797 15.8943
63 2 87.173 3.82865 15.8767
64 2 91.1108 3.79228 0.146381
65 2 95.2577 3.6245 15.9083
66 2 98.9028 3.62849 0.148913
67 2 102.908 3.61828 15.7254
68 2 106.836 3.58692 15.9841
69 2 110.586 3.68298 0.315825
70 2 114.502 3.40844 0.287061
71 2 118.658 3.56299 0.091687
72 2 122.523 3.53556 0.170473
73 2 126.383 3.29869 0.0300963
74 2 130.231 3.3585 0.0674123
75 2 134.12 3.32983 15.8297
76 2 138.03 3.14377 0.0540554
77 2 141.979 3.54551 0.257826
78 2 146.091 3.29045 0.110983
79 2 149.93 3.37851 16.0231
80 2 153.74 3.08746 15.9583
81 2 157.991 7.30512 15.945
82 2 3.59911 7.3194 16.0606
83 2 7.63094 7.49226 16.0706
84 2 11.3823 7.25262 0.176557
85 2 15.7868 7.42264 15.8977
86 2 19.7599 7.65032 15.7416
87 2 23.6561 7.6183 0.152298
88 2 27.74 7.38744 15.6873
89 2 31.7404 7.61759 15.759
90 2 35.6173 7.7537 15.808
91 2 39.5645 7.66646 0.136542
92 2 43.5202 7.64903 0.195003
93 2 47.4705 7.79798 15.8796
94 2 51.6118 7.89306 0.290458
95 2 55.466 7.77688 15.7592
96 2 59.6673 7.94532 0.225842
97 2 63.7247 7.78693 15.9154
98 2 67.7673 7.9635 15.9215
99 2 71.8334 8.13402 15.8428
100 2 75.6434 8.04314 15.8594
101 2 79.4565 7.96043 0.106824
102 2 83.2994 7.99589 15.8504
103 2 87.2222 7.8277 15.8645
104 2 91.1288 7.76798 15.8919
105 2 95.0787 7.67681 15.6772
106 2 98.9985 7.61975 -0.0539694
107 2 103.092 7.70824 -0.104779
108 2 106.864 7.52816 15.7185
109 2 110.767 7.50385 -0.0147964
110 2 114.576 7.6388 15.9228
111 2 118.361 7.56828 15.6893
112 2 122.402 7.55779 16.0151
113 2 126.255 7.36657 15.9108
114 2 130.305 7.47217 0.33424
115 2 134.284 7.41623 0.189974
116 2 138.346 7.34302 15.7862
117 2 142.093 7.09019 16.0918
118 2 145.999 7.49436 -0.0395602
119 2 149.886 7.28114 0.275503
120 2 153.941 7.22046 16.0345
121 2 157.654 11.2538 15.8688
122 2 3.49535 11.2641 15.8906
123 2 7.6017 11.2295 15.9015
124 2 11.3997 11.398 0.206516
125 2 15.5214 11.2798 15.7748
126 2 19.5378 11.6507 15.8796
127 2 23.6103 11.4072 15.7972
128 2 27.6966 11.5734 15.728
129 2 31.6922 11.4243 15.7916
130 2 35.4819 11.5729 15.9566
131 2 39.6422 11.5904 15.9414
132 2 43.6614 11.7039 0.247567
133 2 47.5496 11.6467 -0.0253699
134 2 51.7051 11.7173 15.9881
135 2 55.581 12.0128 0.0679248
136 2 59.4755 11.7517 15.932
137 2 63.7264 11.8618 0.309549
138 2 67.545 11.981 15.983
139 2 71.4528 12.0596 15.9457
140 2 75.7494 12.0028 15.7453
141 2 79.5741 11.8274 15.9085
142 2 83.5444 11.8221 16.0225
143 2 87.1467 11.8147 0.241954
144 2 91.334 11.965 0.22723
145 2 95.1224 11.7877 15.7691
146 2 98.9911 11.9284 15.7399
147 2 103.153 11.6636 -0.00899811
148 2 106.913 11.5665 16.089
149 2 110.657 11.5732 0.140365
150 2 114.724 11.4908 15.8381
151 2 118.61 11.5651 -0.0789144
152 2 122.5 11.3802 0.201057
153 2 126.334 11.4296 16.0372
154 2 130.501 11.4042 15.8757
155 2 134.441 11.2839 0.129976
156 2 138.331 11.1833 0.14127
157 2 142.141 11.4334 0.263943
158 2 146.087 11.413 0.16989
159 2 149.843 11.3093 0.0622609
160 2 153.769 11.0334 0.265232
161 2 157.879 15.0633 15.9329
162 2 3.49481 15.1707 15.9142
163 2 7.59906 15.226 16.028
164 2 11.3843 15.3111 15.8324
165 2 15.2218 15.1255 15.8891
166 2 19.6073 15.3111 0.0615388
167 2 23.5961 15.607 0.092322
168 2 27.5015 15.4972 15.7881
169 2 31.492 15.387 0.283564
170 2 35.4272 15.4932 16.0449
171 2 39.4245 15.5233 0.153258
172 2 43.3416 15.6498 0.359796
173 2 47.438 15.5305 0.374235
174 2 51.4951 15.4754 0.35016
175 2 55.5038 15.6518 15.8179
176 2 59.4276 15.6938 0.288203
177 2 63.4766 15.7154 15.9765
178 2 67.5465 15.7384 15.7777
179 2 71.4174 15.8863 0.137306
180 2 75.7636 15.9315 0.0543303
181 2 79.5148 15.8449 15.9555
182 2 83.4754 16.1227 0.274616
183 2 87.3142 15.8095 16.098
184 2 91.3072 15.7137 -0.000755985
185 2 95.2626 15.7408 15.7165
186 2 99.0884 15.8507 15.6526
187 2 102.912 15.8248 16.0291
188 2 107.001 15.8731 15.7313
189 2 110.735 15.9297 15.8074
190 2 114.609 15.4759 16.0806
191 2 118.716 15.4426 0.193099
192 2 122.607 15.3334 15.8947
193 2 126.434 15.2798 15.8114
194 2 130.523 15.4841 0.233843
195 2 134.279 15.2568 0.147668
196 2 138.222 15.4815 0.0859234
197 2 141.999 15.3008 16.0787
198 2 145.964 15.2903 0.347416
199 2 150.118 15.2207 0.137107
200 2 154.044 15.0744 15.9822
201 2 157.829 19.0116 15.9668
202 2 3.48137 19.173 0.269296
203 2 7.54234 19.0059 0.173498
204 2 11.4056 19.0678 16.2024
205 2 15.4378 19.1011 16.0916
206 2 19.5234 19.2326 15.7884
207 2 23.5082 19.4176 15.9127
208 2 27.3974 19.3412 15.8152
209 2 31.4357 19.3968 15.9261
210 2 35.3862 19.4088 15.8835
211 2 39.518 19.4498 0.0614098
212 2 43.4851 19.5008 15.7996
213 2 47.5517 19.5714 16.0241
214 2 51.5912 19.4659 0.245865
215 2 55.4995 19.512 15.9087
216 2 59.6818 19.659 15.9788
217 2 63.6278 19.692 16.0728
218 2 67.6867 19.729 15.9301
219 2 71.5887 19.9893 0.166406
220 2 75.4908 19.6641 0.109449
221 2 79.5035 19.9519 0.0384123
222 2 83.5809 19.9688 15.8721
223 2 87.4593 19.7155 0.10755
224 2 91.3546 19.6597 0.210498
225 2 95.1028 19.7551 15.9115
226 2 99.1252 19.8194 15.8851
227 2 103.102 19.6106 15.7817
228 2 106.787 19.5771 15.9825
229 2 110.785 19.6357 0.117786
230 2 114.827 19.6235 15.8917
231 2 118.69 19.4527 15.8399
232 2 122.577 19.4391 15.8923
233 2 126.595 19.5674 15.8221
234 2 130.367 19.3964 15.9299
235 2 134.093 19.4196 0.250436
236 2 138.358 19.4713 15.8608
237 2 142.026 19.401 15.8286
238 2 146.098 19.2685 0.25758
239 2 150.172 19.285 16.0921
240 2 154.034 19.227 0.208754
241 2 157.961 23.0869 15.7994
242 2 3.49146 23.1404 16.1455
243 2 7.37289 23.1544 -0.0143839
244 2 11.5705 23.1285 -0.0372777
245 2 15.3722 23.1958 15.766
246 2 19.5615 23.1247 15.8911
247 2 23.6445 23.1436 15.8941
248 2 27.5923 23.1862 15.9076
249 2 31.4731 23.4109 0.004912
250 2 35.4275 23.3099 15.9362
251 2 39.4269 23.3417 0.164758
252 2 43.3982 23.3911 15.8462
253 2 47.3218 23.3109 0.155896
254 2 51.3967 23.5138 0.378877
255 2 55.4468 23.6114 0.243726
256 2 59.4028 23.5838 15.8888
257 2 63.4675 23.5523 0.107232
258 2 67.6319 23.5607 16.0221
259 2 71.623 23.8511 16.162
260 2 75.6883 23.5864 0.29286
261 2 79.512 23.7665 15.843
262 2 83.5524 23.8963 0.220322
263 2 87.5828 23.7866 15.8119
264 2 91.4259 23.8989 15.7308
265 2 95.3474 23.8049 15.7905
266 2 99.0468 23.7747 -0.0767477
267 2 103.264 23.6245 15.8028
268 2 107.14 23.6958 15.8423
269 2 111.001 23.6033 0.16732
270 2 114.984 23.5009 15.816
271 2 118.907 23.6248 15.9077
272 2 122.623 23.6359 0.158246
273 2 126.497 23.3635 16.0799
274 2 130.509 23.3905 16.0313
275 2 134.399 23.3324 15.9158
276 2 138.432 23.4481 15.8999
277 2 142.077 23.3702 15.8209
278 2 146.134 23.5115 -0.0947774
279 2 150.138 23.1628 0.247992
280 2 154.045 23.2109 0.0973335
281 2 158.007 27.2558 0.343987
282 2 3.49027 27.0529 0.138168
283 2 7.41108 27.0533 0.0585195
284 2 11.5083 27.2456 15.8518
285 2 15.5252 26.9207 15.9062
286 2 19.3148 26.838 0.167836
287 2 23.3099 27.0781 16.0102
288 2 27.3305 27.1681 16.0772
289 2 31.3581 27.1232 0.0657439
290 2 35.285 27.0479 0.100971
291 2 39.1374 27.02 -0.080951
292 2 43.3521 27.3117 0.158783
293 2 47.2399 27.2294 0.16198
294 2 51.5007 27.5254 15.8808
295 2 55.41 27.5674 0.0675194
296 2 59.3899 27.5661 15.9612
297 2 63.5001 27.4951 16.1005
298 2 67.4896 27.6546 16.1631
299 2 71.5663 27.6424 15.9681
300 2 75.6665 27.6205 0.254618
301 2 79.3966 27.5041 0.302109
302 2 83.4346 27.9539 16.1245
303 2 87.5203 27.937 0.184314
304 2 91.5277 27.833 0.086971
305 2 95.4239 27.8151 0.166238
306 2 99.2134 27.795 0.159624
307 2 102.953 27.7277 15.9699
308 2 107.183 27.6769 -0.0406995
309 2 111.145 27.8126 15.9706
310 2 114.969 27.4176 16.0469
311 2 118.703 27.5236 0.201465
312 2 122.848 27.6399 0.132715
313 2 126.642 27.5243 15.9117
314 2 130.631 27.3919 15.9593
315 2 134.5 27.402 16.025
316 2 138.291 27.3407 15.9737
317 2 142.288 27.2444 -0.000136586
318 2 146.17 27.3595 0.247474
319 2 150.052 27.2503 0.124291
320 2 154.01 27.1923 -0.0413032
321 2 157.907 31.2179 16.0975
322 2 3.51553 30.9947 15.9482
323 2 7.46813 31.0192 15.8981
324 2 11.7007 31.174 0.166982
325 2 15.5627 31.0338 0.173885
326 2 19.5207 30.9565 16.0933
327 2 23.2457 30.7993 16.0628
328 2 27.1949 31.2069 0.121049
329 2 31.2503 31.1011 15.8665
330 2 35.2953 30.9018 16.0194
331 2 39.4667 31.2539 15.8589
332 2 43.3157 31.2513 0.260168
333 2 47.3837 31.4259 15.9775
334 2 51.3552 31.331 0.142668
335 2 55.484 31.3934 15.9568
336 2 59.5137 31.3555 0.197321
337 2 63.3845 31.333 15.8771
338 2 67.4559 31.7013 0.0539692
339 2 71.5733 31.441 0.297629
340 2 75.4097 31.5743 0.200414
341 2 79.3119 31.5915 15.943
342 2 83.3364 31.9155 0.137062
343 2 87.3728 31.795 15.9138
344 2 91.3306 32.0414 15.8876
345 2 95.552 31.8583 16.0289
346 2 99.3914 31.6932 0.210282
347 2 102.981 31.8399 15.9332
348 2 106.901 31.647 15.8343
349 2 110.978 31.5487 15.8541
350 2 115.03 31.6312 16.1093
351 2 118.806 31.59 16.1135
352 2 122.771 31.5304 16.091
353 2 126.745 31.4026 15.9322
354 2 130.638 31.5391 16.0376
355 2 134.376 31.39 16.081
356 2 138.435 31.4454 15.8871
357 2 142.075 31.3672 0.298076
358 2 146.256 31.1251 15.7998
359 2 150.263 31.239 0.0698096
360 2 153.991 31.2445 0.10751
361 2 -0.338368 35.22 0.264372
362 2 3.76924 35.1975 16.0341
363 2 7.56961 35.2393 15.7627
364 2 11.4948 35.1102 16.0306
365 2 15.449 35.0937 0.391171
366 2 19.3065 35.0224 0.243796
367 2 23.0183 35.0669 0.450402
368 2 27.2114 34.9625 0.156958
369 2 31.3155 35.1139 0.0596352
370 2 35.2376 35.0342 0.132094
371 2 39.2448 34.9797 0.200087
372 2 43.1614 35.1891 16.018
373 2 47.2839 35.1887 15.8998
374 2 51.331 35.1664 16.1598
375 2 55.3589 35.1984 0.142297
376 2 59.4682 35.287 0.274481
377 2 63.4195 35.2453 16.0159
378 2 67.2864 35.5609 0.0651415
379 2 71.4049 35.4003 0.299675
380 2 75.2128 35.5019 15.9179
381 2 79.5589 35.6696 0.230816
382 2 83.2688 35.4577 16.1607
383 2 87.5205 35.5463 0.268079
384 2 91.3542 35.635 0.12747
385 2 95.5569 35.755 15.8943
386 2 99.2331 35.7319 0.194421
387 2 103.239 35.7516 16.0064
388 2 107.14 35.6683 15.9131
389 2 111.103 35.6121 15.8855
390 2 115.057 35.6363 16.0187
391 2 118.774 35.5057 15.8171
392 2 122.824 35.5723 15.7525
393 2 126.674 35.6706 15.9456
394 2 130.8 35.481 15.9512
395 2 134.624 35.5122 15.8877
396 2 138.561 35.3452 0.0288094
397 2 142.364 35.353 0.0443376
398 2 146.135 35.2203 0.196012
399 2 150.14 35.209 15.9875
400 2 154.056 35.1017 0.109819
401 2 158.097 39.2544 0.223807
402 2 3.81349 39.1477 0.182588
403 2 7.75095 39.0936 0.113101
404 2 11.6793 39.0854 16.0702
405 2 15.4763 39.0682 0.257971
406 2 19.3381 38.9606 16.0746
407 2 23.2535 38.9811 16.0456
408 2 27.3815 38.9748 16.0768
409 2 31.1903 38.8952 0.141029
410 2 35.2379 39.0912 0.0774739
411 2 39.0607 38.9243 15.7867
412 2 43.2657 38.9528 0.346263
413 2 47.2548 39.3088 0.327681
414 2 51.3534 39.1581 16.0991
415 2 55.3624 39.0423 0.140616
416 2 59.3724 39.1257 0.295401
417 2 63.3467 39.3126 0.349147
418 2 67.3072 39.1886 0.172658
419 2 71.3112 39.3521 0.145857
420 2 75.2094 39.3579 0.247
421 2 79.1535 39.5309 0.447635
422 2 83.3276 39.6113 15.9988
423 2 87.3512 39.6815 15.9676
424 2 91.1718 39.4575 16.0527
425 2 95.3705 39.4973 15.8501
426 2 99.2672 39.7239 0.279221
427 2 103.32 39.7721 15.9849
428 2 107.272 39.6334 16.0876
429 2 110.979 39.7451 15.7916
430 2 115.079 39.6641 15.7701
431 2 118.882 39.4333 15.8093
432 2 122.718 39.3475 15.842
433 2 126.58 39.5663 0.133153
434 2 130.762 39.1401 15.9944
435 2 134.612 39.485 15.8257
436 2 138.626 39.5301 15.7878
437 2 142.447 39.4799 15.7676
438 2 146.356 39.1951 0.0928829
439 2 150.155 39.2332 15.8264
440 2 154.293 39.1048 16.011
441 2 157.908 43.2353 0.215044
442 2 3.97752 43.1096 15.8579
443 2 7.82228 43.2704 16.068
444 2 11.7208 42.9516 0.0327442
445 2 15.4863 43.0328 0.166518
446 2 19.3849 43.146 0.484393
447 2 23.2367 42.8783 16.0788
448 2 27.3629 42.9835 16.0323
449 2 31.1701 42.8555 0.150672
450 2 35.2289 42.7923 -0.144854
451 2 39.2272 43.0589 0.209171
452 2 43.2257 42.8991 -0.0702752
453 2 47.2827 42.9712 15.7968
454 2 51.312 42.9988 16.0353
455 2 55.2566 42.9586 0.0559925
456 2 59.1349 43.1382 16.0888
457 2 63.0873 43.139 0.126913
458 2 67.2761 43.1463 0.0700125
459 2 71.2422 43.4166 0.318816
460 2 75.1881 43.306 0.184815
461 2 79.2172 43.3915 0.336208
462 2 83.3241 43.6456 15.8508
463 2 87.2683 43.4179 16.1695
464 2 91.3609 43.3945 0.178193
465 2 95.2224 43.6635 0.233726
466 2 99.2008 43.5845 15.959
467 2 103.459 43.7384 16.0163
468 2 107.369 43.6186 15.9912
469 2 111.204 43.6444 16.0738
470 2 115.092 43.5744 15.9792
471 2 119.08 43.5974 15.8688
472 2 122.999 43.5351 16.0773
473 2 126.976 43.4345 0.107778
474 2 130.877 43.3685 0.189459
475 2 134.748 43.5355 15.8286
476 2 138.394 43.3445 15.9456
477 2 142.318 43.4462 15.9665
478 2 146.384 43.1999 0.0850586
479 2 150.399 43.3141 0.0257173
480 2 154.306 43.1887 0.372862
481 2 -0.361286 47.3502 0.240723
482 2 3.84597 47.3644 0.458038
483 2 7.7807 47.0922 0.153968
484 2 11.8243 47.0522 0.213057
485 2 15.4564 47.2507 0.333205
486 2 19.4696 46.9359 0.493556
487 2 23.3851 46.994 0.364746
488 2 27.2694 46.8568 15.9759
489 2 31.3071 46.882 0.275265
490 2 35.327 46.7469 0.109909
491 2 39.3093 46.5823 15.8808
492 2 43.2862 46.7877 15.9161
493 2 47.1263 46.672 -0.00788643
494 2 51.3175 46.9284 15.8981
495 2 55.0188 46.8654 15.9741
496 2 59.1865 47.1426 16.0041
497 2 63.1515 47.1671 0.111
498 2 67.2001 47.0729 0.109807
499 2 71.222 47.1213 15.9445
500 2 75.2517 47.2687 0.12014
501 2 79.1227 47.3041 15.8931
502 2 83.1903 47.2112 15.9628
503 2 87.3569 47.3273 0.32422
504 2 91.1789 47.341 0.207683
505 2 95.2537 47.6578 0.104861
506 2 99.2995 47.4853 0.181372
507 2 103.407 47.8682 0.181851
508 2 107.211 47.6346 15.7355
509 2 111.337 47.7005 15.8593
510 2 115.295 47.7126 0.122401
511 2 119.186 47.6807 15.9975
512 2 123.174 47.476 16.0708
513 2 127.242 47.6132 15.7599
514 2 130.754 47.5229 16.1129
515 2 134.515 47.4736 15.8461
516 2 138.717 47.2842 15.8464
517 2 142.77 47.3309 15.9268
518 2 146.467 47.3092 0.15122
519 2 150.44 47.5369 0.183925
520 2 154.19 47.3209 15.9674
521 2 158.316 51.2304 0.105936
522 2 3.9079 51.1869 15.7488
523 2 7.50754 51.2616 15.7944
524 2 11.4848 51.3309 16.0048
525 2 15.7087 51.0881 0.302082
526 2 19.3715 50.8209 15.9242
527 2 23.1065 51.1197 16.0612
528 2 27.5438 50.8652 15.8491
529 2 31.349 50.7488 0.25463
530 2 35.2322 50.5418 0.0466376
531 2 39.1038 50.6246 15.9428
532 2 43.0868 50.6559 15.9994
533 2 47.1962 50.916 0.298511
534 2 51.2764 50.8785 0.285227
535 2 55.0436 50.7512 0.44535
536 2 59.1682 51.0072 15.9789
537 2 63.0843 51.0153 15.9579
538 2 67.2204 51.0652 0.303023
539 2 71.131 50.9795 0.182246
540 2 75.2748 51.3721 0.185148
541 2 79.2114 51.1554 0.183141
542 2 83.1657 51.2853 0.136758
543 2 87.1403 51.2018 0.338798
544 2 91.1072 51.4167 0.264314
545 2 95.1663 51.4658 0.0274745
546 2 99.0958 51.6165 0.0763036
547 2 103.104 51.488 15.7084
548 2 107.298 51.5306 -0.020167
549 2 111.175 51.6422 0.0117286
550 2 115.334 51.5786 15.9239
551 2 119.191 51.6844 15.922
552 2 123.119 51.4865 15.8446
553 2 126.964 51.4899 15.9917
554 2 130.916 51.5306 0.0818758
555 2 134.806 51.2792 0.292
556 2 138.771 51.5028 0.291816
557 2 142.554 51.259 0.122328
558 2 146.594 51.4211 15.8823
559 2 150.473 51.5174 0.29783
560 2 154.472 51.383 0.0172105
561 2 158.239 55.1611 0.0769706
562 2 3.85673 55.0689 0.0546954
563 2 7.76245 54.9486 0.302955
564 2 11.7296 55.0499 0.110445
565 2 15.6343 54.9858 0.0846557
566 2 19.5818 55.2443 15.8657
567 2 23.5388 54.8543 16.0507
568 2 27.4802 54.8457 16.1188
569 2 31.4358 54.664 0.207298
570 2 35.1923 54.6601 0.310877
571 2 39.2559 54.714 15.715
572 2 42.9799 54.6106 16.0939
573 2 47.1749 54.7887 0.274641
574 2 51.2238 54.7523 15.9536
575 2 55.2486 54.7339 15.9234
576 2 59.102 54.82 15.8838
577 2 63.2357 54.8431 15.8656
578 2 67.0797 54.7645 0.19871
579 2 71.1607 54.8667 0.256718
580 2 75.1237 55.2147 15.9309
581 2 79.0967 55.0821 0.304232
582 2 83.1524 55.1519 0.265769
583 2 87.107 54.9969 0.257986
584 2 91.2054 55.3364 15.8124
585 2 95.1726 55.1527 0.14104
586 2 99.0837 55.4411 16.178
587 2 103.06 55.4572 15.8729
588 2 107.145 55.5397 0.174052
589 2 111.29 55.3039 15.8696
590 2 115.349 55.5173 16.1856
591 2 119.257 55.5227 15.8417
592 2 123.081 55.3941 0.157607
593 2 127.17 55.4703 15.9466
594 2 130.877 55.5882 16.1451
595 2 134.84 55.3769 0.154268
596 2 138.797 55.4806 15.8657
597 2 142.778 55.2353 0.128164
598 2 146.548 55.3993 0.0108901
599 2 150.409 55.2608 0.198848
600 2 154.559 55.1728 15.8731
601 2 158.49 59.4115 0.117164
602 2 3.95916 59.3113 15.7008
603 2 7.86457 58.9655 15.9669
604 2 11.6943 59.0868 0.165467
605 2 15.5455 59.1243 15.9802
606 2 19.6924 59.0196 0.262458
607 2 23.6202 59.1081 0.178682
608 2 27.4645 58.7432 0.233527
609 2 31.5531 58.6206 15.896
610 2 35.3036 58.6139 15.7941
611 2 39.3571 58.6119 15.807
612 2 43.2083 58.7803 15.8843
613 2 47.1605 58.4235 15.8881
614 2 51.0632 58.568 15.793
615 2 55.218 58.7132 16.0522
616 2 59.2096 58.8353 0.257758
617 2 63.1772 59.0142 15.8003
618 2 67.0809 58.9672 0.26114
619 2 71.0122 59.0265 16.0786
620 2 75.0705 58.9924 0.125912
621 2 79.3231 59.2407 0.172107
622 2 83.0878 59.0217 0.205386
623 2 87.1507 59.1554 15.939
624 2 91.1569 59.1346 15.9318
625 2 95.1774 59.1337 0.215119
626 2 99.0091 59.2447 0.235409
627 2 102.961 59.4346 16.0897
628 2 107.248 59.2518 0.264232
629 2 111.207 59.2838 15.8338
630 2 115.402 59.5368 15.9233
631 2 119.256 59.4181 15.7701
632 2 123.266 59.389 0.128311
633 2 127.336 59.4791 15.8871
634 2 131.06 59.7091 0.193454
635 2 135.08 59.4498 15.8093
636 2 138.901 59.5301 0.112734
637 2 142.944 59.4454 -0.0490615
638 2 146.799 59.4462 0.171253
639 2 150.803 59.3463 15.7638
640 2 154.469 59.2292 0.268835
641 2 0.0954242 63.2819 0.110555
642 2 4.12046 63.2227 0.130312
643 2 8.00337 63.0875 15.7933
644 2 11.7904 63.0046 16.1057
645 2 15.7054 62.9285 16.0088
646 2 19.8348 62.8902 0.260157
647 2 23.6716 63.0282 0.0385151
648 2 27.4515 62.8545 0.0840082
649 2 31.5125 62.8251 0.123598
650 2 35.3841 62.6863 0.349369
651 2 39.1428 62.6773 15.8553
652 2 43.374 62.689 0.0635295
653 2 47.2538 62.6563 16.064
654 2 51.0272 62.4958 15.9855
655 2 55.1249 62.5951 0.299808
656 2 58.9988 62.6912 15.9724
657 2 63.0102 62.6903 0.139355
658 2 66.9551 62.8168 15.884
659 2 71.0596 62.893 0.212135
660 2 75.0433 62.9824 0.152255
661 2 79.0386 63.0213 0.159978
662 2 83.11 62.9974 0.0881683
663 2 87.0739 63.1084 15.7415
664 2 91.0192 63.132 15.7563
665 2 95.098 63.0851 0.123302
666 2 99.045 63.1126 0.167367
667 2 103.081 63.1247 15.8884
668 2 107.281 63.4514 15.9639
669 2 110.957 63.2533 15.9
670 2 115.296 63.3749 0.15348
671 2 119.184 63.3333 15.7691
672 2 123.152 63.3424 0.256962
673 2 127.103 63.4017 15.7654
674 2 131.237 63.5877 0.00352674
675 2 135.102 63.572 16.0618
676 2 138.915 63.551 16.0161
677 2 142.875 63.5465 15.7769
678 2 146.801 63.6015 0.0765212
679 2 150.752 63.4438 16.0311
680 2 154.374 63.3277 0.249126
681 2 0.256994 67.3262 0.224474
682 2 4.28842 67.2823 0.232142
683 2 8.03316 67.0175 15.8757
684 2 11.9091 67.008 15.9738
685 2 15.8383 67.1918 0.18783
686 2 19.8089 66.9881 0.189372
687 2 23.7045 66.914 0.374234
688 2 27.7478 66.7968 0.216585
689 2 31.5987 66.7873 0.130541
690 2 35.4436 66.6529 0.0592638
691 2 39.3605 66.7274 15.785
692 2 43.339 66.7704 0.209152
693 2 47.3063 66.7592 15.9149
694 2 51.2692 66.5696 15.9856
695 2 54.9884 66.5323 15.9337
696 2 58.8498 66.4435 16.0334
697 2 62.9276 66.6101 15.9536
698 2 66.8293 66.6431 15.962
699 2 70.9566 66.5871 0.264867
700 2 74.9803 66.6685 16.0508
701 2 78.9957 66.8733 16.007
702 2 82.9498 66.9563 0.0710005
703 2 86.9748 66.9325 16.0155
704 2 91.1362 66.8875 15.8298
705 2 94.953 67.1025 0.0204249
706 2 99.0459 66.9841 0.0759473
707 2 103.128 67.1702 0.179837
708 2 107.166 67.0362 15.8654
709 2 111.069 67.3099 16.0323
710 2 115.075 67.3355 16.0705
711 2 119.269 67.3291 0.279222
712 2 123.06 67.1719 0.0936121
713 2 127.252 67.5139 0.319859
714 2 131.135 67.2998 15.6847
715 2 135.164 67.4974 0.387839
716 2 139.014 67.5808 0.0936874
717 2 143.008 67.5848 15.8763
718 2 146.782 67.5089 15.8546
719 2 150.74 67.504 15.9564
720 2 154.62 67.2443 0.057244
721 2 0.211052 71.1497 0.239628
722 2 4.14074 71.309 15.7653
723 2 8.00549 71.0332 0.206149
724 2 11.9013 71.0291 16.1035
725 2 16.0482 71.0393 0.184298
726 2 19.8152 70.9318 0.058647
727 2 23.6815 70.9379 0.158984
728 2 27.6152 70.7726 15.907
729 2 31.67 70.7527 0.0166682
730 2 35.2853 70.7204 -0.102897
731 2 39.3295 70.734 15.9919
732 2 43.3812 70.6794 0.0190321
733 2 47.2822 70.6632 15.9409
734 2 51.1288 70.6323 16.1999
735 2 55.0184 70.6228 0.219843
736 2 59.058 70.4449 0.427465
737 2 62.8235 70.5809 0.484023
738 2 66.8661 70.4621 15.9198
739 2 70.8465 70.6358 15.7828
740 2 74.851 70.6216 16.1064
741 2 79.0382 70.6947 0.141896
742 2 82.952 70.5965 0.221714
743 2 86.9489 70.7425 15.7609
744 2 90.8676 70.9188 15.7401
745 2 94.7344 70.9246 15.8904
746 2 98.9887 70.8591 15.8195
747 2 103.051 71.0975 16.1111
748 2 107.148 70.9655 15.8343
749 2 111.13 71.0413 15.9327
750 2 115.154 71.0336 0.145226
751 2 118.865 71.3636 16.0387
752 2 123.126 71.1787 0.245167
753 2 127.061 71.2929 15.9061
754 2 130.983 71.2712 16.0005
755 2 135.023 71.4969 15.9344
756 2 138.892 71.4458 16.0503
757 2 143.127 71.5675 0.214063
758 2 146.901 71.3712 0.136951
759 2 150.706 71.2829 0.200432
760 2 154.608 71.2519 15.8012
761 2 0.173172 75.6026 0.0682746
762 2 4.22814 75.1277 15.994
763 2 8.14225 75.1644 15.9464
764 2 12.2039 75.2232 16.02
765 2 15.9416 75.0828 15.9258
766 2 19.8777 75.1023 15.7673
767 2 23.8872 74.9565 15.8322
768 2 27.5144 74.8146 15.887
769 2 31.4081 74.7399 0.187472
770 2 35.3891 74.7776 15.9342
771 2 39.4298 74.7663 15.9264
772 2 43.4994 74.7791 0.18134
773 2 47.2099 74.6223 15.9641
774 2 51.1002 74.5744 0.101848
775 2 54.8894 74.4677 15.7652
776 2 58.7652 74.411 15.9792
777 2 63.1563 74.6797 15.8901
778 2 66.8629 74.3685 0.259435
779 2 70.9161 74.3684 0.310214
780 2 74.8762 74.6664 0.264431
781 2 78.8374 74.5574 0.101141
782 2 82.8219 74.68 0.0486973
783 2 86.7445 74.6307 -0.029894
784 2 90.7971 74.7416 15.6226
785 2 94.8816 74.6778 15.8474
786 2 98.901 74.8099 0.192738
787 2 102.978 74.9487 15.8351
788 2 107.024 74.9448 15.7316
789 2 111.071 75.0534 15.8125
790 2 114.994 75.0061 15.8003
791 2 118.856 75.1887 0.248649
792 2 123.002 75.0867 15.945
793 2 126.902 75.0616 16.1164
794 2 131.098 75.2397 0.144859
795 2 135.076 75.4208 15.9415
796 2 138.853 75.3875 15.7931
797 2 143.024 75.3365 15.9841
798 2 146.872 75.3689 16.1245
799 2 150.905 75.386 0.207104
800 2 154.801 75.371 0.0629098
801 2 0.459644 79.4126 0.110234
802 2 4.358 79.3094 15.8926
803 2 8.26197 79.2305 0.123709
804 2 12.2396 79.098 0.160475
805 2 16.1264 79.183 15.9783
806 2 19.9275 79.1423 15.8924
807 2 23.9006 79.0166 0.0626461
808 2 27.823 78.9218 0.118546
809 2 31.5024 78.9424 0.0633527
810 2 35.3554 79.0519 0.160914
811 2 39.4126 78.6043 16.0003
812 2 43.3337 78.7453 15.9934
813 2 47.1359 78.7274 15.7208
814 2 51.2796 78.6741 0.25336
815 2 54.9877 78.3702 0.13708
816 2 58.9448 78.371 15.8389
817 2 63.0696 78.4397 15.7947
818 2 67.0907 78.5323 0.129088
819 2 70.8627 78.4031 15.9808
820 2 74.8589 78.5906 0.208063
821 2 79.0366 78.5678 15.9215
822 2 82.8429 78.787 15.9462
823 2 86.8319 78.5258 -0.0842255
824 2 90.7991 78.45 0.123929
825 2 94.8027 78.522 0.0331372
826 2 98.7121 78.5929 15.7196
827 2 102.794 78.9156 15.9264
828 2 107.002 78.7236 0.184721
829 2 110.944 79.0115 0.240225
830 2 114.818 78.8071 -0.0323282
831 2 118.849 78.9974 0.172465
832 2 123.136 79.0306 15.8438
833 2 127.137 79.1323 0.446536
834 2 130.885 79.3134 15.9399
835 2 134.951 79.3822 0.243161
836 2 139.19 79.3068 15.9731
837 2 143.126 79.0819 15.8602
838 2 147.09 79.4095 15.9448
839 2 150.916 79.361 15.9932
840 2 154.776 79.3453 0.3626
841 2 0.399579 83.3523 15.934
842 2 4.28952 83.2252 15.7855
843 2 8.35641 83.3263 0.138124
844 2 12.265 83.1836 16.1917
845 2 15.9163 83.1867 15.9838
846 2 20.0997 83.053 0.157729
847 2 24.0039 82.9979 16.1268
848 2 27.7135 82.9716 0.328801
849 2 31.6812 83.0505 15.975
850 2 35.6458 82.7891 0.268743
851 2 39.4515 82.6891 0.148988
852 2 43.3649 82.557 15.8284
853 2 47.3812 82.6186 0.12812
854 2 51.2986 82.6629 -0.111149
855 2 55.1438 82.64 0.194332
856 2 59.1233 82.3887 15.9108
857 2 62.8073 82.3617 15.877
858 2 66.6532 82.3681 15.7338
859 2 70.8953 82.357 15.9371
860 2 74.7866 82.6527 15.9252
861 2 78.9025 82.5488 15.7271
862 2 82.9195 82.6367 0.173135
863 2 86.908 82.4786 0.0188112
864 2 90.8607 82.666 15.9653
865 2 94.9125 82.4399 0.0869709
866 2 98.6981 82.6704 16.0402
867 2 102.906 82.7613 0.0291343
868 2 106.867 82.6367 15.9229
869 2 110.96 82.8017 15.8632
870 2 114.918 82.9275 15.882
871 2 119.08 82.8319 15.9901
872 2 123.061 82.8714 15.9482
873 2 126.955 83.1948 15.953
874 2 131.015 83.1651 15.9001
875 2 134.931 83.2063 0.249385
876 2 139.112 83.1777 15.9815
877 2 142.98 83.0558 0.262582
878 2 147.107 83.2748 15.9503
879 2 151.011 83.3529 0.15528
880 2 154.839 83.3989 0.171147
881 2 0.705839 87.6052 16.0072
882 2 4.53937 87.2509 0.0963289
883 2 8.39688 87.2222 15.9473
884 2 12.2173 87.1494 15.7415
885 2 16.1905 87.1282 15.8366
886 2 20.0929 87.1288 15.8222
887 2 24.1365 86.959 15.966
888 2 27.9004 87.0132 0.191004
889 2 31.757 86.8912 15.8912
890 2 35.6381 86.7801 0.258467
891 2 39.5326 86.7951 15.7661
892 2 43.3861 86.816 15.8989
893 2 47.3807 86.5857 15.8288
894 2 51.1563 86.5493 15.946
895 2 55.0404 86.3879 16.0319
896 2 59.0688 86.402 0.191549
897 2 62.9748 86.3628 0.369798
898 2 66.884 86.3723 15.8611
899 2 70.8783 86.3021 0.116558
900 2 74.6384 86.3898 15.6505
901 2 78.6798 86.3019 0.264636
902 2 82.8091 86.2897 0.325458
903 2 86.8547 86.54 15.8572
904 2 90.8069 86.4783 16.1231
905 2 94.8262 86.5933 16.0798
906 2 98.919 86.6028 15.9265
907 2 102.939 86.6802 0.100043
908 2 106.878 86.7746 0.122786
909 2 110.978 86.6962 15.7422
910 2 114.939 86.7509 0.169052
911 2 118.984 86.7984 -0.104053
912 2 122.972 86.9945 0.0857917
913 2 126.93 87.0933 15.9554
914 2 130.946 87.0422 16.0237
915 2 134.962 87.0992 16.0602
916 2 139.099 87.0912 16.1391
917 2 143.283 87.0412 15.8159
918 2 147.08 87.2316 0.133465
919 2 151.005 87.3653 15.8931
920 2 155.199 87.3636 15.7903
921 2 0.735183 91.3919 0.203913
922 2 4.3853 91.2668 0.092383
923 2 8.28176 91.163 16.1359
924 2 12.2192 91.1481 16.0877
925 2 16.3245 91.0447 0.177943
926 2 20.2056 90.9971 0.321857
927 2 23.982 91.0667 16.0651
928 2 27.7572 90.9316 15.8981
929 2 31.8398 90.9827 15.8433
930 2 35.6879 90.9799 0.239173
931 2 39.6164 90.6197 16.0113
932 2 43.475 90.7784 15.7818
933 2 47.4277 90.5962 0.153145
934 2 51.1465 90.5939 0.241809
935 2 54.9981 90.5736 0.261692
936 2 59.1913 90.4972 0.274829
937 2 62.9338 90.2744 0.254474
938 2 66.7598 90.2068 16.0029
939 2 70.997 90.4103 15.9507
940 2 74.8481 90.1643 0.119416
941 2 78.8416 90.0942 0.165805
942 2 82.7267 90.2801 0.14397
943 2 86.7431 90.4279 0.0615975
944 2 90.7211 90.4216 0.247994
945 2 94.7454 90.5612 15.9583
946 2 98.8274 90.3407 16.0068
947 2 102.758 90.581 0.257262
948 2 106.77 90.607 16.1338
949 2 110.976 90.6167 15.8239
950 2 114.756 90.5408 0.12331
951 2 118.87 90.7425 0.144305
952 2 122.927 90.6641 15.9068
953 2 126.886 90.852 0.281213
954 2 130.941 91.1734 0.186158
955 2 134.887 90.9535 15.9635
956 2 138.876 90.9983 16.0629
957 2 142.789 90.9953 15.7487
958 2 146.935 91.0695 15.8668
959 2 151.109 91.0764 15.849
960 2 154.962 91.1721 15.8188
961 2 0.50998 95.1187 0.0305576
962 2 4.34748 95.0812 15.8267
963 2 8.28103 95.1561 15.8826
964 2 12.0357 95.4182 15.8341
965 2 16.2447 95.1463 15.9819
966 2 19.9876 95.1074 15.8575
967 2 24.126 94.9904 16.0216
968 2 27.874 95.0023 16.0055
969 2 31.8025 94.8992 16.1206
970 2 35.7131 94.8455 16.0381
971 2 39.6137 94.7387 15.9219
972 2 43.6235 94.5981 15.7248
973 2 47.481 94.7726 0.154135
974 2 51.4139 94.6205 15.9934
975 2 55.1368 94.5351 0.135034
976 2 59.2639 94.3983 16.1202
977 2 63.1868 94.4537 0.361012
978 2 66.8251 94.3452 0.33218
979 2 71.0211 94.2895 0.187613
980 2 74.9612 94.1765 0.0791823
981 2 78.6949 94.2681 15.785
982 2 82.7923 94.1003 0.345621
983 2 86.7783 94.2286 0.174615