ITEM: TIMESTEP
23500
ITEM: NUMBER OF ATOMS
32000
ITEM: BOX BOUNDS xy xz yz pp pp pp
0.0000000000000000e+00 1.5831999999999999e+02 0.0000000000000000e+00
0.0000000000000000e+00 1.5831999999999999e+02 0.0000000000000000e+00
1.6477834733897456e-01 1.5932933652660861e+01 0.0000000000000000e+00
ITEM: ATOMS id type x y z
1 2 158.022 157.671 15.9878
2 2 3.75084 157.793 15.9619
3 2 7.63857 158.003 0.0181542
4 2 11.648 157.789 0.217115
5 2 15.5939 158.083 0.0760153
6 2 19.7375 158.133 15.7471
7 2 23.8392 158.031 15.8624
8 2 27.5289 158.074 15.8603
9 2 31.6578 158.116 0.046717
10 2 35.4189 158.365 15.9141
11 2 39.6407 -0.00545515 16.037
12 2 43.7569 0.111689 0.128813
13 2 47.91 -0.0734235 15.9685
14 2 51.7611 0.0276328 0.380754
15 2 55.7456 158.377 0.246189
16 2 59.671 158.459 15.9454
17 2 63.4728 0.178596 15.9976
18 2 67.6681 -0.000473084 16.0654
19 2 71.6727 -0.00675835 15.9936
20 2 75.4807 158.276 15.9957
21 2 79.41 0.0659934 15.8034
22 2 83.216 158.383 15.7333
23 2 87.205 158.139 15.707
24 2 91.1057 157.98 0.068607
25 2 95.0585 157.904 15.8324
26 2 98.7478 158.031 15.9583
27 2 102.807 158.069 15.894
28 2 106.678 158 15.8523
29 2 110.69 157.898 0.165855
30 2 114.908 157.831 -0.0673065
31 2 118.627 157.649 15.8295
32 2 122.436 157.763 -0.0453171
33 2 126.396 157.771 0.235748
34 2 130.197 157.789 -0.0528891
35 2 134.124 157.807 15.7529
36 2 137.964 157.59 15.9746
37 2 141.903 157.382 15.9211
38 2 146.01 157.823 15.8783
39 2 149.959 157.758 0.06563
40 2 153.843 157.984 -0.000695207
41 2 158.105 3.5112 15.9576
42 2 3.47214 3.32498 16.0343
43 2 7.57385 3.49891 0.0978
44 2 11.5521 3.54155 15.875
45 2 15.356 3.57596 15.6538
46 2 19.4385 3.4621 15.7789
47 2 23.6406 3.67916 0.1278
48 2 27.6508 3.88113 0.136773
49 2 31.5625 3.86955 -0.00687507
50 2 35.6403 3.81587 0.290366
51 2 39.5684 3.6095 0.140653
52 2 43.6243 4.03959 15.8378
53 2 47.7695 3.91436 15.8258
54 2 51.6858 4.0432 15.9606
55 2 55.7747 3.99193 0.242854
56 2 59.7264 3.92742 15.8422
57 2 63.7868 4.27089 15.9361
58 2 67.5237 4.21579 15.8078
59 2 71.87 4.05526 15.8668
60 2 75.5523 3.76191 15.8323
61 2 79.3417 3.92475 15.5897
62 2 83.2883 3.78811 15.8312
63 2 87.383 3.79892 15.7961
64 2 91.0051 3.79354 0.0660506
65 2 94.997 3.80944 15.7436
66 2 98.9034 3.70729 0.0847492
67 2 102.941 3.69814 15.8444
68 2 106.795 3.62331 15.736
69 2 110.673 3.64466 -0.159388
70 2 114.604 3.47867 0.0847163
71 2 118.651 3.49897 0.19518
72 2 122.432 3.39163 -0.0949606
73 2 126.259 3.27345 0.253904
74 2 130.181 3.68851 0.0123862
75 2 134.328 3.47 15.8498
76 2 138.071 3.29043 0.210045
77 2 141.988 3.42065 0.140355
78 2 145.821 3.21533 0.29672
79 2 149.993 3.33548 15.6812
80 2 153.961 3.64676 16.0038
81 2 157.89 7.33737 15.8484
82 2 3.57109 7.43681 15.8123
83 2 7.64807 7.33416 15.731
84 2 11.6656 7.42394 0.113192
85 2 15.5134 7.38324 15.7817
86 2 19.5736 7.49103 15.8291
87 2 23.4169 7.51831 0.0949336
88 2 27.5254 7.75186 15.9379
89 2 31.4935 7.78401 15.9012
90 2 35.5414 7.64398 16.0308
91 2 39.6666 7.65814 0.427957
92 2 43.5826 7.70106 0.224351
93 2 47.64 7.92488 15.8757
94 2 51.5816 7.90821 0.0822327
95 2 55.6356 7.84496 15.9903
96 2 59.783 8.09801 0.0371974
97 2 63.4581 8.01071 15.7297
98 2 67.4901 8.21525 15.9232
99 2 71.6187 8.19271 15.881
100 2 75.5564 7.95427 15.7599
101 2 79.484 8.04533 0.193968
102 2 83.4141 7.93822 15.8485
103 2 87.4589 7.90971 15.992
104 2 91.2965 7.86125 15.8433
105 2 95.0451 7.73802 15.9041
106 2 98.9426 7.63179 0.139278
107 2 103.116 7.71972 0.218648
108 2 106.839 7.62213 15.7017
109 2 110.565 7.5814 0.0358581
110 2 114.672 7.50691 15.7285
111 2 118.635 7.49412 15.9874
112 2 122.598 7.45529 15.8129
113 2 126.551 7.40102 15.8313
114 2 130.449 7.4043 0.115832
115 2 134.185 7.40355 0.225794
116 2 137.843 7.49931 15.9255
117 2 141.868 7.2124 15.8587
118 2 146.144 7.2086 0.426722
119 2 149.817 7.22128 0.190356
120 2 153.917 7.32907 15.985
121 2 157.868 11.2779 15.8237
122 2 3.60556 11.2953 15.9812
123 2 7.622 11.5601 15.9091
124 2 11.518 11.3807 0.0129621
125 2 15.6505 11.4751 15.9556
126 2 19.4093 11.2508 15.7386
127 2 23.4974 11.5501 15.9018
128 2 27.4813 11.6076 15.8015
129 2 31.4673 11.5209 15.9134
130 2 35.49 11.5979 15.8013
131 2 39.5229 11.6848 16.0931
132 2 43.5795 11.7453 0.396379
133 2 47.47 11.7606 0.263489
134 2 51.6562 11.773 15.7845
135 2 55.6454 11.7455 0.322213
136 2 59.6693 11.7798 15.9377
137 2 63.6665 11.9592 0.083071
138 2 67.6668 11.9405 15.8427
139 2 71.7606 11.9225 15.976
140 2 75.7143 11.9586 16.072
141 2 79.5406 11.9156 15.7999
142 2 83.5266 11.9926 15.6214
143 2 87.3469 11.7613 0.115923
144 2 91.4478 11.8474 0.0214421
145 2 95.2176 11.7841 15.8956
146 2 98.9711 11.9032 16.0327
147 2 102.92 11.6133 0.0567781
148 2 106.882 11.6206 15.8379
149 2 110.874 11.4483 0.132996
150 2 114.724 11.6014 15.8251
151 2 118.532 11.492 0.109381
152 2 122.598 11.5466 0.0279499
153 2 126.499 11.3684 15.8202
154 2 130.428 11.3917 16.0869
155 2 134.234 11.376 0.165849
156 2 137.983 11.4137 0.125095
157 2 141.913 11.4116 0.14017
158 2 145.917 11.299 0.204175
159 2 149.956 11.081 0.352912
160 2 154.043 11.3834 0.0852327
161 2 157.756 15.3435 15.8173
162 2 3.35808 15.2467 15.8637
163 2 7.48345 15.2485 16.0176
164 2 11.4827 15.4402 15.936
165 2 15.46 15.4439 15.8098
166 2 19.4746 15.3847 0.238803
167 2 23.3305 15.1956 0.162649
168 2 27.4838 15.5078 15.9146
169 2 31.4264 15.6129 0.0700489
170 2 35.3544 15.5606 15.8841
171 2 39.5514 15.6361 0.16615
172 2 43.4971 15.5594 0.000658376
173 2 47.6696 15.5675 0.0291754
174 2 51.419 15.8785 0.299897
175 2 55.3685 15.7717 15.9605
176 2 59.7151 15.8666 0.157041
177 2 63.6352 15.9473 16.0029
178 2 67.5314 15.8454 15.968
179 2 71.5021 15.9052 0.259466
180 2 75.644 15.8222 0.396861
181 2 79.7555 16.0472 15.9117
182 2 83.5832 15.9053 0.154879
183 2 87.5608 15.8443 15.7647
184 2 91.3719 16.0067 -0.0471641
185 2 95.2691 15.7805 16.016
186 2 99.1871 15.6094 15.8813
187 2 103.181 15.7509 16.0458
188 2 107.011 15.6985 15.8947
189 2 110.908 15.57 15.9552
190 2 114.993 15.5483 15.8429
191 2 118.703 15.4739 0.00781749
192 2 122.496 15.4686 15.8582
193 2 126.594 15.4071 15.671
194 2 130.387 15.4668 0.0228819
195 2 134.283 15.456 0.219046
196 2 138.191 15.247 0.28008
197 2 142.308 15.2751 15.9889
198 2 146.185 15.203 0.0690949
199 2 149.921 15.2748 0.205295
200 2 153.74 15.3011 16.0767
201 2 157.884 19.2005 15.988
202 2 3.39883 19.1192 0.132012
203 2 7.61713 19.162 0.18925
204 2 11.4256 19.3379 15.9021
205 2 15.3863 19.3882 15.7067
206 2 19.1509 19.3239 16.0196
207 2 23.4505 19.3049 15.9669
208 2 27.4395 19.2484 15.977
209 2 31.4621 19.518 15.9773
210 2 35.5205 19.4347 15.721
211 2 39.5738 19.5075 0.21806
212 2 43.2703 19.4441 15.9828
213 2 47.3985 19.4931 15.8919
214 2 51.5072 19.6099 0.109041
215 2 55.5103 19.6588 16.048
216 2 59.5898 19.5928 16.0512
217 2 63.323 19.6957 15.7231
218 2 67.5346 19.7895 16.0754
219 2 71.6047 19.7275 0.304846
220 2 75.5901 20.0223 0.303023
221 2 79.6281 19.9451 0.408052
222 2 83.4881 19.8738 15.7991
223 2 87.5085 20.0155 0.255792
224 2 91.4472 19.9788 -0.155517
225 2 95.2123 19.9703 15.8715
226 2 99.1051 19.8345 15.8409
227 2 103.267 19.6752 15.8006
228 2 107.059 19.7721 15.8821
229 2 111.004 19.5766 0.175455
230 2 114.911 19.4395 16.0742
231 2 118.792 19.55 16.02
232 2 122.717 19.489 15.8397
233 2 126.654 19.6458 15.9506
234 2 130.631 19.4025 16.0368
235 2 134.43 19.5079 0.216912
236 2 138.405 19.2968 16.0692
237 2 142.116 19.1766 16.0188
238 2 146.25 19.3213 0.153539
239 2 149.959 19.1756 16.0699
240 2 153.919 19.3064 0.156621
241 2 157.818 23.1716 16.0857
242 2 3.72894 23.1533 15.8404
243 2 7.574 23.1335 0.278318
244 2 11.42 23.1868 0.143588
245 2 15.3557 23.2599 15.8633
246 2 19.1867 23.2042 15.8276
247 2 23.2484 23.1509 15.8426
248 2 27.2525 23.1006 15.595
249 2 31.2477 23.2566 0.197307
250 2 35.5706 23.3725 15.8403
251 2 39.3834 23.3623 0.259475
252 2 43.3147 23.4214 16.1228
253 2 47.1989 23.2907 0.272645
254 2 51.3002 23.4191 0.165358
255 2 55.4056 23.6388 0.228053
256 2 59.5315 23.5656 16.1038
257 2 63.4415 23.526 0.11983
258 2 67.3497 23.6483 16.0524
259 2 71.3616 23.5585 15.9001
260 2 75.517 23.882 0.0770869
261 2 79.6636 23.7672 16.0491
262 2 83.526 23.7199 0.164391
263 2 87.5351 23.8862 16.0392
264 2 91.1902 23.7357 15.7283
265 2 95.3435 23.7729 15.9316
266 2 99.2378 23.9377 0.113642
267 2 103.067 23.7611 15.9722
268 2 106.881 23.6297 16.0255
269 2 110.827 23.7285 0.18089
270 2 114.814 23.5073 15.9552
271 2 118.648 23.4742 16.0414
272 2 122.577 23.4225 0.253776
273 2 126.582 23.371 15.8916
274 2 130.364 23.4934 15.5709
275 2 134.295 23.6269 15.894
276 2 138.337 23.3121 15.8842
277 2 142.429 23.4571 16.1221
278 2 146.139 23.2743 0.35769
279 2 150.033 23.2216 0.275973
280 2 153.966 23.329 0.271523
281 2 158.109 27.1732 0.244051
282 2 3.57321 27.1365 0.213433
283 2 7.64252 27.0185 0.111632
284 2 11.098 27.0977 15.9188
285 2 15.2732 26.967 15.7829
286 2 19.3598 27.2495 0.121606
287 2 23.4357 27.2494 15.9482
288 2 27.3723 27.2243 15.8584
289 2 31.439 27.2372 0.210155
290 2 35.3552 27.3094 0.183082
291 2 39.5854 27.4953 0.223502
292 2 43.3627 27.2005 0.0214128
293 2 47.4853 27.3666 0.116632
294 2 51.4322 27.3211 15.774
295 2 55.3405 27.3432 0.189872
296 2 59.3935 27.5514 15.9488
297 2 63.2661 27.7066 15.933
298 2 67.5299 27.4682 15.9716
299 2 71.3621 27.5698 15.6994
300 2 75.516 27.6152 0.00702955
301 2 79.3022 27.7118 0.157692
302 2 83.4135 27.53 15.9286
303 2 87.4823 27.8177 0.206903
304 2 91.5584 27.5229 0.102648
305 2 95.1934 27.7143 0.263689
306 2 99.326 27.9065 0.205448
307 2 103.29 27.6421 15.8575
308 2 107.204 27.5473 0.219971
309 2 110.931 27.5944 15.7881
310 2 114.811 27.559 15.8791
311 2 118.737 27.4781 0.212844
312 2 122.684 27.3902 0.108967
313 2 126.482 27.5165 15.9749
314 2 130.404 27.5116 15.8603
315 2 134.454 27.3874 15.7346
316 2 138.542 27.3138 15.9616
317 2 142.41 27.5189 0.239311
318 2 146.212 27.4362 0.183974
319 2 150.084 27.2835 0.253832
320 2 153.835 27.4435 0.322832
321 2 158.069 31.2846 15.7038
322 2 3.64744 31.0921 15.7917
323 2 7.55105 31.1412 15.8953
324 2 11.3484 31.0902 0.232562
325 2 15.0636 30.8884 0.179904
326 2 19.2517 31.1556 15.8777
327 2 23.4636 31.0622 15.886
328 2 27.3793 31.1424 0.193697
329 2 31.4655 31.0893 15.9234
330 2 35.4048 31.2352 15.7903
331 2 39.1776 31.2129 15.7908
332 2 43.4036 31.2184 -0.111143
333 2 47.2363 31.2343 16.0105
334 2 51.3409 31.3074 0.0634535
335 2 55.2407 31.2894 15.9494
336 2 59.3623 31.3856 0.287668
337 2 63.2572 31.5211 16.1045
338 2 67.2995 31.2303 0.293679
339 2 71.4268 31.5091 0.147961
340 2 75.3881 31.4974 0.205506
341 2 79.3638 31.6064 15.9894
342 2 83.5767 31.7665 0.142081
343 2 87.4732 31.7093 15.7053
344 2 91.397 31.7168 16.0268
345 2 95.2797 31.8069 15.719
346 2 99.3054 31.8722 -0.0352095
347 2 103.42 31.7265 15.8946
348 2 107.295 31.578 16.0914
349 2 111.259 31.5921 15.94
350 2 114.89 31.6567 15.8025
351 2 118.957 31.4317 15.7738
352 2 122.758 31.4623 15.9061
353 2 126.532 31.4446 15.7685
354 2 130.816 31.3422 15.9235
355 2 134.692 31.4182 15.9066
356 2 138.666 31.265 15.948
357 2 142.492 31.3157 0.0912894
358 2 146.34 31.4313 16.1571
359 2 150.106 31.1862 0.225056
360 2 154.135 31.4266 0.207599
361 2 -0.124795 35.2976 0.0511435
362 2 3.63485 35.1686 15.847
363 2 7.48736 35.1319 16.1847
364 2 11.441 35.0091 15.9847
365 2 15.4589 34.9599 0.0912558
366 2 19.266 34.9281 0.162231
367 2 23.3224 34.9448 0.145982
368 2 27.4724 34.8047 0.286665
369 2 31.1632 34.8788 0.281193
370 2 35.2588 35.0921 0.159933
371 2 39.5044 35.0477 0.213309
372 2 43.4279 35.1978 15.7837
373 2 47.4409 35.0026 15.8203
374 2 51.3843 35.0958 15.9956
375 2 55.1599 35.1888 0.146653
376 2 59.2561 35.3286 0.114242
377 2 63.2511 35.2871 15.8779
378 2 67.1938 35.3562 0.38087
379 2 71.6077 35.2797 0.0157456
380 2 75.4762 35.4174 16.039
381 2 79.3539 35.3307 0.221447
382 2 83.2969 35.4978 16.014
383 2 87.5339 35.6335 0.0665857
384 2 91.3739 35.5571 0.0861981
385 2 95.2986 35.748 15.7687
386 2 99.5103 35.7159 0.112547
387 2 103.441 35.7048 15.7957
388 2 107.331 35.6146 15.8638
389 2 111.182 35.5793 16.1083
390 2 115.104 35.4806 15.8266
391 2 118.983 35.5526 16.1407
392 2 122.864 35.5887 16.1823
393 2 126.925 35.6959 15.9553
394 2 130.644 35.4623 15.7936
395 2 134.512 35.3851 16.1442
396 2 138.568 35.4251 0.184772
397 2 142.502 35.3192 0.335953
398 2 146.431 35.3779 0.148926
399 2 150.446 35.3441 15.8473
400 2 154.22 35.5256 0.0210129
401 2 158.131 39.3159 0.094128
402 2 3.6333 39.1011 0.30953
403 2 7.41888 39.1993 0.232139
404 2 11.4741 39.0788 16.0616
405 2 15.3571 38.9024 0.177554
406 2 19.4257 38.9306 16.0463
407 2 23.3297 38.9456 15.8689
408 2 27.3649 39.1479 16.05
409 2 31.1198 39.1165 -0.0759978
410 2 35.3584 38.7975 0.133052
411 2 39.3831 38.9538 16.0364
412 2 43.483 38.9164 0.24731
413 2 47.2937 38.8951 0.117558
414 2 51.2711 39.0563 15.8272
415 2 55.2633 39.1492 0.406174
416 2 59.4122 39.1234 0.198848
417 2 63.4333 39.1854 0.130873
418 2 67.2397 39.3589 0.413646
419 2 71.2752 39.3206 0.0850397
420 2 75.5753 39.2024 0.227805
421 2 79.1791 39.4158 0.0561908
422 2 83.4163 39.3633 15.9096
423 2 87.4582 39.6359 15.9472
424 2 91.3685 39.6098 16.0574
425 2 95.2226 39.7086 16.1268
426 2 99.3804 39.8117 0.11498
427 2 103.294 39.5649 15.9637
428 2 107.421 39.6823 16.0846
429 2 111.161 39.5596 15.9156
430 2 115.031 39.6293 16.0786
431 2 119.097 39.5947 15.9636
432 2 123.078 39.595 15.9069
433 2 126.771 39.6181 0.244425
434 2 130.802 39.6959 15.9719
435 2 134.629 39.4446 15.8786
436 2 138.596 39.4674 15.9551
437 2 142.499 39.2725 16.1357
438 2 146.489 39.3731 0.0486426
439 2 150.392 39.4764 16.1442
440 2 154.349 39.4804 15.9885
441 2 158.243 43.2531 0.379455
442 2 3.709 43.2385 15.9645
443 2 7.45245 43.0512 15.8649
444 2 11.5434 43.0288 0.30461
445 2 15.4361 42.9355 0.260303
446 2 19.44 42.9225 0.0917307
447 2 23.4272 42.8624 16.037
448 2 27.2743 42.8225 16.086
449 2 31.156 43.0266 0.209306
450 2 35.2624 42.9379 0.261437
451 2 39.2665 42.9973 0.278201
452 2 43.464 43.034 0.247499
453 2 47.3266 42.9494 16.1093
454 2 51.3004 43.0026 15.9191
455 2 55.4783 43.2287 0.265602
456 2 59.1786 43.0674 15.8053
457 2 63.1974 42.8198 0.207672
458 2 67.3511 43.1964 0.342662
459 2 71.3942 43.1671 0.150735
460 2 75.2969 43.5111 0.236756
461 2 79.3473 43.3343 0.0976466
462 2 83.3633 43.2765 16.1127
463 2 87.2623 43.4976 15.9119
464 2 91.3477 43.6317 0.159246
465 2 95.299 43.6658 0.0853911
466 2 99.3612 43.4792 16.1214
467 2 103.325 43.5805 15.9008
468 2 107.203 43.6941 15.8999
469 2 111.168 43.7238 15.82
470 2 115.132 43.6766 15.6948
471 2 119.104 43.5806 15.8565
472 2 122.669 43.7178 15.9208
473 2 126.545 43.6199 0.0838582
474 2 130.809 43.5937 0.0958398
475 2 134.653 43.4341 16.0169
476 2 138.544 43.3582 16.0322
477 2 142.496 43.2558 16.0288
478 2 146.512 43.4534 0.140968
479 2 150.311 43.5549 0.204775
480 2 154.347 43.2969 0.124478
481 2 -0.0796359 47.1098 0.332172
482 2 3.82741 47.2329 0.316612
483 2 7.4986 47.0722 0.228683
484 2 11.7008 46.9084 0.176359
485 2 15.6273 46.9559 0.34578
486 2 19.6148 46.9386 0.137339
487 2 23.2605 46.7929 0.117496
488 2 27.2997 46.8175 16.0891
489 2 31.3653 46.8635 0.0932708
490 2 35.2679 46.9226 0.242382
491 2 38.9997 46.9262 15.8633
492 2 43.1564 46.8262 15.7514
493 2 47.1668 46.9404 0.244937
494 2 51.3523 46.975 16.0807
495 2 55.3104 47.1324 16.0233
496 2 59.4157 46.9099 16.1599
497 2 63.3011 47.0033 0.271801
498 2 67.3327 47.0485 0.360955
499 2 71.1933 47.1741 16.012
500 2 75.271 47.1301 0.352258
501 2 79.1397 47.2237 15.8843
502 2 83.1847 47.1685 15.9628
503 2 87.2721 47.2891 0.252843
504 2 91.3479 47.429 0.152052
505 2 95.4406 47.2563 0.0512087
506 2 99.3338 47.5891 0.103659
507 2 103.26 47.5342 0.222302
508 2 107.281 47.6674 16.07
509 2 111.25 47.6185 15.9884
510 2 115.118 47.5794 0.0616588
511 2 118.811 47.6581 15.8849
512 2 122.724 47.561 15.7629
513 2 126.702 47.6578 16.0668
514 2 130.745 47.5189 15.803
515 2 134.718 47.4639 15.8243
516 2 138.694 47.6096 15.9564
517 2 142.613 47.4874 15.852
518 2 146.486 47.3531 0.199209
519 2 150.464 47.215 0.253459
520 2 154.269 47.2218 15.9466
521 2 158.238 51.2934 0.375151
522 2 3.71435 51.3909 16.1097
523 2 7.8657 51.29 16.1372
524 2 11.7626 51.116 16.0976
525 2 15.5753 50.9314 0.209491
526 2 19.6482 50.8078 16.1023
527 2 23.6051 50.9552 16.1223
528 2 27.4057 50.9284 16.1424
529 2 31.2286 50.8071 0.217179
530 2 35.2804 50.884 0.257426
531 2 39.3648 50.7225 15.9558
532 2 43.2083 50.8497 15.8949
533 2 46.9291 50.5324 -0.0250489
534 2 51.2551 50.9185 0.083261
535 2 55.3172 50.8777 -0.0204363
536 2 59.2512 50.8787 15.994
537 2 63.2039 50.8206 16.227
538 2 67.1483 50.8613 0.0630018
539 2 71.114 51.2727 0.280111
540 2 75.2048 51.0925 0.345155
541 2 79.1771 51.1407 0.219009
542 2 83.1574 51.2725 0.0721302
543 2 87.1713 51.2906 0.245737
544 2 91.18 51.2686 0.189349
545 2 95.3451 51.4021 0.250355
546 2 99.4656 51.4427 0.192287
547 2 103.366 51.4454 16.1565
548 2 107.429 51.5215 0.285928
549 2 111.213 51.6463 0.24261
550 2 115.151 51.5864 16.0327
551 2 119.025 51.6958 16.0895
552 2 123.238 51.541 16.0246
553 2 126.831 51.6691 16.0603
554 2 130.999 51.5621 0.143563
555 2 134.824 51.3817 0.087461
556 2 138.651 51.4746 0.0590165
557 2 142.43 51.4979 0.09513
558 2 146.653 51.3806 15.9116
559 2 150.431 51.2274 -0.0219906
560 2 154.069 51.4419 0.0489236
561 2 158.22 55.2733 0.206063
562 2 3.93314 55.0548 0.152918
563 2 7.70986 55.2939 0.218642
564 2 11.938 55.1428 0.296718
565 2 15.5628 55.033 0.427533
566 2 19.5923 55.0241 15.9754
567 2 23.4437 54.7269 15.9355
568 2 27.4802 55.1219 15.9629
569 2 31.229 55.0252 0.0605913
570 2 35.2942 54.9201 -0.0568164
571 2 39.3984 54.8457 15.7062
572 2 43.3957 54.6811 15.8771
573 2 47.1237 54.7916 0.293724
574 2 50.972 54.7583 15.8708
575 2 55.0674 54.8374 16.1241
576 2 59.2455 54.7526 16.0336
577 2 63.1672 54.8667 16.1632
578 2 67.0884 54.9716 0.0923733
579 2 71.0551 55.0125 0.144853
580 2 75.0054 54.9751 16.035
581 2 79.1108 54.9183 0.118261
582 2 82.7719 55.0681 0.112551
583 2 87.0865 55.2062 0.255854
584 2 91.3109 55.2647 15.8963
585 2 95.2321 55.2584 0.12851
586 2 99.1168 55.3922 15.8402
587 2 103.147 55.3402 15.8578
588 2 107.295 55.5369 0.125161
589 2 111.207 55.6192 15.9524
590 2 115.181 55.5243 15.9523
591 2 119.3 55.59 16.1266
592 2 123.072 55.6108 0.211885
593 2 127.192 55.5919 16.0405
594 2 131.144 55.5473 15.7592
595 2 134.893 55.5063 0.18191
596 2 138.571 55.4575 16.0441
597 2 142.596 55.317 0.222506
598 2 146.549 55.375 0.285694
599 2 150.33 55.391 0.0540019
600 2 154.27 55.3505 15.9109
601 2 158.275 59.2785 0.226667
602 2 3.91151 59.1078 16.1316
603 2 7.93238 59.1867 15.9082
604 2 11.8546 59.0822 0.27444
605 2 15.9788 58.8965 16.1086
606 2 19.6865 59.0588 0.29138
607 2 23.5206 59.02 0.288031
608 2 27.4741 58.7593 0.177849
609 2 31.503 58.845 15.9149
610 2 35.3512 58.7591 15.9521
611 2 39.259 58.7281 16.1514
612 2 43.1814 58.6367 16.0728
613 2 47.2177 58.6629 16.0927
614 2 50.8425 58.6377 16.0526
615 2 55.1026 58.5856 15.9911
616 2 59.0968 58.5069 0.196457
617 2 62.864 58.5988 16.0514
618 2 67.0258 58.7313 0.289198
619 2 70.9977 58.8334 15.9791
620 2 75.1335 58.8771 0.195118
621 2 79.0261 58.798 0.120563
622 2 83.0182 59.1686 0.110722
623 2 87.144 58.9365 15.8107
624 2 91.1587 59.1499 15.869
625 2 95.2546 59.1336 0.120446
626 2 99.2884 59.0409 0.0835552
627 2 103.132 59.2245 15.6974
628 2 106.917 59.4111 0.0223888
629 2 111.095 59.4805 15.9927
630 2 115.241 59.3995 15.9879
631 2 119.105 59.66 16.1605
632 2 123.133 59.781 0.201513
633 2 127.091 59.6511 16.1249
634 2 131.006 59.5325 0.299364
635 2 134.916 59.682 15.742
636 2 138.559 59.3516 0.0739506
637 2 142.817 59.4395 0.195361
638 2 146.616 59.3172 0.103349
639 2 150.653 59.4028 15.8392
640 2 154.24 59.3002 -0.125485
641 2 0.229962 62.9788 0.0426069
642 2 3.98787 63.039 0.136
643 2 7.78399 63.2153 16.1013
644 2 11.9623 63.1312 16.016
645 2 15.7828 62.9468 15.8627
646 2 19.7983 62.9619 0.0527033
647 2 23.4993 62.7825 0.181388
648 2 27.5336 62.7611 0.328047
649 2 31.4719 62.8499 0.273062
650 2 35.4548 62.8202 0.0887479
651 2 39.3907 62.8254 16.0227
652 2 43.081 62.534 0.156758
653 2 47.1037 62.6188 15.8561
654 2 51.0782 62.7578 16.0097
655 2 54.917 62.4822 0.218537
656 2 58.9597 62.7694 15.9886
657 2 63.1944 62.5101 0.210165
658 2 67.0476 62.6598 16.1557
659 2 71.0177 62.731 0.0642464
660 2 75.1152 62.869 0.0886627
661 2 79.0681 62.6837 0.132644
662 2 83.0138 62.8964 0.135102
663 2 87.0021 62.9474 15.8178
664 2 91.1406 62.9881 15.837
665 2 95.1356 63.1136 0.225968
666 2 99.2155 63.1786 0.0578264
667 2 103.084 63.2684 15.9184
668 2 107.148 63.3855 15.9151
669 2 111.094 63.2943 16.0519
670 2 115.078 63.2201 0.388873
671 2 119.234 63.426 16.0522
672 2 123.188 63.5854 0.253502
673 2 127.075 63.4213 15.989
674 2 131.172 63.5667 0.322264
675 2 134.985 63.5113 15.6621
676 2 138.705 63.3465 16.0897
677 2 142.963 63.5353 15.9847
678 2 146.731 63.2922 0.104381
679 2 150.717 63.4425 15.937
680 2 154.581 63.3251 -0.0524463
681 2 0.111885 67.182 0.196315
682 2 4.14123 67.1009 0.147724
683 2 8.15433 67.1498 15.8706
684 2 11.956 67.2621 15.9147
685 2 15.7755 67.2462 0.0810477
686 2 19.6212 66.9723 0.0661489
687 2 23.6935 67.0644 0.161158
688 2 27.6499 66.8611 0.199321
689 2 31.4653 66.7862 0.279979
690 2 35.3531 66.8188 0.289174
691 2 39.355 66.7594 16.1263
692 2 43.2994 66.6199 0.169438
693 2 47.2035 66.6666 15.8008
694 2 50.925 66.4455 15.9363
695 2 54.9474 66.5569 15.9737
696 2 59.042 66.569 15.7673
697 2 62.8813 66.8093 15.9964
698 2 67.0566 66.8014 15.8447
699 2 70.9719 66.7545 0.063318
700 2 75.0855 66.6186 15.745
701 2 79.0384 66.6813 15.8574
702 2 83.1648 66.8067 -0.00119541
703 2 86.9313 66.7503 15.7245
704 2 91.0889 66.8814 15.8802
705 2 95.0785 66.9268 -0.00430985
706 2 98.9972 67.0256 0.241508
707 2 103.06 67.2049 0.144385
708 2 106.979 67.2089 15.8097
709 2 111.327 67.2787 15.9268
710 2 115.265 67.338 15.9551
711 2 119.199 67.3446 0.146475
712 2 123.109 67.4429 0.147927
713 2 127.112 67.3438 0.174004
714 2 131.145 67.3826 16.0603
715 2 135.031 67.3773 0.112534
716 2 138.953 67.4574 0.343693
717 2 142.856 67.2007 16.0109
718 2 146.772 67.3564 15.8876
719 2 150.65 67.2658 15.8873
720 2 154.519 67.4256 0.0856495
721 2 0.436447 71.2891 0.249654
722 2 4.35804 71.1322 16.0485
723 2 8.27042 71.2323 0.0364426
724 2 12.1343 71.2555 15.8007
725 2 16.1179 71.1255 0.251835
726 2 19.8394 71.0504 0.311024
727 2 23.7611 70.9403 0.195071
728 2 27.6253 70.8095 16.0645
729 2 31.5564 70.9469 0.196228
730 2 35.4555 70.8369 0.346641
731 2 39.4557 70.7845 15.7675
732 2 43.3307 70.5892 0.419093
733 2 46.9796 70.6723 15.971
734 2 50.8878 70.5472 15.9253
735 2 55.118 70.5551 0.143979
736 2 58.9706 70.4621 -0.0102866
737 2 63.1138 70.4774 0.024672
738 2 66.9928 70.6431 16.0327
739 2 70.971 70.7258 15.9314
740 2 75.026 70.7002 15.6149
741 2 79.0729 70.7263 0.0330967
742 2 82.8992 70.5623 -0.00926027
743 2 87.0454 70.8168 15.8898
744 2 91.0675 70.818 16.0034
745 2 95.0492 70.9545 16.1775
746 2 98.9861 70.9973 15.8608
747 2 102.709 71.0596 15.6807
748 2 106.993 71.1579 16.0826
749 2 111.05 71.0537 15.8601
750 2 115.039 71.2816 0.298785
751 2 119.046 71.1763 16.0127
752 2 123.115 71.3622 0.127833
753 2 127.071 71.3531 15.8301
754 2 131.116 71.485 15.851
755 2 135.281 71.5033 15.889
756 2 139.154 71.3913 16.0509
757 2 142.96 71.4236 0.222365
758 2 146.978 71.4839 0.0794618
759 2 150.965 71.237 -0.0408645
760 2 154.799 71.3006 15.9993
761 2 0.381787 75.3211 0.0708194
762 2 4.33092 75.1904 15.9014
763 2 8.1173 75.2898 16.0493
764 2 11.9521 75.1842 15.7869
765 2 15.9671 75.0168 15.8531
766 2 19.74 75.1467 16.0783
767 2 23.5782 74.9548 15.9914
768 2 27.7648 74.9923 15.9658
769 2 31.8979 74.9067 0.130626
770 2 35.6358 74.6917 15.8056
771 2 39.4059 74.701 16.1252
772 2 43.3508 74.6136 0.191004
773 2 47.2848 74.6887 16.0876
774 2 51.2901 74.4133 0.216923
775 2 55.2263 74.5903 16.2081
776 2 58.9451 74.424 15.9587
777 2 62.7973 74.1611 16.0923
778 2 67.0196 74.5451 0.0507505
779 2 70.9016 74.4607 0.223041
780 2 74.8778 74.4031 0.151954
781 2 79.0637 74.5972 -0.0768452
782 2 83.0685 74.7401 -0.145423
783 2 86.9887 74.7291 0.198225
784 2 91.158 74.7196 16.1034
785 2 94.9875 74.9782 15.8051
786 2 99.0543 74.9092 0.059224
787 2 103.02 74.9091 15.9013
788 2 106.856 75.0966 15.8521
789 2 110.877 75.0105 15.9256
790 2 114.942 75.0312 15.8383
791 2 119.004 75.0708 0.0794007
792 2 123.192 75.1142 15.9607
793 2 127.06 75.4361 15.9204
794 2 131.094 75.1403 0.144922
795 2 135.059 75.2463 15.9936
796 2 139.147 75.2209 15.9595
797 2 143.121 75.4124 15.9358
798 2 146.958 75.4268 15.8419
799 2 150.848 75.2936 0.0702423
800 2 154.885 75.1986 0.122015
801 2 0.458277 79.1343 0.048031
802 2 4.25989 79.1211 15.9978
803 2 8.18596 79.2394 0.134653
804 2 12.0302 79.1719 0.197066
805 2 15.8778 78.9187 15.9301
806 2 19.8723 78.9989 15.9698
807 2 23.6778 79.164 0.307959
808 2 27.694 78.8148 0.211154
809 2 31.7496 78.8751 0.29999
810 2 35.7708 79.0466 0.106936
811 2 39.4866 78.8354 15.8068
812 2 43.4507 78.7594 15.8704
813 2 47.276 78.6092 16.0705
814 2 51.0887 78.5395 0.0811398
815 2 54.9949 78.5984 0.0998168
816 2 58.9907 78.575 16.1867
817 2 62.975 78.3636 16.0789
818 2 66.7174 78.2116 0.303034
819 2 70.8205 78.4764 15.9236
820 2 74.9214 78.3074 -0.0695298
821 2 78.8745 78.4549 15.7743
822 2 82.8176 78.4185 15.8262
823 2 86.9733 78.6925 0.0867866
824 2 90.8494 78.6267 -0.0139528
825 2 94.9972 78.9278 0.154481
826 2 99.0129 78.8326 15.9494
827 2 102.915 78.9419 15.8558
828 2 106.936 78.9873 0.135853
829 2 110.98 78.941 -0.0414448
830 2 115.07 79.0935 0.202189
831 2 118.938 79.1124 0.111807
832 2 123.05 79.1455 15.8869
833 2 126.947 79.2711 -0.239841
834 2 130.924 79.1549 16.0055
835 2 134.993 79.255 0.11981
836 2 138.976 79.3316 16.0159
837 2 142.609 79.5463 16.1146
838 2 146.889 79.3581 15.9376
839 2 151.152 79.3346 15.9439
840 2 154.903 79.1369 0.147832
841 2 0.567881 83.1898 15.8241
842 2 4.33183 83.1388 16.0223
843 2 8.15786 83.1689 0.0913946
844 2 12.1014 83.2018 15.9871
845 2 16.0486 83.0336 15.9616
846 2 19.868 83.0622 0.0613074
847 2 23.7235 83.1034 15.8179
848 2 27.8499 82.953 -0.000405988
849 2 31.6377 82.8806 15.8684
850 2 35.7507 82.764 0.169727
851 2 39.5095 82.7779 0.217188
852 2 43.3889 82.5241 15.9395
853 2 47.4879 82.6234 0.274046
854 2 51.3214 82.5515 0.333937
855 2 55.2945 82.4803 0.200926
856 2 59.2846 82.6976 15.9794
857 2 63.1211 82.3263 15.9894
858 2 67.115 82.1961 16.1235
859 2 70.9904 82.4679 15.889
860 2 74.7366 82.3051 15.7726
861 2 78.8392 82.213 15.8155
862 2 82.7577 82.3955 0.0208536
863 2 86.6727 82.6352 0.349887
864 2 90.8784 82.7329 15.8865
865 2 94.7576 82.6264 0.20741
866 2 98.7738 82.6563 15.6201
867 2 102.974 82.6304 0.164009
868 2 106.63 82.8248 15.8495
869 2 110.893 82.7878 15.8965
870 2 114.823 82.9405 15.8513
871 2 119.1 82.9603 15.6205
872 2 122.777 83.228 15.8963
873 2 126.938 82.8666 15.9323
874 2 130.914 83.1295 16.1146
875 2 134.904 83.0736 0.024483
876 2 138.966 83.1336 15.8318
877 2 143.045 83.3556 0.0951659
878 2 146.876 83.2622 15.6943
879 2 150.793 83.2042 0.221893
880 2 154.925 83.1632 0.106012
881 2 0.212843 87.2376 15.8923
882 2 4.43113 87.2688 0.121426
883 2 8.27211 87.1506 15.8889
884 2 12.1761 87.0952 16.1021
885 2 16.0529 87.0409 15.9199
886 2 19.8962 87.221 16.047
887 2 23.8616 86.9001 15.8996
888 2 27.8164 87.0003 -0.0265769
889 2 31.8966 86.8149 16.0366
890 2 35.8003 86.9528 0.134217
891 2 39.5399 86.8231 16.0912
892 2 43.6294 86.6287 15.8417
893 2 47.3921 86.7184 16.0062
894 2 51.4508 86.5872 16.1024
895 2 55.4279 86.7212 16.0851
896 2 59.2814 86.5439 0.236286
897 2 63.186 86.5964 0.173044
898 2 66.956 86.556 16.0882
899 2 70.8284 86.2795 0.115415
900 2 74.7782 86.1764 16.0295
901 2 78.8725 86.4647 -0.0119553
902 2 82.8548 86.4279 0.157846
903 2 86.869 86.3024 15.9663
904 2 90.9717 86.4316 15.8182
905 2 94.8563 86.4591 15.8015
906 2 98.7744 86.6183 15.8743
907 2 102.717 86.6302 0.0930419
908 2 106.878 86.6851 0.00705133
909 2 110.868 86.7053 15.9737
910 2 114.653 86.9721 -0.0760201
911 2 119.055 86.8953 0.210404
912 2 123.004 86.9753 0.0639318
913 2 126.875 86.8832 15.8823
914 2 130.939 86.8732 15.8832
915 2 135.13 87.129 15.8618
916 2 138.952 87.2188 15.7407
917 2 142.718 87.2909 15.8622
918 2 146.775 87.2541 0.104822
919 2 150.955 87.2752 15.9626
920 2 154.824 87.2219 15.9371
921 2 0.459949 91.3071 0.0129251
922 2 4.56862 91.3593 0.0252334
923 2 8.49483 91.1938 15.6708
924 2 12.3403 91.143 15.7054
925 2 15.9701 91.3389 0.011232
926 2 20.0798 91.0827 0.104088
927 2 23.9236 91.0572 15.8521
928 2 27.9747 90.8719 15.8864
929 2 32.0665 90.9524 15.9351
930 2 35.8943 90.8686 -0.0948609
931 2 39.8074 90.7914 15.8242
932 2 43.4726 90.565 15.9127
933 2 47.7042 90.717 0.241739
934 2 51.4802 90.4603 0.123582
935 2 55.3738 90.5685 0.253869
936 2 59.4459 90.5429 0.0881522
937 2 63.1897 90.4714 0.404456
938 2 67.2149 90.3614 16.0932
939 2 70.9259 90.2207 15.94
940 2 74.7356 90.2882 0.070881
941 2 78.774 90.2371 0.00592335
942 2 82.6343 90.0874 0.107558
943 2 86.707 90.1982 0.223597
944 2 90.7667 90.2983 0.211317
945 2 94.8322 90.4836 16.007
946 2 98.6609 90.5576 15.9681
947 2 102.666 90.5651 0.109195
948 2 106.533 90.6116 15.6954
949 2 110.813 90.6079 15.8746
950 2 114.718 90.6397 0.128724
951 2 118.833 90.7185 0.353868
952 2 122.778 90.7967 15.7382
953 2 126.846 90.7512 0.109917
954 2 131.027 90.8838 0.123456
955 2 134.888 91.0353 15.9678
956 2 138.927 91.1891 16.1793
957 2 142.818 91.244 16.1994
958 2 146.823 91.1853 15.8827
959 2 150.861 91.3066 16.0501
960 2 154.834 91.2814 15.8834
961 2 0.615725 95.2749 0.279484
962 2 4.53842 95.2257 16.1295
963 2 8.59196 95.2741 15.9228
964 2 12.5145 95.3119 15.9882
965 2 16.4813 95.1194 15.8208
966 2 20.3363 95.1127 16.0128
967 2 24.0227 95.0118 15.8836
968 2 27.8985 95.0309 15.8924
969 2 32.0588 94.8627 16.0034
970 2 35.9011 94.9349 15.8479
971 2 39.835 94.7145 16.1455
972 2 43.6792 94.7473 15.9936
973 2 47.4813 94.5766 0.0285978
974 2 51.4615 94.5934 16.0548
975 2 55.5027 94.3836 0.252741
976 2 59.3276 94.4937 16.0917
977 2 63.1691 94.4696 0.292211
978 2 67.1849 94.3192 0.0346084
979 2 70.9826 94.1987 0.0830277
980 2 74.9326 94.4243 0.294679
981 2 78.7625 94.3965 16.0544
982 2 82.732 94.2939 0.00179613