ITEM: TIMESTEP
23800
ITEM: NUMBER OF ATOMS
32000
ITEM: BOX BOUNDS xy xz yz pp pp pp
0.0000000000000000e+00 1.5831999999999999e+02 0.0000000000000000e+00
0.0000000000000000e+00 1.5831999999999999e+02 0.0000000000000000e+00
1.6431808021372696e-01 1.5933393919786131e+01 0.0000000000000000e+00
ITEM: ATOMS id type x y z
1 2 157.808 157.559 16.0049
2 2 3.56665 157.665 15.8859
3 2 7.70865 157.84 -0.124257
4 2 11.5238 157.913 0.258155
5 2 15.7491 158.064 0.265757
6 2 19.6804 158.08 15.9905
7 2 23.7672 158.163 16.055
8 2 27.6278 158.166 15.9758
9 2 31.6101 158.247 0.130764
10 2 35.6266 158.232 15.8522
11 2 39.5488 -0.100431 15.829
12 2 43.5954 0.207126 0.199073
13 2 47.9192 0.0401679 16.0229
14 2 51.7501 -0.0192854 0.14774
15 2 55.5986 158.156 0.131058
16 2 59.7779 158.353 15.7833
17 2 63.5985 0.161568 15.8672
18 2 67.6883 0.0739583 16.0339
19 2 71.6121 -0.0563089 15.8537
20 2 75.6026 158.192 15.8641
21 2 79.3342 -0.114247 15.8767
22 2 83.1712 158.506 15.9076
23 2 87.1931 158.112 15.6855
24 2 91.1752 158.157 0.0341423
25 2 95.013 158.195 15.8453
26 2 99.0874 158.092 15.7184
27 2 102.908 158.145 15.7908
28 2 106.65 158 15.8829
29 2 110.653 157.946 0.239726
30 2 114.718 157.918 0.229844
31 2 118.552 157.763 15.9836
32 2 122.437 157.694 0.0991444
33 2 126.34 157.686 0.206249
34 2 130.112 157.734 0.167159
35 2 134.229 157.799 15.9886
36 2 138.338 157.698 15.8024
37 2 142.229 157.52 15.8067
38 2 146.008 157.785 15.9366
39 2 149.891 157.386 0.374305
40 2 153.964 157.635 0.0719478
41 2 157.863 3.16034 15.8092
42 2 3.30581 3.44427 16.0853
43 2 7.43424 3.4783 0.0396275
44 2 11.6376 3.59425 15.897
45 2 15.3957 3.77696 15.8499
46 2 19.6855 3.61852 15.928
47 2 23.6523 3.6375 0.22401
48 2 27.655 3.76698 0.219858
49 2 31.5424 3.84103 -0.0571359
50 2 35.6525 3.76401 0.207006
51 2 39.5074 3.76799 -0.0963588
52 2 43.7197 4.08302 15.8798
53 2 47.8454 3.88816 16.0672
54 2 51.7989 4.0268 15.8835
55 2 55.7009 3.7291 0.300736
56 2 59.6942 3.90533 15.8734
57 2 63.8218 4.22807 16.0083
58 2 67.7511 3.94026 15.822
59 2 71.7391 3.96493 15.74
60 2 75.4607 3.80665 15.8219
61 2 79.3753 3.88124 15.7888
62 2 83.355 3.90088 15.9454
63 2 87.2356 3.85953 15.8151
64 2 91.0495 3.84628 0.296088
65 2 95.0722 3.66808 15.8846
66 2 99.0091 3.841 0.159128
67 2 102.965 3.6757 16.0715
68 2 106.867 3.54179 15.8125
69 2 110.864 3.69114 0.13169
70 2 114.685 3.57141 0.196188
71 2 118.566 3.64758 0.364045
72 2 122.521 3.51732 0.0188405
73 2 126.475 3.40553 0.320647
74 2 130.367 3.58093 0.188197
75 2 134.338 3.43993 15.9774
76 2 138.253 3.25285 0.100461
77 2 142.127 3.54786 0.167184
78 2 145.936 3.27658 0.266151
79 2 149.91 3.21966 15.7867
80 2 153.901 3.22493 15.9321
81 2 157.824 7.1482 15.8337
82 2 3.49833 7.39115 15.856
83 2 7.52058 7.47824 15.6684
84 2 11.6556 7.63718 0.203445
85 2 15.6356 7.45904 15.8772
86 2 19.5545 7.46724 16.1155
87 2 23.7682 7.58521 0.0711894
88 2 27.5404 7.67801 16.0468
89 2 31.5759 7.45044 16.0733
90 2 35.5034 7.70896 15.6924
91 2 39.6011 7.87411 0.0430829
92 2 43.5611 7.79379 0.0385093
93 2 47.7018 7.79708 16.0852
94 2 51.7516 7.73824 0.141115
95 2 55.5888 7.69285 15.9714
96 2 59.711 8.05538 0.224786
97 2 63.4185 7.90777 15.9773
98 2 67.8273 7.88016 15.9868
99 2 71.6257 7.9118 15.8604
100 2 75.5406 7.9252 15.7383
101 2 79.5627 7.78821 0.190673
102 2 83.4406 7.87809 15.7788
103 2 87.3272 7.84854 15.8914
104 2 91.15 7.69761 15.8952
105 2 95.0115 7.77459 15.9991
106 2 99.0031 7.77492 0.123763
107 2 103.023 7.73909 0.304292
108 2 106.85 7.74383 15.917
109 2 110.771 7.79993 0.297506
110 2 114.688 7.6797 15.9489
111 2 118.815 7.57541 16.2184
112 2 122.728 7.58192 16.1269
113 2 126.593 7.50146 15.8567
114 2 130.398 7.52365 0.0780981
115 2 134.222 7.33675 0.0432354
116 2 137.955 7.39136 15.7933
117 2 142.069 7.19788 15.7402
118 2 146.153 7.19705 0.304278
119 2 149.951 7.17306 -0.00245456
120 2 153.807 7.25019 15.8408
121 2 157.882 11.0736 15.9726
122 2 3.48939 11.2951 16.0323
123 2 7.5817 11.5059 15.7913
124 2 11.5502 11.3891 -0.105313
125 2 15.5267 11.5806 16.0865
126 2 19.5421 11.444 15.9065
127 2 23.5838 11.5524 15.992
128 2 27.532 11.7842 15.9198
129 2 31.625 11.5794 15.999
130 2 35.6484 11.6873 15.8859
131 2 39.6249 11.7365 15.7922
132 2 43.5516 11.697 0.15279
133 2 47.5952 11.6541 0.334169
134 2 51.6861 11.6041 15.6966
135 2 55.6342 11.7301 0.28339
136 2 59.5829 11.8042 15.9032
137 2 63.7955 11.8334 0.194719
138 2 67.712 11.792 15.985
139 2 71.7054 11.6867 15.7924
140 2 75.6232 11.69 15.9303
141 2 79.6334 12.0897 15.8029
142 2 83.5046 12.1114 15.7334
143 2 87.3882 11.7766 0.0933738
144 2 91.2197 11.7472 0.0312603
145 2 95.147 11.6512 15.7271
146 2 99.1773 11.7407 15.8552
147 2 102.962 11.6519 -0.017392
148 2 106.87 11.5874 15.7975
149 2 110.951 11.4468 0.186486
150 2 114.855 11.5315 15.9347
151 2 118.639 11.4164 0.269755
152 2 122.631 11.5443 0.222314
153 2 126.486 11.5642 16.0388
154 2 130.361 11.4637 16.0436
155 2 134.209 11.3993 0.0399243
156 2 138.185 11.4471 0.210508
157 2 142.023 11.3109 0.0637809
158 2 146.034 11.2216 0.0512678
159 2 150.101 11.2075 0.086084
160 2 153.93 11.3387 -0.0258824
161 2 157.893 15.1502 15.9741
162 2 3.3555 15.1531 15.9103
163 2 7.27889 15.2233 15.8656
164 2 11.5829 15.2919 15.7659
165 2 15.573 15.4784 15.819
166 2 19.523 15.4473 0.154005
167 2 23.3784 15.3816 0.0269134
168 2 27.7082 15.4821 15.9559
169 2 31.5413 15.4888 0.0564712
170 2 35.4868 15.4961 16.0161
171 2 39.4177 15.649 0.136263
172 2 43.5463 15.5247 0.144045
173 2 47.8014 15.5345 0.109179
174 2 51.4359 15.7673 0.149962
175 2 55.5 15.8133 15.7913
176 2 59.685 15.7173 -0.0755619
177 2 63.6567 15.7435 16.0714
178 2 67.6771 15.6187 16.0725
179 2 71.5174 15.7425 -0.0507674
180 2 75.576 15.8068 0.093187
181 2 79.7199 16.0171 15.7989
182 2 83.5148 15.9024 0.148471
183 2 87.5353 15.6953 15.9333
184 2 91.2466 15.8035 0.0130479
185 2 95.2388 15.6353 16.0155
186 2 99.1655 15.6561 15.9359
187 2 102.886 15.6968 15.8829
188 2 107.15 15.5925 15.8306
189 2 110.903 15.3634 15.9583
190 2 114.852 15.6243 15.8758
191 2 118.659 15.5529 0.0357576
192 2 122.627 15.4842 16.0085
193 2 126.532 15.4605 15.9272
194 2 130.406 15.3963 0.111234
195 2 134.376 15.4496 0.0220757
196 2 138.162 15.4121 0.164543
197 2 142.275 15.3311 15.8747
198 2 146.128 15.2687 0.089448
199 2 149.96 15.0245 0.0782903
200 2 153.739 15.2231 15.9507
201 2 157.888 19.2996 16.0367
202 2 3.51206 19.2603 0.140096
203 2 7.43182 19.1903 0.00611422
204 2 11.4555 19.2818 15.7307
205 2 15.5799 19.3884 15.5712
206 2 19.3001 19.332 15.7266
207 2 23.2828 19.3614 15.7522
208 2 27.4958 19.3116 16.0723
209 2 31.6179 19.5507 16.0661
210 2 35.4472 19.3969 15.8943
211 2 39.4347 19.5145 0.385564
212 2 43.4589 19.3828 16.0933
213 2 47.4457 19.4441 15.9861
214 2 51.6248 19.5302 -0.0460516
215 2 55.5165 19.6442 15.952
216 2 59.7578 19.5618 15.9127
217 2 63.5181 19.5173 15.7475
218 2 67.6652 19.7323 16.0712
219 2 71.6122 19.6375 0.114965
220 2 75.5631 19.7378 0.0452797
221 2 79.5864 19.7692 0.294835
222 2 83.6876 19.8914 15.877
223 2 87.5977 19.9948 0.207526
224 2 91.5412 19.983 0.00963818
225 2 95.3216 19.7552 15.8583
226 2 99.2439 19.6474 15.8658
227 2 103.114 19.7938 15.9372
228 2 107.133 19.8318 15.9471
229 2 110.996 19.7262 -0.0296934
230 2 114.749 19.5006 15.8963
231 2 118.678 19.6115 15.8961
232 2 122.78 19.4742 15.923
233 2 126.607 19.4599 16.1735
234 2 130.542 19.3543 16.0021
235 2 134.399 19.5404 0.0806098
236 2 138.152 19.3188 15.9482
237 2 142.129 19.0673 15.9117
238 2 146.306 19.2802 0.20801
239 2 150.048 19.1883 15.8866
240 2 154.013 19.3913 -0.0397093
241 2 158.072 23.2363 15.9897
242 2 3.73429 23.2696 15.8412
243 2 7.59535 23.1395 0.106833
244 2 11.418 23.1491 0.110659
245 2 15.434 23.1432 15.7622
246 2 19.4169 23.1243 15.7167
247 2 23.3727 23.2326 15.9571
248 2 27.351 23.2006 15.8243
249 2 31.1479 23.149 0.286372
250 2 35.4596 23.1927 15.9979
251 2 39.2722 23.2629 0.142113
252 2 43.3918 23.4209 15.8602
253 2 47.4182 23.418 0.213541
254 2 51.4716 23.4346 0.146553
255 2 55.5471 23.5776 0.0513489
256 2 59.4948 23.5612 15.9064
257 2 63.5407 23.5724 0.10494
258 2 67.5235 23.7813 16.0352
259 2 71.4004 23.4624 15.8607
260 2 75.5173 23.8618 0.0103942
261 2 79.6952 23.8211 15.9749
262 2 83.7373 23.7654 0.135023
263 2 87.6628 23.945 15.9773
264 2 91.4998 23.8351 15.9336
265 2 95.4237 23.7712 15.9256
266 2 99.2568 23.7805 0.0387975
267 2 103.217 23.5406 16.0286
268 2 106.87 23.7071 15.8893
269 2 110.969 23.7472 0.193023
270 2 114.825 23.4704 15.8467
271 2 118.738 23.5647 15.9188
272 2 122.629 23.5173 0.0922539
273 2 126.605 23.4963 16.0589
274 2 130.434 23.4378 15.8566
275 2 134.304 23.4293 16.11
276 2 138.307 23.3657 15.9097
277 2 142.509 23.3469 16.0151
278 2 146.229 23.2598 0.0971837
279 2 150.113 23.2558 0.0745263
280 2 153.946 23.4267 0.131543
281 2 157.807 27.3258 0.142492
282 2 3.62548 27.1814 0.381707
283 2 7.67433 27.0576 0.103153
284 2 11.3094 27.1113 15.9128
285 2 15.3677 27.0178 15.7602
286 2 19.3654 27.0777 0.274728
287 2 23.3846 27.314 16.0272
288 2 27.3474 27.1384 15.9325
289 2 31.3602 27.1172 0.146816
290 2 35.3788 27.1458 0.187857
291 2 39.4236 27.3761 0.364235
292 2 43.5324 27.1984 0.0909186
293 2 47.4641 27.3181 0.298901
294 2 51.487 27.4304 15.9522
295 2 55.4613 27.3109 0.17937
296 2 59.6222 27.3646 15.9102
297 2 63.4572 27.6118 15.8169
298 2 67.4424 27.484 15.7286
299 2 71.5551 27.6052 16.0001
300 2 75.4042 27.6459 0.370376
301 2 79.5321 27.8271 0.276232
302 2 83.3951 27.5055 15.9687
303 2 87.6322 27.886 0.120697
304 2 91.5787 27.7983 0.0542071
305 2 95.342 27.9717 0.0596547
306 2 99.4167 27.8892 0.165096
307 2 103.214 27.6623 15.8294
308 2 107.227 27.4281 0.0959476
309 2 110.96 27.5852 15.7302
310 2 114.937 27.5654 15.9528
311 2 118.834 27.6276 0.189268
312 2 122.853 27.6207 0.0561745
313 2 126.627 27.5357 15.9615
314 2 130.466 27.4936 15.9903
315 2 134.494 27.3809 16.0251
316 2 138.33 27.3249 16.1312
317 2 142.315 27.3072 0.217292
318 2 146.237 27.4058 0.210466
319 2 150.027 27.3537 0.286013
320 2 153.95 27.4422 0.251901
321 2 157.783 31.2906 15.8844
322 2 3.59074 31.1094 15.86
323 2 7.67804 31.0642 15.9662
324 2 11.5077 31.0423 0.126185
325 2 15.3047 30.874 0.0968572
326 2 19.2898 31.0043 15.9285
327 2 23.1646 30.9482 15.8903
328 2 27.3034 30.9844 0.0388798
329 2 31.3715 31.0615 15.8391
330 2 35.401 31.0815 15.9933
331 2 39.1088 30.971 16.0589
332 2 43.3108 31.0421 0.144344
333 2 47.5407 31.2608 16.1627
334 2 51.393 31.4486 0.276794
335 2 55.4551 31.3905 16.0142
336 2 59.4389 31.4367 0.250396
337 2 63.4818 31.4713 15.854
338 2 67.4866 31.2475 0.163359
339 2 71.3979 31.5334 0.222308
340 2 75.4234 31.521 0.494318
341 2 79.2632 31.5131 16.0591
342 2 83.5599 31.5218 0.34554
343 2 87.3341 31.4076 15.7957
344 2 91.4453 31.6838 16.0776
345 2 95.4925 31.743 15.7955
346 2 99.4692 31.8129 -0.0323447
347 2 103.368 31.8414 15.8383
348 2 107.334 31.7832 15.9206
349 2 111.127 31.4941 15.9859
350 2 114.958 31.6633 15.9535
351 2 118.929 31.4141 15.7585
352 2 122.815 31.5591 15.8053
353 2 126.615 31.6504 15.8252
354 2 130.69 31.4346 16.0078
355 2 134.737 31.3266 16.0278
356 2 138.615 31.3763 16.052
357 2 142.413 31.4292 0.196843
358 2 146.172 31.4356 16.0982
359 2 150.068 31.1643 0.282966
360 2 153.893 31.4256 0.328098
361 2 -0.148631 35.2529 0.342345
362 2 3.71315 35.122 15.9552
363 2 7.65118 35.1831 16.0314
364 2 11.6175 34.9246 15.9526
365 2 15.538 34.812 0.06555
366 2 19.2623 34.978 -0.00668506
367 2 23.3763 35.1296 -0.06591
368 2 27.2176 34.8341 0.102642
369 2 31.3987 34.8223 0.267711
370 2 35.3289 35.1869 0.251306
371 2 39.4287 35.0116 0.445032
372 2 43.2682 35.1652 16.0574
373 2 47.3179 35.0688 15.9717
374 2 51.4467 35.2036 15.9809
375 2 55.3503 35.2079 -0.060183
376 2 59.2092 35.2311 0.0964869
377 2 63.3667 35.3356 15.9024
378 2 67.2366 35.4221 0.330618
379 2 71.524 35.373 0.000202323
380 2 75.4462 35.3091 15.9651
381 2 79.5252 35.4319 0.102029
382 2 83.3423 35.5454 16.0081
383 2 87.4644 35.6022 0.191722
384 2 91.5768 35.5176 0.189678
385 2 95.499 35.7922 15.8162
386 2 99.5419 35.832 0.203009
387 2 103.511 35.6291 15.7945
388 2 107.367 35.6558 15.711
389 2 111.272 35.6043 16.0443
390 2 115.066 35.6832 15.7587
391 2 118.905 35.544 15.9359
392 2 122.756 35.4364 15.9428
393 2 126.966 35.4747 16.0023
394 2 130.585 35.4911 15.9289
395 2 134.562 35.3591 16.1661
396 2 138.52 35.3091 0.216353
397 2 142.417 35.3824 0.232459
398 2 146.267 35.4905 0.239983
399 2 150.299 35.2643 15.9093
400 2 153.947 35.312 0.316885
401 2 158.304 39.1903 0.374884
402 2 3.80054 39.168 0.201831
403 2 7.74526 39.2145 0.170662
404 2 11.632 39.1824 15.8495
405 2 15.5515 38.9178 0.0638193
406 2 19.3826 38.996 15.8327
407 2 23.4892 38.9252 15.7917
408 2 27.2309 38.8337 15.8983
409 2 31.119 38.7762 0.136733
410 2 35.3761 38.7597 0.336916
411 2 39.3796 39.029 15.8696
412 2 43.3519 38.9653 0.183601
413 2 47.2141 38.9078 0.0585705
414 2 51.1867 39.0764 15.7662
415 2 55.3338 39.1336 0.301066
416 2 59.4127 39.1954 0.196197
417 2 63.3313 39.3252 0.17333
418 2 67.1729 39.2347 0.304235
419 2 71.2621 39.2868 -0.0151553
420 2 75.5759 39.3466 0.13544
421 2 79.2839 39.4829 -0.0877867
422 2 83.4162 39.3188 15.9761
423 2 87.4733 39.3931 15.8647
424 2 91.5773 39.6362 15.9691
425 2 95.338 39.5544 15.9344
426 2 99.4859 39.7684 0.160786
427 2 103.356 39.6515 15.8834
428 2 107.409 39.8675 15.8764
429 2 111.397 39.7092 15.8026
430 2 115.174 39.8414 15.9864
431 2 119.12 39.7906 15.9426
432 2 123.141 39.5247 15.7543
433 2 126.89 39.5986 0.192586
434 2 130.733 39.4439 16.0844
435 2 134.601 39.3494 16.0293
436 2 138.429 39.5195 15.818
437 2 142.373 39.3217 15.9483
438 2 146.342 39.4767 0.124065
439 2 150.246 39.4075 16.0947
440 2 154.073 39.3691 16.1404
441 2 158.164 43.2629 0.234782
442 2 3.74275 43.148 15.9386
443 2 7.66766 43.0558 16.0143
444 2 11.7072 43.1094 0.230319
445 2 15.5537 42.9911 0.257251
446 2 19.6389 42.8424 0.257447
447 2 23.4192 42.7819 15.9396
448 2 27.2259 42.9596 15.9162
449 2 31.1288 42.7425 0.199263
450 2 35.248 42.7276 0.124354
451 2 39.2285 43.0871 0.0188123
452 2 43.2099 42.9274 -0.0292979
453 2 47.2552 42.9558 15.8771
454 2 51.1094 42.9504 15.8573
455 2 55.3763 43.0517 0.304607
456 2 59.1803 42.9834 15.8851
457 2 63.2696 43.0254 0.243557
458 2 67.2959 43.3277 0.198799
459 2 71.3407 43.1116 0.0799515
460 2 75.3097 43.3206 0.0932252
461 2 79.4487 43.2366 -0.0150046
462 2 83.4295 43.0554 16.0325
463 2 87.2867 43.2218 15.753
464 2 91.5362 43.4139 -0.025653
465 2 95.4977 43.4676 0.0633769
466 2 99.4575 43.5391 15.9915
467 2 103.179 43.6163 15.9554
468 2 107.308 43.7017 15.6742
469 2 111.235 43.6619 15.9604
470 2 115.361 43.733 16.0145
471 2 119.25 43.6587 15.9358
472 2 122.937 43.7372 15.8967
473 2 126.795 43.6139 0.14218
474 2 130.766 43.5032 0.1912
475 2 134.899 43.69 16.0272
476 2 138.617 43.681 16.1225
477 2 142.506 43.4869 16.0576
478 2 146.494 43.4735 0.196813
479 2 150.38 43.4401 0.330666
480 2 154.205 43.2249 0.156698
481 2 -0.041763 47.0664 0.165966
482 2 3.82755 47.1607 0.327321
483 2 7.74208 47.017 0.256568
484 2 11.7647 46.7076 0.103953
485 2 15.613 46.9617 0.175583
486 2 19.6205 46.9844 0.166461
487 2 23.3952 47.1075 0.0506701
488 2 27.2625 46.8148 16
489 2 31.2563 46.7904 0.0453081
490 2 34.9988 46.8897 0.207874
491 2 38.9276 46.836 15.98
492 2 43.0029 46.907 15.7889
493 2 47.0398 46.9406 0.250337
494 2 51.1567 46.7909 16.0688
495 2 55.0848 47.06 16.0602
496 2 59.3789 46.9305 15.9491
497 2 63.1834 47.2107 0.00046106
498 2 67.2494 47.0133 0.217143
499 2 71.2291 47.173 15.8722
500 2 75.2786 47.1118 0.261233
501 2 79.1996 47.3739 15.8549
502 2 83.3134 47.1635 16.1409
503 2 87.3211 47.1375 0.27318
504 2 91.4812 47.3733 0.161886
505 2 95.4907 47.3025 0.0971486
506 2 99.3031 47.5706 0.0139567
507 2 103.238 47.5216 -0.033405
508 2 107.139 47.6427 15.8381
509 2 111.303 47.5591 15.8923
510 2 115.308 47.6027 0.269566
511 2 119.068 47.5521 16.0867
512 2 123.132 47.5891 15.9137
513 2 127.067 47.739 15.9087
514 2 130.957 47.5643 15.9488
515 2 134.882 47.5154 16.1118
516 2 138.708 47.5165 16.0506
517 2 142.569 47.4186 16.1084
518 2 146.422 47.4065 0.468931
519 2 150.479 47.2595 0.373486
520 2 154.308 47.194 15.9885
521 2 158.455 51.0367 0.170182
522 2 3.85923 51.0278 15.9723
523 2 8.10948 51.002 15.9901
524 2 11.7911 50.956 16.097
525 2 15.5002 50.8525 0.174645
526 2 19.706 50.8081 15.9567
527 2 23.732 50.8912 16.0588
528 2 27.5374 50.9846 16.063
529 2 31.0915 50.808 0.144506
530 2 35.2293 50.8164 0.211203
531 2 39.0271 50.6585 16.1836
532 2 43.1738 50.7353 16.1651
533 2 47.0576 50.7071 0.360427
534 2 51.0582 50.9634 0.41705
535 2 55.2102 50.7251 0.0797411
536 2 59.1496 50.8773 15.7256
537 2 63.2337 50.9483 16.0235
538 2 67.2163 51.1203 0.10935
539 2 71.2175 51.173 0.112743
540 2 75.3075 51.0828 0.117857
541 2 79.3451 51.2177 0.102614
542 2 83.405 51.1682 -0.0940694
543 2 87.318 51.3772 0.159697
544 2 91.26 51.2685 0.226023
545 2 95.3184 51.2776 0.327126
546 2 99.3554 51.4878 0.134815
547 2 103.42 51.3992 16.0025
548 2 107.353 51.5034 0.124402
549 2 111.322 51.6382 0.0670802
550 2 115.145 51.4214 16.0095
551 2 119.357 51.5834 15.9846
552 2 123.173 51.6163 15.9679
553 2 126.866 51.7077 15.9246
554 2 131.078 51.6409 0.165475
555 2 134.948 51.4741 0.120945
556 2 138.669 51.5919 0.0475778
557 2 142.582 51.4126 0.000763907
558 2 146.639 51.3197 15.8983
559 2 150.443 51.1209 0.178925
560 2 154.309 51.3367 0.299567
561 2 158.335 55.2937 0.267931
562 2 3.99924 55.016 0.0818979
563 2 7.89879 55.097 0.209135
564 2 11.7419 55.1893 0.214867
565 2 15.6079 54.9574 0.269503
566 2 19.5943 54.9802 15.8412
567 2 23.711 54.9395 16.0444
568 2 27.5246 54.9753 15.9938
569 2 31.1697 54.8187 0.337431
570 2 35.2415 54.7674 0.205847
571 2 39.1599 54.6755 15.924
572 2 43.2341 54.5385 15.8932
573 2 47.0132 54.8268 0.24664
574 2 50.9946 54.9478 15.8761
575 2 55.1947 55.0019 15.9992
576 2 59.08 54.8432 15.9339
577 2 63.1137 54.8417 16.1137
578 2 67.1533 54.9685 0.124388
579 2 71.2175 55.0996 0.194201
580 2 75.2434 54.8747 15.9028
581 2 79.1662 54.9693 0.010753
582 2 83.1886 55.0208 0.0531526
583 2 87.202 55.0932 0.0910473
584 2 91.2626 55.221 15.917
585 2 95.0115 55.4177 0.114602
586 2 99.2006 55.2882 15.7962
587 2 103.203 55.2446 15.873
588 2 107.18 55.5868 0.17433
589 2 111.283 55.5829 15.7735
590 2 115.276 55.4885 15.8063
591 2 119.189 55.7553 15.8467
592 2 123.074 55.5317 -9.30712e-05
593 2 126.898 55.5561 15.9338
594 2 131.177 55.6774 15.9162
595 2 135.026 55.5497 0.204312
596 2 138.771 55.3447 15.9531
597 2 142.632 55.3956 0.215042
598 2 146.6 55.3609 0.307902
599 2 150.522 55.3093 0.131694
600 2 154.646 55.0727 16.0152
601 2 158.342 59.1054 0.417087
602 2 3.94142 59.0318 16.0586
603 2 7.91553 59.1088 15.9074
604 2 11.8802 59.1451 0.127107
605 2 15.9162 58.8826 16.027
606 2 19.6742 59.0369 0.336541
607 2 23.5131 58.9407 0.228584
608 2 27.4567 58.9327 0.367802
609 2 31.4971 59.0191 16.094
610 2 35.2247 58.6873 16.1634
611 2 39.0804 58.6903 16.1043
612 2 43.181 58.6408 15.7865
613 2 47.0449 58.754 15.9409
614 2 50.996 58.8512 15.9235
615 2 55.1342 58.6774 15.8758
616 2 59.0684 58.5078 0.0987672
617 2 63.1252 58.629 15.8381
618 2 67.1601 58.7383 0.19652
619 2 71.1868 58.7915 15.9276
620 2 75.1298 58.9414 0.151173
621 2 79.2708 58.9336 0.04249
622 2 83.18 59.0792 0.222387
623 2 87.2467 58.9169 15.8948
624 2 91.3068 59.1499 15.9286
625 2 95.1515 59.2523 0.161166
626 2 99.3066 59.1052 0.148212
627 2 103.234 59.2279 15.9725
628 2 106.79 59.2409 0.130391
629 2 111.004 59.4582 15.9021
630 2 115.206 59.3334 15.6855
631 2 119.184 59.5397 16.092
632 2 123.255 59.6395 0.148797
633 2 127.077 59.4959 16.008
634 2 130.917 59.4526 0.136799
635 2 134.866 59.5641 16.0378
636 2 138.881 59.3735 0.17411
637 2 142.836 59.3333 0.170739
638 2 146.623 59.3331 0.358632
639 2 150.58 59.4405 16.1361
640 2 154.374 59.2824 0.156675
641 2 0.165023 63.0249 0.271138
642 2 3.9808 63.0635 0.225251
643 2 8.06902 63.3047 16.1055
644 2 12.0084 63.0135 15.8547
645 2 15.8407 62.9275 15.9757
646 2 19.6992 62.8852 0.266747
647 2 23.6416 62.922 0.129715
648 2 27.6046 62.8062 0.172046
649 2 31.3495 62.7805 0.315482
650 2 35.4218 62.7372 0.121491
651 2 39.4144 62.8677 15.9786
652 2 43.1333 62.5659 0.101845
653 2 46.9464 62.5038 15.9719
654 2 51.2069 62.6538 16.0005
655 2 54.933 62.5451 0.147945
656 2 59.1187 62.6872 15.9036
657 2 63.0935 62.3839 0.0929533
658 2 67.1147 62.5314 15.9166
659 2 71.1176 62.6439 -0.000820128
660 2 75.2858 62.8789 0.176172
661 2 79.2317 62.7825 0.167928
662 2 83.2559 62.9612 0.161058
663 2 87.1482 62.8443 15.958
664 2 90.9889 62.9643 16.0447
665 2 95.2148 63.1276 0.290589
666 2 99.2246 63.3222 0.183249
667 2 103.098 63.165 16.0275
668 2 107.184 63.1618 16.1583
669 2 111.09 63.2597 16.0081
670 2 115.017 63.2826 0.115917
671 2 119.088 63.4467 15.9126
672 2 123.109 63.709 0.156565
673 2 127.186 63.7057 15.6826
674 2 131.227 63.6547 0.249695
675 2 135.163 63.4839 15.997
676 2 139.036 63.4054 15.8646
677 2 142.966 63.4982 15.8705
678 2 146.73 63.1532 0.0842429
679 2 150.608 63.2605 16.0411
680 2 154.56 63.1618 0.266353
681 2 0.0534226 67.1182 0.277403
682 2 4.01 67.1646 0.28779
683 2 8.18427 67.1984 16.0787
684 2 11.9588 67.2872 16.0874
685 2 15.7336 67.1595 0.320228
686 2 19.5602 66.8733 0.269673
687 2 23.5457 66.8792 0.166212
688 2 27.6522 66.7283 0.0699172
689 2 31.4487 66.739 0.119552
690 2 35.3676 66.6513 0.196633
691 2 39.3539 66.7962 16.0034
692 2 43.1799 66.6011 0.457111
693 2 47.1077 66.616 16.1137
694 2 50.971 66.4547 16.1182
695 2 54.9982 66.6352 16.2002
696 2 58.9914 66.4848 15.9902
697 2 62.9341 66.3873 15.9968
698 2 66.8817 66.4521 15.7742
699 2 71.1806 66.5964 0.102321
700 2 75.0442 66.7919 16.1318
701 2 79.0889 66.6092 16.0255
702 2 83.2796 66.7506 0.11738
703 2 86.9282 66.7247 15.8638
704 2 91.1902 66.9653 15.9237
705 2 95.1487 67.0584 0.101683
706 2 99.2005 67.0509 0.285648
707 2 103.094 67.2049 0.201598
708 2 107.079 67.2409 15.8349
709 2 111.186 67.2114 15.8095
710 2 115.135 67.3485 15.6864
711 2 119.127 67.3871 0.0926951
712 2 123.191 67.6188 0.19574
713 2 127.156 67.4399 0.0890132
714 2 131.007 67.5914 16.0911
715 2 135.013 67.4756 0.201151
716 2 139.184 67.466 0.196071
717 2 142.853 67.2066 15.7311
718 2 146.781 67.3122 15.9107
719 2 150.562 67.2285 15.914
720 2 154.66 67.2409 0.22544
721 2 0.326439 71.3268 0.0866012
722 2 4.09642 71.2191 16.0966
723 2 8.03705 71.107 0.19804
724 2 11.9368 71.312 15.9654
725 2 15.9451 71.088 0.207056
726 2 19.9366 70.9066 0.305335
727 2 23.6916 70.9891 0.150658
728 2 27.5987 70.8151 16.068
729 2 31.5212 70.798 0.230699
730 2 35.6628 70.8222 0.438301
731 2 39.4744 70.7371 15.8154
732 2 43.2801 70.616 0.358013
733 2 47.0799 70.6225 16.0825
734 2 51.0167 70.2723 16.0095
735 2 55.1113 70.4783 0.278016
736 2 58.9674 70.3398 0.217536
737 2 62.7977 70.4668 -0.0518392
738 2 67.0666 70.4328 15.7782
739 2 70.9414 70.6161 16.0745
740 2 75.0114 70.5705 15.8522
741 2 78.8588 70.8439 0.38649
742 2 82.9709 70.7011 0.164122
743 2 86.8872 70.8436 15.8849
744 2 91.0924 70.7392 15.6952
745 2 95.027 71.0003 15.9783
746 2 99.1669 71.0646 16.0096
747 2 102.923 71.1008 15.8297
748 2 107.056 71.2342 15.9984
749 2 111.134 71.015 15.7943
750 2 114.859 71.3252 0.0334781
751 2 118.979 71.2161 15.8839
752 2 123.138 71.3987 0.0817071
753 2 127.009 71.2894 15.7433
754 2 131.105 71.4676 15.8977
755 2 135.064 71.6072 15.9572
756 2 139.068 71.3333 16.096
757 2 142.77 71.3983 0.00304459
758 2 146.813 71.2517 0.0452894
759 2 150.775 71.2303 0.103737
760 2 154.619 71.3473 15.9829
761 2 0.356202 75.3162 -0.0179397
762 2 4.28203 75.0022 15.8742
763 2 8.04721 75.2019 16.1282
764 2 11.8419 75.0843 15.7945
765 2 15.884 74.8043 15.8079
766 2 19.914 75.1444 16.059
767 2 23.7732 74.8431 15.9831
768 2 27.8697 74.7557 15.9146
769 2 31.7892 74.7866 0.155084
770 2 35.6075 74.6403 16.0475
771 2 39.3744 74.7479 16.0569
772 2 43.4276 74.684 -0.0916155
773 2 47.3171 74.5847 15.9778
774 2 51.3184 74.5675 0.285711
775 2 55.2618 74.4252 16.1765
776 2 59.0515 74.5244 15.7615
777 2 63.0451 74.2982 15.9287
778 2 67.0913 74.575 -0.0180974
779 2 71.0344 74.4424 0.20229
780 2 74.9647 74.5259 0.428609
781 2 78.8098 74.7808 0.338667
782 2 82.9304 74.4265 0.0158634
783 2 86.919 74.5387 0.0742373
784 2 91.0328 74.7592 15.986
785 2 95.0625 74.9381 15.7804
786 2 98.8939 74.8644 0.264896
787 2 103.126 74.9393 16.0172
788 2 107.004 75.1905 15.8687
789 2 110.927 75.1236 16.0121
790 2 115.008 75.0964 15.8659
791 2 118.927 75.0754 -0.0682613
792 2 123.097 75.2857 15.9249
793 2 127.083 75.5063 15.8521
794 2 130.993 75.3463 0.07111
795 2 134.969 75.26 15.9418
796 2 138.996 75.2378 15.7913
797 2 143.06 75.4278 15.8479
798 2 146.913 75.3351 15.9008
799 2 150.836 75.1417 0.145562
800 2 154.702 75.2624 0.222888
801 2 0.505717 79.1666 0.0327079
802 2 4.22337 79.1505 15.909
803 2 8.13632 79.1441 0.119588
804 2 11.9163 79.0447 0.0142959
805 2 15.9493 79.0486 15.8715
806 2 19.8158 78.961 15.9328
807 2 23.9381 79.0652 0.0762119
808 2 27.7287 78.678 0.253637
809 2 31.6672 78.6801 0.382135
810 2 35.6254 78.8466 0.331605
811 2 39.5704 78.6823 15.9158
812 2 43.3743 78.5795 16.0392
813 2 47.4463 78.5801 16.1075
814 2 51.1566 78.4034 0.188947
815 2 55.1921 78.4385 0.105258
816 2 59.2516 78.5376 15.9336
817 2 63.087 78.2975 15.863
818 2 66.8997 78.2032 0.242476
819 2 70.9426 78.4229 15.9172
820 2 74.907 78.2942 0.187811
821 2 78.7575 78.4071 16.0788
822 2 83.0012 78.4485 15.9978
823 2 86.8184 78.6968 0.146725
824 2 90.8076 78.5561 0.0355595
825 2 94.7995 79.0493 0.193994
826 2 99.0844 78.8883 16.2043
827 2 102.851 78.9252 15.9929
828 2 106.926 79.0298 0.151903
829 2 111.139 79.0113 0.00681024
830 2 114.958 79.0379 0.39169
831 2 118.97 79.1063 0.30345
832 2 122.984 79.0604 16.0263
833 2 127.157 79.2305 0.0124721
834 2 130.902 79.0532 15.9797
835 2 134.86 79.3059 -0.153475
836 2 139.021 79.4304 15.8012
837 2 142.914 79.3755 15.8799
838 2 146.89 79.4519 15.8684
839 2 151.112 79.5017 15.9208
840 2 154.788 79.468 -0.00706329
841 2 0.53097 83.2804 15.819
842 2 4.30181 82.9704 16.0316
843 2 8.20994 83.0372 0.0612416
844 2 12.2079 83.0913 15.6909
845 2 16.2083 82.9947 15.7658
846 2 19.9215 83.016 0.0284634
847 2 24.0141 82.9774 15.8208
848 2 27.7917 82.8571 0.106582
849 2 31.7104 82.7473 16.0737
850 2 35.7815 82.6459 0.19922
851 2 39.6603 82.7758 0.366081
852 2 43.5086 82.6445 16.0633
853 2 47.4073 82.6057 0.238543
854 2 51.3305 82.6121 0.214709
855 2 55.2033 82.4744 0.183912
856 2 59.0665 82.4397 15.9503
857 2 62.9848 82.4077 15.9886
858 2 67.1441 82.2292 16.0655
859 2 70.9926 82.2193 15.9454
860 2 74.7983 82.145 15.9545
861 2 78.7003 82.2805 15.9305
862 2 82.8176 82.2936 0.12416
863 2 86.8694 82.5468 0.356824
864 2 90.7606 82.7744 15.9762
865 2 94.8868 82.6669 0.289478
866 2 98.7739 82.8296 15.8583
867 2 102.986 82.7624 0.215947
868 2 106.803 83.0813 15.8848
869 2 110.913 82.855 15.9862
870 2 114.928 83.0565 16.1391
871 2 118.874 82.881 15.8258
872 2 122.996 83.0933 16.0609
873 2 126.932 83.1139 16.0088
874 2 131.025 83.3315 16.0334
875 2 134.912 83.1687 -0.0262242
876 2 138.935 83.1159 15.8128
877 2 142.929 83.3994 0.221844
878 2 146.981 83.4012 15.9358
879 2 150.815 83.3108 0.299446
880 2 154.959 83.3608 0.244466
881 2 0.440453 87.2845 16.0983
882 2 4.34202 87.1634 0.311787
883 2 8.18663 86.931 15.8744
884 2 12.261 86.9802 15.9154
885 2 16.2966 87.0601 16.0118
886 2 20.1473 87.0945 16.0167
887 2 23.9575 86.779 15.804
888 2 27.9743 86.8787 -0.0245798
889 2 31.973 86.7666 16.0993
890 2 35.7169 86.9093 0.408877
891 2 39.5639 86.668 16.1687
892 2 43.7101 86.7107 15.7837
893 2 47.3546 86.7705 15.8823
894 2 51.4731 86.6039 15.8657
895 2 55.3769 86.5061 15.9968
896 2 59.1135 86.7045 0.278245
897 2 63.0019 86.4397 0.117672
898 2 66.8788 86.4444 15.8836
899 2 70.5874 86.4314 0.139092
900 2 74.8849 86.2223 16.1037
901 2 78.9035 86.2821 0.166884
902 2 82.9325 86.3785 0.292853
903 2 87.0101 86.3108 15.9027
904 2 91.0446 86.4542 15.7447
905 2 94.8188 86.5049 15.846
906 2 98.7283 86.7341 15.8555
907 2 102.895 86.9067 0.109976
908 2 106.807 86.8489 -0.0447846
909 2 110.831 86.7903 16.0172
910 2 114.758 86.8704 0.0416288
911 2 118.941 86.8726 0.182522
912 2 122.938 87.1272 0.0182051
913 2 127.027 87.1117 15.8173
914 2 130.899 87.1279 15.6865
915 2 135.027 87.1831 15.7544
916 2 138.959 87.2532 15.8384
917 2 142.864 87.1698 16.006
918 2 146.91 87.274 0.339578
919 2 151.023 87.3942 15.8905
920 2 154.845 87.3671 15.9159
921 2 0.634316 91.2038 0.0824376
922 2 4.63701 91.1139 0.153175
923 2 8.42568 90.8724 15.9084
924 2 12.3048 91.0729 15.8384
925 2 16.0287 91.0791 -0.111378
926 2 20.0383 91.2397 0.0524467
927 2 23.9654 90.9743 15.8828
928 2 28.1483 90.7977 15.7692
929 2 31.7948 90.7503 16.0017
930 2 35.8036 90.8639 4.87528e-05
931 2 39.7359 90.9081 15.8772
932 2 43.6351 90.655 15.8797
933 2 47.621 90.667 0.296168
934 2 51.4643 90.519 0.14773
935 2 55.461 90.5789 0.263157
936 2 59.3854 90.4346 0.122619
937 2 63.1003 90.4815 0.260809
938 2 67.2004 90.3141 16.0364
939 2 70.9864 90.2916 15.8859
940 2 74.8617 90.1592 0.115196
941 2 78.9438 90.3378 0.10957
942 2 82.7054 90.1968 0.24241
943 2 86.6425 90.2891 0.247874
944 2 90.7645 90.2425 -0.0171674
945 2 94.8078 90.5634 15.9058
946 2 98.5043 90.5705 15.9819
947 2 102.663 90.7271 0.296381
948 2 106.729 90.7933 15.8085
949 2 110.711 90.7298 15.8689
950 2 114.831 90.7408 -0.0154206
951 2 118.78 90.7194 0.267528
952 2 122.686 90.9914 15.8915
953 2 126.823 91.0556 0.266497
954 2 130.851 90.9996 0.16094
955 2 134.823 91.011 15.8446
956 2 138.838 91.0912 15.8969
957 2 142.788 91.2046 16.0202
958 2 146.819 91.0377 15.7605
959 2 150.946 91.2551 15.7875
960 2 154.776 91.409 15.9481
961 2 0.517093 95.2206 0.307299
962 2 4.73521 95.2306 16.0109
963 2 8.58583 95.192 15.8291
964 2 12.3176 95.0819 15.943
965 2 16.1679 94.9648 15.9154
966 2 20.218 94.9797 16.1381
967 2 23.9278 94.8967 15.8244
968 2 27.8733 94.7079 15.8276
969 2 31.9782 94.6852 15.902
970 2 35.8151 94.7205 15.7138
971 2 39.9035 94.7359 15.9726
972 2 43.7919 94.7855 16.134
973 2 47.5829 94.6794 0.16329
974 2 51.4879 94.5876 16.0483
975 2 55.4198 94.3555 0.180809
976 2 59.2681 94.366 16.017
977 2 63.2837 94.4227 0.070187
978 2 67.1319 94.3244 0.0913619
979 2 71.1743 94.2377 0.220069
980 2 75.0155 94.3963 0.385615
981 2 79.0095 94.4561 16.1032