ITEM: TIMESTEP
23900
ITEM: NUMBER OF ATOMS
32000
ITEM: BOX BOUNDS xy xz yz pp pp pp
0.0000000000000000e+00 1.5831999999999999e+02 0.0000000000000000e+00
0.0000000000000000e+00 1.5831999999999999e+02 0.0000000000000000e+00
1.6645064088432981e-01 1.5931261359115519e+01 0.0000000000000000e+00
ITEM: ATOMS id type x y z
1 2 158.027 157.697 15.8896
2 2 3.68546 157.856 15.8005
3 2 7.6925 157.95 0.280262
4 2 11.6529 158.056 0.0432564
5 2 15.5841 158.066 0.0711875
6 2 19.6442 157.996 15.7444
7 2 23.6141 157.936 15.9766
8 2 27.6672 158.089 15.9527
9 2 31.6353 158.241 0.320009
10 2 35.5775 158.129 15.9461
11 2 39.7154 0.0607962 15.867
12 2 43.8282 -0.102168 0.0708245
13 2 47.6027 -0.0597623 15.6914
14 2 51.7159 -0.00595565 0.282985
15 2 55.7354 158.32 0.0441117
16 2 59.7786 158.464 15.8876
17 2 63.8003 0.0635335 15.927
18 2 67.6264 0.12682 15.7697
19 2 71.7828 -0.001627 15.8575
20 2 75.6284 158.362 15.8799
21 2 79.5185 -0.0150259 15.6899
22 2 83.4861 158.149 15.6322
23 2 87.2668 158.393 15.9058
24 2 91.2319 158.014 0.107552
25 2 95.1387 158.029 15.7699
26 2 98.8168 158.054 16.0329
27 2 102.734 158.127 15.9273
28 2 106.903 158.043 16.0062
29 2 110.851 157.935 0.293951
30 2 114.73 157.843 0.144843
31 2 118.483 157.974 16.0607
32 2 122.439 157.888 0.102432
33 2 126.479 157.962 0.209487
34 2 130.653 157.763 0.391794
35 2 134.391 157.703 15.8613
36 2 138.025 157.613 16.0687
37 2 141.984 157.697 15.82
38 2 145.971 157.556 15.9942
39 2 149.937 157.733 -0.0401705
40 2 153.912 157.604 0.0418852
41 2 157.868 3.32646 15.8638
42 2 3.55981 3.46319 15.7687
43 2 7.60457 3.52609 0.101222
44 2 11.566 3.48658 15.8697
45 2 15.5409 3.57508 15.9366
46 2 19.4981 3.65326 16.1204
47 2 23.6292 3.6773 0.186585
48 2 27.3585 3.8688 0.150237
49 2 31.567 3.71271 0.155462
50 2 35.6644 3.77742 0.127516
51 2 39.6215 3.86765 0.204215
52 2 43.6444 3.80638 16.0141
53 2 47.5531 4.08106 15.5813
54 2 51.5548 3.72482 15.8682
55 2 55.7786 4.03064 0.140668
56 2 59.8388 4.02439 15.9739
57 2 63.6466 4.07505 15.9451
58 2 67.6806 4.17803 15.8895
59 2 71.6097 4.04402 15.9024
60 2 75.6816 4.08313 15.6867
61 2 79.3682 3.85421 15.8636
62 2 83.4087 3.8298 15.8658
63 2 87.3718 3.75161 15.9912
64 2 91.3068 3.86684 0.0967539
65 2 95.1934 3.90071 15.7163
66 2 98.9322 3.80646 0.0561077
67 2 102.862 3.7589 15.8342
68 2 106.988 3.84722 16.0482
69 2 110.757 3.59951 0.172785
70 2 114.747 3.53409 0.293086
71 2 118.729 3.51736 0.255218
72 2 122.468 3.38612 0.384662
73 2 126.302 3.43406 0.184365
74 2 130.405 3.33916 0.0781904
75 2 134.272 3.41135 16.0442
76 2 138.032 3.4032 0.228613
77 2 141.959 3.14364 -0.0546901
78 2 146.212 3.34551 0.267421
79 2 149.988 3.20023 15.9323
80 2 153.766 3.43109 15.7784
81 2 157.937 7.42746 15.5757
82 2 3.48833 7.15983 15.8949
83 2 7.51927 7.5067 15.8844
84 2 11.4816 7.37792 0.0429205
85 2 15.5077 7.49075 15.9776
86 2 19.5142 7.46956 15.8651
87 2 23.4525 7.6509 0.376871
88 2 27.6115 7.75147 15.8342
89 2 31.5801 7.70146 15.9258
90 2 35.6015 7.54023 15.8846
91 2 39.5356 7.55935 0.0796089
92 2 43.5213 7.9093 0.0658022
93 2 47.5575 7.99358 15.7058
94 2 51.4783 7.80593 0.217698
95 2 55.7522 7.88217 15.8858
96 2 59.6821 7.76784 0.0809618
97 2 63.8566 8.06542 15.9789
98 2 67.604 8.16798 15.8205
99 2 71.8008 8.05323 15.741
100 2 75.6098 7.86473 15.9857
101 2 79.3669 8.14048 -0.140384
102 2 83.3803 7.84657 15.9873
103 2 87.3356 7.78782 15.9417
104 2 91.1789 7.88373 15.8255
105 2 95.2341 7.73186 15.8023
106 2 99.0797 7.76256 0.00715415
107 2 103.045 7.6596 0.084562
108 2 106.964 7.55723 15.9382
109 2 110.785 7.65231 -0.0802486
110 2 114.798 7.64128 16.208
111 2 118.628 7.6731 15.9432
112 2 122.647 7.51276 16.0316
113 2 126.394 7.348 16.0443
114 2 130.485 7.38003 0.202815
115 2 134.327 7.49961 0.38077
116 2 138.26 7.31781 15.8375
117 2 142.133 7.42699 15.8654
118 2 146.009 7.24092 0.0630372
119 2 150.044 7.11416 0.207133
120 2 153.9 7.14745 15.8271
121 2 157.952 11.3189 15.5773
122 2 3.61486 11.2145 15.9018
123 2 7.5197 11.3063 15.9886
124 2 11.6135 11.5044 0.268852
125 2 15.6062 11.2313 15.8326
126 2 19.6054 11.4915 15.9115
127 2 23.5616 11.3855 15.8974
128 2 27.6685 11.3865 15.8632
129 2 31.5333 11.4775 15.9499
130 2 35.6195 11.459 15.946
131 2 39.56 11.6141 15.8792
132 2 43.6232 11.791 0.116085
133 2 47.6893 11.7261 -0.000488841
134 2 51.6625 11.8309 16.1003
135 2 55.5736 11.7091 -0.053708
136 2 59.8286 11.7318 16.0016
137 2 63.6203 11.8184 0.213246
138 2 67.6292 11.846 15.9047
139 2 71.5793 11.9741 16.0181
140 2 75.7254 12.2487 15.6404
141 2 79.6508 11.9795 15.7569
142 2 83.5525 11.9585 16.0424
143 2 87.5583 11.9328 0.216598
144 2 91.5377 11.9983 0.140884
145 2 95.3447 11.8691 16.0153
146 2 99.0292 11.7452 15.9269
147 2 103.135 11.8801 0.248665
148 2 106.925 11.7483 15.9224
149 2 110.784 11.7852 0.333324
150 2 114.828 11.548 16.0881
151 2 118.814 11.6703 0.18456
152 2 122.655 11.3896 0.188743
153 2 126.682 11.481 15.8391
154 2 130.475 11.465 15.8529
155 2 134.496 11.4125 0.161157
156 2 138.16 11.3539 -0.173305
157 2 141.978 11.3647 -0.0138968
158 2 146.095 11.3356 0.213243
159 2 149.881 11.1339 0.184582
160 2 153.875 11.1459 0.0941145
161 2 157.784 15.2198 15.7254
162 2 3.48266 15.2235 15.9745
163 2 7.55735 15.2127 15.8659
164 2 11.3248 15.3383 15.8464
165 2 15.5213 15.3318 15.7691
166 2 19.543 15.3105 0.0127647
167 2 23.6244 15.514 0.185755
168 2 27.4411 15.4462 15.7931
169 2 31.5537 15.4376 0.303818
170 2 35.4877 15.64 15.8542
171 2 39.4744 15.4876 0.295236
172 2 43.4917 15.6396 0.341887
173 2 47.4286 15.6326 0.220492
174 2 51.6775 15.6511 0.247613
175 2 55.6105 15.7397 16.0216
176 2 59.4651 15.6887 0.387398
177 2 63.4827 15.8964 15.8555
178 2 67.4102 15.8593 15.8143
179 2 71.5788 15.7534 0.324378
180 2 75.7683 15.8627 0.0930814
181 2 79.6902 15.8849 15.996
182 2 83.8162 15.9305 0.0559857
183 2 87.5798 16.2043 15.947
184 2 91.5095 15.7682 0.0110577
185 2 95.3652 15.7195 15.8829
186 2 99.2556 15.8032 15.8225
187 2 103.358 15.7319 15.8553
188 2 107.002 15.729 15.9992
189 2 110.996 15.8129 15.9332
190 2 114.858 15.4168 15.9161
191 2 118.822 15.5695 0.0176518
192 2 122.64 15.5354 15.8016
193 2 126.561 15.5344 15.7749
194 2 130.506 15.5063 0.253631
195 2 134.237 15.3238 0.156115
196 2 138.3 15.3598 0.0668818
197 2 142.177 15.1898 15.8682
198 2 146.143 15.2977 -0.147429
199 2 149.859 15.4376 0.133801
200 2 153.912 15.1432 15.7663
201 2 157.779 19.1173 15.8154
202 2 3.52871 18.9987 0.142493
203 2 7.4608 19.0896 0.25026
204 2 11.4212 19.3636 15.7442
205 2 15.3737 19.1956 16.0346
206 2 19.4837 19.2043 15.7028
207 2 23.3983 19.225 15.8775
208 2 27.4734 19.324 15.9066
209 2 31.1014 19.2336 16.0798
210 2 35.5995 19.2939 15.9652
211 2 39.4985 19.308 0.0312394
212 2 43.5373 19.4422 15.734
213 2 47.6603 19.5807 15.8035
214 2 51.4825 19.7334 0.163766
215 2 55.6978 19.6321 15.9975
216 2 59.4338 19.7287 15.9798
217 2 63.6645 19.8378 15.9749
218 2 67.4355 19.601 16.0007
219 2 71.5254 19.812 0.266838
220 2 75.6599 19.6826 0.209017
221 2 79.6558 19.8988 0.260721
222 2 83.5947 20.0508 15.9253
223 2 87.6268 19.8837 0.248358
224 2 91.522 19.7714 0.0828623
225 2 95.3194 19.7018 16.0826
226 2 99.1753 19.9389 15.84
227 2 103.228 19.691 15.8818
228 2 107.141 19.5996 15.8714
229 2 111.088 19.6868 0.149023
230 2 115.013 19.6364 15.9699
231 2 118.78 19.3949 15.8603
232 2 122.706 19.7397 15.791
233 2 126.735 19.4361 15.7873
234 2 130.509 19.4266 16.0037
235 2 134.478 19.2815 0.203607
236 2 138.495 19.4591 15.9885
237 2 142.443 19.5374 15.9286
238 2 145.969 19.1746 0.0408659
239 2 150.059 19.2529 15.9962
240 2 153.899 19.0601 0.171888
241 2 157.932 23.3581 15.7757
242 2 3.41823 23.1829 15.792
243 2 7.45036 23.1174 0.246342
244 2 11.6215 23.2365 0.0397723
245 2 15.3114 23.1553 15.7463
246 2 19.3496 23.2589 15.8845
247 2 23.3612 23.1858 15.592
248 2 27.3993 23.1828 15.7738
249 2 31.6832 23.2546 0.232113
250 2 35.3969 23.184 16.0202
251 2 39.5544 23.4638 0.355024
252 2 43.2503 23.2721 15.9769
253 2 47.5079 23.3769 0.234722
254 2 51.5281 23.4883 0.290331
255 2 55.4623 23.5023 0.198902
256 2 59.5617 23.5531 16.0606
257 2 63.4084 23.6156 0.0330187
258 2 67.5376 23.4398 15.9293
259 2 71.6788 23.7827 15.8827
260 2 75.6947 23.6199 0.271103
261 2 79.5854 23.6343 15.8558
262 2 83.4745 23.8319 0.225246
263 2 87.5566 23.7588 16.1073
264 2 91.3717 23.6896 15.9178
265 2 95.475 23.9839 16.0579
266 2 99.3106 23.9578 0.0795031
267 2 103.142 23.828 15.8728
268 2 107.148 23.7143 15.8255
269 2 110.812 23.6731 0.080957
270 2 114.889 23.7633 15.9682
271 2 118.834 23.554 16.1339
272 2 122.726 23.5154 0.138141
273 2 126.538 23.5208 15.8737
274 2 130.491 23.5241 15.9766
275 2 134.399 23.4236 15.767
276 2 138.447 23.4021 16.0318
277 2 142.107 23.3648 15.905
278 2 146.259 23.4158 0.229336
279 2 150.119 23.2869 0.26087
280 2 153.906 23.3071 0.279692
281 2 157.903 27.4099 0.3784
282 2 3.73021 27.1394 -0.141953
283 2 7.57859 27.1814 0.192572
284 2 11.442 27.0134 15.8943
285 2 15.1763 26.9749 15.9404
286 2 19.2701 27.1125 0.0336671
287 2 23.3868 26.9825 15.9113
288 2 27.4006 27.0761 16.0193
289 2 31.4327 27.2716 0.285069
290 2 35.4359 27.1821 0.251916
291 2 39.2361 27.2794 0.354269
292 2 43.3021 27.3074 0.186305
293 2 47.3692 27.2321 0.193126
294 2 51.4652 27.342 15.854
295 2 55.401 27.4327 0.00602687
296 2 59.3567 27.5988 15.9276
297 2 63.4949 27.5905 15.9444
298 2 67.3852 27.4272 16.1484
299 2 71.5025 27.4425 15.7679
300 2 75.5659 27.6284 0.123091
301 2 79.612 27.5287 0.209594
302 2 83.6185 27.7811 15.8106
303 2 87.5583 27.6111 0.177266
304 2 91.4196 27.6042 0.0629838
305 2 95.5876 27.5643 0.264928
306 2 99.3659 27.849 0.0767585
307 2 103.469 27.9855 15.9096
308 2 107.15 27.8671 0.0586479
309 2 111.115 27.6805 15.8276
310 2 114.87 27.5778 15.7823
311 2 118.766 27.5259 0.0568802
312 2 122.656 27.4808 0.295931
313 2 126.515 27.5765 16.0424
314 2 130.547 27.525 16.1091
315 2 134.524 27.5862 15.7684
316 2 138.408 27.4354 15.9228
317 2 142.456 27.3942 0.266802
318 2 146.287 27.342 0.264882
319 2 150.07 27.4164 0.368621
320 2 153.957 27.2302 0.190375
321 2 158.208 31.3434 15.972
322 2 3.63558 31.2014 15.8974
323 2 7.40067 31.0813 15.9128
324 2 11.3568 31.0285 0.237254
325 2 15.4548 31.0017 0.141889
326 2 19.3233 31.0179 16.0189
327 2 23.4993 31.0704 15.965
328 2 27.3897 31.1102 0.275112
329 2 31.3952 31.0363 15.8651
330 2 35.3653 31.0998 16.0825
331 2 39.5249 31.3169 16.1013
332 2 43.4784 31.1382 0.295814
333 2 47.3179 31.1834 15.9214
334 2 51.491 31.0558 0.0412566
335 2 55.4283 31.1099 15.9979
336 2 59.4927 31.3657 0.0176161
337 2 63.3975 31.4651 15.9609
338 2 67.5271 31.5669 0.231777
339 2 71.5158 31.227 0.243066
340 2 75.5233 31.5965 0.0992497
341 2 79.4523 31.6503 16.1866
342 2 83.2725 31.6963 0.08035
343 2 87.4954 31.8869 15.8904
344 2 91.6053 31.6619 15.7845
345 2 95.6081 31.7466 15.8732
346 2 99.4086 31.9013 0.247342
347 2 103.47 31.8212 15.7266
348 2 107.3 31.6175 15.7686
349 2 111.132 31.7294 15.7715
350 2 115.046 31.5466 15.7724
351 2 118.803 31.8004 15.8997
352 2 122.725 31.5735 15.9064
353 2 126.851 31.4847 16.0386
354 2 130.721 31.4656 16.0276
355 2 134.495 31.4792 16.1055
356 2 138.458 31.3278 15.9337
357 2 142.383 31.2831 0.378844
358 2 146.293 31.2709 15.9471
359 2 150.249 31.4447 0.331707
360 2 154.082 31.1966 0.267142
361 2 -0.26929 35.2535 0.124753
362 2 3.6488 35.0235 15.9963
363 2 7.56454 34.9445 15.823
364 2 11.4668 35.1643 15.8706
365 2 15.3501 35.0836 0.228905
366 2 19.3878 34.8493 0.295448
367 2 23.099 34.8027 0.176219
368 2 27.2619 34.9581 0.158173
369 2 31.1524 34.8697 0.0637407
370 2 35.3764 34.9159 0.254995
371 2 39.2916 35.1732 0.379328
372 2 43.437 35.0679 16.1075
373 2 47.2326 35.074 16.0019
374 2 51.2339 35.1837 15.963
375 2 55.2997 35.3054 0.193487
376 2 59.5073 35.3817 0.188088
377 2 63.4469 35.3328 15.9317
378 2 67.4099 35.4053 0.285236
379 2 71.3744 35.3764 0.240448
380 2 75.4514 35.5228 16.0387
381 2 79.3601 35.5271 0.215109
382 2 83.46 35.386 15.9674
383 2 87.4712 35.4356 0.167325
384 2 91.4104 35.555 -0.0968368
385 2 95.3659 35.7767 15.7534
386 2 99.4941 35.6824 -0.00508984
387 2 103.537 35.8803 15.9355
388 2 107.445 35.6481 15.9886
389 2 111.217 35.6296 15.7695
390 2 115.07 35.5681 16.0787
391 2 118.946 35.5217 15.9652
392 2 123.042 35.7045 15.9435
393 2 126.694 35.6204 16.0194
394 2 130.92 35.5258 16.1259
395 2 134.685 35.5631 16.0744
396 2 138.577 35.5393 0.306445
397 2 142.503 35.3126 0.275271
398 2 146.482 35.1803 0.313219
399 2 150.151 35.4347 16.1268
400 2 154.367 35.4516 0.286198
401 2 158.145 39.2036 0.230486
402 2 3.67626 38.9538 0.288319
403 2 7.46965 38.9625 0.164425
404 2 11.5647 38.8362 16.0265
405 2 15.4839 38.9678 0.184802
406 2 19.4297 38.9123 15.9052
407 2 23.2863 39.0053 15.8074
408 2 27.2513 38.9195 15.7212
409 2 31.1856 38.8547 -0.0334608
410 2 35.2504 39.045 -0.0454021
411 2 39.2901 38.9314 15.9882
412 2 43.3257 39.0705 0.31653
413 2 47.1796 38.9348 0.167967
414 2 51.3512 39.0743 15.8965
415 2 55.4125 39.1758 0.184671
416 2 59.3846 39.2184 0.101357
417 2 63.2789 39.163 0.0135554
418 2 67.4107 39.3626 0.327083
419 2 71.5607 39.3014 0.156193
420 2 75.2511 39.3966 0.100636
421 2 79.3927 39.2934 0.0664011
422 2 83.3486 39.4894 15.855
423 2 87.3794 39.4745 15.9263
424 2 91.2651 39.4068 15.8971
425 2 95.411 39.6356 15.8438
426 2 99.3192 39.7197 0.286277
427 2 103.602 39.6947 15.8394
428 2 107.514 39.6883 16.0148
429 2 111.175 39.7728 16.1342
430 2 115.259 39.7052 16.0116
431 2 119.139 39.6851 16.009
432 2 122.708 39.6916 16.0164
433 2 126.851 39.5553 0.205869
434 2 130.805 39.4867 15.9074
435 2 134.728 39.6536 15.8484
436 2 138.839 39.4 16.0642
437 2 142.699 39.4652 15.984
438 2 146.474 39.2209 0.3547
439 2 150.234 39.4074 16.1602
440 2 154.26 39.2616 16.1389
441 2 158.264 43.012 0.238092
442 2 3.73436 43.0435 15.8466
443 2 7.66013 42.965 15.8878
444 2 11.529 42.8495 0.111554
445 2 15.401 43.005 0.0205622
446 2 19.2702 43.0824 0.170414
447 2 23.2535 42.9146 15.982
448 2 27.3583 42.8521 15.8385
449 2 31.1164 43.0314 -0.11356
450 2 35.0208 42.8409 0.0538661
451 2 39.1733 42.7961 0.259027
452 2 43.3639 43.0157 0.229208
453 2 47.2812 42.9506 15.8223
454 2 51.473 43.0106 15.9574
455 2 55.1664 43.1521 0.157298
456 2 59.4043 43.2088 15.9018
457 2 63.3812 43.1154 0.121767
458 2 67.3911 43.1097 0.213568
459 2 71.3297 43.4398 0.175521
460 2 75.3585 43.3781 0.0886213
461 2 79.261 43.4603 0.0646894
462 2 83.3122 43.503 15.967
463 2 87.4906 43.3743 16.1732
464 2 91.2626 43.3266 0.297519
465 2 95.3124 43.582 0.15648
466 2 99.3271 43.5927 15.766
467 2 103.494 43.6844 15.8476
468 2 107.261 43.6698 15.9806
469 2 111.502 43.7667 15.7001
470 2 115.172 43.8447 15.8634
471 2 119.172 43.6967 15.9483
472 2 123.097 43.5143 15.8673
473 2 126.961 43.4993 0.215791
474 2 130.932 43.5526 0.358303
475 2 134.701 43.4325 15.9935
476 2 138.485 43.5171 16.0284
477 2 142.251 43.596 16.0953
478 2 146.377 43.2448 0.220525
479 2 150.361 43.2586 0.27738
480 2 154.292 43.2837 0.450426
481 2 -0.0800035 47.251 0.254693
482 2 3.96562 47.0472 0.249457
483 2 7.67753 46.9691 0.17006
484 2 11.5681 47.1458 0.269143
485 2 15.5994 46.9966 0.202026
486 2 19.5656 46.9563 0.228647
487 2 23.4899 46.8589 0.188507
488 2 27.3187 46.8469 16.0504
489 2 31.153 46.8274 0.208722
490 2 35.3077 46.7151 0.0670919
491 2 39.2508 46.7027 15.8371
492 2 43.2888 46.88 16.0503
493 2 47.3053 46.8216 0.249979
494 2 51.4731 47.0303 15.9163
495 2 55.4086 47.0221 15.8307
496 2 59.129 47.0878 16.0348
497 2 63.3525 46.9216 0.321364
498 2 67.1267 47.102 0.202997
499 2 71.3171 47.2998 15.9092
500 2 75.2671 47.374 0.0302
501 2 79.5227 47.1056 15.7882
502 2 83.4495 47.1694 15.9254
503 2 87.4556 47.3483 0.102023
504 2 91.3345 47.2701 0.0890235
505 2 95.2747 47.5066 0.170263
506 2 99.3335 47.3384 0.0941016
507 2 103.281 47.6794 0.0379283
508 2 107.48 47.46 15.9235
509 2 111.288 47.6602 15.9667
510 2 115.257 47.7283 0.322979
511 2 119.209 47.7282 15.8804
512 2 123.081 47.8135 15.9922
513 2 126.881 47.4338 15.9955
514 2 130.875 47.5374 15.9344
515 2 134.808 47.6081 16.09
516 2 138.769 47.6559 16.006
517 2 142.695 47.517 15.9697
518 2 146.654 47.3723 0.12646
519 2 150.18 47.392 0.357005
520 2 154.127 47.1465 15.908
521 2 158.125 51.3142 0.293708
522 2 3.86209 51.1479 15.8324
523 2 7.4436 51.0378 15.9892
524 2 11.732 50.9874 15.9771
525 2 15.6062 51.0569 0.176619
526 2 19.5438 51.0646 16.102
527 2 23.3928 51.1278 16.0412
528 2 27.485 50.9918 16.0379
529 2 31.49 50.9339 0.214116
530 2 35.1699 50.8291 0.423807
531 2 39.1984 50.6692 16.0447
532 2 43.1015 50.663 15.7667
533 2 47.1664 50.768 0.0967721
534 2 51.0957 50.8501 -0.029214
535 2 55.0995 51.0382 0.0590253
536 2 59.2729 50.8309 15.9994
537 2 63.2048 50.8623 15.9358
538 2 67.3748 50.9164 0.0795271
539 2 71.3056 51.0417 -0.0119177
540 2 75.2344 51.2488 0.214385
541 2 79.374 50.9786 -0.00572124
542 2 83.2136 51.163 0.104745
543 2 87.2843 51.1137 0.357312
544 2 91.4591 51.4486 0.100983
545 2 95.3858 51.3292 0.0567655
546 2 99.1834 51.542 0.248563
547 2 103.069 51.5624 15.9806
548 2 107.023 51.5357 0.151413
549 2 111.112 51.5104 0.15878
550 2 115.179 51.4928 16.0422
551 2 119.21 51.7985 15.8841
552 2 123.031 51.7166 16.1637
553 2 127.135 51.4835 16.0737
554 2 131.009 51.5845 0.119997
555 2 134.92 51.5853 0.429766
556 2 138.71 51.4223 0.303688
557 2 142.682 51.552 0.383225
558 2 146.545 51.4586 16.0004
559 2 150.434 51.3804 0.152851
560 2 154.241 51.0825 0.134766
561 2 158.388 55.1407 0.21073
562 2 3.87875 55.1547 0.421375
563 2 7.91226 54.992 0.191902
564 2 11.7442 55.1128 0.145456
565 2 15.8406 55.2011 0.394154
566 2 19.6187 55.0063 16.0831
567 2 23.3242 54.9721 15.7677
568 2 27.4371 54.8414 16.1128
569 2 31.4803 54.9488 0.0246041
570 2 35.2788 54.8015 0.238205
571 2 39.3281 54.7647 15.873
572 2 43.0855 54.9804 16.0156
573 2 47.2367 54.6102 0.501813
574 2 51.1712 54.7494 15.8705
575 2 55.2161 54.6979 15.9991
576 2 59.4063 54.6475 15.8381
577 2 63.1969 54.765 15.9805
578 2 67.1061 54.7562 -0.0587169
579 2 71.204 54.8736 0.0955574
580 2 75.3548 55.1072 15.8812
581 2 79.286 54.8699 0.0841868
582 2 83.2455 55.2103 0.0163632
583 2 87.2789 55.0176 0.310916
584 2 91.1617 55.3432 15.9311
585 2 95.2627 55.1555 0.0769336
586 2 99.241 55.4468 15.9777
587 2 103.171 55.4611 15.7406
588 2 107.144 55.5214 0.0297813
589 2 110.985 55.4652 15.8519
590 2 115.193 55.419 15.7508
591 2 119.225 55.6059 15.9128
592 2 123.382 55.7332 0.221385
593 2 127.224 55.6479 15.9668
594 2 130.918 55.501 15.8629
595 2 134.823 55.4289 0.268853
596 2 138.845 55.5249 16.0747
597 2 142.775 55.4204 0.176113
598 2 146.585 55.2926 0.133731
599 2 150.512 55.2359 0.387209
600 2 154.182 55.3277 15.9443
601 2 158.432 59.2134 0.272428
602 2 4.1098 59.1513 15.9634
603 2 7.98292 59.1248 16.0109
604 2 11.9007 58.9749 0.191452
605 2 15.6167 59.2084 15.8844
606 2 19.7826 59.0389 0.20475
607 2 23.5785 58.8342 0.187012
608 2 27.5636 58.8802 0.278589
609 2 31.4999 58.8437 16.0139
610 2 35.5367 58.8125 15.915
611 2 39.4705 58.7483 15.9326
612 2 43.1704 58.6878 16.0522
613 2 47.1085 58.666 15.9357
614 2 51.0478 58.7737 15.9387
615 2 55.0456 58.5838 15.9682
616 2 59.2188 58.6687 0.118038
617 2 63.0386 58.6737 15.9774
618 2 67.186 58.6004 0.0958622
619 2 71.2051 58.8772 16.0069
620 2 75.2659 58.9617 0.337958
621 2 79.2469 58.9729 0.245759
622 2 83.2481 58.9714 0.231788
623 2 87.203 59.136 15.8805
624 2 91.3079 59.186 15.8638
625 2 95.3353 59.0796 0.233949
626 2 99.0512 59.451 0.125847
627 2 102.959 59.3572 15.7935
628 2 107.246 59.5337 -0.0312425
629 2 111.291 59.2157 15.8682
630 2 115.19 59.4413 15.8794
631 2 119.171 59.6724 15.8471
632 2 123.078 59.6702 -0.00355745
633 2 127.192 59.7927 15.7935
634 2 131.255 59.8016 0.37345
635 2 135.073 59.4212 15.9573
636 2 138.759 59.3723 0.118465
637 2 142.806 59.4155 0.214412
638 2 146.898 59.3596 0.197831
639 2 150.641 59.29 16.041
640 2 154.493 59.2258 0.258103
641 2 0.279761 63.0931 0.213587
642 2 4.15026 63.2169 0.0890643
643 2 7.94845 62.9691 16.034
644 2 11.7161 63.1781 16.1527
645 2 15.7223 63.0767 15.9762
646 2 19.7254 63.018 0.0930337
647 2 23.5971 62.8576 0.141548
648 2 27.5124 62.7957 0.376457
649 2 31.4249 62.773 0.0566093
650 2 35.492 62.7219 0.177795
651 2 39.2692 62.6885 15.8961
652 2 43.1981 62.6518 0.296098
653 2 47.2666 62.665 15.9781
654 2 51.0268 62.4771 16.1546
655 2 55.1725 62.5182 0.274498
656 2 58.968 62.479 16.0149
657 2 62.7483 62.6208 0.203103
658 2 67.0256 62.5875 15.8578
659 2 71.0128 62.5876 0.115574
660 2 75.1578 62.6227 0.124004
661 2 79.3093 62.851 0.217608
662 2 83.2244 62.851 0.278806
663 2 87.2195 62.897 15.8334
664 2 91.4653 63.1033 15.8013
665 2 95.2026 63.1135 0.123748
666 2 99.1949 63.1234 0.200239
667 2 103.248 63.3333 16.0195
668 2 107.155 63.3789 15.7684
669 2 111.157 63.1992 16.0012
670 2 115.23 63.2797 0.123882
671 2 119.139 63.4957 15.7443
672 2 122.926 63.4765 -0.00444952
673 2 126.944 63.3598 16.1943
674 2 131.145 63.5357 0.279792
675 2 135.137 63.5329 15.8799
676 2 138.852 63.5984 16.1389
677 2 142.64 63.2773 15.7618
678 2 146.633 63.561 0.0648008
679 2 150.654 63.2422 16.0935
680 2 154.568 63.2728 0.257594
681 2 0.0828275 67.2518 0.234853
682 2 4.04171 67.1505 0.275696
683 2 7.8466 67.1418 15.9978
684 2 11.9461 67.1221 16.0505
685 2 15.7755 67.0253 0.201283
686 2 19.8926 67.0506 0.252931
687 2 23.7878 66.8317 0.129596
688 2 27.6407 66.9041 0.220493
689 2 31.5739 66.7336 0.345631
690 2 35.6055 66.7195 0.346778
691 2 39.5432 66.702 16.0009
692 2 43.5263 66.6842 0.141014
693 2 47.2711 66.5611 16.1272
694 2 51.0264 66.6111 16.1563
695 2 55.0331 66.5286 16.0333
696 2 59.1131 66.5678 15.7541
697 2 63.0524 66.5173 15.7414
698 2 66.9082 66.5499 15.9364
699 2 70.8845 66.4883 0.224905
700 2 75.089 66.5157 15.7693
701 2 79.1708 66.8983 16.1522
702 2 83.0164 66.8223 0.177858
703 2 87.2344 66.97 15.8103
704 2 91.0673 66.7627 15.943
705 2 95.1316 67.147 0.18396
706 2 99.0729 67.2819 0.0626541
707 2 103.171 67.2525 0.194998
708 2 107.211 67.1381 16.036
709 2 111.117 67.3045 15.7285
710 2 115.126 67.298 15.9595
711 2 119.084 67.4063 0.0403355
712 2 123.014 67.3284 0.175327
713 2 126.976 67.3443 0.112041
714 2 131.201 67.4175 15.9155
715 2 135.118 67.5864 0.0761623
716 2 138.765 67.3917 0.0735558
717 2 142.801 67.3759 15.9491
718 2 146.509 67.2865 15.9634
719 2 150.601 67.3155 16.0265
720 2 154.424 67.15 0.191501
721 2 0.315158 71.2479 0.519612
722 2 4.22628 71.2528 16.0681
723 2 8.0379 71.1313 0.331031
724 2 12.1092 71.0949 16.0216
725 2 16.2051 71.1027 0.28079
726 2 19.8832 70.9702 0.26656
727 2 23.8255 70.7661 0.289101
728 2 27.6744 70.8807 15.7594
729 2 31.7449 70.6387 0.401187
730 2 35.5041 70.7081 0.201118
731 2 39.581 70.6888 16.2103
732 2 43.38 70.7237 0.261652
733 2 47.3853 70.5523 16.1417
734 2 51.1993 70.7603 16.1534
735 2 55.0747 70.4676 0.332204
736 2 59.059 70.5423 -0.0786877
737 2 62.8406 70.4502 0.0978171
738 2 66.9803 70.4613 16.0587
739 2 71.0022 70.3886 16.0111
740 2 74.9301 70.3373 16.1191
741 2 79.0875 70.5714 0.209783
742 2 83.1875 70.8179 0.104579
743 2 87.0328 70.6717 15.7922
744 2 90.99 70.9049 16.0164
745 2 95.0755 71.0223 15.9332
746 2 99.0023 71.0582 15.8353
747 2 103.082 71.2066 16.135
748 2 107.002 70.9841 16.0007
749 2 111.046 71.2335 15.9867
750 2 115.202 71.1791 0.198255
751 2 119.147 71.3246 15.899
752 2 122.961 71.2107 0.0651784
753 2 126.995 71.4753 15.8069
754 2 130.929 71.3393 16.0536
755 2 135.159 71.4223 15.9064
756 2 139.001 71.4889 15.8492
757 2 142.975 71.326 0.280837
758 2 146.731 71.3024 0.201421
759 2 150.612 71.2626 0.164811
760 2 154.672 71.1661 16.0293
761 2 0.270365 75.3669 0.239677
762 2 4.07797 75.371 16.0506
763 2 8.14099 75.0224 15.7882
764 2 12.1567 75.1245 16.1223
765 2 15.9961 75.1025 16.0301
766 2 19.8967 74.8656 16.0107
767 2 23.7511 74.9734 16.1356
768 2 27.5708 74.7817 15.8953
769 2 31.7403 74.661 0.343613
770 2 35.5901 74.8433 15.9592
771 2 39.4909 74.6144 16.0462
772 2 43.5014 74.667 0.522573
773 2 47.3808 74.5782 16.1206
774 2 51.3306 74.4652 0.392377
775 2 55.0334 74.4786 15.9524
776 2 58.9094 74.3422 15.9498
777 2 62.8854 74.4625 15.8821
778 2 66.7514 74.1257 0.144988
779 2 70.977 74.2954 0.296469
780 2 74.9265 74.2599 0.111295
781 2 78.8225 74.4148 0.162383
782 2 82.8154 74.7824 0.281478
783 2 87.0857 74.803 0.305536
784 2 90.9471 74.6648 15.8676
785 2 94.9435 74.9383 15.946
786 2 99.0816 74.9724 0.0787436
787 2 102.975 75.2047 15.8969
788 2 106.906 75.1099 15.9082
789 2 111.075 75.0608 15.9973
790 2 115.015 75.1062 15.9767
791 2 118.917 75.3769 0.289916
792 2 122.785 75.0815 16.1275
793 2 126.905 75.1947 15.703
794 2 131.003 75.2894 0.204019
795 2 135.013 75.522 15.8887
796 2 138.842 75.3634 15.9211
797 2 142.766 75.4186 15.8603
798 2 146.797 75.3321 15.8268
799 2 150.677 75.3541 0.219795
800 2 154.713 75.2069 0.24425
801 2 0.41128 79.3405 0.038751
802 2 4.349 79.0958 16.0378
803 2 8.21673 79.0977 0.0508368
804 2 12.199 79.0842 0.162954
805 2 16.0672 78.8926 15.9369
806 2 19.9799 78.8665 15.8101
807 2 23.7913 78.7388 0.286981
808 2 27.8676 78.8543 0.152462
809 2 31.8993 78.9214 0.132277
810 2 35.5936 78.7897 0.423947
811 2 39.3788 78.6918 16.1413
812 2 43.4646 78.6366 15.9022
813 2 47.249 78.6746 15.9814
814 2 51.2596 78.7006 0.195002
815 2 55.0033 78.546 0.032156
816 2 58.885 78.3131 15.841
817 2 62.8745 78.3331 15.8463
818 2 66.9344 78.478 0.0976595
819 2 70.8126 78.2378 16.0439
820 2 74.7976 78.3815 0.292555
821 2 78.9785 78.4007 15.9476
822 2 82.8507 78.6668 15.9921
823 2 86.9722 78.7397 0.236103
824 2 90.9598 78.8908 0.296333
825 2 94.7429 78.795 0.226413
826 2 98.8076 78.7547 15.855
827 2 103.101 79.0202 15.888
828 2 107.056 79.1173 0.0566975
829 2 110.914 79.0714 0.410204
830 2 114.903 79.0567 -0.101948
831 2 118.82 79.1718 0.133108
832 2 123.042 79.1833 15.8693
833 2 126.844 79.2799 0.14631
834 2 131.025 79.481 15.7664
835 2 134.94 79.2818 0.319073
836 2 138.934 79.2426 15.9168
837 2 143.066 79.4348 15.8901
838 2 147.055 79.5033 15.9108
839 2 150.89 79.1823 16.0418
840 2 154.792 79.0125 0.0957853
841 2 0.373485 83.2808 15.9504
842 2 4.33764 83.2459 15.7887
843 2 8.28769 83.0508 0.193175
844 2 12.1646 82.8733 16.0063
845 2 16.017 83.1056 15.8494
846 2 20.155 82.8258 0.0942199
847 2 23.9703 82.8255 15.8391
848 2 27.9095 82.7786 0.102215
849 2 31.7089 82.8876 16.0054
850 2 35.6204 82.9467 0.481932
851 2 39.5265 82.6727 0.295946
852 2 43.4799 82.5753 16.0471
853 2 47.4124 82.5908 0.280902
854 2 51.4588 82.746 0.137007
855 2 55.3146 82.5016 0.0138211
856 2 59.3843 82.4183 15.8303
857 2 63.1623 82.3899 15.7194
858 2 66.8105 82.5346 15.6735
859 2 71.0034 82.4573 15.9739
860 2 74.9617 82.4172 15.9356
861 2 78.8611 82.3233 15.9156
862 2 82.6961 82.5234 0.337157
863 2 86.8696 82.5539 0.210085
864 2 90.9678 82.6802 15.882
865 2 94.8852 82.6672 0.0402718
866 2 99.0704 82.6894 16.1302
867 2 102.782 82.8558 0.198039
868 2 107.049 82.7647 15.8597
869 2 110.957 83.0006 15.7968
870 2 114.969 82.998 15.8134
871 2 118.936 83.1027 16.0573
872 2 122.93 83.0868 15.8584
873 2 126.811 83.1075 15.9674
874 2 130.809 83.0478 15.7121
875 2 135.063 83.288 0.0187477
876 2 138.944 83.3704 15.7351
877 2 142.817 83.2452 -0.066141
878 2 146.822 83.2979 15.9641
879 2 151 83.2437 0.0716556
880 2 154.875 83.2579 0.104787
881 2 0.498655 87.1654 15.9178
882 2 4.43797 86.9557 0.149359
883 2 8.44802 87.1842 15.9001
884 2 12.178 86.994 15.9198
885 2 16.0982 86.9261 15.8776
886 2 20.0017 86.8841 15.7777
887 2 23.9699 87.0144 15.8797
888 2 27.8932 86.9242 0.00488564
889 2 31.8094 86.9588 15.9719
890 2 35.7881 86.6679 0.187794
891 2 39.8067 86.7417 15.8245
892 2 43.4399 86.7176 16.042
893 2 47.5103 86.4884 15.8501
894 2 51.5184 86.5925 16.1341
895 2 55.4355 86.6335 16.006
896 2 59.2468 86.4257 0.159777
897 2 63.1371 86.5144 0.306668
898 2 67.0361 86.3762 15.935
899 2 71.2377 86.3024 0.186366
900 2 74.7414 86.2949 15.8887
901 2 78.7273 86.2994 0.309767
902 2 82.8125 86.3497 0.246646
903 2 86.7217 86.4572 16.0699
904 2 90.7641 86.5922 15.9
905 2 94.9737 86.5813 15.991
906 2 99.0239 86.5706 15.9843
907 2 102.722 86.627 0.170044
908 2 106.855 86.843 0.181897
909 2 110.968 86.8704 15.8423
910 2 115.081 86.9454 0.183452
911 2 118.887 86.9085 0.0138434
912 2 122.829 86.8038 0.270246
913 2 126.759 86.9466 15.9905
914 2 130.979 87.1238 16.0842
915 2 134.881 87.2191 15.8894
916 2 138.937 87.0739 15.8333
917 2 143.047 87.2071 15.7096
918 2 146.925 87.2477 -0.060708
919 2 150.948 87.2178 15.9796
920 2 154.968 87.2102 15.9028
921 2 0.533631 91.282 0.291963
922 2 4.41055 91.2863 0.136647
923 2 8.30806 91.2561 15.7488
924 2 12.2414 91.1331 15.7828
925 2 16.1222 90.8861 0.291171
926 2 19.8944 90.9001 0.149199
927 2 24.0262 90.8895 15.8161
928 2 27.6645 91.0657 16.0181
929 2 32.0773 90.8838 15.7968
930 2 35.8755 90.8104 -0.0378726
931 2 39.7884 90.5411 15.8556
932 2 43.6192 90.7515 15.9073
933 2 47.3704 90.5045 0.0665146
934 2 51.4225 90.536 0.127966
935 2 55.3336 90.6041 0.106244
936 2 59.3085 90.5832 0.387199
937 2 63.3082 90.339 0.344518
938 2 66.9818 90.4043 16.0426
939 2 70.9878 90.235 15.9881
940 2 74.9123 90.3245 0.266829
941 2 78.756 90.4265 0.0563161
942 2 82.8424 90.2742 0.0353923
943 2 86.8504 90.132 0.0816733
944 2 90.8743 90.4553 0.166519
945 2 94.8197 90.3853 15.6964
946 2 98.7699 90.6474 16.0775
947 2 102.765 90.6392 0.00459685
948 2 106.94 90.7357 15.8554
949 2 110.904 90.81 15.7741
950 2 114.601 90.9486 0.255524
951 2 118.852 90.921 0.153958
952 2 122.835 90.745 15.9575
953 2 126.691 90.9088 0.0901346
954 2 130.764 90.9816 0.0804405
955 2 134.962 91.0055 15.9228
956 2 138.802 91.2431 15.8437
957 2 142.795 91.0521 15.9275
958 2 146.889 91.2531 16.0004
959 2 150.938 91.2066 15.9227
960 2 155.13 91.1165 15.7593
961 2 0.555675 95.1323 0.267253
962 2 4.45514 95.2062 15.9839
963 2 8.4221 95.0919 16.1001
964 2 12.457 95.0647 15.7933
965 2 16.2918 94.9565 15.9
966 2 20.1159 94.8862 15.7708
967 2 24.0681 94.9276 15.786
968 2 28.1236 95.09 16.0031
969 2 31.9381 94.9485 15.9838
970 2 35.9688 94.8397 16.1243
971 2 39.6922 94.7353 16.0219
972 2 43.5338 94.5379 15.9134
973 2 47.6096 94.6629 0.0989254
974 2 51.5369 94.5254 15.8828
975 2 55.4012 94.7421 0.205118
976 2 59.1664 94.6697 16.052
977 2 63.1232 94.321 0.422175
978 2 67.1556 94.2204 0.387911
979 2 70.9464 94.2193 0.146693
980 2 74.9095 94.1611 0.231428
981 2 78.8728 94.2996 15.9961
982 2 82.8359 94.2519 0.169547