ITEM: TIMESTEP
24100
ITEM: NUMBER OF ATOMS
32000
ITEM: BOX BOUNDS xy xz yz pp pp pp
0.0000000000000000e+00 1.5831999999999999e+02 0.0000000000000000e+00
0.0000000000000000e+00 1.5831999999999999e+02 0.0000000000000000e+00
1.6543396109021113e-01 1.5932278038909629e+01 0.0000000000000000e+00
ITEM: ATOMS id type x y z
1 2 157.94 157.613 15.8589
2 2 3.49557 157.776 15.9268
3 2 7.75059 157.812 0.11615
4 2 11.6537 157.889 0.130453
5 2 15.7577 157.943 0.215461
6 2 19.8061 158.056 15.91
7 2 23.8589 158.024 15.9291
8 2 27.7441 157.917 15.7849
9 2 31.6107 158.111 0.1223
10 2 35.6367 158.302 15.9688
11 2 39.6266 -0.106779 15.8696
12 2 43.5991 0.0845466 0.0704373
13 2 47.8081 -0.0581164 15.8641
14 2 51.7117 0.144259 0.100628
15 2 55.6277 158.331 0.028745
16 2 59.8509 158.405 15.7418
17 2 63.6266 0.161327 15.8357
18 2 67.5714 0.170355 15.9018
19 2 71.5312 0.155601 15.7777
20 2 75.6238 158.434 15.8311
21 2 79.3117 0.119137 15.7706
22 2 83.191 158.362 16.0031
23 2 87.1794 158.206 15.7845
24 2 91.2999 158.13 0.18975
25 2 95.1582 158.188 16.1135
26 2 99.2277 158.021 15.9097
27 2 103.046 158.134 15.9435
28 2 106.871 158.118 16.1529
29 2 110.588 158.066 0.248707
30 2 114.679 157.964 0.325638
31 2 118.813 157.841 16.0271
32 2 122.521 157.881 0.334581
33 2 126.369 157.651 0.241902
34 2 130.187 157.639 0.161928
35 2 134.162 157.686 15.8694
36 2 138.22 157.579 15.852
37 2 142.109 157.534 16.0584
38 2 146.054 157.835 15.9304
39 2 150.018 157.452 0.242529
40 2 153.949 157.563 0.05792
41 2 157.898 3.17402 15.7095
42 2 3.50045 3.46316 16.0517
43 2 7.56605 3.27389 -0.0177066
44 2 11.5617 3.36581 15.9869
45 2 15.4833 3.65308 15.7433
46 2 19.7669 3.62713 15.9549
47 2 23.6276 3.72292 0.0505521
48 2 27.5869 3.60069 0.232987
49 2 31.5837 3.62991 0.0110897
50 2 35.609 3.8481 0.412839
51 2 39.62 3.8515 0.265179
52 2 43.8875 3.80938 15.907
53 2 47.7681 3.84934 15.9155
54 2 51.7939 4.09734 15.7002
55 2 55.7361 3.8182 -0.0306963
56 2 59.6902 3.92063 15.7713
57 2 63.6669 4.07799 15.956
58 2 67.7454 3.91307 15.7999
59 2 71.71 4.1837 15.8259
60 2 75.6659 4.06324 15.7519
61 2 79.5941 4.04762 15.7883
62 2 83.6212 4.05907 15.7939
63 2 87.3554 3.75938 15.7426
64 2 91.1754 3.98156 0.249
65 2 95.2141 3.79835 16.0037
66 2 99.1129 3.85003 0.247945
67 2 103.044 3.69867 16.0159
68 2 107.014 3.57915 15.9102
69 2 110.76 3.74518 0.32028
70 2 114.803 3.53841 0.212239
71 2 118.646 3.56125 0.261976
72 2 122.629 3.53095 0.230417
73 2 126.527 3.51796 0.281841
74 2 130.536 3.46757 0.0106669
75 2 134.318 3.34193 15.9823
76 2 138.251 3.29211 0.25866
77 2 142.209 3.36423 0.26426
78 2 146.055 3.26286 0.108186
79 2 149.964 3.09834 15.8472
80 2 153.864 3.23026 15.8872
81 2 157.876 6.99401 15.9721
82 2 3.62054 7.17879 15.7422
83 2 7.42245 7.13006 15.6377
84 2 11.6305 7.41051 0.253717
85 2 15.5797 7.51326 15.7427
86 2 19.6465 7.50748 15.9898
87 2 23.8052 7.63036 0.0524208
88 2 27.5483 7.71306 15.9726
89 2 31.4972 7.47256 16.0434
90 2 35.5623 7.75354 15.887
91 2 39.5211 7.89044 0.421987
92 2 43.594 7.78467 0.0901196
93 2 47.6942 7.69357 15.9848
94 2 51.6224 7.96871 -0.0315886
95 2 55.7925 7.89485 15.829
96 2 59.5908 8.09346 0.153317
97 2 63.5172 7.89002 15.7965
98 2 67.8748 7.97867 15.8412
99 2 71.6147 8.16282 15.92
100 2 75.5776 7.98213 15.8694
101 2 79.7559 7.95362 0.178391
102 2 83.6989 8.11533 15.7844
103 2 87.6397 7.91723 15.8336
104 2 91.4304 7.62019 15.878
105 2 95.2934 7.75676 16.0169
106 2 98.9977 7.88443 0.069475
107 2 103.027 7.67437 0.202567
108 2 107.015 7.5457 16.0668
109 2 110.662 7.87825 0.314446
110 2 114.821 7.58075 15.6967
111 2 118.735 7.6432 15.9079
112 2 122.615 7.5422 16.0479
113 2 126.535 7.47655 16.0121
114 2 130.553 7.62337 0.200771
115 2 134.355 7.51535 0.0414889
116 2 137.998 7.45447 15.7996
117 2 142.269 7.36191 15.6422
118 2 145.99 7.11387 0.147386
119 2 150.056 7.10061 0.00848336
120 2 153.804 7.12347 15.9241
121 2 157.847 10.9757 15.8402
122 2 3.50626 11.1548 15.8199
123 2 7.48832 11.2187 15.7116
124 2 11.4674 11.1531 -0.0824833
125 2 15.422 11.433 15.9879
126 2 19.5308 11.3589 15.8675
127 2 23.4736 11.3721 15.9377
128 2 27.581 11.5995 15.8328
129 2 31.5746 11.5067 15.827
130 2 35.7557 11.6666 16.0614
131 2 39.5909 11.7199 15.9174
132 2 43.5753 11.5444 0.0559784
133 2 47.6397 11.5855 0.219139
134 2 51.6773 11.6517 15.7501
135 2 55.6961 11.8146 0.445945
136 2 59.7173 11.8246 15.9838
137 2 63.6322 11.7269 0.0362821
138 2 67.7666 11.9445 15.8325
139 2 71.707 12.047 15.7981
140 2 75.6514 12.0365 15.9936
141 2 79.7533 12.052 16.1001
142 2 83.4851 12.0243 15.8778
143 2 87.5413 11.875 0.0371451
144 2 91.3809 11.8357 0.125523
145 2 95.3252 11.7694 15.7375
146 2 99.3545 11.7477 15.839
147 2 103.199 11.9157 0.154791
148 2 106.868 11.8378 15.9374
149 2 111.011 11.6287 0.20494
150 2 114.903 11.6268 15.9001
151 2 118.665 11.4849 0.329047
152 2 122.511 11.5263 0.144208
153 2 126.415 11.6485 15.9121
154 2 130.477 11.4342 16.1315
155 2 134.413 11.3022 0.295398
156 2 138.452 11.3559 0.286427
157 2 142.158 11.217 0.142632
158 2 146.204 11.4431 -0.00591116
159 2 150.183 11.3391 0.0406075
160 2 154.041 11.3644 0.118283
161 2 158.084 15.1627 15.9717
162 2 3.53818 15.1224 15.798
163 2 7.45632 15.0161 15.7799
164 2 11.4228 15.0005 15.969
165 2 15.444 15.2503 15.9741
166 2 19.4095 15.349 0.321022
167 2 23.5081 15.3077 0.0257747
168 2 27.6515 15.388 15.863
169 2 31.7209 15.5214 -0.0176239
170 2 35.5537 15.669 16.0277
171 2 39.5675 15.6307 0.242113
172 2 43.554 15.382 0.242622
173 2 47.6656 15.4805 0.119623
174 2 51.5764 15.4625 0.259471
175 2 55.5121 15.9931 16.0922
176 2 59.6781 15.7722 0.0749812
177 2 63.6709 15.8709 16.0101
178 2 67.5534 15.9218 16.0899
179 2 71.6661 15.8964 -0.0708527
180 2 75.7286 15.8887 0.212394
181 2 79.6329 15.9757 15.986
182 2 83.529 15.8347 0.307183
183 2 87.5329 15.7293 15.9924
184 2 91.4589 15.9801 0.190784
185 2 95.4365 15.8259 15.9557
186 2 99.0881 15.6847 15.9196
187 2 103.15 15.7355 15.8417
188 2 107.002 15.6886 15.9642
189 2 110.977 15.4034 16.019
190 2 114.935 15.7358 16.0211
191 2 118.862 15.6696 0.357012
192 2 122.718 15.4561 16.129
193 2 126.526 15.4792 15.861
194 2 130.638 15.2687 0.0948789
195 2 134.689 15.351 0.184661
196 2 138.384 15.3404 0.213924
197 2 142.4 15.2852 15.874
198 2 146.402 15.3942 0.142745
199 2 149.91 15.2015 0.259645
200 2 154.149 15.3498 15.9551
201 2 157.924 19.1704 16.006
202 2 3.63948 19.0159 0.01295
203 2 7.42364 19.1336 0.00405844
204 2 11.4303 19.1338 15.9081
205 2 15.5031 19.2313 16.0129
206 2 19.3143 19.1246 15.9554
207 2 23.2546 19.1879 15.9267
208 2 27.6022 19.2371 16.0248
209 2 31.5453 19.5216 15.8525
210 2 35.6744 19.4202 15.8905
211 2 39.571 19.5535 0.415844
212 2 43.4846 19.4965 16.0184
213 2 47.5744 19.4876 16.0359
214 2 51.4926 19.5436 0.125291
215 2 55.6461 19.5288 16.0916
216 2 59.5776 19.4911 15.9547
217 2 63.7016 19.5967 15.9327
218 2 67.5056 19.7961 16.0239
219 2 71.6004 19.745 0.0996851
220 2 75.5964 19.8732 0.0227334
221 2 79.6012 19.9425 0.137231
222 2 83.5014 19.8216 15.9297
223 2 87.5156 19.8409 0.198402
224 2 91.46 20.0286 0.216061
225 2 95.441 19.7929 15.8486
226 2 99.392 19.8142 15.8277
227 2 103.145 19.8245 16.0225
228 2 107.123 19.7167 16.0112
229 2 110.885 19.7664 0.130564
230 2 115.005 19.5382 15.9966
231 2 118.81 19.5129 16.0407
232 2 122.722 19.6921 15.997
233 2 126.64 19.361 16
234 2 130.644 19.3782 15.9328
235 2 134.502 19.5577 0.199054
236 2 138.16 19.6325 15.912
237 2 142.262 19.1335 15.8433
238 2 146.278 19.2003 0.35054
239 2 150.25 19.2217 15.9825
240 2 154.302 19.2985 0.118603
241 2 158.051 23.2201 16.1246
242 2 3.60066 23.186 15.9196
243 2 7.6147 23.1559 0.182273
244 2 11.3923 22.9769 0.248748
245 2 15.331 22.9851 15.9693
246 2 19.4992 22.9853 15.9661
247 2 23.4855 23.2467 16.1649
248 2 27.409 23.2359 15.72
249 2 31.422 23.2581 0.0996206
250 2 35.4475 23.3099 15.9248
251 2 39.6391 23.3174 0.144366
252 2 43.3474 23.4691 15.8325
253 2 47.5651 23.4515 0.221183
254 2 51.5331 23.441 0.16489
255 2 55.2972 23.5177 0.124735
256 2 59.4609 23.5015 15.8935
257 2 63.3866 23.2969 0.313089
258 2 67.5903 23.776 15.9257
259 2 71.4801 23.4829 15.7674
260 2 75.6181 23.7981 0.0199194
261 2 79.5516 23.7458 15.8064
262 2 83.5784 23.6457 0.116411
263 2 87.6671 23.8465 15.8894
264 2 91.518 23.9326 16.1124
265 2 95.434 23.8079 15.9246
266 2 99.25 23.735 0.14168
267 2 103.199 23.5883 15.897
268 2 107.109 23.7684 15.7335
269 2 111.075 23.7654 0.354651
270 2 115.009 23.5723 15.8527
271 2 118.945 23.6251 16.1365
272 2 122.862 23.4591 0.0519694
273 2 126.523 23.5956 15.944
274 2 130.638 23.5606 15.8876
275 2 134.415 23.4648 15.9933
276 2 138.451 23.3596 15.7077
277 2 142.411 23.1111 15.9016
278 2 146.24 23.2117 0.164704
279 2 150.258 23.1318 0.121388
280 2 154.06 23.3243 0.288149
281 2 157.851 27.2029 0.102804
282 2 3.51077 27.1118 0.342077
283 2 7.51889 27.0438 0.1813
284 2 11.349 27.1476 15.8448
285 2 15.3897 27.012 15.8696
286 2 19.398 26.8764 0.223002
287 2 23.4732 27.0452 15.8465
288 2 27.4336 27.0527 15.9088
289 2 31.4231 27.3413 0.0165788
290 2 35.5254 27.2587 0.0799459
291 2 39.5351 27.3938 0.399346
292 2 43.4961 27.4379 0.236121
293 2 47.3835 27.3327 0.246355
294 2 51.437 27.4928 16.0002
295 2 55.2877 27.4619 0.178886
296 2 59.6329 27.4619 16.0292
297 2 63.4212 27.6261 16.0133
298 2 67.3932 27.6322 15.6753
299 2 71.5046 27.6025 15.8669
300 2 75.3433 27.539 0.226257
301 2 79.5812 27.7873 0.122961
302 2 83.3546 27.5688 15.996
303 2 87.6417 27.7671 0.193051
304 2 91.3556 27.8934 0.0259542
305 2 95.4825 28.0056 0.178662
306 2 99.374 27.7341 0.0673125
307 2 103.258 27.6097 15.8805
308 2 107.093 27.5542 0.214554
309 2 111.205 27.7269 15.8836
310 2 114.982 27.5254 15.9544
311 2 119.102 27.5365 0.117266
312 2 122.952 27.5175 0.196652
313 2 126.859 27.4257 15.9903
314 2 130.597 27.4051 16.0065
315 2 134.518 27.3322 15.9208
316 2 138.439 27.5002 15.9466
317 2 142.197 27.43 0.151121
318 2 146.233 27.324 0.0630385
319 2 150.076 27.2389 0.0909243
320 2 154.144 27.2246 0.150736
321 2 158.061 31.1422 16.0266
322 2 3.53014 31.0081 16.0291
323 2 7.67336 30.9996 16.0655
324 2 11.4678 30.9269 -0.065047
325 2 15.567 30.7295 0.129499
326 2 19.3086 31.0872 15.9723
327 2 23.249 30.8983 15.9314
328 2 27.3916 30.9778 0.174085
329 2 31.2457 31.089 15.9505
330 2 35.3152 31.1419 15.8809
331 2 39.3588 31.0729 15.8657
332 2 43.3941 31.1602 0.151058
333 2 47.4969 31.4335 15.954
334 2 51.4894 31.3273 0.186298
335 2 55.4301 31.4098 16.0201
336 2 59.5154 31.4136 0.334896
337 2 63.379 31.5006 16.0886
338 2 67.5431 31.2814 0.0923819
339 2 71.2858 31.6271 0.127557
340 2 75.495 31.5651 0.127541
341 2 79.2954 31.6927 15.735
342 2 83.3812 31.6449 0.256902
343 2 87.2848 31.6197 15.8074
344 2 91.3788 31.8231 16.0432
345 2 95.4726 31.7787 15.9338
346 2 99.3435 31.8356 0.134375
347 2 103.265 31.4795 15.9715
348 2 107.209 31.6312 15.8988
349 2 111.251 31.5637 16.0748
350 2 115.103 31.7951 15.9831
351 2 119.195 31.4707 15.8463
352 2 122.977 31.6842 15.9373
353 2 126.762 31.6108 16.0925
354 2 130.613 31.3423 15.938
355 2 134.538 31.3423 15.8989
356 2 138.679 31.2748 15.9115
357 2 142.443 31.3631 0.145394
358 2 146.127 31.4153 16.1239
359 2 150.205 31.1267 0.252049
360 2 154.078 31.2197 0.327504
361 2 -0.257845 35.1644 0.33093
362 2 3.6954 35.0194 15.8674
363 2 7.59998 35.1912 15.9445
364 2 11.6421 35.0642 16.0188
365 2 15.4178 34.8674 0.183898
366 2 19.4362 34.9877 0.213459
367 2 23.3164 34.9644 0.199192
368 2 27.3127 34.8707 0.322848
369 2 31.4388 34.9637 0.24989
370 2 35.4116 35.1503 -0.0264551
371 2 39.3301 35.0914 0.058673
372 2 43.3636 35.1643 15.7862
373 2 47.3303 35.2306 15.889
374 2 51.4197 35.2693 15.9838
375 2 55.4659 35.3091 -0.0296
376 2 59.2692 35.1602 0.13864
377 2 63.2947 35.1643 15.9073
378 2 67.2734 35.2885 0.107399
379 2 71.2671 35.5358 0.0172721
380 2 75.5293 35.414 16.0038
381 2 79.4821 35.4623 0.0634917
382 2 83.4475 35.5672 15.8192
383 2 87.3916 35.5822 0.170046
384 2 91.5512 35.6467 0.267801
385 2 95.2626 35.6792 16.0016
386 2 99.5291 35.6772 0.0743017
387 2 103.275 35.5616 15.8046
388 2 107.275 35.7322 15.6848
389 2 111.216 35.6224 16.0419
390 2 115.145 35.7649 15.8937
391 2 119.139 35.6105 16.0088
392 2 123.001 35.5226 16.1014
393 2 126.869 35.4753 16.0801
394 2 130.63 35.4633 15.8494
395 2 134.51 35.3299 15.9373
396 2 138.528 35.3548 0.21707
397 2 142.334 35.3237 0.23348
398 2 146.438 35.3939 0.354237
399 2 150.168 35.2499 15.9214
400 2 154.094 35.2841 0.382481
401 2 158.276 39.0457 0.206385
402 2 3.70332 39.3005 -0.0388358
403 2 7.69688 39.2867 0.213569
404 2 11.6859 39.1658 15.892
405 2 15.3955 39.0384 0.283002
406 2 19.2865 38.9361 15.9904
407 2 23.4589 38.9367 16.0959
408 2 27.3009 38.8711 15.8266
409 2 31.1537 39.0648 0.164686
410 2 35.3702 38.9091 0.336644
411 2 39.3808 38.9288 15.8275
412 2 43.292 39.066 0.227091
413 2 47.2484 39.0871 0.32765
414 2 51.4604 39.1793 15.9636
415 2 55.4314 39.0795 0.170004
416 2 59.3656 39.1104 0.156168
417 2 63.2623 39.2065 0.118151
418 2 67.2778 39.3203 0.0747712
419 2 71.4409 39.1993 0.0360789
420 2 75.4451 39.2574 0.440563
421 2 79.299 39.251 0.189471
422 2 83.3541 39.2411 15.9971
423 2 87.4742 39.4935 15.803
424 2 91.3796 39.705 16.0451
425 2 95.4039 39.4905 15.9089
426 2 99.4489 39.7163 0.168191
427 2 103.488 39.7155 15.7415
428 2 107.231 39.8101 15.896
429 2 111.159 39.5715 15.875
430 2 115.092 39.6661 15.9949
431 2 119.173 39.7546 16.0264
432 2 123.095 39.4943 16.0031
433 2 126.948 39.5485 0.338484
434 2 130.742 39.4502 16.0118
435 2 134.702 39.5014 16.1
436 2 138.492 39.3833 15.9343
437 2 142.332 39.1901 15.9878
438 2 146.318 39.3407 0.272289
439 2 150.247 39.2585 15.8782
440 2 154.125 39.0801 15.9134
441 2 158.157 43.1608 0.147409
442 2 3.74758 43.2041 15.9507
443 2 7.69992 43.1269 15.9283
444 2 11.7263 42.9523 0.350927
445 2 15.5091 42.9573 0.187783
446 2 19.5285 42.8583 0.262285
447 2 23.3663 42.7754 15.8616
448 2 27.2339 42.9271 15.855
449 2 31.2841 42.913 0.198367
450 2 35.2315 42.7512 0.239542
451 2 39.1787 42.8497 0.194922
452 2 43.2754 42.68 0.337789
453 2 47.2654 43.0466 16.1822
454 2 51.3583 43.0316 15.9539
455 2 55.2858 42.9662 0.0734554
456 2 59.2494 43.0363 15.8141
457 2 63.3442 43.0644 0.192319
458 2 67.3731 43.2139 -0.00642236
459 2 71.3541 43.0796 0.160338
460 2 75.3637 43.2334 0.330022
461 2 79.3654 43.4958 0.125073
462 2 83.5436 43.2555 15.9796
463 2 87.4266 43.44 15.7845
464 2 91.3997 43.561 0.113773
465 2 95.3894 43.5532 0.174406
466 2 99.4509 43.5262 15.9237
467 2 103.188 43.5999 16.0638
468 2 107.259 43.7634 15.9117
469 2 111.245 43.6416 16.0981
470 2 115.054 43.5146 15.9967
471 2 119.074 43.5311 15.9788
472 2 122.815 43.5949 16.0677
473 2 126.865 43.6754 0.29378
474 2 130.781 43.4806 0.183039
475 2 134.833 43.5138 15.8554
476 2 138.864 43.4797 15.942
477 2 142.602 43.2674 15.9886
478 2 146.581 43.2707 0.241899
479 2 150.45 43.308 0.345877
480 2 154.269 43.2189 0.112626
481 2 -0.00305184 47.242 0.278828
482 2 3.87622 47.169 0.182336
483 2 7.66023 47.0451 0.0882516
484 2 11.7916 46.9875 0.0570199
485 2 15.578 46.9756 0.132469
486 2 19.4446 46.8337 0.241577
487 2 23.44 46.9341 0.137454
488 2 27.3193 46.6996 16.0671
489 2 31.4548 46.6782 0.257003
490 2 35.1048 46.7375 0.249397
491 2 39.0592 46.7261 15.8994
492 2 43.1315 46.7762 15.8106
493 2 47.1778 47.0041 0.116505
494 2 51.2888 46.8729 15.7235
495 2 55.3444 46.9534 15.8541
496 2 59.2826 46.7494 15.8472
497 2 63.2955 47.124 -0.029471
498 2 67.1639 46.9368 0.278379
499 2 71.3132 47.0882 15.9749
500 2 75.4301 47.0266 0.148793
501 2 79.2742 47.329 15.9568
502 2 83.1788 47.3545 16.1277
503 2 87.3441 47.3478 0.239066
504 2 91.4497 47.4029 0.188212
505 2 95.5275 47.4052 0.217268
506 2 99.4216 47.5354 0.097762
507 2 103.43 47.418 0.116755
508 2 107.452 47.7598 15.93
509 2 111.2 47.7069 15.7795
510 2 115.313 47.661 -0.115237
511 2 119.16 47.533 16.0159
512 2 123.125 47.6704 15.9328
513 2 127.017 47.6187 15.9859
514 2 130.821 47.4675 15.9288
515 2 134.749 47.5114 16.1024
516 2 138.724 47.4652 15.9854
517 2 142.589 47.2455 16.0531
518 2 146.588 47.3518 0.460519
519 2 150.469 47.3786 0.463757
520 2 154.526 47.3432 16.1036
521 2 158.58 51.196 0.31365
522 2 4.00369 51.2387 15.9853
523 2 7.82666 51.1146 15.8797
524 2 11.9311 51.0636 15.8542
525 2 15.4855 50.8782 0.177383
526 2 19.7891 50.9213 16.0226
527 2 23.5939 50.882 16.1248
528 2 27.4403 50.7834 15.9982
529 2 31.3114 50.6178 0.219934
530 2 35.3988 50.9415 0.11788
531 2 39.2438 50.655 15.8763
532 2 43.4115 50.5609 15.8451
533 2 47.3302 50.7005 0.258347
534 2 51.1125 50.9855 0.414749
535 2 55.2197 50.8578 0.0727306
536 2 59.1664 50.9319 15.7112
537 2 63.1236 50.9196 15.7932
538 2 67.3292 51.0907 0.052539
539 2 71.3193 51.0995 0.0203538
540 2 75.2025 50.9506 0.163313
541 2 79.3535 51.3436 0.317167
542 2 83.2938 51.1509 0.154726
543 2 87.3043 51.3593 0.217061
544 2 91.2008 51.1517 0.0174926
545 2 95.3982 51.2501 0.0235007
546 2 99.359 51.4666 0.0370607
547 2 103.599 51.4388 15.9876
548 2 107.422 51.67 0.123214
549 2 111.406 51.7308 0.113788
550 2 115.322 51.7481 15.793
551 2 119.402 51.6324 15.8226
552 2 123.118 51.5407 15.9151
553 2 127.126 51.5703 15.9803
554 2 130.881 51.6336 0.223285
555 2 134.809 51.5024 0.201998
556 2 138.77 51.3896 0.291681
557 2 142.683 51.3409 0.126066
558 2 146.664 51.4471 15.9273
559 2 150.59 51.3533 0.148409
560 2 154.473 51.3729 0.575147
561 2 158.316 55.2387 0.19315
562 2 3.93274 55.0335 0.217572
563 2 7.85175 55.1259 0.225607
564 2 11.6269 55.2166 0.216898
565 2 15.6229 54.9506 0.333584
566 2 19.5276 54.7797 15.9521
567 2 23.7109 55.0105 15.9683
568 2 27.4296 54.8004 15.7567
569 2 31.3845 54.7141 0.247682
570 2 35.3117 54.7942 0.0366523
571 2 39.3983 54.7847 15.9242
572 2 43.2386 54.5874 15.8806
573 2 47.1946 54.5013 0.139309
574 2 51.1159 54.6028 16.0017
575 2 55.1686 54.8557 15.9379
576 2 59.1496 54.931 15.7889
577 2 63.1461 55.0253 15.8305
578 2 67.1503 55.1062 -0.050081
579 2 71.1618 55.1104 0.127318
580 2 75.2686 54.9145 15.919
581 2 79.0761 55.0332 0.311771
582 2 83.2144 55.1143 0.261305
583 2 87.2669 55.1326 0.163032
584 2 91.0937 55.0921 15.9828
585 2 95.1838 55.3078 0.0808775
586 2 99.2731 55.2184 15.6853
587 2 103.46 55.2679 15.8492
588 2 107.373 55.4473 0.167769
589 2 111.268 55.7533 15.9105
590 2 115.389 55.7253 15.913
591 2 119.183 55.6604 15.9426
592 2 123.192 55.3681 0.136068
593 2 127.03 55.4539 15.9101
594 2 131.173 55.6486 16.0275
595 2 135.072 55.465 0.362259
596 2 138.778 55.4127 16.138
597 2 142.68 55.3959 0.268137
598 2 146.59 55.3333 0.214706
599 2 150.642 55.3173 0.103396
600 2 154.495 55.1116 16.0108
601 2 158.332 59.2461 0.166618
602 2 3.90233 59.1342 15.8639
603 2 7.68419 59.2324 16.0521
604 2 11.7224 59.098 0.312584
605 2 15.8035 58.7594 15.9959
606 2 19.615 58.9632 0.268425
607 2 23.4812 58.7602 0.181083
608 2 27.3805 58.938 0.00963277
609 2 31.5509 58.8727 15.8805
610 2 35.2697 58.5758 15.9825
611 2 39.1638 58.6325 15.9999
612 2 43.1701 58.4417 15.9801
613 2 47.196 58.6208 16.1726
614 2 51.2272 58.6522 16.1249
615 2 55.0643 58.7125 15.8987
616 2 59.2104 58.8204 0.0405658
617 2 63.2913 58.7458 15.7844
618 2 67.2517 58.9536 0.104228
619 2 71.091 58.9037 15.9185
620 2 74.9083 59.0468 0.0821009
621 2 79.2014 58.9554 0.0511971
622 2 83.1967 58.9975 0.18301
623 2 87.0239 58.9649 15.8828
624 2 91.2542 58.997 15.9109
625 2 95.2739 59.2428 0.188061
626 2 99.2963 59.1267 0.174761
627 2 103.253 59.1972 16.0014
628 2 107.004 59.3383 0.0320707
629 2 111.215 59.5555 15.8622
630 2 115.26 59.4869 15.792
631 2 119.192 59.5516 16.1118
632 2 123.301 59.6625 0.163729
633 2 127.157 59.6676 15.8764
634 2 130.864 59.3993 0.0821614
635 2 135.025 59.4636 16.0791
636 2 138.861 59.4651 0.210294
637 2 142.713 59.5032 0.155015
638 2 146.604 59.2864 0.2663
639 2 150.434 59.3446 16.0034
640 2 154.367 59.2578 0.0245957
641 2 0.164638 63.2015 0.198835
642 2 3.79981 63.1386 0.0536587
643 2 7.9342 63.0891 16.0804
644 2 11.9234 63.0244 15.892
645 2 15.841 62.9254 15.955
646 2 19.765 62.8745 0.328466
647 2 23.7123 62.9239 0.290528
648 2 27.4962 62.6966 0.132422
649 2 31.3032 62.6664 0.388764
650 2 35.5724 62.4903 0.181848
651 2 39.4416 62.708 15.9754
652 2 43.3386 62.6709 0.171143
653 2 47.2041 62.7045 15.9538
654 2 51.2015 62.6581 16.0092
655 2 54.9538 62.5823 0.063555
656 2 59.2683 62.695 15.9124
657 2 63.2151 62.8201 0.116427
658 2 67.2844 62.8886 16.0263
659 2 71.103 62.7197 0.0585325
660 2 75.0833 62.9117 0.31638
661 2 79.1231 62.9433 0.236563
662 2 83.3182 63.0325 0.18866
663 2 86.9255 62.7996 16.11
664 2 91.1212 63.0982 15.9833
665 2 95.1059 63.0348 0.10742
666 2 99.2058 63.096 0.0560333
667 2 103.094 63.2009 15.8204
668 2 107.134 63.3042 15.9267
669 2 111.097 63.3998 16.0963
670 2 114.99 63.3096 0.139404
671 2 119.261 63.4046 15.7759
672 2 123.268 63.5706 0.12707
673 2 127.141 63.6088 15.6698
674 2 131.043 63.5923 -0.00228574
675 2 135.085 63.3948 15.8654
676 2 138.876 63.5572 15.7842
677 2 142.94 63.5265 16.0297
678 2 146.859 63.3483 0.30419
679 2 150.633 63.3041 16.046
680 2 154.524 63.4035 0.354319
681 2 0.137093 67.0736 0.347862
682 2 4.1819 66.9983 0.297751
683 2 8.16448 67.0556 16.008
684 2 12.0859 67.062 15.9086
685 2 15.7011 66.8561 0.144575
686 2 19.6663 66.8107 0.225806
687 2 23.53 66.8611 0.335177
688 2 27.5501 66.8358 0.312648
689 2 31.6088 66.7506 0.127507
690 2 35.475 66.5539 0.225508
691 2 39.1965 66.6243 16.0086
692 2 43.1919 66.561 0.295957
693 2 47.2478 66.6661 15.9446
694 2 51.1665 66.5558 15.8689
695 2 55.1093 66.4952 15.9876
696 2 59.1365 66.3436 15.9094
697 2 63.0649 66.5701 16.0745
698 2 67.0612 66.7913 16.1326
699 2 71.2443 66.9619 0.341984
700 2 75.0261 67.0345 16.1327
701 2 79.007 66.6998 15.9932
702 2 83.1529 66.9547 0.276844
703 2 87.0487 67.0998 16.0048
704 2 91.1441 66.9669 16.0041
705 2 95.2238 66.9799 0.0336962
706 2 98.9726 66.9524 0.0560887
707 2 103.08 67.0233 -0.0558541
708 2 107.149 67.2341 15.7513
709 2 111.17 67.3049 15.9507
710 2 115.172 67.3847 15.915
711 2 119.2 67.2511 0.0518858
712 2 123.269 67.4881 0.239114
713 2 127.175 67.5513 0.0646052
714 2 131.105 67.6773 15.9076
715 2 134.917 67.4863 0.0951381
716 2 139.011 67.4664 0.196851
717 2 143.018 67.4335 15.9488
718 2 146.906 67.452 16.1969
719 2 150.868 67.3987 15.9513
720 2 154.817 67.3018 0.302938
721 2 0.273299 71.2801 -0.0617493
722 2 4.09145 71.2095 16.0071
723 2 8.05818 70.9443 0.0946731
724 2 11.931 71.1428 15.986
725 2 15.9415 70.8931 0.0537197
726 2 19.8047 70.8224 0.12187
727 2 23.8212 70.8181 0.235624
728 2 27.505 70.8307 16.1668
729 2 31.5391 70.7464 0.0809572
730 2 35.4754 70.8003 0.261115
731 2 39.381 70.5846 15.7661
732 2 43.0925 70.5265 0.2267
733 2 47.1977 70.4983 15.8867
734 2 51.0226 70.4568 15.8853
735 2 55.2699 70.5533 0.16587
736 2 59.0671 70.465 0.117869
737 2 62.8418 70.4552 0.133207
738 2 67.1545 70.4752 15.9506
739 2 70.9403 70.6916 16.1603
740 2 75.0754 70.6914 15.8196
741 2 78.8987 70.6424 0.166234
742 2 83.1004 70.7229 0.385136
743 2 86.9398 71.0192 16.2035
744 2 91.0721 70.9981 15.94
745 2 95.1342 70.8502 15.9293
746 2 98.983 70.8027 15.9678
747 2 102.809 70.9514 15.817
748 2 106.95 71.2557 15.8376
749 2 111.204 71.1341 15.9878
750 2 115.033 71.3211 0.1653
751 2 119.135 71.144 15.9592
752 2 123.021 71.4801 0.16859
753 2 127.115 71.4831 15.9374
754 2 131.131 71.5654 15.8226
755 2 135.231 71.5222 15.9029
756 2 138.909 71.3784 16.0921
757 2 142.935 71.6152 0.181776
758 2 147.136 71.3336 0.27982
759 2 150.9 71.3437 0.228321
760 2 154.732 71.2974 15.803
761 2 0.400111 75.1498 0.150148
762 2 4.2696 75.0717 15.8884
763 2 8.07008 74.9705 16.1561
764 2 11.8874 75.0408 16.0485
765 2 15.8827 74.8958 16.0054
766 2 19.9127 75.0094 16.0166
767 2 23.7939 75.0058 16.0465
768 2 27.7466 74.6618 15.9096
769 2 31.832 74.892 0.0523319
770 2 35.4162 74.761 15.9091
771 2 39.3137 74.6752 15.9324
772 2 43.4112 74.5513 -0.0141405
773 2 47.3221 74.5543 15.9139
774 2 51.1249 74.5467 0.122746
775 2 55.174 74.4982 16.0088
776 2 59.1937 74.3991 15.8901
777 2 63.1472 74.3556 16.0379
778 2 67.2606 74.4544 0.168857
779 2 71.0869 74.4716 0.106221
780 2 75.0804 74.6202 0.143383
781 2 78.9396 74.8619 0.110426
782 2 82.8663 74.3855 0.153927
783 2 87.0599 74.702 0.238769
784 2 91.0186 74.8625 16.1357
785 2 95.1393 74.8621 15.8673
786 2 98.8137 74.7266 0.0118831
787 2 103.107 74.9683 15.8672
788 2 106.932 75.0575 15.9024
789 2 111.04 75.0644 15.9196
790 2 115.008 75.1275 15.9607
791 2 118.983 75.1599 0.0134767
792 2 123.078 75.442 15.9724
793 2 127.056 75.3142 15.9992
794 2 130.91 75.2171 0.179364
795 2 135.066 75.3271 16.0212
796 2 138.97 75.2881 15.9934
797 2 142.91 75.4209 16.0127
798 2 147.096 75.3401 16.1081
799 2 150.787 75.2724 0.23703
800 2 154.791 75.3178 0.411196
801 2 0.342048 79.0863 0.357185
802 2 4.16745 78.9701 15.8652
803 2 8.22934 79.1096 0.154239
804 2 12.0442 78.9834 0.358944
805 2 16.0148 78.8993 16.1749
806 2 19.998 78.7991 16.0137
807 2 23.7798 78.9449 0.0938462
808 2 27.7102 78.8692 0.268724
809 2 31.6449 78.8081 0.184551
810 2 35.5157 78.8323 0.165881
811 2 39.425 78.6795 15.9106
812 2 43.5485 78.6411 16.0097
813 2 47.5522 78.5693 16.0219
814 2 51.205 78.4462 0.0292397
815 2 55.2712 78.4507 0.169076
816 2 59.3434 78.4743 16.0195
817 2 63.1577 78.3499 16.0842
818 2 66.9079 78.5037 0.252526
819 2 70.9085 78.3857 15.7845
820 2 74.9391 78.5328 0.133718
821 2 79.0384 78.5172 16.0481
822 2 83.0524 78.5031 15.9136
823 2 86.899 78.6453 0.161061
824 2 90.979 78.7118 0.130855
825 2 94.8686 78.8301 0.0650997
826 2 98.9571 78.8901 15.9748
827 2 102.782 78.706 15.9042
828 2 106.883 78.8833 0.1412
829 2 110.951 79.0074 -0.11896
830 2 114.994 79.0671 0.219878
831 2 118.979 79.1276 0.252922
832 2 123.058 79.1847 15.9001
833 2 126.982 79.272 0.0552091
834 2 130.826 79.1608 15.9981
835 2 134.868 79.1793 -0.0802138
836 2 139.003 79.4886 15.9583
837 2 142.932 79.2627 15.8528
838 2 146.621 79.4939 15.7521
839 2 150.996 79.2853 15.8932
840 2 154.719 79.301 0.235586
841 2 0.473231 83.2834 15.7587
842 2 4.33223 83.0523 15.7853
843 2 8.42726 83.0106 0.178621
844 2 12.227 82.8581 15.9464
845 2 16.1151 82.9776 15.9022
846 2 19.9454 82.9447 0.210049
847 2 23.7598 82.8148 15.8501
848 2 27.8726 82.6527 0.259187
849 2 31.6573 82.5595 15.835
850 2 35.7578 82.4705 -0.0807441
851 2 39.7182 82.6731 0.123206
852 2 43.5559 82.5529 15.8928
853 2 47.4297 82.4878 0.0831287
854 2 51.3363 82.617 0.220023
855 2 55.1012 82.3596 0.362493
856 2 59.1486 82.4797 16.0546
857 2 62.989 82.339 16.0759
858 2 67.0228 82.3007 16.0344
859 2 70.8174 82.3082 15.9811
860 2 74.791 82.2152 16.0916
861 2 78.956 82.5261 15.9291
862 2 82.7532 82.3891 0.146905
863 2 86.9224 82.6103 0.353781
864 2 91.048 82.637 16.1324
865 2 94.8398 82.5844 0.223348
866 2 99.041 82.8092 15.7245
867 2 102.818 82.6836 0.275921
868 2 106.9 82.9744 16.0123
869 2 110.689 82.8081 15.8037
870 2 115.112 83.0088 15.9349
871 2 118.857 82.9729 15.8078
872 2 123.005 83.213 15.9899
873 2 126.586 83.199 15.9251
874 2 130.797 83.1292 16.1051
875 2 134.875 83.2699 0.249141
876 2 138.783 83.2547 16.0748
877 2 142.827 83.2808 0.145891
878 2 146.815 83.2124 15.8148
879 2 150.812 83.2554 0.0834869
880 2 154.863 83.28 0.192347
881 2 0.405428 87.1499 15.7693
882 2 4.50346 87.1519 0.0914521
883 2 8.25027 86.9913 15.7503
884 2 12.1547 86.9782 15.9348
885 2 16.3356 86.9126 16.015
886 2 20.1876 86.7995 16.0705
887 2 23.8995 86.6416 16.0391
888 2 27.8535 86.6481 0.138794
889 2 31.8915 86.5642 15.9649
890 2 35.5993 86.9349 -0.0165025
891 2 39.6429 86.5352 16.0182
892 2 43.5695 86.6565 15.7814
893 2 47.522 86.6401 16.066
894 2 51.3303 86.5954 15.8761
895 2 55.3119 86.6193 16.0193
896 2 59.1134 86.6031 0.340562
897 2 63.0211 86.3869 0.119141
898 2 66.8447 86.3103 15.8813
899 2 70.724 86.2073 0.203841
900 2 74.744 86.1341 16.1129
901 2 78.8662 86.2286 0.160792
902 2 82.8741 86.4471 0.252338
903 2 86.9181 86.6018 15.9188
904 2 90.8961 86.5807 15.9401
905 2 94.8166 86.6622 15.8458
906 2 98.8432 86.5603 15.6863
907 2 102.893 86.8019 0.234438
908 2 106.804 86.8576 0.185713
909 2 110.811 86.911 16.0417
910 2 114.714 86.8388 0.0223352
911 2 118.932 86.8463 0.219571
912 2 122.9 87.108 0.110516
913 2 126.835 87.1167 15.8015
914 2 130.766 87.1239 15.6337
915 2 134.699 87.1994 15.9057
916 2 138.892 87.1565 16.0607
917 2 142.853 87.0198 15.7911
918 2 146.852 87.0514 0.0310593
919 2 150.93 87.1867 15.8267
920 2 154.783 87.1597 15.7221
921 2 0.247009 91.0655 -0.238721
922 2 4.66056 91.1101 0.133306
923 2 8.52854 90.9591 16.0509
924 2 12.2941 91.1037 16.0534
925 2 16.2501 90.9216 0.00994907
926 2 20.0392 91.114 -0.0194925
927 2 23.9526 90.783 16.0189
928 2 27.9197 90.7294 15.9321
929 2 31.8306 90.5481 16.0901
930 2 35.7988 90.7799 0.0564978
931 2 39.6552 90.8127 16.0869
932 2 43.4845 90.6038 15.9122
933 2 47.5434 90.5789 0.357806
934 2 51.3842 90.4448 0.0881704
935 2 55.2968 90.4224 0.183595
936 2 59.211 90.3605 0.164917
937 2 63.1071 90.35 0.203924
938 2 67.1661 90.2875 16.1115
939 2 70.83 90.2225 16.0342
940 2 74.8369 90.2131 0.128974
941 2 78.8587 90.3188 0.0939786
942 2 82.5642 90.1302 0.387679
943 2 86.649 90.4305 0.277107
944 2 90.8045 90.4657 0.195278
945 2 94.7503 90.6819 16.011
946 2 98.6414 90.6399 15.8399
947 2 102.728 90.7795 0.281373
948 2 106.846 90.764 15.9824
949 2 110.714 90.7674 16.0673
950 2 114.654 90.8667 0.0992788
951 2 118.891 90.8874 0.191397
952 2 122.792 91.1375 16.0046
953 2 126.681 91.0626 0.307644
954 2 130.749 91.0463 0.140924
955 2 134.806 91.1478 15.9166
956 2 138.754 91.13 15.8731
957 2 142.852 91.0116 15.8584
958 2 146.732 90.96 15.8273
959 2 150.794 91.195 15.824
960 2 154.799 91.211 15.8848
961 2 0.315381 94.954 0.171649
962 2 4.57629 95.029 16.0424
963 2 8.35414 94.9191 15.8678
964 2 12.326 94.961 15.9044
965 2 16.1349 94.8841 15.9051
966 2 20.3118 94.9386 16.2561
967 2 23.99 94.8095 15.9999
968 2 27.9986 94.7441 15.8909
969 2 31.7578 94.6903 15.9269
970 2 35.6247 94.5499 15.8634
971 2 39.7235 94.6135 15.8775
972 2 43.711 94.5409 15.9681
973 2 47.4664 94.6054 0.0600621
974 2 51.2995 94.5118 15.9807
975 2 55.3558 94.3432 0.252062
976 2 59.2106 94.4809 16.0853
977 2 63.0597 94.4963 0.106332
978 2 67.2185 94.4317 0.222748
979 2 70.9678 94.3373 0.201945
980 2 74.9221 94.3262 0.0851235
981 2 78.7891 94.4227 15.9236
982 2 82.6601 94.0919 0.173396
983 2 86.5852 94.516 0.292308
984 2 90.6437 94.4177 0.331759