ITEM: TIMESTEP
24400
ITEM: NUMBER OF ATOMS
32000
ITEM: BOX BOUNDS xy xz yz pp pp pp
0.0000000000000000e+00 1.5831999999999999e+02 0.0000000000000000e+00
0.0000000000000000e+00 1.5831999999999999e+02 0.0000000000000000e+00
1.6567302557372088e-01 1.5932038974426085e+01 0.0000000000000000e+00
ITEM: ATOMS id type x y z
1 2 158.218 157.743 15.9449
2 2 3.62396 157.863 15.7913
3 2 7.6551 157.805 0.156609
4 2 11.7294 157.663 -0.12979
5 2 15.6861 157.76 0.235351
6 2 19.7814 157.978 15.8546
7 2 23.8226 158.064 16.1602
8 2 27.7315 158.055 15.8975
9 2 31.7627 158.009 0.105555
10 2 35.8161 158.147 15.8489
11 2 39.6932 -0.295462 15.9035
12 2 43.5901 0.0745251 0.0405173
13 2 47.7174 -0.173774 15.949
14 2 51.7711 0.136951 0.250082
15 2 55.6966 158.277 0.26616
16 2 59.7646 158.422 15.9763
17 2 63.6374 0.227427 15.9471
18 2 67.8222 0.221902 15.7591
19 2 71.8093 0.29496 15.9165
20 2 75.7501 158.383 16.1125
21 2 79.5672 0.308771 15.969
22 2 83.4213 158.374 16.1133
23 2 87.4727 158.4 15.9076
24 2 91.4901 158.204 0.206259
25 2 95.2883 158.277 16.0232
26 2 99.0447 158.316 15.8001
27 2 103.189 158.294 15.7596
28 2 106.867 158.13 15.9458
29 2 110.793 158.186 0.0842837
30 2 114.734 157.957 0.129632
31 2 118.724 157.825 15.696
32 2 122.655 157.873 0.142458
33 2 126.421 157.605 0.158984
34 2 130.258 157.656 0.0936005
35 2 134.322 157.694 15.8469
36 2 138.423 157.689 15.7493
37 2 142.125 157.711 16.0934
38 2 145.909 157.66 15.7803
39 2 150.092 157.652 0.209949
40 2 154.131 157.562 0.256065
41 2 158.056 3.193 15.7697
42 2 3.70098 3.56294 15.9882
43 2 7.75197 3.39637 0.0449766
44 2 11.6831 3.38866 16.0384
45 2 15.641 3.25823 15.7698
46 2 19.667 3.32361 15.8858
47 2 23.8416 3.67546 0.0861639
48 2 27.5899 3.67866 0.312828
49 2 31.6526 3.59189 0.0118735
50 2 35.7786 3.69507 0.206199
51 2 39.8829 3.81213 0.262775
52 2 43.8623 3.85856 15.9592
53 2 47.8899 3.84033 15.9528
54 2 51.668 4.16001 16.0332
55 2 55.7783 3.97204 0.238239
56 2 59.5061 3.9311 16.0403
57 2 63.7065 3.93201 15.9617
58 2 67.7419 3.86843 15.9305
59 2 71.6978 4.25437 16.0258
60 2 75.777 4.15342 15.7728
61 2 79.6893 4.1046 16.0613
62 2 83.5614 4.16607 16.0253
63 2 87.397 3.85487 15.8538
64 2 91.3979 4.14694 0.0120322
65 2 95.2197 4.06678 16.0546
66 2 99.2369 3.99109 0.240617
67 2 103.148 3.79827 15.9021
68 2 106.93 3.66514 15.8816
69 2 110.947 3.82368 0.264861
70 2 114.755 3.59969 0.144694
71 2 118.538 3.71456 0.0673718
72 2 122.652 3.47469 0.0439143
73 2 126.733 3.37426 0.121768
74 2 130.525 3.45917 0.160334
75 2 134.202 3.4177 16.0573
76 2 138.285 3.47801 0.386665
77 2 142.351 3.37641 0.468516
78 2 145.956 3.26732 -0.000581879
79 2 150.059 3.04518 16.0976
80 2 154.138 3.31235 16.1399
81 2 158.008 7.22151 16.1142
82 2 3.7291 7.24842 15.8788
83 2 7.6639 7.2528 15.864
84 2 11.731 7.28176 0.374007
85 2 15.5847 7.34253 15.7632
86 2 19.905 7.32388 15.8231
87 2 23.7586 7.52091 0.0955288
88 2 27.7073 7.50156 15.9946
89 2 31.6756 7.4882 15.8986
90 2 35.5077 7.69097 15.7693
91 2 39.6606 7.77691 0.214841
92 2 43.5027 7.66673 0.258471
93 2 47.6479 7.71792 16.1097
94 2 51.6086 7.99629 0.0913678
95 2 55.7163 7.91301 16.0633
96 2 59.4575 7.96596 0.162068
97 2 63.8187 7.91265 15.8059
98 2 67.7611 7.93555 15.9893
99 2 71.6924 8.29307 15.8819
100 2 75.707 8.10435 15.8837
101 2 79.7669 8.10789 -0.00929882
102 2 83.562 8.13951 16.1
103 2 87.6101 8.03116 15.9742
104 2 91.5566 7.78198 15.9516
105 2 95.4799 7.89958 16.0974
106 2 99.1267 8.11841 0.211794
107 2 103.284 7.819 0.131129
108 2 106.989 7.58538 16.0873
109 2 110.903 7.82782 0.388202
110 2 114.658 7.72009 15.8599
111 2 118.709 7.58461 15.8294
112 2 122.706 7.43866 15.853
113 2 126.6 7.58671 15.9766
114 2 130.428 7.45832 0.382974
115 2 134.285 7.42038 0.263973
116 2 138.218 7.30703 16.039
117 2 142.244 7.19736 16.003
118 2 146.069 7.04048 0.383767
119 2 149.912 7.09784 0.439383
120 2 154.071 7.11827 16.0903
121 2 157.777 11.0859 15.8819
122 2 3.49687 10.9738 15.9654
123 2 7.37195 11.1682 15.9624
124 2 11.6774 11.1249 0.0381609
125 2 15.4592 11.3882 15.7336
126 2 19.7006 11.4101 15.8296
127 2 23.5294 11.3323 15.9692
128 2 27.5218 11.6913 16.0084
129 2 31.8013 11.4393 15.9502
130 2 35.6323 11.5446 16.07
131 2 39.5246 11.5611 15.8645
132 2 43.6555 11.5285 0.257346
133 2 47.6413 11.7055 0.324801
134 2 51.6909 11.6667 15.7254
135 2 55.6812 11.7381 0.121313
136 2 59.7774 11.8999 15.9289
137 2 63.6276 11.8064 0.116947
138 2 67.8111 11.9047 15.9386
139 2 71.7619 12.0798 15.874
140 2 75.6892 11.9677 15.8255
141 2 79.7946 12.048 15.9011
142 2 83.6606 12.0655 15.789
143 2 87.5565 12.015 0.0221691
144 2 91.4198 11.8968 0.25788
145 2 95.3529 11.8189 15.8049
146 2 99.5579 12.0083 15.9198
147 2 103.293 11.7196 0.178234
148 2 107.023 11.7225 15.856
149 2 111.102 11.712 0.202892
150 2 114.926 11.5441 15.9447
151 2 118.689 11.5803 0.322388
152 2 122.677 11.3759 0.00925429
153 2 126.609 11.5406 15.8739
154 2 130.393 11.4878 16.0375
155 2 134.569 11.5148 0.278982
156 2 138.433 11.3335 0.445546
157 2 142.323 11.1249 0.446932
158 2 146.272 11.2378 0.265816
159 2 150.069 11.1236 0.240295
160 2 154.059 11.4339 0.304387
161 2 158.036 15.019 15.981
162 2 3.63226 15.1684 15.961
163 2 7.61172 15.0489 16.0058
164 2 11.5014 14.9133 15.9785
165 2 15.5669 15.0644 15.7915
166 2 19.5524 15.206 0.0673852
167 2 23.6606 15.3863 0.113242
168 2 27.5376 15.3301 16.1146
169 2 31.6556 15.3263 0.231246
170 2 35.4894 15.3894 15.9293
171 2 39.6258 15.5084 0.0873181
172 2 43.4574 15.4651 0.135066
173 2 47.5515 15.701 0.199395
174 2 51.6365 15.6062 0.157633
175 2 55.5423 15.9835 15.7989
176 2 59.7283 15.7213 -0.0824225
177 2 63.5558 15.8981 16.0464
178 2 67.6248 16.0251 15.9949
179 2 71.7871 15.9027 -0.0273339
180 2 75.8153 15.9588 0.198259
181 2 79.5761 16.1669 15.7785
182 2 83.7659 16.1226 0.014359
183 2 87.4246 15.9915 15.8233
184 2 91.8184 16.2302 0.190334
185 2 95.568 16.1003 15.8651
186 2 99.3078 15.7418 15.8822
187 2 103.246 16.0813 15.8936
188 2 107.226 15.8705 16.0455
189 2 111.183 15.5866 16.014
190 2 114.893 15.5968 15.9499
191 2 118.903 15.6142 0.178143
192 2 122.952 15.4312 15.9855
193 2 126.552 15.4814 15.8629
194 2 130.635 15.3547 0.246316
195 2 134.863 15.462 0.269922
196 2 138.562 15.3037 0.243212
197 2 142.36 15.0937 15.9558
198 2 146.366 15.2111 0.141211
199 2 150.111 15.2423 0.291066
200 2 154.214 15.2152 16.051
201 2 158.128 19.1907 15.8312
202 2 3.52746 19.2293 0.191021
203 2 7.63793 19.0228 0.275253
204 2 11.5141 18.8615 15.9269
205 2 15.4308 18.8352 15.83
206 2 19.33 19.0466 15.7851
207 2 23.4548 19.3603 15.9441
208 2 27.4555 19.2906 16.1845
209 2 31.3327 19.4429 15.8699
210 2 35.4706 19.4439 15.8463
211 2 39.5815 19.6305 0.2523
212 2 43.5213 19.6729 15.8985
213 2 47.5139 19.5586 16.0804
214 2 51.5689 19.6385 0.217533
215 2 55.6816 19.5386 16.0248
216 2 59.633 19.6337 15.9182
217 2 63.6687 19.6759 15.9111
218 2 67.6953 19.7956 15.7464
219 2 71.659 19.8355 0.108871
220 2 75.5596 19.8936 0.148706
221 2 79.6549 20.115 0.153027
222 2 83.5262 19.9935 15.7499
223 2 87.5075 19.9536 0.0639749
224 2 91.6399 20.2194 0.125986
225 2 95.642 19.9659 15.6995
226 2 99.5811 19.903 15.9333
227 2 103.305 19.8639 16.2041
228 2 107.126 19.8168 16.0615
229 2 111.048 19.7032 0.172445
230 2 115.066 19.6681 15.8444
231 2 118.984 19.4333 15.8955
232 2 122.804 19.6484 15.8773
233 2 126.808 19.4292 15.9656
234 2 130.57 19.4164 15.8891
235 2 134.607 19.3073 0.294561
236 2 138.423 19.4035 15.8554
237 2 142.365 19.0356 15.7968
238 2 146.299 19.197 0.240267
239 2 150.287 19.2065 15.8805
240 2 154.056 19.26 0.119164
241 2 158.093 23.2815 16.0438
242 2 3.53564 23.0117 15.9885
243 2 7.39186 23.0384 0.228096
244 2 11.4546 22.8187 0.196491
245 2 15.2894 22.9534 15.9681
246 2 19.3715 22.861 15.8967
247 2 23.1874 23.3147 16.305
248 2 27.3137 23.1273 16.0288
249 2 31.4461 23.2069 0.283098
250 2 35.1794 23.5508 15.914
251 2 39.39 23.4258 0.157484
252 2 43.2779 23.4059 15.8298
253 2 47.5769 23.3492 0.128569
254 2 51.6037 23.5383 -0.0317817
255 2 55.5553 23.6259 0.0566539
256 2 59.5252 23.6341 15.8004
257 2 63.393 23.5763 0.261489
258 2 67.7142 23.8108 15.8299
259 2 71.6032 23.544 15.8942
260 2 75.5126 23.9022 0.251016
261 2 79.5581 23.8376 15.8432
262 2 83.5517 23.8713 0.182594
263 2 87.7184 24.1506 15.7567
264 2 91.6372 24.114 15.9707
265 2 95.4403 23.9884 15.9652
266 2 99.5716 23.7404 0.388072
267 2 103.323 23.6688 15.965
268 2 107.345 23.6753 15.7756
269 2 111.184 23.7366 0.406213
270 2 115.195 23.5393 15.8467
271 2 118.992 23.4768 16.0435
272 2 122.976 23.5258 0.167178
273 2 126.851 23.4771 15.9608
274 2 130.735 23.3624 15.8414
275 2 134.74 23.4536 16.0281
276 2 138.668 23.3659 15.846
277 2 142.514 23.1139 15.9427
278 2 146.478 23.1326 0.321394
279 2 150.245 23.091 0.209819
280 2 154.067 23.3828 0.357568
281 2 157.924 27.1042 0.0710119
282 2 3.68284 26.9945 0.340747
283 2 7.51454 26.8897 0.175574
284 2 11.4382 26.9743 16.0417
285 2 15.4731 26.9683 16.2211
286 2 19.3279 26.8529 0.238501
287 2 23.2607 26.9491 15.7781
288 2 27.3742 27.0992 16.1182
289 2 31.2754 27.3831 0.219809
290 2 35.4598 27.2935 0.0271916
291 2 39.3538 27.3228 0.362433
292 2 43.3644 27.3441 0.228992
293 2 47.3854 27.3519 0.116701
294 2 51.434 27.4413 15.853
295 2 55.5717 27.5669 0.0603005
296 2 59.6204 27.4016 15.9032
297 2 63.5184 27.4972 15.9555
298 2 67.473 27.6459 15.8123
299 2 71.5566 27.6082 15.9831
300 2 75.4667 27.6782 0.337607
301 2 79.5582 27.7409 0.20659
302 2 83.6175 27.8314 15.9732
303 2 87.5811 27.9472 0.100217
304 2 91.4373 28.1966 0.0442289
305 2 95.59 27.9812 0.343521
306 2 99.5433 27.8236 0.115651
307 2 103.4 27.7337 15.8688
308 2 107.103 27.7657 0.149041
309 2 111.298 27.5959 15.9365
310 2 115.166 27.6119 16.1097
311 2 119.074 27.6395 0.289301
312 2 123.076 27.6767 0.102515
313 2 126.929 27.6326 15.8269
314 2 130.741 27.2904 16.0202
315 2 134.821 27.2448 16.0768
316 2 138.687 27.4528 16.0715
317 2 142.514 27.3844 0.318716
318 2 146.385 27.2672 0.071267
319 2 150.347 27.2395 0.198323
320 2 154.371 27.1887 0.247994
321 2 158.225 31.2724 15.7376
322 2 3.78939 31.1031 16.0397
323 2 7.74246 31.0779 16.1323
324 2 11.5402 30.9875 0.131717
325 2 15.5199 30.7932 0.352196
326 2 19.276 31.0408 16.0474
327 2 23.3163 30.7269 16.0009
328 2 27.38 30.992 0.312769
329 2 31.1828 31.1613 16.1578
330 2 35.2519 31.2882 15.8679
331 2 39.2738 31.1152 15.8445
332 2 43.511 31.2008 0.245688
333 2 47.4416 31.133 15.8661
334 2 51.627 31.334 0.200569
335 2 55.5232 31.4497 15.9348
336 2 59.5572 31.4131 0.167874
337 2 63.4662 31.4992 15.9468
338 2 67.5863 31.4441 0.174964
339 2 71.4742 31.8331 0.339421
340 2 75.3665 31.5852 0.133518
341 2 79.4846 31.5653 15.7953
342 2 83.3872 31.7163 0.126539
343 2 87.3596 31.8671 15.7574
344 2 91.48 31.8232 15.936
345 2 95.5425 31.7602 16.0951
346 2 99.5318 31.9171 0.0867031
347 2 103.235 31.742 16.0761
348 2 107.185 31.7769 15.9629
349 2 111.195 31.7823 16.0226
350 2 115.218 31.9207 16.085
351 2 119.204 31.4772 16.0518
352 2 122.905 31.6788 15.7622
353 2 126.802 31.5073 15.8229
354 2 130.665 31.4253 15.8793
355 2 134.708 31.3947 15.9925
356 2 138.773 31.3189 15.9018
357 2 142.705 31.2378 -0.107943
358 2 146.402 31.4508 15.8518
359 2 150.565 31.1678 0.1989
360 2 154.285 31.1344 0.0923939
361 2 -0.163695 34.9629 0.113793
362 2 3.72607 35.0354 15.8483
363 2 7.63603 35.1698 16.0497
364 2 11.632 35.0453 15.9645
365 2 15.3936 34.9001 0.0635062
366 2 19.3459 34.9874 0.168642
367 2 23.384 34.8696 0.364637
368 2 27.4011 34.775 0.289955
369 2 31.2673 35.0131 0.0227713
370 2 35.5051 35.1792 -0.0457167
371 2 39.2574 35.1168 0.202399
372 2 43.3737 35.011 15.9096
373 2 47.3443 35.2151 15.8473
374 2 51.2972 35.2098 15.9
375 2 55.3658 35.385 -0.0775287
376 2 59.4119 35.1504 0.0629785
377 2 63.4318 35.3327 15.7573
378 2 67.3556 35.3751 0.260278
379 2 71.4467 35.5537 0.217492
380 2 75.4417 35.507 16.0009
381 2 79.5037 35.5788 0.154072
382 2 83.4181 35.786 15.8389
383 2 87.5549 35.6522 0.0432836
384 2 91.4775 35.7517 0.128343
385 2 95.4845 35.6786 16.1784
386 2 99.6035 35.9027 0.135648
387 2 103.414 35.8165 16.04
388 2 107.416 35.9876 16.063
389 2 111.137 35.6889 15.9034
390 2 115.222 35.7777 15.9555
391 2 119.114 35.6074 15.9957
392 2 123.102 35.6217 16.0414
393 2 126.991 35.5973 15.9786
394 2 130.777 35.4793 15.8212
395 2 134.615 35.355 15.8952
396 2 138.648 35.2869 0.188578
397 2 142.473 35.2626 -0.0492277
398 2 146.646 35.2626 0.158406
399 2 150.418 35.2667 15.8481
400 2 154.232 35.3678 0.146172
401 2 158.205 39.0827 0.27729
402 2 3.88402 39.1614 0.0827442
403 2 7.69769 39.0238 0.160765
404 2 11.6236 39.0215 15.8005
405 2 15.3994 39.1805 0.164101
406 2 19.3279 38.934 15.8808
407 2 23.3943 38.9588 16.1628
408 2 27.2573 38.8431 15.8219
409 2 31.1819 38.9176 0.192028
410 2 35.4031 38.9016 0.185507
411 2 39.3415 38.9328 15.9553
412 2 43.3665 38.8365 0.135175
413 2 47.4094 39.1404 0.0188359
414 2 51.3907 39.2457 15.7544
415 2 55.3587 39.2091 0.130778
416 2 59.3774 39.215 0.2122
417 2 63.2591 39.2524 0.194365
418 2 67.3775 39.3407 0.312118
419 2 71.4652 39.3515 0.0488357
420 2 75.4399 39.4307 0.241016
421 2 79.368 39.5878 0.343446
422 2 83.3748 39.4986 16.118
423 2 87.4189 39.6352 15.8115
424 2 91.4422 39.6375 15.9627
425 2 95.4911 39.6665 15.89
426 2 99.5684 39.8671 0.154044
427 2 103.543 39.8914 15.8759
428 2 107.42 39.9135 15.9774
429 2 111.288 39.7195 15.8432
430 2 115.207 39.5636 15.865
431 2 119.218 39.5495 15.935
432 2 123.116 39.4217 15.8976
433 2 127.084 39.5442 0.220105
434 2 130.819 39.4565 15.9695
435 2 134.812 39.4865 16.1247
436 2 138.551 39.342 16.0515
437 2 142.56 39.2083 15.9624
438 2 146.334 39.2979 0.183
439 2 150.385 39.2869 15.7693
440 2 154.199 39.1496 15.8518
441 2 158.318 43.1361 0.240778
442 2 3.82577 43.1885 16.0842
443 2 7.85403 43.1334 16.0088
444 2 11.6147 42.8594 0.372424
445 2 15.5662 43.0067 0.258334
446 2 19.5791 42.8756 0.199998
447 2 23.2858 42.9016 15.8009
448 2 27.283 42.7474 15.9674
449 2 31.3866 42.8094 0.275258
450 2 35.3571 42.6112 0.0772853
451 2 39.37 42.945 0.104537
452 2 43.4262 43.0451 0.239842
453 2 47.2896 42.9995 15.9011
454 2 51.3358 43.0138 16.0381
455 2 55.2976 43.1514 0.227889
456 2 59.2064 43.2799 16.0008
457 2 63.3724 43.0875 0.336812
458 2 67.4208 43.1504 0.0902488
459 2 71.3607 43.351 0.0133872
460 2 75.298 43.3333 -0.0255488
461 2 79.3785 43.4769 0.0534715
462 2 83.4555 43.2503 16.0543
463 2 87.5187 43.5213 15.8204
464 2 91.3116 43.6923 0.32898
465 2 95.4311 43.56 0.223927
466 2 99.2855 43.7135 15.7485
467 2 103.22 43.8652 16.0288
468 2 107.196 43.9373 16.0046
469 2 111.365 43.6844 16.0602
470 2 115.353 43.6408 15.8582
471 2 119.044 43.6021 15.9812
472 2 123.041 43.5109 15.9814
473 2 126.946 43.5697 0.334841
474 2 130.977 43.4879 0.0412648
475 2 134.802 43.4445 15.8771
476 2 138.903 43.3317 15.8061
477 2 142.694 43.2479 15.969
478 2 146.458 43.241 0.0132643
479 2 150.462 43.2711 0.0162604
480 2 154.497 43.2726 0.147153
481 2 -0.0262729 47.1739 0.229027
482 2 3.8244 47.0616 0.280716
483 2 7.81472 47.1211 0.234927
484 2 11.6929 47.0568 0.184008
485 2 15.6195 46.9212 0.327265
486 2 19.6415 46.8364 0.0123356
487 2 23.2888 46.79 0.0292523
488 2 27.4173 46.8902 16.0006
489 2 31.4116 46.6446 0.121434
490 2 35.2238 46.7861 0.087956
491 2 39.2401 46.8352 15.9205
492 2 43.2103 46.7508 15.8814
493 2 47.2537 46.8822 -0.066751
494 2 51.418 46.9374 15.7243
495 2 55.2836 47.0924 16.0215
496 2 59.2943 47.0158 16.0622
497 2 63.3819 47.197 0.0520865
498 2 67.1247 46.9948 0.416229
499 2 71.2658 47.1915 16.0496
500 2 75.3107 47.2021 0.0947164
501 2 79.2827 47.3196 15.8267
502 2 83.3191 47.3535 15.9168
503 2 87.2947 47.4251 0.159901
504 2 91.2456 47.4207 0.343214
505 2 95.3093 47.402 0.397065
506 2 99.3648 47.6425 0.101523
507 2 103.411 47.6462 0.232641
508 2 107.431 47.8501 15.8733
509 2 111.239 47.6764 15.845
510 2 115.449 47.7384 0.0728718
511 2 119.199 47.6423 16.1047
512 2 123.097 47.6087 16.0597
513 2 126.834 47.4959 16.0048
514 2 130.931 47.3966 15.9055
515 2 134.816 47.4856 15.9897
516 2 138.652 47.492 15.8022
517 2 142.576 47.2884 15.9119
518 2 146.41 47.2975 0.137438
519 2 150.428 47.3455 0.115158
520 2 154.415 47.1901 15.7411
521 2 158.424 51.2487 0.060352
522 2 4.01815 51.2086 16.0754
523 2 7.89709 51.1178 16.2262
524 2 11.98 51.0758 15.9485
525 2 15.7671 50.7143 0.197029
526 2 19.6974 50.8016 15.9771
527 2 23.4388 51.0674 16.0748
528 2 27.168 50.7376 15.8054
529 2 31.4081 50.6675 0.127805
530 2 35.3866 50.7515 0.124422
531 2 39.1562 50.5347 15.892
532 2 43.3325 50.801 16.0207
533 2 47.4104 50.8722 0.151853
534 2 51.288 50.8698 0.161516
535 2 55.2083 50.8368 0.227396
536 2 59.1631 50.8801 16.0278
537 2 63.1138 50.9629 15.9934
538 2 67.2371 51.0997 0.294967
539 2 71.2508 51.2321 0.293623
540 2 75.2084 51.0096 0.162145
541 2 79.2316 51.4296 0.0716831
542 2 83.2869 51.3323 -0.0271769
543 2 87.2997 51.3624 0.176381
544 2 91.1076 51.1627 0.0627992
545 2 95.2739 51.4733 0.0279172
546 2 99.3137 51.616 0.260309
547 2 103.442 51.5361 16.0055
548 2 107.178 51.681 -0.0546282
549 2 111.291 51.4864 0.232647
550 2 115.358 51.7135 15.9913
551 2 119.281 51.5446 15.9781
552 2 123.243 51.5312 16.1051
553 2 127.097 51.4883 15.9559
554 2 130.796 51.4296 0.328637
555 2 134.601 51.395 0.0881398
556 2 138.871 51.393 0.163105
557 2 142.641 51.4461 0.101222
558 2 146.526 51.4134 15.9449
559 2 150.45 51.2093 -0.0506676
560 2 154.353 51.1034 0.348559
561 2 158.244 55.0826 0.233219
562 2 3.85443 55.0933 0.244816
563 2 8.14696 55.0429 0.271249
564 2 11.7921 54.9565 0.17193
565 2 15.6566 54.9099 0.309727
566 2 19.5883 54.8034 16.0176
567 2 23.7695 54.9136 16.1451
568 2 27.4853 54.8396 15.9404
569 2 31.2721 54.7472 0.329171
570 2 35.283 54.6604 0.0201498
571 2 39.3604 54.5046 16.0547
572 2 43.2986 54.4438 16.0002
573 2 47.2383 54.6502 -0.100489
574 2 51.0721 54.8239 15.7976
575 2 55.0671 54.8624 15.9543
576 2 59.1132 54.9059 16.0006
577 2 63.2426 54.8476 16.0801
578 2 66.9899 55.2153 0.277616
579 2 71.103 54.9725 0.308959
580 2 75.163 54.9673 15.9769
581 2 79.2359 55.0652 0.320911
582 2 83.0922 54.9605 0.265131
583 2 87.2065 55.2859 -0.0179473
584 2 91.0184 55.1412 16.1291
585 2 94.9444 55.2757 0.184857
586 2 99.122 55.4612 15.761
587 2 103.209 55.6339 15.9512
588 2 107.344 55.3825 0.195525
589 2 111.122 55.6411 15.9691
590 2 115.16 55.4208 16.0873
591 2 119.266 55.5396 16.0283
592 2 123.303 55.5844 0.202726
593 2 127.189 55.5289 16.0412
594 2 130.998 55.593 16.1521
595 2 134.817 55.4919 0.171362
596 2 138.742 55.6581 16.0443
597 2 142.741 55.3447 0.0879836
598 2 146.541 55.3914 0.319663
599 2 150.655 55.3033 0.236393
600 2 154.598 55.0159 16.0425
601 2 158.431 59.1888 0.260692
602 2 3.86173 59.0128 15.94
603 2 7.65756 59.2345 16.0185
604 2 11.8293 59.0361 0.401715
605 2 15.8969 58.8329 15.9064
606 2 19.6091 58.9067 0.177391
607 2 23.5218 59.0995 0.409913
608 2 27.6425 58.7545 0.131212
609 2 31.5029 58.803 15.7786
610 2 35.3174 58.6432 15.7876
611 2 39.143 58.5849 15.9515
612 2 43.1317 58.3108 15.887
613 2 47.1714 58.4675 15.7566
614 2 51.1265 58.6834 16.0106
615 2 55.0804 58.701 15.958
616 2 59.1741 58.5828 0.138855
617 2 63.1419 58.7389 16.0871
618 2 67.2212 58.984 0.225103
619 2 71.0912 58.8797 16.0464
620 2 75.2005 58.93 0.159819
621 2 79.1019 58.9188 0.218534
622 2 83.1115 59.0009 0.220198
623 2 87.1372 59.238 15.9073
624 2 91.1228 59.1933 15.9497
625 2 95.1538 59.5152 0.299399
626 2 99.1787 59.438 0.140452
627 2 103.063 59.4112 16.0338
628 2 107.193 59.4542 0.150817
629 2 111.192 59.3735 15.7606
630 2 115.27 59.4077 15.8916
631 2 119.057 59.4718 15.8994
632 2 123.251 59.4634 0.229619
633 2 127.137 59.6267 16.2056
634 2 130.911 59.5337 0.279013
635 2 134.94 59.5271 15.9841
636 2 138.939 59.4804 0.136866
637 2 142.929 59.4842 0.18275
638 2 146.641 59.291 0.199805
639 2 150.462 59.1968 15.9809
640 2 154.683 59.2784 0.0741842
641 2 0.0696748 63.1614 0.2659
642 2 3.75277 63.2144 0.181402
643 2 7.7583 63.1428 16.1712
644 2 11.8414 63.1397 15.915
645 2 16.0125 62.7994 15.9114
646 2 19.8338 62.7898 0.203486
647 2 23.8287 62.7011 0.135518
648 2 27.7032 62.8968 0.154078
649 2 31.463 62.8756 0.338243
650 2 35.5921 62.6073 0.198556
651 2 39.4294 62.5839 15.9215
652 2 43.2188 62.5234 0.0449998
653 2 46.932 62.5569 15.7111
654 2 50.9325 62.5571 15.7636
655 2 54.9325 62.7947 0.147398
656 2 59.2048 62.6223 16.0244
657 2 63.2544 62.6383 0.108906
658 2 67.1223 62.8878 15.9729
659 2 71.0302 62.8564 0.0160104
660 2 75.2004 62.9488 0.219711
661 2 79.1952 62.8657 0.0973972
662 2 83.1449 63.1703 0.0978584
663 2 86.8716 62.9678 16.0623
664 2 91.1411 63.1655 15.8579
665 2 95.0001 63.3186 0.0957512
666 2 99.1944 63.3008 0.145917
667 2 103.057 63.4715 15.8972
668 2 107.164 63.2363 15.8037
669 2 110.979 63.3026 15.828
670 2 115.069 63.2576 0.228775
671 2 119.091 63.4262 15.8705
672 2 123.053 63.441 0.102734
673 2 127.044 63.4718 15.8829
674 2 131.022 63.479 0.23225
675 2 134.996 63.4799 16.0921
676 2 138.665 63.4499 15.9467
677 2 142.789 63.3171 16.1093
678 2 146.9 63.367 0.310459
679 2 150.561 63.2168 15.8362
680 2 154.341 63.3438 0.183831
681 2 0.159939 67.2936 0.180453
682 2 4.26116 67.1678 0.148146
683 2 8.25831 66.9838 15.8853
684 2 11.9795 66.9668 16.0175
685 2 15.8135 66.8709 0.307553
686 2 19.7704 66.8978 0.218213
687 2 23.6167 66.7779 0.186846
688 2 27.5425 66.8182 0.283307
689 2 31.7541 66.6166 0.0583274
690 2 35.573 66.5709 0.0858883
691 2 39.3716 66.5876 15.9325
692 2 43.3215 66.6027 0.0810028
693 2 47.0595 66.6139 15.7866
694 2 51.0665 66.5197 15.7093
695 2 54.9094 66.4418 16.0049
696 2 59.0765 66.3622 15.8878
697 2 63.2398 66.7373 15.8287
698 2 67.1339 66.6405 15.9584
699 2 71.268 66.6283 0.0431565
700 2 75.119 66.8136 15.8558
701 2 79.0409 66.5912 15.8001
702 2 83.1236 66.9447 -0.0370825
703 2 86.9836 67.0314 15.8531
704 2 91.1216 67.0523 15.9553
705 2 95.1298 67.2036 0.116512
706 2 99.0039 67.2158 0.0865587
707 2 103.229 67.0575 0.0890088
708 2 107.174 67.2424 15.8574
709 2 111.214 67.3018 15.8973
710 2 115.086 67.3646 15.9209
711 2 118.931 67.3176 0.124437
712 2 123.214 67.529 0.299595
713 2 127.118 67.4962 0.12377
714 2 130.991 67.5173 16.0535
715 2 134.876 67.3775 0.255371
716 2 139.003 67.3762 0.28646
717 2 142.801 67.4181 15.8646
718 2 146.692 67.3684 16.0099
719 2 150.794 67.3575 15.7563
720 2 154.655 67.2624 0.254264
721 2 0.11379 71.1099 0.029855
722 2 4.07771 71.1916 15.8681
723 2 8.11907 71.0434 -0.0594469
724 2 12.1001 71.1747 16.0575
725 2 15.9602 70.9212 0.306068
726 2 19.7681 70.8187 0.0582018
727 2 23.8157 70.7149 0.107516
728 2 27.5891 70.7358 16.0131
729 2 31.4355 70.7282 -0.0376964
730 2 35.5064 70.7681 0.149778
731 2 39.5439 70.6689 15.872
732 2 43.3999 70.5069 0.240614
733 2 47.3315 70.5586 15.7848
734 2 51.1716 70.498 15.8289
735 2 55.1654 70.4838 0.13918
736 2 59.0897 70.4858 0.26147
737 2 63.1509 70.6024 -0.038456
738 2 67.0613 70.4828 15.7622
739 2 71.0469 70.4086 15.965
740 2 74.9035 70.743 15.891
741 2 78.9678 70.8343 -0.0276584
742 2 82.9073 70.6791 0.198763
743 2 87.0178 71.1046 15.8368
744 2 91.1356 71.2086 15.8883
745 2 95.0256 71.1045 15.9072
746 2 99.1715 71.0498 15.9053
747 2 102.86 71.0141 15.8515
748 2 107.08 71.146 15.7598
749 2 111.102 71.0407 15.9451
750 2 115.024 71.352 0.114471
751 2 118.997 71.2587 15.9441
752 2 123.032 71.5004 0.0685742
753 2 127.147 71.249 15.9557
754 2 130.918 71.226 16.0119
755 2 135.107 71.4514 15.9804
756 2 139.134 71.4101 15.9742
757 2 142.97 71.4909 0.159263
758 2 146.769 71.3012 0.0700207
759 2 150.801 71.324 0.184971
760 2 154.59 71.2764 15.8341
761 2 0.34926 75.1601 0.19724
762 2 4.30866 75.1422 15.9968
763 2 8.09313 75.0615 16.0141
764 2 11.9379 75.069 15.7242
765 2 15.962 74.8301 15.8026
766 2 19.8821 74.7473 15.8668
767 2 23.7805 74.9178 15.8245
768 2 27.7733 74.6954 15.8745
769 2 31.6258 74.7565 0.0385276
770 2 35.5985 74.704 15.9174
771 2 39.5152 74.4251 15.932
772 2 43.3962 74.4603 0.110221
773 2 47.1172 74.5836 15.8147
774 2 51.059 74.492 -0.0610643
775 2 55.0875 74.5702 15.9588
776 2 59.0042 74.3814 15.936
777 2 63.1747 74.4744 15.8447
778 2 67.0714 74.5278 0.216243
779 2 70.9249 74.5583 0.316066
780 2 74.8864 74.5484 0.364836
781 2 79.0264 74.8141 0.131928
782 2 82.8595 74.6616 0.228189
783 2 87.0208 74.913 0.00877648
784 2 91.1066 74.7376 16.0688
785 2 94.914 75.0498 15.9962
786 2 99.0674 75.1755 0.0901448
787 2 102.992 75.0669 15.8468
788 2 107.121 74.9934 15.9874
789 2 110.941 75.0702 15.8866
790 2 114.968 75.3149 15.9064
791 2 118.867 75.3762 0.154744
792 2 123.08 75.2948 15.8381
793 2 127.123 75.2477 16.0213
794 2 130.987 75.2553 0.307339
795 2 134.929 75.3156 16.0334
796 2 139.172 75.2762 15.9831
797 2 142.931 75.5614 16.0005
798 2 146.965 75.2858 15.9939
799 2 150.814 75.436 0.0577193
800 2 154.802 75.3662 0.149955
801 2 0.284709 79.1699 0.290847
802 2 4.13517 78.9783 15.8359
803 2 8.33635 79.1394 0.170285
804 2 12.1128 79.0144 0.127887
805 2 16.2432 78.8681 15.9966
806 2 20.0143 78.8169 15.9268
807 2 23.9113 78.9402 -0.0141876
808 2 27.7784 78.6154 0.10466
809 2 31.7007 78.7752 0.0084872
810 2 35.4951 78.6768 0.17769
811 2 39.4336 78.617 15.8245
812 2 43.3898 78.5449 15.8811
813 2 47.2438 78.3654 15.9733
814 2 51.2274 78.4974 0.0314487
815 2 55.1763 78.4868 0.133164
816 2 59.3445 78.3746 16.0715
817 2 63.1338 78.4491 15.9147
818 2 66.9549 78.5544 0.163386
819 2 70.7877 78.5439 15.9356
820 2 74.9124 78.685 0.318467
821 2 78.9858 78.678 16.0513
822 2 83.078 78.7193 16.0048
823 2 86.9669 78.6609 0.0514787
824 2 90.8259 78.7375 0.0707736
825 2 95.0215 78.78 0.0709784
826 2 98.7377 79.038 15.9952
827 2 102.818 78.8654 15.8706
828 2 107.063 79.0822 0.116345
829 2 110.838 79.079 -0.106923
830 2 114.882 79.1909 0.154656
831 2 118.975 79.1505 0.133491
832 2 123.161 79.1801 15.8762
833 2 127.119 79.1072 0.0154317
834 2 130.838 79.2539 15.9262
835 2 134.973 79.1519 -0.0974079
836 2 139.162 79.4177 15.8828
837 2 142.848 79.26 15.9099
838 2 146.684 79.4745 15.9785
839 2 150.806 79.2606 15.9378
840 2 154.849 79.1431 0.101126
841 2 0.375747 83.0632 16.008
842 2 4.40516 83.0155 15.9905
843 2 8.33061 83.0333 0.519091
844 2 12.2402 82.9301 16.005
845 2 16.1641 83.0989 15.7265
846 2 19.8909 82.8954 0.0671338
847 2 23.8626 82.6954 15.837
848 2 27.8841 82.7818 0.329667
849 2 31.6918 82.5458 15.8933
850 2 35.6804 82.5974 0.08789
851 2 39.5514 82.6086 0.146351
852 2 43.3983 82.5251 15.8387
853 2 47.4138 82.35 0.0551875
854 2 51.1721 82.5418 0.188134
855 2 55.1315 82.2904 0.320828
856 2 59.2608 82.691 15.8758
857 2 62.9604 82.2603 16.0668
858 2 67.0565 82.3903 15.9846
859 2 70.9336 82.492 15.8797
860 2 74.8673 82.3662 15.9461
861 2 79.0256 82.5108 15.9655
862 2 82.7728 82.4931 0.244952
863 2 86.7482 82.7005 0.154507
864 2 91.0114 82.6079 15.987
865 2 94.9938 82.7251 0.29239
866 2 98.8393 82.9106 15.9248
867 2 102.938 82.8982 0.240701
868 2 106.706 82.9764 15.9748
869 2 110.865 83.024 15.91
870 2 114.899 83.0727 15.9076
871 2 119.127 82.9875 15.782
872 2 122.852 83.072 15.8352
873 2 126.817 83.1992 15.9315
874 2 130.814 83.0951 16.073
875 2 134.893 83.1765 0.185289
876 2 138.705 83.1515 16.0148
877 2 142.806 83.1855 0.16407
878 2 146.817 83.3476 16.1378
879 2 150.893 83.1239 0.146159
880 2 154.712 83.1088 0.167891
881 2 0.30389 87.1925 16.2428
882 2 4.26095 87.2648 0.437081
883 2 7.98976 87.1254 15.9253
884 2 12.1868 86.9699 16.0479
885 2 16.0973 86.7294 15.9633
886 2 20.0804 86.7897 16.002
887 2 23.9022 86.6172 15.9347
888 2 27.8101 86.6749 0.20487
889 2 31.6705 86.6728 16.0483
890 2 35.5399 86.7842 0.135378
891 2 39.519 86.4968 16.13
892 2 43.598 86.4434 15.736
893 2 47.4835 86.5199 15.9651
894 2 51.2911 86.4185 15.8109
895 2 55.2363 86.4901 15.8867
896 2 59.1168 86.4453 0.210193
897 2 63.1016 86.5068 0.208073
898 2 66.9402 86.3054 16.0179
899 2 71.0864 86.4 0.108631
900 2 74.8486 86.3276 15.9521
901 2 78.8949 86.5557 0.111693
902 2 82.8683 86.5523 0.302691
903 2 86.9019 86.5426 15.8154
904 2 90.7718 86.522 15.9289
905 2 94.6963 86.84 15.9735
906 2 98.9142 86.5546 15.9908
907 2 102.905 86.7532 0.288745
908 2 106.646 86.8826 -0.0231787
909 2 110.917 86.8404 15.8813
910 2 114.727 87.0027 0.0296089
911 2 118.759 87.0538 0.262722
912 2 122.863 87.1054 0.0926497
913 2 126.75 86.9587 15.8958
914 2 130.793 86.904 15.9099
915 2 134.674 87.0576 15.8124
916 2 138.628 86.9785 15.9624
917 2 142.958 87.082 16.0044
918 2 146.895 87.1457 0.0927409
919 2 150.84 87.2643 15.9975
920 2 154.685 87.1425 16.0726
921 2 0.195845 90.9769 0.132222
922 2 4.50647 91.0863 0.200643
923 2 8.31207 91.0776 15.9797
924 2 12.1649 90.975 15.9824
925 2 16.1885 90.7719 0.21253
926 2 20.0731 90.8951 -0.0257116
927 2 23.8217 90.8198 16.0656
928 2 27.7708 90.7026 15.9461
929 2 31.6703 90.5523 15.8629
930 2 35.6829 90.6911 0.213969
931 2 39.5183 90.6246 16.128
932 2 43.5671 90.6193 15.863
933 2 47.5026 90.5701 0.202867
934 2 51.3413 90.6464 0.0598128
935 2 55.0844 90.4948 0.247012
936 2 59.2109 90.442 0.21327
937 2 63.0721 90.4406 0.136213
938 2 66.9366 90.4986 15.926
939 2 70.8503 90.3716 16.0025
940 2 75.0193 90.4917 0.279392
941 2 78.789 90.4693 0.332637
942 2 82.601 90.4163 0.423945
943 2 86.7687 90.7236 0.10664
944 2 90.7912 90.5333 0.0665983
945 2 94.5993 90.642 16.2115
946 2 98.5762 90.6076 16.0664
947 2 102.842 90.7083 0.307044
948 2 106.681 90.7537 15.8568
949 2 110.703 90.7552 16.072
950 2 114.685 90.9063 0.16914
951 2 118.7 90.8026 0.0631182
952 2 122.793 91.0367 15.8939
953 2 126.648 90.9345 0.273057
954 2 130.667 90.988 0.187172
955 2 134.61 91.0279 16.0319
956 2 138.852 91.0951 15.9498
957 2 142.784 90.987 15.9887
958 2 146.749 91.0121 16.1162
959 2 150.749 91.1256 16.0737
960 2 154.692 91.2105 16.1539
961 2 0.456817 94.9689 0.199664
962 2 4.4052 95.1338 16.0083
963 2 8.36544 94.8466 15.8672
964 2 12.1058 95.0167 15.951
965 2 16.2166 94.8174 15.8726
966 2 20.1413 95.0245 16.0973
967 2 23.9764 94.8151 16.0131
968 2 27.8803 94.6713 15.9559
969 2 31.7577 94.6399 15.8599
970 2 35.5795 94.4865 15.9121
971 2 39.5795 94.5496 15.865
972 2 43.638 94.5827 15.8519
973 2 47.504 94.5029 -0.0152763
974 2 51.2349 94.4637 15.907
975 2 55.1269 94.3419 0.260067
976 2 59.1567 94.5639 15.9859
977 2 63.0061 94.3912 0.00450044
978 2 67.0947 94.3453 0.0198348
979 2 70.8287 94.2921 -0.0745267
980 2 75.0152 94.4093 0.0636794
981 2 78.9125 94.5486 15.9789
982 2 82.833 94.4127 0.297428
983 2 86.6634 94.6585 0.250055