ITEM: TIMESTEP
24500
ITEM: NUMBER OF ATOMS
32000
ITEM: BOX BOUNDS xy xz yz pp pp pp
0.0000000000000000e+00 1.5831999999999999e+02 0.0000000000000000e+00
0.0000000000000000e+00 1.5831999999999999e+02 0.0000000000000000e+00
1.6625174115070074e-01 1.5931460258849096e+01 0.0000000000000000e+00
ITEM: ATOMS id type x y z
1 2 157.921 157.697 16.1642
2 2 3.72944 157.662 16.2147
3 2 7.78706 157.762 -0.0587504
4 2 11.6725 158.095 0.300697
5 2 15.6487 157.962 0.0161595
6 2 19.6782 157.801 16.0638
7 2 23.7712 157.952 15.9825
8 2 27.8297 157.915 15.9881
9 2 31.8909 158.059 0.169295
10 2 35.8028 158.028 15.9029
11 2 39.753 0.00258822 15.8133
12 2 43.8273 -0.187176 0.0791225
13 2 47.7382 0.0518313 15.9086
14 2 51.7232 0.112889 0.0435222
15 2 55.8867 158.4 0.180624
16 2 59.7479 158.339 15.8209
17 2 63.8862 0.0654351 15.8554
18 2 67.5614 0.0326166 16.14
19 2 71.7844 0.206795 15.8554
20 2 75.6449 158.611 15.9248
21 2 79.446 0.349553 16.0273
22 2 83.3506 158.486 15.9545
23 2 87.3721 158.424 15.7692
24 2 91.4083 158.408 0.0506939
25 2 95.3899 158.25 15.8222
26 2 99.1861 158.17 16.0756
27 2 102.871 158.069 15.8787
28 2 106.882 158.184 15.7761
29 2 110.689 158.036 0.348797
30 2 114.801 157.853 0.236823
31 2 118.588 157.894 15.9682
32 2 122.574 157.649 0.127888
33 2 126.419 157.88 0.144598
34 2 130.296 157.733 0.132299
35 2 134.285 157.617 15.771
36 2 138.197 157.538 16.0693
37 2 142.268 157.418 15.8853
38 2 146.278 157.46 16.0502
39 2 150.039 157.504 0.0638449
40 2 153.984 157.688 0.263272
41 2 157.783 3.45619 16.1374
42 2 3.42691 3.28075 15.9217
43 2 7.55835 3.25837 0.0771955
44 2 11.8221 3.39246 16.02
45 2 15.6371 3.49623 15.8939
46 2 19.6903 3.56138 15.8452
47 2 23.675 3.39592 0.1713
48 2 27.7409 3.57572 0.0891167
49 2 31.72 3.48642 0.0458472
50 2 35.7708 3.73792 0.149649
51 2 39.5555 3.88689 0.0663853
52 2 43.575 3.79603 16.1175
53 2 47.6278 3.89858 15.8737
54 2 51.7286 3.85532 15.8573
55 2 55.7272 3.89374 0.233972
56 2 59.904 3.95011 15.853
57 2 63.7797 4.05663 15.9374
58 2 67.8179 4.24911 15.8404
59 2 71.8258 4.10555 15.8804
60 2 75.8384 4.2913 16.0132
61 2 79.6612 4.21457 16.0005
62 2 83.572 4.20313 16.0383
63 2 87.5143 4.13864 16.0018
64 2 91.3422 3.81693 0.186935
65 2 95.2506 4.10431 16.0422
66 2 99.238 3.92875 0.17484
67 2 103.039 3.92378 15.9813
68 2 106.933 3.8663 16.0163
69 2 110.928 3.55057 0.0573606
70 2 114.858 3.54665 0.120745
71 2 118.768 3.5569 0.11431
72 2 122.586 3.41882 0.204623
73 2 126.415 3.55759 0.27341
74 2 130.433 3.36872 0.117216
75 2 134.533 3.31325 15.8461
76 2 138.206 3.13745 0.307052
77 2 142.048 3.1026 0.0467083
78 2 146.155 3.1359 0.311371
79 2 149.914 3.15979 15.7823
80 2 153.949 3.34959 16.1652
81 2 157.969 7.06609 15.9699
82 2 3.59317 7.13287 15.9229
83 2 7.6563 7.2936 15.848
84 2 11.5492 7.27149 0.0586133
85 2 15.6588 7.32029 15.987
86 2 19.4814 7.40813 15.9865
87 2 23.5667 7.30564 0.387075
88 2 27.5067 7.49 16.0085
89 2 31.617 7.46643 15.8378
90 2 35.7704 7.61465 16.0905
91 2 39.6488 7.82412 0.189082
92 2 43.8062 7.89113 0.25828
93 2 47.7578 7.91105 15.8631
94 2 51.717 7.92476 0.198418
95 2 55.553 7.75916 15.9596
96 2 59.7653 7.79003 0.318042
97 2 63.7271 7.96324 16.0269
98 2 67.9029 8.10913 15.9077
99 2 71.783 8.08302 15.8125
100 2 75.7792 8.19582 16.0056
101 2 79.489 8.12323 0.18168
102 2 83.898 8.10122 15.75
103 2 87.6346 7.94987 15.9384
104 2 91.2313 8.03186 15.9607
105 2 95.1225 8.08847 15.9921
106 2 99.1969 7.70287 0.0492036
107 2 103.19 7.86731 0.317411
108 2 107.209 7.90518 16.0031
109 2 110.956 7.58818 0.0502304
110 2 114.919 7.61979 16.0527
111 2 118.775 7.51121 15.9061
112 2 122.688 7.49723 16.001
113 2 126.599 7.43097 16.1112
114 2 130.702 7.56202 0.212104
115 2 134.397 7.53638 0.261577
116 2 138.264 7.26111 15.895
117 2 142.283 7.25893 16.0807
118 2 146.391 7.26385 0.128012
119 2 150.192 7.10548 0.149443
120 2 153.791 7.13694 16.1564
121 2 158.049 11.1902 16.1425
122 2 3.62892 11.2261 15.8142
123 2 7.73424 11.2211 15.9116
124 2 11.6082 11.194 0.26579
125 2 15.7406 11.1238 15.9723
126 2 19.4973 11.2038 15.972
127 2 23.6387 11.3206 15.8784
128 2 27.6148 11.3862 15.858
129 2 31.426 11.5019 15.8159
130 2 35.5211 11.6372 16.0178
131 2 39.5804 11.7649 15.9653
132 2 43.5574 11.8284 0.0424748
133 2 47.6283 11.6081 0.144878
134 2 51.6816 11.9058 16.1506
135 2 55.6372 11.8937 0.260453
136 2 59.5915 11.6568 16.0526
137 2 63.8185 11.8326 0.236028
138 2 67.6014 12.0255 16.0648
139 2 71.768 12.0453 15.9226
140 2 75.7657 12.2216 16.014
141 2 79.7344 12.2445 16.0275
142 2 83.8115 12.2252 16.0074
143 2 87.6294 12.0382 0.348992
144 2 91.5794 12.0663 0.0435809
145 2 95.5343 12.0493 15.8982
146 2 99.1611 12.1262 15.8379
147 2 103.246 11.9623 0.210016
148 2 107.267 11.8171 15.9575
149 2 111.072 11.7451 0.293084
150 2 115.074 11.6969 15.8892
151 2 118.863 11.6728 0.0304533
152 2 122.611 11.691 0.177982
153 2 126.519 11.3846 15.9257
154 2 130.541 11.4002 16.0858
155 2 134.533 11.4404 0.390604
156 2 138.326 11.2351 0.172457
157 2 142.393 11.3551 -0.00547699
158 2 146.188 11.1908 0.272145
159 2 150.179 11.2075 0.377237
160 2 154.136 11.0099 0.385722
161 2 158.2 15.2911 16.0708
162 2 3.56259 14.9469 15.8978
163 2 7.542 14.9878 15.8768
164 2 11.5228 15.0483 15.9656
165 2 15.5144 15.2323 16.08
166 2 19.5012 15.1288 0.130555
167 2 23.192 15.1943 0.157033
168 2 27.6221 15.4196 15.9193
169 2 31.5486 15.4219 0.0391756
170 2 35.6427 15.5683 15.947
171 2 39.3884 15.594 0.204598
172 2 43.4418 15.6192 0.185406
173 2 47.5627 15.5945 0.134219
174 2 51.5258 15.7151 0.236738
175 2 55.6626 15.6238 16.1482
176 2 59.6597 15.7168 0.2287
177 2 63.7067 15.9037 15.9376
178 2 67.4805 15.8962 15.9407
179 2 71.4439 16.0081 0.0461402
180 2 75.5916 15.9931 0.0631965
181 2 79.8882 16.0389 16.0026
182 2 83.6107 15.9296 0.126469
183 2 87.6919 16.1364 16.0871
184 2 91.4411 16.0198 0.110763
185 2 95.4895 16.0115 16.1357
186 2 99.4232 16.2282 16.0021
187 2 103.149 15.7203 16.0745
188 2 107.117 15.5395 15.9585
189 2 111.046 15.6992 15.8499
190 2 115.137 15.4781 15.9606
191 2 118.874 15.5282 0.214669
192 2 122.695 15.7283 16.0619
193 2 126.827 15.4414 15.8635
194 2 130.743 15.6015 0.329911
195 2 134.464 15.3683 0.20799
196 2 138.456 15.3461 0.185437
197 2 142.431 15.2851 15.9094
198 2 146.249 15.2292 0.126635
199 2 150.24 15.2927 0.161816
200 2 154.059 15.1067 15.9478
201 2 158.014 19.1659 16.0873
202 2 3.61811 18.8769 0.166148
203 2 7.43625 18.9139 0.122655
204 2 11.5463 19.23 15.9406
205 2 15.5192 19.1951 15.9396
206 2 19.5129 19.0388 15.9406
207 2 23.4121 19.0931 16.0996
208 2 27.4554 19.2387 16.1126
209 2 31.6262 19.3524 16.1189
210 2 35.514 19.3259 15.8765
211 2 39.2417 19.3627 0.116702
212 2 43.3514 19.3354 15.8805
213 2 47.4979 19.4414 15.8268
214 2 51.6203 19.4486 -0.0431407
215 2 55.547 19.7541 15.9604
216 2 59.6166 19.6428 15.7444
217 2 63.3467 19.8174 16.0177
218 2 67.4573 19.8973 16.1456
219 2 71.6583 19.8583 -0.00962374
220 2 75.7699 19.8847 0.00473008
221 2 79.6176 19.9541 0.225837
222 2 83.7361 20.082 15.9144
223 2 87.7959 20.2166 0.207844
224 2 91.698 20.1017 -0.00304606
225 2 95.4065 19.9612 16.0244
226 2 99.4309 19.9503 16.0465
227 2 103.397 19.8813 15.9738
228 2 107.209 19.7519 16.023
229 2 111.27 19.6303 0.315284
230 2 115.056 19.4898 15.9648
231 2 118.881 19.6625 15.9709
232 2 122.887 19.4798 15.9669
233 2 126.753 19.4463 16.0127
234 2 130.83 19.3881 16.1373
235 2 134.643 19.4713 0.2097
236 2 138.609 19.2039 15.996
237 2 142.523 19.2988 16.1206
238 2 146.29 19.1475 0.239487
239 2 150.238 19.1916 16.0518
240 2 154.299 19.0976 0.332215
241 2 158.139 23.1687 16.2168
242 2 3.6893 23.048 15.9056
243 2 7.48019 23.0331 0.171774
244 2 11.5195 23.1372 0.317944
245 2 15.5792 22.9237 16.0151
246 2 19.4396 23.0929 16.0018
247 2 23.543 23.0696 15.9103
248 2 27.4559 23.1525 16.0434
249 2 31.4449 23.3163 0.230717
250 2 35.6705 22.9815 15.9782
251 2 39.4268 23.4346 0.33069
252 2 43.5161 23.4518 16.0491
253 2 47.3826 23.3025 0.134014
254 2 51.4097 23.4891 0.13263
255 2 55.4749 23.4871 -0.0450084
256 2 59.5166 23.5607 15.9232
257 2 63.6396 23.5886 0.0128081
258 2 67.4747 23.5851 15.9758
259 2 71.5867 23.9162 15.8352
260 2 75.6704 23.722 0.105159
261 2 79.6576 24.0167 15.9791
262 2 83.5808 23.9655 0.141955
263 2 87.6156 23.8197 15.9953
264 2 91.6971 24.1073 15.9181
265 2 95.5659 24.0411 16.1199
266 2 99.2283 23.89 0.0394478
267 2 103.347 23.9037 16.0977
268 2 107.201 23.8777 16.1472
269 2 111.169 23.7119 0.1387
270 2 115.043 23.7588 15.9753
271 2 118.963 23.5476 15.8128
272 2 122.797 23.6195 0.258466
273 2 126.737 23.4841 15.9448
274 2 130.692 23.436 16.0072
275 2 134.669 23.4297 16.0223
276 2 138.444 23.264 16.0549
277 2 142.363 23.2861 15.9102
278 2 146.273 23.3172 0.0796622
279 2 150.169 23.3172 0.321366
280 2 154.265 23.1008 0.366548
281 2 158 27.3341 0.41671
282 2 3.61145 27.0635 -0.0443544
283 2 7.78067 27.3153 0.269837
284 2 11.4172 26.9006 15.96
285 2 15.326 26.9436 15.8405
286 2 19.3297 27.0334 0.299842
287 2 23.4384 27.1289 16.2417
288 2 27.4165 27.0131 15.9491
289 2 31.365 27.0863 0.313255
290 2 35.2801 27.1606 0.356338
291 2 39.3632 27.4447 0.338193
292 2 43.507 27.2633 0.183727
293 2 47.4707 27.3545 0.227038
294 2 51.3814 27.4147 15.6897
295 2 55.2466 27.5608 -0.0629828
296 2 59.1272 27.6743 15.8298
297 2 63.5141 27.6365 15.9418
298 2 67.6144 27.5546 16.0529
299 2 71.4312 27.7494 15.9417
300 2 75.5077 27.7697 0.220761
301 2 79.5877 27.7665 0.202784
302 2 83.5708 27.7427 15.8012
303 2 87.529 27.8249 0.028899
304 2 91.7843 27.8204 0.137062
305 2 95.6453 28.0031 0.0795547
306 2 99.3721 27.9475 0.140864
307 2 103.234 27.7323 16.008
308 2 107.393 27.6925 0.0907244
309 2 111.092 27.7561 15.9647
310 2 115.122 27.69 15.6545
311 2 119.006 27.686 0.0916403
312 2 122.926 27.5042 0.129982
313 2 126.75 27.4385 16.0621
314 2 130.822 27.5804 16.0345
315 2 134.797 27.685 15.9406
316 2 138.628 27.3168 16.0258
317 2 142.524 27.2682 0.119615
318 2 146.375 27.2234 0.304766
319 2 150.333 27.2717 0.32824
320 2 154.003 27.0704 0.166458
321 2 158.061 30.9963 15.9679
322 2 3.67651 30.979 15.7951
323 2 7.52918 30.9446 15.8372
324 2 11.7681 30.9755 0.234999
325 2 15.5646 31.1475 0.167992
326 2 19.4878 30.8508 16.1029
327 2 23.3905 31.1231 15.9275
328 2 27.2449 30.9477 0.341629
329 2 31.4982 30.9926 15.8059
330 2 35.5599 31.0223 15.9541
331 2 39.5431 31.2735 16.035
332 2 43.3428 31.1527 0.112638
333 2 47.2915 31.4028 15.7972
334 2 51.2488 31.3683 -0.224858
335 2 55.4306 31.4171 15.7067
336 2 59.488 31.4356 0.123212
337 2 63.5183 31.3863 15.9744
338 2 67.378 31.5378 0.177295
339 2 71.4988 31.3078 0.246131
340 2 75.3852 31.64 0.341789
341 2 79.4131 31.9016 16.2021
342 2 83.483 31.7439 0.0635374
343 2 87.5618 31.8044 15.9054
344 2 91.5828 31.8588 15.9345
345 2 95.5233 32.0475 15.9522
346 2 99.5015 31.8385 0.34474
347 2 103.341 31.7602 16.0289
348 2 107.244 31.7488 16.0374
349 2 111.182 31.7637 15.9419
350 2 115.119 31.4717 15.8289
351 2 119.031 31.744 15.7709
352 2 123.139 31.4136 15.831
353 2 126.991 31.4507 16.0708
354 2 130.848 31.3613 15.7845
355 2 134.711 31.2853 15.9532
356 2 138.592 31.3503 15.8552
357 2 142.495 31.3643 0.320359
358 2 146.546 31.1269 15.969
359 2 150.138 31.3185 0.0547289
360 2 154.278 31.1913 0.18388
361 2 -0.0844706 35.2819 0.193514
362 2 3.74051 35.2247 15.8961
363 2 7.73636 34.9077 15.8271
364 2 11.6077 34.931 15.8628
365 2 15.6985 34.9561 0.301147
366 2 19.3618 34.9025 0.288908
367 2 23.3534 35.0769 0.212926
368 2 27.4805 34.9567 0.130493
369 2 31.4554 34.9546 0.251364
370 2 35.2996 34.8065 0.299372
371 2 39.4122 35.146 0.194088
372 2 43.4047 35.233 15.9447
373 2 47.348 35.2338 15.9425
374 2 51.4006 35.2058 15.8029
375 2 55.3752 35.2453 0.0102609
376 2 59.4309 35.4809 0.0355068
377 2 63.4374 35.4095 16.1324
378 2 67.4314 35.4333 0.286659
379 2 71.4587 35.4446 0.100518
380 2 75.4788 35.5422 15.9978
381 2 79.3404 35.6651 0.105745
382 2 83.2759 35.48 16.0128
383 2 87.4239 35.6117 0.151159
384 2 91.4374 35.8463 0.261011
385 2 95.4509 35.735 15.8057
386 2 99.4367 35.8501 0.0310126
387 2 103.541 35.67 15.9608
388 2 107.428 35.6643 16.0303
389 2 111.57 35.7968 16.0469
390 2 115.284 35.6511 15.9969
391 2 119.278 35.5333 15.8581
392 2 123.093 35.4651 15.9751
393 2 126.881 35.2781 16.0172
394 2 130.846 35.3154 15.8476
395 2 134.73 35.3868 16.0098
396 2 138.679 35.2065 0.0326566
397 2 142.612 35.2164 0.188931
398 2 146.281 35.3727 0.291661
399 2 150.339 35.2339 15.9479
400 2 154.28 35.141 0.270389
401 2 158.282 39.2783 0.132275
402 2 3.78903 39.0426 0.344928
403 2 7.74693 39.2003 0.250996
404 2 11.7035 38.9565 16.1967
405 2 15.572 38.8119 0.0845173
406 2 19.5855 38.8217 16.0017
407 2 23.5109 38.7915 15.8211
408 2 27.5985 38.7333 15.8996
409 2 31.5048 38.9019 -0.00757985
410 2 35.323 38.9478 -0.0123481
411 2 39.1043 39.1167 15.8648
412 2 43.1791 39.0037 0.257061
413 2 47.1696 38.8568 0.356701
414 2 51.3549 38.9767 15.9267
415 2 55.399 39.1338 -0.0471402
416 2 59.2703 39.1347 0.126267
417 2 63.4343 39.2898 0.2747
418 2 67.3748 39.3701 0.154659
419 2 71.375 39.4109 0.187497
420 2 75.3708 39.4219 0.432501
421 2 79.4351 39.4368 0.122765
422 2 83.4508 39.5219 15.7968
423 2 87.3826 39.5807 15.8757
424 2 91.3567 39.6878 15.9699
425 2 95.3333 39.7655 16.1482
426 2 99.3286 39.6758 0.197603
427 2 103.302 39.8097 15.8991
428 2 107.466 39.7076 15.9021
429 2 111.447 39.705 16.2156
430 2 115.364 39.8174 16.0946
431 2 119.274 39.6104 15.9931
432 2 123.092 39.6168 16.1553
433 2 127.041 39.4481 0.171624
434 2 130.99 39.3853 15.8352
435 2 134.764 39.3148 15.7543
436 2 138.748 39.3035 15.7716
437 2 142.529 39.3206 15.7666
438 2 146.55 39.233 0.0714122
439 2 150.346 39.272 15.8945
440 2 154.368 39.3206 15.9147
441 2 158.153 43.001 0.0133039
442 2 3.87925 42.9555 15.7571
443 2 7.79954 42.909 16.0308
444 2 11.8304 43.1383 0.108405
445 2 15.5397 42.9561 0.263479
446 2 19.4663 42.8523 0.0627034
447 2 23.5412 42.6873 15.9222
448 2 27.4036 42.7275 15.7863
449 2 31.2438 42.8809 0.0167203
450 2 35.0577 43.0438 0.307181
451 2 39.0645 42.6621 0.130181
452 2 43.2795 42.8093 0.0893216
453 2 47.2264 42.8423 15.8441
454 2 51.3475 43.112 15.6871
455 2 55.3378 43.0408 0.0586643
456 2 59.4532 42.9117 15.9832
457 2 63.4058 43.1654 0.216731
458 2 67.4771 43.313 0.24517
459 2 71.3833 43.373 0.135266
460 2 75.3189 43.2781 0.272138
461 2 79.4641 43.2959 0.0901014
462 2 83.3429 43.4649 15.896
463 2 87.257 43.4555 15.8837
464 2 91.2557 43.4286 -0.00239669
465 2 95.3721 43.7257 0.258887
466 2 99.515 43.7309 16.0927
467 2 103.525 43.7647 15.9743
468 2 107.381 43.4938 16.2322
469 2 111.292 43.6152 16.0926
470 2 115.148 43.5873 16.1402
471 2 119.101 43.6386 16.1551
472 2 122.798 43.5872 16.0285
473 2 126.939 43.4381 0.189838
474 2 130.924 43.4426 0.136222
475 2 135.047 43.4253 15.9624
476 2 138.699 43.4386 15.8688
477 2 142.533 43.3379 15.7213
478 2 146.728 43.3457 0.138598
479 2 150.383 43.2586 0.0353373
480 2 154.087 43.1164 0.0317702
481 2 0.20708 47.0574 0.138422
482 2 4.07998 46.9199 0.181916
483 2 8.00527 46.9268 0.179844
484 2 11.9634 46.9765 0.00925886
485 2 15.6536 46.8948 0.0931212
486 2 19.7215 47.089 0.138056
487 2 23.6185 46.8345 0.213375
488 2 27.3721 46.7824 15.9616
489 2 31.311 46.8918 0.183002
490 2 35.4984 46.615 0.170437
491 2 39.3003 46.6224 16.0387
492 2 43.4324 46.7563 15.9931
493 2 47.3083 47.1118 0.0599917
494 2 51.143 46.8846 16.0437
495 2 55.3296 47.0453 15.8587
496 2 59.3239 46.9669 15.8892
497 2 63.2448 46.8343 0.458615
498 2 67.2404 47.3837 0.269323
499 2 71.2705 47.2457 15.7531
500 2 75.3672 47.2887 0.0929096
501 2 79.4609 47.4604 15.8045
502 2 83.3684 47.3167 15.938
503 2 87.3863 47.4384 -0.0273309
504 2 91.3626 47.4812 0.142505
505 2 95.3554 47.5254 0.0708893
506 2 99.2967 47.6662 0.0991263
507 2 103.263 47.7048 0.15392
508 2 107.253 47.7263 16.0261
509 2 111.42 47.5505 16.0594
510 2 115.312 47.6396 0.173509
511 2 119.221 47.6009 15.8928
512 2 122.969 47.6027 16.1033
513 2 127 47.3816 15.9009
514 2 130.948 47.5151 15.7396
515 2 135.024 47.4316 15.8333
516 2 138.874 47.4342 15.7791
517 2 142.726 47.5162 15.675
518 2 146.794 47.3606 0.0543101
519 2 150.587 47.2366 0.133429
520 2 154.329 47.1117 16.1089
521 2 158.5 51.0564 0.411503
522 2 3.95042 50.9742 15.7783
523 2 7.81914 50.9189 15.8358
524 2 11.833 51.0031 16.013
525 2 15.6115 51.0495 0.079185
526 2 19.432 50.908 16.1068
527 2 23.6609 50.9312 15.987
528 2 27.766 50.8444 16.0779
529 2 31.5199 50.7393 0.27826
530 2 35.3911 50.6329 0.189935
531 2 39.4274 50.7283 16.1504
532 2 43.3199 50.7142 15.9258
533 2 47.1693 50.9028 -0.0892345
534 2 51.241 50.9153 0.0333547
535 2 55.0152 50.9319 0.237112
536 2 59.1737 50.9389 15.9306
537 2 63.1793 51.0345 16.0966
538 2 67.2495 51.1155 0.196909
539 2 71.2669 51.0939 0.130664
540 2 75.3895 51.3658 0.0996
541 2 79.3815 51.1705 0.0875308
542 2 83.318 51.2853 0.231629
543 2 87.269 51.3641 0.0925547
544 2 91.3227 51.4707 0.190982
545 2 95.2965 51.346 0.313148
546 2 99.2419 51.5494 0.0303655
547 2 103.134 51.5507 15.9574
548 2 107.107 51.7777 0.294595
549 2 111.141 51.678 0.116128
550 2 115.236 51.5493 16.0167
551 2 119.357 51.8788 16.0055
552 2 123.184 51.72 15.9862
553 2 126.984 51.6007 15.7963
554 2 131.058 51.5551 0.134517
555 2 134.9 51.5879 0.27598
556 2 138.651 51.4132 -0.00120529
557 2 142.672 51.3485 0.0523738
558 2 146.725 51.3142 15.7323
559 2 150.722 51.3614 0.00401767
560 2 154.649 51.1698 -0.0649336
561 2 158.616 55.1016 0.0198953
562 2 4.05964 55.1199 0.294477
563 2 7.81171 54.9688 0.0738376
564 2 11.7458 54.987 0.199098
565 2 15.6578 54.938 0.248523
566 2 19.7736 54.9811 15.9021
567 2 23.3298 54.8575 15.923
568 2 27.551 54.8414 15.9699
569 2 31.4289 54.6656 -0.0915111
570 2 35.421 54.7036 0.0496605
571 2 39.2589 54.6215 15.7172
572 2 43.1482 54.6339 15.7177
573 2 47.2521 54.6274 0.321682
574 2 51.3321 54.9944 15.8566
575 2 55.318 54.8641 16.0231
576 2 59.324 54.8541 15.8984
577 2 63.1199 54.9815 16.1113
578 2 67.1979 55.0758 0.234737
579 2 71.1749 55.0354 0.154316
580 2 75.1499 55.0955 15.7757
581 2 79.2321 55.2485 0.137857
582 2 83.3436 55.3179 0.0570067
583 2 87.0387 55.2668 0.00776758
584 2 91.2458 55.2695 15.934
585 2 95.2482 55.4029 0.156762
586 2 99.2652 55.4408 15.9759
587 2 103.092 55.3449 15.8783
588 2 107.042 55.7065 0.255715
589 2 111.221 55.6397 15.8504
590 2 115.176 55.4722 15.8565
591 2 119.139 55.6502 16.0466
592 2 123.171 55.491 0.206141
593 2 127.114 55.5485 16.0886
594 2 131.071 55.4232 15.8865
595 2 135.073 55.3748 0.316646
596 2 138.869 55.096 15.9803
597 2 142.614 55.2888 0.273942
598 2 146.72 55.2881 0.159829
599 2 150.569 55.2088 0.195199
600 2 154.548 55.2664 15.8276
601 2 158.284 59.1016 0.144503
602 2 3.97053 59.0955 15.8925
603 2 7.90463 59.1961 16.0521
604 2 11.7298 58.9687 0.1222
605 2 15.5756 59.0491 16.0893
606 2 19.6427 58.8724 0.235163
607 2 23.5569 58.8553 0.172438
608 2 27.3485 58.8558 0.105814
609 2 31.4224 58.6064 16.0708
610 2 35.3697 58.6588 16.0254
611 2 39.3079 58.4666 15.8683
612 2 43.1315 58.8234 15.8677
613 2 46.9947 58.555 16.1651
614 2 51.0071 58.8826 16.163
615 2 55.131 58.8388 15.9503
616 2 59.2301 58.9267 0.184728
617 2 63.2006 58.9998 15.8601
618 2 67.1783 58.9296 0.208337
619 2 71.2041 59.1207 15.9141
620 2 74.9078 59.0076 0.300118
621 2 79.0175 59.177 0.168441
622 2 83.264 59.2068 0.105246
623 2 87.1688 59.0902 15.9856
624 2 91.2812 59.1731 15.9389
625 2 95.2176 59.0994 0.263171
626 2 99.2059 59.3392 0.28705
627 2 103.16 59.3398 16.0361
628 2 107.085 59.3502 -0.0272353
629 2 111.172 59.5129 15.9479
630 2 115.045 59.4023 15.8385
631 2 119.143 59.4494 16.0846
632 2 123.137 59.5164 0.136815
633 2 127.118 59.6379 15.8172
634 2 131.105 59.479 0.318089
635 2 134.793 59.35 15.9882
636 2 138.803 59.2661 0.159526
637 2 142.72 59.4788 0.489028
638 2 146.684 59.3986 0.266425
639 2 150.739 59.2822 15.8546
640 2 154.303 59.1579 0.178205
641 2 0.0826534 63.0487 0.229524
642 2 4.08111 63.0185 0.128669
643 2 7.96141 63.1447 15.8798
644 2 11.8943 62.9818 15.8478
645 2 15.588 63.109 15.9262
646 2 19.6058 62.9569 0.210922
647 2 23.4428 63.0524 0.0311637
648 2 27.465 62.9448 0.345317
649 2 31.4632 62.6449 0.0250549
650 2 35.2365 62.573 -0.0164551
651 2 39.2885 62.5468 15.7992
652 2 43.1774 62.6411 0.174477
653 2 47.3538 62.5794 15.712
654 2 51.2114 62.7406 15.8251
655 2 55.0724 62.6563 0.281093
656 2 59.0412 62.7976 15.882
657 2 63.0934 62.9354 0.0797739
658 2 67.0712 62.729 16.0579
659 2 71.2091 62.9051 0.324649
660 2 75.0612 63.0275 0.227487
661 2 79.0455 62.8424 0.150857
662 2 83.1867 62.9846 0.192279
663 2 87.2097 63.1129 15.8272
664 2 91.1777 63.12 16.0506
665 2 95.3056 63.2237 0.393928
666 2 99.1415 63.3086 0.196949
667 2 103.163 63.2066 15.9382
668 2 107.116 63.3462 15.9848
669 2 110.934 63.3853 16.0194
670 2 115.101 63.2602 -0.0395213
671 2 118.974 63.2092 15.7815
672 2 123.099 63.5429 0.0458746
673 2 127.069 63.7835 15.9474
674 2 131.062 63.5196 0.264728
675 2 134.975 63.3767 15.8561
676 2 139.189 63.3953 15.9762
677 2 142.859 63.4319 15.8571
678 2 146.713 63.4261 0.0304069
679 2 150.729 63.1971 16.0693
680 2 154.67 63.0138 0.324667
681 2 0.139446 66.97 0.157301
682 2 3.80446 67.039 0.236157
683 2 7.82143 67.0953 16.0161
684 2 11.8195 67.1535 16.0046
685 2 15.7583 66.9752 -0.00935882
686 2 19.6697 66.7941 0.104294
687 2 23.6236 66.946 0.130746
688 2 27.8029 66.8504 0.205927
689 2 31.5918 66.7924 0.150602
690 2 35.4652 66.6228 0.0909974
691 2 39.3619 66.5116 15.8646
692 2 43.1221 66.6008 0.194246
693 2 47.2261 66.4768 15.9432
694 2 51.0995 66.6715 15.981
695 2 55.2341 66.6764 15.9495
696 2 59.1631 66.6572 15.9435
697 2 63.0237 66.7532 15.9633
698 2 67.1391 66.7732 15.8465
699 2 70.9685 66.9136 0.459125
700 2 75.1082 66.8172 16.1093
701 2 79.085 66.8102 16.1088
702 2 83.1638 66.898 0.214834
703 2 87.1596 67.1803 15.8619
704 2 91.0472 67.2192 15.829
705 2 94.9912 67.1512 0.192705
706 2 99.2164 67.1139 0.153079
707 2 103.044 67.3044 0.107545
708 2 107.095 67.29 15.9102
709 2 111.099 67.2161 15.8732
710 2 115.032 67.2004 15.775
711 2 119.138 67.2062 -0.0514769
712 2 123.015 67.3258 0.0805527
713 2 126.984 67.3794 0.109751
714 2 131.137 67.5516 16.1343
715 2 135.188 67.332 0.282528
716 2 139.019 67.4291 0.20161
717 2 142.923 67.2876 15.8998
718 2 146.867 67.2618 15.9282
719 2 150.6 67.0972 16.0854
720 2 154.641 67.1825 0.119393
721 2 0.376128 71.2299 -0.0480487
722 2 4.12707 71.1786 15.7871
723 2 7.99787 71.1635 0.235205
724 2 12.057 70.9379 15.7538
725 2 15.8711 70.8834 -0.0299178
726 2 19.8666 70.8513 0.098407
727 2 23.596 70.8131 0.27337
728 2 27.8455 70.7964 15.9196
729 2 31.832 70.6248 0.168037
730 2 35.5275 70.5508 0.113935
731 2 39.3848 70.6188 15.873
732 2 43.2005 70.5536 0.0559473
733 2 47.0907 70.5109 16.052
734 2 51.1764 70.5828 15.9308
735 2 55.1002 70.5427 0.185311
736 2 59.1152 70.525 0.0266384
737 2 62.8538 70.5625 0.0999422
738 2 66.9812 70.7903 15.8027
739 2 71.0374 70.894 16.0048
740 2 75.293 70.7708 16.0215
741 2 79.039 70.7061 0.180021
742 2 83.0252 70.976 0.20987
743 2 86.8713 71.0731 15.944
744 2 90.9111 70.9698 15.79
745 2 95.2172 70.9939 16.0033
746 2 98.9211 70.883 15.9142
747 2 102.994 71.2004 15.7836
748 2 107.084 71.1534 15.9903
749 2 111.19 71.3202 15.8814
750 2 115.084 71.1685 0.270569
751 2 119.033 71.0237 15.7889
752 2 123.158 71.2086 0.268525
753 2 126.893 71.3433 16.0553
754 2 131.096 71.5498 16.2013
755 2 135.112 71.4265 15.9092
756 2 139.081 71.3691 15.9904
757 2 143.016 71.4275 0.150639
758 2 147.099 71.3957 0.172063
759 2 150.732 71.1603 0.0345718
760 2 154.756 71.2159 15.8339
761 2 0.217888 75.162 0.123658
762 2 4.15304 75.0706 15.8245
763 2 8.22871 75.1156 15.7357
764 2 11.9267 75.0755 16.0154
765 2 15.9251 75.0775 15.9435
766 2 19.8667 74.98 15.9879
767 2 23.8979 74.6152 15.8809
768 2 27.7397 74.7361 15.8276
769 2 31.7282 74.5772 0.142241
770 2 35.5159 74.7377 15.8551
771 2 39.4341 74.6879 15.9894
772 2 43.4706 74.617 -0.0602707
773 2 47.46 74.4511 15.8762
774 2 51.3002 74.6098 0.256889
775 2 55.1252 74.3814 15.8841
776 2 59.0822 74.4642 15.6774
777 2 63.0723 74.498 15.9493
778 2 67.1233 74.5646 0.222214
779 2 71.0709 74.7008 0.216623
780 2 74.934 74.7163 0.114763
781 2 78.9489 74.7904 0.236869
782 2 82.9913 74.7529 0.0761253
783 2 86.855 74.9849 0.334399
784 2 90.8995 75.0175 15.764
785 2 95.0881 74.9013 15.6785
786 2 98.9616 74.6692 0.242767
787 2 103.029 75.1302 15.8563
788 2 106.82 75.119 15.7734
789 2 111.013 75.3034 16.0364
790 2 114.991 74.9912 15.9784
791 2 119.108 75.0878 0.127934
792 2 122.955 75.2484 16.0525
793 2 126.862 75.3108 15.97
794 2 130.812 75.1983 0.387934
795 2 135.058 75.229 15.8649
796 2 138.756 75.2281 16.069
797 2 142.92 75.4111 15.9846
798 2 146.755 75.3605 16.0151
799 2 150.808 75.0555 0.326562
800 2 154.549 74.9321 0.180692
801 2 0.33282 79.1699 0.196188
802 2 4.28841 79.0648 16.1982
803 2 8.02089 79.0343 0.185218
804 2 12.1399 79.0058 0.194417
805 2 16.0057 79.0134 15.942
806 2 20.0287 78.8997 15.7332
807 2 23.8594 78.7991 0.00566181
808 2 27.7172 78.7884 0.190131
809 2 31.7603 78.6201 0.0468833
810 2 35.644 78.5902 0.155913
811 2 39.4623 78.4063 15.9099
812 2 43.4076 78.4508 15.8486
813 2 47.4962 78.6894 15.9754
814 2 51.2151 78.4713 0.235767
815 2 55.0426 78.4273 -0.03617
816 2 58.8125 78.4776 15.7851
817 2 62.956 78.4394 16.0594
818 2 66.9283 78.448 0.134135
819 2 70.8759 78.4106 15.9601
820 2 75.0876 78.6711 0.182471
821 2 78.923 78.7597 15.9213
822 2 82.6537 78.5052 15.8577
823 2 86.8758 78.8507 0.139361
824 2 90.9159 78.9359 0.156312
825 2 94.9255 78.8559 0.244253
826 2 99.077 78.8165 15.9545
827 2 103.029 79.0908 15.9675
828 2 106.759 79.0318 -0.0777665
829 2 110.869 79.1182 0.0343336
830 2 115.036 79.0371 0.0781931
831 2 118.927 79.0032 0.24034
832 2 122.859 79.268 15.9293
833 2 126.818 79.2031 0.15516
834 2 131.004 79.0286 16.0013
835 2 134.98 79.2091 0.23916
836 2 138.877 79.2478 15.951
837 2 143.063 79.4428 16.1262
838 2 147.161 79.1914 15.9544
839 2 150.957 79.2638 15.7911
840 2 154.744 79.1193 0.185465
841 2 0.420648 83.2001 16.0279
842 2 4.29261 83.1468 16.1078
843 2 8.20211 83.1296 0.013582
844 2 12.1686 82.9866 15.8394
845 2 16.1056 82.8198 15.9364
846 2 20.0115 82.6909 0.132733
847 2 23.9024 82.7642 15.9909
848 2 27.7562 82.6799 0.224659
849 2 31.6784 82.788 15.904
850 2 35.5773 82.6666 -0.0412047
851 2 39.6638 82.5283 0.015433
852 2 43.523 82.4672 16.0232
853 2 47.2848 82.6089 0.206151
854 2 51.323 82.4439 0.134536
855 2 55.145 82.6404 0.0535598
856 2 59.1812 82.4047 16.1121
857 2 63.1492 82.5838 15.7633
858 2 66.8682 82.4919 15.9637
859 2 70.8053 82.3916 15.9517
860 2 74.7388 82.6496 15.8953
861 2 78.7773 82.6815 15.8726
862 2 82.8464 82.5684 0.111351
863 2 86.8932 82.6195 0.241853
864 2 90.7617 82.6991 16.0835
865 2 94.7632 82.6828 0.0958392
866 2 98.7718 82.8116 15.997
867 2 102.836 82.876 0.210857
868 2 106.821 82.8721 15.8044
869 2 110.899 82.8436 15.6549
870 2 114.95 82.921 15.9375
871 2 118.815 83.0449 16.033
872 2 122.964 83.2247 15.9297
873 2 126.859 83.0532 15.9529
874 2 130.769 82.9205 15.8888
875 2 134.804 83.1849 0.15169
876 2 138.754 83.4096 16.178
877 2 142.904 83.1176 0.20859
878 2 146.907 83.1422 15.9287
879 2 150.807 83.27 0.189636
880 2 154.863 83.2213 0.256877
881 2 0.462872 87.3156 15.9732
882 2 4.3091 87.0682 0.293869
883 2 8.32996 87.0672 16.0297
884 2 11.9779 86.9256 15.9728
885 2 16.1378 86.9671 15.8959
886 2 20.06 86.8218 15.8665
887 2 23.8388 86.8764 16.0508
888 2 27.8217 86.6966 0.114041
889 2 31.7463 86.8149 16.0733
890 2 35.5703 86.4451 0.282746
891 2 39.439 86.7469 15.9457
892 2 43.4119 86.6077 16.046
893 2 47.3317 86.4343 15.7452
894 2 51.4514 86.6189 15.9369
895 2 55.2923 86.4736 16.0987
896 2 59.0655 86.524 0.301239
897 2 62.9325 86.3273 0.0448762
898 2 67.0432 86.517 15.9086
899 2 70.6299 86.369 0.174676
900 2 74.7389 86.4517 16.0617
901 2 78.7726 86.5719 0.159764
902 2 82.7814 86.5389 0.0981046
903 2 86.7172 86.505 15.9981
904 2 90.8848 86.5726 15.8884
905 2 94.7763 86.5613 16.0697
906 2 98.6895 86.8581 15.8283
907 2 102.781 86.9127 0.186117
908 2 106.892 86.9451 0.330511
909 2 110.695 86.8737 15.9306
910 2 115.028 86.8635 0.152743
911 2 118.793 86.8776 0.149435
912 2 122.766 87.0976 0.189042
913 2 126.844 87.0619 15.8681
914 2 130.877 87.105 15.8012
915 2 134.928 87.227 15.9507
916 2 138.636 87.2125 16.0316
917 2 142.695 87.0057 15.9334
918 2 146.827 86.9184 0.281897
919 2 150.84 87.0883 16.0891
920 2 154.731 87.0383 15.9334
921 2 0.558098 91.3 0.31339
922 2 4.31541 91.3364 0.373705
923 2 8.18717 90.9044 16.0723
924 2 12.1528 90.8252 15.9196
925 2 15.8907 90.8916 0.0867077
926 2 19.8936 90.7064 0.344153
927 2 23.9717 90.8289 15.9282
928 2 27.8349 90.8084 16.0104
929 2 31.7657 90.7092 16.1222
930 2 35.6055 90.6012 0.0610291
931 2 39.7874 90.5408 15.9056
932 2 43.4586 90.4618 15.9933
933 2 47.2418 90.3576 0.193872
934 2 51.1752 90.4144 0.110355
935 2 55.0438 90.5925 0.0865481
936 2 58.9836 90.4338 0.173913
937 2 63.1256 90.3685 0.199725
938 2 67.1249 90.4536 15.9156
939 2 70.9257 90.4919 15.8057
940 2 74.7785 90.596 0.037429
941 2 78.781 90.5905 0.232165
942 2 82.7386 90.3914 0.119894
943 2 86.6682 90.3056 0.213927
944 2 90.7084 90.6395 0.332202
945 2 94.7856 90.5394 15.7416
946 2 98.6594 90.577 16.0667
947 2 102.656 90.7348 0.279009
948 2 106.818 90.8798 16.0309
949 2 110.855 90.8719 15.8466
950 2 114.778 90.6823 0.129864
951 2 118.641 91.0601 0.324662
952 2 122.759 90.9351 16.1047
953 2 126.851 90.8863 0.0606537
954 2 130.779 90.9937 0.176749
955 2 134.82 91.1233 15.8909
956 2 138.711 90.9999 15.9087
957 2 142.869 91.0607 16.0108
958 2 146.792 90.9271 15.9171
959 2 150.689 91.0329 16.0211
960 2 154.734 91.0676 16.0573
961 2 0.409396 95.231 0.200036
962 2 4.42401 95.1962 16.092
963 2 8.24957 95.0227 16.211
964 2 12.3344 94.8265 15.8762
965 2 16.087 94.7719 15.9372
966 2 20.0593 94.7333 16.1188
967 2 23.9858 94.7076 16.0187
968 2 27.8814 94.7257 15.9468
969 2 31.7634 94.5895 15.9687
970 2 35.6299 94.7202 15.9131
971 2 39.6181 94.6253 16.083
972 2 43.4289 94.6614 15.9492
973 2 47.2878 94.5236 0.254831
974 2 51.1394 94.5616 15.95
975 2 55.0969 94.6103 0.0815256
976 2 58.8279 94.4387 15.9633
977 2 62.9546 94.4376 0.386668
978 2 66.7512 94.5422 0.183045
979 2 70.9057 94.5257 0.258218
980 2 74.694 94.4548 0.0666273
981 2 78.7435 94.398 16.1663
982 2 82.5996 94.2519 0.168016
983 2 86.749 94.3828 0.0573031