ITEM: TIMESTEP
24600
ITEM: NUMBER OF ATOMS
32000
ITEM: BOX BOUNDS xy xz yz pp pp pp
0.0000000000000000e+00 1.5831999999999999e+02 0.0000000000000000e+00
0.0000000000000000e+00 1.5831999999999999e+02 0.0000000000000000e+00
1.6525466520910204e-01 1.5932457334790694e+01 0.0000000000000000e+00
ITEM: ATOMS id type x y z
1 2 157.954 157.757 16.049
2 2 3.77606 157.529 15.8984
3 2 7.59728 157.631 0.185783
4 2 11.8508 157.6 0.174824
5 2 15.9299 157.857 0.175769
6 2 19.7652 157.85 15.8391
7 2 23.7329 157.758 15.7425
8 2 27.7681 157.946 15.9686
9 2 31.6053 158.063 0.23441
10 2 35.7141 158.171 16.0179
11 2 39.7956 -0.131562 15.9235
12 2 43.8081 -0.0650577 0.145365
13 2 47.7574 0.100961 15.8126
14 2 51.7715 -0.181791 0.240624
15 2 55.6522 158.433 0.200413
16 2 59.8605 158.473 16.0674
17 2 63.7481 0.159507 16.1433
18 2 67.8725 0.295851 15.9736
19 2 71.6702 0.141882 15.7785
20 2 75.7227 158.647 15.7873
21 2 79.6005 -0.0249003 16.0257
22 2 83.6745 158.482 15.8359
23 2 87.3443 158.325 16.1592
24 2 91.125 158.271 0.0690587
25 2 95.0095 158.276 15.7689
26 2 99.1082 158.204 15.6799
27 2 103.062 158.268 15.951
28 2 106.908 158.014 15.8509
29 2 111.018 157.89 -0.0453346
30 2 114.796 158.003 0.129302
31 2 118.668 157.794 16.0863
32 2 122.373 157.9 0.0552024
33 2 126.544 157.701 0.149051
34 2 130.528 157.775 0.242917
35 2 134.282 157.627 16.0899
36 2 138.154 157.622 15.9387
37 2 142.08 157.616 15.8625
38 2 146.078 157.518 15.8854
39 2 150.123 157.484 0.14881
40 2 154.074 157.697 0.272311
41 2 158.042 3.27298 16.4055
42 2 3.69193 3.00929 15.9638
43 2 7.71648 3.26337 0.103892
44 2 11.5445 3.41389 15.6969
45 2 15.884 3.49652 15.9991
46 2 19.701 3.52069 16.0011
47 2 23.6598 3.417 0.289325
48 2 27.7515 3.51057 0.167251
49 2 31.7333 3.86348 0.260931
50 2 35.6103 3.66438 0.143477
51 2 39.7886 3.7197 0.165507
52 2 43.6465 3.99528 15.899
53 2 47.511 4.20326 16.0553
54 2 51.7529 3.90304 15.9154
55 2 55.7934 3.93079 0.122359
56 2 59.6631 4.05312 16.0573
57 2 63.8339 4.14917 15.919
58 2 67.7063 4.22976 16.02
59 2 71.7615 4.15137 15.8734
60 2 75.6887 4.17953 15.8957
61 2 79.7046 4.3405 15.8612
62 2 83.5666 4.05525 15.9008
63 2 87.3653 4.05843 16.0517
64 2 91.3372 4.09844 0.260553
65 2 95.3669 3.87192 15.8082
66 2 99.143 3.7699 0.0225523
67 2 103.189 3.88822 15.8586
68 2 107.119 3.88206 15.8643
69 2 110.848 3.78673 0.241416
70 2 114.849 3.67008 0.209239
71 2 118.762 3.42005 0.218064
72 2 122.642 3.63254 0.249025
73 2 126.386 3.51228 0.255577
74 2 130.224 3.55507 0.169597
75 2 134.229 3.38937 16.0132
76 2 138.295 3.46842 -0.0727073
77 2 142.209 3.30076 0.157776
78 2 146.166 3.29979 0.237861
79 2 150.182 3.25104 16.0467
80 2 153.872 3.04549 16.041
81 2 157.939 7.28967 16.127
82 2 3.64681 7.24784 15.9988
83 2 7.57361 7.00751 16.046
84 2 11.6978 7.21356 0.0945775
85 2 15.701 7.27848 15.9987
86 2 19.6117 7.36574 15.9501
87 2 23.7183 7.43555 0.0866758
88 2 27.7797 7.4104 15.7384
89 2 31.6603 7.68724 15.9147
90 2 35.6023 7.62846 15.9597
91 2 39.7059 7.47377 0.176219
92 2 43.5641 7.73076 -0.0211444
93 2 47.6148 7.85944 15.8821
94 2 51.6555 7.76112 0.228308
95 2 55.8239 7.87744 15.9376
96 2 59.7349 7.89237 0.0698863
97 2 63.6644 7.93054 15.8832
98 2 67.4487 8.13399 15.7873
99 2 71.741 7.98592 15.9879
100 2 75.8052 8.17433 15.833
101 2 79.8797 8.31138 0.374248
102 2 83.4548 8.32266 15.9425
103 2 87.25 8.29408 15.9702
104 2 91.5245 8.17906 16.0106
105 2 95.2718 7.84343 15.9283
106 2 99.3695 8.08786 0.337649
107 2 103.148 7.88601 0.218045
108 2 107.118 7.9328 15.7934
109 2 111.084 7.77752 0.152913
110 2 114.969 7.60213 15.8792
111 2 118.85 7.60881 15.9854
112 2 122.603 7.67766 15.9817
113 2 126.578 7.54161 15.9044
114 2 130.375 7.31276 0.256414
115 2 134.564 7.21837 0.258924
116 2 138.421 7.2558 16.1036
117 2 142.264 7.29245 15.9822
118 2 146.155 7.26678 0.234952
119 2 150.118 7.2829 0.145189
120 2 154.218 7.18343 16.0746
121 2 158.159 11.0325 16.1249
122 2 3.77245 11.0457 15.9891
123 2 7.69514 11.0343 15.9088
124 2 11.5864 11.1086 0.340607
125 2 15.4273 11.3482 16.1314
126 2 19.594 11.2997 16.0122
127 2 23.5595 11.3648 15.9808
128 2 27.5964 11.2171 15.9162
129 2 31.5936 11.5149 15.9504
130 2 35.7249 11.5842 15.8133
131 2 39.6673 11.5851 15.9553
132 2 43.5834 11.6777 0.0872628
133 2 47.6621 11.8996 -0.0892973
134 2 51.5972 11.7061 15.8047
135 2 55.7016 11.7024 0.202422
136 2 59.7253 11.8869 15.9924
137 2 63.5819 11.9788 0.160391
138 2 67.781 11.9274 15.7476
139 2 71.6022 11.9127 15.8276
140 2 75.6153 12.0965 15.8941
141 2 79.6988 11.9834 15.7452
142 2 83.6778 12.0673 15.9422
143 2 87.492 12.2608 0.225687
144 2 91.4042 12.1357 0.239134
145 2 95.2076 12.1254 16.1084
146 2 99.2008 11.7117 15.9683
147 2 103.045 11.864 0.271914
148 2 107.066 11.8179 16.0895
149 2 111.02 11.6203 0.0612926
150 2 114.882 11.6523 15.9666
151 2 118.96 11.5491 0.14965
152 2 122.895 11.5551 0.385286
153 2 126.787 11.5143 16.0549
154 2 130.71 11.4693 15.9538
155 2 134.405 11.232 0.165636
156 2 138.587 11.4176 0.0740601
157 2 142.267 11.2757 0.319492
158 2 146.299 11.2478 0.168723
159 2 150.173 11.2177 0.112893
160 2 153.955 11.1359 0.22651
161 2 157.949 14.9798 15.9349
162 2 3.64339 15.075 16.05
163 2 7.59914 15.1066 15.9768
164 2 11.6916 15.4084 15.9427
165 2 15.5552 15.2564 15.9857
166 2 19.3824 15.2586 0.299125
167 2 23.6537 15.0726 0.282255
168 2 27.4394 15.3149 15.8527
169 2 31.5169 15.438 0.248026
170 2 35.3831 15.4384 15.8812
171 2 39.5281 15.5884 0.136623
172 2 43.7401 15.6532 0.087687
173 2 47.6641 15.5324 0.0174515
174 2 51.7384 15.6712 0.0363312
175 2 55.583 15.6778 15.8087
176 2 59.5401 15.7757 0.341769
177 2 63.57 15.6432 15.8722
178 2 67.7648 15.6907 15.944
179 2 71.7309 15.9696 0.354673
180 2 75.7328 15.929 0.170603
181 2 79.5221 15.9122 16.024
182 2 83.8766 16.2287 0.277778
183 2 87.6842 16.1837 15.9393
184 2 91.4539 15.8969 0.162613
185 2 95.3271 15.8794 15.8442
186 2 99.3013 15.8684 16.0929
187 2 103.375 15.9161 15.9241
188 2 107.13 16.0333 15.9218
189 2 111.098 15.6787 16.0193
190 2 114.939 15.8131 15.846
191 2 118.816 15.6496 0.175996
192 2 122.738 15.4901 15.8901
193 2 126.724 15.5186 16.1523
194 2 130.533 15.3237 0.175506
195 2 134.403 15.321 0.233709
196 2 138.436 15.2844 0.230201
197 2 142.306 15.6114 16.1091
198 2 146.285 15.2376 0.209362
199 2 150.159 15.0784 0.206278
200 2 154.156 15.1383 15.997
201 2 158.06 18.9059 16.0264
202 2 3.66975 19.0653 0.25658
203 2 7.70485 19.0768 0.250722
204 2 11.4784 19.0378 16.0792
205 2 15.6308 19.1516 16.05
206 2 19.5794 19.2018 16.0786
207 2 23.5629 18.9892 15.9364
208 2 27.5538 19.1127 15.7988
209 2 31.4758 19.1889 15.9111
210 2 35.5302 19.2905 16.087
211 2 39.6392 19.3529 0.0977242
212 2 43.5829 19.4796 16.0695
213 2 47.5466 19.4987 15.8462
214 2 51.4459 19.7333 0.255572
215 2 55.598 19.6119 15.6491
216 2 59.4505 19.7989 16.0509
217 2 63.7522 19.7042 15.8391
218 2 67.5681 19.6086 15.9027
219 2 71.4265 19.8847 0.355969
220 2 75.5875 19.9364 0.327395
221 2 79.7873 19.8871 0.0596847
222 2 83.72 20.0013 16.0491
223 2 87.6105 19.979 0.192022
224 2 91.5459 19.93 0.258181
225 2 95.3961 20.0107 16.1782
226 2 99.2444 19.9731 16.0229
227 2 103.271 19.8531 15.8151
228 2 107.311 19.7863 15.9149
229 2 110.985 19.8292 0.04863
230 2 114.981 19.7333 16.0499
231 2 118.941 19.5509 15.9814
232 2 122.841 19.5401 16.0023
233 2 126.921 19.5683 15.861
234 2 130.646 19.6203 16.0022
235 2 134.579 19.2458 0.112953
236 2 138.439 19.4304 15.9165
237 2 142.383 19.5007 15.9366
238 2 146.333 19.3625 0.0198984
239 2 150.193 19.1943 16.0817
240 2 153.971 19.1142 0.259172
241 2 158.002 22.9604 15.7756
242 2 3.79845 23.0675 16.0599
243 2 7.88158 23.0772 0.265356
244 2 11.5933 23.0362 0.336523
245 2 15.4428 23.1106 15.8477
246 2 19.577 23.2633 16.0846
247 2 23.5171 22.8974 15.9009
248 2 27.4515 23.0587 16.0716
249 2 31.5084 23.0657 0.251309
250 2 35.3407 23.4422 16.0526
251 2 39.5476 23.1946 0.180724
252 2 43.4651 23.2761 16.0458
253 2 47.5253 23.6179 0.266622
254 2 51.495 23.3557 0.112079
255 2 55.5388 23.5776 0.183511
256 2 59.6189 23.7202 15.9129
257 2 63.516 23.7571 0.0887154
258 2 67.5759 23.5946 15.8983
259 2 71.5515 23.7265 16.0845
260 2 75.6593 23.8762 0.133379
261 2 79.6504 23.7521 15.9225
262 2 83.6838 23.9339 0.0704461
263 2 87.5786 24.0084 16.0039
264 2 91.5259 23.7942 15.7821
265 2 95.5671 23.9511 15.7164
266 2 99.4477 24.0661 0.270553
267 2 103.229 23.8174 15.9819
268 2 107.195 23.7366 15.9987
269 2 111.134 23.6834 0.0661935
270 2 115.094 23.6282 15.9584
271 2 118.934 23.7968 15.9385
272 2 122.9 23.4296 0.0521982
273 2 126.772 23.4536 16.0441
274 2 130.832 23.6026 16.1375
275 2 134.493 23.3417 15.867
276 2 138.669 23.3738 15.9184
277 2 142.44 23.3494 16.1122
278 2 146.214 23.2621 0.320225
279 2 150.349 23.1989 0.357277
280 2 154.086 23.1009 0.109786
281 2 158.306 26.8717 0.239859
282 2 3.858 27.0906 0.341239
283 2 7.49784 26.8769 0.190838
284 2 11.8226 27.1629 15.9752
285 2 15.5274 26.9623 15.9666
286 2 19.5547 27.058 0.263957
287 2 23.4113 27.0077 15.9892
288 2 27.1507 27.0435 16.1165
289 2 31.5373 26.9479 0.252466
290 2 35.5177 27.0715 0.344691
291 2 39.4541 27.0587 -0.0786987
292 2 43.4304 27.3527 0.0714089
293 2 47.4975 27.2826 -0.0225001
294 2 51.513 27.3415 15.8346
295 2 55.5226 27.3653 -0.0722507
296 2 59.5541 27.5833 15.8747
297 2 63.4716 27.481 15.9001
298 2 67.45 27.633 15.9498
299 2 71.6797 27.5874 15.9783
300 2 75.6318 27.6897 -0.00193928
301 2 79.5332 27.9311 0.173841
302 2 83.4866 27.9068 15.8284
303 2 87.6426 27.7856 0.192167
304 2 91.4247 27.7624 0.124977
305 2 95.4989 27.8549 0.0206555
306 2 99.6137 27.917 0.396561
307 2 103.39 28.057 16.0718
308 2 107.207 27.8132 0.29024
309 2 111.317 27.7727 15.8589
310 2 115.082 27.6566 16.0077
311 2 118.974 27.5471 -0.0239874
312 2 122.777 27.5046 0.209497
313 2 126.853 27.4486 15.9694
314 2 130.707 27.3966 15.8823
315 2 134.522 27.3163 15.8597
316 2 138.611 27.1651 15.8484
317 2 142.55 27.1886 0.288635
318 2 146.437 27.2998 0.309497
319 2 150.202 27.1019 0.222274
320 2 154.16 27.3199 0.308372
321 2 158.237 31.2303 16.0309
322 2 3.70963 31.2497 15.8415
323 2 7.68982 31.1346 15.8212
324 2 11.5226 31.0211 0.324164
325 2 15.5054 30.8833 0.254115
326 2 19.3553 30.9403 15.8848
327 2 23.2354 31.1482 16.0398
328 2 27.38 30.9387 0.146476
329 2 31.3402 30.9216 16.1197
330 2 35.2959 31.0075 16.0392
331 2 39.2507 31.1924 15.9065
332 2 43.4046 31.3486 -0.105201
333 2 47.4053 31.4056 15.9344
334 2 51.2616 31.189 0.0950055
335 2 55.1801 31.2222 15.6564
336 2 59.342 31.4864 -0.0729619
337 2 63.3982 31.5338 15.9811
338 2 67.4448 31.6048 0.402151
339 2 71.4396 31.6563 0.140048
340 2 75.6577 31.6782 0.225574
341 2 79.4919 31.5735 15.852
342 2 83.5956 31.6563 0.239509
343 2 87.579 31.6626 15.9001
344 2 91.6174 31.895 15.9233
345 2 95.5775 31.8478 15.7783
346 2 99.4781 31.9206 0.177049
347 2 103.751 31.9952 15.956
348 2 107.503 31.7382 15.9816
349 2 111.345 31.6741 15.952
350 2 115.136 31.7911 15.9288
351 2 118.952 31.6396 15.8983
352 2 122.939 31.5001 16.088
353 2 126.854 31.3306 15.8551
354 2 130.918 31.4227 16.0812
355 2 134.789 31.4661 15.7381
356 2 138.613 31.2201 15.9982
357 2 142.403 31.2746 0.314394
358 2 146.295 31.2475 15.9355
359 2 150.343 31.1043 0.186034
360 2 154.076 31.1363 0.277245
361 2 -0.117081 35.1921 0.101732
362 2 3.98224 34.9598 15.9016
363 2 7.79973 35.0939 15.9622
364 2 11.67 34.9677 16.1721
365 2 15.3854 35.0295 0.231697
366 2 19.6622 34.8791 0.0970503
367 2 23.4811 34.8638 -0.0280996
368 2 27.2011 34.9696 0.308915
369 2 31.2427 34.7985 0.229867
370 2 35.1385 34.9867 0.259566
371 2 39.4077 34.9236 0.0927976
372 2 43.3809 35.0412 15.7704
373 2 47.462 35.0707 15.9234
374 2 51.4173 35.2553 15.7772
375 2 55.3961 35.1434 0.135657
376 2 59.3797 35.3463 0.25091
377 2 63.3967 35.4022 15.9513
378 2 67.4757 35.468 0.21276
379 2 71.4223 35.5038 0.317883
380 2 75.4161 35.5912 15.938
381 2 79.497 35.5548 0.308414
382 2 83.5908 35.5918 15.8905
383 2 87.4523 35.7146 0.266301
384 2 91.5307 35.6035 0.117853
385 2 95.4662 36.057 15.836
386 2 99.5507 35.6655 0.309475
387 2 103.446 36.0566 15.9092
388 2 107.458 35.8009 15.855
389 2 111.306 35.7849 15.9686
390 2 115.364 35.6348 15.9615
391 2 118.954 35.678 16.044
392 2 123.017 35.5607 15.9747
393 2 127.022 35.5611 15.7841
394 2 130.985 35.442 16.1097
395 2 134.921 35.3258 15.8933
396 2 138.638 35.5298 0.153696
397 2 142.538 35.5149 0.2646
398 2 146.54 35.1483 0.0477154
399 2 150.332 35.2371 15.935
400 2 154.334 35.0992 -0.00470882
401 2 158.157 39.0971 0.107825
402 2 3.86443 39.1753 0.0699507
403 2 7.81204 38.9856 0.304616
404 2 11.6252 39.0935 15.934
405 2 15.6001 38.8494 0.241779
406 2 19.5384 38.9534 15.9342
407 2 23.3819 38.9638 15.7586
408 2 27.2782 38.9973 16.0327
409 2 31.2145 38.7389 0.0517029
410 2 35.2244 38.8432 0.030151
411 2 39.3316 38.7762 15.7918
412 2 43.3809 39.0415 0.0199291
413 2 47.4521 39.0638 0.13157
414 2 51.3157 39.1506 15.9097
415 2 55.3498 39.1792 0.211518
416 2 59.5106 39.2759 0.129383
417 2 63.5095 39.2101 0.179778
418 2 67.4722 39.2898 0.222861
419 2 71.4437 39.3982 0.271027
420 2 75.3835 39.56 -0.101211
421 2 79.4451 39.5325 0.081991
422 2 83.2899 39.6431 15.7896
423 2 87.3949 39.4819 15.8814
424 2 91.4584 39.5681 15.8437
425 2 95.4774 39.7788 15.7312
426 2 99.3686 39.7969 0.166079
427 2 103.516 39.5856 16.0389
428 2 107.409 39.6721 16.135
429 2 111.262 39.7729 15.9124
430 2 115.307 39.6487 15.8552
431 2 119.055 39.7603 16.0336
432 2 123.07 39.6985 15.969
433 2 126.91 39.4079 0.187523
434 2 131.002 39.5184 15.9687
435 2 134.901 39.4162 15.8733
436 2 138.804 39.4954 15.8429
437 2 142.687 39.4807 15.8633
438 2 146.433 39.3747 0.0318641
439 2 150.429 39.2459 16.0116
440 2 154.38 39.1567 15.9206
441 2 158.233 43.3612 0.194287
442 2 3.79849 43.1206 16.1584
443 2 7.70708 43.2432 15.9674
444 2 11.7418 42.8925 0.171983
445 2 15.7993 42.8302 -0.0412366
446 2 19.6064 42.9301 0.0557156
447 2 23.4195 42.9836 15.9448
448 2 27.476 42.9288 16.04
449 2 31.3319 42.7486 0.0475022
450 2 35.3256 42.764 0.0146602
451 2 39.1964 42.8876 0.218082
452 2 43.2011 42.8672 0.143091
453 2 47.4488 43.0598 15.8911
454 2 51.2085 42.9853 15.881
455 2 55.3157 43.0469 0.0474199
456 2 59.2615 43.166 15.74
457 2 63.308 43.1834 0.19026
458 2 67.2353 43.3619 0.334832
459 2 71.3273 43.3259 0.329839
460 2 75.4531 43.5258 0.168776
461 2 79.1694 43.5286 0.304035
462 2 83.2727 43.5369 15.6443
463 2 87.3741 43.3999 15.8459
464 2 91.4168 43.5177 0.083103
465 2 95.3328 43.5407 0.0423392
466 2 99.3187 43.63 15.8895
467 2 103.3 43.5002 15.9486
468 2 107.376 43.8057 15.8161
469 2 111.285 43.7934 16.0326
470 2 115.247 43.8556 16.0891
471 2 119.373 43.6865 15.9554
472 2 123.398 43.6475 16.0659
473 2 126.997 43.5405 -0.0503398
474 2 130.895 43.4596 0.249666
475 2 134.671 43.4061 15.8294
476 2 138.695 43.3465 15.9182
477 2 142.738 43.4296 15.8597
478 2 146.359 43.3041 0.0889435
479 2 150.513 43.1805 0.287445
480 2 154.408 43.254 0.199904
481 2 -0.134184 47.1022 0.104533
482 2 3.93132 47.1736 0.138576
483 2 7.87927 46.992 0.21364
484 2 11.6743 46.9369 0.247241
485 2 15.8251 47.0803 -0.0207712
486 2 19.5445 46.7486 0.27032
487 2 23.6029 46.927 0.269282
488 2 27.5145 46.7489 15.8633
489 2 31.3511 46.66 0.205765
490 2 35.1214 46.935 0.213041
491 2 39.2248 46.6939 15.8873
492 2 43.2593 46.8412 15.7932
493 2 47.2602 46.7192 0.209507
494 2 51.3404 47.1562 15.8249
495 2 55.1771 46.901 15.8183
496 2 59.1909 47.069 16.0111
497 2 63.2538 47.2954 0.233685
498 2 67.4301 47.0713 0.0900219
499 2 71.4266 47.2288 15.9738
500 2 75.2297 47.4224 0.0543288
501 2 79.1622 47.2183 15.932
502 2 83.2232 47.4685 15.7621
503 2 87.291 47.3485 0.257171
504 2 91.3457 47.3847 0.0271721
505 2 95.3114 47.65 0.13131
506 2 99.3522 47.439 0.294991
507 2 103.315 47.5438 0.209204
508 2 107.185 47.3783 16.1834
509 2 111.067 47.759 16.1487
510 2 115.075 47.584 0.403408
511 2 119.273 47.7139 16.0637
512 2 123.394 47.6215 15.843
513 2 127.198 47.727 15.9249
514 2 130.986 47.4882 16.0768
515 2 134.797 47.3613 15.7786
516 2 138.837 47.3161 15.9033
517 2 142.87 47.2855 15.8431
518 2 146.747 47.3334 0.150231
519 2 150.566 47.2239 0.172124
520 2 154.507 47.2805 15.7599
521 2 158.394 51.1808 -0.0627638
522 2 4.14187 51.0472 16.1544
523 2 7.97947 51.0067 15.9545
524 2 11.5659 50.9019 15.7971
525 2 15.5603 51.1149 0.353696
526 2 19.7966 51.1007 15.8685
527 2 23.6006 50.6936 15.991
528 2 27.4483 50.9553 16.073
529 2 31.2693 50.761 0.0328124
530 2 35.1513 50.6736 0.140304
531 2 39.2115 50.6563 15.7381
532 2 43.1891 50.5357 15.7169
533 2 47.2299 50.7507 0.0160392
534 2 51.1823 50.9223 -0.0820837
535 2 55.4676 51.011 0.0532793
536 2 59.3589 51.0046 16.094
537 2 63.2674 51.0069 16.0951
538 2 67.2646 51.0508 0.159654
539 2 71.2608 51.1213 0.064368
540 2 75.0198 51.2971 0.0658203
541 2 79.1728 51.3656 0.0805808
542 2 83.2708 51.3314 0.1028
543 2 87.3019 51.2992 0.181757
544 2 91.3155 51.4884 0.36697
545 2 95.2476 51.6319 0.128387
546 2 99.2422 51.3872 0.176267
547 2 103.261 51.5438 15.8899
548 2 107.34 51.3602 0.229448
549 2 111.327 51.6897 0.246728
550 2 115.168 51.5059 16.0313
551 2 119.063 51.4445 15.9591
552 2 123.06 51.4566 15.9313
553 2 127.207 51.5168 16.1349
554 2 131.072 51.4351 0.149267
555 2 135.109 51.3109 0.150423
556 2 138.822 51.2707 0.307252
557 2 142.854 51.2794 0.21736
558 2 146.71 51.2433 15.9598
559 2 150.634 51.2071 0.268724
560 2 154.427 51.442 0.137631
561 2 158.335 55.1655 0.25872
562 2 4.04026 55.0107 0.11178
563 2 7.87742 55.114 0.254362
564 2 11.8345 55.0145 0.23267
565 2 15.8065 55.033 0.0905927
566 2 19.4722 54.9446 16.1286
567 2 23.6583 54.7388 15.9289
568 2 27.3547 54.6667 15.9378
569 2 31.4658 54.7388 0.120104
570 2 35.3262 54.506 0.11657
571 2 39.1534 54.7302 15.7658
572 2 43.0055 54.9275 15.9209
573 2 46.9219 54.8441 0.206404
574 2 51.1386 54.7426 16.0437
575 2 55.248 55.0148 15.9577
576 2 59.18 54.9933 16.1989
577 2 63.1465 55.1436 15.9715
578 2 67.2088 54.7379 0.26666
579 2 71.3074 55.1425 0.130237
580 2 75.22 55.2884 15.9574
581 2 79.2065 55.249 -0.133643
582 2 83.1487 55.3476 0.0298383
583 2 87.4159 55.2301 0.3442
584 2 91.393 55.5097 15.8727
585 2 95.36 55.2902 0.193824
586 2 99.2098 55.4356 16.1432
587 2 103.337 55.4722 15.9482
588 2 107.224 55.5761 -0.0822783
589 2 111.205 55.4148 15.9383
590 2 115.222 55.6262 15.905
591 2 119.277 55.4885 15.9266
592 2 123.118 55.6673 0.353585
593 2 126.96 55.5055 15.918
594 2 130.89 55.4114 16.0508
595 2 134.816 55.5119 0.279263
596 2 138.812 55.5178 15.8852
597 2 142.951 55.4488 0.268933
598 2 146.623 55.2124 0.195807
599 2 150.611 55.199 0.0722586
600 2 154.43 55.2608 15.7792
601 2 158.531 59.0571 0.190666
602 2 4.08268 59.0891 16.1034
603 2 8.06499 58.864 15.8085
604 2 11.9033 59.0509 0.0446758
605 2 15.7724 58.9497 15.8752
606 2 19.7254 59.0871 0.212603
607 2 23.5573 58.8592 0.0928038
608 2 27.5215 58.8065 0.359186
609 2 31.1744 58.7442 15.798
610 2 35.2213 58.5839 15.7918
611 2 39.4295 58.8176 15.7818
612 2 43.3358 58.6188 16.0096
613 2 47.2538 58.8482 15.8985
614 2 51.1265 58.6207 15.7769
615 2 55.2614 58.7999 16.0762
616 2 59.1175 59.0246 0.286759
617 2 63.1482 58.9686 15.8443
618 2 67.0139 58.8052 0.225015
619 2 70.959 59.0005 15.9912
620 2 75.3 59.1515 0.217858
621 2 79.3236 59.0799 0.0458176
622 2 83.201 59.2275 0.221115
623 2 87.282 59.205 15.9042
624 2 91.1674 59.3425 15.9735
625 2 95.0951 59.2421 0.151946
626 2 99.095 59.2294 0.286817
627 2 103.147 59.3751 15.7415
628 2 107.189 59.4962 0.192389
629 2 111.099 59.4224 15.9245
630 2 115.126 59.4289 15.8302
631 2 119.252 59.4477 15.7744
632 2 123.213 59.6866 0.340487
633 2 127.139 59.4514 15.9599
634 2 130.955 59.5095 0.216925
635 2 135.119 59.4822 16.1178
636 2 138.821 59.4625 0.387394
637 2 142.693 59.1894 0.00630873
638 2 146.831 59.2641 0.0661482
639 2 150.566 59.1948 15.9859
640 2 154.649 59.1444 0.0897527
641 2 0.317705 63.1808 -0.0218097
642 2 4.17355 63.0835 0.261147
643 2 8.07085 62.9104 15.8978
644 2 11.7467 62.9866 15.9946
645 2 15.6819 63.0193 15.9283
646 2 19.5159 63.0005 0.0346246
647 2 23.4333 62.9505 0.192455
648 2 27.4804 62.6704 -0.00715061
649 2 31.4039 62.6755 0.0885928
650 2 35.3171 62.734 0.0959984
651 2 39.1514 62.6152 15.8839
652 2 43.4278 62.5611 0.193889
653 2 47.2906 62.6838 16.1179
654 2 51.2089 62.53 16.2128
655 2 55.1759 62.5683 0.215555
656 2 59.2289 62.8294 16.0232
657 2 63.069 62.8312 0.206012
658 2 67.2635 62.93 15.8429
659 2 71.0485 62.917 0.27048
660 2 75.0939 62.8522 0.329989
661 2 79.1842 63.1874 0.284742
662 2 83.2072 63.0724 0.0322548
663 2 87.2584 63.2811 15.9166
664 2 91.1393 63.2603 15.8668
665 2 94.9366 63.0502 0.0902519
666 2 98.9969 63.2081 0.199487
667 2 103.103 63.3298 15.9461
668 2 107.107 63.3989 15.7949
669 2 111.291 63.2987 15.8457
670 2 115.088 63.4672 0.0494955
671 2 119.181 63.447 15.8707
672 2 123.164 63.3854 0.186852
673 2 127.327 63.3156 16.0492
674 2 131.252 63.5791 0.286264
675 2 135.002 63.5363 15.9717
676 2 138.758 63.5291 15.985
677 2 142.879 63.2118 15.9074
678 2 146.728 63.1094 0.187221
679 2 150.704 63.2409 15.9454
680 2 154.62 63.2379 0.0151487
681 2 0.228025 67.3103 0.187872
682 2 4.1881 67.1753 0.216869
683 2 7.81447 67.1573 15.91
684 2 11.706 66.8909 15.7842
685 2 15.8672 66.9706 0.10584
686 2 19.7146 66.9171 0.0649047
687 2 23.7457 66.7441 0.0842488
688 2 27.489 66.6752 -0.0389003
689 2 31.3151 66.6715 0.094714
690 2 35.218 66.6343 0.106515
691 2 39.2701 66.6245 15.8693
692 2 43.3771 66.504 0.151662
693 2 47.2133 66.6746 15.8371
694 2 51.2381 66.5372 16.0812
695 2 55.0382 66.6205 15.9862
696 2 58.9245 66.8442 15.9416
697 2 63.1049 66.6745 15.9681
698 2 66.9813 66.8575 15.9949
699 2 71.0111 66.9532 0.19552
700 2 75.0695 66.8814 16.0259
701 2 79.1075 67.1362 15.8942
702 2 82.9007 67.0834 0.180234
703 2 87.0844 66.9591 15.9186
704 2 91.1228 67.0556 15.9229
705 2 95.1326 67.0517 0.11064
706 2 99.0441 67.2493 0.211749
707 2 103.149 67.4264 0.138037
708 2 107.014 67.2906 15.874
709 2 111.009 67.3814 15.8465
710 2 115.115 67.29 15.9392
711 2 119.03 67.312 0.249071
712 2 122.984 67.259 0.0357575
713 2 127.185 67.5934 0.436276
714 2 131.132 67.3828 15.8479
715 2 134.991 67.5278 0.267695
716 2 138.972 67.3232 0.0904469
717 2 143.079 67.5231 16.0905
718 2 146.8 67.228 15.8917
719 2 150.834 67.2822 15.8932
720 2 154.466 67.127 0.0673239
721 2 0.150763 71.2091 0.458273
722 2 4.2166 71.0181 15.9356
723 2 7.98903 71.0229 0.216123
724 2 11.7188 71.058 15.8438
725 2 15.903 71.0725 0.0139584
726 2 19.7355 70.8645 0.198636
727 2 23.859 70.8747 0.114909
728 2 27.6799 70.6913 15.7621
729 2 31.5484 70.774 0.229329
730 2 35.509 70.6383 0.0854208
731 2 39.2981 70.5615 15.935
732 2 43.2876 70.7035 0.112387
733 2 47.1646 70.5871 15.8077
734 2 51.1119 70.5275 16.0259
735 2 55.0298 70.5788 0.172205
736 2 58.8961 70.5962 -0.0196704
737 2 63.0545 70.5643 0.220175
738 2 67.0486 70.7665 16.1032
739 2 70.9995 70.8789 15.8943
740 2 74.8114 70.8192 15.9046
741 2 79.1478 70.8805 0.295594
742 2 83.0412 70.9574 -0.0551488
743 2 87.1636 70.7799 15.8419
744 2 90.9463 70.9692 15.8619
745 2 94.8383 71.0194 15.8204
746 2 99.1507 71.21 16.0393
747 2 103.207 71.1305 16.0208
748 2 107.008 71.1959 15.9674
749 2 110.836 71.3259 15.9331
750 2 115.038 71.0809 0.0272423
751 2 119.049 71.28 16.0143
752 2 122.803 71.1443 0.195254
753 2 127.098 71.4409 16.0861
754 2 131.011 71.2517 15.8209
755 2 134.947 71.2484 15.9666
756 2 138.851 71.4513 15.8391
757 2 143.012 71.3035 0.0598556
758 2 146.709 71.2599 0.197575
759 2 150.735 71.2795 0.257138
760 2 154.647 71.1098 15.9758
761 2 0.202084 75.0647 0.105183
762 2 4.06509 75.1243 15.9022
763 2 8.01876 74.9304 15.9599
764 2 12.2577 74.8571 15.8994
765 2 16.0392 74.7561 15.8057
766 2 19.8965 74.8111 15.6865
767 2 23.7068 74.9436 15.9494
768 2 27.7867 74.7253 15.8816
769 2 31.5695 74.83 0.10785
770 2 35.5312 74.5488 15.9022
771 2 39.3728 74.6692 15.8011
772 2 43.2634 74.7023 0.390215
773 2 47.2157 74.6338 15.9478
774 2 51.2102 74.4048 -0.0220344
775 2 55.1064 74.6094 15.7073
776 2 58.9528 74.6836 15.8655
777 2 62.7792 74.5785 15.8241
778 2 66.7499 74.5905 -0.124789
779 2 70.9348 74.6541 0.0945198
780 2 75.1663 74.7831 0.0880573
781 2 78.9674 74.5759 0.119991
782 2 82.883 74.9356 0.10754
783 2 87.0019 74.8648 0.0838657
784 2 90.9238 74.9669 15.8733
785 2 94.8593 74.8969 16.0891
786 2 98.8649 75.0436 0.133596
787 2 102.807 74.9558 15.9336
788 2 107.091 75.204 15.9537
789 2 111.045 75.0748 15.8059
790 2 115.053 75.0616 15.9396
791 2 118.864 74.9199 0.206991
792 2 122.816 75.0101 16.0647
793 2 126.933 75.2181 15.9611
794 2 131.062 75.2463 0.179633
795 2 134.944 75.4551 15.9629
796 2 139.061 75.471 15.848
797 2 142.995 75.1642 15.9933
798 2 146.964 75.1805 15.9279
799 2 150.655 75.2429 0.10465
800 2 154.758 75.322 0.128097
801 2 0.419599 79.0839 0.220787
802 2 4.19898 79.1879 15.9392
803 2 8.15953 79.0003 0.1828
804 2 11.8904 78.9305 0.110513
805 2 15.8487 78.8169 15.6878
806 2 19.8388 78.8212 15.8525
807 2 23.782 78.6849 0.240321
808 2 27.8273 78.821 0.0536846
809 2 31.6163 78.6517 0.329924
810 2 35.5165 78.7099 -0.020898
811 2 39.5386 78.8054 15.9397
812 2 43.4543 78.675 16.0191
813 2 47.3467 78.6587 15.8737
814 2 51.3389 78.615 0.0810098
815 2 55.1214 78.585 0.147701
816 2 59.0423 78.5956 15.7502
817 2 62.9416 78.4783 15.6223
818 2 66.9467 78.4137 0.0681505
819 2 70.9338 78.6154 15.8357
820 2 74.6045 78.5749 0.0198337
821 2 78.9342 78.5954 15.9727
822 2 82.9871 78.8652 15.7568
823 2 86.8306 78.8142 0.229793
824 2 90.9617 78.8445 0.291553
825 2 94.9075 78.9251 0.184716
826 2 98.8739 78.8173 15.8833
827 2 102.809 78.994 15.881
828 2 106.994 78.9664 0.251785
829 2 111.043 79.0909 0.460308
830 2 114.877 78.8862 0.190324
831 2 118.975 79.039 0.0999667
832 2 122.704 79.0245 15.9735
833 2 126.753 79.2669 0.348804
834 2 130.822 79.3506 15.9029
835 2 134.794 79.3749 0.293783
836 2 138.873 79.1858 16.1005
837 2 142.847 79.1901 15.9305
838 2 146.815 79.2851 15.9941
839 2 150.784 79.1783 16.1954
840 2 154.696 79.321 0.337748
841 2 0.489699 83.3703 16.0357
842 2 4.10878 83.2681 15.9761
843 2 8.09773 82.9674 0.0679654
844 2 11.9834 83.0657 15.895
845 2 15.9405 82.8711 15.882
846 2 19.8692 82.9859 0.116221
847 2 23.8037 82.9814 15.9225
848 2 27.6548 82.8002 0.00716225
849 2 31.732 82.7285 15.9912
850 2 35.4736 82.7455 0.398959
851 2 39.3143 82.7685 0.228871
852 2 43.3146 82.6838 15.8628
853 2 47.3305 82.6292 0.210036
854 2 51.2823 82.5648 0.146922
855 2 55.235 82.5618 0.0449948
856 2 58.9347 82.5022 15.7329
857 2 62.9792 82.5301 15.9053
858 2 66.8758 82.4585 15.8076
859 2 70.8804 82.4376 15.95
860 2 74.8594 82.4984 16.0424
861 2 78.6904 82.5579 16.1451
862 2 82.9497 82.7129 0.108829
863 2 86.7747 82.7482 0.181433
864 2 90.6949 82.8852 15.7666
865 2 94.7311 82.8118 0.150095
866 2 98.9412 82.8163 15.9051
867 2 102.817 82.9354 0.128909
868 2 106.97 82.8984 16.049
869 2 110.778 83.0625 16.1412
870 2 114.736 82.9646 15.8293
871 2 118.641 82.9421 15.883
872 2 122.683 82.9293 15.979
873 2 126.875 83.0204 15.8308
874 2 130.895 83.2443 15.8724
875 2 134.916 83.1324 0.103355
876 2 139.024 83.0944 15.7189
877 2 142.868 83.2885 0.356902
878 2 146.85 83.1073 15.8814
879 2 150.906 83.2206 0.249145
880 2 154.867 83.2706 0.346158
881 2 0.568486 87.094 15.8336
882 2 4.3762 87.0919 0.0802438
883 2 8.21501 86.9816 16.1147
884 2 12.3556 86.9678 15.9365
885 2 15.8886 86.9688 15.8532
886 2 19.862 86.9072 15.9044
887 2 23.9234 86.8546 15.924
888 2 27.7577 86.8789 0.394187
889 2 31.6628 86.6359 15.9071
890 2 35.7367 86.8434 0.130665
891 2 39.5511 86.6269 15.7985
892 2 43.2483 86.6619 15.9641
893 2 47.2637 86.6735 16.0173
894 2 51.0704 86.4042 15.9544
895 2 55.0881 86.5415 15.7811
896 2 59.1682 86.385 0.0852534
897 2 63.0607 86.6035 0.307502
898 2 66.6768 86.4609 15.8963
899 2 71.0976 86.54 0.179746
900 2 74.8624 86.6191 15.9029
901 2 78.7599 86.4447 0.322201
902 2 82.7859 86.4853 0.199249
903 2 86.7173 86.692 16.0836
904 2 90.6656 86.8507 16.0633
905 2 94.8616 86.637 15.7091
906 2 98.779 86.824 16.0245
907 2 102.805 86.8036 0.263089
908 2 106.708 86.7865 0.135337
909 2 110.886 86.8696 15.8511
910 2 114.61 86.8326 0.260336
911 2 118.921 86.9289 0.0383923
912 2 122.824 86.8461 0.13292
913 2 126.868 86.996 15.8969
914 2 130.765 87.0093 16.1276
915 2 134.69 86.9525 15.8072
916 2 138.998 87.1283 15.9757
917 2 142.62 87.1663 15.8444
918 2 146.677 87.2745 0.314895
919 2 150.773 87.134 15.8826
920 2 154.923 87.2593 16.0707
921 2 0.417767 91.1854 0.261976
922 2 4.17464 91.0516 0.289808
923 2 8.19686 91.1612 16.1505
924 2 12.0581 91.0764 16.1
925 2 16.0928 90.9705 0.148949
926 2 20.0317 91.0315 0.152362
927 2 23.9884 90.7157 15.8873
928 2 27.8681 90.6636 16.018
929 2 31.8614 90.8962 15.9979
930 2 35.6898 90.6758 0.316748
931 2 39.3467 90.6868 15.8211
932 2 43.4039 90.5694 15.8484
933 2 47.3329 90.6343 0.0165852
934 2 51.2158 90.5208 0.197355
935 2 55.2362 90.3885 0.0819572
936 2 59.0381 90.5084 0.0826814
937 2 62.9901 90.5189 0.189653
938 2 66.8606 90.4089 15.9477
939 2 71.0023 90.5256 15.8945
940 2 74.7066 90.2881 0.0619076
941 2 78.7141 90.3021 0.0316273
942 2 82.8302 90.4602 0.213381
943 2 86.689 90.4383 0.242682
944 2 90.7286 90.4484 0.110093
945 2 94.707 90.5581 15.957
946 2 98.9014 90.6857 15.8822
947 2 102.733 90.7317 0.177226
948 2 106.678 90.7582 16.0611
949 2 110.677 90.6864 15.9116
950 2 114.747 90.7289 0.173268
951 2 118.865 90.5864 0.130676
952 2 122.724 90.704 15.8103
953 2 126.758 90.9589 0.13753
954 2 130.86 90.9245 0.0896558
955 2 134.823 90.8985 15.8327
956 2 138.716 91.1184 15.9572
957 2 142.559 90.9433 15.9272
958 2 146.783 91.0884 15.9489
959 2 150.929 91.0092 15.948
960 2 154.924 91.1417 15.8329
961 2 0.310124 95.2861 0.253445
962 2 4.24307 95.0306 16.0367
963 2 8.28201 95.1168 16.0627
964 2 12.0502 94.9858 16.1391
965 2 16.02 95.1082 16.0593
966 2 19.9307 94.8447 15.7409
967 2 23.8851 94.8036 15.8721
968 2 27.7378 94.7186 15.9753
969 2 31.7836 94.7667 16.099
970 2 35.9052 94.6557 15.9528
971 2 39.5997 94.6547 15.7626
972 2 43.3966 94.4903 15.9357
973 2 47.3264 94.7148 0.128798
974 2 51.2588 94.4874 15.956
975 2 55.0789 94.4939 0.0859382
976 2 59.3077 94.4537 15.9582
977 2 63.0619 94.4467 0.207095
978 2 66.9445 94.3431 0.291885
979 2 70.7979 94.398 0.212662
980 2 74.6708 94.3458 0.268945
981 2 78.535 94.2759 15.8368
982 2 82.6814 94.5118 0.146193
983 2 86.5539 94.1935 0.109735