LAMMPS (29 Oct 2020)
OMP_NUM_THREADS environment is not set. Defaulting to 1 thread. (src/comm.cpp:94)
  using 1 OpenMP thread(s) per MPI task
variable        NSTEPS          equal 75000
variable        THERMO_FREQ     equal 10
variable        DUMP_FREQ       equal 10
variable        TEMP            equal 300
variable        PRES            equal 1.0
variable        TAU_T           equal 1.0
variable        TAU_P           equal 5.0

units           metal
boundary        p p p
atom_style      atomic

neighbor	2.0 bin
neigh_modify	every 1

read_data       PTO_C.data
Reading data file ...
  triclinic box = (0.0000000 0.0000000 0.0000000) to (94.992000 94.992000 59.700000) with tilt (0.0000000 0.0000000 0.0000000)
  1 by 1 by 1 MPI processor grid
  reading atoms ...
  43200 atoms
  read_data CPU = 0.075 seconds

mass            1 87.620000
mass            2 207.200000
mass            3 47.867000
mass            4 15.999000
pair_style      deepmd /storage/liushiLab/huyihao/DPMD/L25/new-field-model/phase-diagram/15-15-15/300K_3.956_3.956_D/Sr-dope/PSTO_SS_example/1_DP_potential/compress01.pb

pair_coeff

thermo_style    custom step temp pe ke etotal press vol lx ly lz
thermo          ${THERMO_FREQ}
thermo          10

#min_style cg
#minimize 1.0e-4 1.0e-6 1000 10000

dump            1 all custom ${DUMP_FREQ} traj/*.lammpstrj id type x y z
dump            1 all custom 10 traj/*.lammpstrj id type x y z
dump_modify  1 sort id

velocity        all create ${TEMP} 539619
velocity        all create 300 539619
fix             1 all npt temp ${TEMP} ${TEMP} ${TAU_T} z ${PRES} ${PRES} ${TAU_P}
fix             1 all npt temp 300 ${TEMP} ${TAU_T} z ${PRES} ${PRES} ${TAU_P}
fix             1 all npt temp 300 300 ${TAU_T} z ${PRES} ${PRES} ${TAU_P}
fix             1 all npt temp 300 300 1 z ${PRES} ${PRES} ${TAU_P}
fix             1 all npt temp 300 300 1 z 1 ${PRES} ${TAU_P}
fix             1 all npt temp 300 300 1 z 1 1 ${TAU_P}
fix             1 all npt temp 300 300 1 z 1 1 5

timestep        0.002000
run             ${NSTEPS}
run             75000
Neighbor list info ...
  update every 1 steps, delay 10 steps, check yes
  max neighbors/atom: 2000, page size: 100000
  master list distance cutoff = 8
  ghost atom cutoff = 8
  binsize = 4, bins = 24 24 15
  1 neighbor lists, perpetual/occasional/extra = 1 0 0
  (1) pair deepmd, perpetual
      attributes: , newton on
      pair build: full/bin/atomonly
      stencil: full/bin/3d
      bin: standard
Per MPI rank memory allocation (min/avg/max) = 49.30 | 49.30 | 49.30 Mbytes
Step Temp PotEng KinEng TotEng Press Volume Lx Ly Lz 
       0          300   -343875.98    1675.1727   -342200.81   -20863.655    538701.76       94.992       94.992         59.7 
      10    146.43773   -343014.35    817.69498   -342196.65   -19383.954    538694.69       94.992       94.992    59.699216 
      20    158.19096   -343080.89     883.3239   -342197.56   -13511.183    538669.11       94.992       94.992    59.696382 
      30    165.71332   -343121.75    925.32812   -342196.43   -4476.4377    538647.34       94.992       94.992    59.693969 
      40    142.26805   -342989.12    794.41182   -342194.71   -10453.668    538652.54       94.992       94.992    59.694545 
      50    150.13438   -343032.28    838.33674   -342193.94   -12739.312    538651.76       94.992       94.992    59.694459 
      60    142.32214   -342987.31     794.7139    -342192.6   -7694.3288    538635.94       94.992       94.992    59.692706 
      70     134.1744   -342940.47    749.21764   -342191.25   -9992.4808    538625.81       94.992       94.992    59.691583 
      80    142.28986   -342984.73    794.53361    -342190.2   -10129.926    538621.24       94.992       94.992    59.691077 
      90    148.04345   -343015.79    826.66114   -342189.13   -8022.1712    538629.98       94.992       94.992    59.692045 
     100    155.98929   -343058.78    871.02998   -342187.75    -15340.03    538658.05       94.992       94.992    59.695156 
     110    165.69455   -343111.71    925.22331   -342186.49    -17782.17    538667.25       94.992       94.992    59.696175 
     120    165.52485   -343109.66     924.2757   -342185.38   -13921.685    538637.59       94.992       94.992    59.692889 
     130    161.53659   -343086.14    902.00564   -342184.14   -13261.061    538582.25       94.992       94.992    59.686756 
     140    169.19481   -343127.79    944.76842   -342183.02    -12066.26    538509.65       94.992       94.992     59.67871 
     150    165.77122   -343106.99    925.65141   -342181.34   -9433.2252    538428.46       94.992       94.992    59.669712 
     160    165.29061   -343102.68    922.96774   -342179.71   -12412.073       538349       94.992       94.992    59.660907 
     170    163.82108   -343093.16    914.76199    -342178.4   -12536.002    538259.25       94.992       94.992     59.65096 
     180    160.47403   -343073.15    896.07236   -342177.08   -7223.1517    538150.09       94.992       94.992    59.638863 
     190    162.04564   -343080.23    904.84812   -342175.38   -5294.3991    538034.87       94.992       94.992    59.626094 
     200    164.62784   -343092.61    919.26687   -342173.34   -4978.8946    537926.57       94.992       94.992    59.614092 
     210    162.52514   -343078.73    907.52558    -342171.2    -4969.986    537830.95       94.992       94.992    59.603495 
     220    161.74557   -343072.39    903.17256   -342169.22   -9483.3805    537747.75       94.992       94.992    59.594275 
     230    161.35461   -343068.54    900.98944   -342167.55   -13125.037    537663.63       94.992       94.992    59.584953 
     240    157.26933   -343044.05    878.17762   -342165.87   -11311.972    537569.37       94.992       94.992    59.574506 
     250    158.43957   -343048.84    884.71217   -342164.13   -10147.076    537471.67       94.992       94.992    59.563679 
     260    156.52037    -343036.1    873.99549   -342162.11   -10446.048    537377.62       94.992       94.992    59.553256 
     270    158.48126   -343045.02    884.94493   -342160.07   -9526.0313    537290.55       94.992       94.992    59.543607 
     280    160.10387   -343052.06    894.00546   -342158.05   -10398.025    537211.59       94.992       94.992    59.534856 
     290    159.71959   -343047.97    891.85967   -342156.11   -10786.899    537133.47       94.992       94.992    59.526199 
     300    162.37898   -343060.82    906.70944   -342154.12   -8124.3871    537054.44       94.992       94.992    59.517441 
     310    167.05248   -343084.68    932.80587   -342151.87   -5341.6594    536986.84       94.992       94.992    59.509949 
     320    167.87126    -343086.9    937.37786   -342149.52   -4500.1811    536941.21       94.992       94.992    59.504892 
     330     166.5288   -343077.13    929.88164   -342147.25   -4132.0701    536918.47       94.992       94.992    59.502372 
     340    167.65046    -343081.3    936.14489   -342145.15   -5323.0122    536915.98       94.992       94.992    59.502096 
     350    167.13774   -343076.29    933.28194   -342143.01   -6797.9075    536924.02       94.992       94.992    59.502987 
     360    166.88285   -343072.75    931.85866   -342140.89   -6367.3075    536932.95       94.992       94.992    59.503977 
     370    165.65333   -343063.75    924.99309   -342138.76   -6452.5694    536944.63       94.992       94.992    59.505271 
     380      165.221   -343059.23    922.57905   -342136.65   -7830.5447    536962.02       94.992       94.992    59.507198 
     390    163.00767   -343044.69    910.21998   -342134.47   -9097.7935    536979.36       94.992       94.992    59.509121 
     400    162.24185   -343038.24    905.94372    -342132.3   -10211.873    536989.01       94.992       94.992     59.51019 
     410    163.16871   -343041.29    911.11923   -342130.17   -11169.742    536984.23       94.992       94.992     59.50966 
     420     163.0697   -343038.69    910.56634   -342128.12   -9666.0347    536958.65       94.992       94.992    59.506825 
     430    163.76096   -343040.55    914.42631   -342126.12   -7788.4148    536913.41       94.992       94.992    59.501811 
     440    165.10152   -343045.98    921.91187   -342124.07    -7181.851    536854.99       94.992       94.992    59.495338 
     450    164.82739   -343042.35    920.38116   -342121.97   -6091.0184    536787.72       94.992       94.992    59.487882 
     460    164.42307   -343037.97    918.12349   -342119.84   -5687.4381    536714.08       94.992       94.992    59.479721 
     470    165.43657   -343041.47    923.78277   -342117.69   -5713.2754    536635.55       94.992       94.992    59.471018 
     480    165.84927   -343041.59    926.08724    -342115.5   -4562.9312    536553.75       94.992       94.992    59.461954 
     490    165.86553   -343039.38    926.17802    -342113.2   -3562.8543    536471.51       94.992       94.992    59.452839 
     500    168.70764   -343052.93    942.04812   -342110.88   -3992.9631    536391.89       94.992       94.992    59.444016 
     510    169.29456   -343053.75    945.32541   -342108.42   -4451.5335     536317.5       94.992       94.992    59.435772 
     520    169.70512   -343053.59    947.61797   -342105.97   -5168.9104    536250.13       94.992       94.992    59.428305 
     530    170.04384   -343053.04    949.50935   -342103.53   -6317.7194    536189.39       94.992       94.992    59.421574 
     540    169.77134   -343049.02    947.98771   -342101.03   -6425.1881    536134.97       94.992       94.992    59.415543 
     550    170.58187    -343051.1    952.51363   -342098.59   -6112.3515    536089.07       94.992       94.992    59.410457 
     560     170.3899   -343047.59    951.44172   -342096.15   -6128.1425    536052.59       94.992       94.992    59.406414 
     570    168.04535   -343032.02    938.34997   -342093.67   -5728.5756    536025.56       94.992       94.992    59.403418 
     580    167.83476   -343028.43    937.17401   -342091.25   -5084.5189    536010.34       94.992       94.992    59.401731 
     590     167.1913   -343022.42      933.581   -342088.84   -5082.4293    536009.46       94.992       94.992    59.401634 
     600    167.07034    -343019.4    932.90557    -342086.5   -4293.4243    536023.05       94.992       94.992     59.40314 
     610    166.86598   -343015.98    931.76443   -342084.21   -3691.8612    536053.52       94.992       94.992    59.406516 
     620    167.05448   -343014.81    932.81701   -342081.99   -3797.7654    536102.31       94.992       94.992    59.411923 
     630    167.92222   -343017.43    937.66242   -342079.77   -3757.7775    536166.23       94.992       94.992    59.419008 
     640    169.50904   -343024.07    946.52304   -342077.55   -4133.6161    536242.35       94.992       94.992    59.427443 
     650    170.54608   -343027.58    952.31382   -342075.27   -4961.0839    536327.71       94.992       94.992    59.436903 
     660    171.83661   -343032.39       959.52   -342072.87   -5392.7358    536417.96       94.992       94.992    59.446905 
     670    173.07294   -343036.86    966.42354   -342070.43   -6056.3031       536510       94.992       94.992    59.457105 
     680    172.67763   -343032.05    964.21615   -342067.84   -7094.7518    536600.95       94.992       94.992    59.467184 
     690    173.72645   -343035.26     970.0727   -342065.19   -7300.5521    536686.13       94.992       94.992    59.476624 
     700    172.67741    -343026.7    964.21497   -342062.49   -7449.2628    536761.77       94.992       94.992    59.485006 
     710    171.87738   -343019.51    959.74763   -342059.76   -7678.9428     536824.9       94.992       94.992    59.492003 
     720    171.34344   -343013.84    956.76617   -342057.08   -7126.3261     536873.8       94.992       94.992    59.497422 
     730    171.15286   -343010.14    955.70202   -342054.43    -6824.277    536909.07       94.992       94.992    59.501331 
     740    171.10451   -343007.23    955.43203    -342051.8   -7075.8427    536931.72       94.992       94.992    59.503841 
     750    171.12492   -343004.77    955.54597   -342049.22   -6623.4544    536942.75       94.992       94.992    59.505063 
     760    171.26217   -343002.95    956.31235   -342046.64   -6438.1341    536944.23       94.992       94.992    59.505227 
     770    171.63609   -343002.45    958.40028   -342044.05   -6642.7253    536936.45       94.992       94.992    59.504365 
     780    172.87204   -343006.82    965.30172   -342041.52    -6686.733    536920.07       94.992       94.992     59.50255 
     790    172.81375   -343003.89    964.97625   -342038.91   -6661.3881    536897.01       94.992       94.992    59.499994 
     800      174.567   -343011.13    974.76623   -342036.36   -6919.0488    536868.85       94.992       94.992    59.496873 
     810    174.35634    -343007.3    973.58993   -342033.71   -6855.1238    536837.73       94.992       94.992    59.493425 
     820    175.68337   -343012.05    980.99998   -342031.05   -6934.8111    536806.98       94.992       94.992    59.490017 
     830    174.75948   -343004.19    975.84103   -342028.35     -7132.81    536778.53       94.992       94.992    59.486864 
     840    174.57838    -343000.5    974.82979   -342025.67   -7262.0597    536753.21       94.992       94.992    59.484058 
     850    175.27574   -343001.71    978.72376   -342022.99   -6870.9262       536733       94.992       94.992    59.481818 
     860     174.9289   -342997.08    976.78706   -342020.29   -6758.7655    536720.39       94.992       94.992     59.48042 
     870    174.18612   -342990.24    972.63942    -342017.6    -6308.667    536717.15       94.992       94.992    59.480061 
     880    174.52382   -342989.46    974.52512   -342014.93    -5952.999    536726.05       94.992       94.992    59.481048 
     890    174.83504   -342988.58    976.26298   -342012.32   -6421.3778     536748.9       94.992       94.992     59.48358 
     900    175.39366   -342989.12    979.38221   -342009.74   -6688.7938    536784.21       94.992       94.992    59.487493 
     910    176.16262   -342990.82    983.67605   -342007.14   -6656.0778    536830.56       94.992       94.992     59.49263 
     920    176.73264   -342991.44    986.85898   -342004.59   -7119.5387    536887.54       94.992       94.992    59.498944 
     930    177.06592   -342990.73    988.71999   -342002.01   -7180.6246    536953.66       94.992       94.992    59.506273 
     940    177.97779   -342993.23    993.81177   -341999.42    -7289.737    537027.91       94.992       94.992      59.5145 
     950    177.24636   -342986.49    989.72752   -341996.77   -7980.3091    537108.59       94.992       94.992    59.523442 
     960     176.9286   -342982.02     987.9532   -341994.07   -8064.9935       537192       94.992       94.992    59.532686 
     970     176.5683   -342977.27    985.94129   -341991.33   -8138.3666    537275.63       94.992       94.992    59.541954 
     980    176.89225   -342976.32     987.7502   -341988.57   -8428.3265    537357.65       94.992       94.992    59.551043 
     990    176.45219   -342971.04    985.29295   -341985.75   -8244.4173    537436.24       94.992       94.992    59.559752 
    1000    177.57884   -342974.56    991.58408   -341982.97   -8081.1594    537511.16       94.992       94.992    59.568055 
    1010    177.51785   -342971.35    991.24354   -341980.11   -8607.1091    537581.78       94.992       94.992    59.575882 
    1020    177.39531   -342967.77    990.55926   -341977.21   -8637.6127    537645.85       94.992       94.992    59.582982 
    1030    178.07219   -342968.69    994.33893   -341974.35   -8536.7021    537702.51       94.992       94.992    59.589262 
    1040    178.83584   -342970.06    998.60308   -341971.46   -8743.4345    537751.39       94.992       94.992    59.594678 
    1050    179.29881   -342969.72    1001.1883   -341968.53   -8775.8477    537791.87       94.992       94.992    59.599164 
    1060    180.39097   -342972.98    1007.2868   -341965.69   -8743.9527    537824.64       94.992       94.992    59.602796 
    1070    179.47684   -342964.95    1002.1823   -341962.77   -9270.9308    537850.25       94.992       94.992    59.605634 
    1080    180.24139   -342966.35    1006.4515    -341959.9   -9707.3787    537868.04       94.992       94.992    59.607606 
    1090    180.13825    -342962.9    1005.8756   -341957.02   -9443.8705    537878.59       94.992       94.992    59.608774 
    1100    181.05767   -342965.17    1011.0096   -341954.16   -9365.2116    537884.35       94.992       94.992    59.609413 
    1110     180.9481    -342961.7    1010.3977    -341951.3   -9287.3216    537886.64       94.992       94.992    59.609667 
    1120    181.26642   -342960.61    1012.1752   -341948.44   -8918.1854    537886.81       94.992       94.992    59.609686 
    1130    180.10494    -342951.2    1005.6896   -341945.51   -8997.2052    537886.79       94.992       94.992    59.609684 
    1140    182.16594   -342959.88     1017.198   -341942.68   -9221.6885    537886.85       94.992       94.992     59.60969 
    1150    180.79085   -342949.24    1009.5196   -341939.72   -8881.6433    537887.34       94.992       94.992    59.609744 
    1160    181.93056   -342952.75    1015.8837   -341936.87   -8854.4906     537890.7       94.992       94.992    59.610117 
    1170     181.0222   -342944.76    1010.8115   -341933.95   -8993.7155    537898.25       94.992       94.992    59.610953 
    1180     181.9697    -342947.2    1016.1022   -341931.09   -9028.0279    537910.57       94.992       94.992    59.612319 
    1190    182.12975   -342945.21    1016.9959   -341928.21   -9138.1281    537928.32       94.992       94.992    59.614286 
    1200    182.60466   -342944.97    1019.6478   -341925.33   -9437.4865    537950.18       94.992       94.992    59.616708 
    1210    183.91778   -342949.43    1026.9802   -341922.45   -9335.4242    537974.34       94.992       94.992    59.619386 
    1220    183.08652    -342941.8    1022.3385   -341919.46   -9315.6635    538001.12       94.992       94.992    59.622354 
    1230    183.10547   -342938.96    1022.4443   -341916.52   -9388.0587    538030.18       94.992       94.992    59.625574 
    1240    184.03956   -342941.26    1027.6602    -341913.6    -9378.372    538061.15       94.992       94.992    59.629006 
    1250    183.93621   -342937.71     1027.083   -341910.62   -9639.1137    538093.93       94.992       94.992     59.63264 
    1260    185.07567   -342941.12    1033.4457   -341907.67   -9670.4911    538126.55       94.992       94.992    59.636254 
    1270    185.47521    -342940.4    1035.6767   -341904.72    -9331.982    538157.79       94.992       94.992    59.639716 
    1280    185.68471   -342938.55    1036.8465    -341901.7   -9177.0462    538187.38       94.992       94.992    59.642995 
    1290    186.11287   -342937.94    1039.2373    -341898.7   -8928.0336    538214.56       94.992       94.992    59.646008 
    1300     186.0509   -342934.59    1038.8913    -341895.7   -9001.9103    538239.23       94.992       94.992    59.648742 
    1310    186.60761   -342934.68    1041.9999   -341892.68   -9263.7443     538260.9       94.992       94.992    59.651143 
    1320    186.58866   -342931.56    1041.8941   -341889.66    -9525.178    538278.23       94.992       94.992    59.653064 
    1330    186.29401   -342926.89    1040.2488   -341886.64   -9358.6342    538290.18       94.992       94.992    59.654388 
    1340    185.87264   -342921.49    1037.8959   -341883.59   -9406.5607    538296.54       94.992       94.992    59.655092 
    1350    186.93121   -342924.41    1043.8069    -341880.6    -9515.964    538296.66       94.992       94.992    59.655106 
    1360    186.60453   -342919.54    1041.9827   -341877.56   -9533.1313    538290.52       94.992       94.992    59.654426 
    1370    186.50313   -342915.96    1041.4165   -341874.54    -9630.777    538278.75       94.992       94.992    59.653121 
    1380    187.61917    -342919.2    1047.6484   -341871.55   -9647.7924    538261.47       94.992       94.992    59.651206 
    1390    188.22907   -342919.59     1051.054   -341868.54   -9380.2579    538239.29       94.992       94.992    59.648749 
    1400     188.6067   -342918.67    1053.1626   -341865.51   -9285.2272    538213.84       94.992       94.992    59.645927 
    1410    188.50141   -342915.04    1052.5747   -341862.47   -9133.6672    538185.74       94.992       94.992    59.642814 
    1420    189.00581   -342914.82    1055.3912   -341859.42   -8812.2533    538155.55       94.992       94.992    59.639468 
    1430    189.27054    -342913.2    1056.8695   -341856.33   -8823.6359    538124.59       94.992       94.992    59.636037 
    1440    189.67919    -342912.4    1059.1513   -341853.25    -8878.014     538093.5       94.992       94.992    59.632591 
    1450     190.5371   -342914.13    1063.9418   -341850.19   -8650.7545    538062.72       94.992       94.992     59.62918 
    1460    190.21303   -342909.19    1062.1323   -341847.06   -8526.7619    538033.52       94.992       94.992    59.625944 
    1470      190.217   -342906.12    1062.1544   -341843.97   -8624.0888    538006.24       94.992       94.992    59.622921 
    1480    190.95402   -342907.15    1066.2699   -341840.88   -8469.4842    537980.78       94.992       94.992    59.620099 
    1490    191.70154    -342908.2     1070.444   -341837.76   -8565.1951    537957.23       94.992       94.992     59.61749 
    1500    191.12739   -342901.86     1067.238   -341834.62     -8800.96    537934.33       94.992       94.992    59.614951 
    1510    191.82671   -342902.68    1071.1429   -341831.54   -8432.9941    537911.34       94.992       94.992    59.612404 
    1520     191.5057   -342897.75    1069.3504    -341828.4    -8316.045    537889.49       94.992       94.992    59.609982 
    1530    191.21527   -342892.99    1067.7286   -341825.27   -8400.8548    537868.07       94.992       94.992    59.607609 
    1540    192.31359   -342896.03    1073.8616   -341822.17   -8139.9494       537846       94.992       94.992    59.605163 
    1550    192.51078   -342893.99    1074.9627   -341819.03   -8335.7495    537823.56       94.992       94.992    59.602676 
    1560    192.48804   -342890.74    1074.8357   -341815.91   -8390.3133    537798.62       94.992       94.992    59.599912 
    1570    194.03546   -342896.29    1083.4763   -341812.81   -7974.3909    537769.99       94.992       94.992    59.596739 
    1580     193.2441   -342888.69    1079.0575   -341809.63   -7794.9149    537739.47       94.992       94.992    59.593357 
    1590    192.85231    -342883.3    1076.8698   -341806.43   -7823.0836    537707.49       94.992       94.992    59.589814 
    1600    195.54464   -342895.25    1091.9035   -341803.35   -7688.0338    537673.35       94.992       94.992    59.586029 
    1610    194.67588   -342887.21    1087.0524   -341800.16   -7626.2025    537637.22       94.992       94.992    59.582025 
    1620    195.07404   -342886.32    1089.2757   -341797.04   -7567.1188    537598.61       94.992       94.992    59.577747 
    1630    195.39264   -342884.99    1091.0547   -341793.93   -7230.5213    537556.65       94.992       94.992    59.573097 
    1640    195.14779   -342880.43    1089.6875   -341790.75   -6846.5594    537512.48       94.992       94.992    59.568201 
    1650    194.73504   -342874.92    1087.3827   -341787.53   -7143.3733    537468.04       94.992       94.992    59.563277 
    1660    195.85233   -342877.98    1093.6216   -341784.36   -7081.2581    537423.14       94.992       94.992    59.558301 
    1670    195.24767   -342871.37    1090.2452   -341781.13   -7214.9915    537378.18       94.992       94.992    59.553318 
    1680    195.82237   -342871.38    1093.4543   -341777.93   -7294.5043    537333.54       94.992       94.992    59.548371 
    1690    196.46845   -342871.82     1097.062   -341774.75   -7195.1429    537289.16       94.992       94.992    59.543452 
    1700     196.4197   -342868.29    1096.7897    -341771.5   -6772.4948    537245.54       94.992       94.992    59.538619 
    1710    197.31093   -342870.05    1101.7663   -341768.28   -6844.3404    537204.49       94.992       94.992     59.53407 
    1720    197.47677   -342867.72    1102.6923   -341765.03   -6707.2832     537166.5       94.992       94.992    59.529859 
    1730    199.14597    -342873.8     1112.013   -341761.79   -6609.3074    537131.78       94.992       94.992    59.526011 
    1740    198.70931   -342868.08    1109.5747    -341758.5   -6709.5404     537100.8       94.992       94.992    59.522578 
    1750    198.58765   -342864.09    1108.8954   -341755.19   -6387.2242    537073.95       94.992       94.992    59.519603 
    1760    198.72671    -342861.6    1109.6718   -341751.92   -6311.8652    537052.31       94.992       94.992    59.517204 
    1770     198.6614   -342857.96    1109.3072   -341748.65   -6246.7835    537036.15       94.992       94.992    59.515414 
    1780    198.91224   -342856.11    1110.7078    -341745.4   -6269.3211    537025.43       94.992       94.992    59.514226 
    1790    198.97192    -342853.2    1111.0411   -341742.16   -6299.2946    537020.08       94.992       94.992    59.513633 
    1800    199.68912   -342853.95    1115.0459    -341738.9   -6432.9081    537018.49       94.992       94.992    59.513457 
    1810    200.40923   -342854.72    1119.0669   -341735.65   -6336.4424    537019.12       94.992       94.992    59.513526 
    1820    199.75446   -342847.76    1115.4107   -341732.35   -6510.8407    537022.22       94.992       94.992     59.51387 
    1830    199.58591   -342843.54    1114.4696   -341729.07   -6668.3124    537027.37       94.992       94.992     59.51444 
    1840    201.01619   -342848.27    1122.4561   -341725.82   -6758.8125    537033.41       94.992       94.992     59.51511 
    1850    201.28909   -342846.51      1123.98   -341722.53   -7015.6868    537039.41       94.992       94.992    59.515775 
    1860     200.9971   -342841.57    1122.3495   -341719.22   -6983.6053    537044.63       94.992       94.992    59.516354 
    1870    201.48256   -342840.99    1125.0603   -341715.93    -6802.943     537048.2       94.992       94.992    59.516749 
    1880    201.91049   -342840.11    1127.4498   -341712.66   -6592.8164    537050.33       94.992       94.992    59.516986 
    1890      202.199   -342838.38    1129.0608   -341709.31   -6776.5761    537051.59       94.992       94.992    59.517125 
    1900    202.64631   -342837.59    1131.5585   -341706.03   -6440.3565    537051.31       94.992       94.992    59.517094 
    1910    202.42026   -342833.01    1130.2963   -341702.72   -6309.2444    537050.01       94.992       94.992     59.51695 
    1920    204.01653   -342838.64    1139.2097   -341699.43   -6556.8042    537047.96       94.992       94.992    59.516723 
    1930    203.74292   -342833.78     1137.682    -341696.1   -6405.3989    537045.24       94.992       94.992    59.516422 
    1940    203.45575   -342828.84    1136.0784   -341692.77    -6283.387    537042.81       94.992       94.992    59.516152 
    1950    204.48695   -342831.28    1141.8365   -341689.44   -6601.7443    537041.47       94.992       94.992    59.516003 
    1960    204.27644   -342826.74     1140.661   -341686.08   -6764.2842    537041.05       94.992       94.992    59.515957 
    1970    203.56508   -342819.42    1136.6889   -341682.73   -6509.2794    537041.69       94.992       94.992    59.516028 
    1980    205.10249    -342824.7    1145.2736   -341679.43   -6797.7253    537044.06       94.992       94.992    59.516291 
    1990     204.8891   -342820.12    1144.0821   -341676.03   -6869.2975    537047.84       94.992       94.992     59.51671 
    2000    206.02199   -342823.14     1150.408   -341672.73   -6563.5553    537053.44       94.992       94.992    59.517329 
    2010    205.87121   -342818.96    1149.5661   -341669.39   -6689.1881     537062.2       94.992       94.992      59.5183 
    2020    204.95233   -342810.44    1144.4351   -341666.01   -6900.0004     537073.7       94.992       94.992    59.519576 
    2030    206.77437   -342817.32    1154.6092   -341662.71   -6617.3909    537087.73       94.992       94.992     59.52113 
    2040    206.54617   -342812.71     1153.335   -341659.37    -6733.045    537106.52       94.992       94.992    59.523212 
    2050    206.00745   -342806.34    1150.3269   -341656.01   -6829.1573    537129.83       94.992       94.992    59.525795 
    2060     206.4788   -342805.63    1152.9588   -341652.67   -6520.2045     537156.9       94.992       94.992    59.528796 
    2070    207.25851   -342806.68    1157.3126   -341649.37   -6557.2633    537188.85       94.992       94.992    59.532336 
    2080    206.95791    -342801.6    1155.6342   -341645.96    -7078.623    537224.77       94.992       94.992    59.536317 
    2090    208.40865   -342806.35     1163.735   -341642.61   -6902.7863     537262.6       94.992       94.992     59.54051 
    2100    207.90632   -342800.19      1160.93   -341639.26   -6987.6489    537303.59       94.992       94.992    59.545052 
    2110    207.96547   -342797.17    1161.2603   -341635.91   -7545.3136    537347.99       94.992       94.992    59.549973 
    2120    209.71599   -342803.62     1171.035   -341632.58   -7577.2231    537393.49       94.992       94.992    59.555015 
    2130     209.0524   -342796.51    1167.3296   -341629.18   -7520.9565    537439.68       94.992       94.992    59.560134 
    2140    209.40803   -342795.06    1169.3154   -341625.74    -7882.082    537486.06       94.992       94.992    59.565273 
    2150    210.72932   -342799.03    1176.6933   -341622.34    -7750.427    537530.95       94.992       94.992    59.570249 
    2160    209.91071   -342791.01    1172.1223   -341618.89   -7383.2487    537574.69       94.992       94.992    59.575095 
    2170    210.60989   -342791.54    1176.0264   -341615.51   -7848.9758     537618.5       94.992       94.992    59.579951 
    2180    209.89883   -342784.11    1172.0559   -341612.06   -7653.1868    537661.77       94.992       94.992    59.584747 
    2190    210.57482   -342784.52    1175.8307   -341608.68   -7483.3184    537704.49       94.992       94.992     59.58948 
    2200    211.11114   -342784.13    1178.8254    -341605.3   -7840.6282    537747.12       94.992       94.992    59.594205 
    2210    211.23324   -342781.38    1179.5072   -341601.87   -7737.5325       537789       94.992       94.992    59.598846 
    2220    212.29893   -342783.92    1185.4579   -341598.47   -7639.3755    537829.86       94.992       94.992    59.603375 
    2230    211.35445   -342775.18     1180.184   -341594.99   -8130.8267    537869.99       94.992       94.992    59.607821 
    2240    212.03723   -342775.54    1183.9966   -341591.54   -8258.1604    537908.41       94.992       94.992     59.61208 
    2250    211.90142   -342771.33    1183.2383   -341588.09   -8072.9512    537944.86       94.992       94.992    59.616119 
    2260    213.19481   -342775.14    1190.4604   -341584.68   -8402.8331    537979.65       94.992       94.992    59.619974 
    2270    213.22854   -342771.84    1190.6488   -341581.19    -8678.432    538012.35       94.992       94.992    59.623598 
    2280    214.15774   -342773.58    1195.8373   -341577.74   -8298.3195    538042.89       94.992       94.992    59.626982 
    2290    214.69881   -342773.15    1198.8586   -341574.29   -8871.3057    538071.92       94.992       94.992      59.6302 
    2300    213.59571   -342763.48     1192.699   -341570.78   -8778.1843    538098.43       94.992       94.992    59.633138 
    2310    215.31957   -342769.68    1202.3249   -341567.36   -8573.7592    538122.63       94.992       94.992     59.63582 
    2320    215.35258   -342766.37    1202.5092   -341563.86   -8635.4413    538145.49       94.992       94.992    59.638354 
    2330    215.12334    -342761.6    1201.2292   -341560.37   -8552.6981    538166.97       94.992       94.992    59.640733 
    2340    216.26317   -342764.51    1207.5939   -341556.91   -8170.9399    538187.99       94.992       94.992    59.643063 
    2350    215.81121   -342758.47    1205.0702    -341553.4   -8300.8453    538209.24       94.992       94.992    59.645418 
    2360    215.86267    -342755.3    1205.3575   -341549.94   -8504.7361     538229.7       94.992       94.992    59.647686 
    2370    216.91944   -342757.77    1211.2584   -341546.51   -8482.3633    538248.84       94.992       94.992    59.649806 
    2380    216.83967   -342753.83     1210.813   -341543.01   -8560.5174    538267.31       94.992       94.992    59.651854 
    2390    217.39889   -342753.48    1213.9356   -341539.55   -8515.3448    538285.03       94.992       94.992    59.653818 
    2400    216.66031   -342745.86    1209.8115   -341536.05   -8415.8083     538302.2       94.992       94.992    59.655721 
    2410     217.2915   -342745.91    1213.3359   -341532.57   -8643.9459    538319.14       94.992       94.992    59.657598 
    2420    218.57311   -342749.53    1220.4923   -341529.04   -9079.4389    538334.63       94.992       94.992    59.659314 
    2430    218.74264   -342746.99     1221.439   -341525.55   -8949.9415    538346.83       94.992       94.992    59.660666 
    2440    217.88033   -342738.68     1216.624   -341522.06   -9110.2645    538356.11       94.992       94.992    59.661695 
    2450    218.87264   -342740.73    1222.1649   -341518.56   -9126.2383     538362.7       94.992       94.992    59.662425 
    2460    219.61994   -342741.43    1226.3378    -341515.1    -8884.921    538366.58       94.992       94.992    59.662854 
    2470    219.19171   -342735.53    1223.9466   -341511.58   -8869.3077    538368.64       94.992       94.992    59.663083 
    2480    219.11577    -342731.6    1223.5225   -341508.08   -8883.2443    538369.04       94.992       94.992    59.663127 
    2490    219.97471   -342732.89    1228.3188   -341504.57    -8601.418    538367.25       94.992       94.992    59.662929 
    2500    220.16277    -342730.4    1229.3689   -341501.03   -8668.3554    538363.35       94.992       94.992    59.662497 
    2510    220.16403   -342726.93    1229.3759   -341497.55   -8552.0946    538357.14       94.992       94.992    59.661809 
    2520    221.31535   -342729.87    1235.8048   -341494.07   -8156.1577    538349.72       94.992       94.992    59.660986 
    2530    220.82605   -342723.57    1233.0726    -341490.5   -8463.3328    538342.26       94.992       94.992     59.66016 
    2540    222.59939   -342729.96    1242.9747   -341486.98   -8911.1234    538333.96       94.992       94.992     59.65924 
    2550    222.39382   -342725.25    1241.8269   -341483.43   -8551.5196    538323.42       94.992       94.992    59.658072 
    2560    223.10378   -342725.73    1245.7912   -341479.93   -8607.7097    538310.96       94.992       94.992     59.65669 
    2570     223.6633   -342725.34    1248.9155   -341476.43   -8878.0664    538296.56       94.992       94.992    59.655095 
    2580    224.00296   -342723.74    1250.8122   -341472.93   -8237.7478    538280.16       94.992       94.992    59.653278 
    2590      223.144   -342715.42    1246.0158    -341469.4   -8405.7037    538263.43       94.992       94.992    59.651424 
    2600    222.61656   -342708.93    1243.0706   -341465.86   -8773.6787    538245.51       94.992       94.992    59.649438 
    2610     224.0399    -342713.4    1251.0184   -341462.38   -8663.3254    538224.68       94.992       94.992    59.647129 
    2620    223.94397   -342709.34    1250.4827   -341458.86   -8354.7961    538201.12       94.992       94.992    59.644518 
    2630    222.35215    -342696.9    1241.5942   -341455.31   -8222.0486    538175.64       94.992       94.992    59.641694 
    2640    224.65807    -342706.3    1254.4702   -341451.83   -8145.5258    538148.96       94.992       94.992    59.638738 
    2650    225.41305   -342706.95     1258.686   -341448.27   -7920.5297    538122.15       94.992       94.992    59.635767 
    2660    224.20471   -342696.65    1251.9387   -341444.71   -8222.7215    538095.56       94.992       94.992     59.63282 
    2670    226.21911   -342704.43    1263.1869   -341441.24   -8160.6713    538067.82       94.992       94.992    59.629745 
    2680    225.57447   -342697.24    1259.5873   -341437.65    -7781.355    538038.35       94.992       94.992    59.626479 
    2690    227.43038   -342704.11    1269.9506   -341434.16   -7801.6109    538007.95       94.992       94.992    59.623111 
    2700    227.79009   -342702.57    1271.9591   -341430.62   -7812.7779    537976.67       94.992       94.992    59.619644 
    2710    226.81522   -342693.54    1266.5155   -341427.02   -7524.3086    537945.09       94.992       94.992    59.616145 
    2720    227.89026   -342696.01    1272.5185    -341423.5   -7933.4904    537914.61       94.992       94.992    59.612766 
    2730    227.17993   -342688.42    1268.5521   -341419.87   -8036.2321     537884.5       94.992       94.992     59.60943 
    2740    229.48583   -342697.81     1281.428   -341416.38   -7745.0722    537854.13       94.992       94.992    59.606064 
    2750     227.5949   -342683.64    1270.8692   -341412.77   -7185.2989     537824.9       94.992       94.992    59.602824 
    2760    229.40526   -342690.24    1280.9781   -341409.27   -7461.9951    537798.45       94.992       94.992    59.599894 
    2770     228.4236   -342681.16    1275.4966   -341405.66   -7145.7526    537773.51       94.992       94.992    59.597129 
    2780    228.80479    -342679.7    1277.6251   -341402.08   -7412.7449    537750.26       94.992       94.992    59.594553 
    2790    229.16287   -342678.13    1279.6246   -341398.51   -7788.7452    537728.96       94.992       94.992    59.592193 
    2800    229.09309   -342674.16     1279.235   -341394.92   -7287.2929    537708.44       94.992       94.992    59.589918 
    2810     230.0449   -342675.93    1284.5498   -341391.38   -7210.2411    537690.31       94.992       94.992    59.587909 
    2820    229.88626   -342671.48     1283.664   -341387.81   -7258.2338    537676.12       94.992       94.992    59.586337 
    2830    230.33711   -342670.42    1286.1815   -341384.24   -7372.2453    537664.97       94.992       94.992    59.585101 
    2840    230.78732   -342669.39    1288.6954    -341380.7   -7348.1172    537655.71       94.992       94.992    59.584074 
    2850    231.39871   -342669.21    1292.1093    -341377.1   -7596.8299    537647.81       94.992       94.992    59.583199 
    2860    231.60887   -342666.79    1293.2829   -341373.51    -7426.307    537640.28       94.992       94.992    59.582365 
    2870    232.50896   -342668.27    1298.3089   -341369.96     -7033.34    537633.92       94.992       94.992     59.58166 
    2880    231.79771   -342660.69    1294.3373   -341366.35   -7142.1582    537630.31       94.992       94.992     59.58126 
    2890    232.67605   -342662.04    1299.2419    -341362.8   -7089.9253    537629.01       94.992       94.992    59.581116 
    2900    233.71435   -342664.29    1305.0397   -341359.25   -7119.3759     537629.4       94.992       94.992    59.581159 
    2910    232.94629   -342656.39    1300.7509   -341355.64   -7357.1697    537631.35       94.992       94.992    59.581375 
    2920    233.31819   -342654.93    1302.8275    -341352.1   -7105.4748     537633.5       94.992       94.992    59.581614 
    2930    233.11549    -342650.2    1301.6957   -341348.51   -6815.6711    537636.15       94.992       94.992    59.581907 
    2940    235.28705    -342658.8    1313.8215   -341344.98   -7093.5662     537639.8       94.992       94.992    59.582311 
    2950    234.36808   -342650.05      1308.69   -341341.36   -7138.0989     537643.6       94.992       94.992    59.582733 
    2960    235.06177   -342650.37    1312.5635   -341337.81   -7157.7127    537647.08       94.992       94.992    59.583118 
    2970    235.86389   -342651.28    1317.0425   -341334.24   -7441.2022    537650.21       94.992       94.992    59.583465 
    2980    234.20719   -342638.41    1307.7916   -341330.62   -7308.9438    537652.65       94.992       94.992    59.583736 
    2990    234.13769   -342634.47    1307.4036   -341327.06   -7256.0405    537654.57       94.992       94.992    59.583949 
    3000    236.67986   -342645.12    1321.5988   -341323.52   -7583.4549    537656.28       94.992       94.992    59.584137 
    3010    236.23958   -342639.03    1319.1403   -341319.89   -7296.8982    537657.17       94.992       94.992    59.584236 
    3020    235.59804   -342631.87     1315.558   -341316.32   -7365.9175    537657.45       94.992       94.992    59.584268 
    3030    236.72324   -342634.59     1321.841   -341312.75   -7302.9286    537657.14       94.992       94.992    59.584233 
    3040    237.00815   -342632.58    1323.4319   -341309.14   -7394.8674    537656.92       94.992       94.992    59.584209 
    3050    238.09609    -342635.1    1329.5069    -341305.6   -7160.9391    537657.29       94.992       94.992     59.58425 
    3060    238.26283   -342632.43     1330.438   -341301.99   -7247.3952    537659.24       94.992       94.992    59.584466 
    3070     238.2041   -342628.51      1330.11    -341298.4   -6999.9876    537663.57       94.992       94.992    59.584945 
    3080    238.79381   -342628.24    1333.4029   -341294.83   -6899.1103    537670.77       94.992       94.992    59.585743 
    3090     238.5062   -342623.03    1331.7969   -341291.23   -6984.2791    537680.61       94.992       94.992    59.586834 
    3100     240.1607   -342628.75    1341.0355   -341287.71   -7162.8398    537693.04       94.992       94.992    59.588212 
    3110    238.48566   -342615.77    1331.6822   -341284.09   -6949.1922    537707.87       94.992       94.992    59.589855 
    3120    238.54832   -342612.53    1332.0321    -341280.5   -7273.5564     537724.9       94.992       94.992    59.591743 
    3130     239.3963   -342613.74    1336.7671   -341276.98   -7232.5612    537744.13       94.992       94.992    59.593873 
    3140     239.6295    -342611.5    1338.0693   -341273.44   -7384.3636    537766.79       94.992       94.992    59.596385 
    3150    239.68999   -342608.29    1338.4071   -341269.88   -7620.0161    537791.99       94.992       94.992    59.599178 
    3160    241.18866   -342613.12    1346.7756   -341266.35   -7714.7865    537818.33       94.992       94.992    59.602096 
    3170    241.16558   -342609.41    1346.6466   -341262.76   -7586.0688    537845.61       94.992       94.992    59.605119 
    3180    242.43384    -342612.9    1353.7285   -341259.17   -7637.1315    537873.05       94.992       94.992    59.608161 
    3190    242.59102   -342610.15    1354.6062   -341255.54   -7484.2845    537899.31       94.992       94.992     59.61107 
    3200    242.63083   -342606.79    1354.8285   -341251.96   -7530.1815    537924.71       94.992       94.992    59.613886 
    3210    242.62254   -342603.16    1354.7822   -341248.38   -7582.7387    537949.79       94.992       94.992    59.616665 
    3220    243.01394   -342601.78    1356.9677   -341244.81    -7745.566    537974.29       94.992       94.992     59.61938 
    3230    243.95237   -342603.45    1362.2078   -341241.24    -7605.578    537997.96       94.992       94.992    59.622003 
    3240    243.16968   -342595.47    1357.8373   -341237.63   -7518.3048    538021.37       94.992       94.992    59.624598 
    3250    243.84134   -342595.65    1361.5878   -341234.06   -7764.3214    538043.51       94.992       94.992    59.627051 
    3260    243.92189   -342592.51    1362.0376   -341230.47   -7804.3385    538063.07       94.992       94.992    59.629219 
    3270    244.04442    -342589.6    1362.7218   -341226.87   -7777.1103    538080.79       94.992       94.992    59.631183 
    3280    244.30879   -342587.48    1364.1981   -341223.28   -7965.6589    538096.66       94.992       94.992    59.632942 
    3290     244.5354   -342585.19    1365.4634   -341219.73   -7863.5464    538110.65       94.992       94.992    59.634492 
    3300    245.67633   -342588.02    1371.8343   -341216.19   -7952.0223     538123.8       94.992       94.992    59.635949 
    3310    246.26303   -342587.71    1375.1103    -341212.6   -8247.3845    538135.98       94.992       94.992      59.6373 
    3320    246.04504    -342582.9    1373.8931   -341209.01   -8098.3525    538145.46       94.992       94.992    59.638349 
    3330    246.02343   -342579.19    1373.7725   -341205.42   -7616.4032     538153.1       94.992       94.992    59.639197 
    3340    247.14754   -342581.92    1380.0494   -341201.87     -7967.54    538160.87       94.992       94.992    59.640058 
    3350    246.35307   -342573.92    1375.6131   -341198.31   -7822.9005    538168.19       94.992       94.992    59.640869 
    3360    247.15833   -342574.88    1380.1096   -341194.77   -7650.3319    538175.87       94.992       94.992     59.64172 
    3370    248.75994   -342580.25    1389.0529    -341191.2   -7850.6122     538184.7       94.992       94.992    59.642698 
    3380    247.23939   -342568.17    1380.5623    -341187.6   -7753.8088    538193.55       94.992       94.992    59.643679 
    3390    247.73167   -342567.36    1383.3111   -341184.05   -7376.3178     538202.2       94.992       94.992    59.644638 
    3400    249.25537   -342572.33    1391.8193   -341180.51   -7757.4058    538211.89       94.992       94.992    59.645711 
    3410     248.6579   -342565.42    1388.4831   -341176.93   -7878.3157    538222.36       94.992       94.992    59.646872 
    3420    250.22695   -342570.65    1397.2445   -341173.41   -7988.8606    538233.75       94.992       94.992    59.648135 
    3430    249.00325   -342560.21    1390.4115   -341169.79   -8229.1662    538245.95       94.992       94.992    59.649486 
    3440    249.65868   -342560.32    1394.0713   -341166.25   -8374.9318    538258.19       94.992       94.992    59.650843 
    3450    250.26442   -342560.16    1397.4538   -341162.71   -8136.4744    538269.54       94.992       94.992      59.6521 
    3460    249.94887   -342554.86    1395.6918   -341159.17   -7949.3999       538280       94.992       94.992     59.65326 
    3470     250.1564   -342552.48    1396.8505   -341155.63   -8207.3147     538289.2       94.992       94.992    59.654279 
    3480    252.06863   -342559.63    1407.5283   -341152.11   -7636.2192    538297.39       94.992       94.992    59.655187 
    3490    251.01759   -342550.16    1401.6594    -341148.5   -7606.8972    538306.74       94.992       94.992    59.656223 
    3500    252.01898   -342552.26     1407.251   -341145.01    -8272.109    538316.52       94.992       94.992    59.657307 
    3510    251.43987   -342545.44    1404.0174   -341141.42    -7947.899    538325.13       94.992       94.992    59.658261 
    3520    253.69317   -342554.56    1416.5996   -341137.96   -7863.4295    538333.67       94.992       94.992    59.659207 
    3530    252.16786   -342542.44    1408.0824   -341134.36   -7979.0957    538341.83       94.992       94.992    59.660112 
    3540    252.03073   -342538.12    1407.3167   -341130.81   -7549.0589    538349.11       94.992       94.992    59.660919 
    3550    255.31431      -342553    1425.6519   -341127.35   -7705.7666    538357.18       94.992       94.992    59.661813 
    3560      252.878   -342535.79    1412.0478   -341123.74   -8301.2326    538365.36       94.992       94.992    59.662719 
    3570     254.0688   -342538.97    1418.6971   -341120.27    -8260.813    538370.98       94.992       94.992    59.663342 
    3580    254.19828   -342536.13    1419.4201   -341116.71   -8089.0103    538374.37       94.992       94.992    59.663718 
    3590    253.45435   -342528.44     1415.266   -341113.17   -8140.5015    538376.87       94.992       94.992    59.663995 
    3600    254.87531    -342532.9    1423.2005    -341109.7   -8217.0104    538378.21       94.992       94.992    59.664143 
    3610    255.39959   -342532.35    1426.1281   -341106.22   -8095.0123     538379.1       94.992       94.992    59.664243 
    3620    252.73182   -342513.87    1411.2315   -341102.64   -8275.4771       538380       94.992       94.992    59.664342 
    3630    255.46389   -342525.69    1426.4871   -341099.21   -8172.1357    538379.56       94.992       94.992    59.664293 
    3640    255.06775   -342519.95    1424.2751   -341095.68   -7926.2151    538377.91       94.992       94.992     59.66411 
    3650    256.81206   -342526.22    1434.0152    -341092.2   -7988.9195     538376.2       94.992       94.992     59.66392 
    3660    256.74737   -342522.34    1433.6539   -341088.68   -8057.8083    538374.32       94.992       94.992    59.663712 
    3670    256.43814   -342517.07    1431.9272   -341085.14   -7802.4089    538372.61       94.992       94.992    59.663523 
    3680    258.52807   -342525.26    1443.5972   -341081.66   -8090.2999    538372.17       94.992       94.992    59.663475 
    3690    258.38995   -342520.96     1442.826   -341078.13   -8068.5162    538371.79       94.992       94.992    59.663432 
    3700    258.52413   -342518.21    1443.5752   -341074.64   -7949.1461    538370.63       94.992       94.992    59.663304 
    3710    258.61754   -342515.25    1444.0968   -341071.15   -8050.9401     538369.5       94.992       94.992    59.663179 
    3720    259.04758   -342514.17    1446.4981   -341067.67   -8272.0729    538368.39       94.992       94.992    59.663056 
    3730    258.35699   -342506.82    1442.6419   -341064.18   -8257.6809    538366.89       94.992       94.992     59.66289 
    3740    258.09049   -342501.84    1441.1538   -341060.69    -8046.829    538365.57       94.992       94.992    59.662742 
    3750    258.91442   -342503.01    1445.7546   -341057.26   -8175.3738    538365.31       94.992       94.992    59.662714 
    3760    258.35223   -342496.39    1442.6153   -341053.78   -8317.0042    538365.52       94.992       94.992    59.662738 
    3770    259.96862   -342502.01    1451.6411   -341050.37   -7947.7584    538365.77       94.992       94.992    59.662765 
    3780    259.90711   -342498.21    1451.2977   -341046.91   -8019.7402    538366.66       94.992       94.992    59.662863 
    3790    260.05803   -342495.57    1452.1404   -341043.43   -7976.1585    538367.41       94.992       94.992    59.662946 
    3800    260.82255   -342496.38    1456.4094   -341039.97   -7649.9713    538368.41       94.992       94.992    59.663058 
    3810    262.75454   -342503.73    1467.1975   -341036.54   -8062.7505    538370.67       94.992       94.992    59.663308 
    3820     260.1694   -342485.74    1452.7622   -341032.98   -8243.0357    538373.39       94.992       94.992     59.66361 
    3830    261.05245   -342487.28    1457.6931   -341029.58   -8028.6575    538376.22       94.992       94.992    59.663924 
    3840    263.51434   -342497.62    1471.4401   -341026.18   -8053.6188    538379.96       94.992       94.992    59.664337 
    3850    261.71419   -342484.04    1461.3882   -341022.65   -8156.0184    538384.11       94.992       94.992    59.664797 
    3860    263.06511   -342488.19    1468.9316   -341019.26   -7716.4562    538388.05       94.992       94.992    59.665234 
    3870    263.04563   -342484.65    1468.8229   -341015.83   -8023.3579    538392.98       94.992       94.992     59.66578 
    3880    261.99944   -342475.33     1462.981   -341012.35   -8181.3328     538398.4       94.992       94.992    59.666381 
    3890    264.27485   -342484.69    1475.6867   -341009.01   -7853.7487    538403.88       94.992       94.992    59.666989 
    3900    262.30823   -342470.26    1464.7053   -341005.55   -8271.4071     538410.2       94.992       94.992    59.667689 
    3910    262.80628   -342469.62    1467.4863   -341002.13   -8132.0729    538416.21       94.992       94.992    59.668355 
    3920    265.68384   -342482.31    1483.5544   -340998.76   -7986.6027    538421.81       94.992       94.992    59.668975 
    3930    264.85604   -342474.26     1478.932   -340995.33   -8218.0991    538427.58       94.992       94.992    59.669614 
    3940    265.27129   -342473.18    1481.2508   -340991.93   -8241.2908     538433.4       94.992       94.992     59.67026 
    3950    265.51838   -342471.16    1482.6305   -340988.53   -8410.7754    538439.25       94.992       94.992    59.670908 
    3960    263.73367   -342457.73    1472.6648   -340985.07   -8278.0517    538445.08       94.992       94.992    59.671554 
    3970    265.48362   -342464.14    1482.4364   -340981.71   -8253.7065    538450.95       94.992       94.992    59.672205 
    3980    266.25001   -342465.04    1486.7158   -340978.32   -8282.9035    538456.89       94.992       94.992    59.672863 
    3990     266.2447   -342461.61    1486.6862   -340974.92   -8168.8209    538463.44       94.992       94.992    59.673589 
    4000    267.85774    -342467.3    1495.6933    -340971.6   -8072.6382    538470.64       94.992       94.992    59.674387 
    4010    266.63471   -342457.07     1488.864    -340968.2   -8192.2153    538478.41       94.992       94.992    59.675248 
    4020    266.69004   -342453.97    1489.1729    -340964.8   -8136.5385    538486.28       94.992       94.992     59.67612 
    4030    267.13244    -342453.1    1491.6432   -340961.46   -7959.3557    538495.17       94.992       94.992    59.677106 
    4040    268.06709   -342455.02    1496.8622   -340958.16   -8365.4874    538506.13       94.992       94.992     59.67832 
    4050    268.25547    -342452.7    1497.9141   -340954.79   -8359.3544    538518.44       94.992       94.992    59.679685 
    4060    268.33808   -342449.82    1498.3754   -340951.45   -8463.9901    538532.11       94.992       94.992    59.681199 
    4070    268.20619   -342445.74    1497.6389    -340948.1   -8511.4285    538546.57       94.992       94.992    59.682801 
    4080    268.41013   -342443.51    1498.7778   -340944.74   -8467.6201    538560.87       94.992       94.992    59.684387 
    4090    269.57899   -342446.72    1505.3045   -340941.42   -8318.3558    538575.12       94.992       94.992    59.685966 
    4100    269.72784   -342444.24    1506.1357   -340938.11   -8300.9552    538589.93       94.992       94.992    59.687607 
    4110     268.9154   -342436.36    1501.5991   -340934.76   -8159.5983    538605.03       94.992       94.992    59.689281 
    4120    271.32014   -342446.48     1515.027   -340931.45   -8462.8866    538620.85       94.992       94.992    59.691033 
    4130    271.02055   -342441.46    1513.3541   -340928.11   -8848.3179    538635.86       94.992       94.992    59.692697 
    4140    269.69881   -342430.79    1505.9736   -340924.82   -8421.1377    538648.66       94.992       94.992    59.694115 
    4150    271.21457   -342436.01    1514.4375   -340921.57   -8623.5401    538660.33       94.992       94.992    59.695408 
    4160     271.5419   -342434.54    1516.2653   -340918.28   -8315.2047    538671.35       94.992       94.992    59.696629 
    4170    271.61295   -342431.66     1516.662      -340915    -8037.777    538682.46       94.992       94.992    59.697861 
    4180    272.08224   -342431.01    1519.2825   -340911.73   -8267.2141    538693.85       94.992       94.992    59.699123 
    4190    271.18446   -342422.67    1514.2693    -340908.4   -8483.0335    538703.94       94.992       94.992    59.700241 
    4200    272.36822   -342426.04    1520.8793   -340905.16   -8574.0705    538711.96       94.992       94.992     59.70113 
    4210    272.04811   -342420.97    1519.0919   -340901.88   -8528.6393    538718.52       94.992       94.992    59.701857 
    4220    271.43993   -342414.31    1515.6959   -340898.61   -8365.1946    538723.69       94.992       94.992     59.70243 
    4230     273.2937   -342421.43    1526.0471   -340895.38   -8691.2387     538728.2       94.992       94.992     59.70293 
    4240    272.99636   -342416.47    1524.3868   -340892.08   -8594.6854    538731.43       94.992       94.992    59.703288 
    4250     274.7117   -342422.87    1533.9651    -340888.9   -8735.7007     538732.7       94.992       94.992    59.703429 
    4260     274.2999    -342417.3    1531.6657   -340885.64   -8743.3109    538732.31       94.992       94.992    59.703385 
    4270    274.08744   -342412.91    1530.4793   -340882.43    -8276.609    538730.55       94.992       94.992    59.703191 
    4280    275.20574   -342415.95    1536.7238   -340879.22   -8196.4781    538728.18       94.992       94.992    59.702928 
    4290    276.14929   -342417.95    1541.9925   -340875.96   -8598.5943    538725.95       94.992       94.992    59.702681 
    4300    275.62565   -342411.82    1539.0685   -340872.75   -8267.3445    538723.12       94.992       94.992    59.702367 
    4310    273.91409   -342399.05    1529.5113   -340869.54   -8225.0774    538720.04       94.992       94.992    59.702025 
    4320    276.20018   -342408.74    1542.2767   -340866.46   -8366.9891    538717.51       94.992       94.992    59.701745 
    4330    275.34161   -342400.73    1537.4825   -340863.24   -8392.2337    538715.67       94.992       94.992    59.701541 
    4340    277.60218   -342410.23    1550.1053   -340860.12   -8178.6282    538714.41       94.992       94.992    59.701402 
    4350    277.59422   -342406.98    1550.0608   -340856.92   -8252.0631    538713.35       94.992       94.992    59.701284 
    4360    277.99681   -342406.07    1552.3089   -340853.76   -8387.6794    538711.54       94.992       94.992    59.701084 
    4370    275.50824   -342388.92    1538.4129   -340850.51   -8266.3165    538708.78       94.992       94.992    59.700778 
    4380    276.62949   -342392.07    1544.6739    -340847.4    -8291.441    538705.88       94.992       94.992    59.700456 
    4390     278.6944   -342400.49    1556.2042   -340844.28   -8424.3383    538703.15       94.992       94.992    59.700154 
    4400    278.02166   -342393.59    1552.4476   -340841.14   -8030.3039    538700.07       94.992       94.992    59.699813 
    4410    279.20646   -342397.17    1559.0634   -340838.11   -8010.8379    538696.85       94.992       94.992    59.699456 
    4420    278.66175   -342390.99    1556.0219   -340834.97   -7968.5592    538692.44       94.992       94.992    59.698967 
    4430    278.58319   -342387.44    1555.5832   -340831.86    -7872.437    538686.15       94.992       94.992     59.69827 
    4440    278.85045   -342385.87    1557.0755   -340828.79   -7735.6869    538679.17       94.992       94.992    59.697496 
    4450    279.49601   -342386.39    1560.6803   -340825.71   -8174.8476    538672.03       94.992       94.992    59.696705 
    4460    279.93017   -342385.75    1563.1046   -340822.64   -8028.2087    538663.42       94.992       94.992    59.695751 
    4470    280.57051   -342386.25    1566.6802   -340819.57   -8309.3454    538653.55       94.992       94.992    59.694657 
    4480     279.9604   -342379.75    1563.2734   -340816.48   -8369.6912    538641.61       94.992       94.992    59.693334 
    4490    280.10761   -342377.55    1564.0954   -340813.45   -8247.6227    538626.27       94.992       94.992    59.691634 
    4500    281.17108   -342380.47    1570.0338   -340810.44   -8066.3966    538608.44       94.992       94.992    59.689658 
    4510    280.93068    -342376.1    1568.6913   -340807.41   -8099.7164    538588.95       94.992       94.992    59.687498 
    4520    280.68934   -342371.76    1567.3437   -340804.41   -7757.9797    538567.45       94.992       94.992    59.685116 
    4530    281.69177   -342374.34    1572.9412    -340801.4   -7560.0512    538545.14       94.992       94.992    59.682644 
    4540    282.36108   -342375.07    1576.6786   -340798.39    -7611.924    538523.26       94.992       94.992    59.680218 
    4550    282.94508   -342375.33    1579.9396   -340795.39   -7256.3484    538501.55       94.992       94.992    59.677812 
    4560    283.13299   -342373.37    1580.9888   -340792.38     -7115.29    538480.71       94.992       94.992    59.675503 
    4570    283.82599   -342374.25    1584.8585   -340789.39   -7577.5727    538461.14       94.992       94.992    59.673334 
    4580    283.03005   -342366.79    1580.4141   -340786.38   -7570.5693    538442.02       94.992       94.992    59.671215 
    4590    283.80671    -342368.2    1584.7509   -340783.45   -7527.5718    538423.76       94.992       94.992    59.669191 
    4600     283.3848   -342362.85    1582.3949   -340780.46   -7802.2856    538406.71       94.992       94.992    59.667302 
    4610    284.01767   -342363.48    1585.9288   -340777.55    -7577.639    538389.92       94.992       94.992    59.665442 
    4620    283.91383   -342359.99     1585.349   -340774.64   -7842.7324    538373.45       94.992       94.992    59.663616 
    4630    283.78665   -342356.35    1584.6388   -340771.72   -7833.3031     538356.4       94.992       94.992    59.661727 
    4640    284.33373   -342356.51    1587.6937   -340768.82   -7447.3789    538338.81       94.992       94.992    59.659778 
    4650    285.17224    -342358.3    1592.3758   -340765.93   -7608.6122     538321.5       94.992       94.992    59.657859 
    4660    283.64058   -342346.78    1583.8232   -340762.96   -7466.4868    538303.89       94.992       94.992    59.655908 
    4670    285.26996   -342353.07    1592.9215   -340760.15   -7464.1143    538286.33       94.992       94.992    59.653961 
    4680    284.06101   -342343.42    1586.1708   -340757.25   -7580.0548    538269.15       94.992       94.992    59.652058 
    4690    286.10744   -342352.04    1597.5979   -340754.44   -7318.9462     538252.1       94.992       94.992    59.650167 
    4700    285.90791   -342348.04    1596.4837   -340751.56   -7115.8561    538236.15       94.992       94.992    59.648401 
    4710    286.98865   -342351.25    1602.5185   -340748.74    -6927.562    538222.27       94.992       94.992    59.646862 
    4720     286.6658   -342346.61    1600.7158    -340745.9   -6983.4572    538210.66       94.992       94.992    59.645575 
    4730    286.95547    -342345.4    1602.3332   -340743.06   -7082.5028     538200.8       94.992       94.992    59.644483 
    4740    286.90393   -342342.24    1602.0454    -340740.2   -6991.9581    538191.77       94.992       94.992    59.643482 
    4750    287.73369   -342344.09    1606.6787   -340737.41   -7090.0981    538183.36       94.992       94.992     59.64255 
    4760    288.27592   -342344.34    1609.7065   -340734.64   -7042.7306    538175.96       94.992       94.992     59.64173 
    4770    287.78503   -342338.83    1606.9654   -340731.86   -6929.3974    538169.95       94.992       94.992    59.641064 
    4780    287.30056   -342333.34    1604.2602   -340729.08   -6929.4057    538165.65       94.992       94.992    59.640587 
    4790    287.85451   -342333.67    1607.3534   -340726.32   -7030.1598    538163.37       94.992       94.992    59.640335 
    4800    288.56528   -342334.93    1611.3223   -340723.61   -7109.5356    538162.16       94.992       94.992    59.640201 
    4810      287.839   -342328.13    1607.2668   -340720.86   -7008.0161    538161.14       94.992       94.992    59.640087 
    4820     289.6745   -342335.73     1617.516   -340718.21   -7313.8365    538160.67       94.992       94.992    59.640035 
    4830    287.53551   -342321.01    1605.5721   -340715.43   -7209.3718    538160.54       94.992       94.992    59.640021 
    4840    289.28331   -342328.14    1615.3317    -340712.8   -7350.8005    538161.13       94.992       94.992    59.640086 
    4850    288.05612   -342318.55    1608.4792   -340710.07   -7471.2864    538162.81       94.992       94.992    59.640273 
    4860    290.15946   -342327.65     1620.224   -340707.42   -7168.2391    538165.17       94.992       94.992    59.640534 
    4870    289.64064   -342322.05     1617.327   -340704.73   -7108.3188    538168.91       94.992       94.992    59.640949 
    4880    290.61586   -342324.85    1622.7725   -340702.08   -7347.8578    538174.09       94.992       94.992    59.641523 
    4890     291.0215   -342324.46    1625.0376   -340699.42   -7217.0336    538179.88       94.992       94.992    59.642164 
    4900     290.2523    -342317.5    1620.7424   -340696.76   -7110.3108    538186.83       94.992       94.992    59.642934 
    4910    291.46713    -342321.7    1627.5259   -340694.17   -7383.6362     538195.1       94.992       94.992    59.643851 
    4920     291.3165   -342318.24    1626.6848   -340691.56   -6986.3346    538204.08       94.992       94.992    59.644846 
    4930    291.38527   -342316.07    1627.0688      -340689    -6904.177       538215       94.992       94.992    59.646057 
    4940    290.78963   -342310.17    1623.7428   -340686.42   -6917.9915    538228.37       94.992       94.992    59.647538 
    4950    293.22662   -342321.26    1637.3508   -340683.91   -7088.7579    538243.54       94.992       94.992    59.649219 
    4960    292.44969   -342314.36    1633.0124   -340681.35   -7490.9069    538260.01       94.992       94.992    59.651044 
    4970    291.70733    -342307.7    1628.8672   -340678.83   -7340.4623    538277.59       94.992       94.992    59.652993 
    4980    291.35497   -342303.18    1626.8996   -340676.28   -7508.8656    538296.84       94.992       94.992    59.655126 
    4990    291.73991   -342302.85    1629.0491    -340673.8   -7424.5133    538317.23       94.992       94.992    59.657386 
    5000    293.15733   -342308.29    1636.9638   -340671.32   -7589.3344    538338.55       94.992       94.992    59.659748 
    5010    293.66591   -342308.61    1639.8037   -340668.81   -7636.1701     538359.8       94.992       94.992    59.662103 
    5020    293.50228   -342305.24      1638.89   -340666.35   -7483.6008    538379.72       94.992       94.992    59.664311 
    5030    293.54571   -342302.98    1639.1325   -340663.84    -7494.021    538398.58       94.992       94.992    59.666401 
    5040    294.49378   -342305.83    1644.4264    -340661.4   -7653.9352    538417.12       94.992       94.992    59.668456 
    5050    293.24886   -342296.45     1637.475   -340658.97   -7643.5382    538435.99       94.992       94.992    59.670547 
    5060    294.04153   -342298.46    1641.9011   -340656.56   -7809.4699    538455.46       94.992       94.992    59.672704 
    5070     293.6126   -342293.66     1639.506   -340654.16   -7903.1316     538475.3       94.992       94.992    59.674903 
    5080    294.78484   -342297.92    1646.0517   -340651.86   -7715.2321    538494.86       94.992       94.992     59.67707 
    5090    293.71503   -342289.52     1640.078   -340649.44   -7587.6345    538514.22       94.992       94.992    59.679217 
    5100    294.61831   -342292.21    1645.1218   -340647.09   -7690.5861    538533.53       94.992       94.992    59.681356 
    5110    294.14868   -342287.21    1642.4995   -340644.71   -7711.3869    538553.21       94.992       94.992    59.683537 
    5120    295.70701   -342293.64     1651.201   -340642.44   -7845.7959    538574.15       94.992       94.992    59.685858 
    5130    295.66252   -342291.04    1650.9526   -340640.08   -8202.5104    538596.31       94.992       94.992    59.688314 
    5140    295.72845   -342289.09    1651.3207   -340637.77   -8266.5161    538618.43       94.992       94.992    59.690766 
    5150    297.31271   -342295.69    1660.1671   -340635.53   -7901.2574    538640.03       94.992       94.992    59.693159 
    5160    297.00841   -342291.68    1658.4679   -340633.22   -7870.2714    538662.16       94.992       94.992    59.695611 
    5170    296.36621   -342285.88     1654.882   -340630.99   -7940.0575    538685.26       94.992       94.992    59.698171 
    5180    295.50889   -342278.88    1650.0947   -340628.79   -7714.5778     538709.8       94.992       94.992    59.700891 
    5190    296.92864   -342284.62    1658.0225   -340626.59   -8495.4636    538736.89       94.992       94.992    59.703893 
    5200    297.05815   -342283.11    1658.7457   -340624.36   -8530.3415    538763.75       94.992       94.992    59.706869 
    5210    296.92593   -342280.17    1658.0074   -340622.17   -8345.0015    538789.65       94.992       94.992     59.70974 
    5220     295.8905    -342272.2    1652.2256   -340619.98   -8179.4207    538815.77       94.992       94.992    59.712635 
    5230    295.86964   -342269.94    1652.1091   -340617.83   -7995.2807    538842.65       94.992       94.992    59.715614 
    5240    297.80298   -342278.61    1662.9047    -340615.7   -8015.5057    538870.53       94.992       94.992    59.718704 
    5250    299.66746    -342286.9    1673.3158   -340613.59   -8644.2846    538899.27       94.992       94.992    59.721888 
    5260    298.21781   -342276.62    1665.2211    -340611.4   -8766.4743    538926.54       94.992       94.992    59.724911 
    5270    298.33717   -342275.17    1665.8876   -340609.28   -8734.1134    538951.38       94.992       94.992    59.727664 
    5280     299.4348   -342279.19    1672.0167   -340607.18   -8664.4846    538974.39       94.992       94.992    59.730213 
    5290    297.64471   -342267.12     1662.021   -340605.09   -8570.7492    538996.44       94.992       94.992    59.732657 
    5300     298.7372   -342271.27    1668.1214   -340603.15   -8311.0517    539018.02       94.992       94.992    59.735048 
    5310    299.11135   -342271.35    1670.2106   -340601.14   -8736.5041    539039.46       94.992       94.992    59.737424 
    5320    298.11851   -342263.79    1664.6666   -340599.12   -8729.1237    539059.11       94.992       94.992    59.739602 
    5330    299.32707   -342268.53    1671.4151   -340597.11   -8663.3208    539076.61       94.992       94.992    59.741541 
    5340    298.33194   -342260.93    1665.8584   -340595.07   -8562.6357    539092.36       94.992       94.992    59.743287 
    5350    299.25081   -342264.15    1670.9893   -340593.16   -8536.4016    539107.37       94.992       94.992     59.74495 
    5360    299.14298   -342261.59    1670.3872   -340591.21   -8490.8637    539122.38       94.992       94.992    59.746614 
    5370    301.15083   -342270.91    1681.5988   -340589.31   -8864.7768    539137.22       94.992       94.992    59.748258 
    5380      300.428   -342264.97    1677.5626    -340587.4   -9173.7838     539150.2       94.992       94.992    59.749697 
    5390    301.30361   -342267.97    1682.4519   -340585.52   -9027.0733    539160.34       94.992       94.992     59.75082 
    5400    301.19702   -342265.48    1681.8567   -340583.63   -8844.7872    539168.16       94.992       94.992    59.751688 
    5410    300.92434   -342262.15    1680.3342   -340581.81   -8751.7324    539174.35       94.992       94.992    59.752373 
    5420    300.75443   -342259.41    1679.3854   -340580.02   -8795.8463    539179.69       94.992       94.992    59.752966 
    5430    300.80785   -342257.91    1679.6836   -340578.22   -8911.9909    539184.61       94.992       94.992     59.75351 
    5440    300.82456   -342256.19     1679.777   -340576.41   -9228.5186    539189.03       94.992       94.992       59.754 
    5450    300.24474   -342251.14    1676.5393    -340574.6   -9172.8132    539192.35       94.992       94.992    59.754369 
    5460    300.96458   -342253.46    1680.5588    -340572.9    -9194.701     539194.6       94.992       94.992    59.754617 
    5470    302.03806   -342257.74     1686.553   -340571.19   -9048.8063    539196.36       94.992       94.992    59.754813 
    5480    300.64409   -342248.19    1678.7693   -340569.42    -8804.955    539197.67       94.992       94.992    59.754958 
    5490     302.2562   -342255.58    1687.7711   -340567.81   -8794.2647    539198.14       94.992       94.992     59.75501 
    5500    301.95421   -342252.18    1686.0848    -340566.1   -8707.8924    539197.72       94.992       94.992    59.754963 
    5510     302.2826   -342252.39    1687.9186   -340564.47   -8832.8814    539196.73       94.992       94.992    59.754853 
    5520    301.77034    -342247.9    1685.0581   -340562.84   -8655.3854    539195.38       94.992       94.992    59.754704 
    5530    301.77042   -342246.28    1685.0586   -340561.22   -8814.0716    539194.13       94.992       94.992    59.754566 
    5540    301.75468   -342244.59    1684.9707   -340559.62   -8896.1274    539192.61       94.992       94.992    59.754397 
    5550    301.85531   -342243.57    1685.5326   -340558.03   -8921.3515    539189.98       94.992       94.992    59.754106 
    5560    303.71979   -342252.52    1695.9437   -340556.58   -8854.9368    539185.36       94.992       94.992    59.753593 
    5570    303.68328    -342250.8    1695.7398   -340555.06   -8913.0187    539179.45       94.992       94.992    59.752938 
    5580    303.10501   -342246.03    1692.5108   -340553.52   -8841.3042    539172.52       94.992       94.992     59.75217 
    5590    304.57305   -342252.79    1700.7082   -340552.09   -8995.3259    539164.51       94.992       94.992    59.751283 
    5600    302.58882   -342240.18    1689.6284   -340550.56   -8839.1382    539155.25       94.992       94.992    59.750256 
    5610    302.98599   -342240.98    1691.8462   -340549.14    -8914.623    539144.78       94.992       94.992    59.749096 
    5620    303.82782   -342244.32    1696.5469   -340547.77   -8700.2204    539132.71       94.992       94.992    59.747759 
    5630    302.60702   -342236.09    1689.7301   -340546.36   -8680.7842    539119.51       94.992       94.992    59.746296 
    5640    304.60521   -342245.96    1700.8878   -340545.07    -8696.925    539105.73       94.992       94.992    59.744768 
    5650    302.87721   -342234.92    1691.2388   -340543.68   -8577.9581    539091.82       94.992       94.992    59.743227 
    5660    304.43377   -342242.36    1699.9305   -340542.42   -8746.1943    539078.14       94.992       94.992    59.741711 
    5670    304.64894   -342242.24    1701.1319   -340541.11    -8693.039    539064.58       94.992       94.992    59.740208 
    5680    303.16623   -342232.61    1692.8527   -340539.76   -8385.9192    539051.15       94.992       94.992     59.73872 
    5690     302.7906   -342229.22    1690.7551   -340538.47   -8417.3969    539039.02       94.992       94.992    59.737375 
    5700     305.5008   -342243.19    1705.8886    -340537.3   -8494.1294    539028.06       94.992       94.992    59.736161 
    5710    303.99257   -342233.56    1697.4668    -340536.1   -8568.7936    539017.89       94.992       94.992    59.735034 
    5720    305.12976   -342238.81    1703.8168   -340534.99   -8378.9969    539008.94       94.992       94.992    59.734043 
    5730     305.1124   -342237.53    1703.7199   -340533.81    -8446.698    539001.54       94.992       94.992    59.733222 
    5740    305.11774   -342236.46    1703.7497   -340532.71   -8692.4311    538994.68       94.992       94.992    59.732462 
    5750     303.4876   -342226.21    1694.6471   -340531.56   -8070.1624    538988.99       94.992       94.992    59.731831 
    5760    305.01185   -342233.65    1703.1584   -340530.49    -8334.312     538986.6       94.992       94.992    59.731566 
    5770    304.87579   -342231.82    1702.3987   -340529.42   -8600.0246    538985.76       94.992       94.992    59.731473 
    5780    306.25062   -342238.54    1710.0756   -340528.46   -8417.1065    538985.38       94.992       94.992    59.731432 
    5790    305.19584   -342231.64    1704.1858   -340527.45   -8477.9059    538986.32       94.992       94.992    59.731535 
    5800    305.53059   -342232.53     1706.055   -340526.47   -8645.9938    538987.55       94.992       94.992    59.731672 
    5810    305.67996   -342232.42    1706.8891   -340525.53   -8233.7396    538988.35       94.992       94.992     59.73176 
    5820    304.53606   -342225.07    1700.5016   -340524.57   -8501.6071    538990.32       94.992       94.992    59.731979 
    5830     304.6386   -342224.76    1701.0742   -340523.68   -8696.8045    538992.57       94.992       94.992    59.732228 
    5840    305.25065   -342227.31    1704.4918   -340522.82   -8369.9817    538994.45       94.992       94.992    59.732437 
    5850    305.53534   -342228.07    1706.0815   -340521.99   -8516.8397    538996.96       94.992       94.992    59.732715 
    5860    305.79398   -342228.73    1707.5258    -340521.2   -8748.0928    538999.53       94.992       94.992       59.733 
    5870    306.11964   -342229.79    1709.3442   -340520.44    -8666.991    539000.51       94.992       94.992    59.733108 
    5880    305.55524   -342225.86    1706.1927   -340519.67   -8692.2189    538999.84       94.992       94.992    59.733034 
    5890    306.27645   -342229.16    1710.2199   -340518.94   -8595.6037    538998.07       94.992       94.992    59.732837 
    5900    305.52603   -342224.24    1706.0295   -340518.21   -8142.6542     538995.9       94.992       94.992    59.732597 
    5910    305.72702   -342224.73    1707.1519   -340517.58   -8118.7288    538994.31       94.992       94.992    59.732421 
    5920    306.68331   -342229.44    1712.4917   -340516.95   -8306.4626    538993.04       94.992       94.992     59.73228 
    5930    306.55826   -342228.11    1711.7934   -340516.32   -8343.4759    538991.73       94.992       94.992    59.732135 
    5940    305.70971   -342222.75    1707.0552   -340515.69   -8405.4603    538990.28       94.992       94.992    59.731974 
    5950    307.68832   -342233.24    1718.1036   -340515.13   -8642.1735    538988.09       94.992       94.992    59.731732 
    5960    304.66444   -342215.75    1701.2185   -340514.53   -8214.1261    538985.57       94.992       94.992    59.731452 
    5970    305.55506   -342220.26    1706.1916   -340514.07    -8221.517    538984.11       94.992       94.992    59.731291 
    5980    308.20579   -342234.68    1720.9931   -340513.69   -8515.4421    538983.83       94.992       94.992     59.73126 
    5990    305.58365   -342219.55    1706.3513    -340513.2   -8538.4127    538983.86       94.992       94.992    59.731263 
    6000    307.71308   -342231.09    1718.2419   -340512.85    -8640.106    538983.61       94.992       94.992    59.731235 
    6010    306.35637   -342223.02    1710.6661   -340512.35   -8590.9744    538983.25       94.992       94.992    59.731196 
    6020    305.52472   -342218.03    1706.0222   -340512.01   -8336.2778    538983.01       94.992       94.992    59.731169 
    6030    306.65748   -342224.07    1712.3475   -340511.72   -8341.0554    538984.59       94.992       94.992    59.731343 
    6040    305.56201   -342217.59    1706.2305   -340511.36   -8416.6088    538988.59       94.992       94.992    59.731787 
    6050    306.45705   -342222.39    1711.2283   -340511.17   -8658.1069    538994.09       94.992       94.992    59.732396 
    6060    305.72174   -342218.02    1707.1224    -340510.9   -8473.0411    539000.49       94.992       94.992    59.733106 
    6070    307.06286   -342225.35     1714.611   -340510.73   -8648.1303    539007.36       94.992       94.992    59.733867 
    6080    307.30802   -342226.52      1715.98   -340510.54   -8308.6621     539014.2       94.992       94.992    59.734625 
[...]
   73540    300.43019   -342252.24    1677.5748   -340574.66   -8132.5188    538768.61       94.992       94.992    59.707408 
   73550    300.35314   -342251.76    1677.1446   -340574.61    -8032.675    538769.27       94.992       94.992    59.707481 
   73560    301.69019   -342259.23    1684.6105   -340574.62   -7862.1404    538770.35       94.992       94.992    59.707602 
   73570    301.10613   -342255.95    1681.3492    -340574.6   -7853.0084    538772.86       94.992       94.992    59.707879 
   73580    300.94166   -342255.02    1680.4309   -340574.59   -8006.9635     538777.2       94.992       94.992     59.70836 
   73590    301.93557   -342260.59    1685.9808   -340574.61   -8265.0715    538782.17       94.992       94.992    59.708911 
   73600    302.21083   -342262.11    1687.5178   -340574.59   -8273.7577    538787.07       94.992       94.992    59.709454 
   73610    300.95499   -342255.05    1680.5053   -340574.55   -8344.3509    538792.01       94.992       94.992    59.710002 
   73620    301.92332   -342260.49    1685.9123   -340574.58   -7997.5275     538797.1       94.992       94.992    59.710566 
   73630    301.66745   -342259.06    1684.4836   -340574.57   -7829.4939    538803.45       94.992       94.992    59.711269 
   73640    301.76979   -342259.66    1685.0551   -340574.61   -8034.7435    538811.27       94.992       94.992    59.712136 
   73650    302.26626   -342262.49    1687.8273   -340574.67   -7865.3856    538819.68       94.992       94.992    59.713068 
   73660    299.82332   -342248.83    1674.1861   -340574.64   -7651.3607     538828.2       94.992       94.992    59.714012 
   73670    301.32663   -342257.35    1682.5805   -340574.77   -7888.6347    538836.96       94.992       94.992    59.714983 
   73680     300.3416   -342251.87    1677.0801   -340574.79     -8056.48    538846.09       94.992       94.992    59.715995 
   73690    300.75466   -342254.24    1679.3866   -340574.86   -8016.6722    538855.76       94.992       94.992    59.717067 
   73700    301.68845    -342259.5    1684.6009    -340574.9   -8429.7957    538866.39       94.992       94.992    59.718244 
   73710    299.86705   -342249.37    1674.4303   -340574.94   -8414.7075    538876.93       94.992       94.992    59.719412 
   73720    300.38386   -342252.38    1677.3162   -340575.06   -8440.2678    538886.57       94.992       94.992    59.720481 
   73730    300.22723   -342251.51    1676.4415   -340575.07   -8739.0681    538894.54       94.992       94.992    59.721365 
   73740    301.92534   -342261.12    1685.9236    -340575.2   -8840.6358    538899.41       94.992       94.992    59.721904 
   73750    300.70543    -342254.4    1679.1118   -340575.29     -8553.68    538901.76       94.992       94.992    59.722164 
   73760     301.7325   -342260.23    1684.8468   -340575.39   -8588.4574    538903.23       94.992       94.992    59.722328 
   73770    301.78459   -342260.57    1685.1377   -340575.43   -8458.3207    538904.18       94.992       94.992    59.722433 
   73780    301.72972   -342260.34    1684.8313   -340575.51   -8194.5861    538905.04       94.992       94.992    59.722528 
   73790    300.96655   -342256.15    1680.5698   -340575.58   -8159.5352    538906.23       94.992       94.992    59.722659 
   73800    301.79437    -342260.9    1685.1923   -340575.71   -8090.0428    538907.47       94.992       94.992    59.722797 
   73810    299.64831   -342248.96    1673.2089   -340575.75   -7958.0838    538908.93       94.992       94.992    59.722959 
   73820    300.52645      -342254    1678.1123   -340575.89   -7999.6316     538911.5       94.992       94.992    59.723244 
   73830    301.15035   -342257.62    1681.5962   -340576.02   -8173.2098    538914.86       94.992       94.992    59.723617 
   73840    301.44568   -342259.42    1683.2452   -340576.17   -8180.3569    538918.93       94.992       94.992    59.724067 
   73850    301.83646   -342261.77    1685.4273   -340576.34   -8275.8599    538924.27       94.992       94.992    59.724659 
   73860    301.44283   -342259.68    1683.2293   -340576.45    -8199.666    538930.63       94.992       94.992    59.725364 
   73870    302.14085   -342263.72     1687.127    -340576.6   -8583.2968    538937.77       94.992       94.992    59.726155 
   73880    301.43519    -342259.9    1683.1867   -340576.71   -8813.0607    538944.77       94.992       94.992    59.726931 
   73890    300.86737   -342256.87     1680.016   -340576.85   -8644.1655    538950.74       94.992       94.992    59.727592 
   73900    300.20544   -342253.34    1676.3199   -340577.02   -8652.2388    538955.31       94.992       94.992    59.728098 
   73910    300.32402   -342254.16     1676.982   -340577.18   -8696.8029    538959.29       94.992       94.992     59.72854 
   73920    300.66523   -342256.25    1678.8873   -340577.37   -8189.0684    538962.91       94.992       94.992    59.728942 
   73930    300.36112   -342254.74    1677.1892   -340577.55   -8616.0969    538966.63       94.992       94.992    59.729354 
   73940    300.72182   -342256.88    1679.2033   -340577.68   -8412.3542    538969.07       94.992       94.992    59.729624 
   73950    300.29875   -342254.68    1676.8409   -340577.83   -8480.6489    538970.17       94.992       94.992    59.729746 
   73960    300.38498   -342255.35    1677.3224   -340578.03   -8723.1276    538969.85       94.992       94.992     59.72971 
   73970    301.15089    -342259.8    1681.5992    -340578.2   -8540.8388    538967.84       94.992       94.992    59.729487 
   73980    300.72489   -342257.61    1679.2204   -340578.39   -8528.9509    538966.02       94.992       94.992    59.729286 
   73990    301.08563   -342259.82    1681.2348   -340578.59   -8674.6848    538964.89       94.992       94.992     59.72916 
   74000    300.78735   -342258.34    1679.5692   -340578.77   -8634.6173    538963.25       94.992       94.992    59.728979 
   74010    301.13404    -342260.5    1681.5051      -340579   -8335.0756    538961.38       94.992       94.992    59.728771 
   74020    301.10407   -342260.54    1681.3377    -340579.2   -8502.6289    538960.25       94.992       94.992    59.728646 
   74030    300.62192   -342258.03    1678.6454   -340579.39   -8610.7851    538959.13       94.992       94.992    59.728522 
   74040    301.54857   -342263.43    1683.8198   -340579.61   -8253.7069    538957.82       94.992       94.992    59.728377 
   74050    300.35384   -342256.96    1677.1485   -340579.82   -8354.6132    538958.15       94.992       94.992    59.728414 
   74060    299.38225   -342251.75    1671.7232   -340580.03   -8615.1908    538960.56       94.992       94.992     59.72868 
   74070    299.66118   -342253.53    1673.2808   -340580.25   -8325.8386    538963.96       94.992       94.992    59.729057 
   74080    300.51381   -342258.52    1678.0418   -340580.48   -8793.2312    538969.45       94.992       94.992    59.729666 
   74090    301.13421   -342262.21     1681.506    -340580.7   -8950.5271    538976.14       94.992       94.992    59.730407 
   74100    300.45286    -342258.6    1677.7014    -340580.9   -8492.4498    538982.85       94.992       94.992    59.731151 
   74110    301.40896    -342264.2    1683.0402   -340581.16    -8727.431    538990.75       94.992       94.992    59.732027 
   74120    299.18481   -342251.96    1670.6208   -340581.34    -8676.501    538999.37       94.992       94.992    59.732982 
   74130    300.90661   -342261.84    1680.2351    -340581.6   -8661.5644    539007.65       94.992       94.992    59.733899 
   74140    301.32675   -342264.43    1682.5812   -340581.85   -8730.4849    539016.02       94.992       94.992    59.734826 
   74150    300.23444   -342258.53    1676.4818   -340582.05   -8984.1286    539024.33       94.992       94.992    59.735748 
   74160    301.22499   -342264.31    1682.0129    -340582.3   -8707.5614    539032.42       94.992       94.992    59.736645 
   74170    300.40272   -342259.93    1677.4215    -340582.5   -8655.0459    539041.49       94.992       94.992    59.737649 
   74180    299.12807      -342253    1670.3039   -340582.69   -9084.3759    539051.04       94.992       94.992    59.738707 
   74190    299.64242   -342256.09     1673.176   -340582.91   -8909.2907    539059.61       94.992       94.992    59.739658 
   74200    300.33761   -342260.22    1677.0579   -340583.17   -8941.8545    539067.18       94.992       94.992    59.740497 
   74210     300.8036   -342263.12    1679.6599   -340583.46     -8898.61    539073.17       94.992       94.992    59.741161 
   74220    300.24419   -342260.26    1676.5362   -340583.72   -8517.2044     539078.5       94.992       94.992    59.741751 
   74230    299.40566   -342255.78     1671.854   -340583.93   -8685.2893    539085.11       94.992       94.992    59.742483 
   74240    300.57029   -342262.52    1678.3571   -340584.16   -9087.2286    539092.26       94.992       94.992    59.743276 
   74250    301.04309   -342265.44    1680.9972   -340584.44   -9115.6371    539098.85       94.992       94.992    59.744006 
   74260    299.03683   -342254.42    1669.7944   -340584.62   -9226.8215    539104.36       94.992       94.992    59.744617 
   74270    299.67422   -342258.28    1673.3536   -340584.93    -9034.808    539108.26       94.992       94.992    59.745049 
   74280    299.23886   -342256.06    1670.9226   -340585.14   -8842.5804    539111.63       94.992       94.992    59.745422 
   74290    300.20738   -342261.71    1676.3307   -340585.38   -9085.9365    539115.76       94.992       94.992    59.745881 
   74300     299.0994   -342255.73    1670.1438   -340585.58   -9351.0534    539119.91       94.992       94.992     59.74634 
   74310    299.79065   -342259.84    1674.0037   -340585.84   -9228.0948    539122.87       94.992       94.992    59.746668 
   74320    299.97237    -342261.1    1675.0184   -340586.08   -9023.8499    539124.66       94.992       94.992    59.746866 
   74330    300.27409   -342263.03    1676.7032   -340586.33    -9054.894    539125.97       94.992       94.992    59.747011 
   74340    300.50919   -342264.57     1678.016   -340586.55   -8963.9136    539126.44       94.992       94.992    59.747064 
   74350    300.61332   -342265.38    1678.5974   -340586.78   -8925.3044    539126.59       94.992       94.992     59.74708 
   74360    299.94771   -342261.85    1674.8807   -340586.97   -9161.2562    539126.83       94.992       94.992    59.747107 
   74370    300.00235   -342262.39    1675.1858    -340587.2   -9147.1131    539126.15       94.992       94.992    59.747032 
   74380     299.8881   -342262.01    1674.5479   -340587.46   -8730.1094    539124.67       94.992       94.992    59.746868 
   74390    299.58072   -342260.54    1672.8315   -340587.71   -8569.1135    539124.02       94.992       94.992    59.746796 
   74400    297.91154   -342251.45     1663.511   -340587.94   -8716.4935    539123.73       94.992       94.992    59.746763 
   74410    300.11213   -342263.99    1675.7988   -340588.19   -8793.0609    539123.16       94.992       94.992    59.746701 
   74420    300.57289   -342266.79    1678.3717   -340588.42   -9138.2666    539122.48       94.992       94.992    59.746625 
   74430    298.12334   -342253.28    1664.6936   -340588.58   -9186.6953    539120.26       94.992       94.992    59.746379 
   74440     301.3075    -342271.4    1682.4736   -340588.93    -9137.507    539116.58       94.992       94.992    59.745972 
   74450    299.61809   -342262.12    1673.0401   -340589.08   -8945.2019    539112.73       94.992       94.992    59.745544 
   74460    300.26872      -342266    1676.6732   -340589.32   -8806.9197    539108.96       94.992       94.992    59.745127 
   74470     300.4586   -342267.32    1677.7335   -340589.59    -8877.346    539105.12       94.992       94.992    59.744701 
   74480    300.09553   -342265.52    1675.7062   -340589.81   -8881.2489    539100.42       94.992       94.992    59.744181 
   74490    300.61231   -342268.63    1678.5918   -340590.04   -8858.0966    539094.22       94.992       94.992    59.743493 
   74500    299.70396   -342263.72    1673.5196    -340590.2   -8683.9766    539086.35       94.992       94.992    59.742621 
   74510    300.10592   -342266.23    1675.7641   -340590.46   -8774.3405    539077.53       94.992       94.992    59.741644 
   74520    298.56517   -342257.83    1667.1608   -340590.66   -8588.0464    539069.25       94.992       94.992    59.740726 
   74530    299.22323   -342261.75    1670.8353   -340590.91   -8860.1312    539062.08       94.992       94.992    59.739932 
   74540    298.41139   -342257.39     1666.302   -340591.09   -8925.7519    539054.56       94.992       94.992    59.739098 
   74550    298.66692   -342259.04    1667.7289   -340591.32    -8607.804    539046.12       94.992       94.992    59.738162 
   74560    300.20861    -342267.9    1676.3376   -340591.56   -8531.6912    539037.59       94.992       94.992    59.737218 
   74570    299.80978   -342265.87    1674.1106   -340591.76   -8904.0259     539028.7       94.992       94.992    59.736232 
   74580    298.83812   -342260.65    1668.6849   -340591.97   -8558.4955    539018.96       94.992       94.992    59.735153 
   74590    299.23429   -342263.03    1670.8971   -340592.13   -8336.6422    539009.77       94.992       94.992    59.734135 
   74600    301.06709    -342273.5    1681.1312   -340592.37   -8800.3269    539000.68       94.992       94.992    59.733127 
   74610    298.86293   -342261.31    1668.8234   -340592.49   -8573.7389    538990.34       94.992       94.992    59.731981 
   74620    300.37137   -342269.99    1677.2464   -340592.75   -8223.9057    538979.65       94.992       94.992    59.730796 
   74630    299.78835   -342266.94    1673.9908   -340592.95   -8685.4942    538969.68       94.992       94.992    59.729691 
   74640    300.13011   -342269.07    1675.8992   -340593.17   -8615.1682    538959.66       94.992       94.992    59.728581 
   74650    300.57209   -342271.78    1678.3672   -340593.41   -8497.5006    538949.61       94.992       94.992    59.727467 
   74660    299.67854   -342266.96    1673.3777   -340593.58   -8175.6817    538939.77       94.992       94.992    59.726376 
   74670    298.88499   -342262.69    1668.9466   -340593.74   -8392.6496    538930.41       94.992       94.992     59.72534 
   74680    299.15942   -342264.44     1670.479   -340593.96    -8498.454    538920.71       94.992       94.992    59.724264 
   74690    299.43838    -342266.2    1672.0366   -340594.16   -8237.3768    538910.57       94.992       94.992    59.723141 
   74700    299.28077   -342265.53    1671.1566   -340594.37   -8546.3894    538900.54       94.992       94.992    59.722029 
   74710     298.0155   -342258.62    1664.0915   -340594.53   -8479.4071    538889.47       94.992       94.992    59.720803 
   74720    298.75666   -342262.95      1668.23   -340594.72   -8259.6131    538878.07       94.992       94.992    59.719539 
   74730    298.42411   -342261.24    1666.3731   -340594.87   -8451.2541    538867.88       94.992       94.992     59.71841 
   74740     299.9924   -342270.21    1675.1303   -340595.08   -8520.7718    538857.93       94.992       94.992    59.717307 
   74750    299.93326   -342270.09       1674.8   -340595.29   -8133.5584    538847.35       94.992       94.992    59.716134 
   74760    299.74953   -342269.24    1673.7741   -340595.46   -8005.3114    538837.41       94.992       94.992    59.715033 
   74770    298.55035   -342262.65     1667.078   -340595.58   -8243.4972    538828.21       94.992       94.992    59.714013 
   74780    300.37071   -342273.03    1677.2427   -340595.79   -8088.6756    538818.31       94.992       94.992    59.712916 
   74790    299.17318   -342266.44    1670.5558   -340595.89   -8127.2576    538808.79       94.992       94.992    59.711861 
   74800    299.47016   -342268.28    1672.2141   -340596.07    -8451.797    538799.92       94.992       94.992    59.710879 
   74810     300.1111   -342272.03    1675.7931   -340596.24   -8183.1153    538789.87       94.992       94.992    59.709765 
   74820    299.08107   -342266.41    1670.0415   -340596.36   -7793.5674    538780.39       94.992       94.992    59.708714 
   74830    300.12243   -342272.44    1675.8563   -340596.58    -8450.599    538772.74       94.992       94.992    59.707866 
   74840    299.54782   -342269.37    1672.6478   -340596.72   -8106.4761    538764.47       94.992       94.992    59.706949 
   74850    298.79443   -342265.28    1668.4409   -340596.84   -8040.5114    538755.69       94.992       94.992    59.705976 
   74860    300.19827   -342273.29    1676.2798   -340597.01   -8393.2963    538747.06       94.992       94.992     59.70502 
   74870    298.65792   -342264.81    1667.6786   -340597.13    -8195.884    538737.78       94.992       94.992    59.703991 
   74880    299.23843   -342268.22    1670.9202    -340597.3    -7940.823    538728.18       94.992       94.992    59.702928 
   74890     299.1932   -342268.08    1670.6676   -340597.42   -8152.5583    538719.21       94.992       94.992    59.701934 
   74900    297.35078   -342257.88    1660.3797    -340597.5   -8366.8058    538709.69       94.992       94.992    59.700879 
   74910    298.53798   -342264.65    1667.0089   -340597.64   -7789.9246     538698.6       94.992       94.992     59.69965 
   74920    299.86311   -342272.21    1674.4083    -340597.8   -8119.0704    538687.42       94.992       94.992     59.69841 
   74930    298.95239   -342267.23    1669.3229   -340597.91   -8030.6316    538675.71       94.992       94.992    59.697113 
   74940    300.56607   -342276.42    1678.3336   -340598.09   -7981.6043    538663.48       94.992       94.992    59.695758 
   74950     298.8363   -342266.83    1668.6747   -340598.16   -8058.4705    538652.15       94.992       94.992    59.694502 
   74960    299.29321   -342269.45     1671.226   -340598.23   -8122.2045    538641.53       94.992       94.992    59.693325 
   74970    299.02252   -342268.03    1669.7145   -340598.32   -7836.1292    538630.63       94.992       94.992    59.692117 
   74980    299.75757   -342272.26     1673.819   -340598.45   -7823.9635     538619.7       94.992       94.992    59.690906 
   74990    299.37403   -342270.23    1671.6774   -340598.55   -7758.3552    538609.64       94.992       94.992    59.689791 
   75000    298.87789   -342267.55    1668.9069   -340598.65   -7514.9101    538600.35       94.992       94.992    59.688761 
Loop time of 11565.4 on 1 procs for 75000 steps with 43200 atoms

Performance: 1.121 ns/day, 21.417 hours/ns, 6.485 timesteps/s
73.8% CPU use with 1 MPI tasks x 1 OpenMP threads

MPI task timing breakdown:
Section |  min time  |  avg time  |  max time  |%varavg| %total
---------------------------------------------------------------
Pair    | 10858      | 10858      | 10858      |   0.0 | 93.88
Neigh   | 0          | 0          | 0          |   0.0 |  0.00
Comm    | 18.794     | 18.794     | 18.794     |   0.0 |  0.16
Output  | 539.98     | 539.98     | 539.98     |   0.0 |  4.67
Modify  | 128.43     | 128.43     | 128.43     |   0.0 |  1.11
Other   |            | 20.12      |            |       |  0.17

Nlocal:        43200.0 ave       43200 max       43200 min
Histogram: 1 0 0 0 0 0 0 0 0 0
Nghost:        33520.0 ave       33520 max       33520 min
Histogram: 1 0 0 0 0 0 0 0 0 0
Neighs:        0.00000 ave           0 max           0 min
Histogram: 1 0 0 0 0 0 0 0 0 0

Total # of neighbors = 0
Ave neighs/atom = 0.0000000
Neighbor list builds = 0
Dangerous builds = 0
write_restart    PTO_C.restart
System init for write_restart ...


Please see the log.cite file for references relevant to this simulation

Total wall time: 3:12:55
