ITEM: TIMESTEP
15100
ITEM: NUMBER OF ATOMS
32000
ITEM: BOX BOUNDS xy xz yz pp pp pp
0.0000000000000000e+00 1.5832000000000001e+01 0.0000000000000000e+00
0.0000000000000000e+00 1.5831999999999999e+02 0.0000000000000000e+00
8.1071496715658498e-01 1.6016640303284214e+02 0.0000000000000000e+00
ITEM: ATOMS id type x y z
1 2 15.8182 157.639 159.914
2 2 4.05845 157.605 159.831
3 2 8.05837 157.632 159.864
4 2 11.9814 157.625 159.969
5 2 0.15848 3.15714 159.766
6 2 4.08805 3.02797 159.771
7 2 7.93925 3.20882 159.73
8 2 12.0958 3.24534 159.738
9 2 15.9079 7.14281 159.8
10 2 3.81328 7.24686 159.85
11 2 7.92942 7.19641 159.746
12 2 12.0347 7.06243 159.719
13 2 -0.144499 11.0998 159.692
14 2 3.92278 11.303 159.796
15 2 7.94704 11.1973 159.736
16 2 11.8212 11.0616 159.703
17 2 0.0821135 15.1171 159.936
18 2 4.06959 15.1986 159.676
19 2 8.0062 15.2965 159.746
20 2 12.047 15.1533 159.61
21 2 -0.0452748 19.0254 159.774
22 2 3.73375 19.0603 159.872
23 2 7.85624 19.3706 159.984
24 2 12.0285 18.9989 159.773
25 2 15.9071 23.2933 159.754
26 2 3.98879 23.2027 159.73
27 2 7.94888 23.1429 159.7
28 2 11.8251 23.0635 159.855
29 2 0.153651 27.4459 160.007
30 2 4.05152 27.1925 159.752
31 2 8.06372 27.2363 159.961
32 2 11.9619 27.3173 159.988
33 2 0.0484638 31.3431 160.029
34 2 3.91606 31.2265 160.082
35 2 7.82875 31.4121 159.89
36 2 11.8023 31.2706 159.81
37 2 15.8224 35.2192 0.87256
38 2 3.91732 35.3358 160.258
39 2 7.99944 35.2848 160.186
40 2 12.054 35.5053 159.97
41 2 -0.129595 39.3629 0.994666
42 2 3.99999 39.1772 0.836719
43 2 7.95241 39.468 159.965
44 2 11.7417 39.5324 160.1
45 2 15.6752 43.4765 0.916472
46 2 3.75006 43.453 0.893471
47 2 7.90626 43.4951 0.827433
48 2 11.8455 43.4751 160.306
49 2 -0.157366 47.5715 0.908569
50 2 3.90236 47.468 1.05813
51 2 7.62958 47.4757 1.07863
52 2 11.8458 47.5687 1.03434
53 2 -0.0959368 51.5205 0.875561
54 2 3.97737 51.5078 0.78824
55 2 7.72753 51.6354 0.967487
56 2 11.7428 51.4519 1.14714
57 2 15.81 55.4645 0.932613
58 2 3.72798 55.4433 1.12513
59 2 7.79642 55.5767 0.986966
60 2 11.7081 55.454 1.01366
61 2 15.7952 59.5071 1.15067
62 2 3.95229 59.4449 1.19947
63 2 7.81806 59.3675 1.17135
64 2 11.9018 59.4898 1.1215
65 2 0.0841161 63.4617 1.17525
66 2 3.93837 63.7102 1.28324
67 2 7.87368 63.3303 1.29659
68 2 11.8801 63.5483 1.18916
69 2 15.7242 67.445 1.26179
70 2 4.07943 67.5829 1.25905
71 2 7.96661 67.5943 1.25157
72 2 11.9107 67.5245 1.24815
73 2 15.9491 71.6693 1.73033
74 2 3.95016 71.4891 1.39279
75 2 7.97829 71.7001 1.44365
76 2 11.9856 71.6447 1.50936
77 2 0.0974327 75.6384 1.50425
78 2 4.17836 75.5253 1.37703
79 2 7.84098 75.6131 1.58829
80 2 11.8082 75.8609 1.70681
81 2 0.0870374 79.5567 1.38947
82 2 3.88991 79.6854 1.50024
83 2 7.81566 79.6048 1.69786
84 2 11.7142 79.7339 1.5527
85 2 0.100932 83.6165 1.58402
86 2 3.96382 83.6662 1.48029
87 2 7.82298 83.5647 1.50295
88 2 11.8748 83.5239 1.63573
89 2 15.8104 87.5912 1.52925
90 2 3.9727 87.6016 1.41974
91 2 7.98917 87.4349 1.47041
92 2 11.8783 87.5152 1.40927
93 2 15.9423 91.4422 1.42782
94 2 3.95354 91.4211 1.32703
95 2 7.84772 91.3414 1.38467
96 2 11.8567 91.3555 1.36993
97 2 0.144958 95.1728 1.38065
98 2 4.05603 95.158 1.33287
99 2 8.16317 95.4693 1.29608
100 2 12.0615 95.1865 1.27277
101 2 15.8703 99.0211 1.36603
102 2 3.78956 99.0058 1.28554
103 2 7.7653 99.1489 1.38662
104 2 12.1547 99.283 1.23771
105 2 0.102544 102.992 1.25502
106 2 3.90662 102.987 1.13842
107 2 7.75505 103.1 1.18292
108 2 11.84 102.961 1.20455
109 2 15.7946 106.746 0.97955
110 2 3.85681 106.914 1.3518
111 2 7.90152 106.93 1.29008
112 2 11.832 106.868 1.23208
113 2 15.9087 110.866 0.950033
114 2 3.98023 110.816 0.937066
115 2 7.91507 110.862 1.34436
116 2 11.9746 110.895 1.20622
117 2 0.0182928 114.748 1.10925
118 2 4.07424 114.683 0.958617
119 2 8.13276 114.813 0.780567
120 2 12.0681 114.681 1.08166
121 2 15.8609 118.586 1.00693
122 2 4.06247 118.655 0.984156
123 2 7.75191 118.764 0.906304
124 2 11.9721 118.685 0.909396
125 2 15.9483 122.526 0.915092
126 2 3.94746 122.684 0.910835
127 2 8.02908 122.546 0.977826
128 2 11.8373 122.631 0.957423
129 2 0.0821391 126.49 0.990517
130 2 4.02049 126.385 0.958572
131 2 8.02452 126.531 0.851733
132 2 11.6901 126.528 0.953228
133 2 15.7284 130.395 0.97579
134 2 3.95371 130.261 0.953746
135 2 7.99924 130.256 0.784257
136 2 11.9698 130.495 160.109
137 2 -0.391764 134.363 0.894319
138 2 3.84333 134.169 0.849732
139 2 7.82198 134.253 0.857989
140 2 11.9048 134.248 0.745726
141 2 -0.232776 138.319 0.624798
142 2 3.76301 137.988 160.092
143 2 7.7507 138.206 160.11
144 2 11.6928 138.212 160.181
145 2 15.8132 142.175 0.773354
146 2 3.93851 142.096 160.087
147 2 7.91436 142.157 160.149
148 2 11.8025 142.082 160.092
149 2 -0.0122799 145.899 160.235
150 2 3.95626 145.969 159.969
151 2 7.78282 145.904 159.956
152 2 12.0045 146.032 160.118
153 2 0.0505452 149.907 159.826
154 2 4.19294 149.889 160.045
155 2 8.06016 149.9 159.964
156 2 11.8997 149.884 160.059
157 2 0.184822 153.931 159.814
158 2 3.89469 153.763 159.992
159 2 7.93345 153.7 159.963
160 2 12.1053 153.738 160.029
161 2 15.9164 157.69 4.6763
162 2 3.8906 157.592 4.67789
163 2 7.88127 157.776 4.58777
164 2 11.8223 157.835 4.60221
165 2 0.161363 3.32117 4.58812
166 2 3.92744 3.20676 4.37119
167 2 7.93408 3.19301 4.46
168 2 11.8331 3.31886 4.33329
169 2 0.22671 6.97022 4.14576
170 2 3.97596 7.31504 4.3555
171 2 7.78878 7.21985 4.38206
172 2 11.9202 7.134 4.4072
173 2 0.134356 11.0402 4.56818
174 2 4.03515 11.3164 4.4996
175 2 7.86462 11.1124 4.33372
176 2 11.7706 10.9806 4.31537
177 2 0.0155187 15.2143 4.5529
178 2 4.21624 15.2559 4.36085
179 2 7.96791 15.1306 4.35638
180 2 11.7226 14.9488 4.28848
181 2 0.197848 19.2078 4.49709
182 2 4.16628 19.1393 4.48727
183 2 8.17503 19.22 4.32756
184 2 11.898 19.3259 4.2576
185 2 0.307253 23.1559 4.31135
186 2 4.00948 23.2353 4.3177
187 2 7.94434 23.0522 4.42501
188 2 11.9906 23.1107 4.32953
189 2 15.8422 27.0734 4.53867
190 2 4.07758 27.1205 4.4041
191 2 7.86732 27.0638 4.70629
192 2 11.8295 26.9476 4.39678
193 2 15.7334 31.0758 4.47397
194 2 3.92641 31.4086 4.65394
195 2 7.8534 31.1739 4.6354
196 2 11.7874 31.1166 4.55478
197 2 15.6703 35.3405 4.55064
198 2 4.02216 35.4381 4.71412
199 2 8.03536 35.2073 4.62726
200 2 11.8954 35.2631 4.62588
201 2 15.6711 39.3405 4.8204
202 2 4.0064 39.3351 4.77992
203 2 7.92855 39.2574 4.58435
204 2 11.7577 39.3151 4.71159
205 2 -0.0618222 43.4598 4.7391
206 2 3.8357 43.5287 4.54581
207 2 7.94042 43.2972 4.80211
208 2 11.9808 43.2873 4.66391
209 2 -0.100206 47.3905 5.00626
210 2 3.86326 47.4452 5.09327
211 2 7.85379 47.3319 4.9551
212 2 11.858 47.467 4.84062
213 2 -0.083484 51.3496 4.90248
214 2 3.93188 51.5278 4.98712
215 2 7.786 51.3408 5.07298
216 2 11.7736 51.3239 4.84987
217 2 15.7244 55.4856 4.97626
218 2 3.85291 55.2194 4.77057
219 2 7.90396 55.5679 5.0295
220 2 11.7269 55.3664 4.97589
221 2 -0.177028 59.5029 5.12145
222 2 3.86139 59.3175 5.27312
223 2 7.88212 59.493 5.12888
224 2 11.896 59.3951 5.19238
225 2 15.6927 63.3455 5.25588
226 2 3.91674 63.6454 5.30476
227 2 7.92926 63.2551 5.20511
228 2 11.7533 63.4358 5.21625
229 2 15.969 67.3691 5.1297
230 2 4.18521 67.4802 5.34579
231 2 7.95339 67.4731 5.153
232 2 11.9495 67.419 5.18989
233 2 15.8216 71.3604 5.54898
234 2 4.08575 71.3422 5.30437
235 2 8.00077 71.5062 5.09105
236 2 12.0186 71.5672 5.37793
237 2 15.8665 75.5676 5.51285
238 2 4.24519 75.6211 5.41103
239 2 8.07442 75.5686 5.50288
240 2 12.0094 75.7009 5.37598
241 2 15.7988 79.6232 5.43799
242 2 4.06811 79.5794 5.56527
243 2 8.10906 79.7225 5.57657
244 2 11.8215 79.6077 5.38845
245 2 0.111112 83.6804 5.50602
246 2 4.20599 83.5275 5.50975
247 2 8.0515 83.5592 5.47228
248 2 12.0098 83.4468 5.56486
249 2 0.0389718 87.4103 5.53825
250 2 3.92301 87.6182 5.5362
251 2 7.8401 87.3886 5.48276
252 2 12.0122 87.5704 5.46959
253 2 15.9687 91.4457 5.59746
254 2 4.17486 91.3657 5.43038
255 2 8.0944 91.3525 5.70123
256 2 12.0446 91.3052 5.50012
257 2 15.8703 95.3422 5.30059
258 2 3.99048 95.1879 5.45993
259 2 8.05265 95.3209 5.25364
260 2 12.1074 95.2196 5.52061
261 2 15.6419 99.1307 5.29585
262 2 4.01195 99.1781 5.35014
263 2 7.91941 99.2963 5.36439
264 2 11.8733 99.0871 5.27376
265 2 15.7929 103.164 5.33366
266 2 4.02859 103.08 5.28497
267 2 7.94852 103.005 5.37496
268 2 12.0235 103.175 5.28957
269 2 0.0209248 107.121 5.05712
270 2 4.00229 107.151 5.30223
271 2 8.08504 107.027 5.12033
272 2 11.9944 107.167 5.20514
273 2 15.8631 110.846 5.2342
274 2 4.08477 110.927 5.20827
275 2 7.90193 110.882 5.16252
276 2 11.8221 110.97 5.12989
277 2 15.9599 114.668 4.984
278 2 3.96353 114.756 5.14331
279 2 7.83803 114.905 5.00927
280 2 11.9695 114.683 5.17277
281 2 0.0651507 118.822 5.11146
282 2 4.07782 118.803 4.95514
283 2 7.97549 118.683 5.05454
284 2 11.948 118.72 5.19558
285 2 15.815 122.798 4.93339
286 2 4.06305 122.694 5.04428
287 2 7.84667 122.726 4.80857
288 2 11.9815 122.59 4.95423
289 2 0.00292254 126.659 5.0146
290 2 3.91083 126.535 5.0152
291 2 7.88828 126.621 4.85948
292 2 11.9416 126.485 5.04163
293 2 15.6594 130.31 4.90722
294 2 3.99193 130.481 4.76689
295 2 7.88521 130.264 4.91015
296 2 11.8238 130.41 4.69824
297 2 -3.57255e-06 134.319 4.8855
298 2 3.92901 134.287 4.85045
299 2 7.84464 134.285 4.89179
300 2 11.7132 134.437 4.95167
301 2 0.103322 138.347 4.78517
302 2 4.06979 138.161 4.86171
303 2 7.87353 138.306 4.66077
304 2 11.8437 138.237 4.88369
305 2 -0.10999 142.056 4.83052
306 2 3.82598 142.174 4.77345
307 2 7.7035 142.209 4.61319
308 2 11.6915 142.195 4.6911
309 2 15.7756 146.087 4.83359
310 2 3.85195 146.151 4.57965
311 2 7.86125 146.035 4.80836
312 2 11.7742 146.111 4.70785
313 2 15.5745 149.841 4.59406
314 2 3.87008 149.77 4.56426
315 2 7.97296 150.015 4.6945
316 2 11.8185 149.884 4.5975
317 2 0.0921874 153.866 4.58374
318 2 3.81209 153.781 4.70639
319 2 7.90988 153.711 4.60486
320 2 12.0289 154.028 4.67142
321 2 0.146267 158.013 8.60251
322 2 3.78266 157.913 8.59074
323 2 7.96204 157.851 8.51754
324 2 11.9104 157.839 8.49005
325 2 -0.105789 3.54047 8.5805
326 2 4.04068 3.50771 8.40183
327 2 7.87148 3.34623 8.59983
328 2 11.7338 3.50317 8.64746
329 2 15.7307 7.43641 8.43823
330 2 3.95446 7.09339 8.34971
331 2 7.98717 7.32145 8.45781
332 2 11.8425 7.30491 8.49233
333 2 -0.0201063 11.3857 8.28445
334 2 4.03731 11.1153 8.53875
335 2 7.9812 11.2021 8.42288
336 2 11.9177 11.1382 8.36078
337 2 0.153627 15.1178 8.29407
338 2 4.08281 15.2373 8.3777
339 2 8.06122 15.0794 8.24724
340 2 12.095 15.0627 8.24656
341 2 15.8461 19.1198 8.49338
342 2 4.01444 18.9633 8.40463
343 2 7.90776 19.0992 8.37262
344 2 11.8445 18.9604 8.37468
345 2 15.9003 23.0636 8.29766
346 2 4.09047 22.9044 8.57341
347 2 8.00734 22.9853 8.52369
348 2 11.8258 22.9584 8.41086
349 2 0.0805665 27.2073 8.30686
350 2 3.95564 27.1924 8.44376
351 2 8.05988 27.0721 8.4956
352 2 11.8198 26.8829 8.48405
353 2 -0.148261 31.0384 8.36782
354 2 3.93117 31.2091 8.47852
355 2 7.89145 30.9103 8.51973
356 2 11.8934 31.1961 8.50941
357 2 15.7474 35.3786 8.35668
358 2 3.76015 35.3071 8.4327
359 2 7.95625 35.2436 8.53749
360 2 11.8972 35.2618 8.45592
361 2 -0.0466172 39.2445 8.78639
362 2 4.06207 39.3047 8.60042
363 2 7.86907 39.2541 8.53845
364 2 11.797 39.3539 8.58655
365 2 15.7454 43.2196 8.89981
366 2 3.94641 43.2712 8.66781
367 2 7.85223 43.1272 8.60894
368 2 11.7063 43.1724 8.79199
369 2 15.8307 47.464 8.77199
370 2 3.78326 47.3554 8.62103
371 2 7.79961 47.3165 8.76041
372 2 11.6959 47.2842 8.7199
373 2 15.5983 51.5419 8.84691
374 2 3.7204 51.27 8.94533
375 2 7.65008 51.3402 8.82168
376 2 11.7912 51.4455 8.87433
377 2 -0.133989 55.2642 9.01167
378 2 3.95716 55.3716 8.95734
379 2 7.91844 55.3504 9.01233
380 2 11.8028 55.4372 8.74856
381 2 0.0403854 59.1993 9.02541
382 2 3.6861 59.4939 9.06106
383 2 7.86764 59.3732 8.94993
384 2 11.8135 59.3893 9.02638
385 2 15.8542 63.4547 9.20426
386 2 3.73122 63.3746 9.17197
387 2 7.93352 63.4273 9.09248
388 2 11.6504 63.4002 9.17022
389 2 15.8813 67.4214 9.20999
390 2 4.19668 67.3037 9.05207
391 2 7.90163 67.2681 9.16115
392 2 11.8903 67.4619 9.12371
393 2 15.9324 71.3932 9.33136
394 2 4.14022 71.5393 9.22632
395 2 8.1128 71.507 9.17767
396 2 12.1259 71.4563 9.22009
397 2 16.08 75.4124 9.21642
398 2 4.1266 75.4667 9.12357
399 2 8.10025 75.333 9.38818
400 2 12.038 75.4511 9.39194
401 2 15.8645 79.3687 9.38482
402 2 4.09269 79.5531 9.53153
403 2 7.99152 79.245 9.48081
404 2 11.8479 79.5996 9.18698
405 2 15.9217 83.5955 9.3962
406 2 4.05864 83.369 9.25187
407 2 8.04392 83.4763 9.65727
408 2 11.9876 83.6029 9.61046
409 2 -0.00385454 87.5738 9.58239
410 2 4.06779 87.4142 9.49397
411 2 8.00591 87.3769 9.45379
412 2 11.959 87.4776 9.6433
413 2 0.16535 91.5135 9.49031
414 2 4.00658 91.4254 9.47676
415 2 8.05158 91.492 9.44892
416 2 11.8173 91.2679 9.46233
417 2 0.122447 95.2664 9.39978
418 2 4.10224 95.525 9.44705
419 2 8.12675 95.3566 9.40887
420 2 12.0359 95.2668 9.52986
421 2 0.273365 99.2848 9.51878
422 2 3.97714 99.1093 9.48591
423 2 7.93715 99.3563 9.4912
424 2 11.9115 99.1804 9.35836
425 2 16.0294 103.112 9.23461
426 2 3.97743 103.206 9.13414
427 2 8.02147 103.084 9.46015
428 2 11.9898 103.281 9.26506
429 2 0.0388249 107.216 9.17585
430 2 4.16454 106.998 9.25637
431 2 7.97423 106.967 9.18385
432 2 11.9544 107.076 9.13527
433 2 16.0751 110.988 9.3171
434 2 3.97879 111.081 9.15149
435 2 7.99281 110.902 9.33139
436 2 11.8085 111.003 9.2938
437 2 15.9601 114.953 9.14518
438 2 3.85582 114.862 8.9686
439 2 8.0246 114.9 9.25971
440 2 11.9496 114.814 9.27021
441 2 0.0632355 118.842 9.06102
442 2 3.78263 118.65 9.17393
443 2 7.88038 118.929 9.31011
444 2 12.0349 118.649 9.14143
445 2 15.9293 122.757 9.13542
446 2 3.69588 122.545 9.09321
447 2 7.76719 122.694 8.94088
448 2 11.7409 122.682 9.10079
449 2 15.648 126.601 8.9794
450 2 4.00535 126.766 8.94506
451 2 7.74131 126.648 9.03618
452 2 11.6724 126.507 8.99748
453 2 15.5905 130.417 8.94868
454 2 3.86612 130.556 8.85452
455 2 7.71398 130.397 9.04611
456 2 11.7721 130.431 9.02685
457 2 0.0663091 134.536 8.95983
458 2 3.9891 134.467 8.88635
459 2 8.02911 134.201 8.8733
460 2 11.7588 134.443 8.62141
461 2 -0.0317307 138.179 8.8917
462 2 3.82959 138.236 9.03769
463 2 7.97406 138.124 8.86634
464 2 11.9695 138.315 8.92197
465 2 -0.0431319 142.414 8.68481
466 2 3.85776 142.062 8.6133
467 2 7.85521 142.249 8.52363
468 2 11.9081 142.17 8.85062
469 2 0.0618979 146.104 8.68005
470 2 4.00369 146.093 8.68289
471 2 7.77534 145.998 8.65906
472 2 11.8808 146.021 8.5061
473 2 15.9595 150.092 8.7381
474 2 3.91057 150.297 8.70122
475 2 7.75841 149.955 8.62301
476 2 11.8058 150.039 8.69315
477 2 -0.0241258 153.912 8.75545
478 2 3.8038 154.062 8.62014
479 2 7.70644 153.916 8.69097
480 2 11.8715 153.94 8.55975
481 2 15.7081 157.849 12.4645
482 2 3.69614 157.975 12.5905
483 2 7.79682 157.884 12.5555
484 2 11.7556 157.869 12.7511
485 2 0.0282425 3.46085 12.7889
486 2 3.87024 3.51015 12.5628
487 2 7.79011 3.54353 12.5365
488 2 11.7555 3.36455 12.5628
489 2 0.115253 7.57379 12.5408
490 2 3.94059 7.47119 12.6534
491 2 7.99986 7.47922 12.5137
492 2 11.8507 7.50421 12.4401
493 2 0.242543 11.2749 12.407
494 2 4.12064 11.4046 12.398
495 2 7.95512 11.3578 12.4825
496 2 12.0789 11.307 12.409
497 2 -0.000439457 15.1617 12.378
498 2 4.26118 15.4179 12.2865
499 2 8.23104 15.2463 12.4949
500 2 12.1492 15.1219 12.293
501 2 0.267454 19.0007 12.5059
502 2 4.14664 19.0746 12.2019
503 2 8.05433 19.0019 12.3049
504 2 11.9198 18.9336 12.2993
505 2 0.122514 22.9639 12.3616
506 2 4.01921 23.1147 12.5105
507 2 7.79043 22.9016 12.5076
508 2 12.023 23.0683 12.2677
509 2 15.7573 26.847 12.2609
510 2 3.88067 27.0678 12.169
511 2 7.87824 26.9765 12.3141
512 2 11.9082 26.9142 12.5328
513 2 15.8738 31.0751 12.219
514 2 3.81856 31.2422 12.4074
515 2 8.11649 31.0848 12.3203
516 2 12.1066 30.9829 12.2842
517 2 15.8415 35.1933 12.4591
518 2 3.92608 34.9817 12.4401
519 2 7.81177 35.1331 12.3407
520 2 11.8229 35.2042 12.4772
521 2 15.8714 39.3601 12.5621
522 2 3.85697 39.1223 12.6038
523 2 7.75644 39.2376 12.5017
524 2 11.7304 39.1365 12.5918
525 2 15.7888 43.082 12.6577
526 2 3.86044 43.5688 12.5505
527 2 7.95228 43.2565 12.5919
528 2 11.9053 43.0277 12.6564
529 2 0.128952 47.209 12.8096
530 2 3.97421 47.21 12.587
531 2 8.09284 47.0985 12.7596
532 2 12.0946 47.0475 12.8053
533 2 15.7717 51.163 12.7523
534 2 3.99082 51.2277 12.6325
535 2 7.88129 51.1728 12.8788
536 2 11.963 51.2752 12.8791
537 2 0.0919946 55.3708 12.7113
538 2 3.99491 55.2602 12.752
539 2 7.92981 55.2617 12.7235
540 2 11.7453 55.2389 12.8793
541 2 0.0537497 59.3484 13.0637
542 2 4.07048 59.4464 12.8441
543 2 7.86661 59.371 12.8524
544 2 11.9489 59.1845 12.7211
545 2 -0.159255 63.3149 13.1621
546 2 3.97023 63.3225 13.1074
547 2 7.84617 63.1246 12.8701
548 2 11.7074 63.3396 12.984
549 2 15.7965 67.1393 13.0809
550 2 4.23523 67.291 13
551 2 7.95923 67.3193 13.1851
552 2 11.9387 67.2297 13.2057
553 2 16.0188 71.2629 13.1319
554 2 4.19828 71.4262 13.2873
555 2 8.15747 71.3829 13.0008
556 2 12.0317 71.2088 13.1176
557 2 15.8732 75.4307 13.1991
558 2 4.11888 75.2553 13.2631
559 2 8.17667 75.3419 13.2107
560 2 11.8927 75.2982 13.1693
561 2 15.9809 79.4685 13.2872
562 2 4.0475 79.3729 13.4326
563 2 8.12529 79.376 13.2712
564 2 11.9513 79.4648 13.3057
565 2 15.8397 83.5236 13.4232
566 2 3.95038 83.3785 13.1656
567 2 8.03995 83.441 13.3881
568 2 11.9513 83.2801 13.2143
569 2 0.0461023 87.3363 13.4292
570 2 4.0631 87.2919 13.5911
571 2 8.05674 87.3851 13.5668
572 2 11.9862 87.6187 13.5633
573 2 15.7852 91.3576 13.5326
574 2 3.99679 91.436 13.5642
575 2 7.93559 91.3407 13.5861
576 2 11.9227 91.2329 13.4324
577 2 15.7994 95.3703 13.4775
578 2 3.98075 95.3186 13.5251
579 2 7.97063 95.4881 13.4546
580 2 11.963 95.3672 13.4996
581 2 15.8829 99.2119 13.3853
582 2 3.76821 99.3801 13.3412
583 2 7.92367 99.3933 13.5608
584 2 11.981 99.4378 13.3834
585 2 15.6208 103.221 13.4331
586 2 4.0333 103.236 13.3495
587 2 8.19343 103.247 13.3183
588 2 11.9984 103.407 13.3347
589 2 15.9237 107.156 13.1084
590 2 4.01766 106.947 13.3945
591 2 7.97359 107.212 13.1763
592 2 11.8585 107.073 13.3072
593 2 16.0139 110.992 13.3239
594 2 4.04953 111.011 13.3108
595 2 7.94568 111.047 13.2585
596 2 12.061 110.916 13.2129
597 2 0.0441669 114.987 13.2285
598 2 4.07022 114.814 13.1858
599 2 7.86295 114.929 13.1758
600 2 11.9287 114.849 13.2271
601 2 0.00996427 119.009 13.2325
602 2 4.06246 118.944 13.1173
603 2 7.93421 118.795 13.135
604 2 11.8737 119.017 13.2196
605 2 0.0645948 122.868 13.1242
606 2 3.85671 122.764 13.0713
607 2 7.85619 122.833 12.9972
608 2 11.9572 122.733 13.1424
609 2 -0.105473 126.715 13.0349
610 2 3.74169 126.683 13.0936
611 2 7.74727 126.683 13.1937
612 2 11.6395 126.483 13.0989
613 2 -0.0562553 130.565 13.0369
614 2 3.70725 130.625 12.8904
615 2 7.81828 130.614 13.0717
616 2 11.9079 130.577 13.0015
617 2 -0.0568692 134.533 12.8043
618 2 3.72518 134.4 12.9445
619 2 7.69814 134.499 13.0124
620 2 11.6512 134.402 12.9238
621 2 15.7836 138.399 12.8667
622 2 3.92315 138.39 12.822
623 2 8.08162 138.634 12.8645
624 2 11.6884 138.488 12.7468
625 2 0.0412332 142.404 12.8355
626 2 4.13293 142.12 12.8354
627 2 7.83642 142.401 12.7664
628 2 11.913 142.198 12.8329
629 2 15.6961 146.223 12.5886
630 2 3.86093 146.257 12.5583
631 2 7.94103 146.169 12.7646
632 2 11.7537 146.158 12.6079
633 2 15.7626 150.231 12.69
634 2 3.98695 150.048 12.8076
635 2 7.89746 150.166 12.7419
636 2 11.7891 150.104 12.664
637 2 15.7239 154.06 12.7657
638 2 3.84203 154.077 12.687
639 2 7.99237 154.075 12.6197
640 2 11.8727 154.098 12.5768
641 2 0.160757 157.979 16.8264
642 2 3.94903 158.023 16.596
643 2 7.83035 158.012 16.7224
644 2 12.0209 157.973 16.6612
645 2 15.7634 3.49362 16.52
646 2 3.81526 3.59518 16.5459
647 2 7.95284 3.55346 16.5127
648 2 11.8089 3.46086 16.6491
649 2 15.627 7.40368 16.5775
650 2 4.06029 7.45388 16.578
651 2 7.89426 7.44511 16.5258
652 2 11.9502 7.31555 16.476
653 2 16.0461 11.5735 16.5399
654 2 3.98423 11.4164 16.4428
655 2 7.88839 11.1705 16.4309
656 2 11.9308 11.5561 16.5824
657 2 15.559 15.2981 16.5437
658 2 4.02652 15.259 16.4583
659 2 7.94885 15.1392 16.2977
660 2 11.9588 15.1529 16.4495
661 2 15.9608 19.044 16.3536
662 2 4.10084 19.1476 16.4548
663 2 7.95069 19.1116 16.4225
664 2 11.8868 19.1345 16.4815
665 2 0.0732967 22.9846 16.5638
666 2 4.11438 23.2254 16.3965
667 2 7.92962 23.0307 16.3903
668 2 11.9668 23.0985 16.3046
669 2 0.0217377 26.9952 16.0666
670 2 4.08489 27.1735 16.3139
671 2 7.87024 26.8676 16.3319
672 2 11.8164 27.0452 16.306
673 2 0.107708 31.0782 16.3504
674 2 4.13346 30.8512 16.0804
675 2 7.94 30.9921 16.0777
676 2 11.9816 31.1503 16.291
677 2 16.0668 35.1954 16.4178
678 2 3.95519 34.9109 16.4101
679 2 7.88016 35.0227 16.4266
680 2 11.8316 34.9892 16.2839
681 2 -0.166432 39.3367 16.4543
682 2 4.04383 38.9263 16.2795
683 2 7.97682 38.9435 16.378
684 2 11.7983 38.9582 16.4096
685 2 0.0180321 42.9064 16.5173
686 2 4.01132 43.1295 16.5311
687 2 7.89932 43.0719 16.3903
688 2 11.793 43.1659 16.5635
689 2 15.9652 47.1295 16.5814
690 2 3.95104 47.1976 16.6108
691 2 7.94341 47.1764 16.5776
692 2 11.7765 47.2785 16.7469
693 2 15.89 51.2646 16.7201
694 2 3.92452 51.0787 16.5657
695 2 7.80836 51.1803 16.6647
696 2 11.8414 51.2026 16.8442
697 2 0.0280335 55.2495 16.9003
698 2 4.12062 55.1434 16.7389
699 2 7.83336 55.2181 16.767
700 2 11.8745 55.0959 16.6346
701 2 0.0471605 59.2682 16.7473
702 2 4.03321 59.2547 16.963
703 2 7.97974 59.1364 16.7349
704 2 11.8981 59.0285 16.9102
705 2 0.0700271 63.1173 16.964
706 2 4.0235 62.9957 16.9206
707 2 8.20873 63.1234 16.8543
708 2 11.9217 63.1088 17.0343
709 2 15.8881 67.0445 16.8929
710 2 4.10556 67.2907 16.7761
711 2 8.016 67.2425 16.9357
712 2 11.9896 67.3458 16.9513
713 2 15.9216 71.3607 17.1009
714 2 3.96757 71.3241 16.9537
715 2 7.96296 71.4292 17.1213
716 2 12.0242 71.3094 17.207
717 2 15.9422 75.3549 17.116
718 2 4.02575 75.3699 17.0223
719 2 8.24522 75.2621 17.1102
720 2 12.0577 75.2477 17.1059
721 2 15.7664 79.4469 17.1984
722 2 3.98817 79.4848 17.1163
723 2 7.90882 79.3731 17.1364
724 2 11.8915 79.3811 17.1748
725 2 0.0907389 83.3299 17.2287
726 2 4.02781 83.5271 17.4985
727 2 7.94143 83.4045 17.2166
728 2 11.9835 83.4591 17.5124
729 2 16.0211 87.4973 17.227
730 2 3.9653 87.356 17.2894
731 2 8.01071 87.4256 17.4304
732 2 11.9289 87.3303 17.4894
733 2 0.0505741 91.349 17.5478
734 2 4.06298 91.5395 17.484
735 2 8.10735 91.445 17.4381
736 2 11.9463 91.6285 17.284
737 2 -0.0203494 95.2869 17.3019
738 2 4.05484 95.405 17.3459
739 2 7.85686 95.372 17.5147
740 2 11.9145 95.3703 17.4843
741 2 0.183827 99.4664 17.5224
742 2 3.98284 99.5277 17.3892
743 2 7.95788 99.2858 17.4745
744 2 11.9886 99.2199 17.4752
745 2 0.17957 103.236 17.328
746 2 4.19859 103.314 17.6391
747 2 7.94652 103.412 17.4465
748 2 11.8763 103.313 17.4643
749 2 15.8809 107.189 17.2901
750 2 3.87936 107.073 17.1999
751 2 8.02234 107.264 17.1551
752 2 11.9875 107.244 17.3998
753 2 0.0860657 111.172 17.273
754 2 3.98215 111.011 17.2732
755 2 7.95361 111.099 17.362
756 2 11.9351 111.078 17.3704
757 2 0.139872 114.969 17.2429
758 2 4.01731 114.758 17.1127
759 2 7.86101 114.959 17.1953
760 2 11.8429 115.067 17.1199
761 2 15.7909 118.754 17.1462
762 2 3.82527 118.874 17.2962
763 2 7.79911 118.803 17.1226
764 2 11.6902 118.743 17.1733
765 2 -0.129989 122.62 17.1415
766 2 4.00454 122.622 17.2574
767 2 7.9333 122.794 17.3849
768 2 11.8237 122.651 16.9757
769 2 -0.182424 126.567 17.1191
770 2 3.82888 126.815 17.0496
771 2 7.82533 126.701 17.0135
772 2 11.8088 126.669 16.9372
773 2 15.6523 130.528 17.1432
774 2 3.83147 130.582 17.153
775 2 8.04168 130.731 17.1527
776 2 11.92 130.594 17.0269
777 2 -0.10475 134.549 16.9253
778 2 3.84644 134.535 16.82
779 2 7.75464 134.653 17.0001
780 2 11.6329 134.507 17.0076
781 2 15.6231 138.311 16.9381
782 2 3.6745 138.519 16.8272
783 2 7.87941 138.525 16.869
784 2 11.959 138.474 16.8429
785 2 -0.175089 142.212 16.7551
786 2 3.72795 142.226 16.7904
787 2 7.63413 142.423 16.9439
788 2 11.7714 142.411 16.9226
789 2 -0.214718 146.247 16.6907
790 2 3.97437 146.439 16.6828
791 2 7.94317 146.104 16.8493
792 2 11.8473 146.298 16.6646
793 2 15.7944 150.361 16.7848
794 2 3.72674 150.135 16.6355
795 2 7.76707 150.279 16.736
796 2 11.6937 150.14 16.7198
797 2 -0.00484469 154.035 16.5428
798 2 3.89106 154.093 16.6044
799 2 7.77313 154.168 16.5656
800 2 11.876 154.084 16.7963
801 2 -0.0382328 157.97 20.5941
802 2 3.99543 158.111 20.7171
803 2 7.99244 157.943 20.4595
804 2 11.765 157.991 20.721
805 2 -0.110414 3.69387 20.5602
806 2 3.89062 3.66385 20.6844
807 2 7.68755 3.46579 20.5379
808 2 11.7605 3.52218 20.6767
809 2 -0.0773494 7.46861 20.5879
810 2 3.94594 7.69458 20.6051
811 2 7.87113 7.48621 20.4171
812 2 11.7936 7.58712 20.636
813 2 -0.0529354 11.3433 20.5519
814 2 4.08176 11.4977 20.4866
815 2 7.92371 11.4465 20.6078
816 2 11.8096 11.3301 20.558
817 2 15.8829 15.416 20.5696
818 2 4.00403 15.4448 20.4415
819 2 7.81381 15.3807 20.4869
820 2 12.0561 15.3248 20.5721
821 2 0.161199 19.3799 20.6021
822 2 4.0255 19.1387 20.3755
823 2 8.01696 19.1804 20.5412
824 2 11.8822 19.1558 20.4775
825 2 0.17288 23.2511 20.2621
826 2 4.06294 23.05 20.4854
827 2 7.94397 23.3693 20.3972
828 2 11.9886 23.0898 20.4779
829 2 15.8485 26.8787 20.3034
830 2 3.96317 26.9974 20.2084
831 2 7.9826 27.0507 20.4133
832 2 12.161 26.9559 20.2144
833 2 15.8243 30.8085 20.2582
834 2 4.12282 30.9737 20.113
835 2 8.09632 31.0033 20.2625
836 2 11.9143 31.0634 20.3009
837 2 0.10528 34.9605 20.2532
838 2 3.99454 34.8999 20.4583
839 2 7.93105 34.9952 20.3046
840 2 11.9977 34.9029 20.2128
841 2 15.6298 38.898 20.2447
842 2 3.90081 38.8746 20.3274
843 2 7.94002 38.9964 20.366
844 2 11.7039 39.1276 20.4123
845 2 16.0572 43.078 20.5431
846 2 3.94854 42.9995 20.2965
847 2 7.81566 42.8325 20.3464
848 2 11.7371 42.9473 20.2859
849 2 -0.150892 46.9526 20.4005
850 2 4.29034 47.091 20.51
851 2 7.93266 47.0317 20.4461
852 2 11.6114 47.1015 20.5396
853 2 15.8789 51.0154 20.4662
854 2 3.98612 51.0315 20.3911
855 2 7.74129 51.1904 20.6584
856 2 11.9258 51.1162 20.644
857 2 15.8955 55.0538 20.5544
858 2 4.02481 55.0231 20.7072
859 2 8.09355 55.1224 20.6304
860 2 11.9624 55.0756 20.6706
861 2 15.882 59.2072 20.6668
862 2 3.97404 59.0646 20.8819
863 2 7.8997 59.333 20.6733
864 2 11.7746 59.0302 20.7481
865 2 15.8402 63.1778 20.7851
866 2 3.87586 63.2278 20.6911
867 2 7.99812 63.1572 20.7281
868 2 11.8661 63.375 20.9462
869 2 15.9315 67.3747 20.8428
870 2 3.98239 67.057 20.9158
871 2 7.96423 67.2552 20.6332
872 2 11.8733 67.3379 20.5875
873 2 0.11368 71.1239 20.859
874 2 4.13475 71.1855 20.9321
875 2 8.03369 71.1661 20.9955
876 2 12.0727 71.2832 21.0586
877 2 15.879 75.3105 21.0331
878 2 4.10441 75.3096 21.092
879 2 7.97903 75.3251 21.0885
880 2 11.9024 75.2913 21.0882
881 2 16.0099 79.2976 21.1599
882 2 3.91542 79.2603 20.9731
883 2 7.90778 79.3548 21.1335
884 2 12.0383 79.4446 21.143
885 2 0.0506244 83.398 21.0773
886 2 4.08166 83.3386 21.2976
887 2 7.96887 83.2883 21.0407
888 2 11.87 83.2911 21.3213
889 2 -0.0278266 87.516 21.1712
890 2 3.86775 87.3476 21.5007
891 2 7.68681 87.3901 21.1482
892 2 12.0182 87.4398 21.4213
893 2 0.0322042 91.4611 21.4929
894 2 3.92938 91.333 21.1182
895 2 8.05011 91.3234 21.2824
896 2 11.9197 91.3588 21.3812
897 2 -0.0260233 95.5007 21.4685
898 2 4.0257 95.4197 21.5583
899 2 8.00262 95.4076 21.4123
900 2 12.0422 95.3853 21.519
901 2 15.8079 99.2504 21.3044
902 2 4.07928 99.2136 21.4265
903 2 8.03749 99.4201 21.588
904 2 11.8566 99.1548 21.4945
905 2 15.7321 103.336 21.2621
906 2 3.80849 103.342 21.3696
907 2 7.93228 103.169 21.5627
908 2 11.7768 103.181 21.3487
909 2 15.7366 107.168 21.4093
910 2 3.76565 107.296 21.2282
911 2 7.84601 107.258 21.4146
912 2 11.927 107.292 21.3088
913 2 15.9303 111.161 21.4037
914 2 3.85102 110.966 21.3524
915 2 7.8999 111.213 21.5181
916 2 11.9372 111.254 21.3229
917 2 15.8144 115.049 21.1997
918 2 3.96346 115.039 21.3413
919 2 7.89447 115.018 21.1911
920 2 11.8414 114.817 21.3799
921 2 15.708 118.832 21.1308
922 2 3.90043 118.88 21.2821
923 2 7.82358 118.811 21.3489
924 2 11.7744 118.856 21.2655
925 2 0.0300136 122.62 21.2031
926 2 3.91681 122.755 21.1108
927 2 8.02406 122.802 21.1545
928 2 11.7724 122.674 21.0927
929 2 15.6528 126.484 21.2561
930 2 3.81537 126.582 21.0339
931 2 7.83488 126.987 21.1555
932 2 11.7494 126.634 21.2796
933 2 -0.0667125 130.647 21.1851
934 2 3.99605 130.732 21.2084
935 2 7.804 130.584 20.9806
936 2 11.9017 130.694 20.9715
937 2 -0.0870264 134.656 21.0643
938 2 3.79563 134.591 20.917
939 2 7.8136 134.496 21.2207
940 2 11.7325 134.674 21.0842
941 2 15.6936 138.391 20.9493
942 2 3.80585 138.55 20.9371
943 2 7.79084 138.307 20.8837
944 2 11.8698 138.584 20.9068
945 2 15.7838 142.606 20.9638
946 2 3.62658 142.303 20.8407
947 2 7.73684 142.256 21.0331
948 2 11.6582 142.429 20.7676
949 2 15.516 146.321 20.7794
950 2 3.76064 146.303 21.0101
951 2 7.84469 146.212 20.8006
952 2 11.6627 146.202 20.7171
953 2 -0.196088 150.095 20.6844
954 2 4.06085 150.244 20.6636
955 2 7.74134 150.039 20.7561
956 2 11.8706 150.248 20.7547
957 2 -0.19408 154.2 20.6161
958 2 3.8689 154.029 20.8225
959 2 8.03538 154.225 20.7389
960 2 11.8535 154.063 20.5783
961 2 15.783 -0.164221 24.727
962 2 3.8474 158.128 24.4786
963 2 8.02202 157.996 24.6858
964 2 11.7358 158.181 24.6177
965 2 0.0769749 3.70865 24.6807
966 2 3.92816 3.64017 24.8043
967 2 7.7929 3.74058 24.6911
968 2 11.8451 3.70624 24.643
969 2 0.0397739 7.49938 24.4986
970 2 3.86597 7.61302 24.7531
971 2 8.04424 7.47747 24.4312
972 2 11.8208 7.6218 24.5138
973 2 15.8298 11.5649 24.5761
974 2 4.00579 11.5685 24.712
975 2 7.87285 11.4639 24.5535
976 2 11.8605 11.4471 24.6252
977 2 15.7791 15.3326 24.5521
978 2 3.98249 15.4163 24.5562
979 2 7.828 15.3257 24.5488
980 2 11.7968 15.3963 24.4808
981 2 0.294852 19.3748 24.4364
982 2 4.13089 19.3857 24.645
983 2 8.0959 19.4472 24.3802
984 2 12.0448 19.3459 24.3984
985 2 0.0316784 23.3707 24.4619
986 2 3.9873 23.1578 24.5787
987 2 8.05275 23.2523 24.1623
988 2 12.0325 23.2653 24.3617
989 2 0.0176714 27.1642 24.4288
990 2 3.84471 27.1657 24.4599
991 2 7.8879 27.0178 24.4192
992 2 12.0564 27.3402 24.227
993 2 0.241788 31.0283 24.2437
994 2 4.04438 31.0027 24.1779