ITEM: TIMESTEP
15200
ITEM: NUMBER OF ATOMS
32000
ITEM: BOX BOUNDS xy xz yz pp pp pp
0.0000000000000000e+00 1.5832000000000001e+01 0.0000000000000000e+00
0.0000000000000000e+00 1.5831999999999999e+02 0.0000000000000000e+00
8.1890250399877118e-01 1.6015821549600000e+02 0.0000000000000000e+00
ITEM: ATOMS id type x y z
1 2 15.8753 157.623 159.665
2 2 3.99221 157.7 159.812
3 2 7.97199 157.653 159.855
4 2 11.7508 157.845 159.833
5 2 -0.111086 3.3072 159.773
6 2 3.92698 3.21983 159.644
7 2 7.90073 3.25762 159.785
8 2 11.931 3.2246 159.813
9 2 15.8913 7.16855 159.644
10 2 4.12639 7.00154 159.637
11 2 8.04181 7.02382 159.803
12 2 11.7859 7.21304 159.778
13 2 0.0979474 11.174 159.892
14 2 4.1109 11.2117 159.916
15 2 7.99971 10.9265 159.764
16 2 12.036 11.223 159.66
17 2 0.1178 15.1989 159.87
18 2 3.90218 15.0686 159.715
19 2 7.91604 15.0367 159.813
20 2 11.7774 15.1113 160.01
21 2 -0.0384189 19.2133 159.941
22 2 4.05726 19.3215 159.743
23 2 7.99893 18.8913 159.604
24 2 11.8854 19.2117 159.787
25 2 15.6409 23.1565 160.114
26 2 3.99145 23.245 159.865
27 2 7.81835 23.1936 159.943
28 2 11.6394 23.2117 159.92
29 2 -0.065174 27.0733 160.014
30 2 4.01178 27.3564 159.938
31 2 7.82156 27.1913 159.899
32 2 11.7562 27.0917 159.977
33 2 -0.0247444 31.1425 160.083
34 2 4.21725 31.315 159.976
35 2 8.07578 31.0908 160.038
36 2 11.8741 31.3859 160.22
37 2 15.6543 35.4579 0.702141
38 2 3.91801 35.2073 160.02
39 2 7.77357 35.362 159.94
40 2 11.7075 35.278 160.03
41 2 0.101465 39.398 0.647536
42 2 3.98105 39.5073 0.777953
43 2 7.77925 39.4923 160.147
44 2 11.7091 39.3376 160.109
45 2 15.8004 43.3945 0.739089
46 2 3.79782 43.5401 0.932902
47 2 7.59242 43.4558 0.86832
48 2 11.8796 43.4269 160.258
49 2 -0.0537131 47.4744 0.820381
50 2 3.65487 47.5735 0.900492
51 2 7.95347 47.3916 0.975066
52 2 11.8103 47.3112 0.984401
53 2 -0.0591007 51.4413 1.10192
54 2 3.84983 51.4625 0.976915
55 2 7.90726 51.3453 1.02097
56 2 11.8998 51.469 1.08591
57 2 15.6198 55.5606 1.12395
58 2 3.99414 55.5389 1.05792
59 2 7.77438 55.609 1.12877
60 2 11.8184 55.465 1.17691
61 2 15.6628 59.3538 1.18686
62 2 3.73231 59.4538 1.09614
63 2 7.74984 59.782 1.21468
64 2 11.5796 59.4918 1.09451
65 2 -0.197232 63.4567 1.19734
66 2 3.70429 63.287 1.13547
67 2 7.90616 63.599 1.25875
68 2 11.8394 63.3456 1.19756
69 2 16.0612 67.6325 1.4676
70 2 3.99191 67.5414 1.25822
71 2 7.9994 67.4754 1.36331
72 2 11.9123 67.4868 1.28019
73 2 16.0519 71.5923 1.3782
74 2 4.29403 71.6723 1.45924
75 2 8.29315 71.4886 1.49682
76 2 12.2207 71.6501 1.61506
77 2 0.398883 75.7703 1.54765
78 2 4.1642 75.6235 1.55409
79 2 8.07429 75.5335 1.40548
80 2 12.1601 75.4957 1.51103
81 2 0.165461 79.7351 1.81228
82 2 4.20249 79.6567 1.65966
83 2 8.14377 79.5228 1.50844
84 2 12.2273 79.3693 1.44409
85 2 0.0562071 83.5839 1.66312
86 2 3.97022 83.4284 1.73087
87 2 8.16421 83.6426 1.57394
88 2 11.8774 83.5919 1.65471
89 2 15.9122 87.3617 1.51255
90 2 3.85735 87.4548 1.47351
91 2 7.81007 87.668 1.42287
92 2 11.9681 87.4773 1.64298
93 2 15.8869 91.2573 1.46572
94 2 3.97452 91.3585 1.60662
95 2 7.9519 91.4663 1.51904
96 2 11.9016 91.4295 1.60651
97 2 0.00456772 95.2867 1.45823
98 2 4.02033 95.3325 1.40929
99 2 7.80501 95.2229 1.47113
100 2 11.8988 95.3617 1.4502
101 2 15.9711 99.2 1.26829
102 2 4.11795 99.3282 1.31548
103 2 8.11273 99.2365 1.26689
104 2 11.7849 99.1088 1.35653
105 2 -0.0168242 102.905 1.14977
106 2 4.04087 103.187 1.36857
107 2 8.1114 103.121 1.25521
108 2 11.8814 103.011 1.17394
109 2 15.8925 106.837 1.25028
110 2 4.00573 107.025 0.979617
111 2 8.01873 107.107 1.11853
112 2 12.0071 106.764 0.993021
113 2 15.9669 110.734 1.2869
114 2 4.18715 110.959 1.28312
115 2 8.14675 110.923 1.00553
116 2 11.9431 110.72 1.03476
117 2 0.173747 114.738 1.10568
118 2 4.17792 114.799 1.02408
119 2 8.04624 114.915 1.05596
120 2 11.9833 115.01 0.985785
121 2 16.0212 118.632 0.998664
122 2 4.10172 118.717 0.88082
123 2 8.08233 118.579 1.02265
124 2 11.7471 118.674 1.16063
125 2 15.9101 122.511 0.987575
126 2 4.16558 122.473 1.03534
127 2 8.05219 122.656 0.971738
128 2 12.09 122.416 0.866942
129 2 -0.121952 126.503 0.576315
130 2 3.82919 126.413 0.692788
131 2 7.9868 126.412 0.914457
132 2 12.1412 126.53 0.793789
133 2 15.885 130.45 0.87427
134 2 3.84652 130.364 0.805952
135 2 7.72743 130.309 0.790843
136 2 11.717 130.263 160.334
137 2 0.157381 134.381 0.668632
138 2 3.98546 134.183 0.719942
139 2 7.78631 134.26 0.665594
140 2 11.609 134.405 0.885946
141 2 0.0126601 138.055 0.802389
142 2 4.00276 138.248 160.041
143 2 7.82345 138.123 160.018
144 2 11.8611 138.209 160.091
145 2 15.9226 141.95 0.655157
146 2 3.94218 141.946 159.935
147 2 7.88903 141.965 159.96
148 2 11.9122 142.148 159.995
149 2 -0.030152 146.01 159.815
150 2 3.93341 145.851 159.987
151 2 7.83746 146.022 159.996
152 2 11.644 145.917 159.976
153 2 0.033061 149.849 160.105
154 2 3.75361 149.784 159.837
155 2 7.8082 149.979 160.053
156 2 11.7604 149.753 159.864
157 2 -0.101349 153.743 159.896
158 2 4.15223 153.866 159.816
159 2 8.04722 153.857 159.949
160 2 11.7964 153.675 159.667
161 2 15.9182 157.74 4.42797
162 2 4.05016 157.87 4.47656
163 2 7.99362 157.773 4.62091
164 2 11.9391 157.651 4.57144
165 2 -0.0452044 3.27281 4.39886
166 2 3.95725 3.44445 4.51344
167 2 7.79191 3.38088 4.48566
168 2 11.9908 3.31385 4.59406
169 2 -0.189039 7.32099 4.61919
170 2 3.83809 7.25069 4.49236
171 2 7.85533 7.20504 4.38095
172 2 11.7191 7.12913 4.42181
173 2 -0.0540978 11.0256 4.0588
174 2 3.94309 10.9471 4.34993
175 2 7.91998 11.0831 4.41139
176 2 11.9333 11.1998 4.41202
177 2 0.0476651 15.0831 4.45906
178 2 3.83667 15.0186 4.47931
179 2 7.87213 15.1081 4.28811
180 2 11.9657 15.2279 4.26397
181 2 0.194757 19.1425 4.59574
182 2 4.12097 19.0388 4.42714
183 2 7.83344 18.9631 4.6085
184 2 11.9347 19.0675 4.59891
185 2 -0.158584 23.0132 4.67893
186 2 3.99162 23.0581 4.42388
187 2 7.79407 23.0724 4.47557
188 2 11.6921 23.2215 4.53255
189 2 15.8935 27.0604 4.39859
190 2 3.99595 27.1753 4.6219
191 2 7.89349 27.1979 4.50536
192 2 11.925 27.287 4.603
193 2 15.8326 31.1559 4.55012
194 2 3.71022 31.2005 4.53492
195 2 8.03771 31.2884 4.32432
196 2 11.7459 31.3395 4.61347
197 2 15.7316 35.2255 4.71935
198 2 3.97653 35.1098 4.60353
199 2 7.64264 35.3337 4.75281
200 2 11.7606 35.2909 4.58364
201 2 16.0087 39.1919 4.5856
202 2 3.83036 39.3493 4.59249
203 2 7.8397 39.4118 4.58341
204 2 11.9603 39.2997 4.64309
205 2 -0.197266 43.2386 4.79918
206 2 3.71067 43.3513 5.02884
207 2 7.62499 43.3151 4.67303
208 2 11.6949 43.3569 4.87572
209 2 -0.100975 47.5641 4.80095
210 2 3.74783 47.5872 4.78743
211 2 7.75974 47.3098 4.76289
212 2 11.7436 47.2761 5.01721
213 2 0.0373228 51.4639 4.94631
214 2 3.83985 51.4631 4.731
215 2 7.74925 51.4386 4.83533
216 2 11.5898 51.6004 5.01225
217 2 15.7944 55.4012 4.97696
218 2 3.91091 55.6192 5.07501
219 2 7.696 55.4882 5.13142
220 2 11.8147 55.3474 4.93289
221 2 -0.134075 59.4498 5.094
222 2 3.79487 59.5976 5.03621
223 2 7.75694 59.4451 5.09201
224 2 11.7019 59.4593 4.90968
225 2 15.8101 63.66 4.8274
226 2 3.92384 63.2864 5.03485
227 2 7.96364 63.5497 5.10323
228 2 12.0192 63.5833 5.04309
229 2 15.8774 67.4225 5.4507
230 2 4.11409 67.4343 5.01535
231 2 8.05346 67.3995 5.17669
232 2 11.8616 67.4945 5.30216
233 2 15.9574 71.475 5.10905
234 2 3.98691 71.5402 5.22982
235 2 8.3269 71.6261 5.50229
236 2 11.9621 71.4843 5.35644
237 2 16.3061 75.6077 5.26821
238 2 4.06821 75.4055 5.38637
239 2 8.08503 75.572 5.47933
240 2 12.254 75.3994 5.5197
241 2 15.9341 79.5205 5.648
242 2 4.21523 79.6237 5.23841
243 2 8.04569 79.5469 5.59313
244 2 11.9952 79.5593 5.56118
245 2 0.0147456 83.4241 5.7047
246 2 4.0627 83.8438 5.50734
247 2 7.9017 83.7339 5.50394
248 2 11.8484 83.5962 5.56906
249 2 -0.116792 87.5178 5.52855
250 2 4.07776 87.3725 5.63871
251 2 8.0643 87.6519 5.56082
252 2 11.827 87.4479 5.70137
253 2 15.895 91.3816 5.45983
254 2 3.91233 91.368 5.70041
255 2 7.81512 91.5171 5.36137
256 2 11.7304 91.5512 5.53101
257 2 15.8024 95.2554 5.55347
258 2 4.15053 95.4007 5.43533
259 2 8.01093 95.3775 5.58067
260 2 11.75 95.3834 5.39461
261 2 16.0294 99.1671 5.44916
262 2 4.02927 99.2837 5.39717
263 2 7.99067 99.1674 5.37407
264 2 11.822 99.3457 5.56327
265 2 15.9074 103.031 5.3151
266 2 4.02881 103.188 5.32237
267 2 7.93229 103.259 5.22256
268 2 11.8541 103.034 5.36637
269 2 -0.144498 106.991 5.20295
270 2 3.90171 106.821 5.09127
271 2 7.91263 106.978 5.27888
272 2 11.8262 106.927 5.13586
273 2 15.935 110.944 5.06791
274 2 4.00521 110.891 5.07633
275 2 8.0145 111.048 5.22118
276 2 11.9167 110.97 5.2906
277 2 15.8756 114.9 5.23306
278 2 3.90033 114.776 5.0181
279 2 7.93837 114.889 5.18684
280 2 11.964 114.673 5.08462
281 2 0.00115526 118.611 4.9614
282 2 4.02114 118.651 5.03239
283 2 8.16657 118.757 5.15433
284 2 11.8758 118.743 5.08653
285 2 15.9358 122.422 5.00424
286 2 3.7615 122.739 4.82353
287 2 7.94208 122.602 5.20695
288 2 11.993 122.569 4.97636
289 2 -0.28554 126.408 4.91912
290 2 3.76076 126.538 4.84132
291 2 7.94071 126.465 4.96406
292 2 11.7826 126.451 4.75097
293 2 15.8158 130.597 4.91983
294 2 3.64035 130.386 4.89641
295 2 7.80739 130.369 4.85605
296 2 11.7469 130.667 4.98964
297 2 -0.00842574 134.416 4.92219
298 2 3.91346 134.373 4.88064
299 2 7.74651 134.234 4.79649
300 2 11.78 134.363 4.58035
301 2 -0.0163726 138.143 4.72085
302 2 3.74375 138.174 4.74452
303 2 7.88557 138.094 4.89739
304 2 11.691 138.32 4.65485
305 2 -0.0627304 142.194 4.56176
306 2 4.01061 142.048 4.75211
307 2 7.93629 142.071 4.84697
308 2 11.9225 142.186 4.78089
309 2 15.8085 146.051 4.58797
310 2 3.85027 145.904 4.7862
311 2 7.81653 146.076 4.57861
312 2 11.8188 146.093 4.51973
313 2 15.8883 150.002 4.67179
314 2 3.90965 149.972 4.61669
315 2 7.77886 149.923 4.72223
316 2 11.8621 150.064 4.7501
317 2 -0.121913 153.762 4.50397
318 2 3.9021 153.887 4.52623
319 2 7.84697 153.924 4.60318
320 2 11.8462 153.831 4.55139
321 2 -0.132279 157.902 8.65313
322 2 4.0882 157.849 8.67095
323 2 7.92616 157.969 8.55093
324 2 11.8322 157.876 8.68843
325 2 -0.0342907 3.47721 8.48702
326 2 3.84735 3.5046 8.6279
327 2 7.93139 3.58979 8.521
328 2 12.0754 3.39231 8.42353
329 2 15.7992 7.45263 8.39034
330 2 3.96356 7.49571 8.51776
331 2 7.98865 7.23131 8.42867
332 2 11.8922 7.32884 8.43906
333 2 0.179447 11.1305 8.57786
334 2 4.1441 11.2029 8.33615
335 2 8.0358 11.3205 8.36637
336 2 11.9199 11.0831 8.44184
337 2 0.0594388 14.9738 8.28634
338 2 4.06092 14.8776 8.4075
339 2 8.13427 15.0798 8.4214
340 2 12.0635 15.1586 8.07729
341 2 15.9866 19.0182 8.31318
342 2 4.1683 19.0847 8.43749
343 2 8.08241 19.1175 8.40314
344 2 11.9193 19.1257 8.35034
345 2 15.8772 22.98 8.48243
346 2 4.01148 23.2901 8.23465
347 2 8.10262 23.1992 8.4498
348 2 12.1581 23.0638 8.38359
349 2 0.0321588 26.8779 8.32616
350 2 4.15341 27.0413 8.57905
351 2 7.9125 27.1861 8.41399
352 2 11.9576 27.1393 8.46738
353 2 0.0222523 31.1442 8.38437
354 2 3.81252 31.0541 8.54301
355 2 7.87073 31.3123 8.42053
356 2 11.9294 30.9547 8.39807
357 2 15.8205 35.0711 8.58446
358 2 4.10074 35.0847 8.49941
359 2 8.01153 35.1098 8.53776
360 2 11.7588 35.3237 8.66607
361 2 0.0558954 39.1988 8.53239
362 2 3.88792 39.2427 8.6659
363 2 7.78832 39.1826 8.69147
364 2 11.8497 39.2069 8.55884
365 2 15.8591 43.3407 8.49996
366 2 4.04991 43.2358 8.66775
367 2 7.92178 43.3179 8.61824
368 2 11.9223 43.3789 8.57541
369 2 15.6282 47.398 8.86194
370 2 4.00338 47.1773 8.94753
371 2 7.9774 47.3738 8.55449
372 2 11.994 47.3355 8.81024
373 2 15.7313 51.1496 8.88107
374 2 3.89865 51.5486 8.76904
375 2 7.86512 51.2974 8.82
376 2 11.8127 51.1678 9.06973
377 2 -0.085204 55.3158 8.83291
378 2 3.81734 55.3923 8.77636
379 2 7.93468 55.3473 8.98989
380 2 11.8542 55.0858 8.917
381 2 -0.252715 59.5443 8.91462
382 2 3.93471 59.3794 8.90572
383 2 7.98474 59.2852 8.89229
384 2 12.0008 59.2081 8.99283
385 2 15.6699 63.352 8.94251
386 2 4.03743 63.3849 8.94353
387 2 7.92763 63.2935 9.05204
388 2 11.8836 63.4052 9.00545
389 2 15.8658 67.2035 9.20179
390 2 3.87542 67.405 9.07995
391 2 7.9917 67.6588 9.02301
392 2 11.995 67.2903 9.30642
393 2 16.0564 71.2235 9.10049
394 2 4.14198 71.2594 9.24241
395 2 8.15349 71.3938 9.33584
396 2 12.119 71.427 9.13293
397 2 16.1139 75.5293 9.21657
398 2 4.10526 75.3527 9.36811
399 2 7.90632 75.4592 9.251
400 2 12.0832 75.486 9.36822
401 2 16.0676 79.495 9.38656
402 2 4.07378 79.3552 9.40067
403 2 7.96741 79.5708 9.33069
404 2 12.0735 79.4239 9.59605
405 2 16.0387 83.2094 9.34475
406 2 4.12441 83.4716 9.60648
407 2 7.92884 83.4008 9.33279
408 2 11.857 83.5426 9.48877
409 2 0.147245 87.4276 9.49307
410 2 4.05825 87.5557 9.64588
411 2 7.9644 87.5787 9.64984
412 2 11.9042 87.4542 9.51294
413 2 0.0930588 91.3622 9.42801
414 2 4.06773 91.5198 9.64774
415 2 7.87711 91.3435 9.69128
416 2 11.9757 91.4562 9.55072
417 2 0.0117425 95.309 9.43484
418 2 3.98396 95.2293 9.57372
419 2 7.86763 95.2795 9.59114
420 2 11.9672 95.4504 9.48042
421 2 -0.0329512 99.1872 9.19482
422 2 4.08938 99.2698 9.35161
423 2 7.94656 99.0661 9.38995
424 2 11.9417 99.2658 9.4953
425 2 15.8395 103.31 9.28926
426 2 3.97506 103.139 9.48968
427 2 7.94275 103.216 9.1805
428 2 12.0024 103.075 9.30764
429 2 0.238753 107.063 9.16174
430 2 3.96751 107.041 9.21156
431 2 7.99927 107.239 9.30416
432 2 11.8386 107.12 9.35661
433 2 15.7489 110.96 9.16899
434 2 4.07517 110.99 9.19764
435 2 7.79269 110.993 9.13799
436 2 12.0187 110.97 9.2354
437 2 15.7764 115.006 9.04602
438 2 4.00426 114.929 9.21072
439 2 7.8099 114.805 9.13511
440 2 11.8177 114.841 9.16462
441 2 -0.0272128 118.789 9.16471
442 2 4.10568 118.93 9.06218
443 2 7.85403 118.642 8.90475
444 2 11.7494 118.781 9.10591
445 2 15.6839 122.624 8.97588
446 2 4.05378 122.762 8.97648
447 2 7.72132 122.776 8.96909
448 2 11.9103 122.709 9.07536
449 2 15.6417 126.709 8.88524
450 2 3.7883 126.544 9.00626
451 2 7.89437 126.619 8.9924
452 2 11.7687 126.564 8.97974
453 2 15.7171 130.504 8.93338
454 2 3.69381 130.464 8.95132
455 2 7.8111 130.513 8.85601
456 2 11.6779 130.504 8.83512
457 2 -0.270768 134.158 8.73613
458 2 4.05528 134.512 8.96226
459 2 7.73204 134.439 8.96764
460 2 11.9067 134.509 8.98213
461 2 -0.183533 138.345 8.80383
462 2 3.8177 138.325 8.80908
463 2 7.92254 138.361 8.81088
464 2 11.6811 138.235 8.76576
465 2 -0.107297 142.304 8.53944
466 2 4.00132 142.084 8.89439
467 2 7.84873 142.141 8.9021
468 2 11.7824 142.146 8.58873
469 2 -0.0662844 146.274 8.81855
470 2 3.76298 146.15 8.91454
471 2 7.75653 146.192 8.72004
472 2 11.5881 146.161 8.75765
473 2 15.6457 149.997 8.70783
474 2 3.84988 149.836 8.72975
475 2 7.8378 150.141 8.70016
476 2 11.7433 150.063 8.6294
477 2 -0.141558 153.909 8.47789
478 2 3.84325 153.906 8.69242
479 2 7.80444 153.973 8.44302
480 2 11.7592 153.992 8.63819
481 2 15.7087 157.999 12.7263
482 2 3.87239 157.891 12.5126
483 2 7.81478 157.925 12.6684
484 2 11.7864 157.913 12.5081
485 2 -0.097894 3.70287 12.4423
486 2 3.87404 3.54514 12.6478
487 2 7.94416 3.17671 12.5858
488 2 11.961 3.63501 12.7027
489 2 -0.0632842 7.4397 12.4629
490 2 4.02792 7.41963 12.3107
491 2 7.8109 7.20083 12.4941
492 2 11.8301 7.42367 12.5986
493 2 0.0900066 11.4006 12.6005
494 2 4.06353 11.3025 12.5606
495 2 8.10225 11.1939 12.4032
496 2 11.9124 11.3939 12.6258
497 2 0.283436 15.2229 12.2285
498 2 4.16081 15.0959 12.4302
499 2 8.10221 15.1381 12.2324
500 2 12.0349 15.3 12.1153
501 2 -0.0797604 19.0107 12.2256
502 2 3.90015 19.1776 12.5592
503 2 8.13912 19.1616 12.3982
504 2 12.1256 19.1752 12.5053
505 2 -0.0451245 22.9993 12.193
506 2 3.83597 22.8969 12.1462
507 2 8.10938 23.1385 12.2844
508 2 11.8736 22.9451 12.4234
509 2 16.0829 27.1625 12.431
510 2 4.129 26.9798 12.5541
511 2 8.06707 27.1717 12.4056
512 2 11.9604 27.0555 12.1706
513 2 15.7752 31.1364 12.384
514 2 4.01249 30.9354 12.2086
515 2 7.95237 31.1893 12.4912
516 2 11.8463 31.1088 12.6051
517 2 15.7038 35.056 12.2606
518 2 3.863 35.1926 12.5024
519 2 8.06261 35.0229 12.3299
520 2 11.8917 34.9812 12.434
521 2 15.7501 38.934 12.6424
522 2 3.87861 39.2952 12.4801
523 2 7.76269 39.0701 12.6388
524 2 11.8039 39.2368 12.3544
525 2 15.7875 43.2982 12.5418
526 2 4.01652 43.0642 12.444
527 2 7.93794 43.3541 12.6256
528 2 11.7298 43.3299 12.4365
529 2 -0.228003 47.1594 12.6575
530 2 3.98529 47.2796 12.686
531 2 7.7726 47.4913 12.4861
532 2 11.6202 47.3341 12.6353
533 2 15.9324 51.282 12.8091
534 2 3.92245 51.3132 12.8701
535 2 7.91626 51.3025 12.662
536 2 11.8 51.3386 13.0273
537 2 -0.00942369 55.3081 12.9815
538 2 3.94022 55.4245 12.8161
539 2 7.69605 55.2507 12.9411
540 2 11.8782 55.2658 12.821
541 2 0.0185038 59.2464 12.8686
542 2 3.87585 59.1813 12.9158
543 2 7.98575 59.2495 12.8851
544 2 11.9123 59.415 12.9705
545 2 0.257823 63.2921 12.9529
546 2 4.08532 63.1779 12.8592
547 2 8.01945 63.3971 13.019
548 2 12.0646 63.2984 13.0244
549 2 16.0735 67.4015 13.1034
550 2 3.95927 67.2586 13.0741
551 2 7.98921 67.4038 12.8208
552 2 11.8284 67.4766 13.1116
553 2 16.0401 71.3151 12.9645
554 2 4.12648 71.4 13.1343
555 2 8.0414 71.394 13.2036
556 2 12.0288 71.4219 13.1666
557 2 16.0241 75.2212 13.1051
558 2 3.92762 75.4121 13.1996
559 2 7.99327 75.504 13.3479
560 2 12.0562 75.3787 13.1961
561 2 15.9102 79.4525 13.2197
562 2 3.98861 79.4375 13.3454
563 2 8.01911 79.52 13.4112
564 2 12.1844 79.5384 13.1562
565 2 16.0577 83.3228 13.3001
566 2 4.14787 83.4337 13.4574
567 2 7.83089 83.4038 13.6577
568 2 11.8436 83.6194 13.598
569 2 0.102023 87.5165 13.5004
570 2 3.96423 87.4265 13.2999
571 2 7.94411 87.4401 13.4373
572 2 12.0275 87.0772 13.3147
573 2 16.1632 91.4148 13.3862
574 2 4.09257 91.4163 13.3677
575 2 8.05787 91.559 13.5468
576 2 11.9543 91.5549 13.3982
577 2 15.82 95.347 13.5361
578 2 4.02034 95.399 13.5338
579 2 8.05008 95.3542 13.5682
580 2 11.9091 95.469 13.4209
581 2 16.0119 99.4815 13.546
582 2 4.26134 99.2415 13.5874
583 2 8.19172 99.3413 13.3122
584 2 12.0636 99.2946 13.4008
585 2 16.0245 103.408 13.131
586 2 4.11473 103.188 13.3354
587 2 7.99032 103.149 13.2554
588 2 12.0382 103.289 13.0857
589 2 15.8628 107.241 13.4354
590 2 3.89317 107.17 13.3097
591 2 7.92253 106.987 13.3966
592 2 12.0048 107.254 13.3249
593 2 15.8431 111.284 13.1119
594 2 4.06102 111.031 13.1765
595 2 8.01533 110.994 13.3471
596 2 11.9749 111.142 13.2655
597 2 -0.0207626 114.943 13.2832
598 2 3.7742 115.072 13.2425
599 2 7.93781 114.962 13.2776
600 2 11.8036 115.018 13.1832
601 2 0.0719835 118.757 13.187
602 2 3.98074 118.8 13.2412
603 2 7.90165 118.89 13.2002
604 2 12.0035 118.8 13.0497
605 2 -0.0971536 122.778 13.153
606 2 3.87067 122.865 13.1599
607 2 7.85447 122.794 13.1159
608 2 11.6955 122.588 12.8189
609 2 -0.0290363 126.551 13.2352
610 2 3.74953 126.574 12.8506
611 2 7.77199 126.653 13.0086
612 2 11.8206 126.816 13.0509
613 2 -0.205807 130.536 12.9794
614 2 3.76812 130.445 12.9228
615 2 7.91462 130.456 12.8753
616 2 11.7409 130.489 13.014
617 2 -0.179887 134.344 13.0841
618 2 3.88446 134.561 12.9391
619 2 7.82825 134.313 12.868
620 2 11.8707 134.389 12.9492
621 2 15.7307 138.426 12.9372
622 2 3.73733 138.437 12.9441
623 2 7.70046 138.314 12.8883
624 2 11.8832 138.182 12.9669
625 2 -0.0952312 142.229 12.8048
626 2 3.69439 142.52 12.8554
627 2 7.86766 142.246 12.9099
628 2 11.8941 142.266 12.6716
629 2 15.8223 146.228 12.8877
630 2 3.94742 146.212 12.9706
631 2 7.86237 146.151 12.7419
632 2 11.8888 145.963 12.5604
633 2 15.6323 150.031 12.6752
634 2 3.92045 150.205 12.6959
635 2 7.9742 150.08 12.7615
636 2 11.7791 150.126 12.6485
637 2 15.7703 153.945 12.6121
638 2 3.9522 153.998 12.7055
639 2 7.68145 154.039 12.7032
640 2 11.5842 154.008 12.5466
641 2 -0.123666 157.928 16.4957
642 2 3.95289 157.801 16.673
643 2 7.93959 157.984 16.6053
644 2 11.784 157.921 16.6852
645 2 15.8283 3.58667 16.6885
646 2 3.90945 3.51758 16.6475
647 2 7.83392 3.58795 16.537
648 2 11.8518 3.47704 16.4769
649 2 15.8634 7.46728 16.5595
650 2 3.99876 7.43186 16.5149
651 2 7.96551 7.48202 16.6312
652 2 11.758 7.48356 16.5922
653 2 15.737 11.1572 16.3977
654 2 3.97817 11.2297 16.5376
655 2 8.19692 11.3916 16.5374
656 2 11.9378 11.2177 16.5369
657 2 16.089 15.2394 16.4208
658 2 3.83969 15.2211 16.441
659 2 7.78347 15.1997 16.4521
660 2 11.8568 15.3131 16.5239
661 2 15.9402 19.1422 16.3637
662 2 4.17131 19.1621 16.2815
663 2 8.22173 19.1669 16.2526
664 2 12.0168 19.1303 16.4985
665 2 -0.013885 23.0569 16.0985
666 2 3.9272 22.9649 16.3623
667 2 7.95124 23.0688 16.3152
668 2 11.9405 23.0297 16.371
669 2 0.00824824 27.0277 16.439
670 2 3.93716 26.7762 16.2489
671 2 7.88251 27.1308 16.2986
672 2 11.8783 26.9867 16.2406
673 2 -0.0105558 31.0172 16.3705
674 2 3.85625 31.0512 16.3902
675 2 7.81571 31.0659 16.3697
676 2 11.6332 30.8237 16.3362
677 2 15.6676 34.9468 16.1643
678 2 3.93992 34.9759 16.3836
679 2 7.7889 35.1747 16.4232
680 2 11.8538 34.9813 16.4345
681 2 -0.0487144 39.0058 16.3825
682 2 3.99612 39.1726 16.5287
683 2 7.90331 39.0775 16.4865
684 2 11.8287 39.1569 16.3125
685 2 0.065112 43.3993 16.4348
686 2 3.90755 43.1937 16.4839
687 2 7.70261 43.1305 16.524
688 2 11.8807 43.1138 16.4354
689 2 15.7811 47.1347 16.6287
690 2 4.09881 47.0326 16.5828
691 2 7.88739 47.0559 16.6055
692 2 12.0928 47.0232 16.5904
693 2 15.8975 51.2013 16.5714
694 2 3.90548 51.319 16.6793
695 2 7.89695 51.1158 16.7148
696 2 11.8592 51.0686 16.5926
697 2 -0.0508922 55.1683 16.6572
698 2 3.77579 55.2782 16.921
699 2 8.01398 55.1895 16.8176
700 2 11.9223 55.1903 16.8615
701 2 0.0899947 59.134 16.8992
702 2 4.20242 59.1312 16.6946
703 2 8.20423 59.2819 16.8681
704 2 11.9798 59.241 16.743
705 2 -0.0632739 63.2162 16.9754
706 2 4.02464 63.5007 16.913
707 2 7.81879 63.3279 16.9655
708 2 12.0403 63.3453 16.8677
709 2 15.9734 67.3072 17.0301
710 2 4.06895 67.3172 17.0676
711 2 8.04172 67.4072 16.8661
712 2 12.006 67.2862 16.864
713 2 16.0404 71.1443 16.9683
714 2 4.24669 71.3642 17.2384
715 2 7.95655 71.2611 17.0256
716 2 12.0472 71.4088 16.9681
717 2 15.6727 75.2175 17.1664
718 2 4.10197 75.2944 17.1546
719 2 7.94635 75.4538 17.2533
720 2 11.9206 75.4092 17.0166
721 2 15.9271 79.3218 17.0679
722 2 3.88593 79.1955 17.2489
723 2 8.00047 79.2445 17.1783
724 2 12.0797 79.3702 17.175
725 2 0.0264409 83.6115 17.4646
726 2 4.05599 83.2868 17.1526
727 2 8.15159 83.4634 17.573
728 2 12.0158 83.489 17.1666
729 2 15.9921 87.5276 17.3351
730 2 4.17677 87.6386 17.4298
731 2 7.89865 87.4803 17.3577
732 2 11.8721 87.5251 17.2502
733 2 0.0224694 91.5011 17.3923
734 2 4.14037 91.4193 17.2426
735 2 8.03596 91.5243 17.4997
736 2 11.9735 91.1505 17.2878
737 2 0.0101377 95.4203 17.6028
738 2 3.9548 95.4121 17.5805
739 2 8.0397 95.4712 17.3433
740 2 11.9795 95.4365 17.2535
741 2 0.310156 99.2022 17.2178
742 2 4.27818 99.2898 17.4835
743 2 8.01558 99.313 17.445
744 2 11.9271 99.4969 17.3107
745 2 -0.108211 103.238 17.4592
746 2 4.02233 103.19 17.2905
747 2 7.971 103.264 17.4311
748 2 11.8602 103.2 17.2636
749 2 16.0429 107.185 17.3803
750 2 4.10988 106.94 17.4544
751 2 8.09798 107.15 17.4848
752 2 11.9142 107.016 17.2915
753 2 0.0713801 111.04 17.2594
754 2 4.13315 110.853 17.2853
755 2 7.99523 111.071 17.353
756 2 11.9398 111.092 17.2868
757 2 -0.0150755 114.959 17.3691
758 2 3.91774 115.019 17.4974
759 2 7.93535 114.82 17.28
760 2 11.9644 114.986 17.2286
761 2 15.8162 118.847 17.3128
762 2 3.95603 118.942 17.1225
763 2 7.68315 118.929 17.0958
764 2 11.7647 119.008 17.0551
765 2 -0.0164088 122.796 17.2287
766 2 3.85973 122.809 17.1886
767 2 7.75358 122.732 17.0343
768 2 11.707 122.756 17.2812
769 2 -0.176092 126.651 17.1236
770 2 3.92586 126.714 17.0749
771 2 7.85286 126.605 17.0153
772 2 11.7238 126.67 17.2134
773 2 15.8231 130.495 17.0929
774 2 4.00531 130.65 16.9808
775 2 7.62642 130.456 16.9316
776 2 11.5851 130.49 17.127
777 2 -0.106637 134.423 17.1077
778 2 3.88552 134.497 16.9527
779 2 7.77831 134.508 16.8566
780 2 11.8896 134.447 16.8963
781 2 15.8044 138.371 16.9119
782 2 3.98887 138.372 16.9949
783 2 7.73135 138.464 16.8408
784 2 11.6251 138.392 16.9708
785 2 -0.139819 142.497 16.8866
786 2 3.88247 142.619 16.9763
787 2 8.07303 142.358 16.8647
788 2 11.7586 142.377 16.8242
789 2 -0.110243 146.417 16.7516
790 2 3.79621 146.156 16.8777
791 2 7.86989 146.366 16.7884
792 2 11.8273 146.369 16.6013
793 2 15.6903 150.072 16.6317
794 2 3.93668 150.112 16.8812
795 2 7.93085 150.088 16.7495
796 2 11.8339 150.31 16.6501
797 2 -0.120926 154.119 16.8084
798 2 3.88792 153.929 16.6073
799 2 7.91384 154.057 16.7954
800 2 11.823 154.139 16.5892
801 2 0.0864732 158.17 20.733
802 2 3.97168 157.988 20.6606
803 2 7.70568 158.084 20.7691
804 2 11.9574 158.153 20.6406
805 2 0.0555802 3.50942 20.7163
806 2 3.81562 3.63809 20.5379
807 2 7.90577 3.65988 20.5988
808 2 11.9232 3.63955 20.5108
809 2 -0.106975 7.60523 20.5588
810 2 3.9489 7.43965 20.5765
811 2 7.83643 7.54867 20.7757
812 2 11.8336 7.55451 20.6221
813 2 0.0393422 11.3872 20.5877
814 2 3.78444 11.4467 20.5593
815 2 7.80869 11.3628 20.4871
816 2 11.8426 11.696 20.5856
817 2 15.9246 15.185 20.5082
818 2 4.03812 15.2128 20.3674
819 2 8.0267 15.2833 20.4658
820 2 11.8515 15.4634 20.5125
821 2 -0.0417837 19.1815 20.2895
822 2 4.00985 19.1295 20.4973
823 2 8.03495 19.3863 20.2636
824 2 12.0867 19.3288 20.4661
825 2 0.0757228 23.0121 20.3013
826 2 4.01277 23.051 20.1788
827 2 8.02541 22.9337 20.5092
828 2 11.9925 23.2656 20.2172
829 2 15.9584 27.213 20.2605
830 2 3.95555 26.9979 20.3961
831 2 8.10285 26.8465 20.2494
832 2 11.8178 27.1756 20.2921
833 2 15.9858 31.0903 20.1428
834 2 4.02793 31.0345 20.1405
835 2 7.80114 30.8039 20.3141
836 2 11.8093 30.9294 20.1042
837 2 -0.0428366 34.9858 20.4266
838 2 3.87697 35.078 20.1674
839 2 8.15073 34.854 20.3994
840 2 11.9323 34.932 20.3217
841 2 15.9361 39.0936 20.2117
842 2 3.88812 39.1393 20.2367
843 2 7.9155 38.8677 20.3272
844 2 12.1738 39.0581 20.2431
845 2 15.7173 42.93 20.3826
846 2 3.96196 42.9902 20.5448
847 2 8.04323 43.0497 20.3815
848 2 11.8185 43.061 20.4753
849 2 0.0159975 47.1958 20.4522
850 2 3.76163 47.0008 20.5594
851 2 8.01346 46.984 20.6841
852 2 12.0638 47.0118 20.4757
853 2 15.7924 51.0665 20.6111
854 2 4.05651 51.1115 20.6128
855 2 8.1708 50.9273 20.4696
856 2 11.8363 51.1664 20.8501
857 2 15.8801 55.1981 20.7962
858 2 4.0443 55.2681 20.6964
859 2 7.87223 55.0182 20.7356
860 2 11.933 55.0892 20.6191
861 2 15.9477 59.0566 20.8604
862 2 4.14307 59.2754 20.5041
863 2 7.87934 59.1514 20.7743
864 2 11.9989 59.0798 20.7475
865 2 15.7957 63.0925 20.8008
866 2 3.90183 63.0767 20.8961
867 2 7.9708 63.2822 20.8662
868 2 11.8749 63.1082 20.8432
869 2 15.887 67.2957 20.9573
870 2 4.10999 67.22 20.941
871 2 7.97297 67.2276 20.9527
872 2 11.8469 67.1362 20.9007
873 2 0.135251 71.4865 20.8845
874 2 3.80253 71.2372 21.1228
875 2 7.92991 71.4038 20.9361
876 2 11.8413 71.1878 20.92
877 2 16.1488 75.3296 20.9952
878 2 4.11959 75.2628 21.1232
879 2 7.92232 75.3355 21.1284
880 2 11.8354 75.2504 21.0471
881 2 15.9197 79.3232 21.184
882 2 4.23337 79.2735 21.1069
883 2 8.21675 79.2494 21.1947
884 2 11.8933 79.253 21.0827
885 2 0.0548671 83.3187 21.1498
886 2 4.0372 83.325 21.1045
887 2 7.99827 83.3829 21.3119
888 2 12.0248 83.3696 21.2159
889 2 0.0926445 87.2943 21.1206
890 2 3.96564 87.4155 21.2391
891 2 8.05529 87.2758 21.3516
892 2 11.8815 87.2924 21.3384
893 2 -0.133449 91.592 21.0183
894 2 4.06116 91.3897 21.3636
895 2 7.87721 91.4569 21.3466
896 2 11.7222 91.468 21.235
897 2 0.0341546 95.3777 21.3536
898 2 3.99151 95.3905 21.3576
899 2 8.10715 95.5993 21.4072
900 2 11.8477 95.6845 21.3408
901 2 15.9799 99.3797 21.4497
902 2 3.99981 99.3656 21.4301
903 2 7.98145 99.3544 21.4005
904 2 11.889 99.6065 21.3546
905 2 15.7884 103.278 21.4624
906 2 3.99328 103.204 21.5571
907 2 7.95501 103.512 21.4514
908 2 12.054 103.361 21.4128
909 2 15.8901 107.318 21.381
910 2 4.04527 107.136 21.4891
911 2 8.01052 107.219 21.4723
912 2 11.8699 107.33 21.3387
913 2 15.7098 111.15 21.2997
914 2 3.96907 111.231 21.4462
915 2 7.75479 110.953 21.2498
916 2 11.89 111.118 21.2985
917 2 15.8062 115.067 21.3537
918 2 3.98367 114.883 21.3855
919 2 7.86189 114.961 21.391
920 2 11.8086 115.186 21.2566
921 2 15.8819 118.941 21.3886
922 2 3.9933 118.801 21.3264
923 2 7.99141 118.83 21.1883
924 2 11.7383 118.727 21.2593
925 2 -0.153216 122.858 21.0561
926 2 4.054 122.962 21.1519
927 2 7.80258 122.845 21.2882
928 2 11.8464 122.699 21.2996
929 2 15.9449 126.842 20.9831
930 2 3.86463 126.758 21.2554
931 2 7.83717 126.578 20.9433
932 2 11.7583 126.614 20.9956
933 2 -0.22384 130.641 21.0029
934 2 3.61713 130.612 20.9841
935 2 7.92387 130.656 21.115
936 2 11.6329 130.737 21.2239
937 2 -0.0873507 134.478 20.951
938 2 3.97837 134.595 20.8918
939 2 7.83511 134.667 20.798
940 2 11.7875 134.69 20.9345
941 2 15.7102 138.674 20.8981
942 2 3.72925 138.536 20.9449
943 2 7.9404 138.499 20.9804
944 2 11.7696 138.526 21.033
945 2 15.6394 142.295 20.8738
946 2 3.90134 142.455 20.8856
947 2 7.72396 142.419 20.6427
948 2 11.8331 142.453 20.9838
949 2 15.8213 146.405 20.857
950 2 3.74427 146.252 20.5348
951 2 7.75813 146.374 20.8349
952 2 11.9612 146.425 20.9926
953 2 0.0231645 150.38 20.7921
954 2 3.82904 150.079 20.8185
955 2 7.82089 150.393 20.5943
956 2 11.562 150.119 20.7486
957 2 0.073449 154.152 20.7942
958 2 3.89435 154.14 20.688
959 2 7.59817 154.036 20.6578
960 2 11.6905 154.075 20.8343
961 2 15.7797 -0.259501 24.6517
962 2 3.92106 158.119 24.8435
963 2 7.75444 158.084 24.6939
964 2 11.864 157.96 24.6128
965 2 -0.135127 3.61428 24.6317
966 2 3.97317 3.86775 24.5313
967 2 8.02419 3.42074 24.5422
968 2 11.8278 3.6946 24.5577
969 2 -0.0348526 7.59837 24.5771
970 2 4.03376 7.60825 24.4918
971 2 7.93144 7.58221 24.7492
972 2 11.8224 7.58371 24.7713
973 2 15.9324 11.3852 24.7351
974 2 3.94887 11.4497 24.6752
975 2 7.81526 11.3708 24.7021
976 2 12.0368 11.5205 24.5527
977 2 15.8053 15.5504 24.6378
978 2 3.84056 15.3703 24.5866
979 2 8.05036 15.326 24.5706
980 2 11.805 15.3726 24.6463
981 2 -0.0018421 19.2852 24.3981
982 2 4.08882 19.0363 24.2682
983 2 8.0452 19.2019 24.459
984 2 12.0108 19.3405 24.5109
985 2 0.17383 23.1776 24.4166
986 2 4.04272 23.1496 24.3235
987 2 8.10146 23.2799 24.6347
988 2 12.0103 23.3692 24.4454
989 2 0.11033 27.2325 24.1596
990 2 3.88332 27.0815 24.0821
991 2 7.77683 27.1053 24.2805
992 2 12.0464 27.2013 24.3206
993 2 0.0884724 31.2202 24.2639
994 2 4.06381 30.9976 24.3064