ITEM: TIMESTEP
15400
ITEM: NUMBER OF ATOMS
32000
ITEM: BOX BOUNDS xy xz yz pp pp pp
0.0000000000000000e+00 1.5832000000000001e+01 0.0000000000000000e+00
0.0000000000000000e+00 1.5831999999999999e+02 0.0000000000000000e+00
7.9394447444821026e-01 1.6018317352555090e+02 0.0000000000000000e+00
ITEM: ATOMS id type x y z
1 2 15.6033 157.875 159.895
2 2 3.9297 157.735 159.91
3 2 7.98416 157.737 159.843
4 2 11.9215 157.784 159.919
5 2 0.0196384 3.42347 159.735
6 2 4.04025 3.34147 159.885
7 2 7.86599 3.51609 159.807
8 2 11.9655 3.32828 159.844
9 2 15.8018 7.34653 159.612
10 2 3.83962 7.44572 159.885
11 2 7.81803 7.38655 159.787
12 2 11.9475 7.28114 159.686
13 2 -0.161385 11.0985 159.783
14 2 3.85726 11.239 159.792
15 2 8.05312 11.0589 159.742
16 2 11.8444 11.1326 159.722
17 2 0.109312 14.9781 159.921
18 2 3.86164 15.0541 159.674
19 2 7.96737 15.3548 159.785
20 2 12.0225 15.0489 159.807
21 2 -0.139746 19.0476 159.727
22 2 3.68594 19.2504 160.116
23 2 7.7123 19.303 160.008
24 2 11.9263 19.1649 159.873
25 2 15.9317 23.3331 159.726
26 2 3.93445 23.3444 159.844
27 2 7.76845 23.1748 160.048
28 2 12.0436 23.2217 159.97
29 2 0.172121 27.5254 160.037
30 2 3.90454 27.3195 159.906
31 2 7.99524 27.2519 160.109
32 2 11.8528 27.2048 160.157
33 2 -0.0208522 31.2218 159.953
34 2 3.87541 31.3122 160.029
35 2 7.71845 31.2626 160.118
36 2 11.7369 31.244 159.913
37 2 15.9493 35.2826 0.755321
38 2 3.91411 35.2706 160.069
39 2 7.89164 35.318 160.142
40 2 12.0051 35.2988 160.035
41 2 -0.199847 39.3878 0.92769
42 2 3.92613 39.1622 0.71749
43 2 7.87855 39.351 159.983
44 2 11.7169 39.4314 160.107
45 2 15.7485 43.5468 0.797338
46 2 4.00852 43.193 0.800465
47 2 7.95119 43.2611 0.763862
48 2 11.8735 43.5406 160.031
49 2 0.0576614 47.4276 0.837463
50 2 3.99663 47.442 1.02739
51 2 8.00315 47.5161 0.846446
52 2 11.7685 47.2859 0.605856
53 2 0.00767236 51.3846 1.07352
54 2 3.89509 51.304 1.01625
55 2 7.77718 51.4914 0.972231
56 2 11.7736 51.4077 0.943167
57 2 15.8503 55.5295 0.998385
58 2 3.97067 55.4404 1.11078
59 2 7.95744 55.4318 0.802305
60 2 11.8713 55.346 1.02757
61 2 15.933 59.4148 1.06533
62 2 4.03115 59.323 1.224
63 2 8.11042 59.3392 1.15284
64 2 12.0659 59.5524 1.14368
65 2 0.380933 63.3954 1.34141
66 2 4.18519 63.6374 1.41458
67 2 8.1959 63.3142 1.24364
68 2 11.9096 63.4842 1.34599
69 2 15.9338 67.4801 1.11229
70 2 4.1609 67.6054 1.35626
71 2 8.2907 67.5818 1.24617
72 2 12.1219 67.603 1.34049
73 2 16.16 71.6941 1.4973
74 2 3.91984 71.5423 1.36085
75 2 8.0382 71.5978 1.28077
76 2 12.0678 71.5742 1.15882
77 2 0.189993 75.4455 1.49151
78 2 4.12219 75.5312 1.42371
79 2 7.92159 75.6349 1.39508
80 2 12.0493 75.7114 1.54885
81 2 0.263163 79.4011 1.38177
82 2 3.93919 79.5128 1.55997
83 2 7.74143 79.5595 1.57288
84 2 12.1251 79.7583 1.2526
85 2 0.334934 83.5094 1.33325
86 2 3.9763 83.3323 1.56737
87 2 7.99699 83.4613 1.58108
88 2 12.1288 83.5379 1.56821
89 2 15.8166 87.3505 1.47572
90 2 4.11518 87.5452 1.4772
91 2 8.08783 87.2617 1.55699
92 2 11.9338 87.2942 1.53017
93 2 15.7118 91.3016 1.34588
94 2 3.9557 91.3455 1.46171
95 2 7.92753 91.3306 1.47782
96 2 11.7668 91.2433 1.60406
97 2 0.0758087 95.1569 1.3081
98 2 4.09914 95.0034 1.20681
99 2 7.98009 95.2622 1.37706
100 2 11.832 95.1812 1.28996
101 2 15.8801 99.0936 1.3164
102 2 3.76484 99.0078 1.30315
103 2 7.92001 99.0995 1.40604
104 2 11.9366 99.4061 1.29227
105 2 0.167867 103.145 1.24157
106 2 3.99448 102.964 1.33546
107 2 8.03121 103.001 1.36901
108 2 11.8113 103.099 1.13121
109 2 16.0376 106.942 1.12881
110 2 4.05816 106.932 1.29093
111 2 8.0124 106.814 1.31235
112 2 11.9908 106.865 1.15239
113 2 16.0105 111.011 1.03252
114 2 3.96842 110.818 0.997275
115 2 7.88543 110.733 1.20897
116 2 12.0056 110.725 1.00215
117 2 0.0703189 114.757 1.12501
118 2 3.88562 114.451 0.918177
119 2 8.09678 114.666 0.937408
120 2 12.0021 114.918 1.10039
121 2 16.0347 118.674 1.06835
122 2 3.89255 118.73 0.93852
123 2 7.91442 118.634 0.986464
124 2 11.9807 118.641 0.982892
125 2 15.8119 122.629 0.969843
126 2 3.84391 122.651 0.911491
127 2 8.00374 122.405 0.932006
128 2 11.9143 122.421 0.937515
129 2 0.195797 126.35 0.811477
130 2 3.9487 126.555 0.817512
131 2 7.89181 126.599 0.774771
132 2 11.8833 126.588 0.891141
133 2 16.024 130.253 0.839095
134 2 4.099 130.486 0.78715
135 2 8.16095 130.582 0.813393
136 2 11.8544 130.26 160.028
137 2 -0.0216151 134.411 0.787528
138 2 4.0086 134.342 0.801621
139 2 8.18131 134.538 0.793973
140 2 12.0101 134.516 0.75213
141 2 -0.0631777 138.329 0.65023
142 2 4.0011 138.213 160.16
143 2 8.02063 138.228 160.109
144 2 11.931 138.138 160.097
145 2 15.841 142.224 0.710804
146 2 3.99455 142.193 160.093
147 2 7.95045 142.205 160.144
148 2 11.9646 142.195 159.914
149 2 -0.0405838 146 160.068
150 2 3.83673 146.124 159.94
151 2 7.88103 145.959 159.849
152 2 11.936 145.953 159.982
153 2 0.0543361 149.883 159.844
154 2 3.97499 149.956 159.898
155 2 7.85806 150.016 159.846
156 2 11.8279 149.944 159.952
157 2 0.101419 154.049 159.863
158 2 3.7129 153.898 159.837
159 2 7.71069 153.851 159.859
160 2 11.9088 153.859 159.931
161 2 15.5325 157.909 4.59317
162 2 3.91319 157.705 4.53929
163 2 7.79875 157.705 4.42019
164 2 11.6499 157.812 4.53009
165 2 -0.0701054 3.43322 4.53506
166 2 3.99891 3.38872 4.43998
167 2 7.93503 3.40304 4.37649
168 2 11.6701 3.52413 4.37619
169 2 0.127826 7.14312 4.47624
170 2 4.17562 7.51832 4.42166
171 2 7.95647 7.43416 4.52861
172 2 12.027 7.26623 4.43396
173 2 0.237798 11.206 4.36141
174 2 4.02602 11.3659 4.35566
175 2 8.02392 11.1824 4.396
176 2 12.0348 11.1529 4.44147
177 2 -0.0357379 15.0512 4.41312
178 2 4.08355 15.2793 4.31312
179 2 7.97738 15.1962 4.35711
180 2 11.7362 15.0327 4.25498
181 2 -0.173554 19.2066 4.65378
182 2 3.84428 19.1499 4.40318
183 2 8.12122 19.2367 4.45991
184 2 11.8952 19.1923 4.47221
185 2 0.0518645 23.0533 4.38043
186 2 3.86671 23.3361 4.50248
187 2 7.88442 23.1586 4.5299
188 2 12.231 23.4008 4.42675
189 2 15.648 27.4802 4.76312
190 2 4.01135 27.173 4.36229
191 2 7.88929 27.0601 4.57187
192 2 11.8923 27.1084 4.27228
193 2 15.8965 31.1049 4.59353
194 2 3.96148 31.4679 4.66742
195 2 7.98961 31.2265 4.48187
196 2 11.6311 31.1971 4.48069
197 2 15.6907 35.331 4.4894
198 2 4.14227 35.4476 4.6412
199 2 7.9102 35.1519 4.5629
200 2 11.9464 35.093 4.57306
201 2 15.7511 39.4142 4.74473
202 2 3.80806 39.4164 4.65926
203 2 7.81715 39.2708 4.54415
204 2 11.7646 39.2986 4.76452
205 2 0.0927385 43.2415 4.82533
206 2 4.11529 43.2507 4.46463
207 2 7.97429 43.2317 4.86217
208 2 11.951 43.44 4.67217
209 2 0.0628169 47.3281 4.90775
210 2 4.20555 47.4328 4.76461
211 2 7.93867 47.2251 4.90454
212 2 11.9036 47.2327 4.85996
213 2 0.100031 51.3982 4.73619
214 2 3.99806 51.3774 4.97281
215 2 8.01546 51.5074 5.03811
216 2 11.9638 51.407 4.68191
217 2 15.8422 55.5159 4.98745
218 2 4.10586 55.2246 4.89763
219 2 8.03306 55.4895 5.00065
220 2 11.9195 55.3601 4.95704
221 2 0.0538414 59.5664 4.97252
222 2 4.19533 59.519 5.06335
223 2 8.03236 59.4672 5.03801
224 2 12.2121 59.4855 5.14296
225 2 15.9306 63.4035 5.1631
226 2 4.16106 63.4513 5.26723
227 2 8.07822 63.3561 5.00317
228 2 12.0827 63.5345 5.16512
229 2 15.9802 67.4537 5.01693
230 2 4.16237 67.5455 5.34408
231 2 8.16642 67.4373 5.22894
232 2 12.2247 67.4773 5.12425
233 2 16.1177 71.5507 5.39913
234 2 4.0029 71.6325 5.39609
235 2 8.15199 71.4899 5.0872
236 2 11.8154 71.5611 5.26306
237 2 15.8407 75.5127 5.3531
238 2 4.23264 75.7247 5.41545
239 2 7.99116 75.5478 5.45323
240 2 12.1319 75.5113 5.2955
241 2 16.0819 79.5153 5.28474
242 2 4.00405 79.5276 5.57379
243 2 8.24079 79.6382 5.62861
244 2 12.1065 79.7554 5.30749
245 2 0.31707 83.6079 5.56605
246 2 4.13104 83.4042 5.47829
247 2 8.06511 83.5719 5.54788
248 2 12.1597 83.3508 5.77192
249 2 0.024268 87.3485 5.412
250 2 3.86525 87.3569 5.58298
251 2 7.89815 87.2148 5.5572
252 2 11.8973 87.4478 5.57888
253 2 15.8801 91.4023 5.42267
254 2 3.96284 91.3652 5.53591
255 2 7.96051 91.2873 5.55695
256 2 11.8575 91.3144 5.52319
257 2 15.6722 95.4049 5.41294
258 2 3.88084 95.3104 5.45297
259 2 7.84806 95.3293 5.26689
260 2 11.9055 95.267 5.38876
261 2 15.5763 99.3482 5.37335
262 2 3.90988 99.2227 5.39705
263 2 7.97101 99.1976 5.31975
264 2 11.7766 99.1412 5.40167
265 2 15.952 103.24 5.43738
266 2 3.95743 103.228 5.28282
267 2 7.95112 103.005 5.39287
268 2 12.0974 103.224 5.30846
269 2 0.108123 107.216 5.11274
270 2 4.11462 107.098 5.36787
271 2 8.0882 106.794 5.15244
272 2 12.089 107.107 5.16614
273 2 15.949 110.801 5.15777
274 2 4.14649 110.969 5.17994
275 2 7.903 110.994 5.29321
276 2 11.8219 111.022 5.31006
277 2 15.8706 114.749 5.15057
278 2 4.12035 114.766 5.02611
279 2 7.84888 114.935 5.04687
280 2 11.8181 114.764 5.14639
281 2 -0.11808 118.911 4.88452
282 2 3.93726 118.7 5.06861
283 2 7.98931 118.539 4.90629
284 2 11.8014 118.865 5.1121
285 2 15.7187 122.849 4.79665
286 2 4.05039 122.569 4.96411
287 2 7.79702 122.602 4.90877
288 2 11.8283 122.669 4.90962
289 2 -0.0170468 126.628 5.13353
290 2 4.03796 126.569 5.11648
291 2 7.95763 126.697 4.74082
292 2 11.9377 126.436 4.89956
293 2 15.7883 130.236 4.68492
294 2 3.94511 130.642 4.7006
295 2 8.02924 130.478 4.65527
296 2 11.882 130.404 4.83253
297 2 -0.0523207 134.351 4.88925
298 2 3.84611 134.485 4.68397
299 2 7.8572 134.463 4.75199
300 2 11.8445 134.373 4.80444
301 2 0.0268264 138.321 4.63233
302 2 4.03111 138.184 4.66384
303 2 7.90792 138.41 4.79175
304 2 11.9122 138.28 4.77234
305 2 -0.0921416 142.075 4.64106
306 2 3.9087 142.279 4.64648
307 2 7.70482 142.255 4.58822
308 2 11.7346 141.988 4.74056
309 2 15.7603 146.12 4.73742
310 2 3.7833 146.337 4.50268
311 2 7.96574 146.106 4.66702
312 2 11.8604 146.107 4.48979
313 2 15.5394 149.976 4.43389
314 2 3.90733 149.941 4.47447
315 2 7.93097 150.065 4.60631
316 2 11.7282 150.043 4.55211
317 2 -0.0953621 153.764 4.52122
318 2 3.9352 153.673 4.4915
319 2 7.91194 153.832 4.60405
320 2 11.7771 153.931 4.57315
321 2 -0.0927458 157.928 8.57007
322 2 3.92662 157.887 8.56487
323 2 7.95206 157.587 8.37596
324 2 11.8545 157.665 8.50956
325 2 -0.175522 3.42414 8.4905
326 2 4.11172 3.36299 8.38009
327 2 7.79903 3.33633 8.54335
328 2 11.8091 3.38068 8.55769
329 2 15.8131 7.23852 8.25217
330 2 3.84808 7.07743 8.41449
331 2 7.93773 7.27941 8.46694
332 2 11.8698 7.25085 8.35097
333 2 0.0395212 11.2907 8.38763
334 2 3.83161 11.1756 8.49051
335 2 7.73233 11.2873 8.4359
336 2 11.8764 11.3425 8.47179
337 2 -0.0339413 15.2919 8.33983
338 2 3.94112 15.0915 8.36325
339 2 7.80583 14.981 8.29894
340 2 11.9319 15.3105 8.39353
341 2 15.6268 19.2303 8.34631
342 2 3.72138 18.926 8.16649
343 2 7.90376 19.1936 8.10192
344 2 11.7738 19.0934 8.31759
345 2 15.6902 23.1182 8.39327
346 2 3.83247 23.0394 8.35847
347 2 7.86129 23.0534 8.38656
348 2 11.7752 22.8435 8.43624
349 2 0.117296 27.4569 8.4136
350 2 3.85522 27.0486 8.41363
351 2 7.89275 27.1053 8.36281
352 2 11.8249 27.0651 8.49182
353 2 -0.135432 31.2625 8.52154
354 2 4.00328 31.4948 8.56131
355 2 7.90835 30.992 8.47197
356 2 11.8632 31.3337 8.5268
357 2 15.7131 35.2611 8.50256
358 2 3.66505 35.2071 8.41398
359 2 8.00162 35.1618 8.52225
360 2 11.8842 35.2534 8.68381
361 2 -0.0886802 39.3029 8.57175
362 2 3.9043 39.3656 8.4626
363 2 7.8774 39.2503 8.64236
364 2 11.8485 39.2208 8.64164
365 2 15.675 43.1482 8.61298
366 2 3.95083 43.2353 8.45706
367 2 7.75483 43.1198 8.70122
368 2 11.7072 43.4774 8.64561
369 2 15.6145 47.3247 8.68536
370 2 3.92565 47.1791 8.70018
371 2 7.96483 47.2118 8.89939
372 2 11.7199 47.2185 8.71372
373 2 15.7401 51.4493 8.68568
374 2 3.97752 51.34 9.01604
375 2 7.79947 51.3378 8.87608
376 2 11.7902 51.2656 8.83371
377 2 0.0372555 55.2682 9.10018
378 2 4.09019 55.2344 8.90414
379 2 8.07802 55.3945 8.94275
380 2 11.757 55.5838 8.74261
381 2 0.246324 59.3182 8.99877
382 2 4.03245 59.3202 9.00409
383 2 7.78844 59.4059 8.90048
384 2 12.095 59.3622 9.06491
385 2 16.1221 63.4424 9.14325
386 2 3.91649 63.4728 9.1476
387 2 8.01025 63.4282 9.15477
388 2 12.0235 63.5422 8.98841
389 2 15.9364 67.487 8.98882
390 2 4.13897 67.4705 9.20647
391 2 8.14365 67.469 9.27774
392 2 12.0319 67.4446 8.84532
393 2 15.8362 71.53 9.37451
394 2 3.9399 71.5389 9.41408
395 2 8.16588 71.405 9.15929
396 2 11.9627 71.3496 9.07147
397 2 15.9527 75.4724 9.43972
398 2 3.92388 75.5799 9.22768
399 2 8.11088 75.3301 9.15922
400 2 12.0891 75.5333 9.28368
401 2 15.9085 79.3319 9.56983
402 2 4.06428 79.6156 9.57802
403 2 8.0624 79.3798 9.3917
404 2 12.2263 79.596 9.10411
405 2 15.8928 83.615 9.64193
406 2 4.10921 83.4173 9.52257
407 2 8.18928 83.6806 9.58757
408 2 12.1787 83.6278 9.36484
409 2 0.0791158 87.7103 9.57009
410 2 4.1044 87.538 9.58421
411 2 7.78987 87.373 9.43553
412 2 11.8939 87.4998 9.48669
413 2 0.140597 91.5365 9.55858
414 2 4.00496 91.4175 9.62012
415 2 7.85302 91.4673 9.47079
416 2 11.7428 91.3229 9.44454
417 2 -0.0481786 95.1886 9.34168
418 2 4.10836 95.3814 9.3816
419 2 7.95785 95.4354 9.33681
420 2 11.812 95.403 9.48358
421 2 0.029716 99.4658 9.47863
422 2 4.04656 99.2287 9.28972
423 2 7.96633 99.3862 9.36485
424 2 11.8134 99.272 9.41079
425 2 15.9036 103.191 9.29373
426 2 3.93038 103.409 9.25864
427 2 8.03471 103.066 9.37192
428 2 11.909 103.277 9.23207
429 2 0.075617 107.06 9.30883
430 2 4.05265 106.958 9.30881
431 2 7.9116 107.114 9.23227
432 2 11.9404 107.087 9.33422
433 2 15.7846 110.994 9.46415
434 2 4.02529 111.128 9.20856
435 2 7.93389 110.971 9.22164
436 2 11.9056 111.036 9.17999
437 2 15.7619 114.895 8.92452
438 2 3.85024 114.813 8.9991
439 2 7.97713 114.978 9.14686
440 2 11.8963 114.89 9.11745
441 2 -0.204411 118.705 9.08017
442 2 3.77949 118.552 8.97761
443 2 7.94744 118.893 9.15367
444 2 11.9068 118.632 8.97917
445 2 15.7843 122.731 9.03425
446 2 3.88447 122.596 8.96312
447 2 7.77172 122.616 8.7458
448 2 11.7619 122.684 8.92472
449 2 15.9631 126.615 8.83018
450 2 4.14903 126.663 8.93708
451 2 7.94736 126.555 9.09204
452 2 11.6966 126.565 8.96625
453 2 15.8752 130.468 8.86252
454 2 3.86979 130.518 8.83254
455 2 7.89939 130.424 9.04232
456 2 11.865 130.495 9.00406
457 2 -0.129534 134.299 8.64139
458 2 3.98266 134.449 8.56916
459 2 7.85987 134.244 8.786
460 2 11.9282 134.34 8.56887
461 2 -0.0382101 138.225 8.93578
462 2 3.83483 138.248 8.8503
463 2 7.87709 138.121 8.61203
464 2 11.7841 138.371 8.82868
465 2 -0.133401 142.35 8.62981
466 2 3.81647 142.002 8.5823
467 2 7.84085 142.3 8.56803
468 2 11.7956 142.152 8.78333
469 2 -0.0340678 146.129 8.68687
470 2 3.9397 146.216 8.68019
471 2 7.87322 146.03 8.65568
472 2 11.8014 146.068 8.69304
473 2 15.895 150.013 8.6146
474 2 3.85244 150.14 8.61308
475 2 7.85869 149.967 8.63337
476 2 11.858 149.968 8.62138
477 2 -0.128109 153.742 8.44673
478 2 3.9829 154.003 8.52422
479 2 7.92824 153.819 8.63004
480 2 11.8623 153.757 8.54836
481 2 15.7065 157.744 12.4502
482 2 3.94055 157.906 12.4086
483 2 7.85024 157.862 12.6013
484 2 11.7237 157.836 12.6764
485 2 -0.0123979 3.38804 12.4968
486 2 3.96875 3.46037 12.6221
487 2 7.89624 3.55588 12.4088
488 2 11.7473 3.3209 12.5711
489 2 0.00488903 7.27006 12.466
490 2 3.80238 7.33164 12.4738
491 2 8.00223 7.47804 12.4553
492 2 11.9736 7.44711 12.4607
493 2 0.195409 10.9706 12.2949
494 2 3.80937 11.3504 12.2986
495 2 7.75651 11.2552 12.3813
496 2 11.8801 11.0958 12.444
497 2 -0.233471 15.1045 12.3893
498 2 3.91436 15.2196 12.2879
499 2 7.89489 15.3538 12.435
500 2 11.738 15.1599 12.2632
501 2 0.195459 19.1992 12.4657
502 2 3.88939 19.1766 12.1724
503 2 8.02687 18.9841 12.3163
504 2 11.9237 18.9786 12.2926
505 2 0.138363 23.0242 12.3525
506 2 3.99919 23.1084 12.3112
507 2 7.97367 22.9362 12.429
508 2 12.053 23.0271 12.1294
509 2 15.7457 26.901 12.2852
510 2 3.87608 27.0493 12.2277
511 2 7.77229 27.0409 12.3507
512 2 11.8168 26.9236 12.4998
513 2 15.6355 31.1739 12.3969
514 2 4.00411 31.1859 12.4647
515 2 8.03046 31.1393 12.4273
516 2 11.9568 31.2256 12.4087
517 2 15.7465 35.3065 12.5425
518 2 3.87402 35.15 12.4897
519 2 7.88932 35.13 12.3433
520 2 11.721 35.1117 12.4621
521 2 15.8026 39.1365 12.5428
522 2 3.99405 39.2828 12.492
523 2 7.84004 39.1941 12.3751
524 2 11.7545 39.0868 12.586
525 2 15.7507 43.2955 12.562
526 2 3.99254 43.2539 12.5589
527 2 7.86926 43.2971 12.6145
528 2 11.838 43.0648 12.6087
529 2 -0.111252 47.119 12.6029
530 2 3.97298 47.2688 12.633
531 2 8.09581 47.148 12.8023
532 2 12.1165 47.0713 12.5637
533 2 15.6828 51.2088 12.7604
534 2 3.92788 51.2083 12.6851
535 2 8.08868 51.0615 12.7021
536 2 12.0137 51.3056 12.67
537 2 0.122914 55.4411 12.8336
538 2 4.03994 55.3691 12.8456
539 2 8.02017 55.2153 12.7494
540 2 11.8547 55.2956 12.8613
541 2 0.115212 59.257 13.0169
542 2 4.08921 59.4438 12.9159
543 2 7.90968 59.3956 12.9837
544 2 12.0075 59.3459 12.7465
545 2 -0.157356 63.4717 12.8724
546 2 3.8907 63.4695 12.964
547 2 8.03131 63.251 12.8942
548 2 11.997 63.2698 12.8431
549 2 15.9155 67.3191 12.8721
550 2 4.12749 67.4724 12.9404
551 2 8.00994 67.3647 13.1938
552 2 11.9385 67.4162 13.073
553 2 15.8069 71.4361 13.0852
554 2 4.09888 71.3671 13.0919
555 2 7.97201 71.3843 12.984
556 2 11.8345 71.2466 13.2558
557 2 15.8806 75.574 13.3049
558 2 4.11302 75.366 13.2813
559 2 7.99955 75.2886 13.2287
560 2 11.8857 75.3435 13.2119
561 2 16.0288 79.5261 13.2641
562 2 4.14325 79.4493 13.255
563 2 8.05591 79.4411 13.4193
564 2 12.1297 79.3706 13.3406
565 2 15.9527 83.3641 13.4953
566 2 4.1042 83.449 13.1531
567 2 8.1217 83.4079 13.3147
568 2 12.0562 83.4636 13.2333
569 2 0.0379241 87.5739 13.5482
570 2 4.20335 87.5579 13.5169
571 2 8.18753 87.5398 13.4592
572 2 11.9677 87.6201 13.7045
573 2 15.9443 91.4129 13.5441
574 2 4.03678 91.4905 13.3412
575 2 7.92208 91.4782 13.4967
576 2 11.8234 91.6248 13.4847
577 2 15.9466 95.3514 13.3373
578 2 4.15343 95.3095 13.4591
579 2 7.94561 95.389 13.4629
580 2 11.8741 95.4199 13.4606
581 2 15.7239 99.1193 13.5056
582 2 3.91775 99.3297 13.3884
583 2 7.84318 99.4864 13.4755
584 2 11.8525 99.2639 13.3963
585 2 15.6035 103.191 13.4368
586 2 3.9895 103.308 13.446
587 2 8.0358 103.181 13.4478
588 2 11.8834 103.329 13.4208
589 2 15.9735 107.014 13.2082
590 2 3.89644 107.168 13.3457
591 2 7.89916 107.252 13.266
592 2 11.8825 107.076 13.322
593 2 15.7455 111.023 13.2269
594 2 3.93083 110.946 13.2396
595 2 7.91538 111.183 13.2034
596 2 11.8826 110.925 13.3239
597 2 -0.157435 114.905 13.2836
598 2 3.95388 114.985 13.1984
599 2 7.8388 115.077 13.1414
600 2 11.8464 114.801 13.2431
601 2 -0.141969 118.882 13.0376
602 2 3.90923 118.795 13.1183
603 2 7.80164 118.85 13.2171
604 2 11.8006 119.089 13.1533
605 2 0.0293873 122.861 13.0362
606 2 3.93034 122.781 13.1908
607 2 7.70552 122.651 12.9606
608 2 11.9443 122.666 12.9389
609 2 0.0789355 126.686 12.8877
610 2 3.89247 126.578 12.9239
611 2 7.84036 126.689 13.1399
612 2 11.6206 126.763 13.0304
613 2 -0.0604421 130.673 12.9022
614 2 3.94115 130.491 12.8926
615 2 7.97368 130.53 12.91
616 2 12.0291 130.502 12.8395
617 2 -0.179967 134.521 12.773
618 2 3.99391 134.32 12.8895
619 2 7.67648 134.521 12.8837
620 2 11.7352 134.346 12.6555
621 2 15.7003 138.348 12.7376
622 2 4.12312 138.19 12.8015
623 2 8.0119 138.385 12.7364
624 2 11.6368 138.402 12.7224
625 2 0.00255649 142.315 12.8773
626 2 4.02878 142.143 12.682
627 2 7.74899 142.435 12.7608
628 2 11.781 142.388 12.7424
629 2 15.6294 146.254 12.7245
630 2 3.66107 146.105 12.3853
631 2 7.78224 146.113 12.664
632 2 11.6627 146.262 12.7801
633 2 15.7091 150.005 12.703
634 2 3.82554 149.825 12.6064
635 2 7.79226 150.046 12.7414
636 2 11.7819 149.981 12.7245
637 2 15.6847 153.949 12.7335
638 2 3.98092 154.007 12.6582
639 2 8.05517 154.107 12.5924
640 2 11.9 153.994 12.5232
641 2 0.12057 158.063 16.7675
642 2 3.94313 157.928 16.6637
643 2 7.67728 157.999 16.5892
644 2 11.7851 158.051 16.6168
645 2 15.7177 3.45919 16.4788
646 2 3.88418 3.61201 16.5763
647 2 8.02895 3.67522 16.4432
648 2 11.8082 3.468 16.3643
649 2 15.6591 7.36328 16.5602
650 2 3.97616 7.38716 16.5963
651 2 7.93756 7.43049 16.4013
652 2 12.0385 7.43985 16.3922
653 2 16.0765 11.4073 16.3597
654 2 3.8591 11.4162 16.513
655 2 7.85791 11.1991 16.5402
656 2 11.7811 11.4156 16.519
657 2 15.6718 15.3159 16.4346
658 2 3.83389 15.2483 16.3338
659 2 8.06324 15.1244 16.2665
660 2 11.9821 15.2337 16.4128
661 2 15.8842 19.1916 16.3548
662 2 4.00493 19.1376 16.2812
663 2 7.91721 19.19 16.4766
664 2 12.0186 19.3154 16.229
665 2 -0.0314081 22.9059 16.3932
666 2 4.19374 23.2062 16.3789
667 2 8.1405 22.9756 16.108
668 2 12.0786 23.0465 16.2617
669 2 -0.00820913 27.0319 16.2271
670 2 4.0633 27.3104 16.3436
671 2 7.99207 27.0985 16.3024
672 2 11.6822 27.246 16.3489
673 2 0.100614 31.1586 16.6134
674 2 3.99444 30.8357 16.3973
675 2 8.12339 30.8853 16.097
676 2 11.849 31.013 16.3172
677 2 15.861 35.144 16.3886
678 2 3.9176 35.034 16.4713
679 2 7.87993 35.0767 16.5116
680 2 11.8933 34.9562 16.1726
681 2 -0.0975537 39.215 16.5304
682 2 3.98689 39.0194 16.2595
683 2 7.97536 39.0797 16.3903
684 2 11.9207 38.972 16.3462
685 2 -0.049755 43.1004 16.6028
686 2 3.99799 43.0958 16.5827
687 2 7.77568 43.0027 16.2919
688 2 12.0321 43.2492 16.636
689 2 15.671 47.1443 16.5053
690 2 3.93836 47.0704 16.5156
691 2 7.86006 47.1853 16.4392
692 2 11.7887 47.313 16.5509
693 2 15.7665 51.3053 16.6286
694 2 3.88986 51.2397 16.4947
695 2 7.85095 51.1436 16.733
696 2 11.8615 51.0871 16.5433
697 2 0.0512131 55.2733 16.6312
698 2 4.02518 55.1759 16.7003
699 2 7.93393 55.3219 16.8276
700 2 11.8057 55.1623 16.6275
701 2 -0.021111 59.3326 16.729
702 2 3.89085 59.1465 16.9097
703 2 7.89485 59.0718 16.7837
704 2 11.9722 59.1531 16.8683
705 2 0.198785 63.2331 16.7782
706 2 4.04206 63.236 16.9399
707 2 8.14172 63.1716 16.8732
708 2 12.0725 63.2162 16.951
709 2 15.8851 67.1414 16.8492
710 2 4.01249 67.3341 16.7215
711 2 7.96333 67.2777 16.9475
712 2 11.9254 67.3082 16.8554
713 2 15.7925 71.3468 17.0477
714 2 3.93856 71.3885 16.8942
715 2 7.82736 71.3675 17.0187
716 2 11.9057 71.3813 17.0441
717 2 16.0103 75.4269 17.2272
718 2 4.11122 75.2393 17.0499
719 2 8.14715 75.3337 17.1925
720 2 12.065 75.3686 17.1373
721 2 16.0525 79.535 17.0904
722 2 4.28285 79.6822 17.2069
723 2 8.06623 79.215 17.1291
724 2 11.8987 79.3207 17.3274
725 2 0.180321 83.3644 17.2524
726 2 4.12165 83.3885 17.4154
727 2 8.14662 83.4093 17.0176
728 2 12.0701 83.4498 17.2505
729 2 16.0304 87.2862 17.26
730 2 4.07724 87.2899 17.357
731 2 8.15519 87.3914 17.2619
732 2 11.9942 87.3469 17.4922
733 2 0.23751 91.2688 17.6332
734 2 4.03655 91.4529 17.4524
735 2 8.04415 91.3974 17.4584
736 2 11.9558 91.7205 17.4546
737 2 0.216224 95.3343 17.3664
738 2 4.21535 95.4707 17.3719
739 2 7.92482 95.5383 17.3971
740 2 11.8687 95.4039 17.5223
741 2 0.197974 99.3855 17.4974
742 2 3.98122 99.3782 17.381
743 2 7.9334 99.0852 17.5569
744 2 12.0356 99.2787 17.5438
745 2 0.219604 103.26 17.3513
746 2 4.27743 103.389 17.4331
747 2 8.05753 103.272 17.5634
748 2 11.9375 103.307 17.4216
749 2 15.7866 107.295 17.3017
750 2 3.96816 107.239 17.349
751 2 8.11378 107.229 17.2415
752 2 11.9223 107.161 17.5385
753 2 -0.0624847 111.22 17.1978
754 2 3.83166 111.159 17.2864
755 2 7.98119 111.215 17.5477
756 2 11.8309 111.136 17.4206
757 2 -0.0577585 115.045 17.2369
758 2 3.873 114.939 17.2778
759 2 7.89182 114.996 17.2963
760 2 11.8205 114.972 17.1266
761 2 15.783 118.774 17.1968
762 2 3.85658 119.004 17.1277
763 2 7.81554 118.944 17.1169
764 2 11.7259 118.846 17.1481
765 2 -0.0583981 122.872 17.0481
766 2 3.95057 122.686 17.0673
767 2 7.92652 122.803 17.3173
768 2 11.7633 122.907 17.1625
769 2 -0.0621198 126.738 17.0283
770 2 3.77116 126.705 17.0099
771 2 7.8346 126.698 16.9891
772 2 11.8723 126.915 16.8959
773 2 15.6305 130.618 16.9465
774 2 3.85311 130.56 17.0429
775 2 7.98279 130.66 17.0916
776 2 11.9622 130.611 16.9054
777 2 -0.100152 134.637 16.8432
778 2 3.93885 134.438 16.7085
779 2 7.82491 134.642 17.0083
780 2 11.7073 134.441 16.7593
781 2 15.7227 138.271 16.7911
782 2 3.88628 138.352 16.8604
783 2 7.90775 138.302 16.7518
784 2 11.9444 138.474 16.9644
785 2 0.178312 142.308 16.7067
786 2 3.68582 142.364 16.7558
787 2 7.57338 142.399 16.9332
788 2 11.7834 142.29 16.8002
789 2 -0.0223506 146.098 16.6847
790 2 3.93737 146.18 16.8222
791 2 7.69624 146.088 16.9448
792 2 11.8143 146.281 16.577
793 2 15.9359 150.083 16.8579
794 2 3.76724 150.209 16.8302
795 2 7.59734 150.33 16.6012
796 2 11.5074 150.005 16.7319
797 2 -0.153274 154.058 16.5603
798 2 4.03158 154.206 16.5224
799 2 7.69941 154.084 16.6253
800 2 11.6667 153.912 16.5926
801 2 -0.264302 157.957 20.552
802 2 3.77696 158.028 20.7189
803 2 7.85279 157.96 20.6308
804 2 11.8398 158.046 20.7773
805 2 -0.0516155 3.51593 20.6483
806 2 3.90608 3.62905 20.6822
807 2 7.71181 3.49761 20.5643
808 2 11.7598 3.45234 20.631
809 2 0.0196364 7.51037 20.441
810 2 4.03036 7.57762 20.6893
811 2 7.93716 7.41754 20.4825
812 2 12.0154 7.46556 20.5254
813 2 0.128481 11.2806 20.4503
814 2 4.1021 11.4086 20.4441
815 2 8.08679 11.4037 20.3721
816 2 11.8297 11.1739 20.428
817 2 15.8949 15.3919 20.4906
818 2 3.85111 15.4272 20.2877
819 2 7.8935 15.2857 20.4891
820 2 11.9313 15.2903 20.2995
821 2 0.0860258 19.3907 20.3024
822 2 3.93496 19.0772 20.3318
823 2 7.83863 19.1601 20.2456
824 2 11.8634 19.1277 20.2916
825 2 0.101708 23.2211 20.1709
826 2 3.90987 23.1889 20.2689
827 2 7.89948 23.1636 20.0636
828 2 11.8453 22.9249 20.2077
829 2 15.818 26.7465 20.1456
830 2 3.87456 26.9774 20.2941
831 2 7.97175 27.1329 20.2373
832 2 11.8969 26.9221 20.1138
833 2 15.8067 30.7618 20.2627
834 2 4.0792 30.9959 20.1975
835 2 8.02711 31.0008 20.3336
836 2 11.8791 31.0693 20.35
837 2 0.0538611 34.9703 20.235
838 2 4.01058 34.9206 20.4943
839 2 7.78772 35.0156 20.2362
840 2 11.8621 35.0001 20.2224
841 2 15.6601 39.0035 20.2662
842 2 4.03927 38.9651 20.3068
843 2 7.83918 38.9568 20.4214
844 2 11.7166 39.1189 20.5456
845 2 16.0434 43.0041 20.3947
846 2 3.98592 42.9112 20.2049
847 2 8.03363 42.9197 20.3498
848 2 11.8999 43.119 20.2411
849 2 -0.193257 47.0949 20.2652
850 2 4.04655 46.8854 20.4028
851 2 7.8775 47.0843 20.5005
852 2 11.6165 47.1281 20.4386
853 2 15.884 51.0154 20.5547
854 2 3.81741 51.1787 20.5572
855 2 7.75269 51.1626 20.5644
856 2 11.8358 51.2107 20.5003
857 2 15.8885 55.104 20.6043
858 2 3.96216 55.1296 20.6087
859 2 7.96646 55.1317 20.5018
860 2 12.0275 55.139 20.6005
861 2 15.8485 59.2778 20.6041
862 2 4.09342 59.2282 20.7941
863 2 7.89591 59.3766 20.6384
864 2 12.0083 59.0931 20.6307
865 2 15.989 63.1489 20.7275
866 2 4.23742 63.2712 20.8261
867 2 8.0755 63.3712 20.8888
868 2 12.0867 63.3014 20.9618
869 2 16.035 67.3548 20.9364
870 2 4.07175 67.1107 20.8048
871 2 7.94895 67.1651 20.8439
872 2 11.9593 67.1955 20.6825
873 2 0.265735 71.1849 20.8262
874 2 4.09319 71.1453 20.8217
875 2 8.01587 71.1755 20.97
876 2 11.9942 71.1654 21.0207
877 2 15.9883 75.3143 20.9529
878 2 4.0239 75.1794 21.0729
879 2 7.75055 75.3509 20.8512
880 2 11.8089 75.2015 20.9112
881 2 16.0934 79.2772 21.2173
882 2 3.94456 79.1738 21.1185
883 2 7.8894 79.2826 21.0941
884 2 11.9082 79.3864 20.9911
885 2 0.187174 83.2558 21.0362
886 2 4.17436 83.3986 21.5154
887 2 7.98174 83.3904 21.0946
888 2 12.0043 83.3078 21.3048
889 2 0.0646601 87.3389 21.2
890 2 3.98448 87.2517 21.34
891 2 8.067 87.341 21.2539
892 2 12.0786 87.3218 21.2035
893 2 0.233179 91.4773 21.4611
894 2 4.12967 91.2746 21.1675
895 2 8.12255 91.2 21.3004
896 2 12.1135 91.3005 21.3879
897 2 0.255012 95.3398 21.3457
898 2 4.02682 95.4706 21.446
899 2 7.95681 95.4045 21.4845
900 2 11.9904 95.173 21.4457
901 2 15.884 99.4491 21.5034
902 2 4.02451 99.2862 21.4461
903 2 8.1566 99.2646 21.5694
904 2 11.8586 99.2166 21.6415
905 2 15.9736 103.334 21.433
906 2 4.13786 103.291 21.5257
907 2 7.94789 103.224 21.336
908 2 11.9221 103.143 21.48
909 2 15.808 107.145 21.5411
910 2 4.03543 107.108 21.294
911 2 7.96298 107.051 21.4071
912 2 11.9142 107.241 21.4526
913 2 15.9242 111.155 21.4237
914 2 4.00397 111.07 21.3163
915 2 7.78345 111.228 21.3677
916 2 11.9686 110.972 21.3472
917 2 15.8008 115.132 21.3029
918 2 3.87603 115.229 21.2533
919 2 7.80099 115.144 21.2458
920 2 11.913 114.997 21.2878
921 2 15.7465 119.047 21.2703
922 2 3.78401 119.027 21.3031
923 2 7.99109 119.024 21.2996
924 2 11.7922 119.115 21.2972
925 2 0.0329669 122.752 21.0807
926 2 4.0245 122.883 20.9836
927 2 7.91069 122.883 21.1905
928 2 11.7851 122.979 21.1026
929 2 15.8326 126.577 20.998
930 2 3.8491 126.662 21.0646
931 2 7.96316 126.942 20.9528
932 2 11.6925 126.692 21.1063
933 2 0.190785 130.657 21.0066
934 2 3.8495 130.712 21.1231
935 2 7.93664 130.528 20.8694
936 2 11.9952 130.69 20.829
937 2 -0.0295045 134.587 21.0837
938 2 3.88119 134.521 20.7561
939 2 7.84221 134.529 21.0506
940 2 11.7555 134.611 21.0897
941 2 15.7444 138.509 20.9194
942 2 3.8702 138.537 20.9791
943 2 7.96944 138.279 20.9159
944 2 11.9058 138.546 20.9381
945 2 15.7733 142.456 20.9994
946 2 3.91537 142.425 20.845
947 2 7.71332 142.259 20.8938
948 2 11.6269 142.314 20.7576
949 2 15.6254 146.238 20.7808
950 2 3.88165 146.37 20.8488
951 2 7.69885 146.289 20.871
952 2 11.7394 146.178 20.7747
953 2 0.0534514 150.023 20.7972
954 2 3.74526 150.327 20.7398
955 2 7.78062 150.128 20.6439
956 2 11.833 150.234 20.7009
957 2 -0.199145 154.095 20.6786
958 2 3.71158 154.119 20.9119
959 2 7.97199 154.097 20.6972
960 2 11.8782 153.976 20.6841
961 2 15.7464 -0.186388 24.6262
962 2 3.72971 158.035 24.4556
963 2 8.0111 158.074 24.69
964 2 11.6939 158.243 24.709
965 2 0.0807603 3.58032 24.6692
966 2 3.88664 3.60281 24.7538
967 2 7.81988 3.73987 24.6916
968 2 11.9213 3.80391 24.5389
969 2 0.176668 7.56028 24.3628
970 2 3.89083 7.68091 24.4583
971 2 8.01796 7.5917 24.4645
972 2 11.8233 7.56726 24.6217
973 2 15.6606 11.4917 24.481
974 2 4.01071 11.4845 24.5237
975 2 7.88767 11.4902 24.6206
976 2 11.8604 11.4907 24.4991
977 2 15.7704 15.3938 24.4212
978 2 3.81976 15.3737 24.4558
979 2 7.88276 15.4207 24.3647
980 2 11.8547 15.5155 24.3888
981 2 0.056016 19.1908 24.4132
982 2 3.98685 19.4192 24.4509
983 2 7.86207 19.2982 24.1884
984 2 11.9856 19.2062 24.503
985 2 -0.0845645 23.1589 24.3083
986 2 4.01679 23.161 24.4555
987 2 7.92549 23.2469 23.972
988 2 11.8932 23.0212 24.3592
989 2 -0.132844 26.8581 24.156
990 2 4.13223 27.1248 24.2711
991 2 8.02148 27.0074 24.2987
992 2 12.0057 27.1391 24.2666
993 2 0.116689 30.8595 24.1893
994 2 4.04715 30.8696 23.9937
995 2 8.07457 30.9751 24.2613