ITEM: TIMESTEP
15800
ITEM: NUMBER OF ATOMS
32000
ITEM: BOX BOUNDS xy xz yz pp pp pp
0.0000000000000000e+00 1.5832000000000001e+01 0.0000000000000000e+00
0.0000000000000000e+00 1.5831999999999999e+02 0.0000000000000000e+00
8.4094373997207583e-01 1.6013617426002676e+02 0.0000000000000000e+00
ITEM: ATOMS id type x y z
1 2 -0.0625632 157.782 159.722
2 2 3.99257 157.561 159.517
3 2 8.11207 157.778 159.751
4 2 11.9766 157.742 159.803
5 2 15.9199 3.33994 159.727
6 2 3.88769 3.33354 159.543
7 2 7.81049 3.20953 159.665
8 2 12.0989 3.33496 159.597
9 2 -0.0896466 7.07693 159.65
10 2 3.7406 7.23265 159.742
11 2 7.89257 7.28349 159.871
12 2 11.7018 7.0666 159.657
13 2 -0.0371726 11.0791 159.709
14 2 3.80033 11.2164 159.826
15 2 7.92695 11.0329 159.68
16 2 11.8482 11.0704 159.535
17 2 15.8573 15.0501 159.76
18 2 3.89249 15.1023 159.673
19 2 7.90471 15.0324 159.742
20 2 12.005 15.1638 159.722
21 2 -0.134202 19.1949 159.879
22 2 3.75454 19.127 159.71
23 2 7.92525 19.0613 159.903
24 2 12.0025 19.1118 159.839
25 2 15.7624 23.193 0.384006
26 2 3.95617 23.2267 159.81
27 2 7.91999 23.1847 160.029
28 2 11.9504 23.1994 159.933
29 2 15.7708 27.1889 159.98
30 2 4.02964 27.0824 159.814
31 2 7.64863 27.2124 160.221
32 2 11.8017 27.1082 160.088
33 2 16.0808 31.1159 160.038
34 2 4.02358 31.2999 159.973
35 2 7.94629 31.3017 160.137
36 2 11.7989 31.1812 0.753908
37 2 15.8685 35.2962 160.206
38 2 4.06299 35.321 1.01154
39 2 7.94671 35.2238 160.075
40 2 11.9665 35.2658 0.712259
41 2 -0.194941 39.2583 160.284
42 2 4.14601 39.4492 1.08312
43 2 8.00088 39.245 0.884892
44 2 11.9158 39.2316 160.05
45 2 0.134981 43.2823 1.03261
46 2 4.16361 43.3986 1.18026
47 2 8.1233 43.2335 0.915063
48 2 11.8402 43.3442 0.805612
49 2 16.0644 47.285 1.10196
50 2 4.23824 47.2779 1.21569
51 2 8.07659 47.2464 1.09188
52 2 12.1255 47.35 1.05574
53 2 0.0153355 51.1766 1.05625
54 2 4.06737 51.5887 1.37241
55 2 8.09308 51.3273 1.01451
56 2 12.0029 51.3322 160.482
57 2 0.0993884 55.3216 1.14593
58 2 3.91282 55.454 1.25706
59 2 8.02158 55.5334 1.10081
60 2 11.8942 55.301 0.994572
61 2 -0.141067 59.3752 1.38205
62 2 3.98889 59.2225 1.27008
63 2 7.91418 59.4821 1.15202
64 2 11.9697 59.2991 1.24142
65 2 -0.171597 63.3216 1.12099
66 2 3.92269 63.434 1.2635
67 2 7.72542 63.4075 1.4721
68 2 11.8349 63.4335 1.37965
69 2 0.0880263 67.5213 1.37787
70 2 3.9629 67.5964 1.30929
71 2 7.96071 67.5304 1.41478
72 2 11.8553 67.4022 1.29564
73 2 16.0236 71.6077 1.42723
74 2 4.16829 71.6418 1.51337
75 2 7.85403 71.4652 1.24844
76 2 11.9188 71.4879 1.38042
77 2 0.12173 75.471 1.4194
78 2 4.01371 75.5724 1.45155
79 2 7.78422 75.5129 1.55109
80 2 11.9208 75.5724 1.51771
81 2 0.216537 79.676 1.52679
82 2 3.9121 79.3617 1.72401
83 2 7.85868 79.583 1.70479
84 2 11.9733 79.6499 1.72328
85 2 0.166543 83.6349 1.58714
86 2 4.03452 83.5341 1.61202
87 2 7.85894 83.632 1.6861
88 2 11.8545 83.5005 1.61282
89 2 0.120983 87.5836 1.4751
90 2 4.0603 87.2401 1.39696
91 2 7.85507 87.5533 1.52707
92 2 11.8908 87.5655 1.50515
93 2 -0.0513256 91.3577 1.39341
94 2 3.87682 91.3739 1.38053
95 2 7.87134 91.2721 1.29818
96 2 11.7786 91.34 1.29069
97 2 0.0942864 95.2169 1.17003
98 2 3.86773 95.302 1.30278
99 2 7.76918 95.298 1.39323
100 2 12.0955 95.4175 1.26595
101 2 -0.0637718 99.2897 1.10797
102 2 3.85419 99.0883 1.27329
103 2 8.00614 99.2096 1.37825
104 2 11.9731 99.3283 1.13855
105 2 15.9581 103.067 1.01633
106 2 3.86855 103.182 1.3468
107 2 7.77414 103.116 1.22992
108 2 11.9738 103.275 1.19741
109 2 15.8463 107.118 1.18549
110 2 3.80131 106.879 1.23726
111 2 7.99372 106.998 1.22346
112 2 11.92 106.976 1.14098
113 2 -0.0194011 110.917 1.23281
114 2 4.04742 110.804 1.26719
115 2 7.97075 110.808 1.14733
116 2 11.762 111.022 1.15427
117 2 0.214798 114.988 1.03305
118 2 3.96669 114.902 1.20423
119 2 7.81754 114.826 0.909988
120 2 11.9524 114.875 1.17099
121 2 15.798 118.9 1.05749
122 2 3.9326 118.845 1.03149
123 2 7.83945 118.64 1.0698
124 2 11.9037 118.775 160.523
125 2 0.17583 122.718 1.16283
126 2 4.09975 122.708 1.08538
127 2 7.84315 122.648 1.02631
128 2 11.794 122.654 1.12324
129 2 -0.0461116 126.563 160.256
130 2 4.03962 126.557 160.161
131 2 7.92665 126.681 0.974701
132 2 11.7476 126.638 0.769351
133 2 0.0662162 130.184 160.124
134 2 3.97231 130.556 160.24
135 2 8.07182 130.562 0.834613
136 2 11.8669 130.534 160.314
137 2 -0.0824635 134.446 160.191
138 2 4.11144 134.517 160.218
139 2 8.13781 134.468 0.810364
140 2 11.9001 134.479 159.994
141 2 -0.0264071 138.321 160.218
142 2 3.99321 138.206 160.121
143 2 7.98752 138.338 160.092
144 2 11.8777 138.42 0.747719
145 2 15.955 142.033 160.079
146 2 4.02761 142.247 159.884
147 2 7.89328 142.132 159.989
148 2 12.0374 141.927 160.043
149 2 0.0484526 145.957 159.927
150 2 3.96837 146.095 159.959
151 2 8.03178 145.988 160.053
152 2 12.0124 145.806 159.923
153 2 16.0046 149.959 159.999
154 2 4.08675 149.981 159.945
155 2 8.00024 150.001 159.881
156 2 11.9503 149.921 159.884
157 2 15.9466 153.946 159.867
158 2 4.05619 153.854 159.938
159 2 7.93597 153.846 159.891
160 2 12.1415 153.852 159.829
161 2 15.8915 157.841 4.57085
162 2 4.12586 157.757 4.54976
163 2 7.99606 157.692 4.59385
164 2 11.7962 157.872 4.56862
165 2 15.7679 3.38038 4.43165
166 2 4.04394 3.23132 4.43179
167 2 7.66214 3.25055 4.49344
168 2 11.8775 3.3914 4.58694
169 2 15.7606 7.24196 4.38149
170 2 3.86472 7.25877 4.50983
171 2 7.94898 7.61672 4.38286
172 2 11.835 7.20814 4.43888
173 2 15.9004 11.1016 4.46898
174 2 4.1676 11.1411 4.37374
175 2 8.00637 11.3165 4.49614
176 2 11.9126 11.2779 4.43431
177 2 15.8707 15.1634 4.56176
178 2 3.92196 14.9232 4.25305
179 2 7.98228 14.9253 4.13629
180 2 11.8266 15.1353 4.47993
181 2 0.0493225 19.0224 4.48477
182 2 3.94429 19.0705 4.54584
183 2 7.85884 19.0458 4.40966
184 2 11.8521 19.3091 4.50445
185 2 15.8148 23.3106 4.65102
186 2 3.86269 23.0314 4.36008
187 2 7.86738 23.0615 4.5673
188 2 11.7662 22.9678 4.32998
189 2 16.0087 27.1327 4.36904
190 2 3.91353 27.1995 4.55629
191 2 7.91535 27.0943 4.67832
192 2 11.8934 27.1364 4.69031
193 2 15.6012 31.1074 4.68617
194 2 4.03571 31.1438 4.73306
195 2 8.06819 31.2166 4.64319
196 2 11.7901 31.2013 4.40952
197 2 0.0657757 35.1174 4.95911
198 2 4.01622 35.1909 4.75685
199 2 8.06277 35.0715 4.89351
200 2 12.0565 35.3546 4.82666
201 2 0.00250497 39.209 4.97061
202 2 4.18819 39.1173 4.71115
203 2 8.05832 39.1921 4.77457
204 2 12.1095 39.3598 4.95711
205 2 -0.0377243 43.3729 4.77464
206 2 3.95422 43.2126 5.03153
207 2 7.96587 43.3897 4.92879
208 2 11.8788 43.1341 5.01408
209 2 16.099 47.3324 4.97111
210 2 4.02696 47.2459 5.0949
211 2 8.19771 47.3625 5.15211
212 2 11.9499 47.2698 4.89047
213 2 0.2057 51.4167 5.03216
214 2 4.28277 51.4229 5.00202
215 2 7.95939 51.2991 5.10731
216 2 11.8244 51.3048 4.94704
217 2 0.14726 55.2378 5.05845
218 2 4.19361 55.3618 5.04395
219 2 8.14459 55.3396 5.18912
220 2 11.9164 55.3582 5.09606
221 2 -0.0130539 59.2522 5.20647
222 2 3.93792 59.3286 5.22935
223 2 7.90905 59.3848 5.20618
224 2 11.9136 59.32 5.13889
225 2 0.103542 63.3862 5.16342
226 2 4.10968 63.3894 5.13005
227 2 8.00659 63.5998 5.44215
228 2 11.9549 63.4582 5.18415
229 2 0.156715 67.5088 5.15347
230 2 4.04664 67.3796 5.25538
231 2 8.16991 67.5155 5.26606
232 2 11.8186 67.4429 5.14133
233 2 -0.245763 71.5672 5.50641
234 2 3.84855 71.4196 5.53883
235 2 7.92817 71.5914 5.35758
236 2 11.9044 71.3389 5.24552
237 2 0.188546 75.4162 5.48744
238 2 3.82719 75.5452 5.41024
239 2 8.12844 75.6011 5.38324
240 2 11.9059 75.6091 5.49986
241 2 -0.0179658 79.3731 5.37005
242 2 4.08553 79.8257 5.47972
243 2 7.98084 79.7397 5.68978
244 2 12.1419 79.7571 5.56314
245 2 15.8275 83.5979 5.47247
246 2 3.96848 83.6418 5.67377
247 2 8.09407 83.5726 5.68838
248 2 12.1438 83.722 5.50776
249 2 0.0049914 87.6629 5.51252
250 2 4.07653 87.406 5.44344
251 2 7.86636 87.409 5.59505
252 2 11.9839 87.3506 5.55286
253 2 -0.00415008 91.5697 5.36809
254 2 3.96892 91.3285 5.42076
255 2 7.98695 91.3697 5.40064
256 2 11.9127 91.3239 5.25473
257 2 -0.0465129 95.2867 5.29405
258 2 4.03522 95.2009 5.31709
259 2 8.14461 95.4725 5.42015
260 2 11.9962 95.4404 5.40719
261 2 -0.0033461 99.2356 5.30096
262 2 3.81982 99.3493 5.30135
263 2 7.8529 99.1756 5.364
264 2 12.0297 99.3971 5.25734
265 2 15.8835 103.332 5.432
266 2 4.15173 103.221 5.45966
267 2 7.97541 103.207 5.2564
268 2 12.0082 103.185 5.20796
269 2 0.0454192 107.159 5.35722
270 2 4.1015 107.204 5.24045
271 2 7.99361 107.149 5.27815
272 2 11.8926 107.226 5.23369
273 2 0.0524934 111.229 5.13463
274 2 4.2429 111.242 5.24168
275 2 7.92309 111.013 4.98169
276 2 11.8215 110.989 5.09782
277 2 15.9974 114.867 5.09208
278 2 3.89292 114.713 5.11966
279 2 7.99866 114.984 5.23946
280 2 11.9727 114.984 5.1119
281 2 15.9485 118.882 5.04497
282 2 4.21914 118.773 4.77
283 2 8.19675 118.944 5.24151
284 2 11.9 118.892 5.1113
285 2 15.8129 122.824 5.15231
286 2 3.93297 122.886 5.04838
287 2 8.00386 122.643 4.95775
288 2 11.9202 122.743 4.9061
289 2 0.112728 126.631 4.97847
290 2 4.01726 126.807 4.91183
291 2 7.99752 126.517 5.13
292 2 11.7966 126.586 4.90961
293 2 -0.020561 130.421 5.15221
294 2 3.79714 130.442 4.8925
295 2 7.9051 130.672 4.91104
296 2 11.8599 130.599 4.74768
297 2 -0.0229647 134.198 4.69547
298 2 3.99473 134.512 4.89636
299 2 7.92198 134.537 4.8256
300 2 11.9786 134.472 4.85918
301 2 15.8618 138.298 4.9577
302 2 4.04721 138.437 4.98043
303 2 7.94365 138.245 4.83903
304 2 11.8493 138.225 5.004
305 2 0.0871528 142.134 4.7812
306 2 4.11871 142.204 4.86929
307 2 7.97564 142.312 4.96892
308 2 12.0501 142.301 4.77998
309 2 15.9576 146.271 4.68084
310 2 4.05823 146.1 4.75195
311 2 8.07663 145.964 4.81736
312 2 12.0647 146.181 4.83307
313 2 0.14824 149.854 4.70433
314 2 4.02665 150.016 4.71583
315 2 8.12952 149.995 4.70498
316 2 12.1421 150.076 4.64011
317 2 15.8245 153.969 4.5545
318 2 3.84297 153.897 4.60075
319 2 8.06082 153.738 4.46922
320 2 12.077 153.922 4.55296
321 2 15.93 158.035 8.5504
322 2 4.17326 157.764 8.71509
323 2 7.99114 157.852 8.6572
324 2 11.8833 157.78 8.60572
325 2 15.808 3.62479 8.41789
326 2 3.99039 3.2778 8.54765
327 2 8.12962 3.49622 8.53824
328 2 11.7642 3.57812 8.5031
329 2 -0.12659 7.31014 8.43744
330 2 4.00033 7.08745 8.25566
331 2 7.89949 7.39868 8.53817
332 2 11.8437 7.47544 8.62112
333 2 15.916 11.2899 8.51314
334 2 3.84393 11.1925 8.47267
335 2 7.64343 11.178 8.49754
336 2 11.8984 11.2283 8.57256
337 2 0.0217475 15.0559 8.49354
338 2 3.9034 15.1013 8.28379
339 2 7.87195 15.3014 8.33854
340 2 11.8885 15.1823 8.33077
341 2 -0.111723 18.9662 8.36195
342 2 3.86797 19.0679 8.43213
343 2 7.79086 19.0428 8.2696
344 2 11.766 19.1704 8.32079
345 2 0.00844299 22.9895 8.32747
346 2 3.82772 23.0779 8.37304
347 2 7.94245 23.1427 8.45524
348 2 12.1081 23.0425 8.38915
349 2 15.6687 27.0004 8.46368
350 2 4.12406 27.2669 8.44786
351 2 7.79303 26.9913 8.52665
352 2 11.8134 26.9924 8.62074
353 2 15.724 31.0985 8.50128
354 2 3.89485 31.0484 8.68935
355 2 7.89671 31.1659 8.50706
356 2 11.9062 31.0561 8.79057
357 2 15.9215 35.1108 8.58586
358 2 4.09397 35.136 8.59965
359 2 8.00585 35.0706 8.67067
360 2 12.0029 35.1372 8.72012
361 2 15.9734 39.1697 8.84653
362 2 3.99406 39.1887 8.61983
363 2 7.91686 39.1462 8.6158
364 2 11.8651 39.2372 8.99035
365 2 15.9215 43.3006 8.75958
366 2 4.32571 43.185 8.72752
367 2 8.08387 43.2492 8.82456
368 2 11.8727 43.0421 8.91624
369 2 0.0262898 47.255 8.83396
370 2 4.07102 47.3287 8.93702
371 2 8.02801 47.2227 8.94289
372 2 12.1222 47.0765 8.8461
373 2 -0.0524405 51.1311 8.94522
374 2 3.98048 51.2795 9.01165
375 2 7.92342 51.1072 9.01036
376 2 11.9423 51.2434 8.88697
377 2 0.0316136 55.2044 9.05199
378 2 4.17869 55.2195 9.04673
379 2 7.99868 55.1505 8.99152
380 2 11.939 55.038 8.92718
381 2 15.9582 59.222 9.121
382 2 3.88811 59.3812 9.1022
383 2 7.96563 59.2513 9.06711
384 2 11.982 59.2797 8.8654
385 2 -0.204595 63.5425 9.03025
386 2 4.02065 63.3292 9.27494
387 2 7.86928 63.3 9.14689
388 2 11.8983 63.2415 8.9973
389 2 0.0906103 67.318 9.22341
390 2 4.07179 67.2801 9.20959
391 2 8.00168 67.5846 9.29046
392 2 11.9578 67.4121 9.18408
393 2 0.0698961 71.2644 9.35415
394 2 4.26455 71.3967 9.34969
395 2 8.09654 71.5977 9.17808
396 2 12.0846 71.5197 9.24472
397 2 0.12522 75.4977 9.46669
398 2 4.25252 75.4988 9.42863
399 2 8.03048 75.4859 9.08938
400 2 12.1249 75.3988 9.39134
401 2 0.107338 79.397 9.34874
402 2 4.10107 79.3811 9.57136
403 2 8.19142 79.5005 9.38592
404 2 11.9363 79.4706 9.18371
405 2 0.23284 83.5443 9.60086
406 2 4.01585 83.5213 9.55474
407 2 8.15705 83.5702 9.30194
408 2 12.144 83.7322 9.46988
409 2 0.0635101 87.6439 9.70033
410 2 3.99952 87.7325 9.6429
411 2 8.00901 87.4809 9.67545
412 2 11.9949 87.5817 9.56753
413 2 0.10468 91.4316 9.33078
414 2 4.24323 91.7105 9.32799
415 2 7.9077 91.3262 9.39102
416 2 11.9389 91.5516 9.38948
417 2 0.228454 95.5058 9.52339
418 2 4.17118 95.464 9.51375
419 2 8.03254 95.4229 9.40944
420 2 12.1869 95.34 9.41874
421 2 15.9892 99.1354 9.38019
422 2 4.12453 99.2944 9.54666
423 2 8.0003 99.3717 9.342
424 2 11.9024 99.2532 9.2986
425 2 -0.0715817 103.428 9.38787
426 2 3.97735 103.094 9.29175
427 2 7.94366 103.194 9.12239
428 2 12.0376 103.137 9.42209
429 2 15.9418 107.253 9.32485
430 2 4.03069 107.277 9.22042
431 2 7.94707 106.993 9.26353
432 2 11.8649 107.284 9.30098
433 2 0.148732 111.002 9.07639
434 2 3.91323 111.021 9.21324
435 2 7.93704 111.084 9.30647
436 2 11.91 111.029 9.45408
437 2 -0.0191421 115.015 9.12772
438 2 4.05622 115.177 9.20976
439 2 8.00841 115.048 9.17728
440 2 12.0498 114.945 9.09784
441 2 0.0483938 118.81 8.99046
442 2 4.15082 118.821 9.08365
443 2 8.03928 118.695 8.91426
444 2 12.0265 118.904 9.00373
445 2 16.071 122.736 8.91602
446 2 3.91119 122.673 8.92283
447 2 7.96055 122.693 9.17517
448 2 11.9201 122.792 9.15415
449 2 0.059334 126.702 9.03341
450 2 4.26878 126.639 8.90677
451 2 8.00222 126.665 9.07814
452 2 11.9316 126.564 8.97549
453 2 -0.127675 130.485 8.83344
454 2 4.01113 130.668 8.92553
455 2 7.88821 130.604 8.72523
456 2 11.95 130.435 8.93576
457 2 0.105754 134.402 8.97985
458 2 4.09842 134.558 9.00177
459 2 7.99204 134.337 8.90546
460 2 11.9981 134.457 8.8988
461 2 -0.147039 138.316 8.74783
462 2 4.05258 138.243 8.82697
463 2 8.01439 138.317 8.79272
464 2 11.9542 138.296 8.86788
465 2 0.136845 142.172 8.80331
466 2 4.18539 142.177 8.95242
467 2 7.90122 142.219 8.88651
468 2 11.9384 142.123 8.72745
469 2 16.0546 146.29 8.83552
470 2 3.91534 146.189 8.94685
471 2 7.99714 146.237 8.75721
472 2 12.0083 146.035 8.76365
473 2 15.789 150.044 8.76993
474 2 4.17596 150.07 8.8479
475 2 8.22807 150.072 8.6845
476 2 12.067 149.986 8.74149
477 2 15.9206 153.938 8.6089
478 2 4.05936 153.859 8.50139
479 2 8.05668 153.886 8.58763
480 2 11.9162 153.864 8.67522
481 2 15.7704 157.937 12.6354
482 2 3.89505 157.983 12.6413
483 2 7.83341 157.941 12.6133
484 2 12.0736 157.872 12.4954
485 2 15.7545 3.47919 12.6556
486 2 3.99618 3.75722 12.3551
487 2 8.19417 3.59781 12.5886
488 2 11.9838 3.66059 12.4992
489 2 -0.0416498 7.35726 12.3979
490 2 3.84339 7.45172 12.3798
491 2 7.87595 7.47541 12.4683
492 2 11.877 7.56528 12.5944
493 2 15.8612 11.3637 12.4833
494 2 3.76854 11.4072 12.6091
495 2 7.6805 11.404 12.581
496 2 11.8214 11.4901 12.5829
497 2 -0.0912118 15.3476 12.1739
498 2 4.07112 15.2417 12.3825
499 2 7.86328 15.3184 12.4073
500 2 11.6648 15.2397 12.35
501 2 15.8962 19.1743 12.4696
502 2 3.98097 19.1152 12.2894
503 2 8.00675 19.2538 12.4473
504 2 12.0648 18.9506 12.3382
505 2 15.9542 22.9449 12.4417
506 2 4.01618 22.9588 12.2352
507 2 7.80985 23.0461 12.4682
508 2 11.8972 22.944 12.48
509 2 15.6925 27.1433 12.4927
510 2 3.97196 27.1101 12.5685
511 2 7.90148 27.0653 12.4598
512 2 11.886 27.0546 12.3992
513 2 -0.0137048 31.1467 12.5163
514 2 3.9515 31.1178 12.5764
515 2 8.09238 31.1221 12.3095
516 2 11.922 30.9478 12.6989
517 2 15.7038 34.9955 12.5225
518 2 3.89732 35.0933 12.7755
519 2 8.06503 35.004 12.4618
520 2 11.8688 35.0611 12.5579
521 2 15.8938 39.181 12.8577
522 2 3.91409 39.0291 12.5592
523 2 7.77339 38.9082 12.6275
524 2 11.9163 39.1385 12.5783
525 2 15.8627 43.1099 12.7183
526 2 4.13737 43.082 12.6061
527 2 8.12333 43.316 12.6291
528 2 12.089 43.2725 12.638
529 2 15.7474 47.2392 12.6843
530 2 3.98844 47.1794 12.7337
531 2 8.14893 47.2997 12.7721
532 2 12.0141 47.2371 12.9226
533 2 0.257281 51.2442 12.7192
534 2 4.12053 51.223 12.8681
535 2 8.14961 51.2844 13.0251
536 2 12.1156 51.0855 13.0625
537 2 0.175063 55.2906 12.8999
538 2 4.14848 55.2024 12.8122
539 2 8.04897 55.2742 13.0149
540 2 11.936 55.2857 12.8182
541 2 0.194265 59.1544 12.9535
542 2 3.93019 59.0125 12.9548
543 2 7.95981 59.0833 12.8181
544 2 11.9114 59.0443 12.9777
545 2 0.176065 63.1644 13.1308
546 2 3.97411 63.0991 13.044
547 2 7.93068 63.167 12.9874
548 2 11.9517 63.4793 12.9679
549 2 0.0635508 67.2028 12.9438
550 2 4.21681 67.1602 12.9798
551 2 8.0773 67.5103 12.9725
552 2 11.8333 67.327 13.123
553 2 0.124069 71.2923 13.0893
554 2 4.14062 71.4503 13.3488
555 2 7.95531 71.3795 13.1761
556 2 11.8975 71.4051 13.1375
557 2 0.190202 75.4595 13.3193
558 2 4.06454 75.3741 13.1917
559 2 8.11473 75.2744 13.1857
560 2 11.9759 75.3646 13.4106
561 2 0.188703 79.4879 13.3169
562 2 4.16016 79.6175 13.3036
563 2 8.1348 79.3221 13.2265
564 2 12.0191 79.4206 13.1548
565 2 -0.0358483 83.336 13.3363
566 2 4.17719 83.431 13.2609
567 2 7.9523 83.3814 13.3989
568 2 11.9943 83.3061 13.294
569 2 0.0812107 87.5424 13.4553
570 2 3.93923 87.3706 13.3683
571 2 7.99804 87.5435 13.5177
572 2 11.8435 87.7218 13.3815
573 2 0.0998258 91.4576 13.365
574 2 4.13879 91.4905 13.338
575 2 8.00714 91.4854 13.4438
576 2 11.8672 91.554 13.4285
577 2 -0.0625263 95.176 13.4422
578 2 4.0364 95.3817 13.4604
579 2 8.04055 95.5267 13.5026
580 2 11.871 95.3863 13.4068
581 2 0.0947951 99.4737 13.3526
582 2 3.9591 99.2734 13.5939
583 2 7.98608 99.3833 13.4728
584 2 11.9393 99.3617 13.3754
585 2 -0.136087 103.268 13.2674
586 2 4.01177 103.399 13.3522
587 2 7.99213 103.371 13.2392
588 2 11.9426 103.275 13.3652
589 2 15.6178 107.23 13.3112
590 2 3.75681 107.288 13.4481
591 2 7.86699 107.165 13.3096
592 2 11.9698 107.171 13.3505
593 2 0.0599637 111.09 13.332
594 2 3.98393 111.178 13.1327
595 2 7.96819 111.25 13.286
596 2 11.9513 110.999 13.1413
597 2 15.9176 114.952 13.1987
598 2 4.01434 115.108 13.1646
599 2 7.94531 115.127 13.2524
600 2 11.9701 115.031 13.1438
601 2 16.1295 118.89 13.2496
602 2 4.22768 118.978 13.1756
603 2 8.11778 118.867 13.0705
604 2 12.1688 118.848 13.0173
605 2 0.282696 122.908 13.1022
606 2 3.93759 122.633 12.8567
607 2 8.0898 122.812 13.1251
608 2 11.9785 122.98 12.9422
609 2 16.0983 126.701 13.0678
610 2 4.05686 126.473 13.1361
611 2 8.01986 126.657 12.9221
612 2 12.0526 126.692 13.0377
613 2 15.8932 130.684 12.7761
614 2 4.05868 130.456 12.8818
615 2 8.17023 130.608 12.8223
616 2 11.9896 130.714 12.9576
617 2 -0.0408268 134.554 12.9429
618 2 4.04678 134.39 12.9737
619 2 8.08599 134.441 12.8844
620 2 11.8717 134.395 12.8568
621 2 0.238816 138.465 13.0239
622 2 4.07519 138.356 12.8695
623 2 8.18076 138.518 12.9945
624 2 12.115 138.628 12.8243
625 2 16.1714 142.3 12.7672
626 2 4.13079 142.218 12.9442
627 2 8.19222 142.322 12.7201
628 2 12.1887 142.364 12.6094
629 2 0.200118 146.246 12.8659
630 2 4.01981 146.096 12.788
631 2 8.04243 146.218 12.7716
632 2 11.8242 146.129 12.752
633 2 15.9312 150.026 12.7279
634 2 4.00488 150.289 12.6685
635 2 8.01451 149.989 12.643
636 2 12.0044 150.107 12.7273
637 2 15.8861 154.002 12.5769
638 2 3.96681 154.147 12.5986
639 2 8.01966 154.253 12.6241
640 2 11.8936 154.005 12.7362
641 2 15.9441 157.942 16.6872
642 2 4.16142 158.089 16.4906
643 2 8.09278 158.138 16.6224
644 2 12.0086 157.981 16.4174
645 2 15.9203 3.60896 16.6428
646 2 4.11073 3.68483 16.5585
647 2 7.74859 3.71463 16.4935
648 2 11.8538 3.57651 16.5574
649 2 -0.00966358 7.44214 16.5739
650 2 3.93087 7.61812 16.3055
651 2 8.04751 7.62431 16.5829
652 2 11.8396 7.64367 16.6272
653 2 15.677 11.385 16.633
654 2 3.96691 11.4 16.4994
655 2 7.96612 11.4022 16.5463
656 2 11.82 11.5038 16.5386
657 2 -0.223945 15.3953 16.5033
658 2 3.64368 15.2778 16.6222
659 2 7.68241 15.4235 16.4671
660 2 11.7603 15.3061 16.6031
661 2 15.8187 19.2097 16.4715
662 2 3.89423 19.1814 16.4658
663 2 8.13595 19.2238 16.3287
664 2 12.1592 19.3753 16.6699
665 2 15.9612 23.0636 16.4554
666 2 3.99338 23.2998 16.4892
667 2 7.88513 23.1755 16.3668
668 2 11.8584 23.1386 16.1333
669 2 -0.132294 26.9547 16.6054
670 2 3.96955 26.9465 16.4685
671 2 7.85626 27.2078 16.4006
672 2 11.6209 26.9912 16.3859
673 2 15.8183 31.1129 16.5185
674 2 4.0425 30.9683 16.4588
675 2 7.69653 31.1701 16.3172
676 2 11.7086 31.0129 16.4287
677 2 15.9162 34.9441 16.6486
678 2 3.925 34.946 16.6227
679 2 7.97794 35.0641 16.3707
680 2 11.6446 35.1359 16.456
681 2 0.101023 38.9619 16.4976
682 2 4.05888 39.0595 16.6467
683 2 8.01744 39.0252 16.3827
684 2 11.9571 38.9135 16.4791
685 2 16.1865 43.1025 16.7907
686 2 4.08874 43.0797 16.5794
687 2 7.95047 43.06 16.5795
688 2 11.867 43.0504 16.6007
689 2 0.123114 47.0047 16.6389
690 2 4.07302 47.1899 16.5491
691 2 8.1306 47.1024 16.8431
692 2 12.0438 46.9747 16.7898
693 2 16.076 51.2116 16.4881
694 2 4.02958 51.016 16.7057
695 2 8.0139 51.0601 16.6757
696 2 11.9759 51.1415 16.8067
697 2 0.106291 55.1086 16.7752
698 2 4.08952 55.2303 16.9117
699 2 7.92431 55.0322 16.8423
700 2 11.9546 55.2353 16.7783
701 2 0.1171 59.0735 16.7493
702 2 4.04851 59.2533 16.7759
703 2 8.10772 59.1005 16.9099
704 2 11.9565 59.0451 16.8417
705 2 -0.0754886 63.0405 16.8233
706 2 3.9267 63.0996 16.8593
707 2 8.05913 63.2116 17.0434
708 2 12.0801 63.2411 17.0762
709 2 0.0483307 67.1736 16.8761
710 2 4.05327 67.0973 16.9738
711 2 8.11058 67.2365 16.8235
712 2 12.0023 67.2061 16.9306
713 2 0.157671 71.2521 16.9753
714 2 4.12928 71.2119 16.9565
715 2 7.89978 71.4654 17.0434
716 2 12.0393 71.2449 17.2987
717 2 0.10879 75.2979 17.1384
718 2 4.18575 75.3017 17.1397
719 2 8.11129 75.3823 17.1218
720 2 11.8916 75.2867 17.2514
721 2 0.14503 79.4176 17.2582
722 2 3.98921 79.2708 17.157
723 2 8.07665 79.3993 17.1623
724 2 12.1336 79.3535 17.0162
725 2 0.077567 83.1836 17.2365
726 2 4.10492 83.588 17.4217
727 2 8.01019 83.3844 17.3046
728 2 11.937 83.3507 17.1452
729 2 0.0165014 87.2561 17.2882
730 2 3.85322 87.3843 17.322
731 2 7.96475 87.195 17.1397
732 2 11.8427 87.5325 17.5354
733 2 0.0336431 91.4428 17.5386
734 2 4.06429 91.3001 17.3412
735 2 7.99673 91.5356 17.4048
736 2 12.0007 91.3126 17.555
737 2 0.0216739 95.2569 17.4999
738 2 3.95167 95.3677 17.3168
739 2 7.84914 95.2252 17.5153
740 2 11.8803 95.231 17.2876
741 2 16.1192 99.3567 17.2561
742 2 4.26798 99.348 17.3483
743 2 7.98646 99.2932 17.3183
744 2 11.927 99.2022 17.3891
745 2 15.7887 103.093 17.2998
746 2 4.05402 103.334 17.4095
747 2 8.07653 103.329 17.5142
748 2 11.9629 103.289 17.4094
749 2 16.0472 107.114 17.3488
750 2 4.0625 107.078 17.2858
751 2 7.95843 107.301 17.6062
752 2 11.9372 107.202 17.3301
753 2 0.0011544 111.304 17.2311
754 2 4.07787 111.085 17.3011
755 2 8.02838 111.217 17.2659
756 2 11.896 111.082 17.2813
757 2 -0.0376149 114.929 17.2351
758 2 4.01898 115.027 17.1637
759 2 8.03065 115.103 17.3517
760 2 12.1005 115.024 17.2029
761 2 -0.0117409 118.953 17.1247
762 2 3.93697 118.911 17.3244
763 2 7.94156 118.875 17.1616
764 2 11.9656 119.062 16.9993
765 2 0.0367653 122.77 17.1101
766 2 4.06834 122.81 17.2798
767 2 7.99427 122.826 16.935
768 2 11.9249 122.816 17.0232
769 2 -0.095864 126.784 17.1066
770 2 3.95667 126.65 17.0463
771 2 8.11788 126.808 17.1856
772 2 11.6979 126.836 17.0932
773 2 0.232271 130.685 16.8267
774 2 4.0768 130.711 16.8803
775 2 8.04831 130.562 16.9634
776 2 11.9853 130.624 17.2325
777 2 0.145151 134.35 16.9655
778 2 4.09572 134.494 17.01
779 2 8.07236 134.608 16.8059
780 2 12.1127 134.655 16.9733
781 2 16.0873 138.421 16.8546
782 2 4.25487 138.337 16.7188
783 2 8.18574 138.562 16.9833
784 2 12.2075 138.515 16.8181
785 2 15.9804 142.295 16.6965
786 2 4.33408 142.327 16.9822
787 2 8.04344 142.421 16.8397
788 2 12.1776 142.438 16.8842
789 2 15.9966 146.277 16.8412
790 2 4.09955 146.331 16.7688
791 2 8.10314 146.401 16.7624
792 2 12.0279 146.103 16.7881
793 2 15.9582 150.279 16.5614
794 2 4.06552 150.29 16.8337
795 2 7.8972 150.198 16.6847
796 2 11.9898 150.18 16.5046
797 2 0.152406 154.235 16.7114
798 2 3.91238 154.205 16.7882
799 2 7.92734 154.339 16.6229
800 2 11.8782 154.213 16.7696
801 2 0.0912217 158.167 20.6869
802 2 3.98953 158.058 20.6967
803 2 7.96385 158.105 20.6013
804 2 11.904 158.061 20.3912
805 2 15.8384 3.50094 20.608
806 2 3.79748 3.69932 20.6248
807 2 7.83555 3.64038 20.5951
808 2 11.9022 3.62007 20.4091
809 2 0.0964926 7.53233 20.7032
810 2 3.85509 7.49903 20.4217
811 2 7.89047 7.57344 20.6491
812 2 11.9237 7.49605 20.669
813 2 15.7749 11.5426 20.6384
814 2 4.01324 11.5275 20.5228
815 2 7.82793 11.3723 20.5701
816 2 11.8187 11.5975 20.5572
817 2 15.9448 15.3798 20.38
818 2 3.92256 15.3425 20.5442
819 2 7.75772 15.4061 20.3381
820 2 11.8405 15.3737 20.7616
821 2 15.8011 19.3142 20.5243
822 2 3.78922 19.2936 20.1798
823 2 7.59867 19.2361 20.3892
824 2 11.7769 19.2877 20.4224
825 2 15.7732 23.064 20.4358
826 2 3.84178 23.0608 20.4634
827 2 7.67359 22.9396 20.5877
828 2 11.8861 23.166 20.3491
829 2 -0.308453 27.0516 20.3888
830 2 4.00915 27.2205 20.413
831 2 8.08043 26.908 20.4547
832 2 11.7555 27.117 20.4538
833 2 0.00604239 31.0899 20.3316
834 2 3.88092 30.8326 20.2083
835 2 7.88815 30.827 20.4711
836 2 11.7657 31.0004 20.4237
837 2 15.7369 34.9848 20.6374
838 2 4.00593 35.0381 20.452
839 2 8.03191 34.9343 20.603
840 2 11.7182 34.911 20.4295
841 2 -0.135641 38.8739 20.2786
842 2 3.71256 39.0914 20.4279
843 2 7.69319 38.898 20.4795
844 2 11.7662 39.1061 20.4229
845 2 0.0478119 43.1713 20.4729
846 2 3.98399 43.0312 20.5464
847 2 7.81395 42.8709 20.4629
848 2 11.754 42.8355 20.6044
849 2 -0.0775391 47.1517 20.4785
850 2 3.95009 47.0228 20.6556
851 2 7.89539 47.0372 20.6281
852 2 11.6589 47.1549 20.5358
853 2 -0.128139 51.2087 20.6718
854 2 3.98117 51.0501 20.6877
855 2 8.00628 50.9402 20.6248
856 2 11.7839 50.9345 20.8015
857 2 0.155975 55.1181 20.6867
858 2 4.10998 54.9442 20.8397
859 2 8.0134 54.9184 20.7941
860 2 12.0607 55.0328 20.5378
861 2 16.1836 58.9604 20.7391
862 2 3.9966 59.0558 20.7472
863 2 7.90219 58.9836 20.6095
864 2 12.2106 59.1235 20.668
865 2 15.9271 63.0018 20.7587
866 2 4.10512 63.0626 20.8706
867 2 8.01287 63.0801 20.9288
868 2 11.9664 63.0463 20.8107
869 2 0.18529 67.0258 20.8701
870 2 4.15947 67.0716 20.9628
871 2 8.06479 67.1543 20.8231
872 2 11.9047 67.1792 20.8768
873 2 0.0858395 71.1983 21.0601
874 2 3.94903 71.0715 21.0546
875 2 7.78677 71.2058 20.8459
876 2 11.8479 71.1492 20.9598
877 2 0.293675 75.3322 21.0179
878 2 3.98167 75.2424 20.9032
879 2 7.93106 74.954 21.0917
880 2 11.879 75.2027 20.9067
881 2 0.191514 79.3936 21.1376
882 2 4.17033 79.4407 21.3039
883 2 8.06056 79.1329 21.0872
884 2 11.915 79.1936 21.0741
885 2 0.194134 83.2857 21.125
886 2 4.0448 83.2972 21.4022
887 2 7.99545 83.2071 21.1615
888 2 11.9384 83.3023 21.0394
889 2 -0.0134259 87.1508 21.0699
890 2 3.99095 87.2736 21.4331
891 2 8.04058 87.4028 21.2143
892 2 11.9092 87.3671 21.4039
893 2 0.138187 91.2262 21.3575
894 2 3.82148 91.2649 21.0818
895 2 7.9448 91.3508 21.2759
896 2 12.0402 91.2699 21.2889
897 2 16.0087 95.3436 21.315
898 2 4.0821 95.533 21.3781
899 2 8.08586 95.3089 21.3988
900 2 11.9641 95.5617 21.2604
901 2 0.085483 99.3608 21.1634
902 2 4.05461 99.2459 21.4572
903 2 8.06536 99.3111 21.5336
904 2 12.0722 99.1684 21.3986
905 2 15.8198 103.231 21.3324
906 2 3.99295 103.206 21.318
907 2 7.88225 103.112 21.5097
908 2 11.9172 103.062 21.4186
909 2 -0.201509 107.451 21.338
910 2 4.0216 107.203 21.3828
911 2 7.87758 107.263 21.4339
912 2 11.8404 107.263 21.2768
913 2 15.8616 111.027 21.2648
914 2 3.82551 111.098 21.2999
915 2 7.70381 111.137 21.1697
916 2 11.88 111.367 21.1936
917 2 0.0727776 115.107 21.2635
918 2 3.95751 115.082 21.4062
919 2 7.84274 115.193 21.0716
920 2 11.9511 115.111 21.4312
921 2 0.110956 118.879 21.187
922 2 4.04451 119.076 21.0436
923 2 8.00901 119.113 21.1001
924 2 11.9481 118.897 21.2356
925 2 0.0316796 122.972 21.0856
926 2 3.95579 123.035 21.2476
927 2 7.90819 122.913 21.1029
928 2 11.7937 122.674 21.2278
929 2 0.0266336 126.657 21.1567
930 2 3.87223 126.684 21.047
931 2 7.68646 126.819 21.1668
932 2 11.8459 126.77 20.9977
933 2 -0.0746624 130.725 21.1541
934 2 3.84522 130.536 20.9988
935 2 7.90085 130.702 21.0993
936 2 11.9855 130.867 21.1867
937 2 16.2007 134.65 20.7935
938 2 4.07241 134.653 21.1314
939 2 8.04636 134.399 20.8608
940 2 12.0399 134.739 20.9468
941 2 15.9651 138.624 20.9764
942 2 4.11424 138.485 21.0127
943 2 8.1003 138.368 20.9301
944 2 12.0522 138.587 21.0389
945 2 16.0426 142.358 20.7741
946 2 4.02857 142.316 20.8738
947 2 7.8644 142.411 20.8782
948 2 11.9742 142.363 20.9994
949 2 0.184779 146.413 20.7074
950 2 3.9337 146.304 20.723
951 2 8.24898 146.27 20.6034
952 2 12.1017 146.51 20.7724
953 2 15.9414 150.187 20.5547
954 2 4.03052 150.268 20.6564
955 2 8.1164 150.376 20.5998
956 2 12.1166 150.159 20.6773
957 2 0.0828605 154.154 20.6405
958 2 4.00133 154.205 20.6032
959 2 7.99846 154.198 20.6641
960 2 11.816 154.004 20.5996
961 2 -0.0228984 158.002 24.6691
962 2 4.03178 157.989 24.835
963 2 7.97472 158.012 24.8554
964 2 11.97 158.241 24.703
965 2 16.0946 3.67424 24.4974
966 2 4.05807 3.7905 24.6087
967 2 7.95059 3.56864 24.6568
968 2 11.8913 3.6845 24.6296
969 2 -0.0256699 7.48712 24.6115
970 2 4.1086 7.60607 24.6894
971 2 7.9239 7.68245 24.6002
972 2 12.0223 7.57944 24.573
973 2 0.122192 11.4257 24.6643
974 2 3.80538 11.5049 24.5552
975 2 7.82764 11.5727 24.4907
976 2 11.7484 11.4639 24.4571
977 2 -0.217149 15.4302 24.7192
978 2 3.77708 15.5218 24.4044
979 2 7.68971 15.3432 24.638
980 2 11.8054 15.4577 24.4931
981 2 15.8542 19.334 24.4544
982 2 3.99604 19.2437 24.5283
983 2 7.98538 19.2752 24.4001
984 2 11.9376 19.3758 24.3193
985 2 -0.167966 23.2835 24.5566
986 2 4.00784 23.2831 24.475
987 2 7.9372 23.1904 24.5248
988 2 11.7841 23.3042 24.438
989 2 -0.0811119 26.9867 24.4302
990 2 3.7183 26.9771 24.4082
991 2 7.63466 27.1684 24.3416
992 2 11.7594 27.1073 24.4532
993 2 -0.142898 30.9119 24.3538