ITEM: TIMESTEP
16100
ITEM: NUMBER OF ATOMS
32000
ITEM: BOX BOUNDS xy xz yz pp pp pp
0.0000000000000000e+00 1.5832000000000001e+01 0.0000000000000000e+00
0.0000000000000000e+00 1.5831999999999999e+02 0.0000000000000000e+00
8.5633715866872251e-01 1.6012078084132978e+02 0.0000000000000000e+00
ITEM: ATOMS id type x y z
1 2 0.0164205 158.053 159.886
2 2 3.85445 157.83 159.698
3 2 8.24163 157.959 159.84
4 2 11.9917 158.013 159.916
5 2 16.2209 3.56065 159.817
6 2 4.07261 3.41789 159.681
7 2 8.03411 3.30891 159.757
8 2 12.1292 3.49138 159.873
9 2 -0.0225649 7.52611 159.87
10 2 4.03463 7.37195 159.779
11 2 8.15262 7.33675 159.843
12 2 11.6893 7.40176 159.613
13 2 -0.225201 11.3777 159.731
14 2 3.78092 11.3737 159.626
15 2 7.74362 11.1508 159.631
16 2 11.7432 11.393 159.672
17 2 15.7321 15.0827 159.888
18 2 3.77706 15.2141 159.559
19 2 7.71178 15.5491 159.55
20 2 11.7418 15.3969 159.626
21 2 -0.12987 19.2209 159.773
22 2 3.7861 19.2742 159.861
23 2 7.92107 19.3054 159.92
24 2 11.9104 19.1862 159.672
25 2 15.7975 23.148 0.366606
26 2 4.18893 23.0105 159.901
27 2 8.03162 23.1598 159.816
28 2 12.1435 23.2329 159.599
29 2 15.7701 27.2408 160.003
30 2 4.09381 27.1946 159.766
31 2 7.88468 27.2188 159.984
32 2 11.9621 27.0196 159.904
33 2 16.0418 31.2593 159.912
34 2 4.0703 31.2547 159.818
35 2 7.92269 31.2276 159.955
36 2 11.9147 31.3478 0.488284
37 2 16.0417 35.1476 160.059
38 2 4.13442 35.3964 0.7345
39 2 8.09794 35.2779 160.05
40 2 12.0669 35.1036 0.776719
41 2 -0.13938 39.4058 160.228
42 2 3.98048 39.4216 0.81405
43 2 8.03369 39.3664 1.10703
44 2 11.9422 39.3649 160.344
45 2 0.136796 43.3033 0.945034
46 2 4.10357 43.3295 0.967025
47 2 8.03884 43.2941 1.05284
48 2 11.8711 43.3169 0.874725
49 2 15.8545 47.2775 0.947274
50 2 4.24237 47.5111 1.03614
51 2 7.90487 47.2836 1.00566
52 2 11.9234 47.3091 1.07914
53 2 -0.190353 51.2367 1.0851
54 2 4.06727 51.4803 1.14958
55 2 7.8491 51.4621 1.03622
56 2 12.0371 51.5152 160.591
57 2 0.0326918 55.401 1.15864
58 2 3.8504 55.5647 1.14726
59 2 8.10426 55.6558 1.15697
60 2 11.8329 55.4524 1.16766
61 2 -0.0898033 59.4687 1.26299
62 2 4.02797 59.3768 1.25085
63 2 8.18852 59.4485 1.27291
64 2 11.9839 59.605 1.28
65 2 0.0424838 63.2994 1.17541
66 2 4.09255 63.5431 1.24355
67 2 7.98306 63.3756 1.31958
68 2 11.8577 63.5319 1.44674
69 2 0.0661936 67.5392 1.42931
70 2 3.91701 67.5368 1.35401
71 2 8.02241 67.4808 1.30104
72 2 12.0014 67.5515 1.43983
73 2 15.8494 71.7457 1.48001
74 2 4.20784 71.5944 1.65627
75 2 7.78833 71.6169 1.24141
76 2 12.0362 71.5221 1.42926
77 2 -0.0422662 75.3971 1.51881
78 2 3.97491 75.5272 1.34576
79 2 8.17287 75.4534 1.47357
80 2 12.0708 75.6014 1.50511
81 2 -0.0536289 79.5298 1.4371
82 2 3.83051 79.4827 1.49606
83 2 7.78094 79.4702 1.42869
84 2 11.8297 79.4722 1.58468
85 2 0.0661865 83.5396 1.44041
86 2 3.86895 83.4382 1.4183
87 2 7.97592 83.6583 1.501
88 2 11.8053 83.4567 1.29779
89 2 -0.0442942 87.4651 1.4408
90 2 4.03508 87.3475 1.37585
91 2 8.09674 87.6206 1.50818
92 2 11.9684 87.3709 1.42607
93 2 -0.0850638 91.1203 1.41105
94 2 3.96671 91.4263 1.29705
95 2 7.97733 91.5587 1.39878
96 2 11.8023 91.3847 1.46171
97 2 0.0869324 95.3393 1.41444
98 2 4.13532 95.2796 1.36218
99 2 7.94297 95.2333 1.397
100 2 11.7952 95.2386 1.46384
101 2 -0.0111421 99.2469 1.22909
102 2 3.99002 99.1444 1.20409
103 2 8.02458 99.1084 1.49625
104 2 11.9482 99.1957 1.22235
105 2 15.9977 103.085 1.13677
106 2 4.02544 103.22 1.35009
107 2 7.86631 103.211 1.27122
108 2 11.9812 103.234 1.30472
109 2 16.0189 107.255 1.15595
110 2 3.94047 107.07 1.16755
111 2 8.09042 107.075 1.04832
112 2 11.9927 106.953 1.21809
113 2 0.0660961 111.032 1.1614
114 2 4.17265 110.806 1.15418
115 2 7.9911 110.854 1.00791
116 2 11.9617 111.053 1.12222
117 2 0.251098 114.956 0.948427
118 2 4.03817 114.963 1.08018
119 2 8.01878 114.888 0.897407
120 2 11.968 114.918 1.16232
121 2 15.9913 118.796 1.04302
122 2 4.00773 118.737 1.04922
123 2 8.01279 118.668 1.15483
124 2 12.1276 118.681 160.405
125 2 0.250781 122.703 1.21978
126 2 4.13201 122.715 1.18203
127 2 8.10077 122.6 0.996174
128 2 11.9575 122.548 1.00805
129 2 -0.109572 126.451 160.155
130 2 4.17108 126.615 160.306
131 2 7.87688 126.727 0.996441
132 2 12.0959 126.506 0.946346
133 2 0.0687572 130.396 160.229
134 2 4.03894 130.707 160.333
135 2 7.94824 130.493 1.05599
136 2 11.8257 130.303 160.189
137 2 -0.0604874 134.413 160.228
138 2 4.06263 134.43 160.173
139 2 7.98469 134.42 0.880385
140 2 11.9951 134.374 159.981
141 2 0.0494898 138.376 160.203
142 2 3.92176 138.339 160.138
143 2 7.98782 138.368 160.01
144 2 11.8358 138.304 0.821052
145 2 16.0242 142.144 160.061
146 2 4.01155 142.361 160.117
147 2 7.97462 142.228 160.102
148 2 11.9631 141.996 160.039
149 2 -0.0503192 146.118 159.959
150 2 3.947 146.341 160.016
151 2 8.08978 146.137 160.314
152 2 12.0057 146.043 160.069
153 2 15.8453 150.072 159.961
154 2 4.20529 150.099 160.097
155 2 8.00591 150.102 159.815
156 2 11.8233 150.018 159.95
157 2 15.9401 154.035 159.875
158 2 3.95094 154.083 160.022
159 2 7.84758 154.178 159.897
160 2 12.0813 154.117 159.89
161 2 15.7586 158.118 4.70361
162 2 4.12164 157.975 4.66586
163 2 8.00392 157.956 4.60985
164 2 11.8193 158.024 4.65705
165 2 15.8877 3.57663 4.63841
166 2 4.20043 3.68643 4.63237
167 2 7.85949 3.6384 4.46344
168 2 11.8978 3.47418 4.56253
169 2 15.7049 7.55672 4.52184
170 2 4.11332 7.56121 4.36989
171 2 8.04475 7.64476 4.58417
172 2 11.9928 7.31845 4.56187
173 2 15.6459 11.3542 4.44369
174 2 3.9965 11.2964 4.47499
175 2 8.12846 11.499 4.46999
176 2 11.8468 11.5444 4.39446
177 2 15.7569 15.1765 4.42583
178 2 4.03228 15.1852 4.31078
179 2 7.83428 15.0684 4.25105
180 2 11.8772 15.3414 4.53085
181 2 0.125248 19.0685 4.45804
182 2 4.03874 19.1477 4.57275
183 2 7.81209 19.0657 4.4635
184 2 11.9105 19.226 4.44664
185 2 15.8845 23.3414 4.43058
186 2 3.93983 23.0922 4.3689
187 2 7.99691 23.096 4.46307
188 2 11.9444 22.9631 4.37369
189 2 16.1212 27.3764 4.63973
190 2 3.9577 27.1904 4.50283
191 2 8.05828 27.1281 4.56645
192 2 12.1152 27.1388 4.55084
193 2 15.7787 31.0245 4.63479
194 2 3.95549 31.1507 4.66359
195 2 8.18353 31.2961 4.57957
196 2 11.8815 30.9889 4.4952
197 2 0.0181188 35.0813 4.67548
198 2 3.90145 35.1273 4.42767
199 2 7.9971 35.0637 4.91136
200 2 11.9821 35.1792 4.72434
201 2 -0.123506 39.2436 4.88369
202 2 3.9007 39.1265 4.68169
203 2 7.9665 38.9935 4.8095
204 2 11.9575 39.1116 4.86853
205 2 0.0754956 43.1782 4.81787
206 2 3.98821 43.1715 4.86441
207 2 7.91208 43.4245 5.07788
208 2 11.8966 43.244 5.03757
209 2 15.9265 47.3889 5.03184
210 2 4.04959 47.4434 4.93179
211 2 8.00611 47.4188 5.10523
212 2 11.979 47.2039 4.92369
213 2 0.202457 51.4709 4.97243
214 2 4.16768 51.4556 4.89953
215 2 7.90637 51.2901 5.0372
216 2 11.9214 51.4759 4.93717
217 2 0.0730264 55.4485 5.13134
218 2 4.05866 55.32 5.1779
219 2 8.18141 55.563 5.26265
220 2 11.9047 55.3837 5.18364
221 2 0.0492686 59.359 5.23844
222 2 3.95354 59.462 5.1371
223 2 7.89943 59.4489 5.05
224 2 11.8659 59.3813 5.19214
225 2 0.214119 63.3937 5.06457
226 2 4.08815 63.3289 5.17286
227 2 7.84361 63.4794 5.25215
228 2 11.9691 63.3584 5.21218
229 2 0.276648 67.5402 5.04475
230 2 3.95422 67.3232 5.19293
231 2 8.13884 67.5265 5.38215
232 2 11.8742 67.2801 5.25868
233 2 0.0643547 71.5955 5.36968
234 2 3.87559 71.4561 5.38429
235 2 7.96928 71.4054 5.23493
236 2 11.9324 71.2975 5.3477
237 2 0.29153 75.5244 5.45517
238 2 4.19834 75.5016 5.21951
239 2 8.16503 75.5878 5.32583
240 2 11.8289 75.5042 5.31468
241 2 0.0575682 79.359 5.30088
242 2 4.07928 79.6804 5.27029
243 2 7.79245 79.5178 5.33488
244 2 12.0419 79.5593 5.55295
245 2 15.8829 83.4079 5.50055
246 2 3.99542 83.4197 5.49251
247 2 7.95037 83.5057 5.3571
248 2 12.0057 83.5825 5.449
249 2 0.0500113 87.3701 5.53385
250 2 3.97933 87.368 5.4269
251 2 7.89274 87.4109 5.57435
252 2 11.879 87.283 5.52411
253 2 -0.00328261 91.4666 5.52605
254 2 3.88238 91.2542 5.37672
255 2 7.85421 91.4109 5.29651
256 2 11.954 91.2621 5.34598
257 2 -0.162029 95.277 5.36529
258 2 3.98889 95.2332 5.37765
259 2 8.03452 95.3629 5.42815
260 2 11.7829 95.171 5.48048
261 2 0.0426803 99.3767 5.29652
262 2 3.81452 99.4237 5.32006
263 2 7.79728 99.0704 5.29466
264 2 11.8705 99.2528 5.13783
265 2 16.0241 103.258 5.39161
266 2 4.08598 103.162 5.24256
267 2 7.95681 103.137 5.2256
268 2 12.1323 103.13 5.16374
269 2 0.0752824 107.068 5.18873
270 2 3.9552 107.181 5.06441
271 2 8.13303 107.017 5.26229
272 2 12.1503 107.124 5.15935
273 2 -0.140678 111.028 5.03682
274 2 4.24988 111.183 5.12674
275 2 7.94448 111.064 5.23964
276 2 11.9346 111.02 5.2288
277 2 15.918 114.85 5.27713
278 2 4.05746 114.679 5.12463
279 2 8.05373 114.949 5.21758
280 2 11.8327 114.926 5.12804
281 2 15.9429 118.771 5.16822
282 2 4.1373 118.756 4.88154
283 2 8.04455 118.835 5.17394
284 2 11.8604 118.782 5.09188
285 2 15.8335 122.691 5.18504
286 2 3.99376 122.736 5.09466
287 2 7.95286 122.73 5.10453
288 2 12.0824 122.813 5.01548
289 2 0.110646 126.517 5.26344
290 2 4.2234 126.612 5.03751
291 2 8.10775 126.55 5.12544
292 2 12.0435 126.515 5.02563
293 2 0.122358 130.423 5.21573
294 2 3.88524 130.575 4.96026
295 2 7.97302 130.621 4.94924
296 2 11.9295 130.482 4.96712
297 2 0.103445 134.148 4.84022
298 2 3.97888 134.442 4.84999
299 2 7.92892 134.428 4.8781
300 2 12.0569 134.362 4.92105
301 2 15.9982 138.22 4.79543
302 2 4.10066 138.427 5.06493
303 2 8.09958 138.415 4.87069
304 2 11.9899 138.125 5.04368
305 2 0.272943 142.278 4.8943
306 2 4.14678 142.436 4.88411
307 2 8.15722 142.261 4.83603
308 2 12.0761 142.352 4.87388
309 2 15.9289 146.187 4.73286
310 2 4.11643 146.249 4.79972
311 2 8.09746 146.231 4.83798
312 2 11.9247 146.332 4.65771
313 2 0.00672007 150.07 4.77514
314 2 4.15223 150.166 4.73525
315 2 7.89841 150.15 4.64606
316 2 11.9425 150.14 4.72036
317 2 15.8278 153.938 4.76501
318 2 3.96879 154.213 4.77759
319 2 7.96916 154.12 4.62762
320 2 11.8994 154.128 4.68016
321 2 16.1322 158.083 8.66006
322 2 4.16511 157.987 8.84729
323 2 8.12674 157.926 8.73729
324 2 12.1022 157.747 8.69827
325 2 16.0258 3.62755 8.64424
326 2 4.11687 3.42819 8.54894
327 2 8.11059 3.61284 8.7041
328 2 12.0665 3.55896 8.60333
329 2 0.0105452 7.61111 8.33372
330 2 3.94515 7.23551 8.44306
331 2 7.97638 7.52566 8.48125
332 2 11.9858 7.50556 8.61422
333 2 15.8295 11.3361 8.5661
334 2 4.03498 11.3408 8.46668
335 2 7.8096 11.2768 8.53121
336 2 11.9136 11.3825 8.57133
337 2 0.211694 15.1546 8.53317
338 2 4.12879 15.1263 8.28299
339 2 7.87327 15.1382 8.3614
340 2 11.8685 15.3609 8.4384
341 2 -0.196845 19.0612 8.34373
342 2 3.90601 19.1184 8.47172
343 2 7.88196 19.1416 8.25426
344 2 11.864 19.3686 8.41357
345 2 0.0516178 23.1489 8.53601
346 2 3.86233 23.1089 8.47146
347 2 7.98614 23.1053 8.48988
348 2 12.0046 22.9792 8.52382
349 2 15.8728 27.1566 8.38955
350 2 3.96646 27.0673 8.46313
351 2 8.09139 26.8436 8.36081
352 2 11.8272 26.9559 8.4659
353 2 15.8089 31.0802 8.55795
354 2 4.09712 31.0704 8.7191
355 2 7.9899 31.0991 8.44646
356 2 11.8883 30.9988 8.52608
357 2 16.0202 34.9437 8.48586
358 2 3.98132 35.1257 8.73178
359 2 7.91613 35.1118 8.78452
360 2 11.9766 35.1413 8.63974
361 2 15.9926 39.2042 8.77243
362 2 3.80571 39.2621 8.59589
363 2 7.89774 39.0166 8.80997
364 2 11.8537 39.0876 8.9424
365 2 16.0295 43.1843 8.61663
366 2 4.11194 43.1091 8.83096
367 2 7.79866 43.2132 8.94371
368 2 11.7371 43.125 8.78875
369 2 -0.0363931 47.1696 8.8111
370 2 3.88831 47.2924 8.98049
371 2 7.96561 47.2301 9.14083
372 2 11.8861 47.1442 8.77292
373 2 -0.209964 51.3209 8.77539
374 2 3.79013 51.2785 8.93184
375 2 7.8477 51.1816 8.95605
376 2 11.8148 51.144 8.939
377 2 -0.0341887 55.1798 9.09476
378 2 4.01165 55.2923 8.99468
379 2 7.92092 55.2141 9.12882
380 2 11.8462 55.2278 9.17708
381 2 15.9001 59.4057 8.98245
382 2 3.95167 59.3636 8.92133
383 2 7.87384 59.3088 9.12375
384 2 12.0137 59.3645 9.0399
385 2 -0.162684 63.5383 8.99317
386 2 3.95973 63.4786 8.97484
387 2 7.85402 63.2007 9.27636
388 2 11.9812 63.2199 9.13528
389 2 0.132244 67.3632 8.95937
390 2 3.91424 67.1391 9.19331
391 2 7.91249 67.3521 9.33793
392 2 12.0043 67.3324 9.13511
393 2 0.0843324 71.2395 9.17346
394 2 4.05062 71.3872 9.15134
395 2 7.78215 71.4286 9.24411
396 2 11.9104 71.2766 9.1875
397 2 0.116074 75.4329 9.3108
398 2 4.10028 75.4541 9.14934
399 2 7.90579 75.3415 9.0361
400 2 11.8896 75.3015 9.44156
401 2 -0.0016696 79.3803 9.34732
402 2 3.93683 79.3442 9.29213
403 2 7.7991 79.4761 9.45569
404 2 11.7226 79.4659 9.36676
405 2 0.138033 83.2841 9.34508
406 2 4.00937 83.378 9.27488
407 2 7.83416 83.4403 9.24517
408 2 11.8421 83.3783 9.44795
409 2 0.178581 87.3101 9.46069
410 2 3.94365 87.6322 9.40185
411 2 7.89898 87.3796 9.71147
412 2 11.972 87.2773 9.47404
413 2 0.10776 91.2322 9.31361
414 2 4.01729 91.412 9.32549
415 2 7.76659 91.2784 9.31331
416 2 11.7497 91.3335 9.27908
417 2 0.190265 95.2969 9.38893
418 2 4.10199 95.2735 9.52097
419 2 7.88015 95.3071 9.34719
420 2 11.8713 95.1308 9.53738
421 2 15.8431 99.054 9.29742
422 2 4.06115 99.1813 9.45751
423 2 8.02946 99.331 9.43328
424 2 11.848 99.1566 9.26814
425 2 0.0063098 103.207 9.22684
426 2 3.9011 103.121 9.26571
427 2 8.09057 103.095 9.2682
428 2 12.0894 102.957 9.22813
429 2 15.9364 107.037 9.27821
430 2 4.25689 107.023 9.26874
431 2 7.91733 106.829 9.19482
432 2 11.9884 107.173 9.23168
433 2 0.16988 110.885 9.08067
434 2 4.10009 110.882 9.2812
435 2 7.97799 111.086 9.18892
436 2 11.7416 110.924 9.1911
437 2 -0.0352954 114.874 9.09248
438 2 3.93196 115.034 9.23857
439 2 7.98171 114.836 9.18771
440 2 11.9899 114.717 9.15473
441 2 -0.180619 118.656 9.15388
442 2 3.89944 118.624 9.04058
443 2 7.77794 118.894 9.10182
444 2 11.9316 118.943 9.10017
445 2 15.9832 122.675 9.13198
446 2 3.83973 122.573 9.10385
447 2 7.80959 122.644 9.177
448 2 11.7332 122.694 9.23801
449 2 0.163704 126.592 9.14016
450 2 4.38601 126.636 9.18146
451 2 8.05652 126.752 9.20823
452 2 12.0297 126.696 9.1157
453 2 0.115753 130.56 8.96728
454 2 4.02056 130.605 9.01684
455 2 8.05603 130.543 8.98108
456 2 12.1099 130.545 8.92537
457 2 0.32939 134.559 8.94542
458 2 4.03714 134.596 9.1003
459 2 8.07473 134.44 9.02295
460 2 12.0595 134.55 9.02358
461 2 -0.0569021 138.432 8.89419
462 2 4.00231 138.307 8.85603
463 2 8.097 138.403 8.94215
464 2 11.9895 138.452 8.93131
465 2 0.221499 142.316 8.75434
466 2 4.06291 142.349 9.04146
467 2 8.02285 142.321 9.01716
468 2 11.8624 142.264 8.81068
469 2 16.0031 146.227 8.74563
470 2 3.9201 146.313 8.8783
471 2 7.84627 146.38 8.61744
472 2 12.1051 146.136 8.85003
473 2 15.9074 150.18 8.81581
474 2 4.25883 150.194 8.79179
475 2 8.13475 150.172 8.65819
476 2 11.9905 150.104 8.78617
477 2 16.0364 154.033 8.62035
478 2 4.01957 154.015 8.46961
479 2 8.06551 154.264 8.69554
480 2 11.9989 154.036 8.73685
481 2 15.8375 157.887 12.5697
482 2 3.9836 157.883 12.6694
483 2 7.88059 157.901 12.729
484 2 12.1181 157.948 12.5825
485 2 15.8327 3.30065 12.7762
486 2 3.96679 3.52936 12.6421
487 2 8.26004 3.56493 12.6933
488 2 11.9893 3.57951 12.6891
489 2 0.149385 7.30426 12.5794
490 2 3.95195 7.39122 12.4322
491 2 8.00798 7.49549 12.6414
492 2 12.0455 7.57512 12.6553
493 2 16.1039 11.2813 12.5664
494 2 3.98764 11.3349 12.6159
495 2 7.86934 11.4849 12.5675
496 2 12.0549 11.3578 12.6165
497 2 -0.104853 15.2961 12.4405
498 2 4.11605 15.1499 12.4834
499 2 7.95241 15.3166 12.4182
500 2 11.7657 15.2436 12.491
501 2 15.7383 19.26 12.5604
502 2 3.82741 19.0511 12.3627
503 2 7.93956 19.113 12.4653
504 2 11.7482 18.8241 12.2575
505 2 15.791 23.0146 12.4084
506 2 3.93291 22.9213 12.244
507 2 7.81723 22.9554 12.4225
508 2 11.694 22.9999 12.3007
509 2 15.7839 26.9107 12.3668
510 2 3.78761 27.0874 12.4143
511 2 7.84329 26.969 12.3555
512 2 11.9463 26.8729 12.426
513 2 0.135475 30.9819 12.5201
514 2 3.97603 31.0729 12.5432
515 2 8.11838 31.0191 12.395
516 2 11.9976 30.9257 12.7184
517 2 15.7602 35.0661 12.3994
518 2 3.91515 35.0493 12.6842
519 2 8.01408 35.0908 12.4888
520 2 12.0465 35.1021 12.415
521 2 15.9617 39.1585 12.5603
522 2 3.99495 39.0686 12.5564
523 2 7.80824 39.0529 12.6501
524 2 11.9816 39.091 12.6333
525 2 15.764 43.1265 12.7906
526 2 3.89612 42.9629 12.682
527 2 7.84345 43.1444 12.7911
528 2 11.8428 43.091 12.6985
529 2 15.6215 47.0861 12.6159
530 2 3.79722 47.0256 12.8346
531 2 7.77281 47.2 12.8017
532 2 11.8426 47.1184 12.8818
533 2 -0.0658865 51.1025 12.9498
534 2 4.00235 51.1184 12.8391
535 2 8.18913 51.1275 12.8838
536 2 12.0099 51.098 12.91
537 2 0.145772 55.2946 12.9803
538 2 3.93223 55.2126 12.9117
539 2 8.16938 55.2016 12.9703
540 2 11.9818 55.1009 12.8965
541 2 0.0274477 59.1662 12.9326
542 2 4.06688 59.1229 13.0031
543 2 8.089 59.1851 12.9092
544 2 11.8618 59.2311 12.8335
545 2 -0.0184062 63.2363 12.9655
546 2 4.03176 63.1092 13.1129
547 2 8.06348 63.0573 13.1336
548 2 12.0015 63.2834 12.8809
549 2 0.00290066 67.1602 12.9721
550 2 3.93734 67.251 12.9903
551 2 7.94245 67.3716 13.3582
552 2 11.7563 67.2245 13.2286
553 2 -0.0472407 71.3879 13.0085
554 2 3.67296 71.3384 13.1777
555 2 7.7159 71.3172 13.1959
556 2 11.7198 71.2583 13.1662
557 2 -0.158026 75.4902 13.0158
558 2 3.77796 75.4226 12.9908
559 2 7.88203 75.19 13.1111
560 2 11.8656 75.3725 13.1638
561 2 -0.0348564 79.3865 13.0502
562 2 3.89543 79.6427 13.3182
563 2 7.79245 79.4471 13.402
564 2 11.8107 79.3068 13.1184
565 2 -0.0886683 83.4169 13.4428
566 2 4.1395 83.4196 13.0869
567 2 7.91323 83.4088 13.3288
568 2 11.9936 83.5117 13.2882
569 2 0.192922 87.3743 13.4737
570 2 4.20084 87.4478 13.3438
571 2 8.19537 87.5442 13.4082
572 2 12.0102 87.4543 13.3887
573 2 0.136321 91.2678 13.4193
574 2 4.10985 91.4461 13.3893
575 2 8.0773 91.4081 13.3542
576 2 12.1085 91.3569 13.4698
577 2 -0.0238818 95.1336 13.4004
578 2 3.90718 95.2164 13.4434
579 2 8.0968 95.376 13.4645
580 2 11.8299 95.4555 13.3226
581 2 -0.0122902 99.1334 13.4446
582 2 3.93532 99.3042 13.6099
583 2 7.92626 99.3591 13.3931
584 2 11.7948 99.261 13.4048
585 2 -0.0311838 103.253 13.198
586 2 4.18538 103.323 13.2398
587 2 7.92681 103.153 13.1182
588 2 11.8058 103.188 13.4667
589 2 15.868 107.063 13.1634
590 2 3.97276 107.197 13.2759
591 2 8.00817 107.2 13.1633
592 2 11.9724 107.126 13.2644
593 2 0.0552882 110.993 13.1627
594 2 4.24243 110.992 13.0374
595 2 7.99337 111.177 13.0965
596 2 11.8747 110.898 13.1591
597 2 15.8149 114.834 13.1838
598 2 4.00976 114.916 13.0726
599 2 7.85805 114.962 13.3048
600 2 11.7912 114.916 13.0877
601 2 15.8508 118.687 13.2054
602 2 3.98297 118.744 13.3765
603 2 7.9479 118.845 13.2817
604 2 11.9746 118.779 13.0245
605 2 -0.00250037 122.864 13.0988
606 2 3.84634 122.633 13.1682
607 2 7.83541 122.681 13.2315
608 2 11.8711 122.717 13.0468
609 2 16.0638 126.725 13.1906
610 2 3.94073 126.65 13.1434
611 2 7.81381 126.69 13.2113
612 2 11.9897 126.828 13.1904
613 2 15.8714 130.718 12.9812
614 2 4.14398 130.484 12.9885
615 2 8.08716 130.658 12.8768
616 2 12.0611 130.604 13.1514
617 2 -0.0633282 134.654 12.9878
618 2 4.10302 134.523 12.973
619 2 7.92261 134.614 12.987
620 2 11.6903 134.524 13.1334
621 2 0.140091 138.65 13.0296
622 2 3.95548 138.457 12.9355
623 2 8.0127 138.516 13.0953
624 2 11.7484 138.555 12.9485
625 2 15.8582 142.573 12.6793
626 2 4.07631 142.368 12.9526
627 2 7.946 142.457 12.7702
628 2 11.9301 142.616 12.7404
629 2 0.00429859 146.413 12.8828
630 2 3.96274 146.218 12.7569
631 2 7.84911 146.301 12.8031
632 2 11.7708 146.402 12.8844
633 2 15.9015 149.985 12.7915
634 2 4.10719 150.26 12.7913
635 2 7.86649 150.194 12.9121
636 2 12.0805 150.245 12.8121
637 2 15.945 154.074 12.7314
638 2 4.1351 154.185 12.817
639 2 8.13371 154.076 12.6917
640 2 11.9235 154.042 12.7344
641 2 15.9831 158.085 16.9289
642 2 4.16873 158.023 16.7566
643 2 8.12455 158.152 16.7114
644 2 11.922 158.038 16.5801
645 2 15.9486 3.59972 16.659
646 2 4.10495 3.58319 16.7061
647 2 7.77177 3.54581 16.735
648 2 11.7817 3.84989 16.5188
649 2 -0.00346235 7.46156 16.7491
650 2 4.03288 7.41863 16.4732
651 2 7.9759 7.41269 16.6557
652 2 12.0138 7.52644 16.7126
653 2 15.9494 11.329 16.6326
654 2 4.06327 11.3413 16.5602
655 2 8.07614 11.3645 16.668
656 2 12.0544 11.4216 16.5816
657 2 -0.109142 15.2223 16.2638
658 2 3.74614 15.1408 16.6275
659 2 7.86461 15.4742 16.3192
660 2 11.8809 15.3389 16.5262
661 2 15.6514 19.118 16.4437
662 2 4.00312 19.1216 16.1918
663 2 7.90946 19.1856 16.4324
664 2 12.052 19.4599 16.6141
665 2 15.8151 23.034 16.4204
666 2 4.0476 23.3793 16.3632
667 2 7.90147 23.0573 16.5131
668 2 11.7164 23.1738 16.3372
669 2 -0.130854 26.7899 16.4596
670 2 3.83021 27.0029 16.296
671 2 7.75869 26.9881 16.4751
672 2 11.6712 27.0626 16.5109
673 2 15.6825 30.9418 16.4687
674 2 3.89561 30.8009 16.3575
675 2 7.72022 31.0137 16.2159
676 2 11.998 30.8957 16.4289
677 2 15.7863 34.9034 16.5387
678 2 3.9361 35.0161 16.6373
679 2 7.95707 35.0574 16.493
680 2 11.9515 34.9459 16.4191
681 2 0.0999501 39.018 16.3863
682 2 4.05838 39.0066 16.6177
683 2 8.22187 39.0985 16.3906
684 2 12.2373 38.9677 16.4607
685 2 15.7895 42.9399 16.7534
686 2 4.17078 43.0927 16.5013
687 2 7.94312 42.8306 16.477
688 2 11.9503 42.9754 16.6601
689 2 0.0514199 46.8717 16.8151
690 2 3.84297 46.9134 16.5647
691 2 7.76468 47.0497 16.7424
692 2 11.9423 47.0554 16.7578
693 2 15.9397 51.1405 16.6336
694 2 3.88525 50.9354 16.9226
695 2 7.81546 51.078 16.6605
696 2 12.0238 50.9928 16.8648
697 2 -0.0938749 54.9363 16.9122
698 2 4.07366 55.1567 16.897
699 2 7.75979 55.1625 16.9515
700 2 11.8203 55.1081 16.7692
701 2 -0.0997244 59.0629 16.8401
702 2 3.99689 59.2102 16.8524
703 2 7.86056 59.1158 16.8628
704 2 11.747 59.2452 16.9028
705 2 -0.213116 63.2539 16.9121
706 2 3.94503 63.2367 16.8676
707 2 7.94119 63.2715 16.9672
708 2 11.9381 63.1181 17.0225
709 2 0.0237577 67.317 16.9531
710 2 3.80403 67.1317 17.1207
711 2 8.02145 67.1277 17.0266
712 2 11.9583 67.3363 17.0167
713 2 0.0253472 71.3705 16.9105
714 2 3.86266 71.1805 17.0418
715 2 7.86509 71.2745 17.0391
716 2 12.0748 71.2094 17.1082
717 2 -0.0281736 75.2409 17.0371
718 2 4.07615 75.2853 17.0972
719 2 7.98432 75.409 17.082
720 2 11.9313 75.2349 17.1106
721 2 -0.0228141 79.1726 17.1722
722 2 4.02638 79.3052 17.0228
723 2 7.91678 79.2677 17.2126
724 2 11.8509 79.2531 17.2344
725 2 0.154753 83.2776 17.0877
726 2 4.18437 83.3648 17.3979
727 2 7.90372 83.3232 17.2947
728 2 11.9168 83.5541 17.2269
729 2 0.18682 87.2929 17.1509
730 2 4.09902 87.5717 17.3649
731 2 8.12364 87.3236 17.1295
732 2 12.0867 87.3888 17.367
733 2 0.258129 91.4317 17.3893
734 2 4.12187 91.2815 17.3692
735 2 8.03669 91.3645 17.3891
736 2 12.1939 91.5295 17.2933
737 2 -0.0270838 95.373 17.3724
738 2 3.93304 95.4659 17.3841
739 2 7.71272 95.2588 17.3835
740 2 12.0442 95.485 17.2227
741 2 15.9441 99.487 17.2636
742 2 3.99372 99.3077 17.354
743 2 7.99525 99.3355 17.4452
744 2 11.9798 99.3214 17.4767
745 2 15.9588 103.26 17.2846
746 2 4.11013 103.324 17.3519
747 2 8.09675 103.398 17.2609
748 2 11.9404 103.46 17.3315
749 2 16.1234 107.19 17.1416
750 2 4.14729 107.207 17.1849
751 2 8.0567 107.308 17.356
752 2 11.9701 107.123 17.3799
753 2 -0.011339 111.236 17.2835
754 2 4.0535 111.101 17.1424
755 2 7.97971 111.229 17.2601
756 2 11.8469 110.961 17.0752
757 2 -0.0475838 114.985 17.2513
758 2 3.92642 114.951 17.2616
759 2 8.14281 115.067 17.3817
760 2 11.9601 114.927 17.2352
761 2 0.00955421 118.861 17.2856
762 2 3.82196 118.829 17.438
763 2 7.95681 118.795 17.1781
764 2 11.8584 118.862 17.2387
765 2 0.0638875 122.818 17.198
766 2 4.04508 122.696 17.2378
767 2 7.85543 122.665 17.0919
768 2 11.9721 122.951 17.1372
769 2 -0.114548 126.848 17.112
770 2 4.11331 126.633 17.1783
771 2 8.14335 126.606 17.2398
772 2 11.8055 126.79 17.1645
773 2 0.0678142 130.743 16.935
774 2 4.0065 130.677 16.9103
775 2 7.93419 130.672 17.0738
776 2 11.9592 130.513 17.2022
777 2 -0.0481482 134.523 16.9512
778 2 3.97168 134.546 17.0612
779 2 7.76247 134.608 16.9516
780 2 11.851 134.572 17.0266
781 2 15.7846 138.483 16.8952
782 2 3.99062 138.474 16.906
783 2 8.02325 138.516 16.885
784 2 11.908 138.587 16.9101
785 2 15.8464 142.419 16.8031
786 2 4.12597 142.41 17.0964
787 2 7.86879 142.323 17.0258
788 2 11.9736 142.331 17.0222
789 2 15.8413 146.239 16.9046
790 2 4.13584 146.352 16.9811
791 2 7.99765 146.436 16.8797
792 2 11.9743 146.156 16.8551
793 2 15.9747 150.265 16.6167
794 2 4.12909 150.241 16.863
795 2 7.87403 150.258 16.7707
796 2 11.7985 150.206 16.5605
797 2 0.121081 154.125 16.8363
798 2 4.06471 154.234 16.8636
799 2 7.99109 153.939 16.6808
800 2 11.922 154.051 17.0525
801 2 0.0492258 158.084 20.9076
802 2 3.95579 158.081 20.8618
803 2 8.1973 157.907 20.888
804 2 11.8456 158.009 20.5689
805 2 15.796 3.52769 20.5893
806 2 3.79928 3.55556 20.7019
807 2 8.00242 3.60735 20.8303
808 2 11.8599 3.66983 20.7045
809 2 -0.0101474 7.61646 20.5644
810 2 3.81707 7.51981 20.6453
811 2 8.00393 7.34225 20.6852
812 2 11.8147 7.37476 20.6163
813 2 15.8212 11.4802 20.7056
814 2 4.0882 11.4176 20.6529
815 2 7.96924 11.3166 20.5574
816 2 11.7915 11.516 20.5392
817 2 15.9095 15.3345 20.5484
818 2 4.04881 15.3167 20.5852
819 2 7.91916 15.3733 20.5102
820 2 11.9163 15.4017 20.7178
821 2 15.7603 19.228 20.5957
822 2 3.78633 19.237 20.3786
823 2 7.75058 19.3573 20.3783
824 2 11.7134 19.3257 20.4204
825 2 15.7942 23.0147 20.5673
826 2 3.75776 23.238 20.36
827 2 7.76965 23.0263 20.5554
828 2 11.8798 23.1693 20.4486
829 2 -0.127027 26.8848 20.5017
830 2 3.7836 27.1843 20.4413
831 2 8.02046 26.9163 20.4246
832 2 11.958 27.0052 20.4704
833 2 -0.112112 30.9486 20.4617
834 2 3.74676 30.8962 20.2596
835 2 7.75815 30.9345 20.3363
836 2 11.6438 30.9418 20.32
837 2 15.6482 34.8836 20.4848
838 2 4.04012 34.8299 20.3549
839 2 7.97072 34.8452 20.3654
840 2 11.8752 34.8498 20.2914
841 2 -0.152035 38.8814 20.4423
842 2 4.02303 38.8572 20.5431
843 2 7.7435 38.8206 20.4531
844 2 11.9597 39.0657 20.4685
845 2 0.158223 43.0994 20.52
846 2 4.051 42.9293 20.6289
847 2 7.91919 42.8086 20.5693
848 2 11.9593 42.8235 20.7005
849 2 -0.174221 47.2928 20.4834
850 2 4.09782 47.0193 20.6407
851 2 7.74978 46.9202 20.6386
852 2 11.7787 46.9126 20.5227
853 2 -0.150818 51.0956 20.6708
854 2 3.85135 51.0776 20.7469
855 2 7.90937 50.9707 20.5726
856 2 11.8611 51.0192 20.7165
857 2 0.000705719 55.0386 20.8994
858 2 3.89579 54.8497 20.8537
859 2 7.92188 55.049 20.8331
860 2 11.8666 54.9665 20.6339
861 2 15.9513 59.0765 20.7594
862 2 3.89719 58.9802 20.8187
863 2 7.78865 58.9454 20.8422
864 2 11.9372 59.0734 20.8738
865 2 15.8486 63.0876 20.7017
866 2 4.16045 63.1881 20.8291
867 2 7.84821 63.1153 20.9435
868 2 11.8971 63.1783 21.0272
869 2 0.114489 67.158 20.9603
870 2 3.95666 67.2137 20.8488
871 2 7.92226 67.006 20.7413
872 2 11.8835 67.2573 20.919
873 2 0.0622056 71.1452 20.914
874 2 3.99818 71.1453 21.0235
875 2 7.66328 71.1393 21.0978
876 2 11.9687 71.1043 21.0731
877 2 0.0359797 75.1513 20.8848
878 2 4.03054 75.1756 20.9491
879 2 7.81554 74.9575 21.1006
880 2 11.9104 75.2152 20.8926
881 2 0.034868 79.341 21.1379
882 2 4.05248 79.1098 21.0483
883 2 8.06428 79.0959 21.1233
884 2 11.7363 79.2436 21.0992
885 2 0.108459 83.1986 20.867
886 2 3.93512 83.3664 21.1173
887 2 8.09317 83.1429 20.9522
888 2 11.9425 83.3259 21.1272
889 2 0.0583736 87.146 21.0269
890 2 4.2125 87.3705 21.2326
891 2 8.10498 87.5501 21.0247
892 2 11.8979 87.3297 21.1581
893 2 0.204059 91.3185 21.3231
894 2 4.14281 91.4071 21.2003
895 2 8.05292 91.4715 21.3262
896 2 12.1768 91.2676 21.2572
897 2 15.9985 95.3022 21.31
898 2 4.12885 95.5816 21.1682
899 2 8.16519 95.401 21.0895
900 2 11.957 95.612 20.9685
901 2 -0.0494191 99.5975 21.4692
902 2 3.81747 99.2066 21.3068
903 2 8.08155 99.377 21.3595
904 2 11.8938 99.36 21.4731
905 2 15.9516 103.424 21.3493
906 2 4.04582 103.143 21.1687
907 2 8.10763 103.111 21.4338
908 2 11.888 103.164 21.4845
909 2 -0.034903 107.19 21.3944
910 2 4.19169 106.99 21.1395
911 2 8.00487 107.031 21.3762
912 2 11.9042 107.234 21.223
913 2 16.0056 110.934 21.3003
914 2 3.99145 111.125 21.1987
915 2 7.93541 111.017 21.2607
916 2 11.9977 111.104 21.0211
917 2 0.138127 115.158 21.2735
918 2 4.00399 114.912 21.3882
919 2 7.99327 115.107 21.2832
920 2 12.0301 115.056 21.5913
921 2 -0.0419587 118.891 21.2013
922 2 4.05318 119.059 21.1949
923 2 8.10596 118.936 21.2331
924 2 12.012 118.87 21.4246
925 2 0.0577465 122.962 21.2552
926 2 3.96618 122.87 21.287
927 2 8.12217 122.774 21.2831
928 2 11.9339 122.788 21.2366
929 2 0.0296579 126.676 21.1315
930 2 4.23047 126.657 21.0854
931 2 8.01973 126.738 21.2689
932 2 12.0825 126.661 21.1541
933 2 0.145753 130.676 21.07
934 2 4.04827 130.508 21.0164
935 2 8.08726 130.624 21.1913
936 2 12.1131 130.793 21.1909
937 2 16.0909 134.746 20.8913
938 2 4.05474 134.641 21.0796
939 2 7.92698 134.349 20.9655
940 2 11.889 134.633 21.075
941 2 15.7683 138.599 20.9805
942 2 3.93894 138.573 21.0512
943 2 7.94637 138.396 20.9363
944 2 11.8171 138.47 20.7614
945 2 16.0175 142.509 20.7615
946 2 3.92167 142.382 21.0005
947 2 7.77571 142.414 21.0523
948 2 11.7377 142.422 20.8595
949 2 0.211016 146.33 20.9005
950 2 3.84889 146.306 20.9869
951 2 8.1979 146.405 20.8526
952 2 11.9248 146.323 21.021
953 2 15.9175 150.072 20.7437
954 2 4.01682 150.098 20.9344
955 2 7.96923 150.066 20.921
956 2 12.103 150.147 20.6527
957 2 0.115304 154.2 20.8253
958 2 3.88965 154.266 20.8533
959 2 8.10208 154.043 20.892
960 2 11.8827 153.852 20.7481
961 2 -0.139377 158.167 24.9044
962 2 3.92924 158.044 24.8903
963 2 7.87232 158.122 24.8642
964 2 11.9076 158.319 24.8061
965 2 15.7952 3.62822 24.7392
966 2 3.97611 3.78899 24.7997
967 2 7.7633 3.63063 24.7171
968 2 11.8039 3.7734 24.6869
969 2 -0.219406 7.66152 24.6439
970 2 3.87531 7.56885 24.7589
971 2 7.80865 7.61533 24.5758
972 2 11.7462 7.68822 24.8037
973 2 -0.0313272 11.4321 24.7115
974 2 3.82118 11.5338 24.5582
975 2 7.80376 11.5352 24.733
976 2 11.7928 11.4257 24.4462
977 2 -0.108262 15.464 24.7377
978 2 3.83772 15.4393 24.547
979 2 7.85504 15.4447 24.6821
980 2 11.8999 15.5395 24.534
981 2 15.8559 19.1431 24.512
982 2 3.8519 19.165 24.5533
983 2 8.0528 19.2232 24.3906
984 2 11.8835 19.3835 24.476
985 2 0.00330452 23.097 24.4643
986 2 3.91043 23.1805 24.4314
987 2 7.84531 23.18 24.3274
988 2 11.6958 23.2583 24.5098
989 2 -0.0173009 27.026 24.5607
990 2 3.88643 27.0208 24.398
991 2 7.74867 27.1574 24.4075
992 2 11.8625 26.9471 24.5073