ITEM: TIMESTEP
16200
ITEM: NUMBER OF ATOMS
32000
ITEM: BOX BOUNDS xy xz yz pp pp pp
0.0000000000000000e+00 1.5832000000000001e+01 0.0000000000000000e+00
0.0000000000000000e+00 1.5831999999999999e+02 0.0000000000000000e+00
8.3798743162921596e-01 1.6013913056836935e+02 0.0000000000000000e+00
ITEM: ATOMS id type x y z
1 2 0.279574 158.075 159.687
2 2 4.22335 157.854 159.883
3 2 7.78718 157.839 159.948
4 2 12.0946 157.938 159.559
5 2 15.7995 3.57505 159.753
6 2 3.9908 3.42534 159.861
7 2 8.11287 3.66119 159.915
8 2 12.0728 3.62063 159.728
9 2 -0.0446683 7.4839 159.782
10 2 3.8448 7.66474 159.844
11 2 7.68904 7.46067 159.829
12 2 11.9612 7.34535 159.815
13 2 -0.0856953 11.2953 159.657
14 2 3.8722 11.3615 159.752
15 2 8.03388 11.3195 159.712
16 2 11.8235 11.1856 159.736
17 2 15.848 15.4673 159.674
18 2 4.04519 15.225 159.705
19 2 8.03697 15.2193 159.741
20 2 11.855 15.2624 159.823
21 2 0.204107 19.1425 159.792
22 2 4.06965 19.1711 159.544
23 2 8.05435 19.3145 159.748
24 2 12.1597 19.2279 159.778
25 2 15.9851 23.2917 0.741511
26 2 3.91763 23.3366 159.641
27 2 8.22014 23.2993 159.916
28 2 11.9939 23.0853 159.914
29 2 16.0299 27.1839 159.738
30 2 3.88381 27.296 159.965
31 2 8.09679 27.3347 160.085
32 2 11.7954 27.396 160.02
33 2 15.7647 31.2112 159.844
34 2 4.22935 31.3062 159.992
35 2 8.14185 31.2803 159.928
36 2 12.0403 31.3619 0.557406
37 2 15.7603 35.4877 160.164
38 2 4.04338 35.1506 0.928876
39 2 8.05828 35.2751 160.143
40 2 11.8503 35.5621 0.677322
41 2 0.0885758 39.3471 160.116
42 2 4.09886 39.2804 1.04301
43 2 8.01877 39.2849 0.817425
44 2 11.8779 39.4679 160.082
45 2 -0.171603 43.372 0.901481
46 2 3.94165 43.3099 1.09969
47 2 7.8777 43.3036 0.77537
48 2 11.9146 43.3806 1.09094
49 2 16.0624 47.604 1.17744
50 2 3.90302 47.4831 1.21753
51 2 8.02238 47.4438 1.13762
52 2 11.8885 47.4759 1.056
53 2 0.162793 51.6516 1.07544
54 2 3.96632 51.4835 1.00429
55 2 8.18307 51.6096 1.21574
56 2 11.7948 51.4508 160.167
57 2 -0.00401858 55.3888 1.19938
58 2 4.19508 55.394 1.23815
59 2 7.97411 55.3421 1.22264
60 2 12.0576 55.5541 1.15415
61 2 0.0897462 59.413 1.35803
62 2 4.01239 59.663 1.16722
63 2 7.79583 59.5465 1.21661
64 2 11.8524 59.3753 1.21673
65 2 -0.116701 63.5795 1.29533
66 2 3.89839 63.4034 1.33586
67 2 7.95188 63.6193 1.48032
68 2 11.8141 63.5374 1.39858
69 2 0.147652 67.4495 1.21367
70 2 4.14107 67.5071 1.40589
71 2 7.81611 67.594 1.36176
72 2 11.9536 67.5256 1.39923
73 2 15.8233 71.411 1.52792
74 2 4.01717 71.4852 1.31043
75 2 8.03204 71.5712 1.41142
76 2 11.7737 71.393 1.39236
77 2 0.122919 75.559 1.30678
78 2 3.94677 75.3486 1.35313
79 2 7.952 75.5898 1.2746
80 2 11.7286 75.5987 1.46594
81 2 0.0909824 79.4074 1.49643
82 2 4.17036 79.5223 1.39016
83 2 8.07511 79.5866 1.61018
84 2 12.0056 79.6795 1.53279
85 2 0.172252 83.4581 1.41148
86 2 4.08163 83.3696 1.40226
87 2 7.82132 83.3892 1.44973
88 2 11.8239 83.5998 1.66408
89 2 0.215701 87.433 1.2965
90 2 3.88734 87.2818 1.42159
91 2 7.75857 87.3524 1.3775
92 2 11.7397 87.5041 1.29062
93 2 0.217744 91.3976 1.34355
94 2 3.89117 91.2614 1.16393
95 2 7.83354 91.0824 1.37299
96 2 11.9872 91.3132 1.21593
97 2 -0.0209463 95.176 1.3707
98 2 3.7258 95.2936 1.31519
99 2 8.02938 95.3147 1.41795
100 2 11.9663 95.2405 1.26993
101 2 0.131422 99.1264 1.12638
102 2 3.9476 99.2447 1.36643
103 2 7.79067 99.2119 1.23873
104 2 12.0206 99.3689 1.26951
105 2 15.7837 103.367 1.193
106 2 3.96144 102.94 1.16432
107 2 8.08764 102.965 1.23561
108 2 11.9773 103.096 1.16072
109 2 15.8892 107.002 1.12117
110 2 4.05316 106.806 1.29199
111 2 7.89583 106.963 1.18249
112 2 12.0554 107.218 1.11249
113 2 -0.109562 110.91 1.1197
114 2 3.98656 111.088 1.12233
115 2 8.00621 110.916 1.22558
116 2 11.9094 110.949 1.21549
117 2 0.157931 114.846 1.12532
118 2 4.04453 114.917 1.213
119 2 7.95535 114.745 1.23726
120 2 11.8146 114.881 1.0059
121 2 15.9045 118.865 1.17589
122 2 4.25585 118.907 1.07795
123 2 8.07207 118.894 0.873633
124 2 11.948 118.95 160.309
125 2 0.0989713 122.733 0.906936
126 2 4.13546 122.665 0.921964
127 2 7.88174 122.672 0.986003
128 2 11.8794 122.858 1.03129
129 2 0.0357363 126.641 160.341
130 2 4.10247 126.607 160.232
131 2 8.0226 126.695 0.829291
132 2 11.62 126.654 1.07997
133 2 -0.064428 130.331 160.259
134 2 3.86653 130.325 160.082
135 2 7.86511 130.61 0.760702
136 2 11.8634 130.453 160.046
137 2 0.146796 134.27 160.207
138 2 3.9849 134.608 160.124
139 2 7.96042 134.492 0.866525
140 2 11.9787 134.326 160.312
141 2 0.115795 138.418 160.103
142 2 4.18049 138.5 160.169
143 2 7.9539 138.273 160.275
144 2 11.9928 138.382 0.955232
145 2 15.7892 142.222 160.061
146 2 3.99606 142.276 160.166
147 2 7.91209 142.216 160.045
148 2 11.8405 142.416 160.082
149 2 0.150695 146.179 160.085
150 2 4.05657 146.25 160.023
151 2 7.86155 146.201 159.856
152 2 11.8783 146.187 160.016
153 2 15.8342 150.143 160.059
154 2 3.80353 150.268 159.968
155 2 8.04666 150.158 160.091
156 2 12.0725 150.103 160.039
157 2 15.7868 154.107 160.057
158 2 3.94696 154.036 159.827
159 2 8.18771 153.887 159.883
160 2 11.9351 154.167 159.914
161 2 16.0454 158.021 4.33827
162 2 4.00258 158.004 4.58338
163 2 8.12061 157.972 4.50511
164 2 12.1432 157.975 4.60667
165 2 15.9401 3.64996 4.49851
166 2 3.95935 3.39929 4.53623
167 2 8.19867 3.64126 4.55609
168 2 11.8829 3.5749 4.6628
169 2 15.9079 7.40469 4.50562
170 2 4.05406 7.16475 4.51773
171 2 7.98537 7.34834 4.50855
172 2 11.7541 7.68905 4.63095
173 2 15.8822 11.3873 4.4497
174 2 4.00449 11.2312 4.43534
175 2 7.95577 11.4464 4.39254
176 2 12.0028 11.5075 4.55107
177 2 15.89 15.3303 4.5681
178 2 3.9692 15.0756 4.26758
179 2 8.04036 15.4306 4.28888
180 2 11.9354 15.3402 4.52588
181 2 0.202285 19.2829 4.48505
182 2 3.95066 19.1069 4.24709
183 2 7.94579 19.1563 4.33177
184 2 11.8386 19.0699 4.51725
185 2 15.9025 22.9709 4.41589
186 2 4.07688 23.1416 4.4974
187 2 7.90029 23.14 4.36528
188 2 11.8959 23.2305 4.64359
189 2 15.8586 27.0597 4.30354
190 2 4.18062 27.0355 4.54273
191 2 7.88685 27.1405 4.66653
192 2 11.8289 27.094 4.56053
193 2 15.9149 31.2314 4.36822
194 2 3.93739 31.1397 4.55381
195 2 7.84137 31.1028 4.71205
196 2 12.0223 31.2014 4.61229
197 2 0.0466455 35.2225 4.74649
198 2 4.01313 35.1791 4.85989
199 2 8.09678 35.2433 4.6528
200 2 12.0651 35.0918 4.72224
201 2 0.0949281 39.1738 4.67218
202 2 4.06828 39.2649 4.90275
203 2 8.0826 39.4035 4.80515
204 2 11.8302 39.2767 4.89669
205 2 -0.16719 43.2703 4.80172
206 2 3.84298 43.3377 4.97899
207 2 7.7549 43.4093 4.83723
208 2 11.6698 43.3042 4.94291
209 2 15.7485 47.1329 4.77507
210 2 3.9993 47.3526 5.14261
211 2 7.9341 47.259 4.90948
212 2 11.9542 47.3559 4.90773
213 2 0.00412611 51.2605 4.98134
214 2 3.89852 51.2825 5.04811
215 2 7.90076 51.356 5.01929
216 2 11.7823 51.1086 5.15435
217 2 0.0938171 55.2447 4.9221
218 2 4.19985 55.4786 5.0654
219 2 7.91028 55.3002 5.11002
220 2 11.9074 55.2412 4.97495
221 2 0.0985837 59.4303 5.19224
222 2 3.89242 59.2925 5.11439
223 2 7.87544 59.3789 5.20505
224 2 11.8881 59.3607 5.05955
225 2 -0.0309077 63.5607 5.07272
226 2 4.0706 63.4307 5.1707
227 2 8.04907 63.3601 5.39082
228 2 11.8902 63.5464 5.23484
229 2 -0.0354897 67.327 5.41199
230 2 4.12616 67.4455 5.27669
231 2 7.99036 67.442 5.37349
232 2 11.9282 67.5381 5.26909
233 2 -0.0609973 71.2284 5.38434
234 2 3.97417 71.3328 5.28369
235 2 7.93291 71.4195 5.37484
236 2 11.826 71.4882 5.26311
237 2 -0.183179 75.3781 5.34358
238 2 3.86575 75.4408 5.38318
239 2 7.94424 75.37 5.13267
240 2 12.0556 75.3531 5.35942
241 2 -0.0276641 79.5398 5.40387
242 2 3.89569 79.2767 5.32179
243 2 8.00956 79.56 5.46254
244 2 11.9567 79.5508 5.33519
245 2 15.7738 83.4946 5.29786
246 2 3.85117 83.6166 5.49547
247 2 7.87435 83.3813 5.48773
248 2 11.9491 83.61 5.29813
249 2 0.0274041 87.4694 5.34614
250 2 4.03961 87.3857 5.50514
251 2 7.93947 87.3906 5.47641
252 2 12.0323 87.4568 5.20278
253 2 -0.0858255 91.1821 5.27988
254 2 3.9882 91.373 5.14868
255 2 7.86198 91.2059 5.37921
256 2 11.8585 91.3397 5.44781
257 2 0.195832 95.1893 5.28342
258 2 4.04275 95.1831 5.25
259 2 7.92737 95.1901 5.30268
260 2 12.0193 95.3542 5.26609
261 2 0.123126 98.9951 5.22935
262 2 4.1291 99.0024 5.38781
263 2 8.03538 99.3168 5.41678
264 2 12.0555 99.2079 5.25388
265 2 15.8089 103.076 5.19779
266 2 3.96575 103.07 5.0974
267 2 8.17338 103.094 5.25446
268 2 11.9419 103.145 5.29229
269 2 0.153265 107.134 5.34993
270 2 4.11105 106.98 5.33733
271 2 8.00663 107.1 5.05558
272 2 11.7927 106.925 5.26804
273 2 0.180319 111.023 5.1652
274 2 3.94562 110.676 5.00773
275 2 8.09552 110.907 5.14019
276 2 12.0245 111.035 4.98562
277 2 15.7537 114.953 5.11047
278 2 4.09565 114.942 5.08626
279 2 7.99514 114.811 5.03716
280 2 12.0632 114.805 5.05298
281 2 15.8025 118.834 5.05638
282 2 4.20774 118.799 5.2533
283 2 8.0844 118.75 5.16511
284 2 12.0446 118.663 5.0444
285 2 16.1183 122.795 4.9566
286 2 4.06503 122.819 4.9607
287 2 8.07811 122.662 5.1146
288 2 11.9388 122.551 5.17144
289 2 0.149124 126.673 4.8163
290 2 4.11322 126.684 4.98107
291 2 7.99474 126.641 4.96414
292 2 11.8084 126.566 5.09274
293 2 0.147065 130.401 4.75395
294 2 4.13395 130.625 5.00885
295 2 7.99163 130.505 5.03688
296 2 12.0123 130.509 4.98715
297 2 0.119272 134.431 4.94709
298 2 4.19902 134.47 4.98724
299 2 8.22479 134.39 4.98793
300 2 11.8501 134.346 4.87292
301 2 15.766 138.159 4.86274
302 2 3.96282 138.189 4.69566
303 2 7.87343 138.407 4.93692
304 2 11.9327 138.567 4.72624
305 2 0.194303 142.333 4.81296
306 2 4.07856 142.245 4.94667
307 2 7.98445 142.391 4.9002
308 2 11.9535 142.34 4.86963
309 2 16.0588 146.257 4.79077
310 2 4.16228 146.166 4.73882
311 2 8.00181 146.262 4.80398
312 2 12.0936 146.05 4.82316
313 2 0.128858 150.299 4.73378
314 2 3.92398 150.255 4.66146
315 2 8.22789 150.189 4.66118
316 2 12.0773 150.177 4.71131
317 2 15.8933 154.269 4.71026
318 2 3.9358 154.096 4.60133
319 2 7.88283 153.948 4.66171
320 2 12.052 154.018 4.63829
321 2 15.8479 157.833 8.62425
322 2 4.07512 157.942 8.42605
323 2 7.97804 158.033 8.68017
324 2 11.8668 158.155 8.52329
325 2 15.8204 3.53577 8.5201
326 2 4.20747 3.47815 8.42435
327 2 7.99002 3.49632 8.72968
328 2 11.9546 3.62192 8.60317
329 2 0.102284 7.45147 8.7216
330 2 4.0665 7.39332 8.55605
331 2 8.05416 7.43798 8.68915
332 2 11.8937 7.49282 8.57177
333 2 16.0773 11.2769 8.49166
334 2 4.11611 11.1324 8.52224
335 2 7.99694 11.3193 8.44766
336 2 11.9073 11.3718 8.60152
337 2 0.0309915 15.1233 8.3358
338 2 3.77465 15.2589 8.5659
339 2 7.88257 15.3176 8.37996
340 2 11.8157 15.2888 8.67158
341 2 0.191518 19.2149 8.63185
342 2 3.96445 19.1134 8.36544
343 2 7.73052 19.206 8.42829
344 2 11.7567 19.0522 8.49368
345 2 0.0211616 23.0047 8.36699
346 2 3.95888 23.0764 8.36383
347 2 7.85938 23.0874 8.43091
348 2 11.947 23.0984 8.32153
349 2 15.8378 26.9575 8.40521
350 2 3.89704 27.0199 8.53557
351 2 7.85347 27.2303 8.4775
352 2 12.0074 27.0687 8.48647
353 2 15.8912 30.9302 8.50734
354 2 3.95862 31.0635 8.47668
355 2 7.85831 31.0523 8.53474
356 2 12.0698 30.9717 8.57438
357 2 15.7852 35.0916 8.66284
358 2 4.10724 34.9818 8.64404
359 2 8.11219 34.9754 8.55537
360 2 11.9112 35.1559 8.69492
361 2 15.6583 39.1453 8.74117
362 2 4.06196 38.9698 8.64931
363 2 7.74457 39.1305 8.6314
364 2 11.8942 39.3095 8.62693
365 2 15.6567 43.2133 8.81229
366 2 3.80628 43.175 8.73783
367 2 8.04938 43.2085 8.69056
368 2 11.9547 43.1537 8.87335
369 2 -0.0449931 47.272 8.69911
370 2 3.86572 47.1526 8.852
371 2 7.83996 47.297 8.82768
372 2 11.7959 47.4349 9.06568
373 2 0.153223 51.205 8.93818
374 2 3.97686 51.3076 8.90045
375 2 7.87279 51.4086 8.9738
376 2 11.9103 51.2924 8.91003
377 2 0.0248731 55.2335 8.76446
378 2 4.12458 55.3339 9.07879
379 2 8.05064 55.4483 9.00093
380 2 12.0436 55.2728 8.80378
381 2 15.696 59.307 9.16294
382 2 3.87361 59.3111 9.16676
383 2 8.12129 59.3628 9.01825
384 2 11.912 59.3432 8.97026
385 2 0.0514636 63.2271 9.09327
386 2 3.9481 63.2361 9.14299
387 2 8.01324 63.3882 9.19356
388 2 11.7568 63.505 9.03938
389 2 -0.0397738 67.2758 9.28251
390 2 4.08773 67.5304 9.28218
391 2 7.92239 67.3087 9.09142
392 2 11.7795 67.5166 9.3683
393 2 -0.0472013 71.4558 9.34036
394 2 3.97013 71.2947 9.40136
395 2 7.90251 71.3695 9.25738
396 2 11.9825 71.5611 9.29338
397 2 0.1485 75.3168 9.21777
398 2 3.98761 75.3123 9.26534
399 2 7.94852 75.4177 9.12805
400 2 11.6994 75.593 9.18399
401 2 -0.0769026 79.3767 9.06415
402 2 3.93801 79.4624 9.21276
403 2 7.83056 79.3931 9.05709
404 2 11.8473 79.4372 9.17093
405 2 0.0525225 83.5137 9.27357
406 2 3.97901 83.5463 9.5611
407 2 8.09233 83.5048 9.55097
408 2 11.9781 83.5651 9.34475
409 2 0.00169657 87.5728 9.52742
410 2 4.08784 87.3921 9.53019
411 2 8.07845 87.5992 9.23072
412 2 11.8554 87.6064 9.48361
413 2 0.121258 91.4013 9.44487
414 2 4.10889 91.5264 9.52491
415 2 8.24063 91.5106 9.31583
416 2 11.9791 91.3717 9.40114
417 2 0.116905 95.1228 9.3574
418 2 4.0348 95.3488 9.29486
419 2 8.08759 95.3426 9.27863
420 2 12.0562 95.3116 9.19557
421 2 15.9605 99.1963 9.20898
422 2 3.92407 99.212 9.2383
423 2 7.8447 99.0969 9.25436
424 2 12.148 99.0466 9.27828
425 2 0.153455 103.037 9.40595
426 2 4.03359 103.106 9.31923
427 2 7.93186 103.073 9.28606
428 2 11.8485 103.043 9.19149
429 2 15.8073 107.06 9.2394
430 2 3.90219 107.059 9.06219
431 2 8.03854 107.055 9.14764
432 2 11.9596 106.952 9.26152
433 2 -0.0740155 111.039 9.30342
434 2 3.89091 111.059 9.10825
435 2 7.83275 110.824 9.13535
436 2 11.9378 110.939 9.10366
437 2 0.203464 114.801 9.18949
438 2 3.80609 114.741 8.99622
439 2 7.90917 114.929 9.21642
440 2 11.7679 115.031 9.26458
441 2 0.142367 118.926 8.9806
442 2 3.86471 118.938 8.96806
443 2 7.96256 118.751 9.17707
444 2 11.8939 118.886 9.22774
445 2 15.6801 122.742 9.05088
446 2 4.00713 122.689 9.08924
447 2 7.94515 122.751 9.09661
448 2 12.0566 122.771 9.24584
449 2 0.12767 126.6 8.97993
450 2 3.8127 126.727 8.97358
451 2 8.01538 126.481 8.89349
452 2 11.9014 126.613 9.13155
453 2 0.177096 130.552 9.16704
454 2 4.15617 130.548 9.12784
455 2 8.12255 130.487 9.09034
456 2 12.0757 130.504 9.02103
457 2 -0.0812229 134.509 9.00387
458 2 4.08702 134.388 8.91396
459 2 7.91945 134.49 8.97149
460 2 11.7807 134.395 8.92239
461 2 0.12189 138.322 8.908
462 2 4.09626 138.394 8.97998
463 2 7.95008 138.451 8.8988
464 2 12.0052 138.28 8.79227
465 2 0.0468678 142.145 8.7443
466 2 3.96632 142.309 8.76153
467 2 7.90046 142.238 8.7798
468 2 11.9651 142.328 8.88753
469 2 15.7436 146.404 8.85354
470 2 4.02519 146.347 8.82066
471 2 7.88721 146.263 9.02181
472 2 11.7661 146.262 8.71344
473 2 15.9035 150.14 8.83941
474 2 4.02143 150.16 8.63762
475 2 8.01685 150.153 8.72313
476 2 11.8669 150.172 8.76957
477 2 15.8731 154.042 8.89132
478 2 4.07429 153.973 8.94196
479 2 8.00034 154.051 8.71012
480 2 11.9437 154.103 8.66832
481 2 16.0462 158.018 12.7241
482 2 4.01019 158.088 12.7718
483 2 8.18553 158.05 12.7179
484 2 12.0086 157.894 12.7313
485 2 15.8644 3.66161 12.5023
486 2 4.0383 3.52878 12.5674
487 2 7.94881 3.42783 12.5666
488 2 12.1084 3.57107 12.5541
489 2 -0.0193074 7.38177 12.5556
490 2 3.99712 7.3341 12.7408
491 2 8.02899 7.37802 12.6584
492 2 11.8104 7.48302 12.6686
493 2 15.7399 11.5616 12.5397
494 2 4.03578 11.2988 12.5384
495 2 7.85999 11.3374 12.5218
496 2 11.7082 11.4405 12.5578
497 2 0.0953293 15.3868 12.5193
498 2 3.90742 15.2407 12.5481
499 2 7.9761 15.2756 12.5766
500 2 11.8498 15.1263 12.3948
501 2 15.8064 19.05 12.405
502 2 4.12805 19.0014 12.3244
503 2 7.82141 19.3053 12.3518
504 2 11.9273 19.467 12.5892
505 2 15.9234 23.1183 12.4935
506 2 3.94486 23.1724 12.5784
507 2 7.94646 23.1636 12.3963
508 2 11.9637 23.2178 12.4747
509 2 15.8045 26.9767 12.6091
510 2 4.06142 27.0597 12.4278
511 2 7.95603 27.0195 12.1902
512 2 11.8394 27.1774 12.5799
513 2 -0.0141953 30.9927 12.4527
514 2 3.97361 30.913 12.4819
515 2 7.87134 31.0059 12.5049
516 2 11.9012 31.0027 12.2526
517 2 15.9391 34.9 12.7035
518 2 3.94417 34.9084 12.4596
519 2 7.96236 35.0657 12.5582
520 2 12.0061 34.963 12.6057
521 2 15.8323 39.0161 12.7305
522 2 3.76281 39.0518 12.6071
523 2 7.94681 39.0883 12.6268
524 2 12 39.0989 12.6852
525 2 16.003 43.2393 12.6652
526 2 4.10615 43.2708 12.6039
527 2 7.96271 43.1455 12.6205
528 2 11.9497 43.0865 12.7619
529 2 15.7423 47.2015 12.7322
530 2 3.77718 47.2388 12.6326
531 2 7.83934 47.1671 12.8433
532 2 11.8831 47.0655 12.8382
533 2 -0.00823493 51.1701 12.7253
534 2 4.01987 51.2179 12.8468
535 2 7.71324 51.1803 12.9698
536 2 11.6971 51.1313 12.957
537 2 0.0982355 55.0665 12.9612
538 2 3.96262 55.1437 12.8997
539 2 7.77125 55.1027 12.8866
540 2 11.9622 55.0731 12.8415
541 2 0.00407687 59.1853 12.9038
542 2 3.86432 59.3627 12.7614
543 2 7.79514 59.2083 13.0781
544 2 11.9078 59.1255 12.9756
545 2 0.0456091 63.241 12.9877
546 2 3.92379 63.2722 13.0595
547 2 7.73845 63.3315 13.0678
548 2 11.778 63.1268 13.2642
549 2 -0.0403682 67.3586 13.0551
550 2 4.05951 67.2075 13.2291
551 2 7.93903 67.1701 12.9604
552 2 11.7646 67.4476 12.9078
553 2 0.0431265 71.1893 13.2698
554 2 4.14116 71.2455 13.1632
555 2 7.96005 71.4089 13.2997
556 2 11.8553 71.4449 13.0715
557 2 -0.133686 75.2127 13.2426
558 2 4.06336 75.2926 13.1594
559 2 7.96869 75.5774 13.1655
560 2 11.8104 75.3322 13.3162
561 2 0.0146671 79.3742 13.3381
562 2 4.02112 79.1358 13.2485
563 2 7.9062 79.5606 12.9957
564 2 11.8539 79.3992 13.0723
565 2 0.121376 83.3382 13.1114
566 2 3.84287 83.2978 13.3812
567 2 8.01137 83.5925 13.3303
568 2 11.7937 83.2641 13.1411
569 2 0.0482664 87.3745 13.3166
570 2 3.92245 87.3837 13.4909
571 2 7.796 87.4086 13.4162
572 2 12.0751 87.4868 13.5294
573 2 0.0402335 91.4027 13.2698
574 2 4.17846 91.4051 13.4658
575 2 8.12006 91.5876 13.5165
576 2 11.8881 91.401 13.344
577 2 -0.0293545 95.5328 13.4625
578 2 3.86513 95.5179 13.4235
579 2 7.82104 95.3384 13.3996
580 2 11.9011 95.2354 13.4464
581 2 -0.0178627 99.3121 13.1691
582 2 4.09033 99.4711 13.173
583 2 8.04228 99.1564 13.3319
584 2 11.8755 99.3106 13.3315
585 2 0.0188005 103.278 13.3044
586 2 3.78789 103.16 13.4068
587 2 8.08496 103.424 13.3321
588 2 11.981 103.146 13.1973
589 2 15.865 107.158 13.3211
590 2 4.05401 107.142 13.2217
591 2 7.9054 107.132 13.3011
592 2 11.7097 107.105 13.2243
593 2 -0.0510325 111.067 13.2995
594 2 3.84373 111.118 13.3803
595 2 7.79953 111.105 13.224
596 2 11.8752 111.001 13.2188
597 2 15.791 114.959 13.1344
598 2 3.8489 114.913 13.28
599 2 7.89347 115.181 13.0213
600 2 12.0163 114.901 13.1394
601 2 15.817 118.916 13.1083
602 2 3.99344 118.912 12.968
603 2 8.06713 118.832 13.0944
604 2 11.8897 118.979 13.222
605 2 -0.0226 122.74 13.1349
606 2 4.06331 122.717 13.1827
607 2 7.89089 122.804 13.0649
608 2 11.8439 122.914 13.3107
609 2 15.8112 126.694 13.0764
610 2 3.97235 126.525 13.1113
611 2 8.15827 126.693 13.0256
612 2 12.0512 126.729 13.0873
613 2 16.0056 130.537 13.0959
614 2 4.03464 130.569 13.0744
615 2 7.94477 130.557 13.1576
616 2 11.8029 130.707 12.9453
617 2 -0.10203 134.42 12.9868
618 2 3.86073 134.563 13.0347
619 2 8.08543 134.483 13.0411
620 2 12.0693 134.725 12.9424
621 2 -0.0625187 138.515 12.8758
622 2 3.931 138.432 13.0729
623 2 7.85224 138.408 12.7672
624 2 12.1472 138.459 12.8857
625 2 15.8459 142.263 12.9679
626 2 3.89131 142.382 12.8614
627 2 7.8532 142.293 12.9688
628 2 11.8082 142.434 12.8812
629 2 0.103279 146.062 12.8144
630 2 3.91437 146.344 13.057
631 2 7.94381 146.235 12.9447
632 2 11.8814 146.108 12.7496
633 2 15.8058 150.25 12.8347
634 2 3.91264 150.373 12.8019
635 2 8.01909 150.187 12.7278
636 2 11.8264 150.158 12.7619
637 2 15.9352 154.064 12.7841
638 2 3.89026 154.074 12.8011
639 2 7.855 154.053 12.8089
640 2 11.9071 154.009 12.809
641 2 15.7788 157.904 16.6646
642 2 4.10219 157.995 16.7661
643 2 7.87619 158.038 16.6605
644 2 11.9896 157.778 16.7894
645 2 15.8925 3.44313 16.8051
646 2 3.91123 3.6406 16.6199
647 2 8.10969 3.6705 16.6753
648 2 11.8779 3.46866 16.8014
649 2 0.0810381 7.46865 16.5335
650 2 4.15974 7.44588 16.6768
651 2 7.92599 7.59503 16.5747
652 2 12.012 7.62114 16.5798
653 2 15.7699 11.3553 16.5729
654 2 3.87921 11.1841 16.4531
655 2 8.07331 11.4138 16.5241
656 2 11.9273 11.4118 16.6404
657 2 0.0349439 15.1912 16.6943
658 2 4.02872 15.3476 16.4635
659 2 7.81878 15.2491 16.7697
660 2 11.6409 15.3158 16.5815
661 2 15.9997 19.2561 16.5819
662 2 3.77507 19.2917 16.2764
663 2 7.98132 19.263 16.5181
664 2 11.9075 18.9899 16.179
665 2 15.8084 23.1159 16.4325
666 2 3.79035 22.9333 16.3113
667 2 7.71708 23.2708 16.4547
668 2 11.7326 23.0292 16.3979
669 2 -0.123594 27.0488 16.4074
670 2 3.96369 27.161 16.4827
671 2 7.94611 26.8956 16.2917
672 2 11.8295 26.9966 16.3536
673 2 15.8731 30.967 16.3989
674 2 4.0718 31.0731 16.4284
675 2 7.92348 31.0788 16.5382
676 2 11.6051 31.0949 16.4366
677 2 15.8446 35.025 16.4992
678 2 4.16634 34.8594 16.3674
679 2 7.91994 34.9183 16.4397
680 2 11.8147 34.9541 16.5724
681 2 0.218894 39.0872 16.7215
682 2 3.95707 38.9097 16.4972
683 2 7.71578 38.8491 16.551
684 2 11.73 39.1152 16.4302
685 2 15.9741 43.0381 16.5478
686 2 4.09432 43.1391 16.6107
687 2 7.9658 43.1352 16.7608
688 2 11.8068 42.9992 16.6192
689 2 0.00256606 47.1171 16.6335
690 2 3.98253 47.1095 16.6921
691 2 7.99305 46.9453 16.7227
692 2 11.9168 46.9025 16.7705
693 2 15.8729 50.9933 16.7361
694 2 4.01657 51.1711 16.6921
695 2 7.87781 51.0722 16.7299
696 2 11.8061 51.1434 16.7063
697 2 -0.143162 55.247 16.8612
698 2 3.85354 54.9661 16.8227
699 2 7.98717 55.1385 16.8102
700 2 11.9232 55.0073 16.7695
701 2 -0.00512392 59.1066 16.7583
702 2 3.9153 59.0338 16.8501
703 2 7.95352 59.1438 16.8503
704 2 11.8836 59.0274 16.8388
705 2 -0.0274034 63.2231 16.8536
706 2 3.81518 63.0406 16.9653
707 2 7.96314 63.1299 17.1445
708 2 11.7678 63.1157 16.9151
709 2 -0.0246181 67.0993 16.8569
710 2 4.10329 67.238 16.9434
711 2 7.95382 67.3082 16.9995
712 2 11.9145 67.2053 17.1054
713 2 0.0172049 71.0566 17.0413
714 2 3.87149 71.3337 17.1518
715 2 7.93582 71.2144 17.1324
716 2 11.837 71.2432 17.1733
717 2 0.0368136 75.3888 17.1254
718 2 3.81694 75.325 16.982
719 2 7.85812 75.1404 17.0629
720 2 11.9168 75.2511 17.1551
721 2 0.16207 79.4286 17.1254
722 2 3.85458 79.259 17.1938
723 2 8.00779 79.3593 16.9823
724 2 11.973 79.3103 16.9389
725 2 -0.0770479 83.1972 17.2733
726 2 4.035 83.3789 17.1848
727 2 8.00131 83.3288 17.2395
728 2 11.8633 83.1009 17.0561
729 2 0.00249894 87.2148 17.2011
730 2 4.03717 87.1788 17.133
731 2 8.03628 87.5322 17.4089
732 2 11.9645 87.294 17.2567
733 2 0.0698783 91.3962 17.328
734 2 4.01112 91.3641 17.2788
735 2 7.99171 91.4439 17.4285
736 2 11.7788 91.2947 17.4616
737 2 0.0639075 95.2708 17.3723
738 2 3.92332 95.2819 17.458
739 2 8.0225 95.3802 17.4435
740 2 11.9026 95.2687 17.4977
741 2 15.8468 99.2152 17.2897
742 2 4.03384 99.285 17.4132
743 2 7.89754 99.4093 17.3121
744 2 11.9243 99.4362 17.1946
745 2 15.8107 103.343 17.3058
746 2 3.8435 102.983 17.2716
747 2 7.89875 103.295 17.3629
748 2 11.9881 103.06 17.3703
749 2 15.9036 107.095 17.3608
750 2 4.17082 107.116 17.3072
751 2 7.99532 107.113 17.3194
752 2 11.9868 107.21 17.24
753 2 0.207876 110.739 17.2041
754 2 4.06507 111.094 17.3452
755 2 8.11969 111.101 17.243
756 2 11.9886 111.15 17.1617
757 2 0.105924 115.049 17.088
758 2 4.05747 115.004 17.2658
759 2 7.9833 114.905 17.0031
760 2 11.8906 115.006 17.1752
761 2 -0.0325721 118.974 17.1682
762 2 4.05248 118.898 17.0175
763 2 8.05551 118.884 17.1855
764 2 12.0886 119.009 17.1166
765 2 -0.205903 122.787 17.1925
766 2 3.88573 122.764 17.053
767 2 8.0664 122.814 17.1789
768 2 11.7287 122.843 17.1284
769 2 0.0330456 126.621 17.1842
770 2 3.97092 126.707 17.0939
771 2 7.76428 126.764 17.0611
772 2 11.8623 126.711 17.1768
773 2 0.0569984 130.583 17.2149
774 2 4.04507 130.421 17.0342
775 2 7.99559 130.696 17.0099
776 2 11.8626 130.766 16.9176
777 2 0.133959 134.621 16.9602
778 2 3.94988 134.406 16.9029
779 2 7.94878 134.47 17.1101
780 2 11.9024 134.557 17.0855
781 2 15.8159 138.453 16.9038
782 2 4.04685 138.317 17.0233
783 2 7.99853 138.531 16.9116
784 2 11.7854 138.52 17.0852
785 2 15.8495 142.359 17.0914
786 2 4.04997 142.384 16.7784
787 2 8.0404 142.48 16.873
788 2 11.7871 142.428 16.8603
789 2 15.8937 146.236 16.8227
790 2 3.84657 146.253 16.8972
791 2 7.79801 146.242 16.8665
792 2 11.7892 146.347 16.9337
793 2 15.7137 150.123 16.8587
794 2 3.83039 150.232 16.8229
795 2 7.95451 150.15 16.9208
796 2 12.0286 150.171 16.9924
797 2 -0.0159416 154.093 16.8115
798 2 3.98644 154.056 16.8239
799 2 7.77114 154.286 16.8912
800 2 11.9025 154.069 16.6268
801 2 0.0570998 158.114 20.6929
802 2 4.13561 158.064 20.8238
803 2 7.65975 158.089 20.7898
804 2 11.8667 157.993 20.6838
805 2 15.8148 3.69512 20.8631
806 2 4.02448 3.71194 20.7307
807 2 7.82534 3.53512 20.6746
808 2 11.8531 3.46006 20.7845
809 2 -0.0523364 7.34979 20.7929
810 2 3.99108 7.53521 20.7025
811 2 7.94986 7.70474 20.6583
812 2 11.9508 7.60487 20.8117
813 2 15.9353 11.3757 20.6654
814 2 3.8513 11.3523 20.5634
815 2 7.76133 11.447 20.5702
816 2 12.0488 11.6727 20.7301
817 2 15.848 15.2939 20.5885
818 2 4.03173 15.2777 20.3212
819 2 7.83885 15.2821 20.554
820 2 11.863 15.4621 20.5633
821 2 15.7694 19.2138 20.4337
822 2 3.74692 19.2435 20.5056
823 2 7.72572 19.0284 20.4702
824 2 11.8998 19.2433 20.5848
825 2 15.8213 23.2622 20.3319
826 2 4.06738 22.9761 20.4664
827 2 7.88719 22.9938 20.2563
828 2 11.6315 23.0547 20.5019
829 2 -0.063924 27.1988 20.3259
830 2 3.95349 26.7991 20.409
831 2 7.81284 27.0867 20.5193
832 2 11.7825 27.0112 20.4576
833 2 -0.182108 31.003 20.3923
834 2 3.91225 30.9474 20.2555
835 2 8.02042 30.8903 20.3729
836 2 11.9499 30.8111 20.4446
837 2 15.8413 34.9387 20.4161
838 2 3.81741 34.9158 20.4972
839 2 7.93778 35.0011 20.5653
840 2 11.7941 34.9623 20.6818
841 2 0.159026 39.0714 20.4783
842 2 3.92682 38.9208 20.4056
843 2 8.10847 39.003 20.3257
844 2 11.8284 38.8098 20.2285
845 2 0.0981121 42.849 20.4436
846 2 3.9595 42.9447 20.4869
847 2 7.84449 42.9767 20.5953
848 2 11.8006 42.9588 20.5467
849 2 -0.0683368 46.9241 20.699
850 2 3.87602 47.1704 20.4467
851 2 8.13053 46.9117 20.582
852 2 11.901 46.9262 20.6124
853 2 -0.0201623 50.9572 20.6198
854 2 3.83637 50.9648 20.6996
855 2 7.92613 50.9211 20.6307
856 2 11.7131 50.9422 20.7417
857 2 0.0507511 55.1153 20.716
858 2 3.97838 55.1221 20.697
859 2 7.90404 54.8119 20.6465
860 2 11.8037 54.9016 20.6939
861 2 15.7642 59.0655 20.6524
862 2 4.02575 59.0042 20.6866
863 2 7.94365 59.1597 20.7709
864 2 11.7658 58.9325 20.6876
865 2 15.7669 62.9748 20.878
866 2 3.65815 62.9329 20.7511
867 2 7.90785 63.0685 20.9136
868 2 11.9713 63.2202 20.7769
869 2 0.0210052 67.0408 21.0004
870 2 3.97609 67.0784 20.9715
871 2 7.89873 67.2413 21.0153
872 2 11.9749 67.1004 20.9325
873 2 -0.0146248 71.147 21.019
874 2 3.79435 71.23 21.0523
875 2 7.95379 71.1447 20.9884
876 2 11.638 71.1063 20.9764
877 2 0.0478347 75.261 21.1119
878 2 4.06768 75.2018 20.99
879 2 8.10376 75.4326 20.8403
880 2 11.94 75.0811 21.0199
881 2 0.0545191 79.1732 21.0356
882 2 4.01994 79.2714 21.0898
883 2 7.8163 79.2331 20.954
884 2 12.061 79.0757 20.9942
885 2 -0.0411238 83.2706 21.1349
886 2 4.0424 83.502 21.2872
887 2 7.69569 83.2889 21.2287
888 2 11.8099 83.1911 21.0251
889 2 0.103079 87.2759 21.1684
890 2 3.91041 87.3372 21.2429
891 2 7.93745 87.132 21.2744
892 2 11.98 87.1663 21.1947
893 2 0.0456956 91.3094 21.1921
894 2 3.87438 91.0834 21.2283
895 2 8.22026 91.4649 21.1232
896 2 11.9445 91.3647 21.3121
897 2 15.7718 95.4633 21.1197
898 2 4.02264 95.4417 21.3782
899 2 8.04484 95.4008 21.551
900 2 12.0105 95.5705 21.5617
901 2 0.123553 99.1961 21.4091
902 2 4.16859 99.5557 21.4921
903 2 7.97071 99.1906 21.3537
904 2 12.0337 99.3652 21.2745
905 2 15.7475 103.334 21.2648
906 2 3.96748 103.254 21.5739
907 2 8.04029 103.364 21.302
908 2 11.9665 103.345 21.2514
909 2 0.19873 107.308 21.1719
910 2 3.92249 107.243 21.3949
911 2 7.95303 107.35 21.3189
912 2 12.0463 107.213 21.3885
913 2 15.8303 111.279 21.2803
914 2 4.18189 111.185 21.3001
915 2 8.08053 111.162 21.3817
916 2 12.0241 111.29 21.3175
917 2 0.0959219 114.733 21.2412
918 2 4.17739 115.13 21.1024
919 2 8.09719 115.041 21.2565
920 2 12.0371 115.102 21.0324
921 2 0.357014 118.951 21.242
922 2 4.2457 118.856 21.2792
923 2 7.98286 119.08 21.1375
924 2 12.0325 118.877 21.1838
925 2 0.107016 122.741 21.2865
926 2 3.92007 122.811 21.0047
927 2 7.95328 122.924 21.1665
928 2 11.8793 122.698 21.1384
929 2 0.0361781 126.799 21.1636
930 2 3.8324 126.808 21.1228
931 2 7.85792 126.752 21.1959
932 2 11.825 126.871 21.1648
933 2 -0.065002 130.578 20.9772
934 2 3.87193 130.64 21.0285
935 2 7.86149 130.52 21.1326
936 2 11.734 130.683 21.0018
937 2 15.8648 134.58 21.1462
938 2 3.98867 134.56 20.9897
939 2 7.8884 134.597 21.1491
940 2 12.0439 134.545 20.9595
941 2 15.7967 138.494 21.0039
942 2 3.91257 138.311 20.9316
943 2 7.73605 138.415 21.0338
944 2 11.7335 138.364 21.0288
945 2 15.7628 142.295 21.2372
946 2 3.88261 142.211 20.8664
947 2 7.94151 142.337 20.9787
948 2 11.9906 142.502 21.1594
949 2 -0.0241422 146.306 21.0282
950 2 4.156 146.184 20.8884
951 2 7.94635 146.346 20.9261
952 2 12.0551 146.234 20.9052
953 2 15.8356 150.2 20.9665
954 2 3.91883 150.215 20.8262
955 2 8.00723 150.369 20.8731
956 2 11.9562 150.159 20.8872
957 2 0.00190783 154.056 20.8558
958 2 3.92334 153.915 20.8766
959 2 7.78003 154.233 20.8186
960 2 11.8204 154.129 20.8686
961 2 -0.00260862 158.008 24.6892
962 2 3.89225 157.959 24.7879
963 2 7.97887 158.043 24.7593
964 2 11.8346 157.985 24.8188
965 2 15.8283 3.69041 24.841
966 2 3.94729 3.59058 24.8269
967 2 7.87856 3.78143 24.715
968 2 11.8649 3.64441 24.859
969 2 0.219924 7.55303 24.8033
970 2 4.14544 7.50952 24.5909
971 2 8.15472 7.64676 24.7813
972 2 11.9713 7.54249 24.6075
973 2 0.0138416 11.4746 24.6888
974 2 3.99369 11.4732 24.8172
975 2 7.7984 11.3116 24.5726
976 2 11.8847 11.517 24.6649
977 2 -0.00310394 15.4248 24.4898
978 2 3.89447 15.3457 24.6588
979 2 7.84351 15.3369 24.4864
980 2 11.6466 15.266 24.6201
981 2 15.8571 19.4981 24.6235
982 2 4.0947 19.2705 24.4443
983 2 7.77432 19.2298 24.6089
984 2 11.8641 19.2045 24.5402
985 2 -0.00138585 23.2095 24.5217
986 2 3.94247 23.2081 24.484
987 2 7.86216 23.1351 24.6114
988 2 11.8789 23.2425 24.4697
989 2 -0.124044 27.0345 24.317
990 2 3.81266 27.0189 24.5434
991 2 7.67179 27.0181 24.395
992 2 11.6283 27.1692 24.3846
993 2 0.134468 30.7908 24.4655