ITEM: TIMESTEP
16300
ITEM: NUMBER OF ATOMS
32000
ITEM: BOX BOUNDS xy xz yz pp pp pp
0.0000000000000000e+00 1.5832000000000001e+01 0.0000000000000000e+00
0.0000000000000000e+00 1.5831999999999999e+02 0.0000000000000000e+00
8.2408993494225058e-01 1.6015302806505611e+02 0.0000000000000000e+00
ITEM: ATOMS id type x y z
1 2 0.23882 157.805 159.859
2 2 4.10643 158.048 159.889
3 2 8.20671 157.933 159.927
4 2 12.0716 157.969 160.026
5 2 15.7187 3.59571 159.824
6 2 4.04001 3.76542 159.852
7 2 7.91569 3.52615 159.873
8 2 11.795 3.40534 159.839
9 2 0.00341552 7.31306 159.677
10 2 3.95568 7.3848 159.743
11 2 7.94549 7.53887 159.67
12 2 12.0639 7.54906 159.748
13 2 0.146105 11.3378 159.776
14 2 4.06855 11.3468 159.83
15 2 8.10542 11.3325 159.809
16 2 12.1624 11.2279 159.797
17 2 16.0416 15.1154 159.647
18 2 4.1249 15.2097 159.883
19 2 8.13588 15.0527 159.725
20 2 12.1547 15.0876 159.829
21 2 0.261573 19.3943 159.785
22 2 4.18903 19.2483 159.792
23 2 8.06735 18.9815 159.622
24 2 11.8952 19.1746 159.837
25 2 15.8843 23.173 0.509209
26 2 4.1733 23.3287 159.774
27 2 7.78661 23.1751 159.778
28 2 11.8379 23.4292 159.973
29 2 15.8174 27.2102 159.881
30 2 4.18801 27.2563 159.873
31 2 8.02732 27.1693 159.777
32 2 12.169 27.352 159.919
33 2 16.0147 31.3704 160.075
34 2 3.75402 31.3479 160.134
35 2 8.06984 31.3122 160.051
36 2 11.8653 31.206 0.877219
37 2 15.8368 35.295 160.101
38 2 4.01236 35.3927 0.823976
39 2 7.83773 35.2667 160.09
40 2 11.8404 35.2313 0.789444
41 2 0.198579 39.1871 160.22
42 2 3.98432 39.3687 0.892063
43 2 7.78249 39.2912 0.787342
44 2 11.8407 39.156 160.133
45 2 0.0907447 43.3449 0.981306
46 2 3.72968 43.4865 0.874059
47 2 7.92625 43.5645 0.97523
48 2 11.7751 43.3685 0.874925
49 2 15.6337 47.3516 0.952293
50 2 3.94162 47.2588 0.911955
51 2 7.9311 47.4809 0.96604
52 2 12.0289 47.3297 0.856459
53 2 0.283993 51.4572 1.01055
54 2 4.13954 51.2829 1.16318
55 2 7.90162 51.207 0.996306
56 2 12.0705 51.4013 160.406
57 2 0.245385 55.503 1.10227
58 2 3.96909 55.4505 0.962739
59 2 8.01928 55.467 1.08781
60 2 11.9442 55.3391 1.06056
61 2 0.0348506 59.5298 1.10444
62 2 3.94345 59.3167 1.2408
63 2 7.85255 59.4209 1.19016
64 2 11.8354 59.4537 1.28755
65 2 0.0293227 63.5763 1.60831
66 2 3.98671 63.5493 1.39052
67 2 7.93098 63.5499 1.28547
68 2 11.9354 63.3843 1.20543
69 2 -0.040404 67.4899 1.58998
70 2 3.8943 67.4699 1.43106
71 2 8.00724 67.4709 1.50627
72 2 11.7192 67.3994 1.25585
73 2 15.839 71.425 1.2589
74 2 3.80901 71.5524 1.24827
75 2 8.01592 71.4014 1.46474
76 2 11.9525 71.6337 1.38949
77 2 -0.0726716 75.5321 1.49311
78 2 4.04358 75.675 1.65691
79 2 7.67223 75.6684 1.48755
80 2 11.9564 75.5114 1.18159
81 2 0.100873 79.6365 1.46823
82 2 4.03292 79.4704 1.58131
83 2 8.11839 79.5215 1.35536
84 2 12.0786 79.5127 1.29879
85 2 0.0146675 83.3514 1.43999
86 2 4.01295 83.4428 1.55851
87 2 8.0722 83.3724 1.46556
88 2 12.156 83.4886 1.1982
89 2 -0.0512079 87.2942 1.38879
90 2 4.08129 87.4228 1.35391
91 2 8.00092 87.2533 1.39493
92 2 11.967 87.3577 1.42491
93 2 0.0433391 91.4119 1.16578
94 2 4.22551 91.2785 1.38087
95 2 8.124 91.3585 1.21609
96 2 11.9357 91.2911 1.41412
97 2 0.0418748 95.2766 1.05683
98 2 4.29103 95.2203 1.12465
99 2 8.01482 95.1483 1.12634
100 2 11.9788 95.4006 1.22188
101 2 0.140334 99.2156 1.37681
102 2 4.06746 99.0684 1.26607
103 2 8.19228 99.1055 1.1315
104 2 11.9189 98.9965 1.22687
105 2 15.8339 102.917 1.26564
106 2 3.98496 103.026 1.20177
107 2 8.03386 103.024 1.1249
108 2 11.9035 103.08 1.21339
109 2 15.8304 106.94 1.26538
110 2 3.94972 107.211 1.07826
111 2 8.01074 106.905 1.33646
112 2 11.7702 106.897 1.16827
113 2 0.295328 110.94 1.20478
114 2 3.90201 110.865 1.13579
115 2 7.88602 110.973 1.17359
116 2 11.9781 110.859 1.05062
117 2 -0.111959 114.845 1.13057
118 2 4.05644 114.803 1.01677
119 2 7.90612 115.003 1.10893
120 2 12.0278 114.797 1.14537
121 2 15.8559 118.641 0.907274
122 2 3.89348 118.572 0.994482
123 2 8.07306 118.783 1.0986
124 2 11.7839 118.812 160.293
125 2 -0.118558 122.601 0.970978
126 2 3.80241 122.624 0.889467
127 2 7.89756 122.814 1.02022
128 2 11.9406 122.713 0.964203
129 2 0.0709543 126.57 160.206
130 2 3.84675 126.54 160.137
131 2 7.89937 126.61 1.04292
132 2 12.0497 126.625 0.76467
133 2 0.178105 130.761 160.12
134 2 4.0755 130.544 160.162
135 2 7.89123 130.568 0.869362
136 2 11.9516 130.608 160.43
137 2 0.138066 134.464 160.139
138 2 4.0841 134.309 160.251
139 2 8.00939 134.387 0.922513
140 2 11.8901 134.562 160.186
141 2 0.0959973 138.148 160.139
142 2 4.055 138.305 160.076
143 2 8.07323 138.536 160.07
144 2 12.0582 138.335 0.760552
145 2 15.9297 142.464 160.241
146 2 4.10142 142.19 159.967
147 2 8.05074 142.331 160.237
148 2 11.9637 142.395 160.2
149 2 0.0692814 146.315 160.179
150 2 4.03238 146.114 160.226
151 2 7.96259 146.325 160.14
152 2 11.8572 146.397 160.055
153 2 15.9568 150.121 160.039
154 2 4.05751 150.042 159.927
155 2 7.9103 150.056 160.103
156 2 11.978 150.213 160.002
157 2 15.9894 154.078 159.766
158 2 4.35981 153.903 159.95
159 2 7.95137 154.035 160.066
160 2 11.9806 153.904 160.007
161 2 15.9954 157.875 4.7169
162 2 4.06843 157.909 4.56125
163 2 8.07446 157.892 4.58715
164 2 11.9217 158 4.43131
165 2 15.8429 3.49845 4.61456
166 2 3.93259 3.46037 4.52017
167 2 8.03473 3.31436 4.51728
168 2 12.1297 3.57913 4.47571
169 2 15.88 7.41748 4.64763
170 2 3.90415 7.53133 4.60533
171 2 7.89851 7.32675 4.5176
172 2 11.9948 7.46608 4.40173
173 2 15.9756 11.3446 4.58745
174 2 4.00326 11.4165 4.55324
175 2 7.77398 11.2076 4.51586
176 2 11.8141 11.1588 4.57137
177 2 15.8834 15.3068 4.40487
178 2 4.01444 15.2935 4.58413
179 2 8.02325 15.3813 4.69707
180 2 11.978 15.1458 4.41654
181 2 -0.139209 19.0257 4.36848
182 2 4.17551 19.0998 4.29748
183 2 8.05549 19.3401 4.31645
184 2 12.0051 19.2764 4.42769
185 2 15.9172 23.1586 4.58912
186 2 4.06078 23.1182 4.41135
187 2 8.06266 23.1561 4.57636
188 2 11.899 23.127 4.41633
189 2 15.7439 27.1491 4.55374
190 2 3.83886 27.2923 4.50757
191 2 7.95434 27.1586 4.47307
192 2 11.8228 27.3363 4.70149
193 2 15.9425 31.276 4.76527
194 2 4.05964 31.1859 4.53258
195 2 8.02844 31.1621 4.5552
196 2 12.0031 31.3206 4.78552
197 2 0.0337305 35.3299 4.71338
198 2 4.13214 35.2919 4.83666
199 2 8.01325 35.2438 4.61246
200 2 11.8565 35.4453 4.71881
201 2 0.0934825 39.2396 4.81428
202 2 4.00305 39.2855 4.86155
203 2 7.66451 39.3411 4.76034
204 2 11.9648 39.4341 4.50485
205 2 -0.062045 43.3266 5.02172
206 2 3.877 43.1775 4.82836
207 2 7.96291 43.1407 4.77895
208 2 12.005 43.275 4.73946
209 2 15.7438 47.6126 5.10685
210 2 3.90602 47.1916 4.76866
211 2 7.86009 47.3118 4.86472
212 2 11.694 47.3387 5.04754
213 2 -0.0770887 51.3173 5.00032
214 2 4.03335 51.3536 5.0902
215 2 8.03986 51.2857 5.00923
216 2 12.0053 51.4905 4.89947
217 2 0.0506191 55.3774 5.1303
218 2 3.84127 55.3555 5.02737
219 2 7.89392 55.3218 4.92902
220 2 12.0054 55.4949 5.02172
221 2 -0.0716497 59.3654 5.00819
222 2 4.16467 59.4935 5.17078
223 2 8.02545 59.3169 5.1883
224 2 11.9363 59.3859 5.09421
225 2 -0.133006 63.3369 5.51935
226 2 3.75244 63.395 5.44366
227 2 7.85999 63.4562 5.04369
228 2 11.9166 63.2887 5.13976
229 2 -0.0217827 67.5809 5.42987
230 2 3.79512 67.4953 5.49678
231 2 7.764 67.3673 5.21685
232 2 11.9779 67.6461 5.46947
233 2 0.00153359 71.5091 5.19832
234 2 3.99509 71.5047 5.36627
235 2 7.94182 71.5924 5.43486
236 2 11.9018 71.4729 5.39228
237 2 -0.0314316 75.4476 5.10683
238 2 3.84881 75.3579 5.31205
239 2 7.65708 75.4957 5.41157
240 2 11.7116 75.5149 5.21781
241 2 0.0591743 79.5174 5.45958
242 2 3.93151 79.5733 5.50464
243 2 7.93558 79.5544 5.43902
244 2 11.7321 79.4415 5.21049
245 2 15.8851 83.5446 5.52558
246 2 3.98047 83.4337 5.46719
247 2 7.98554 83.558 5.54167
248 2 11.8569 83.4904 5.56034
249 2 0.0491365 87.4249 5.38918
250 2 3.88839 87.4838 5.34235
251 2 7.97012 87.4196 5.17584
252 2 11.9199 87.4655 5.41987
253 2 0.214366 91.2359 5.19164
254 2 4.14737 91.3581 5.52579
255 2 8.05982 91.4849 5.34073
256 2 12.0156 91.5758 5.15306
257 2 0.186586 95.145 5.25366
258 2 4.13917 95.2346 5.39628
259 2 8.08461 95.1076 5.13832
260 2 12.0734 95.2942 5.13482
261 2 0.150938 99.2041 5.3269
262 2 4.20413 99.2148 5.06911
263 2 8.10431 99.0363 5.03489
264 2 11.9741 99.1559 5.35622
265 2 15.806 102.978 5.22619
266 2 4.00225 102.968 5.39139
267 2 7.86772 103.13 5.20335
268 2 11.8666 103.048 5.30391
269 2 -0.0863185 106.847 5.05808
270 2 3.96772 106.675 4.9879
271 2 7.74972 106.924 5.30259
272 2 11.9698 107.164 5.18017
273 2 0.0572227 110.887 5.24763
274 2 4.01544 110.961 5.29927
275 2 7.91387 110.855 5.15646
276 2 11.9903 110.84 5.34547
277 2 16.0776 114.9 5.04668
278 2 4.00551 114.964 5.19544
279 2 7.96571 114.828 5.30394
280 2 11.9108 114.928 5.2561
281 2 15.9884 118.853 4.97857
282 2 3.77889 118.905 4.96378
283 2 7.99234 118.739 4.95618
284 2 11.9389 118.799 5.17123
285 2 15.7272 122.707 4.88371
286 2 4.12445 122.674 4.9752
287 2 7.95892 122.697 4.98087
288 2 11.9362 122.794 4.85242
289 2 0.06795 126.66 5.03667
290 2 3.8666 126.681 4.93248
291 2 7.90298 126.71 4.99137
292 2 12.0785 126.774 4.84054
293 2 0.105146 130.784 4.93908
294 2 4.1305 130.468 4.87854
295 2 8.08582 130.509 4.88691
296 2 11.9272 130.543 4.93563
297 2 0.0337555 134.617 4.8826
298 2 3.95579 134.354 4.89505
299 2 7.8295 134.599 4.88165
300 2 11.9943 134.555 4.93652
301 2 15.881 138.659 4.85593
302 2 3.93555 138.428 4.87689
303 2 8.03809 138.339 4.83771
304 2 11.8333 138.495 4.8964
305 2 -0.17054 142.302 4.80433
306 2 3.76759 142.297 4.60872
307 2 7.84567 142.305 4.83941
308 2 11.8015 142.318 4.80906
309 2 15.8206 146.302 4.83334
310 2 3.95009 146.343 4.83195
311 2 7.96071 146.28 4.67088
312 2 11.8601 146.331 4.84563
313 2 0.0390735 150.126 4.76022
314 2 4.03468 150.103 4.85582
315 2 7.93626 150.077 4.87022
316 2 11.9081 150.048 4.80487
317 2 15.9915 154.011 4.49152
318 2 4.17662 153.801 4.73033
319 2 8.19002 154.081 4.77689
320 2 11.9217 154.127 4.69393
321 2 15.689 157.989 8.70884
322 2 3.9354 157.871 8.65214
323 2 7.77302 157.835 8.37288
324 2 11.925 157.934 8.80986
325 2 15.8562 3.44201 8.7292
326 2 3.78856 3.55687 8.75345
327 2 7.94991 3.52573 8.40821
328 2 11.9 3.51294 8.63774
329 2 -0.0104185 7.34599 8.50755
330 2 4.09991 7.63017 8.62087
331 2 7.8586 7.34828 8.4682
332 2 11.9549 7.52828 8.56958
333 2 15.7721 11.3841 8.49404
334 2 3.9506 11.479 8.44594
335 2 7.96951 11.5383 8.56519
336 2 11.931 11.4229 8.49134
337 2 -0.20262 15.495 8.64301
338 2 4.02632 15.1242 8.42475
339 2 7.85898 15.3052 8.63537
340 2 11.9081 15.219 8.29623
341 2 0.0381508 19.2604 8.39556
342 2 4.03698 19.0296 8.35134
343 2 7.98183 19.1642 8.55914
344 2 11.9823 19.1913 8.50663
345 2 0.089261 23.0285 8.45832
346 2 3.98035 23.035 8.41135
347 2 7.98347 23.0467 8.4184
348 2 11.8047 23.0903 8.50704
349 2 15.9388 27.0198 8.50912
350 2 3.90386 27.0808 8.40059
351 2 7.91796 27.1337 8.651
352 2 11.9501 27.0669 8.46126
353 2 15.8956 31.15 8.45016
354 2 3.80247 31.1298 8.39514
355 2 8.03371 31.1546 8.62063
356 2 11.9288 31.2929 8.3499
357 2 15.8813 35.4305 8.81082
358 2 3.94236 35.16 8.59965
359 2 7.9178 35.2996 8.52174
360 2 11.8969 35.0547 8.58721
361 2 15.9076 39.1564 8.60182
362 2 3.9941 39.3005 8.84451
363 2 8.23666 39.2308 8.75344
364 2 11.8529 38.9506 8.64127
365 2 15.787 43.1867 8.83949
366 2 3.84996 43.2029 8.72915
367 2 7.90288 43.1861 8.79747
368 2 11.8959 43.3439 8.7007
369 2 -0.10639 47.2355 8.96989
370 2 4.06602 47.2575 8.80968
371 2 7.89923 47.1463 8.70213
372 2 11.8287 47.1587 8.83898
373 2 0.0282378 51.2936 8.91705
374 2 4.03153 51.2378 8.91458
375 2 8.11819 51.2585 8.87065
376 2 11.9357 51.3145 8.98283
377 2 0.109806 55.3216 9.02537
378 2 3.85788 55.2398 8.87104
379 2 8.04715 55.1334 8.83909
380 2 11.9262 55.3219 8.9693
381 2 15.9247 59.2593 8.9787
382 2 4.01028 59.2252 8.94967
383 2 7.87374 59.2642 9.13407
384 2 11.7831 59.2486 9.21563
385 2 0.0127229 63.4017 9.2664
386 2 4.00851 63.3224 9.17214
387 2 7.85471 63.2992 8.94767
388 2 11.9063 63.1826 9.28718
389 2 -0.0370445 67.5083 9.37312
390 2 3.84867 67.3931 9.21373
391 2 7.94927 67.4156 9.20339
392 2 11.8986 67.307 9.1279
393 2 0.0609259 71.4614 9.3688
394 2 3.84231 71.501 9.16313
395 2 8.11771 71.4193 9.27384
396 2 11.7581 71.4623 9.29669
397 2 -0.276721 75.4916 9.30969
398 2 3.85066 75.3885 9.31542
399 2 7.87208 75.4249 9.37748
400 2 12.0166 75.3321 9.18191
401 2 0.0296227 79.3931 9.44272
402 2 3.94873 79.393 9.30689
403 2 7.99537 79.521 9.15931
404 2 12.0309 79.2913 9.21699
405 2 -0.0922063 83.5114 9.466
406 2 4.00357 83.4796 9.37307
407 2 7.95541 83.6198 9.37745
408 2 11.8959 83.6758 9.39822
409 2 0.0518847 87.5635 9.24326
410 2 4.05906 87.5058 9.42095
411 2 8.00838 87.5158 9.29475
412 2 11.9102 87.5688 9.32193
413 2 0.00788346 91.5042 9.39107
414 2 4.04019 91.2405 9.33746
415 2 7.93939 91.4162 9.51526
416 2 12.0462 91.5261 9.42342
417 2 -0.0284929 95.4309 9.2586
418 2 3.99919 95.2438 9.28759
419 2 8.07031 95.2761 9.41435
420 2 11.9739 95.4888 9.27383
421 2 15.941 99.2994 9.29836
422 2 4.20461 99.3535 9.19604
423 2 8.11679 99.2127 9.2439
424 2 11.7675 99.4109 9.27431
425 2 -0.0526487 103.257 9.09481
426 2 4.07916 103.25 9.20626
427 2 7.87381 103.219 9.25838
428 2 11.8887 103.287 9.3614
429 2 15.8109 107.071 9.26983
430 2 3.83199 107.015 9.31314
431 2 7.82121 107.338 9.3295
432 2 11.8443 107.063 9.16655
433 2 -0.0065183 110.961 9.12531
434 2 3.841 110.907 9.13354
435 2 7.98602 111.13 9.29909
436 2 11.931 111.077 9.27992
437 2 -0.135186 115.086 9.1285
438 2 4.29576 114.914 9.16105
439 2 7.84473 114.788 9.09657
440 2 11.944 114.879 9.02349
441 2 0.125683 118.856 9.19239
442 2 4.13591 118.799 9.21601
443 2 8.07528 118.774 9.06447
444 2 11.9349 118.701 9.04468
445 2 16.019 122.85 9.00034
446 2 4.17809 122.959 8.90444
447 2 8.20806 122.765 8.94981
448 2 11.983 122.823 8.64769
449 2 -0.0689593 126.792 8.98235
450 2 3.8437 126.585 8.8829
451 2 7.86706 126.688 9.07534
452 2 12.0517 126.702 8.8845
453 2 -0.016353 130.585 8.71327
454 2 3.99583 130.526 8.90767
455 2 7.7791 130.682 9.03422
456 2 11.7527 130.611 8.96882
457 2 -0.0276661 134.334 8.80346
458 2 3.88064 134.318 8.82906
459 2 8.03095 134.563 8.93654
460 2 11.9245 134.458 8.8891
461 2 0.141406 138.354 8.86897
462 2 3.87798 138.468 8.83465
463 2 7.86687 138.374 8.89591
464 2 11.7462 138.538 8.89757
465 2 -0.0162868 142.403 8.98203
466 2 3.86069 142.319 8.77646
467 2 7.83342 142.375 8.87075
468 2 11.8111 142.322 8.83754
469 2 15.9165 146.068 8.83436
470 2 4.01038 146.086 8.83531
471 2 7.98612 146.158 8.68083
472 2 11.8429 146.229 8.91508
473 2 15.7691 150.173 8.65283
474 2 3.81329 150.133 8.88141
475 2 7.74069 150.154 8.85785
476 2 11.9389 150.227 8.78673
477 2 15.7654 154.124 8.66416
478 2 3.91444 154.229 8.58892
479 2 7.83788 153.991 8.72222
480 2 11.8363 154.198 8.74541
481 2 15.7966 158.077 12.6891
482 2 4.11529 157.969 12.6323
483 2 7.85059 157.964 12.7001
484 2 11.7422 158.098 12.7313
485 2 16.096 3.63722 12.6296
486 2 4.00586 3.57828 12.7532
487 2 7.82133 3.59131 12.7474
488 2 11.7563 3.47313 12.7239
489 2 0.00658327 7.70899 12.6509
490 2 3.93012 7.58377 12.5921
491 2 7.81471 7.3846 12.5593
492 2 11.9725 7.39879 12.5347
493 2 15.6334 11.293 12.5351
494 2 3.8608 11.3942 12.5663
495 2 7.97635 11.3268 12.6183
496 2 11.8851 11.2987 12.543
497 2 -0.0353376 15.0797 12.5377
498 2 3.89408 15.2135 12.517
499 2 7.72011 15.1982 12.5133
500 2 11.9488 15.6173 12.6127
501 2 15.9183 19.235 12.4012
502 2 3.88185 19.349 12.5619
503 2 7.95231 19.2424 12.5233
504 2 11.9094 19.2578 12.3921
505 2 15.837 23.1403 12.3049
506 2 3.88148 23.1928 12.5086
507 2 7.99243 23.2268 12.3544
508 2 11.9517 23.1415 12.4881
509 2 15.8311 27.3546 12.3108
510 2 3.98583 26.9338 12.4094
511 2 7.94098 27.0984 12.6094
512 2 11.7862 27.0765 12.2461
513 2 -0.137868 31.0023 12.4893
514 2 3.91194 31.0753 12.3817
515 2 7.83808 31.002 12.5074
516 2 11.8375 31.1701 12.3907
517 2 15.8671 35.0495 12.5642
518 2 4.0709 35.0763 12.3768
519 2 7.99782 34.8934 12.4313
520 2 11.8264 35.0979 12.6539
521 2 15.7947 39.0232 12.6409
522 2 4.27021 39.1145 12.5764
523 2 8.00904 39.0514 12.6091
524 2 11.7076 39.0064 12.5209
525 2 15.9032 42.9592 12.5944
526 2 4.06662 43.0938 12.7317
527 2 7.9832 43.0462 12.6091
528 2 11.8909 43.1082 12.6291
529 2 16.0401 47.1808 12.894
530 2 4.28898 47.1767 12.7791
531 2 8.04941 47.0878 12.6446
532 2 11.8803 47.2633 12.6521
533 2 0.0104916 51.1682 12.8262
534 2 3.73322 51.1675 12.7833
535 2 7.84494 51.2501 12.687
536 2 11.8947 51.3215 12.6163
537 2 -0.229263 55.2613 12.6923
538 2 3.96126 55.1778 12.8892
539 2 7.92463 55.3861 12.8277
540 2 11.7225 55.3377 12.9448
541 2 -0.104573 59.2697 12.9272
542 2 3.94561 59.0432 13.1173
543 2 7.77634 59.2874 12.8697
544 2 11.8072 59.3004 12.9876
545 2 -0.192693 63.3025 13.0914
546 2 3.86369 63.3597 12.9713
547 2 7.831 63.1761 13.0031
548 2 11.7694 63.4498 12.9783
549 2 0.0986175 67.2654 13.3079
550 2 3.88745 67.4244 13.1548
551 2 7.77092 67.4518 13.0956
552 2 12.0268 67.1962 13.2621
553 2 0.0197403 71.4094 13.3081
554 2 4.06653 71.4358 13.1442
555 2 8.14613 71.3071 13.0854
556 2 12.0407 71.2812 13.3199
557 2 0.31358 75.3806 13.2839
558 2 4.07639 75.2984 13.2883
559 2 7.90556 75.3869 13.2352
560 2 11.9584 75.3722 13.0577
561 2 0.0749036 79.2307 13.0668
562 2 4.01882 79.4391 12.9957
563 2 7.95985 79.1961 12.997
564 2 12.0848 79.2705 13.1495
565 2 -0.000376607 83.3715 13.0892
566 2 4.11896 83.4167 13.2175
567 2 7.87404 83.214 13.278
568 2 11.9026 83.3814 13.2059
569 2 -0.088079 87.4521 13.3724
570 2 3.97369 87.503 13.2735
571 2 7.89883 87.5144 13.3652
572 2 11.7028 87.3172 13.2914
573 2 0.0637147 91.5779 13.5643
574 2 3.84034 91.4318 13.2987
575 2 7.69839 91.3336 13.3424
576 2 11.8071 91.4965 13.567
577 2 0.22048 95.3659 13.3032
578 2 4.19662 95.34 13.2424
579 2 7.97677 95.3931 13.383
580 2 12.0123 95.4778 13.3851
581 2 0.0765486 99.3672 13.3859
582 2 3.97648 99.0239 13.2409
583 2 7.96414 99.3463 13.2218
584 2 12.0314 99.2581 13.2671
585 2 0.0396894 103.182 13.4139
586 2 4.10471 103.148 13.1868
587 2 7.76573 102.986 13.285
588 2 11.9728 103.136 13.2454
589 2 15.7574 107.083 13.2919
590 2 3.95902 107.055 13.2641
591 2 7.87647 107.086 13.298
592 2 11.9394 107.01 13.223
593 2 -0.0694657 110.958 13.1871
594 2 3.90927 110.977 13.0866
595 2 7.97182 110.857 13.2524
596 2 11.867 111.252 13.2503
597 2 15.8762 115.046 13.2318
598 2 4.06864 115.04 13.139
599 2 7.9582 114.673 13.1362
600 2 11.8597 115.009 13.3292
601 2 15.8899 118.891 13.0611
602 2 3.97344 118.996 12.9541
603 2 7.74574 118.971 13.0856
604 2 11.8685 118.822 13.1021
605 2 0.140769 122.82 13.0872
606 2 4.05423 122.971 12.9244
607 2 8.1481 122.844 13.0548
608 2 11.9041 122.714 12.8329
609 2 15.8646 126.657 13.0732
610 2 4.07083 126.8 12.9786
611 2 7.94214 126.713 12.9002
612 2 11.7219 126.684 13.0065
613 2 15.7342 130.558 13.04
614 2 3.923 130.682 13.0444
615 2 7.90214 130.652 12.9819
616 2 11.9465 130.562 13.0653
617 2 0.298968 134.443 13.009
618 2 4.08301 134.457 12.9802
619 2 7.88092 134.528 12.9043
620 2 12.0161 134.322 12.796
621 2 0.0818114 138.175 12.9344
622 2 4.12449 138.348 12.7518
623 2 7.97932 138.354 12.9936
624 2 11.7253 138.402 12.9445
625 2 15.7458 142.237 12.9426
626 2 3.89566 142.361 12.8392
627 2 7.91169 142.31 12.8146
628 2 11.8956 141.977 12.9507
629 2 -0.1456 146.24 12.7947
630 2 3.95951 146.244 12.634
631 2 7.82446 146.242 12.8449
632 2 12.0175 146.265 12.8671
633 2 15.6753 150.18 12.6666
634 2 3.85654 149.943 12.838
635 2 7.91972 150.057 12.8787
636 2 11.8585 150.081 12.9643
637 2 15.6831 154.135 12.7637
638 2 4.0397 154.053 12.8105
639 2 7.83781 154.109 12.7236
640 2 11.8116 154.099 12.6686
641 2 15.8277 157.951 16.7665
642 2 3.5904 158.008 16.6799
643 2 7.9039 157.937 16.8937
644 2 11.7999 158.106 16.8166
645 2 15.7087 3.7043 16.6539
646 2 4.01603 3.60904 16.8928
647 2 8.05266 3.64832 16.6371
648 2 12.0494 3.54351 16.6673
649 2 -0.0225548 7.43765 16.7005
650 2 3.73753 7.51314 16.7329
651 2 8.07904 7.46781 16.7688
652 2 11.7959 7.30818 16.7
653 2 15.7508 11.4689 16.6237
654 2 3.82629 11.4219 16.7069
655 2 7.64871 11.387 16.6141
656 2 11.7586 11.3936 16.62
657 2 -0.0349582 15.5088 16.4452
658 2 4.0418 15.3502 16.482
659 2 8.04446 15.2396 16.3989
660 2 12.0938 15.1735 16.4553
661 2 15.5854 19.1987 16.3902
662 2 4.0611 19.2209 16.7658
663 2 7.78577 19.1683 16.3855
664 2 11.6929 19.1154 16.5544
665 2 15.7175 23.1891 16.5342
666 2 3.9034 23.1017 16.539
667 2 8.04733 22.9143 16.2255
668 2 12.0032 23.1169 16.5696
669 2 0.133906 27.3672 16.4072
670 2 3.95987 26.9204 16.4647
671 2 7.98869 27.2712 16.3117
672 2 11.9655 27.0312 16.3295
673 2 15.8658 30.9994 16.4244
674 2 3.97693 31.02 16.4906
675 2 7.98078 30.9621 16.5297
676 2 11.8719 31.0544 16.4174
677 2 15.8592 34.8252 16.4461
678 2 3.83474 34.929 16.4038
679 2 7.95736 34.8368 16.4397
680 2 11.953 35.0093 16.5037
681 2 -0.243085 38.9233 16.4384
682 2 3.99972 39.0103 16.3545
683 2 7.91363 39.0442 16.466
684 2 11.7428 38.8897 16.5836
685 2 15.8616 43.1115 16.5056
686 2 3.81142 42.964 16.5528
687 2 7.76989 43.0474 16.53
688 2 12.0397 42.9931 16.4156
689 2 -0.142235 47.1533 16.5396
690 2 4.14207 47.1163 16.6644
691 2 8.04661 47.1515 16.5684
692 2 11.8539 47.2108 16.4452
693 2 15.6307 51.1639 16.7725
694 2 3.83273 51.1492 16.6113
695 2 7.99547 51.0702 16.8695
696 2 11.7329 51.0289 16.7067
697 2 0.116678 54.9286 16.683
698 2 3.89065 55.2918 16.7862
699 2 7.95427 54.9947 16.6898
700 2 11.8894 55.1463 16.8385
701 2 0.0662035 59.192 16.8895
702 2 3.97552 59.1721 16.7539
703 2 7.88584 59.0326 16.8982
704 2 11.8585 59.1136 16.7979
705 2 0.00284005 63.0466 16.957
706 2 4.05655 63.2791 17.0104
707 2 7.74188 63.1742 16.8089
708 2 11.8336 63.2793 16.9573
709 2 0.00790116 67.2828 17.2201
710 2 3.96806 67.2114 17.1353
711 2 7.82631 67.1075 17.072
712 2 11.727 67.0765 16.8766
713 2 -0.0522337 71.3019 17.289
714 2 4.08805 71.2335 17.1259
715 2 7.86502 71.2596 17.1837
716 2 11.7818 71.2335 16.9663
717 2 0.0215883 75.0531 17.1288
718 2 4.02908 75.1432 17.1574
719 2 7.96287 75.3934 17.1069
720 2 11.8178 75.3148 17.0388
721 2 -0.0234996 79.2488 17.1115
722 2 4.08609 79.34 17.095
723 2 7.86938 79.2042 17.0213
724 2 11.973 79.285 17.0118
725 2 -0.0302993 83.4076 17.1338
726 2 3.66167 83.1997 17.0313
727 2 7.98543 83.2934 17.0489
728 2 11.8895 83.3189 17.13
729 2 -0.149974 87.508 17.3607
730 2 3.80107 87.3753 17.2407
731 2 7.75826 87.2139 17.3035
732 2 11.7632 87.1758 17.1676
733 2 -0.148542 91.3506 17.2744
734 2 3.98958 91.4455 17.5085
735 2 7.80141 91.5561 17.3714
736 2 11.8162 91.3797 17.1897
737 2 0.114056 95.379 17.3125
738 2 4.13248 95.4576 17.3067
739 2 8.05893 95.5727 17.4055
740 2 11.9427 95.49 17.3947
741 2 15.8728 99.2202 17.4446
742 2 4.04654 99.3471 17.3384
743 2 7.96525 99.2381 17.3936
744 2 11.7765 99.2516 17.4618
745 2 15.8235 103.102 17.3249
746 2 3.96627 103.312 17.2465
747 2 7.91843 103.105 17.3251
748 2 11.7695 103.278 17.2643
749 2 15.7535 107.146 17.3228
750 2 3.75762 107.157 17.3344
751 2 7.97302 107.066 17.2315
752 2 11.8205 107.201 17.2691
753 2 0.0114036 111.156 17.2069
754 2 4.07795 111.074 17.2632
755 2 7.88315 110.823 17.1641
756 2 11.976 111.094 17.4343
757 2 0.234126 114.954 17.3006
758 2 4.14809 114.943 17.089
759 2 7.94447 115.019 17.1805
760 2 12.0574 115.047 17.135
761 2 0.279146 118.879 17.0818
762 2 4.28005 118.935 17.0128
763 2 7.97743 118.946 17.0403
764 2 11.859 118.779 17.1827
765 2 0.237144 122.798 17.0394
766 2 4.00941 122.838 17.0918
767 2 7.8435 122.938 17.1219
768 2 11.9872 122.769 17.1781
769 2 0.00666672 126.711 17.0414
770 2 3.86466 126.565 17.0833
771 2 7.94898 126.738 17.0514
772 2 12.0298 126.708 16.9839
773 2 -0.135707 130.515 16.9279
774 2 3.94211 130.722 17.1748
775 2 7.87353 130.542 17.1353
776 2 11.8379 130.658 17.1441
777 2 -0.0445242 134.411 17.1839
778 2 4.05661 134.593 17.1388
779 2 8.16158 134.639 16.9003
780 2 11.9556 134.651 16.9095
781 2 15.8548 138.517 17.1791
782 2 3.93858 138.5 16.9798
783 2 7.81394 138.435 17.1468
784 2 12.0013 138.299 16.9142
785 2 15.7339 142.313 16.9556
786 2 3.73866 142.252 16.9747
787 2 7.80185 142.234 16.9331
788 2 11.8359 142.429 16.9873
789 2 15.7326 146.247 17.0653
790 2 3.89553 146.261 16.8367
791 2 7.88604 146.213 16.9587
792 2 11.8642 146.322 16.8511
793 2 15.7367 150.074 17.02
794 2 3.83288 149.955 16.8618
795 2 7.90863 150.165 16.853
796 2 11.6579 150.18 16.9267
797 2 -0.060134 154.041 16.8401
798 2 3.80153 153.92 16.7083
799 2 8.00532 153.942 16.7157
800 2 11.7712 154.121 16.6878
801 2 -0.00793824 157.912 20.7933
802 2 3.65755 157.95 20.6698
803 2 7.84619 158.111 20.5278
804 2 11.7861 158.035 20.9665
805 2 15.9145 3.54697 20.7126
806 2 4.07702 3.60043 20.726
807 2 8.06914 3.74412 20.7043
808 2 11.9522 3.80572 20.7072
809 2 0.136289 7.61378 20.7016
810 2 4.07797 7.42997 20.6116
811 2 7.9042 7.53958 20.7472
812 2 11.9266 7.54655 20.6089
813 2 15.7411 11.5215 20.5605
814 2 3.81903 11.4713 20.6496
815 2 7.956 11.5306 20.7438
816 2 11.838 11.1129 20.5828
817 2 15.7464 15.3858 20.5431
818 2 3.73327 15.302 20.7144
819 2 7.82948 15.2938 20.6655
820 2 11.8074 15.2084 20.5046
821 2 15.7821 19.2832 20.6175
822 2 4.17157 19.1836 20.6442
823 2 8.06419 19.2749 20.6812
824 2 11.8251 19.2305 20.5332
825 2 15.6 23.1595 20.5194
826 2 3.80216 23.0889 20.4672
827 2 7.97538 23.1184 20.4647
828 2 11.8658 23.0462 20.403
829 2 -0.207602 27.0092 20.3532
830 2 3.8358 26.9889 20.2592
831 2 7.73982 26.8619 20.1971
832 2 11.631 26.9235 20.3653
833 2 0.0876267 30.8601 20.3368
834 2 3.95569 30.8734 20.5276
835 2 7.85337 30.9815 20.4496
836 2 11.8687 31.1185 20.4049
837 2 15.8077 34.8193 20.3429
838 2 3.90979 34.9502 20.423
839 2 7.76967 35.0188 20.3666
840 2 12.0042 34.9417 20.3323
841 2 0.0552252 38.719 20.3633
842 2 3.98079 38.815 20.3438
843 2 7.92053 38.8463 20.5375
844 2 12.012 38.9245 20.6533
845 2 -0.183848 42.9604 20.513
846 2 3.97517 43.007 20.3682
847 2 7.95513 42.9546 20.3843
848 2 11.9664 42.8901 20.2373
849 2 0.126446 46.8123 20.4359
850 2 3.83227 46.783 20.6448
851 2 7.90774 47.0562 20.5953
852 2 12.0194 47.0446 20.6468
853 2 0.115749 50.9303 20.6429
854 2 4.17165 51.0042 20.4823
855 2 7.86664 51.048 20.7787
856 2 12.036 50.9719 20.4809
857 2 -0.0221393 54.8721 20.6058
858 2 3.95909 54.9793 20.5552
859 2 7.8868 55.2262 20.7054
860 2 11.9568 55.1079 20.7499
861 2 15.7602 58.955 20.845
862 2 3.95025 59.0993 20.8017
863 2 7.89105 58.9214 20.6998
864 2 11.9119 59.0955 20.7738
865 2 15.7382 63.0778 20.8083
866 2 3.99422 63.1881 20.9277
867 2 7.89141 63.1015 20.803
868 2 11.7296 62.8771 20.7199
869 2 -0.0365871 67.1347 20.6858
870 2 3.91523 67.034 20.8939
871 2 7.93258 67.0658 21.0597
872 2 11.7578 67.0347 20.9887
873 2 -0.0770572 71.1909 21.0127
874 2 4.08782 71.0911 20.8707
875 2 7.99143 71.2522 21.0167
876 2 12.1114 71.2238 20.9207
877 2 0.0316251 75.1332 21.0108
878 2 3.95002 75.2244 21.1213
879 2 7.92225 75.1995 20.9527
880 2 11.8735 75.2361 21.0258
881 2 0.00422371 79.2024 20.9781
882 2 3.91084 79.3093 20.9652
883 2 7.91555 79.3592 20.7845
884 2 11.7948 79.3484 20.8556
885 2 -0.0329392 83.2692 21.2794
886 2 3.81828 82.9969 20.936
887 2 7.9367 83.328 21.1053
888 2 11.7644 83.2469 20.9758
889 2 -0.148107 87.3082 21.057
890 2 3.89295 87.1493 21.0107
891 2 7.80586 87.3384 21.1974
892 2 11.8124 87.3726 21.0647
893 2 0.0712648 91.309 21.0594
894 2 4.09594 91.4473 21.1682
895 2 7.6851 91.1344 21.2816
896 2 11.8872 91.4293 21.1737
897 2 15.8781 95.2416 21.4608
898 2 3.89947 95.152 21.3914
899 2 7.82797 95.3139 21.1993
900 2 11.8485 95.1805 21.3102
901 2 0.164923 99.3175 21.1722
902 2 3.98452 99.2641 21.276
903 2 7.91898 99.592 21.3436
904 2 11.9637 99.5385 21.4493
905 2 15.9538 103.11 21.3862
906 2 4.02813 103.556 21.2541
907 2 7.7928 103.59 21.299
908 2 11.9105 103.364 21.4073
909 2 -0.00416136 107.123 21.4159
910 2 4.14941 107.332 21.3816
911 2 8.02801 107.311 21.2479
912 2 11.89 107.247 21.267
913 2 15.9112 111.134 21.2252
914 2 4.06835 111.162 21.2706
915 2 8.09539 111.223 21.22
916 2 11.902 110.99 21.3047
917 2 0.141927 115.317 21.1106
918 2 4.10928 115.029 21.1848
919 2 8.09222 114.999 21.1787
920 2 11.9713 114.947 20.9965
921 2 -0.0218717 118.826 21.0636
922 2 3.89324 118.899 20.9938
923 2 7.9869 118.826 21.2742
924 2 11.8967 118.967 21.0842
925 2 -0.017806 122.771 21.0194
926 2 4.11849 122.744 21.2118
927 2 7.87448 122.786 21.1182
928 2 11.9172 123.054 21.2091
929 2 -0.0644115 126.703 21.135
930 2 3.93868 126.711 21.1875
931 2 7.85392 126.742 20.9719
932 2 11.7721 126.667 21.0736
933 2 -0.18042 130.616 21.2587
934 2 3.86236 130.715 21.1729
935 2 7.76574 130.896 20.9546
936 2 11.7233 130.525 21.1032
937 2 15.629 134.363 20.98
938 2 3.77291 134.421 21.1222
939 2 7.91063 134.609 20.9804
940 2 11.6889 134.463 21.1681
941 2 15.8299 138.43 21.093
942 2 4.0051 138.425 21.0336
943 2 8.011 138.57 21.0689
944 2 11.9904 138.51 21.1569
945 2 15.7928 142.37 20.8704
946 2 4.00536 142.505 21.0013
947 2 8.02073 142.377 20.8783
948 2 11.8153 142.146 20.9194
949 2 -0.0475336 146.129 20.9235
950 2 3.88526 146.312 20.9227
951 2 7.69426 146.178 20.9033
952 2 11.6589 146.279 21.0444
953 2 15.7965 150.258 20.9715
954 2 3.96702 150.171 20.9003
955 2 7.79129 150.314 20.7259
956 2 11.6582 150.292 20.9549
957 2 -0.0859776 154.105 20.8654
958 2 3.93891 154.196 20.7241
959 2 7.78918 154.155 20.8142
960 2 11.8692 154.319 20.8052
961 2 0.00940247 158.142 24.8259
962 2 3.91887 158.093 24.7253
963 2 7.88875 158.137 24.886
964 2 11.8677 157.976 24.8285
965 2 15.8949 3.61786 24.7915
966 2 3.95587 3.5382 24.6889
967 2 8.16235 3.65016 24.8495
968 2 11.9591 3.44116 24.6831
969 2 0.037683 7.501 24.7085
970 2 3.97758 7.5832 24.8554
971 2 7.84952 7.42755 24.676
972 2 12.1012 7.52501 24.7353
973 2 0.0319129 11.4362 24.7157
974 2 3.89194 11.3937 24.5895
975 2 8.10692 11.5378 24.598
976 2 11.9351 11.4079 24.769
977 2 0.0289968 15.415 24.6441
978 2 3.97196 15.3706 24.6489
979 2 7.84184 15.271 24.6319
980 2 11.9237 15.3952 24.585
981 2 15.681 19.1911 24.4904
982 2 3.71396 19.3521 24.6652
983 2 7.89127 19.3442 24.6302
984 2 11.7845 19.2129 24.5884
985 2 -0.132767 23.1785 24.5361
986 2 3.88556 23.1279 24.5996
987 2 7.89666 23.134 24.486
988 2 11.8275 23.0514 24.4715
989 2 -0.09639 26.9868 24.4045
990 2 3.88904 27.0067 24.2369
991 2 7.87721 26.8864 24.4768
992 2 11.7983 27.1128 24.4393
993 2 -0.0945082 30.9107 24.2947