ITEM: TIMESTEP
16800
ITEM: NUMBER OF ATOMS
32000
ITEM: BOX BOUNDS xy xz yz pp pp pp
0.0000000000000000e+00 1.5832000000000001e+01 0.0000000000000000e+00
0.0000000000000000e+00 1.5831999999999999e+02 0.0000000000000000e+00
8.2593006713307204e-01 1.6015118793286516e+02 0.0000000000000000e+00
ITEM: ATOMS id type x y z
1 2 0.123238 157.839 159.701
2 2 3.89582 157.594 159.856
3 2 7.64266 157.829 159.661
4 2 11.7815 157.837 159.951
5 2 15.8012 3.38594 159.752
6 2 3.96498 3.21242 159.681
7 2 7.74594 3.25236 159.767
8 2 11.8911 3.41009 159.853
9 2 0.0802252 7.28604 159.887
10 2 3.93789 7.27265 159.714
11 2 7.66745 7.17421 159.799
12 2 11.914 7.23098 159.792
13 2 -0.120607 11.3031 159.88
14 2 3.91155 11.1636 159.86
15 2 7.74268 11.1073 159.777
16 2 11.8376 10.9794 159.791
17 2 15.9468 15.1073 159.852
18 2 3.9352 15.0309 159.843
19 2 7.68115 15.0686 159.707
20 2 11.8212 15.0849 159.747
21 2 0.0284639 19.062 160.078
22 2 3.81008 19.2378 160.018
23 2 7.95568 19.1842 159.934
24 2 11.8131 18.9858 159.86
25 2 15.7086 22.9546 0.51375
26 2 3.91425 23.1367 159.897
27 2 8.19067 23.0335 159.83
28 2 11.938 22.9898 159.728
29 2 15.7663 27.2112 160.071
30 2 4.03316 27.3749 160.103
31 2 7.8867 27.1857 160.064
32 2 11.82 27.1445 159.815
33 2 15.9547 31.146 160.026
34 2 4.07613 31.2409 159.964
35 2 8.43564 31.3567 159.946
36 2 11.9892 31.195 0.621631
37 2 15.8874 35.3169 160.187
38 2 4.09625 35.2932 0.673223
39 2 7.8709 35.2857 160.017
40 2 12.1406 35.0252 0.805696
41 2 -0.0745579 39.2998 160.152
42 2 3.82047 39.2867 0.706971
43 2 7.91396 39.1708 0.884884
44 2 11.924 39.4235 160.403
45 2 0.00552316 43.1605 0.858584
46 2 3.73469 43.2647 0.842242
47 2 7.94924 43.3264 0.726999
48 2 11.6547 43.3296 1.06983
49 2 15.8979 47.4896 1.1747
50 2 3.90684 47.3647 0.892804
51 2 7.81232 47.3554 1.05133
52 2 11.9211 47.232 0.986165
53 2 -0.195616 51.5163 0.972916
54 2 3.91003 51.2594 0.812999
55 2 7.89935 51.4264 0.792709
56 2 11.7607 51.4493 160.43
57 2 -0.0892389 55.4188 0.962021
58 2 3.95597 55.3334 0.868076
59 2 8.1185 55.3956 0.934337
60 2 11.7799 55.2715 1.02426
61 2 -0.071057 59.5024 1.17909
62 2 3.99708 59.2701 0.992436
63 2 8.08956 59.5267 1.08232
64 2 11.9483 59.4512 1.09891
65 2 -0.00133877 63.559 1.07544
66 2 3.94476 63.586 1.20177
67 2 7.8154 63.667 1.23109
68 2 11.7148 63.3718 1.21928
69 2 -0.123071 67.552 1.21298
70 2 4.01989 67.6935 1.39209
71 2 7.92431 67.5532 1.09708
72 2 11.7898 67.5071 1.42971
73 2 16.0123 71.6672 1.50875
74 2 4.06997 71.7236 1.53143
75 2 7.89715 71.6401 1.20701
76 2 11.8248 71.5217 1.40565
77 2 -0.200872 75.5264 1.48306
78 2 3.95112 75.641 1.39259
79 2 7.9614 75.7307 1.55002
80 2 11.8195 75.5599 1.60761
81 2 -0.0770111 79.5803 1.48559
82 2 3.73376 79.616 1.47715
83 2 7.6398 79.5603 1.67069
84 2 11.6246 79.4373 1.70154
85 2 -0.131211 83.4194 1.49507
86 2 3.97743 83.593 1.63148
87 2 7.9603 83.476 1.46766
88 2 11.7903 83.566 1.574
89 2 -0.0400561 87.4252 1.4198
90 2 3.80026 87.4211 1.51331
91 2 7.77569 87.5208 1.3549
92 2 11.8239 87.3098 1.36951
93 2 -0.0292515 91.3404 1.28911
94 2 3.72885 91.3842 1.34424
95 2 7.87938 91.2973 1.14608
96 2 11.745 91.2306 1.40796
97 2 0.00182048 95.1095 1.2906
98 2 3.8382 95.2584 1.25082
99 2 7.76362 95.1258 1.33748
100 2 11.7729 95.219 1.36874
101 2 0.0515447 98.9827 1.15243
102 2 4.08593 99.0713 1.27814
103 2 7.63489 99.0995 1.28545
104 2 11.671 98.9944 1.22094
105 2 15.7989 102.937 1.087
106 2 3.95663 102.938 1.02188
107 2 7.74184 103.021 1.1645
108 2 11.7304 103.184 1.1586
109 2 15.8566 107.01 1.32468
110 2 3.97143 106.978 1.25184
111 2 7.89428 107.016 1.19436
112 2 11.88 106.956 1.18367
113 2 -0.0190024 110.763 1.12099
114 2 3.95678 110.705 0.972148
115 2 8.12301 110.89 1.1611
116 2 11.9165 110.875 1.13804
117 2 0.0514926 114.653 1.0402
118 2 4.14447 114.825 1.12522
119 2 7.94361 114.705 0.981703
120 2 12.0813 114.669 1.06836
121 2 15.8133 118.65 1.10903
122 2 3.87055 118.651 1.23012
123 2 7.98234 118.632 0.917696
124 2 11.7429 118.78 160.215
125 2 0.0680454 122.501 0.941161
126 2 3.80144 122.541 0.981867
127 2 7.93343 122.446 0.869479
128 2 11.972 122.618 1.01936
129 2 -0.100661 126.703 160.286
130 2 4.16205 126.417 160.263
131 2 7.997 126.481 1.08047
132 2 11.6808 126.514 0.853238
133 2 -0.00277786 130.398 160.251
134 2 3.95188 130.512 160.278
135 2 7.94311 130.448 0.847485
136 2 11.8658 130.582 160.163
137 2 -0.093591 134.501 160.183
138 2 3.81846 134.534 160.354
139 2 7.95587 134.318 0.967073
140 2 11.8733 134.567 160.218
141 2 0.0507038 138.423 160.149
142 2 3.86032 138.377 160.176
143 2 7.71823 138.325 160.064
144 2 11.854 138.401 0.884942
145 2 15.7537 142.206 160.19
146 2 3.81726 142.269 160.104
147 2 7.76014 142.093 160.199
148 2 11.66 142.231 160.145
149 2 -0.0974503 145.905 160.084
150 2 3.88096 146.107 160.128
151 2 7.98052 146.168 160.085
152 2 11.8569 146.065 159.925
153 2 15.8894 149.951 160.116
154 2 4.11842 149.984 159.914
155 2 8.00826 150.086 159.915
156 2 12.0518 150.138 159.904
157 2 15.7762 154.11 159.89
158 2 3.95022 153.893 159.894
159 2 7.89539 154.051 159.839
160 2 11.9949 153.876 160.083
161 2 15.8984 157.698 4.6672
162 2 3.86511 157.9 4.68159
163 2 7.9478 157.826 4.62484
164 2 11.7635 157.681 4.5826
165 2 15.8084 3.44361 4.43547
166 2 3.98871 3.55663 4.68794
167 2 7.78407 3.56182 4.62633
168 2 11.742 3.16331 4.6663
169 2 15.7536 7.35965 4.50416
170 2 3.98953 7.38828 4.35769
171 2 7.91025 7.38718 4.55895
172 2 11.6324 7.15786 4.56087
173 2 15.6107 11.2428 4.4158
174 2 3.93029 11.163 4.50047
175 2 8.06148 11.2293 4.55719
176 2 11.7491 11.1713 4.43527
177 2 15.6495 14.9824 4.49116
178 2 4.03001 15.1575 4.48955
179 2 7.99232 15.0659 4.56279
180 2 11.7418 15.0048 4.33943
181 2 -0.020507 18.8929 4.50103
182 2 4.08795 18.9911 4.51935
183 2 7.83125 19.0172 4.48523
184 2 11.9563 19.0936 4.54221
185 2 15.9762 23.1223 4.28973
186 2 3.92636 23.0088 4.53112
187 2 7.85598 22.8491 4.37811
188 2 11.9667 22.9942 4.54002
189 2 16.0806 27.1869 4.48029
190 2 4.14802 26.9968 4.53694
191 2 8.17827 26.959 4.46339
192 2 12.0119 27.1507 4.45848
193 2 15.913 30.863 4.73912
194 2 4.05132 31.1803 4.54759
195 2 7.85363 31.1265 4.69041
196 2 11.9163 31.1112 4.67801
197 2 -0.0764601 34.9521 4.5701
198 2 3.7983 35.2293 4.61887
199 2 8.09852 35.2158 4.6274
200 2 11.9501 35.1014 4.76864
201 2 -0.0575538 39.1177 4.72784
202 2 3.96209 39.3422 4.6339
203 2 7.88077 39.1589 4.72281
204 2 11.9582 39.2375 4.87973
205 2 -0.0394937 43.1753 4.79671
206 2 3.91187 43.2062 4.94942
207 2 7.72866 43.1688 4.69143
208 2 11.5435 43.1574 4.90426
209 2 15.9217 47.1676 4.66128
210 2 4.0073 47.2983 4.8456
211 2 7.71802 47.2931 4.83648
212 2 11.8977 47.1294 4.87273
213 2 -0.169867 51.109 4.90041
214 2 3.85599 51.3364 4.76083
215 2 7.70563 51.3092 4.78577
216 2 11.8462 51.124 4.91733
217 2 0.0131195 55.2748 4.87083
218 2 3.98032 55.3772 4.92719
219 2 7.80454 55.3434 4.81416
220 2 11.7891 55.3583 5.03229
221 2 0.0265126 59.3011 5.10009
222 2 3.8859 59.3116 4.86935
223 2 7.76063 59.299 4.78752
224 2 11.9337 59.3554 4.89202
225 2 0.225614 63.4195 5.01939
226 2 3.97915 63.3166 4.92892
227 2 7.92216 63.4027 5.11009
228 2 11.9452 63.5412 5.10446
229 2 0.063031 67.4307 5.20385
230 2 3.8948 67.5098 5.08867
231 2 7.96683 67.3174 5.36958
232 2 11.9226 67.5443 5.27807
233 2 -0.159309 71.4172 5.34373
234 2 3.9295 71.5183 5.2144
235 2 7.7469 71.5175 5.33524
236 2 11.7663 71.4919 5.21429
237 2 -0.209831 75.5784 5.25534
238 2 3.85508 75.7571 5.55746
239 2 7.7942 75.5841 5.38663
240 2 11.8161 75.4252 5.26131
241 2 -0.165769 79.5727 5.66267
242 2 3.76696 79.6331 5.36227
243 2 7.70003 79.3149 5.62926
244 2 11.5924 79.4004 5.53141
245 2 15.7624 83.5208 5.57493
246 2 3.86961 83.6778 5.57631
247 2 7.83289 83.5575 5.53969
248 2 11.7598 83.3989 5.51929
249 2 -0.130687 87.5998 5.47837
250 2 3.94076 87.3981 5.55833
251 2 7.76947 87.4235 5.19629
252 2 11.8456 87.3497 5.49703
253 2 -0.290984 91.4559 5.38278
254 2 3.79098 91.4778 5.41902
255 2 7.79127 91.4085 5.38893
256 2 11.8164 91.5112 5.54848
257 2 0.0488142 95.3318 5.22958
258 2 3.98466 95.3353 5.39843
259 2 7.7207 95.3152 5.30059
260 2 11.8244 95.2631 5.31099
261 2 -0.0907587 99.1684 5.31669
262 2 3.91027 99.1438 5.14073
263 2 7.79114 99.2241 5.26065
264 2 11.8622 99.168 5.27916
265 2 15.8382 102.96 5.02496
266 2 3.7441 103.212 5.18225
267 2 7.89135 103.057 5.35599
268 2 11.8382 102.967 5.07043
269 2 -0.0567223 107.156 5.15649
270 2 3.85859 106.993 5.314
271 2 7.84293 107.096 5.23715
272 2 11.761 107.028 5.2429
273 2 0.0218184 111 5.08959
274 2 4.06741 110.857 5.18713
275 2 8.01186 111.03 5.14318
276 2 11.7962 110.918 5.2046
277 2 15.8753 114.614 5.09902
278 2 4.05824 114.729 5.12148
279 2 7.99968 114.978 5.0377
280 2 11.8238 114.842 5.01144
281 2 15.6669 118.739 5.05143
282 2 4.01015 118.654 5.1038
283 2 7.88732 118.805 4.98092
284 2 11.7614 118.746 5.08611
285 2 15.8721 122.666 4.98808
286 2 4.05444 122.602 5.00639
287 2 7.7318 122.703 4.99505
288 2 11.8552 122.688 5.00849
289 2 -0.0481878 126.404 5.04905
290 2 3.99803 126.435 4.91974
291 2 8.02452 126.605 4.84617
292 2 11.6608 126.585 4.97216
293 2 -0.179105 130.389 4.99021
294 2 3.67875 130.585 4.86297
295 2 7.7275 130.394 4.62573
296 2 11.843 130.598 5.01192
297 2 -0.105939 134.369 4.89522
298 2 3.8206 134.391 4.90993
299 2 7.74379 134.335 4.95018
300 2 11.9154 134.563 4.91673
301 2 15.7695 138.288 4.90114
302 2 3.82931 138.351 5.01043
303 2 7.73102 138.247 4.7426
304 2 11.7714 138.393 4.93133
305 2 -0.0138568 142.161 4.86971
306 2 3.84955 142.342 4.85412
307 2 7.67182 142.416 5.05685
308 2 11.7158 142.333 4.72436
309 2 15.6698 146.211 4.70845
310 2 3.81481 146.164 4.73575
311 2 7.58928 146.174 4.51245
312 2 11.7336 146.235 4.67334
313 2 -0.0226088 150.147 4.61027
314 2 4.07594 150.026 4.53019
315 2 7.83212 149.981 4.66307
316 2 11.7892 150.03 4.66916
317 2 15.9186 153.898 4.70921
318 2 3.77405 153.975 4.78332
319 2 7.79875 153.991 4.65372
320 2 11.8851 153.938 4.80341
321 2 15.7442 157.871 8.66063
322 2 4.05247 157.819 8.69076
323 2 7.8672 157.917 8.79214
324 2 12.0002 157.831 8.68746
325 2 15.8379 3.43274 8.42981
326 2 4.11483 3.51005 8.57788
327 2 7.85569 3.61383 8.85436
328 2 11.9031 3.41358 8.545
329 2 -0.193182 7.38908 8.53038
330 2 3.94941 7.41136 8.71788
331 2 7.87754 7.34283 8.68856
332 2 11.8235 7.27433 8.62671
333 2 16.0203 11.0783 8.41564
334 2 3.93393 11.3855 8.53327
335 2 7.89189 11.3363 8.5647
336 2 11.9195 11.112 8.67187
337 2 0.0519988 15.032 8.48064
338 2 4.04004 15.3971 8.41481
339 2 8.06584 15.0391 8.56339
340 2 11.8045 15.1809 8.63254
341 2 0.135813 19.2348 8.4272
342 2 3.99478 19.3324 8.42403
343 2 8.05794 19.1125 8.44108
344 2 12.0374 19.1035 8.39426
345 2 0.0911054 23.1226 8.42995
346 2 4.2206 23.1297 8.3064
347 2 8.1913 23.0785 8.40192
348 2 11.9746 22.9956 8.48469
349 2 15.9389 27.059 8.52731
350 2 4.0186 27.0065 8.41723
351 2 7.9607 27.0936 8.39286
352 2 11.9046 26.9622 8.49156
353 2 15.9211 30.8964 8.52201
354 2 4.13642 31.1828 8.87763
355 2 7.90744 31.0942 8.44176
356 2 11.8456 30.9767 8.59077
357 2 15.8747 35.0266 8.54817
358 2 4.17288 35.0134 8.59855
359 2 7.92464 35.1225 8.61748
360 2 11.7772 35.0123 8.48251
361 2 15.9563 39.1395 8.45879
362 2 3.76426 39.0602 8.56869
363 2 7.73044 38.9206 8.52969
364 2 11.9931 39.0479 8.61643
365 2 15.7828 43.1353 8.64748
366 2 3.99798 43.163 8.82533
367 2 7.88773 43.1826 8.69445
368 2 11.7696 43.3417 8.69464
369 2 -0.121607 47.0998 8.69553
370 2 3.76938 47.1935 8.99328
371 2 7.64032 47.3399 8.7371
372 2 11.8151 47.2111 8.6031
373 2 -0.107337 51.257 8.74287
374 2 3.7203 51.1371 8.61331
375 2 7.55493 51.2905 8.83105
376 2 11.6057 51.2802 8.77699
377 2 -0.111096 55.1836 8.98807
378 2 3.86198 55.3356 8.88637
379 2 7.79137 55.2882 8.84796
380 2 11.7135 55.2739 8.69218
381 2 15.6939 59.1426 8.95246
382 2 3.89624 59.1791 8.79126
383 2 7.99446 59.2586 8.75049
384 2 11.8885 59.1445 8.80423
385 2 0.223779 63.2992 9.04921
386 2 4.01782 63.2195 9.08002
387 2 7.85246 63.3384 9.02327
388 2 11.9906 63.1861 9.01638
389 2 0.0671433 67.3576 9.0989
390 2 3.90987 67.4234 8.9759
391 2 7.99305 67.2945 9.27484
392 2 12.0571 67.5025 9.2147
393 2 0.150145 71.3434 9.04805
394 2 3.83418 71.3818 9.2369
395 2 7.74639 71.493 9.26024
396 2 11.7803 71.5719 9.22974
397 2 0.157552 75.4841 9.18358
398 2 4.03323 75.4894 9.1261
399 2 7.76941 75.3203 9.17347
400 2 11.7671 75.3528 9.33443
401 2 -0.126541 79.3792 9.29644
402 2 3.78644 79.6729 9.44796
403 2 7.82654 79.5309 9.34569
404 2 11.7527 79.322 9.41455
405 2 0.0224455 83.5777 9.439
406 2 3.74626 83.4171 9.45747
407 2 7.8808 83.3383 9.57448
408 2 11.9699 83.4051 9.57464
409 2 -0.267686 87.4624 9.44906
410 2 3.85229 87.3964 9.5715
411 2 7.65287 87.4708 9.51911
412 2 11.6232 87.4881 9.49876
413 2 -0.10665 91.4283 9.50015
414 2 3.85156 91.4917 9.46673
415 2 7.74649 91.3959 9.52774
416 2 11.7799 91.3787 9.42201
417 2 0.0647134 95.3616 9.38136
418 2 4.01893 95.2606 9.29827
419 2 8.00597 95.3646 9.16433
420 2 11.9514 95.4674 9.19673
421 2 15.89 99.2109 9.27705
422 2 3.75499 99.1524 9.35543
423 2 7.8634 99.259 9.31304
424 2 11.8178 99.1902 9.42115
425 2 -0.137785 103.106 9.20571
426 2 4.00255 102.988 9.11807
427 2 7.70165 102.905 9.42369
428 2 11.7574 103.044 9.24544
429 2 15.759 106.895 9.33746
430 2 3.74752 106.899 9.29558
431 2 7.87157 106.918 9.11992
432 2 11.8401 107.045 9.0763
433 2 -0.00451804 110.978 9.31271
434 2 3.94898 110.855 9.25961
435 2 7.93761 110.83 9.24938
436 2 11.6552 110.788 9.22104
437 2 -0.0400857 114.959 9.16534
438 2 4.0201 114.716 9.07217
439 2 7.80432 114.87 9.16448
440 2 11.9398 114.903 9.14923
441 2 -0.00284966 118.627 9.08109
442 2 3.86056 118.773 8.99355
443 2 7.82078 119.02 9.07907
444 2 11.9184 118.985 9.22288
445 2 15.7139 122.629 9.16913
446 2 3.9569 122.819 9.1383
447 2 7.85287 122.869 9.11756
448 2 11.9119 122.73 9.27072
449 2 0.0219223 126.565 8.96465
450 2 4.08663 126.615 8.90096
451 2 7.94569 126.601 8.77156
452 2 11.8195 126.607 9.01549
453 2 0.0709281 130.562 9.00367
454 2 4.04991 130.54 8.8844
455 2 7.87452 130.489 8.99195
456 2 11.9452 130.647 8.93198
457 2 -0.0696135 134.543 9.07376
458 2 3.93906 134.595 9.02713
459 2 7.88355 134.379 8.81466
460 2 11.7353 134.469 8.83035
461 2 -0.052545 138.401 8.99423
462 2 4.02766 138.452 8.93142
463 2 7.95201 138.391 8.86484
464 2 11.9204 138.418 8.72572
465 2 -0.287353 142.315 8.8086
466 2 3.72129 142.273 8.71099
467 2 7.90706 142.16 8.91382
468 2 11.8782 142.273 8.77751
469 2 15.6263 146.416 8.73963
470 2 3.91492 146.346 8.79254
471 2 7.80564 146.312 8.8799
472 2 11.5653 146.348 8.83607
473 2 15.8565 150.135 8.6853
474 2 3.97862 149.928 8.6577
475 2 7.83307 150.141 8.6641
476 2 11.8681 150.257 8.65491
477 2 15.8581 153.977 8.76013
478 2 4.0055 153.966 8.79847
479 2 7.91164 153.918 8.89775
480 2 11.9647 154.021 8.77192
481 2 15.7894 157.905 12.7635
482 2 3.93464 157.839 12.6237
483 2 7.93206 157.898 12.6719
484 2 11.8396 158.054 12.8185
485 2 15.8227 3.48945 12.7083
486 2 3.79154 3.35911 12.5504
487 2 7.88265 3.50299 12.7306
488 2 11.9512 3.52507 12.9206
489 2 0.0270178 7.31712 12.7473
490 2 3.92764 7.38408 12.8094
491 2 7.84084 7.50979 12.6667
492 2 12.1071 7.38882 12.6212
493 2 15.9982 11.4825 12.518
494 2 4.07266 11.4892 12.6873
495 2 7.91823 11.4035 12.5119
496 2 11.8955 11.2213 12.6332
497 2 0.076329 15.2081 12.6387
498 2 4.01601 15.3796 12.5446
499 2 8.06802 15.1639 12.4933
500 2 11.856 15.1306 12.6635
501 2 15.8699 19.2766 12.58
502 2 4.05835 19.1102 12.478
503 2 8.02408 19.0323 12.376
504 2 11.9987 19.1466 12.3926
505 2 16.077 23.1611 12.4245
506 2 4.20901 23.0636 12.452
507 2 8.03483 23.0412 12.5521
508 2 12.0548 22.9885 12.4426
509 2 15.9291 26.9365 12.4119
510 2 4.03815 26.8615 12.3036
511 2 7.99682 27.0345 12.212
512 2 12.0275 26.9373 12.5691
513 2 0.0952495 30.8571 12.4261
514 2 4.12274 31.0868 12.5746
515 2 8.02881 31.0428 12.3673
516 2 12.0508 30.9664 12.4308
517 2 15.9733 34.9365 12.2737
518 2 3.77928 34.9932 12.4498
519 2 8.02151 35.2365 12.5848
520 2 11.9074 35.1051 12.4704
521 2 15.8689 39.0802 12.5609
522 2 3.72166 39.0937 12.4388
523 2 7.9225 39.055 12.5966
524 2 12.1615 39.0849 12.2235
525 2 15.7631 43.1033 12.5548
526 2 3.90702 43.1693 12.7267
527 2 7.81414 43.0866 12.7099
528 2 11.6181 43.0944 12.7168
529 2 15.615 47.1372 12.6055
530 2 3.72332 47.1351 12.7094
531 2 7.75283 47.1846 12.7393
532 2 11.7914 47.1985 12.5821
533 2 -0.0365304 51.0735 12.8151
534 2 4.00848 51.1701 12.8515
535 2 7.87627 50.9731 12.7057
536 2 11.7627 51.1581 12.8298
537 2 -0.130308 55.1445 12.7957
538 2 4.02061 55.1866 12.7753
539 2 7.85898 55.168 12.767
540 2 11.7819 54.9343 12.8853
541 2 -0.047409 59.017 12.9341
542 2 3.95712 59.0908 12.7295
543 2 7.8713 59.3691 12.6282
544 2 11.9094 59.1633 12.8462
545 2 0.142867 63.1053 13.0035
546 2 4.02928 63.4644 12.9426
547 2 8.00743 63.1582 13.057
548 2 11.9357 63.1717 12.8669
549 2 -0.121446 67.2484 13.1186
550 2 4.02349 67.1568 13.0486
551 2 8.00652 67.2242 12.9998
552 2 11.8435 67.2081 13.0468
553 2 -0.130632 71.4174 13.0837
554 2 3.88946 71.2413 13.061
555 2 7.81028 71.1805 13.1738
556 2 11.8664 71.6068 13.0488
557 2 -0.086434 75.2791 13.0282
558 2 3.80584 75.2875 13.0526
559 2 8.02068 75.2481 13.1281
560 2 11.8851 75.2271 13.1793
561 2 -0.132964 79.2468 13.2325
562 2 4.06351 79.1752 13.3725
563 2 7.82824 79.5383 13.3763
564 2 11.9481 79.2804 13.2468
565 2 -0.0153752 83.463 13.5535
566 2 3.89019 83.3558 13.3545
567 2 7.84083 83.3742 13.3231
568 2 11.9695 83.4777 13.3001
569 2 -0.165973 87.4943 13.6931
570 2 3.67969 87.446 13.4729
571 2 7.92497 87.3908 13.1455
572 2 11.863 87.6181 13.5805
573 2 -0.044636 91.474 13.475
574 2 3.96413 91.5764 13.3989
575 2 8.00096 91.3689 13.4052
576 2 11.9068 91.4686 13.513
577 2 0.00513847 95.387 13.4686
578 2 3.88475 95.5112 13.5188
579 2 7.95759 95.2073 13.4934
580 2 12.0178 95.3032 13.3846
581 2 0.0225207 99.1392 13.2255
582 2 4.09998 99.2511 13.4462
583 2 8.0964 99.3597 13.3525
584 2 11.865 99.2646 13.2724
585 2 -0.158469 103.284 13.4096
586 2 3.89852 103.149 13.3454
587 2 7.84045 103.148 13.315
588 2 11.83 103.329 13.368
589 2 15.7413 107.123 13.1367
590 2 4.09724 107.108 13.1538
591 2 7.69529 106.998 13.2846
592 2 11.5442 107.04 13.1783
593 2 0.139142 110.969 13.1589
594 2 3.89526 110.874 13.3394
595 2 7.84346 111.188 13.2987
596 2 11.7656 110.828 13.2813
597 2 15.808 114.999 13.1794
598 2 3.92376 114.931 13.1903
599 2 7.9652 115.073 13.2336
600 2 11.8371 114.763 13.0976
601 2 15.8315 118.692 13.0914
602 2 3.98225 118.622 13.0674
603 2 8.03598 118.734 13.2204
604 2 11.9862 118.936 13.1692
605 2 0.0843792 122.949 13.0901
606 2 3.84845 122.816 13.3261
607 2 7.84571 122.651 13.298
608 2 11.7973 122.718 13.1733
609 2 15.8757 126.696 13.0389
610 2 3.83335 126.687 12.9408
611 2 7.9144 126.811 12.9017
612 2 11.783 126.502 13.1172
613 2 15.7834 130.404 12.954
614 2 3.85371 130.564 12.9221
615 2 7.96159 130.64 12.9632
616 2 11.8346 130.526 13.0169
617 2 -0.098745 134.471 13.0289
618 2 3.86133 134.579 12.9037
619 2 7.97699 134.273 13.0392
620 2 11.8231 134.499 12.8233
621 2 0.0725988 138.462 12.8898
622 2 3.89814 138.411 12.8771
623 2 8.04721 138.355 13.0092
624 2 11.9135 138.441 12.8655
625 2 15.8539 142.373 12.8092
626 2 3.89418 142.281 12.882
627 2 7.90048 142.26 12.8095
628 2 11.7657 142.372 12.802
629 2 -0.00845677 146.322 12.7554
630 2 3.87606 146.193 12.687
631 2 7.84723 146.178 12.7207
632 2 11.9417 146.235 12.639
633 2 15.9949 150.125 12.7188
634 2 3.87049 150.226 12.7892
635 2 7.92938 150.16 12.867
636 2 11.6828 150.189 12.7977
637 2 15.7966 154.01 12.7677
638 2 3.81888 153.885 12.7912
639 2 7.8856 154.09 12.5182
640 2 11.7628 154.025 12.4726
641 2 15.9088 158.01 16.7131
642 2 4.01918 157.947 16.8328
643 2 7.82486 158.09 16.8481
644 2 11.7993 158.02 16.8638
645 2 15.8112 3.68152 16.8959
646 2 4.03132 3.47045 16.6959
647 2 7.87307 3.58861 16.5608
648 2 11.8933 3.65187 16.6317
649 2 0.291451 7.53705 16.7223
650 2 3.93722 7.60733 16.5688
651 2 7.91839 7.57694 16.7034
652 2 11.8253 7.58952 16.6499
653 2 15.9645 11.4236 16.6267
654 2 3.88449 11.3617 16.5074
655 2 8.09145 11.2824 16.5311
656 2 12.0391 11.5185 16.6526
657 2 -0.113138 15.2362 16.6991
658 2 3.87499 15.4144 16.5505
659 2 7.83905 15.3297 16.7356
660 2 11.5944 15.1628 16.3983
661 2 16.0092 19.2252 16.4718
662 2 4.10974 19.1636 16.4583
663 2 8.06734 19.3109 16.3658
664 2 12.1497 19.0245 16.4875
665 2 16.0561 23.1363 16.3127
666 2 4.23807 23.0815 16.3455
667 2 7.9492 23.0937 16.4982
668 2 12.0106 23.1812 16.4901
669 2 0.0501896 26.9371 16.4597
670 2 4.00221 27.1491 16.5971
671 2 7.96655 26.9372 16.4186
672 2 12.0621 26.9648 16.5337
673 2 15.7695 31.004 16.29
674 2 3.93035 31.0584 16.1547
675 2 7.97145 30.8048 16.4004
676 2 11.8361 30.9122 16.2761
677 2 15.8366 34.9959 16.467
678 2 3.90462 35.0386 16.4035
679 2 7.87377 34.9845 16.3724
680 2 11.945 34.8695 16.3908
681 2 -0.0261664 38.9754 16.3854
682 2 3.91636 38.8874 16.4778
683 2 7.84635 38.8951 16.5
684 2 11.9618 39.0393 16.3606
685 2 15.7419 43.1428 16.4843
686 2 3.95752 42.9412 16.5512
687 2 7.87107 42.8948 16.5611
688 2 11.7229 42.8298 16.4787
689 2 0.0292445 47.013 16.5821
690 2 3.97279 47.1026 16.5528
691 2 7.78165 47.0162 16.6242
692 2 11.894 46.9064 16.6453
693 2 16.1574 51.1439 16.6782
694 2 4.18063 51.0397 16.677
695 2 8.13645 50.9779 16.5357
696 2 12.2065 51.1263 16.6308
697 2 0.0830692 55.1282 16.7962
698 2 3.99527 55.1722 16.8262
699 2 7.89753 54.92 16.7242
700 2 11.7988 55.1387 16.693
701 2 -0.15358 59.05 16.7576
702 2 3.89262 59.0319 16.6525
703 2 7.95983 59.0032 16.5939
704 2 11.7519 59.1024 16.7419
705 2 -0.0560397 63.0016 16.8743
706 2 3.82283 63.128 16.8067
707 2 7.97519 63.0513 16.8119
708 2 11.8334 63.2922 16.8356
709 2 -0.191449 67.2515 16.9233
710 2 3.88609 67.1996 16.9714
711 2 8.01395 67.1562 16.7451
712 2 11.975 67.2194 16.9046
713 2 0.200093 71.1389 17.0474
714 2 3.94916 71.3655 17.1341
715 2 7.98274 71.1052 16.9478
716 2 12.1009 71.1742 17.1254
717 2 -0.0536332 75.224 17.1125
718 2 3.88829 75.2403 17.0943
719 2 8.03817 75.2302 17.0493
720 2 12.0143 75.2735 17.2213
721 2 -0.0994623 79.3396 17.2284
722 2 4.07578 79.3389 17.2545
723 2 7.91948 79.2661 17.3725
724 2 11.7608 79.35 17.2961
725 2 -0.0821563 83.4765 17.494
726 2 4.04876 83.4163 17.2714
727 2 8.06095 83.4125 17.1235
728 2 11.7204 83.3527 17.4256
729 2 -0.0178967 87.3605 17.4406
730 2 4.00662 87.4771 17.4215
731 2 7.72559 87.3302 17.1488
732 2 11.6384 87.3721 17.4551
733 2 -0.0527803 91.3849 17.5326
734 2 4.02313 91.3085 17.5157
735 2 7.8277 91.4511 17.3841
736 2 11.8531 91.5063 17.635
737 2 0.143971 95.343 17.3068
738 2 3.88787 95.2097 17.4367
739 2 7.90158 95.2815 17.6343
740 2 11.8464 95.3652 17.5585
741 2 15.9014 99.388 17.574
742 2 4.01369 99.4448 17.5793
743 2 7.82754 99.2098 17.321
744 2 12.0661 99.3469 17.3989
745 2 15.836 103.466 17.2014
746 2 3.87964 102.979 17.3572
747 2 7.85118 103.549 17.3033
748 2 12.0105 103.243 17.236
749 2 15.7314 107.115 17.3811
750 2 4.06568 107.099 17.2288
751 2 7.89467 107.262 17.4625
752 2 11.6719 107.159 17.2221
753 2 -0.141787 111.015 17.2418
754 2 3.92421 111.231 17.2411
755 2 7.81115 111.094 17.3541
756 2 11.9367 110.873 17.2904
757 2 -0.0681426 114.996 17.2647
758 2 3.93997 115.026 17.2471
759 2 7.88721 114.998 17.2642
760 2 11.7758 114.906 17.1577
761 2 -0.184291 118.915 17.1552
762 2 3.84675 118.881 17.251
763 2 7.97051 118.676 17.1994
764 2 11.9793 118.822 17.218
765 2 -0.184093 122.905 17.2351
766 2 4.01332 122.771 16.9562
767 2 7.88366 122.655 17.1853
768 2 11.7894 122.788 17.1188
769 2 -0.275852 126.762 16.9386
770 2 4.00097 126.799 17.1245
771 2 7.77648 126.705 16.9487
772 2 11.6835 126.549 16.9744
773 2 -0.0718723 130.644 17.1155
774 2 3.77477 130.644 16.9993
775 2 7.84199 130.671 17.1403
776 2 11.8223 130.55 17.1596
777 2 0.032273 134.445 17.0334
778 2 3.88322 134.548 17.0078
779 2 7.7378 134.385 17.0684
780 2 11.621 134.437 16.8775
781 2 15.7285 138.398 16.9319
782 2 4.01504 138.491 16.7847
783 2 8.1432 138.48 16.9988
784 2 11.8749 138.185 17.0125
785 2 15.8862 142.26 16.8337
786 2 4.17466 142.277 16.8596
787 2 8.0153 142.395 16.8689
788 2 11.8145 142.378 17.0089
789 2 15.8061 146.406 16.6302
790 2 3.86118 146.385 16.7211
791 2 7.79761 146.27 16.9405
792 2 11.7382 146.1 16.5032
793 2 15.7669 150.27 16.6739
794 2 3.89236 150.282 16.7051
795 2 7.77554 150.198 16.7901
796 2 11.8889 150.196 16.8323
797 2 -0.0513067 154.23 16.7089
798 2 4.06064 154.202 16.7015
799 2 7.85424 154.188 16.7286
800 2 11.7345 154.103 16.7971
801 2 0.289552 158.198 20.5899
802 2 4.17155 158.157 20.9132
803 2 8.085 158.115 20.9161
804 2 11.9505 157.955 20.8064
805 2 15.8055 3.6634 20.7451
806 2 4.07545 3.78144 20.7872
807 2 7.90124 3.51684 20.7817
808 2 11.8523 3.65936 20.7132
809 2 -0.172676 7.55261 20.8252
810 2 4.01691 7.75029 20.5773
811 2 7.85302 7.26902 20.695
812 2 11.8318 7.47119 20.7282
813 2 15.7364 11.6606 20.7019
814 2 4.01939 11.6627 20.8994
815 2 7.87756 11.6169 20.6178
816 2 11.8263 11.3971 20.6867
817 2 15.7079 15.1193 20.5978
818 2 4.17236 15.3702 20.4688
819 2 7.96146 15.4453 20.4948
820 2 11.8436 15.4673 20.61
821 2 15.6814 19.2494 20.5316
822 2 3.8825 19.1173 20.4483
823 2 7.84529 19.1503 20.4948
824 2 11.7728 19.3752 20.5565
825 2 15.9543 23.21 20.3436
826 2 4.06701 23.052 20.5817
827 2 7.79317 23.1341 20.281
828 2 11.7621 23.0277 20.3516
829 2 0.102111 27.0284 20.2885
830 2 3.98419 27.0294 20.5548
831 2 7.89932 27.2246 20.4581
832 2 11.8777 26.9174 20.5283
833 2 -0.0910118 30.9764 20.5218
834 2 3.78977 30.911 20.359
835 2 7.80722 31.0279 20.3608
836 2 11.818 30.9679 20.1786
837 2 15.8908 34.8944 20.4795
838 2 4.09867 35.039 20.4623
839 2 7.88569 34.8147 20.3418
840 2 11.7971 34.7933 20.2401
841 2 -0.0540899 38.9185 20.3027
842 2 3.87688 38.7885 20.4222
843 2 8.04573 38.8337 20.2746
844 2 11.7417 38.9315 20.3249
845 2 -0.0237293 43.0554 20.4248
846 2 3.94093 42.9024 20.4476
847 2 7.94422 42.757 20.4229
848 2 11.6238 43.0827 20.335
849 2 0.148286 46.8695 20.4476
850 2 3.98559 47.0188 20.375
851 2 8.03976 47.0178 20.4722
852 2 11.6892 47.1595 20.5052
853 2 -0.00842654 51.073 20.593
854 2 4.02211 51.2384 20.7101
855 2 7.81022 51.2232 20.5079
856 2 11.8067 51.0059 20.5064
857 2 0.00313558 55.0258 20.674
858 2 4.11772 55.0572 20.585
859 2 8.01616 54.9981 20.5662
860 2 11.8724 54.9815 20.6363
861 2 15.9207 59.0854 20.6193
862 2 4.12295 59.0713 20.6064
863 2 7.94524 59.1206 20.7618
864 2 11.831 59.1194 20.741
865 2 15.8592 63.1104 20.8367
866 2 3.9216 63.1059 20.6465
867 2 7.93773 63.2617 20.6903
868 2 11.8833 63.0829 20.6529
869 2 0.238679 67.1957 21.1548
870 2 3.93506 67.0152 20.9049
871 2 7.81505 67.4461 20.5798
872 2 11.8807 67.2392 21.0149
873 2 -0.0879358 71.1668 20.9978
874 2 4.03526 71.1253 21.0511
875 2 7.88291 71.2736 20.8938
876 2 11.964 71.123 20.8638
877 2 0.101217 75.4433 20.9112
878 2 3.90593 75.2942 21.0321
879 2 7.97587 75.1401 21.1289
880 2 11.8772 75.119 21.0176
881 2 -0.172094 79.1262 21.1729
882 2 3.97037 79.2299 21.291
883 2 7.90093 79.3581 21.0625
884 2 11.7563 79.0376 21.3183
885 2 -0.112889 83.3102 21.1491
886 2 4.05407 83.3309 21.069
887 2 7.82067 83.2194 21.0063
888 2 11.76 83.1115 21.2645
889 2 -0.135449 87.1794 21.2054
890 2 3.90869 87.4143 21.4801
891 2 7.99239 87.4464 21.1168
892 2 11.7504 87.3387 21.3171
893 2 -0.122087 91.4667 21.556
894 2 3.85226 91.4004 21.5749
895 2 7.73033 91.421 21.5557
896 2 11.7053 91.3383 21.4262
897 2 15.7275 95.5476 21.5855
898 2 3.86229 95.4534 21.5363
899 2 7.74688 95.5154 21.4238
900 2 11.6647 95.3918 21.31
901 2 -0.182127 99.4421 21.453
902 2 3.79009 99.4705 21.4291
903 2 7.9285 99.2978 21.4205
904 2 11.7186 99.3832 21.3358
905 2 15.7184 103.359 21.3854
906 2 3.90532 103.204 21.4564
907 2 7.8929 103.106 21.5031
908 2 11.7524 103.25 21.5335
909 2 0.089807 107.397 21.0996
910 2 3.74575 107.074 21.3233
911 2 7.80901 107.042 21.3072
912 2 11.8135 107.189 21.2882
913 2 15.8333 111.189 21.2798
914 2 3.86581 111.117 21.2818
915 2 7.80958 111.065 21.4977
916 2 11.8674 111.13 21.3899
917 2 -0.0682187 114.934 21.3996
918 2 4.00668 115.124 21.2971
919 2 7.87314 114.9 21.1719
920 2 11.8261 115.071 21.2329
921 2 0.0492113 118.92 21.3694
922 2 3.98899 118.892 21.0975
923 2 7.93657 118.887 21.2034
924 2 12.0597 118.84 21.1335
925 2 0.00599338 122.834 21.1069
926 2 3.94305 122.801 20.9434
927 2 7.89344 122.892 21.0381
928 2 11.8768 122.588 21.1833
929 2 -0.0110374 126.778 21.1184
930 2 4.10381 126.86 20.9456
931 2 7.95081 126.521 21.2088
932 2 11.8547 126.632 21.0696
933 2 0.0231641 130.74 21.0605
934 2 4.0686 130.668 21.122
935 2 7.90329 130.753 21.1566
936 2 11.7881 130.674 20.9925
937 2 15.8818 134.658 21.0404
938 2 4.06719 134.792 21.0342
939 2 7.88322 134.518 21.1742
940 2 11.9843 134.754 20.9842
941 2 15.8302 138.467 20.8664
942 2 3.90663 138.51 20.8815
943 2 7.82346 138.545 20.9938
944 2 11.8019 138.687 20.9304
945 2 15.9238 142.624 20.983
946 2 3.93876 142.418 20.9776
947 2 7.95961 142.496 20.7717
948 2 11.9438 142.55 20.9398
949 2 -0.0824108 146.317 20.8118
950 2 3.90064 146.196 20.676
951 2 8.18411 146.572 20.7856
952 2 11.9578 146.457 20.7461
953 2 15.7256 150.367 20.8651
954 2 3.93109 150.258 20.852
955 2 7.81289 150.098 20.8001
956 2 11.8953 150.2 20.6213
957 2 -0.238104 154.298 20.5941
958 2 3.83037 153.993 20.8054
959 2 7.87758 154.109 20.9734
960 2 12.0396 154.004 20.4826
961 2 -0.0186518 158.086 24.6985
962 2 3.99635 158.135 24.8971
963 2 7.87682 158.14 24.774
964 2 11.9289 158.126 24.8529
965 2 15.9099 3.63695 24.9507
966 2 3.86384 3.88027 24.8195
967 2 7.84368 3.76823 24.6558
968 2 11.889 3.61518 24.761
969 2 -0.0154091 7.73502 24.7789
970 2 4.11004 7.69264 24.8057
971 2 8.04537 7.53706 24.6032
972 2 11.822 7.58825 24.7375
973 2 0.0766967 11.448 24.6165
974 2 3.9734 11.602 24.7655
975 2 7.95112 11.5158 24.7178
976 2 11.8681 11.4791 24.7507
977 2 0.00954822 15.5145 24.6583
978 2 4.05998 15.4495 24.6629
979 2 8.00636 15.5516 24.7648
980 2 11.8968 15.5566 24.7591
981 2 15.9413 19.4115 24.5199
982 2 3.87456 19.3354 24.5058
983 2 7.891 19.4017 24.5895
984 2 11.8352 19.2515 24.7058
985 2 -0.162595 23.2568 24.5614
986 2 3.7939 23.3486 24.4858
987 2 7.85081 23.3082 24.3265
988 2 11.6651 23.2362 24.4178
989 2 -0.156252 27.0089 24.3951
990 2 3.82443 27.2056 24.5426
991 2 7.92514 27.1526 24.4178