ITEM: TIMESTEP
16900
ITEM: NUMBER OF ATOMS
32000
ITEM: BOX BOUNDS xy xz yz pp pp pp
0.0000000000000000e+00 1.5832000000000001e+01 0.0000000000000000e+00
0.0000000000000000e+00 1.5831999999999999e+02 0.0000000000000000e+00
8.2047634807703673e-01 1.6015664165192126e+02 0.0000000000000000e+00
ITEM: ATOMS id type x y z
1 2 -0.148003 157.755 159.905
2 2 3.78548 157.955 159.808
3 2 7.812 157.684 159.933
4 2 11.7943 157.805 159.74
5 2 15.6649 3.25089 159.704
6 2 3.85552 3.38527 159.926
7 2 8.02084 3.43877 159.959
8 2 11.7617 3.26264 159.917
9 2 0.0899908 7.13142 159.53
10 2 3.69946 7.2178 159.88
11 2 7.88216 7.2602 159.827
12 2 11.8642 7.09252 159.7
13 2 0.0281141 11.1863 159.781
14 2 3.86433 11.0805 159.661
15 2 7.86607 11.142 159.724
16 2 11.84 11.188 159.799
17 2 15.7597 15.1221 159.802
18 2 3.88193 15.2128 159.883
19 2 7.92462 15.091 159.924
20 2 11.7389 15.0966 159.783
21 2 -0.142109 19.1453 159.686
22 2 3.91042 19.0823 159.818
23 2 7.90617 19.0326 159.815
24 2 11.8726 19.1436 159.786
25 2 15.852 23.2414 0.565746
26 2 3.90075 22.9961 159.801
27 2 7.75536 23.1712 159.9
28 2 11.8946 23.1468 159.83
29 2 15.8102 27.0055 159.801
30 2 4.04778 27.1672 160.045
31 2 8.06646 27.0692 159.934
32 2 11.9561 27.1468 160.076
33 2 15.837 31.1666 159.884
34 2 3.9781 31.1625 160.014
35 2 7.72511 31.0894 160.008
36 2 11.9698 31.031 0.605261
37 2 15.8224 35.0795 160.063
38 2 3.96097 35.0848 0.921785
39 2 8.18866 35.1413 160.139
40 2 11.7842 35.3681 0.780913
41 2 0.0861786 39.1959 160.184
42 2 4.14123 39.2449 0.974216
43 2 7.86841 39.206 0.802287
44 2 11.6242 39.2617 160.211
45 2 -0.297088 43.3532 0.903576
46 2 4.0217 43.2379 0.814422
47 2 7.68344 43.3388 0.917922
48 2 11.796 43.3217 1.05048
49 2 15.7647 47.1551 0.862887
50 2 3.91431 47.2794 1.00723
51 2 7.94842 47.382 0.88507
52 2 11.8712 47.4017 0.927444
53 2 -0.0109562 51.2448 0.999024
54 2 4.0438 51.519 1.02249
55 2 7.87368 51.2524 1.14705
56 2 11.8513 51.3105 160.085
57 2 0.0291651 55.4199 1.00045
58 2 3.9955 55.5269 0.968872
59 2 7.91328 55.4525 1.02896
60 2 12.0556 55.4255 1.01445
61 2 0.00649984 59.4021 1.06735
62 2 3.80066 59.5174 1.05835
63 2 7.77934 59.4743 0.944731
64 2 11.8361 59.3964 0.970917
65 2 0.0827105 63.5899 1.06124
66 2 3.9253 63.4234 0.994221
67 2 7.95788 63.3255 1.3383
68 2 11.8146 63.6015 1.14988
69 2 0.175603 67.4442 1.35661
70 2 4.13969 67.4872 1.06627
71 2 7.96012 67.4574 1.377
72 2 11.8502 67.4097 1.2617
73 2 15.9268 71.5779 1.40929
74 2 3.9174 71.5201 1.36053
75 2 7.94185 71.4056 1.34275
76 2 11.9051 71.5101 1.44568
77 2 0.0478081 75.6326 1.47287
78 2 4.13071 75.6216 1.42795
79 2 7.80264 75.5136 1.32956
80 2 11.6615 75.5537 1.24864
81 2 -0.299154 79.5991 1.64268
82 2 3.81388 79.5164 1.61887
83 2 8.05188 79.7593 1.50391
84 2 11.8 79.8243 1.53206
85 2 -0.101876 83.6121 1.5785
86 2 3.74343 83.4311 1.5054
87 2 7.62074 83.5702 1.70716
88 2 11.6741 83.5857 1.5877
89 2 -0.0859165 87.58 1.37046
90 2 4.00906 87.5418 1.4109
91 2 7.72327 87.3353 1.35735
92 2 11.8291 87.4573 1.46896
93 2 -0.0484976 91.3012 1.24272
94 2 4.03832 91.4467 1.26834
95 2 7.92837 91.2865 1.47782
96 2 11.9414 91.3907 1.29313
97 2 -0.235291 95.2134 1.21568
98 2 3.85261 95.2516 1.40192
99 2 7.80638 95.3996 1.31425
100 2 11.8769 95.4114 1.20982
101 2 -0.163151 99.2866 1.34152
102 2 3.54699 99.1848 1.24809
103 2 7.91663 99.4387 1.1396
104 2 11.8081 99.3398 1.25738
105 2 15.6554 103.135 1.25635
106 2 3.87917 103.206 1.31602
107 2 8.00371 103.092 1.1146
108 2 11.7888 103.122 1.24982
109 2 15.8251 106.885 0.978099
110 2 3.89461 106.985 1.17939
111 2 7.80033 106.97 1.1488
112 2 11.7558 107.061 1.00731
113 2 -0.0606395 110.853 1.23643
114 2 3.86284 110.97 1.31175
115 2 7.72201 110.97 1.06388
116 2 11.8127 110.838 1.02639
117 2 -0.162494 114.855 1.20674
118 2 3.8997 114.808 1.08925
119 2 7.89592 114.841 1.242
120 2 11.6857 115.03 1.01535
121 2 15.8514 118.679 1.03274
122 2 4.14466 118.72 0.950847
123 2 7.93887 118.679 1.10991
124 2 11.9268 118.805 160.437
125 2 -0.0432603 122.751 1.21143
126 2 4.04916 122.588 1.04862
127 2 7.82968 122.718 1.0226
128 2 11.7667 122.661 0.885583
129 2 -0.00707524 126.343 160.441
130 2 3.93553 126.518 160.284
131 2 7.83016 126.582 0.879909
132 2 11.8363 126.423 1.02397
133 2 -0.1051 130.489 160.34
134 2 3.69403 130.62 160.2
135 2 7.67405 130.42 0.935944
136 2 11.7567 130.391 160.47
137 2 -0.135036 134.294 160.299
138 2 4.01036 134.531 160.082
139 2 7.94244 134.412 0.893876
140 2 11.8172 134.338 160.294
141 2 -0.178227 138.339 160.152
142 2 3.94829 138.309 160.202
143 2 7.99578 138.163 160.228
144 2 11.7078 138.334 0.796104
145 2 15.6528 142.192 160.113
146 2 3.9366 142.055 160.163
147 2 7.83051 142.254 159.968
148 2 11.7496 142.203 160.181
149 2 0.0898585 146.202 160.115
150 2 4.06328 146.014 160.026
151 2 7.83525 146.103 159.978
152 2 11.9095 146.146 160.184
153 2 15.8226 150.005 160.056
154 2 3.69811 150.108 160.127
155 2 8.02192 150.061 160.034
156 2 11.9199 150.042 159.99
157 2 15.761 153.954 159.783
158 2 3.88824 153.926 159.982
159 2 7.79688 153.916 160.053
160 2 11.6408 154.024 159.843
161 2 15.8825 157.974 4.48877
162 2 4.09067 157.908 4.52288
163 2 7.80307 157.881 4.64551
164 2 11.9038 157.936 4.60455
165 2 15.8042 3.40793 4.67905
166 2 3.87289 3.25928 4.50024
167 2 7.98331 3.43748 4.59307
168 2 12.0559 3.64924 4.16458
169 2 15.8299 7.32302 4.53304
170 2 3.90797 7.12073 4.48815
171 2 7.8152 7.3077 4.60224
172 2 11.8198 7.45024 4.40904
173 2 15.8398 11.1289 4.51164
174 2 3.95773 11.1007 4.31827
175 2 7.69602 11.398 4.45798
176 2 11.7022 11.0041 4.34954
177 2 15.8837 15.2406 4.44527
178 2 3.88012 15.1491 4.50052
179 2 7.93912 15.2772 4.43512
180 2 11.9085 15.1255 4.40095
181 2 -0.105405 19.2494 4.48449
182 2 3.939 19.1243 4.52754
183 2 7.9567 19.0533 4.28496
184 2 11.8474 18.9983 4.40237
185 2 15.9142 23.0075 4.60344
186 2 4.15881 23.0642 4.42859
187 2 8.10482 23.2366 4.36535
188 2 11.9853 23.1395 4.33105
189 2 15.9646 26.9158 4.49971
190 2 4.13261 27.1223 4.50194
191 2 7.84903 27.0863 4.54996
192 2 12.0889 27.2398 4.43669
193 2 15.8307 31.2317 4.44173
194 2 4.0147 31.011 4.56869
195 2 7.96258 31.0091 4.5063
196 2 11.9754 31.0347 4.55818
197 2 0.0512844 35.1802 4.64729
198 2 4.09538 34.9553 4.66881
199 2 7.97746 35.0436 4.57813
200 2 11.981 35.2458 4.71476
201 2 0.0541829 39.2223 4.57733
202 2 3.85391 39.0357 4.82245
203 2 7.79245 39.1447 4.79683
204 2 11.7437 39.4757 4.87946
205 2 -0.097795 43.2535 4.70248
206 2 3.92821 43.0938 4.69911
207 2 7.8746 43.1808 4.9231
208 2 11.8322 43.4733 4.97007
209 2 15.9297 47.4192 4.92049
210 2 3.9506 47.1603 4.71375
211 2 7.98309 47.2219 4.82509
212 2 11.8948 47.3852 4.87362
213 2 -0.105642 51.3779 4.75103
214 2 3.79285 51.4334 4.86096
215 2 7.94066 51.3098 4.84647
216 2 11.6087 51.4905 5.00884
217 2 -0.154728 55.2506 4.95222
218 2 3.80647 55.3356 4.85578
219 2 7.74671 55.4633 4.86806
220 2 11.7147 55.264 4.78405
221 2 -0.1351 59.3946 4.91183
222 2 3.94358 59.3894 4.93016
223 2 7.91128 59.4756 5.10169
224 2 11.8508 59.3585 4.98841
225 2 -0.0919603 63.3772 5.04684
226 2 4.03236 63.3698 5.18408
227 2 8.00231 63.2991 5.23645
228 2 11.9618 63.3613 5.04703
229 2 0.0111942 67.3655 5.12569
230 2 4.10033 67.3471 5.12967
231 2 7.80878 67.6563 5.22014
232 2 11.8284 67.3685 5.38077
233 2 4.20033e-05 71.4491 5.34996
234 2 4.023 71.3608 5.27818
235 2 8.00798 71.4256 5.24734
236 2 11.8879 71.3427 5.16442
237 2 0.0865391 75.4285 5.49609
238 2 3.93658 75.3783 5.31189
239 2 7.89764 75.4509 5.27389
240 2 11.8155 75.4831 5.39805
241 2 -0.178379 79.3908 5.22823
242 2 3.79775 79.4372 5.48985
243 2 7.87802 79.6595 5.41165
244 2 11.8947 79.5102 5.46754
245 2 15.624 83.6082 5.56039
246 2 3.72943 83.4629 5.51258
247 2 7.62234 83.4568 5.66287
248 2 11.8851 83.569 5.59285
249 2 0.0698767 87.4446 5.36119
250 2 3.75145 87.6367 5.36581
251 2 7.87025 87.5781 5.57839
252 2 11.6402 87.4389 5.47442
253 2 -0.0272853 91.2743 5.32523
254 2 3.93417 91.388 5.4642
255 2 7.89879 91.3855 5.44662
256 2 11.599 91.1713 5.19449
257 2 -0.201116 95.0411 5.2558
258 2 3.84393 95.3601 5.28247
259 2 7.98426 95.1479 5.32999
260 2 11.7699 95.4216 5.3408
261 2 -0.0772477 99.2177 5.28018
262 2 3.70219 99.3237 5.36499
263 2 7.7757 99.2911 5.02314
264 2 11.7798 99.1868 5.23779
265 2 15.405 103.214 5.17395
266 2 3.86326 103.087 5.37991
267 2 7.71704 103.256 5.04571
268 2 11.6645 103.215 5.39616
269 2 -0.164423 106.912 5.224
270 2 3.88082 106.925 5.18315
271 2 7.77899 106.935 5.13768
272 2 11.8029 106.994 5.1397
273 2 -0.120175 110.947 5.27182
274 2 3.8551 110.876 5.21355
275 2 7.9389 110.854 5.12235
276 2 11.8263 110.972 5.24222
277 2 15.7702 114.94 5.11976
278 2 3.90151 114.926 5.15002
279 2 7.93902 114.787 5.14345
280 2 11.9571 114.913 5.25447
281 2 15.9348 118.711 5.16619
282 2 3.72124 118.84 5.02664
283 2 8.01267 118.721 5.23161
284 2 11.8843 118.682 5.16758
285 2 15.8803 122.579 4.981
286 2 4.04734 122.67 5.03364
287 2 8.07798 122.497 5.15126
288 2 12.0008 122.444 5.05857
289 2 0.00291818 126.725 4.89598
290 2 3.93085 126.78 4.91048
291 2 7.73978 126.612 5.13168
292 2 11.8086 126.454 4.89448
293 2 0.00833248 130.4 4.70787
294 2 4.01161 130.499 4.85669
295 2 7.95679 130.511 5.04675
296 2 11.8674 130.362 4.88562
297 2 -0.136416 134.502 4.95588
298 2 3.94398 134.361 4.95183
299 2 7.8203 134.494 4.84164
300 2 11.6781 134.285 4.94086
301 2 15.7211 138.304 4.91114
302 2 3.79659 138.276 4.77827
303 2 7.77963 138.441 4.98694
304 2 11.8067 138.436 4.83237
305 2 -0.174324 142.226 4.92058
306 2 3.84879 142.085 4.8363
307 2 7.83658 142.144 4.65043
308 2 11.7033 142.152 4.982
309 2 15.9159 146.044 4.77955
310 2 3.99289 146.073 4.80112
311 2 8.00538 146.243 4.71975
312 2 11.7568 146.039 4.65404
313 2 0.0478585 150.082 4.79148
314 2 3.99372 150.102 4.75709
315 2 7.94577 150.123 4.74191
316 2 11.8687 150.051 4.70438
317 2 15.7119 154.126 4.58748
318 2 4.07242 153.924 4.50044
319 2 8.10963 153.979 4.68853
320 2 11.9266 153.873 4.46225
321 2 15.8 157.766 8.57823
322 2 3.90507 158.024 8.6564
323 2 8.11628 157.98 8.54261
324 2 11.6793 157.997 8.66102
325 2 15.6785 3.50303 8.63546
326 2 3.72424 3.53954 8.72201
327 2 8.01258 3.45557 8.41899
328 2 11.7481 3.52947 8.67551
329 2 0.0972321 7.1754 8.53763
330 2 3.94264 7.48853 8.5379
331 2 7.83779 7.47512 8.60999
332 2 11.7584 7.5648 8.62673
333 2 15.8497 11.3055 8.38597
334 2 4.02093 11.3035 8.46603
335 2 7.82948 11.2246 8.56174
336 2 12.0004 11.3709 8.35027
337 2 -0.0929416 15.167 8.41704
338 2 3.70804 15.2775 8.34402
339 2 7.86922 15.1832 8.35873
340 2 12.0715 15.057 8.28609
341 2 0.199743 19.065 8.56592
342 2 4.19588 19.1064 8.562
343 2 8.03587 19.2835 8.2888
344 2 11.871 18.891 8.49743
345 2 0.0548994 22.9018 8.4746
346 2 3.92706 23.027 8.54858
347 2 8.11566 23.1241 8.29538
348 2 12.0456 22.9318 8.23053
349 2 16.0295 26.8526 8.41372
350 2 4.10387 26.9624 8.38435
351 2 8.23129 26.973 8.40512
352 2 12.2152 26.9867 8.28204
353 2 15.988 30.9823 8.49436
354 2 4.05089 30.9302 8.28376
355 2 8.02716 30.9929 8.63239
356 2 11.9638 31.0135 8.35368
357 2 15.8884 35.0295 8.51147
358 2 3.86978 35.0193 8.45598
359 2 7.88885 35.0172 8.50809
360 2 11.8719 34.9835 8.78507
361 2 15.5381 39.1125 8.62748
362 2 3.95997 39.0634 8.59563
363 2 8.05363 39.2013 8.81957
364 2 11.7306 39.0216 8.609
365 2 15.7562 43.277 8.63996
366 2 3.81571 43.2042 8.75382
367 2 7.72745 43.1043 8.84603
368 2 11.6815 43.0966 8.9347
369 2 -0.00138941 47.2281 8.66198
370 2 3.89556 47.2397 8.41831
371 2 7.7479 47.3277 8.73397
372 2 11.7056 47.1421 8.8207
373 2 0.0297814 51.1167 8.67621
374 2 3.89596 51.4042 8.84934
375 2 7.94438 51.2266 8.77214
376 2 11.846 51.0917 8.84778
377 2 -0.00259463 55.1374 8.73506
378 2 3.85455 55.1723 8.89979
379 2 7.80687 55.321 8.59115
380 2 11.825 55.1853 8.81529
381 2 15.8723 59.3964 8.88184
382 2 3.81822 59.2777 9.0415
383 2 7.81122 59.227 9.02607
384 2 11.8888 59.2806 8.87015
385 2 -0.0641643 63.3027 8.90169
386 2 4.03311 63.3559 8.92173
387 2 8.00063 63.1255 9.05871
388 2 11.8198 63.3492 8.98721
389 2 -0.075086 67.2765 9.01878
390 2 3.94042 67.1326 9.30429
391 2 7.79109 67.3246 9.06144
392 2 11.6101 67.1595 9.11384
393 2 -0.107499 71.3078 9.3736
394 2 3.88003 71.2968 9.18825
395 2 7.78069 71.2737 9.23349
396 2 11.6564 71.4229 9.06352
397 2 -0.100211 75.2948 9.13549
398 2 3.96413 75.4126 9.63402
399 2 7.95665 75.544 9.25339
400 2 11.8788 75.4163 9.39456
401 2 -0.127733 79.4767 9.44116
402 2 3.84813 79.2715 9.44221
403 2 7.82485 79.5297 9.52978
404 2 11.5956 79.6018 9.30817
405 2 -0.241148 83.3424 9.56844
406 2 3.84316 83.4923 9.5819
407 2 7.76366 83.5453 9.5536
408 2 11.7611 83.485 9.40568
409 2 -0.0354403 87.5619 9.44292
410 2 3.7305 87.479 9.44251
411 2 7.69634 87.3684 9.16817
412 2 11.6962 87.4411 9.37363
413 2 -0.0516263 91.4023 9.43332
414 2 4.00324 91.3197 9.47978
415 2 7.99237 91.4872 9.4784
416 2 11.8441 91.4314 9.43866
417 2 0.0232841 95.1672 9.3663
418 2 4.00937 95.4521 9.3778
419 2 7.85439 95.356 9.56297
420 2 11.9906 95.1313 9.34711
421 2 15.8219 99.0645 9.38393
422 2 4.00876 99.2636 9.21783
423 2 7.80163 99.0162 9.28377
424 2 11.6963 99.1763 9.19887
425 2 -0.0394469 103.031 9.3782
426 2 3.71472 103.167 9.46474
427 2 7.88689 103.129 9.04778
428 2 11.7229 103.073 9.29729
429 2 15.6613 107.044 9.18671
430 2 3.86596 107.077 9.19104
431 2 7.66908 107.061 9.45257
432 2 11.6821 106.745 9.26697
433 2 -0.136943 110.858 9.09069
434 2 3.7983 110.838 9.10027
435 2 7.84805 111.237 9.11095
436 2 11.8309 110.992 9.2206
437 2 0.015619 114.7 9.16022
438 2 4.01909 114.92 9.07515
439 2 7.93077 114.986 9.23654
440 2 11.8887 114.946 9.08953
441 2 0.0460222 118.917 9.23332
442 2 3.89267 118.817 9.10418
443 2 7.94928 118.675 9.33106
444 2 11.861 118.815 9.18638
445 2 15.8833 122.713 8.90646
446 2 3.88251 122.776 8.932
447 2 7.92375 122.617 9.07441
448 2 11.8395 122.826 8.96848
449 2 -0.133465 126.742 8.97158
450 2 3.72431 126.597 8.91481
451 2 7.86422 126.713 9.09348
452 2 11.913 126.501 8.98176
453 2 0.113614 130.512 8.91314
454 2 3.9648 130.539 9.07
455 2 7.96569 130.48 8.90875
456 2 11.7853 130.427 8.98723
457 2 -0.271086 134.341 8.78045
458 2 3.80541 134.242 8.86111
459 2 7.86415 134.481 8.99111
460 2 11.6745 134.347 8.83389
461 2 0.064051 138.29 8.90626
462 2 3.97415 138.239 8.97078
463 2 7.8126 138.236 8.99249
464 2 11.8311 138.399 9.05414
465 2 0.0461915 142.366 8.94014
466 2 3.88591 142.259 8.98669
467 2 7.74618 142.307 8.83185
468 2 11.5502 142.432 8.82123
469 2 15.5395 146.045 8.63009
470 2 3.68388 146.028 8.8208
471 2 7.6759 146.052 8.66391
472 2 11.831 146.092 8.71818
473 2 15.6898 149.897 8.64634
474 2 3.74354 150.173 8.87509
475 2 7.71209 149.992 8.85689
476 2 11.6255 149.96 8.77871
477 2 16.0225 153.882 8.4895
478 2 4.05111 154.086 8.65054
479 2 7.95183 154.049 8.52046
480 2 11.8515 154 8.61435
481 2 15.9041 157.85 12.582
482 2 4.03988 158.062 12.6195
483 2 8.10106 158.102 12.7303
484 2 12.0266 157.967 12.643
485 2 15.898 3.57983 12.6197
486 2 3.96358 3.54056 12.7469
487 2 7.83127 3.62276 12.5941
488 2 11.8809 3.6213 12.554
489 2 0.0047378 7.59736 12.4467
490 2 3.87324 7.55224 12.53
491 2 7.96565 7.25095 12.6862
492 2 11.812 7.53358 12.7086
493 2 15.6474 11.3293 12.562
494 2 3.86557 11.4422 12.498
495 2 7.90453 11.2038 12.6316
496 2 11.7654 11.4759 12.5594
497 2 0.122175 15.1225 12.3401
498 2 4.14298 15.3327 12.4625
499 2 7.87324 15.2043 12.4343
500 2 11.9245 15.362 12.4288
501 2 15.9411 19.0343 12.4354
502 2 4.19471 19.0845 12.2333
503 2 8.27851 19.3684 12.2449
504 2 11.9543 19.0121 12.5855
505 2 15.8714 23.0118 12.5213
506 2 4.12134 23.0082 12.3708
507 2 8.12085 23.1158 12.2342
508 2 12.0346 23.0552 12.4209
509 2 15.8556 26.9407 12.4821
510 2 4.09557 27.0064 12.4056
511 2 8.0959 26.9345 12.316
512 2 11.9442 26.9924 12.2448
513 2 0.0376937 30.9305 12.318
514 2 3.96944 30.8689 12.4032
515 2 7.96694 30.8427 12.5515
516 2 11.9641 31.0267 12.3317
517 2 15.7674 35.0219 12.6478
518 2 4.12695 34.9476 12.4202
519 2 7.98039 34.8862 12.5094
520 2 12.0662 34.92 12.5278
521 2 15.7808 38.9581 12.5748
522 2 3.99211 38.9626 12.5718
523 2 7.80723 38.911 12.5229
524 2 11.8468 39.0414 12.7315
525 2 15.8739 43.0371 12.51
526 2 3.82405 43.0031 12.5106
527 2 7.90796 43.0061 12.6754
528 2 11.8838 43.0775 12.5429
529 2 15.8144 47.1696 12.527
530 2 3.9561 47.0638 12.63
531 2 7.77534 47.1726 12.7032
532 2 11.7229 47.0133 12.6555
533 2 -0.0460663 51.2269 12.6195
534 2 3.78827 51.1334 12.5332
535 2 7.78052 51.3489 12.7782
536 2 11.8502 51.1241 12.509
537 2 -0.0334938 55.1435 12.7006
538 2 3.92719 55.1692 12.9529
539 2 7.95587 55.1131 12.6751
540 2 12.0133 55.2796 12.5713
541 2 -0.101835 59.3441 12.6824
542 2 3.90952 59.1415 12.8486
543 2 7.98198 59.0623 12.7933
544 2 11.8063 59.2392 12.744
545 2 -0.11575 63.2851 12.7821
546 2 3.94599 63.0153 12.8855
547 2 7.90456 63.2401 12.9418
548 2 11.8841 63.2446 13.0117
549 2 0.0401237 67.2583 12.8777
550 2 3.99576 67.3498 13.1185
551 2 7.92761 67.2931 12.9928
552 2 11.8885 67.382 12.8574
553 2 -0.0107544 71.1566 13.0469
554 2 4.09939 71.2964 13.1842
555 2 8.0445 71.3192 13.1138
556 2 11.9638 71.1754 13.064
557 2 0.0374404 75.3817 13.328
558 2 4.07832 75.3761 13.277
559 2 7.79194 75.4705 13.3352
560 2 11.8517 75.4806 13.2585
561 2 -0.0782841 79.3796 13.3512
562 2 3.73283 79.522 13.2585
563 2 8.02238 79.311 13.2385
564 2 11.8313 79.3536 13.3087
565 2 -0.12198 83.3818 13.4521
566 2 3.88377 83.4441 13.5321
567 2 7.93737 83.4724 13.5261
568 2 11.8663 83.3531 13.4313
569 2 -0.177403 87.3942 13.3631
570 2 3.72613 87.4142 13.2357
571 2 7.84174 87.4065 13.375
572 2 11.8616 87.3487 13.3364
573 2 -0.0526137 91.2504 13.5064
574 2 4.02258 91.3632 13.4903
575 2 7.84734 91.4323 13.5984
576 2 11.7447 91.2321 13.4711
577 2 0.0600352 95.2789 13.3636
578 2 4.07965 95.3785 13.395
579 2 8.04462 95.4011 13.3408
580 2 11.8255 95.3518 13.493
581 2 -0.12091 99.3762 13.3955
582 2 3.77682 99.272 13.4877
583 2 7.95202 99.1426 13.4292
584 2 11.9705 99.142 13.51
585 2 0.0418328 103.175 13.3019
586 2 3.90896 103.21 13.4519
587 2 7.78862 103.144 13.411
588 2 11.9227 102.916 13.3172
589 2 15.7573 107.17 13.3856
590 2 3.81585 107.073 13.4241
591 2 7.86323 107.142 13.3641
592 2 11.6763 107.101 13.0491
593 2 -0.207508 110.824 13.2005
594 2 3.79314 111.17 13.1159
595 2 7.78811 110.911 13.0968
596 2 11.8941 111.106 13.1532
597 2 15.9529 114.608 13.0207
598 2 3.87439 114.871 13.0535
599 2 8.02391 114.767 13.0243
600 2 12.0577 114.959 13.155
601 2 15.9966 118.897 13.1499
602 2 3.98322 118.852 13.1443
603 2 8.0079 118.795 12.9736
604 2 11.8154 118.756 13.1846
605 2 -0.0928511 122.567 13.1984
606 2 4.07315 122.587 12.8569
607 2 7.84907 122.662 12.9899
608 2 11.945 122.787 13.1824
609 2 15.829 126.63 13.0883
610 2 4.12264 126.458 13.0522
611 2 7.96506 126.557 13.0996
612 2 11.8384 126.76 12.8935
613 2 15.716 130.703 12.9836
614 2 3.94708 130.532 12.9896
615 2 7.76641 130.419 13.0147
616 2 11.8927 130.58 12.9705
617 2 -0.0970131 134.465 12.9081
618 2 3.83426 134.468 13.0633
619 2 7.70939 134.508 12.8384
620 2 11.8614 134.535 12.9723
621 2 -0.0816313 138.308 13.0353
622 2 3.99705 138.402 13.039
623 2 7.86886 138.295 12.8795
624 2 11.9468 138.362 12.9544
625 2 15.8465 142.198 12.9188
626 2 3.98454 142.363 12.9066
627 2 7.93995 142.293 12.9964
628 2 11.987 142.152 12.926
629 2 -0.0122045 146.22 12.8923
630 2 3.97948 146.258 12.9567
631 2 7.86851 146.186 12.7298
632 2 11.7826 146.194 12.9246
633 2 15.4962 150.201 12.62
634 2 3.9788 150.207 12.8362
635 2 7.86747 150.172 12.8015
636 2 11.9385 150.016 12.8224
637 2 15.8184 154.113 12.6914
638 2 4.0687 154.316 12.6387
639 2 7.90841 154.048 12.9454
640 2 12.0045 153.96 12.8243
641 2 15.9446 158.076 16.8915
642 2 3.97668 158.108 16.6869
643 2 8.00978 158.005 16.6904
644 2 11.9564 157.966 16.5971
645 2 15.8755 3.55997 16.634
646 2 4.00034 3.79717 16.6788
647 2 8.05247 3.66978 16.8409
648 2 12.0456 3.4743 16.7574
649 2 -0.139405 7.41234 16.7142
650 2 4.13001 7.36199 16.712
651 2 8.09273 7.56601 16.6502
652 2 11.9942 7.48681 16.7432
653 2 15.8876 11.4206 16.7013
654 2 4.11767 11.267 16.7642
655 2 7.80807 11.4527 16.6663
656 2 11.9566 11.2031 16.6072
657 2 0.0914853 15.4554 16.4328
658 2 4.08755 15.1989 16.5401
659 2 8.0242 15.3644 16.5332
660 2 11.9958 15.3233 16.6353
661 2 15.8239 19.1265 16.5167
662 2 3.95919 19.1764 16.327
663 2 7.77604 19.3073 16.4229
664 2 11.8299 19.3956 16.5213
665 2 15.9704 23.0196 16.3371
666 2 3.8975 23.0646 16.5247
667 2 7.8953 23.3221 16.4283
668 2 11.7884 23.0614 16.5733
669 2 0.0826628 26.943 16.2429
670 2 3.88352 27.1716 16.3759
671 2 7.91229 27.0785 16.2743
672 2 11.7945 26.9745 16.3766
673 2 15.7628 30.9159 16.316
674 2 4.10411 30.9751 16.4015
675 2 7.76461 31.002 16.3722
676 2 11.7766 30.8377 16.2865
677 2 16.1334 34.994 16.3827
678 2 4.20555 34.8811 16.4281
679 2 7.97998 34.9074 16.5808
680 2 11.7535 35.0154 16.2389
681 2 0.0541629 39.1862 16.569
682 2 3.9491 38.999 16.5234
683 2 7.8514 38.965 16.3182
684 2 11.8623 39.0888 16.4604
685 2 15.8467 42.9255 16.6251
686 2 3.78283 43.1111 16.5447
687 2 7.62318 43.1155 16.4772
688 2 11.9497 43.1631 16.4737
689 2 -0.221234 47.0597 16.4333
690 2 3.72273 47.0008 16.5045
691 2 8.10991 47.0366 16.6027
692 2 11.8698 47.0844 16.4114
693 2 15.8511 51.0668 16.5439
694 2 3.94249 51.2011 16.6249
695 2 7.81647 51.1203 16.6115
696 2 11.7907 50.9226 16.5798
697 2 0.0842654 55.0148 16.7193
698 2 3.85381 55.2084 16.692
699 2 8.03985 55.1496 16.5119
700 2 12.0321 55.0813 16.5793
701 2 0.0312124 59.0545 16.6742
702 2 3.9143 59.253 16.7502
703 2 7.87482 59.18 16.7759
704 2 11.9456 59.2246 16.5842
705 2 0.017938 63.3668 16.6799
706 2 3.98438 63.1902 16.7133
707 2 7.82275 63.2436 16.8527
708 2 12.1252 63.2068 17.0581
709 2 0.158253 67.1399 16.8462
710 2 4.02473 67.159 16.8457
711 2 8.07924 67.3064 16.9735
712 2 11.8393 67.1579 17.0744
713 2 -0.0161898 71.2145 17.0572
714 2 3.91344 71.107 16.9021
715 2 7.96097 71.3911 17.1091
716 2 11.8581 71.2541 16.9525
717 2 0.148576 75.1848 16.9888
718 2 3.95537 75.2964 16.9152
719 2 7.89827 75.3677 17.1153
720 2 11.6982 75.1877 17.0284
721 2 0.0755623 79.2432 17.3363
722 2 4.00148 79.2776 17.1986
723 2 7.95364 79.1962 17.1838
724 2 12.0531 79.292 17.2706
725 2 0.0214283 83.375 17.2555
726 2 3.92256 83.3124 17.1577
727 2 7.87165 83.3993 17.316
728 2 11.9276 83.3204 17.0873
729 2 0.0676391 87.5668 17.5074
730 2 3.93099 87.4301 17.3498
731 2 7.92716 87.3831 17.2627
732 2 11.8091 87.5163 17.49
733 2 0.148429 91.5351 17.5833
734 2 3.92016 91.3532 17.4052
735 2 7.78953 91.3821 17.4941
736 2 11.8612 91.3191 17.4292
737 2 -0.0966194 95.3616 17.6504
738 2 3.88748 95.4412 17.3467
739 2 7.81198 95.4734 17.3359
740 2 11.9784 95.2789 17.3957
741 2 15.8155 99.3473 17.2869
742 2 3.85829 99.1346 17.4702
743 2 7.98826 99.3413 17.6205
744 2 11.6154 99.2189 17.4126
745 2 15.7615 103.249 17.4443
746 2 3.87806 103.279 17.3577
747 2 7.99924 102.87 17.3575
748 2 11.8813 103.364 17.377
749 2 15.8039 107.225 17.3843
750 2 3.79266 107.147 17.5752
751 2 7.87601 107.018 17.3086
752 2 11.7755 107.251 17.3783
753 2 0.0639866 110.868 17.2846
754 2 3.9125 111.151 17.1947
755 2 7.77843 110.911 17.2566
756 2 11.7603 111.289 17.1185
757 2 -0.180962 114.765 17.1661
758 2 3.77198 115.015 17.2572
759 2 7.75444 114.846 17.1567
760 2 11.8095 114.892 17.2609
761 2 0.151899 118.894 16.9837
762 2 3.99727 118.816 17.0009
763 2 8.11075 118.849 17.1323
764 2 11.8943 118.825 17.2258
765 2 0.124868 122.789 17.0261
766 2 3.93919 122.752 17.2126
767 2 7.92107 122.737 17.1569
768 2 11.9322 122.624 17.2621
769 2 0.0910564 126.775 17.2549
770 2 3.75734 126.532 17.0434
771 2 8.00334 126.564 17.0619
772 2 11.8997 126.701 17.1427
773 2 -0.0321967 130.6 16.9365
774 2 4.10353 130.427 16.9627
775 2 7.88634 130.399 16.9306
776 2 11.7289 130.687 16.9694
777 2 -0.19526 134.443 16.9685
778 2 3.95977 134.501 16.9965
779 2 8.02395 134.437 16.8423
780 2 11.9038 134.556 17.1123
781 2 15.7866 138.452 17.0647
782 2 4.10002 138.359 17.0167
783 2 7.8132 138.283 16.9597
784 2 11.8208 138.558 16.9669
785 2 15.8785 142.47 16.8881
786 2 4.0706 142.435 16.7218
787 2 8.02593 142.346 16.9297
788 2 12.0002 142.404 16.7503
789 2 15.8767 146.185 16.9844
790 2 4.04507 146.366 16.8479
791 2 7.87241 146.232 16.6429
792 2 11.9397 146.366 16.8482
793 2 15.7585 150.122 16.9224
794 2 3.74128 150.3 16.8655
795 2 8.01342 150.253 16.8642
796 2 11.7393 150.164 16.7486
797 2 0.0434533 154.153 16.6944
798 2 4.00228 154.069 16.7879
799 2 7.96164 154.286 16.7726
800 2 11.98 154.157 16.6626
801 2 0.142856 158.051 20.8624
802 2 4.06589 158.175 20.7229
803 2 8.0126 158.008 20.7136
804 2 11.9437 158.132 20.7646
805 2 15.9435 3.72546 20.8447
806 2 4.03335 3.65418 20.8043
807 2 8.05413 3.76592 20.7273
808 2 11.9204 3.61051 20.7431
809 2 0.201858 7.5495 20.7332
810 2 3.94882 7.3922 20.8804
811 2 7.98534 7.79413 20.654
812 2 11.8477 7.65233 20.7222
813 2 16.0811 11.3324 20.7097
814 2 4.05986 11.2775 20.488
815 2 8.09365 11.5437 20.6507
816 2 12.1308 11.459 20.7453
817 2 15.974 15.6496 20.5831
818 2 3.96441 15.3176 20.5868
819 2 7.94351 15.4119 20.7306
820 2 11.9094 15.4326 20.5475
821 2 15.9141 19.3871 20.5546
822 2 3.87475 19.3254 20.6662
823 2 7.91238 19.3594 20.5823
824 2 11.9436 19.3093 20.5555
825 2 15.8881 23.2144 20.5291
826 2 3.94537 23.136 20.3043
827 2 7.88293 23.3439 20.5893
828 2 11.8746 23.306 20.4989
829 2 -0.00416615 27.1289 20.458
830 2 3.97822 27.2311 20.399
831 2 7.99036 27.1254 20.476
832 2 11.967 27.2905 20.4929
833 2 0.0314608 31.1245 20.2328
834 2 3.91372 31.0232 20.1794
835 2 8.15884 31.0336 20.4118
836 2 12.0401 30.7909 20.2889
837 2 15.562 34.9634 20.1377
838 2 3.87032 34.8046 20.2925
839 2 8.03274 34.9007 20.3059
840 2 11.9859 35.0346 20.1393
841 2 0.056178 38.9384 20.4141
842 2 4.05519 39.0358 20.3335
843 2 7.92379 38.9695 20.5361
844 2 12.0693 38.9624 20.3839
845 2 -0.12814 42.8382 20.5969
846 2 4.01952 43.1702 20.5201
847 2 7.84761 43.0287 20.3989
848 2 11.8557 42.9515 20.6013
849 2 -0.149691 47.0183 20.4049
850 2 3.7854 47.0557 20.4723
851 2 7.88813 46.8743 20.4845
852 2 11.9881 46.7315 20.6173
853 2 0.00942263 50.8681 20.5513
854 2 4.07839 50.9155 20.4178
855 2 7.88256 51.0424 20.5107
856 2 11.943 51.0154 20.354
857 2 -0.0387722 55.1049 20.5604
858 2 3.90539 55.184 20.8766
859 2 7.94198 55.1118 20.5624
860 2 11.8639 55.068 20.5139
861 2 15.7017 59.0592 20.7047
862 2 4.02713 59.0441 20.6749
863 2 7.91396 59.0492 20.5334
864 2 11.8434 59.0226 20.582
865 2 15.8695 63.0507 20.6693
866 2 3.83384 63.0757 20.6906
867 2 7.81418 63.0313 20.6481
868 2 11.8959 63.1729 20.7473
869 2 0.0184738 67.0492 20.8333
870 2 4.02517 67.0935 20.7923
871 2 8.03575 67.1228 20.9754
872 2 11.9206 67.0303 20.8929
873 2 0.100502 71.0914 20.9451
874 2 4.03472 71.3962 20.8187
875 2 7.82591 71.1789 20.8528
876 2 12.0468 71.2756 20.9397
877 2 0.022045 75.2085 21.0345
878 2 4.0939 75.1693 21.0286
879 2 8.05262 75.2728 20.9528
880 2 11.9788 75.2054 21.102
881 2 0.16254 79.3563 21.024
882 2 4.04904 79.3078 21.0033
883 2 7.95529 79.1421 21.278
884 2 11.939 79.4276 21.0498
885 2 0.0209645 83.199 21.2423
886 2 3.85548 83.2094 21.0764
887 2 7.79848 83.4024 21.2749
888 2 11.8076 83.2827 21.1862
889 2 -0.0349218 87.306 21.2787
890 2 3.81679 87.2545 21.2533
891 2 7.71508 87.2198 21.2641
892 2 11.7863 87.4356 21.2875
893 2 -0.0602388 91.4846 21.4567
894 2 3.8786 91.3573 21.4155
895 2 7.82029 91.3918 21.2858
896 2 11.871 91.3174 21.4325
897 2 15.5155 95.4361 21.2326
898 2 3.82872 95.5305 21.533
899 2 7.84283 95.1759 21.4955
900 2 11.7439 95.3685 21.5953
901 2 0.0377925 99.4338 21.3682
902 2 4.02968 99.4137 21.5749
903 2 7.70024 99.3258 21.3893
904 2 11.779 99.28 21.4822
905 2 15.5556 103.261 21.4216
906 2 3.77562 103.339 21.4993
907 2 7.83404 103.418 21.3282
908 2 11.757 103.262 21.2904
909 2 -0.1436 107.15 21.5774
910 2 3.9468 107.229 21.4584
911 2 7.73072 107.103 21.3269
912 2 11.7376 107.121 21.3918
913 2 15.6782 111.115 21.4031
914 2 3.82686 111.137 21.3695
915 2 7.9507 111.098 21.1467
916 2 11.6692 111.075 21.3095
917 2 -0.0434906 115.165 21.1545
918 2 3.73723 114.954 21.1664
919 2 7.85776 115.068 21.3134
920 2 11.7694 114.905 21.3183
921 2 0.0822242 118.901 21.0854
922 2 3.98322 119.023 21.2639
923 2 7.84089 118.988 21.2108
924 2 11.8766 118.929 21.3135
925 2 0.116792 122.809 21.1357
926 2 4.04909 122.881 21.2103
927 2 7.96544 122.786 21.2398
928 2 11.9685 123.028 21.2071
929 2 0.119178 126.833 21.1082
930 2 3.80533 126.746 21.2222
931 2 7.84828 126.927 20.862
932 2 11.9576 126.795 21.015
933 2 -0.0566244 130.595 21.0856
934 2 3.84029 130.709 21.0389
935 2 7.91467 130.564 21.0505
936 2 11.9112 130.51 21.1927
937 2 16.0507 134.478 20.8463
938 2 3.8623 134.372 21.0566
939 2 7.98613 134.517 20.9055
940 2 11.941 134.485 21.0618
941 2 15.9348 138.716 21.0132
942 2 4.00094 138.445 20.9819
943 2 7.82796 138.398 21.0158
944 2 11.9765 138.406 21.1237
945 2 15.9222 142.295 20.5476
946 2 3.98559 142.426 20.8724
947 2 8.10548 142.426 20.8306
948 2 11.9885 142.401 20.9057
949 2 0.200602 146.314 20.8808
950 2 4.07409 146.38 20.8935
951 2 7.72605 146.366 20.7042
952 2 11.9817 146.26 21.0647
953 2 15.7053 150.274 20.7066
954 2 3.80591 150.195 20.7967
955 2 7.95375 150.478 20.831
956 2 11.773 150.259 20.8159
957 2 0.13196 154.204 20.9316
958 2 4.05918 154.228 20.7371
959 2 7.91927 154.135 20.6858
960 2 11.8459 154.265 20.9919
961 2 0.0277465 158.231 24.7926
962 2 3.85559 158.033 24.7424
963 2 7.88285 157.998 24.7351
964 2 11.8665 158.058 24.8325
965 2 15.7393 3.8653 24.6897
966 2 4.05532 3.59187 24.8242
967 2 8.02649 3.68445 24.8459
968 2 11.9873 3.5965 24.8862
969 2 0.121865 7.42112 24.8039
970 2 4.05646 7.78125 24.5767
971 2 7.9525 7.71741 24.845
972 2 12.0607 7.57425 24.7059
973 2 0.194005 11.6935 24.7266
974 2 4.00949 11.5403 24.66
975 2 8.10756 11.5205 24.5635
976 2 11.9896 11.7115 24.6224
977 2 0.045895 15.4144 24.6099
978 2 4.07771 15.4418 24.6381
979 2 7.92065 15.3769 24.5864
980 2 11.9397 15.4132 24.5254
981 2 15.7368 19.3855 24.5517
982 2 3.8746 19.3813 24.6799
983 2 7.90483 19.3984 24.6059
984 2 11.9181 19.5464 24.4497
985 2 0.0372826 23.3894 24.506
986 2 3.94698 23.3443 24.4561
987 2 7.77103 23.152 24.6721
988 2 11.7273 23.3808 24.3756
989 2 -0.114561 27.1853 24.4287
990 2 4.01739 27.2011 24.2593
991 2 7.78005 27.2557 24.5332
992 2 11.7998 27.2689 24.5622