ITEM: TIMESTEP
17000
ITEM: NUMBER OF ATOMS
32000
ITEM: BOX BOUNDS xy xz yz pp pp pp
0.0000000000000000e+00 1.5832000000000001e+01 0.0000000000000000e+00
0.0000000000000000e+00 1.5831999999999999e+02 0.0000000000000000e+00
8.1581808776967080e-01 1.6016129991222846e+02 0.0000000000000000e+00
ITEM: ATOMS id type x y z
1 2 -0.0874165 157.73 159.962
2 2 3.87403 157.85 159.938
3 2 8.00581 157.904 160.006
4 2 11.8196 157.793 159.963
5 2 15.7982 3.32163 159.863
6 2 3.80252 3.50304 159.797
7 2 7.83343 3.43785 159.803
8 2 11.8478 3.48403 159.612
9 2 -0.356666 7.28192 159.648
10 2 4.12873 7.26258 159.804
11 2 7.89471 7.34988 159.765
12 2 11.7842 7.44879 159.777
13 2 -0.127122 11.0071 159.66
14 2 3.92155 11.2506 159.862
15 2 8.00584 11.302 159.862
16 2 11.8253 11.2138 159.677
17 2 15.6623 15.156 159.781
18 2 3.89528 15.1297 159.765
19 2 7.96497 15.2555 159.728
20 2 11.9517 15.0802 159.871
21 2 -0.0434775 19.0965 159.7
22 2 3.98856 19.0387 159.745
23 2 7.76998 19.0643 159.636
24 2 11.7018 19.2834 159.707
25 2 15.8739 23.0006 0.5951
26 2 4.05414 23.1326 160.026
27 2 7.88975 23.0535 159.859
28 2 11.8045 23.2523 159.927
29 2 16.0127 27.2712 159.912
30 2 3.83236 26.8887 159.79
31 2 7.88585 27.1317 159.827
32 2 11.9128 27.0909 159.743
33 2 15.6758 31.1784 159.897
34 2 3.76632 31.013 160.076
35 2 7.88316 31.0635 159.956
36 2 11.6838 31.2581 0.701806
37 2 15.6779 35.207 160.057
38 2 3.82545 35.1792 0.661883
39 2 7.5856 35.1494 160.156
40 2 11.8101 35.21 0.722956
41 2 -0.107501 39.2064 160.116
42 2 3.79931 39.1087 0.723115
43 2 7.85333 39.2596 0.792041
44 2 11.8704 39.1728 160.046
45 2 0.0808292 43.2192 0.839442
46 2 3.89864 43.2241 0.861269
47 2 8.00525 43.2144 1.02473
48 2 11.8393 43.1754 0.762249
49 2 15.7197 47.5725 0.702475
50 2 3.86767 47.2382 0.808826
51 2 7.82149 47.2449 0.83267
52 2 11.7628 47.2594 0.881338
53 2 0.0580469 51.3719 0.824481
54 2 3.93504 51.2937 1.01558
55 2 7.93875 51.4866 0.836598
56 2 11.9255 51.3511 160.342
57 2 -0.0195226 55.3437 0.92194
58 2 3.9418 55.451 1.06523
59 2 7.70375 55.4035 0.968111
60 2 11.7628 55.6506 0.913566
61 2 -0.0720354 59.4928 0.909387
62 2 3.91673 59.5785 0.99728
63 2 7.66442 59.469 1.18896
64 2 11.7349 59.5467 1.20189
65 2 -0.0434538 63.2692 1.17676
66 2 3.96436 63.4487 1.24631
67 2 7.86428 63.5114 1.01176
68 2 12.0011 63.4414 1.15951
69 2 0.110813 67.5222 1.18887
70 2 3.88111 67.3888 1.2293
71 2 7.80511 67.4335 1.13253
72 2 11.9646 67.6696 1.20203
73 2 15.6599 71.4458 1.35039
74 2 3.9386 71.2919 1.18506
75 2 7.97139 71.4463 1.39968
76 2 12.0375 71.5276 1.29687
77 2 0.06275 75.5748 1.57528
78 2 3.90453 75.5622 1.60621
79 2 7.97897 75.415 1.59185
80 2 11.8753 75.5432 1.54314
81 2 -0.022256 79.5271 1.44945
82 2 4.09374 79.6564 1.49992
83 2 7.94489 79.4225 1.50353
84 2 11.8148 79.5484 1.47348
85 2 -0.179877 83.5739 1.41106
86 2 3.83597 83.4851 1.42242
87 2 7.8661 83.6015 1.22651
88 2 11.8412 83.5778 1.38004
89 2 0.0567436 87.3223 1.4597
90 2 3.77421 87.3874 1.40003
91 2 7.99302 87.4842 1.5998
92 2 11.763 87.4938 1.47797
93 2 0.0199377 91.4138 1.48887
94 2 4.11501 91.2582 1.30776
95 2 7.91319 91.5811 1.37411
96 2 11.7396 91.3912 1.35431
97 2 0.0987236 95.3841 1.34657
98 2 3.95841 95.4157 1.23629
99 2 7.9255 95.3504 1.35097
100 2 11.74 95.3077 1.29919
101 2 -0.197394 99.282 1.15795
102 2 3.92064 99.2777 1.20842
103 2 7.80818 99.0145 1.25988
104 2 11.823 99.1755 1.29245
105 2 15.8003 103.252 1.2876
106 2 3.74223 103.076 1.25672
107 2 7.66453 103.249 1.40021
108 2 11.8115 103.077 1.20271
109 2 15.626 107.14 1.31375
110 2 3.80055 107.234 1.11616
111 2 7.73322 107.06 1.16577
112 2 11.7267 107.11 1.35593
113 2 -0.0831779 111.155 1.06109
114 2 3.83762 110.983 1.0239
115 2 7.79721 110.964 1.26847
116 2 11.7923 111.101 1.26855
117 2 0.0460278 114.886 1.01236
118 2 3.84704 114.806 1.04624
119 2 7.79672 114.923 1.04497
120 2 11.7783 114.747 1.21384
121 2 15.8872 118.793 1.09075
122 2 3.9194 118.695 1.04732
123 2 7.77125 118.834 1.07949
124 2 11.8052 118.674 160.459
125 2 -0.154215 122.488 0.658654
126 2 3.95404 122.775 1.00929
127 2 7.89776 122.688 1.03629
128 2 11.6417 122.599 1.11314
129 2 -0.0304532 126.6 160.154
130 2 3.76534 126.679 160.238
131 2 7.77334 126.575 0.914136
132 2 11.85 126.528 0.994391
133 2 -0.0901876 130.441 160.261
134 2 4.08401 130.327 160.232
135 2 7.98745 130.488 0.945352
136 2 11.8215 130.319 160.125
137 2 0.082849 134.426 160.187
138 2 3.81905 134.137 160.265
139 2 7.64833 134.354 0.808265
140 2 11.7691 134.157 160.203
141 2 -0.0678407 138.048 160.218
142 2 3.80132 138.21 160.135
143 2 7.76501 138.309 160.164
144 2 11.825 138.074 0.792452
145 2 15.9112 142.205 160.17
146 2 3.88988 142.166 160.132
147 2 7.97104 142.169 160.2
148 2 11.9936 142.163 160.088
149 2 0.0094901 146.144 160.102
150 2 3.87026 146.181 160.188
151 2 7.84834 146.059 160.243
152 2 11.7763 146.12 160.074
153 2 15.72 150.055 159.878
154 2 3.95476 149.958 159.981
155 2 7.6238 149.833 159.968
156 2 11.663 149.845 160.055
157 2 15.6899 153.706 160.119
158 2 3.84129 153.945 159.955
159 2 7.89301 153.826 159.932
160 2 11.7985 153.835 159.905
161 2 15.6923 157.843 4.76832
162 2 3.86379 157.758 4.6575
163 2 8.0244 157.963 4.61366
164 2 11.9618 157.965 4.58816
165 2 15.8316 3.54224 4.49055
166 2 3.9994 3.42507 4.4385
167 2 7.94464 3.3994 4.52954
168 2 11.8037 3.62706 4.7674
169 2 15.8247 7.3601 4.48486
170 2 3.89769 7.41304 4.53948
171 2 7.88255 7.42156 4.41808
172 2 12.0013 7.51535 4.52242
173 2 15.9161 11.1728 4.26078
174 2 3.80261 11.2877 4.45917
175 2 7.74407 11.178 4.34152
176 2 12.0633 11.4485 4.48147
177 2 15.9153 15.1945 4.35145
178 2 3.809 15.2127 4.27575
179 2 7.66206 15.0595 4.32856
180 2 11.9634 15.1758 4.50871
181 2 0.132993 19.0955 4.23601
182 2 3.87537 19.1723 4.35114
183 2 7.96158 19.243 4.53433
184 2 11.86 19.1074 4.28426
185 2 15.8059 23.0619 4.44054
186 2 4.012 23.0901 4.43129
187 2 7.9963 23.0284 4.5763
188 2 11.8965 22.9917 4.38476
189 2 15.7577 27.1532 4.46423
190 2 3.76009 27.0072 4.59029
191 2 8.04796 27.102 4.55385
192 2 11.859 26.9396 4.54377
193 2 15.8634 31.1659 4.43807
194 2 3.94736 31.0469 4.55346
195 2 8.10483 31.1393 4.62597
196 2 11.9122 31.1466 4.4116
197 2 0.0234412 35.2633 4.7516
198 2 3.99362 35.1943 4.73259
199 2 7.84305 35.069 4.79899
200 2 11.7808 34.9989 4.60461
201 2 -0.165113 39.1347 4.82255
202 2 3.98207 39.18 4.75879
203 2 7.9339 39.2712 4.84376
204 2 11.7559 38.9514 4.58423
205 2 -0.0477751 43.2042 4.90232
206 2 3.75821 43.402 4.61577
207 2 8.00042 43.2894 4.79914
208 2 12.0481 43.1451 4.66042
209 2 15.5163 47.2435 4.81398
210 2 3.73445 47.3604 4.78653
211 2 7.89571 47.3536 4.75983
212 2 11.7829 47.2405 4.81214
213 2 0.0598355 51.476 4.87478
214 2 4.14498 51.2176 4.8797
215 2 7.91902 51.3353 4.92702
216 2 12.0287 51.3212 4.57553
217 2 -0.0617509 55.5042 4.86737
218 2 3.93014 55.3843 4.9502
219 2 8.06402 55.3351 4.9953
220 2 11.9317 55.5111 4.77334
221 2 0.0354352 59.3727 4.93999
222 2 3.86042 59.4754 5.19473
223 2 7.92131 59.2919 5.04865
224 2 11.7528 59.2882 4.98627
225 2 -0.0894617 63.3669 5.03387
226 2 3.8462 63.4385 5.06284
227 2 7.82769 63.3872 4.87664
228 2 11.7352 63.2923 5.00318
229 2 0.0425174 67.3746 5.15169
230 2 3.83941 67.4828 5.314
231 2 7.93168 67.3207 4.94842
232 2 11.9012 67.3411 4.86177
233 2 0.218001 71.404 5.17267
234 2 3.94407 71.5215 5.48363
235 2 7.98546 71.4551 5.24327
236 2 12.049 71.5519 5.44121
237 2 0.0183807 75.3319 5.29948
238 2 4.13027 75.4533 5.40385
239 2 7.92924 75.3879 5.37332
240 2 11.8528 75.5241 5.43349
241 2 -0.0407898 79.416 5.54044
242 2 3.96925 79.4713 5.56086
243 2 7.96226 79.6115 5.45156
244 2 11.7825 79.5289 5.45703
245 2 15.8411 83.4275 5.49917
246 2 3.7416 83.3293 5.39405
247 2 7.78839 83.6734 5.30426
248 2 11.6482 83.6625 5.50937
249 2 -0.26393 87.4659 5.59872
250 2 3.83634 87.3612 5.49949
251 2 7.68431 87.3781 5.44131
252 2 11.8633 87.5932 5.48883
253 2 0.00410046 91.3387 5.46944
254 2 3.98911 91.5072 5.28487
255 2 7.78521 91.5234 5.44264
256 2 12.1176 91.5067 5.23449
257 2 -0.0556305 95.4009 5.51384
258 2 3.79857 95.3007 5.39592
259 2 7.8256 95.462 5.32349
260 2 11.825 95.1869 5.44139
261 2 -0.146206 99.1505 5.42132
262 2 3.90321 99.1056 5.3169
263 2 7.73502 99.1337 5.44649
264 2 11.6669 99.2146 5.42141
265 2 15.9298 103.103 5.47162
266 2 3.83572 103.057 5.2585
267 2 7.7427 103.031 5.30081
268 2 11.7692 103.086 5.24057
269 2 -0.105494 107.031 5.24916
270 2 3.82156 107.099 5.19054
271 2 7.85257 107.11 5.23412
272 2 11.6688 107.134 5.27649
273 2 -0.0760663 110.802 5.08649
274 2 3.8007 111.003 5.09364
275 2 7.69583 110.885 5.29426
276 2 11.7719 110.852 5.04006
277 2 15.8657 114.899 5.18463
278 2 3.87002 114.923 5.0475
279 2 7.80674 114.789 5.24472
280 2 11.8071 114.699 5.11198
281 2 15.8542 118.87 4.9741
282 2 4.19859 118.782 5.06189
283 2 7.80084 118.726 5.06358
284 2 12.029 118.856 5.02237
285 2 15.8924 122.687 5.11648
286 2 3.89866 122.753 4.95805
287 2 7.96766 122.809 4.96967
288 2 11.8159 122.818 5.02071
289 2 0.113575 126.591 5.00115
290 2 3.97003 126.541 5.14108
291 2 7.89781 126.493 4.97923
292 2 12.0024 126.56 5.11368
293 2 0.024701 130.727 5.10534
294 2 4.06754 130.554 5.10099
295 2 7.86432 130.501 5.05074
296 2 11.6915 130.344 4.86547
297 2 -0.0674407 134.376 4.86671
298 2 3.86955 134.497 4.81139
299 2 7.93015 134.396 5.04578
300 2 11.804 134.364 4.89247
301 2 15.7322 138.339 4.86452
302 2 3.93892 138.251 4.80982
303 2 7.97218 138.146 4.87604
304 2 11.7622 138.166 4.97893
305 2 -0.0279804 142.178 4.63503
306 2 3.91347 142.131 4.75786
307 2 7.94903 142.128 4.8601
308 2 11.926 142.156 4.6543
309 2 15.835 146.102 4.77981
310 2 4.01224 146.111 4.7282
311 2 7.85543 146.08 4.93624
312 2 11.9132 146.077 4.90315
313 2 -0.118301 149.876 4.73512
314 2 3.84002 149.926 4.85808
315 2 7.84877 150.03 4.74554
316 2 11.8702 150.061 4.78598
317 2 15.8602 153.91 4.70911
318 2 4.05742 153.976 4.71265
319 2 7.85527 153.918 4.58342
320 2 11.9015 153.98 4.78397
321 2 15.8884 158.001 8.65864
322 2 4.00342 157.933 8.64423
323 2 7.9015 157.875 8.62152
324 2 12.0192 157.902 8.67934
325 2 15.8293 3.56705 8.7321
326 2 4.02526 3.42646 8.59144
327 2 7.9097 3.52165 8.45024
328 2 11.9564 3.65692 8.56366
329 2 -0.112606 7.70905 8.56642
330 2 4.01798 7.20022 8.47774
331 2 7.94563 7.39146 8.45287
332 2 11.8655 7.48757 8.3217
333 2 15.6597 11.3494 8.60794
334 2 3.89957 11.2407 8.48996
335 2 7.98354 11.4504 8.41089
336 2 11.606 11.3824 8.5017
337 2 0.0718554 15.2214 8.36
338 2 4.13827 15.0182 8.47915
339 2 7.87598 15.2235 8.3647
340 2 11.7149 15.213 8.34338
341 2 -0.107417 19.047 8.26857
342 2 3.9851 18.9918 8.23535
343 2 8.03024 18.9544 8.42392
344 2 11.9717 19.1737 8.29443
345 2 0.104678 23.0129 8.42285
346 2 4.04505 22.9607 8.36499
347 2 7.91726 22.959 8.3291
348 2 12.0185 23.1987 8.47251
349 2 15.8975 27.0759 8.36227
350 2 4.06804 26.9912 8.58107
351 2 7.8741 27.0454 8.50765
352 2 11.9568 27.2604 8.49494
353 2 15.8255 31.1855 8.43505
354 2 3.84892 30.977 8.47209
355 2 8.0193 30.9452 8.44948
356 2 12.0402 31.0797 8.46965
357 2 15.6875 35.1358 8.77574
358 2 3.90115 35.0389 8.61756
359 2 7.99479 34.9449 8.60896
360 2 12.0473 35.2535 8.38811
361 2 15.8051 39.0523 8.75646
362 2 3.95409 39.1125 8.71386
363 2 7.7927 39.1088 8.56906
364 2 11.7947 39.1231 8.79507
365 2 15.7437 43.0018 8.71806
366 2 3.82033 43.0535 8.50642
367 2 7.8311 43.1718 8.6462
368 2 11.924 43.1854 8.51694
369 2 0.0012745 47.2752 8.75216
370 2 4.08649 47.2351 8.797
371 2 7.97593 46.9957 8.73503
372 2 11.9392 47.2579 8.86472
373 2 -0.0953978 51.3021 8.81606
374 2 4.18991 51.1801 8.84856
375 2 8.02547 51.3183 8.71775
376 2 11.9609 51.378 8.72607
377 2 -0.0313168 55.4668 8.78172
378 2 3.9926 55.3804 8.74173
379 2 7.91093 55.2374 9.04627
380 2 11.9981 55.3904 8.83925
381 2 15.8865 59.2629 8.77943
382 2 4.04861 59.3387 8.92243
383 2 7.87305 59.3063 8.92273
384 2 11.745 59.4001 9.0246
385 2 -0.217538 63.3849 8.94643
386 2 3.81387 63.2084 8.97952
387 2 7.79677 63.4644 8.92492
388 2 11.6619 63.3353 9.04606
389 2 0.0268676 67.302 9.08467
390 2 3.90175 67.529 8.95948
391 2 7.8132 67.2749 9.14294
392 2 11.8956 67.4533 8.94355
393 2 -0.145412 71.455 9.17488
394 2 4.03343 71.392 9.20558
395 2 8.15155 71.4033 9.01727
396 2 12.0285 71.1684 9.29003
397 2 -0.131662 75.5291 9.69224
398 2 3.75022 75.381 9.06521
399 2 7.93257 75.3858 9.43426
400 2 11.85 75.4673 9.1326
401 2 -0.0992959 79.4296 9.32994
402 2 3.95173 79.5001 9.1584
403 2 7.78388 79.4401 9.23877
404 2 11.8981 79.4431 9.31243
405 2 -0.132878 83.5559 9.22975
406 2 3.89136 83.4011 9.34905
407 2 7.60928 83.5339 9.33537
408 2 11.4669 83.5381 9.40745
409 2 -0.0733629 87.4779 9.54428
410 2 4.02585 87.5483 9.46947
411 2 7.9613 87.5424 9.71356
412 2 11.9416 87.4585 9.57096
413 2 -0.00966336 91.3964 9.41714
414 2 3.93377 91.4653 9.41162
415 2 7.81838 91.3444 9.38634
416 2 11.8187 91.2736 9.53612
417 2 -0.120398 95.274 9.44158
418 2 3.73864 95.3115 9.51367
419 2 7.85565 95.2644 9.31779
420 2 11.6617 95.3968 9.5018
421 2 15.5798 99.202 9.31837
422 2 3.94767 99.2917 9.54935
423 2 7.88683 99.4194 9.46082
424 2 11.8388 99.1997 9.43848
425 2 -0.199576 103.187 9.34485
426 2 4.01449 103.237 9.26715
427 2 7.81464 103.247 9.47222
428 2 11.7626 103.031 9.36555
429 2 15.7751 107.034 9.3153
430 2 3.91027 106.997 9.36153
431 2 7.91479 107.207 9.16753
432 2 11.7181 107.204 9.30336
433 2 -0.0226853 110.85 9.23389
434 2 3.82113 111.133 9.06704
435 2 7.77119 110.782 9.20698
436 2 11.8925 110.938 9.09258
437 2 0.0676641 115.028 9.04887
438 2 3.85588 114.931 9.24776
439 2 7.89461 114.651 9.02972
440 2 11.8559 114.771 9.27538
441 2 -0.0274903 118.849 9.03085
442 2 4.05016 118.78 9.17402
443 2 8.11373 118.636 8.77415
444 2 11.9288 118.595 9.0374
445 2 15.9103 122.872 9.15371
446 2 4.03423 122.68 9.08675
447 2 7.98135 122.63 8.92148
448 2 11.9625 122.574 8.94057
449 2 0.0689885 126.577 9.09804
450 2 3.95099 126.648 9.22422
451 2 7.87483 126.503 9.07628
452 2 11.8745 126.767 8.96672
453 2 -0.427384 130.528 8.94076
454 2 3.70695 130.396 8.99825
455 2 7.7883 130.56 9.15831
456 2 11.7505 130.505 8.98367
457 2 0.0342669 134.34 8.90454
458 2 3.83451 134.379 8.93784
459 2 7.78931 134.392 8.99072
460 2 11.9662 134.43 9.11557
461 2 -0.222146 138.263 8.79676
462 2 3.64426 138.297 8.79067
463 2 7.74913 138.404 8.85099
464 2 11.6781 138.285 8.9045
465 2 -0.0193308 141.966 8.85372
466 2 3.98283 142.224 8.81716
467 2 7.78916 142.286 8.86251
468 2 12.0108 142.025 8.98707
469 2 16.0205 145.999 9.03192
470 2 3.96468 146.16 8.85254
471 2 7.81933 146.195 8.87543
472 2 11.8308 146.018 8.88465
473 2 15.7029 150.062 8.82027
474 2 3.89246 150.157 8.63731
475 2 7.96851 150.099 8.77782
476 2 11.9171 149.999 8.81189
477 2 15.7013 154.049 8.71825
478 2 3.90335 153.982 8.57778
479 2 8.00774 154.103 8.7042
480 2 11.7994 153.967 8.7251
481 2 15.9506 158.137 12.5875
482 2 4.08974 158.139 12.7104
483 2 7.80427 157.95 12.592
484 2 11.9198 157.826 12.6616
485 2 15.8687 3.68821 12.6368
486 2 4.09564 3.79706 12.5511
487 2 8.04989 3.57827 12.6702
488 2 11.9493 3.61792 12.5309
489 2 -0.0677777 7.5433 12.698
490 2 4.08819 7.47813 12.5671
491 2 7.92749 7.73826 12.4537
492 2 11.7279 7.47874 12.4977
493 2 15.8724 11.3331 12.5992
494 2 3.88237 11.1505 12.4863
495 2 7.88892 11.4627 12.4718
496 2 11.9501 11.4548 12.5082
497 2 0.0143284 15.312 12.5554
498 2 3.92642 15.0136 12.4205
499 2 8.02644 15.3777 12.5016
500 2 11.9129 15.2249 12.513
501 2 15.992 19.0127 12.3272
502 2 4.18854 19.2342 12.5639
503 2 7.86265 19.1183 12.55
504 2 11.9352 19.2694 12.33
505 2 15.8029 22.8728 12.2866
506 2 3.93499 23.0132 12.4545
507 2 8.06214 23.0736 12.3761
508 2 11.9021 22.9817 12.3505
509 2 15.84 26.9588 12.2535
510 2 3.96528 26.9819 12.391
511 2 7.91948 26.9987 12.4689
512 2 11.95 26.9396 12.3205
513 2 0.0646066 31.0585 12.5166
514 2 3.9245 31.0224 12.2155
515 2 7.79765 30.9945 12.2696
516 2 11.8608 30.827 12.4344
517 2 15.9554 35.0056 12.4858
518 2 4.00933 35.0088 12.5237
519 2 7.8712 34.8657 12.3664
520 2 11.6943 34.9643 12.4828
521 2 15.8309 39.0544 12.475
522 2 3.9471 38.9591 12.5663
523 2 7.88665 39.0767 12.6187
524 2 11.6247 39.0691 12.6873
525 2 15.7407 43.1507 12.7441
526 2 3.93541 43.0584 12.5994
527 2 7.71326 43.1387 12.5784
528 2 11.9803 43.0387 12.6666
529 2 15.911 47.0396 12.6613
530 2 4.02307 47.2036 12.5509
531 2 7.93279 47.0408 12.5399
532 2 11.8905 47.1354 12.6442
533 2 0.00773341 51.0291 12.572
534 2 4.00804 51.2066 12.8717
535 2 7.82157 51.1341 12.6431
536 2 11.7787 51.1875 12.7279
537 2 0.119615 55.2895 12.7754
538 2 3.88356 55.2037 12.5711
539 2 8.01923 55.291 12.8035
540 2 11.8471 55.2029 12.7307
541 2 0.0618605 59.279 12.7348
542 2 4.02113 59.3518 12.9566
543 2 7.88633 59.2358 13.0016
544 2 11.9176 59.1682 12.8399
545 2 -0.131042 63.4548 12.7676
546 2 3.91727 63.3621 12.8757
547 2 7.90868 63.1823 12.8436
548 2 11.7864 63.2852 13.0293
549 2 0.0373651 67.3026 12.9671
550 2 4.00257 67.2707 12.9109
551 2 7.88996 67.235 13.1061
552 2 11.8535 67.1374 13.2453
553 2 0.132498 71.3889 13.2574
554 2 3.976 71.3072 13.0024
555 2 7.98218 71.3908 13.0024
556 2 11.7959 71.2796 13.134
557 2 -0.0277378 75.2543 13.1483
558 2 3.92168 75.3344 13.2713
559 2 7.90761 75.3366 13.1652
560 2 11.8675 75.2218 13.1314
561 2 -0.0638031 79.4773 13.1793
562 2 3.93291 79.4663 13.1151
563 2 7.74335 79.4154 13.2616
564 2 11.7252 79.486 13.2402
565 2 -0.0648443 83.5011 13.0342
566 2 3.83629 83.5048 13.2789
567 2 7.78505 83.4983 13.416
568 2 11.6849 83.5262 13.3854
569 2 0.153652 87.392 13.3416
570 2 4.09662 87.4493 13.5524
571 2 7.80236 87.5525 13.6811
572 2 11.6979 87.3229 13.4401
573 2 -0.064789 91.5738 13.3992
574 2 3.85482 91.3465 13.5425
575 2 7.8242 91.3955 13.4554
576 2 11.7856 91.4183 13.4365
577 2 -0.100444 95.3278 13.5393
578 2 3.80341 95.1315 13.446
579 2 7.81136 95.3514 13.5352
580 2 11.808 95.2832 13.4545
581 2 -0.0547519 99.1519 13.5082
582 2 3.79678 99.2895 13.2667
583 2 7.63541 99.3648 13.3627
584 2 11.7204 99.2537 13.2973
585 2 -0.0663852 103.037 13.3898
586 2 3.90964 103.117 13.3067
587 2 7.91537 103.197 13.3943
588 2 11.6928 103.254 13.2391
589 2 15.6413 106.823 13.3219
590 2 3.7716 107.036 13.2586
591 2 7.93821 107.018 13.296
592 2 12.0008 106.934 13.5112
593 2 -0.133765 111.055 13.2158
594 2 3.92389 110.878 13.2015
595 2 7.86642 110.844 13.2816
596 2 11.6906 111.017 13.2456
597 2 15.6979 115.043 13.2249
598 2 4.01372 114.905 13.3055
599 2 7.67904 114.715 13.1702
600 2 11.7828 114.967 13.3322
601 2 15.7626 118.743 13.1556
602 2 3.98947 118.795 13.1744
603 2 7.77155 118.921 13.3136
604 2 12.0222 118.787 13.1523
605 2 -0.0117442 122.671 12.9524
606 2 4.05715 122.714 13.075
607 2 8.23018 122.787 12.9633
608 2 11.8916 122.633 12.9681
609 2 15.7336 126.582 13.0851
610 2 3.76428 126.691 13.1014
611 2 7.91971 126.459 13.1028
612 2 11.9686 126.612 13.2595
613 2 15.877 130.496 13.0868
614 2 3.94034 130.518 13.1405
615 2 7.92882 130.533 13.0639
616 2 11.683 130.592 13.0011
617 2 0.0666026 134.559 12.9853
618 2 3.89806 134.328 12.8443
619 2 7.94845 134.535 13.0651
620 2 11.742 134.417 13.1227
621 2 0.0010594 138.295 12.8722
622 2 3.78252 138.294 12.9285
623 2 7.77309 138.429 12.9419
624 2 11.7567 138.341 12.95
625 2 15.8422 142.219 12.9604
626 2 3.95226 142.21 12.9872
627 2 7.91359 142.26 12.8259
628 2 11.8278 142.318 12.8831
629 2 -0.0292617 146.136 12.8461
630 2 3.86615 146.349 12.8615
631 2 7.87252 146.339 13.0244
632 2 11.8361 146.132 12.8292
633 2 15.9958 150.164 12.8296
634 2 3.77154 150.079 12.6885
635 2 7.85493 150.207 12.6535
636 2 11.7398 150.221 12.7116
637 2 16.0441 154.023 12.6549
638 2 4.06879 154.111 12.7098
639 2 7.86687 154.087 12.5235
640 2 11.9 154.044 12.6555
641 2 15.8104 157.939 16.4108
642 2 4.03739 158.163 16.6403
643 2 8.23035 158.116 16.5794
644 2 12.149 158.118 16.6805
645 2 16.0051 3.57779 16.552
646 2 4.01567 3.54586 16.7784
647 2 8.06506 3.51266 16.5887
648 2 11.9317 3.64739 16.6558
649 2 0.0334126 7.42896 16.3715
650 2 3.9055 7.5951 16.6918
651 2 8.02014 7.39177 16.6382
652 2 11.921 7.36645 16.5806
653 2 15.8587 11.4456 16.4475
654 2 3.87471 11.584 16.5034
655 2 8.00552 11.5006 16.5851
656 2 11.8659 11.6592 16.6277
657 2 0.331132 15.2932 16.5549
658 2 4.17216 15.2787 16.4559
659 2 8.10588 15.3192 16.5378
660 2 12.1245 15.5609 16.4496
661 2 15.8362 19.2885 16.3671
662 2 4.02479 19.2524 16.5694
663 2 7.9286 19.2066 16.693
664 2 11.7026 19.296 16.5291
665 2 15.6826 23.0744 16.5231
666 2 3.83983 23.1797 16.2829
667 2 7.82558 23.0845 16.4438
668 2 11.8858 23.1478 16.2977
669 2 -0.102392 26.9334 16.3423
670 2 3.98384 26.7671 16.2488
671 2 7.80435 26.9479 16.4186
672 2 11.9076 27.0592 16.2396
673 2 15.9919 30.8641 16.2539
674 2 3.91145 30.8353 16.4303
675 2 8.12223 30.9244 16.3121
676 2 12.05 30.9664 16.4305
677 2 15.6247 34.9565 16.2351
678 2 3.88501 34.9496 16.3549
679 2 7.96844 34.8982 16.2879
680 2 12.0105 34.9391 16.4131
681 2 0.0550969 38.8874 16.5062
682 2 4.06777 39.0273 16.4087
683 2 7.94082 39.1789 16.6344
684 2 11.7754 38.937 16.5559
685 2 15.7261 43.0216 16.3834
686 2 3.93275 42.9614 16.4181
687 2 8.07433 43.0753 16.5197
688 2 11.7993 42.944 16.6501
689 2 0.0245912 47.0562 16.5128
690 2 4.00252 47.0941 16.5646
691 2 7.68405 47.0934 16.4886
692 2 11.6631 47.1558 16.5028
693 2 15.4994 51.1025 16.5371
694 2 3.73435 50.9569 16.5607
695 2 7.64372 51.2045 16.71
696 2 11.5265 51.3563 16.4988
697 2 -0.171888 55.1837 16.5473
698 2 3.95376 55.0191 16.6661
699 2 7.90188 55.2287 16.6827
700 2 11.8326 55.0917 16.6265
701 2 0.181296 59.511 16.818
702 2 4.01265 59.0534 16.7172
703 2 7.96227 59.2444 16.8386
704 2 12.0535 59.1378 16.7989
705 2 0.168003 63.1361 16.8064
706 2 4.05012 63.1613 16.9004
707 2 8.06393 63.2353 16.8646
708 2 11.7037 63.0901 16.613
709 2 0.117299 67.2241 16.8836
710 2 4.09256 67.2067 16.9437
711 2 7.76492 67.256 17.2
712 2 11.8958 67.1991 16.8389
713 2 -0.21977 71.3428 17.026
714 2 4.00196 71.3189 16.9836
715 2 7.96644 71.1343 17.0557
716 2 11.8045 71.2582 16.9685
717 2 -0.12372 75.3389 17.2512
718 2 4.05365 75.2213 17.2412
719 2 7.94434 75.2191 17.1458
720 2 11.9757 75.3343 17.1067
721 2 -0.0314417 79.3375 16.9795
722 2 3.8679 79.3308 17.0769
723 2 7.99352 79.5923 17.1231
724 2 11.8098 79.3424 17.1294
725 2 -0.0464765 83.3329 17.1
726 2 3.93816 83.342 17.2789
727 2 7.82966 83.2754 17.3139
728 2 11.8235 83.381 17.3817
729 2 -0.131057 87.4401 17.2466
730 2 3.80681 87.2946 17.2273
731 2 7.91265 87.4806 17.6282
732 2 12.1148 87.436 17.2723
733 2 -0.187812 91.4075 17.2279
734 2 3.89423 91.6221 17.4842
735 2 7.93686 91.5013 17.5317
736 2 11.7804 91.3167 17.2306
737 2 -0.15699 95.3732 17.3475
738 2 3.86949 95.3942 17.6353
739 2 7.89804 95.4103 17.509
740 2 11.6738 95.3734 17.5175
741 2 15.6337 99.1869 17.5609
742 2 3.84933 99.3293 17.3114
743 2 7.58237 99.2361 17.4035
744 2 11.8361 99.3326 17.5825
745 2 15.6613 103.076 17.5131
746 2 3.96419 103.366 17.5578
747 2 7.74016 103.315 17.4327
748 2 11.6686 103.11 17.5236
749 2 15.7559 107.136 17.3066
750 2 3.85047 107.141 17.2072
751 2 7.75631 107.029 17.1718
752 2 11.9466 107.031 17.4297
753 2 -0.207871 111.202 17.348
754 2 3.85536 110.889 17.4662
755 2 7.96233 111.056 17.0586
756 2 11.7533 110.963 17.4462
757 2 0.101363 115.023 17.2748
758 2 4.00405 114.738 17.1382
759 2 7.91947 114.982 17.2351
760 2 11.8233 115.109 17.2771
761 2 0.0822395 118.778 17.2705
762 2 4.14627 118.815 17.2215
763 2 7.75686 118.978 17.1051
764 2 11.7394 118.815 17.0925
765 2 0.170706 122.59 17.1138
766 2 4.12257 122.683 17.1599
767 2 8.0891 122.799 17.0718
768 2 12.0452 122.913 16.9732
769 2 0.100592 126.505 16.9343
770 2 4.11296 126.544 16.9771
771 2 7.97989 126.638 17.1386
772 2 12.1485 126.764 17.0682
773 2 0.0599538 130.458 17.0719
774 2 3.98373 130.636 17.042
775 2 8.01568 130.545 17.0367
776 2 11.971 130.617 16.9503
777 2 0.147306 134.572 17.0974
778 2 4.03086 134.353 17.0342
779 2 8.04715 134.56 17.0361
780 2 11.9792 134.568 17.0116
781 2 16.0172 138.451 16.9057
782 2 3.90727 138.419 17.0635
783 2 7.83417 138.474 16.9472
784 2 11.8528 138.467 16.9538
785 2 15.8508 142.322 16.9328
786 2 3.92314 142.376 17.0334
787 2 7.8932 142.232 16.8625
788 2 11.8864 142.356 16.9891
789 2 15.8472 146.276 16.8466
790 2 4.06012 146.233 16.94
791 2 8.14079 146.323 17.0643
792 2 11.9089 146.272 17.0342
793 2 15.8343 150.225 16.7571
794 2 4.18191 150.111 16.6992
795 2 7.94951 150.233 16.7247
796 2 12.0317 150.149 16.9044
797 2 0.0637226 154.02 16.8825
798 2 3.81758 154.174 16.7084
799 2 8.02949 153.902 16.7198
800 2 11.9941 154.109 16.8717
801 2 -0.166536 158.006 20.7545
802 2 3.92786 157.997 20.6444
803 2 7.74448 158.12 20.5956
804 2 11.8749 158.109 20.7579
805 2 15.9627 3.46815 20.6679
806 2 4.13005 3.52513 20.6896
807 2 8.03297 3.71037 20.7927
808 2 11.9551 3.7417 20.8359
809 2 0.12717 7.51546 20.587
810 2 4.24809 7.46735 20.4529
811 2 8.18184 7.50724 20.7723
812 2 12.2181 7.56382 20.6289
813 2 15.9468 11.497 20.3926
814 2 4.03649 11.3744 20.5857
815 2 8.03553 11.4171 20.663
816 2 11.984 11.6441 20.4611
817 2 15.9944 15.3976 20.5429
818 2 3.97321 15.4881 20.7721
819 2 7.9764 15.4455 20.5056
820 2 12.0491 15.393 20.5291
821 2 15.9052 19.3786 20.5383
822 2 4.35683 19.4325 20.3059
823 2 8.0229 19.393 20.5896
824 2 11.8831 19.3507 20.4451
825 2 15.6657 23.347 20.4633
826 2 3.855 23.4465 20.5808
827 2 8.00769 23.2331 20.5761
828 2 11.8921 23.378 20.531
829 2 0.0461461 27.2254 20.4672
830 2 3.91397 27.0728 20.32
831 2 7.93404 27.0684 20.422
832 2 11.9286 27.1223 20.2425
833 2 0.082936 30.9514 20.2946
834 2 4.19091 30.9777 20.3999
835 2 7.99962 30.928 20.2577
836 2 11.9937 31.3057 20.3716
837 2 16.0085 34.8876 20.3363
838 2 3.8702 34.9621 20.2631
839 2 7.96872 35.1591 20.3584
840 2 11.9811 34.9503 20.4533
841 2 0.0407323 38.8922 20.4522
842 2 3.94394 38.8956 20.402
843 2 7.83637 38.945 20.2153
844 2 11.8128 38.9093 20.3986
845 2 0.131836 43.0591 20.2073
846 2 3.96335 42.9351 20.3978
847 2 7.83792 43.0365 20.3884
848 2 11.8418 42.8576 20.2964
849 2 -0.0908006 46.9942 20.5303
850 2 3.92333 46.8801 20.5139
851 2 7.76247 47.1356 20.5165
852 2 11.7395 47.1675 20.21
853 2 0.0588565 51.0559 20.3981
854 2 3.77238 50.9832 20.4779
855 2 7.93016 50.8836 20.5548
856 2 11.8018 50.984 20.6075
857 2 0.0467804 54.9138 20.4873
858 2 3.92118 54.8903 20.3869
859 2 7.85602 55.0309 20.5193
860 2 11.9008 54.9771 20.5699
861 2 15.8858 58.9602 20.6462
862 2 3.81363 59.013 20.6321
863 2 8.03221 58.9473 20.589
864 2 12.0186 59.1051 20.5771
865 2 15.8548 63.1541 20.7881
866 2 4.1722 63.1288 20.822
867 2 8.05049 63.0471 20.8691
868 2 11.9478 62.9465 20.9038
869 2 -0.11896 67.234 20.5517
870 2 3.96728 67.3113 20.7819
871 2 7.89632 67.0596 20.9498
872 2 11.927 67.1797 20.7713
873 2 0.0500236 71.2561 20.8495
874 2 3.8582 71.0581 20.9268
875 2 8.08816 71.1798 21.0661
876 2 11.794 71.223 21.0318
877 2 0.00854289 75.0234 21.1077
878 2 3.86611 75.216 20.9954
879 2 7.76815 75.2399 21.0612
880 2 11.9004 75.4576 20.8964
881 2 0.0302259 79.1217 21.1419
882 2 3.93921 79.2139 21.0354
883 2 7.88485 79.3257 20.8387
884 2 11.984 79.2106 21.0079
885 2 -0.123889 83.3226 21.1115
886 2 3.87485 83.3808 21.2613
887 2 7.94801 83.2115 21.1586
888 2 11.8771 83.5516 21.0324
889 2 0.0142787 87.4863 21.1949
890 2 3.92842 87.2869 21.0034
891 2 7.84299 87.349 21.2628
892 2 11.8662 87.1684 21.1807
893 2 0.0969042 91.3057 21.2883
894 2 3.98124 91.4247 21.2708
895 2 7.91143 91.238 21.3056
896 2 11.8272 91.4117 21.3502
897 2 15.9038 95.2957 21.6438
898 2 3.83843 95.2363 21.4511
899 2 7.85424 95.401 21.2773
900 2 11.9144 95.4173 21.4414
901 2 -0.0786262 99.1925 21.635
902 2 3.74257 99.2071 21.4714
903 2 7.89421 99.3086 21.573
904 2 11.866 99.3067 21.6309
905 2 15.8451 103.165 21.4871
906 2 3.87867 103.293 21.2441
907 2 7.8038 103.232 21.5023
908 2 11.8186 103.247 21.5758
909 2 -0.14592 107.062 21.3377
910 2 3.93642 107.252 21.3932
911 2 7.8861 107.342 21.436
912 2 11.6956 107.303 21.3538
913 2 15.6856 110.971 21.2631
914 2 3.96332 111.073 21.3659
915 2 7.63815 111.13 21.2838
916 2 11.813 111.167 21.2203
917 2 -0.112159 115.016 21.2798
918 2 3.93209 114.977 21.4005
919 2 7.74236 115.093 21.3036
920 2 11.829 115.056 21.2107
921 2 -0.269031 119.026 21.1844
922 2 3.78527 118.817 21.1108
923 2 7.89919 118.823 21.2874
924 2 11.6134 118.957 21.0351
925 2 -0.145671 122.72 21.1723
926 2 3.98799 122.831 21.2741
927 2 7.91129 122.91 21.1356
928 2 11.7877 122.897 21.0127
929 2 -0.154132 126.523 21.1032
930 2 4.03983 126.67 21.1379
931 2 7.96828 126.782 21.2091
932 2 11.8229 126.754 21.204
933 2 0.0310984 130.622 21.0076
934 2 3.95914 130.503 20.9252
935 2 7.83803 130.681 20.9647
936 2 11.8609 130.829 20.9271
937 2 15.7008 134.519 21.1119
938 2 4.10348 134.509 20.9257
939 2 7.91329 134.572 20.9723
940 2 11.8757 134.472 21.0172
941 2 15.9359 138.181 20.9445
942 2 4.14705 138.459 21.0785
943 2 8.22902 138.431 20.8425
944 2 12.0111 138.354 20.8819
945 2 15.8849 142.351 21.0631
946 2 4.18383 142.391 20.8913
947 2 7.90178 142.299 21.0772
948 2 11.8165 142.184 20.8954
949 2 -0.0532609 146.231 20.9305
950 2 3.91869 146.374 21.0111
951 2 7.867 146.123 21.0052
952 2 11.6661 146.302 20.7065
953 2 15.97 150.165 20.9291
954 2 4.20711 150.24 20.8017
955 2 7.89312 150.199 20.7119
956 2 11.8709 150.247 21.0299
957 2 0.0599598 154.035 20.7478
958 2 4.03172 154.216 20.7316
959 2 8.01666 154.362 20.7474
960 2 11.9014 154.167 20.7492
961 2 0.049873 158.033 24.8703
962 2 4.11092 158.154 24.7234
963 2 8.0114 158.023 24.8164
964 2 11.8845 158.185 24.7409
965 2 15.9848 3.56262 24.7106
966 2 4.204 3.70626 24.5631
967 2 8.09816 3.72066 24.7605
968 2 11.7783 3.83123 24.6922
969 2 0.153065 7.84454 24.6746
970 2 4.01514 7.48059 24.8645
971 2 7.99529 7.65896 24.7073
972 2 11.9839 7.81658 24.765
973 2 -0.016478 11.4497 24.623
974 2 4.17555 11.6107 24.6163
975 2 7.95812 11.6717 24.7693
976 2 12.0689 11.4649 24.6728
977 2 0.129559 15.6015 24.5067
978 2 3.82567 15.4467 24.5648
979 2 8.02318 15.4998 24.5564
980 2 11.9373 15.5871 24.6108
981 2 15.8332 19.4604 24.7036
982 2 4.13614 19.4068 24.5487
983 2 8.00947 19.348 24.5697
984 2 11.8286 19.5149 24.5877
985 2 -0.00635969 23.1701 24.4857
986 2 3.96445 23.2154 24.6692
987 2 8.01332 23.5001 24.4737
988 2 12.0122 23.3618 24.8051
989 2 0.223913 27.4386 24.5372
990 2 3.93621 27.2968 24.5524
991 2 7.99323 27.2156 24.4551
992 2 12.0115 27.1521 24.4991