ITEM: TIMESTEP
17100
ITEM: NUMBER OF ATOMS
32000
ITEM: BOX BOUNDS xy xz yz pp pp pp
0.0000000000000000e+00 1.5832000000000001e+01 0.0000000000000000e+00
0.0000000000000000e+00 1.5831999999999999e+02 0.0000000000000000e+00
8.0904455886010851e-01 1.6016807344113812e+02 0.0000000000000000e+00
ITEM: ATOMS id type x y z
1 2 -0.0662706 157.859 160.079
2 2 4.08667 157.595 160.099
3 2 7.89799 157.79 159.743
4 2 11.8663 157.766 160.102
5 2 15.8529 3.49811 160.051
6 2 4.05542 3.21836 159.914
7 2 7.80014 3.33934 159.944
8 2 11.878 3.53636 160.047
9 2 0.127364 7.27036 160.133
10 2 3.98645 7.43014 159.679
11 2 7.95407 7.30069 159.856
12 2 11.7476 7.32835 159.92
13 2 -0.0134205 11.2717 159.711
14 2 4.01966 11.2301 159.701
15 2 7.8592 11.2855 159.658
16 2 11.808 11.2424 159.809
17 2 15.8218 15.0141 159.496
18 2 3.93897 14.9873 159.521
19 2 7.80805 14.9989 159.586
20 2 11.7828 15.1711 159.567
21 2 0.0450416 19.0275 159.767
22 2 3.90379 19.1348 159.634
23 2 7.88936 19.0612 159.8
24 2 11.7953 18.8341 159.801
25 2 15.775 23.0915 0.31785
26 2 3.94637 23.0987 159.788
27 2 7.87611 23.0239 159.796
28 2 11.8395 22.8795 159.924
29 2 15.6693 27.0584 159.943
30 2 4.02485 27.3495 159.906
31 2 7.61194 27.1501 160.059
32 2 11.6909 27.1049 160.048
33 2 15.8582 31.1551 160.177
34 2 4.00567 31.2167 159.816
35 2 7.84477 31.3103 160.209
36 2 11.7565 31.0915 0.704174
37 2 15.8373 35.1699 160.038
38 2 3.72043 35.191 0.738104
39 2 7.66494 35.3349 159.957
40 2 11.6699 35.0239 0.649094
41 2 -0.196736 39.1408 160.184
42 2 3.71034 39.3426 0.800686
43 2 7.82823 39.2139 0.817229
44 2 11.8556 39.0642 160.099
45 2 -0.0966007 43.271 0.879879
46 2 3.89158 43.2695 0.916208
47 2 7.85391 43.2716 0.512382
48 2 11.8541 43.2376 0.674125
49 2 15.8044 47.2357 0.885523
50 2 3.88578 47.3765 0.876226
51 2 7.82685 47.2665 0.956971
52 2 11.833 47.3261 0.790685
53 2 -0.162116 51.5402 0.932614
54 2 3.80624 51.2876 0.897664
55 2 7.85781 51.2312 0.933782
56 2 11.7343 51.3983 160.341
57 2 -0.233654 55.5917 1.0239
58 2 3.72423 55.2332 1.06411
59 2 7.90227 55.3539 1.08822
60 2 11.6502 55.2298 1.0397
61 2 -0.0646782 59.4214 1.17271
62 2 3.93337 59.2941 1.16347
63 2 8.01191 59.436 1.07744
64 2 11.807 59.4043 0.991954
65 2 -0.133744 63.6013 1.16261
66 2 3.78376 63.5033 1.16059
67 2 7.8283 63.545 1.01975
68 2 11.699 63.4315 1.11565
69 2 -0.345718 67.5106 1.17999
70 2 3.7734 67.7744 1.44906
71 2 7.8675 67.7303 1.26387
72 2 11.8157 67.4304 1.26996
73 2 15.9386 71.6078 1.23756
74 2 3.9605 71.791 1.5387
75 2 7.79668 71.6736 1.42159
76 2 11.6629 71.664 1.40034
77 2 -0.0612238 75.5862 1.38059
78 2 3.79718 75.555 1.3358
79 2 7.87438 75.7232 1.48389
80 2 12.0281 75.7291 1.59851
81 2 0.0948299 79.5668 1.46319
82 2 3.8717 79.6031 1.3721
83 2 7.74497 79.6546 1.42988
84 2 11.9015 79.5094 1.5682
85 2 0.0838773 83.3022 1.42622
86 2 4.08929 83.4732 1.4406
87 2 8.16295 83.4366 1.36017
88 2 12.0155 83.4004 1.52592
89 2 -0.139869 87.4885 1.46822
90 2 3.98299 87.3672 1.45216
91 2 7.87803 87.6053 1.17976
92 2 11.9768 87.4525 1.40059
93 2 -0.0390535 91.3993 1.34482
94 2 3.75186 91.418 1.52569
95 2 7.92959 91.2098 1.30527
96 2 11.9723 91.3817 1.50194
97 2 -0.00680544 95.3207 1.25408
98 2 3.95085 95.2275 1.41696
99 2 7.89556 95.0665 1.27197
100 2 11.993 95.2205 1.43372
101 2 -0.0218493 99.0985 1.26583
102 2 4.08942 99.0736 1.25879
103 2 7.90732 99.2087 1.407
104 2 11.7363 99.139 1.31021
105 2 15.748 102.924 1.14243
106 2 3.92993 103.108 1.16966
107 2 7.85313 102.931 1.19159
108 2 11.755 103.127 1.36717
109 2 15.7414 106.986 1.16348
110 2 3.9607 106.823 1.27859
111 2 7.82537 106.988 1.33401
112 2 11.8668 106.882 1.14823
113 2 -0.0554967 110.707 1.16173
114 2 3.90524 110.886 1.13642
115 2 7.91649 110.762 1.11591
116 2 11.8204 110.779 1.22215
117 2 -0.0642345 114.965 1.09689
118 2 3.98108 114.915 1.23303
119 2 7.87155 114.803 1.15544
120 2 11.9472 114.849 1.11466
121 2 15.636 118.703 1.0693
122 2 3.78928 118.864 1.14827
123 2 7.90169 118.808 1.08071
124 2 11.7012 118.706 160.443
125 2 0.117711 122.648 1.10209
126 2 3.77187 122.649 0.868746
127 2 7.80615 122.581 1.05658
128 2 12.0848 122.689 1.03447
129 2 -0.0463681 126.647 160.384
130 2 3.97355 126.489 160.425
131 2 7.8944 126.482 1.12966
132 2 11.9911 126.663 0.962333
133 2 0.114398 130.405 160.237
134 2 3.93368 130.458 160.386
135 2 7.98181 130.436 0.856898
136 2 12.0079 130.495 160.371
137 2 -0.143231 134.093 160.302
138 2 3.92084 134.354 160.26
139 2 7.94496 134.321 0.891243
140 2 11.8794 134.44 160.176
141 2 0.0589486 138.397 160.145
142 2 3.98753 138.148 160.279
143 2 7.81738 138.27 160.21
144 2 11.9289 138.258 0.89074
145 2 15.7911 142.054 160.151
146 2 3.93552 142.285 160.196
147 2 7.87569 142.065 160.287
148 2 11.8267 142.03 160.177
149 2 -0.261147 145.968 159.988
150 2 3.79546 145.988 160.006
151 2 7.91276 145.976 160.074
152 2 11.7433 145.884 160.112
153 2 15.7719 149.859 160.235
154 2 3.94306 149.758 159.995
155 2 7.90827 149.988 160.078
156 2 11.7307 149.976 160.06
157 2 15.8556 153.965 160.096
158 2 3.93976 153.766 160.188
159 2 7.887 153.889 160.017
160 2 11.8742 153.753 160.255
161 2 15.8777 157.839 4.52778
162 2 3.89272 157.851 4.64927
163 2 7.98697 157.741 4.50763
164 2 11.8062 157.778 4.72533
165 2 15.947 3.40151 4.4933
166 2 3.9338 3.56895 4.62296
167 2 7.83277 3.47534 4.54849
168 2 11.8668 3.20573 4.51253
169 2 15.841 7.43655 4.45307
170 2 4.05615 7.55282 4.33138
171 2 7.99089 7.37131 4.5398
172 2 11.7806 7.23005 4.55184
173 2 15.7937 11.3825 4.46142
174 2 3.94863 11.3134 4.46873
175 2 8.02864 11.3412 4.48559
176 2 11.7711 11.445 4.4321
177 2 15.6654 15.02 4.36494
178 2 3.97418 15.027 4.38848
179 2 7.99539 15.1322 4.33871
180 2 11.8007 15.2197 4.23519
181 2 -0.10297 18.9376 4.40946
182 2 4.06001 18.9173 4.18494
183 2 7.93715 18.9141 4.29683
184 2 11.9291 19.0891 4.34826
185 2 15.7993 23.0594 4.22672
186 2 3.82096 22.9815 4.46139
187 2 7.76465 23.0477 4.37778
188 2 11.7282 23.0752 4.50337
189 2 15.6239 26.9891 4.46712
190 2 4.01206 27.1062 4.35196
191 2 7.87467 27.0299 4.45366
192 2 11.7652 27.0544 4.43907
193 2 15.7403 30.993 4.66085
194 2 3.96862 31.2223 4.58785
195 2 7.57568 30.9999 4.53567
196 2 11.8141 31.0624 4.59951
197 2 -0.0799468 34.9965 4.62908
198 2 3.68049 35.1335 4.50212
199 2 7.81357 35.2947 4.62326
200 2 11.782 35.1632 4.54871
201 2 0.0273774 39.1232 4.64014
202 2 4.02721 39.4573 4.52017
203 2 7.99326 39.0912 4.49559
204 2 11.9005 39.1311 4.6129
205 2 0.0263239 43.2512 4.7527
206 2 3.96603 43.2529 4.85788
207 2 7.75662 43.0927 4.59406
208 2 11.7286 43.1006 4.55965
209 2 15.9348 47.2094 4.66343
210 2 3.90324 47.2741 4.82727
211 2 7.69476 47.1605 4.73367
212 2 11.8701 47.1785 4.62614
213 2 0.0835564 51.1065 4.90662
214 2 3.91515 51.303 4.87836
215 2 8.06977 51.2255 4.78415
216 2 11.8901 51.2685 5.03666
217 2 0.191335 55.3857 4.8209
218 2 4.08398 55.2788 4.92901
219 2 7.83374 55.2803 4.90524
220 2 12.0231 55.2881 5.02867
221 2 -0.0525327 59.4069 5.08444
222 2 4.06597 59.3383 4.81424
223 2 7.74831 59.4445 4.90262
224 2 11.8508 59.5032 4.99576
225 2 -0.14088 63.4073 5.17072
226 2 3.84063 63.3968 5.03277
227 2 7.7422 63.5398 5.0616
228 2 11.716 63.6735 5.18994
229 2 -0.0741742 67.4571 5.15414
230 2 3.86924 67.581 5.02288
231 2 7.97124 67.4669 5.23847
232 2 11.8763 67.5494 5.2326
233 2 -0.109857 71.5291 5.26947
234 2 4.04328 71.5801 5.16338
235 2 7.91285 71.3439 5.14766
236 2 11.8153 71.5074 5.26317
237 2 -0.0250399 75.6761 5.3134
238 2 3.81842 75.5335 5.32038
239 2 7.99448 75.5012 5.39542
240 2 11.9966 75.4954 5.25302
241 2 -0.0237714 79.7772 5.45355
242 2 4.03903 79.5773 5.10861
243 2 7.86845 79.3746 5.4012
244 2 11.769 79.5793 5.46982
245 2 15.6845 83.5466 5.3059
246 2 4.21347 83.7605 5.36298
247 2 7.99548 83.6329 5.36984
248 2 11.7897 83.3819 5.26519
249 2 0.123075 87.4547 5.41762
250 2 3.96721 87.4684 5.37677
251 2 7.89812 87.6684 5.3783
252 2 11.7814 87.4786 5.48472
253 2 -0.00955147 91.5327 5.43729
254 2 3.75252 91.2408 5.46628
255 2 7.92998 91.2945 5.39313
256 2 11.7614 91.4366 5.66176
257 2 0.127805 95.4273 5.24166
258 2 3.95741 95.2905 5.47403
259 2 7.77131 95.2862 5.50065
260 2 11.8453 95.3454 5.36654
261 2 -0.0472338 99.2506 5.33455
262 2 3.88282 99.2413 5.30591
263 2 7.91642 99.3459 5.40579
264 2 11.8602 99.3339 5.1908
265 2 15.8382 103.029 5.07667
266 2 3.86706 103.163 5.23194
267 2 7.93919 103.135 5.46122
268 2 11.8512 103.051 5.16787
269 2 -0.0822378 107.032 5.28786
270 2 3.79941 107.032 5.24995
271 2 7.74125 106.927 5.33268
272 2 11.8839 106.845 5.2446
273 2 -0.118357 111.012 5.26303
274 2 3.9234 110.926 5.19937
275 2 7.81533 111.123 5.11261
276 2 11.7488 111.062 5.32214
277 2 15.7181 114.81 5.06972
278 2 3.94411 114.768 5.17573
279 2 7.83812 115.01 4.97982
280 2 11.7615 114.868 5.06914
281 2 15.7429 118.846 5.19346
282 2 3.84019 118.789 5.12937
283 2 8.03896 118.812 4.99147
284 2 11.7935 118.665 5.01001
285 2 15.7538 122.805 4.98326
286 2 3.94535 122.636 5.09797
287 2 7.74275 122.738 5.02618
288 2 11.907 122.831 5.05803
289 2 -0.0291426 126.486 5.10362
290 2 3.84748 126.528 4.94786
291 2 7.99793 126.685 5.02196
292 2 11.7566 126.731 4.89329
293 2 -0.173928 130.23 4.99871
294 2 3.62352 130.333 4.9404
295 2 7.80395 130.415 4.91563
296 2 11.825 130.676 5.07303
297 2 -0.0247008 134.289 4.98884
298 2 3.9266 134.26 5.09337
299 2 7.78326 134.21 4.78529
300 2 11.8571 134.417 4.94131
301 2 15.845 138.123 4.78613
302 2 3.93116 138.402 4.95584
303 2 7.9125 138.276 4.76146
304 2 11.8322 138.188 4.74504
305 2 0.0418096 142.204 4.9232
306 2 4.03649 142.347 4.92237
307 2 7.94371 142.206 4.94882
308 2 11.9406 142.179 4.90945
309 2 15.638 146.09 4.8641
310 2 3.74974 146.103 4.96519
311 2 7.9714 145.946 4.72338
312 2 11.8483 146.12 4.82421
313 2 -0.0706746 150.034 4.71753
314 2 3.91029 150.061 4.60487
315 2 7.89279 149.918 4.739
316 2 11.7572 149.903 4.78167
317 2 15.8142 153.722 4.7266
318 2 3.69608 153.911 4.79879
319 2 7.83602 153.964 4.78107
320 2 11.6984 153.916 4.75084
321 2 15.9441 158.025 8.72796
322 2 3.97242 157.848 8.59235
323 2 7.92818 158.018 8.75016
324 2 12.0296 157.946 8.51821
325 2 16.1538 3.64419 8.27954
326 2 4.18555 3.53081 8.35251
327 2 7.99179 3.46817 8.71862
328 2 11.9917 3.48056 8.5778
329 2 0.0310378 7.36864 8.4598
330 2 3.92803 7.44926 8.55067
331 2 8.01512 7.47522 8.46492
332 2 11.8602 7.42465 8.63249
333 2 15.8891 11.4113 8.46427
334 2 3.85717 11.325 8.48454
335 2 7.805 11.2742 8.3907
336 2 12.0045 11.3818 8.47119
337 2 0.0226279 15.2755 8.58672
338 2 4.02415 15.3126 8.31078
339 2 8.00884 15.2775 8.59016
340 2 11.845 15.3511 8.59336
341 2 0.176555 19.1146 8.16727
342 2 3.93003 19.0459 8.36201
343 2 7.80078 19.0592 8.41115
344 2 11.941 19.1631 8.25132
345 2 0.0394428 23.0635 8.16378
346 2 4.06393 23.0503 8.31431
347 2 7.88466 22.9695 8.53746
348 2 11.7614 23.0097 8.47132
349 2 15.7373 27.1218 8.38604
350 2 3.77758 27.0078 8.28279
351 2 7.81275 27.0003 8.40054
352 2 11.7024 26.9084 8.53103
353 2 15.7504 30.9527 8.46197
354 2 3.988 31.0951 8.53735
355 2 7.71831 31.1315 8.30761
356 2 11.7221 31.0552 8.63015
357 2 15.864 35.0458 8.39789
358 2 4.03255 35.1826 8.50446
359 2 7.82154 35.1994 8.48677
360 2 11.6671 34.9877 8.52832
361 2 15.9168 39.1519 8.50389
362 2 3.88019 39.1675 8.56159
363 2 7.84286 39.1231 8.53995
364 2 11.8481 39.2153 8.47437
365 2 15.9465 43.1857 8.63417
366 2 4.10703 43.2363 8.66087
367 2 8.0441 43.083 8.37146
368 2 11.876 43.1142 8.57282
369 2 0.0267848 47.1068 8.80826
370 2 3.8409 47.1182 8.84286
371 2 8.0543 47.3003 8.58527
372 2 11.9727 47.2566 8.4415
373 2 0.182274 51.2958 8.73844
374 2 3.8083 51.2325 8.60109
375 2 7.94493 51.1724 8.66867
376 2 11.9548 51.3284 8.63495
377 2 0.0880812 55.1362 8.93158
378 2 4.0626 55.2671 8.90875
379 2 8.04632 55.3469 8.86534
380 2 11.8674 55.2798 8.79878
381 2 15.6021 59.4335 9.13339
382 2 3.9883 59.3845 8.92455
383 2 7.98273 59.4378 8.84995
384 2 11.8524 59.2685 8.86772
385 2 -0.10602 63.3135 9.07548
386 2 3.82714 63.5094 9.02211
387 2 7.73486 63.3902 8.85056
388 2 11.7797 63.3665 8.92504
389 2 -0.0676078 67.5396 9.20055
390 2 4.06295 67.3973 8.9475
391 2 8.14612 67.4916 8.97353
392 2 12.015 67.4161 9.11993
393 2 0.218276 71.3472 9.19724
394 2 4.11092 71.4487 9.20131
395 2 7.97401 71.3531 9.28027
396 2 11.924 71.6295 9.17294
397 2 0.154222 75.6194 8.93178
398 2 4.04532 75.4593 9.22657
399 2 7.79604 75.3916 9.17452
400 2 11.834 75.3619 9.31519
401 2 -0.112399 79.4843 9.30391
402 2 3.87403 79.4985 9.35293
403 2 7.92921 79.4444 9.31952
404 2 11.7612 79.41 9.42415
405 2 -0.125702 83.5166 9.33362
406 2 3.7947 83.5702 9.26715
407 2 7.96936 83.4335 9.39331
408 2 11.9718 83.5008 9.42944
409 2 -0.0394848 87.3577 9.4197
410 2 3.99838 87.3801 9.49426
411 2 7.81321 87.5202 9.26161
412 2 11.7038 87.5072 9.48539
413 2 -0.126309 91.3056 9.49862
414 2 3.7795 91.4323 9.48356
415 2 7.79543 91.4388 9.46568
416 2 11.6774 91.5529 9.3453
417 2 -0.246732 95.4674 9.41848
418 2 3.98298 95.2756 9.43327
419 2 7.70999 95.3531 9.38707
420 2 11.6616 95.3122 9.34774
421 2 15.7617 99.4124 9.52349
422 2 3.66711 99.1454 9.35314
423 2 7.72899 99.2018 9.41054
424 2 11.65 99.2845 9.43603
425 2 -0.0169841 103.17 9.25665
426 2 3.91912 103.064 9.23393
427 2 7.90253 103.195 9.33914
428 2 11.8885 103.413 9.157
429 2 15.7957 107.083 9.27952
430 2 3.87418 107.165 9.25505
431 2 7.91975 106.859 9.24378
432 2 12.1089 107.145 9.08666
433 2 -0.156189 111.274 9.25469
434 2 3.8551 110.959 9.49784
435 2 7.86128 110.847 9.27135
436 2 11.789 111.018 9.41297
437 2 -0.22213 114.944 9.15179
438 2 3.91599 114.897 9.22396
439 2 7.80106 114.876 9.29292
440 2 11.7468 114.816 9.02891
441 2 0.128899 118.631 8.98548
442 2 4.10003 118.765 9.0545
443 2 7.92367 118.899 9.02058
444 2 11.8795 118.712 9.08901
445 2 15.8187 122.44 9.10076
446 2 4.01384 122.614 9.1835
447 2 8.09303 122.682 9.20038
448 2 11.9001 122.646 9.19915
449 2 -0.104549 126.602 9.14627
450 2 4.19685 126.605 8.91459
451 2 7.98107 126.589 8.98575
452 2 11.8502 126.592 9.1213
453 2 0.0524567 130.503 9.12505
454 2 4.03244 130.551 9.06253
455 2 7.8797 130.423 8.84646
456 2 11.7677 130.632 9.12004
457 2 -0.0156922 134.473 9.18637
458 2 4.02153 134.589 9.07301
459 2 7.83101 134.401 8.93504
460 2 11.7209 134.46 8.94558
461 2 -0.0849513 138.335 9.00733
462 2 3.94495 138.474 8.89459
463 2 7.88424 138.404 8.88761
464 2 11.8798 138.247 8.88031
465 2 -0.0443208 142.32 8.80903
466 2 3.78552 142.214 8.81126
467 2 8.1032 142.183 8.90935
468 2 11.8872 142.254 8.71984
469 2 15.8072 146.287 8.73236
470 2 4.14933 146.201 8.83753
471 2 8.13929 146.22 8.93674
472 2 11.9157 146.232 8.93048
473 2 16.0552 150.138 8.87057
474 2 4.18588 149.851 8.70637
475 2 8.00766 150.123 8.74107
476 2 12.0595 150.143 8.74578
477 2 15.7979 154.063 8.85374
478 2 3.89472 153.996 8.83085
479 2 7.83816 153.878 8.71113
480 2 12.0012 154.039 8.74821
481 2 15.8874 158.003 12.7591
482 2 3.95229 157.757 12.5838
483 2 8.01218 157.897 12.718
484 2 11.8968 158.079 12.7136
485 2 15.8893 3.56002 12.6154
486 2 4.00991 3.47277 12.5168
487 2 8.06411 3.5673 12.461
488 2 11.9465 3.53088 12.658
489 2 0.00087617 7.32885 12.4275
490 2 4.06518 7.4463 12.6119
491 2 7.92227 7.46857 12.6179
492 2 11.9958 7.44155 12.5278
493 2 15.9208 11.5534 12.3761
494 2 4.24076 11.4845 12.4844
495 2 7.99364 11.5134 12.5493
496 2 11.8932 11.3265 12.5866
497 2 -0.0152851 15.363 12.4491
498 2 3.95438 15.4178 12.4837
499 2 7.91119 15.2963 12.5381
500 2 11.9685 15.4341 12.4662
501 2 15.9031 19.2746 12.3352
502 2 3.68525 19.1237 12.411
503 2 7.79894 19.1519 12.4452
504 2 11.9542 19.2617 12.3614
505 2 15.9125 23.0958 12.1581
506 2 3.895 22.9505 12.2205
507 2 7.82199 22.8648 12.3688
508 2 11.814 23.0545 12.378
509 2 15.8626 26.9756 12.3522
510 2 3.88238 26.867 12.3494
511 2 7.77249 27.1673 12.2791
512 2 11.7899 26.958 12.5256
513 2 -0.013265 30.8926 12.3676
514 2 4.02607 30.9933 12.6435
515 2 8.00252 30.9502 12.4451
516 2 11.7939 30.9682 12.3755
517 2 15.6439 34.999 12.2815
518 2 3.86768 34.9853 12.4243
519 2 7.85196 35.122 12.4948
520 2 11.7714 35.1527 12.3315
521 2 15.7584 39.0758 12.5987
522 2 3.92161 39.2886 12.5604
523 2 7.94405 39.1184 12.4565
524 2 11.9481 39.1174 12.2173
525 2 15.8187 43.0453 12.504
526 2 3.91025 43.2034 12.6102
527 2 8.03999 43.0049 12.4369
528 2 11.6165 43.2142 12.5501
529 2 15.6649 47.1639 12.5857
530 2 3.86844 47.0957 12.6728
531 2 8.08652 47.1283 12.5184
532 2 11.9037 47.2267 12.5104
533 2 -0.0516765 51.2137 12.8576
534 2 3.9492 51.1189 12.6418
535 2 8.04272 51.1053 12.5847
536 2 11.8802 51.0854 12.7173
537 2 -0.00265057 55.2139 12.5371
538 2 3.9616 55.2544 12.7583
539 2 7.71409 55.1799 12.7408
540 2 11.8515 55.1984 12.9031
541 2 0.102295 59.2462 13.0442
542 2 3.98982 59.2438 12.7126
543 2 7.78787 59.4852 12.768
544 2 11.9498 59.372 13.0737
545 2 0.0804363 63.1176 13.0133
546 2 3.96947 63.4614 12.8609
547 2 7.82842 63.4508 13.0146
548 2 11.7416 63.2954 12.643
549 2 -0.0442706 67.3024 13.1537
550 2 3.88727 67.2715 12.9931
551 2 7.86066 67.2524 12.9286
552 2 11.8757 67.3406 12.7998
553 2 -0.0212445 71.3669 13.0639
554 2 3.94506 71.2871 13.0794
555 2 7.78677 71.2447 13.1252
556 2 11.8641 71.3871 13.1193
557 2 -0.00388612 75.3745 13.2342
558 2 3.84467 75.2793 13.0861
559 2 7.91864 75.2886 13.1403
560 2 11.8058 75.4365 13.1968
561 2 -0.0420622 79.2755 13.0748
562 2 3.99304 79.2022 13.2782
563 2 7.70978 79.4809 13.2143
564 2 11.6615 79.3956 13.158
565 2 -0.0481768 83.2649 13.1413
566 2 3.90987 83.2854 13.1102
567 2 7.6883 83.3941 13.1486
568 2 11.6734 83.4387 13.1645
569 2 0.0556105 87.5396 13.3657
570 2 3.91977 87.5467 13.4759
571 2 7.86547 87.3973 13.3707
572 2 11.9343 87.672 13.4563
573 2 -0.102491 91.4509 13.4408
574 2 3.78204 91.6355 13.3198
575 2 7.81992 91.5524 13.4864
576 2 11.8503 91.5337 13.4619
577 2 -0.304284 95.4669 13.3862
578 2 3.67429 95.5367 13.4288
579 2 7.61384 95.3622 13.4224
580 2 11.6192 95.5152 13.3369
581 2 -0.198954 99.2871 13.3426
582 2 3.82339 99.2134 13.5202
583 2 7.81153 99.2285 13.4543
584 2 11.568 99.3864 13.4828
585 2 -0.147683 103.164 13.343
586 2 3.66421 103.178 13.3661
587 2 7.79241 103.176 13.4198
588 2 11.7685 103.231 13.5954
589 2 15.8949 107.197 13.1936
590 2 3.88211 107.01 13.3129
591 2 7.72289 107.077 13.2386
592 2 11.736 107.281 13.2285
593 2 0.0738305 111.074 13.3117
594 2 3.83523 110.941 13.4126
595 2 7.80435 111.119 13.3127
596 2 11.9209 110.888 13.4389
597 2 15.7788 114.932 13.3782
598 2 3.81102 114.879 13.1838
599 2 7.90956 115.142 13.2921
600 2 11.5887 114.776 12.9547
601 2 15.8746 118.839 13.285
602 2 4.0122 118.727 13.0654
603 2 8.06661 118.603 12.9515
604 2 11.7091 118.76 13.0989
605 2 0.248434 122.749 13.1224
606 2 3.96499 122.686 13.1741
607 2 7.89008 122.629 13.1171
608 2 12.0085 122.601 13.1118
609 2 15.9929 126.584 13.0615
610 2 4.08321 126.66 13.0804
611 2 7.93825 126.835 12.9928
612 2 11.7709 126.493 12.8903
613 2 15.7607 130.516 12.9602
614 2 3.97335 130.58 13.0333
615 2 7.91078 130.625 13.0809
616 2 11.9451 130.541 13.1637
617 2 -0.0896269 134.371 13.0523
618 2 4.12698 134.503 13.0364
619 2 7.88727 134.433 13.0291
620 2 11.97 134.562 12.9072
621 2 -0.0634454 138.537 13.0547
622 2 4.0702 138.406 12.8455
623 2 7.93103 138.431 13.0518
624 2 11.7882 138.435 12.9268
625 2 15.7863 142.466 12.8164
626 2 3.88654 142.377 12.8342
627 2 7.81192 142.31 12.9885
628 2 11.7836 142.327 12.9569
629 2 0.0144982 146.274 12.8802
630 2 4.05599 145.934 12.7711
631 2 8.02139 146.103 12.7397
632 2 11.9593 146.323 12.8442
633 2 15.8051 150.008 12.8324
634 2 4.14306 150.186 12.878
635 2 7.92779 150.133 12.9247
636 2 12 150.044 12.9033
637 2 15.8286 154.096 12.8272
638 2 3.87314 153.896 12.7465
639 2 7.88413 154.034 12.7096
640 2 11.7256 154.125 12.6755
641 2 15.9615 157.98 16.6572
642 2 4.08965 157.885 16.7219
643 2 7.84995 157.889 16.7078
644 2 11.8281 157.915 16.6974
645 2 15.8521 3.60966 16.7399
646 2 4.07616 3.59074 16.4921
647 2 7.96623 3.56164 16.5407
648 2 11.9214 3.63057 16.588
649 2 0.246237 7.60134 16.7401
650 2 4.14746 7.52434 16.5182
651 2 7.92542 7.69817 16.6166
652 2 11.8702 7.81166 16.5241
653 2 15.9543 11.3494 16.5644
654 2 4.0924 11.4351 16.6416
655 2 8.10724 11.398 16.5404
656 2 12.0273 11.4376 16.408
657 2 -0.108504 15.4801 16.5386
658 2 3.89585 15.5295 16.6799
659 2 7.87845 15.3658 16.5306
660 2 11.7409 15.2781 16.4684
661 2 15.9762 19.3427 16.621
662 2 4.01884 19.365 16.5392
663 2 8.07229 19.3152 16.3506
664 2 12.234 19.1782 16.3658
665 2 15.8258 23.3354 16.2931
666 2 3.92709 23.1128 16.5112
667 2 8.05488 23.0768 16.365
668 2 11.94 23.2068 16.337
669 2 0.0396822 27.1121 16.4286
670 2 3.99696 26.9917 16.3098
671 2 8.02836 26.9494 16.4218
672 2 11.966 27.0911 16.4182
673 2 15.884 30.9804 16.4514
674 2 4.06259 31.0144 16.1517
675 2 7.96449 30.9088 16.3139
676 2 12.002 31.0677 16.3794
677 2 15.8078 34.8549 16.4293
678 2 3.7808 34.9782 16.4012
679 2 7.81983 34.9272 16.267
680 2 11.8237 34.8329 16.4453
681 2 -0.129476 38.9118 16.2344
682 2 3.82876 38.8719 16.4012
683 2 7.89209 38.757 16.2843
684 2 12.0036 38.876 16.3042
685 2 15.8053 43.0797 16.4632
686 2 4.05788 43.0476 16.4796
687 2 7.88119 42.9605 16.4537
688 2 11.8812 43.0139 16.3006
689 2 -0.0121966 47.0329 16.6939
690 2 3.95187 46.999 16.5466
691 2 7.8914 47.0131 16.5454
692 2 11.7915 46.964 16.5676
693 2 15.8728 51.109 16.6135
694 2 3.90557 51.1162 16.6185
695 2 7.90647 50.9837 16.394
696 2 12.0037 51.0591 16.6133
697 2 -0.0518069 55.269 16.6328
698 2 3.90507 55.1382 16.4562
699 2 7.71485 55.0515 16.7931
700 2 11.5436 55.2918 16.6958
701 2 0.0473976 59.0429 16.763
702 2 4.03395 59.2491 16.8322
703 2 8.02103 58.9593 16.7868
704 2 11.8847 59.1093 16.8376
705 2 -0.0208097 63.1898 16.9681
706 2 3.98118 63.142 16.8801
707 2 7.91141 63.0272 16.988
708 2 12.0171 63.2146 16.9459
709 2 -0.124628 67.1542 16.9741
710 2 3.74158 67.2333 16.901
711 2 7.95336 67.1233 16.6823
712 2 11.9238 67.1775 16.9486
713 2 0.173635 71.1865 17.0145
714 2 4.01515 71.2565 17.006
715 2 7.8493 71.2181 16.9299
716 2 11.8217 71.1862 17.1104
717 2 -0.018407 75.2634 17.0705
718 2 3.87801 75.3573 17.1295
719 2 7.86927 75.2612 17.0209
720 2 11.7828 75.2779 17.1056
721 2 -0.0975077 79.414 16.894
722 2 3.84156 79.3105 17.0797
723 2 7.75828 79.1102 17.0552
724 2 11.7982 79.3333 16.9138
725 2 -0.190637 83.2858 17.1551
726 2 3.77724 83.2771 17.2836
727 2 7.94563 83.41 17.145
728 2 11.9171 83.3284 17.1885
729 2 0.082507 87.1669 17.0987
730 2 3.91243 87.3605 17.3368
731 2 7.7474 87.4209 17.1506
732 2 11.5623 87.1853 17.1496
733 2 -0.218775 91.2676 17.4321
734 2 3.86857 91.3214 17.4613
735 2 7.91754 91.4488 17.278
736 2 11.8711 91.5165 17.5663
737 2 -0.13837 95.3847 17.4686
738 2 3.81422 95.3383 17.3141
739 2 7.74639 95.3907 17.4785
740 2 11.7369 95.4929 17.4475
741 2 15.7125 99.3383 17.4603
742 2 3.76529 99.3403 17.5731
743 2 7.77471 99.2929 17.2877
744 2 11.7762 99.3267 17.366
745 2 15.7733 103.243 17.3052
746 2 3.74303 102.964 17.2126
747 2 7.76504 103.366 17.3481
748 2 11.7186 103.157 17.4141
749 2 15.7087 106.978 17.3973
750 2 3.9115 107.093 17.3427
751 2 7.90645 107.332 17.5607
752 2 11.6708 107.019 17.3739
753 2 -0.0191298 111.076 17.2324
754 2 3.88597 111.034 17.0394
755 2 7.85685 111.067 17.5718
756 2 11.9415 110.898 17.1784
757 2 -0.0160568 115.022 17.32
758 2 3.90727 114.984 17.3782
759 2 7.97232 114.985 17.2967
760 2 11.8534 114.808 17.2131
761 2 -0.198552 118.881 17.2531
762 2 3.67034 118.93 17.2332
763 2 7.92594 118.835 17.3548
764 2 11.8559 118.968 17.225
765 2 -0.0234389 122.816 17.217
766 2 4.04266 122.813 17.0125
767 2 7.91203 122.811 17.1466
768 2 11.8201 122.76 17.1327
769 2 0.0509081 126.517 17.1476
770 2 4.06923 126.711 17.2064
771 2 7.99884 126.823 17.021
772 2 11.7674 126.617 17.0416
773 2 0.084689 130.598 17.1609
774 2 3.9142 130.559 17.2135
775 2 7.99242 130.752 17.1514
776 2 12.0845 130.55 17.1936
777 2 0.120633 134.385 16.8575
778 2 3.9943 134.63 17.0082
779 2 7.73298 134.565 17.0431
780 2 11.9781 134.336 16.8429
781 2 15.7028 138.389 16.9859
782 2 3.93681 138.513 16.809
783 2 8.06717 138.458 16.9622
784 2 12.0734 138.368 16.9562
785 2 15.8066 142.286 16.935
786 2 3.91671 142.322 16.9737
787 2 7.80612 142.489 16.9805
788 2 11.9181 142.301 16.9729
789 2 15.806 146.4 16.85
790 2 3.84046 146.168 16.8685
791 2 7.78594 146.309 16.7845
792 2 11.8641 146.113 16.6413
793 2 16.0895 150.152 16.8389
794 2 4.02261 150.179 16.894
795 2 8.0248 150.147 16.8772
796 2 11.9555 150.241 16.7498
797 2 -0.0404566 154.096 16.5389
798 2 4.19055 154.183 16.8354
799 2 7.95463 154.227 16.7588
800 2 11.8156 154.034 16.6365
801 2 0.196066 158.13 20.616
802 2 3.96763 158.028 20.7536
803 2 8.08772 158.061 20.8094
804 2 11.9723 158.041 20.6753
805 2 15.9209 3.77395 20.6308
806 2 3.9278 3.80786 20.5941
807 2 7.93474 3.57696 20.5477
808 2 12.1147 3.66433 20.5021
809 2 0.0845832 7.59796 20.6775
810 2 4.03866 7.7644 20.515
811 2 7.94529 7.53405 20.3887
812 2 11.9402 7.54015 20.5184
813 2 15.7755 11.6211 20.6471
814 2 4.14493 11.7236 20.6773
815 2 7.92958 11.5292 20.5563
816 2 11.8274 11.4413 20.654
817 2 15.8958 15.384 20.7012
818 2 4.20238 15.4312 20.2898
819 2 8.11578 15.3903 20.6255
820 2 12.0283 15.5108 20.6141
821 2 15.891 19.3896 20.4731
822 2 3.94174 19.334 20.6698
823 2 8.06872 19.3223 20.5467
824 2 11.9386 19.4278 20.6429
825 2 15.9862 23.1913 20.5787
826 2 4.05705 23.0926 20.5226
827 2 7.94863 23.2979 20.341
828 2 11.8791 23.092 20.4191
829 2 0.0971959 27.1832 20.3899
830 2 4.00183 27.1261 20.5367
831 2 7.97308 27.1829 20.3342
832 2 11.8488 27.2138 20.5884
833 2 0.13549 30.9139 20.4419
834 2 4.06688 31.004 20.2219
835 2 7.95724 30.9009 20.2429
836 2 11.7091 31.0741 20.4013
837 2 15.9546 34.9734 20.4059
838 2 4.2706 34.8714 20.2994
839 2 7.93167 34.6861 20.2898
840 2 11.7494 34.9665 20.4034
841 2 -0.109783 38.9943 20.2226
842 2 3.89341 38.7994 20.2606
843 2 7.85719 38.8385 20.3486
844 2 11.7604 38.8202 20.3259
845 2 -0.118126 42.9229 20.2772
846 2 3.78825 42.732 20.2868
847 2 7.92568 42.7863 20.4314
848 2 11.9176 43.1642 20.2915
849 2 -0.0696732 46.9034 20.3808
850 2 3.88945 47.0203 20.3993
851 2 7.87352 46.8784 20.3796
852 2 11.6225 47.1842 20.4869
853 2 -0.350596 51.0486 20.4568
854 2 3.8077 51.0095 20.5422
855 2 7.59729 51.2506 20.581
856 2 11.7382 51.0497 20.4815
857 2 -0.101376 55.0199 20.7253
858 2 3.91029 55.1778 20.5035
859 2 7.88573 55.0963 20.672
860 2 11.8565 55.0571 20.5784
861 2 15.9568 59.1707 20.6893
862 2 4.09406 59.0568 20.6642
863 2 7.96314 59.2587 20.9992
864 2 11.9953 59.0131 20.8404
865 2 15.8513 63.0369 20.8003
866 2 4.0454 63.0917 20.8264
867 2 8.04157 63.1576 20.7634
868 2 11.9045 63.2387 20.7063
869 2 0.0645351 67.1001 21.0025
870 2 3.85849 66.9877 20.877
871 2 7.77538 67.3295 20.687
872 2 11.8084 67.0397 20.8016
873 2 -0.286989 71.1243 20.9612
874 2 3.96822 71.1787 21.0616
875 2 7.74828 71.2148 20.8885
876 2 11.8247 71.0837 20.9076
877 2 0.00605369 75.4929 20.8473
878 2 3.88326 75.2112 21.0934
879 2 7.7965 75.133 20.9606
880 2 11.6765 75.0243 21.0242
881 2 -0.142988 79.2617 21.0409
882 2 3.83662 79.2141 21.0619
883 2 7.81197 79.1901 21.0199
884 2 11.673 79.1416 21.0159
885 2 0.0518064 83.236 21.0221
886 2 3.96723 83.2231 21.1234
887 2 7.79768 83.2982 21.0273
888 2 11.9649 83.0443 21.2098
889 2 0.061763 87.1653 21.2477
890 2 3.9403 87.2725 21.3169
891 2 8.12911 87.28 21.1565
892 2 11.9352 87.4292 21.2037
893 2 -0.0763936 91.3022 21.1341
894 2 3.90886 91.2012 21.1914
895 2 7.94522 91.3202 21.3034
896 2 12.0419 91.4022 21.2252
897 2 15.7326 95.3553 21.2985
898 2 4.08475 95.3404 21.224
899 2 8.06888 95.5362 21.4461
900 2 11.8978 95.3049 21.378
901 2 -0.131395 99.3496 21.4459
902 2 3.90806 99.2588 21.3163
903 2 7.90515 99.4144 21.4136
904 2 11.7344 99.3769 21.3315
905 2 15.8774 103.365 21.4188
906 2 3.97027 103.159 21.5788
907 2 7.83258 103.169 21.4474
908 2 11.7903 103.304 21.4293
909 2 0.0609423 107.244 21.1281
910 2 3.68553 107.182 21.1435
911 2 7.90538 107.01 21.3538
912 2 11.9045 107.177 21.4253
913 2 15.8353 111.122 21.3191
914 2 3.83434 111.067 21.3015
915 2 8.03984 111.068 21.4344
916 2 11.8317 111.057 21.4955
917 2 -0.0285285 114.943 21.3141
918 2 3.96872 114.995 21.1841
919 2 7.95627 114.89 21.2511
920 2 11.7935 115.019 21.3007
921 2 -0.0512304 118.862 21.2792
922 2 3.96951 118.825 21.3581
923 2 7.73631 118.975 21.2446
924 2 11.9362 118.893 21.2791
925 2 -0.0600357 122.877 21.2652
926 2 3.67299 122.719 21.061
927 2 7.80769 122.756 21.1806
928 2 11.79 122.631 21.2921
929 2 0.0307436 126.798 21.1472
930 2 4.09308 126.716 21.0174
931 2 7.96694 126.61 21.1082
932 2 11.8757 126.722 21.1135
933 2 0.164053 130.589 21.1386
934 2 4.01704 130.567 21.2464
935 2 8.04279 130.676 21.1661
936 2 11.8868 130.502 21.0702
937 2 15.8703 134.502 21.0517
938 2 4.04074 134.681 21.0298
939 2 8.02375 134.588 21.1364
940 2 11.8639 134.815 20.9611
941 2 15.7834 138.457 20.9364
942 2 3.83819 138.459 20.7509
943 2 7.83854 138.517 21.0812
944 2 11.8662 138.548 20.9091
945 2 15.7679 142.484 21.0485
946 2 3.74318 142.429 21.0549
947 2 7.84542 142.458 20.87
948 2 11.9419 142.533 20.9636
949 2 -0.0878243 146.458 20.8949
950 2 3.76614 146.088 20.605
951 2 8.07348 146.437 20.9643
952 2 11.8671 146.354 20.9031
953 2 15.9459 150.231 20.8579
954 2 3.98588 150.294 20.9411
955 2 7.98463 150.089 20.9528
956 2 12.0262 150.221 20.7148
957 2 0.0513717 154.173 20.7617
958 2 3.94025 154.023 20.8089
959 2 7.95853 154.09 20.8123
960 2 12.0009 154.031 20.7272
961 2 0.185307 158.028 24.6274
962 2 4.046 158.16 24.8737
963 2 7.95296 158.393 24.7256
964 2 12.014 158.146 24.7291
965 2 15.9918 3.74726 24.6324
966 2 3.95137 3.88015 24.717
967 2 7.79431 3.81407 24.5634
968 2 12.1196 3.81738 24.6726
969 2 0.0860839 7.60881 24.5694
970 2 4.06092 7.77822 24.4335
971 2 8.10021 7.7655 24.5727
972 2 11.8996 7.62985 24.5784
973 2 0.215663 11.5795 24.4143
974 2 3.93565 11.4485 24.6343
975 2 8.00814 11.5659 24.5491
976 2 11.7259 11.7348 24.5837
977 2 -0.0143994 15.5078 24.7157
978 2 4.08135 15.5399 24.5649
979 2 7.95407 15.54 24.6894
980 2 11.9766 15.5231 24.6346
981 2 16.0503 19.3527 24.2984
982 2 4.01722 19.4918 24.42
983 2 7.89187 19.4929 24.5512
984 2 11.9845 19.2605 24.6558
985 2 0.0481236 23.426 24.5907
986 2 4.03765 23.4926 24.4385
987 2 8.0472 23.3849 24.4764
988 2 11.941 23.2901 24.3524
989 2 -0.185906 26.9958 24.3682
990 2 4.03708 27.1973 24.562
991 2 8.02133 27.3495 24.4805