ITEM: TIMESTEP
17200
ITEM: NUMBER OF ATOMS
32000
ITEM: BOX BOUNDS xy xz yz pp pp pp
0.0000000000000000e+00 1.5832000000000001e+01 0.0000000000000000e+00
0.0000000000000000e+00 1.5831999999999999e+02 0.0000000000000000e+00
8.0753399224995803e-01 1.6016958400774823e+02 0.0000000000000000e+00
ITEM: ATOMS id type x y z
1 2 0.0995204 157.844 159.915
2 2 3.82254 157.861 159.765
3 2 7.80093 157.702 160.158
4 2 11.9 157.792 159.935
5 2 15.8512 3.38874 159.879
6 2 3.93674 3.45218 159.951
7 2 7.98948 3.31302 159.946
8 2 11.7462 3.20156 159.979
9 2 0.00727872 7.46223 159.679
10 2 3.96897 7.28057 159.977
11 2 7.85106 7.21053 159.841
12 2 12.0472 7.28013 159.902
13 2 0.0912013 11.2043 159.908
14 2 3.95069 11.11 159.617
15 2 7.92183 10.9969 159.689
16 2 11.9844 11.0699 159.81
17 2 15.8937 15.0258 159.846
18 2 3.87124 15.0582 159.738
19 2 7.92517 15.0244 159.708
20 2 11.7251 14.9369 159.526
21 2 -0.0961221 19.0557 159.863
22 2 3.88971 18.8785 159.891
23 2 7.86883 19.1533 159.811
24 2 11.9516 19.2846 159.782
25 2 15.5426 23.1571 0.47426
26 2 3.64204 23.0422 159.718
27 2 7.80211 23.176 159.809
28 2 11.7224 23.1892 159.692
29 2 15.5264 27.0494 160.005
30 2 3.66248 27.1541 160.008
31 2 8.07937 27.1354 159.766
32 2 11.6839 27.1959 159.985
33 2 15.5935 31.0271 159.992
34 2 3.87148 31.3106 160.178
35 2 7.78039 31.1781 159.802
36 2 11.7977 31.148 0.568104
37 2 15.5553 35.1471 160.069
38 2 3.97522 35.1677 0.547801
39 2 8.06158 35.1247 159.998
40 2 11.8927 35.2647 0.760602
41 2 0.0504874 39.3455 159.911
42 2 3.91567 39.1718 0.622286
43 2 7.77956 39.1198 0.589582
44 2 11.6577 39.5189 160.178
45 2 -0.123737 43.2991 0.617542
46 2 3.86278 43.3494 0.556537
47 2 7.72839 43.3677 0.813519
48 2 11.8015 43.3277 1.00341
49 2 15.87 47.2751 0.987977
50 2 3.99388 47.2571 0.805996
51 2 7.95421 47.4302 0.80145
52 2 11.9216 47.336 0.966566
53 2 -0.225909 51.2144 1.00246
54 2 3.82784 51.4303 0.843911
55 2 7.78561 51.3635 1.01152
56 2 11.716 51.2625 160.21
57 2 -0.145666 55.2676 1.11541
58 2 4.07383 55.4664 0.910759
59 2 7.87076 55.2567 1.06711
60 2 11.9821 55.4587 1.12882
61 2 -0.0969249 59.5107 1.33275
62 2 3.84159 59.5244 1.15737
63 2 7.96486 59.4347 1.1236
64 2 11.9683 59.3706 1.2038
65 2 -0.199361 63.5122 1.22504
66 2 3.81389 63.6137 1.20912
67 2 7.82441 63.5594 1.45345
68 2 11.7301 63.6204 1.28815
69 2 -0.0835861 67.741 1.4206
70 2 3.81695 67.5459 1.09896
71 2 7.81694 67.352 1.27923
72 2 11.6111 67.5686 1.19403
73 2 15.6154 71.592 1.42019
74 2 3.85339 71.7295 1.38579
75 2 7.73493 71.7155 1.34589
76 2 11.6689 71.5374 1.31853
77 2 -0.124146 75.6411 1.39331
78 2 3.90829 75.685 1.36428
79 2 7.73093 75.8065 1.26618
80 2 11.6555 75.6354 1.32999
81 2 -0.0368358 79.7154 1.43993
82 2 3.86564 79.4954 1.35351
83 2 7.99099 79.5906 1.38338
84 2 11.959 79.6339 1.20414
85 2 0.166063 83.7016 1.31776
86 2 4.01838 83.6758 1.42468
87 2 7.9453 83.5999 1.56205
88 2 11.9115 83.5091 1.31579
89 2 0.0665566 87.4958 1.23648
90 2 3.99273 87.5803 1.37625
91 2 8.02255 87.318 1.38316
92 2 11.8832 87.3547 1.38271
93 2 -0.121181 91.2784 1.35841
94 2 4.07341 91.3997 1.15865
95 2 7.9247 91.3638 1.38502
96 2 11.8273 91.3678 1.27723
97 2 -0.119895 95.1302 1.4154
98 2 4.03302 95.1967 1.30192
99 2 7.93298 95.2569 1.45144
100 2 11.7196 95.2583 1.31442
101 2 0.254395 99.1065 1.36632
102 2 4.00505 99.1614 1.31865
103 2 7.91342 99.1308 1.1878
104 2 11.855 99.1553 1.30213
105 2 15.9162 102.977 1.25568
106 2 4.08939 103.02 1.31062
107 2 7.98315 103.128 1.14712
108 2 11.9016 103.091 1.1742
109 2 15.9526 106.822 1.18858
110 2 3.93246 106.976 1.13392
111 2 7.99873 106.958 1.15939
112 2 11.8247 106.963 1.27445
113 2 -0.0643502 110.882 1.23896
114 2 3.92567 110.79 1.29342
115 2 7.81285 110.928 1.14039
116 2 11.9521 110.793 1.00073
117 2 -0.086908 114.532 1.22194
118 2 3.81302 114.728 1.08976
119 2 7.89885 114.707 1.12626
120 2 11.7207 114.806 0.878451
121 2 15.8043 118.652 1.09848
122 2 3.9521 118.566 1.04346
123 2 7.89931 118.606 1.18375
124 2 12.0037 118.863 160.42
125 2 -0.127552 122.601 1.19015
126 2 3.93159 122.426 1.25179
127 2 7.94062 122.679 1.1451
128 2 11.8538 122.618 0.799188
129 2 0.0441708 126.366 160.477
130 2 4.08833 126.433 160.289
131 2 8.04033 126.521 0.978495
132 2 11.6669 126.439 1.04514
133 2 -0.157774 130.427 160.482
134 2 3.80237 130.543 160.248
135 2 7.73334 130.403 1.09051
136 2 11.7116 130.57 160.321
137 2 0.0785649 134.635 160.183
138 2 3.98726 134.515 160.256
139 2 8.0325 134.313 0.954338
140 2 11.9275 134.432 160.421
141 2 0.0901654 138.197 160.253
142 2 3.96368 138.347 160.231
143 2 8.04489 138.185 160.259
144 2 11.8967 138.332 0.75026
145 2 15.7737 142.137 160.209
146 2 3.89131 141.917 160.104
147 2 7.79433 142.136 159.811
148 2 11.7869 142.229 160.18
149 2 -0.00682071 145.993 160.239
150 2 3.8744 145.929 160.237
151 2 7.73811 146.077 160.09
152 2 11.9094 146.03 160.159
153 2 15.8268 149.934 160.033
154 2 3.89709 149.985 160.275
155 2 7.94053 149.855 160.194
156 2 11.9866 149.921 160.11
157 2 15.7999 153.841 159.922
158 2 3.93967 153.794 159.919
159 2 7.84302 153.802 160.087
160 2 11.8534 153.989 159.934
161 2 15.8704 157.781 4.69088
162 2 4.06628 157.754 4.64782
163 2 7.83598 157.793 4.78841
164 2 11.8667 157.744 4.60752
165 2 15.8507 3.54814 4.66634
166 2 4.10134 3.3273 4.49942
167 2 8.00845 3.43498 4.75651
168 2 11.9505 3.50086 4.50172
169 2 15.7901 7.38624 4.67823
170 2 4.09551 7.34836 4.47738
171 2 7.97647 7.36337 4.64167
172 2 11.9225 7.30575 4.59936
173 2 15.6623 11.2393 4.63651
174 2 4.16158 11.3265 4.38048
175 2 7.95054 11.445 4.52814
176 2 11.7901 10.9132 4.39558
177 2 15.9265 15.1552 4.3183
178 2 4.06432 15.148 4.26234
179 2 8.02855 15.2396 4.49102
180 2 11.8514 15.0782 4.46788
181 2 -0.00417075 19.1166 4.32428
182 2 3.84745 19.0836 4.43757
183 2 7.75063 19.0778 4.20565
184 2 11.8195 18.959 4.38579
185 2 15.723 22.9685 4.38782
186 2 3.92207 23.0445 4.18898
187 2 7.75615 22.9516 4.30103
188 2 11.7433 22.949 4.36982
189 2 15.8124 27.0095 4.43791
190 2 3.75924 27.1096 4.44268
191 2 7.53484 27.0852 4.42202
192 2 11.7019 27.1367 4.57936
193 2 15.5325 31.1429 4.63953
194 2 3.63369 31.025 4.52227
195 2 7.85777 31.3052 4.58098
196 2 11.5333 31.167 4.66599
197 2 -0.272575 35.1435 4.40904
198 2 3.96519 35.1764 4.61089
199 2 7.72532 35.1236 4.38265
200 2 11.7948 35.0836 4.64102
201 2 -0.0395115 39.3261 4.45105
202 2 3.77669 38.9914 4.65325
203 2 7.75253 39.2328 4.59321
204 2 11.9115 39.4105 4.67248
205 2 -0.0103791 43.245 4.50566
206 2 4.03346 43.1097 4.66651
207 2 7.95665 43.211 4.58231
208 2 11.7484 43.4836 4.92903
209 2 15.9674 47.2927 4.84297
210 2 4.13323 47.073 4.72774
211 2 8.06126 47.2715 4.72916
212 2 11.8561 47.3635 4.80769
213 2 -0.192404 51.4152 4.71266
214 2 3.77014 51.3633 4.64667
215 2 7.63875 51.1951 4.89089
216 2 11.7739 51.3474 4.95236
217 2 -0.087422 55.2218 5.18095
218 2 3.79696 55.3329 4.9992
219 2 7.75149 55.4175 4.92222
220 2 11.6855 55.2795 4.96909
221 2 -0.0823257 59.4489 5.15706
222 2 3.77803 59.3427 5.09171
223 2 7.9976 59.4714 5.01318
224 2 11.8295 59.3838 5.02562
225 2 -0.0269919 63.4607 5.07615
226 2 3.86336 63.5396 5.08585
227 2 7.81099 63.3877 5.11788
228 2 11.8325 63.3603 4.97974
229 2 -0.133302 67.5638 5.21983
230 2 3.93448 67.3729 5.24568
231 2 7.71504 67.687 5.2451
232 2 11.8433 67.5693 5.38778
233 2 -0.183404 71.5125 5.32285
234 2 3.83782 71.3806 5.28272
235 2 7.87305 71.7653 5.48388
236 2 11.7521 71.46 5.04516
237 2 -0.090024 75.643 5.35904
238 2 3.86397 75.6195 5.20189
239 2 7.84156 75.7034 5.2783
240 2 11.8058 75.5156 5.37498
241 2 0.0327468 79.6315 5.4003
242 2 3.88932 79.7403 5.45713
243 2 7.73329 79.7693 5.31381
244 2 11.9352 79.4795 5.38313
245 2 15.9505 83.6836 5.58965
246 2 3.92684 83.4911 5.45927
247 2 7.97645 83.3964 5.54202
248 2 11.9882 83.5724 5.53186
249 2 0.0664724 87.613 5.28055
250 2 4.0177 87.6505 5.39398
251 2 8.09579 87.4264 5.43687
252 2 11.9644 87.39 5.30464
253 2 -0.0819678 91.2478 5.4588
254 2 3.95664 91.5205 5.42722
255 2 7.84846 91.407 5.40258
256 2 11.8066 91.2506 5.23163
257 2 -0.197059 95.2316 5.5211
258 2 4.04491 95.2645 5.30507
259 2 8.01915 95.2781 5.24953
260 2 11.8191 95.4711 5.36211
261 2 0.0424487 99.2267 5.30902
262 2 3.92787 99.2695 5.31618
263 2 7.95914 99.1432 5.20447
264 2 11.9607 99.1293 5.41488
265 2 15.593 103.145 5.20177
266 2 3.99168 103.209 5.35447
267 2 7.82992 103.235 5.13301
268 2 11.8805 103.22 5.4424
269 2 0.0604494 107.02 5.1914
270 2 3.97097 107.008 5.33417
271 2 7.9212 107.169 5.23205
272 2 11.9029 107.155 5.18765
273 2 0.0356585 111.001 5.12722
274 2 3.91922 110.899 5.31316
275 2 8.05479 110.813 5.21028
276 2 11.7886 110.866 5.13161
277 2 15.8032 114.802 5.11654
278 2 3.97097 114.84 5.09771
279 2 7.84348 114.802 5.21912
280 2 11.7777 114.892 5.25117
281 2 15.709 118.559 5.13699
282 2 3.83296 118.541 5.06938
283 2 7.83429 118.822 5.15985
284 2 11.7258 118.749 5.26019
285 2 15.6989 122.596 5.20169
286 2 3.9405 122.62 5.09188
287 2 8.10761 122.565 5.13574
288 2 11.8108 122.461 5.08071
289 2 -0.193334 126.612 5.01853
290 2 3.92669 126.574 5.10686
291 2 7.70098 126.55 5.06326
292 2 11.8092 126.544 5.14562
293 2 0.0502114 130.449 4.9686
294 2 4.02333 130.575 4.97848
295 2 7.88126 130.484 4.99568
296 2 11.984 130.454 4.95809
297 2 0.0246979 134.351 5.06602
298 2 3.88217 134.384 4.92243
299 2 7.8949 134.462 4.85841
300 2 11.8788 134.404 5.00824
301 2 15.8535 138.256 5.07956
302 2 3.88658 138.136 4.90216
303 2 7.80903 138.381 5.04947
304 2 12.0183 138.313 5.04061
305 2 -0.0660074 142.134 4.9125
306 2 3.84066 142.17 4.93037
307 2 7.79239 142.171 4.7004
308 2 11.8098 142.092 4.97161
309 2 15.8802 146.141 4.66934
310 2 4.01288 146.114 4.5858
311 2 7.80276 146.257 4.8072
312 2 11.7268 145.998 4.70331
313 2 0.0555147 150.078 4.81106
314 2 3.99018 149.949 4.86366
315 2 7.85547 150.046 4.81978
316 2 11.8403 150.134 4.64745
317 2 15.6379 154.094 4.64655
318 2 4.1586 153.89 4.65143
319 2 7.96086 153.79 4.70219
320 2 11.8606 153.923 4.67519
321 2 15.7625 157.796 8.55513
322 2 3.99086 157.901 8.78828
323 2 7.98644 157.757 8.60581
324 2 11.7902 157.959 8.77908
325 2 15.8165 3.35442 8.62482
326 2 3.97799 3.55258 8.78282
327 2 7.89055 3.56451 8.44813
328 2 11.9199 3.43152 8.53188
329 2 0.215242 7.33445 8.45489
330 2 3.99762 7.71189 8.49835
331 2 7.93353 7.4238 8.78048
332 2 12.0451 7.42327 8.6157
333 2 15.9925 11.2485 8.42671
334 2 4.18549 11.4685 8.5129
335 2 8.02456 11.31 8.77978
336 2 12.0059 11.2707 8.5127
337 2 -0.0917928 15.241 8.20547
338 2 3.78926 15.3872 8.4591
339 2 7.95432 15.2487 8.38915
340 2 12.0242 15.239 8.45589
341 2 0.0162321 19.1714 8.45225
342 2 4.06473 19.2211 8.30705
343 2 7.93577 19.3416 8.24246
344 2 11.8453 19.0852 8.53396
345 2 -0.255147 23.0097 8.27898
346 2 3.72216 23.0782 8.27711
347 2 7.82973 23.1967 8.13984
348 2 11.7362 22.9148 8.21534
349 2 15.5026 26.8181 8.3864
350 2 3.77965 27.0431 8.33033
351 2 7.8543 26.9855 8.31792
352 2 11.7013 26.9443 8.2446
353 2 15.7046 30.9195 8.52466
354 2 3.77876 31.0372 8.4794
355 2 7.65795 31.0677 8.71009
356 2 11.5184 31.0393 8.34077
357 2 15.7921 35.0424 8.35536
358 2 3.71757 35.0962 8.49654
359 2 7.63305 35.1666 8.44516
360 2 11.7173 35.1069 8.51492
361 2 15.6536 39.1557 8.44917
362 2 3.99894 39.1565 8.44875
363 2 7.96151 39.0354 8.49351
364 2 11.9145 39.0114 8.32425
365 2 15.8322 43.2302 8.4891
366 2 3.98648 43.172 8.85257
367 2 7.85028 43.2807 8.85006
368 2 11.8383 43.1553 8.58892
369 2 -0.0864885 47.1842 8.57369
370 2 4.03921 47.2088 8.51873
371 2 7.71543 47.2322 8.74871
372 2 11.8076 47.0487 8.73194
373 2 -0.0563249 51.0809 8.79445
374 2 4.03044 51.2016 8.91847
375 2 7.78333 51.221 8.88765
376 2 11.895 51.0413 8.92502
377 2 -0.00519147 55.3496 8.85609
378 2 3.93224 55.2649 8.80243
379 2 7.90732 55.2936 8.69334
380 2 11.8288 55.1959 9.01305
381 2 15.9216 59.2678 9.02348
382 2 3.80482 59.2678 8.79579
383 2 7.90728 59.257 8.91549
384 2 11.8452 59.3159 8.9982
385 2 0.117113 63.3739 9.01686
386 2 3.95292 63.3913 8.84504
387 2 7.98365 63.2843 9.12328
388 2 11.9948 63.3504 9.07095
389 2 0.131424 67.3313 9.07341
390 2 3.88561 67.3768 9.22542
391 2 7.83018 67.4411 9.14431
392 2 11.7629 67.3937 9.11369
393 2 0.0161044 71.5217 9.14591
394 2 3.81694 71.3365 9.08013
395 2 7.69899 71.4668 9.23386
396 2 11.8001 71.5675 9.13523
397 2 0.0402972 75.3677 9.1783
398 2 3.99593 75.4027 9.36525
399 2 7.9982 75.505 9.05976
400 2 11.8994 75.5397 9.32516
401 2 -0.0283825 79.5234 9.21438
402 2 3.90204 79.4183 9.2724
403 2 7.74925 79.5039 9.24356
404 2 11.736 79.5472 9.21659
405 2 0.0217225 83.485 9.5315
406 2 3.92432 83.4976 9.35824
407 2 7.99939 83.5287 9.35259
408 2 11.946 83.7452 9.33866
409 2 -0.160551 87.6077 9.42161
410 2 3.65613 87.6494 9.37263
411 2 7.71052 87.3615 9.38267
412 2 11.8082 87.557 9.39018
413 2 -0.178202 91.6081 9.31616
414 2 3.86153 91.3405 9.48724
415 2 7.85575 91.4691 9.55575
416 2 11.8044 91.4319 9.58917
417 2 -0.0309315 95.3192 9.33951
418 2 3.77087 95.3932 9.37938
419 2 7.831 95.3997 9.50627
420 2 11.819 95.3645 9.39182
421 2 15.6432 99.1191 9.25754
422 2 3.98224 99.3505 9.27955
423 2 7.78773 99.3065 9.32612
424 2 11.6533 99.3369 9.08066
425 2 0.0251016 103.2 9.45265
426 2 3.84774 103.201 9.46506
427 2 7.8671 102.971 9.24453
428 2 11.8151 103.208 9.43305
429 2 15.867 107.176 9.20421
430 2 3.95532 107.012 9.26077
431 2 7.84256 107.135 9.37795
432 2 11.6713 107.05 9.42291
433 2 -0.121841 110.797 9.10287
434 2 4.04961 110.992 9.0195
435 2 7.88245 111.158 9.21002
436 2 11.6867 110.92 9.1517
437 2 0.0420728 114.748 9.25884
438 2 3.9413 114.789 9.09594
439 2 7.82438 115.059 9.1145
440 2 11.7683 114.996 9.21063
441 2 -0.0655658 118.828 9.37683
442 2 3.70461 118.734 9.17181
443 2 7.78577 118.878 9.32289
444 2 11.8817 119.04 9.24808
445 2 15.8516 122.681 9.12353
446 2 3.84293 122.774 8.99039
447 2 7.70859 122.739 9.0051
448 2 11.8219 122.806 9.10548
449 2 0.0540071 126.558 9.04441
450 2 3.76515 126.467 9.07445
451 2 7.9983 126.701 9.12937
452 2 11.8612 126.512 9.12383
453 2 0.213451 130.487 9.06924
454 2 4.02223 130.622 9.00493
455 2 8.03855 130.56 9.06873
456 2 12.142 130.467 8.97118
457 2 -0.0451591 134.437 8.89012
458 2 3.97144 134.379 8.99369
459 2 8.00581 134.518 8.99841
460 2 11.7732 134.442 8.8983
461 2 0.246879 138.428 8.97697
462 2 4.13613 138.232 9.08781
463 2 8.03691 138.216 9.01329
464 2 12.0398 138.458 9.00146
465 2 -0.0500083 142.439 9.01149
466 2 4.02397 142.236 8.98671
467 2 7.86004 142.257 8.82726
468 2 11.8825 142.358 8.99037
469 2 15.7806 146.261 8.768
470 2 3.94625 146.075 8.79436
471 2 7.90367 146.005 8.62231
472 2 11.9553 146.33 8.63395
473 2 15.8621 150.057 8.66459
474 2 3.94717 150.183 8.94171
475 2 7.93219 149.989 8.89628
476 2 11.751 150.193 8.86645
477 2 16.0335 153.82 8.61383
478 2 4.05448 153.958 8.72397
479 2 7.96625 154.001 8.80491
480 2 11.8801 154.026 8.7387
481 2 15.8231 157.906 12.644
482 2 3.96485 157.985 12.7566
483 2 8.03704 158.031 12.5868
484 2 11.9825 158.096 12.5692
485 2 15.9652 3.40645 12.5959
486 2 3.96607 3.40247 12.717
487 2 7.85395 3.48988 12.6671
488 2 12.0065 3.6244 12.6171
489 2 0.270802 7.52682 12.5137
490 2 3.83321 7.54225 12.5267
491 2 8.11122 7.24289 12.4457
492 2 12.0871 7.44824 12.6192
493 2 16.0017 11.4301 12.621
494 2 3.8385 11.6208 12.5209
495 2 8.01197 11.2891 12.5059
496 2 12.0352 11.4553 12.4193
497 2 0.195843 15.2215 12.4108
498 2 4.01431 15.4458 12.5742
499 2 7.86335 15.2914 12.4702
500 2 11.8813 15.3473 12.361
501 2 15.7033 19.4713 12.5182
502 2 3.97032 19.2914 12.3857
503 2 8.08697 19.2732 12.3726
504 2 11.9893 19.2261 12.5119
505 2 15.8233 23.294 12.4413
506 2 4.00756 23.1737 12.3998
507 2 7.75916 23.233 12.3945
508 2 11.9984 23.2313 12.3294
509 2 15.7242 27.0528 12.4252
510 2 3.91771 27.1601 12.2968
511 2 7.86241 26.7824 12.3167
512 2 11.7941 27.1341 12.1742
513 2 -0.162635 30.9682 12.2764
514 2 3.74945 30.9458 12.1592
515 2 7.77319 31.0556 12.4001
516 2 11.9518 31.1409 12.391
517 2 15.7701 34.9929 12.4489
518 2 3.78375 35.0384 12.2966
519 2 7.89821 35.064 12.4345
520 2 11.9584 34.8613 12.3898
521 2 15.9025 39.034 12.2108
522 2 3.89439 38.858 12.403
523 2 7.87246 38.8872 12.3763
524 2 11.9763 39.0259 12.4871
525 2 15.8247 43.0926 12.4611
526 2 4.06782 42.965 12.5509
527 2 7.78038 43.1669 12.5316
528 2 11.969 43.0149 12.3057
529 2 15.8089 47.1171 12.5922
530 2 3.99511 47.0568 12.63
531 2 7.74013 47.2575 12.7092
532 2 11.8566 46.9861 12.5681
533 2 0.0327435 51.2275 12.6871
534 2 3.93731 51.1848 12.5548
535 2 7.85539 51.1558 12.6948
536 2 11.9938 51.2499 12.593
537 2 -0.10116 55.192 12.9943
538 2 4.01484 55.1873 12.8913
539 2 8.01441 55.1911 12.7946
540 2 11.7941 55.1772 12.6801
541 2 -0.242746 59.281 12.8232
542 2 3.94069 59.2227 12.7896
543 2 8.00106 59.1449 12.7011
544 2 11.6886 59.2587 12.67
545 2 -0.0131621 63.3176 12.9926
546 2 3.96397 63.0286 12.9398
547 2 7.88372 63.203 12.9564
548 2 11.9316 63.3872 13.1589
549 2 -0.072106 67.2999 12.977
550 2 3.91406 67.2766 13.0377
551 2 8.0102 67.3557 12.8889
552 2 11.8844 67.4565 12.9666
553 2 -0.0215351 71.2338 13.0491
554 2 3.93668 71.3876 13.2149
555 2 7.96693 71.298 13.159
556 2 12.0031 71.3669 13.0443
557 2 -0.0341354 75.3919 12.9793
558 2 3.96535 75.3359 13.1588
559 2 7.73581 75.4292 13.239
560 2 11.9797 75.2454 13.1316
561 2 -0.113566 79.3702 13.2344
562 2 3.68923 79.5891 13.1332
563 2 7.98068 79.3011 13.1984
564 2 11.8795 79.2842 13.1936
565 2 -0.0526867 83.5829 13.5616
566 2 3.97318 83.4359 13.329
567 2 7.932 83.3742 13.2721
568 2 11.9234 83.3753 13.2262
569 2 -0.25004 87.4639 13.5485
570 2 3.68714 87.5078 13.1418
571 2 7.75231 87.4524 13.0535
572 2 11.6963 87.5462 13.2735
573 2 -0.183947 91.393 13.4844
574 2 3.75428 91.4427 13.5549
575 2 7.82597 91.4164 13.5346
576 2 11.7043 91.454 13.5094
577 2 -0.075144 95.2915 13.3449
578 2 3.82223 95.4024 13.435
579 2 7.87279 95.428 13.4187
580 2 11.7717 95.3873 13.4944
581 2 -0.304224 99.402 13.2526
582 2 3.81193 99.4038 13.405
583 2 7.85417 99.3429 13.3321
584 2 11.8715 99.2913 13.3565
585 2 -0.12237 103.505 13.241
586 2 3.99655 103.251 13.4278
587 2 7.67656 103.246 13.2662
588 2 11.7439 103.271 13.1245
589 2 15.8142 107.198 13.4353
590 2 4.00395 107.187 13.3953
591 2 7.84423 107.111 13.4599
592 2 11.5958 107.102 13.2457
593 2 -0.0476531 110.964 13.328
594 2 4.02124 111.224 13.1318
595 2 7.90994 111.019 13.268
596 2 11.7583 111.143 13.1009
597 2 15.8363 114.856 12.9898
598 2 4.02974 114.978 13.3159
599 2 7.90964 114.748 13.2632
600 2 12.0591 114.946 13.3357
601 2 15.782 118.825 13.1438
602 2 3.89303 118.924 13.3102
603 2 7.91195 118.94 13.3633
604 2 11.9703 118.823 13.3436
605 2 -0.127806 122.736 13.2266
606 2 3.97115 122.764 13.1526
607 2 7.78823 122.75 13.1686
608 2 11.8163 122.851 13.2741
609 2 15.9127 126.732 13.1067
610 2 4.0893 126.593 13.0363
611 2 7.97029 126.712 13.2114
612 2 12.0161 126.739 13.1998
613 2 16.0074 130.46 13.1537
614 2 3.96763 130.588 12.9964
615 2 7.97327 130.613 13.0431
616 2 11.9946 130.484 12.9166
617 2 0.207856 134.546 12.8618
618 2 3.86705 134.63 13.0955
619 2 7.98108 134.449 13.0335
620 2 11.853 134.457 13.0289
621 2 0.00274214 138.338 12.887
622 2 3.97755 138.483 13.1392
623 2 8.09951 138.456 12.8391
624 2 12.0235 138.357 13.0669
625 2 15.8558 142.356 12.9285
626 2 3.92416 142.242 12.9068
627 2 8.05668 142.27 12.86
628 2 12.0499 142.298 12.8453
629 2 0.238591 146.231 12.8396
630 2 4.12014 146.372 12.8392
631 2 8.06696 146.144 12.7814
632 2 11.9255 146.162 12.9034
633 2 15.9533 150.274 12.8086
634 2 4.03117 149.994 12.7791
635 2 8.06352 150.011 12.7253
636 2 11.9108 150.166 12.7907
637 2 15.641 154.048 12.6547
638 2 3.97055 154.116 12.7592
639 2 8.04594 154.005 12.8881
640 2 11.9672 153.988 12.8374
641 2 15.9157 158.095 16.8728
642 2 3.86866 158.009 16.6747
643 2 7.82612 158.106 16.8178
644 2 11.8166 157.999 16.6617
645 2 15.8945 3.71155 16.6409
646 2 4.11385 3.63316 16.5449
647 2 7.92055 3.65535 16.7266
648 2 11.9918 3.65432 16.685
649 2 -0.0213211 7.62493 16.4114
650 2 4.0149 7.52016 16.4416
651 2 8.13289 7.41415 16.4634
652 2 12.1067 7.3783 16.5414
653 2 15.9474 11.6275 16.5868
654 2 4.01332 11.423 16.4311
655 2 7.94609 11.5191 16.4536
656 2 12.0207 11.3424 16.474
657 2 -0.138324 15.2403 16.5197
658 2 3.92492 15.3386 16.4138
659 2 7.93552 15.5249 16.4153
660 2 11.9069 15.2799 16.6023
661 2 15.7671 19.2592 16.3836
662 2 3.8894 19.2331 16.4062
663 2 8.08077 19.2945 16.2758
664 2 11.8318 19.3959 16.4214
665 2 16.0914 23.3009 16.4775
666 2 4.2314 23.2938 16.419
667 2 8.06214 23.2771 16.356
668 2 11.9879 23.185 16.571
669 2 0.106466 27.213 16.3987
670 2 3.98909 27.2463 16.4021
671 2 8.05467 27.118 16.1354
672 2 11.9668 27.0836 16.4487
673 2 15.7012 31.1261 16.4186
674 2 3.88694 31.0166 16.4117
675 2 7.74698 31.0019 16.2874
676 2 11.809 30.8849 16.2436
677 2 15.8675 34.9939 16.3058
678 2 4.03686 34.8912 16.2267
679 2 7.90008 35.0866 16.452
680 2 11.6839 35.1301 16.1206
681 2 -0.0438086 38.9804 16.417
682 2 3.76925 39.074 16.3667
683 2 7.77101 39.0785 16.2223
684 2 11.6537 39.0796 16.3424
685 2 15.8042 42.9133 16.4744
686 2 3.8569 42.9172 16.3977
687 2 7.80661 42.951 16.3958
688 2 11.7655 43.0776 16.3294
689 2 -0.00191915 47.078 16.254
690 2 3.84132 47.0772 16.4119
691 2 8.08109 47.1271 16.5107
692 2 12.0162 47.0426 16.4541
693 2 15.9589 51.0807 16.7256
694 2 4.06095 51.1736 16.6605
695 2 7.99001 51.106 16.6306
696 2 11.8971 51.0245 16.6147
697 2 0.0853315 55.0109 16.796
698 2 3.90114 55.2582 16.8795
699 2 7.92488 55.1894 16.493
700 2 11.9256 55.0691 16.7839
701 2 -0.113053 59.0439 16.7345
702 2 3.99159 59.0614 16.6759
703 2 7.85033 59.4027 16.7135
704 2 11.7018 59.2026 16.7737
705 2 -0.0964945 63.1745 16.794
706 2 3.93601 63.2373 16.8239
707 2 7.83077 63.4148 16.6619
708 2 11.8466 63.2794 16.9457
709 2 -0.0630219 67.171 16.9604
710 2 3.90099 67.1714 16.9922
711 2 7.91955 67.3829 16.7799
712 2 11.8091 67.2344 16.8614
713 2 -0.157937 71.229 17.0935
714 2 3.75064 71.1784 17.0755
715 2 7.75874 71.2676 16.9925
716 2 11.9066 71.2765 16.9824
717 2 -0.0940703 75.2407 16.9373
718 2 3.71393 75.1945 16.937
719 2 7.61948 75.254 17.0707
720 2 11.7048 75.1768 17.0018
721 2 -0.144608 79.1976 17.245
722 2 3.92165 79.2511 17.2027
723 2 7.81244 79.3691 17.1714
724 2 11.7058 79.2656 17.2488
725 2 -0.0103601 83.3915 17.1273
726 2 3.96545 83.3796 16.9877
727 2 7.82795 83.2971 17.0743
728 2 11.7099 83.2698 17.0001
729 2 -0.103859 87.3469 17.3947
730 2 4.07048 87.3385 17.364
731 2 7.91059 87.2076 16.951
732 2 11.8396 87.5547 17.3828
733 2 0.273017 91.5422 17.4533
734 2 3.98743 91.2544 17.3111
735 2 7.74044 91.2451 17.4293
736 2 11.7018 91.3862 17.4239
737 2 0.000667046 95.4424 17.4743
738 2 3.87894 95.3276 17.4507
739 2 7.80614 95.2907 17.3264
740 2 11.9785 95.3291 17.339
741 2 15.8429 99.3877 17.3547
742 2 3.93414 99.1447 17.2625
743 2 7.95137 99.3749 17.6218
744 2 11.7339 99.3488 17.4626
745 2 15.6744 103.32 17.4273
746 2 3.81904 103.243 17.3974
747 2 7.87885 103.047 17.3841
748 2 11.9594 103.485 17.2951
749 2 15.809 107.25 17.3198
750 2 3.96592 107.17 17.4334
751 2 7.84077 107.05 17.2887
752 2 11.8488 107.309 17.2803
753 2 0.0248426 110.893 17.369
754 2 4.08725 111.152 17.4682
755 2 7.85683 111.052 17.2198
756 2 11.8645 111.117 17.2905
757 2 -0.271551 114.801 17.188
758 2 3.90749 115.21 17.1814
759 2 7.78185 114.895 17.4035
760 2 11.8422 114.95 17.2813
761 2 -0.0579716 118.891 17.1232
762 2 3.98263 118.909 17.184
763 2 7.9844 118.778 17.1458
764 2 11.8786 118.824 17.3524
765 2 -0.19728 122.957 17.0362
766 2 3.76204 122.795 17.3191
767 2 7.75447 122.648 17.1786
768 2 11.6775 122.673 17.2281
769 2 -0.149742 126.949 17.2013
770 2 3.77174 126.816 17.0904
771 2 7.91007 126.632 17.1507
772 2 11.7625 126.6 17.1108
773 2 -0.0560439 130.651 16.9647
774 2 4.11053 130.675 17.0271
775 2 7.90654 130.663 17.0397
776 2 11.6777 130.552 16.9934
777 2 -0.127926 134.501 17.0999
778 2 3.87486 134.649 17.0607
779 2 8.08709 134.49 17.0788
780 2 11.7411 134.614 17.1786
781 2 15.7467 138.358 16.9808
782 2 3.91875 138.431 17.0775
783 2 7.87087 138.42 17.1125
784 2 11.6921 138.392 17.0275
785 2 15.7046 142.448 16.8202
786 2 3.96211 142.334 16.7907
787 2 8.04878 142.267 16.9867
788 2 11.7049 142.404 16.8677
789 2 15.8534 146.22 16.8494
790 2 3.97183 146.389 16.7899
791 2 7.79073 146.263 16.8231
792 2 11.7623 146.373 17.0025
793 2 15.7299 150.242 16.8307
794 2 3.91048 150.235 16.8601
795 2 7.8925 150.147 16.8814
796 2 11.7608 150.124 16.8464
797 2 0.114584 154.267 16.7846
798 2 3.9598 153.863 16.7412
799 2 7.88638 154.079 16.84
800 2 11.9538 154.164 16.7874
801 2 0.199049 158.239 20.7066
802 2 4.17073 158.231 20.7544
803 2 8.03532 158.148 20.7459
804 2 12.0317 158.142 20.6548
805 2 15.8833 3.79311 20.5949
806 2 4.0339 3.78454 20.6401
807 2 8.06177 3.71324 20.6582
808 2 11.848 3.5478 20.5515
809 2 0.025113 7.73766 20.5367
810 2 3.91706 7.61881 20.6631
811 2 7.94954 7.55765 20.6586
812 2 11.6949 7.56699 20.6526
813 2 15.9426 11.4713 20.6337
814 2 3.95593 11.534 20.3287
815 2 8.0675 11.6198 20.5288
816 2 12.0349 11.4828 20.5672
817 2 15.8262 15.4823 20.3662
818 2 4.10081 15.4718 20.6071
819 2 7.92902 15.5836 20.4534
820 2 11.7096 15.4205 20.4653
821 2 15.8966 19.2584 20.6216
822 2 3.88615 19.2723 20.431
823 2 7.91657 19.3233 20.3467
824 2 12.0272 19.2587 20.3956
825 2 15.9095 23.2862 20.3647
826 2 4.22546 23.2316 20.1667
827 2 8.07953 23.202 20.4346
828 2 12.0136 23.2419 20.4542
829 2 0.00829332 27.0517 20.5114
830 2 4.07339 27.2461 20.3071
831 2 8.06407 27.1444 20.4195
832 2 11.9911 27.1589 20.4271
833 2 -0.0251228 31.4188 20.3328
834 2 3.87547 31.013 20.4458
835 2 7.82858 31.1778 20.4718
836 2 11.9642 30.8916 20.3966
837 2 15.611 34.98 20.2775
838 2 3.78288 35.0051 20.4391
839 2 7.89687 34.9966 20.3078
840 2 11.8504 34.8746 20.2668
841 2 -0.0488527 38.796 20.1773
842 2 4.03948 38.8968 20.3796
843 2 7.9925 38.8895 20.3796
844 2 11.8934 38.9473 20.1217
845 2 -0.126291 42.8369 20.5006
846 2 4.11584 43.1589 20.3656
847 2 7.8994 42.8913 20.1885
848 2 11.7492 42.7032 20.3931
849 2 -0.0201602 47.0048 20.4772
850 2 3.82957 46.8876 20.4368
851 2 7.84798 46.9497 20.353
852 2 11.8821 46.79 20.5505
853 2 0.0970732 51.0498 20.5905
854 2 3.92392 51.1083 20.4447
855 2 7.81463 50.9611 20.4125
856 2 11.7488 51.044 20.3814
857 2 -0.132276 55.0752 20.4936
858 2 3.82169 55.2181 20.8063
859 2 7.86574 55.0264 20.5821
860 2 11.6149 55.0528 20.595
861 2 15.6915 59.0395 20.6565
862 2 4.04852 59.194 20.8298
863 2 7.83963 59.0475 20.6714
864 2 11.7081 59.1782 20.624
865 2 15.8461 63.1357 20.7578
866 2 3.74578 63.1704 20.6828
867 2 7.59242 63.1969 20.6452
868 2 11.7881 63.0601 20.7087
869 2 -0.0463556 67.145 20.968
870 2 4.00746 67.1678 20.8852
871 2 7.80157 67.0063 20.8007
872 2 11.7507 67.3307 20.9387
873 2 0.140238 71.1957 20.9703
874 2 3.74223 71.2614 20.9428
875 2 7.73595 71.0548 20.8035
876 2 11.829 71.1684 20.8455
877 2 -0.290197 75.1022 20.9041
878 2 3.82438 75.1633 20.8483
879 2 7.92056 75.3079 20.8565
880 2 11.8644 75.2402 20.8155
881 2 -0.218719 79.3735 20.8622
882 2 3.90197 79.3134 21.0103
883 2 7.79541 79.2391 21.1111
884 2 11.6983 79.4105 21.0102
885 2 0.0159771 83.223 21.1508
886 2 3.97253 83.1496 20.976
887 2 7.93389 83.1867 21.016
888 2 11.6566 83.3188 21.0256
889 2 -0.111918 87.1976 20.9995
890 2 4.1093 87.2676 21.1459
891 2 7.87865 87.1822 21.0441
892 2 11.8596 87.1251 21.1586
893 2 0.0402997 91.2245 21.3531
894 2 4.01519 91.3243 21.3421
895 2 7.94992 91.4661 21.2306
896 2 11.7874 91.1109 21.279
897 2 15.8189 95.3531 21.3267
898 2 4.05357 95.2674 21.4548
899 2 7.86345 95.2094 21.4914
900 2 11.7505 95.3859 21.4291
901 2 0.045948 99.3624 21.3161
902 2 4.00394 99.3697 21.4834
903 2 7.8399 99.309 21.3721
904 2 11.868 99.4466 21.3467
905 2 15.7196 103.262 21.3988
906 2 3.91762 103.378 21.2974
907 2 7.91439 103.392 21.3688
908 2 11.8895 103.285 21.3818
909 2 -0.0381351 107.284 21.5503
910 2 4.14894 107.068 21.4833
911 2 7.85527 107.184 21.4151
912 2 11.8598 107.107 21.39
913 2 15.8642 111.192 21.3909
914 2 4.019 111.186 21.4335
915 2 7.92478 110.962 21.3051
916 2 11.9431 111.051 21.2849
917 2 0.019307 114.993 21.3199
918 2 3.77802 114.995 21.2623
919 2 7.97852 114.929 21.2713
920 2 11.8972 114.937 21.4884
921 2 0.0976883 118.854 21.2693
922 2 3.84375 119.019 21.2172
923 2 7.86596 118.865 21.2253
924 2 11.824 118.85 21.442
925 2 -0.0309973 122.881 21.144
926 2 3.99669 122.805 21.1628
927 2 7.9388 122.792 21.237
928 2 11.913 122.932 21.2938
929 2 0.164017 126.858 21.1374
930 2 3.9699 126.788 21.1861
931 2 7.83047 126.785 20.9265
932 2 11.9153 126.685 21.1369
933 2 -0.109665 130.8 21.1117
934 2 4.10169 130.897 21.0105
935 2 7.97769 130.727 21.1798
936 2 11.9552 130.754 21.1948
937 2 15.9121 134.663 20.961
938 2 3.85031 134.552 21.1815
939 2 7.79173 134.656 21.0266
940 2 11.9129 134.462 21.1482
941 2 15.6122 138.735 21.0813
942 2 3.76497 138.534 21.1067
943 2 7.72122 138.514 20.9407
944 2 11.7074 138.629 21.1859
945 2 15.7393 142.512 20.739
946 2 3.91434 142.335 20.748
947 2 7.94359 142.626 20.8645
948 2 11.829 142.563 20.9934
949 2 0.132209 146.389 20.9547
950 2 4.11662 146.431 21.0883
951 2 7.84373 146.503 20.7561
952 2 12.1318 146.423 20.985
953 2 15.7361 150.404 20.7593
954 2 3.86432 150.245 20.7687
955 2 8.05527 150.403 20.8729
956 2 11.9951 150.34 20.7802
957 2 0.0363731 154.32 20.7791
958 2 4.12615 154.274 20.8757
959 2 8.05702 154.088 20.8323
960 2 11.897 154.259 20.8804
961 2 -0.00887582 158.44 24.7779
962 2 3.9521 158.343 24.6232
963 2 7.99805 158.264 24.6258
964 2 11.8984 158.279 24.7495
965 2 15.8248 3.88096 24.727
966 2 3.91194 3.80247 24.6757
967 2 7.9903 3.82839 24.6501
968 2 11.9064 3.60006 24.6785
969 2 0.0043913 7.64378 24.6817
970 2 4.08738 7.77 24.6102
971 2 7.87692 7.57428 24.5573
972 2 11.9602 7.4326 24.5854
973 2 0.0223469 11.6135 24.8136
974 2 4.07115 11.7908 24.54
975 2 7.9977 11.5469 24.5851
976 2 12.0533 11.4529 24.533
977 2 0.10785 15.2841 24.483
978 2 4.11372 15.4861 24.6036
979 2 8.00444 15.439 24.5819
980 2 11.8297 15.4302 24.6692
981 2 15.9021 19.3943 24.6952
982 2 3.934 19.3586 24.7501
983 2 8.00387 19.3642 24.5809
984 2 11.9883 19.4731 24.3838
985 2 0.0243313 23.2707 24.5099
986 2 4.03402 23.2697 24.4496
987 2 7.89603 23.1681 24.5065
988 2 11.8398 23.2499 24.4028
989 2 0.0864777 27.3286 24.4754
990 2 3.96451 27.1474 24.2297
991 2 7.85568 27.1606 24.4737
992 2 11.7356 27.221 24.5569