ITEM: TIMESTEP
17400
ITEM: NUMBER OF ATOMS
32000
ITEM: BOX BOUNDS xy xz yz pp pp pp
0.0000000000000000e+00 1.5832000000000001e+01 0.0000000000000000e+00
0.0000000000000000e+00 1.5831999999999999e+02 0.0000000000000000e+00
7.9422600046213176e-01 1.6018289199953580e+02 0.0000000000000000e+00
ITEM: ATOMS id type x y z
1 2 -0.07695 157.871 159.93
2 2 4.02822 157.646 159.957
3 2 7.99033 157.903 159.889
4 2 11.9598 157.895 159.926
5 2 15.8623 3.27786 159.948
6 2 3.98398 3.13585 159.957
7 2 7.81398 3.5279 159.867
8 2 11.8579 3.49939 159.854
9 2 -0.136004 7.20193 160.013
10 2 3.94626 7.13162 159.733
11 2 7.84214 7.274 159.828
12 2 11.7677 7.25645 159.733
13 2 -0.185151 11.0495 159.763
14 2 3.87309 11.2725 159.956
15 2 7.86742 11.0824 159.91
16 2 11.8633 11.1015 159.872
17 2 16.0254 14.9587 159.75
18 2 3.83587 15.3084 160.016
19 2 7.76783 15.042 159.935
20 2 11.684 15.158 159.762
21 2 0.0708541 19.1549 159.893
22 2 3.85132 19.1427 159.911
23 2 7.70159 19.1758 159.939
24 2 11.6997 19.0421 159.819
25 2 15.9026 23.204 0.526198
26 2 3.90149 23.1456 159.848
27 2 7.71599 23.127 159.693
28 2 11.8161 22.9032 159.891
29 2 15.7724 27.0681 159.683
30 2 3.81268 27.2407 159.812
31 2 7.73787 27.1614 159.811
32 2 11.5909 27.1551 159.68
33 2 15.7936 31.2609 159.958
34 2 4.04171 31.4063 159.746
35 2 7.83744 31.3829 159.947
36 2 11.8036 31.2669 0.478841
37 2 15.9237 35.4296 159.98
38 2 3.912 35.3394 0.645017
39 2 7.66452 35.399 160.04
40 2 11.6277 35.2316 0.587991
41 2 0.10134 39.3055 160.12
42 2 3.86093 39.5217 0.690738
43 2 7.91653 39.46 0.805597
44 2 11.9898 39.1866 160.053
45 2 -0.0715576 43.433 0.828789
46 2 3.80251 43.4354 0.819424
47 2 8.00446 43.5404 0.692751
48 2 12.0081 43.1995 0.672436
49 2 15.7703 47.2386 0.777208
50 2 3.75752 47.483 0.807354
51 2 7.7511 47.4315 1.04291
52 2 11.6163 47.5289 0.907806
53 2 0.117248 51.5384 0.929809
54 2 3.99639 51.427 0.942655
55 2 7.94746 51.2966 0.885479
56 2 11.8872 51.4199 160.294
57 2 -0.256402 55.6228 0.858375
58 2 3.86207 55.2574 1.03126
59 2 7.87088 55.2678 0.994269
60 2 11.8516 55.4724 1.052
61 2 -0.0616933 59.6316 1.19229
62 2 3.91111 59.4513 1.03538
63 2 7.96728 59.4702 1.15527
64 2 11.7547 59.4813 1.2291
65 2 -0.0319451 63.4152 1.17153
66 2 3.98138 63.5003 1.18134
67 2 7.85054 63.5163 1.03296
68 2 11.7645 63.4931 1.27701
69 2 -0.198539 67.4736 1.16656
70 2 3.77467 67.5594 1.27767
71 2 7.74602 67.6666 1.40566
72 2 11.8916 67.449 1.26032
73 2 15.8814 71.3657 1.17557
74 2 3.79907 71.7013 1.32723
75 2 7.87595 71.5839 1.1587
76 2 11.7188 71.5647 1.43305
77 2 -0.0819235 75.4742 1.36205
78 2 3.88256 75.5573 1.44621
79 2 7.90492 75.6111 1.39804
80 2 11.8028 75.6138 1.41963
81 2 -0.0483826 79.3878 1.42401
82 2 3.93763 79.4379 1.51972
83 2 7.80095 79.4859 1.47513
84 2 11.7213 79.6108 1.30506
85 2 0.035628 83.2631 1.27611
86 2 3.84958 83.3461 1.46166
87 2 8.12261 83.5075 1.44728
88 2 11.8339 83.4775 1.3594
89 2 -0.199373 87.3604 1.44021
90 2 3.86105 87.2226 1.43535
91 2 7.91096 87.4305 1.05937
92 2 11.9899 87.338 1.46017
93 2 0.155336 91.1286 1.24105
94 2 3.95902 91.3513 1.44181
95 2 7.89887 91.2707 1.39453
96 2 11.9739 91.266 1.55997
97 2 0.0609748 95.3756 1.10977
98 2 4.13486 95.1863 1.32858
99 2 8.04967 95.1666 1.32492
100 2 11.9205 95.1261 1.30892
101 2 0.155002 99.1672 1.18486
102 2 3.9473 99.1846 1.05369
103 2 7.90456 98.9978 1.29476
104 2 11.681 99.0084 1.28952
105 2 15.897 103.045 1.13059
106 2 3.82038 103.152 1.22665
107 2 7.88394 102.841 1.22241
108 2 11.8298 103.148 1.38724
109 2 15.8437 107.129 1.16377
110 2 4.05339 106.923 1.2094
111 2 7.91007 106.988 1.40806
112 2 11.9184 106.952 1.27579
113 2 0.182204 110.839 1.1155
114 2 3.88394 110.969 1.19765
115 2 8.0169 110.71 1.00152
116 2 11.9261 110.824 1.2129
117 2 0.0496732 114.883 1.20169
118 2 3.98348 114.874 1.1847
119 2 7.84948 114.792 1.117
120 2 11.9934 114.686 1.07522
121 2 15.7141 118.762 1.09577
122 2 3.85178 118.777 1.06278
123 2 7.7634 118.653 1.26808
124 2 11.6961 118.708 160.554
125 2 0.0313902 122.564 1.17477
126 2 3.95379 122.623 0.855553
127 2 7.77867 122.654 1.2665
128 2 11.9867 122.654 1.01367
129 2 0.000266446 126.565 160.298
130 2 3.923 126.616 160.418
131 2 7.86272 126.468 0.970899
132 2 11.8222 126.53 1.0286
133 2 0.199039 130.381 160.248
134 2 4.18002 130.368 160.27
135 2 8.0754 130.358 0.894088
136 2 11.9994 130.311 160.324
137 2 -0.0958107 134.13 160.272
138 2 3.89793 134.276 160.386
139 2 7.97275 134.274 0.867663
140 2 11.8441 134.202 160.29
141 2 0.0829717 138.164 160.265
142 2 3.87985 138.129 160.351
143 2 7.97446 138.205 160.38
144 2 11.7517 138.159 0.758726
145 2 15.9441 142.235 160.331
146 2 3.9292 142.334 160.268
147 2 7.88077 142.238 160.318
148 2 11.9394 142.076 160.243
149 2 -0.0575041 146.239 160.094
150 2 4.01527 146.249 160.216
151 2 8.06594 146.278 160.067
152 2 11.953 146.043 160.139
153 2 15.8674 149.979 160.076
154 2 4.21048 149.999 160.119
155 2 8.01095 150.125 160.174
156 2 11.8629 150.126 160.135
157 2 15.921 153.976 159.999
158 2 4.08212 153.855 160.005
159 2 7.89053 153.941 160.104
160 2 11.9735 153.825 160.172
161 2 15.7564 157.775 4.56504
162 2 4.11877 157.866 4.70055
163 2 8.08358 157.738 4.3878
164 2 11.785 157.775 4.71844
165 2 15.8323 3.52213 4.58304
166 2 3.84033 3.50974 4.62141
167 2 7.86471 3.45114 4.68077
168 2 11.8385 3.37074 4.54923
169 2 15.7001 7.41848 4.53139
170 2 3.94446 7.32137 4.42573
171 2 8.00748 7.18985 4.53726
172 2 11.9341 7.43063 4.5363
173 2 15.8035 11.2082 4.416
174 2 3.98411 11.1103 4.57263
175 2 7.92864 11.1466 4.36069
176 2 12.0432 11.3618 4.41421
177 2 15.8638 15.2244 4.31508
178 2 3.83709 15.2053 4.52547
179 2 7.88926 15.0427 4.48037
180 2 11.863 15.297 4.32835
181 2 -0.0491863 19.1477 4.41931
182 2 4.02029 19.0801 4.36768
183 2 7.87912 19.1778 4.38852
184 2 11.9613 19.2421 4.4822
185 2 15.6643 23.1686 4.27776
186 2 3.88319 23.0444 4.57444
187 2 7.8304 23.0378 4.52504
188 2 11.7259 23.1925 4.4283
189 2 15.7001 27.1344 4.29989
190 2 3.77328 27.2586 4.20273
191 2 7.95493 27.0017 4.48705
192 2 11.9061 27.0404 4.3238
193 2 15.7819 31.1852 4.34279
194 2 3.82493 31.2544 4.31419
195 2 8.04997 31.1291 4.3105
196 2 11.8672 31.1784 4.33128
197 2 -0.120403 35.1196 4.69085
198 2 3.88562 35.364 4.52304
199 2 7.80598 35.2239 4.6338
200 2 11.9186 35.1889 4.43391
201 2 -0.131327 39.0999 4.75675
202 2 4.03267 39.351 4.52232
203 2 7.98769 39.1331 4.59074
204 2 11.8365 39.2404 4.69371
205 2 -0.215473 43.2753 4.84916
206 2 3.75626 43.4404 4.69682
207 2 7.83977 43.3309 4.51033
208 2 11.7196 43.2477 4.61018
209 2 15.6024 47.2713 4.72566
210 2 3.75217 47.2233 4.8277
211 2 7.66054 47.1402 4.89019
212 2 11.737 47.261 4.5227
213 2 -0.0737395 51.315 4.79764
214 2 4.05318 51.4592 4.85786
215 2 7.96299 51.2155 4.79543
216 2 12.0079 51.384 4.93289
217 2 0.146349 55.4636 4.76582
218 2 4.06716 55.3414 5.09972
219 2 7.82437 55.4407 4.99658
220 2 11.9428 55.2375 4.83847
221 2 -0.0860475 59.4374 4.96713
222 2 3.95632 59.2191 5.18002
223 2 7.78744 59.544 5.09367
224 2 11.7489 59.4649 4.98473
225 2 -0.10079 63.2256 5.2197
226 2 3.82512 63.5145 5.20128
227 2 7.76077 63.4317 5.01786
228 2 11.7833 63.4667 4.99936
229 2 0.0197117 67.5128 4.95049
230 2 3.77715 67.4249 5.17165
231 2 7.79349 67.4696 5.1374
232 2 11.7921 67.5041 5.04031
233 2 -0.242096 71.39 5.17312
234 2 3.76217 71.5053 5.24279
235 2 7.81006 71.4376 5.10759
236 2 11.76 71.5197 5.22749
237 2 -0.118712 75.5313 5.20968
238 2 3.64679 75.5927 5.33361
239 2 7.70126 75.4298 5.35418
240 2 11.8023 75.4248 5.15261
241 2 -0.082362 79.5653 5.34112
242 2 4.05965 79.4815 5.28952
243 2 7.87347 79.452 5.43266
244 2 11.7055 79.6283 5.5885
245 2 15.6106 83.4661 5.35649
246 2 4.07238 83.4232 5.43981
247 2 7.84373 83.5246 5.43783
248 2 11.6306 83.5171 5.30504
249 2 0.0256105 87.3611 5.4355
250 2 3.80143 87.3503 5.27573
251 2 7.89361 87.5803 5.3035
252 2 11.7684 87.3791 5.42623
253 2 0.0688544 91.2869 5.47033
254 2 3.9166 91.2405 5.49421
255 2 8.05037 91.4211 5.05134
256 2 12.0029 91.3548 5.43995
257 2 0.0181479 95.5223 5.40493
258 2 4.07896 95.2407 5.38492
259 2 7.96127 95.3584 5.26582
260 2 12.0443 95.4076 5.30264
261 2 -0.0653966 99.1699 5.379
262 2 3.86519 99.2505 5.37615
263 2 8.03772 99.1916 5.35755
264 2 11.9406 98.9427 5.31518
265 2 15.9193 103.055 5.04079
266 2 4.1162 103.114 5.14956
267 2 7.8638 102.952 5.47953
268 2 11.9677 102.925 5.33113
269 2 0.0221931 106.996 5.35095
270 2 3.92756 107.067 5.22352
271 2 7.88631 107.035 5.29389
272 2 11.8625 106.943 5.16136
273 2 0.210563 111 5.20828
274 2 4.03534 110.889 5.08495
275 2 7.9295 111.002 5.26831
276 2 11.8163 110.873 5.37897
277 2 16.0473 114.867 4.99574
278 2 3.99264 114.8 5.14829
279 2 7.72239 114.856 5.25663
280 2 11.8821 114.705 5.15616
281 2 15.947 118.969 5.16749
282 2 3.91055 118.842 5.1954
283 2 8.00214 118.847 5.09409
284 2 11.7673 118.902 5.1112
285 2 15.6077 122.763 5.10203
286 2 3.88154 122.763 5.15299
287 2 7.85749 122.653 5.06906
288 2 11.8001 122.73 5.04664
289 2 -0.03886 126.46 5.23039
290 2 4.05468 126.484 5.03043
291 2 7.91805 126.55 5.05564
292 2 11.9686 126.621 4.92809
293 2 -0.236519 130.392 4.97713
294 2 3.79643 130.398 4.98143
295 2 7.88013 130.395 4.83669
296 2 11.892 130.559 5.04451
297 2 0.173075 134.443 5.05171
298 2 4.03681 134.379 5.08638
299 2 7.78206 134.222 4.76144
300 2 11.8941 134.434 4.87828
301 2 15.8051 138.185 4.69112
302 2 4.00246 138.269 4.78048
303 2 7.88376 138.31 4.87093
304 2 12.0576 138.202 4.81569
305 2 0.0963471 142.234 4.86069
306 2 4.23738 142.397 4.91759
307 2 8.0255 142.22 4.9292
308 2 12.1148 142.255 5.03336
309 2 15.8498 146.125 4.68091
310 2 3.91491 146.27 4.81593
311 2 8.02705 146.046 4.82905
312 2 11.9844 146.226 4.8957
313 2 0.077824 149.888 4.85797
314 2 4.10538 150.077 4.60977
315 2 8.01064 150.01 4.71099
316 2 11.8414 149.977 4.7622
317 2 15.8304 153.849 4.73249
318 2 3.94906 154.06 4.86803
319 2 8.02138 154 4.80622
320 2 11.8497 153.967 4.83584
321 2 15.8451 158.114 8.70975
322 2 4.03086 157.88 8.63281
323 2 7.92674 157.882 8.68622
324 2 12.0543 157.799 8.6885
325 2 15.8543 3.66298 8.6405
326 2 4.11366 3.45063 8.59127
327 2 8.00916 3.40378 8.58553
328 2 11.9101 3.50281 8.59119
329 2 -0.195487 7.46349 8.53174
330 2 3.77282 7.46644 8.57979
331 2 8.14997 7.56058 8.49092
332 2 11.8414 7.5478 8.61854
333 2 15.7833 11.3525 8.5691
334 2 3.86646 11.0632 8.61089
335 2 7.85629 11.2841 8.337
336 2 11.9994 11.3748 8.33098
337 2 -0.0315393 15.3195 8.62676
338 2 4.09189 15.0439 8.18471
339 2 8.01214 15.198 8.49666
340 2 11.8929 15.251 8.48567
341 2 0.0656003 19.0812 8.3052
342 2 3.90724 19.1841 8.37499
343 2 7.8641 19.0644 8.35206
344 2 11.9611 19.2017 8.13977
345 2 0.0837832 23.2898 8.07168
346 2 4.12401 23.1189 8.28692
347 2 7.97036 23.13 8.49275
348 2 11.9601 23.1617 8.52317
349 2 15.8633 27.237 8.35732
350 2 3.88236 27.1458 8.31868
351 2 7.90126 27.0801 8.21245
352 2 11.9054 26.9607 8.44567
353 2 15.8259 31.0794 8.31986
354 2 3.86398 31.1854 8.45293
355 2 7.86161 31.0996 8.12909
356 2 11.916 31.1561 8.27098
357 2 15.9474 35.0735 8.34916
358 2 4.03708 35.3097 8.51737
359 2 7.87272 35.1595 8.3507
360 2 11.68 34.9986 8.50561
361 2 15.7797 39.0894 8.71112
362 2 3.73424 39.1286 8.6245
363 2 7.57092 39.2268 8.60308
364 2 11.818 39.1947 8.46971
365 2 15.6034 43.2034 8.5811
366 2 3.91378 43.392 8.62698
367 2 7.87378 43.2095 8.51702
368 2 11.8843 43.1542 8.59808
369 2 -0.209969 47.1538 8.85149
370 2 3.9498 47.2477 8.83485
371 2 7.90348 47.1591 8.70443
372 2 11.8413 47.1587 8.57748
373 2 -0.116443 51.1768 8.79768
374 2 3.78394 51.1689 8.78177
375 2 7.78671 51.1666 8.83292
376 2 11.7781 51.2744 8.6845
377 2 -0.146223 55.2866 8.69878
378 2 3.81381 55.2717 8.78026
379 2 8.09972 55.3632 9.00164
380 2 11.6776 55.3046 8.9879
381 2 15.6731 59.2551 8.94024
382 2 3.80403 59.3527 8.8286
383 2 7.99403 59.2694 9.09808
384 2 11.6942 59.0937 9.01421
385 2 -0.13185 63.3085 8.97178
386 2 3.67084 63.5999 9.09484
387 2 7.71168 63.3009 9.03413
388 2 11.7026 63.2295 9.03086
389 2 -0.113322 67.4535 8.98038
390 2 3.81697 67.2998 8.9325
391 2 7.8841 67.4821 8.79948
392 2 11.8157 67.3658 9.11662
393 2 -0.0941121 71.467 9.21523
394 2 3.80377 71.4348 9.11765
395 2 7.78431 71.2486 9.09162
396 2 11.7972 71.5292 9.13378
397 2 -0.284599 75.4212 8.98738
398 2 3.72814 75.4736 9.25913
399 2 7.65271 75.5235 9.04912
400 2 11.7167 75.2893 9.13042
401 2 -0.0663782 79.5569 9.31374
402 2 3.77854 79.649 9.29362
403 2 7.94943 79.512 9.32932
404 2 11.8774 79.3402 9.35095
405 2 -0.157564 83.3926 9.23788
406 2 3.79218 83.491 9.16841
407 2 7.72093 83.4717 9.32744
408 2 11.8048 83.6126 9.29476
409 2 0.0851456 87.4449 9.42204
410 2 4.08594 87.428 9.54557
411 2 7.97682 87.4142 9.33576
412 2 11.8647 87.3317 9.38713
413 2 0.137023 91.1975 9.43392
414 2 3.92597 91.2265 9.36803
415 2 7.99326 91.2853 9.43095
416 2 11.9872 91.4957 9.46149
417 2 0.0132715 95.3825 9.23855
418 2 4.19365 95.2674 9.33739
419 2 8.05675 95.3326 9.47281
420 2 12.1001 95.2063 9.30039
421 2 15.8279 99.303 9.60315
422 2 3.99357 99.2045 9.4073
423 2 8.04969 99.3469 9.38958
424 2 11.9692 99.1303 9.3021
425 2 0.0528491 103.116 9.31341
426 2 4.03759 103.103 9.36756
427 2 7.98732 103.199 9.3791
428 2 11.9175 103.113 9.44065
429 2 15.942 107.034 9.07527
430 2 3.91303 107.205 9.17715
431 2 8.07595 106.906 9.34767
432 2 12.0821 107.048 9.27686
433 2 0.101647 111.17 9.19403
434 2 3.99644 111.032 9.49106
435 2 8.05854 110.879 9.27469
436 2 11.8393 110.971 9.38031
437 2 -0.037957 115.052 9.4322
438 2 3.9338 114.912 9.27374
439 2 7.83402 114.599 9.13217
440 2 11.7784 114.788 9.03173
441 2 0.0461763 118.811 9.19434
442 2 3.94081 118.803 9.13919
443 2 7.93826 118.829 9.00891
444 2 11.9112 118.733 8.91278
445 2 15.7473 122.58 9.09137
446 2 3.81329 122.807 9.277
447 2 8.01187 122.73 9.21165
448 2 11.8176 122.636 9.0992
449 2 -0.106913 126.719 9.23425
450 2 3.80215 126.487 9.09401
451 2 7.86948 126.53 9.13023
452 2 11.8874 126.512 9.0357
453 2 0.0308509 130.58 9.07796
454 2 3.77107 130.64 9.08438
455 2 7.73876 130.365 8.86185
456 2 11.7814 130.667 9.09387
457 2 0.108586 134.469 8.91855
458 2 3.97409 134.533 8.94924
459 2 7.82902 134.438 8.93254
460 2 11.7717 134.503 8.84444
461 2 -0.0475059 138.261 8.92982
462 2 3.97353 138.352 8.995
463 2 7.87526 138.364 9.01769
464 2 11.9315 138.228 8.89188
465 2 -0.0152561 142.095 8.87029
466 2 3.96214 142.251 8.90867
467 2 8.00406 142.325 8.88983
468 2 11.8618 142.042 8.89195
469 2 15.7507 146.182 8.86777
470 2 4.10831 146.153 8.93075
471 2 7.98105 146.203 8.83706
472 2 11.8979 146.079 9.0461
473 2 16.0335 150.179 8.86159
474 2 3.99663 149.919 8.76879
475 2 7.93386 150.167 8.82866
476 2 11.8164 150.122 8.87754
477 2 15.7555 154.004 8.87017
478 2 3.90918 153.933 8.685
479 2 7.94486 153.929 8.56751
480 2 11.8535 154 8.73892
481 2 15.9371 158.127 12.706
482 2 3.89742 158.012 12.6378
483 2 7.98369 158.044 12.6759
484 2 11.9823 158.006 12.6171
485 2 15.8469 3.63791 12.7072
486 2 3.97222 3.62492 12.6654
487 2 8.01089 3.73796 12.5054
488 2 11.9545 3.63126 12.6099
489 2 0.0426945 7.57292 12.6046
490 2 3.90871 7.55389 12.4713
491 2 7.89256 7.57902 12.5998
492 2 11.7831 7.52297 12.633
493 2 16.0449 11.4705 12.5376
494 2 4.07459 11.3384 12.4132
495 2 7.92053 11.571 12.3859
496 2 11.7919 11.4328 12.4515
497 2 0.0928825 15.1666 12.4521
498 2 4.06041 15.1805 12.5214
499 2 7.93973 15.4555 12.335
500 2 11.8713 15.5162 12.2634
501 2 15.7875 19.2367 12.2215
502 2 3.81403 19.1701 12.39
503 2 7.86178 19.3683 12.4485
504 2 11.9323 19.2443 12.3509
505 2 15.7141 23.0151 12.1207
506 2 4.02021 23.1528 12.3867
507 2 8.0132 23.1926 12.2721
508 2 11.7918 23.1253 12.3618
509 2 15.8182 27.0144 12.2789
510 2 3.98927 27.0929 12.3605
511 2 7.81144 27.2505 12.3961
512 2 11.776 27.1385 12.3985
513 2 -0.0464031 31.0539 12.183
514 2 3.87019 30.933 12.4478
515 2 7.87589 31.0483 12.1606
516 2 11.7533 31.0518 12.3547
517 2 15.5325 35.0145 12.266
518 2 3.81281 35.0727 12.2195
519 2 7.82705 35.115 12.3235
520 2 11.6004 35.0894 12.3522
521 2 15.6276 38.9878 12.4801
522 2 3.83967 39.2 12.5478
523 2 7.654 39.0932 12.52
524 2 11.7053 39.1927 12.4494
525 2 15.6679 43.0698 12.5601
526 2 3.83449 43.1866 12.5188
527 2 7.82349 43.0673 12.3955
528 2 11.6138 43.1786 12.6455
529 2 15.6068 47.1574 12.6748
530 2 4.02147 47.029 12.5907
531 2 7.88383 47.076 12.4067
532 2 11.8919 47.095 12.5716
533 2 -0.334629 51.2077 12.752
534 2 3.90656 50.9898 12.6222
535 2 7.80794 51.1441 12.6564
536 2 11.7193 51.1238 12.693
537 2 -0.17103 55.0969 12.4215
538 2 3.79099 55.0598 12.8384
539 2 7.7376 55.1871 12.8061
540 2 11.8022 55.2654 12.7412
541 2 0.0923875 59.2591 12.8639
542 2 3.87821 59.2835 12.9372
543 2 7.84088 59.245 12.9307
544 2 11.7285 59.3314 12.9336
545 2 -0.168804 63.2371 12.8544
546 2 3.86376 63.2159 12.9326
547 2 7.79683 63.3593 13.0548
548 2 11.6675 63.2149 12.6896
549 2 -0.160353 67.3665 13.0437
550 2 3.78649 67.235 12.8694
551 2 7.77935 67.2773 13.0412
552 2 11.739 67.3127 12.9133
553 2 -0.264253 71.3645 12.8167
554 2 3.82482 71.4633 12.9618
555 2 7.67893 71.2951 12.9953
556 2 11.7412 71.3765 13.0999
557 2 -0.149815 75.4245 13.2214
558 2 3.82954 75.2484 12.9903
559 2 7.82566 75.3851 13.0915
560 2 11.8396 75.6036 13.0506
561 2 0.175856 79.33 13.132
562 2 3.86664 79.4119 13.2472
563 2 7.83283 79.5544 13.2264
564 2 11.7112 79.5152 13.1512
565 2 -0.0930055 83.267 13.0836
566 2 3.89341 83.4051 13.2104
567 2 7.70003 83.4258 13.2856
568 2 11.6365 83.6345 13.3324
569 2 0.087155 87.5852 13.2576
570 2 4.13721 87.5132 13.4836
571 2 7.98665 87.5617 13.5546
572 2 11.913 87.4504 13.3911
573 2 0.0923923 91.4968 13.3873
574 2 4.05186 91.5259 13.3016
575 2 8.04885 91.3318 13.4262
576 2 11.9485 91.4032 13.2645
577 2 0.0740781 95.2655 13.3804
578 2 3.8994 95.4137 13.3618
579 2 7.97031 95.2935 13.3262
580 2 11.8631 95.3228 13.3004
581 2 0.139063 99.1459 13.4246
582 2 4.22138 99.22 13.4426
583 2 8.05 99.2295 13.2104
584 2 11.8648 99.3618 13.5463
585 2 0.060707 103.199 13.1983
586 2 4.01628 103.267 13.2592
587 2 7.98392 103.287 13.3084
588 2 11.9754 103.161 13.5406
589 2 15.9634 106.895 13.2417
590 2 3.8331 106.943 13.3692
591 2 8.16104 107.067 13.1779
592 2 11.8541 107.265 13.1551
593 2 0.00613699 111.113 13.4792
594 2 3.99372 110.949 13.2926
595 2 8.01425 111.138 13.3202
596 2 11.9569 110.883 13.4723
597 2 15.6729 115.233 13.3037
598 2 3.95453 114.913 13.2709
599 2 7.83628 115.035 13.3472
600 2 11.7559 115.042 13.1247
601 2 15.7325 118.929 13.2241
602 2 3.97791 119.011 13.1559
603 2 7.89575 118.811 13.0809
604 2 11.744 118.871 13.2196
605 2 -0.0171943 122.752 13.2133
606 2 3.93196 122.62 13.0642
607 2 7.67099 122.707 13.2443
608 2 11.9088 122.702 13.274
609 2 15.6589 126.71 13.0494
610 2 3.75762 126.674 13.0968
611 2 7.76045 126.816 13.1745
612 2 11.6341 126.783 13.005
613 2 15.7154 130.507 13.1173
614 2 3.70514 130.495 13.0928
615 2 7.8777 130.658 13.1568
616 2 11.7201 130.481 13.2117
617 2 -0.0196377 134.604 13.0018
618 2 3.97935 134.424 13.0423
619 2 7.99457 134.518 12.9749
620 2 11.783 134.668 12.9687
621 2 -0.0329504 138.513 13.0953
622 2 4.08126 138.349 12.8608
623 2 7.91102 138.517 12.8859
624 2 11.7242 138.525 13.0513
625 2 15.8323 142.381 12.8027
626 2 3.87871 142.402 12.8369
627 2 7.74824 142.327 13.0925
628 2 11.7824 142.347 12.919
629 2 -0.040218 146.135 12.927
630 2 3.71753 146.143 12.8323
631 2 7.86178 146.343 12.7788
632 2 11.7111 146.237 12.9827
633 2 15.6474 150.16 12.7789
634 2 3.90243 150.097 12.8214
635 2 7.75276 150.221 12.9355
636 2 11.7251 150.103 12.8029
637 2 15.7448 154.039 12.7374
638 2 3.84237 154.046 12.6488
639 2 7.86909 154.038 12.6725
640 2 11.7657 153.982 12.668
641 2 15.9107 158.065 16.7948
642 2 3.98099 158.238 16.5994
643 2 7.93107 158.157 16.7266
644 2 11.8705 157.99 16.7463
645 2 15.723 3.68325 16.6238
646 2 4.01014 3.56733 16.4145
647 2 8.00497 3.70635 16.6556
648 2 11.9744 3.86495 16.6974
649 2 0.0727444 7.62376 16.7004
650 2 3.89393 7.50287 16.5407
651 2 7.85828 7.6098 16.7144
652 2 11.9228 7.8405 16.5672
653 2 16.0693 11.4374 16.3514
654 2 3.78297 11.619 16.4321
655 2 7.9643 11.6665 16.5626
656 2 12.2006 11.6035 16.5233
657 2 0.0883142 15.3897 16.3557
658 2 3.99892 15.5101 16.3604
659 2 7.92715 15.5557 16.4261
660 2 11.9289 15.4577 16.5657
661 2 15.9916 19.4584 16.4286
662 2 4.12292 19.4882 16.4152
663 2 7.98887 19.3172 16.4213
664 2 12.0163 19.2575 16.4561
665 2 15.6874 23.1833 16.2706
666 2 3.78851 23.2732 16.4443
667 2 7.85358 23.2997 16.27
668 2 11.7787 23.2336 16.2769
669 2 -0.0883303 27.1046 16.3384
670 2 3.90616 26.9524 16.2344
671 2 7.78301 27.1614 16.4615
672 2 11.9063 27.1136 16.3611
673 2 15.6834 30.878 16.2438
674 2 4.04066 31.1347 16.2032
675 2 7.88426 30.9928 16.3534
676 2 12.1037 31.1556 16.1566
677 2 15.6803 34.8602 16.345
678 2 3.58491 34.977 16.3974
679 2 7.83545 35.0494 16.0907
680 2 11.6731 35.0342 16.3509
681 2 -0.130098 38.9365 16.3321
682 2 3.80694 39.0342 16.3794
683 2 7.9599 38.9206 16.3247
684 2 11.8572 38.8179 16.5613
685 2 15.7888 43.0774 16.4379
686 2 4.04666 43.0395 16.3962
687 2 7.84602 42.856 16.5672
688 2 11.8964 43.005 16.4637
689 2 0.0078215 46.9993 16.5025
690 2 4.0272 46.9848 16.3677
691 2 7.74584 46.9143 16.5778
692 2 11.5832 46.9496 16.4615
693 2 15.8075 51.0369 16.5898
694 2 3.7665 50.9839 16.6318
695 2 7.90827 50.958 16.56
696 2 11.8683 50.9766 16.6403
697 2 -0.132308 55.0327 16.7051
698 2 3.73579 55.006 16.4475
699 2 7.752 54.9741 16.7911
700 2 11.5331 55.2138 16.6846
701 2 -0.129202 59.0627 16.767
702 2 3.8659 59.2771 16.8889
703 2 7.82976 59.0491 16.8435
704 2 11.7291 59.0287 16.7347
705 2 -0.3028 63.2418 16.7329
706 2 4.04945 63.3667 16.935
707 2 7.73349 62.997 16.9053
708 2 11.9776 63.1651 16.7334
709 2 -0.082483 67.2664 16.7011
710 2 3.79662 67.1996 16.9335
711 2 7.89895 67.1787 16.741
712 2 11.7465 67.1311 16.7489
713 2 0.0018589 71.3265 16.819
714 2 4.02084 71.2309 16.8173
715 2 7.84801 71.3057 16.8734
716 2 11.9187 71.2785 16.9316
717 2 -0.0141025 75.1619 17.0688
718 2 4.0142 75.298 17.0747
719 2 8.01112 75.221 16.9272
720 2 11.97 75.2683 17.1325
721 2 0.0330762 79.3461 16.9605
722 2 4.07561 79.4174 16.9793
723 2 7.93845 79.3396 17.0291
724 2 11.9145 79.3704 16.969
725 2 -0.14714 83.5207 17.065
726 2 3.7858 83.4299 17.3039
727 2 8.00963 83.4594 17.4338
728 2 11.9813 83.3873 17.3639
729 2 0.0693712 87.3815 17.1645
730 2 3.79714 87.3468 17.27
731 2 7.80416 87.5173 17.479
732 2 11.6937 87.2851 17.1614
733 2 -0.12478 91.4164 17.3126
734 2 3.84721 91.4907 17.4015
735 2 8.065 91.5249 17.3976
736 2 11.8978 91.3777 17.3707
737 2 0.0315194 95.3603 17.3857
738 2 4.00678 95.4441 17.3808
739 2 7.89787 95.4328 17.3714
740 2 11.7857 95.4894 17.2392
741 2 15.8909 99.316 17.4566
742 2 4.02505 99.4534 17.609
743 2 7.89128 99.4429 17.3537
744 2 11.8697 99.251 17.4669
745 2 15.8334 103.128 17.3892
746 2 4.18948 103.314 17.1
747 2 7.96128 103.409 17.3941
748 2 11.9376 103.202 17.3524
749 2 15.7297 106.967 17.363
750 2 4.0611 107.093 17.3451
751 2 7.98074 107.358 17.4987
752 2 11.8357 107.021 17.4133
753 2 -0.070338 111.212 17.2598
754 2 4.06322 110.83 17.0142
755 2 7.86965 111.08 17.4816
756 2 11.9827 111.087 17.2403
757 2 -0.0507262 115.111 17.3416
758 2 4.13241 115.066 17.3001
759 2 7.96707 114.988 17.352
760 2 11.9897 114.885 17.0709
761 2 0.00202717 118.891 17.1958
762 2 3.83323 118.895 17.1848
763 2 7.82752 119.105 17.2119
764 2 11.8136 119.097 17.1745
765 2 0.134955 122.765 17.1704
766 2 4.18245 122.794 17.1399
767 2 7.9613 122.908 17.1513
768 2 11.8189 122.963 17.117
769 2 -0.0237721 126.593 17.2551
770 2 3.9651 126.716 17.151
771 2 7.97394 126.816 17.0814
772 2 11.8805 126.844 17.0454
773 2 -0.0856501 130.62 17.0774
774 2 3.79433 130.434 17.3105
775 2 7.90732 130.846 17.1313
776 2 11.9208 130.633 17.2586
777 2 0.162676 134.588 16.8998
778 2 3.9459 134.701 17.014
779 2 7.7996 134.512 17.0871
780 2 11.8631 134.555 17.0596
781 2 15.9338 138.464 16.9058
782 2 3.99497 138.497 16.7869
783 2 8.11016 138.574 17.0187
784 2 11.9977 138.533 16.9146
785 2 15.9295 142.438 16.9067
786 2 4.06282 142.403 16.9699
787 2 7.90955 142.547 16.9834
788 2 11.9951 142.347 16.92
789 2 15.818 146.331 16.8949
790 2 3.95539 146.223 16.6994
791 2 7.92321 146.453 16.7093
792 2 11.8637 146.182 16.8124
793 2 15.912 150.208 16.8574
794 2 4.03383 150.305 16.8481
795 2 8.00554 150.168 16.8987
796 2 11.7877 150.36 16.7311
797 2 -0.196584 154.199 16.5642
798 2 3.97981 154.281 16.8189
799 2 7.98391 154.393 16.7688
800 2 11.9043 154.071 16.6408
801 2 -0.144146 158.142 20.6602
802 2 3.77083 158.081 20.751
803 2 7.90209 158.2 20.8919
804 2 11.7178 158.273 20.7003
805 2 15.8056 3.66869 20.7875
806 2 3.91298 3.68757 20.7736
807 2 7.96127 3.73382 20.681
808 2 11.8415 3.76193 20.5649
809 2 0.0369015 7.69315 20.6831
810 2 4.00892 7.64027 20.6776
811 2 8.07707 7.48276 20.5068
812 2 11.9609 7.63926 20.6011
813 2 15.7833 11.5222 20.5162
814 2 3.98757 11.6863 20.6827
815 2 7.89263 11.6626 20.7681
816 2 11.9387 11.6004 20.6539
817 2 15.9018 15.6029 20.3657
818 2 4.09759 15.4058 20.3437
819 2 8.06191 15.4484 20.517
820 2 12.0135 15.5818 20.1864
821 2 15.8084 19.4239 20.3075
822 2 3.99694 19.3065 20.5098
823 2 8.05089 19.3809 20.3928
824 2 11.7144 19.4536 20.5485
825 2 15.6821 23.3951 20.238
826 2 3.89729 23.2529 20.4627
827 2 7.8681 23.4426 20.3484
828 2 11.7502 23.245 20.2479
829 2 0.113876 27.198 20.2172
830 2 3.80167 27.3514 20.38
831 2 7.84138 27.1552 20.2985
832 2 11.9002 27.1868 20.2635
833 2 0.0875846 31.0423 20.2428
834 2 3.92791 31.3009 20.18
835 2 7.93923 31.0661 20.1839
836 2 11.7639 31.2418 20.3978
837 2 15.8661 34.951 20.4153
838 2 3.79945 34.9223 20.4015
839 2 7.84223 34.9908 20.3962
840 2 11.8115 35.199 20.5153
841 2 -0.223034 39.0214 20.3606
842 2 3.80748 38.7919 20.3151
843 2 7.74812 38.8754 20.46
844 2 11.6674 38.9507 20.2866
845 2 -0.045589 42.9522 20.2961
846 2 3.77554 42.896 20.2894
847 2 7.89236 42.8524 20.4197
848 2 11.9238 43.1151 20.2417
849 2 0.181958 47.035 20.5581
850 2 4.04734 47.028 20.6519
851 2 7.81803 46.9518 20.4389
852 2 11.7829 47.1316 20.4799
853 2 -0.157688 50.9841 20.3849
854 2 3.74176 50.9787 20.5059
855 2 7.92405 51.2404 20.7558
856 2 11.723 51.0507 20.5253
857 2 0.0427439 54.9142 20.6442
858 2 3.92922 54.9917 20.442
859 2 7.90867 55.0001 20.582
860 2 11.9371 55.0198 20.3928
861 2 15.6646 59.1034 20.8008
862 2 3.91265 59.0062 20.6656
863 2 7.76507 59.0879 20.7848
864 2 11.9737 59.0103 20.7348
865 2 15.7804 62.9862 20.6324
866 2 4.02344 63.1825 20.8159
867 2 7.94719 63.1047 20.7612
868 2 11.8726 63.1445 20.6731
869 2 0.186477 67.2626 20.593
870 2 3.86519 67.2286 20.6474
871 2 7.77122 67.3449 20.8298
872 2 11.6685 67.2362 20.6594
873 2 -0.121098 71.3378 20.6559
874 2 3.94664 71.2837 20.795
875 2 7.86762 71.0267 20.9519
876 2 11.8767 71.1252 20.9334
877 2 0.0565223 75.216 20.8406
878 2 3.93684 75.1082 21.0463
879 2 7.94458 75.2863 20.8392
880 2 11.9082 75.1123 21.0418
881 2 0.0911403 79.1945 21.0292
882 2 4.01012 79.3381 21.0425
883 2 7.90984 79.1048 20.9503
884 2 11.8609 79.1071 20.886
885 2 0.034407 83.2736 21.1179
886 2 3.93829 83.0841 21.0763
887 2 7.8909 83.3951 21.0936
888 2 11.9424 83.0787 21.1774
889 2 -0.105234 87.4559 21.3796
890 2 3.86336 87.3692 21.0685
891 2 7.9587 87.1866 21.3134
892 2 11.8376 87.5557 21.3233
893 2 -0.0138854 91.4162 21.1649
894 2 3.86221 91.3565 21.2206
895 2 7.74991 91.3516 21.0453
896 2 11.9375 91.315 21.3149
897 2 15.92 95.4427 21.3928
898 2 3.84594 95.4731 21.1917
899 2 7.85777 95.4195 21.3322
900 2 11.9511 95.3673 21.3547
901 2 -0.0631849 99.354 21.592
902 2 3.78974 99.2529 21.3992
903 2 8.04372 99.4954 21.3884
904 2 11.949 99.4247 21.3737
905 2 15.8584 103.318 21.5121
906 2 4.03564 103.221 21.5589
907 2 7.927 103.321 21.3625
908 2 11.8025 103.193 21.3602
909 2 -0.152317 107.19 21.2363
910 2 3.77237 107.188 21.1715
911 2 7.78377 107.16 21.3917
912 2 11.9276 107.113 21.4094
913 2 15.6771 111.162 21.2572
914 2 3.80713 111.129 21.2813
915 2 7.98756 111.13 21.3765
916 2 11.7543 111.156 21.4118
917 2 0.112888 115.056 21.2333
918 2 3.90807 114.869 21.2213
919 2 8.05444 115.041 21.1391
920 2 11.7943 115.217 21.2534
921 2 0.0603867 118.906 21.3504
922 2 3.99391 118.906 21.3742
923 2 7.94308 119.197 21.1702
924 2 11.9013 118.974 21.271
925 2 -0.1191 122.943 21.2998
926 2 3.69316 122.751 21.1541
927 2 7.87874 122.809 21.3237
928 2 11.6984 122.973 21.281
929 2 -0.166416 126.726 21.1843
930 2 3.97033 126.767 21.149
931 2 7.92424 126.695 21.1432
932 2 11.6834 126.803 21.2162
933 2 -0.138248 130.696 21.2593
934 2 3.92647 130.613 21.2657
935 2 7.79024 130.741 21.2243
936 2 11.7034 130.707 21.0774
937 2 15.7625 134.579 20.9154
938 2 4.1239 134.768 21.1138
939 2 7.92605 134.645 20.9381
940 2 11.7802 134.695 20.9115
941 2 15.9709 138.446 21.1336
942 2 4.17885 138.506 20.8123
943 2 7.96658 138.447 21.0054
944 2 11.9872 138.598 20.8212
945 2 15.8971 142.406 21.0832
946 2 3.95385 142.432 21.0015
947 2 7.9639 142.407 20.8888
948 2 11.913 142.531 20.9155
949 2 -0.240319 146.545 20.8437
950 2 4.02588 146.521 20.7399
951 2 7.99977 146.33 20.7578
952 2 11.8027 146.258 20.7894
953 2 15.8425 150.195 20.7351
954 2 4.06242 150.229 20.7793
955 2 7.87897 150.347 20.8369
956 2 11.8725 150.303 20.6541
957 2 -0.0657199 154.156 20.7239
958 2 3.86906 154.246 20.7546
959 2 7.79023 154.052 20.7485
960 2 11.7732 154.224 20.7819
961 2 -0.0280938 157.95 24.6274
962 2 3.94188 158.043 24.7932
963 2 7.91471 158.148 24.5756
964 2 11.753 158.12 24.6963
965 2 15.7821 3.8077 24.6929
966 2 3.90493 3.79282 24.8072
967 2 7.79586 3.87138 24.638
968 2 11.7875 3.90249 24.7297
969 2 -0.0648159 7.6955 24.6301
970 2 3.93089 7.62375 24.6808
971 2 8.02761 7.73502 24.6334
972 2 11.8299 7.91055 24.6885
973 2 0.0878357 11.7385 24.5096
974 2 3.85876 11.4026 24.6223
975 2 7.83585 11.6629 24.4166
976 2 11.6831 11.8965 24.5806
977 2 0.0295207 15.6389 24.657
978 2 3.96633 15.6279 24.3302
979 2 7.95507 15.5352 24.5825
980 2 12.0571 15.5484 24.6021
981 2 15.9243 19.4469 24.3746
982 2 4.03026 19.4792 24.3004
983 2 7.91367 19.3966 24.4233
984 2 11.8876 19.4836 24.4709
985 2 0.0326464 23.2701 24.4573
986 2 3.94964 23.4658 24.4862
987 2 8.09097 23.4502 24.4526
988 2 12.0847 23.1925 24.1728
989 2 0.0340745 27.2835 24.3182
990 2 3.96492 27.3209 24.399
991 2 8.1116 27.3523 24.3317
992 2 11.8873 27.1253 24.1651
993 2 -0.0341591 31.3168 24.3616