ITEM: TIMESTEP
18000
ITEM: NUMBER OF ATOMS
32000
ITEM: BOX BOUNDS xy xz yz pp pp pp
0.0000000000000000e+00 1.5832000000000001e+01 0.0000000000000000e+00
0.0000000000000000e+00 1.5831999999999999e+02 0.0000000000000000e+00
7.7321733190350983e-01 1.6020390066809398e+02 0.0000000000000000e+00
ITEM: ATOMS id type x y z
1 2 -0.119162 157.905 159.809
2 2 3.93198 157.881 159.887
3 2 7.94255 157.855 159.978
4 2 11.9042 157.829 159.746
5 2 15.8812 3.39457 160.026
6 2 3.92733 3.61381 159.755
7 2 7.96708 3.41154 159.819
8 2 11.8103 3.43717 159.79
9 2 -0.0870605 7.37487 159.873
10 2 3.86086 7.52245 159.843
11 2 7.84179 7.48914 159.928
12 2 11.7089 7.20596 159.646
13 2 -0.0968188 11.1723 159.763
14 2 3.82413 11.3725 159.557
15 2 7.79926 11.1362 159.698
16 2 11.7915 11.1714 159.951
17 2 15.9027 15.2222 160.014
18 2 3.96952 15.1921 159.699
19 2 7.83016 15.0229 160.005
20 2 11.7858 15.1255 160.078
21 2 -0.129332 19.1961 159.875
22 2 4.04044 19.1562 159.637
23 2 7.82651 19.0598 159.839
24 2 11.9669 18.8959 159.894
25 2 16.0175 23.1603 0.535272
26 2 4.17057 23.1781 159.999
27 2 8.0544 23.0911 159.762
28 2 11.8282 23.1226 159.828
29 2 15.8958 27.061 159.86
30 2 4.08701 27.0794 159.967
31 2 7.65482 27.1227 159.857
32 2 11.7839 27.1121 159.807
33 2 15.9743 31.2051 160.058
34 2 4.05494 31.3014 159.98
35 2 7.81225 31.2006 159.971
36 2 12.0025 31.1968 0.65356
37 2 15.7989 35.28 160.095
38 2 4.10479 35.3328 0.685591
39 2 7.90138 35.4056 160.136
40 2 11.6893 35.2654 0.372438
41 2 0.0310292 39.2924 160.088
42 2 3.97283 39.3278 0.689627
43 2 7.88168 39.3115 0.675543
44 2 11.6927 39.2286 159.988
45 2 -0.0158269 43.2265 0.931399
46 2 4.08382 43.5601 0.91046
47 2 8.20107 43.4078 0.895129
48 2 11.8796 43.1876 0.916387
49 2 15.8553 47.4549 0.754854
50 2 3.90563 47.3908 0.731299
51 2 7.77481 47.5267 0.973124
52 2 11.6232 47.2591 0.779461
53 2 -0.0697728 51.4435 0.861859
54 2 3.7592 51.2837 0.985622
55 2 7.81334 51.1759 0.669741
56 2 11.7009 51.3664 160.408
57 2 -0.081253 55.4473 1.00198
58 2 3.94254 55.3547 0.978602
59 2 7.91697 55.1885 0.886199
60 2 11.8964 55.4139 0.973366
61 2 0.036875 59.5363 0.87669
62 2 3.94794 59.3674 1.21011
63 2 7.86206 59.2904 1.04319
64 2 11.8107 59.5136 1.23376
65 2 0.0173033 63.5453 0.934922
66 2 3.93296 63.475 0.847111
67 2 7.72299 63.3586 1.01544
68 2 11.8074 63.4766 1.13074
69 2 -0.0124521 67.4991 1.21771
70 2 3.72675 67.482 1.38072
71 2 7.95708 67.5434 1.31239
72 2 11.7168 67.502 1.01424
73 2 15.6165 71.6534 1.36118
74 2 4.15755 71.5871 1.34471
75 2 7.93838 71.3589 1.2987
76 2 11.8818 71.4261 1.35902
77 2 -0.0612711 75.452 1.5553
78 2 3.94971 75.4976 1.54206
79 2 8.03748 75.4755 1.5269
80 2 11.7954 75.4399 1.32295
81 2 -0.0699678 79.4268 1.435
82 2 3.89198 79.8231 1.56481
83 2 7.98621 79.7045 1.32083
84 2 11.7074 79.3898 1.42646
85 2 -0.14203 83.3226 1.4114
86 2 3.81336 83.4472 1.57183
87 2 7.83925 83.481 1.52101
88 2 11.8512 83.5912 1.67652
89 2 -0.00699642 87.4522 1.48059
90 2 3.89419 87.3808 1.3871
91 2 7.87891 87.2739 1.44667
92 2 11.9503 87.402 1.33708
93 2 0.116728 91.258 1.464
94 2 4.0099 91.363 1.27886
95 2 7.8077 91.1933 1.13095
96 2 11.6956 91.2463 1.55171
97 2 -0.233521 95.34 1.33856
98 2 3.88146 95.1893 1.3031
99 2 7.84024 95.3501 1.3653
100 2 11.8109 95.2602 1.41632
101 2 -0.205488 98.9314 1.35305
102 2 3.77633 99.1225 1.49079
103 2 8.05202 99.1901 1.27909
104 2 11.8967 99.225 1.24799
105 2 15.7813 103.095 1.22662
106 2 3.84202 102.947 1.31958
107 2 8.12095 102.939 1.2394
108 2 12.0106 103.091 1.24187
109 2 15.8545 107.154 1.16477
110 2 4.06462 107.055 1.20793
111 2 7.88308 107.036 1.23565
112 2 11.662 107.048 1.20486
113 2 0.0380791 110.775 1.06803
114 2 4.07293 110.78 1.22376
115 2 7.83666 110.98 0.934963
116 2 11.9175 110.993 1.0692
117 2 0.0376469 114.833 1.08378
118 2 4.1432 114.779 1.03351
119 2 7.99982 114.816 1.15107
120 2 11.9891 114.814 1.04088
121 2 15.9498 118.709 1.02327
122 2 3.9437 118.608 0.952667
123 2 8.05497 118.882 1.02849
124 2 11.9028 118.662 160.436
125 2 -0.00429133 122.549 1.01836
126 2 4.09817 122.619 0.801856
127 2 7.86846 122.644 0.962353
128 2 11.6969 122.809 0.700237
129 2 -0.260886 126.421 160.346
130 2 3.63476 126.525 160.288
131 2 7.79733 126.666 1.02181
132 2 11.7273 126.506 0.943886
133 2 0.10274 130.587 160.324
134 2 3.90578 130.47 160.2
135 2 7.90679 130.468 0.911922
136 2 11.8332 130.379 160.345
137 2 -0.0781434 134.401 160.412
138 2 3.93739 134.199 160.204
139 2 7.86359 134.327 0.822368
140 2 11.7829 134.103 160.151
141 2 -0.114666 138.333 160.026
142 2 4.12645 138.141 160.131
143 2 8.03855 138.294 160.203
144 2 11.7878 138.217 0.713476
145 2 15.8862 142.288 160.156
146 2 4.12681 142.043 160.07
147 2 7.86292 142.156 160.232
148 2 11.9165 142.232 160.287
149 2 0.0386177 146.08 160.075
150 2 3.83945 146.082 160.097
151 2 7.8251 146.021 160.244
152 2 11.8228 146.082 159.985
153 2 15.7319 150.016 159.982
154 2 3.7857 150.139 160.019
155 2 7.91866 150.025 160.095
156 2 11.668 149.995 160.128
157 2 15.7636 153.953 160.096
158 2 3.79577 154.008 160.107
159 2 7.98914 153.766 159.988
160 2 11.8686 153.798 160.135
161 2 15.7797 157.792 4.62801
162 2 3.92333 157.941 4.47592
163 2 7.97537 157.888 4.51467
164 2 11.7368 157.903 4.37368
165 2 15.6472 3.60347 4.47915
166 2 3.91932 3.46939 4.54177
167 2 7.89835 3.35222 4.58581
168 2 11.7686 3.50916 4.55635
169 2 15.8807 7.32439 4.41339
170 2 4.08664 7.56243 4.3291
171 2 7.8437 7.47989 4.52673
172 2 11.7546 7.3504 4.58165
173 2 15.8995 11.3042 4.4294
174 2 3.92666 11.3458 4.29295
175 2 7.70729 11.2687 4.33172
176 2 11.9397 11.192 4.43807
177 2 15.6769 15.223 4.37398
178 2 3.74769 15.3145 4.2814
179 2 7.66492 15.3615 4.49399
180 2 11.6986 15.1993 4.47874
181 2 -0.105737 19.1797 4.43687
182 2 4.00818 19.1288 4.31237
183 2 7.89295 19.0711 4.44786
184 2 11.8768 19.3174 4.60229
185 2 15.7929 23.1089 4.43293
186 2 4.01337 23.0731 4.47305
187 2 7.97675 23.0069 4.21822
188 2 11.8602 23.1406 4.34107
189 2 15.6637 27.1203 4.38783
190 2 3.91035 27.163 4.59541
191 2 8.10288 27.0922 4.45254
192 2 11.7902 27.0828 4.33109
193 2 15.8603 31.0334 4.54518
194 2 3.93308 31.1954 4.29725
195 2 8.01163 30.9569 4.634
196 2 11.9799 31.0268 4.30312
197 2 0.138785 35.1313 4.6303
198 2 3.97605 35.1551 4.54832
199 2 7.92716 34.9604 4.65567
200 2 11.9799 35.2245 4.42436
201 2 -0.0818034 39.1094 4.61849
202 2 4.05192 39.0668 4.52863
203 2 7.92898 39.3545 4.78875
204 2 11.8572 39.0504 4.64526
205 2 -0.049656 43.3043 4.76861
206 2 3.91997 43.3136 4.64758
207 2 7.99879 43.1825 4.78544
208 2 11.9393 43.3191 4.81845
209 2 15.6878 47.2326 4.76166
210 2 3.86411 47.2891 4.65112
211 2 7.85764 47.2007 5.05241
212 2 11.8629 47.3645 4.82313
213 2 -0.206705 51.3601 4.909
214 2 3.89564 51.3752 4.71723
215 2 7.83325 51.2301 4.61661
216 2 11.8735 51.3175 4.80561
217 2 -0.196373 55.1296 5.02124
218 2 3.86513 55.2373 5.07602
219 2 7.81751 55.4058 4.75688
220 2 11.8996 55.2642 4.87994
221 2 -0.051486 59.3459 4.95551
222 2 3.94065 59.3424 4.99933
223 2 8.0072 59.5837 5.09224
224 2 11.8194 59.3307 5.01976
225 2 -0.0594138 63.48 5.03644
226 2 3.71019 63.2629 5.14407
227 2 8.08325 63.395 5.0319
228 2 11.7899 63.3496 5.07209
229 2 -0.234813 67.4472 5.0195
230 2 3.87916 67.3731 5.07666
231 2 7.81484 67.3861 4.99875
232 2 11.8168 67.3617 5.0915
233 2 0.00350718 71.4276 5.33481
234 2 4 71.3189 5.21281
235 2 7.91256 71.4997 5.11888
236 2 11.7491 71.4971 5.27773
237 2 0.304335 75.5172 5.34568
238 2 4.08487 75.3526 5.29398
239 2 7.8604 75.5882 5.28492
240 2 11.9624 75.6582 5.52915
241 2 -0.137632 79.5565 5.36164
242 2 3.94121 79.4673 5.34601
243 2 7.91673 79.4223 5.25814
244 2 11.8327 79.611 5.49232
245 2 15.7329 83.475 5.55818
246 2 3.8403 83.5999 5.53025
247 2 7.88688 83.4336 5.53596
248 2 11.8771 83.4169 5.59615
249 2 -0.117801 87.5669 5.63239
250 2 4.15163 87.3074 5.43505
251 2 7.68524 87.5755 5.19777
252 2 11.9344 87.2812 5.46677
253 2 0.0707889 91.2333 5.46992
254 2 3.92672 91.1909 5.43691
255 2 7.82791 91.1669 5.38562
256 2 11.7527 91.3538 5.53854
257 2 -0.299825 95.2369 5.18929
258 2 3.89808 95.2068 5.38595
259 2 7.83539 95.1876 5.4063
260 2 11.6684 95.0888 5.23007
261 2 0.00863975 99.1349 5.46555
262 2 3.91025 99.0363 5.44968
263 2 7.82861 99.117 5.25949
264 2 11.81 99.1072 5.35963
265 2 15.9297 103.039 5.30981
266 2 4.09884 102.977 5.38052
267 2 8.00235 103.037 5.2918
268 2 11.9161 103.033 5.47006
269 2 -0.160025 107.06 5.2743
270 2 4.03342 106.987 4.90003
271 2 7.94121 107.239 5.21411
272 2 11.8592 107.106 5.1961
273 2 -0.0469676 110.741 5.21573
274 2 3.84316 110.876 5.10767
275 2 8.09816 111.087 5.05999
276 2 11.8798 110.977 5.22552
277 2 15.9816 114.674 5.34907
278 2 3.9228 114.903 4.92309
279 2 7.89423 114.95 5.07524
280 2 11.8758 114.933 4.95432
281 2 15.9682 118.971 4.8519
282 2 3.91979 118.816 4.96702
283 2 8.13803 118.897 5.18156
284 2 12.0372 118.66 4.9848
285 2 15.6294 122.644 4.8653
286 2 4.08361 122.603 4.86391
287 2 7.90534 122.631 4.94128
288 2 11.8502 122.721 4.99699
289 2 0.172213 126.406 4.74712
290 2 4.12134 126.363 4.88853
291 2 7.81491 126.535 4.95079
292 2 11.9676 126.551 5.02889
293 2 -0.0987422 130.528 4.88731
294 2 3.79567 130.518 4.78318
295 2 7.84528 130.561 4.97648
296 2 11.783 130.52 5.03156
297 2 0.224912 134.522 4.77573
298 2 4.10553 134.403 4.91629
299 2 7.92986 134.464 4.91999
300 2 11.9346 134.431 4.90205
301 2 15.6536 138.379 4.73648
302 2 3.98342 138.247 4.72551
303 2 8.04013 138.156 4.85445
304 2 11.8411 138.34 4.77514
305 2 -0.109768 142.268 4.84328
306 2 3.93403 142.129 4.82209
307 2 7.90522 141.964 4.85684
308 2 11.8034 142.331 4.95361
309 2 15.7965 146.057 4.82295
310 2 3.82992 146.042 4.65988
311 2 7.78259 146.035 4.69898
312 2 11.7026 146.207 4.79934
313 2 -0.077336 149.986 4.57937
314 2 3.78394 150.155 4.67883
315 2 7.79967 149.898 4.66092
316 2 11.7193 150.044 4.83834
317 2 15.7468 153.877 4.71732
318 2 3.94304 154.19 4.52093
319 2 7.83255 153.834 4.65853
320 2 11.7629 154.115 4.72339
321 2 15.869 157.99 8.6768
322 2 3.80812 157.867 8.75821
323 2 7.73605 158.075 8.41141
324 2 11.8081 157.937 8.68069
325 2 15.7407 3.42578 8.54079
326 2 3.95791 3.46533 8.6139
327 2 7.78364 3.47659 8.5789
328 2 11.7435 3.4686 8.65467
329 2 0.0159518 7.211 8.53785
330 2 3.98594 7.36085 8.33291
331 2 7.96142 7.53824 8.43012
332 2 11.8268 7.49679 8.69325
333 2 15.9837 11.3833 8.54804
334 2 3.78367 11.1861 8.37262
335 2 7.68381 11.5384 8.36972
336 2 11.7347 11.2933 8.39284
337 2 -0.0579643 15.2859 8.5731
338 2 3.88522 15.2215 8.49625
339 2 7.80985 15.3445 8.41755
340 2 11.8299 15.2455 8.39305
341 2 -0.0976851 19.122 8.29871
342 2 3.81959 19.1499 8.42598
343 2 7.80773 19.0932 8.41123
344 2 11.7226 19.2964 8.48017
345 2 0.00837898 23.05 8.23379
346 2 3.87099 22.8832 8.33029
347 2 7.87624 22.8876 8.31095
348 2 11.8762 23.0277 8.45138
349 2 15.7351 27.0507 8.49801
350 2 3.87618 27.0182 8.22463
351 2 7.9047 27.044 8.29947
352 2 11.9323 27.0326 8.33826
353 2 15.7026 31.2172 8.43199
354 2 3.99772 31.1111 8.49587
355 2 7.9252 30.9998 8.24525
356 2 11.9546 31.0982 8.61093
357 2 15.9619 35.0248 8.41429
358 2 4.06855 34.9764 8.35459
359 2 8.12001 34.9923 8.5121
360 2 11.9617 35.0859 8.50233
361 2 15.9513 39.0652 8.5783
362 2 4.00087 39.217 8.31556
363 2 7.8953 39.1293 8.68944
364 2 11.8155 39.0495 8.59743
365 2 16.0299 43.1635 8.56358
366 2 4.04253 43.4186 8.50261
367 2 7.82557 43.3288 8.86165
368 2 11.9713 43.0738 8.7826
369 2 -0.0879454 47.2613 8.72241
370 2 4.04901 47.2771 8.56238
371 2 8.05306 47.2106 8.7363
372 2 11.9979 47.1247 8.77539
373 2 0.0345418 51.0524 8.77143
374 2 3.88625 51.2047 8.67485
375 2 7.67221 51.2177 8.67247
376 2 11.6851 51.1895 8.70965
377 2 -0.269131 55.2926 8.83344
378 2 3.73201 55.2567 8.78473
379 2 7.67849 55.4806 8.81334
380 2 11.7216 55.2864 8.6801
381 2 15.8031 59.1194 9.00022
382 2 3.80976 59.2877 8.96183
383 2 7.96364 59.1056 8.93151
384 2 11.7524 59.186 9.04405
385 2 -0.140085 63.1718 9.03198
386 2 3.78533 63.3505 8.95426
387 2 7.7793 63.3887 8.83619
388 2 11.737 63.3589 9.24003
389 2 -0.229642 67.582 9.00071
390 2 3.80669 67.3844 8.99783
391 2 7.6956 67.2988 8.93271
392 2 11.8345 67.286 9.06823
393 2 0.0864334 71.3855 9.05817
394 2 4.13276 71.2153 9.14168
395 2 8.04376 71.3835 9.08917
396 2 11.8607 71.2405 9.18067
397 2 -0.0338134 75.379 9.13011
398 2 4.03995 75.4853 9.15237
399 2 7.95139 75.4094 9.31748
400 2 11.8787 75.4641 9.15593
401 2 0.0362202 79.5728 9.31038
402 2 3.97094 79.417 9.31888
403 2 7.72126 79.6136 9.24204
404 2 11.8791 79.3774 9.29351
405 2 0.0379609 83.4121 9.37691
406 2 3.92841 83.6189 9.3469
407 2 7.82368 83.5732 9.5071
408 2 11.8055 83.3404 9.21264
409 2 -0.00641111 87.4985 9.54072
410 2 3.98635 87.4484 9.45027
411 2 8.06718 87.2602 9.61968
412 2 12.0003 87.5131 9.57281
413 2 -0.16664 91.4043 9.26322
414 2 3.91685 91.4757 9.55201
415 2 7.68462 91.4547 9.35942
416 2 11.745 91.5069 9.20371
417 2 -0.219894 95.3531 9.42212
418 2 4.00668 95.1381 9.25283
419 2 7.80024 95.3122 9.3354
420 2 11.8484 95.2799 9.41606
421 2 15.8068 99.3162 9.27211
422 2 3.98693 99.1672 9.30288
423 2 7.89295 99.2018 9.34844
424 2 12.0325 99.1213 9.4681
425 2 0.0494536 103.123 9.18586
426 2 3.96971 103.185 9.25759
427 2 7.92701 103.235 9.27435
428 2 11.9146 102.938 9.34974
429 2 15.8967 106.899 9.00552
430 2 3.85993 107.251 9.02957
431 2 7.91696 107.058 9.16603
432 2 11.6899 107.008 8.97554
433 2 0.16896 111.003 9.20763
434 2 4.1637 111.126 9.12639
435 2 8.07077 110.972 9.13473
436 2 11.9309 110.965 9.42546
437 2 0.122961 114.725 9.14282
438 2 4.13878 114.997 9.23371
439 2 8.19442 114.789 9.0601
440 2 12.0668 114.924 9.00153
441 2 0.112312 118.851 8.85652
442 2 4.08672 118.921 9.09716
443 2 8.02467 118.732 9.09937
444 2 11.9691 119.001 8.91077
445 2 15.9448 122.894 8.9792
446 2 3.93784 122.588 8.94531
447 2 7.84154 122.816 9.08344
448 2 12.022 122.713 9.1037
449 2 0.189678 126.8 8.88218
450 2 4.00919 126.629 9.03506
451 2 8.02915 126.632 9.09374
452 2 12.0735 126.633 8.9088
453 2 0.0484717 130.471 8.96236
454 2 3.82148 130.703 8.96418
455 2 7.78233 130.566 9.01762
456 2 11.834 130.637 8.87199
457 2 0.0158487 134.252 8.81934
458 2 3.80508 134.436 9.07967
459 2 8.02011 134.59 8.87812
460 2 12.0476 134.327 8.86534
461 2 0.0239248 138.404 8.80132
462 2 3.71136 138.408 8.94718
463 2 7.81574 138.522 8.9009
464 2 11.8091 138.357 8.87485
465 2 -0.0728083 142.182 8.64996
466 2 3.95991 142.27 8.93839
467 2 7.94035 142.412 8.90551
468 2 11.9669 142.234 9.02905
469 2 15.9392 146.077 8.68429
470 2 3.72165 146.167 8.7589
471 2 7.80582 146.382 8.69787
472 2 11.7331 146.203 8.92438
473 2 15.7467 150.271 8.81114
474 2 3.858 150.167 8.78237
475 2 7.92014 150.278 8.48843
476 2 11.8875 150.156 8.72603
477 2 15.8042 154.038 8.61264
478 2 3.81817 153.917 8.66997
479 2 7.89279 154.158 8.44664
480 2 11.8007 154.084 8.73663
481 2 15.7481 158.013 12.647
482 2 3.85452 157.948 12.7145
483 2 7.76308 157.967 12.5416
484 2 11.7479 157.931 12.756
485 2 15.8615 3.72791 12.6073
486 2 3.80624 3.82334 12.5557
487 2 7.71628 3.7597 12.5101
488 2 11.9525 3.68955 12.5966
489 2 0.110442 7.68756 12.4287
490 2 4.06459 7.59421 12.6123
491 2 7.96298 7.57457 12.6095
492 2 11.8594 7.40075 12.3695
493 2 15.712 11.2776 12.3736
494 2 4.09674 11.3878 12.4574
495 2 7.99079 11.4662 12.5262
496 2 11.9926 11.3484 12.2959
497 2 0.0776998 15.3941 12.5222
498 2 3.86864 15.1583 12.635
499 2 7.94883 15.2438 12.3471
500 2 11.8676 15.377 12.5114
501 2 15.8982 19.3615 12.4285
502 2 3.94457 19.0863 12.4686
503 2 7.75673 19.1655 12.2737
504 2 11.9718 19.1374 12.5057
505 2 15.7697 23.2348 12.3897
506 2 3.92898 23.0516 12.3387
507 2 7.88042 23.127 12.3451
508 2 12.0185 23.0789 12.4428
509 2 15.8924 26.9123 12.3149
510 2 4.19308 27.0041 12.3868
511 2 8.04475 27.0348 12.2166
512 2 11.7517 27.0066 12.212
513 2 -0.0501916 31.0407 12.4369
514 2 3.8851 30.9427 12.428
515 2 7.65392 30.8795 12.301
516 2 11.9076 31.2441 12.5051
517 2 15.9133 35.2529 12.4554
518 2 4.01392 34.9345 12.3237
519 2 7.96087 34.9274 12.2557
520 2 11.9748 35.1288 12.4952
521 2 15.9158 39.1898 12.5745
522 2 4.22325 39.0008 12.2181
523 2 7.92574 39.0675 12.4135
524 2 11.8126 39.2055 12.4178
525 2 15.7123 43.0663 12.532
526 2 3.98147 43.0977 12.5427
527 2 7.76355 43.0237 12.6978
528 2 11.899 43.0112 12.7861
529 2 15.8974 47.1271 12.5875
530 2 3.93221 46.9555 12.6609
531 2 7.95845 47.1181 12.6431
532 2 12.106 47.0732 12.6291
533 2 -0.00132573 51.0962 12.7204
534 2 3.88607 51.1564 12.8094
535 2 8.0091 51.1297 12.547
536 2 11.8051 51.1431 12.5823
537 2 0.0804251 55.0611 12.675
538 2 3.93655 55.0172 12.7461
539 2 7.88619 55.2213 12.806
540 2 11.9548 55.2024 12.6953
541 2 0.0533412 59.3807 12.9356
542 2 3.89927 59.2829 12.8947
543 2 7.83291 59.1679 12.7352
544 2 11.9074 59.2703 12.9124
545 2 -0.221318 63.2513 12.8195
546 2 3.88005 63.3652 12.8649
547 2 7.81168 63.2149 12.9156
548 2 11.7267 63.2638 12.7304
549 2 0.114181 67.3157 13.0163
550 2 3.88164 67.2005 12.9444
551 2 7.76127 67.2285 13.0968
552 2 11.9683 67.3162 13.233
553 2 -0.0442458 71.4406 12.8709
554 2 3.90637 71.2864 13.0142
555 2 7.82298 71.3256 12.915
556 2 11.9478 71.2644 12.8942
557 2 -0.0651529 75.28 13.2779
558 2 4.05125 75.5289 13.0805
559 2 7.92043 75.3687 13.1476
560 2 11.8145 75.4476 13.1846
561 2 -0.0324627 79.2244 13.2429
562 2 3.74513 79.2549 13.0413
563 2 7.83467 79.3457 13.2357
564 2 11.8472 79.6604 13.1877
565 2 -0.183209 83.3119 13.3199
566 2 3.82866 83.1854 13.4269
567 2 7.8732 83.2798 13.2567
568 2 11.9231 83.2892 13.4141
569 2 0.0380115 87.531 13.4122
570 2 3.81177 87.373 13.2476
571 2 8.05673 87.4923 13.4203
572 2 11.8997 87.3468 13.2733
573 2 0.114475 91.4393 13.3447
574 2 4.03274 91.4731 13.547
575 2 7.88346 91.4285 13.509
576 2 11.9638 91.3843 13.4837
577 2 -0.0475758 95.2987 13.3866
578 2 3.90732 95.1195 13.3074
579 2 7.92877 95.2329 13.3327
580 2 11.9358 95.4188 13.4722
581 2 0.165665 99.1353 13.4412
582 2 3.97641 99.013 13.4368
583 2 7.92814 99.0286 13.4019
584 2 11.8349 99.2309 13.4348
585 2 -0.00707994 103.237 13.3557
586 2 4.07662 103.199 13.2046
587 2 7.88252 103.017 13.2305
588 2 11.804 103.2 13.4601
589 2 15.7946 106.947 13.0818
590 2 3.85712 107.041 13.1148
591 2 7.88895 107.036 13.2481
592 2 12.0862 107.027 13.449
593 2 0.192674 110.877 13.1015
594 2 4.07719 110.903 13.2085
595 2 7.97456 111.136 13.2578
596 2 12.0176 110.999 13.3013
597 2 16.0489 114.891 13.221
598 2 4.14845 114.88 13.2362
599 2 8.11081 114.948 13.052
600 2 12.1396 114.909 13.1093
601 2 16.0455 118.867 13.2578
602 2 4.26714 118.801 13.1079
603 2 8.09755 118.802 13.0799
604 2 11.9751 118.685 13.0668
605 2 0.145491 122.881 13.1263
606 2 4.06375 122.792 13.1307
607 2 8.12487 122.791 13.0965
608 2 12.0815 122.747 12.9395
609 2 15.9109 126.736 13.14
610 2 3.98007 126.823 13.0596
611 2 7.9519 126.67 13.1115
612 2 11.9943 126.554 13.0899
613 2 15.9651 130.626 12.9993
614 2 4.07692 130.51 12.999
615 2 8.03473 130.54 12.919
616 2 11.9249 130.454 13.0269
617 2 -0.0369526 134.576 12.8418
618 2 4.07991 134.474 12.7655
619 2 7.98079 134.661 12.9338
620 2 12.0386 134.484 12.9316
621 2 -0.0300218 138.498 12.82
622 2 3.99684 138.279 12.84
623 2 7.79418 138.409 12.8472
624 2 11.8945 138.492 12.8693
625 2 15.9201 142.354 12.8754
626 2 4.179 142.274 12.8117
627 2 7.92034 142.274 12.8288
628 2 11.9688 142.539 12.8265
629 2 -0.0373386 146.368 12.8073
630 2 3.84328 146.395 12.6042
631 2 7.83678 146.317 12.7802
632 2 11.9688 146.299 12.8309
633 2 15.7832 150.214 12.73
634 2 3.88519 150.141 12.7249
635 2 7.89324 150.393 12.7507
636 2 11.756 150.093 12.7053
637 2 15.869 154.286 12.5201
638 2 4.10571 154.17 12.4958
639 2 7.91946 154.106 12.6144
640 2 12.0222 154.028 12.5554
641 2 15.7163 157.992 16.7518
642 2 4.00506 158.228 16.594
643 2 8.05234 158.077 16.6754
644 2 11.952 158.055 16.6141
645 2 15.5766 3.71896 16.7172
646 2 3.8329 3.80024 16.6274
647 2 8.02425 3.54749 16.4687
648 2 11.8822 3.62332 16.5942
649 2 -0.0208581 7.6119 16.6693
650 2 3.86487 7.78183 16.538
651 2 7.90978 7.6769 16.6182
652 2 11.8645 7.52782 16.7254
653 2 15.7344 11.3822 16.5882
654 2 4.03415 11.6517 16.5276
655 2 7.88193 11.4477 16.6212
656 2 11.9068 11.4742 16.528
657 2 -0.0908987 15.5804 16.4607
658 2 3.86074 15.3171 16.4846
659 2 7.95194 15.3233 16.4821
660 2 11.9574 15.3874 16.4644
661 2 15.9614 19.3978 16.4964
662 2 3.92666 19.2261 16.422
663 2 7.79517 19.1487 16.4002
664 2 11.8416 19.3565 16.6484
665 2 15.7645 23.0062 16.4168
666 2 3.98256 23.2511 16.5482
667 2 8.04412 23.0064 16.1226
668 2 12.0196 23.2588 16.2473
669 2 0.0378216 27.1646 16.4417
670 2 3.96797 27.1114 16.3156
671 2 8.0117 27.1225 16.3973
672 2 11.8389 27.3688 16.2191
673 2 15.9015 30.9349 16.3267
674 2 3.96362 30.9067 16.4101
675 2 7.89797 31.031 16.2574
676 2 11.8863 30.9418 16.1756
677 2 15.9433 34.9569 16.3191
678 2 4.06114 34.9907 16.4164
679 2 7.79997 34.9468 16.175
680 2 11.8868 34.8673 16.3883
681 2 0.113013 38.9004 16.2949
682 2 4.02178 38.971 16.5428
683 2 8.03656 38.8386 16.2093
684 2 12.0004 39.0124 16.4013
685 2 15.9674 42.8742 16.5676
686 2 4.07066 42.9974 16.5341
687 2 8.06228 42.9402 16.5565
688 2 12.0825 43.0335 16.5465
689 2 0.0865225 47.1489 16.5631
690 2 4.05606 47.0435 16.5747
691 2 8.0769 47.0586 16.4059
692 2 11.9046 47.0564 16.617
693 2 15.8396 51.0162 16.517
694 2 3.94098 50.9969 16.5654
695 2 7.97329 51.0314 16.5508
696 2 11.8816 51.036 16.4491
697 2 -0.0449211 55.086 16.703
698 2 3.80033 55.2565 16.7847
699 2 7.96072 55.1512 16.6068
700 2 11.8303 55.2073 16.6206
701 2 -0.0397586 59.303 16.8965
702 2 3.75571 59.2971 16.6168
703 2 8.01704 59.0922 16.7133
704 2 11.7135 59.0022 16.8108
705 2 -0.000449137 63.1153 16.9301
706 2 3.87249 63.4195 16.712
707 2 7.71874 63.1651 16.702
708 2 11.7653 63.2307 16.6896
709 2 -0.00565864 67.0987 16.8828
710 2 3.93676 67.2977 17.0476
711 2 7.73783 67.2218 16.9417
712 2 11.8778 67.0739 17.0079
713 2 -0.132714 71.3016 16.9445
714 2 4.13606 71.2408 16.9435
715 2 7.76061 71.2858 16.8361
716 2 11.8505 71.1183 16.8492
717 2 0.0293181 75.2628 17.2439
718 2 3.83561 75.2869 17.1747
719 2 8.16457 75.4051 17.0299
720 2 11.896 75.2411 16.961
721 2 0.0287407 79.2652 17.3223
722 2 4.0726 79.3553 17.1815
723 2 7.79263 79.1705 17.1982
724 2 11.8591 79.2207 17.1824
725 2 0.0691481 83.418 17.2516
726 2 4.04094 83.2214 17.1706
727 2 7.93046 83.2296 17.2622
728 2 11.8249 83.2815 17.2166
729 2 0.107104 87.5423 17.3998
730 2 4.01843 87.2823 17.1942
731 2 7.86911 87.3328 17.2036
732 2 11.8399 87.2992 17.1576
733 2 -0.0546878 91.3735 17.4213
734 2 4.01779 91.2112 17.374
735 2 7.95022 91.5655 17.4247
736 2 11.946 91.4172 17.445
737 2 0.052152 95.2172 17.4897
738 2 4.18995 95.4951 17.3985
739 2 8.0577 95.3322 17.3016
740 2 12.0432 95.2206 17.2693
741 2 15.9521 99.3844 17.6388
742 2 3.9037 99.3624 17.4506
743 2 7.89385 99.1566 17.3676
744 2 11.7584 99.237 17.4118
745 2 15.8142 103.253 17.2557
746 2 3.9715 103.356 17.2795
747 2 7.95151 103.109 17.1507
748 2 11.8431 103.005 17.2459
749 2 15.9068 107.169 17.3632
750 2 4.09056 107.273 17.2471
751 2 8.07034 107.148 17.3311
752 2 11.8215 107.251 17.4052
753 2 0.106841 111.22 17.2971
754 2 4.10123 110.942 17.2051
755 2 7.99433 111.088 17.3488
756 2 11.9215 110.936 17.362
757 2 0.288565 115.006 17.2257
758 2 4.12655 115.001 17.227
759 2 8.14591 115.073 17.227
760 2 12.1341 114.872 17.1489
761 2 0.0160433 118.713 17.2724
762 2 4.14915 118.935 17.1992
763 2 8.209 118.773 17.0722
764 2 12.1658 118.686 17.0726
765 2 0.309976 122.794 17.0786
766 2 4.21072 122.68 17.1152
767 2 8.04664 122.83 17.1
768 2 11.966 122.778 17.0884
769 2 0.139056 126.588 17.015
770 2 3.87632 126.702 16.9362
771 2 8.02329 126.555 16.8765
772 2 11.815 126.863 17.0636
773 2 0.205869 130.728 17.0145
774 2 4.07342 130.58 17.1507
775 2 8.00167 130.535 17.1725
776 2 11.9188 130.483 16.9487
777 2 0.16274 134.504 16.9911
778 2 4.19032 134.536 16.8573
779 2 8.11445 134.471 16.8902
780 2 11.96 134.567 16.9564
781 2 15.8527 138.806 16.8636
782 2 3.99708 138.409 16.809
783 2 8.05869 138.276 16.5685
784 2 12.0509 138.473 16.9978
785 2 15.9431 142.498 16.9148
786 2 4.08467 142.348 16.9116
787 2 7.98666 142.436 16.8472
788 2 11.8933 142.346 16.7381
789 2 15.9167 146.471 16.8236
790 2 3.87387 146.158 16.7967
791 2 8.0403 146.282 16.5658
792 2 11.8934 146.458 16.7638
793 2 15.7519 150.208 16.7441
794 2 3.88894 150.121 16.7511
795 2 7.83052 150.137 16.8393
796 2 11.8793 150.343 16.5668
797 2 -0.0848607 154.04 16.7111
798 2 3.8182 154.167 16.6045
799 2 7.89802 154.085 16.731
800 2 11.8622 154.044 16.6877
801 2 -0.00752012 158.058 20.7083
802 2 3.94568 158.086 20.5081
803 2 7.89913 157.956 20.6097
804 2 11.9044 158.281 20.6853
805 2 15.9167 3.71957 20.5611
806 2 4.01094 3.58199 20.6741
807 2 7.69938 3.68415 20.6837
808 2 11.8302 3.65828 20.7032
809 2 0.201207 7.57195 20.6819
810 2 4.11098 7.78209 20.4916
811 2 7.9903 7.51579 20.4191
812 2 11.835 7.57565 20.5682
813 2 15.7781 11.623 20.5191
814 2 4.0601 11.6662 20.5793
815 2 8.1504 11.525 20.6565
816 2 11.9108 11.5843 20.5975
817 2 15.7753 15.5582 20.3782
818 2 3.9815 15.2944 20.4814
819 2 7.99119 15.4744 20.4967
820 2 11.9126 15.3882 20.5144
821 2 15.7107 19.479 20.4157
822 2 4.0769 19.4292 20.4111
823 2 8.04306 19.4031 20.5928
824 2 11.8615 19.4662 20.5734
825 2 15.9056 23.3112 20.4601
826 2 4.15009 23.0475 20.4157
827 2 7.86562 23.2476 20.3897
828 2 11.9088 23.3224 20.1574
829 2 0.2525 27.083 20.4779
830 2 3.90541 27.0358 20.3743
831 2 7.93894 27.0889 20.4444
832 2 11.973 27.0621 20.3026
833 2 -0.212538 30.917 20.3406
834 2 3.90823 31.0587 20.3135
835 2 7.90419 31.0523 20.4637
836 2 11.8401 30.9887 20.3546
837 2 15.8604 34.7723 20.1546
838 2 4.05058 35.0034 20.188
839 2 8.05957 34.8681 20.284
840 2 11.7725 34.8388 20.124
841 2 0.00951757 38.9344 20.4832
842 2 3.95111 38.8185 20.3057
843 2 8.15189 38.9121 20.227
844 2 12.0337 38.8766 20.2471
845 2 0.112326 42.9113 20.1673
846 2 4.01875 42.8616 20.2909
847 2 8.04711 42.9517 20.2764
848 2 12.1854 42.8414 20.5263
849 2 0.205364 46.8773 20.4416
850 2 3.94923 46.9729 20.5369
851 2 8.12168 47.0548 20.2794
852 2 12.0082 47.0142 20.4183
853 2 0.0191457 51.2823 20.269
854 2 3.79951 51.1532 20.4881
855 2 8.05133 50.982 20.4214
856 2 11.9455 50.9493 20.4884
857 2 0.145499 55.0334 20.9246
858 2 4.11463 55.0281 20.5402
859 2 7.97258 55.0143 20.4722
860 2 12.1997 55.1082 20.536
861 2 15.8047 59.028 20.5803
862 2 3.9248 59.3248 20.536
863 2 7.75543 59.0209 20.4935
864 2 11.778 59.0797 20.6302
865 2 15.6689 62.999 20.7749
866 2 3.79766 63.1668 20.7318
867 2 7.8539 62.9255 20.6167
868 2 11.8566 63.1324 20.7046
869 2 -0.086303 67.2521 20.8861
870 2 3.86953 67.3295 20.7079
871 2 7.76154 67.1122 20.8504
872 2 11.6485 67.0773 20.738
873 2 0.000187188 71.1584 20.635
874 2 3.92522 71.2734 20.7176
875 2 7.8841 71.1997 20.8643
876 2 11.6896 71.1767 20.785
877 2 0.0769852 75.1621 21.0294
878 2 3.89745 75.4158 21.1428
879 2 7.9491 75.1451 20.9202
880 2 11.9441 75.3052 21.1566
881 2 -0.118704 79.1496 21.1174
882 2 4.02465 79.2245 21.1104
883 2 7.92079 79.0768 21.1056
884 2 12.0112 79.2799 21.167
885 2 0.247435 83.3465 21.1294
886 2 3.92438 83.2377 21.263
887 2 7.83332 83.1879 21.1592
888 2 11.7424 83.2371 21.1888
889 2 -0.0593112 87.2809 21.0828
890 2 4.145 87.2271 21.097
891 2 7.81816 87.1931 21.3653
892 2 11.7976 87.2231 21.1339
893 2 0.173414 91.4599 21.3068
894 2 3.94097 91.4018 21.2714
895 2 8.06763 91.339 21.3954
896 2 11.8964 91.3178 21.3658
897 2 15.8759 95.1693 21.363
898 2 4.03337 95.3036 21.2044
899 2 7.98083 95.4558 21.3307
900 2 12.0076 95.3342 21.4391
901 2 0.00479763 99.2093 21.506
902 2 3.91746 99.2333 21.4692
903 2 7.8306 99.3083 21.3693
904 2 12.1186 99.3662 21.4382
905 2 15.8366 103.256 21.3559
906 2 4.0912 103.278 21.3437
907 2 7.78187 103.167 21.5229
908 2 11.7507 103.252 21.2713
909 2 0.140561 107.142 21.415
910 2 4.04597 107.182 21.3331
911 2 8.01773 107.206 21.3383
912 2 12.008 107.136 21.2106
913 2 15.9257 111.186 21.1633
914 2 4.24645 111.017 21.3483
915 2 8.04932 111.083 21.2521
916 2 12.0523 111.063 21.4079
917 2 0.209537 115.079 21.3216
918 2 4.1284 115.016 21.4407
919 2 7.91352 114.997 21.1885
920 2 11.9359 115.074 21.1968
921 2 0.064356 119.13 21.1032
922 2 4.11607 119.057 21.3567
923 2 8.01264 119.142 21.0378
924 2 11.9399 119.009 20.9679
925 2 -0.00932428 123.021 21.1098
926 2 4.04274 122.895 21.1867
927 2 7.94038 122.913 21.0297
928 2 12.0174 122.894 21.0504
929 2 -0.138524 126.84 21.1879
930 2 3.93951 126.924 20.9816
931 2 7.99641 126.551 20.9547
932 2 12.0432 127.012 20.8895
933 2 -0.0468093 130.671 21.0332
934 2 3.95373 130.819 21.1364
935 2 7.87198 130.653 20.8191
936 2 11.9162 130.714 21.012
937 2 15.7685 134.56 20.9006
938 2 4.21307 134.697 20.8762
939 2 8.07584 134.545 20.9697
940 2 11.8841 134.446 20.8249
941 2 15.9776 138.356 21.1195
942 2 4.10398 138.411 21.0303
943 2 8.30579 138.468 20.9076
944 2 12.0915 138.456 20.8017
945 2 16.0342 142.362 20.7683
946 2 4.08834 142.698 20.8511
947 2 7.9507 142.399 20.8075
948 2 11.9334 142.414 20.8529
949 2 -0.155881 146.334 20.7647
950 2 4.00734 146.431 20.7574
951 2 7.9666 146.466 20.8256
952 2 11.6881 146.413 20.8191
953 2 15.7378 150.289 20.6892
954 2 3.92155 150.223 20.7641
955 2 7.95361 150.241 20.854
956 2 11.6313 150.491 20.5601
957 2 0.134711 154.179 20.6961
958 2 4.01487 154.215 20.6822
959 2 7.78967 154.127 20.7203
960 2 11.8114 154.171 20.6625
961 2 0.0935445 158.225 24.7803
962 2 4.0951 158.183 24.6918
963 2 7.87809 157.955 24.6815
964 2 11.9494 157.983 24.5812
965 2 15.8588 3.77586 24.6298
966 2 4.04107 3.8473 24.6576
967 2 7.77898 3.62988 24.5896
968 2 11.8285 3.75221 24.6861
969 2 -0.0808543 7.61924 24.6613
970 2 4.02413 7.78234 24.7934
971 2 7.92116 7.65006 24.4774
972 2 11.8873 7.52272 24.531
973 2 0.0773816 11.4689 24.5451
974 2 4.03644 11.4997 24.6067
975 2 7.88402 11.4957 24.628
976 2 11.8696 11.5296 24.5367
977 2 0.107681 15.4214 24.3885
978 2 3.87131 15.3645 24.4141
979 2 7.93124 15.6131 24.5128
980 2 11.9869 15.5215 24.5307
981 2 15.8388 19.3398 24.6824
982 2 3.90358 19.4418 24.4742
983 2 8.05042 19.2842 24.44
984 2 11.8388 19.3894 24.4978
985 2 -0.0704984 23.2089 24.5064
986 2 3.85173 23.1422 24.5531
987 2 7.99192 23.4288 24.6104
988 2 11.9992 23.2929 24.5213
989 2 0.104704 27.2969 24.3247
990 2 3.95624 27.0764 24.3596
991 2 7.85853 27.1706 24.3969