ITEM: TIMESTEP
18200
ITEM: NUMBER OF ATOMS
32000
ITEM: BOX BOUNDS xy xz yz pp pp pp
0.0000000000000000e+00 1.5832000000000001e+01 0.0000000000000000e+00
0.0000000000000000e+00 1.5831999999999999e+02 0.0000000000000000e+00
7.9378087483550530e-01 1.6018333712516181e+02 0.0000000000000000e+00
ITEM: ATOMS id type x y z
1 2 -0.053953 157.783 159.955
2 2 4.00449 157.886 160.093
3 2 7.82016 157.747 160.09
4 2 11.8746 157.784 159.976
5 2 15.7526 3.38418 159.771
6 2 3.83925 3.29839 159.984
7 2 8.02973 3.32199 159.996
8 2 11.7584 3.47152 160.097
9 2 0.119663 7.25227 159.887
10 2 3.8995 7.21368 159.937
11 2 7.85762 7.34759 159.889
12 2 12.0061 7.44722 159.981
13 2 0.0146891 11.2322 159.782
14 2 3.97633 10.9557 160.149
15 2 7.7414 11.2449 160.03
16 2 11.8721 11.1073 159.792
17 2 15.9398 15.096 159.864
18 2 3.87084 15.01 159.818
19 2 7.60926 15.0735 159.716
20 2 11.8626 15.0529 159.673
21 2 -0.207108 18.9246 159.738
22 2 3.81878 19.0303 159.971
23 2 7.87966 18.9838 159.851
24 2 11.8579 19.0967 159.854
25 2 15.6911 23.0719 0.375437
26 2 3.89031 23.1319 159.738
27 2 7.78787 23.0969 160.104
28 2 11.9736 23.1013 160.01
29 2 15.9878 27.2117 160.011
30 2 4.07016 27.114 160.03
31 2 8.08818 27.2935 160.017
32 2 12.0068 27.1324 160.074
33 2 15.6609 30.9938 159.957
34 2 4.02646 31.1865 160.184
35 2 7.94286 31.2136 159.839
36 2 11.9805 31.162 0.853117
37 2 16.0147 35.0744 159.977
38 2 3.95576 35.1374 0.598488
39 2 8.06916 35.3232 159.944
40 2 12.0404 35.1625 0.705014
41 2 0.184596 39.3069 160.031
42 2 3.88157 39.1663 0.68341
43 2 8.01709 39.1012 0.590794
44 2 12.0988 39.4139 160.062
45 2 -0.0555852 43.3404 0.635475
46 2 3.98968 43.3854 0.663277
47 2 7.84851 43.2389 0.602693
48 2 11.7909 43.224 0.442565
49 2 15.8986 47.4351 0.887307
50 2 4.08245 47.366 0.97119
51 2 8.04406 47.2554 0.649273
52 2 11.9774 47.1892 0.919271
53 2 -0.0135311 51.3399 0.954996
54 2 3.86715 51.5198 1.08422
55 2 7.98889 51.4794 1.10513
56 2 11.8835 51.5646 160.25
57 2 -0.103604 55.2031 0.984353
58 2 3.93404 55.2829 0.867125
59 2 7.77676 55.5213 1.1877
60 2 11.975 55.2843 0.991431
61 2 -0.181261 59.3851 1.06379
62 2 4.00415 59.3706 0.941662
63 2 7.8297 59.5289 0.945445
64 2 11.6722 59.4341 0.907286
65 2 0.0291736 63.4773 1.27895
66 2 3.93545 63.5343 1.36877
67 2 7.79076 63.5061 1.341
68 2 11.8666 63.5738 1.30953
69 2 0.0309271 67.4898 1.13828
70 2 3.9312 67.3978 1.03009
71 2 8.01352 67.6774 1.17063
72 2 11.768 67.5571 1.19775
73 2 15.9696 71.4269 1.13359
74 2 3.76223 71.4948 1.34631
75 2 7.77774 71.5044 1.50647
76 2 11.7852 71.3868 1.43965
77 2 0.0904275 75.5378 1.37422
78 2 3.91252 75.3748 1.28865
79 2 7.76003 75.604 1.68044
80 2 11.6942 75.6475 1.38676
81 2 0.330377 79.8768 1.41573
82 2 3.94979 79.5023 1.28737
83 2 7.88874 79.5032 1.64606
84 2 12.009 79.4377 1.46319
85 2 0.138715 83.6659 1.33255
86 2 4.13323 83.4177 1.42781
87 2 7.8329 83.5133 1.44298
88 2 11.8443 83.2711 1.3863
89 2 -0.106436 87.4023 1.34333
90 2 4.06643 87.4579 1.57364
91 2 7.83129 87.5074 1.41238
92 2 11.7253 87.368 1.45155
93 2 -0.0518692 91.2679 1.27404
94 2 3.86148 91.1605 1.38922
95 2 7.88058 91.4524 1.29403
96 2 11.7927 91.3985 1.47612
97 2 0.0905726 95.4174 1.34142
98 2 4.04977 95.2814 1.30034
99 2 8.0356 95.2232 1.29752
100 2 11.9615 95.358 1.06123
101 2 0.0618803 99.2075 1.30754
102 2 4.02434 99.1243 1.3237
103 2 8.04233 99.1899 1.3905
104 2 12.0346 99.054 1.36446
105 2 15.7797 103.08 1.16054
106 2 4.04196 103.192 1.29513
107 2 7.84537 103.3 1.20766
108 2 11.7631 102.884 1.2667
109 2 15.7971 106.983 1.19797
110 2 3.78506 107.13 1.20149
111 2 7.89014 107.049 1.35191
112 2 12.1429 107.051 1.15148
113 2 0.0240118 110.88 1.1935
114 2 4.02019 110.805 1.22616
115 2 7.8307 110.853 1.12791
116 2 11.7726 110.863 1.28895
117 2 -0.172331 114.876 1.04498
118 2 3.91908 114.867 1.08273
119 2 7.95611 114.778 1.27106
120 2 11.7905 114.727 1.28594
121 2 15.8226 118.73 1.13329
122 2 4.06417 118.998 1.113
123 2 8.03641 118.714 1.05986
124 2 11.8818 118.881 160.387
125 2 0.112495 122.857 1.01489
126 2 3.93606 122.712 1.09699
127 2 7.98229 122.564 1.13434
128 2 11.9816 122.65 1.01143
129 2 0.2248 126.533 160.214
130 2 4.03665 126.596 160.454
131 2 8.06982 126.566 1.06301
132 2 12.1698 126.492 0.875065
133 2 -0.139957 130.525 160.179
134 2 4.00645 130.468 160.36
135 2 7.69978 130.492 0.819912
136 2 11.7305 130.496 160.339
137 2 -0.0532602 134.369 160.271
138 2 3.97911 134.515 160.271
139 2 7.87908 134.471 0.817426
140 2 11.7654 134.693 160.158
141 2 0.110538 138.168 160.1
142 2 3.9779 138.429 160.152
143 2 7.73813 138.315 160.14
144 2 11.8512 138.386 0.834035
145 2 15.6851 142.323 160.028
146 2 3.95798 142.224 159.904
147 2 7.82014 142.234 160.075
148 2 11.8428 142.119 160.183
149 2 -0.00252868 146.187 159.926
150 2 4.06777 146.131 160.261
151 2 8.04372 146.174 160.083
152 2 11.9017 146.004 160.105
153 2 16.098 149.963 159.871
154 2 3.84754 149.996 159.952
155 2 7.96609 150.11 159.969
156 2 11.956 150.24 160.02
157 2 15.9095 153.949 159.96
158 2 4.05534 153.835 159.795
159 2 7.87061 154.024 159.909
160 2 11.8565 154.023 159.898
161 2 15.8405 157.787 4.60909
162 2 3.9531 157.766 4.58372
163 2 7.92065 158.021 4.64057
164 2 11.8507 157.979 4.69831
165 2 15.97 3.55832 4.48875
166 2 3.99276 3.56185 4.83195
167 2 7.92461 3.4057 4.57166
168 2 11.9427 3.41643 4.63362
169 2 15.6647 7.40228 4.61185
170 2 3.91862 7.40354 4.62834
171 2 7.7021 7.36111 4.65647
172 2 11.595 7.24498 4.54851
173 2 15.7457 11.3609 4.45899
174 2 3.94854 11.1104 4.59735
175 2 7.76143 11.1556 4.56181
176 2 11.5612 11.4356 4.35455
177 2 15.6258 14.9705 4.38514
178 2 4.06288 15.0753 4.5701
179 2 8.05659 14.9688 4.22851
180 2 11.8133 15.0998 4.36432
181 2 -0.0368549 18.9545 4.33438
182 2 3.94832 19.1152 4.38195
183 2 7.75418 19.0064 4.48588
184 2 11.7439 19.0101 4.39476
185 2 15.8459 22.9384 4.65154
186 2 3.94665 22.9312 4.45866
187 2 7.8318 23.0349 4.44524
188 2 11.8637 22.9278 4.25811
189 2 15.9586 27.0112 4.494
190 2 3.94348 26.9126 4.29294
191 2 8.09039 27.0281 4.36957
192 2 12.0302 27.0163 4.65225
193 2 15.9482 31.0914 4.44314
194 2 4.23182 31.158 4.60665
195 2 7.76253 31.0393 4.56194
196 2 11.6841 31.3218 4.71551
197 2 0.0392565 35.1267 4.54432
198 2 3.91327 35.0674 4.65019
199 2 7.75132 35.2084 4.35742
200 2 11.945 35.2167 4.6269
201 2 0.082892 39.3215 4.54927
202 2 3.9228 39.232 4.62575
203 2 7.8984 39.0245 4.39182
204 2 11.9366 39.2188 4.54483
205 2 0.287228 43.3075 4.70283
206 2 4.01326 43.2224 4.66751
207 2 7.9254 43.1659 4.52391
208 2 11.7944 43.1986 4.41935
209 2 16.0686 47.1099 4.79708
210 2 3.97622 47.3114 4.9165
211 2 7.86026 47.3022 4.59349
212 2 11.8831 47.2143 4.63904
213 2 -0.111742 51.3579 4.94875
214 2 4.14265 51.1814 4.78722
215 2 7.90895 51.1033 4.95255
216 2 11.9042 51.1007 4.89972
217 2 -0.0605167 55.2816 4.8786
218 2 3.90424 55.2604 4.85846
219 2 7.81004 55.3013 4.9516
220 2 11.9258 55.2712 5.0405
221 2 -0.12525 59.3258 4.95276
222 2 3.91636 59.326 5.13544
223 2 7.90116 59.3881 4.94723
224 2 11.7192 59.2663 5.10787
225 2 0.052075 63.4231 5.07645
226 2 3.79104 63.5006 4.98581
227 2 7.9485 63.3005 5.1685
228 2 11.7088 63.5673 4.95867
229 2 -0.0343517 67.2487 5.35772
230 2 4.06711 67.4858 5.16529
231 2 7.86322 67.3524 5.2887
232 2 11.7308 67.545 5.19483
233 2 -0.102301 71.4195 5.14738
234 2 3.90707 71.4624 5.15949
235 2 7.64546 71.4207 5.26804
236 2 12.0366 71.4639 5.21072
237 2 -0.185354 75.4463 5.342
238 2 3.78399 75.4361 5.29578
239 2 7.94982 75.3239 5.36631
240 2 11.8747 75.4627 5.2393
241 2 -0.0508828 79.5965 5.5617
242 2 3.90224 79.5176 5.48272
243 2 8.13577 79.6885 5.57703
244 2 11.9834 79.552 5.39316
245 2 15.9011 83.38 5.51185
246 2 3.83196 83.3987 5.37738
247 2 7.80313 83.5172 5.41551
248 2 11.9085 83.4615 5.34038
249 2 -0.183926 87.1391 5.52786
250 2 3.74682 87.5577 5.31005
251 2 7.78952 87.421 5.45071
252 2 11.7714 87.4353 5.51853
253 2 -0.21105 91.6168 5.2696
254 2 3.93631 91.4883 5.43575
255 2 7.95951 91.4509 5.67555
256 2 11.9039 91.364 5.43166
257 2 0.153976 95.363 5.3214
258 2 4.08144 95.4024 5.42804
259 2 7.89584 95.2394 5.59228
260 2 12.0219 95.3423 5.24553
261 2 0.0556627 99.3002 5.36609
262 2 4.03294 99.2979 5.19875
263 2 7.92678 99.2212 5.43881
264 2 11.9311 99.2847 5.26997
265 2 15.7316 103.053 5.34797
266 2 3.8772 103.267 5.44693
267 2 7.82782 103.141 5.3356
268 2 11.9401 103.16 5.30265
269 2 0.200715 107.055 5.34688
270 2 3.93201 107.116 5.34632
271 2 8.04506 106.988 5.28835
272 2 11.9865 107.033 5.16088
273 2 0.0777077 111.103 5.21265
274 2 4.03965 110.92 5.21133
275 2 8.04469 110.712 5.07911
276 2 11.8969 110.804 5.18058
277 2 15.6892 115.03 4.79015
278 2 3.90312 114.848 5.05227
279 2 8.0396 114.697 5.21254
280 2 11.939 114.875 5.23708
281 2 15.9119 118.789 5.24175
282 2 3.97752 118.924 5.0775
283 2 7.91508 118.635 5.04686
284 2 11.904 118.796 5.20736
285 2 15.9663 122.736 5.04442
286 2 4.02978 122.726 5.12447
287 2 7.96233 122.665 5.07729
288 2 11.933 122.668 5.02382
289 2 -0.0127946 126.664 5.07082
290 2 4.01275 126.669 5.12222
291 2 7.91499 126.655 4.84403
292 2 11.926 126.488 4.81947
293 2 0.0434777 130.61 4.76152
294 2 3.75069 130.504 4.84297
295 2 8.1811 130.643 4.81344
296 2 11.9639 130.409 4.9302
297 2 -0.137653 134.328 4.95578
298 2 3.71278 134.401 4.79204
299 2 7.9435 134.303 4.8392
300 2 11.8053 134.477 4.86482
301 2 15.7488 138.362 4.93248
302 2 4.12777 138.334 4.757
303 2 8.01121 138.456 4.78057
304 2 11.9184 138.231 4.8399
305 2 0.0603842 142.272 4.78258
306 2 3.96268 142.349 4.78916
307 2 7.92193 142.441 4.574
308 2 11.85 142.069 4.66868
309 2 16.0596 146.064 4.63564
310 2 4.0903 146.129 4.79254
311 2 8.18526 146.451 4.61072
312 2 12.0158 146.302 4.72436
313 2 0.17147 150.436 4.5789
314 2 4.15342 150.117 4.56082
315 2 8.16402 150.213 4.62125
316 2 11.8509 150.023 4.50155
317 2 16.0166 154.141 4.58494
318 2 4.01288 153.85 4.77401
319 2 8.04671 153.965 4.70099
320 2 11.9608 153.929 4.59239
321 2 15.8294 157.828 8.42694
322 2 4.11938 158.079 8.6891
323 2 7.97895 157.853 8.72077
324 2 11.8803 157.86 8.66867
325 2 15.7737 3.57025 8.53412
326 2 3.97655 3.65801 8.58276
327 2 8.01612 3.59186 8.58752
328 2 11.8868 3.72349 8.49544
329 2 -0.018874 7.52935 8.56161
330 2 3.91327 7.43634 8.49602
331 2 7.79023 7.44285 8.57084
332 2 11.8238 7.40284 8.65474
333 2 15.7622 11.298 8.47583
334 2 3.94312 11.5119 8.64609
335 2 7.95566 11.1159 8.59565
336 2 11.82 11.3228 8.68804
337 2 0.0179359 15.2313 8.43909
338 2 4.02855 15.3448 8.38898
339 2 7.76008 15.3189 8.43052
340 2 11.8299 15.2974 8.45598
341 2 -0.0514663 19.1536 8.3032
342 2 3.98082 19.2688 8.39082
343 2 7.91716 19.0915 8.24996
344 2 11.6854 19.134 8.11522
345 2 -0.151207 23.1529 8.3951
346 2 4.0399 23.1049 8.43598
347 2 7.93216 23.0715 8.45017
348 2 11.893 22.9309 8.22524
349 2 15.8718 26.979 8.35362
350 2 4.1246 26.9858 8.21119
351 2 7.86617 26.9743 8.38068
352 2 11.7691 27.0411 8.39786
353 2 15.7838 31.2637 8.25974
354 2 4.04122 31.2101 8.26636
355 2 7.80629 31.252 8.46197
356 2 11.8746 30.8952 8.35915
357 2 15.765 35.1503 8.42315
358 2 3.82369 35.0246 8.44512
359 2 7.87631 35.2211 8.57319
360 2 11.5371 35.2153 8.37746
361 2 16.0047 39.0953 8.37964
362 2 4.0854 39.0641 8.71486
363 2 7.98611 39.111 8.26168
364 2 11.9982 39.1047 8.52084
365 2 15.6776 43.2421 8.58422
366 2 4.17808 42.9384 8.49224
367 2 7.84285 43.127 8.56953
368 2 11.9062 43.2856 8.28764
369 2 -0.00303138 47.158 8.67516
370 2 3.95134 47.0611 8.62957
371 2 7.69059 47.0399 8.59958
372 2 11.9282 47.143 8.71251
373 2 -0.00773522 51.2789 8.56806
374 2 3.9816 51.209 8.80268
375 2 8.01826 51.2757 8.75797
376 2 12.0877 50.9712 8.79731
377 2 0.124756 55.1137 8.78247
378 2 3.87588 55.1909 8.90738
379 2 7.99956 55.1389 8.75876
380 2 12.0293 55.2778 8.96482
381 2 15.7473 59.2595 8.88075
382 2 3.90023 59.2074 8.95243
383 2 7.83371 59.2267 8.8822
384 2 11.6749 59.3057 8.78896
385 2 0.0669773 63.3457 9.02159
386 2 4.07845 63.1548 9.04129
387 2 7.82728 63.1942 9.05652
388 2 11.8123 63.2561 8.92646
389 2 0.0307824 67.3478 9.04546
390 2 3.85593 67.5162 9.07856
391 2 7.85312 67.4088 9.0793
392 2 11.9585 67.2965 8.88775
393 2 0.056221 71.3358 9.13003
394 2 3.81913 71.3287 9.05557
395 2 7.81002 71.4965 9.0996
396 2 11.7359 71.3009 9.13128
397 2 0.0907929 75.403 9.25046
398 2 4.06928 75.6312 9.23603
399 2 7.94746 75.3183 9.31185
400 2 11.9163 75.3768 9.21027
401 2 0.0548915 79.5037 9.3082
402 2 4.01117 79.4293 9.43364
403 2 7.93977 79.43 9.16515
404 2 11.9955 79.43 9.35258
405 2 -0.1677 83.4622 9.47468
406 2 3.8212 83.4789 9.5367
407 2 8.07851 83.4964 9.3381
408 2 11.8789 83.5123 9.52826
409 2 -0.233546 87.4435 9.26786
410 2 3.73449 87.4002 9.36244
411 2 7.60555 87.4201 9.39806
412 2 11.6785 87.4254 9.30384
413 2 0.0542809 91.1888 9.4941
414 2 3.87556 91.4244 9.51171
415 2 7.75731 91.617 9.38313
416 2 12.0009 91.333 9.49408
417 2 0.03343 95.1786 9.59463
418 2 3.92109 95.4953 9.54207
419 2 7.80019 95.0877 9.44999
420 2 11.9212 95.4252 9.49507
421 2 15.8495 99.2626 9.39409
422 2 3.97402 99.3241 9.36345
423 2 7.9242 99.1476 9.51481
424 2 11.8271 99.2193 9.14908
425 2 -0.0278222 103.181 9.14229
426 2 3.87523 103.059 9.39138
427 2 7.88789 103.236 9.33434
428 2 11.8638 103.32 9.3322
429 2 15.8825 107.235 9.42039
430 2 3.96487 106.908 9.5423
431 2 7.9722 107.126 9.22754
432 2 11.9433 107.051 9.11745
433 2 0.0633623 110.978 9.25722
434 2 3.72874 110.882 9.17121
435 2 7.8262 111.043 9.19583
436 2 12.084 111.098 8.96622
437 2 -0.0997153 114.813 8.99434
438 2 3.93228 114.762 9.25769
439 2 7.94994 114.844 9.16452
440 2 11.7102 114.788 9.3121
441 2 -0.08452 118.84 9.11647
442 2 4.03875 118.78 9.00809
443 2 7.92643 118.902 9.1403
444 2 11.7469 118.776 9.09468
445 2 15.9011 122.509 8.97005
446 2 4.14019 122.676 9.0369
447 2 8.04817 122.627 9.09418
448 2 12.0245 122.629 9.1737
449 2 -0.247528 126.563 9.10581
450 2 4.0656 126.558 9.08522
451 2 7.93103 126.583 9.02483
452 2 11.8327 126.637 8.86943
453 2 0.0427378 130.625 9.01583
454 2 4.06121 130.427 8.93939
455 2 7.85305 130.492 8.90118
456 2 11.956 130.639 8.92466
457 2 0.117795 134.417 8.97527
458 2 4.1597 134.454 8.82695
459 2 7.9539 134.423 8.85362
460 2 11.8864 134.461 8.80914
461 2 0.126202 138.588 8.92724
462 2 4.0536 138.318 8.66654
463 2 7.95608 138.294 8.75536
464 2 11.9959 138.557 8.73274
465 2 0.146342 142.573 8.58039
466 2 4.04 142.304 8.65829
467 2 8.02035 142.301 8.82697
468 2 11.9301 142.223 8.65514
469 2 15.9457 146.254 8.71182
470 2 4.16035 146.327 8.71488
471 2 8.09188 145.997 8.79475
472 2 12.0579 146.195 8.66708
473 2 15.9281 150.082 8.77744
474 2 4.01984 150.315 8.74129
475 2 8.0287 150.088 8.72695
476 2 12.1324 150.178 8.45619
477 2 15.9931 154.005 8.801
478 2 4.02199 154.099 8.74303
479 2 8.02145 154.015 8.61084
480 2 11.964 153.916 8.63915
481 2 15.9138 157.924 12.6148
482 2 4.07683 157.891 12.4794
483 2 8.01219 157.868 12.7646
484 2 12.013 158.107 12.683
485 2 15.9636 3.35304 12.5058
486 2 3.97652 3.52642 12.2967
487 2 7.94795 3.51176 12.726
488 2 11.9866 3.54908 12.4202
489 2 0.0126926 7.43382 12.6699
490 2 3.84903 7.44087 12.6026
491 2 7.81799 7.43464 12.7321
492 2 12.1026 7.50793 12.5817
493 2 15.7837 11.2949 12.68
494 2 3.91558 11.4325 12.6042
495 2 7.76451 11.3609 12.6887
496 2 11.8318 11.3882 12.5925
497 2 0.0013808 15.3991 12.4799
498 2 3.83466 15.5504 12.4141
499 2 7.79864 15.3825 12.5352
500 2 11.6984 15.2055 12.3897
501 2 15.79 19.1505 12.3663
502 2 3.97383 19.2411 12.3695
503 2 7.98168 19.1652 12.5728
504 2 11.8237 19.2631 12.4543
505 2 15.9019 23.0563 12.2831
506 2 3.964 23.0736 12.4484
507 2 7.82409 23.0363 12.1911
508 2 11.7946 23.1225 12.2847
509 2 15.6039 26.9782 12.3428
510 2 3.72872 27.19 12.3209
511 2 7.86747 27.3013 12.4787
512 2 11.932 26.8585 12.2538
513 2 -0.0432077 30.9579 12.2979
514 2 4.07228 31.002 12.2135
515 2 8.04533 31.0291 12.3813
516 2 11.9249 30.9297 12.253
517 2 15.8063 34.8824 12.3018
518 2 4.10021 34.9841 12.3832
519 2 7.88217 34.9927 12.3699
520 2 11.9526 35.0535 12.3117
521 2 15.7116 39.1137 12.4547
522 2 3.93927 38.8703 12.5219
523 2 8.00552 39.0576 12.2814
524 2 11.8176 39.1278 12.313
525 2 15.8492 43.1015 12.4639
526 2 4.13215 43.1627 12.3672
527 2 7.98079 43.1087 12.3663
528 2 11.9125 43.0847 12.4088
529 2 15.7366 47.1585 12.6124
530 2 3.96445 47.2003 12.5791
531 2 8.00152 47.2248 12.6279
532 2 11.7561 47.2938 12.4309
533 2 0.115865 51.1031 12.7013
534 2 4.011 51.0713 12.7763
535 2 7.88975 51.1243 12.8563
536 2 11.9718 51.1276 12.8394
537 2 -0.0970578 55.1692 12.8295
538 2 3.99846 55.1726 12.6629
539 2 7.9866 55.2056 12.5991
540 2 11.7538 55.1973 12.9486
541 2 -0.240188 59.1517 12.6668
542 2 3.89291 59.2015 12.7417
543 2 7.90974 59.1864 12.9239
544 2 11.773 59.2069 12.6642
545 2 -0.0590421 63.1673 12.9145
546 2 3.89509 63.1547 13.036
547 2 7.99948 63.4062 12.8206
548 2 11.875 63.1419 12.8702
549 2 -0.100223 67.3124 12.8982
550 2 3.96206 67.316 12.9571
551 2 7.83617 67.2551 13.0143
552 2 11.8184 67.2433 12.8638
553 2 -0.0895294 71.1873 13.0436
554 2 3.99003 71.2289 13.2686
555 2 7.83324 71.1983 13.0461
556 2 11.9118 71.2991 13.1347
557 2 0.0294565 75.2903 13.0862
558 2 4.01982 75.4395 13.1038
559 2 8.00148 75.1734 13.0188
560 2 11.814 75.2456 13.217
561 2 0.0421401 79.4956 13.1283
562 2 4.17181 79.4549 13.2497
563 2 8.09033 79.3603 13.2721
564 2 11.7399 79.5156 13.2924
565 2 0.114677 83.4532 13.3602
566 2 4.05189 83.5617 13.2494
567 2 7.99452 83.4017 13.2952
568 2 11.8802 83.4651 13.0438
569 2 0.0514257 87.4665 13.413
570 2 3.91206 87.3314 13.4024
571 2 7.70672 87.3895 13.2003
572 2 11.7934 87.5621 13.5183
573 2 -0.135217 91.5042 13.4083
574 2 4.00604 91.4217 13.413
575 2 7.91956 91.3718 13.4439
576 2 11.8718 91.4461 13.5379
577 2 0.0262533 95.4232 13.4702
578 2 4.07385 95.3626 13.3987
579 2 7.9566 95.463 13.6772
580 2 11.7401 95.3125 13.4411
581 2 -0.192311 99.1883 13.3669
582 2 4.02062 99.3102 13.4515
583 2 7.94036 99.4494 13.4391
584 2 11.6268 99.285 13.2023
585 2 -0.0686725 103.324 13.3275
586 2 3.8382 103.273 13.3243
587 2 7.97811 103.34 13.4678
588 2 12.0238 103.124 13.3476
589 2 15.9883 107.192 13.5081
590 2 4.1484 107.085 13.2648
591 2 8.01017 107.131 13.4045
592 2 11.7373 106.971 13.1819
593 2 -0.0559835 111.063 13.3698
594 2 3.99411 111.184 13.0677
595 2 7.93344 111.047 13.2746
596 2 11.8395 111.255 13.0729
597 2 15.7537 114.877 13.2435
598 2 3.99494 114.933 13.2647
599 2 7.88569 114.927 13.206
600 2 11.7997 115.037 13.1304
601 2 15.8249 118.762 13.2865
602 2 3.85906 118.915 13.1612
603 2 7.8062 118.844 13.1168
604 2 11.8446 118.995 13.2197
605 2 0.0719812 122.802 12.9692
606 2 4.04213 122.858 13.1649
607 2 8.01964 122.722 13.1517
608 2 11.8224 122.988 13.255
609 2 15.9636 126.625 13.0625
610 2 4.05225 126.696 12.8448
611 2 8.06896 126.657 13.106
612 2 11.9437 126.764 12.9647
613 2 16.1512 130.494 12.7655
614 2 4.03493 130.542 12.9125
615 2 7.96823 130.527 12.8558
616 2 11.8794 130.613 12.9946
617 2 0.153725 134.522 12.6493
618 2 3.98636 134.65 12.8162
619 2 7.89798 134.632 12.8533
620 2 11.9656 134.562 12.8796
621 2 0.265408 138.446 12.7363
622 2 4.23136 138.685 12.8188
623 2 8.01732 138.444 12.9495
624 2 12.1046 138.346 12.7265
625 2 15.881 142.295 12.6277
626 2 4.06012 142.385 12.6861
627 2 8.05663 142.32 12.7298
628 2 11.9603 142.319 12.789
629 2 0.0585752 146.295 12.7058
630 2 3.9878 146.317 12.7979
631 2 8.25485 146.177 12.8124
632 2 12.0007 146.355 12.7001
633 2 15.8826 149.919 12.6939
634 2 4.12112 150.102 12.6855
635 2 8.24583 150.237 12.6612
636 2 12.0924 150.273 12.8528
637 2 15.8069 154.138 12.7818
638 2 3.97341 153.963 12.5513
639 2 7.97818 153.958 12.6903
640 2 11.9327 154.073 12.6498
641 2 15.8593 157.884 16.7866
642 2 3.90238 157.973 16.6143
643 2 7.97916 157.984 16.7521
644 2 12.0085 158.191 16.6733
645 2 16.0568 3.71645 16.6177
646 2 4.08456 3.54489 16.7453
647 2 8.06375 3.56948 16.6545
648 2 11.9115 3.65552 16.6767
649 2 0.143608 7.29541 16.4803
650 2 4.15045 7.33534 16.5889
651 2 8.04182 7.55941 16.5892
652 2 11.9187 7.46808 16.5861
653 2 15.984 11.4637 16.6962
654 2 4.02488 11.364 16.5881
655 2 7.93632 11.3998 16.5307
656 2 11.7117 11.6006 16.6263
657 2 0.264723 15.3307 16.5345
658 2 4.24392 15.4165 16.5172
659 2 7.92588 15.2259 16.58
660 2 11.9048 15.2285 16.5511
661 2 15.7089 19.2022 16.507
662 2 3.85444 19.1901 16.4991
663 2 7.81627 19.4097 16.6849
664 2 12.2383 19.19 16.4836
665 2 15.9052 23.0269 16.3776
666 2 3.76321 23.1257 16.3849
667 2 7.93942 23.1535 16.433
668 2 11.8984 22.95 16.3822
669 2 -0.134356 27.0534 16.4271
670 2 3.70388 27.1095 16.23
671 2 7.80676 26.9222 16.3585
672 2 11.8813 26.9642 16.3892
673 2 15.858 31.0813 16.3152
674 2 3.92184 30.9257 16.2653
675 2 7.89394 30.9586 16.2185
676 2 11.781 31.0252 16.2677
677 2 15.9303 34.9228 16.1698
678 2 4.02478 34.9546 16.1619
679 2 7.94841 34.9107 16.4011
680 2 11.9063 34.8292 16.2846
681 2 -0.103457 39.1123 16.5029
682 2 3.78622 39.1257 16.2854
683 2 7.95617 38.9651 16.4239
684 2 11.8189 38.9063 16.2996
685 2 15.599 42.9766 16.3278
686 2 3.93852 42.9897 16.4188
687 2 7.85369 42.9194 16.2837
688 2 11.8259 42.9242 16.1492
689 2 0.160841 47.0651 16.5913
690 2 3.89115 47.0724 16.4274
691 2 7.9548 47.0553 16.4377
692 2 11.8757 46.9502 16.5672
693 2 15.7997 51.1169 16.6822
694 2 3.8801 51.025 16.7
695 2 7.91298 51.0517 16.6688
696 2 11.9026 50.9602 16.6003
697 2 0.0144805 55.0509 16.5534
698 2 3.95116 55.1272 16.6331
699 2 8.00111 55.0175 16.7325
700 2 11.9893 55.1733 16.7999
701 2 0.111493 58.9835 16.5624
702 2 3.98348 59.117 16.7338
703 2 7.8941 58.9555 16.6949
704 2 11.7207 59.1665 16.7871
705 2 0.0309902 63.1209 16.7595
706 2 3.95224 63.0565 16.6882
707 2 7.83686 63.1142 16.8008
708 2 11.9526 63.1794 16.8567
709 2 -0.0661144 67.1749 16.6695
710 2 4.04432 67.1857 16.7366
711 2 7.85456 67.1268 16.8479
712 2 11.7368 67.2457 16.7744
713 2 -0.0797404 71.2696 17.3196
714 2 4.06601 71.1583 17.0833
715 2 7.88622 71.1936 17.0386
716 2 12.0074 71.3235 17.0609
717 2 0.0814683 75.3304 16.9146
718 2 3.90042 75.2519 17.0048
719 2 7.95527 75.2987 17.0574
720 2 11.9431 75.3367 17.0374
721 2 -0.00836288 79.4254 17.0763
722 2 4.08109 79.371 17.1112
723 2 7.85481 79.51 17.0847
724 2 11.8862 79.323 17.0153
725 2 -0.0222903 83.2695 17.2665
726 2 4.02979 83.301 17.3161
727 2 7.95669 83.3012 17.1589
728 2 11.9083 83.3587 17.051
729 2 0.114719 87.3337 17.2463
730 2 3.76192 87.5465 17.5002
731 2 8.10161 87.3558 17.2152
732 2 11.9985 87.3852 17.48
733 2 0.208906 91.391 17.324
734 2 3.93463 91.6561 17.3096
735 2 7.88386 91.4039 17.1986
736 2 12.1316 91.4692 17.1907
737 2 0.0332837 95.3561 17.4041
738 2 3.9268 95.2934 17.4727
739 2 7.84726 95.4553 17.4209
740 2 11.617 95.437 17.4769
741 2 15.8254 99.3379 17.31
742 2 4.08269 99.243 17.2891
743 2 8.0708 99.2374 17.311
744 2 12.0195 99.3134 17.4005
745 2 15.8074 103.185 17.2929
746 2 3.85949 103.124 17.3969
747 2 7.91612 103.193 17.397
748 2 11.9639 103.384 17.3895
749 2 15.7522 107.046 17.3683
750 2 3.92468 107.127 17.4342
751 2 7.82493 107.11 17.4199
752 2 11.9524 107.28 17.1415
753 2 -0.118108 110.909 17.1918
754 2 3.95255 111.087 17.296
755 2 7.87197 110.945 17.2193
756 2 11.9147 111.177 17.3285
757 2 -0.213444 114.972 17.2675
758 2 3.94996 114.902 17.1003
759 2 7.96632 115.105 17.2488
760 2 11.8325 115.156 17.1832
761 2 0.0748879 119.034 17.1355
762 2 3.95488 118.819 17.0466
763 2 7.85218 118.975 17.131
764 2 11.7355 118.969 17.1896
765 2 -0.0943392 123.086 17.102
766 2 3.92353 123.124 17.1064
767 2 8.03373 122.966 17.2892
768 2 11.9054 122.919 17.2974
769 2 0.0790587 126.838 16.8576
770 2 4.05569 126.667 16.8862
771 2 7.98831 126.932 17.0225
772 2 11.833 126.784 17.059
773 2 -0.139385 130.639 16.9476
774 2 3.94847 130.64 16.8702
775 2 8.12224 130.767 16.9417
776 2 11.9448 130.654 16.9818
777 2 -0.0949007 134.527 17.0488
778 2 4.07936 134.561 17.04
779 2 7.93704 134.599 16.8139
780 2 11.8623 134.557 17.0561
781 2 15.8118 138.417 16.8881
782 2 4.15283 138.697 16.6734
783 2 7.80154 138.516 16.8997
784 2 11.8139 138.49 16.9478
785 2 15.6686 142.264 16.7355
786 2 3.86988 142.622 16.6909
787 2 8.09083 142.505 16.9176
788 2 12.0645 142.502 16.778
789 2 16.2705 146.439 16.5782
790 2 4.01393 146.395 16.8017
791 2 7.98748 146.484 16.8072
792 2 11.8363 146.327 16.9155
793 2 15.8089 150.219 16.7434
794 2 3.95471 150.368 16.8141
795 2 8.01856 150.2 16.7535
796 2 11.9329 150.099 16.9003
797 2 0.0917614 154.126 16.6933
798 2 4.07015 153.997 16.6695
799 2 7.98577 154.016 16.7101
800 2 11.8009 154.019 16.836
801 2 -0.0851078 157.942 20.6989
802 2 4.13926 158.144 20.7954
803 2 7.87629 158.177 20.778
804 2 12.0114 157.978 20.6772
805 2 15.7688 3.54869 20.7683
806 2 4.0783 3.57256 20.7592
807 2 8.09729 3.75745 20.7518
808 2 12.0626 3.69606 20.6544
809 2 -0.125961 7.70031 20.6349
810 2 3.96757 7.53796 20.5833
811 2 7.87426 7.74675 20.6986
812 2 11.954 7.65826 20.5925
813 2 15.8433 11.5846 20.4821
814 2 4.06115 11.3242 20.6633
815 2 7.83302 11.4334 20.6495
816 2 11.8539 11.2126 20.5355
817 2 15.8275 15.2064 20.5695
818 2 3.94625 15.4414 20.5955
819 2 7.97701 15.4153 20.6614
820 2 11.8506 15.4694 20.5036
821 2 15.9669 19.2418 20.6234
822 2 3.79068 19.4652 20.3456
823 2 7.8991 19.3016 20.4048
824 2 12.0865 19.042 20.5681
825 2 15.7192 23.2074 20.4166
826 2 3.90163 23.4205 20.4852
827 2 8.03794 23.1482 20.5124
828 2 11.7706 23.2723 20.3859
829 2 -0.173376 27.1772 20.2795
830 2 3.94781 27.0907 20.4247
831 2 7.69551 27.2091 20.4298
832 2 11.899 27.2783 20.6049
833 2 0.160829 30.9492 20.1163
834 2 3.94617 31.028 20.2001
835 2 7.92756 31.0982 20.188
836 2 11.932 31.0626 20.0907
837 2 15.8664 34.9859 20.2121
838 2 3.89962 35.059 20.152
839 2 7.94405 34.8565 20.372
840 2 11.7265 35.0744 20.2891
841 2 0.1149 38.9016 20.3286
842 2 3.83105 38.9333 19.9887
843 2 7.7979 38.7824 20.3704
844 2 11.8812 38.9907 20.2239
845 2 -0.0974862 42.8504 20.3398
846 2 3.81027 43.1825 20.361
847 2 7.7811 42.8118 20.2656
848 2 11.8264 42.9791 20.3851
849 2 -0.130091 46.7396 20.3724
850 2 3.88261 46.9101 20.3292
851 2 7.93932 46.9444 20.4891
852 2 11.7774 46.9703 20.3548
853 2 0.12841 51.0813 20.606
854 2 4.13297 50.8796 20.5555
855 2 8.1026 50.9305 20.4641
856 2 11.9833 50.881 20.5278
857 2 0.035782 54.8748 20.4111
858 2 3.83933 54.8823 20.5001
859 2 7.73041 55.2476 20.6994
860 2 11.74 55.027 20.5723
861 2 15.804 59.04 20.4011
862 2 4.02337 59.0664 20.8019
863 2 8.12824 59.2257 20.7114
864 2 11.8776 59.1535 20.46
865 2 15.8317 63.0958 20.6277
866 2 3.94508 62.9699 20.5726
867 2 7.78413 63.1387 20.683
868 2 11.9284 63.1768 20.6531
869 2 0.097095 67.0791 20.816
870 2 3.98091 67.0462 20.6456
871 2 7.99673 67.1517 20.6508
872 2 11.9643 67.0551 20.8573
873 2 0.182961 70.9539 21.12
874 2 3.85395 71.2745 20.9943
875 2 7.964 71.2851 20.9689
876 2 11.888 71.1446 20.858
877 2 -0.000591972 75.3003 20.7682
878 2 3.92334 75.2866 20.8971
879 2 7.86803 75.1292 21.0523
880 2 11.7836 75.3616 21.0191
881 2 0.187616 79.2539 21.0003
882 2 4.02 79.2478 20.9918
883 2 7.92213 79.2572 20.9658
884 2 11.9735 78.9713 20.9305
885 2 -0.0428561 83.3426 21.2489
886 2 4.03337 83.4043 21.2127
887 2 8.1671 83.3703 20.9317
888 2 11.986 83.4412 21.2183
889 2 0.148376 87.2511 21.34
890 2 3.79927 87.2509 21.3298
891 2 7.89628 87.2937 21.1899
892 2 11.9712 87.3526 21.4479
893 2 -0.080834 91.2835 21.2425
894 2 4.07881 91.2661 21.2724
895 2 8.04067 91.3712 21.2024
896 2 12.1011 91.403 21.09
897 2 15.8352 95.3907 21.5616
898 2 4.02256 95.6058 21.2101
899 2 7.99203 95.2878 21.4206
900 2 12.0707 95.2861 21.3655
901 2 0.076069 99.2951 21.226
902 2 4.33327 99.4356 21.2998
903 2 8.00866 99.4283 21.3591
904 2 11.8843 99.3472 21.4055
905 2 15.9725 103.237 21.5718
906 2 3.82183 103.424 21.3508
907 2 8.07578 103.358 21.3149
908 2 11.9953 103.299 21.4313
909 2 0.0289266 107.212 21.3853
910 2 3.71543 107.217 21.3008
911 2 7.85961 107.351 21.3436
912 2 11.7373 107.402 21.3055
913 2 15.724 110.943 21.2123
914 2 3.74193 111.291 21.1919
915 2 7.71454 111.109 21.1061
916 2 11.8121 111.184 21.2794
917 2 -0.198441 114.998 21.2853
918 2 3.88667 115.057 21.1355
919 2 8.0329 114.963 21.2534
920 2 11.8108 115.023 21.2286
921 2 -0.0870415 118.912 21.187
922 2 3.89799 118.972 21.1255
923 2 7.78751 118.942 21.2108
924 2 12.0757 118.872 21.1329
925 2 0.0826762 122.672 20.9988
926 2 4.13182 122.685 21.0185
927 2 8.02807 122.822 21.1065
928 2 12.0444 122.757 21.2062
929 2 0.187109 126.916 21.064
930 2 4.11337 126.6 21.0036
931 2 8.011 126.972 21.06
932 2 11.9139 126.574 21.099
933 2 0.1945 130.623 21.0327
934 2 4.11529 130.649 20.8448
935 2 7.97598 130.905 20.9145
936 2 12.154 130.831 21.041
937 2 15.9144 134.575 21.0167
938 2 3.84394 134.628 21.1134
939 2 7.93258 134.62 21.0569
940 2 12.1502 134.896 21.056
941 2 15.7996 138.747 20.9246
942 2 3.76957 138.523 20.9256
943 2 7.77444 138.559 21.0863
944 2 11.7531 138.616 20.8926
945 2 15.9608 142.612 20.776
946 2 3.86815 142.471 20.6825
947 2 7.91441 142.529 20.967
948 2 11.8992 142.421 20.8746
949 2 0.271263 146.295 20.7238
950 2 4.12033 146.258 20.7408
951 2 7.81501 146.189 20.7465
952 2 12.0873 146.397 20.6931
953 2 15.9135 150.332 20.7624
954 2 3.94622 150.276 20.8427
955 2 7.96942 150.388 20.8061
956 2 12.025 150.2 20.9035
957 2 -0.100717 154.096 20.8447
958 2 4.07945 154.309 20.5897
959 2 8.18263 154.307 20.8098
960 2 11.9723 153.882 20.7722
961 2 0.00538844 158.075 24.8803
962 2 3.91198 158.135 24.7414
963 2 7.9643 158.179 24.7291
964 2 11.9363 158.305 24.8627
965 2 15.9544 3.83448 24.6614
966 2 4.00706 3.66734 24.6204
967 2 8.21711 3.82803 24.6939
968 2 12.0221 3.69127 24.7173
969 2 0.13209 7.6067 24.7795
970 2 4.09293 7.59878 24.7137
971 2 7.97384 7.56883 24.7437
972 2 11.9943 7.69875 24.579
973 2 0.14521 11.7106 24.4817
974 2 3.90774 11.5158 24.7731
975 2 8.02833 11.5063 24.4225
976 2 12.0081 11.6304 24.6782
977 2 -0.0199856 15.3368 24.64
978 2 4.02912 15.542 24.763
979 2 7.95947 15.4483 24.5713
980 2 11.7749 15.504 24.6157
981 2 15.8226 19.4994 24.5747
982 2 3.96856 19.3057 24.5081
983 2 7.85559 19.4303 24.4345
984 2 11.8139 19.4125 24.4689
985 2 0.146366 23.2651 24.3983
986 2 4.03448 23.4688 24.4271
987 2 7.83204 23.1322 24.4514
988 2 11.6282 23.3296 24.3161
989 2 0.025425 27.1805 24.4713
990 2 3.84063 27.2844 24.3055
991 2 8.00819 27.1343 24.5067
992 2 11.8998 27.0446 24.4965
993 2 -0.126944 30.8873 24.3961
994 2 3.57744 31.1276 24.3501