ITEM: TIMESTEP
18300
ITEM: NUMBER OF ATOMS
32000
ITEM: BOX BOUNDS xy xz yz pp pp pp
0.0000000000000000e+00 1.5832000000000001e+01 0.0000000000000000e+00
0.0000000000000000e+00 1.5831999999999999e+02 0.0000000000000000e+00
8.1120185212940044e-01 1.6016591614786824e+02 0.0000000000000000e+00
ITEM: ATOMS id type x y z
1 2 0.0425814 157.873 159.853
2 2 3.83195 157.916 159.887
3 2 7.9694 157.868 160.012
4 2 11.9759 157.806 159.885
5 2 15.7684 3.35239 160.063
6 2 3.92251 3.60759 159.906
7 2 7.87359 3.39805 159.97
8 2 12.0378 3.36253 159.824
9 2 -0.0573116 7.32394 159.925
10 2 3.87824 7.43601 160
11 2 7.8765 7.2863 160.008
12 2 11.8521 7.30856 159.879
13 2 -0.117617 11.0821 159.751
14 2 3.8439 11.4425 159.463
15 2 7.97012 11.1422 159.566
16 2 11.817 11.1242 159.716
17 2 15.8028 15.0408 159.9
18 2 3.93424 15.1316 159.847
19 2 8.05139 15.0681 159.834
20 2 11.781 14.9799 159.773
21 2 -0.095803 19.2149 159.888
22 2 3.87645 19.2777 159.669
23 2 7.92542 18.9611 159.885
24 2 11.8791 18.8599 159.841
25 2 15.8239 23.0798 0.611577
26 2 3.93141 22.9863 159.982
27 2 8.14212 23.0896 159.688
28 2 11.8232 23.0555 159.78
29 2 15.7243 27.1151 159.952
30 2 3.95618 27.0678 159.879
31 2 7.66498 27.1686 159.714
32 2 11.8029 27.2373 159.954
33 2 15.9698 31.3311 160.016
34 2 3.941 31.1982 159.818
35 2 7.92795 31.2103 159.963
36 2 11.8543 31.319 0.723043
37 2 15.8333 35.2561 160.112
38 2 4.19812 35.217 0.702851
39 2 8.07987 35.2813 160.056
40 2 11.861 35.3763 0.665324
41 2 0.000676556 39.2556 159.984
42 2 3.98328 39.3328 0.672227
43 2 7.76637 39.3526 0.742207
44 2 11.992 39.1289 160.003
45 2 0.0615328 43.2032 0.887024
46 2 3.99385 43.4876 0.811942
47 2 8.09348 43.1885 0.796974
48 2 11.9412 43.2406 0.823985
49 2 16.0472 47.288 0.817309
50 2 4.11338 47.4402 0.848091
51 2 7.89771 47.3851 0.907396
52 2 11.9296 47.2445 0.688187
53 2 -0.0595117 51.5205 0.895926
54 2 3.85701 51.2155 0.933949
55 2 8.04449 51.2203 0.825105
56 2 11.8896 51.1334 160.438
57 2 0.16855 55.496 1.15681
58 2 4.03642 55.3502 1.03308
59 2 8.04341 55.2432 0.977577
60 2 11.7184 55.4403 1.14062
61 2 0.0178695 59.3894 1.07063
62 2 3.86308 59.3354 1.33662
63 2 7.92867 59.3014 0.992497
64 2 11.7724 59.441 1.21423
65 2 -0.114275 63.5248 1.08471
66 2 3.80977 63.3657 1.04864
67 2 7.72367 63.3751 1.17148
68 2 11.8359 63.4648 1.07213
69 2 -0.184936 67.4078 1.35616
70 2 3.7591 67.5813 1.37172
71 2 7.78918 67.4628 1.28658
72 2 11.7552 67.3645 1.19763
73 2 15.6171 71.5789 1.37964
74 2 4.13549 71.4818 1.26646
75 2 7.8791 71.5301 1.22302
76 2 11.9087 71.4936 1.27114
77 2 -0.0815152 75.6516 1.51529
78 2 3.9258 75.616 1.39135
79 2 7.9757 75.567 1.38075
80 2 11.8462 75.3243 1.3585
81 2 0.00976904 79.3824 1.41485
82 2 4.13516 79.6451 1.6883
83 2 8.02341 79.5318 1.33247
84 2 11.9716 79.4765 1.39666
85 2 -0.0760931 83.6161 1.53215
86 2 3.85736 83.5958 1.53591
87 2 8.01488 83.4431 1.55601
88 2 11.85 83.742 1.58087
89 2 -0.101935 87.5526 1.53966
90 2 3.86044 87.4494 1.36497
91 2 7.97444 87.3277 1.57458
92 2 11.8964 87.6024 1.46895
93 2 0.0961478 91.4247 1.52057
94 2 4.1225 91.456 1.46053
95 2 7.99342 91.2804 1.44651
96 2 11.9003 91.3741 1.51015
97 2 0.118113 95.3892 1.3004
98 2 4.26581 95.1839 1.33511
99 2 8.01317 95.4083 1.4169
100 2 11.9991 95.3546 1.45168
101 2 0.0313616 99.2214 1.34964
102 2 4.07876 99.3461 1.33595
103 2 8.01696 99.2342 1.2077
104 2 11.7752 99.3483 1.34084
105 2 15.9143 103.063 1.35989
106 2 3.81144 102.986 1.24764
107 2 7.93821 103.026 1.35995
108 2 11.8806 103.113 1.36713
109 2 15.9436 107.013 1.29216
110 2 3.968 106.946 1.23664
111 2 7.81372 106.857 1.11221
112 2 11.6521 106.883 1.30246
113 2 0.0556612 110.956 1.14927
114 2 3.84669 110.97 1.23749
115 2 7.78971 110.846 1.11343
116 2 11.8693 110.864 1.13728
117 2 0.00401379 114.909 1.25826
118 2 4.07832 114.886 1.31433
119 2 7.88662 114.926 1.25011
120 2 11.938 114.77 1.138
121 2 15.9267 118.918 1.072
122 2 3.88438 118.653 1.16902
123 2 8.01311 118.782 1.26435
124 2 12.0205 118.713 160.489
125 2 -0.00568766 122.529 1.02178
126 2 4.22569 122.557 0.872845
127 2 8.04276 122.696 0.944109
128 2 11.9453 122.761 0.776234
129 2 -0.0393293 126.613 160.264
130 2 3.95389 126.424 160.32
131 2 7.90711 126.627 0.898276
132 2 11.8991 126.611 0.89261
133 2 0.288673 130.647 160.361
134 2 4.07288 130.404 160.082
135 2 8.1874 130.539 1.04191
136 2 12.1136 130.579 160.205
137 2 0.0627945 134.567 160.274
138 2 4.10179 134.354 160.124
139 2 7.88052 134.428 0.858694
140 2 11.8669 134.217 160.178
141 2 -0.16512 138.543 159.998
142 2 3.9995 138.323 160.107
143 2 8.01418 138.451 159.972
144 2 11.8477 138.361 0.669284
145 2 15.9319 142.321 160.149
146 2 3.95532 142.23 160.223
147 2 8.01808 142.347 160.093
148 2 11.887 142.304 160.087
149 2 0.126699 146.129 160.175
150 2 3.9282 146.17 159.869
151 2 7.92939 146.103 160.038
152 2 11.9757 146.189 159.942
153 2 15.704 150.131 160.007
154 2 4.05375 150.095 159.952
155 2 7.9885 150.067 159.985
156 2 11.9595 149.948 159.994
157 2 15.8961 153.997 160.012
158 2 3.96157 154.153 160.05
159 2 8.08567 153.816 160.021
160 2 11.9696 153.872 160.124
161 2 15.9427 157.881 4.70373
162 2 4.07708 158.03 4.76958
163 2 8.00633 157.695 4.71712
164 2 11.9576 157.765 4.46797
165 2 15.6981 3.37456 4.74891
166 2 3.8588 3.33897 4.46251
167 2 7.93974 3.32963 4.68371
168 2 11.8777 3.47613 4.60798
169 2 15.708 7.54044 4.48483
170 2 3.92512 7.36528 4.43712
171 2 7.90081 7.21953 4.50705
172 2 11.8184 7.42869 4.46731
173 2 15.6973 11.292 4.65531
174 2 3.9416 11.4192 4.50614
175 2 8.04087 11.3015 4.57049
176 2 11.8118 11.0981 4.5294
177 2 15.8225 15.2199 4.48544
178 2 3.86675 15.1641 4.30739
179 2 7.86798 15.2776 4.67503
180 2 11.8031 15.1422 4.53238
181 2 0.0184907 19.016 4.36049
182 2 3.86401 18.9845 4.35657
183 2 7.91751 19.0496 4.25318
184 2 11.7848 19.2457 4.5013
185 2 15.8164 23.1554 4.23817
186 2 3.98115 23.0577 4.3574
187 2 7.85691 22.9647 4.26316
188 2 11.8674 23.1137 4.3993
189 2 15.7028 27.1388 4.51601
190 2 3.96505 27.1524 4.48925
191 2 8.00883 27.0577 4.62153
192 2 11.8023 27.077 4.43504
193 2 15.7759 31.0201 4.50929
194 2 3.93281 31.0478 4.35483
195 2 8.02652 31.0583 4.50161
196 2 11.9502 30.9618 4.48626
197 2 0.111736 35.1772 4.61532
198 2 4.013 35.0788 4.44026
199 2 8.03126 35.0477 4.67877
200 2 11.9175 35.2574 4.41141
201 2 -0.00316895 39.106 4.62596
202 2 3.98262 38.9677 4.69035
203 2 7.79719 39.2561 4.63267
204 2 12.0639 39.1346 4.53101
205 2 -0.00154536 43.1415 4.70048
206 2 4.04784 43.2135 4.59434
207 2 7.87473 43.0631 4.67818
208 2 11.9782 43.19 4.5602
209 2 15.7125 47.3161 4.69782
210 2 4.04555 47.1968 4.53711
211 2 7.96104 47.1009 4.90211
212 2 11.9668 47.0958 4.66361
213 2 0.0078364 51.1593 4.84698
214 2 4.02781 51.4014 4.87248
215 2 8.15657 51.3243 4.77244
216 2 11.8931 51.2465 4.87386
217 2 -0.0266277 55.2313 5.0761
218 2 3.915 55.3322 5.04762
219 2 7.9935 55.2712 4.92753
220 2 11.8326 55.2952 4.98273
221 2 -0.0906603 59.3258 4.93598
222 2 3.86389 59.2955 4.94156
223 2 7.97293 59.4246 4.90911
224 2 12.0246 59.4069 4.8652
225 2 -0.0715477 63.3369 5.1126
226 2 3.92474 63.2114 5.32828
227 2 7.9488 63.4375 5.1134
228 2 11.9798 63.2475 5.17715
229 2 -0.143852 67.5281 5.04841
230 2 3.93634 67.2429 5.14079
231 2 7.95355 67.2802 5.12894
232 2 11.7947 67.2939 5.17539
233 2 0.0707575 71.4165 5.16926
234 2 3.91445 71.2948 5.20308
235 2 7.98336 71.4977 5.23026
236 2 11.7266 71.3364 5.21228
237 2 0.148482 75.5697 5.44667
238 2 3.91555 75.5378 5.2264
239 2 7.87087 75.6121 5.42061
240 2 11.9642 75.5132 5.34453
241 2 -0.0570615 79.6055 5.39334
242 2 3.9564 79.5127 5.35549
243 2 7.83721 79.4211 5.21328
244 2 11.9934 79.4959 5.3441
245 2 15.7877 83.5838 5.46297
246 2 4.02686 83.7137 5.59152
247 2 8.00336 83.5051 5.57992
248 2 11.9675 83.438 5.37904
249 2 -0.0763834 87.7645 5.41402
250 2 4.05168 87.4154 5.63856
251 2 7.7624 87.6765 5.54823
252 2 11.8392 87.4545 5.29034
253 2 0.184145 91.358 5.49033
254 2 3.81712 91.3118 5.36594
255 2 7.99848 91.3525 5.40884
256 2 11.8514 91.5607 5.51973
257 2 0.0809503 95.3795 5.38665
258 2 3.90782 95.2776 5.25589
259 2 7.93938 95.2847 5.3003
260 2 11.9597 95.285 5.23882
261 2 0.139148 99.1848 5.37441
262 2 4.09788 99.2147 5.53137
263 2 7.96514 99.0993 5.34351
264 2 11.7381 99.2284 5.54534
265 2 15.9569 103.218 5.29878
266 2 4.02561 102.97 5.35884
267 2 7.9703 103.148 5.32282
268 2 11.8128 103.119 5.52297
269 2 -0.157661 106.987 5.21448
270 2 4.06194 106.924 5.18815
271 2 7.9117 107.08 5.30262
272 2 12.0462 107.019 5.21319
273 2 0.0472049 110.94 5.27158
274 2 3.83613 110.944 5.19725
275 2 7.91026 110.918 5.24515
276 2 11.98 110.907 5.21018
277 2 15.8838 114.864 5.50985
278 2 3.80168 114.947 5.06636
279 2 7.60325 114.822 5.08932
280 2 11.6617 114.772 5.10557
281 2 15.6765 118.946 5.02766
282 2 3.75188 118.723 5.09178
283 2 8.00493 118.767 5.26463
284 2 11.9116 118.82 5.05874
285 2 15.5653 122.735 5.12649
286 2 4.07768 122.778 4.99407
287 2 8.02492 122.784 5.0192
288 2 11.8395 122.872 5.17394
289 2 0.316857 126.618 4.77607
290 2 4.17752 126.574 4.93962
291 2 8.07042 126.747 5.15417
292 2 12.0651 126.718 5.03206
293 2 -0.0829557 130.594 4.9918
294 2 3.99883 130.582 4.92745
295 2 7.85517 130.596 4.99815
296 2 11.9409 130.536 4.86657
297 2 0.332146 134.715 4.64917
298 2 4.24712 134.531 4.94878
299 2 7.95731 134.5 4.89369
300 2 12.1469 134.468 4.79627
301 2 15.9246 138.409 4.44685
302 2 4.02765 138.457 4.76725
303 2 8.04647 138.199 4.84843
304 2 11.85 138.471 4.74639
305 2 -0.0255669 142.354 4.6443
306 2 4.15862 142.1 4.58656
307 2 8.04909 142.185 4.94179
308 2 11.8789 142.494 4.8376
309 2 16.0354 146.302 4.76486
310 2 4.23863 146.327 4.63642
311 2 7.97339 146.103 4.73681
312 2 12.0692 146.232 4.63614
313 2 0.106359 149.943 4.4025
314 2 4.09953 150.091 4.75421
315 2 8.03043 150.001 4.65337
316 2 12.1633 150.182 4.80817
317 2 15.9425 153.886 4.7212
318 2 4.21745 154.066 4.56842
319 2 7.94564 153.908 4.63949
320 2 11.9803 154.103 4.69863
321 2 15.9322 157.827 8.80116
322 2 4.02909 157.77 8.70944
323 2 8.0371 158.011 8.58657
324 2 11.9222 157.895 8.75629
325 2 15.904 3.30556 8.39964
326 2 4.02879 3.48275 8.72795
327 2 7.96954 3.43309 8.80859
328 2 11.8701 3.31923 8.83447
329 2 0.00267729 7.27409 8.44077
330 2 3.87886 7.46769 8.63884
331 2 8.06863 7.47457 8.70573
332 2 11.9578 7.48337 8.62006
333 2 16.0252 11.2766 8.55095
334 2 3.921 11.2673 8.44426
335 2 7.81481 11.5965 8.64036
336 2 11.8592 11.3275 8.48826
337 2 -0.024884 15.1781 8.54121
338 2 3.87042 15.1729 8.68553
339 2 7.98682 15.186 8.60831
340 2 12.0568 15.2218 8.66668
341 2 -0.157699 19.0297 8.16797
342 2 3.84832 18.9678 8.25583
343 2 7.88054 19.0888 8.46695
344 2 11.8158 19.3158 8.71093
345 2 0.207955 22.836 8.28622
346 2 4.09221 23.0244 8.4011
347 2 7.78369 23.0364 8.43042
348 2 11.9241 23.024 8.42128
349 2 15.8636 27.1022 8.35046
350 2 3.86058 27.0839 8.2474
351 2 8.06358 26.9774 8.46093
352 2 11.9883 26.95 8.35886
353 2 15.6976 30.9726 8.36995
354 2 3.85112 30.8741 8.50202
355 2 7.99596 30.8843 8.4154
356 2 11.8305 31.3294 8.5974
357 2 15.6523 35.0314 8.4839
358 2 3.91713 35.0843 8.51352
359 2 8.03766 35.0034 8.46915
360 2 12.0922 35.0342 8.42986
361 2 15.8813 39.2342 8.74952
362 2 3.89666 39.0146 8.49186
363 2 7.88086 39.0576 8.52686
364 2 11.8749 39.1518 8.26582
365 2 16.0141 43.0166 8.64251
366 2 3.80359 43.3256 8.69252
367 2 7.91936 43.1409 8.52584
368 2 11.7899 43.0402 8.47676
369 2 0.0352781 47.1012 8.73675
370 2 3.89722 47.2901 8.76397
371 2 8.07522 47.2397 8.65795
372 2 11.8156 46.9561 8.44617
373 2 0.295856 50.9764 8.92378
374 2 4.12085 51.1814 8.76283
375 2 7.94977 51.0916 8.67706
376 2 11.8507 51.2598 8.76435
377 2 -0.0608695 55.2496 8.98544
378 2 3.99408 55.2294 8.7234
379 2 7.85587 55.3326 8.7964
380 2 11.8378 55.1666 8.87434
381 2 15.7872 59.1461 8.86854
382 2 3.85158 59.1688 8.90552
383 2 7.87565 59.1439 8.80428
384 2 11.9517 59.1473 8.96177
385 2 0.0143487 63.1771 8.92401
386 2 3.90351 63.358 8.98373
387 2 7.87294 63.455 8.85337
388 2 11.8679 63.3332 9.16539
389 2 -0.135809 67.336 9.1963
390 2 3.76535 67.2414 9.17813
391 2 7.72831 67.3289 9.2281
392 2 11.7763 67.3794 9.27619
393 2 -0.00275993 71.3736 9.04106
394 2 4.1138 71.3808 9.21391
395 2 7.91354 71.2429 9.1577
396 2 11.8306 71.2171 9.07996
397 2 -0.0770869 75.2328 9.26214
398 2 3.973 75.3201 9.08676
399 2 8.00616 75.3529 9.1868
400 2 11.8969 75.4179 9.12859
401 2 0.0695063 79.4801 9.40697
402 2 4.15293 79.528 9.1593
403 2 7.81353 79.512 9.18097
404 2 11.7445 79.3733 9.31603
405 2 0.0522149 83.5693 9.46604
406 2 4.22336 83.5963 9.35849
407 2 7.88032 83.5894 9.51464
408 2 11.795 83.5076 9.15696
409 2 -0.162464 87.4795 9.50564
410 2 3.84188 87.6099 9.2961
411 2 8.09714 87.4867 9.3994
412 2 11.8533 87.6878 9.62756
413 2 -0.128176 91.4862 9.19911
414 2 3.87678 91.546 9.52224
415 2 7.87179 91.3427 9.51331
416 2 11.8087 91.7089 9.32356
417 2 -0.0740862 95.5225 9.23506
418 2 3.83747 95.3263 9.34966
419 2 7.84546 95.5684 9.40421
420 2 11.9261 95.3582 9.39658
421 2 15.792 99.3997 9.24642
422 2 3.99424 99.3492 9.50217
423 2 7.97126 99.3275 9.23095
424 2 11.9041 99.3128 9.5325
425 2 -0.0505139 103.29 9.53646
426 2 3.93248 103.311 9.42831
427 2 7.83777 103.278 9.3597
428 2 11.8471 103.062 9.48501
429 2 15.8253 107.127 9.31613
430 2 3.90672 107.238 9.07985
431 2 7.90568 107.146 9.43483
432 2 11.6912 107.174 9.32996
433 2 -0.0480986 111.132 9.31896
434 2 4.20528 111.176 9.2108
435 2 7.92431 110.82 9.07637
436 2 11.8105 110.925 9.48009
437 2 -0.105277 114.898 9.29613
438 2 3.9817 115.084 9.07435
439 2 7.85546 114.791 8.98511
440 2 11.7576 114.988 9.04842
441 2 -0.0749711 118.603 9.12497
442 2 3.81058 118.761 9.2063
443 2 7.71107 118.646 9.08417
444 2 11.7708 118.985 9.21367
445 2 15.8557 122.888 9.15789
446 2 3.86572 122.551 9.06947
447 2 7.83147 122.863 9.11726
448 2 11.7748 122.827 9.13076
449 2 0.217496 126.723 8.9581
450 2 3.92933 126.49 8.87406
451 2 8.06074 126.748 9.05931
452 2 11.9471 126.753 9.04936
453 2 0.0154536 130.382 8.87151
454 2 3.82834 130.652 8.83899
455 2 7.86181 130.724 9.03108
456 2 11.6857 130.639 8.98418
457 2 0.0848111 134.52 8.61956
458 2 3.93713 134.542 8.93945
459 2 8.04362 134.643 8.85877
460 2 12.112 134.491 8.98051
461 2 0.169832 138.546 8.49923
462 2 3.88045 138.614 8.67806
463 2 7.93532 138.567 8.91145
464 2 11.9292 138.209 8.8078
465 2 0.0767509 142.327 8.63372
466 2 4.21561 142.413 8.81086
467 2 8.12574 142.431 8.77591
468 2 12.0877 142.345 8.85814
469 2 16.1707 146.171 8.59559
470 2 3.96571 146.346 8.76126
471 2 8.02418 146.397 8.73269
472 2 11.9434 146.148 8.70911
473 2 15.9281 150.122 8.67618
474 2 4.04379 149.999 8.85369
475 2 8.25023 150.095 8.60584
476 2 12.112 150.044 8.77757
477 2 15.8941 153.922 8.59669
478 2 4.0028 153.872 8.79101
479 2 8.15348 154.026 8.62834
480 2 12.046 154.133 8.80122
481 2 15.8698 158.004 12.7692
482 2 4.10546 157.938 12.8863
483 2 7.92608 157.944 12.6927
484 2 11.8429 157.962 12.7442
485 2 16.0128 3.59022 12.5092
486 2 4.06967 3.41882 12.7934
487 2 7.91723 3.62823 12.5938
488 2 12.1821 3.59906 12.6196
489 2 0.226146 7.59001 12.5384
490 2 4.12056 7.43399 12.5952
491 2 8.09724 7.49318 12.6108
492 2 11.9764 7.34093 12.5276
493 2 15.7489 11.3873 12.4589
494 2 3.92011 11.3721 12.5286
495 2 8.03338 11.3231 12.5081
496 2 11.94 11.4665 12.5385
497 2 -0.0667433 15.2064 12.5269
498 2 3.90515 15.0488 12.6223
499 2 7.8453 15.2189 12.4955
500 2 11.8423 15.3864 12.6066
501 2 15.7545 19.2401 12.2951
502 2 3.90179 19.0974 12.4548
503 2 7.78326 19.2094 12.3561
504 2 11.86 19.0343 12.5196
505 2 15.7884 23.0866 12.1518
506 2 3.80529 23.0935 12.2762
507 2 7.64429 23.2233 12.5657
508 2 11.8332 22.9086 12.367
509 2 15.8562 26.9849 12.2081
510 2 3.98814 27.0744 12.2988
511 2 7.95524 26.8705 12.416
512 2 11.8562 27.0674 12.3395
513 2 0.0715308 31.021 12.2658
514 2 3.90997 30.9394 12.2471
515 2 7.78014 30.8937 12.3473
516 2 11.9678 31.074 12.4946
517 2 15.7865 35.3049 12.3931
518 2 3.82972 34.9409 12.2607
519 2 8.04067 34.9515 12.4599
520 2 11.9252 35.154 12.549
521 2 15.7621 39.1996 12.5407
522 2 3.97791 39.0641 12.3986
523 2 7.78499 39.0142 12.3792
524 2 11.7394 39.1443 12.262
525 2 15.6381 43.0641 12.5397
526 2 3.82468 42.8909 12.6296
527 2 7.76009 43.0288 12.5938
528 2 11.6647 43.1228 12.3667
529 2 15.8422 46.988 12.6265
530 2 3.842 46.9567 12.5986
531 2 7.81115 47.0299 12.4272
532 2 12.0521 46.992 12.5331
533 2 0.024466 51.155 12.682
534 2 4.08712 51.2031 12.7466
535 2 8.07545 51.1774 12.4214
536 2 11.767 51.082 12.4214
537 2 0.00782694 55.0752 12.715
538 2 4.03608 54.9767 12.8057
539 2 7.93557 54.9902 12.8273
540 2 11.9841 55.1259 12.6711
541 2 0.079878 59.4434 12.9127
542 2 4.0554 59.0729 12.8149
543 2 7.94963 59.1259 12.7116
544 2 11.8821 59.3071 12.9131
545 2 -0.0314935 63.1404 12.9484
546 2 4.19475 63.2688 12.7819
547 2 8.05984 63.082 12.8987
548 2 11.8773 63.2297 12.8025
549 2 0.113937 67.2177 13.0223
550 2 3.75654 67.246 13.0096
551 2 7.96782 67.2528 13.1028
552 2 12.0449 67.328 13.2324
553 2 -0.0702976 71.454 13.0285
554 2 3.76556 71.4546 13.1083
555 2 7.7921 71.3651 12.9752
556 2 11.8065 71.1525 12.9234
557 2 -0.0340713 75.2567 13.0442
558 2 3.94164 75.3758 13.239
559 2 8.04987 75.3086 13.279
560 2 12.0245 75.5055 13.238
561 2 0.11685 79.1343 13.1943
562 2 3.86876 79.2508 12.9326
563 2 7.89121 79.2972 13.145
564 2 12.0014 79.3188 13.1365
565 2 -0.0140972 83.4669 13.428
566 2 4.02348 83.2252 13.4102
567 2 8.09448 83.5576 13.411
568 2 12.1009 83.492 13.3615
569 2 -0.0219243 87.3853 13.3458
570 2 3.90003 87.3897 13.2216
571 2 8.01986 87.5334 13.4869
572 2 11.8251 87.6085 13.3974
573 2 0.139842 91.4123 13.3835
574 2 4.03559 91.347 13.5186
575 2 7.90692 91.3548 13.3138
576 2 11.928 91.5257 13.4389
577 2 -0.137118 95.5138 13.3974
578 2 3.78386 95.2907 13.4717
579 2 7.95402 95.3766 13.2226
580 2 11.8814 95.4571 13.4433
581 2 0.0348078 99.4313 13.4865
582 2 3.8485 99.1626 13.3588
583 2 7.71829 99.283 13.4799
584 2 11.8061 99.3527 13.3651
585 2 -0.0263902 103.292 13.4494
586 2 3.997 103.112 13.3076
587 2 7.95366 103.112 13.3335
588 2 11.7951 103.265 13.3795
589 2 15.8368 107.283 13.2969
590 2 4.00227 107.162 13.4112
591 2 7.97783 107.209 13.3036
592 2 12.0148 107.26 13.3274
593 2 -0.038087 111.001 13.2419
594 2 3.93694 111.085 13.4549
595 2 7.7616 111.066 13.2999
596 2 11.6299 111.069 13.4661
597 2 15.8519 114.994 13.1996
598 2 3.76431 115.062 13.1489
599 2 7.7616 114.905 13.0731
600 2 11.7701 115.047 13.2489
601 2 15.8509 118.981 13.0582
602 2 3.84653 118.858 13.1387
603 2 7.73084 118.928 13.1815
604 2 11.8517 118.862 13.1017
605 2 -0.046443 122.764 13.1738
606 2 3.92481 122.717 13.0125
607 2 7.88583 122.812 13.2039
608 2 12.012 122.63 13.0537
609 2 15.8508 126.694 12.9031
610 2 4.1152 126.778 13.1242
611 2 7.87296 126.702 12.9384
612 2 11.9847 126.683 13.1198
613 2 15.8853 130.74 12.9464
614 2 4.17591 130.768 13.0207
615 2 8.00285 130.816 13.0221
616 2 11.9636 130.612 13.0019
617 2 0.0914378 134.607 13.0855
618 2 4.02334 134.505 12.9796
619 2 8.05978 134.665 12.8328
620 2 12.066 134.483 12.9377
621 2 0.0553952 138.418 12.8212
622 2 3.82222 138.357 12.7778
623 2 7.99724 138.487 12.7957
624 2 12.0145 138.371 12.8788
625 2 15.8195 142.352 12.8386
626 2 4.17228 142.46 12.8384
627 2 8.16388 142.217 12.8322
628 2 12.0431 142.31 12.8219
629 2 0.0116154 146.119 12.7753
630 2 4.02769 146.257 12.7338
631 2 7.87889 146.281 12.6921
632 2 11.9873 146.195 12.8672
633 2 15.8139 150.327 12.8572
634 2 4.20341 150.146 12.7707
635 2 8.08082 150.109 12.6829
636 2 11.8768 150.082 12.6275
637 2 16.1498 154.166 12.7057
638 2 4.26638 153.94 12.8165
639 2 8.12523 154.116 12.7964
640 2 12.056 154.077 12.7779
641 2 15.8422 158.025 16.6786
642 2 4.14835 158.166 16.7603
643 2 8.23437 158.01 16.5635
644 2 12.0355 158.016 16.7273
645 2 15.775 3.44318 16.7154
646 2 3.92637 3.54832 16.6323
647 2 8.04435 3.53727 16.5826
648 2 12.0206 3.71967 16.6282
649 2 0.0459952 7.64627 16.7323
650 2 3.82044 7.43658 16.6151
651 2 7.9918 7.38331 16.5803
652 2 11.9759 7.54443 16.6867
653 2 15.6707 11.3181 16.5105
654 2 3.95091 11.4737 16.621
655 2 7.79066 11.3427 16.6426
656 2 11.9622 11.3633 16.557
657 2 0.0686015 15.2872 16.4145
658 2 3.84701 15.2154 16.5826
659 2 7.98288 15.4602 16.5568
660 2 11.9167 15.4386 16.5456
661 2 15.9408 19.2479 16.5445
662 2 3.89942 19.2466 16.4162
663 2 7.9046 19.146 16.3278
664 2 11.552 19.2164 16.5699
665 2 15.5418 23.0136 16.2142
666 2 3.82287 23.2719 16.3743
667 2 7.86459 23.05 16.2317
668 2 11.7316 23.1796 16.2579
669 2 -0.15028 27.0205 16.1686
670 2 3.84939 26.9487 16.2204
671 2 7.95519 27.1146 16.2822
672 2 11.7902 27.1021 16.2696
673 2 16.0039 30.9909 16.3099
674 2 3.90794 31.0483 16.3541
675 2 7.99856 30.9477 16.4326
676 2 11.9872 30.8814 16.3178
677 2 15.713 35.0232 16.242
678 2 3.97509 35.0708 16.2722
679 2 7.75468 34.9325 16.2291
680 2 11.8161 35.0039 16.3946
681 2 -0.174239 38.9246 16.2911
682 2 3.7977 38.9404 16.3685
683 2 7.77705 38.8786 16.151
684 2 11.7119 38.9689 16.3201
685 2 15.8474 43.0277 16.5237
686 2 3.94697 43.0426 16.4159
687 2 7.91835 43.0031 16.4557
688 2 11.7702 43.0677 16.6413
689 2 -0.129508 46.9777 16.5713
690 2 4.03357 46.9053 16.5881
691 2 8.03953 46.9 16.3575
692 2 11.9354 47.0186 16.4873
693 2 15.6874 50.9261 16.5257
694 2 3.92197 51.0126 16.4642
695 2 7.74797 50.9987 16.5731
696 2 11.6993 51.0213 16.5213
697 2 -0.194969 55.1148 16.7042
698 2 3.79564 55.2417 16.652
699 2 7.71689 55.101 16.6583
700 2 11.6125 55.0066 16.7111
701 2 0.018848 59.0576 16.6598
702 2 4.10891 59.1043 16.6423
703 2 8.03244 59.1427 16.8054
704 2 11.8468 58.9972 16.7234
705 2 0.157455 63.0358 16.868
706 2 4.19812 63.1567 16.8443
707 2 8.0476 63.1182 16.6834
708 2 12.0427 63.1881 16.7292
709 2 0.189662 67.1457 16.9115
710 2 3.98213 67.2447 16.9819
711 2 8.07663 67.2133 16.9745
712 2 11.9628 67.0613 16.9905
713 2 0.0229828 71.1944 17.0101
714 2 4.03712 71.3333 17.1093
715 2 7.90919 71.2803 16.8693
716 2 11.826 70.9988 16.9124
717 2 0.0362942 75.2088 16.9832
718 2 3.96293 75.2965 17.0903
719 2 8.18926 75.2495 17.0962
720 2 12.0469 75.1677 17.0357
721 2 0.243543 79.345 17.0944
722 2 4.05352 79.3038 17.0191
723 2 7.86988 79.1966 17.2403
724 2 12.0332 79.2424 17.1691
725 2 0.0691766 83.4077 17.0871
726 2 4.08729 83.4173 17.1184
727 2 7.90763 83.4013 17.2587
728 2 11.8492 83.3675 17.1249
729 2 0.01903 87.4454 17.3152
730 2 4.17817 87.4275 17.3507
731 2 7.79165 87.4289 17.2639
732 2 11.8482 87.4784 17.269
733 2 0.0525486 91.5652 17.3073
734 2 3.94387 91.1773 17.5711
735 2 7.81693 91.4657 17.3323
736 2 12.0621 91.4484 17.4381
737 2 0.135968 95.4545 17.4352
738 2 4.05189 95.4133 17.4018
739 2 7.90641 95.253 17.4653
740 2 12.0639 95.3392 17.3652
741 2 15.923 99.332 17.5634
742 2 3.82541 99.3785 17.4322
743 2 7.91661 99.3823 17.5324
744 2 11.8664 99.402 17.5262
745 2 15.775 103.306 17.4326
746 2 3.85264 103.344 17.1531
747 2 7.91455 103.243 17.3779
748 2 11.9034 103.206 17.4198
749 2 15.7909 107.268 17.2963
750 2 3.85465 107.104 17.2137
751 2 7.87639 107.006 17.2691
752 2 11.6743 107.277 17.5348
753 2 -0.212627 111.29 17.2284
754 2 3.7235 111.194 17.2687
755 2 7.72356 111.269 17.297
756 2 11.526 111.159 17.2828
757 2 -0.0639024 115.02 17.2455
758 2 3.65288 115.152 17.3781
759 2 7.85989 115.143 17.2569
760 2 11.7857 114.867 17.2368
761 2 -0.232658 118.832 17.21
762 2 3.76105 119.005 17.3083
763 2 7.9137 118.875 17.1921
764 2 12.029 118.673 16.8836
765 2 0.0947639 122.882 17.047
766 2 4.03956 122.601 17.1639
767 2 7.83456 122.86 17.1054
768 2 11.7606 122.814 17.043
769 2 0.0859355 126.798 17.1294
770 2 3.89831 126.936 16.9995
771 2 7.83495 126.742 17.105
772 2 11.8133 126.914 17.0433
773 2 0.221125 130.78 16.992
774 2 4.07821 130.76 17.0791
775 2 7.79222 130.728 17.1205
776 2 11.893 130.605 16.9253
777 2 0.196608 134.549 16.8649
778 2 3.9512 134.699 16.7811
779 2 8.00681 134.588 17.0542
780 2 11.9468 134.532 16.8292
781 2 15.807 138.565 16.8815
782 2 3.83298 138.461 17.0297
783 2 7.9249 138.451 16.8201
784 2 11.862 138.399 16.9149
785 2 15.8277 142.423 16.8844
786 2 3.92016 142.262 16.7869
787 2 7.86327 142.346 16.6642
788 2 11.7827 142.337 16.8938
789 2 15.7997 146.321 16.782
790 2 4.14641 146.277 16.6581
791 2 7.93603 146.203 16.7257
792 2 12.0004 146.403 16.7577
793 2 15.9733 150.287 16.8141
794 2 4.10154 150.088 16.7283
795 2 7.85853 150.202 16.8439
796 2 12.0073 150.322 16.7276
797 2 0.158759 154.046 16.7315
798 2 3.97214 154.108 16.6398
799 2 8.014 154.144 16.8673
800 2 12.0073 154.1 16.6214
801 2 0.216822 157.851 20.7427
802 2 3.99718 158.02 20.4944
803 2 8.29824 158.095 20.5451
804 2 12.0839 158.238 20.7074
805 2 16.0614 3.75206 20.6182
806 2 3.89183 3.53954 20.6915
807 2 7.68585 3.74602 20.6877
808 2 11.8015 3.68767 20.7405
809 2 0.308127 7.61081 20.6361
810 2 3.92402 7.65925 20.6547
811 2 7.98585 7.45024 20.5296
812 2 11.89 7.56345 20.5807
813 2 15.8428 11.4754 20.6552
814 2 4.04316 11.5141 20.6257
815 2 8.11975 11.5438 20.6775
816 2 11.9542 11.5822 20.6677
817 2 15.886 15.4079 20.5286
818 2 4.10021 15.2838 20.4546
819 2 7.90452 15.4152 20.5216
820 2 11.8791 15.1293 20.5779
821 2 15.7179 19.3075 20.5307
822 2 4.07324 19.3321 20.5791
823 2 7.97171 19.4467 20.539
824 2 11.9046 19.5897 20.4066
825 2 15.8269 23.1366 20.4537
826 2 4.13819 23.0712 20.2456
827 2 7.70229 23.256 20.2114
828 2 11.8015 23.5248 20.1627
829 2 0.113795 27.0261 20.5317
830 2 3.89679 26.9726 20.207
831 2 7.936 27.2074 20.2965
832 2 11.8969 27.1218 20.2632
833 2 -0.126921 31.0529 20.3914
834 2 3.82447 31.0023 20.2448
835 2 7.72175 30.9573 20.4389
836 2 11.9011 30.8969 20.4288
837 2 15.5719 34.8453 20.2814
838 2 3.78818 35.0686 20.2691
839 2 7.63912 35.0921 20.4479
840 2 11.7309 34.8413 20.1529
841 2 -0.266578 38.8499 20.4392
842 2 3.81362 39.0311 20.5136
843 2 7.78579 39.0062 20.2298
844 2 11.7191 38.8854 20.1824
845 2 -0.0784394 42.9433 20.3218
846 2 3.80738 42.7733 20.4071
847 2 7.86478 43.099 20.1541
848 2 11.756 42.8024 20.3719
849 2 0.108568 47.038 20.6129
850 2 3.92593 47.02 20.5869
851 2 7.94321 46.8754 20.3812
852 2 11.8827 46.7948 20.5704
853 2 -0.00944851 50.8785 20.294
854 2 3.90844 51.0109 20.5761
855 2 7.86352 50.9346 20.558
856 2 11.7297 50.9409 20.4921
857 2 0.0146009 55.0222 20.6311
858 2 4.00005 55.0237 20.5807
859 2 7.81739 54.9394 20.5436
860 2 12.0089 55.003 20.6389
861 2 15.8424 59.0058 20.5893
862 2 4.04588 59.0968 20.6644
863 2 7.72226 58.9985 20.7472
864 2 11.8179 59.0511 20.788
865 2 15.9134 62.9706 20.6462
866 2 3.95016 63.148 20.6812
867 2 8.01963 62.9197 20.7766
868 2 11.9734 62.9776 20.7233
869 2 0.0543843 67.0092 20.7675
870 2 4.0345 67.2147 20.7785
871 2 7.92213 67.0068 20.8311
872 2 11.6989 67.0795 20.6304
873 2 -0.161935 71.1115 20.8443
874 2 3.91286 71.1365 20.8566
875 2 7.85165 70.9884 20.8803
876 2 11.9412 71.1024 20.7561
877 2 -0.0562943 75.0835 21.1427
878 2 3.79633 75.2585 20.9823
879 2 7.92851 75.1589 20.8357
880 2 11.9048 75.064 20.9711
881 2 -0.077786 79.1749 20.9277
882 2 3.96727 79.2555 21.02
883 2 8.00964 79.1175 21.0827
884 2 12.0597 79.4777 20.9492
885 2 0.152758 83.2096 20.9502
886 2 3.9853 83.2775 21.2511
887 2 7.99648 83.2333 21.1864
888 2 11.9056 83.143 21.138
889 2 -0.132794 87.1826 21.0584
890 2 4.18428 87.3339 21.1629
891 2 7.88753 87.4394 21.1165
892 2 11.8863 87.2997 20.99
893 2 0.0907563 91.4163 21.5881
894 2 3.8455 91.2705 21.5059
895 2 8.20755 91.3222 21.3311
896 2 11.8975 91.1741 21.2447
897 2 15.9202 95.3442 21.3108
898 2 4.1365 95.2083 21.348
899 2 7.99876 95.3031 21.3195
900 2 11.7751 95.3675 21.1984
901 2 0.205551 99.3068 21.4433
902 2 3.90626 99.5235 21.3996
903 2 7.93345 99.4902 21.3965
904 2 11.91 99.5 21.4428
905 2 15.7422 103.428 21.3092
906 2 4.10693 103.332 21.4133
907 2 7.84538 103.504 21.4694
908 2 11.8339 103.427 21.4549
909 2 -0.0535551 107.288 21.4087
910 2 3.98022 107.592 21.2668
911 2 7.82926 107.267 21.37
912 2 11.9587 107.255 21.4073
913 2 15.7523 111.349 21.3844
914 2 4.00651 111.214 21.3429
915 2 7.71229 111.271 21.2406
916 2 11.8114 111.014 21.4464
917 2 -0.037518 115.169 21.2785
918 2 3.74505 115.093 21.3468
919 2 7.57403 115.138 21.198
920 2 11.7317 115.029 21.2742
921 2 0.021773 119.157 21.2308
922 2 3.82822 119.028 21.3098
923 2 7.78722 118.989 21.0898
924 2 11.6059 119.092 21.2055
925 2 0.0486828 123.012 21.1438
926 2 4.01592 122.96 21.1869
927 2 8.00917 122.884 21.1219
928 2 11.9014 122.941 20.9744
929 2 -0.155142 126.643 21.0908
930 2 3.80173 126.815 21.0402
931 2 7.85241 126.733 21.1081
932 2 11.9723 127.054 21.1071
933 2 -0.00990732 130.692 20.9658
934 2 3.99548 130.79 21.2021
935 2 7.85537 130.709 21.1738
936 2 11.7292 130.683 21.0797
937 2 15.8536 134.636 21.0013
938 2 4.1088 134.74 20.9116
939 2 7.92717 134.713 21.0239
940 2 11.7399 134.462 20.8995
941 2 15.8199 138.348 20.9894
942 2 3.95601 138.433 20.8803
943 2 8.01477 138.646 20.8699
944 2 11.8745 138.516 21.0025
945 2 15.8417 142.291 20.7815
946 2 3.95206 142.526 20.9332
947 2 7.80554 142.326 20.7344
948 2 11.8743 142.685 20.7334
949 2 0.025745 146.396 20.7925
950 2 3.96394 146.452 20.8126
951 2 8.05912 146.478 20.8577
952 2 11.8153 146.328 20.9621
953 2 15.9398 150.193 20.8754
954 2 4.13542 150.353 20.8422
955 2 7.96703 150.2 20.8778
956 2 11.9485 150.225 20.6991
957 2 0.409811 154.162 20.7449
958 2 4.24975 154.24 20.8135
959 2 7.93638 154.307 20.623
960 2 12.05 154.286 20.7381
961 2 -0.0130124 158.309 24.7337
962 2 4.13113 158.19 24.666
963 2 8.06973 158.07 24.6726
964 2 12.0097 158.133 24.785
965 2 15.8293 3.6962 24.7791
966 2 4.08551 3.88287 24.6883
967 2 7.92353 3.62455 24.5997
968 2 11.9848 3.75746 24.7986
969 2 -0.0295288 7.58189 24.5842
970 2 3.90712 7.76342 24.8105
971 2 7.97443 7.59278 24.5872
972 2 12.0671 7.54375 24.7308
973 2 0.0276085 11.3964 24.7505
974 2 4.20867 11.5564 24.6479
975 2 7.95029 11.4488 24.9348
976 2 11.7986 11.4361 24.7181
977 2 0.0992573 15.4734 24.4981
978 2 3.95317 15.3101 24.4656
979 2 7.80406 15.5696 24.5338
980 2 11.8693 15.4394 24.5908
981 2 15.7989 19.1929 24.5653
982 2 3.79606 19.2951 24.3778
983 2 7.93328 19.2624 24.3843
984 2 11.8823 19.2859 24.5189
985 2 -0.0854332 23.17 24.5383
986 2 3.91416 23.1156 24.4991
987 2 7.97402 23.2478 24.5509
988 2 11.9814 23.305 24.3993
989 2 0.0380915 27.1988 24.4213
990 2 3.9609 27.0806 24.4725
991 2 7.84838 27.0859 24.4071
992 2 11.7986 27.2077 24.357