ITEM: TIMESTEP
18500
ITEM: NUMBER OF ATOMS
32000
ITEM: BOX BOUNDS xy xz yz pp pp pp
0.0000000000000000e+00 1.5832000000000001e+01 0.0000000000000000e+00
0.0000000000000000e+00 1.5831999999999999e+02 0.0000000000000000e+00
8.2579432546565101e-01 1.6015132367453191e+02 0.0000000000000000e+00
ITEM: ATOMS id type x y z
1 2 -0.0544205 157.853 159.771
2 2 4.02317 157.649 159.951
3 2 7.94043 157.74 159.994
4 2 11.9335 157.894 159.961
5 2 15.8585 3.37539 159.793
6 2 4.03991 3.36409 159.845
7 2 7.99178 3.51661 159.847
8 2 11.8257 3.53542 159.861
9 2 -0.0208828 7.25858 159.814
10 2 4.07416 7.02948 159.662
11 2 7.9217 7.27435 159.709
12 2 12.0076 7.51585 159.873
13 2 0.0866274 11.3418 159.783
14 2 3.97814 11.0873 159.952
15 2 8.15877 11.3657 159.812
16 2 11.9126 11.2024 159.614
17 2 16.0485 15.259 159.719
18 2 3.96753 15.1026 159.627
19 2 7.80672 15.2294 159.571
20 2 11.7264 15.3761 159.592
21 2 -0.160964 19.1818 159.692
22 2 3.84383 19.2563 159.935
23 2 7.69112 19.084 159.771
24 2 11.7488 19.2306 159.888
25 2 15.6801 23.0373 0.471427
26 2 3.84181 23.0301 159.769
27 2 7.73629 23.229 159.985
28 2 11.8016 23.2341 159.807
29 2 15.8153 27.2064 159.818
30 2 4.08261 27.326 159.894
31 2 8.06027 27.2357 159.762
32 2 12.0617 27.1459 159.818
33 2 15.766 31.0083 159.849
34 2 3.91479 31.233 160.07
35 2 8.00626 31.1749 159.802
36 2 11.8804 31.1401 0.745046
37 2 15.9035 34.9731 159.983
38 2 3.90739 35.1855 0.783278
39 2 8.0247 35.1414 159.925
40 2 12.0009 35.1256 0.72485
41 2 0.0756479 39.3034 160.227
42 2 3.97909 39.1862 0.815222
43 2 7.93184 39.0911 0.880568
44 2 12.1537 39.3594 160.313
45 2 -0.00391694 43.3192 0.752663
46 2 4.04136 43.2656 0.721714
47 2 7.74104 43.3156 0.977127
48 2 11.8421 43.1426 0.94339
49 2 15.8913 47.2396 0.889893
50 2 3.97312 47.1695 1.06457
51 2 7.92435 47.2537 0.875812
52 2 12.0254 47.2101 1.04031
53 2 0.0751459 51.357 0.938798
54 2 3.85161 51.3212 0.926235
55 2 8.06663 51.4311 1.11847
56 2 11.854 51.5303 160.178
57 2 0.124881 55.3085 1.0974
58 2 3.90368 55.4417 0.781032
59 2 8.06356 55.5284 1.31223
60 2 11.9213 55.4372 0.994089
61 2 -0.00313498 59.3025 1.15064
62 2 4.09001 59.3259 1.13405
63 2 8.17355 59.4091 0.907202
64 2 11.9004 59.4535 1.0653
65 2 0.100671 63.4227 1.30695
66 2 4.06845 63.3761 1.12967
67 2 8.04318 63.3998 1.36824
68 2 12.1651 63.4582 1.18564
69 2 0.163003 67.4429 1.21301
70 2 4.01912 67.5234 1.13596
71 2 8.18 67.8053 1.11741
72 2 11.9309 67.4741 1.17689
73 2 15.9647 71.5049 1.22001
74 2 3.88796 71.5132 1.35846
75 2 7.88052 71.4976 1.32916
76 2 11.9813 71.4097 1.30371
77 2 -0.0123999 75.5826 1.36064
78 2 3.9871 75.5189 1.27382
79 2 7.86511 75.5581 1.48684
80 2 11.7777 75.6866 1.44023
81 2 0.0891421 79.8587 1.5461
82 2 3.85413 79.4133 1.48321
83 2 7.62613 79.5918 1.57419
84 2 11.8987 79.6132 1.67988
85 2 0.0171442 83.726 1.40594
86 2 4.18784 83.5209 1.41085
87 2 7.91167 83.7414 1.50152
88 2 11.9799 83.4644 1.42945
89 2 0.0343664 87.4493 1.50216
90 2 4.08813 87.6189 1.61772
91 2 8.12561 87.6776 1.56153
92 2 12.0468 87.4316 1.42115
93 2 -0.0599402 91.1456 1.40236
94 2 3.91175 91.3221 1.53486
95 2 7.91806 91.5633 1.40379
96 2 11.8653 91.3319 1.5355
97 2 -0.195312 95.2614 1.39878
98 2 4.00003 95.1508 1.40387
99 2 7.74615 95.3339 1.44588
100 2 11.6946 95.2915 1.17045
101 2 -0.0103112 99.1667 1.37628
102 2 3.80999 99.3728 1.28462
103 2 7.84809 99.2408 1.30067
104 2 11.8233 99.1055 1.40612
105 2 15.9182 103.333 1.15795
106 2 3.90614 103.097 1.10517
107 2 7.83301 103.282 1.23857
108 2 11.6129 103.107 1.25709
109 2 15.9069 107.1 1.18989
110 2 3.74617 107.182 1.29154
111 2 7.91828 107.127 1.19106
112 2 12.0121 107.093 1.23693
113 2 0.0259678 110.999 1.09239
114 2 3.98392 110.859 1.16006
115 2 7.78481 111.098 1.05079
116 2 11.7637 110.91 1.02932
117 2 -0.0729885 114.806 0.929667
118 2 3.8535 114.829 0.844932
119 2 7.764 114.812 1.13388
120 2 11.7091 114.836 1.12844
121 2 15.8548 118.663 0.970649
122 2 3.88585 118.867 1.0477
123 2 7.76427 118.566 0.966762
124 2 11.7677 118.918 160.284
125 2 -0.0285464 122.572 1.16177
126 2 3.72586 122.819 0.891305
127 2 7.73872 122.653 1.02466
128 2 12.0122 122.585 1.03039
129 2 0.0526109 126.575 160.153
130 2 4.1901 126.737 160.273
131 2 7.98827 126.559 0.95228
132 2 12.0392 126.477 0.923831
133 2 -0.0779521 130.47 160.157
134 2 4.04404 130.589 160.224
135 2 7.91011 130.597 0.822852
136 2 11.8191 130.609 160.104
137 2 -0.00930526 134.239 160.28
138 2 4.20695 134.55 160.087
139 2 8.15826 134.367 0.667085
140 2 12.1424 134.458 159.993
141 2 0.325439 138.127 160.052
142 2 4.04431 138.233 160.269
143 2 7.95123 138.371 159.992
144 2 12.2302 138.329 0.791355
145 2 15.8185 142.189 160.065
146 2 3.98795 142.203 159.983
147 2 8.09711 142.073 159.951
148 2 11.8857 142.072 160.056
149 2 -0.128959 146.005 159.975
150 2 4.08551 146.097 160.223
151 2 8.06694 146.012 160
152 2 11.9686 145.969 160.024
153 2 15.9053 149.908 159.984
154 2 3.89259 149.842 159.944
155 2 7.87829 150.137 159.89
156 2 11.9887 150.008 159.935
157 2 15.869 153.884 159.976
158 2 3.94378 153.721 159.729
159 2 7.94234 153.98 159.882
160 2 11.9053 153.908 160.013
161 2 15.8345 157.753 4.53898
162 2 3.88573 157.781 4.58018
163 2 8.10669 157.872 4.63976
164 2 11.9656 157.89 4.56989
165 2 16.1831 3.38802 4.36839
166 2 4.04574 3.37145 4.54606
167 2 8.10788 3.44987 4.40837
168 2 12.1642 3.34889 4.4052
169 2 15.8334 7.5279 4.30468
170 2 4.00914 7.38868 4.41683
171 2 8.0124 7.54074 4.44615
172 2 11.9815 7.29478 4.35476
173 2 15.9581 11.1735 4.41957
174 2 3.97619 11.1547 4.55629
175 2 8.02548 11.1821 4.44837
176 2 11.9587 11.3478 4.31352
177 2 15.8136 15.1162 4.31905
178 2 3.9839 15.2806 4.60184
179 2 8.03818 15.0645 4.21995
180 2 11.9196 15.2097 4.44924
181 2 0.0392998 19.0419 4.43006
182 2 3.73397 19.0263 4.43725
183 2 7.73083 19.2781 4.33303
184 2 11.8194 19.0533 4.16491
185 2 15.7212 23.0814 4.55618
186 2 3.66964 22.992 4.41106
187 2 7.68153 23.1599 4.5027
188 2 11.917 23.0297 4.29091
189 2 15.7871 26.9534 4.41932
190 2 3.75125 27.0458 4.52058
191 2 8.08099 27.0204 4.43059
192 2 11.9678 27.149 4.5392
193 2 15.8449 30.9524 4.6083
194 2 4.06571 31.0417 4.68029
195 2 7.88558 31.0502 4.536
196 2 11.8467 31.1156 4.68253
197 2 -0.0754548 35.1044 4.65462
198 2 3.87501 35.1318 4.63026
199 2 7.90211 35.0441 4.464
200 2 11.9187 35.1595 4.69308
201 2 -0.209286 39.1201 4.71695
202 2 4.02028 39.1762 4.6976
203 2 7.98765 39.0299 4.57873
204 2 11.9851 39.0965 4.93323
205 2 -0.0376075 43.221 4.82109
206 2 4.02879 43.0709 4.64539
207 2 8.05308 43.1367 4.87422
208 2 11.8928 43.2166 4.87821
209 2 15.9291 47.1242 4.694
210 2 3.966 47.0528 4.91576
211 2 7.94957 47.1351 4.73331
212 2 11.7869 47.2912 4.93225
213 2 -0.0550589 51.1467 4.86728
214 2 4.11794 51.1721 4.83025
215 2 7.99199 51.1544 4.94347
216 2 11.6988 51.1112 4.90305
217 2 0.172799 55.3482 4.79563
218 2 3.93836 55.3574 5.06462
219 2 8.01753 55.229 4.96042
220 2 11.9815 55.3317 4.78974
221 2 0.155064 59.2833 5.07821
222 2 4.06833 59.2706 5.17244
223 2 8.05628 59.3098 5.03486
224 2 12.0041 59.1964 5.14529
225 2 0.0772912 63.3299 5.07342
226 2 3.76511 63.4465 5.0715
227 2 8.0809 63.3409 5.04947
228 2 11.9052 63.5002 4.84764
229 2 -0.0401905 67.3598 5.25752
230 2 4.21217 67.3731 5.11827
231 2 7.93439 67.2758 5.22166
232 2 11.8513 67.4913 5.0813
233 2 -0.0118322 71.5004 5.16442
234 2 3.9291 71.4142 5.28001
235 2 7.95868 71.5159 5.1751
236 2 12.0528 71.4631 5.32489
237 2 -0.0874321 75.4286 5.18973
238 2 3.90025 75.518 5.42993
239 2 7.94404 75.3866 5.29539
240 2 11.9153 75.4517 5.24208
241 2 -0.115034 79.503 5.36256
242 2 4.17248 79.4164 5.41571
243 2 8.1294 79.5952 5.65667
244 2 11.8164 79.6197 5.38578
245 2 16.0902 83.4737 5.47081
246 2 4.14274 83.5172 5.45905
247 2 7.87364 83.5498 5.60051
248 2 11.8413 83.7046 5.48353
249 2 0.0643799 87.4912 5.46117
250 2 4.09606 87.5945 5.59024
251 2 8.02613 87.5905 5.38912
252 2 12.0853 87.5798 5.3911
253 2 0.0606292 91.6139 5.57426
254 2 3.80719 91.5405 5.53684
255 2 8.12425 91.438 5.57493
256 2 12.0116 91.3402 5.65575
257 2 -0.114499 95.3335 5.63985
258 2 3.89106 95.5237 5.53623
259 2 7.90341 95.3403 5.64793
260 2 11.8319 95.4776 5.3099
261 2 -0.0130991 99.3227 5.57524
262 2 3.9129 99.3976 5.22386
263 2 7.93367 99.4296 5.27825
264 2 11.7093 99.3274 5.22125
265 2 15.7475 103.22 5.14871
266 2 3.83429 103.361 5.3441
267 2 7.84585 103.173 5.21152
268 2 11.7381 103.234 5.37454
269 2 -0.0510007 107.122 5.24216
270 2 3.85684 107.313 5.28926
271 2 7.75213 107.128 5.34672
272 2 11.8261 107.128 5.18144
273 2 -0.0460041 111.167 5.15313
274 2 3.95554 111.192 5.24242
275 2 7.80038 111.035 5.32031
276 2 11.6978 111.055 5.312
277 2 15.8636 115.107 4.90476
278 2 4.0285 114.978 4.98044
279 2 7.81165 114.895 5.2334
280 2 11.9131 115.1 5.28546
281 2 15.9553 118.793 5.15133
282 2 3.94456 118.661 4.97487
283 2 7.81736 118.689 5.06878
284 2 11.7528 118.85 4.89384
285 2 15.7417 122.702 5.01031
286 2 3.89803 122.903 5.02706
287 2 7.76742 122.807 4.96245
288 2 11.7892 122.682 5.08363
289 2 -0.0307027 126.719 5.0594
290 2 3.89266 126.815 5.23843
291 2 7.7926 126.691 4.94864
292 2 11.8318 126.575 4.92686
293 2 0.170158 130.563 4.74026
294 2 3.92072 130.568 4.86711
295 2 8.22128 130.709 4.64937
296 2 12.1011 130.448 4.84032
297 2 -0.0174009 134.312 5.00213
298 2 3.96767 134.366 4.90636
299 2 7.94049 134.386 4.73363
300 2 11.8939 134.532 4.73495
301 2 15.9722 138.192 4.94371
302 2 4.09528 138.3 4.80625
303 2 8.03038 138.49 4.80821
304 2 12.1197 138.203 4.85893
305 2 0.188016 142.108 4.76297
306 2 3.83465 142.205 4.72609
307 2 7.92947 142.368 4.72234
308 2 11.9864 142.126 4.62526
309 2 15.7815 146.057 4.79309
310 2 3.927 146.042 4.90458
311 2 8.02748 146.225 4.73641
312 2 11.9993 146.042 4.74397
313 2 -0.111316 150.183 4.59536
314 2 3.95647 149.865 4.79444
315 2 8.01987 150.177 4.65781
316 2 11.9129 149.874 4.66574
317 2 15.8663 153.984 4.80591
318 2 4.01526 153.847 4.63992
319 2 8.08161 153.949 4.64191
320 2 11.935 153.862 4.54057
321 2 15.9249 157.992 8.56889
322 2 4.19495 158.088 8.60547
323 2 8.12407 157.834 8.55517
324 2 11.9501 157.822 8.62362
325 2 15.8345 3.66869 8.43729
326 2 4.10661 3.49193 8.5025
327 2 8.22823 3.3802 8.66141
328 2 12.0228 3.55827 8.54442
329 2 0.0593836 7.5974 8.54901
330 2 3.97778 7.4201 8.62228
331 2 8.25367 7.39137 8.54502
332 2 12.0129 7.4315 8.56346
333 2 16.0846 11.3316 8.54838
334 2 4.02888 11.5018 8.58451
335 2 8.18029 11.1448 8.50713
336 2 11.9582 11.2794 8.53183
337 2 0.0113535 15.1415 8.52411
338 2 4.00261 15.1482 8.29677
339 2 7.74098 15.1187 8.37489
340 2 11.8704 15.0616 8.40828
341 2 -0.11633 19.2073 8.42227
342 2 3.87077 19.2678 8.46658
343 2 7.86075 19.0356 8.32563
344 2 11.8685 18.953 8.17749
345 2 -0.412469 23.0706 8.49026
346 2 3.84572 23.1116 8.51055
347 2 7.96798 23.0622 8.42628
348 2 11.8018 23.0057 8.37179
349 2 15.8603 27.1123 8.51043
350 2 3.90117 27.0204 8.37624
351 2 7.68206 27.0408 8.35701
352 2 11.7939 27.0413 8.43423
353 2 15.9418 31.1892 8.51266
354 2 4.02882 30.9406 8.60561
355 2 7.95443 31.0425 8.49229
356 2 11.9877 30.9805 8.29511
357 2 15.7385 35.011 8.59112
358 2 3.84654 35.1104 8.59111
359 2 7.84235 35.2814 8.70051
360 2 11.6536 34.7995 8.49401
361 2 15.9493 39.064 8.51885
362 2 3.83464 38.9976 8.6931
363 2 7.97311 39.0078 8.62593
364 2 11.9365 39.1007 8.83908
365 2 15.645 43.0929 8.75724
366 2 4.0354 42.8608 8.6261
367 2 7.92443 43.0131 8.8354
368 2 11.7429 43.0896 8.6875
369 2 -0.0659544 47.1336 8.78708
370 2 3.96635 46.9814 8.81395
371 2 7.92235 47.1873 8.7696
372 2 11.7405 47.1027 8.88377
373 2 -0.210546 51.1848 8.68627
374 2 3.89691 51.1127 8.78556
375 2 7.97912 51.1643 8.82809
376 2 11.8396 51.1486 8.79235
377 2 0.0620209 55.1257 8.71939
378 2 3.91405 55.1738 8.72828
379 2 7.99776 55.0847 8.76561
380 2 11.9615 55.0261 8.89252
381 2 15.965 59.3022 8.87773
382 2 4.15789 59.2896 8.9494
383 2 7.9704 59.0809 8.99207
384 2 11.9991 59.3032 8.87396
385 2 0.119356 63.2281 8.99541
386 2 4.18757 63.2209 8.94324
387 2 7.87988 63.1561 9.01649
388 2 11.9236 63.1575 9.01844
389 2 0.184658 67.2515 9.07741
390 2 4.10665 67.2771 8.99205
391 2 8.06586 67.2496 8.97124
392 2 11.9891 67.2599 8.78587
393 2 0.117846 71.3571 9.23477
394 2 3.79687 71.4036 9.14192
395 2 8.10429 71.3473 9.04928
396 2 11.943 71.2495 9.30704
397 2 0.213432 75.4672 9.26165
398 2 4.01859 75.4958 9.27381
399 2 7.93046 75.3539 9.24913
400 2 12.0265 75.4228 9.25718
401 2 -0.00209258 79.3437 9.20342
402 2 4.04082 79.2644 9.45731
403 2 7.82072 79.4114 9.16736
404 2 12.1284 79.2393 9.25896
405 2 0.0288024 83.3964 9.37067
406 2 4.08995 83.443 9.40715
407 2 7.96875 83.5266 9.23235
408 2 12.0255 83.4815 9.49904
409 2 0.313833 87.5474 9.34041
410 2 4.16178 87.6 9.18651
411 2 7.85757 87.5403 9.43337
412 2 11.9759 87.4397 9.62159
413 2 0.323063 91.3744 9.59094
414 2 4.12551 91.2824 9.54281
415 2 8.12661 91.5693 9.60924
416 2 12.0884 91.3525 9.53426
417 2 -0.0839051 95.2481 9.62867
418 2 4.05839 95.5593 9.54475
419 2 7.92662 95.2363 9.61838
420 2 11.8732 95.4056 9.52988
421 2 15.6897 99.2951 9.39015
422 2 3.91619 99.2883 9.34187
423 2 7.91023 99.3373 9.43746
424 2 11.8019 99.2602 9.48723
425 2 -0.156544 103.09 9.19058
426 2 3.91799 103.014 9.46
427 2 7.83937 103.055 9.27542
428 2 11.7665 103.329 9.4341
429 2 15.6951 107.179 9.33116
430 2 3.94424 106.934 9.37731
431 2 7.86764 107.261 9.42986
432 2 11.708 107.292 9.21523
433 2 -0.348798 111.084 9.1657
434 2 3.71523 111.175 9.21314
435 2 7.5974 111.146 9.14378
436 2 11.7511 111.091 9.28566
437 2 0.0770519 115.128 8.8715
438 2 3.84309 115.057 9.27089
439 2 7.78408 115.12 9.26279
440 2 11.7501 114.838 9.25353
441 2 0.00311379 119.003 9.21796
442 2 3.89704 118.854 9.1291
443 2 7.888 119.03 9.17177
444 2 11.8068 119.051 9.19799
445 2 15.7829 122.697 9.00828
446 2 3.92971 122.911 9.08547
447 2 7.90553 122.864 9.05432
448 2 11.9742 122.76 9.15669
449 2 -0.289946 126.771 9.1264
450 2 3.83233 126.777 8.99104
451 2 7.98151 126.668 8.9098
452 2 11.7845 126.673 8.71561
453 2 0.112825 130.75 9.01303
454 2 4.19509 130.592 8.78775
455 2 7.90101 130.617 8.87622
456 2 11.9493 130.663 8.88517
457 2 -0.0316409 134.469 9.00607
458 2 4.22728 134.424 8.8757
459 2 7.98583 134.293 8.849
460 2 11.8261 134.645 8.89279
461 2 0.0773845 138.401 9.12345
462 2 4.04213 138.127 8.54424
463 2 7.92779 138.381 8.71852
464 2 11.7198 138.587 8.7928
465 2 -0.0301493 142.482 8.76203
466 2 4.01404 142.098 8.8924
467 2 7.94667 142.252 8.77832
468 2 11.7529 142.347 8.92398
469 2 15.8458 146.241 8.79337
470 2 4.03492 146.318 8.66729
471 2 8.05656 146.063 8.99628
472 2 11.6709 146.161 8.69396
473 2 15.8795 150.101 8.86958
474 2 4.06836 150.076 8.62728
475 2 7.91357 149.921 8.75606
476 2 11.8856 150.123 8.56235
477 2 15.867 153.918 8.72619
478 2 4.03327 154.213 8.62471
479 2 8.09922 154.071 8.64343
480 2 11.9024 153.931 8.72904
481 2 15.9254 157.882 12.6423
482 2 4.23267 158.174 12.597
483 2 8.14182 157.942 12.7343
484 2 12.0905 158.077 12.658
485 2 15.7967 3.27495 12.5944
486 2 4.05026 3.58145 12.421
487 2 7.88999 3.41542 12.6629
488 2 11.8962 3.5185 12.4517
489 2 0.0749689 7.53094 12.7299
490 2 3.96035 7.51611 12.6183
491 2 7.83901 7.26807 12.676
492 2 11.9991 7.34049 12.6129
493 2 15.9457 11.3009 12.5653
494 2 3.97858 11.5265 12.4554
495 2 7.87312 11.3253 12.5164
496 2 12.1314 11.3204 12.4112
497 2 0.0893568 15.2632 12.5326
498 2 3.97182 15.1895 12.3286
499 2 7.98461 15.4008 12.4301
500 2 11.7015 15.3452 12.2933
501 2 15.624 19.1545 12.2685
502 2 3.98319 19.1839 12.4122
503 2 7.96391 19.0751 12.4847
504 2 11.7777 19.2347 12.4362
505 2 15.8147 23.1095 12.403
506 2 4.0837 22.9643 12.4936
507 2 7.92159 22.9307 12.2434
508 2 11.7011 23.3203 12.5207
509 2 15.7629 26.9177 12.4828
510 2 3.85427 27.0993 12.4431
511 2 7.82093 27.0893 12.4819
512 2 11.7339 26.8969 12.4921
513 2 -0.120872 30.8134 12.4387
514 2 3.84751 30.9671 12.3733
515 2 7.99449 30.9159 12.5205
516 2 11.9468 30.8951 12.3121
517 2 15.6761 34.8252 12.407
518 2 3.78025 34.993 12.6249
519 2 7.79952 35.0364 12.5511
520 2 11.9543 34.9641 12.4764
521 2 15.7645 38.8817 12.537
522 2 3.80994 38.9753 12.6521
523 2 7.81437 39.0214 12.7647
524 2 11.8471 38.8683 12.6816
525 2 15.9103 42.9988 12.513
526 2 3.9807 42.9389 12.4228
527 2 7.96968 43.0715 12.7195
528 2 12.0254 43.0227 12.5934
529 2 15.8363 47.0713 12.6652
530 2 3.8414 47.0247 12.4148
531 2 7.85649 47.1405 12.6803
532 2 11.7744 47.1312 12.7496
533 2 0.0796428 51.2721 12.6049
534 2 3.89246 51.1618 12.6894
535 2 7.84322 51.22 12.7316
536 2 11.8869 51.0909 12.6596
537 2 -0.0760389 55.1787 12.7285
538 2 3.98606 55.0216 12.7505
539 2 7.92839 55.084 12.6043
540 2 11.7703 55.2401 12.7483
541 2 -0.220821 59.2219 12.728
542 2 4.00574 59.1737 12.9397
543 2 8.00868 59.2032 13.0529
544 2 11.9334 59.271 12.7849
545 2 -0.100176 63.2173 13.038
546 2 3.86778 63.2933 13.119
547 2 7.95458 63.2558 13.0647
548 2 11.9928 63.1125 13.0265
549 2 -0.0170534 67.1326 12.9044
550 2 4.0265 67.1558 12.8558
551 2 8.09912 67.0725 12.9414
552 2 11.7907 67.2781 12.8426
553 2 0.0914417 71.2359 13.1046
554 2 4.05199 71.1424 13.1142
555 2 8.11278 71.1173 13.116
556 2 12.0604 71.2611 13.1914
557 2 0.0903983 75.2337 13.2121
558 2 3.98517 75.4877 13.1088
559 2 7.89101 75.1818 12.9651
560 2 11.8379 75.2696 13.1931
561 2 0.00973158 79.2191 13.3184
562 2 3.99686 79.3404 13.2904
563 2 8.09281 79.203 13.2861
564 2 11.7701 79.3451 13.2918
565 2 0.20886 83.4942 13.3443
566 2 4.07353 83.4338 13.255
567 2 7.93601 83.3063 13.2177
568 2 12.0127 83.4574 13.1018
569 2 0.389584 87.4365 13.4077
570 2 4.19637 87.4015 13.4948
571 2 8.01271 87.2959 13.3447
572 2 11.9237 87.2981 13.2669
573 2 -0.146262 91.6088 13.5303
574 2 4.16702 91.4794 13.5336
575 2 8.05114 91.443 13.5029
576 2 11.9836 91.3545 13.5691
577 2 0.0706758 95.6066 13.5766
578 2 4.14563 95.5345 13.5667
579 2 7.99919 95.6438 13.5589
580 2 11.9479 95.4023 13.5629
581 2 -0.112871 99.2257 13.5298
582 2 3.98757 99.5197 13.5496
583 2 7.91931 99.6012 13.5337
584 2 11.7935 99.4521 13.2308
585 2 -0.0239061 103.248 13.3973
586 2 3.73229 103.525 13.3718
587 2 7.73427 103.308 13.5141
588 2 11.8504 103.237 13.375
589 2 15.7496 107.201 13.5038
590 2 3.77652 107.127 13.3634
591 2 7.79804 107.373 13.4082
592 2 11.5345 107.072 13.113
593 2 -0.189726 111.044 13.3529
594 2 3.65332 111.224 13.161
595 2 7.95221 111.071 13.3564
596 2 11.6442 111.162 13.1732
597 2 15.634 115.164 13.3661
598 2 3.82121 115.137 13.1767
599 2 7.96535 114.928 13.2218
600 2 11.8617 115.116 13.3484
601 2 15.7665 118.858 13.2705
602 2 3.71276 119.093 13.0346
603 2 7.67321 119.037 13.1322
604 2 11.8898 119 13.2145
605 2 -0.191374 122.746 12.9811
606 2 3.83087 122.914 13.1157
607 2 7.73803 122.811 13.1837
608 2 11.6906 123.055 13.114
609 2 15.6129 126.774 12.9223
610 2 3.84084 126.714 12.9347
611 2 7.93398 126.783 13.0996
612 2 11.7861 126.832 12.835
613 2 15.8785 130.665 13.0941
614 2 3.8397 130.678 13.0923
615 2 7.8402 130.562 13.019
616 2 11.8409 130.729 13.0489
617 2 -0.0961494 134.525 13.0923
618 2 3.86673 134.504 13.1714
619 2 8.00393 134.493 12.9185
620 2 11.7554 134.578 13.0417
621 2 0.193129 138.225 12.9444
622 2 4.08043 138.47 13.0508
623 2 8.03511 138.392 13.046
624 2 12.0394 138.522 12.8611
625 2 15.8031 142.43 12.8084
626 2 4.04525 142.391 12.8797
627 2 7.89263 142.341 12.8767
628 2 11.8623 142.437 13.0018
629 2 -0.0339899 146.135 12.8253
630 2 4.12663 146.251 12.855
631 2 8.00234 146.276 12.8609
632 2 11.9849 146.297 12.9236
633 2 15.9838 150.085 12.8314
634 2 4.13149 150.085 12.8621
635 2 8.09332 150.153 12.7902
636 2 12.0523 150.317 12.6623
637 2 15.8218 154.096 12.6782
638 2 3.8114 154.012 12.6291
639 2 7.97414 154.103 12.7788
640 2 12.032 154.095 12.7509
641 2 16.0473 158.091 16.7401
642 2 3.9976 157.985 16.7714
643 2 7.82572 157.956 16.7595
644 2 12.0316 157.997 16.7782
645 2 16.1763 3.55622 16.7583
646 2 4.07488 3.65312 16.6643
647 2 8.05011 3.57088 16.6939
648 2 11.8074 3.63603 16.7412
649 2 0.160245 7.44454 16.5389
650 2 4.09429 7.42173 16.6386
651 2 8.10766 7.63966 16.6005
652 2 11.9871 7.54054 16.765
653 2 15.9579 11.5045 16.6779
654 2 4.04206 11.522 16.5553
655 2 7.86458 11.5071 16.6512
656 2 11.9939 11.5574 16.5733
657 2 0.126995 15.2493 16.2673
658 2 4.04158 15.3229 16.5934
659 2 7.96272 15.3306 16.4987
660 2 11.8547 15.2825 16.4225
661 2 15.6215 19.3517 16.3689
662 2 3.78553 19.1005 16.493
663 2 7.77759 19.4204 16.5191
664 2 11.7481 19.3833 16.5199
665 2 15.8815 23.043 16.5765
666 2 4.05567 23.1097 16.4992
667 2 7.99204 23.3406 16.4113
668 2 11.7719 23.2328 16.4863
669 2 -0.0432957 27.1469 16.6073
670 2 3.98621 26.9568 16.3384
671 2 7.77215 26.8435 16.534
672 2 11.7075 27.0186 16.4648
673 2 15.6537 31.0072 16.4094
674 2 3.74034 30.8308 16.5166
675 2 7.75646 30.9608 16.3267
676 2 11.5629 30.9461 16.2074
677 2 15.61 34.8205 16.3994
678 2 3.95251 34.9892 16.4175
679 2 7.62188 34.9789 16.4185
680 2 11.8438 34.8483 16.3995
681 2 -0.147381 38.9389 16.5748
682 2 3.85633 39.1287 16.3547
683 2 7.86334 38.916 16.5947
684 2 11.7667 38.8559 16.588
685 2 15.6584 42.9047 16.4437
686 2 4.01111 43.028 16.3706
687 2 7.82699 42.8214 16.5877
688 2 11.7878 42.8398 16.4787
689 2 -0.0170803 46.9694 16.5345
690 2 3.86381 46.8243 16.4771
691 2 7.84687 46.8596 16.5609
692 2 11.8446 46.9492 16.624
693 2 15.8493 51.0231 16.6377
694 2 3.87825 50.9269 16.5595
695 2 7.85011 51.1069 16.6224
696 2 12.0142 50.9783 16.6347
697 2 0.318752 54.9857 16.4971
698 2 4.23684 55.182 16.5544
699 2 8.0952 54.9701 16.5306
700 2 12.0798 55.0354 16.7043
701 2 0.199272 58.9889 16.793
702 2 3.97843 59.0388 16.9174
703 2 7.91461 58.9095 16.7274
704 2 11.794 59.0754 16.7529
705 2 -0.0132657 63.1283 16.911
706 2 3.82191 63.0447 16.8743
707 2 7.84826 63.0896 16.9059
708 2 12.0368 63.1566 16.8534
709 2 0.0430038 67.0925 16.7602
710 2 3.92546 67.0983 16.9177
711 2 7.94152 67.0927 16.9223
712 2 11.7762 67.19 16.8047
713 2 -0.0804099 71.2387 17.1372
714 2 4.1136 71.1497 16.9478
715 2 7.99711 71.1017 17.0572
716 2 12.03 71.3979 17.1254
717 2 0.0796145 75.2662 16.9502
718 2 3.79563 75.2037 16.8492
719 2 7.94311 75.2539 17.01
720 2 11.9087 75.3673 16.9323
721 2 -0.0919041 79.371 17.0415
722 2 3.90591 79.285 17.185
723 2 7.89971 79.2897 17.1191
724 2 11.9079 79.1684 17.2103
725 2 -0.0661326 83.0947 17.2098
726 2 4.08165 83.1587 17.1651
727 2 7.92577 83.2595 17.1985
728 2 12.0228 83.3175 17.0851
729 2 0.0894161 87.2004 17.1517
730 2 4.00008 87.2992 17.2868
731 2 8.1389 87.2631 17.1535
732 2 12.0553 87.0493 17.3533
733 2 0.0166596 91.3049 17.1168
734 2 4.13874 91.4032 17.2514
735 2 8.03571 91.3996 17.3818
736 2 12.0216 91.3528 17.2548
737 2 0.0609942 95.3809 17.4128
738 2 3.73381 95.6527 17.532
739 2 7.95631 95.451 17.5533
740 2 11.7619 95.4586 17.6002
741 2 15.7412 99.3943 17.501
742 2 3.75915 99.3947 17.4293
743 2 8.01635 99.4325 17.4579
744 2 11.9299 99.5653 17.4614
745 2 15.6866 103.32 17.5311
746 2 3.86107 103.306 17.4559
747 2 7.70707 103.384 17.5319
748 2 11.7302 103.393 17.5271
749 2 15.6575 107.185 17.314
750 2 3.94454 107.297 17.3532
751 2 7.74465 107.233 17.4547
752 2 11.8309 107.274 17.3221
753 2 0.102071 111.055 17.2757
754 2 4.0159 111.337 17.2635
755 2 7.88745 111.124 17.437
756 2 11.9509 111.315 17.2028
757 2 0.0314739 115.095 17.2157
758 2 3.8071 114.939 17.4314
759 2 8.0332 115.054 17.2933
760 2 11.8031 115.24 17.2837
761 2 0.0295399 119.037 17.1771
762 2 3.84459 119.107 17.1363
763 2 7.72163 119.038 17.2526
764 2 11.7499 119.075 17.0789
765 2 -0.251977 122.948 17.0703
766 2 3.80797 122.905 17.3131
767 2 7.70444 122.918 17.2606
768 2 11.7675 122.9 17.3423
769 2 -0.171316 126.795 17.0648
770 2 3.86964 126.68 16.9888
771 2 7.7944 126.892 17.1038
772 2 11.628 126.713 17.0824
773 2 -0.32421 130.804 17.075
774 2 3.77003 130.623 17.0423
775 2 7.83758 130.764 17.1033
776 2 11.8818 130.663 17.1025
777 2 -0.0165458 134.49 17.0084
778 2 3.96514 134.512 16.9827
779 2 7.82408 134.481 17.1144
780 2 11.8096 134.577 17.0789
781 2 15.9917 138.411 16.8777
782 2 4.1834 138.395 17.0736
783 2 7.86491 138.436 17.0846
784 2 11.8171 138.556 16.9913
785 2 15.6679 142.172 16.947
786 2 4.00771 142.434 16.9263
787 2 8.13916 142.505 17.0761
788 2 12.1116 142.308 16.9631
789 2 16.0409 146.292 16.7672
790 2 4.10612 146.423 16.9184
791 2 7.91503 146.451 16.8674
792 2 11.922 146.3 16.9483
793 2 15.7772 150.203 16.75
794 2 4.05934 150.441 16.9623
795 2 7.89321 150.107 16.883
796 2 12.0562 150.093 16.9435
797 2 0.260245 154.213 16.7855
798 2 4.01058 154.052 16.7385
799 2 8.03519 154.135 16.7553
800 2 11.7422 154.094 16.7581
801 2 -0.100471 157.902 20.7341
802 2 3.96259 158.202 20.7268
803 2 7.87498 158.081 20.9324
804 2 11.9063 157.865 20.6267
805 2 15.9198 3.7073 20.6422
806 2 4.00028 3.60174 20.8683
807 2 8.17407 3.65127 20.8467
808 2 12.0883 3.55398 20.6734
809 2 0.0438324 7.65433 20.6747
810 2 3.95751 7.58982 20.7098
811 2 7.92873 7.60095 20.7141
812 2 11.9511 7.59058 20.5011
813 2 15.9053 11.5426 20.5097
814 2 3.91767 11.4201 20.7155
815 2 7.75409 11.6498 20.7606
816 2 12.0122 11.3123 20.4318
817 2 15.7636 15.3861 20.5696
818 2 3.88719 15.5215 20.6082
819 2 7.88414 15.3725 20.6334
820 2 11.7925 15.4109 20.4611
821 2 15.8064 19.3362 20.53
822 2 3.77837 19.3411 20.5672
823 2 7.71587 19.1302 20.4339
824 2 11.999 19.0726 20.4393
825 2 15.6497 23.2737 20.5205
826 2 4.01572 23.3298 20.4701
827 2 7.96235 22.9302 20.4435
828 2 11.8021 23.0429 20.3356
829 2 -0.336969 27.2203 20.3462
830 2 3.9629 27.2532 20.5314
831 2 7.75759 27.1966 20.475
832 2 11.7753 27.1801 20.6665
833 2 -0.103647 31.0226 20.1792
834 2 4.01517 31.1143 20.4953
835 2 7.94745 31.0156 20.4097
836 2 11.8604 30.9751 20.3214
837 2 15.8505 34.9242 20.3039
838 2 4.00616 34.9842 20.4063
839 2 7.87715 34.8522 20.5461
840 2 11.8295 35.176 20.4271
841 2 0.0147562 38.8907 20.5406
842 2 3.95897 38.8256 20.3365
843 2 7.8423 38.9254 20.519
844 2 11.8564 39.1185 20.2392
845 2 -0.0779498 42.8498 20.3763
846 2 3.78315 42.9149 20.5496
847 2 7.91863 42.864 20.4988
848 2 11.8163 43.022 20.4456
849 2 -0.169678 46.8611 20.3121
850 2 3.9468 46.9912 20.3007
851 2 7.82616 46.8842 20.5371
852 2 11.7377 46.8848 20.2176
853 2 0.0103377 51.0717 20.7309
854 2 4.1126 50.9295 20.5838
855 2 8.26294 50.9318 20.4375
856 2 11.9356 50.8462 20.499
857 2 0.0572792 54.8956 20.5291
858 2 4.00451 54.8944 20.4962
859 2 7.65728 54.9973 20.5673
860 2 11.9255 55.0629 20.4273
861 2 15.9226 58.8999 20.6292
862 2 4.18973 58.9373 20.8368
863 2 8.17625 59.1143 20.5793
864 2 12.1012 59.031 20.5605
865 2 15.9774 63.0211 20.7784
866 2 4.03733 63.0073 20.716
867 2 7.91667 63.011 20.8817
868 2 11.9403 63.134 20.853
869 2 0.221665 67.1155 20.7648
870 2 4.08816 67.1787 20.6482
871 2 8.15628 67.1854 20.7
872 2 12.0342 67.1585 20.7936
873 2 0.348767 71.1187 20.8477
874 2 4.09208 71.2497 20.7825
875 2 8.07291 71.0724 20.9413
876 2 12.0625 71.242 20.7876
877 2 0.175971 75.1771 20.8367
878 2 4.31476 75.4279 20.8339
879 2 8.00515 75.0435 20.9788
880 2 12.0008 75.2711 21.0368
881 2 0.171164 79.1369 21.1021
882 2 4.10967 79.1655 21.0045
883 2 8.05322 79.2373 20.8692
884 2 11.8945 78.9958 20.9774
885 2 -0.0981463 83.1875 21.2298
886 2 3.88498 83.2416 21.0629
887 2 8.08943 83.2552 20.8663
888 2 12.0254 83.1053 21.1991
889 2 0.150102 87.1986 21.145
890 2 3.8959 87.1775 20.9776
891 2 7.78412 87.3372 20.9955
892 2 11.9784 87.3421 21.3883
893 2 -0.010925 91.2933 21.1335
894 2 4.03642 91.4096 20.9711
895 2 7.9999 91.2888 21.1351
896 2 11.8417 91.27 21.1619
897 2 15.7822 95.2765 21.4024
898 2 3.84703 95.4238 21.2544
899 2 7.95532 95.2752 21.4265
900 2 11.9976 95.3221 21.4176
901 2 -0.20155 99.3929 21.31
902 2 3.9902 99.3569 21.4021
903 2 7.83607 99.3559 21.4785
904 2 11.8165 99.4276 21.4449
905 2 15.6996 103.346 21.5988
906 2 3.78542 103.301 21.4495
907 2 7.93997 103.372 21.3531
908 2 11.8758 103.351 21.3787
909 2 -0.118652 107.153 21.666
910 2 3.85763 107.367 21.4673
911 2 7.8267 107.355 21.5482
912 2 11.7996 107.352 21.227
913 2 15.7142 111.182 21.3944
914 2 3.88821 111.314 21.3991
915 2 7.78572 111.207 21.244
916 2 11.9031 111.329 21.4425
917 2 -0.0747331 114.923 21.2204
918 2 4.01326 115.153 21.239
919 2 8.11123 115.046 21.4271
920 2 11.9507 115.083 21.2905
921 2 -0.0102819 118.784 21.1814
922 2 3.87245 118.918 21.2351
923 2 7.84123 118.905 21.2576
924 2 11.7986 118.909 21.4019
925 2 -0.14067 122.896 21.1249
926 2 3.84245 122.766 21.0974
927 2 7.78027 122.804 21.2371
928 2 11.7842 122.832 21.3492
929 2 -0.00110817 126.884 21.228
930 2 3.84427 126.698 21.0737
931 2 7.80658 126.977 21.1149
932 2 11.6843 126.648 21.3004
933 2 -0.0146866 130.509 21.0484
934 2 3.91936 130.601 20.9627
935 2 7.89726 130.837 20.9295
936 2 11.8658 130.763 21.1172
937 2 15.9109 134.703 21.0913
938 2 3.76439 134.531 20.9852
939 2 7.85573 134.449 21.1091
940 2 11.9153 134.788 21.1178
941 2 15.9991 138.686 21.1439
942 2 3.92584 138.437 20.9797
943 2 7.89575 138.455 21.0402
944 2 11.8098 138.503 21.0711
945 2 15.9603 142.545 20.8865
946 2 3.9532 142.252 21.0178
947 2 8.15541 142.315 21.1182
948 2 12.0483 142.51 20.9589
949 2 0.197668 146.264 20.8836
950 2 4.12716 146.357 20.87
951 2 7.90567 146.176 20.9697
952 2 12.0272 146.327 21.0471
953 2 15.795 150.345 20.8356
954 2 3.9197 150.099 20.9549
955 2 8.01978 150.241 20.8911
956 2 12.0434 150.167 20.9545
957 2 -0.13231 154.224 20.9419
958 2 3.94181 154.143 20.6735
959 2 8.00451 154.279 20.7177
960 2 11.9096 153.881 20.8752
961 2 -0.0326847 158.135 24.8033
962 2 4.00715 158.08 24.7881
963 2 7.94987 158.1 24.7356
964 2 11.9177 158.044 24.9685
965 2 15.8156 3.84064 24.7208
966 2 4.03057 3.59498 24.585
967 2 8.15219 3.81188 24.7374
968 2 11.8509 3.64839 24.7803
969 2 0.00475636 7.66538 24.6581
970 2 4.08705 7.63054 24.7637
971 2 7.89728 7.64205 24.8373
972 2 11.939 7.78154 24.735
973 2 0.0650109 11.6208 24.5683
974 2 3.9285 11.6099 24.7325
975 2 8.07281 11.6678 24.4771
976 2 12.0964 11.7671 24.7105
977 2 0.0165033 15.3571 24.7059
978 2 4.11898 15.4777 24.8156
979 2 8.08239 15.3037 24.6025
980 2 11.9571 15.4857 24.6939
981 2 15.9118 19.4083 24.7807
982 2 4.05458 19.3505 24.4452
983 2 7.85065 19.3386 24.4747
984 2 11.8025 19.3763 24.7002
985 2 0.0601267 23.2328 24.4542
986 2 3.95469 23.4576 24.4108
987 2 7.79864 23.1672 24.6296
988 2 11.6383 23.3564 24.3283
989 2 -0.0929155 27.2283 24.4534
990 2 3.83824 27.3566 24.3721
991 2 8.10773 27.2678 24.4828