ITEM: TIMESTEP
18600
ITEM: NUMBER OF ATOMS
32000
ITEM: BOX BOUNDS xy xz yz pp pp pp
0.0000000000000000e+00 1.5832000000000001e+01 0.0000000000000000e+00
0.0000000000000000e+00 1.5831999999999999e+02 0.0000000000000000e+00
8.2750053754689645e-01 1.6014961746245035e+02 0.0000000000000000e+00
ITEM: ATOMS id type x y z
1 2 0.16268 157.636 159.746
2 2 3.94123 157.733 159.757
3 2 7.87523 157.869 159.898
4 2 12.0063 157.808 159.711
5 2 15.9304 3.32775 159.864
6 2 4.11328 3.19225 159.808
7 2 7.99412 3.25596 159.864
8 2 12.1163 3.54892 159.74
9 2 0.307414 7.33523 159.642
10 2 4.0521 7.38347 159.841
11 2 8.04796 7.3593 159.832
12 2 12.0323 7.31928 159.666
13 2 0.127088 11.2094 159.677
14 2 4.08002 11.28 159.621
15 2 7.96446 11.1813 159.657
16 2 12.0765 11.2369 159.517
17 2 15.7194 15.0692 159.726
18 2 3.98311 15.1392 159.861
19 2 7.85809 14.9994 159.797
20 2 11.9422 14.9911 159.562
21 2 -0.214405 19.184 159.692
22 2 3.74156 19.2447 159.699
23 2 7.93633 19.1196 159.825
24 2 11.8241 18.996 159.614
25 2 15.7587 23.2559 0.367654
26 2 3.80053 23.2326 159.785
27 2 8.06902 23.1683 159.795
28 2 11.8027 22.9828 159.764
29 2 15.9244 27.1493 159.71
30 2 4.01653 26.9786 159.811
31 2 7.8799 27.0485 159.877
32 2 11.9653 27.2961 159.984
33 2 15.8603 31.2676 159.905
34 2 4.02109 31.0385 159.927
35 2 7.97974 31.1569 159.927
36 2 11.9845 31.2792 0.760939
37 2 15.8873 35.3124 160.123
38 2 4.0747 35.1484 0.68405
39 2 7.96287 35.3177 160.034
40 2 12.0454 35.2795 0.787935
41 2 0.12711 39.1806 160.116
42 2 3.95042 39.3335 0.885016
43 2 7.88324 39.3256 0.793857
44 2 11.8924 39.1923 160.164
45 2 -0.0495737 43.21 0.98594
46 2 3.72775 43.2813 0.955128
47 2 8.06688 43.1528 0.795992
48 2 11.7109 43.3993 0.716707
49 2 15.8122 47.3738 1.04663
50 2 4.08275 47.6564 1.13549
51 2 7.9229 47.2845 0.960744
52 2 11.7802 47.3341 0.770572
53 2 -0.215417 51.5797 0.878964
54 2 3.8466 51.4041 1.10006
55 2 7.83854 51.3098 1.12613
56 2 11.9872 51.0686 160.446
57 2 0.0383414 55.4483 0.912065
58 2 4.23331 55.2793 1.09561
59 2 7.994 55.264 0.932595
60 2 11.9123 55.3547 1.00226
61 2 0.219754 59.3659 1.10094
62 2 4.1224 59.3566 1.25326
63 2 7.81112 59.3656 1.15706
64 2 11.8899 59.4142 1.15406
65 2 0.421312 63.5833 1.21531
66 2 4.22949 63.4929 1.39404
67 2 8.00672 63.4695 1.30257
68 2 12.101 63.5596 1.19133
69 2 0.167106 67.5175 1.29918
70 2 4.23769 67.4875 1.18354
71 2 8.03694 67.3719 1.27514
72 2 12.0951 67.4844 1.20676
73 2 15.7959 71.4185 1.28966
74 2 4.23415 71.4228 1.18062
75 2 7.8312 71.6067 1.41141
76 2 11.9616 71.5942 1.46169
77 2 -0.0816679 75.5402 1.34286
78 2 3.87434 75.5439 1.40649
79 2 7.82227 75.7216 1.6489
80 2 11.7342 75.4348 1.46209
81 2 0.198357 79.5161 1.42511
82 2 4.19272 79.5675 1.48556
83 2 8.09082 79.7254 1.49188
84 2 12.0752 79.7216 1.43057
85 2 0.332998 83.6125 1.54223
86 2 4.08019 83.6608 1.40025
87 2 8.0498 83.4751 1.5426
88 2 11.8788 83.6957 1.48287
89 2 0.101812 87.4364 1.50826
90 2 4.01674 87.5476 1.29941
91 2 7.95643 87.3695 1.38143
92 2 11.9977 87.6263 1.44853
93 2 0.104462 91.5535 1.49524
94 2 3.96074 91.5246 1.39954
95 2 7.8945 91.3959 1.51155
96 2 11.7928 91.5302 1.38486
97 2 -0.00125222 95.4272 1.26769
98 2 3.89859 95.3743 1.38841
99 2 8.03198 95.3922 1.35787
100 2 11.9538 95.191 1.45776
101 2 -0.0404215 99.3578 1.31992
102 2 4.00769 99.1446 1.39892
103 2 7.91357 99.2722 1.29321
104 2 11.8075 99.2617 1.2623
105 2 15.7596 103.048 1.31186
106 2 3.84213 103.174 1.32597
107 2 7.80097 103.248 1.36463
108 2 11.995 103.052 1.33233
109 2 15.7859 107.128 1.20945
110 2 4.0558 107.104 1.11311
111 2 7.76708 107.138 1.03141
112 2 11.7641 107.018 1.26777
113 2 -0.0164113 111.048 1.14874
114 2 3.93579 111.121 1.15347
115 2 7.98032 110.889 1.19645
116 2 11.8242 110.955 1.22116
117 2 -0.17961 114.97 1.21832
118 2 4.03989 115.042 1.14982
119 2 8.01839 114.951 1.16148
120 2 11.9604 114.811 1.06396
121 2 15.8652 118.983 1.05315
122 2 3.93842 118.817 0.923307
123 2 7.98387 118.896 1.18802
124 2 11.9256 118.627 160.43
125 2 0.00281054 122.775 0.789574
126 2 4.07727 122.693 1.01693
127 2 7.87153 122.595 0.904014
128 2 11.7385 122.629 0.91572
129 2 -0.0574758 126.5 160.213
130 2 3.75709 126.567 160.278
131 2 7.86584 126.523 0.955771
132 2 11.74 126.452 0.860765
133 2 0.128387 130.571 160.27
134 2 3.85895 130.466 160.169
135 2 7.92257 130.48 1.0617
136 2 11.9149 130.329 160.21
137 2 0.121202 134.51 160.17
138 2 4.04645 134.387 160.166
139 2 7.78698 134.561 0.944346
140 2 11.763 134.369 160.105
141 2 0.00754614 138.387 160.088
142 2 4.13547 138.34 160.007
143 2 8.076 138.336 160.231
144 2 11.7894 138.204 0.673711
145 2 15.9736 142.107 160.175
146 2 4.0555 142.152 160.284
147 2 7.92119 142.319 160.227
148 2 12.0536 142.196 160.221
149 2 0.235663 146.01 160.141
150 2 3.95477 145.994 159.919
151 2 7.90502 146.19 160.169
152 2 11.8329 146.088 160.1
153 2 15.6338 150.065 159.94
154 2 3.87942 150.039 159.982
155 2 7.84833 149.996 160.028
156 2 11.8323 149.955 160.031
157 2 15.9274 153.844 159.879
158 2 4.00361 154.005 160.012
159 2 7.90222 153.846 160.045
160 2 11.8238 153.954 159.853
161 2 15.9705 157.879 4.62229
162 2 4.18647 157.963 4.68507
163 2 7.87341 157.715 4.60866
164 2 12.0501 157.775 4.37203
165 2 15.8094 3.41621 4.58684
166 2 4.11421 3.39082 4.54346
167 2 8.15382 3.38101 4.67212
168 2 11.9996 3.57688 4.53803
169 2 15.8341 7.5276 4.50351
170 2 4.14681 7.21504 4.45048
171 2 7.94163 7.15367 4.51722
172 2 11.8225 7.50754 4.48152
173 2 15.8239 11.4871 4.49338
174 2 4.12179 11.3306 4.37716
175 2 8.013 11.1812 4.43208
176 2 11.8756 11.1477 4.28306
177 2 15.8453 15.0893 4.38121
178 2 4.07501 15.2239 4.39332
179 2 7.9392 15.1343 4.5308
180 2 11.9074 15.0831 4.29568
181 2 0.0166528 19.0369 4.20808
182 2 3.93186 19.3334 4.54454
183 2 7.70666 19.0726 4.3179
184 2 11.6892 19.0762 4.42257
185 2 15.7084 23.1895 4.42582
186 2 3.86604 23.2652 4.53585
187 2 7.77921 23.0814 4.39892
188 2 11.7435 23.0789 4.42504
189 2 15.968 27.1285 4.50852
190 2 4.12131 27.0804 4.29956
191 2 7.93584 26.929 4.4861
192 2 12.0092 27.0361 4.44537
193 2 15.8804 31.1809 4.49384
194 2 4.06534 31.0439 4.46968
195 2 7.8686 31.0692 4.44335
196 2 11.8026 30.9597 4.5358
197 2 0.0520498 35.0905 4.71784
198 2 3.92854 34.9431 4.61475
199 2 7.79024 35.0909 4.82792
200 2 11.621 35.2403 4.49143
201 2 0.181043 39.2507 4.74164
202 2 3.9232 38.9376 4.81835
203 2 7.77658 39.097 4.71607
204 2 11.8837 39.1808 4.58746
205 2 0.0957638 43.1356 4.91427
206 2 4.00199 43.2021 4.86463
207 2 7.76463 43.0645 4.72238
208 2 11.9172 43.1498 4.66886
209 2 15.6495 47.2975 4.93199
210 2 3.98735 47.2343 4.86463
211 2 7.85884 47.1338 4.96666
212 2 11.9746 47.0217 4.78929
213 2 -0.0137025 51.2635 4.93598
214 2 3.96386 51.4204 4.9866
215 2 7.92757 51.3431 4.98148
216 2 11.9637 51.2496 4.96333
217 2 -0.0427342 55.1724 5.01537
218 2 4.01412 55.2991 4.7518
219 2 7.91102 55.2514 5.00684
220 2 11.912 55.2714 5.08699
221 2 -0.0422905 59.2805 4.86344
222 2 4.08187 59.2662 4.92081
223 2 8.09339 59.3766 4.93354
224 2 12.0682 59.5314 4.87745
225 2 0.204299 63.385 5.08486
226 2 4.33562 63.2084 5.23374
227 2 8.03539 63.3808 5.24264
228 2 12.1758 63.3029 5.25416
229 2 0.293504 67.4543 5.18656
230 2 4.17126 67.3831 5.13898
231 2 8.19367 67.4253 5.12346
232 2 12.0154 67.3284 5.11042
233 2 0.195797 71.3188 5.1094
234 2 3.95445 71.2905 5.13328
235 2 7.90759 71.4328 5.3358
236 2 11.9121 71.375 5.24301
237 2 -0.0210821 75.4826 5.44466
238 2 3.76347 75.4451 5.16903
239 2 7.84572 75.6034 5.58384
240 2 11.8503 75.5255 5.2581
241 2 -0.0137072 79.542 5.34128
242 2 3.77988 79.4605 5.33712
243 2 7.92591 79.5128 5.30843
244 2 12.0396 79.5234 5.42648
245 2 15.9587 83.5027 5.35323
246 2 3.98269 83.5659 5.41745
247 2 8.17903 83.5295 5.33066
248 2 11.976 83.5061 5.4781
249 2 0.0259108 87.426 5.37886
250 2 4.08748 87.5285 5.37236
251 2 7.91138 87.6962 5.60862
252 2 11.8856 87.4181 5.51771
253 2 0.00342737 91.3675 5.53154
254 2 3.97998 91.5987 5.40719
255 2 8.04384 91.555 5.48229
256 2 11.9248 91.6257 5.5248
257 2 0.1233 95.6268 5.28847
258 2 3.85491 95.4511 5.24363
259 2 7.73884 95.2713 5.30346
260 2 12.0474 95.2787 5.44013
261 2 -0.110522 99.3491 5.15562
262 2 3.88511 99.2857 5.55405
263 2 7.78088 99.0526 5.3695
264 2 11.7293 99.3421 5.53736
265 2 15.6075 103.197 5.36173
266 2 3.87656 103.151 5.34333
267 2 7.73536 103.293 5.27202
268 2 11.6611 103.277 5.33983
269 2 -0.105004 107.106 5.16579
270 2 3.94597 106.964 5.24807
271 2 8.00023 107.141 5.20503
272 2 11.9248 107.178 5.15856
273 2 0.0735352 111.16 5.16644
274 2 3.76262 110.936 5.12687
275 2 8.02141 110.937 5.12377
276 2 12.103 110.957 4.96996
277 2 15.7348 115.05 5.26175
278 2 3.7803 114.909 5.01108
279 2 7.9195 114.839 5.13024
280 2 11.819 114.747 4.89464
281 2 15.7044 118.951 5.0335
282 2 3.87107 119.03 5.05622
283 2 7.93853 118.816 5.17909
284 2 11.8086 118.852 5.1295
285 2 15.695 122.686 5.12422
286 2 3.93435 122.776 5.03989
287 2 7.82384 122.562 4.97811
288 2 11.8338 122.771 4.9053
289 2 0.058517 126.567 4.86941
290 2 4.0341 126.578 4.85759
291 2 8.04799 126.691 4.9557
292 2 11.913 126.536 4.88882
293 2 -0.278467 130.593 5.04996
294 2 3.88826 130.482 5.0424
295 2 7.80699 130.492 4.89039
296 2 11.8321 130.384 4.80477
297 2 0.0587129 134.56 4.92196
298 2 3.94349 134.438 5.03646
299 2 8.0675 134.477 4.86086
300 2 12.0212 134.341 4.99592
301 2 15.773 138.294 4.75943
302 2 3.87983 138.332 4.89139
303 2 8.08771 138.111 4.80977
304 2 11.7273 138.405 4.81904
305 2 -0.177783 142.192 4.90063
306 2 4.07281 142.118 4.92988
307 2 7.87409 142.146 4.89077
308 2 11.8129 142.223 5.02431
309 2 16.0363 146.169 4.82669
310 2 4.18681 146.21 4.74678
311 2 7.90194 146.145 4.82356
312 2 11.9415 146.286 4.70678
313 2 0.0326884 149.946 4.63529
314 2 3.95473 150.043 4.64595
315 2 7.86973 149.99 4.6519
316 2 11.8887 150.15 4.79183
317 2 15.9443 153.911 4.54787
318 2 3.98841 153.879 4.70125
319 2 7.65781 153.779 4.56265
320 2 11.9244 153.966 4.7388
321 2 15.9318 157.897 8.67337
322 2 4.04163 157.813 8.65295
323 2 8.01097 157.904 8.51315
324 2 11.974 158.054 8.57178
325 2 16.0121 3.51487 8.3029
326 2 4.10411 3.75685 8.6202
327 2 7.97122 3.6817 8.48543
328 2 11.9541 3.49189 8.63095
329 2 -0.0380908 7.35366 8.37358
330 2 4.01717 7.51074 8.45586
331 2 7.86815 7.45701 8.54827
332 2 11.9647 7.42136 8.54612
333 2 15.9168 11.3658 8.366
334 2 4.0287 11.2587 8.40565
335 2 7.76602 11.4457 8.54852
336 2 11.9196 11.3601 8.5246
337 2 -0.0178253 15.4386 8.36142
338 2 4.00256 15.4415 8.72336
339 2 8.19575 15.1098 8.3641
340 2 12.0439 15.1878 8.43499
341 2 -0.179692 19.1921 8.27814
342 2 3.84565 19.0951 8.386
343 2 7.98302 19.1116 8.21549
344 2 11.6277 19.2203 8.40837
345 2 0.2667 23.0482 8.40597
346 2 4.03943 23.256 8.65566
347 2 7.70744 23.051 8.49719
348 2 11.6175 23.0048 8.28902
349 2 15.7291 27.0099 8.54697
350 2 3.89754 27.0795 8.40672
351 2 8.06479 26.9014 8.48413
352 2 11.7423 26.9397 8.39269
353 2 15.6753 30.8984 8.36469
354 2 3.95079 30.9634 8.3352
355 2 7.83375 30.9469 8.50391
356 2 11.5886 31.2224 8.57675
357 2 15.5888 35.068 8.55615
358 2 3.81118 34.9951 8.69397
359 2 7.67845 34.8609 8.62872
360 2 11.8502 35.2472 8.51615
361 2 15.9419 39.1857 8.86963
362 2 4.13206 38.9795 8.6501
363 2 7.886 38.9834 8.55256
364 2 11.8124 39.0143 8.37175
365 2 16.0979 43.0761 8.69775
366 2 3.98467 43.2725 8.72432
367 2 7.89349 43.0848 8.61149
368 2 11.816 43.0411 8.6858
369 2 -0.0369832 47.1593 8.73432
370 2 3.76448 47.3234 8.73104
371 2 7.78105 47.0749 8.9114
372 2 11.7845 46.9923 8.6723
373 2 0.299644 51.0604 8.82368
374 2 4.01756 51.2614 8.766
375 2 7.85165 51.2033 8.82935
376 2 12.0112 51.0589 8.92423
377 2 -0.013902 55.1538 8.93496
378 2 4.00375 55.3315 8.88073
379 2 7.92757 55.3245 8.90808
380 2 11.9183 55.3142 8.84138
381 2 15.8532 59.1032 8.88871
382 2 3.89332 59.167 9.16566
383 2 7.90832 59.297 8.86315
384 2 11.8411 59.115 8.85661
385 2 0.300965 63.3061 8.85103
386 2 4.11228 63.2227 9.14071
387 2 8.13942 63.3108 8.91927
388 2 12.0657 63.3652 8.98727
389 2 0.0792178 67.2831 9.08709
390 2 4.00674 67.299 9.2167
391 2 7.94667 67.3502 9.22344
392 2 12.0163 67.4134 9.22508
393 2 0.0951637 71.3455 9.04311
394 2 4.3436 71.2539 9.17757
395 2 7.84454 71.2234 9.19494
396 2 11.9779 71.2778 8.97855
397 2 -0.0557323 75.1741 9.31206
398 2 4.01356 75.188 9.12075
399 2 8.06017 75.1803 9.23974
400 2 12.0016 75.2345 9.2542
401 2 0.103045 79.4566 9.33106
402 2 4.07703 79.5122 9.24102
403 2 8.138 79.3378 9.33552
404 2 11.8054 79.5589 9.4417
405 2 0.192379 83.3975 9.30179
406 2 4.0239 83.3919 9.40045
407 2 7.94765 83.376 9.46293
408 2 12.0958 83.562 9.20151
409 2 -0.0687766 87.3097 9.47386
410 2 3.99357 87.5232 9.47888
411 2 8.00326 87.5453 9.26583
412 2 11.9745 87.4947 9.41326
413 2 0.0799693 91.4862 9.38831
414 2 4.03537 91.8081 9.63128
415 2 7.90077 91.4419 9.52026
416 2 12.0764 91.4888 9.5764
417 2 0.262219 95.5573 9.45603
418 2 3.97653 95.3855 9.56222
419 2 7.92875 95.5866 9.45709
420 2 12.024 95.4062 9.4795
421 2 15.7659 99.3215 9.30143
422 2 3.95125 99.4607 9.61506
423 2 7.95199 99.1667 9.26536
424 2 11.7976 99.4258 9.35052
425 2 -0.177754 103.426 9.46542
426 2 3.65358 103.387 9.3403
427 2 7.59352 103.39 9.30623
428 2 11.7514 103.226 9.38199
429 2 15.7695 107.373 9.21421
430 2 3.72973 107.193 9.12529
431 2 7.64268 107.229 9.30624
432 2 11.6823 107.162 9.23721
433 2 0.000815294 111.17 9.31519
434 2 3.92607 111.17 9.18158
435 2 7.98396 111.054 9.22794
436 2 11.8789 111.144 9.31114
437 2 -0.275637 114.981 9.30799
438 2 4.14867 114.905 9.09876
439 2 8.01434 114.958 9.05898
440 2 11.8359 115.156 9.16714
441 2 -0.0558842 118.608 9.04856
442 2 4.01558 118.853 9.14535
443 2 7.80718 118.74 9.09549
444 2 11.8072 118.763 9.08108
445 2 15.817 122.799 9.11718
446 2 3.98181 122.602 9.02899
447 2 7.83902 122.689 9.1014
448 2 11.6428 122.79 9.02617
449 2 0.0564864 126.607 8.94727
450 2 3.85575 126.411 8.98841
451 2 7.85547 126.692 9.05428
452 2 11.6683 126.72 9.05568
453 2 -0.13571 130.448 9.04613
454 2 3.82797 130.497 9.06425
455 2 7.83635 130.579 9.02193
456 2 11.5695 130.726 8.99835
457 2 0.00744337 134.542 8.985
458 2 4.01246 134.379 8.95339
459 2 8.04328 134.555 8.97018
460 2 12.0045 134.43 9.07461
461 2 0.0414812 138.596 8.72096
462 2 3.94249 138.48 9.06089
463 2 7.8203 138.43 9.04683
464 2 11.8811 138.279 9.02631
465 2 -0.0722314 142.233 8.93964
466 2 4.13028 142.428 8.7975
467 2 7.93971 142.316 8.96036
468 2 11.9277 142.192 8.87277
469 2 15.9819 146.2 8.76691
470 2 3.91018 146.235 8.94828
471 2 7.81013 146.245 8.70533
472 2 11.9507 146.123 8.75128
473 2 15.7618 150.103 8.66237
474 2 3.8257 150.114 8.98535
475 2 8.0866 150.173 8.73259
476 2 11.9355 149.966 8.86953
477 2 15.8711 154.067 8.6423
478 2 3.86505 153.839 8.82237
479 2 7.84768 153.821 8.63976
480 2 11.9729 154.162 8.61855
481 2 15.9273 158.04 12.7079
482 2 3.91657 157.822 12.5756
483 2 7.85093 157.938 12.6092
484 2 11.8954 157.973 12.6785
485 2 16.1593 3.60711 12.3664
486 2 4.04869 3.49918 12.6683
487 2 8.031 3.52313 12.533
488 2 12.1394 3.57109 12.778
489 2 0.180137 7.40904 12.4417
490 2 4.01849 7.38237 12.515
491 2 8.06741 7.60009 12.587
492 2 11.9587 7.36745 12.6415
493 2 15.6675 11.4739 12.4899
494 2 4.06936 11.3457 12.5584
495 2 8.09262 11.2487 12.5213
496 2 11.7542 11.5503 12.6222
497 2 -0.105198 15.4694 12.3293
498 2 3.97783 15.495 12.662
499 2 7.79489 15.3419 12.4667
500 2 11.8264 15.3478 12.6243
501 2 15.7512 19.4083 12.3474
502 2 3.96744 19.3235 12.4729
503 2 7.92993 19.2975 12.3671
504 2 11.9074 19.1186 12.4938
505 2 15.7845 23.0582 12.4037
506 2 3.75213 23.224 12.4682
507 2 7.83313 23.1229 12.5486
508 2 11.9426 22.8179 12.2652
509 2 15.5832 27.1021 12.4585
510 2 3.80463 27.0521 12.5369
511 2 7.80686 27.0108 12.5135
512 2 11.9075 26.9808 12.2992
513 2 -0.0444343 30.9561 12.3111
514 2 3.89461 30.9012 12.4659
515 2 7.7886 30.9088 12.3733
516 2 11.7289 30.9159 12.3192
517 2 15.9356 35.1195 12.5052
518 2 4.02207 34.9196 12.3852
519 2 7.99159 34.9028 12.5982
520 2 11.7284 35.0352 12.536
521 2 15.7772 39.1448 12.6219
522 2 4.02495 38.8892 12.5931
523 2 7.9855 38.8983 12.439
524 2 11.8431 39.0663 12.3781
525 2 15.6706 43.0232 12.5699
526 2 4.05714 42.9718 12.6996
527 2 7.9619 42.9697 12.7074
528 2 11.7259 43.112 12.3469
529 2 15.7602 47.0084 12.7193
530 2 3.85029 47.0666 12.7917
531 2 7.73535 47.0829 12.6698
532 2 11.9257 47.0915 12.7167
533 2 0.0380843 51.1433 12.7926
534 2 4.10075 51.0862 12.7839
535 2 8.01443 51.0402 12.7616
536 2 11.8576 51.0663 12.7404
537 2 0.0388738 55.2045 12.6953
538 2 4.05305 55.1387 12.6633
539 2 8.04694 55.0747 12.8726
540 2 12.0979 55.1002 12.769
541 2 0.152237 59.2019 12.819
542 2 3.92669 59.0865 12.7988
543 2 7.9828 59.1168 12.6978
544 2 11.7497 59.192 12.7746
545 2 0.00411055 63.1883 12.9079
546 2 4.21227 63.1654 12.7875
547 2 8.03826 63.1192 12.8699
548 2 11.7877 63.2886 12.5657
549 2 0.186839 67.2923 12.8776
550 2 3.85544 67.3412 13.0044
551 2 7.9328 67.3935 13.0245
552 2 12.1451 67.254 13.0158
553 2 0.0919387 71.2175 13.2148
554 2 4.02703 71.3616 13.2137
555 2 7.86443 71.3188 12.9243
556 2 11.8921 71.0589 12.9508
557 2 0.0115244 75.2577 13.0108
558 2 4.10883 75.1246 13.1964
559 2 8.17809 75.2557 13.2789
560 2 12.011 75.4463 13.1884
561 2 0.0688842 79.3726 13.0403
562 2 4.06898 79.2503 13.0843
563 2 7.93751 79.3985 13.0921
564 2 11.9603 79.2774 13.0753
565 2 0.171376 83.4161 13.3721
566 2 4.10674 83.1126 13.3327
567 2 8.20246 83.4071 13.2638
568 2 12.0716 83.3192 13.2415
569 2 0.163789 87.4764 13.2129
570 2 3.96392 87.2365 13.0815
571 2 7.92193 87.3889 13.2912
572 2 11.9725 87.4235 13.3267
573 2 0.295564 91.5269 13.4051
574 2 4.15979 91.3685 13.526
575 2 8.20266 91.4533 13.3762
576 2 11.9954 91.4473 13.3831
577 2 -0.0279712 95.4474 13.5573
578 2 3.96963 95.3628 13.511
579 2 8.12739 95.5139 13.4778
580 2 11.8983 95.4922 13.4985
581 2 -0.0931179 99.5553 13.5173
582 2 3.81554 99.4028 13.2908
583 2 7.80248 99.369 13.5383
584 2 11.7538 99.4153 13.6317
585 2 -0.351191 103.426 13.4118
586 2 3.84384 103.094 13.3246
587 2 7.97713 103.431 13.3415
588 2 11.6792 103.463 13.2995
589 2 15.7489 107.342 13.2239
590 2 4.04789 107.35 13.2778
591 2 7.82401 107.306 13.3588
592 2 11.8932 107.264 13.3502
593 2 -0.0586442 111.086 13.1662
594 2 3.98881 111.243 13.3283
595 2 7.58079 111.16 13.3051
596 2 11.7562 111.289 13.4
597 2 15.9226 114.946 13.0306
598 2 3.94477 114.986 13.2778
599 2 7.67105 115.071 13.1746
600 2 11.7393 115.099 13.1519
601 2 15.8102 119.057 13.1454
602 2 3.88978 118.863 13.2881
603 2 7.79678 118.862 13.2373
604 2 11.722 119.064 13.1304
605 2 -0.116266 122.94 13.2466
606 2 3.84881 122.933 13.0953
607 2 7.90028 122.895 13.1546
608 2 11.8823 122.764 13.2416
609 2 15.7005 126.785 12.8281
610 2 3.99653 126.768 13.1406
611 2 7.74311 126.685 12.8843
612 2 11.7698 126.823 13.1405
613 2 15.6797 130.669 12.9209
614 2 4.09225 130.583 12.997
615 2 7.88969 130.768 13.1231
616 2 11.7751 130.643 13.0828
617 2 0.0732267 134.567 12.9297
618 2 4.09553 134.556 12.8439
619 2 7.91435 134.687 13.138
620 2 12.0162 134.626 12.9847
621 2 0.0840006 138.486 12.8462
622 2 3.96087 138.504 12.8488
623 2 7.86978 138.476 13.0148
624 2 11.9716 138.382 12.949
625 2 15.9474 142.141 12.8775
626 2 4.02768 142.413 12.941
627 2 8.04665 142.207 13.0498
628 2 11.9711 142.272 13.0116
629 2 0.128814 146.172 12.7788
630 2 3.88142 146.19 12.8837
631 2 7.97945 146.281 12.9532
632 2 11.9591 146.261 12.9102
633 2 15.6393 150.202 12.754
634 2 4.07783 150.211 12.713
635 2 8.06122 150.231 12.6868
636 2 11.8832 150.186 12.7555
637 2 15.9969 154.164 12.7564
638 2 4.18194 154.037 12.7184
639 2 7.91132 154.109 12.7307
640 2 11.8487 154.163 12.6898
641 2 15.6537 157.851 16.6962
642 2 3.95996 158.123 16.6856
643 2 8.05676 157.988 16.5867
644 2 11.8399 158.104 16.7051
645 2 15.6155 3.48431 16.5393
646 2 4.01137 3.49437 16.7163
647 2 8.02268 3.49236 16.6137
648 2 12.0693 3.69326 16.6209
649 2 0.174232 7.54555 16.7174
650 2 4.03891 7.44024 16.6183
651 2 8.00945 7.4229 16.5294
652 2 11.9516 7.55576 16.4954
653 2 15.8047 11.3073 16.341
654 2 4.11998 11.421 16.6288
655 2 7.9849 11.3477 16.5836
656 2 11.8067 11.3889 16.3683
657 2 0.171013 15.2823 16.5184
658 2 3.92833 15.3514 16.4532
659 2 7.9571 15.5028 16.6018
660 2 11.9853 15.3209 16.6128
661 2 15.967 19.1365 16.5376
662 2 3.92553 19.3814 16.4126
663 2 8.0291 19.1612 16.4696
664 2 11.9765 19.0389 16.6076
665 2 15.7765 23.1015 16.3864
666 2 3.83415 23.1829 16.4846
667 2 7.99878 22.9224 16.5217
668 2 11.9943 23.0451 16.498
669 2 -0.178663 26.9051 16.3777
670 2 3.69016 26.9273 16.3918
671 2 7.89088 27.1774 16.3761
672 2 11.7378 27.0011 16.3749
673 2 15.7425 30.8795 16.4424
674 2 3.85931 31.098 16.2982
675 2 7.93254 30.8241 16.5315
676 2 11.7924 31.0378 16.4558
677 2 15.9905 34.9937 16.259
678 2 3.99525 34.8277 16.3674
679 2 8.05312 34.7762 16.4667
680 2 11.8243 34.9683 16.4714
681 2 -0.0740041 38.9367 16.4799
682 2 3.79585 38.8481 16.6362
683 2 7.94066 38.8829 16.4474
684 2 11.9309 38.8472 16.3521
685 2 15.8728 43.0194 16.4741
686 2 3.95543 42.8451 16.5328
687 2 7.98301 42.9924 16.5185
688 2 11.8352 42.9975 16.5934
689 2 -0.00373 46.9274 16.5765
690 2 4.00039 47.0891 16.5266
691 2 7.94657 47.0009 16.453
692 2 12.0013 47.0376 16.481
693 2 15.868 51.0618 16.6239
694 2 4.04886 51.0259 16.7827
695 2 7.93294 50.8644 16.6863
696 2 11.8321 51.0721 16.7037
697 2 0.0198789 55.1552 16.7375
698 2 3.9916 55.0691 16.6567
699 2 8.06388 55.0916 16.7356
700 2 11.9025 54.9461 16.701
701 2 -0.0597798 59.1268 16.4128
702 2 4.24418 59.105 16.5291
703 2 8.15808 59.354 16.8464
704 2 11.9426 59.1384 16.6973
705 2 0.157372 63.0621 16.8147
706 2 4.1298 63.1465 16.8036
707 2 7.87761 63.1294 16.7244
708 2 11.9808 63.1919 16.8722
709 2 0.0219312 67.1577 16.764
710 2 4.1258 67.2475 16.6409
711 2 8.08643 67.2012 16.8357
712 2 11.9777 67.0789 16.9092
713 2 0.314486 71.0569 17.0343
714 2 4.13437 71.1886 17.1091
715 2 8.10352 71.3424 16.8956
716 2 11.9428 70.8859 16.9188
717 2 0.0840464 75.158 16.9783
718 2 4.24065 75.3006 17.1018
719 2 8.12637 75.076 16.9612
720 2 12.1209 74.9804 17.093
721 2 0.0996256 79.2811 17.1252
722 2 4.05979 79.2662 16.9496
723 2 7.8644 79.3338 17.169
724 2 11.862 79.3384 17.0007
725 2 -0.050607 83.4422 17.2014
726 2 3.94914 83.3965 17.1938
727 2 8.1508 83.3481 17.0816
728 2 11.8959 83.356 17.0009
729 2 0.053472 87.4326 17.341
730 2 4.21865 87.447 17.3923
731 2 7.94705 87.3005 17.181
732 2 11.905 87.6408 17.2353
733 2 0.200476 91.488 17.1564
734 2 4.01205 91.4062 17.461
735 2 8.10553 91.4846 17.0809
736 2 12.0869 91.3064 17.3291
737 2 -0.080078 95.4366 17.5156
738 2 4.09244 95.2522 17.4632
739 2 7.7167 95.4936 17.4565
740 2 11.8693 95.4389 17.4491
741 2 15.8007 99.2947 17.5026
742 2 3.93297 99.4977 17.4927
743 2 7.85812 99.4286 17.5193
744 2 11.7988 99.4178 17.5945
745 2 15.7119 103.375 17.3888
746 2 3.68964 103.353 17.267
747 2 7.83542 103.29 17.3428
748 2 11.9127 103.411 17.386
749 2 15.8321 107.368 17.4426
750 2 3.80679 107.108 17.2974
751 2 7.88648 107.137 17.3341
752 2 11.7055 107.426 17.4804
753 2 -0.0853525 111.161 17.2106
754 2 3.9215 111.101 17.3761
755 2 7.91411 111.15 17.1485
756 2 11.818 111.179 17.2993
757 2 -0.0667123 114.947 17.2626
758 2 4.01188 115.186 17.1447
759 2 7.86679 115.206 17.1968
760 2 11.9548 114.992 17.2612
761 2 -0.23874 118.872 17.2348
762 2 3.83309 118.858 17.3694
763 2 7.86699 118.808 17.1187
764 2 11.9004 118.985 17.1314
765 2 -0.156519 122.966 17.1679
766 2 3.93261 122.764 17.0509
767 2 7.92618 122.84 17.1398
768 2 11.5755 122.932 17.1317
769 2 -0.1921 126.816 17.0441
770 2 3.61853 126.785 16.9674
771 2 7.77432 126.772 17.2097
772 2 11.6475 126.871 17.1297
773 2 -0.0121235 130.6 17.0303
774 2 3.83233 130.591 16.8933
775 2 7.79664 130.686 17.1852
776 2 11.6475 130.615 17.1004
777 2 -0.179126 134.614 17.1146
778 2 3.80322 134.577 16.9949
779 2 7.99165 134.621 17.1114
780 2 11.8135 134.606 17.0731
781 2 15.6821 138.499 17.0017
782 2 3.73001 138.565 17.0317
783 2 7.87057 138.575 17.0266
784 2 11.8432 138.301 17.0565
785 2 16.0181 142.418 16.8519
786 2 4.0738 142.378 16.7934
787 2 8.00795 142.437 16.839
788 2 11.8323 142.375 17.0204
789 2 16.0321 146.351 16.7794
790 2 4.12138 146.472 16.609
791 2 8.11548 146.273 16.9174
792 2 12.0121 146.419 16.92
793 2 15.9598 150.329 16.8764
794 2 3.90056 150.115 16.6534
795 2 7.88572 150.348 16.8653
796 2 11.7912 150.314 16.7852
797 2 -0.177544 154.015 16.7043
798 2 3.87433 154.133 16.6822
799 2 7.74823 154.057 16.8075
800 2 11.8696 154.043 16.7691
801 2 0.0689035 157.96 20.7504
802 2 3.80872 157.966 20.7653
803 2 8.05082 158.165 20.564
804 2 11.9427 158.091 20.8334
805 2 15.8981 3.72748 20.7353
806 2 3.99658 3.65326 20.6644
807 2 7.75644 3.76885 20.6588
808 2 11.7728 3.6746 20.7218
809 2 0.219309 7.59853 20.5373
810 2 3.99748 7.54715 20.6875
811 2 7.97434 7.60684 20.6485
812 2 12.0038 7.57124 20.609
813 2 15.8827 11.5518 20.6754
814 2 4.00206 11.5207 20.5956
815 2 8.06755 11.373 20.6282
816 2 11.9075 11.5902 20.6573
817 2 15.8517 15.3665 20.5246
818 2 3.90782 15.3976 20.4243
819 2 7.81258 15.3736 20.5488
820 2 11.8726 15.1394 20.5568
821 2 15.8597 19.2298 20.7241
822 2 3.94912 19.47 20.5227
823 2 7.99631 19.4039 20.616
824 2 11.9272 19.3408 20.7077
825 2 15.8642 23.1734 20.5474
826 2 3.98988 23.3731 20.5493
827 2 7.69393 23.2912 20.4532
828 2 11.7844 23.2745 20.5853
829 2 -0.000410875 27.0769 20.5935
830 2 3.86359 27.2323 20.4266
831 2 7.85083 27.2833 20.5277
832 2 11.7581 27.1273 20.406
833 2 -0.0610027 31.0026 20.2909
834 2 3.80926 31.0422 20.3584
835 2 7.68413 31.0356 20.3794
836 2 11.7391 31.0585 20.3477
837 2 15.7917 34.8312 20.2826
838 2 4.02358 35.0069 20.3311
839 2 7.86969 35.0579 20.4882
840 2 11.9026 34.8742 20.3489
841 2 0.0334352 38.7593 20.3246
842 2 3.94953 38.9364 20.3458
843 2 7.94024 38.9467 20.4237
844 2 11.8527 38.7612 20.4075
845 2 -0.129095 42.8509 20.4062
846 2 3.84109 42.8814 20.3232
847 2 7.5973 43.0448 20.3323
848 2 11.6165 42.8157 20.4593
849 2 0.0675687 46.9344 20.6246
850 2 3.80823 46.9729 20.4467
851 2 7.84319 46.8386 20.4305
852 2 11.8166 46.8167 20.7355
853 2 0.201214 50.8304 20.38
854 2 4.0773 51.0198 20.6105
855 2 7.87538 50.8845 20.6208
856 2 11.949 50.9575 20.6098
857 2 0.270514 55.0799 20.4342
858 2 4.08426 55.0539 20.5947
859 2 8.18314 54.9563 20.5519
860 2 12.078 54.8905 20.7049
861 2 15.9156 59.0162 20.4617
862 2 4.09488 59.0664 20.6788
863 2 7.92116 59.0009 20.7533
864 2 11.8593 59.0633 20.7281
865 2 15.9654 62.9929 20.6177
866 2 3.88898 63.0251 20.5916
867 2 8.02071 63.061 20.5861
868 2 11.996 62.9559 20.5638
869 2 0.0700164 66.9878 20.7348
870 2 4.21274 67.1491 20.7427
871 2 8.09121 67.0018 20.7576
872 2 11.9451 67.0039 20.6407
873 2 -0.0411142 70.9295 21.0266
874 2 4.14651 71.1473 20.871
875 2 8.07664 71.1807 20.9432
876 2 12.1664 71.029 20.9196
877 2 0.0942907 75.0857 21.0046
878 2 3.91529 75.212 20.8523
879 2 8.08151 75.2342 20.9455
880 2 11.9313 75.0145 20.9383
881 2 0.00780925 79.1954 20.7046
882 2 4.14026 79.2575 20.9195
883 2 8.10449 79.0808 21.036
884 2 12.0409 79.1999 20.9262
885 2 0.0663443 83.1689 21.0166
886 2 3.90469 83.3325 21.2092
887 2 8.06866 83.3606 21.1635
888 2 11.889 83.3239 21.1208
889 2 -0.0702129 87.3329 21.1208
890 2 3.97236 87.3864 21.186
891 2 7.88889 87.3781 21.0116
892 2 11.8585 87.2811 20.9769
893 2 0.0485179 91.4192 21.3387
894 2 3.80669 91.3227 21.322
895 2 8.17567 91.4324 21.1775
896 2 12.05 91.2449 21.1544
897 2 15.7134 95.4699 21.3664
898 2 3.96821 95.3603 21.3791
899 2 7.91552 95.5204 21.4467
900 2 11.6861 95.3973 21.3376
901 2 0.0381035 99.2634 21.5293
902 2 3.95639 99.4612 21.4379
903 2 7.99221 99.4285 21.3902
904 2 11.6921 99.3477 21.4822
905 2 15.8881 103.34 21.411
906 2 3.96197 103.227 21.2561
907 2 7.79099 103.513 21.417
908 2 11.8337 103.347 21.5382
909 2 0.0382393 107.285 21.1859
910 2 3.73295 107.467 21.2381
911 2 7.75247 107.308 21.1849
912 2 11.9 107.382 21.5219
913 2 15.745 111.093 21.4176
914 2 3.92173 111.172 21.2159
915 2 7.98813 111.188 21.3982
916 2 11.7425 111.009 21.2793
917 2 -0.0422651 115.091 21.3108
918 2 3.92149 114.932 21.3351
919 2 7.76613 115.058 21.1288
920 2 11.903 115.026 21.3117
921 2 -0.0201759 119.109 21.3403
922 2 3.81933 118.912 21.3268
923 2 7.85677 118.913 21.1254
924 2 11.8888 119.054 21.1364
925 2 0.035925 122.734 21.1644
926 2 3.98608 122.761 21.273
927 2 8.02552 122.828 21.1456
928 2 11.9317 122.787 21.0801
929 2 -0.104188 126.488 20.9121
930 2 3.85981 126.593 20.9295
931 2 7.76792 126.736 21.2007
932 2 11.9698 126.968 21.0921
933 2 0.0391124 130.824 21.1009
934 2 3.82823 130.688 21.1358
935 2 7.75541 130.604 21.3319
936 2 11.8708 130.705 21.205
937 2 15.7894 134.531 21.0902
938 2 3.91048 134.702 20.9964
939 2 7.78763 134.719 21.0763
940 2 11.8576 134.612 21.0487
941 2 15.7838 138.386 20.953
942 2 3.97878 138.425 21.081
943 2 7.77598 138.529 21.0089
944 2 11.9451 138.512 21.2165
945 2 16.0177 142.322 20.9837
946 2 4.06445 142.541 20.9113
947 2 7.84734 142.236 20.7996
948 2 12.1058 142.559 20.8511
949 2 0.301203 146.372 20.8234
950 2 3.93234 146.222 20.9262
951 2 8.07914 146.208 20.8403
952 2 12.0402 146.295 20.9225
953 2 15.9258 150.158 20.9699
954 2 4.05513 150.375 20.8751
955 2 7.89708 150.112 20.9606
956 2 11.9076 149.97 20.7394
957 2 0.137287 154.039 20.8252
958 2 4.05893 154.183 20.9817
959 2 7.88889 154.262 20.8597
960 2 11.8392 154.191 20.811
961 2 -0.0656414 158.147 24.8575
962 2 3.92691 158.047 24.9159
963 2 7.94018 158 24.6749
964 2 11.8539 158.193 24.8219
965 2 15.7926 3.56033 24.7609
966 2 4.08053 3.64203 24.8843
967 2 8.09142 3.60052 24.6295
968 2 12.0889 3.69725 24.7407
969 2 -0.00631928 7.51075 24.6096
970 2 3.86258 7.56224 24.7504
971 2 8.11885 7.58865 24.5232
972 2 11.9953 7.64757 24.5152
973 2 0.0117615 11.5207 24.8002
974 2 4.07324 11.4515 24.6908
975 2 7.92219 11.3767 24.8873
976 2 11.6993 11.478 24.5884
977 2 0.0873753 15.6004 24.5161
978 2 3.84271 15.4077 24.5158
979 2 7.73658 15.6722 24.5927
980 2 11.6934 15.5573 24.6222
981 2 15.7849 19.3966 24.4574
982 2 3.83844 19.4112 24.6435
983 2 7.95343 19.4089 24.6077
984 2 11.8211 19.2643 24.497
985 2 -0.057887 23.3086 24.638
986 2 3.90983 23.4347 24.5687
987 2 7.8663 23.3218 24.4015
988 2 11.7792 23.2021 24.4348
989 2 -0.036672 27.1736 24.5551
990 2 3.91476 27.2682 24.6117
991 2 7.7553 27.1494 24.5567
992 2 11.72 27.2057 24.5613