ITEM: TIMESTEP
18900
ITEM: NUMBER OF ATOMS
32000
ITEM: BOX BOUNDS xy xz yz pp pp pp
0.0000000000000000e+00 1.5832000000000001e+01 0.0000000000000000e+00
0.0000000000000000e+00 1.5831999999999999e+02 0.0000000000000000e+00
8.2570864094959973e-01 1.6015140935904759e+02 0.0000000000000000e+00
ITEM: ATOMS id type x y z
1 2 -0.0810086 157.711 160.096
2 2 3.74178 157.807 159.84
3 2 7.91093 158.021 160.11
4 2 11.7814 158.058 159.846
5 2 15.8458 3.54604 159.95
6 2 3.81831 3.25826 159.948
7 2 7.90118 3.58263 159.943
8 2 11.865 3.74125 160.043
9 2 0.205187 7.31299 159.909
10 2 3.94 7.37496 160.001
11 2 7.91993 7.47009 159.938
12 2 11.8856 7.43509 159.678
13 2 0.109064 11.1829 159.719
14 2 4.14464 11.2715 159.585
15 2 7.82688 11.3015 159.782
16 2 11.8361 11.4988 159.665
17 2 16.0177 15.0523 159.624
18 2 4.09891 15.1877 159.663
19 2 7.88758 15.0368 159.697
20 2 11.867 15.1564 159.807
21 2 0.0560294 19.013 159.682
22 2 3.88333 19.0454 159.72
23 2 7.9037 19.0674 159.814
24 2 11.8603 19.1298 159.677
25 2 15.7082 23.1875 0.371325
26 2 4.03836 23.0684 159.73
27 2 7.92533 23.0457 159.855
28 2 12.0137 23.0843 159.804
29 2 15.9102 27.1171 159.748
30 2 3.85466 27.006 159.811
31 2 7.90278 27.0676 159.948
32 2 11.9914 27.1918 159.921
33 2 15.7801 31.2248 159.997
34 2 3.94454 31.0181 160.055
35 2 7.95898 31.2019 159.729
36 2 11.7563 31.28 0.721053
37 2 15.8627 35.3659 160.037
38 2 3.88743 35.2284 0.543792
39 2 7.97818 35.2647 159.93
40 2 11.9626 35.1928 0.682868
41 2 0.00621111 39.3512 160.092
42 2 3.87804 39.2962 0.812508
43 2 7.92185 39.311 0.874172
44 2 11.9533 39.32 160.347
45 2 0.0301162 43.3662 0.888277
46 2 3.91569 43.5521 0.792584
47 2 7.9205 43.367 0.903119
48 2 11.9499 43.6479 0.783047
49 2 16.2141 47.3534 0.92448
50 2 4.16856 47.5283 0.902703
51 2 8.07031 47.4183 0.874573
52 2 11.9059 47.4789 0.838678
53 2 0.0151062 51.326 0.904834
54 2 3.93324 51.4646 0.958959
55 2 7.93928 51.3137 1.14706
56 2 11.9714 51.2089 160.458
57 2 0.136112 55.4934 0.977116
58 2 4.19648 55.3703 1.19191
59 2 8.05351 55.4397 0.980493
60 2 12.0635 55.3415 1.15208
61 2 0.0958013 59.4343 1.2008
62 2 4.03344 59.4311 0.965685
63 2 7.8474 59.3584 1.19313
64 2 11.8569 59.4548 1.2019
65 2 0.101551 63.4945 1.14304
66 2 3.94344 63.5064 1.27459
67 2 7.84727 63.3483 1.09167
68 2 11.8435 63.394 1.21451
69 2 -0.187056 67.5364 1.36287
70 2 4.03537 67.3379 1.11748
71 2 8.03453 67.4745 1.25712
72 2 12.0099 67.6259 1.21687
73 2 16.1218 71.5959 1.30328
74 2 4.15466 71.6623 1.29532
75 2 8.02798 71.5245 1.36119
76 2 12.0031 71.6081 1.4011
77 2 0.14433 75.4443 1.4031
78 2 4.08719 75.4188 1.39467
79 2 7.96481 75.5689 1.45469
80 2 11.7633 75.5112 1.32346
81 2 0.0118178 79.6941 1.42202
82 2 4.13311 79.4937 1.31186
83 2 8.00845 79.7687 1.49389
84 2 12.0019 79.6392 1.55589
85 2 0.234227 83.4571 1.44665
86 2 3.95341 83.5793 1.39592
87 2 7.7654 83.5369 1.52549
88 2 11.7196 83.6747 1.52236
89 2 -0.0673225 87.4005 1.43108
90 2 3.91654 87.5696 1.50871
91 2 7.82479 87.4823 1.41822
92 2 11.9211 87.5747 1.44713
93 2 -0.0116171 91.269 1.53153
94 2 3.80742 91.3981 1.42808
95 2 7.75091 91.4377 1.43231
96 2 11.7802 91.3459 1.38345
97 2 -0.0992617 95.3426 1.35886
98 2 3.91056 95.333 1.24206
99 2 8.06113 95.5489 1.14497
100 2 11.828 95.3175 1.32902
101 2 -0.121374 99.5732 1.04056
102 2 4.07788 99.3016 1.18823
103 2 8.06946 99.4394 1.22005
104 2 11.9084 99.1946 1.15324
105 2 15.8374 103.251 1.21534
106 2 3.92048 103.266 1.28
107 2 7.76965 103.191 1.13771
108 2 11.8869 103.172 1.26031
109 2 15.9887 107.163 1.08719
110 2 3.92845 107.232 1.05154
111 2 7.68437 107.287 1.08733
112 2 11.8945 107.063 1.04986
113 2 0.0599181 110.963 0.953101
114 2 3.88942 111.21 0.98579
115 2 7.75341 110.927 1.04403
116 2 11.7267 110.856 1.10782
117 2 -0.179283 114.919 1.10607
118 2 4.02732 114.913 1.07638
119 2 7.79105 114.903 1.13018
120 2 11.857 114.823 0.964074
121 2 15.7885 118.897 1.02177
122 2 3.91856 118.846 0.793385
123 2 7.82023 118.924 1.0884
124 2 11.9498 118.592 160.375
125 2 -0.0201595 122.696 0.867514
126 2 4.0511 122.834 1.05257
127 2 7.83237 122.69 0.941374
128 2 11.7364 122.458 0.945752
129 2 0.0838743 126.495 160.249
130 2 3.78691 126.692 160.347
131 2 7.92004 126.599 1.00627
132 2 11.9421 126.377 0.96407
133 2 0.0266891 130.56 160.36
134 2 3.95607 130.517 160.376
135 2 7.93741 130.857 0.847118
136 2 11.972 130.43 160.285
137 2 0.04976 134.423 160.116
138 2 3.98544 134.539 160.259
139 2 7.74923 134.563 0.859015
140 2 11.7475 134.331 160.126
141 2 -0.0890986 138.319 160.185
142 2 4.07041 138.479 159.931
143 2 8.02293 138.467 160.059
144 2 11.7607 138.366 0.68322
145 2 15.7229 142.296 160.226
146 2 3.96373 142.211 160.308
147 2 7.83915 142.424 160.214
148 2 12.034 142.328 160.078
149 2 0.0639832 146.216 160.18
150 2 3.83947 146.151 160.047
151 2 8.05491 146.265 160.098
152 2 11.806 146.008 160.042
153 2 15.7917 150.103 159.998
154 2 3.83393 150.154 159.931
155 2 8.09835 150.179 159.949
156 2 12.106 150.04 160.076
157 2 15.9558 153.916 159.972
158 2 4.14011 153.977 159.921
159 2 8.01667 154.059 159.94
160 2 11.9237 154.171 159.869
161 2 15.844 157.982 4.65887
162 2 3.99047 158.031 4.76575
163 2 7.84678 157.988 4.70525
164 2 11.8023 157.917 4.4733
165 2 15.6694 3.56059 4.49747
166 2 3.88614 3.67246 4.69477
167 2 8.03645 3.53305 4.6163
168 2 11.9152 3.61224 4.49595
169 2 15.7981 7.40734 4.44944
170 2 3.82166 7.30309 4.47277
171 2 7.86527 7.32257 4.54977
172 2 11.6091 7.64995 4.53874
173 2 15.9751 11.4871 4.6452
174 2 3.98414 11.2876 4.48064
175 2 7.88812 11.2541 4.59169
176 2 11.634 11.3735 4.34605
177 2 15.9999 15.0657 4.4872
178 2 4.08214 15.2215 4.54101
179 2 8.02316 15.307 4.52194
180 2 12.0206 15.3287 4.52385
181 2 0.175583 19.1659 4.23073
182 2 4.03681 19.2884 4.4983
183 2 7.6435 19.0239 4.25449
184 2 12.1071 19.1372 4.3374
185 2 15.7172 22.929 4.46867
186 2 3.91383 23.0335 4.49615
187 2 7.91023 22.9859 4.36526
188 2 12.1991 23.1309 4.40797
189 2 15.9216 27.1727 4.60232
190 2 4.07218 27.1542 4.31707
191 2 7.9374 27.1989 4.41324
192 2 12.1473 26.9738 4.48786
193 2 16.0038 31.2907 4.6199
194 2 4.06485 31.086 4.54905
195 2 8.05887 31.1338 4.49716
196 2 11.8192 31.0761 4.59052
197 2 0.0607811 35.129 4.60543
198 2 3.98254 35.0292 4.59559
199 2 7.89594 35.1874 4.61489
200 2 11.7746 35.0365 4.60068
201 2 0.0906608 39.3276 4.77838
202 2 3.88129 39.1073 4.59615
203 2 7.9348 39.2902 4.66978
204 2 11.9824 39.275 4.797
205 2 0.0398171 43.3335 4.88712
206 2 4.02361 43.3723 4.64859
207 2 7.99051 43.2462 4.7825
208 2 11.8533 43.1341 4.88782
209 2 15.7836 47.1054 4.81536
210 2 4.15517 47.2441 4.67212
211 2 7.97155 47.2645 4.96074
212 2 11.8726 47.1933 4.89871
213 2 0.0961609 51.3272 4.80053
214 2 3.93325 51.2912 4.90697
215 2 8.08299 51.2563 4.9961
216 2 11.8246 51.2259 4.91311
217 2 0.0613511 55.1804 5.03009
218 2 4.06022 55.3064 4.96644
219 2 8.1149 55.2935 5.10492
220 2 11.9945 55.2595 4.99083
221 2 -0.0571827 59.3584 5.02786
222 2 3.9925 59.2717 5.41401
223 2 8.24903 59.332 5.08824
224 2 11.9523 59.3898 4.82212
225 2 0.00776808 63.3257 5.15558
226 2 4.02655 63.3108 5.21494
227 2 7.90576 63.4143 5.28969
228 2 11.9067 63.2962 5.17112
229 2 0.0675652 67.3109 5.30932
230 2 3.94396 67.2863 5.25184
231 2 8.22377 67.4888 5.08278
232 2 11.9757 67.3189 5.0683
233 2 0.295969 71.479 5.23993
234 2 3.93749 71.509 5.11676
235 2 8.20772 71.4468 5.31329
236 2 12.1561 71.4669 5.18768
237 2 0.290651 75.6555 5.57406
238 2 4.17581 75.4365 5.19523
239 2 8.1098 75.6299 5.45067
240 2 12.0485 75.6452 5.08378
241 2 0.11236 79.5356 5.40595
242 2 3.99695 79.534 5.48232
243 2 8.06827 79.598 5.50033
244 2 12.191 79.4143 5.41901
245 2 15.8415 83.537 5.44254
246 2 4.12318 83.5909 5.52962
247 2 7.93445 83.5894 5.47022
248 2 11.89 83.4698 5.46123
249 2 0.11358 87.3181 5.40943
250 2 4.13728 87.5415 5.35478
251 2 7.97287 87.4966 5.42728
252 2 11.7239 87.3616 5.33851
253 2 -0.126711 91.1989 5.52602
254 2 3.87016 91.35 5.53779
255 2 8.01854 91.4332 5.49029
256 2 11.8649 91.5039 5.31611
257 2 -0.0819219 95.5225 5.13644
258 2 3.86999 95.3085 5.35207
259 2 7.79563 95.3019 5.2149
260 2 11.9507 95.2337 5.27956
261 2 0.00175678 99.3562 5.0929
262 2 4.03377 99.5689 5.3098
263 2 8.03837 99.1945 5.20444
264 2 11.989 99.2998 5.25695
265 2 15.8088 103.299 5.24287
266 2 4.08178 103.138 5.22493
267 2 8.00827 103.256 5.1451
268 2 11.7483 103.415 5.12866
269 2 0.0893741 107.159 5.00886
270 2 3.96995 107.093 5.1189
271 2 8.08457 107.262 5.27648
272 2 11.9417 107.227 5.3156
273 2 0.100687 111.185 5.14752
274 2 4.0187 110.929 5.1854
275 2 7.78953 111.084 5.22308
276 2 12.0311 111.032 5.22313
277 2 15.9821 115.152 5.22578
278 2 4.05551 114.938 5.05673
279 2 7.86397 114.843 5.14592
280 2 11.8581 114.808 4.97467
281 2 16.0014 118.903 5.05349
282 2 4.03419 118.898 4.94377
283 2 7.96685 118.621 5.12417
284 2 11.9108 118.907 5.17584
285 2 15.7611 122.607 5.03034
286 2 3.9206 122.98 5.13168
287 2 7.75808 122.786 5.00071
288 2 11.816 122.706 5.04708
289 2 0.0787276 126.815 5.02022
290 2 4.06181 126.749 4.95501
291 2 7.99617 126.762 4.92156
292 2 12.0714 126.503 5.00257
293 2 -0.115638 130.585 5.15893
294 2 3.87553 130.628 5.03568
295 2 7.82328 130.692 5.05449
296 2 12.0018 130.454 4.74541
297 2 0.0317502 134.524 4.83642
298 2 3.90382 134.485 4.85856
299 2 7.85131 134.648 4.90611
300 2 12.0796 134.379 4.81392
301 2 15.6971 138.273 4.76636
302 2 3.81158 138.378 4.98329
303 2 7.85934 138.448 4.86486
304 2 11.8964 138.522 4.71547
305 2 -0.212127 142.325 4.92162
306 2 3.82937 142.253 4.993
307 2 7.72462 142.229 4.84439
308 2 11.7831 142.275 4.93927
309 2 15.9633 146.245 4.73151
310 2 3.93046 146.325 4.76874
311 2 7.87317 146.35 4.79814
312 2 11.8424 146.384 4.69719
313 2 0.040697 150.194 4.72731
314 2 3.93972 150.024 4.77605
315 2 7.8928 150.084 4.77234
316 2 11.8743 150.272 4.70713
317 2 15.9362 154.035 4.66206
318 2 3.87961 154.126 4.90493
319 2 7.94122 154.132 4.75882
320 2 11.8766 154.114 4.6977
321 2 15.6361 157.97 8.62132
322 2 4.03802 158.169 8.71392
323 2 7.85828 158.008 8.64878
324 2 11.6754 158.059 8.59266
325 2 15.5803 3.47726 8.48718
326 2 3.85345 3.703 8.76882
327 2 7.81398 3.6138 8.65025
328 2 11.7002 3.57313 8.61545
329 2 -0.328079 7.57902 8.50921
330 2 3.91133 7.55505 8.48812
331 2 7.8528 7.45531 8.60199
332 2 11.9013 7.43731 8.73345
333 2 15.9382 11.2855 8.57902
334 2 3.9552 11.3487 8.57102
335 2 7.84926 11.249 8.51846
336 2 11.9112 11.1845 8.64508
337 2 0.142263 15.2804 8.39486
338 2 4.05467 15.1744 8.78418
339 2 8.14282 15.0684 8.40931
340 2 12.0584 15.2015 8.50549
341 2 -0.0420773 19.2697 8.37805
342 2 4.01991 19.0071 8.27891
343 2 7.97462 19.0466 8.08712
344 2 11.9123 19.0994 8.2991
345 2 0.226084 22.9933 8.29009
346 2 4.06281 23.0425 8.41522
347 2 7.96556 23.0342 8.28905
348 2 11.797 23.0978 8.20172
349 2 15.8144 26.8282 8.47212
350 2 3.9421 27.0989 8.33139
351 2 7.99707 26.8503 8.34149
352 2 11.8958 26.9489 8.3814
353 2 16.0116 31.0999 8.39837
354 2 4.13959 31.1478 8.39973
355 2 8.12424 31.0549 8.49783
356 2 12.075 31.0269 8.48629
357 2 15.7311 34.9614 8.48144
358 2 3.73642 35.0025 8.64126
359 2 8.01415 34.9204 8.6414
360 2 11.9119 35.273 8.57029
361 2 15.8365 39.1261 8.71041
362 2 4.20808 39.0595 8.6455
363 2 7.91153 39.0152 8.6854
364 2 11.9269 39.0087 8.64487
365 2 16.0937 43.1722 8.61262
366 2 4.08684 43.2161 8.61162
367 2 7.96567 43.1357 8.77428
368 2 11.8319 43.1242 8.72119
369 2 -0.0174072 47.1585 8.82281
370 2 3.94838 47.2182 8.75988
371 2 7.81205 47.0741 8.88538
372 2 11.8406 47.1434 8.83819
373 2 0.135432 51.0199 8.78012
374 2 3.97194 51.1606 8.82868
375 2 8.0314 51.2147 8.76215
376 2 11.8463 50.9572 8.86581
377 2 0.0634048 55.0938 8.72696
378 2 4.04626 55.266 8.87131
379 2 8.01566 55.3062 9.08506
380 2 12.0212 55.2983 8.92552
381 2 15.9579 59.2856 9.0328
382 2 4.04731 59.2812 9.20835
383 2 8.05717 59.1884 8.98978
384 2 11.9213 59.2947 9.17355
385 2 0.274643 63.3195 9.01339
386 2 4.10279 63.1552 9.12494
387 2 7.96257 63.5312 9.06551
388 2 12.0213 63.2793 9.10863
389 2 0.0601862 67.33 8.99638
390 2 4.03138 67.1792 9.05642
391 2 7.97054 67.3053 8.99476
392 2 11.9734 67.3072 9.15902
393 2 0.373864 71.3205 9.2467
394 2 4.20187 71.2741 9.18772
395 2 8.07812 71.2399 9.12454
396 2 12.1813 71.4424 9.01291
397 2 0.295297 75.4294 9.32496
398 2 4.17209 75.4177 9.26823
399 2 8.13223 75.2715 9.23831
400 2 12.1695 75.2771 9.21604
401 2 0.139601 79.4776 9.35073
402 2 4.13296 79.4386 9.28109
403 2 8.17844 79.4544 9.22222
404 2 11.9609 79.673 9.32229
405 2 0.264713 83.4427 9.27455
406 2 4.05305 83.6416 9.3422
407 2 7.86194 83.5397 9.44867
408 2 12.0719 83.681 9.43144
409 2 0.145193 87.4015 9.33291
410 2 4.04954 87.6601 9.41791
411 2 7.94262 87.5369 9.38784
412 2 11.9116 87.413 9.50328
413 2 0.071597 91.257 9.31436
414 2 4.01681 91.4889 9.3749
415 2 7.88596 91.482 9.36447
416 2 11.9225 91.3894 9.56288
417 2 0.180827 95.391 9.35467
418 2 3.94611 95.2335 9.44087
419 2 7.79933 95.3709 9.28724
420 2 11.8305 95.2505 9.46496
421 2 15.8881 98.9704 9.16647
422 2 4.1581 99.4308 9.32831
423 2 8.14231 99.1132 9.1931
424 2 11.9224 99.2697 9.28171
425 2 0.0705888 103.171 9.24675
426 2 3.89896 103.065 9.20931
427 2 8.03852 103.203 9.291
428 2 11.9952 102.995 9.19778
429 2 15.9786 107.133 9.15716
430 2 3.89755 107.111 9.28925
431 2 7.90951 107.205 9.2714
432 2 11.9465 107.014 9.12964
433 2 -0.154355 111.009 9.30408
434 2 3.8252 110.977 9.06989
435 2 8.0693 111.046 9.31519
436 2 11.7904 111.021 9.05317
437 2 -0.214604 114.951 9.30431
438 2 4.07991 114.888 9.05917
439 2 8.08437 114.917 9.02362
440 2 11.8461 115.045 9.20292
441 2 0.255282 118.749 9.01559
442 2 4.08902 118.91 9.20063
443 2 7.96385 118.899 9.19267
444 2 12.0372 118.795 9.1635
445 2 15.9015 122.651 9.27613
446 2 4.05753 122.633 9.09909
447 2 8.01819 122.754 9.13229
448 2 11.9202 122.696 9.06019
449 2 -0.0703089 126.689 8.88048
450 2 3.88799 126.593 9.03509
451 2 7.96785 126.658 8.9995
452 2 11.8875 126.671 9.13352
453 2 -0.0938449 130.525 9.09793
454 2 3.8226 130.562 9.13501
455 2 8.05288 130.554 8.85364
456 2 11.6498 130.733 8.83966
457 2 0.143113 134.605 9.02931
458 2 3.90925 134.313 8.95085
459 2 7.93001 134.638 8.80582
460 2 11.7113 134.591 9.11687
461 2 -0.130476 138.622 8.78818
462 2 3.82233 138.408 9.01387
463 2 7.57816 138.447 8.84607
464 2 11.6021 138.474 8.90379
465 2 -0.146894 142.508 8.71869
466 2 3.90247 142.495 8.60091
467 2 7.87193 142.324 8.9548
468 2 11.6819 142.411 8.94706
469 2 15.69 146.173 8.71813
470 2 3.87426 146.306 8.93459
471 2 7.86143 146.125 8.70843
472 2 11.8244 146.094 8.88056
473 2 15.6799 150.29 8.64202
474 2 3.84212 150.189 8.91657
475 2 7.9852 150.136 8.78518
476 2 11.8357 150.135 8.8697
477 2 15.7225 154.256 8.74899
478 2 3.88184 153.994 8.77687
479 2 7.80111 154.058 8.59311
480 2 11.8157 154.176 8.63795
481 2 15.8828 158.1 12.5943
482 2 3.73505 158.054 12.5594
483 2 7.80433 158.016 12.6468
484 2 11.7922 158.017 12.6499
485 2 15.8076 3.66675 12.5156
486 2 3.71353 3.67875 12.7509
487 2 7.77466 3.52917 12.6214
488 2 11.8522 3.5476 12.8293
489 2 -0.0789505 7.49772 12.7021
490 2 3.73971 7.45583 12.8216
491 2 7.79196 7.39943 12.7122
492 2 11.7742 7.3218 12.6745
493 2 15.806 11.3745 12.5433
494 2 3.91337 11.4615 12.6813
495 2 7.86429 11.3777 12.734
496 2 11.7349 11.4944 12.6571
497 2 -0.0850431 15.2128 12.3955
498 2 3.98654 15.277 12.5537
499 2 7.74346 15.1147 12.5546
500 2 11.764 15.3669 12.6872
501 2 15.737 19.3112 12.4972
502 2 4.00228 19.004 12.3447
503 2 8.03008 19.1039 12.2223
504 2 11.8972 19.3859 12.4665
505 2 15.813 23.0614 12.4834
506 2 4.14497 23.039 12.3995
507 2 8.03051 22.969 12.5595
508 2 11.9846 23.2708 12.5185
509 2 15.8589 27.1716 12.4636
510 2 4.09141 27.023 12.3028
511 2 7.92343 26.9614 12.268
512 2 12.0946 27.0082 12.4102
513 2 0.231791 30.9859 12.2934
514 2 4.03703 30.8575 12.2523
515 2 8.06166 30.8823 12.2852
516 2 12.0183 30.8949 12.2694
517 2 15.8817 34.8557 12.4332
518 2 4.05067 35.0013 12.3326
519 2 7.90004 35.0775 12.6119
520 2 12.0341 34.8993 12.4778
521 2 15.8235 39.1772 12.7668
522 2 3.95805 38.9409 12.5355
523 2 7.866 38.9601 12.5433
524 2 11.9436 38.9531 12.5791
525 2 15.9395 42.9325 12.5314
526 2 4.1688 42.9741 12.4996
527 2 8.02426 42.8242 12.7744
528 2 11.9095 42.9635 12.634
529 2 15.9518 46.9934 12.6975
530 2 3.82588 46.9377 12.6635
531 2 7.80403 47.091 12.791
532 2 12.0732 47.17 12.7089
533 2 -0.0346602 50.9841 12.8267
534 2 3.98956 51.1762 12.8192
535 2 7.92716 51.0632 12.669
536 2 11.853 51.0911 12.7372
537 2 -0.0161444 55.1025 12.8382
538 2 4.09913 55.0339 12.8211
539 2 7.97042 55.0856 12.9489
540 2 11.998 54.9799 12.8894
541 2 -0.18329 59.3285 13.0983
542 2 3.97725 59.2832 13.1811
543 2 7.91855 59.1391 13.0011
544 2 11.7715 59.3085 12.9547
545 2 -0.109354 63.124 13.0566
546 2 4.12571 63.1432 13.0766
547 2 8.07166 63.2115 13.0359
548 2 11.7896 63.2046 12.9366
549 2 0.0165953 67.1769 12.8428
550 2 3.96571 67.2179 12.8577
551 2 7.88082 67.2422 13.0972
552 2 12.1072 67.1301 12.963
553 2 0.0312976 71.324 13.1656
554 2 3.87181 71.3082 13.0406
555 2 8.06254 71.4194 12.8631
556 2 11.8964 71.2488 12.9548
557 2 -0.0373625 75.4255 13.0492
558 2 3.9713 75.4219 12.9811
559 2 8.16998 75.4453 13.0735
560 2 11.9094 75.3592 13.2701
561 2 -0.0359944 79.4012 13.1119
562 2 3.98961 79.2237 13.265
563 2 7.88025 79.3498 13.1324
564 2 11.845 79.2996 13.2431
565 2 0.260523 83.4829 13.476
566 2 4.1706 83.235 13.4848
567 2 8.18524 83.4258 13.2058
568 2 12.1273 83.3766 13.118
569 2 0.240371 87.5491 13.3395
570 2 4.10127 87.1622 13.3032
571 2 7.76357 87.461 13.3204
572 2 11.9502 87.3127 13.4291
573 2 0.157577 91.3685 13.3256
574 2 4.00886 91.3908 13.5028
575 2 8.0273 91.5371 13.5824
576 2 11.7665 91.3776 13.3103
577 2 -0.0787408 95.3492 13.4298
578 2 4.01296 95.529 13.4285
579 2 8.05715 95.4615 13.4927
580 2 11.7687 95.2182 13.0942
581 2 0.0396313 99.1868 13.3533
582 2 4.12789 99.3951 13.2474
583 2 7.97938 99.3998 13.3954
584 2 11.9488 99.1679 13.4125
585 2 -0.0306313 103.296 13.3603
586 2 4.10362 103.12 13.22
587 2 8.19032 103.381 13.0703
588 2 12.1151 102.998 13.0452
589 2 15.9441 106.971 13.2244
590 2 4.11921 107.066 13.1217
591 2 7.94822 107.138 13.1879
592 2 12.0733 107.136 13.2474
593 2 -0.131988 110.829 13.1893
594 2 3.83005 111.088 13.2937
595 2 7.70809 111.035 13.0777
596 2 11.8274 111.061 13.2981
597 2 15.908 114.811 13.1814
598 2 3.81001 114.815 13.1503
599 2 7.89818 114.92 13.1482
600 2 11.8048 114.973 13.2363
601 2 15.9242 119.084 13.0991
602 2 3.87926 118.878 13.2818
603 2 7.92839 118.904 13.1208
604 2 11.8905 118.945 13.1961
605 2 0.0183336 122.728 13.1282
606 2 3.95352 122.813 13.1322
607 2 7.96611 122.684 12.9951
608 2 12.0971 122.651 13.0462
609 2 15.8829 126.683 12.7794
610 2 4.07805 126.822 13.0378
611 2 7.96818 126.599 12.844
612 2 12.0778 126.659 13.1112
613 2 15.6823 130.746 12.9213
614 2 4.05688 130.542 12.9764
615 2 7.92722 130.595 13.0862
616 2 11.9049 130.601 12.9833
617 2 0.0600304 134.469 13.0388
618 2 3.9963 134.545 12.9239
619 2 7.77052 134.7 13.2757
620 2 11.7741 134.656 12.9298
621 2 0.0941334 138.435 12.7452
622 2 3.95585 138.324 13.0351
623 2 7.68473 138.469 12.898
624 2 11.7838 138.588 12.9496
625 2 15.6612 142.208 12.8035
626 2 3.87663 142.409 12.7284
627 2 7.87795 142.406 12.9172
628 2 11.7492 142.433 12.8998
629 2 -0.11245 146.222 12.7848
630 2 3.72681 146.254 12.7341
631 2 7.84492 146.284 12.8407
632 2 11.7682 146.25 12.771
633 2 15.6815 150.143 12.5975
634 2 3.86602 150.026 12.6809
635 2 7.98618 150.095 12.7516
636 2 11.9641 150.256 12.9627
637 2 15.8377 154.205 12.7691
638 2 4.15064 154.078 12.7862
639 2 7.97156 154.138 12.7335
640 2 11.8985 154.257 12.6759
641 2 15.8841 157.815 16.8808
642 2 3.92788 158.267 16.6768
643 2 8.02259 157.969 16.7383
644 2 11.7901 158.094 16.7119
645 2 15.6909 3.57725 16.6315
646 2 3.94159 3.63036 16.7628
647 2 7.82152 3.58422 16.704
648 2 11.9714 3.74495 16.837
649 2 0.030095 7.61317 16.7152
650 2 3.93777 7.53529 16.7413
651 2 7.77518 7.6041 16.7034
652 2 11.7994 7.63925 16.6956
653 2 15.8661 11.2973 16.4215
654 2 3.89536 11.3835 16.604
655 2 7.76167 11.3844 16.6932
656 2 11.7218 11.4912 16.5215
657 2 0.090879 15.3981 16.5161
658 2 3.95453 15.4276 16.3905
659 2 7.8249 15.4268 16.6613
660 2 11.8589 15.525 16.6003
661 2 15.7551 19.1989 16.5664
662 2 3.82415 19.2707 16.4264
663 2 7.97675 19.1508 16.5164
664 2 11.9352 19.2951 16.4647
665 2 15.9173 23.3225 16.5045
666 2 4.05292 23.0345 16.6264
667 2 8.17019 23.0741 16.4986
668 2 11.9771 23.2984 16.6415
669 2 0.121157 27.1067 16.5361
670 2 4.09958 26.8263 16.4371
671 2 7.99899 27.0505 16.3288
672 2 11.9334 27.1689 16.3566
673 2 15.8248 30.829 16.3824
674 2 4.09635 30.8143 16.2174
675 2 7.94491 30.7797 16.3294
676 2 11.9081 31.0843 16.1644
677 2 15.9846 34.9054 16.2321
678 2 4.01884 34.8765 16.2705
679 2 8.0116 34.7552 16.4619
680 2 11.6659 34.8822 16.4218
681 2 -0.0195883 39.0162 16.4632
682 2 3.94535 38.6736 16.4181
683 2 7.90409 38.9112 16.4927
684 2 11.8492 39.0023 16.5424
685 2 16.007 42.8941 16.537
686 2 4.09586 42.7915 16.4153
687 2 8.17887 42.9371 16.4541
688 2 12.0726 42.9422 16.6296
689 2 0.215656 47.0146 16.7069
690 2 4.04203 46.8894 16.4701
691 2 8.14155 46.9409 16.5231
692 2 12.087 46.8974 16.7126
693 2 15.7544 50.9931 16.724
694 2 3.84172 51.2127 16.7588
695 2 7.95437 50.8885 16.7641
696 2 11.7855 50.9638 16.8597
697 2 -0.0755084 55.0783 16.754
698 2 3.95846 54.8626 16.7104
699 2 7.84431 55.0118 16.6801
700 2 11.9842 55.0848 16.6581
701 2 -0.0394237 59.1329 16.7492
702 2 4.15425 59.0663 16.8909
703 2 8.01791 59.2034 16.9493
704 2 11.9155 59.0323 16.9095
705 2 0.174821 63.0739 17.0705
706 2 3.8335 63.2621 17.0775
707 2 7.66437 63.3169 16.9307
708 2 11.8509 63.0801 16.9073
709 2 -0.0446543 66.9822 16.7627
710 2 4.05648 67.2278 16.6736
711 2 7.80148 67.2377 16.7962
712 2 11.7651 67.0975 16.806
713 2 0.120082 71.2327 17.0919
714 2 3.84215 71.1736 17.1273
715 2 7.97583 71.1725 17.0671
716 2 11.7807 70.998 16.8857
717 2 -0.021952 75.3331 16.8975
718 2 3.93801 75.4284 16.9702
719 2 8.06268 75.3283 16.8371
720 2 11.991 75.1416 17.0354
721 2 0.051988 79.1426 17.2278
722 2 3.95298 79.4558 17.1202
723 2 7.86643 79.5481 17.3028
724 2 11.709 79.3365 16.9496
725 2 0.0225273 83.3575 17.2334
726 2 3.88811 83.2921 17.2913
727 2 8.15084 83.3081 17.2357
728 2 11.9534 83.4065 17.2483
729 2 0.145527 87.2864 17.2308
730 2 4.12314 87.4107 17.3676
731 2 7.89505 87.1684 17.2967
732 2 11.9872 87.3335 17.3605
733 2 0.122129 91.3548 17.0516
734 2 4.06478 91.3694 17.4155
735 2 8.18439 91.4401 17.2926
736 2 11.9593 91.3126 17.4154
737 2 -0.0779149 95.3816 17.4042
738 2 4.15092 95.3235 17.4177
739 2 7.84229 95.557 17.4681
740 2 11.9686 95.2281 17.4574
741 2 16.0516 99.1828 17.3679
742 2 4.12101 99.3832 17.3699
743 2 8.07147 99.4015 17.31
744 2 12.2054 99.3733 17.4762
745 2 15.8494 103.26 17.315
746 2 3.91792 103.241 17.2916
747 2 8.04334 103.288 17.2877
748 2 12.1163 103.268 17.374
749 2 15.9061 107.006 17.2088
750 2 4.02981 107.047 17.2964
751 2 7.93172 106.972 17.2816
752 2 11.7748 107.257 17.3043
753 2 0.133787 111.013 17.1564
754 2 4.08728 111.094 17.3843
755 2 8.08582 111.087 17.2338
756 2 11.8786 111.136 17.2803
757 2 0.0839972 115.015 17.0521
758 2 3.97142 115.042 17.2181
759 2 8.19597 115.154 17.1825
760 2 12.23 115.066 17.1018
761 2 0.0106893 118.834 17.2162
762 2 3.80055 118.923 17.3933
763 2 7.97998 118.879 17.1052
764 2 11.8697 118.873 17.3576
765 2 -0.0343885 122.856 17.1309
766 2 4.1068 122.707 17.1184
767 2 7.94721 122.723 17.2467
768 2 11.7588 122.993 17.2443
769 2 0.00984202 126.783 16.9922
770 2 3.9743 126.694 17.1459
771 2 7.83184 126.749 17.2534
772 2 11.862 126.766 17.1552
773 2 0.0468776 130.607 16.9522
774 2 3.96597 130.529 16.8644
775 2 7.96911 130.687 17.3248
776 2 11.7881 130.662 17.1008
777 2 -0.191208 134.484 17.0049
778 2 3.92427 134.444 16.8958
779 2 7.99765 134.461 17.0446
780 2 11.8097 134.539 17.1058
781 2 15.7884 138.552 16.9656
782 2 3.6689 138.445 16.8762
783 2 7.76752 138.524 16.9953
784 2 11.6953 138.472 17.0855
785 2 15.5626 142.412 16.8127
786 2 3.79058 142.516 16.8334
787 2 7.8726 142.48 16.8826
788 2 11.7014 142.33 16.9091
789 2 15.6195 146.21 16.7499
790 2 3.90007 146.415 16.7464
791 2 7.71848 146.354 16.9833
792 2 11.8458 146.263 16.799
793 2 15.7621 150.323 16.7358
794 2 3.70019 150.113 16.6142
795 2 7.62111 150.295 16.8153
796 2 11.6525 150.222 16.6996
797 2 -0.0972601 154.177 16.6944
798 2 3.88741 154.19 16.8714
799 2 7.72151 154.036 16.8572
800 2 11.8093 153.924 16.7562
801 2 0.0529706 158.094 20.769
802 2 3.82272 158.023 20.8989
803 2 7.99757 158.252 20.528
804 2 11.8967 157.901 20.8837
805 2 15.7469 3.50707 20.8079
806 2 4.066 3.68373 20.8213
807 2 7.72436 3.67176 20.7658
808 2 11.6747 3.57336 20.7028
809 2 -0.141517 7.67543 20.4843
810 2 3.87717 7.60188 20.7502
811 2 7.83935 7.73954 20.7633
812 2 11.8699 7.53912 20.4823
813 2 15.7401 11.5636 20.6661
814 2 3.87045 11.615 20.7555
815 2 7.87331 11.3664 20.7135
816 2 11.9553 11.574 20.5973
817 2 15.7064 15.3119 20.4308
818 2 3.97867 15.4523 20.5736
819 2 7.74044 15.4223 20.5809
820 2 11.9069 15.2696 20.5687
821 2 15.7889 19.393 20.5428
822 2 3.87943 19.4051 20.4199
823 2 7.95247 19.1331 20.5755
824 2 11.9025 19.2564 20.5836
825 2 15.9112 23.1217 20.55
826 2 3.90798 23.3318 20.5552
827 2 7.769 23.2266 20.3972
828 2 11.8444 23.3249 20.5325
829 2 0.0414306 27.1578 20.5157
830 2 4.07131 27.2201 20.4738
831 2 8.15088 27.0889 20.4244
832 2 11.9699 27.0875 20.4472
833 2 0.21968 30.9301 20.2412
834 2 4.16672 30.9747 20.3279
835 2 7.99984 30.997 20.4252
836 2 12.0371 31.1505 20.3467
837 2 15.8791 35.0085 20.1863
838 2 4.21284 34.8547 20.3262
839 2 8.10914 34.8701 20.4395
840 2 11.9172 34.8798 20.3914
841 2 0.152445 38.9325 20.4281
842 2 3.84843 38.8308 20.4236
843 2 7.94818 38.9386 20.5074
844 2 11.9409 38.8593 20.4174
845 2 -0.177595 42.8395 20.4676
846 2 4.02304 42.906 20.3397
847 2 7.91162 43.0244 20.5202
848 2 11.9981 42.741 20.4743
849 2 0.0288595 46.7399 20.5063
850 2 4.00026 46.7612 20.4758
851 2 8.08229 46.8672 20.3611
852 2 12.0511 46.8234 20.5988
853 2 0.0956351 50.8421 20.5981
854 2 4.09128 50.9338 20.6493
855 2 7.861 50.7985 20.5633
856 2 12.159 50.7624 20.5997
857 2 0.20344 55.129 20.6855
858 2 3.95333 55.0468 20.7125
859 2 7.97946 55.0062 20.3871
860 2 11.9137 54.7651 20.67
861 2 16.0441 58.8902 20.6582
862 2 4.0971 58.8447 20.8732
863 2 7.96453 58.9737 20.838
864 2 11.9953 58.8122 20.6614
865 2 15.9897 62.9285 20.8032
866 2 3.91274 63.025 20.781
867 2 7.8906 63.0507 20.8683
868 2 12.0002 62.9317 20.7861
869 2 0.0394837 67.0915 20.78
870 2 4.06686 67.1744 20.788
871 2 7.83585 67.0089 20.8324
872 2 11.9292 67.0637 20.9026
873 2 0.0154238 71.0728 20.881
874 2 4.03206 71.1572 20.6932
875 2 7.85539 71.3091 20.9005
876 2 11.927 71.1308 20.7792
877 2 0.152794 75.1513 20.9557
878 2 3.9121 75.1742 20.7977
879 2 8.03846 75.2278 20.892
880 2 11.8449 75.127 20.8344
881 2 0.209437 79.3474 21.0249
882 2 4.30609 79.4649 21.154
883 2 8.25024 79.3865 20.9498
884 2 12.072 79.1485 20.9694
885 2 0.111303 83.1018 21.2025
886 2 4.05605 83.2226 21.0975
887 2 8.05675 83.2622 21.0212
888 2 12.1434 83.3817 21.2632
889 2 0.181105 87.3579 21.2324
890 2 4.0121 87.4319 20.9578
891 2 7.97316 87.3397 21.1016
892 2 12.0349 87.1809 21.3625
893 2 0.143867 91.4116 21.1126
894 2 4.15974 91.2924 20.9625
895 2 8.23505 91.4891 21.1684
896 2 12.1296 91.2617 21.2216
897 2 15.9319 95.3024 21.2051
898 2 4.11496 95.2805 21.1673
899 2 8.06528 95.5514 21.3541
900 2 11.8468 95.0363 21.3514
901 2 0.123805 99.2608 21.4926
902 2 4.11195 99.3008 21.3518
903 2 8.15404 99.3688 21.1785
904 2 11.904 99.3905 21.2647
905 2 15.8709 103.143 21.3906
906 2 4.16932 103.202 21.3501
907 2 8.06281 103.441 21.4118
908 2 11.9931 103.421 21.4194
909 2 0.0677005 107.14 21.3744
910 2 4.05412 107.271 21.387
911 2 7.71905 107.404 21.182
912 2 11.9775 107.254 21.411
913 2 15.8269 111.122 21.2881
914 2 4.00459 111.333 21.2849
915 2 8.06616 111.237 21.2509
916 2 11.9468 111.259 21.2517
917 2 -0.00019141 115.101 21.3679
918 2 3.90183 114.984 21.3001
919 2 8.14341 115.086 21.1371
920 2 11.9503 115.058 21.1883
921 2 0.036053 118.917 21.232
922 2 3.84571 118.953 21.3174
923 2 7.9202 118.998 21.2936
924 2 11.8964 118.871 21.0848
925 2 0.159017 122.915 21.2676
926 2 4.1549 122.901 21.187
927 2 8.02957 122.921 21.202
928 2 11.9149 122.982 21.3235
929 2 0.0631137 126.755 21.1649
930 2 4.0085 126.703 20.9813
931 2 7.85477 126.848 21.282
932 2 12.0621 126.875 21.2558
933 2 0.0686323 130.713 21.1925
934 2 3.83618 130.699 20.97
935 2 7.8617 130.869 21.2526
936 2 12.0696 130.846 21.1284
937 2 15.8652 134.695 20.9679
938 2 3.91156 134.681 21.0184
939 2 7.86637 134.501 21.0453
940 2 11.8797 134.78 21.0571
941 2 15.7912 138.509 20.9521
942 2 3.8876 138.5 21.0976
943 2 7.85568 138.459 21.1911
944 2 11.843 138.629 21.2047
945 2 15.9192 142.422 20.8531
946 2 3.89054 142.545 20.7467
947 2 7.82477 142.258 20.7743
948 2 11.9532 142.43 21.0163
949 2 -0.0394605 146.353 20.7903
950 2 3.87297 146.219 20.8659
951 2 7.78955 146.187 20.7326
952 2 11.951 146.381 20.7883
953 2 15.7743 150.302 20.9495
954 2 3.83889 150.38 20.77
955 2 7.7779 150.093 20.7586
956 2 11.8108 150.106 20.9613
957 2 -0.0728422 154.084 20.7726
958 2 3.97627 154.3 20.8409
959 2 8.02602 154.151 20.796
960 2 11.8422 154.009 20.7538
961 2 -0.120965 158.111 24.8365
962 2 3.91509 158.183 24.8011
963 2 7.93535 157.96 24.6411
964 2 11.824 158.278 24.892
965 2 15.6647 3.66409 24.8596
966 2 4.03085 3.64186 24.6418
967 2 8.01019 3.57418 24.6267
968 2 11.9243 3.74114 24.8889
969 2 -0.0714928 7.44318 24.7007
970 2 3.8149 7.5548 24.6827
971 2 8.02765 7.6108 24.5504
972 2 11.8514 7.47258 24.5177
973 2 0.00874563 11.5533 24.6746
974 2 4.11584 11.4051 24.8108
975 2 7.83676 11.644 24.7843
976 2 11.9423 11.6847 24.6634
977 2 0.0759671 15.4705 24.5411
978 2 4.0756 15.4118 24.5209
979 2 7.8583 15.4784 24.5186
980 2 11.873 15.4195 24.7599
981 2 15.784 19.4287 24.4847
982 2 3.79894 19.3437 24.6086
983 2 7.915 19.3083 24.5045
984 2 11.9177 19.228 24.5055
985 2 -0.00411282 23.3508 24.481
986 2 3.89472 23.4037 24.4823
987 2 7.84856 23.164 24.3131
988 2 11.6928 23.117 24.5527
989 2 0.0538993 27.089 24.4354
990 2 4.01399 27.2209 24.5105
991 2 7.98613 27.0061 24.4452
992 2 11.8805 27.1728 24.5297
993 2 -0.0603635 30.9817 24.3833