ITEM: TIMESTEP
19000
ITEM: NUMBER OF ATOMS
32000
ITEM: BOX BOUNDS xy xz yz pp pp pp
0.0000000000000000e+00 1.5832000000000001e+01 0.0000000000000000e+00
0.0000000000000000e+00 1.5831999999999999e+02 0.0000000000000000e+00
8.3550295689214238e-01 1.6014161504310505e+02 0.0000000000000000e+00
ITEM: ATOMS id type x y z
1 2 0.0274239 157.942 159.819
2 2 3.91457 158.004 159.973
3 2 7.83992 157.705 159.806
4 2 11.9531 157.811 160.041
5 2 15.7666 3.29952 159.919
6 2 3.84199 3.64974 159.886
7 2 7.93952 3.341 159.939
8 2 11.9829 3.24734 159.792
9 2 -0.0298491 7.60866 159.938
10 2 3.96732 7.35681 159.896
11 2 7.86635 7.33203 159.883
12 2 12.069 7.52814 159.904
13 2 0.141732 11.2039 159.724
14 2 4.09752 11.2376 159.729
15 2 8.07873 11.1177 159.726
16 2 12.0518 11.1462 159.811
17 2 15.7577 15.1067 159.843
18 2 3.90164 15.0635 159.863
19 2 8.12861 15.1756 159.767
20 2 11.9141 15.1738 159.68
21 2 0.0246194 19.04 159.723
22 2 4.0072 19.1486 159.793
23 2 7.95286 19.0413 159.753
24 2 11.848 18.9513 159.725
25 2 15.9602 23 0.390769
26 2 3.92467 23.1074 159.902
27 2 7.92829 23.07 159.779
28 2 11.8384 23.307 159.935
29 2 15.9295 27.1725 159.928
30 2 4.06263 27.1394 159.774
31 2 7.99878 27.1642 159.741
32 2 11.8445 27.0177 160.032
33 2 15.9926 31.0881 159.938
34 2 4.00761 31.2177 159.666
35 2 7.92996 31.0793 160.066
36 2 12.1177 31.1476 0.666594
37 2 15.7991 35.1875 159.994
38 2 3.97833 35.1139 0.759612
39 2 7.88368 35.1998 160.201
40 2 11.8365 35.298 0.782718
41 2 0.0809627 39.2596 160.379
42 2 3.97091 39.2218 0.731325
43 2 8.04579 39.1397 0.736297
44 2 11.9217 39.1636 159.896
45 2 0.0714128 43.2579 1.06706
46 2 4.29348 43.3067 1.00606
47 2 8.05241 43.1766 0.848134
48 2 11.9628 43.0553 0.934062
49 2 15.8337 47.3752 0.877227
50 2 4.0488 47.3709 0.863411
51 2 8.06448 47.3195 1.10806
52 2 12.0339 47.2244 0.840745
53 2 0.0996995 51.458 0.930555
54 2 4.1978 51.5021 1.05388
55 2 8.30764 51.4602 0.851696
56 2 11.9777 51.5146 160.348
57 2 0.303302 55.4698 1.07871
58 2 4.1296 55.4794 1.03925
59 2 8.00948 55.297 1.03215
60 2 11.8458 55.379 1.03902
61 2 0.0522091 59.5408 1.15108
62 2 3.95971 59.4855 1.43053
63 2 8.02265 59.4732 1.23698
64 2 11.984 59.4189 0.956398
65 2 0.0691085 63.3642 1.27317
66 2 4.15896 63.3869 1.32374
67 2 8.01278 63.5741 1.27938
68 2 11.9795 63.3945 1.22565
69 2 0.322704 67.3192 1.07546
70 2 4.17538 67.5439 1.23332
71 2 8.04283 67.3341 1.21923
72 2 11.9187 67.3027 1.30466
73 2 15.8799 71.3147 1.24022
74 2 4.21441 71.4386 1.13652
75 2 8.09468 71.434 1.22462
76 2 11.8881 71.6083 1.35791
77 2 0.0200487 75.5625 1.41903
78 2 3.92479 75.6523 1.48641
79 2 7.95266 75.7124 1.58617
80 2 12.0095 75.5757 1.57766
81 2 -0.00786162 79.428 1.51538
82 2 4.0771 79.6703 1.51646
83 2 8.16664 79.5895 1.5709
84 2 11.9557 79.4735 1.41601
85 2 -0.15728 83.6384 1.4541
86 2 4.08604 83.3897 1.59664
87 2 7.93161 83.5768 1.27639
88 2 12.0546 83.5814 1.58783
89 2 -0.0530744 87.4816 1.4284
90 2 3.9268 87.4264 1.39072
91 2 7.80065 87.4709 1.3961
92 2 11.6738 87.459 1.51531
93 2 -0.190773 91.4963 1.24238
94 2 3.83904 91.5352 1.28624
95 2 7.92845 91.3959 1.2504
96 2 12.0144 91.402 1.42313
97 2 0.10639 95.4981 1.27742
98 2 3.88504 95.4617 1.45715
99 2 7.74238 95.2304 1.42478
100 2 11.955 95.4224 1.38818
101 2 -0.0120698 99.1611 1.20298
102 2 4.21242 99.3657 1.2177
103 2 7.90328 99.1523 1.41581
104 2 11.7427 99.4435 1.31235
105 2 15.8707 103.041 1.22573
106 2 4.03736 103.158 1.1672
107 2 8.07068 103.196 1.11461
108 2 11.8813 103.315 1.15752
109 2 15.8415 107.048 1.09206
110 2 3.93311 107.069 1.20541
111 2 7.94695 107.019 1.16114
112 2 11.7956 107.019 1.2646
113 2 -0.0647995 111.025 1.21285
114 2 3.87333 111.1 1.06515
115 2 7.88407 110.989 1.1238
116 2 12.0162 111.077 1.09229
117 2 0.113319 115.05 0.981338
118 2 3.81086 115.038 1.15522
119 2 8.04758 114.979 1.06978
120 2 11.8549 114.835 1.20961
121 2 15.8304 118.844 1.10904
122 2 3.9424 118.765 1.25998
123 2 7.91345 118.806 1.00225
124 2 11.8292 118.82 160.38
125 2 0.0762723 122.634 0.940985
126 2 4.07343 122.735 0.860919
127 2 7.95703 122.73 1.17624
128 2 11.7315 122.683 1.03294
129 2 -0.115449 126.805 160.288
130 2 4.02823 126.64 160.221
131 2 7.88279 126.756 0.891
132 2 11.7334 126.576 1.02648
133 2 0.102485 130.525 160.164
134 2 4.04216 130.529 160.222
135 2 8.05287 130.463 0.855085
136 2 11.8863 130.479 160.249
137 2 0.153491 134.644 159.986
138 2 3.85131 134.433 160.104
139 2 8.00784 134.515 0.923169
140 2 11.8757 134.381 160.177
141 2 -0.0303052 138.484 160.088
142 2 4.07051 138.41 160.202
143 2 7.99325 138.326 160.168
144 2 11.8807 138.419 0.647124
145 2 16.1864 142.341 160.052
146 2 4.10377 142.305 160.024
147 2 8.07319 142.388 160.046
148 2 11.8232 142.256 160.061
149 2 -0.0178287 146.128 159.994
150 2 4.07769 146.19 160.069
151 2 7.81608 146.31 160.029
152 2 12.0401 146.411 160.083
153 2 15.8061 150.092 160.078
154 2 4.08746 150.177 160.002
155 2 7.86674 150.115 160.062
156 2 11.6212 150.296 159.933
157 2 15.8834 154.052 159.817
158 2 3.83347 154.059 159.916
159 2 7.78098 153.967 160.058
160 2 11.8244 154.022 159.994
161 2 15.8882 158.032 4.71895
162 2 3.96339 157.797 4.56422
163 2 7.87857 157.877 4.6913
164 2 11.7426 157.912 4.80713
165 2 15.6672 3.58682 4.77013
166 2 3.93283 3.42866 4.67998
167 2 7.7473 3.36636 4.5698
168 2 11.5699 3.59005 4.68155
169 2 15.736 7.44188 4.74493
170 2 3.91234 7.41103 4.76482
171 2 7.98679 7.33466 4.48629
172 2 12.0367 7.40105 4.54725
173 2 15.8607 11.2655 4.45981
174 2 4.0351 11.4284 4.61511
175 2 7.87958 11.4349 4.51244
176 2 12.077 11.3548 4.6373
177 2 16.0406 15.3813 4.4356
178 2 4.05364 15.2741 4.43694
179 2 8.01524 15.04 4.52473
180 2 12.0869 15.0201 4.24268
181 2 -0.19885 19.0597 4.44113
182 2 3.85376 19.2391 4.32947
183 2 8.05676 18.9827 4.50917
184 2 11.8249 19.2866 4.49061
185 2 16.0094 23.1019 4.34108
186 2 3.98982 23.2213 4.47991
187 2 7.93532 22.9807 4.42565
188 2 11.6385 22.993 4.40052
189 2 16.1183 27.11 4.48425
190 2 4.16266 26.9311 4.55261
191 2 8.103 27.1236 4.54048
192 2 11.9144 27.1442 4.45094
193 2 15.7745 30.973 4.53137
194 2 4.04812 31.0567 4.34251
195 2 8.03773 31.1643 4.74238
196 2 12.1495 31.3102 4.44819
197 2 -0.0958471 35.1794 4.76001
198 2 3.9266 35.1665 4.67709
199 2 7.81875 35.0448 4.65876
200 2 11.9781 35.2845 4.73416
201 2 0.207805 39.0622 4.89029
202 2 4.21452 39.2306 4.92912
203 2 7.86029 39.1794 4.85273
204 2 11.8862 39.0597 4.62094
205 2 0.0836031 43.0836 4.78293
206 2 4.05322 43.1861 4.98694
207 2 8.16012 43.3588 4.67525
208 2 12.0371 43.3278 4.75639
209 2 16.0146 47.3799 4.89049
210 2 4.01489 47.5496 4.72907
211 2 8.05714 47.3009 4.92129
212 2 11.9962 47.3311 4.84617
213 2 0.139645 51.342 4.92838
214 2 4.06532 51.387 4.8862
215 2 7.99557 51.4598 5.15341
216 2 12.3109 51.4021 5.0063
217 2 -0.0710573 55.6218 4.96027
218 2 4.18051 55.2673 5.00325
219 2 8.06666 55.4074 5.00501
220 2 11.9409 55.3123 5.02182
221 2 0.15089 59.2768 5.10709
222 2 4.01495 59.3952 4.97117
223 2 7.8118 59.3021 5.16691
224 2 11.8734 59.2844 5.09465
225 2 0.202411 63.3864 5.13049
226 2 4.09339 63.4404 5.19976
227 2 8.19217 63.3856 5.18602
228 2 11.9316 63.3744 5.15099
229 2 0.152186 67.4517 4.88269
230 2 4.02017 67.4815 5.04545
231 2 8.01628 67.3085 5.16906
232 2 12.1763 67.426 5.23484
233 2 0.0646262 71.2793 5.18326
234 2 4.3479 71.4506 5.00453
235 2 7.87419 71.346 5.27056
236 2 11.9386 71.5244 5.13173
237 2 0.170282 75.3565 5.24929
238 2 4.0194 75.4484 5.30763
239 2 7.91752 75.5537 5.43287
240 2 11.9172 75.3314 5.41039
241 2 0.140137 79.3634 5.34713
242 2 3.95167 79.5337 5.25086
243 2 7.96166 79.461 5.45931
244 2 12.0804 79.6222 5.44288
245 2 16.0053 83.5014 5.32364
246 2 4.04985 83.5026 5.38727
247 2 8.03954 83.5176 5.41392
248 2 12.0945 83.4349 5.40254
249 2 0.0378888 87.5778 5.49879
250 2 3.98151 87.4976 5.57501
251 2 7.92101 87.5235 5.55894
252 2 11.8813 87.6437 5.54858
253 2 0.147246 91.4228 5.2364
254 2 4.10626 91.4792 5.23568
255 2 7.68333 91.3649 5.26427
256 2 11.7482 91.3725 5.45801
257 2 0.187733 95.2629 5.29701
258 2 3.87819 95.2856 5.31672
259 2 8.05757 95.3729 5.40656
260 2 11.8641 95.3182 5.46643
261 2 -0.0624564 99.3075 5.42995
262 2 3.91289 99.0183 5.18104
263 2 7.82649 99.1974 5.39144
264 2 11.7842 99.1591 5.28095
265 2 15.7722 103.14 5.20908
266 2 3.84176 103.11 5.33005
267 2 7.82819 103.152 5.38927
268 2 11.8604 103.129 5.31082
269 2 0.0367264 107.24 5.18622
270 2 4.03633 106.949 5.15101
271 2 7.89337 107.109 5.00607
272 2 11.9468 107.042 5.14536
273 2 -0.00262414 110.944 5.13807
274 2 3.90523 111.062 5.13279
275 2 8.095 110.969 5.09421
276 2 12.0101 110.79 5.02857
277 2 15.7102 114.82 5.13793
278 2 3.83479 114.906 5.31172
279 2 7.79563 115.017 5.05199
280 2 11.8356 114.883 5.23648
281 2 15.6389 118.853 5.15662
282 2 3.84893 118.882 5.25584
283 2 7.89084 118.917 5.03386
284 2 11.924 118.815 5.09398
285 2 15.9574 122.992 4.96541
286 2 4.05396 122.648 5.00667
287 2 8.09727 122.782 5.16136
288 2 12.0235 122.752 5.18679
289 2 -0.052875 126.533 5.02424
290 2 4.08681 126.603 4.92161
291 2 8.07668 126.726 5.03324
292 2 11.9417 126.623 4.94178
293 2 0.082581 130.548 4.83641
294 2 4.02969 130.662 4.95605
295 2 7.98379 130.467 4.9608
296 2 11.669 130.665 5.04906
297 2 0.111101 134.701 4.74413
298 2 4.15555 134.544 4.87102
299 2 8.07413 134.383 5.02428
300 2 11.9581 134.46 4.79553
301 2 15.6111 138.498 4.80216
302 2 3.94553 138.374 4.81832
303 2 7.81869 138.199 4.99394
304 2 11.7809 138.253 4.81821
305 2 0.0141881 142.309 4.73946
306 2 3.98607 142.224 4.72435
307 2 7.91429 142.305 4.9024
308 2 11.5597 142.356 4.70552
309 2 15.8676 146.289 4.74634
310 2 4.02872 146.189 4.84772
311 2 7.91563 146.201 4.75402
312 2 11.8642 146.19 4.91231
313 2 -0.0505773 149.926 4.73876
314 2 3.98949 150.324 4.69408
315 2 7.80247 150.091 4.77531
316 2 11.9012 150.201 4.72626
317 2 15.6957 153.989 4.73309
318 2 3.89977 153.952 4.64475
319 2 7.80516 153.936 4.73437
320 2 11.6466 154.05 4.58904
321 2 15.7718 158.096 8.62399
322 2 3.72704 157.802 8.61151
323 2 7.83434 158.054 8.79906
324 2 11.9408 157.978 8.89707
325 2 15.8163 3.52029 8.64502
326 2 3.86851 3.44649 8.61273
327 2 7.85274 3.6126 8.76514
328 2 11.8823 3.57826 8.68451
329 2 0.0151268 7.4289 8.67846
330 2 3.7254 7.53968 8.7529
331 2 7.61717 7.56521 8.62634
332 2 11.6099 7.4303 8.53618
333 2 15.67 11.5151 8.6095
334 2 3.81993 11.3615 8.71334
335 2 7.83439 11.3165 8.63531
336 2 11.7936 11.3773 8.42428
337 2 0.0924182 15.359 8.50039
338 2 3.987 15.3676 8.37762
339 2 8.0477 15.242 8.58225
340 2 12.01 15.3845 8.43713
341 2 0.0255361 19.1013 8.38098
342 2 4.07298 19.2627 8.64446
343 2 8.01443 19.027 8.62729
344 2 11.8847 19.1993 8.60589
345 2 0.146233 23.3617 8.6113
346 2 3.92406 23.0603 8.51597
347 2 7.98453 22.9855 8.45517
348 2 12.0089 22.9645 8.39545
349 2 15.8903 27.2539 8.37257
350 2 4.20135 26.8558 8.46954
351 2 8.17942 27.0721 8.38329
352 2 12.1492 26.9817 8.40387
353 2 15.6477 30.9552 8.49329
354 2 3.89989 30.8807 8.38848
355 2 7.87088 30.8438 8.39866
356 2 11.7777 31.003 8.42462
357 2 15.8831 35.1624 8.77448
358 2 4.01523 35.0348 8.46255
359 2 7.89865 34.9661 8.55963
360 2 11.9173 35.036 8.67197
361 2 15.8688 39.0577 8.73586
362 2 3.87778 39.0742 8.75724
363 2 8.01916 39.0113 8.56149
364 2 11.8221 39.2136 8.44281
365 2 15.8657 43.0589 8.81229
366 2 4.07378 43.0622 8.84698
367 2 8.03886 43.1389 8.65668
368 2 12.1143 43.1361 8.64387
369 2 0.0108958 47.1335 8.79971
370 2 3.90321 47.1123 8.71278
371 2 7.85551 47.2625 8.7096
372 2 11.9959 47.1432 8.73288
373 2 0.164419 51.3341 8.80588
374 2 4.1203 51.2104 8.80151
375 2 7.92347 51.1173 8.9876
376 2 12.045 51.4274 8.85656
377 2 0.056574 55.3705 9.04605
378 2 4.06701 55.1951 9.00392
379 2 7.92341 55.2218 8.93579
380 2 11.925 55.1995 8.94621
381 2 15.6972 59.1952 9.12572
382 2 3.79483 59.1816 8.89285
383 2 7.82207 59.1849 9.08171
384 2 11.9193 59.2826 8.94339
385 2 -0.201543 63.1912 9.11843
386 2 3.97948 63.3188 9.09877
387 2 7.90219 63.3015 9.11756
388 2 11.8437 63.2881 8.88942
389 2 0.0826847 67.4439 9.019
390 2 3.8955 67.3277 9.17338
391 2 7.86197 67.4787 9.07381
392 2 11.8844 67.2425 9.21401
393 2 0.0132879 71.3174 9.0109
394 2 4.10812 71.4304 8.9817
395 2 8.11496 71.441 9.08454
396 2 11.9468 71.2548 9.03169
397 2 0.00576149 75.3182 9.10667
398 2 4.05562 75.3232 9.12046
399 2 8.07264 75.5289 9.20562
400 2 11.8738 75.5018 9.11762
401 2 0.171811 79.454 9.41595
402 2 4.19607 79.5123 9.48942
403 2 7.97107 79.3593 9.31948
404 2 12.1163 79.4798 9.402
405 2 0.163907 83.4959 9.4595
406 2 4.11271 83.1517 9.46279
407 2 8.23433 83.3087 9.17382
408 2 11.9789 83.3037 9.451
409 2 0.0685084 87.373 9.38102
410 2 4.02065 87.3842 9.53037
411 2 8.04905 87.4126 9.60719
412 2 12.0148 87.4683 9.41826
413 2 -0.0440183 91.391 9.46582
414 2 4.01372 91.5364 9.46295
415 2 8.01335 91.3905 9.5366
416 2 11.9613 91.478 9.23692
417 2 0.185396 95.3401 9.30655
418 2 4.07389 95.4625 9.34775
419 2 8.19054 95.3518 9.38802
420 2 12.298 95.3839 9.17926
421 2 16.0287 99.5276 9.40149
422 2 3.99623 99.2006 9.26218
423 2 7.80663 99.3039 9.40281
424 2 12.0405 99.1146 9.3709
425 2 -0.0752439 103.269 9.24553
426 2 4.03524 103.315 9.16589
427 2 7.96371 103.238 9.19771
428 2 11.7757 103.122 9.17279
429 2 15.758 107.095 9.32837
430 2 3.93278 107.173 9.12596
431 2 7.90976 107.106 9.1189
432 2 11.9526 107.182 9.3661
433 2 0.0930207 111.266 9.09646
434 2 4.24635 110.891 9.15784
435 2 7.86261 111.072 9.04918
436 2 11.9703 111.116 9.29618
437 2 0.176819 114.947 9.24275
438 2 3.89961 115.025 9.24898
439 2 7.90066 114.828 9.23819
440 2 11.9333 114.965 9.2276
441 2 0.0400777 118.946 9.18248
442 2 4.12097 118.795 9.16744
443 2 7.98985 118.702 9.05175
444 2 11.8866 118.89 9.15422
445 2 15.926 122.813 9.01043
446 2 4.08806 122.82 9.1777
447 2 7.93999 122.695 9.06169
448 2 11.8949 122.783 9.14342
449 2 0.239721 126.665 9.12212
450 2 4.22336 126.808 9.01535
451 2 7.96531 126.667 9.09925
452 2 11.8829 126.718 8.97388
453 2 -0.111359 130.549 8.76307
454 2 4.03457 130.525 8.84458
455 2 7.80244 130.767 9.14804
456 2 12.0258 130.637 9.18679
457 2 -0.103663 134.462 8.74732
458 2 3.88929 134.573 8.93721
459 2 7.89302 134.65 9.09156
460 2 12.0409 134.559 8.86812
461 2 -0.117308 138.325 8.91495
462 2 3.78312 138.656 8.76324
463 2 8.02842 138.499 9.09236
464 2 11.8972 138.314 8.89296
465 2 -0.203738 142.248 8.86793
466 2 3.74402 142.462 9.05052
467 2 7.75617 142.493 8.87347
468 2 11.6827 142.27 8.76891
469 2 15.6896 146.227 8.8138
470 2 3.80412 146.208 8.83198
471 2 7.82331 146.443 8.91673
472 2 11.8158 146.372 8.77771
473 2 15.6053 150.148 8.84018
474 2 3.88607 150.05 8.66912
475 2 7.89068 150.137 8.81193
476 2 11.8142 150.308 8.72259
477 2 15.736 154.111 8.71004
478 2 3.84534 153.955 8.70029
479 2 7.86877 154.039 8.87715
480 2 11.8179 154.103 8.70718
481 2 15.8051 158.033 12.8421
482 2 3.96576 158.01 12.8712
483 2 7.7633 157.991 12.7486
484 2 11.73 158.061 12.8029
485 2 15.8869 3.62383 12.8959
486 2 4.13846 3.4228 12.7295
487 2 7.96463 3.65866 12.8846
488 2 11.9004 3.60662 12.6305
489 2 -0.0771012 7.53826 12.5825
490 2 3.98411 7.29192 12.4418
491 2 7.9743 7.47696 12.5894
492 2 11.8374 7.71618 12.5589
493 2 15.6532 11.5336 12.5423
494 2 3.82757 11.3602 12.5506
495 2 7.75634 11.4192 12.6452
496 2 11.717 11.337 12.6958
497 2 -0.107176 15.4235 12.6497
498 2 3.74317 15.5081 12.4811
499 2 7.99304 15.4136 12.5662
500 2 11.9068 15.1992 12.4615
501 2 15.9133 19.357 12.4861
502 2 4.02939 19.3458 12.4913
503 2 8.06129 19.3564 12.5137
504 2 11.9268 19.0943 12.4373
505 2 15.9787 23.2493 12.3085
506 2 4.09849 23.0985 12.4078
507 2 8.00249 23.317 12.3732
508 2 11.9674 22.8726 12.3268
509 2 16.0603 27.163 12.3231
510 2 4.08151 26.9535 12.5303
511 2 8.20479 26.9075 12.4624
512 2 11.8735 26.9347 12.3394
513 2 -0.00382054 31.0029 12.4766
514 2 4.05187 30.8725 12.3283
515 2 7.86622 30.8974 12.3724
516 2 11.8294 31.16 12.5841
517 2 15.8091 35.062 12.4845
518 2 4.03047 34.742 12.5611
519 2 7.98693 34.7496 12.501
520 2 11.8546 35.0347 12.5985
521 2 15.919 38.8564 12.5016
522 2 4.14813 39.0007 12.616
523 2 8.04957 38.8853 12.4876
524 2 11.8023 38.9738 12.4508
525 2 15.885 42.9823 12.6201
526 2 3.90762 43.0699 12.8088
527 2 7.93768 43.1225 12.4299
528 2 11.8321 42.9759 12.7242
529 2 15.7624 47.0764 12.6683
530 2 4.19024 47.2258 12.7398
531 2 8.04232 46.9192 12.6201
532 2 11.8541 46.888 12.5382
533 2 0.00695336 51.0598 12.7662
534 2 3.89303 51.1375 12.6595
535 2 7.98137 51.0372 12.7934
536 2 11.9513 50.9598 12.8763
537 2 0.111088 55.0201 12.7799
538 2 4.00293 55.1615 12.8964
539 2 8.07551 55.2045 12.8809
540 2 11.8688 55.0906 12.774
541 2 0.0407653 58.9876 12.9153
542 2 3.96975 59.0211 12.9177
543 2 7.79852 59.1505 13.0637
544 2 11.8837 58.9677 13.0085
545 2 0.114783 63.2078 12.8962
546 2 3.84395 63.1487 12.9033
547 2 7.78892 63.1681 12.7908
548 2 11.8395 63.0976 13.0493
549 2 -0.00305148 67.2785 13.2323
550 2 3.8765 67.2112 13.1502
551 2 7.89397 67.3496 12.9197
552 2 11.7828 67.242 13.1804
553 2 0.0517252 71.229 12.8811
554 2 4.02829 71.3355 13.0946
555 2 7.88207 71.2671 13.025
556 2 11.955 71.2133 12.9424
557 2 0.145207 75.1596 13.2151
558 2 4.15945 75.1991 13.2724
559 2 7.95907 75.1852 13.065
560 2 12.1086 75.1803 13.0948
561 2 0.145406 79.1988 13.257
562 2 4.03975 79.4345 13.2179
563 2 7.96263 79.376 13.1838
564 2 12.0019 79.504 13.1839
565 2 -0.0846464 83.2811 13.3359
566 2 3.88904 83.411 13.369
567 2 8.03341 83.399 13.4915
568 2 12.0044 83.444 13.5483
569 2 -0.0259941 87.2017 13.3527
570 2 4.04039 87.4828 13.3666
571 2 8.05375 87.3011 13.359
572 2 11.9545 87.4868 13.2806
573 2 0.257128 91.2947 13.3654
574 2 4.2476 91.4869 13.2652
575 2 8.13306 91.3213 13.2649
576 2 12.2476 91.4082 13.4076
577 2 0.224378 95.3426 13.477
578 2 4.15281 95.3372 13.3978
579 2 8.00523 95.3277 13.3698
580 2 12.2 95.4027 13.5087
581 2 0.0964239 99.2609 13.3902
582 2 3.98849 99.1846 13.496
583 2 8.23097 99.2094 13.2254
584 2 11.9675 99.3946 13.3451
585 2 0.227626 103.092 13.1394
586 2 4.0828 103.033 13.1204
587 2 7.98228 103.188 13.3653
588 2 11.9572 103.238 13.3981
589 2 15.9283 107.114 13.185
590 2 4.0941 107.065 13.2994
591 2 8.0868 106.974 13.1769
592 2 11.8375 107.331 13.2204
593 2 0.256747 111.204 13.2204
594 2 4.13243 110.906 13.2256
595 2 7.98688 111.142 13.3087
596 2 11.8461 111.017 13.1161
597 2 15.8404 115.046 13.2391
598 2 4.00894 115.028 13.2625
599 2 7.78 115.018 13.2845
600 2 11.9347 115.066 13.2749
601 2 15.8882 118.856 13.2376
602 2 4.11576 118.904 13.1428
603 2 8.00549 118.919 13.2809
604 2 11.9816 118.97 13.2648
605 2 0.140688 123.059 13.1215
606 2 4.08183 122.844 13.1416
607 2 8.04169 122.901 13.2699
608 2 11.9369 122.993 13.0191
609 2 15.8013 126.799 13.3117
610 2 3.91998 126.692 13.0654
611 2 7.9161 126.899 13.3415
612 2 11.7158 126.745 13.0802
613 2 15.8877 130.638 12.9881
614 2 3.99348 130.731 12.9349
615 2 7.97158 130.882 12.9728
616 2 11.7612 130.751 12.9757
617 2 0.0587129 134.646 12.8377
618 2 4.02646 134.493 13.0149
619 2 8.00933 134.598 12.7708
620 2 12.0586 134.59 13.103
621 2 -0.198423 138.501 13.0902
622 2 3.73502 138.571 12.8134
623 2 7.69573 138.57 12.9941
624 2 11.7657 138.271 13.0643
625 2 15.7117 142.35 12.9315
626 2 3.81727 142.34 13.0453
627 2 7.75822 142.479 12.9454
628 2 11.7497 142.177 12.8123
629 2 -0.24891 146.231 12.8619
630 2 3.8581 146.455 12.8968
631 2 7.69872 146.318 12.8671
632 2 11.7683 146.317 13.0059
633 2 15.7152 150.494 12.8373
634 2 3.62064 150.339 12.7255
635 2 7.77984 150.353 12.8572
636 2 11.5334 150.111 12.6742
637 2 15.9033 154.198 12.7468
638 2 3.9002 154.139 12.7283
639 2 7.82852 154.127 12.7645
640 2 11.7835 154.017 12.7915
641 2 15.5001 158.089 16.7106
642 2 3.78729 157.801 16.9005
643 2 7.87915 158.097 16.863
644 2 11.8069 157.975 16.7378
645 2 15.7398 3.59667 16.8395
646 2 3.78545 3.64026 16.7348
647 2 7.86412 3.62622 16.8168
648 2 11.7524 3.60077 16.6145
649 2 -0.185167 7.60521 16.5821
650 2 3.76809 7.58359 16.6914
651 2 7.83741 7.40273 16.7392
652 2 11.9208 7.36995 16.6644
653 2 15.6151 11.4856 16.6829
654 2 3.80086 11.4472 16.4478
655 2 7.86192 11.3894 16.5933
656 2 11.7909 11.4605 16.8249
657 2 -0.123845 15.2812 16.5964
658 2 3.79579 15.3846 16.5997
659 2 7.72173 15.3262 16.5453
660 2 11.8059 15.2422 16.5632
661 2 15.9475 19.3102 16.5583
662 2 4.19019 19.3858 16.3763
663 2 8.08875 19.2504 16.5553
664 2 12.0419 19.2162 16.5256
665 2 15.9378 23.0969 16.4447
666 2 4.06943 23.1737 16.219
667 2 7.82896 23.0931 16.4369
668 2 11.9541 22.9305 16.3239
669 2 -0.0899917 27.0077 16.2163
670 2 3.96889 27.1227 16.2895
671 2 8.12299 26.9145 16.3502
672 2 11.9669 27.0331 16.3907
673 2 16.0699 31.0505 16.3539
674 2 4.19335 30.9684 16.3907
675 2 8.14894 31.0356 16.3047
676 2 12.213 30.9213 16.5529
677 2 15.9557 34.8673 16.4479
678 2 4.11762 34.7955 16.4133
679 2 8.20491 35.1676 16.4587
680 2 12.2831 34.9677 16.3887
681 2 0.142018 38.721 16.434
682 2 4.11147 39.0076 16.5887
683 2 7.94775 38.8433 16.4805
684 2 11.9294 39.0881 16.5845
685 2 15.8755 42.8172 16.4898
686 2 3.98056 42.9746 16.6338
687 2 7.98413 42.9343 16.5065
688 2 11.9423 42.9544 16.5361
689 2 0.103189 46.9114 16.4654
690 2 3.99454 47.0404 16.6226
691 2 8.06864 47.0065 16.5688
692 2 11.9856 46.9771 16.5751
693 2 15.8662 50.9075 16.6406
694 2 4.04121 51.0092 16.6085
695 2 7.92505 50.9449 16.6387
696 2 11.9292 50.8829 16.6365
697 2 0.0315162 54.9541 16.8096
698 2 3.92382 55.1545 16.6953
699 2 7.94099 54.9182 16.867
700 2 11.7954 54.9395 16.862
701 2 0.0269098 59.0201 16.8773
702 2 3.90219 59.1171 16.8125
703 2 7.94511 58.9452 16.9102
704 2 11.9435 59.0875 16.7791
705 2 -0.181819 63.1778 16.7683
706 2 4.01276 63.053 16.8398
707 2 8.0738 63.0195 17.0522
708 2 11.6449 63.1181 16.9075
709 2 0.0868019 67.2724 17.135
710 2 3.86546 67.1465 16.9818
711 2 7.89159 67.1824 16.9359
712 2 11.9601 67.1555 16.9801
713 2 0.0241454 71.0775 16.9977
714 2 4.16178 71.3269 16.9301
715 2 7.98724 71.1881 16.7736
716 2 12.0605 71.2407 16.9929
717 2 0.106386 75.1227 17.1602
718 2 4.19337 75.115 16.9783
719 2 8.09837 75.3083 17.2103
720 2 11.8831 75.2705 17.0473
721 2 0.00296884 79.3506 16.9984
722 2 4.08167 79.0757 17.1084
723 2 8.0089 79.2079 17.1476
724 2 12.1056 79.212 17.1507
725 2 0.212773 83.2997 17.3811
726 2 4.183 83.2549 17.2738
727 2 7.98973 83.3127 17.2296
728 2 12.0063 83.3462 17.2959
729 2 0.103143 87.3797 17.3085
730 2 4.07029 87.3421 17.2844
731 2 7.96307 87.4564 17.2188
732 2 11.8954 87.4985 17.2171
733 2 0.30745 91.3474 17.3105
734 2 4.1925 91.398 17.2635
735 2 8.05718 91.2474 17.2021
736 2 11.996 91.3333 17.2042
737 2 0.217917 95.4769 17.439
738 2 4.0885 95.3231 17.2224
739 2 8.1339 95.4666 17.4089
740 2 12.0215 95.3968 17.1302
741 2 15.9838 99.3382 17.3945
742 2 4.10311 99.3478 17.2794
743 2 8.05162 99.5257 17.41
744 2 11.7571 99.3785 17.2796
745 2 16.015 103.216 17.2626
746 2 4.10342 103.121 17.3072
747 2 8.17987 103.368 17.2497
748 2 12.0359 103.371 17.3339
749 2 16.0631 107.09 17.0754
750 2 4.03943 107.199 17.2372
751 2 8.07155 107.289 17.1249
752 2 12.1405 107.247 17.2821
753 2 -0.0206418 111.054 17.3977
754 2 3.98642 111.041 17.1342
755 2 7.99086 111.13 17.3261
756 2 12.0497 111.102 17.2689
757 2 0.0790614 115.037 17.3732
758 2 4.03677 114.973 17.3134
759 2 8.00079 114.925 17.1808
760 2 11.916 114.939 17.0717
761 2 0.0351235 119.006 17.2674
762 2 4.08978 118.903 17.0649
763 2 7.8918 119.015 17.3468
764 2 12.0447 118.984 17.0808
765 2 0.0570678 122.785 17.1944
766 2 3.94175 122.831 17.1408
767 2 7.92189 123.018 17.1174
768 2 11.8649 122.895 16.9223
769 2 0.0443223 126.708 17.1651
770 2 3.92962 126.769 17.0023
771 2 7.93037 126.819 16.9781
772 2 11.8869 126.991 17.0719
773 2 0.0917674 130.773 17.0112
774 2 3.97907 130.673 17.2063
775 2 7.85743 130.678 16.9431
776 2 11.9054 130.693 17.1301
777 2 0.0240173 134.489 16.9042
778 2 3.86974 134.678 17.1365
779 2 7.77501 134.645 17.1054
780 2 11.8644 134.509 17.0143
781 2 15.582 138.462 17.107
782 2 3.75459 138.455 16.8905
783 2 7.95279 138.424 17.0843
784 2 11.8491 138.463 16.9745
785 2 15.9653 142.512 16.8943
786 2 3.95966 142.479 16.9379
787 2 7.75213 142.228 17.0396
788 2 11.7503 142.391 16.8928
789 2 15.7938 146.582 16.8831
790 2 3.79758 146.35 16.8072
791 2 8.02354 146.355 16.6987
792 2 11.8853 146.334 16.9088
793 2 15.6503 150.261 16.7748
794 2 3.91435 150.268 16.735
795 2 7.86686 150.293 16.8233
796 2 11.7424 150.199 16.8932
797 2 -0.188578 154.051 16.9095
798 2 3.82339 154.084 16.8431
799 2 7.78435 154.262 16.7723
800 2 11.7417 154.308 16.7341
801 2 -0.0831254 158.137 20.844
802 2 3.95696 158.166 20.8699
803 2 7.74857 158.057 20.8582
804 2 11.7201 158.303 20.6368
805 2 15.7587 3.71313 20.6034
806 2 3.6505 3.68498 20.6785
807 2 7.73635 3.77309 20.6231
808 2 11.8342 3.8883 20.7716
809 2 0.0760409 7.62051 20.8992
810 2 3.83171 7.66359 20.6621
811 2 7.92029 7.61739 20.7052
812 2 11.8698 7.76024 20.9027
813 2 15.78 11.489 20.5853
814 2 4.03144 11.5361 20.5623
815 2 7.99796 11.5025 20.4467
816 2 11.7416 11.6086 20.7728
817 2 15.9684 15.4352 20.6872
818 2 3.81456 15.2842 20.5203
819 2 7.88998 15.4876 20.5707
820 2 11.6943 15.3818 20.6871
821 2 15.7125 19.14 20.483
822 2 4.036 19.2783 20.5503
823 2 7.83397 19.5602 20.5072
824 2 11.7194 19.3903 20.5007
825 2 15.8826 23.4222 20.4284
826 2 4.04561 23.2177 20.3353
827 2 8.03 23.4886 20.5003
828 2 11.9548 23.2536 20.4214
829 2 0.235049 27.0647 20.3487
830 2 4.20202 27.1312 20.2727
831 2 8.04676 27.3177 20.1964
832 2 11.9916 27.1674 20.3802
833 2 0.139705 30.9178 20.4213
834 2 4.00273 30.9884 20.2353
835 2 7.87437 31.1297 20.4442
836 2 11.9611 31.0094 20.5299
837 2 16.0534 34.7721 20.3314
838 2 4.02121 34.7897 20.3616
839 2 8.04243 35.0106 20.4198
840 2 11.9692 34.8235 20.2378
841 2 -0.0876416 38.7795 20.2809
842 2 4.13821 38.7982 20.4556
843 2 7.98276 38.7271 20.4072
844 2 12.0196 38.8101 20.5391
845 2 0.106578 42.8088 20.3589
846 2 4.17244 42.7717 20.3315
847 2 7.89517 42.7136 20.3219
848 2 11.6372 42.9827 20.5078
849 2 0.193301 46.8667 20.5023
850 2 4.04093 46.8525 20.4439
851 2 7.79662 46.8753 20.4342
852 2 12.0165 46.9025 20.7174
853 2 0.0644744 50.9324 20.5109
854 2 3.83097 50.8252 20.6046
855 2 7.82581 50.9455 20.6538
856 2 11.5971 50.9307 20.6118
857 2 0.10314 54.9198 20.6835
858 2 4.15884 54.8803 20.6696
859 2 8.12593 55.0548 20.8483
860 2 11.9976 54.9944 20.6667
861 2 15.7965 59.0954 20.8079
862 2 3.90853 59.0811 20.6416
863 2 7.82558 59.0369 20.896
864 2 11.7641 59.0938 21.018
865 2 15.7104 63.1403 20.7752
866 2 3.96451 62.9942 20.9395
867 2 8.02533 63.0361 20.8796
868 2 11.9476 63.1601 20.8635
869 2 -0.115206 67.1253 20.8263
870 2 3.8945 66.9438 20.788
871 2 7.95427 67.1212 20.851
872 2 11.6705 67.0841 20.6811
873 2 0.0577237 71.1767 20.9772
874 2 3.98578 71.0885 21.1155
875 2 7.99842 71.0656 20.7773
876 2 11.8722 71.0134 21.0481
877 2 -0.149881 75.1823 20.9258
878 2 4.04242 75.1387 20.964
879 2 8.00975 75.197 20.8566
880 2 12.0834 75.0703 21.0088
881 2 0.0129733 79.134 21.0004
882 2 3.89239 79.0346 20.8087
883 2 8.02582 79.3046 21.1834
884 2 12.0359 79.3765 20.9612
885 2 0.170009 83.5561 21.1611
886 2 4.15296 83.309 21.2887
887 2 8.16401 83.2519 21.41
888 2 11.9899 83.4543 21.1239
889 2 -0.0351572 87.2153 21.185
890 2 4.20995 87.2157 21.3082
891 2 8.21899 87.2117 21.1737
892 2 11.9874 87.4692 21.1356
893 2 0.193161 91.2938 21.1874
894 2 4.0434 91.3116 21.3391
895 2 8.14479 91.4057 21.1101
896 2 12.1274 91.4788 21.1522
897 2 15.8354 95.2958 21.3695
898 2 4.0292 95.2302 21.3963
899 2 7.94842 95.3743 21.2266
900 2 11.9649 95.4542 21.1207
901 2 0.00823773 99.1114 21.0894
902 2 3.97811 99.3486 21.2747
903 2 8.04461 99.4074 21.4077
904 2 12.0325 99.3138 21.4257
905 2 15.8456 103.335 21.0751
906 2 4.05495 103.463 21.3122
907 2 7.9809 103.307 21.3252
908 2 11.8783 103.276 21.3045
909 2 0.00850436 107.457 21.274
910 2 3.94285 107.118 21.1907
911 2 8.07361 107.179 21.2894
912 2 11.8303 107.164 21.2739
913 2 16.0186 111.234 21.2868
914 2 4.11397 110.975 21.2293
915 2 7.86103 111.184 21.247
916 2 11.8834 111.144 21.3856
917 2 0.171258 115.021 21.3019
918 2 4.00657 115.025 21.2498
919 2 7.79326 115.101 21.3185
920 2 11.8211 115.055 21.2958
921 2 -0.0728964 119.132 21.28
922 2 4.13907 118.957 21.1497
923 2 7.93361 118.934 21.2221
924 2 11.8826 119.305 21.324
925 2 0.0218457 122.933 21.1864
926 2 3.81936 122.796 21.1311
927 2 7.86221 123.018 21.2088
928 2 11.9845 122.99 20.9725
929 2 0.101103 126.703 21.1063
930 2 3.94022 126.824 21.3226
931 2 7.89395 126.799 21.0783
932 2 11.8671 126.888 21.0328
933 2 0.0778455 130.752 21.0716
934 2 3.89024 130.737 21.2577
935 2 7.81142 130.638 21.0908
936 2 11.7837 130.717 21.1678
937 2 15.7293 134.479 21.1069
938 2 4.07748 134.649 21.1209
939 2 7.8221 134.717 21.1794
940 2 11.7276 134.498 21.2805
941 2 15.8826 138.428 21.0782
942 2 3.85425 138.659 20.8154
943 2 7.8691 138.483 20.9044
944 2 11.9918 138.452 20.8261
945 2 15.8835 142.499 20.9341
946 2 3.95525 142.366 20.8619
947 2 7.90929 142.51 21.0369
948 2 11.7465 142.393 20.9569
949 2 -0.101616 146.384 20.9491
950 2 4.07106 146.494 20.8753
951 2 7.98644 146.446 20.8872
952 2 11.8533 146.226 20.8456
953 2 15.8847 150.12 20.8283
954 2 3.83209 150.164 20.9352
955 2 7.80287 150.253 20.8479
956 2 11.7805 150.343 20.7505
957 2 0.00272053 154.026 20.7703
958 2 3.78821 154.225 20.9414
959 2 7.61529 153.935 20.7262
960 2 11.8773 154.208 20.9149
961 2 -0.176776 158.056 24.8692
962 2 3.88989 158.192 24.8092
963 2 8.01323 158.238 24.8688
964 2 11.8126 158.015 24.5485
965 2 15.9241 3.69356 24.8036
966 2 3.94962 3.83653 24.7668
967 2 7.89293 3.84054 24.7179
968 2 11.8536 3.78397 24.6101
969 2 0.0497903 7.81626 24.7696
970 2 4.00829 7.55196 24.6069
971 2 7.9829 7.72245 24.8071
972 2 12.1602 7.71406 24.7834
973 2 -0.0706715 11.5745 24.6878
974 2 3.84304 11.6179 24.6153
975 2 7.78585 11.4926 24.677
976 2 11.7579 11.521 24.7422
977 2 -0.175791 15.6719 24.5852
978 2 3.81416 15.4934 24.6712
979 2 7.72992 15.5109 24.7901
980 2 11.6645 15.4116 24.5086
981 2 15.6791 19.3427 24.5684
982 2 3.96873 19.4155 24.4653
983 2 7.92672 19.3378 24.3628
984 2 11.8711 19.4561 24.6581
985 2 -0.0371766 23.2575 24.4653
986 2 3.98053 23.0517 24.6163
987 2 7.96345 23.3048 24.648
988 2 12.055 23.1809 24.5044
989 2 -0.0955519 27.1682 24.4316
990 2 3.94947 27.1166 24.5258
991 2 7.83119 27.357 24.4237
992 2 11.7952 27.1107 24.3367