ITEM: TIMESTEP
19100
ITEM: NUMBER OF ATOMS
32000
ITEM: BOX BOUNDS xy xz yz pp pp pp
0.0000000000000000e+00 1.5832000000000001e+01 0.0000000000000000e+00
0.0000000000000000e+00 1.5831999999999999e+02 0.0000000000000000e+00
8.4777708406318197e-01 1.6012934091593399e+02 0.0000000000000000e+00
ITEM: ATOMS id type x y z
1 2 -0.0646496 158.067 159.94
2 2 3.99512 157.934 159.975
3 2 7.88722 157.922 159.852
4 2 11.7897 157.791 159.855
5 2 15.8393 3.65389 159.87
6 2 4.14164 3.65844 159.842
7 2 7.95792 3.44568 159.885
8 2 11.7456 3.34934 159.902
9 2 0.0439868 7.0786 159.788
10 2 3.96576 7.49116 159.75
11 2 8.08247 7.27772 159.875
12 2 11.734 7.09593 159.93
13 2 0.165308 11.4026 159.901
14 2 3.97397 11.2118 159.981
15 2 7.97595 11.2976 159.875
16 2 11.973 11.2395 159.879
17 2 15.9669 15.383 159.847
18 2 4.07277 15.3119 159.777
19 2 7.8619 15.2084 159.863
20 2 11.9836 14.9667 159.689
21 2 -0.115811 19.2543 159.841
22 2 4.05891 19.1016 159.708
23 2 7.91887 19.176 159.745
24 2 11.9637 19.2963 159.898
25 2 15.9236 23.251 0.662883
26 2 3.97733 23.0651 159.735
27 2 7.83945 23.1887 159.647
28 2 11.8624 22.9304 159.753
29 2 15.7742 26.9914 159.817
30 2 4.23585 27.2816 159.884
31 2 7.95279 27.114 159.801
32 2 11.9648 27.3049 159.501
33 2 15.9095 31.19 159.857
34 2 4.07571 31.1883 160.03
35 2 8.05921 31.1833 159.999
36 2 11.8238 31.1314 0.618683
37 2 15.9997 35.2318 160.119
38 2 4.05717 35.3423 0.918089
39 2 7.94417 35.1138 160.01
40 2 11.8307 35.1348 0.81392
41 2 0.196753 39.1286 159.931
42 2 4.22915 39.2573 1.04075
43 2 7.90916 39.3346 0.932737
44 2 11.9559 39.2904 160.091
45 2 0.293837 43.2677 0.816264
46 2 3.99148 43.2124 1.02579
47 2 8.08273 43.366 1.01063
48 2 12.0654 43.3287 0.928216
49 2 15.9446 47.3321 0.959734
50 2 4.0632 47.232 0.978742
51 2 7.93545 47.3807 0.913763
52 2 11.9827 47.3958 1.1991
53 2 0.24059 51.3634 1.17036
54 2 4.19346 51.2584 0.965136
55 2 7.88718 51.2901 1.04285
56 2 12.0467 51.3884 160.218
57 2 -0.126958 55.4085 1.20469
58 2 3.88644 55.2854 1.15779
59 2 8.01871 55.4946 1.24307
60 2 12.0146 55.4999 1.17075
61 2 0.0532805 59.2862 1.3029
62 2 4.18228 59.4216 1.00723
63 2 8.03254 59.4272 1.11811
64 2 11.9015 59.3628 1.4135
65 2 0.131752 63.427 1.3737
66 2 4.05856 63.4627 1.09451
67 2 8.22078 63.4271 1.35446
68 2 12.0298 63.4725 1.40252
69 2 0.173066 67.5753 1.42233
70 2 4.10454 67.5102 1.38468
71 2 8.07371 67.5013 1.36236
72 2 12.0885 67.4912 1.36602
73 2 15.855 71.4859 1.33517
74 2 3.98371 71.4931 1.38265
75 2 8.04281 71.5325 1.43749
76 2 11.917 71.3233 1.36948
77 2 0.0746269 75.4693 1.45652
78 2 4.11096 75.4707 1.55147
79 2 8.09324 75.5399 1.48353
80 2 12.0548 75.5373 1.52074
81 2 0.155374 79.5018 1.40354
82 2 3.95558 79.6262 1.70051
83 2 7.86117 79.4467 1.5023
84 2 11.9282 79.5173 1.52748
85 2 0.110752 83.5999 1.50947
86 2 3.98959 83.7274 1.51197
87 2 8.16405 83.5858 1.72501
88 2 11.938 83.3623 1.37999
89 2 0.0845334 87.5306 1.51328
90 2 4.0127 87.3543 1.45847
91 2 8.0757 87.3966 1.47289
92 2 11.9717 87.3402 1.33212
93 2 0.130797 91.4011 1.40824
94 2 4.13447 91.2162 1.2591
95 2 7.96147 91.2853 1.45103
96 2 11.6521 91.433 1.35794
97 2 -0.144732 95.1303 1.24515
98 2 4.07226 95.1593 1.05786
99 2 8.04114 95.2152 1.20094
100 2 11.8475 95.2878 1.30199
101 2 0.0477929 99.1179 1.42124
102 2 3.73632 99.0985 1.32751
103 2 7.86917 99.1744 1.10617
104 2 11.9422 99.0389 1.26347
105 2 15.8213 103.106 1.13955
106 2 4.00965 102.955 1.22942
107 2 7.96597 103.019 1.36396
108 2 12.0181 102.87 1.29525
109 2 15.7354 106.929 1.31754
110 2 4.02243 106.969 1.28247
111 2 8.01429 106.95 1.24645
112 2 12.0283 107.12 1.09367
113 2 0.120397 110.986 1.23143
114 2 4.06987 110.765 1.3002
115 2 7.95878 111.046 1.29066
116 2 11.9013 110.997 1.17727
117 2 0.0293447 114.779 1.25019
118 2 4.10623 114.758 1.04371
119 2 7.80283 114.858 1.14262
120 2 11.9065 115.154 1.13077
121 2 15.8215 118.731 1.09349
122 2 3.9935 118.851 1.06306
123 2 7.98243 118.69 1.12476
124 2 11.8729 119.044 160.397
125 2 0.0231481 122.896 1.23317
126 2 3.90717 122.63 1.1908
127 2 7.99255 122.722 0.924077
128 2 12.1052 122.995 1.04889
129 2 0.0113962 126.633 160.259
130 2 4.07315 126.601 160.267
131 2 7.99172 126.534 1.13083
132 2 12.055 126.945 0.866496
133 2 -0.0722178 130.626 160.21
134 2 3.8801 130.616 160.093
135 2 7.73331 130.447 0.93785
136 2 11.8218 130.783 160.119
137 2 -0.203791 134.479 160.415
138 2 4.0912 134.389 160.273
139 2 7.98147 134.364 0.765419
140 2 12.1257 134.636 160.21
141 2 0.166352 138.456 160.052
142 2 3.91747 138.351 160.175
143 2 7.85736 138.408 160.136
144 2 11.948 138.411 1.08547
145 2 15.6827 142.278 159.92
146 2 4.07689 142.396 159.944
147 2 7.96878 142.129 159.954
148 2 11.8896 142.404 160.041
149 2 0.159358 146.243 160.04
150 2 3.98894 146.28 160.104
151 2 7.9695 146.154 159.926
152 2 11.8185 146.204 159.963
153 2 15.8549 150.108 159.963
154 2 3.81975 149.987 160.103
155 2 7.76438 150.033 159.934
156 2 11.8766 150.019 160.017
157 2 15.5099 154.071 160.078
158 2 3.84632 154.015 160.051
159 2 7.91544 153.966 159.763
160 2 11.8545 153.949 160.05
161 2 15.557 157.873 4.71113
162 2 3.78228 157.914 4.74225
163 2 7.81059 157.943 4.70855
164 2 11.8684 157.99 4.72519
165 2 16.0393 3.47692 4.52187
166 2 3.94113 3.48884 4.47574
167 2 7.79954 3.54605 4.77065
168 2 11.8924 3.30688 4.64908
169 2 15.9505 7.33475 4.642
170 2 4.05586 7.55332 4.50702
171 2 7.84859 7.44492 4.75105
172 2 11.8834 7.1355 4.66953
173 2 15.9235 11.3972 4.61432
174 2 3.93586 11.3203 4.53763
175 2 8.00077 11.205 4.51405
176 2 11.8888 11.1791 4.5502
177 2 15.7819 15.2684 4.55769
178 2 4.06589 15.2239 4.48061
179 2 7.93473 15.4106 4.37145
180 2 11.6711 15.2618 4.55212
181 2 0.0240174 19.318 4.5358
182 2 4.04808 18.9891 4.57803
183 2 7.95933 19.2708 4.45269
184 2 11.8366 19.0106 4.53411
185 2 15.8817 23.1392 4.45161
186 2 4.04268 22.859 4.44583
187 2 7.92825 23.1489 4.47033
188 2 11.9904 23.0967 4.42643
189 2 15.6846 26.9451 4.36746
190 2 3.9524 27.1284 4.48517
191 2 7.96406 27.0006 4.4388
192 2 11.8601 26.9418 4.499
193 2 15.9847 31.0471 4.46343
194 2 3.83646 31.1207 4.63978
195 2 7.93646 30.8766 4.41948
196 2 11.8557 30.9668 4.60381
197 2 0.123743 35.0339 4.69095
198 2 3.86825 35.0816 4.68049
199 2 8.11733 35.1217 4.70387
200 2 11.9974 35.0556 4.60116
201 2 -0.0802277 39.1237 4.58785
202 2 3.94427 39.1436 4.77156
203 2 8.11145 39.0173 4.65946
204 2 11.989 39.1663 4.7769
205 2 0.244478 43.223 4.84631
206 2 4.10323 43.2055 4.85515
207 2 7.91898 43.085 4.92798
208 2 12.0905 43.2097 4.73272
209 2 16.0561 47.3294 4.82101
210 2 4.08371 47.0906 4.97965
211 2 8.06297 47.2585 4.8126
212 2 12.1945 47.3745 4.87803
213 2 0.164828 51.2831 5.00044
214 2 4.22306 51.234 4.96786
215 2 8.11711 51.1161 4.68001
216 2 11.9046 51.3112 4.89878
217 2 0.183046 55.1939 4.98305
218 2 3.84079 55.3639 5.12809
219 2 7.89721 55.2028 5.00106
220 2 11.8313 55.379 5.02559
221 2 -0.0210388 59.4619 5.16642
222 2 4.02893 59.3267 5.08346
223 2 7.88379 59.4179 5.08796
224 2 11.9215 59.3089 5.24793
225 2 -0.0368682 63.4547 5.27338
226 2 3.99746 63.3467 5.20825
227 2 7.88313 63.3271 5.11982
228 2 12.0658 63.3678 5.21847
229 2 0.191156 67.444 5.25366
230 2 4.13887 67.3324 5.32186
231 2 7.79236 67.4279 5.37166
232 2 11.8001 67.3267 5.3159
233 2 -0.0550941 71.4407 5.18947
234 2 3.81555 71.4188 5.42777
235 2 8.16945 71.5349 5.08713
236 2 11.7977 71.262 5.45332
237 2 -0.0934199 75.414 5.15283
238 2 3.92827 75.3964 5.35477
239 2 7.89027 75.3881 5.25893
240 2 11.9663 75.537 5.42364
241 2 0.110618 79.6085 5.5804
242 2 4.13127 79.4394 5.62531
243 2 7.98395 79.3977 5.3103
244 2 11.8466 79.4514 5.41085
245 2 15.9098 83.4306 5.60762
246 2 3.96795 83.3262 5.49647
247 2 8.13279 83.3966 5.49332
248 2 12.0308 83.6512 5.53536
249 2 0.0830126 87.5445 5.50592
250 2 3.82678 87.4392 5.38646
251 2 7.85002 87.4609 5.40157
252 2 12.042 87.4402 5.49613
253 2 0.18847 91.5244 5.34031
254 2 4.00167 91.3106 5.53749
255 2 8.0328 91.3728 5.43872
256 2 11.9965 91.4161 5.27045
257 2 -0.00469626 95.3077 5.3898
258 2 4.33009 95.3034 5.36389
259 2 7.93699 95.203 5.39475
260 2 11.9348 95.4681 5.20669
261 2 0.152046 99.1426 5.25577
262 2 3.94479 99.2543 5.40318
263 2 7.87748 99.4296 5.21464
264 2 11.8787 99.1958 5.37278
265 2 15.9065 103.067 5.32587
266 2 3.89407 103.288 5.09608
267 2 7.92085 103.111 5.24414
268 2 12.0004 103.05 5.23461
269 2 0.000566107 106.904 5.33565
270 2 3.91337 107.192 5.29896
271 2 7.85025 106.93 5.27269
272 2 11.786 106.995 5.14325
273 2 0.0087951 110.974 5.3257
274 2 4.04293 111.026 5.1906
275 2 7.91973 111.001 5.20391
276 2 11.6711 111.222 5.23092
277 2 15.687 114.825 5.07986
278 2 3.99383 115.01 4.99255
279 2 8.00046 114.835 5.28766
280 2 11.9016 115.001 5.1839
281 2 15.7949 118.858 5.12334
282 2 4.03194 118.755 5.09547
283 2 7.93732 118.892 5.24951
284 2 11.8248 118.795 5.23234
285 2 15.8917 122.67 5.15107
286 2 4.06563 122.582 4.93337
287 2 7.94549 122.718 5.03924
288 2 11.9099 122.809 4.8793
289 2 0.165217 126.772 4.96309
290 2 3.94342 126.651 5.14201
291 2 7.86161 126.503 5.07771
292 2 11.8054 126.831 5.11797
293 2 0.244767 130.587 4.72929
294 2 4.07386 130.538 4.88051
295 2 8.03321 130.648 4.97601
296 2 12.0684 130.557 5.06544
297 2 0.0534531 134.435 4.9331
298 2 3.93533 134.48 5.00732
299 2 7.79622 134.443 4.77441
300 2 11.7431 134.476 5.02834
301 2 16.1335 138.552 4.81416
302 2 4.11388 138.444 4.88007
303 2 8.0117 138.551 4.7622
304 2 11.8238 138.418 5.0219
305 2 0.111634 142.341 4.68482
306 2 4.06576 142.466 4.83465
307 2 7.93864 142.385 4.71709
308 2 12.159 142.213 4.77237
309 2 15.6133 146.095 4.74943
310 2 3.83448 146.185 4.761
311 2 7.90936 146.141 4.86063
312 2 11.9277 146.086 4.6238
313 2 -0.0407998 150.303 4.7633
314 2 3.79047 149.969 4.80968
315 2 7.95008 150.183 4.76149
316 2 11.6758 149.929 4.72694
317 2 15.6391 154.055 4.67052
318 2 3.9011 154.116 4.55344
319 2 7.7604 154.083 4.68267
320 2 11.8934 154.027 4.88542
321 2 15.7388 157.912 8.85901
322 2 3.93924 157.99 8.8203
323 2 7.92881 157.796 8.70752
324 2 11.8153 157.977 8.66157
325 2 15.8826 3.62419 8.88585
326 2 4.00528 3.43849 8.69974
327 2 7.91614 3.43942 8.65441
328 2 11.9209 3.57217 8.80185
329 2 -0.00123668 7.47805 8.74513
330 2 4.04946 7.31663 8.59269
331 2 7.98051 7.32602 8.57688
332 2 11.893 7.64809 8.48651
333 2 15.8035 11.4021 8.4615
334 2 4.01225 11.4918 8.41349
335 2 7.78165 11.641 8.55462
336 2 11.6887 11.5763 8.65542
337 2 -0.0337162 15.2856 8.61061
338 2 3.97106 15.4349 8.49921
339 2 7.62676 15.4788 8.53286
340 2 11.7368 15.2336 8.54166
341 2 0.150753 19.2557 8.47137
342 2 3.98687 19.3507 8.35969
343 2 7.91446 19.2933 8.48853
344 2 12.0292 19.1967 8.3257
345 2 -0.115323 23.0617 8.24224
346 2 4.16088 23.1047 8.30361
347 2 7.93153 23.1148 8.43454
348 2 12.0482 23.1572 8.48895
349 2 16.0618 27.1898 8.38444
350 2 4.05966 27.1752 8.3018
351 2 8.02923 27.0703 8.46164
352 2 11.84 27.071 8.3
353 2 15.9523 31.0687 8.55993
354 2 3.90662 31.0029 8.52463
355 2 7.82854 31.2014 8.54991
356 2 11.9033 31.0392 8.57371
357 2 15.9252 34.9524 8.55824
358 2 4.03472 34.981 8.64846
359 2 7.96072 35.0134 8.46571
360 2 11.9492 34.9122 8.48805
361 2 15.8867 39.0504 8.62845
362 2 4.05277 39.054 8.70453
363 2 7.89201 39.1798 8.79563
364 2 11.9325 38.9578 8.69254
365 2 15.8245 43.1167 8.74177
366 2 3.8874 43.1684 8.77353
367 2 7.92963 43.1166 8.59341
368 2 11.8925 43.0781 8.7041
369 2 0.230192 47.1295 8.69068
370 2 4.10375 47.0541 8.75976
371 2 8.26112 47.2053 8.57045
372 2 11.9809 47.1765 8.67289
373 2 0.00516432 51.3453 8.98651
374 2 4.00732 51.1832 8.87591
375 2 8.02202 51.2198 8.83133
376 2 12.12 51.3141 8.84228
377 2 0.0691601 55.1809 9.00563
378 2 3.96751 55.1349 8.91607
379 2 8.00904 55.1031 8.90585
380 2 11.7647 55.2408 8.94774
381 2 15.8846 59.2959 8.90727
382 2 4.09505 59.3233 8.98553
383 2 7.8439 59.3515 9.08289
384 2 11.779 59.1604 9.05779
385 2 -0.105683 63.418 9.15898
386 2 3.69365 63.4793 9.0102
387 2 7.92363 63.1152 9.05612
388 2 11.7481 63.2398 9.27607
389 2 -0.0232335 67.187 9.25684
390 2 4.01378 67.4927 9.00461
391 2 7.95364 67.1197 9.19768
392 2 11.9363 67.2835 9.0583
393 2 -0.119183 71.3478 9.13848
394 2 3.79921 71.2875 9.23226
395 2 7.70525 71.3707 9.23612
396 2 11.7593 71.3538 9.29134
397 2 0.0271044 75.3801 9.22555
398 2 3.86068 75.4285 9.22812
399 2 7.86574 75.3606 9.26553
400 2 11.8511 75.3563 9.30064
401 2 0.0894041 79.2305 9.30016
402 2 3.89917 79.3212 9.33439
403 2 7.97092 79.4374 9.53281
404 2 12.0154 79.2352 9.3218
405 2 -0.0427184 83.3359 9.46683
406 2 4.17225 83.573 9.32436
407 2 7.92303 83.4216 9.52407
408 2 11.9856 83.3372 9.2624
409 2 0.0529612 87.4944 9.5668
410 2 4.1186 87.2337 9.31884
411 2 7.93537 87.29 9.19486
412 2 12.0065 87.4097 9.20016
413 2 0.302819 91.515 9.389
414 2 4.08311 91.2697 9.37705
415 2 8.11015 91.4024 9.34839
416 2 12.0742 91.4034 9.44634
417 2 0.0754859 95.361 9.42764
418 2 4.13479 95.3814 9.35548
419 2 8.11508 95.2771 9.40279
420 2 11.8802 95.3884 9.3281
421 2 15.7229 99.298 9.41224
422 2 3.94297 99.2738 9.37112
423 2 8.10643 99.4399 9.31326
424 2 11.9148 99.4757 9.30847
425 2 0.0790332 103.332 9.31796
426 2 4.01754 103.254 9.39955
427 2 7.80322 103.113 9.34489
428 2 11.9168 103.573 9.38522
429 2 15.8861 107.224 9.17
430 2 4.08004 107.141 9.30529
431 2 8.06128 107.096 9.2557
432 2 11.8211 107.297 9.19003
433 2 0.216097 110.944 9.24839
434 2 3.95201 111.228 9.27504
435 2 8.05055 110.974 9.22295
436 2 11.968 111.02 9.214
437 2 0.129953 115.151 9.00412
438 2 4.12078 114.962 9.1202
439 2 7.88915 115.083 9.18056
440 2 11.9872 114.921 9.14454
441 2 -0.171107 119.065 9.17434
442 2 3.7624 119.066 9.033
443 2 7.96635 118.932 9.24118
444 2 11.8436 118.956 9.215
445 2 15.9886 122.931 9.05077
446 2 3.95376 122.911 9.01576
447 2 7.97467 122.868 9.22013
448 2 11.9292 122.887 9.19285
449 2 -0.0143498 126.859 9.01963
450 2 3.93048 126.683 9.05159
451 2 7.95492 126.81 9.07445
452 2 12.0712 126.697 9.13675
453 2 0.343729 130.675 9.07857
454 2 4.03072 130.8 8.95701
455 2 8.05032 130.562 8.97521
456 2 12.0099 130.405 8.78415
457 2 0.0900956 134.423 9.01386
458 2 3.88037 134.703 8.90095
459 2 7.86816 134.454 8.89137
460 2 12.0361 134.321 8.68914
461 2 0.0333066 138.443 8.91349
462 2 3.98464 138.399 8.93677
463 2 7.87643 138.422 8.79117
464 2 11.9971 138.557 8.89178
465 2 0.0133898 142.353 8.93018
466 2 3.9406 142.166 8.8091
467 2 7.8132 142.251 8.87321
468 2 11.9508 142.259 8.81275
469 2 15.7723 146.288 8.91448
470 2 3.7861 146.253 8.74766
471 2 7.81563 146.164 8.8131
472 2 11.7076 146.279 8.92861
473 2 15.9514 150.041 8.73599
474 2 3.79908 150.129 8.78697
475 2 7.57727 150.198 8.74418
476 2 11.6218 150.102 8.76041
477 2 15.7146 153.86 8.65405
478 2 3.88641 154.264 8.64741
479 2 7.81041 154.208 8.66067
480 2 11.7202 154.063 8.91145
481 2 15.6699 157.993 12.8214
482 2 3.94646 158.033 12.741
483 2 7.8899 158.082 12.8482
484 2 11.8718 157.965 12.7594
485 2 15.7698 3.52266 12.656
486 2 3.98754 3.67297 12.627
487 2 7.85259 3.62189 12.5565
488 2 11.7657 3.82196 12.6359
489 2 -0.0119202 7.51304 12.7178
490 2 3.9515 7.70003 12.7121
491 2 7.83047 7.63692 12.7074
492 2 11.8694 7.47434 12.718
493 2 15.7939 11.3642 12.6638
494 2 3.91798 11.467 12.5887
495 2 7.83231 11.4612 12.4992
496 2 11.9076 11.4587 12.4018
497 2 0.194656 15.312 12.4733
498 2 4.0331 15.2633 12.6475
499 2 7.94835 15.3483 12.5664
500 2 11.9027 15.2835 12.5482
501 2 16.0112 19.0348 12.4164
502 2 4.01697 19.3114 12.6437
503 2 7.90148 19.1085 12.6738
504 2 11.95 19.1513 12.5973
505 2 15.9426 23.1684 12.4694
506 2 3.99435 23.2881 12.42
507 2 8.17817 23.1149 12.3546
508 2 12.0513 23.1293 12.2646
509 2 15.8399 26.9314 12.4155
510 2 4.17181 27.1562 12.2617
511 2 7.99692 27.3431 12.3249
512 2 12.1183 27.1184 12.4413
513 2 0.0325879 30.8646 12.3902
514 2 4.02804 31.0522 12.6157
515 2 8.00432 30.9877 12.4914
516 2 11.9406 30.8718 12.4618
517 2 16.0143 34.8845 12.5881
518 2 3.97484 35.0789 12.3707
519 2 7.98717 35.1302 12.2407
520 2 11.9427 34.9461 12.3695
521 2 15.8634 38.9167 12.4338
522 2 4.10853 39.0251 12.5623
523 2 7.89055 39.0203 12.5253
524 2 11.9745 39.0502 12.5671
525 2 15.802 43.14 12.7948
526 2 4.03747 43.0535 12.61
527 2 7.95114 43.1351 12.5705
528 2 11.9423 43.0616 12.4556
529 2 16.049 47.0136 12.6353
530 2 4.01657 46.8825 12.5728
531 2 8.03382 47.2919 12.4708
532 2 11.8809 47.182 12.8096
533 2 0.129814 51.138 12.6218
534 2 4.06518 50.9376 12.7636
535 2 7.95525 51.0794 12.761
536 2 11.971 51.182 12.649
537 2 -0.146902 55.3194 13.1452
538 2 3.97011 55.0325 12.8862
539 2 7.81986 55.0301 12.7769
540 2 11.7855 55.2825 13.1419
541 2 0.0719216 59.2162 12.8492
542 2 3.89051 59.2779 12.794
543 2 8.00377 59.0814 12.7576
544 2 11.8591 59.244 12.8619
545 2 -0.0924156 63.2069 12.9374
546 2 3.92075 63.311 12.9307
547 2 7.86663 63.2056 13.1534
548 2 11.8665 63.3748 12.9504
549 2 0.0433226 67.2587 12.9869
550 2 4.05885 67.2879 13.1233
551 2 7.89308 67.0781 13.0544
552 2 11.7565 67.279 12.9543
553 2 0.116402 71.2059 13.1447
554 2 4.10235 71.191 12.9143
555 2 7.99758 71.1062 13.098
556 2 12.0141 71.2627 13.2859
557 2 0.163186 75.2401 13.0618
558 2 3.99852 75.218 13.0973
559 2 8.0184 75.2733 13.2186
560 2 11.9035 75.3285 13.0415
561 2 0.173206 79.356 13.236
562 2 4.1706 79.2383 13.2986
563 2 8.21589 79.2912 13.3487
564 2 12.2009 79.1719 13.3276
565 2 0.0591837 83.43 13.3376
566 2 4.04291 83.5471 13.1444
567 2 7.83813 83.355 13.2723
568 2 11.6731 83.5232 13.2732
569 2 0.141158 87.5278 13.2934
570 2 3.96837 87.52 13.3938
571 2 8.2175 87.4051 13.2009
572 2 12.0474 87.3453 13.3657
573 2 0.0491804 91.5361 13.3732
574 2 4.08331 91.3258 13.4365
575 2 8.17604 91.3098 13.2285
576 2 11.9806 91.47 13.3436
577 2 0.331824 95.4865 13.2315
578 2 4.11426 95.2673 13.3691
579 2 8.24705 95.274 13.1814
580 2 11.9812 95.521 13.327
581 2 0.20876 99.4833 13.3798
582 2 4.15397 99.185 13.11
583 2 7.92199 99.292 13.3798
584 2 12.1494 99.3238 13.3546
585 2 0.0853526 103.25 13.2759
586 2 4.10648 103.44 13.5249
587 2 7.93457 103.157 13.2748
588 2 11.8456 103.417 13.3677
589 2 15.9306 107.357 13.3818
590 2 3.88561 107.279 13.2832
591 2 7.94882 107.326 13.3746
592 2 12.0581 107.002 13.3138
593 2 0.170921 111.198 13.2172
594 2 4.20102 111.181 13.0964
595 2 8.20776 111.033 13.272
596 2 12.2667 111.291 13.2461
597 2 15.9692 115.111 13.2805
598 2 4.13621 115.092 13.2112
599 2 8.32045 114.97 13.1559
600 2 12.1105 114.989 13.0529
601 2 15.917 118.944 13.1798
602 2 4.11841 118.987 13.0959
603 2 8.09391 118.916 13.1579
604 2 11.9768 118.945 12.9904
605 2 0.0319145 122.737 13.1292
606 2 4.0617 122.758 13.0827
607 2 7.9049 122.912 13.0628
608 2 11.8532 122.895 13.2629
609 2 15.8522 126.836 13.0424
610 2 3.95555 126.803 13.1585
611 2 7.80536 126.853 12.9173
612 2 11.9004 126.946 13.0122
613 2 15.953 130.625 13.0987
614 2 3.88842 130.771 13.1713
615 2 7.7878 130.7 13.0244
616 2 11.9594 130.66 13.1615
617 2 0.016995 134.442 13.0668
618 2 3.8545 134.824 12.9508
619 2 7.91014 134.582 12.9178
620 2 11.7385 134.419 12.8242
621 2 -0.120837 138.427 12.9578
622 2 3.89857 138.47 13.0501
623 2 8.15677 138.343 12.8198
624 2 11.8387 138.575 12.8542
625 2 15.7742 142.635 12.9178
626 2 3.85468 142.477 12.9039
627 2 7.73528 142.244 12.8438
628 2 11.7504 142.45 13.0222
629 2 -0.117016 146.425 12.9215
630 2 3.83961 146.266 12.9245
631 2 7.83779 146.352 12.9131
632 2 11.7153 146.123 12.7666
633 2 15.6833 150.008 12.9566
634 2 3.97975 150.301 12.9457
635 2 7.54576 150.184 12.7077
636 2 11.8666 150.314 12.8058
637 2 15.4298 154.055 12.8285
638 2 3.58247 154.14 12.7241
639 2 7.59872 154.05 12.8874
640 2 11.6195 154.171 12.8651
641 2 15.8209 158.262 16.6683
642 2 3.80686 158.112 16.7998
643 2 7.5549 158.101 16.8125
644 2 11.5861 158.112 16.8347
645 2 15.7578 3.83038 16.6371
646 2 3.8361 3.68317 16.755
647 2 7.7637 3.75447 16.7286
648 2 11.6766 3.63697 16.774
649 2 -0.0329856 7.48809 16.7517
650 2 3.88651 7.64755 16.4435
651 2 7.8936 7.63828 16.6316
652 2 11.6987 7.72116 16.737
653 2 15.8036 11.5233 16.7101
654 2 3.86285 11.4725 16.7543
655 2 7.79385 11.4512 16.5553
656 2 11.8225 11.3401 16.5434
657 2 -0.0344088 15.4493 16.6643
658 2 3.97092 15.3727 16.6503
659 2 8.01504 15.2303 16.3619
660 2 11.7627 15.3613 16.6626
661 2 15.9294 19.3043 16.4414
662 2 3.99994 19.1585 16.743
663 2 7.79753 19.2644 16.5107
664 2 11.6921 19.1694 16.5869
665 2 15.8362 23.0803 16.4639
666 2 3.97764 23.2813 16.5029
667 2 8.08076 23.3558 16.4666
668 2 12.1079 23.1466 16.2914
669 2 0.14754 26.9219 16.4066
670 2 4.13583 27.2471 16.502
671 2 8.07912 27.1998 16.4324
672 2 12.0787 26.9764 16.4059
673 2 15.974 30.8574 16.3745
674 2 4.08802 31.1607 16.4421
675 2 8.07297 31.172 16.4639
676 2 11.8519 30.9466 16.3749
677 2 16.0678 34.9973 16.4989
678 2 4.07371 35.0815 16.4467
679 2 8.05558 34.9411 16.3434
680 2 11.9595 34.9348 16.4228
681 2 0.116907 38.9713 16.4755
682 2 4.08599 38.995 16.2769
683 2 8.12706 38.9186 16.347
684 2 12.1161 38.7538 16.3029
685 2 15.7081 42.9801 16.5542
686 2 3.91015 42.9394 16.4706
687 2 7.903 42.8869 16.5259
688 2 11.849 42.818 16.4338
689 2 -0.118665 46.8834 16.6148
690 2 4.08171 46.9087 16.7116
691 2 7.72771 46.863 16.6161
692 2 11.7878 46.9643 16.5975
693 2 15.9112 50.9771 16.6045
694 2 3.9768 50.8951 16.5904
695 2 7.92088 51.0818 16.6411
696 2 11.9365 51.0353 16.5901
697 2 0.026331 55.0021 16.8113
698 2 4.09073 54.9253 16.9046
699 2 7.95945 55.195 16.8499
700 2 11.8957 55.0813 16.8027
701 2 -0.0349889 59.1369 16.9115
702 2 3.7852 59.0733 16.8758
703 2 7.70761 59.099 16.7627
704 2 11.7994 59.0023 16.9426
705 2 -0.0532783 63.1233 16.7901
706 2 4.01742 63.0748 16.7422
707 2 7.83079 62.9786 16.6856
708 2 12.0971 63.1063 16.805
709 2 0.0904794 67.2339 17.0796
710 2 4.04829 67.0839 17.1284
711 2 7.91216 67.0525 16.9561
712 2 11.8814 67.1428 16.925
713 2 0.115041 71.221 16.936
714 2 4.02214 70.9864 16.9702
715 2 8.11996 71.2122 17.0781
716 2 11.9433 71.3857 17.0409
717 2 0.134474 75.1675 17.0283
718 2 3.9911 75.1417 17.2771
719 2 7.95125 75.0776 17.0467
720 2 11.9944 75.2286 16.9865
721 2 0.29712 79.2371 17.0665
722 2 4.05629 79.3368 17.1041
723 2 8.1056 79.1945 17.0203
724 2 12.0557 79.3039 17.1921
725 2 0.155829 83.3922 17.0656
726 2 4.1151 83.3861 17.1932
727 2 7.94748 83.2529 17.2858
728 2 11.9511 83.1971 17.2405
729 2 0.237269 87.3831 17.3067
730 2 4.07891 87.259 17.1548
731 2 8.15898 87.4158 17.3086
732 2 12.052 87.2923 17.2206
733 2 0.186656 91.4352 17.4558
734 2 4.13297 91.2479 17.244
735 2 7.9054 91.4764 17.333
736 2 12.27 91.5546 17.233
737 2 0.300156 95.1983 17.2166
738 2 4.21413 95.3262 17.4399
739 2 8.13064 95.1712 17.1641
740 2 11.9714 95.4141 17.4048
741 2 15.7585 99.5506 17.2631
742 2 4.07605 99.2051 17.434
743 2 7.91392 99.0475 17.3206
744 2 11.895 99.3087 17.3297
745 2 16.0215 103.376 17.3633
746 2 4.19132 103.474 17.3129
747 2 7.85678 103.212 17.4155
748 2 11.9018 103.305 17.295
749 2 15.9414 107.308 17.4562
750 2 4.15985 107.164 17.3465
751 2 8.14668 107.326 17.4835
752 2 12.095 107.159 17.1293
753 2 0.169109 111.304 17.1756
754 2 4.08413 111.067 17.2717
755 2 7.95429 111.12 17.2078
756 2 11.9643 111.069 17.2393
757 2 0.0109486 115.085 17.274
758 2 3.98283 115.034 17.1731
759 2 7.9109 115.02 17.3902
760 2 11.8002 115.091 17.5165
761 2 0.13308 118.936 17.1723
762 2 4.21969 118.974 17.1749
763 2 8.23738 118.92 17.0739
764 2 11.8411 119.086 17.287
765 2 0.102503 122.935 17.1147
766 2 3.93824 122.948 17.1885
767 2 7.87592 122.921 17.1431
768 2 12.0488 122.791 17.271
769 2 -0.0344409 126.951 17.1964
770 2 3.99873 126.896 17.2411
771 2 7.91007 126.865 17.2438
772 2 11.9798 126.651 17.0838
773 2 -0.0906215 130.588 17.245
774 2 3.92228 130.902 17.086
775 2 7.78733 130.803 17.0119
776 2 11.9157 130.815 17.0613
777 2 0.0700049 134.712 17.2324
778 2 4.01522 134.64 17.0176
779 2 7.89175 134.582 16.9248
780 2 11.7978 134.617 17.0706
781 2 15.9597 138.515 16.9337
782 2 4.1179 138.598 17.0883
783 2 7.84431 138.442 16.8294
784 2 11.8575 138.461 17.004
785 2 15.7649 142.383 17.0276
786 2 3.94184 142.347 17.0728
787 2 7.94192 142.577 16.8461
788 2 11.8966 142.417 17.0277
789 2 15.7727 146.208 16.9345
790 2 4.03367 146.359 17.031
791 2 7.84477 146.241 16.9888
792 2 11.6786 146.31 16.9084
793 2 15.6914 150.187 16.9591
794 2 3.96236 150.184 17.1435
795 2 8.06774 150.131 16.8836
796 2 11.9139 150.351 16.8115
797 2 -0.0602731 154.269 16.7227
798 2 3.74993 154.197 16.8781
799 2 7.93724 154.098 16.9038
800 2 11.7403 154.189 16.9348
801 2 -0.319368 158.015 20.7277
802 2 3.81771 158.062 20.7451
803 2 7.74804 158.114 20.9382
804 2 11.6968 158.151 20.9707
805 2 15.7362 3.84643 20.9068
806 2 3.87452 3.66804 20.7295
807 2 7.93771 3.64809 20.9216
808 2 11.8919 3.69619 20.785
809 2 -0.172635 7.6131 20.6197
810 2 4.08023 7.61444 20.7083
811 2 7.77457 7.50233 20.7274
812 2 11.7913 7.5601 20.7256
813 2 15.806 11.5791 20.7343
814 2 3.98508 11.4147 20.6053
815 2 7.69511 11.625 20.7485
816 2 11.7579 11.4186 20.6142
817 2 15.5837 15.4921 20.6171
818 2 4.07562 15.4734 20.7092
819 2 7.83602 15.4515 20.5973
820 2 11.8575 15.6685 20.5117
821 2 15.9612 19.4337 20.5884
822 2 3.89719 19.3706 20.6108
823 2 7.96706 19.3957 20.5024
824 2 11.8674 19.3678 20.6419
825 2 16.0388 23.1419 20.3799
826 2 4.06578 23.1657 20.5541
827 2 8.01123 23.1185 20.4435
828 2 11.9561 23.0952 20.5578
829 2 0.14139 27.1014 20.3907
830 2 3.94084 27.017 20.5147
831 2 7.89735 27.032 20.6514
832 2 12.0093 27.0975 20.4817
833 2 -0.0092714 30.9615 20.5307
834 2 4.08245 30.8241 20.482
835 2 8.23418 30.998 20.2166
836 2 12.0027 30.8675 20.3253
837 2 15.8546 34.9071 20.5179
838 2 4.01272 34.9296 20.3914
839 2 8.02107 34.8261 20.3591
840 2 12.065 34.9096 20.5631
841 2 0.167215 38.8328 20.4598
842 2 4.07925 38.9779 20.2991
843 2 8.11026 38.8746 20.2479
844 2 11.9636 38.9347 20.3711
845 2 0.103535 42.9207 20.4847
846 2 3.78511 42.8051 20.6115
847 2 8.17308 42.8486 20.4677
848 2 12.2455 42.8647 20.3574
849 2 -0.0591315 46.9003 20.519
850 2 3.94052 46.7592 20.5317
851 2 8.00414 46.7968 20.6207
852 2 11.8155 46.8755 20.2039
853 2 -0.125717 50.7549 20.526
854 2 4.09864 50.8648 20.4473
855 2 8.0857 50.9195 20.5035
856 2 11.9639 50.8914 20.4942
857 2 -0.0461764 54.8559 20.6212
858 2 3.9533 54.8947 20.6656
859 2 7.81125 54.8535 20.7776
860 2 12.0329 55.0695 20.7253
861 2 15.703 59.0706 20.7477
862 2 3.79618 59.1701 20.6725
863 2 7.91572 58.9044 20.5971
864 2 11.8584 59.0848 20.6399
865 2 15.8012 63.0374 20.8621
866 2 3.89546 63.1079 20.6489
867 2 7.67416 62.9618 20.6829
868 2 11.6423 63.065 20.6953
869 2 0.0274476 67.124 20.9459
870 2 3.96255 67.1332 20.9665
871 2 7.83154 67.0491 20.8035
872 2 11.9763 67.1855 20.9624
873 2 0.0595816 71.0912 20.9667
874 2 4.05254 71.1913 20.9404
875 2 7.95629 70.985 21.0101
876 2 12.0015 71.231 20.8754
877 2 0.326519 75.0674 21.0414
878 2 4.09094 75.2425 21.0181
879 2 7.94633 75.0736 21.1298
880 2 11.7955 75.355 20.9344
881 2 0.0660585 79.1734 21.0119
882 2 3.97307 79.2727 21.101
883 2 7.8835 79.0098 20.9314
884 2 11.909 79.1011 21.1142
885 2 0.178686 83.0794 21.0724
886 2 4.16395 83.224 20.8756
887 2 7.98493 83.2501 20.9365
888 2 11.9375 83.0365 20.9976
889 2 0.279396 87.3689 21.0603
890 2 4.09344 87.2834 21.1603
891 2 8.0221 87.392 21.1124
892 2 12.0898 87.3117 20.9442
893 2 0.160974 91.3046 21.3465
894 2 4.13264 91.2414 21.3433
895 2 8.00218 91.1567 21.2326
896 2 11.9698 91.3311 21.1926
897 2 16.0285 95.3259 21.2456
898 2 4.08425 95.4903 21.2033
899 2 8.15954 95.1553 21.211
900 2 12.1482 95.6279 21.2832
901 2 0.0497927 99.4054 21.2784
902 2 3.96496 99.343 21.38
903 2 7.79364 99.2757 21.2961
904 2 11.9083 99.4404 21.3036
905 2 15.9289 103.363 21.5454
906 2 3.84333 103.144 21.4833
907 2 7.84502 103.21 21.3424
908 2 12.007 103.135 21.2894
909 2 0.0702906 107.071 21.2535
910 2 4.01254 107.257 21.4792
911 2 8.03496 107.1 21.4314
912 2 11.9704 107.265 21.3511
913 2 15.8681 111.153 21.3803
914 2 4.0014 111.031 21.3327
915 2 7.98472 111.068 21.4555
916 2 11.8725 111.041 21.1641
917 2 -0.0842377 115.17 21.1926
918 2 4.04134 115.096 21.3221
919 2 8.06711 114.923 21.293
920 2 11.9932 115.143 21.341
921 2 0.0591935 118.805 21.1691
922 2 3.99242 118.97 21.2519
923 2 8.01173 119.065 21.2456
924 2 11.855 118.683 21.1094
925 2 -0.133808 122.812 21.1771
926 2 3.97809 122.955 21.3206
927 2 7.81125 122.793 21.1578
928 2 11.6297 122.859 21.1641
929 2 -0.211114 126.883 21.2273
930 2 3.9025 126.864 21.1261
931 2 7.90784 126.674 21.1662
932 2 11.7033 126.788 21.1666
933 2 -0.123455 130.618 21.2213
934 2 4.06215 130.67 21.1533
935 2 7.93431 130.599 21.0129
936 2 11.7127 130.589 21.0653
937 2 15.8357 134.677 21.1352
938 2 3.80793 134.56 21.1542
939 2 8.0277 134.584 21.0313
940 2 11.9013 134.572 20.8465
941 2 15.6868 138.605 21.056
942 2 3.94875 138.432 21.1729
943 2 8.06 138.635 21.0514
944 2 11.8277 138.527 21.0998
945 2 15.606 142.411 21.0407
946 2 3.99037 142.56 21.082
947 2 7.89683 142.466 20.9541
948 2 11.8474 142.376 20.9263
949 2 0.0701913 146.262 20.9946
950 2 3.88645 146.373 20.7971
951 2 7.82855 146.4 21.035
952 2 11.72 146.351 21.0223
953 2 15.5465 150.293 20.8159
954 2 4.0858 150.255 20.9115
955 2 7.86458 150.397 21.0437
956 2 11.7376 150.443 20.892
957 2 -0.182378 154.301 21.0351
958 2 3.71321 153.953 20.6602
959 2 7.80969 154.339 20.9569
960 2 11.6162 154.397 20.7472
961 2 0.244457 158.188 24.7139
962 2 4.04065 158.086 24.8293
963 2 7.70721 158.275 24.8208
964 2 11.7779 158.053 24.8994
965 2 15.8122 3.75325 24.7199
966 2 3.90389 3.71664 24.9156
967 2 7.84634 3.7732 24.9886
968 2 11.8652 3.67474 24.8274
969 2 0.0093759 7.71089 24.7745
970 2 3.95974 7.88672 24.8954
971 2 7.77002 7.57651 24.7612
972 2 11.541 7.68211 24.8031
973 2 -0.0855376 11.6688 24.7174
974 2 3.77231 11.7051 24.5638
975 2 7.93746 11.5414 24.649
976 2 11.7312 11.5827 24.6173
977 2 -0.119045 15.2835 24.7049
978 2 3.82805 15.5649 24.634
979 2 7.91135 15.466 24.4482
980 2 11.7922 15.5579 24.5387
981 2 15.8796 19.3828 24.6174
982 2 3.97703 19.3643 24.6916
983 2 7.78069 19.4557 24.8232
984 2 11.7538 19.4012 24.5237
985 2 0.0247507 23.1605 24.6576
986 2 3.92744 23.3506 24.4576
987 2 7.90261 23.41 24.4649
988 2 11.8797 23.4894 24.4563
989 2 0.104109 27.126 24.5626
990 2 3.83905 27.1503 24.4246
991 2 7.90769 27.0362 24.5806
992 2 11.956 27.1567 24.6004
993 2 0.266249 30.9849 24.5015
994 2 3.93126 30.8828 24.3417
995 2 7.99997 31.245 24.3091