ITEM: TIMESTEP
19300
ITEM: NUMBER OF ATOMS
32000
ITEM: BOX BOUNDS xy xz yz pp pp pp
0.0000000000000000e+00 1.5832000000000001e+01 0.0000000000000000e+00
0.0000000000000000e+00 1.5831999999999999e+02 0.0000000000000000e+00
8.6454871014565526e-01 1.6011256928985159e+02 0.0000000000000000e+00
ITEM: ATOMS id type x y z
1 2 15.7767 157.746 159.854
2 2 3.9218 157.981 160.03
3 2 7.75605 158.004 159.828
4 2 12.065 157.867 160.016
5 2 -0.0941236 3.42497 159.941
6 2 3.7848 3.53143 159.911
7 2 8.09404 3.4974 159.98
8 2 12.1034 3.61809 159.799
9 2 16.0924 7.5826 159.846
10 2 3.91226 7.37838 159.832
11 2 7.82135 7.54164 159.893
12 2 11.9407 7.70129 159.794
13 2 15.9756 11.3393 159.666
14 2 4.07414 11.3428 159.831
15 2 7.93123 11.3248 159.637
16 2 11.6465 11.4284 159.753
17 2 -0.0850227 15.2239 159.72
18 2 3.95787 15.225 159.818
19 2 7.89668 15.389 159.834
20 2 11.831 15.4853 159.821
21 2 16.0283 19.16 159.636
22 2 4.10747 19.1837 159.748
23 2 7.79285 19.0699 159.768
24 2 11.8598 19.2263 159.829
25 2 15.8499 23.1762 159.72
26 2 3.76793 23.195 159.737
27 2 7.83137 23.2315 159.733
28 2 11.8407 23.2675 159.971
29 2 15.6596 27.2138 159.88
30 2 3.986 27.2044 159.835
31 2 7.7101 27.5261 159.818
32 2 11.6908 27.23 160.069
33 2 15.859 31.1764 159.949
34 2 3.7793 31.2831 0.530561
35 2 7.90154 31.1901 159.943
36 2 11.8346 31.1253 159.854
37 2 0.165253 35.1639 159.925
38 2 3.95361 35.1479 159.877
39 2 8.03082 35.2143 159.947
40 2 11.7657 35.3111 159.959
41 2 0.127966 39.2498 160.238
42 2 3.98301 39.1995 0.655004
43 2 7.9286 39.264 0.751608
44 2 11.9746 39.1054 0.51862
45 2 0.041703 43.2397 160.141
46 2 4.07603 43.3205 160.079
47 2 7.96337 43.1909 0.764369
48 2 11.9657 43.0784 0.833013
49 2 -0.126818 47.0974 0.847322
50 2 3.99177 47.2763 0.81473
51 2 7.98945 47.4023 0.979566
52 2 11.9413 47.1341 0.740349
53 2 -0.198138 51.2534 1.04443
54 2 4.10897 51.2317 1.2458
55 2 8.13827 51.1243 1.01734
56 2 11.7589 51.1411 1.12805
57 2 16.0067 55.3974 1.09985
58 2 4.00755 55.2287 0.943207
59 2 7.97252 55.2323 1.10904
60 2 11.7968 55.3184 1.13603
61 2 0.0169663 59.2461 1.0727
62 2 3.93854 59.4638 1.30602
63 2 7.92017 59.383 1.22248
64 2 11.9402 59.2125 1.11171
65 2 -0.0679916 63.2993 1.2014
66 2 3.95058 63.2994 1.17345
67 2 7.72672 63.4905 1.29125
68 2 11.8211 63.2158 1.26239
69 2 15.7126 67.3308 1.21373
70 2 3.65163 67.5658 1.35441
71 2 7.76911 67.3593 1.27436
72 2 11.5331 67.4827 1.32453
73 2 -0.141684 71.577 1.5954
74 2 3.85563 71.5205 1.36982
75 2 7.8191 71.5755 1.45163
76 2 11.8474 71.6588 1.48868
77 2 -0.164877 75.6503 1.38325
78 2 3.88704 75.4354 1.44404
79 2 7.72832 75.6795 1.40224
80 2 11.7557 75.4154 1.49431
81 2 -0.050344 79.4528 1.45869
82 2 4.02248 79.3913 1.51211
83 2 8.10978 79.4057 1.59426
84 2 11.7701 79.3787 1.40928
85 2 0.0325436 83.5415 1.50973
86 2 4.03128 83.3583 1.47273
87 2 7.81984 83.4543 1.27356
88 2 11.8609 83.4698 1.52158
89 2 0.310682 87.3105 1.55215
90 2 4.08193 87.3925 1.48809
91 2 7.95149 87.3403 1.42815
92 2 11.8174 87.3169 1.65158
93 2 0.0400516 91.2148 1.30685
94 2 4.00152 91.4387 1.45023
95 2 8.05018 91.4774 1.34647
96 2 12.182 91.3668 1.56766
97 2 15.9497 95.5264 1.40289
98 2 4.11124 95.5227 1.54929
99 2 7.99766 95.2952 1.57488
100 2 12.1361 95.2807 1.46522
101 2 0.00320768 99.16 1.53524
102 2 4.24201 99.3786 1.30758
103 2 8.2016 99.1595 1.44183
104 2 11.8826 99.4502 1.38178
105 2 0.11933 103.058 1.21009
106 2 4.04958 103.077 1.40045
107 2 7.99058 103.13 1.4344
108 2 12.0655 103.199 1.47727
109 2 0.214974 107.052 1.16449
110 2 4.05866 107.115 1.36599
111 2 7.89595 107.059 1.39649
112 2 11.8878 106.96 1.35654
113 2 0.0182217 111.007 1.18654
114 2 4.07074 111.13 1.22965
115 2 7.87231 110.95 1.30594
116 2 12.1572 110.901 1.2123
117 2 15.9608 115.061 1.0453
118 2 4.04764 114.947 1.20804
119 2 8.09395 114.924 1.09788
120 2 11.9441 114.755 1.34334
121 2 0.0904319 118.758 0.978931
122 2 3.98798 118.865 1.22696
123 2 7.99581 118.876 1.04627
124 2 11.9896 118.733 1.04563
125 2 15.9352 122.559 0.972604
126 2 4.03778 122.819 0.932558
127 2 7.90111 122.708 0.967329
128 2 11.6885 122.62 1.02009
129 2 -0.0579311 126.589 1.00086
130 2 4.01015 126.715 0.990153
131 2 7.83598 126.759 0.994624
132 2 11.9413 126.354 1.00915
133 2 16.1253 130.425 0.980087
134 2 4.12457 130.67 0.937348
135 2 8.10419 130.657 0.95547
136 2 12.0855 130.387 0.929935
137 2 16.0533 134.351 0.840605
138 2 4.09382 134.338 1.04149
139 2 7.99812 134.618 160.198
140 2 12.0698 134.283 0.773464
141 2 -0.0616891 138.398 0.783602
142 2 4.15737 138.366 160.189
143 2 8.02207 138.368 160.096
144 2 11.8908 138.327 0.816762
145 2 15.9352 142.336 160.12
146 2 4.03533 142.206 160.141
147 2 7.99852 142.285 160.046
148 2 11.738 142.212 160.111
149 2 -0.228732 146.114 160.16
150 2 3.90097 146.197 160.134
151 2 7.76677 146.283 160.117
152 2 11.8675 146.231 160.191
153 2 15.7635 150.027 160.028
154 2 3.89414 150.083 160.007
155 2 7.75517 150.048 160.195
156 2 11.752 150.361 0.638371
157 2 15.8465 153.892 159.805
158 2 3.85025 153.983 160.001
159 2 7.85814 154.042 159.912
160 2 12.0428 154.07 159.857
161 2 15.8546 157.864 4.73362
162 2 4.20885 157.89 4.699
163 2 7.89574 157.988 4.72485
164 2 11.8287 157.998 4.77147
165 2 -0.0898816 3.46836 4.67099
166 2 4.02708 3.49266 4.6016
167 2 7.92803 3.52593 4.5328
168 2 11.6814 3.69442 4.467
169 2 0.0763083 7.52556 4.64945
170 2 4.05376 7.48286 4.6908
171 2 7.88777 7.50363 4.32787
172 2 11.9927 7.44041 4.52931
173 2 0.0808649 11.2995 4.40998
174 2 4.05655 11.4518 4.68778
175 2 7.8362 11.4081 4.55044
176 2 11.8531 11.6004 4.71497
177 2 16.0554 15.4449 4.4648
178 2 4.02604 15.4635 4.51803
179 2 7.92937 15.2685 4.6186
180 2 12.0164 15.4924 4.39253
181 2 -0.117635 19.3268 4.59491
182 2 3.99808 19.3118 4.61891
183 2 7.91456 19.0967 4.76114
184 2 11.9326 19.4889 4.65299
185 2 -0.0684212 22.9994 4.50494
186 2 3.90529 23.1272 4.54598
187 2 7.80691 23.0331 4.5622
188 2 11.7185 23.1073 4.47772
189 2 15.9687 27.0993 4.70496
190 2 3.97836 27.1585 4.53033
191 2 7.82585 27.2014 4.56671
192 2 11.7679 27.0899 4.65562
193 2 0.130541 31.1537 4.7126
194 2 4.02312 31.3381 4.52294
195 2 7.98623 31.2227 4.72998
196 2 11.9448 31.4099 4.49949
197 2 0.112256 35.1424 4.62989
198 2 3.94714 35.1508 4.38674
199 2 8.01693 35.2017 4.61413
200 2 11.9515 35.3382 4.63049
201 2 16.0676 39.1558 4.64396
202 2 4.32229 39.2648 4.60933
203 2 7.90203 39.0224 4.66539
204 2 11.9458 39.0979 4.72595
205 2 0.105755 43.173 4.6647
206 2 4.12393 43.2318 4.78644
207 2 7.97874 43.239 4.69882
208 2 11.9444 43.3631 4.83901
209 2 0.0836032 47.2594 4.86641
210 2 4.01218 47.3188 4.6594
211 2 7.81638 47.2719 4.87738
212 2 11.7966 47.2581 4.85851
213 2 -0.0523403 51.0936 4.92284
214 2 3.9049 51.243 4.89818
215 2 7.83105 51.2717 5.05761
216 2 11.9897 51.0969 5.02959
217 2 0.0151293 55.3497 4.94934
218 2 4.02833 55.1969 4.96335
219 2 8.02725 55.3316 5.08635
220 2 11.9262 55.2393 4.92017
221 2 15.8548 59.2646 5.00183
222 2 4.0331 59.3138 5.01607
223 2 7.91472 59.2048 5.12155
224 2 11.9527 59.2161 4.95587
225 2 -0.0487929 63.4465 5.15627
226 2 4.09388 63.3909 5.44342
227 2 7.96624 63.3521 5.1253
228 2 11.9142 63.3538 4.98057
229 2 15.7383 67.5125 5.05987
230 2 3.73118 67.4698 5.25121
231 2 7.82563 67.3662 5.25318
232 2 11.9951 67.405 5.23452
233 2 15.8989 71.4252 5.49833
234 2 4.01046 71.3932 5.20907
235 2 7.8766 71.4136 5.33274
236 2 11.7128 71.5597 5.08268
237 2 15.8931 75.2906 5.50597
238 2 3.91362 75.4835 5.41929
239 2 7.86684 75.4264 5.41842
240 2 11.8847 75.3019 5.33655
241 2 -0.082143 79.3624 5.5214
242 2 3.87672 79.5289 5.22749
243 2 7.84655 79.5496 5.37228
244 2 11.9149 79.5906 5.39727
245 2 16.0304 83.3723 5.52337
246 2 3.94085 83.5803 5.51094
247 2 7.86175 83.5544 5.39245
248 2 11.8999 83.4245 5.45604
249 2 0.235104 87.3725 5.53353
250 2 4.25231 87.6432 5.45053
251 2 8.08672 87.4648 5.47302
252 2 12.0605 87.3553 5.50525
253 2 0.049733 91.2663 5.38923
254 2 4.20535 91.3864 5.49181
255 2 8.02208 91.4022 5.22399
256 2 11.8265 91.3452 5.4003
257 2 15.8445 95.3593 5.48513
258 2 3.81596 95.2664 5.44028
259 2 8.06171 95.3043 5.55126
260 2 11.9774 95.144 5.40707
261 2 -0.095554 99.3484 5.2728
262 2 4.018 99.2238 5.40553
263 2 8.06358 99.2287 5.54756
264 2 11.9287 99.1926 5.40834
265 2 0.143699 103.167 5.31725
266 2 3.9097 103.247 5.34595
267 2 8.06064 103.138 5.55386
268 2 12.0106 103.224 5.54685
269 2 16.0002 107.237 5.49865
270 2 4.05134 106.983 5.3681
271 2 7.9672 107.256 5.28021
272 2 12.0653 106.977 5.32559
273 2 16.0425 111.14 5.29866
274 2 4.03313 111.161 5.1799
275 2 8.26601 111.148 5.23549
276 2 12.0402 110.964 5.23568
277 2 -0.00656221 114.913 5.16807
278 2 4.10745 114.947 5.23452
279 2 8.12381 115.011 5.21276
280 2 11.9808 114.949 5.21987
281 2 0.0953587 119.026 5.12553
282 2 4.0883 118.952 5.24619
283 2 7.97003 118.981 5.03369
284 2 12.2096 118.747 5.11205
285 2 16.0628 122.922 4.93905
286 2 3.93014 122.884 4.9089
287 2 7.92447 122.915 5.0792
288 2 11.9217 122.802 5.00266
289 2 -0.0545245 126.619 5.07554
290 2 3.83319 126.745 5.03746
291 2 7.99985 126.828 5.05537
292 2 11.9365 126.674 4.92904
293 2 -0.083383 130.624 4.91374
294 2 3.77778 130.639 5.02649
295 2 7.89905 130.687 5.05126
296 2 11.7474 130.678 5.17747
297 2 16.0358 134.491 4.77295
298 2 4.05542 134.456 5.08701
299 2 8.06744 134.344 4.94428
300 2 12.0162 134.403 4.83313
301 2 -0.155543 138.391 5.03789
302 2 3.94269 138.28 4.9636
303 2 7.87327 138.235 5.11301
304 2 11.9425 138.335 4.69258
305 2 -0.153433 142.229 4.80564
306 2 3.95871 142.213 4.92533
307 2 7.73551 142.205 4.96571
308 2 11.68 142.37 4.84698
309 2 15.8711 146.197 4.85094
310 2 3.96956 146.276 4.97167
311 2 7.7844 146.19 4.89873
312 2 11.8875 146.214 4.80146
313 2 15.9463 150.13 4.81484
314 2 3.7384 150.299 4.85308
315 2 8.01574 150.063 4.7283
316 2 11.8757 150.238 4.76381
317 2 15.7371 153.989 4.74164
318 2 4.07192 153.921 4.81724
319 2 7.70124 154.006 4.94896
320 2 11.8024 154.058 4.64977
321 2 15.6926 158.035 8.76207
322 2 3.80699 157.897 8.728
323 2 7.7654 158.038 8.7369
324 2 11.7692 157.93 8.75724
325 2 15.6354 3.40107 8.67528
326 2 3.85502 3.58934 8.59411
327 2 7.79888 3.67091 8.66358
328 2 11.7715 3.41472 8.76539
329 2 15.7596 7.36273 8.66441
330 2 3.9054 7.42161 8.72613
331 2 7.76735 7.51779 8.639
332 2 11.673 7.35532 8.48696
333 2 -0.0163097 11.539 8.65828
334 2 4.07578 11.4203 8.6932
335 2 8.01505 11.3776 8.74197
336 2 12.0129 11.3988 8.62627
337 2 15.8987 15.2211 8.68155
338 2 4.07292 15.2076 8.47034
339 2 8.07372 15.1443 8.66158
340 2 12.0812 15.3194 8.62653
341 2 -0.0675609 19.137 8.39125
342 2 4.00979 19.165 8.53286
343 2 7.94977 19.1201 8.49653
344 2 11.7425 19.3497 8.59607
345 2 -0.134838 23.1807 8.60213
346 2 3.97816 22.8952 8.55847
347 2 7.68249 23.0833 8.38157
348 2 11.9724 23.0457 8.49547
349 2 -0.154614 27.356 8.49208
350 2 3.91763 27.0321 8.55416
351 2 8.02786 27.0329 8.46574
352 2 11.952 27 8.5213
353 2 0.0953422 31.0517 8.49981
354 2 4.01834 31.0185 8.48377
355 2 7.98386 31.0191 8.46775
356 2 11.7939 31.087 8.53761
357 2 16.0825 35.0862 8.4842
358 2 4.22443 35.0652 8.52048
359 2 7.94254 35.0347 8.68238
360 2 11.9779 35.0127 8.64854
361 2 0.0735005 39.1181 8.68993
362 2 4.02426 39.0083 8.60417
363 2 7.94432 39.203 8.73287
364 2 11.8836 39.1393 8.5151
365 2 0.196098 43.1015 8.6289
366 2 4.14659 43.1986 8.70965
367 2 7.9457 43.0065 8.72701
368 2 12.0892 43.1015 8.76009
369 2 0.236249 47.0739 8.81595
370 2 3.74384 47.0437 8.70043
371 2 7.76364 47.0753 8.79279
372 2 11.7679 47.1186 8.74815
373 2 15.8265 51.1501 8.73293
374 2 3.96148 51.1872 8.80822
375 2 7.83039 51.0119 9.07421
376 2 11.8161 51.1112 8.82167
377 2 15.9503 55.2217 8.9125
378 2 3.96461 55.1496 8.89633
379 2 7.95834 55.2401 8.85268
380 2 11.8417 55.1411 8.81361
381 2 0.0149747 59.2442 8.94408
382 2 3.89453 59.1846 8.89623
383 2 7.96415 59.2808 9.01788
384 2 12.0246 59.2563 8.85562
385 2 0.0014851 63.0908 9.01412
386 2 4.1033 63.2566 8.99795
387 2 8.10071 63.1852 8.92227
388 2 11.9915 63.3286 8.98393
389 2 15.8892 67.1908 9.05264
390 2 3.88176 67.2931 9.21408
391 2 7.83344 67.4794 9.01719
392 2 11.9824 67.1605 9.20522
393 2 15.9493 71.433 9.20003
394 2 4.1331 71.3682 9.37126
395 2 8.05356 71.4526 9.29934
396 2 11.9665 71.2747 9.12103
397 2 15.8154 75.4334 9.473
398 2 3.92103 75.4376 9.34517
399 2 8.06743 75.4046 9.29487
400 2 11.8643 75.5943 9.38183
401 2 15.8282 79.3247 9.17797
402 2 4.02314 79.5259 9.30632
403 2 7.79282 79.2667 9.24913
404 2 11.9437 79.4774 9.4179
405 2 0.135269 83.6035 9.15891
406 2 4.03073 83.3555 9.46079
407 2 8.0361 83.4824 9.16593
408 2 12.0306 83.5331 9.43114
409 2 0.174222 87.4614 9.32849
410 2 4.15924 87.5948 9.56784
411 2 8.06662 87.4987 9.63585
412 2 11.9749 87.5964 9.41943
413 2 0.00312301 91.3475 9.46879
414 2 3.97402 91.7144 9.31535
415 2 7.92757 91.5575 9.52456
416 2 11.8191 91.5149 9.4903
417 2 15.9085 95.3739 9.4761
418 2 3.80804 95.5402 9.38101
419 2 7.86565 95.3311 9.51128
420 2 11.9752 95.2714 9.398
421 2 16.062 99.3249 9.49243
422 2 3.9956 99.2291 9.53167
423 2 7.73368 99.2856 9.47934
424 2 11.9572 98.9267 9.39617
425 2 0.0117277 103.243 9.32062
426 2 4.23724 103.281 9.31838
427 2 7.99731 103.19 9.31343
428 2 11.9329 103.051 9.33535
429 2 0.0143897 107.063 9.4803
430 2 3.82069 107.256 9.27606
431 2 7.95451 107.124 9.27866
432 2 12.0101 107.063 9.49671
433 2 15.97 111.098 9.31749
434 2 4.10161 110.871 9.31983
435 2 7.96397 111.275 9.10698
436 2 11.8741 111.227 9.38897
437 2 -0.0248149 114.962 9.28397
438 2 4.03018 114.969 9.28023
439 2 8.08961 114.99 9.10111
440 2 12.0204 115.079 9.24282
441 2 0.165013 118.794 9.25688
442 2 4.2321 118.904 9.02631
443 2 8.26459 118.765 8.93045
444 2 12.0107 118.887 9.0865
445 2 15.9023 122.661 8.98312
446 2 4.02555 122.839 9.03867
447 2 7.89164 122.7 9.06394
448 2 11.7151 122.741 9.19056
449 2 15.8092 126.76 9.13903
450 2 4.07096 126.707 9.10321
451 2 7.8469 126.636 9.08647
452 2 11.6693 126.89 8.91643
453 2 -0.186029 130.58 8.88175
454 2 3.79972 130.476 8.89923
455 2 7.8573 130.629 8.99352
456 2 11.7514 130.688 9.21058
457 2 0.00383674 134.367 8.9351
458 2 3.90732 134.476 9.01659
459 2 7.96221 134.609 9.0771
460 2 11.9039 134.621 8.98264
461 2 0.15681 138.413 8.98867
462 2 4.03606 138.46 8.81514
463 2 8.08282 138.422 9.14059
464 2 11.9483 138.665 9.04459
465 2 -0.111358 142.293 8.98137
466 2 3.99987 142.464 8.951
467 2 8.12241 142.367 8.8747
468 2 12.0285 142.315 8.74901
469 2 16.0279 146.262 8.86584
470 2 4.00091 146.305 8.93486
471 2 7.95493 146.442 8.92152
472 2 12.0655 146.402 8.85996
473 2 15.9245 150.208 8.86752
474 2 3.99532 150.016 8.83117
475 2 8.02496 150.228 8.943
476 2 12.0152 150.22 8.79309
477 2 15.8409 154.236 8.69954
478 2 3.99227 154.008 8.80993
479 2 7.87192 154.161 9.03237
480 2 11.8393 154.273 8.65437
481 2 15.7112 157.973 12.895
482 2 3.9258 158.139 12.7656
483 2 7.6631 158.046 12.7346
484 2 11.7833 157.941 12.8315
485 2 15.8513 3.5576 12.7454
486 2 3.8194 3.34785 12.7046
487 2 7.8014 3.54163 12.8845
488 2 11.8576 3.70828 12.5568
489 2 15.7871 7.58129 12.6963
490 2 3.96505 7.25283 12.6364
491 2 7.94199 7.52552 12.8471
492 2 11.9321 7.54277 12.7355
493 2 0.00446517 11.396 12.8184
494 2 4.17249 11.3986 12.6702
495 2 7.9787 11.4504 12.8145
496 2 11.8082 11.5036 12.7411
497 2 -0.026183 15.5759 12.6518
498 2 3.80875 15.5018 12.5502
499 2 8.07364 15.3408 12.6284
500 2 11.7259 15.324 12.4835
501 2 -0.0404281 19.3492 12.4594
502 2 3.85189 19.1131 12.4832
503 2 7.93886 19.2623 12.618
504 2 11.8135 19.2861 12.6722
505 2 -0.0524449 23.3742 12.5228
506 2 3.83936 22.9449 12.4609
507 2 7.83983 23.2992 12.3531
508 2 11.8262 23.2399 12.5246
509 2 -0.00701353 27.126 12.5426
510 2 4.01126 26.9858 12.6361
511 2 7.99879 27.1207 12.4634
512 2 11.9731 26.9833 12.593
513 2 0.175497 31.1099 12.383
514 2 4.19936 30.8852 12.2575
515 2 7.93147 30.8119 12.2961
516 2 11.8877 31.0659 12.4539
517 2 0.142362 35.1529 12.3291
518 2 4.07885 34.9101 12.4278
519 2 7.94513 34.8909 12.5231
520 2 11.7605 35.1527 12.5297
521 2 -0.0225489 38.9209 12.5312
522 2 4.19235 38.8918 12.5363
523 2 7.94362 38.8419 12.4548
524 2 11.8712 39.1707 12.5345
525 2 0.0818154 42.9913 12.6518
526 2 3.97204 42.9864 12.6236
527 2 7.86507 43.0123 12.544
528 2 12.0103 42.9143 12.7423
529 2 0.135878 47.112 12.6888
530 2 4.06166 47.3452 12.8217
531 2 7.9668 47.0181 12.7741
532 2 11.7598 46.8785 12.6595
533 2 -0.0505661 51.0938 12.7476
534 2 3.90992 51.1713 12.703
535 2 7.96451 51.0544 12.8974
536 2 11.9036 50.9261 12.8069
537 2 15.8215 55.0024 12.673
538 2 3.97971 55.1538 12.72
539 2 8.0842 55.1585 12.6172
540 2 11.9745 55.0634 12.7015
541 2 15.8951 59.2275 12.9194
542 2 3.9851 59.1767 12.8845
543 2 8.00605 59.2377 12.7989
544 2 11.7691 59.1389 12.886
545 2 16.0841 63.0978 12.8334
546 2 4.07452 63.114 12.9452
547 2 7.94559 63.2765 12.8563
548 2 11.8998 63.1883 12.702
549 2 0.00634337 67.1996 13.0004
550 2 3.97934 67.1587 13.1111
551 2 8.02044 67.3281 12.9531
552 2 11.8802 67.0539 13.1221
553 2 -0.0774534 71.1983 13.0662
554 2 3.96757 71.4398 13.1968
555 2 7.74569 71.2189 13.1701
556 2 11.8831 71.2337 13.2062
557 2 -0.151116 75.3035 13.2865
558 2 3.85745 75.2983 13.2929
559 2 7.90935 75.2899 13.2057
560 2 11.8405 75.4428 13.287
561 2 -0.116347 79.1759 13.2614
562 2 3.87823 79.3824 13.2021
563 2 7.69939 79.3824 13.1165
564 2 11.7161 79.4086 13.1223
565 2 0.135488 83.2944 13.274
566 2 4.02869 83.3782 13.2536
567 2 8.07909 83.3597 13.3108
568 2 12.0347 83.5524 13.4062
569 2 0.176133 87.3432 13.3067
570 2 4.11562 87.4622 13.3172
571 2 7.92515 87.3212 13.4364
572 2 12.1175 87.4934 13.2685
573 2 0.183142 91.3606 13.4823
574 2 4.09386 91.6227 13.4578
575 2 7.96959 91.584 13.5043
576 2 12.0647 91.5215 13.4788
577 2 0.00778846 95.2889 13.4771
578 2 3.85432 95.4457 13.5311
579 2 7.82961 95.4455 13.4996
580 2 11.7605 95.2564 13.548
581 2 -0.127083 99.133 13.4451
582 2 3.92165 99.3951 13.3448
583 2 7.9528 99.3057 13.3763
584 2 11.7078 99.2236 13.3196
585 2 -0.020881 103.103 13.1776
586 2 3.97105 103.079 13.2566
587 2 7.93978 103.256 13.3095
588 2 11.9859 103.306 13.4388
589 2 -0.0260775 107.164 13.4244
590 2 3.99084 107.163 13.2906
591 2 8.03583 107.008 13.3447
592 2 11.7556 107.152 13.2597
593 2 0.048181 111.019 13.2925
594 2 3.99676 110.909 13.2778
595 2 7.85318 111.094 13.3786
596 2 11.7756 111.018 13.23
597 2 0.11011 114.859 13.2326
598 2 3.96911 114.994 13.3226
599 2 7.89267 115.117 13.2652
600 2 11.7588 115.077 13.2422
601 2 0.124567 118.981 13.2849
602 2 3.95903 119.028 13.1154
603 2 7.96631 118.96 13.2803
604 2 11.863 118.907 13.0777
605 2 -0.0549826 123.039 12.9819
606 2 3.97082 122.831 12.9177
607 2 7.98946 122.828 13.1815
608 2 11.9804 122.737 13.0475
609 2 -0.23557 126.822 13.2926
610 2 3.88918 126.704 13.1126
611 2 7.88112 126.651 13.1097
612 2 11.9183 126.654 12.8769
613 2 15.8651 130.673 12.8137
614 2 3.88945 130.664 13.0589
615 2 7.92326 130.774 13.1328
616 2 11.8596 130.652 13.0851
617 2 16.1755 134.588 12.8222
618 2 4.06781 134.397 12.9964
619 2 7.97962 134.575 13.0757
620 2 11.9776 134.59 13.3062
621 2 0.245747 138.534 12.9794
622 2 4.07909 138.286 12.859
623 2 7.81195 138.695 13.2017
624 2 11.8142 138.497 13.061
625 2 16.0448 142.331 12.9246
626 2 4.22519 142.356 13.0292
627 2 8.14843 142.466 13.0415
628 2 11.9937 142.359 12.9809
629 2 -0.0084292 146.195 12.7747
630 2 3.94852 146.312 12.9434
631 2 8.05579 146.354 12.9509
632 2 12.1264 146.217 13.1083
633 2 -0.142193 150.357 12.9217
634 2 3.95642 150.221 12.7232
635 2 7.85888 150.267 12.898
636 2 11.9586 150.205 12.9159
637 2 16.0648 154.293 12.8071
638 2 4.072 154.158 12.6636
639 2 7.99426 154.111 12.9149
640 2 12.0319 153.962 12.82
641 2 -0.112454 157.866 16.7714
642 2 3.90464 -0.474482 16.8824
643 2 8.04606 158.091 16.8587
644 2 11.9524 157.929 16.6852
645 2 15.8513 3.62064 16.8013
646 2 3.89186 3.77101 16.8353
647 2 7.8992 3.53559 16.829
648 2 11.7711 3.60608 16.6245
649 2 -0.0552593 7.60285 16.79
650 2 3.79215 7.65258 16.6864
651 2 7.9151 7.56284 16.8345
652 2 11.8965 7.41485 16.7321
653 2 -0.0519399 11.4722 16.703
654 2 4.19643 11.4776 16.4866
655 2 7.92434 11.5616 16.6284
656 2 11.9102 11.4711 16.7885
657 2 0.0918873 15.3713 16.6754
658 2 3.96427 15.4731 16.6227
659 2 7.85585 15.5299 16.5955
660 2 11.9088 15.512 16.5782
661 2 15.9629 19.3968 16.6144
662 2 4.05953 19.2818 16.5016
663 2 8.1639 19.1067 16.628
664 2 12.0437 19.2848 16.7243
665 2 0.119321 23.2144 16.6546
666 2 3.85402 23.0751 16.564
667 2 7.70297 22.9574 16.762
668 2 11.9467 23.2143 16.5734
669 2 -0.214398 27.1728 16.3537
670 2 3.81644 27.0423 16.5176
671 2 7.97927 27.1018 16.5777
672 2 11.9922 27.1683 16.5455
673 2 0.116592 31.0987 16.4369
674 2 4.02286 30.9045 16.3735
675 2 8.02576 30.8825 16.3278
676 2 11.9649 30.8507 16.5209
677 2 -0.0843409 35.0631 16.2006
678 2 4.06231 34.807 16.3952
679 2 7.97691 35.0377 16.467
680 2 11.9734 35.0026 16.409
681 2 0.0876456 38.8696 16.5129
682 2 3.97472 38.9586 16.4317
683 2 7.80214 38.9006 16.3321
684 2 11.867 39.0564 16.4941
685 2 0.056698 42.9817 16.492
686 2 4.04981 43.0619 16.4788
687 2 8.01825 43.1046 16.4117
688 2 12.1272 42.9728 16.6986
689 2 15.9284 46.9504 16.5355
690 2 4.05922 47.1771 16.5653
691 2 8.08937 47.1236 16.6032
692 2 12.1693 47.1249 16.7563
693 2 -0.0224905 51.1487 16.8136
694 2 4.12036 51.1593 16.6036
695 2 7.90925 51.1067 16.5701
696 2 11.9567 50.9998 16.6708
697 2 -0.111198 54.9546 16.6423
698 2 3.96506 55.2564 16.6668
699 2 7.99124 55.0276 16.7208
700 2 11.8119 54.9086 16.6674
701 2 -0.0934882 58.9583 16.8316
702 2 3.98557 59.2019 16.7842
703 2 8.04294 59.0117 16.8617
704 2 11.9192 58.9605 16.6071
705 2 -0.191479 62.9207 16.783
706 2 4.25316 63.0922 16.908
707 2 7.86655 63.0457 16.9114
708 2 11.7898 63.092 16.9061
709 2 0.0638338 67.2366 16.9972
710 2 4.09437 67.0696 16.8721
711 2 7.85933 67.1201 16.8456
712 2 11.9185 67.0906 16.7865
713 2 0.0457306 71.1038 16.9998
714 2 4.03177 71.1555 17.1584
715 2 7.87586 71.2591 16.9869
716 2 11.9264 71.3564 17.015
717 2 0.0109147 75.22 17.1974
718 2 4.00379 75.241 17.1468
719 2 8.09842 75.234 17.2271
720 2 11.6826 75.2992 17.0636
721 2 -0.127841 79.2458 17.098
722 2 3.99846 79.1811 17.1462
723 2 7.91499 79.2672 17.2081
724 2 11.7848 79.4513 17.035
725 2 0.123434 83.3191 17.2388
726 2 4.11213 83.121 17.2324
727 2 8.00029 83.2667 17.2533
728 2 11.9997 83.199 17.1257
729 2 0.0982406 87.2695 17.192
730 2 3.99776 87.2847 17.2225
731 2 7.8694 87.2995 17.2348
732 2 11.7767 87.4311 17.2955
733 2 0.23173 91.3308 17.2514
734 2 4.15479 91.4687 17.2954
735 2 7.86172 91.46 17.2538
736 2 11.919 91.3376 17.4115
737 2 0.0448175 95.4162 17.5845
738 2 4.04924 95.5287 17.4033
739 2 7.99208 95.6317 17.6503
740 2 11.8839 95.3753 17.2935
741 2 0.000898209 99.2867 17.4883
742 2 4.22812 99.503 17.4463
743 2 8.00083 99.5182 17.5429
744 2 11.7795 99.3845 17.2774
745 2 -0.0479023 103.16 17.3197
746 2 3.96681 103.26 17.281
747 2 7.98807 103.486 17.4443
748 2 12.0589 103.411 17.428
749 2 0.057139 106.967 17.2294
750 2 3.85003 107.147 17.2511
751 2 7.84302 107.314 17.221
752 2 11.9224 107.305 17.1357
753 2 -0.122761 111.049 17.2209
754 2 3.98223 111.121 17.1422
755 2 8.04406 111.277 17.2306
756 2 12.0072 111.14 17.3059
757 2 0.195409 114.981 17.244
758 2 4.02903 115.068 17.1536
759 2 8.2575 115.003 17.2707
760 2 12.1556 114.952 17.1382
761 2 -0.0615959 118.931 17.2623
762 2 3.97638 118.859 17.0864
763 2 8.01807 118.976 17.4232
764 2 11.965 118.843 17.1675
765 2 0.000457916 122.807 17.1409
766 2 4.02288 122.759 17.127
767 2 7.93808 122.807 17.2736
768 2 11.8116 122.675 17.1242
769 2 15.706 126.822 17.106
770 2 3.9839 126.806 17.0554
771 2 7.89243 126.707 17.2116
772 2 11.9757 126.938 17.1153
773 2 15.7179 130.669 16.9607
774 2 4.00925 130.542 17.0397
775 2 7.9386 130.679 17.0169
776 2 12.1013 130.695 17.1648
777 2 15.9378 134.592 16.9283
778 2 3.94296 134.425 16.9703
779 2 7.9448 134.508 17.0735
780 2 11.8076 134.621 17.0784
781 2 -0.254445 138.492 17.1063
782 2 3.88133 138.512 16.9263
783 2 8.05886 138.455 17.1124
784 2 11.953 138.538 17.1058
785 2 15.9948 142.629 16.9481
786 2 4.0154 142.532 17.0975
787 2 7.9105 142.491 17.0835
788 2 11.8065 142.532 17.0834
789 2 15.8798 146.483 16.9204
790 2 3.84726 146.43 16.7987
791 2 7.80267 146.253 16.8425
792 2 11.9326 146.349 17.0912
793 2 15.7328 150.394 16.9634
794 2 3.83536 150.143 16.846
795 2 7.80959 150.262 16.9701
796 2 11.7491 150.264 16.8058
797 2 15.793 154.023 16.8164
798 2 3.87208 154.133 16.7739
799 2 7.93006 154.194 16.7811
800 2 11.8302 154.189 16.8738
801 2 15.89 157.998 20.873
802 2 4.1107 158.257 20.9215
803 2 8.03024 158.018 20.854
804 2 11.8532 158.042 20.7787
805 2 -0.188267 3.64178 20.7001
806 2 3.71683 3.60454 20.6715
807 2 7.84228 3.63784 20.697
808 2 11.6791 3.89473 20.6664
809 2 15.7365 7.51616 20.8378
810 2 3.88495 7.62766 20.7116
811 2 7.86338 7.70209 20.7392
812 2 11.7654 7.58712 20.8864
813 2 15.8428 11.4708 20.6264
814 2 4.15702 11.582 20.5804
815 2 7.9942 11.4658 20.6944
816 2 11.7905 11.5119 20.8524
817 2 15.9882 15.3309 20.8049
818 2 3.84864 15.206 20.688
819 2 7.91279 15.3876 20.7286
820 2 11.8686 15.3041 20.7396
821 2 -0.0633473 19.1461 20.6481
822 2 3.90929 19.419 20.6426
823 2 7.91014 19.2711 20.64
824 2 11.7593 19.1678 20.6231
825 2 0.015534 23.4283 20.5812
826 2 3.86307 23.2197 20.6515
827 2 7.91144 23.3025 20.7729
828 2 11.8173 23.1536 20.7149
829 2 16.0276 27.2313 20.598
830 2 4.08514 27.2132 20.528
831 2 7.98411 27.1599 20.4796
832 2 11.9003 27.2234 20.4345
833 2 15.945 31.0082 20.6533
834 2 3.88279 31.1215 20.5663
835 2 7.6751 31.2658 20.3886
836 2 11.8269 31.1813 20.4375
837 2 16.0833 34.9011 20.4072
838 2 4.02454 35.0093 20.4132
839 2 7.97589 34.9205 20.3685
840 2 11.8476 34.8037 20.2439
841 2 -0.116133 38.8906 20.2375
842 2 3.96443 38.816 20.3709
843 2 7.98299 38.7132 20.443
844 2 11.9548 38.9932 20.5238
845 2 15.9342 42.9703 20.3601
846 2 3.92012 42.965 20.2908
847 2 7.89804 42.8537 20.2762
848 2 11.6787 43.099 20.4352
849 2 15.9537 47.0519 20.5711
850 2 3.92184 47.046 20.336
851 2 7.91452 46.9269 20.3773
852 2 12.1591 47.0956 20.6415
853 2 0.0109743 51.1024 20.6135
854 2 3.84373 51.1626 20.5689
855 2 7.75046 51.192 20.4535
856 2 11.7477 51.0609 20.5768
857 2 -0.123396 55.034 20.4944
858 2 4.02677 55.0078 20.549
859 2 7.84592 55.0537 20.6055
860 2 12.0443 55.2098 20.4861
861 2 15.8577 58.9615 20.5586
862 2 3.97025 59.1238 20.594
863 2 7.8744 59.0084 20.676
864 2 11.7842 59.0733 20.759
865 2 16.0076 62.9922 20.7117
866 2 4.0362 62.9292 20.8551
867 2 7.97423 63.0972 20.8986
868 2 12.1347 63.1091 20.7686
869 2 -0.0198707 67.2093 20.8291
870 2 4.04809 67.0195 20.8111
871 2 7.85953 67.1869 21.0044
872 2 11.8166 67.2779 20.8857
873 2 0.127368 71.0871 21.073
874 2 4.00584 71.0526 21.1472
875 2 7.89056 70.9861 20.8603
876 2 11.9167 71.003 21.1421
877 2 0.00395181 75.0049 21.0177
878 2 3.93668 75.1955 20.9306
879 2 8.16406 75.1336 20.9129
880 2 11.9757 75.174 21.0637
881 2 -0.0356155 79.1661 21.0132
882 2 3.89559 79.1254 20.8587
883 2 8.00099 79.3705 21.1282
884 2 11.9612 79.4515 21.0844
885 2 0.0314089 83.2748 21.0752
886 2 4.00125 83.1007 21.0762
887 2 8.05956 83.2775 21.2081
888 2 11.7554 83.2598 21.0784
889 2 -0.127734 87.2318 21.071
890 2 3.99784 87.1776 21.0118
891 2 7.86549 87.1873 20.9705
892 2 11.8646 87.4182 21.2312
893 2 0.0235678 91.2585 20.9767
894 2 3.89583 91.3307 21.1081
895 2 8.27363 91.5302 21.213
896 2 12.0478 91.2913 21.3409
897 2 -0.0254811 95.1646 21.4509
898 2 4.01001 95.3156 21.2516
899 2 7.88895 95.4022 21.4727
900 2 11.8466 95.1741 21.3461
901 2 0.0489687 99.2868 21.4365
902 2 4.12247 99.5775 21.3018
903 2 8.01977 99.4987 21.4467
904 2 12.1569 99.2612 21.6206
905 2 -0.0165356 103.415 21.4188
906 2 4.07905 103.476 21.417
907 2 7.94405 103.399 21.4384
908 2 11.9695 103.293 21.5212
909 2 0.0603524 107.399 21.2902
910 2 3.89903 107.271 21.4116
911 2 7.98598 107.288 21.293
912 2 11.8545 107.286 21.5294
913 2 0.0983376 111.197 21.4431
914 2 4.1978 111.049 21.2122
915 2 7.98756 111.254 21.3088
916 2 11.8731 111.168 21.2024
917 2 15.9747 115.12 21.3518
918 2 3.96352 114.96 21.3658
919 2 7.94615 115.155 21.2203
920 2 12.0505 115.259 21.2255
921 2 -0.00963236 118.928 21.3132
922 2 4.09052 118.952 21.3056
923 2 8.13049 118.998 21.0712
924 2 12.0783 119.053 21.242
925 2 15.96 122.996 21.2051
926 2 4.19118 122.816 21.3203
927 2 8.11312 122.977 21.1476
928 2 12.0394 123.033 21.0648
929 2 16.0203 126.729 21.1187
930 2 4.14924 126.76 21.0905
931 2 8.03626 126.714 21.1148
932 2 12.1741 126.841 21.1145
933 2 15.9441 130.734 20.9588
934 2 3.94859 130.702 20.9708
935 2 7.89829 130.798 20.9154
936 2 11.9923 130.514 21.027
937 2 0.0265234 134.537 21.1209
938 2 4.04054 134.722 21.0214
939 2 7.94098 134.694 21.2735
940 2 11.7598 134.629 21.1491
941 2 15.9441 138.538 21.0216
942 2 3.83165 138.553 20.8995
943 2 7.90261 138.505 21.0292
944 2 12.1663 138.442 20.9634
945 2 15.8291 142.493 21.108
946 2 3.98569 142.384 21.0228
947 2 7.88497 142.419 21.0468
948 2 11.8939 142.426 21.0065
949 2 15.8589 146.342 21.1024
950 2 4.03722 146.383 20.8069
951 2 7.80412 146.368 20.9503
952 2 11.8112 146.255 20.9451
953 2 15.9476 150.217 20.9025
954 2 3.92795 150.226 20.9069
955 2 7.78775 150.155 20.843
956 2 11.8088 150.369 20.8446
957 2 15.9797 154.192 20.8951
958 2 3.98229 154.297 21.0019
959 2 7.80884 154.073 20.6216
960 2 11.9618 154.061 20.9034
961 2 -0.363685 158.126 25.0909
962 2 3.751 158.142 24.8692
963 2 7.95258 158.262 24.9387
964 2 11.7069 158.032 24.5835
965 2 15.5448 3.47115 24.7929
966 2 3.87475 3.65829 25.0572
967 2 7.65823 3.73677 24.8259
968 2 11.6784 3.69564 24.7345
969 2 15.7075 7.51467 24.9016
970 2 3.83439 7.39513 24.7368
971 2 7.82261 7.63708 24.6985
972 2 11.9072 7.47651 24.9641
973 2 15.8653 11.4248 24.8971
974 2 3.72091 11.4824 24.6317
975 2 7.75546 11.3604 24.7261
976 2 11.7467 11.5258 24.8551
977 2 -0.0471906 15.5655 24.8461
978 2 3.95743 15.3338 24.9053
979 2 7.85507 15.5045 24.9568
980 2 11.7076 15.2915 24.7751
981 2 -0.0685053 19.3396 24.6771
982 2 4.0219 19.4067 24.6548
983 2 7.81236 19.0202 24.5483
984 2 11.949 19.2761 24.7056
985 2 0.0778429 23.2869 24.641
986 2 4.10119 23.1266 24.5923
987 2 7.99689 23.1639 24.5662
988 2 11.9384 23.1479 24.5446
989 2 0.0590325 27.3954 24.6126
990 2 3.99825 27.1684 24.534
991 2 7.89474 27.2085 24.5675
992 2 11.9216 27.0785 24.552