ITEM: TIMESTEP
19800
ITEM: NUMBER OF ATOMS
32000
ITEM: BOX BOUNDS xy xz yz pp pp pp
0.0000000000000000e+00 1.5832000000000001e+01 0.0000000000000000e+00
0.0000000000000000e+00 1.5831999999999999e+02 0.0000000000000000e+00
8.1931945727482969e-01 1.6015779854272193e+02 0.0000000000000000e+00
ITEM: ATOMS id type x y z
1 2 15.8318 157.901 160.021
2 2 4.02718 157.761 159.844
3 2 7.97537 157.863 159.909
4 2 11.9134 158.048 160.114
5 2 0.231481 3.62115 159.913
6 2 4.14511 3.39577 160.055
7 2 7.94207 3.33056 160.042
8 2 11.8229 3.52795 159.975
9 2 15.8544 7.25311 159.86
10 2 4.1051 7.59461 159.828
11 2 8.03675 7.3618 160.047
12 2 12.03 7.28369 160.008
13 2 15.7913 11.511 159.778
14 2 3.93749 11.4027 159.768
15 2 8.01064 11.4155 159.962
16 2 11.8758 11.1757 159.865
17 2 0.0085101 15.0939 159.633
18 2 3.97502 15.1001 159.759
19 2 7.84603 15.1242 159.732
20 2 11.7466 15.0254 159.881
21 2 15.624 19.0762 159.941
22 2 3.57883 19.126 159.816
23 2 7.9069 19.0453 159.795
24 2 11.6379 19.0019 159.758
25 2 15.793 22.9748 159.898
26 2 4.00717 23.1136 159.758
27 2 7.93413 22.8888 159.703
28 2 11.8334 22.9581 159.704
29 2 15.7396 26.9341 159.723
30 2 3.96696 27.0217 159.937
31 2 8.05096 27.1157 159.924
32 2 11.9289 27.0861 159.878
33 2 15.6862 31.137 160.008
34 2 3.97134 31.0513 0.635687
35 2 7.77693 31.0046 159.707
36 2 11.6071 31.203 160.03
37 2 -0.0552902 35.2359 159.904
38 2 3.72536 35.2648 159.945
39 2 7.91936 35.083 159.985
40 2 11.7316 35.288 159.949
41 2 0.00262862 39.1953 159.9
42 2 3.96254 39.2956 0.800117
43 2 7.89182 39.1795 0.841535
44 2 11.9269 39.3473 0.883642
45 2 0.116441 43.3023 160.018
46 2 3.77766 43.3765 159.978
47 2 7.66963 43.3171 0.753733
48 2 11.9748 43.3158 0.834894
49 2 -0.0617337 47.4145 0.981174
50 2 3.79373 47.3237 0.840265
51 2 7.6723 47.41 0.883771
52 2 11.6998 47.4014 0.861815
53 2 -0.04168 51.4333 0.880125
54 2 3.82695 51.5096 0.694959
55 2 7.76601 51.296 0.765899
56 2 11.852 51.4096 1.00885
57 2 15.9188 55.3284 0.957663
58 2 3.99228 55.3519 1.04565
59 2 7.95009 55.189 1.01009
60 2 11.844 55.4053 0.839722
61 2 -0.0544938 59.267 0.901174
62 2 3.97646 59.3333 1.04866
63 2 7.99484 59.3472 0.861155
64 2 11.8624 59.4802 0.965285
65 2 -0.194543 63.3549 1.1852
66 2 3.89262 63.2198 0.920595
67 2 7.84884 63.3845 0.869848
68 2 11.8109 63.2313 0.970891
69 2 15.9368 67.4075 1.16677
70 2 3.83997 67.3382 1.14471
71 2 7.8966 67.3156 1.25574
72 2 11.8373 67.26 1.12848
73 2 -0.107861 71.2802 1.12795
74 2 3.93258 71.3767 1.13029
75 2 7.9495 71.398 1.10561
76 2 11.7274 71.35 1.20521
77 2 0.121495 75.4637 1.35584
78 2 3.95244 75.4341 1.48092
79 2 7.93258 75.4238 1.43821
80 2 11.9319 75.4181 1.49484
81 2 -0.236043 79.479 1.29656
82 2 3.61351 79.5886 1.41567
83 2 7.80028 79.3131 1.45775
84 2 11.5847 79.577 1.29959
85 2 -0.0825088 83.3955 1.26467
86 2 3.80853 83.4853 1.32171
87 2 7.94373 83.5442 1.42499
88 2 11.8896 83.5747 1.36637
89 2 -0.0108199 87.5019 1.32182
90 2 3.89317 87.2521 1.48058
91 2 7.90677 87.352 1.37682
92 2 11.7615 87.3997 1.53599
93 2 -0.0800624 91.2043 1.48312
94 2 3.98692 91.2298 1.5754
95 2 7.82057 91.2653 1.25059
96 2 11.9485 91.3514 1.41426
97 2 15.7202 95.1491 1.38753
98 2 4.08983 95.1285 1.2544
99 2 8.07089 95.2137 1.36538
100 2 11.7749 95.3788 1.5469
101 2 0.0338341 99.3746 1.54403
102 2 3.85819 99.35 1.2948
103 2 7.83848 99.1276 1.28234
104 2 11.9532 98.936 1.31962
105 2 0.0607333 103.148 1.43783
106 2 3.91855 103.077 1.34884
107 2 7.86646 103.167 1.35508
108 2 11.7557 102.82 1.28921
109 2 -0.0914133 106.861 1.19601
110 2 3.89255 107.004 1.3335
111 2 8.08957 107.175 1.34865
112 2 11.8941 107.109 1.13429
113 2 0.0184919 110.858 1.26301
114 2 4.06208 110.827 1.19217
115 2 7.78059 110.86 1.22395
116 2 11.8155 111.017 1.12031
117 2 15.9316 114.804 1.23323
118 2 3.90829 114.764 1.27131
119 2 7.86005 114.817 1.05674
120 2 11.8083 114.784 1.14792
121 2 0.0279889 118.689 1.25292
122 2 4.03677 118.647 1.17039
123 2 8.02205 118.65 1.13928
124 2 11.8969 118.867 1.13565
125 2 15.9218 122.663 1.10227
126 2 4.08755 122.49 1.1742
127 2 8.14183 122.645 1.10685
128 2 12.1273 122.611 1.18842
129 2 0.111771 126.598 0.912619
130 2 3.9361 126.502 1.06514
131 2 7.88716 126.374 0.981797
132 2 12.0505 126.576 0.923296
133 2 15.867 130.474 1.10219
134 2 3.88763 130.242 0.931375
135 2 8.042 130.552 0.70976
136 2 12.0478 130.803 0.852781
137 2 16.0285 134.546 0.955565
138 2 4.18695 134.349 0.947068
139 2 8.1487 134.139 160.182
140 2 11.9691 134.451 1.13098
141 2 0.197916 138.4 0.806449
142 2 4.08944 138.442 160.15
143 2 8.06349 138.343 160.224
144 2 12.1623 138.117 0.90355
145 2 15.9308 142.064 160.355
146 2 3.77608 142.28 160.285
147 2 8.06992 142.159 160.177
148 2 11.8631 142.252 160.211
149 2 -0.260011 146.173 160.049
150 2 3.98016 146.107 159.895
151 2 8.08158 146.12 159.985
152 2 11.9593 146.063 160.119
153 2 15.7355 150.158 160.341
154 2 3.99575 149.941 160.039
155 2 8.02927 150.02 160.146
156 2 12.1001 149.985 0.795251
157 2 15.7597 153.976 160.124
158 2 4.04076 153.898 159.966
159 2 7.9797 153.986 160.108
160 2 11.7676 153.943 159.925
161 2 15.6908 157.859 4.55849
162 2 3.85152 157.834 4.57801
163 2 7.83879 157.8 4.84499
164 2 11.8981 157.862 4.68008
165 2 0.0336613 3.49635 4.60325
166 2 3.8738 3.47014 4.64737
167 2 7.94803 3.43431 4.74766
168 2 11.7845 3.36899 4.77014
169 2 -0.072562 7.51391 4.55098
170 2 4.00494 7.29601 4.64311
171 2 7.84591 7.31605 4.51889
172 2 11.8131 7.42764 4.82164
173 2 0.245868 11.2974 4.50191
174 2 4.13763 11.2531 4.56954
175 2 7.88895 11.376 4.59489
176 2 12.0962 11.3644 4.74622
177 2 15.8851 15.2135 4.68652
178 2 3.95916 15.1743 4.50923
179 2 7.87231 15.2327 4.57188
180 2 11.9361 15.1066 4.4982
181 2 -0.252389 19.1001 4.4494
182 2 3.89764 19.0043 4.4148
183 2 7.68552 18.8862 4.45698
184 2 11.7344 19.0075 4.26765
185 2 -0.0506219 22.9434 4.36016
186 2 3.93669 23.0522 4.37403
187 2 7.73644 22.9755 4.44886
188 2 11.8469 23.2029 4.55652
189 2 15.9375 27.0942 4.32361
190 2 4.05251 27.1039 4.47382
191 2 8.02679 27.0295 4.38334
192 2 11.9949 26.9964 4.37474
193 2 -0.182478 31.0124 4.49292
194 2 3.97829 30.9532 4.43832
195 2 7.76116 31.058 4.46626
196 2 11.9962 31.1029 4.49627
197 2 -0.0149082 35.1231 4.62603
198 2 3.82216 35.1616 4.60244
199 2 8.02335 35.1178 4.44528
200 2 11.9197 35.1643 4.4589
201 2 15.7873 39.2174 4.56329
202 2 3.93915 39.3034 4.63731
203 2 7.90723 39.3393 4.47986
204 2 12.0365 39.1591 4.67911
205 2 0.0495123 43.023 4.77029
206 2 3.77786 43.1158 4.69779
207 2 8.04356 43.299 4.65882
208 2 11.9221 43.1978 4.60303
209 2 -0.137406 47.1547 4.73891
210 2 3.95611 47.0764 4.72115
211 2 7.86387 47.3613 4.77247
212 2 11.6935 47.2566 4.70044
213 2 -0.104762 51.2849 4.79718
214 2 3.93592 51.3658 4.84553
215 2 7.71199 51.3033 4.79195
216 2 11.7974 51.2758 4.83826
217 2 -0.174557 55.2691 4.83664
218 2 4.00631 55.3042 4.97182
219 2 7.81243 55.317 4.96724
220 2 11.9312 55.3889 4.74624
221 2 15.8444 59.2201 4.84666
222 2 3.79624 59.2996 4.90566
223 2 7.81971 59.3173 4.7766
224 2 11.9073 59.457 4.90671
225 2 -0.0475375 63.3376 4.88475
226 2 3.8592 63.4119 4.93404
227 2 7.6957 63.3352 5.0872
228 2 11.8952 63.3708 4.98988
229 2 15.7796 67.4995 5.22783
230 2 4.05336 67.1301 4.99093
231 2 8.0449 67.1747 5.11232
232 2 11.8273 67.4163 4.88816
233 2 15.8027 71.328 4.99662
234 2 3.91259 71.5203 5.15469
235 2 7.88174 71.222 5.15959
236 2 11.9046 71.4074 5.4413
237 2 15.8386 75.4551 5.2061
238 2 3.92006 75.5038 5.45166
239 2 7.9409 75.3764 5.27778
240 2 11.729 75.4577 5.38176
241 2 0.009203 79.3715 5.19119
242 2 3.91122 79.4361 5.32205
243 2 7.75656 79.2424 5.19231
244 2 11.8602 79.3238 5.31561
245 2 15.8328 83.6026 5.39283
246 2 3.98978 83.2405 5.42848
247 2 8.02665 83.3607 5.52839
248 2 11.9367 83.5458 5.43447
249 2 -0.0591409 87.6042 5.34781
250 2 3.89928 87.2115 5.25107
251 2 7.81556 87.5045 5.44566
252 2 11.7768 87.4186 5.50668
253 2 -0.020765 91.4357 5.57103
254 2 3.90866 91.3536 5.54549
255 2 7.71705 91.3208 5.49629
256 2 11.8561 91.5134 5.37315
257 2 15.9004 95.1173 5.50216
258 2 3.83729 95.3869 5.52066
259 2 7.91633 95.4038 5.54684
260 2 11.8775 95.4011 5.30106
261 2 0.0212419 99.0853 5.43536
262 2 4.01831 99.2847 5.41779
263 2 7.85834 99.25 5.39153
264 2 12.1053 99.1518 5.26235
265 2 0.0713758 103.228 5.50768
266 2 3.98505 103.28 5.45925
267 2 7.94371 103.143 5.2125
268 2 11.6361 103.191 5.28203
269 2 15.7063 107.004 5.28055
270 2 4.10594 107.019 5.30351
271 2 8.01413 107.056 5.26143
272 2 11.9132 107.137 5.44413
273 2 16.0144 111.023 5.15613
274 2 3.98125 110.934 5.25315
275 2 7.94637 110.978 5.22339
276 2 11.7679 110.975 5.5002
277 2 0.285089 114.874 5.13754
278 2 4.09422 114.818 5.3428
279 2 7.75599 114.893 5.23221
280 2 11.8284 114.884 5.24863
281 2 0.0288599 118.569 5.16166
282 2 3.89995 118.869 5.10131
283 2 8.05052 118.579 4.87239
284 2 11.929 118.889 5.2038
285 2 15.8529 122.549 5.02583
286 2 3.95815 122.683 5.11601
287 2 8.16708 122.641 5.11206
288 2 11.9054 122.678 5.17087
289 2 -0.0295832 126.588 5.09041
290 2 4.10672 126.529 4.97817
291 2 7.98229 126.592 4.89922
292 2 11.9295 126.711 4.92896
293 2 0.169666 130.378 4.93273
294 2 4.27297 130.44 4.95729
295 2 7.83478 130.392 4.88959
296 2 12.0558 130.488 4.93709
297 2 16.0393 134.33 4.94192
298 2 4.0871 134.43 4.86638
299 2 8.19853 134.413 4.96989
300 2 12.0352 134.344 5.07506
301 2 0.304791 138.238 5.00845
302 2 4.30562 138.273 4.70627
303 2 8.25002 138.523 4.93553
304 2 11.9466 138.222 4.83945
305 2 -0.018226 142.123 4.92806
306 2 4.12151 142.146 4.85058
307 2 8.12418 142.249 4.9625
308 2 12.0336 142.343 4.87561
309 2 15.8612 146.126 4.85779
310 2 4.07255 146.036 4.71774
311 2 7.91384 146.246 4.85998
312 2 11.9811 146.071 4.9618
313 2 15.8275 149.896 4.90275
314 2 3.8577 149.939 4.71531
315 2 7.89368 150.016 4.77626
316 2 11.9748 150.052 4.74216
317 2 15.7051 154.005 4.81241
318 2 3.9703 154.011 4.70154
319 2 8.21015 154.075 4.76887
320 2 12.0065 154.116 4.6647
321 2 15.8869 157.969 8.74323
322 2 4.07144 157.847 8.72293
323 2 7.85998 157.876 8.64639
324 2 11.9092 158.011 8.83569
325 2 15.8534 3.50618 8.63383
326 2 3.86676 3.4909 8.63371
327 2 7.87222 3.48809 8.75349
328 2 11.8265 3.63563 8.86037
329 2 15.8109 7.43772 8.52924
330 2 3.97325 7.44654 8.58637
331 2 7.97302 7.34987 8.58534
332 2 11.8711 7.61111 8.62518
333 2 -0.0569307 11.4241 8.60517
334 2 3.89818 11.3714 8.59458
335 2 7.84619 11.4687 8.61669
336 2 11.9808 11.3092 8.55865
337 2 15.9205 15.2379 8.6501
338 2 3.94662 15.2873 8.49381
339 2 7.78201 15.202 8.60996
340 2 11.7828 15.4991 8.53725
341 2 0.100559 19.2952 8.56364
342 2 3.68734 19.2345 8.43992
343 2 7.77232 19.2389 8.49205
344 2 11.8343 19.1773 8.41671
345 2 -0.184492 23.219 8.42758
346 2 3.97011 23.0264 8.34831
347 2 7.95622 23.0105 8.55515
348 2 11.7844 23.2631 8.55033
349 2 0.117185 26.984 8.1617
350 2 4.02065 26.9088 8.18662
351 2 7.81364 26.8513 8.46338
352 2 11.9039 27.0487 8.3878
353 2 -0.104705 31.011 8.36436
354 2 3.93126 31.0291 8.37248
355 2 7.84781 31.0796 8.42844
356 2 11.8126 31.0732 8.39503
357 2 15.5639 35.1195 8.35961
358 2 3.62247 35.1234 8.54253
359 2 7.77394 35.0633 8.28417
360 2 11.736 35.0251 8.47813
361 2 -0.0355459 39.1046 8.56816
362 2 4.03609 39.0796 8.65353
363 2 8.02264 39.2189 8.46584
364 2 11.8128 39.0087 8.42451
365 2 -0.103624 43.1236 8.64487
366 2 4.03046 43.1903 8.53523
367 2 7.93305 43.1542 8.6064
368 2 11.6592 43.179 8.46431
369 2 -0.189334 47.2351 8.74369
370 2 3.94569 46.9272 8.71999
371 2 8.00078 47.0815 8.63481
372 2 11.8444 47.3678 8.85758
373 2 15.6203 51.1158 8.91071
374 2 3.88253 51.1771 8.83997
375 2 8.03056 51.1369 8.65338
376 2 11.7388 51.2764 8.8357
377 2 15.6943 55.1766 8.61476
378 2 3.9352 55.0852 8.80002
379 2 7.6888 55.3369 8.7547
380 2 11.7899 55.1456 8.8764
381 2 -0.130577 59.2666 8.80111
382 2 4.00139 59.2078 8.84399
383 2 7.79291 59.1713 8.7477
384 2 11.7548 59.2277 8.65895
385 2 -0.325547 63.3755 8.79016
386 2 3.76235 63.2397 8.76048
387 2 7.77143 63.1627 8.96402
388 2 11.791 63.3914 9.01386
389 2 15.7768 67.2363 9.05567
390 2 4.00586 67.1659 8.95697
391 2 7.85038 67.2345 8.97718
392 2 11.7482 67.3851 8.74914
393 2 15.8027 71.3686 9.14888
394 2 3.85375 71.0346 9.10374
395 2 7.84823 71.2586 9.00555
396 2 11.8253 71.202 9.07887
397 2 15.8116 75.4774 9.13756
398 2 3.65757 75.2573 9.09673
399 2 7.73466 75.3628 9.19617
400 2 11.8496 75.2843 8.99565
401 2 15.7097 79.5226 9.26827
402 2 3.7922 79.2683 9.25824
403 2 7.85453 79.3453 9.25844
404 2 11.813 79.3241 9.19129
405 2 0.0863806 83.4635 9.19055
406 2 4.00143 83.2291 9.19609
407 2 7.86942 83.4631 9.45437
408 2 11.7138 83.2565 9.17674
409 2 0.108216 87.3802 9.57027
410 2 3.90519 87.4401 9.57355
411 2 7.85274 87.4952 9.3436
412 2 11.8087 87.4347 9.54508
413 2 -0.00567644 91.3874 9.50428
414 2 3.88831 91.3422 9.5164
415 2 7.95354 91.3684 9.46109
416 2 11.926 91.3641 9.44441
417 2 15.5719 95.2558 9.47273
418 2 3.80838 95.1158 9.36251
419 2 7.79707 95.1982 9.41342
420 2 11.5956 95.5107 9.36544
421 2 15.6341 99.1457 9.46108
422 2 3.93402 99.1049 9.33326
423 2 7.75984 99.2538 9.34029
424 2 11.7368 99.2969 9.28324
425 2 -0.235658 103.203 9.4075
426 2 3.85416 102.993 9.47131
427 2 7.77553 103.185 9.33427
428 2 11.7545 103.104 9.38102
429 2 0.177019 107.074 9.26162
430 2 3.91753 107.294 9.25701
431 2 7.96351 107.126 9.49894
432 2 11.8565 107.102 9.43531
433 2 15.8153 111.079 9.1634
434 2 3.99275 111.043 9.31208
435 2 7.98989 111.012 9.26294
436 2 11.9872 110.984 9.20372
437 2 0.078177 115.011 9.1843
438 2 4.13772 115.07 9.21041
439 2 7.97567 114.617 9.36494
440 2 11.8878 114.787 9.30327
441 2 0.0824022 118.983 9.13977
442 2 3.96932 119.022 9.16077
443 2 7.92765 118.912 9.24348
444 2 11.8598 118.814 9.12163
445 2 15.7731 122.76 9.05913
446 2 3.87468 122.694 9.0176
447 2 8.0316 122.986 9.176
448 2 12.0791 122.858 9.14005
449 2 15.6741 126.616 9.11668
450 2 3.81083 126.589 8.89257
451 2 7.81365 126.8 9.03954
452 2 11.7208 126.717 9.03851
453 2 0.0491776 130.453 9.08745
454 2 3.89682 130.784 9.04576
455 2 7.86797 130.639 8.91244
456 2 11.9706 130.586 8.9768
457 2 0.257377 134.455 8.95874
458 2 4.04947 134.545 9.2008
459 2 8.14728 134.541 8.8412
460 2 12.2143 134.363 8.92394
461 2 0.300835 138.342 8.92876
462 2 4.07358 138.322 8.82306
463 2 7.84283 138.328 8.99504
464 2 11.889 138.355 9.02283
465 2 0.230253 142.282 8.82147
466 2 4.19996 142.198 8.95647
467 2 7.97656 142.32 8.92992
468 2 12.0592 142.16 8.9544
469 2 15.9841 146.084 8.90211
470 2 4.21017 146.122 8.73578
471 2 8.12205 146.287 8.87808
472 2 11.9032 146.179 8.95118
473 2 16.0109 150.143 8.96313
474 2 4.20034 150.23 8.67984
475 2 7.91691 150.109 8.78506
476 2 11.8806 150.225 8.87244
477 2 15.8189 153.831 8.73861
478 2 4.01379 154.022 8.7751
479 2 8.03309 154.063 8.7532
480 2 11.9217 154.052 8.60401
481 2 15.9477 157.887 12.7887
482 2 4.07987 158.117 12.8457
483 2 8.08278 157.952 12.5854
484 2 12.1177 157.983 12.7487
485 2 15.7822 3.71189 12.8456
486 2 3.96895 3.71887 12.7353
487 2 8.05439 3.77091 12.7928
488 2 11.9736 3.52566 12.7071
489 2 15.9742 7.56556 12.5196
490 2 3.99536 7.7273 12.6691
491 2 7.83167 7.42254 12.5865
492 2 11.768 7.65842 12.6148
493 2 0.177061 11.4258 12.6461
494 2 3.92263 11.5803 12.6858
495 2 7.90454 11.5081 12.6168
496 2 12.0004 11.5235 12.6156
497 2 0.343992 15.3333 12.4733
498 2 4.08746 15.4601 12.6751
499 2 7.99543 15.2443 12.6315
500 2 11.9717 15.2325 12.4424
501 2 0.053818 19.3806 12.5183
502 2 4.09627 19.2215 12.5352
503 2 7.87031 19.35 12.5058
504 2 12.0509 19.1876 12.5304
505 2 -0.207582 23.1186 12.4004
506 2 3.86127 23.1773 12.4075
507 2 7.81252 22.9779 12.394
508 2 11.8857 23.1796 12.685
509 2 -0.179224 27.2554 12.3805
510 2 3.83544 27.197 12.1469
511 2 7.84915 27.0071 12.3392
512 2 11.6503 27.3099 12.5243
513 2 -0.122764 30.9106 12.3244
514 2 3.78466 31.04 12.2019
515 2 7.63531 31.0175 12.5464
516 2 11.7048 31.1587 12.4251
517 2 -0.118079 34.9063 12.2653
518 2 3.67644 35.057 12.4259
519 2 7.79804 35.0517 12.2798
520 2 11.749 34.9162 12.201
521 2 -0.262511 39.1663 12.5072
522 2 3.76927 39.0067 12.3884
523 2 7.62502 39.0459 12.4986
524 2 11.7657 39.0121 12.4459
525 2 -0.0444172 43.2109 12.5342
526 2 3.91307 43.0965 12.519
527 2 7.84861 42.899 12.4747
528 2 11.7431 43.0657 12.4649
529 2 -0.0334652 47.1765 12.7481
530 2 3.98011 47.069 12.5476
531 2 7.7499 47.1447 12.5767
532 2 11.8454 47.1611 12.6031
533 2 0.0791292 51.1615 12.7736
534 2 3.86072 51.0887 12.5797
535 2 7.89651 51.2911 12.4169
536 2 11.824 51.2842 12.7649
537 2 15.6955 55.1365 12.774
538 2 3.89709 55.1577 12.7362
539 2 7.79773 55.145 12.8489
540 2 11.6889 55.2358 12.8065
541 2 15.863 59.1677 12.584
542 2 3.95069 59.0858 12.7405
543 2 7.89854 59.0461 12.6849
544 2 11.8641 59.0247 12.6765
545 2 15.6328 63.3331 12.68
546 2 3.74146 63.1208 12.8961
547 2 7.89116 63.1934 12.8064
548 2 11.8467 62.9523 12.6668
549 2 0.0378292 67.3044 12.7881
550 2 4.03775 67.1928 12.8813
551 2 7.95817 67.2275 13.03
552 2 11.8573 67.3449 12.8888
553 2 0.191739 71.1883 13.1214
554 2 4.01624 71.2673 12.9228
555 2 7.97166 71.261 12.9499
556 2 11.9285 71.3107 13.0074
557 2 -0.152476 75.3485 12.9182
558 2 3.89491 75.2243 12.9461
559 2 7.75444 75.2317 13.0063
560 2 11.8567 75.1224 13.0407
561 2 -0.120217 79.3507 13.1321
562 2 3.78535 79.3618 13.0649
563 2 8.01971 79.2823 13.1447
564 2 11.7669 79.2147 13.0605
565 2 -0.232088 83.2909 13.3538
566 2 3.85204 83.4174 13.2007
567 2 7.88144 83.2779 13.1921
568 2 11.7532 83.4124 13.2718
569 2 -0.0800667 87.4169 13.3084
570 2 4.02061 87.2256 13.191
571 2 7.90141 87.4568 13.3075
572 2 11.789 87.4078 13.2372
573 2 -0.171154 91.5363 13.5524
574 2 3.95643 91.1684 13.4558
575 2 7.72339 91.5821 13.6156
576 2 11.7209 91.6178 13.2454
577 2 -0.137218 95.5829 13.4
578 2 3.93693 95.4727 13.638
579 2 7.9038 95.5298 13.6101
580 2 11.7775 95.4616 13.4235
581 2 0.0268683 99.3276 13.584
582 2 3.84077 99.2744 13.3706
583 2 7.91479 99.1017 13.2819
584 2 11.83 99.3597 13.3481
585 2 0.0554684 103.107 13.3469
586 2 3.9055 103 13.3443
587 2 7.68416 103.243 13.3208
588 2 11.8002 103.26 13.4125
589 2 0.000138387 107.151 13.4572
590 2 3.9013 107.047 13.3335
591 2 7.88835 107.005 13.3005
592 2 11.8209 107.273 13.3629
593 2 -0.0969119 111.096 13.2876
594 2 3.77183 110.956 13.2641
595 2 7.86 111.094 13.3992
596 2 11.8842 110.91 13.3683
597 2 0.0338589 114.984 13.2889
598 2 4.01634 114.941 13.2597
599 2 7.9044 114.852 13.2113
600 2 12.0568 114.985 13.3379
601 2 0.0628684 118.694 13.3382
602 2 3.93839 118.77 13.2894
603 2 8.13788 118.765 13.3627
604 2 11.8218 118.878 13.1273
605 2 -0.0137422 122.577 13.2201
606 2 3.84687 122.74 13.2859
607 2 7.66584 122.776 13.1441
608 2 11.8351 122.883 13.1514
609 2 -0.0443438 126.674 13.1858
610 2 4.02404 126.673 12.9294
611 2 7.77721 126.854 13.0112
612 2 11.8327 126.739 13.0245
613 2 15.8208 130.579 13.0073
614 2 3.95894 130.607 12.9661
615 2 7.96023 130.761 13.0325
616 2 11.8682 130.623 12.8548
617 2 15.7727 134.337 13.0628
618 2 4.13239 134.622 13.1055
619 2 8.08775 134.592 13.0113
620 2 12.0664 134.703 12.9946
621 2 0.228183 138.406 13.1073
622 2 4.30773 138.575 13.0643
623 2 8.16798 138.353 12.9591
624 2 12.3008 138.457 12.8892
625 2 15.8463 142.527 13.0841
626 2 3.99777 142.445 13.0296
627 2 8.11616 142.388 12.8677
628 2 11.9854 142.452 12.8786
629 2 0.149489 146.36 12.8479
630 2 4.04259 146.388 13.0256
631 2 7.90138 146.349 13.0139
632 2 12.0467 146.381 12.8111
633 2 0.0980576 150.074 12.8832
634 2 4.03993 150.313 12.8166
635 2 7.90363 150.255 12.6255
636 2 11.9518 150.445 12.8566
637 2 15.6778 154.117 12.9114
638 2 3.85202 154.059 12.9425
639 2 7.86424 154.169 12.7704
640 2 11.8075 154.209 12.7975
641 2 0.157845 158.138 16.8101
642 2 4.11509 -0.131776 16.702
643 2 7.84359 158.178 16.8999
644 2 11.8161 158.106 16.9363
645 2 15.9784 3.67653 16.8658
646 2 4.01428 3.80751 16.6275
647 2 7.92286 3.75622 16.6795
648 2 11.9969 3.82102 16.8383
649 2 0.238065 7.63915 16.6004
650 2 4.11998 7.58722 16.613
651 2 8.07654 7.56956 16.7016
652 2 11.961 7.84126 16.5853
653 2 0.10302 11.5716 16.5958
654 2 4.07565 11.4861 16.5504
655 2 7.92612 11.5299 16.6027
656 2 12.1252 11.5527 16.6014
657 2 0.115863 15.4222 16.6153
658 2 4.17936 15.4315 16.54
659 2 8.03384 15.3075 16.6901
660 2 12.0498 15.4846 16.5364
661 2 15.6352 19.3657 16.4831
662 2 3.75065 19.2539 16.5096
663 2 7.82439 19.3553 16.3888
664 2 11.7762 19.3699 16.3611
665 2 -0.0680358 23.3898 16.6174
666 2 3.91872 23.4047 16.3715
667 2 7.84805 23.2624 16.4243
668 2 11.7001 23.1983 16.3419
669 2 -0.0286467 27.2754 16.3953
670 2 3.85067 27.1561 16.3182
671 2 7.74511 27.1501 16.2572
672 2 11.729 27.1294 16.3215
673 2 -0.0399593 31.0632 16.3359
674 2 3.8237 31.2579 16.1062
675 2 7.68888 30.9861 16.4294
676 2 11.5495 31.0591 16.3742
677 2 -0.0838776 34.8036 16.3819
678 2 3.57286 34.9546 16.2371
679 2 7.74384 35.0092 16.3319
680 2 11.7065 34.8789 16.3727
681 2 -0.0700646 38.8462 16.2539
682 2 3.85644 39.0381 16.2767
683 2 7.85472 38.8821 16.3718
684 2 11.708 38.8619 16.3387
685 2 -0.137361 43.061 16.58
686 2 3.93031 43.0031 16.5733
687 2 7.93005 42.957 16.4384
688 2 11.8979 43.0764 16.4428
689 2 15.814 47.0052 16.6534
690 2 3.89253 46.9182 16.4586
691 2 7.99245 46.9606 16.5677
692 2 11.7219 47.1808 16.622
693 2 -0.0109699 51.2033 16.472
694 2 3.9289 50.9337 16.4339
695 2 7.65446 51.0456 16.6966
696 2 11.8976 50.9619 16.5979
697 2 -0.0459634 55.2135 16.4354
698 2 3.7309 55.1139 16.5766
699 2 7.74445 54.9121 16.6794
700 2 11.6909 55.2824 16.74
701 2 -0.0472435 59.1263 16.4946
702 2 3.90133 59.1616 16.4827
703 2 7.78578 58.9324 16.6835
704 2 11.9389 59.0944 16.4476
705 2 0.29471 63.1923 16.7644
706 2 3.94067 63.2169 16.6858
707 2 7.87737 63.2305 16.5768
708 2 11.9188 63.0301 16.693
709 2 -0.0632433 67.1184 16.7729
710 2 3.93919 67.284 16.8494
711 2 7.92245 67.0336 16.8287
712 2 11.8847 67.0819 16.7492
713 2 -0.0249435 71.1185 17.0311
714 2 3.85937 71.1873 17.0635
715 2 8.11987 71.2712 17.0949
716 2 11.8697 71.269 16.8356
717 2 0.138835 75.1393 16.9315
718 2 3.97878 75.2247 16.917
719 2 7.74022 75.371 16.9099
720 2 11.9959 74.991 16.9918
721 2 -0.0506703 79.1416 16.9769
722 2 3.7497 79.3892 16.9511
723 2 7.81795 79.1506 16.9821
724 2 11.9334 79.0087 17.0576
725 2 -0.06994 83.3204 17.2204
726 2 3.78266 83.275 17.0417
727 2 7.67935 83.3114 17.1198
728 2 11.7002 83.2318 17.2194
729 2 -0.02381 87.2817 17.1741
730 2 3.82919 87.3239 17.2007
731 2 7.94497 87.4118 17.1964
732 2 11.8313 87.3441 17.1055
733 2 -0.186005 91.3231 17.222
734 2 3.76567 91.3672 17.2708
735 2 7.86537 91.415 17.4373
736 2 11.7366 91.4971 17.3994
737 2 -0.152843 95.2613 17.381
738 2 3.782 95.3838 17.5322
739 2 7.72159 95.4753 17.5646
740 2 11.7193 95.602 17.5572
741 2 -0.139777 99.4635 17.4198
742 2 3.85063 99.288 17.4745
743 2 7.89313 99.118 17.5084
744 2 11.8407 99.4091 17.4563
745 2 0.0808654 103.38 17.3083
746 2 3.96321 103.389 17.3179
747 2 7.85793 103.147 17.3179
748 2 11.8452 103.267 17.3372
749 2 -0.138844 107.18 17.2268
750 2 4.03759 107.007 17.3362
751 2 8.05049 107.047 17.257
752 2 11.7577 107.203 17.3996
753 2 -0.0136748 111.134 17.4477
754 2 3.95023 111.161 17.5011
755 2 7.75628 110.966 17.4547
756 2 11.7976 111.302 17.425
757 2 -0.229003 115.03 17.2309
758 2 3.86032 114.836 17.2921
759 2 7.65638 114.923 17.1179
760 2 11.7396 115.101 17.3321
761 2 0.0737296 118.807 17.3245
762 2 3.97526 118.905 17.3102
763 2 7.87356 118.975 17.3893
764 2 11.8921 119.183 17.252
765 2 -0.0480875 122.837 17.126
766 2 3.81562 122.786 17.1979
767 2 8.00373 122.89 17.24
768 2 11.8412 123.119 17.0033
769 2 15.816 126.819 17.1227
770 2 3.7431 126.678 17.204
771 2 7.77852 126.884 17.1119
772 2 11.9479 126.727 17.1299
773 2 16.1697 130.676 16.9922
774 2 4.0265 130.649 17.1152
775 2 7.79337 130.87 17.1538
776 2 11.8023 130.629 17.0093
777 2 15.942 134.554 17.0682
778 2 4.00227 134.706 17.0805
779 2 8.02134 134.641 16.985
780 2 12.0041 134.547 17.0524
781 2 0.231325 138.442 17.242
782 2 4.0266 138.502 16.7874
783 2 7.90089 138.517 16.957
784 2 12.0723 138.614 16.979
785 2 15.9138 142.434 17.1106
786 2 3.93649 142.176 17.0845
787 2 7.93206 142.405 16.9001
788 2 11.8963 142.334 16.7865
789 2 15.7857 146.354 16.9278
790 2 4.04115 146.417 17.144
791 2 7.91286 146.33 16.8842
792 2 11.8344 146.316 16.8661
793 2 15.8797 150.141 16.8372
794 2 3.9955 150.419 16.8698
795 2 8.03737 150.187 16.9994
796 2 11.8846 150.276 16.7204
797 2 15.8162 154.128 16.8605
798 2 4.15034 154.301 16.8505
799 2 8.06675 154.218 16.793
800 2 12.0261 154.157 16.905
801 2 15.8684 158.17 20.7669
802 2 4.02765 158.189 20.7039
803 2 7.9848 158.192 20.8123
804 2 11.8854 158.294 20.8644
805 2 0.224014 3.82543 20.7507
806 2 4.10816 3.77177 20.7432
807 2 8.06923 3.8273 20.7005
808 2 11.8836 3.71757 20.7613
809 2 16.0251 7.81087 20.7586
810 2 4.03165 7.69444 20.792
811 2 8.11036 7.76861 20.7336
812 2 11.9937 7.74496 20.5573
813 2 15.9935 11.5393 20.4905
814 2 3.84981 11.6592 20.6094
815 2 7.80445 11.491 20.5562
816 2 11.9443 11.5467 20.4988
817 2 15.7629 15.6092 20.6132
818 2 4.04114 15.5293 20.5594
819 2 8.0692 15.3501 20.5073
820 2 11.7374 15.7083 20.5538
821 2 0.107533 19.406 20.5074
822 2 4.13749 19.3958 20.5262
823 2 7.92502 19.3646 20.4942
824 2 11.8352 19.5506 20.4407
825 2 -0.0675377 23.3192 20.5432
826 2 3.88786 23.2997 20.4954
827 2 7.84454 23.3439 20.4622
828 2 11.8903 23.4031 20.4672
829 2 15.6872 27.325 20.5718
830 2 3.80781 27.328 20.5388
831 2 7.73261 27.0711 20.2067
832 2 11.7195 27.3691 20.5393
833 2 15.6824 31.1442 20.3314
834 2 3.98104 31.0518 20.5394
835 2 7.80203 31.1292 20.4614
836 2 11.8748 31.1489 20.5207
837 2 15.5975 35.2561 20.4066
838 2 3.75778 35.0653 20.099
839 2 7.84775 34.9989 20.344
840 2 11.6379 34.9868 20.4766
841 2 -0.0647101 38.8234 20.3741
842 2 3.8945 38.8362 20.2236
843 2 7.75161 39.0095 20.2114
844 2 11.947 38.9017 20.2135
845 2 15.7861 42.6526 20.3921
846 2 4.18732 42.8762 20.4079
847 2 8.19065 42.9527 20.3866
848 2 12.0857 42.9586 20.3411
849 2 15.7206 46.869 20.5207
850 2 4.042 46.9775 20.5263
851 2 8.02747 46.8376 20.3885
852 2 11.9655 46.8689 20.3901
853 2 -0.115053 50.8477 20.2797
854 2 3.96477 51.0865 20.3725
855 2 8.06955 51.0516 20.6383
856 2 11.8344 50.8662 20.5078
857 2 -0.160375 55.0512 20.4171
858 2 3.87231 54.8845 20.4189
859 2 7.89885 54.9406 20.5371
860 2 11.7809 55.0653 20.5348
861 2 15.8695 58.9515 20.5647
862 2 3.93557 58.8439 20.6418
863 2 7.74526 59.0587 20.6221
864 2 12.0002 58.9663 20.5562
865 2 15.7716 63.0811 20.5394
866 2 3.96607 62.8128 20.5153
867 2 7.7777 63.1672 20.5568
868 2 11.7345 62.7288 20.5374
869 2 0.000189272 66.8633 20.8767
870 2 3.96318 67.015 20.7422
871 2 7.94094 67.029 20.7379
872 2 12.0749 66.9252 20.8999
873 2 0.12059 71.0367 20.7821
874 2 4.0809 71.0264 20.7337
875 2 8.02899 71.1341 20.8671
876 2 11.753 71.1254 20.7859
877 2 -0.0702533 75.0621 20.8107
878 2 4.09258 75.0405 20.9447
879 2 7.93468 75.0937 20.8758
880 2 11.9242 75.0705 20.9356
881 2 0.0579782 79.33 20.7503
882 2 4.15265 79.1158 21.0068
883 2 7.86941 79.0959 20.9225
884 2 11.7938 79.0162 21.1144
885 2 0.0229745 83.2289 21.1094
886 2 3.92507 83.149 20.9842
887 2 7.78075 83.2022 20.8637
888 2 11.82 83.1036 20.9489
889 2 -0.0443373 87.2556 21.1022
890 2 3.89545 87.2799 21.099
891 2 7.77024 87.2244 21.1575
892 2 11.8211 87.1599 21.1338
893 2 -0.0748501 91.2266 21.3029
894 2 3.81377 91.1786 21.3101
895 2 7.692 91.4718 21.2843
896 2 11.5362 91.2679 21.0865
897 2 -0.0612509 95.2718 21.3193
898 2 3.80759 95.3138 21.487
899 2 7.83228 95.2774 21.3356
900 2 11.925 95.3418 21.3655
901 2 -0.102995 99.5538 21.2743
902 2 3.91705 99.2301 21.5359
903 2 7.89759 99.3723 21.5748
904 2 11.7564 99.3418 21.4092
905 2 0.0903895 103.131 21.482
906 2 4.01256 103.314 21.4464
907 2 7.99006 103.44 21.4025
908 2 12.0569 103.424 21.321
909 2 0.141462 107.015 21.1331
910 2 4.0676 107.195 21.4542
911 2 8.06843 107.44 21.4408
912 2 12.0121 107.377 21.587
913 2 -0.0565841 110.994 21.3323
914 2 3.95344 111.29 21.3429
915 2 7.86804 111.073 21.4238
916 2 11.9191 111.38 21.2822
917 2 15.7404 115.132 21.3431
918 2 4.00194 115.018 21.4775
919 2 7.96994 115.077 21.4246
920 2 11.8696 115.139 21.3136
921 2 0.188802 118.74 21.105
922 2 3.99075 119.12 21.3545
923 2 7.96973 118.998 21.3234
924 2 11.7888 118.881 21.3695
925 2 15.8217 122.911 21.1495
926 2 3.91048 122.903 21.1827
927 2 7.8473 122.872 21.2766
928 2 11.7363 122.987 21.1213
929 2 15.6889 126.871 21.2
930 2 3.9349 126.614 21.1293
931 2 7.77167 126.669 21.2319
932 2 11.7393 126.783 21.2853
933 2 15.7937 130.854 21.2068
934 2 3.9033 130.579 21.1903
935 2 8.04092 130.734 21.0069
936 2 11.7893 130.857 21.081
937 2 -0.184253 134.589 20.9972
938 2 3.95418 134.598 21.1712
939 2 7.88839 134.397 21.0024
940 2 11.9442 134.916 21.0726
941 2 15.7531 138.608 20.9365
942 2 3.87958 138.472 20.9476
943 2 7.78793 138.516 21.0516
944 2 11.7066 138.634 21.0098
945 2 15.6291 142.403 21.0337
946 2 3.86909 142.455 21.1001
947 2 7.86811 142.561 21.0343
948 2 11.8868 142.462 21.0615
949 2 15.8331 146.278 20.9097
950 2 4.01392 146.409 20.9871
951 2 7.86462 146.459 20.8217
952 2 11.7229 146.389 20.8909
953 2 15.9525 150.437 20.8094
954 2 3.87805 150.212 20.997
955 2 8.2218 150.357 20.933
956 2 11.9615 150.459 21.1307
957 2 15.8544 154.374 20.7391
958 2 4.2166 153.977 20.661
959 2 7.99584 154.413 20.9499
960 2 11.8768 154.267 20.9932
961 2 0.350614 158.223 24.7268
962 2 4.09492 158.147 24.7025
963 2 8.02437 158.193 24.9763
964 2 12.1602 158.293 24.8651
965 2 16.0283 3.97431 24.6508
966 2 4.12458 3.75304 24.8327
967 2 8.01718 3.74797 24.8861
968 2 12.166 3.82817 24.792
969 2 15.8117 7.83286 24.7589
970 2 4.13532 7.73319 24.7046
971 2 7.88692 7.67712 24.7041
972 2 11.7476 7.75676 24.7143
973 2 15.9481 11.569 24.5956
974 2 4.1054 11.696 24.7586
975 2 7.83852 11.6317 24.7693
976 2 11.8672 11.6037 24.7342
977 2 0.0825068 15.5371 24.4766
978 2 3.9279 15.5485 24.6189
979 2 7.85093 15.512 24.6906
980 2 11.7924 15.4097 24.6365
981 2 -0.0649601 19.3569 24.415
982 2 3.88224 19.416 24.4788
983 2 7.93893 19.5433 24.5273
984 2 11.9583 19.5661 24.6227
985 2 0.000184485 23.2801 24.6081
986 2 3.819 23.4186 24.6573
987 2 7.87779 23.4027 24.5516
988 2 11.6474 23.4294 24.6371
989 2 0.104099 27.3603 24.6347
990 2 4.00459 27.4306 24.3965
991 2 7.96242 27.2634 24.37
992 2 11.9553 27.1342 24.5037