ITEM: TIMESTEP
20200
ITEM: NUMBER OF ATOMS
32000
ITEM: BOX BOUNDS xy xz yz pp pp pp
0.0000000000000000e+00 1.5832000000000001e+01 0.0000000000000000e+00
0.0000000000000000e+00 1.5831999999999999e+02 0.0000000000000000e+00
8.0305976576346438e-01 1.6017405823423366e+02 0.0000000000000000e+00
ITEM: ATOMS id type x y z
1 2 15.8994 157.973 159.987
2 2 3.95064 157.766 160.068
3 2 7.87009 157.941 160.157
4 2 11.9323 157.851 159.979
5 2 0.0472601 3.35565 159.895
6 2 4.13833 3.31547 159.918
7 2 8.12003 3.45188 160.006
8 2 11.9319 3.63818 160.09
9 2 15.9768 7.40088 159.885
10 2 4.07232 7.24501 159.854
11 2 7.94339 7.35191 159.84
12 2 11.8108 7.4155 160.031
13 2 15.8006 11.4099 159.841
14 2 4.13586 11.4397 159.855
15 2 7.80937 11.346 159.802
16 2 11.9206 11.3237 159.99
17 2 0.00516909 15.2322 159.947
18 2 4.00234 15.3281 159.601
19 2 7.82909 15.0783 159.788
20 2 11.8491 14.9856 159.699
21 2 15.6088 19.1912 159.631
22 2 3.93177 19.0548 159.783
23 2 7.83871 19.0396 159.825
24 2 11.858 19.1196 159.693
25 2 15.8327 22.9958 159.667
26 2 4.06359 22.9112 159.739
27 2 8.08611 23.0421 159.72
28 2 11.8559 23.1962 159.572
29 2 15.8137 27.073 159.82
30 2 3.98666 27.0789 159.789
31 2 7.95564 27.1439 159.722
32 2 11.902 27.0087 159.646
33 2 15.7232 31.1275 159.982
34 2 3.91415 31.0946 0.586515
35 2 7.87507 31.1193 159.869
36 2 11.7923 30.8979 159.864
37 2 -0.114244 35.0611 159.916
38 2 4.07479 35.0863 159.995
39 2 7.8207 35.1795 159.842
40 2 11.6847 35.0377 159.934
41 2 0.167346 39.2069 160.046
42 2 3.85424 39.1708 0.63456
43 2 7.99979 39.2902 0.732155
44 2 11.9722 38.9881 0.743954
45 2 0.196923 43.0581 159.996
46 2 3.94344 43.1093 160.058
47 2 7.83814 43.1447 0.803784
48 2 11.9237 43.107 0.621467
49 2 -0.0033833 47.1013 0.898446
50 2 3.94552 47.1336 0.704779
51 2 7.87143 47.3091 0.800363
52 2 11.9788 47.2905 0.821645
53 2 0.0946155 51.4088 0.882144
54 2 3.84507 51.3336 1.03694
55 2 7.76478 51.3139 0.682371
56 2 11.572 51.1398 0.843249
57 2 15.9086 55.5379 1.00949
58 2 4.1183 55.4566 0.898195
59 2 7.90357 55.2931 1.06227
60 2 11.9132 55.2433 1.12133
61 2 -0.0302844 59.4043 1.17575
62 2 3.95565 59.3644 1.15332
63 2 7.89169 59.4058 1.17712
64 2 11.7782 59.4634 1.22858
65 2 0.0867047 63.4652 0.981474
66 2 3.79028 63.4792 1.18101
67 2 7.75198 63.3664 1.17782
68 2 11.7681 63.4128 1.30814
69 2 15.5872 67.506 1.20334
70 2 4.00198 67.4409 1.0172
71 2 7.93673 67.2962 1.13471
72 2 11.7177 67.2989 1.26169
73 2 -0.120232 71.5023 1.30951
74 2 4.02466 71.5001 1.2358
75 2 7.80337 71.4847 1.1867
76 2 11.6621 71.5188 1.06913
77 2 0.10701 75.4461 1.04062
78 2 3.89031 75.6027 1.24718
79 2 7.95201 75.3724 1.29068
80 2 11.7889 75.6796 1.20215
81 2 -0.205715 79.3876 1.41845
82 2 3.75313 79.6864 1.54253
83 2 7.62832 79.5095 1.31694
84 2 11.674 79.4226 1.36587
85 2 -0.0957684 83.4625 1.28415
86 2 3.84591 83.5303 1.65641
87 2 7.93175 83.7577 1.4915
88 2 11.9016 83.6191 1.5545
89 2 0.0125786 87.347 1.69769
90 2 3.88678 87.5059 1.42114
91 2 7.91613 87.4629 1.62514
92 2 12.0293 87.6453 1.45045
93 2 0.0929755 91.493 1.52347
94 2 3.91199 91.3664 1.37839
95 2 7.91892 91.3491 1.62588
96 2 11.8842 91.5056 1.5405
97 2 16.0454 95.2973 1.56793
98 2 4.0532 95.2654 1.68615
99 2 8.00599 95.4558 1.47321
100 2 12.0159 95.2953 1.42228
101 2 -0.0658997 99.1908 1.45216
102 2 3.87544 99.2656 1.28291
103 2 7.82184 99.2546 1.32327
104 2 11.9711 99.2045 1.40681
105 2 -0.0277591 103.296 1.29692
106 2 3.88321 103.351 1.39465
107 2 7.92142 102.963 1.37428
108 2 11.929 103.203 1.44415
109 2 0.0258203 107.12 1.27961
110 2 4.06776 107.038 1.32709
111 2 7.7661 107.046 1.17959
112 2 11.9036 107.078 1.3636
113 2 -0.12283 110.907 1.08945
114 2 3.97304 110.865 1.3552
115 2 7.82847 111.064 0.933287
116 2 11.7552 110.743 1.20465
117 2 15.7896 114.889 1.33525
118 2 3.91581 114.814 1.18953
119 2 7.94548 114.77 1.33372
120 2 11.829 114.886 1.19843
121 2 0.129738 118.887 1.28011
122 2 3.81825 118.822 1.236
123 2 7.96165 118.762 1.11402
124 2 11.9909 118.667 1.17524
125 2 15.8499 122.869 1.09146
126 2 3.95846 122.709 1.1122
127 2 7.9891 122.616 1.04053
128 2 11.7529 122.745 0.918571
129 2 -0.221625 126.691 1.09629
130 2 3.78408 126.469 1.05407
131 2 7.97486 126.707 0.902879
132 2 11.7266 126.727 1.02604
133 2 15.7219 130.643 0.993472
134 2 3.91476 130.553 1.06659
135 2 7.68473 130.579 0.980702
136 2 11.7132 130.5 1.02932
137 2 15.5136 134.365 1.04198
138 2 3.72243 134.268 0.973227
139 2 7.76151 134.402 160.226
140 2 11.7552 134.372 0.89636
141 2 -0.0324524 138.31 1.05478
142 2 3.87248 138.329 160.367
143 2 7.98494 138.332 160.173
144 2 11.6404 138.182 0.920958
145 2 15.6394 142.299 160.228
146 2 3.83366 142.139 160.228
147 2 8.10192 142.225 160.148
148 2 11.8734 142.014 160.251
149 2 -0.181237 146.083 160.322
150 2 3.91367 146.052 160.21
151 2 7.95141 146.196 160.208
152 2 11.8637 146.103 160.221
153 2 15.7979 149.821 159.992
154 2 3.86018 149.972 160.089
155 2 7.83917 149.973 159.965
156 2 11.8942 150.164 0.606082
157 2 15.7204 153.91 159.969
158 2 3.95034 153.992 159.984
159 2 7.94739 154.033 160.003
160 2 11.9591 154.09 160.125
161 2 15.9546 157.915 4.53614
162 2 3.89407 158.008 4.81718
163 2 8.12998 157.936 4.763
164 2 11.8421 158.107 4.78464
165 2 0.120137 3.4412 4.56152
166 2 4.07875 3.52714 4.54328
167 2 7.91327 3.36814 4.59986
168 2 11.7836 3.7105 4.68693
169 2 0.238455 7.32882 4.46662
170 2 4.04051 7.46589 4.55472
171 2 8.10959 7.46603 4.58949
172 2 11.9399 7.37583 4.49899
173 2 0.150772 11.3664 4.57143
174 2 4.12804 11.1821 4.42348
175 2 7.99631 11.3665 4.49075
176 2 11.8594 11.3087 4.49966
177 2 15.9596 15.2614 4.28574
178 2 4.19711 15.242 4.42023
179 2 7.84343 15.178 4.44726
180 2 11.8621 15.3619 4.46736
181 2 0.159123 19.1523 4.27443
182 2 3.74294 19.1755 4.19735
183 2 7.92121 19.0905 4.34205
184 2 11.781 19.1398 4.10549
185 2 -0.23609 23.2019 4.54937
186 2 4.03465 22.9984 4.34914
187 2 8.13897 23.1316 4.39211
188 2 11.9553 23.0773 4.47391
189 2 15.7906 26.9796 4.20703
190 2 4.04363 26.9466 4.27074
191 2 7.83385 26.8516 4.33396
192 2 11.9815 27.2 4.3954
193 2 -0.0360242 30.8941 4.72008
194 2 3.9945 31.0056 4.64411
195 2 7.8637 30.9326 4.45332
196 2 11.738 30.9482 4.48544
197 2 -0.119765 35.0984 4.49833
198 2 3.92711 35.0179 4.55396
199 2 7.79504 35.1583 4.28494
200 2 11.9694 34.9832 4.6031
201 2 16.0466 39.1096 4.61041
202 2 4.01445 39.0796 4.59753
203 2 8.02031 39.0408 4.65224
204 2 12.1161 39.0262 4.57189
205 2 -0.0369572 43.1185 4.55726
206 2 3.99476 43.1477 4.59879
207 2 7.78329 43.2215 4.68863
208 2 11.9221 43.1145 4.54451
209 2 0.13823 47.2082 5.02402
210 2 3.97873 47.2396 4.64861
211 2 7.89076 47.1221 4.63402
212 2 12.0862 47.2036 4.5596
213 2 -0.155569 51.214 4.86777
214 2 3.93011 51.2757 4.88016
215 2 7.82636 51.2499 4.71082
216 2 11.8521 51.0853 4.6969
217 2 0.0156839 55.3148 4.91379
218 2 3.98836 55.1984 4.88414
219 2 7.85556 55.1054 4.94184
220 2 11.9956 55.2642 4.94249
221 2 15.6598 59.5135 4.95053
222 2 4.20766 59.3159 5.04806
223 2 7.95617 59.4809 5.15026
224 2 12.005 59.3551 4.87594
225 2 -0.00887694 63.4387 5.1468
226 2 3.83667 63.2088 5.08384
227 2 7.9289 63.3501 5.14905
228 2 12.0559 63.4427 5.18939
229 2 15.9778 67.2013 4.96622
230 2 4.08449 67.3937 5.11565
231 2 8.09448 67.4363 5.22595
232 2 12.1276 67.3608 5.24829
233 2 15.8973 71.3115 5.11294
234 2 4.01365 71.3313 4.95338
235 2 7.91681 71.5098 4.91379
236 2 11.7684 71.2841 5.02379
237 2 15.6373 75.4228 4.97001
238 2 3.8001 75.4816 5.29681
239 2 7.73608 75.4068 5.0193
240 2 11.9132 75.1462 5.21935
241 2 0.0947538 79.4921 5.15832
242 2 3.97759 79.4456 5.25937
243 2 7.91796 79.4933 5.19154
244 2 11.712 79.3993 5.13413
245 2 15.8292 83.417 5.36843
246 2 3.98927 83.5063 5.36841
247 2 8.00051 83.6654 5.45075
248 2 11.7555 83.193 5.35066
249 2 -0.0361049 87.5374 5.71
250 2 3.69039 87.4514 5.52341
251 2 7.85828 87.3234 5.47072
252 2 11.7361 87.4454 5.3419
253 2 -0.139417 91.4615 5.52611
254 2 3.70406 91.3547 5.57514
255 2 7.83507 91.5861 5.48837
256 2 11.7047 91.4091 5.55946
257 2 15.8143 95.5371 5.56639
258 2 3.99569 95.3771 5.46095
259 2 8.00499 95.4155 5.48098
260 2 12.0119 95.3768 5.43805
261 2 0.225865 99.2904 5.3649
262 2 4.05011 99.4107 5.54113
263 2 8.02028 99.5325 5.25945
264 2 12.0231 99.2208 5.41696
265 2 0.0734423 103.295 5.12296
266 2 4.26681 103.215 5.22587
267 2 7.94191 103.28 5.47335
268 2 11.8325 103.236 5.26204
269 2 15.8137 107.077 5.3417
270 2 3.94951 107.114 5.40935
271 2 8.03194 107.259 5.38723
272 2 11.72 107.199 5.25415
273 2 15.9228 110.939 5.42235
274 2 3.88617 110.92 5.30516
275 2 7.84379 111.074 5.43788
276 2 11.9621 111.118 5.25904
277 2 0.168475 115.036 5.23723
278 2 3.93754 114.982 4.9397
279 2 7.80263 114.778 5.23408
280 2 11.6826 115.082 5.15341
281 2 0.118813 119.041 5.17541
282 2 4.04594 118.792 5.21528
283 2 7.82329 118.97 5.31675
284 2 11.7907 118.786 5.1108
285 2 15.7544 122.765 5.21197
286 2 3.98139 122.632 5.3012
287 2 7.93055 122.952 5.04059
288 2 11.8779 122.718 5.03564
289 2 0.152082 126.658 5.12344
290 2 4.08186 126.502 4.96021
291 2 7.91353 126.596 5.16841
292 2 11.9542 126.66 5.12695
293 2 -0.0650789 130.61 5.08862
294 2 3.76069 130.279 4.96718
295 2 7.76814 130.584 5.05335
296 2 11.7449 130.65 5.17145
297 2 15.7954 134.358 4.96933
298 2 4.04583 134.365 5.03679
299 2 7.82434 134.424 5.01517
300 2 11.7445 134.351 5.02193
301 2 -0.147699 138.189 4.87483
302 2 3.82383 138.379 5.02704
303 2 7.85099 138.469 4.92927
304 2 11.835 138.488 5.00334
305 2 -0.0376802 142.272 4.86032
306 2 3.76589 142.225 4.68177
307 2 7.86764 142.323 4.8784
308 2 11.6729 142.372 5.02369
309 2 15.6628 146.113 4.88409
310 2 3.85239 146.215 4.94957
311 2 7.9023 146.196 4.88899
312 2 11.7915 146.103 4.82999
313 2 15.9759 150.1 4.65992
314 2 3.83028 150.114 4.70534
315 2 7.86877 150.03 4.80895
316 2 12.1885 150.197 4.72064
317 2 15.701 153.962 4.55643
318 2 3.87853 153.87 4.69778
319 2 7.93511 154.007 4.91062
320 2 11.9867 154.205 4.63765
321 2 15.9379 157.865 8.73924
322 2 3.98319 158.047 8.70918
323 2 7.89588 157.956 8.89475
324 2 11.8695 157.981 8.57762
325 2 15.7974 3.48247 8.84268
326 2 4.21131 3.64673 8.6117
327 2 7.99304 3.71644 8.62074
328 2 12.0352 3.5423 8.57743
329 2 15.8362 7.54191 8.64101
330 2 4.05297 7.51833 8.29945
331 2 7.93334 7.47754 8.72801
332 2 11.9095 7.59196 8.414
333 2 0.0189036 11.4116 8.46099
334 2 3.82695 11.3496 8.37711
335 2 7.92946 11.3687 8.55381
336 2 11.8802 11.5479 8.59483
337 2 15.8048 15.4429 8.36504
338 2 3.86118 15.283 8.31051
339 2 8.00528 15.5678 8.24947
340 2 11.942 15.3265 8.75871
341 2 -0.0944871 19.3142 8.39609
342 2 3.876 19.1862 8.32264
343 2 7.70485 19.3095 8.27653
344 2 11.6046 19.1625 8.39079
345 2 -0.165395 22.9091 8.36351
346 2 3.83099 23.0202 8.20549
347 2 7.91242 23.0463 8.2622
348 2 11.8108 23.0833 8.39596
349 2 0.0546896 26.9495 8.2085
350 2 4.09649 26.9828 8.3732
351 2 7.99761 27.0247 8.35767
352 2 11.9036 27.1046 8.54194
353 2 0.234977 30.8731 8.39141
354 2 3.91467 30.873 8.35521
355 2 7.98091 30.9587 8.48349
356 2 11.9455 31.002 8.46719
357 2 15.8406 34.9327 8.52959
358 2 3.83058 35.0438 8.56791
359 2 7.91671 35.1402 8.70972
360 2 11.7552 34.9058 8.33029
361 2 -0.101896 39.1795 8.56085
362 2 3.98772 39.1058 8.4857
363 2 7.90923 39.1286 8.43903
364 2 11.9188 39.1277 8.47136
365 2 -0.0336082 43.132 8.45354
366 2 4.08849 42.9613 8.50168
367 2 7.93721 42.9881 8.56948
368 2 11.7666 43.0126 8.45372
369 2 0.0744632 47.0004 8.86214
370 2 3.92892 47.0902 8.57428
371 2 8.02781 47.0934 8.50224
372 2 11.7644 47.0835 8.48919
373 2 15.8456 51.2418 8.61864
374 2 4.14426 51.1756 8.70357
375 2 7.92996 51.1414 8.54067
376 2 11.8276 51.0451 8.8692
377 2 15.77 55.2131 8.88735
378 2 3.90408 55.2451 8.73035
379 2 7.97472 55.1509 8.86874
380 2 11.6906 55.2422 8.8168
381 2 0.0251488 59.1522 8.79344
382 2 3.77035 59.1513 8.82646
383 2 7.89758 59.2386 8.87131
384 2 11.9418 59.3091 8.98239
385 2 -0.122988 63.2834 9.02989
386 2 4.03591 63.3699 9.0466
387 2 7.91498 63.3205 9.05049
388 2 11.8901 63.3268 9.00509
389 2 15.9473 67.2857 9.00687
390 2 4.00604 67.2905 9.0753
391 2 7.84906 67.3212 8.9334
392 2 11.8297 67.5703 9.0679
393 2 15.9906 71.2733 9.00359
394 2 4.01765 71.4467 9.13218
395 2 7.90199 71.2906 9.05702
396 2 11.9487 71.3813 8.98278
397 2 15.8061 75.3966 9.05748
398 2 3.76304 75.4851 9.11139
399 2 7.80835 75.2532 9.00905
400 2 11.8518 75.4018 8.9273
401 2 15.7667 79.3065 9.18428
402 2 3.82492 79.5824 8.96752
403 2 7.84024 79.2264 9.27891
404 2 11.9534 79.2782 9.12804
405 2 -0.0269135 83.303 9.30446
406 2 3.79103 83.2571 9.28782
407 2 7.86613 83.2251 9.33504
408 2 11.7858 83.3207 9.29556
409 2 -0.167344 87.3268 9.41768
410 2 3.85188 87.2914 9.50286
411 2 7.64471 87.3516 9.49472
412 2 11.5628 87.4627 9.48983
413 2 -0.0340416 91.4905 9.54317
414 2 3.92295 91.2301 9.44735
415 2 7.61233 91.3762 9.45615
416 2 11.7522 91.5044 9.56139
417 2 15.6513 95.3687 9.39956
418 2 3.91867 95.3608 9.51697
419 2 7.8122 95.4069 9.3756
420 2 11.7598 95.4367 9.46078
421 2 15.8638 99.3428 9.36072
422 2 3.90394 99.2679 9.67062
423 2 7.76019 99.1901 9.33272
424 2 11.8914 99.2554 9.45391
425 2 0.054863 103.158 9.30548
426 2 4.02864 103.252 9.34369
427 2 8.06066 103.234 9.47156
428 2 11.8006 103.171 9.31705
429 2 -0.102266 107.099 9.33719
430 2 3.90105 107.231 9.29279
431 2 8.0437 107.37 9.44984
432 2 12.0275 107.128 9.53177
433 2 15.7331 111.131 9.16341
434 2 3.79232 111.018 9.2177
435 2 7.9643 111.2 9.3452
436 2 11.8818 111.052 9.42228
437 2 -0.043932 115.088 9.22874
438 2 4.00092 115.016 9.36721
439 2 8.01777 114.912 9.15657
440 2 11.8036 114.909 9.13568
441 2 -0.0302522 118.797 9.30725
442 2 4.03878 118.876 9.34203
443 2 8.05557 118.851 9.19088
444 2 11.9916 118.888 9.25048
445 2 15.6927 122.641 9.40938
446 2 3.80572 122.9 9.29923
447 2 7.99734 123.013 9.12881
448 2 11.7801 122.793 9.23174
449 2 15.8844 126.511 9.22273
450 2 4.02241 126.768 9.33715
451 2 7.87227 126.794 9.13835
452 2 11.9654 126.867 9.11235
453 2 -0.142201 130.581 9.11534
454 2 3.90983 130.563 9.09823
455 2 7.76613 130.603 9.20687
456 2 11.8503 130.467 9.04683
457 2 0.116014 134.244 9.06774
458 2 4.00556 134.677 8.80882
459 2 7.92207 134.602 9.14
460 2 11.7012 134.428 9.03848
461 2 0.0169904 138.379 8.92177
462 2 3.78238 138.343 9.07618
463 2 7.81903 138.452 8.92966
464 2 11.8054 138.21 8.88082
465 2 -0.0464205 142.44 8.95481
466 2 3.79136 142.206 8.48073
467 2 7.82689 142.136 8.83178
468 2 11.8158 142.451 9.0138
469 2 15.8772 146.242 9.01969
470 2 4.14855 146.051 8.82704
471 2 7.67725 146.167 8.8676
472 2 11.7639 146.131 8.85673
473 2 15.7128 150.026 8.72133
474 2 3.98565 150.188 8.75497
475 2 7.9632 150.292 8.90073
476 2 11.8263 150.135 8.75826
477 2 15.766 154.052 8.8277
478 2 4.06049 153.974 8.7977
479 2 7.88114 154.098 8.78764
480 2 11.9848 154.11 8.7905
481 2 15.8372 157.954 12.8519
482 2 3.89369 158.04 12.7301
483 2 7.85344 158.102 12.6541
484 2 11.8586 157.979 12.7759
485 2 16.0294 3.74183 12.6829
486 2 3.93645 3.71541 12.8191
487 2 7.91822 3.71105 12.5789
488 2 12.0801 3.68936 12.5139
489 2 15.7434 7.67332 12.6368
490 2 3.74222 7.67108 12.5559
491 2 7.86187 7.61893 12.7353
492 2 11.7241 7.6534 12.5854
493 2 -0.00215098 11.4731 12.4758
494 2 4.00505 11.6417 12.4829
495 2 7.71003 11.5545 12.5683
496 2 11.7923 11.3449 12.5498
497 2 0.0408132 15.4714 12.3892
498 2 4.11582 15.3347 12.3779
499 2 7.83606 15.3139 12.314
500 2 11.7807 15.332 12.4635
501 2 0.310997 19.3823 12.3903
502 2 3.78208 19.2503 12.2915
503 2 7.79412 19.1549 12.2745
504 2 11.864 19.1824 12.4544
505 2 -0.126935 23.2386 12.3246
506 2 3.98804 23.1118 12.2208
507 2 7.96867 23.1247 12.411
508 2 11.939 23.1224 12.3773
509 2 -0.023906 26.9975 12.1656
510 2 3.8504 26.9573 12.3761
511 2 7.7104 26.9613 12.2194
512 2 11.9632 26.9379 12.5552
513 2 0.231369 31.1601 12.3253
514 2 4.12603 31.0093 12.3273
515 2 8.08835 31.1411 12.392
516 2 11.8517 31.0388 12.4079
517 2 -0.0750752 34.9918 12.367
518 2 3.91415 34.9938 12.3267
519 2 7.78038 35.0019 12.5039
520 2 11.7715 34.948 12.5064
521 2 -0.242869 38.9649 12.5161
522 2 3.69358 39.0292 12.551
523 2 7.65159 39.0923 12.383
524 2 11.8052 38.853 12.3691
525 2 -0.221297 42.8806 12.5488
526 2 3.7013 43.0932 12.4208
527 2 7.50579 43.1717 12.3808
528 2 11.6456 43.0585 12.5391
529 2 -0.118616 46.9482 12.501
530 2 3.7678 46.9261 12.4627
531 2 7.80153 46.9085 12.4974
532 2 11.6173 47.2231 12.5397
533 2 0.00100876 51.0771 12.707
534 2 3.90701 51.0246 12.5409
535 2 7.79954 50.9814 12.5807
536 2 11.6819 50.9153 12.6864
537 2 15.7901 55.0049 12.6407
538 2 3.9129 55.0003 12.6491
539 2 7.9663 55.0915 12.8554
540 2 11.7538 55.0897 12.7788
541 2 15.7789 59.1748 12.7358
542 2 3.99694 59.1979 12.8237
543 2 7.96272 59.1238 12.6866
544 2 11.8537 59.1354 12.6621
545 2 15.7918 63.1534 12.7469
546 2 3.8355 63.3825 12.8915
547 2 7.84213 63.1995 12.8816
548 2 11.8777 63.2373 12.7972
549 2 -0.0882091 67.2628 13.069
550 2 4.04488 67.2193 12.9629
551 2 8.04835 67.2932 12.8549
552 2 11.9954 67.1849 12.7882
553 2 -0.141612 71.1337 12.9177
554 2 3.98091 71.3236 13.0717
555 2 7.98513 71.1939 13.0862
556 2 11.9659 71.2664 13.1206
557 2 0.0681383 75.2236 12.9541
558 2 3.95314 75.2517 12.8839
559 2 7.84478 75.2051 12.8763
560 2 11.7782 75.2043 12.8996
561 2 -0.266375 79.179 13.1253
562 2 3.90934 79.3974 12.9655
563 2 7.80906 79.0942 13.1228
564 2 11.7433 79.1336 13.1972
565 2 0.0197105 83.396 13.2301
566 2 3.87168 83.2479 13.28
567 2 7.86907 83.3253 13.3252
568 2 11.684 83.2757 13.1834
569 2 -0.0699568 87.1471 13.2549
570 2 3.76908 87.3061 13.3981
571 2 7.82706 87.1893 13.413
572 2 11.713 87.3142 13.0837
573 2 -0.132971 91.3691 13.465
574 2 3.88297 91.2876 13.3329
575 2 7.97689 91.5391 13.527
576 2 11.6749 91.1354 13.3545
577 2 -0.0506434 95.4715 13.6038
578 2 3.95921 95.3866 13.5193
579 2 7.95321 95.3509 13.5902
580 2 11.706 95.5917 13.2737
581 2 0.032922 99.499 13.3134
582 2 3.89796 99.3471 13.4123
583 2 7.83389 99.3711 13.4733
584 2 12.0195 99.5246 13.507
585 2 0.0922063 103.474 13.511
586 2 3.85455 103.121 13.1779
587 2 7.8035 103.244 13.2545
588 2 11.9466 103.338 13.3942
589 2 -0.030464 107.219 13.5242
590 2 3.8942 107.055 13.3873
591 2 7.88517 107.167 13.3844
592 2 11.9102 107.245 13.3911
593 2 -0.124429 111.066 13.4119
594 2 3.83078 111.16 13.269
595 2 7.72166 110.969 13.137
596 2 11.9131 111.234 13.2595
597 2 -0.138189 114.981 13.4211
598 2 4.0391 114.821 13.2895
599 2 7.9925 114.923 13.3533
600 2 11.8021 114.968 13.268
601 2 0.0531578 118.833 13.4554
602 2 4.10032 118.855 13.3734
603 2 7.90467 118.942 13.2787
604 2 11.986 118.843 13.3658
605 2 0.0333716 122.667 13.3463
606 2 3.99146 122.535 13.2164
607 2 8.18451 122.986 13.1437
608 2 11.9862 122.715 13.3531
609 2 0.175745 126.688 13.0417
610 2 3.96353 126.693 13.2956
611 2 8.02237 126.738 13.0139
612 2 11.9616 126.741 13.0993
613 2 15.8449 130.577 13.072
614 2 4.06796 130.785 13.0859
615 2 7.88033 130.792 13.1046
616 2 11.9593 130.542 13.1015
617 2 15.9091 134.578 13.0851
618 2 3.90215 134.677 12.9232
619 2 8.01176 134.669 13.1126
620 2 11.9798 134.579 13.1275
621 2 0.0249185 138.553 12.8684
622 2 3.99949 138.369 13.1438
623 2 7.8721 138.536 13.0249
624 2 11.8786 138.549 12.9854
625 2 15.6637 142.473 12.8844
626 2 3.91603 142.441 13.0561
627 2 7.96068 142.436 12.9958
628 2 11.9449 142.429 12.8916
629 2 0.0766684 146.35 12.9661
630 2 3.92751 146.425 12.8709
631 2 7.89416 146.306 12.8157
632 2 11.8862 146.323 12.8412
633 2 0.18964 150.187 12.8379
634 2 3.92074 150.134 12.8636
635 2 8.0115 150.383 12.8567
636 2 11.8123 150.366 12.8429
637 2 15.8533 153.931 12.8684
638 2 3.85802 154.122 12.6668
639 2 8.00455 154.209 12.6532
640 2 12.0285 154.156 12.7446
641 2 -0.0599119 157.91 16.9476
642 2 3.97834 -0.104576 16.6987
643 2 7.7938 158.114 16.7727
644 2 11.8476 158.312 16.6493
645 2 15.8999 3.77452 16.5515
646 2 3.91066 3.7532 16.734
647 2 7.96333 3.82678 16.4981
648 2 11.7207 3.90337 16.5608
649 2 0.0185583 7.72695 16.562
650 2 3.95395 7.53873 16.5463
651 2 7.90571 7.6927 16.6415
652 2 11.8459 7.64394 16.671
653 2 0.0305169 11.4139 16.5476
654 2 3.8743 11.5868 16.5394
655 2 7.86749 11.5401 16.5916
656 2 11.8536 11.5584 16.5874
657 2 -0.0699215 15.506 16.448
658 2 3.89771 15.2916 16.5236
659 2 7.89127 15.3578 16.3347
660 2 11.9267 15.5262 16.2692
661 2 15.8595 19.3944 16.5172
662 2 3.94954 19.2411 16.3424
663 2 7.82723 19.35 16.4043
664 2 11.7976 19.2672 16.4579
665 2 0.0135685 23.2236 16.3324
666 2 3.89887 23.3268 16.3978
667 2 7.88476 23.2373 16.2834
668 2 11.8601 23.257 16.2975
669 2 0.103972 27.3103 16.5177
670 2 3.91786 27.1573 16.2266
671 2 7.96096 27.0775 16.2944
672 2 11.8516 27.0413 16.192
673 2 0.0537159 30.951 16.4216
674 2 4.05334 30.9387 16.3716
675 2 8.08335 30.8747 16.3973
676 2 11.9511 30.9928 16.3209
677 2 0.00996964 34.7785 16.3357
678 2 3.96315 34.8863 16.358
679 2 7.91722 35.0172 16.4576
680 2 11.882 35.0048 16.4551
681 2 0.00495226 39.0126 16.4864
682 2 3.74452 38.9005 16.3404
683 2 7.6296 39.0622 16.098
684 2 11.8062 38.9753 16.2226
685 2 -0.168856 43.0753 16.4687
686 2 3.88185 43.1628 16.2747
687 2 7.7875 42.9735 16.4565
688 2 11.7155 42.9054 16.4754
689 2 15.6954 46.9723 16.3938
690 2 3.8313 46.9712 16.4771
691 2 7.70333 46.9923 16.5471
692 2 11.7288 46.8698 16.5135
693 2 0.0488427 50.777 16.5015
694 2 3.80727 51.0889 16.4197
695 2 7.96088 51.0622 16.5111
696 2 11.6892 50.9696 16.6218
697 2 -0.194204 54.9553 16.4893
698 2 3.8599 55.0011 16.6472
699 2 7.69473 55.1925 17.015
700 2 11.7472 55.0092 16.6613
701 2 0.241044 58.9076 16.5698
702 2 3.99897 58.9949 16.6922
703 2 7.86791 59.0634 16.5943
704 2 12.1301 58.9699 16.6751
705 2 -0.0692684 62.9801 16.6824
706 2 3.95312 63.1237 16.837
707 2 7.61903 63.0574 16.7675
708 2 11.8339 63.0352 16.6723
709 2 0.101789 67.2082 16.9706
710 2 3.88368 67.1096 16.6971
711 2 7.94387 67.1278 16.7636
712 2 11.7844 67.0264 16.8279
713 2 -0.0520166 71.2182 16.8722
714 2 3.88583 70.9884 16.9641
715 2 7.82602 71.1585 17.0054
716 2 12.0238 71.2323 16.8196
717 2 0.194274 75.1647 16.7131
718 2 4.09072 75.2693 16.8242
719 2 7.99011 75.149 16.9238
720 2 11.9419 75.2049 16.7892
721 2 -0.106733 79.2409 16.9933
722 2 4.01376 79.1222 17.0449
723 2 7.86356 79.1369 17.1895
724 2 11.9849 79.3129 17.081
725 2 -0.166374 83.1579 17.1977
726 2 3.83896 83.1896 17.163
727 2 7.69016 83.2997 17.0061
728 2 11.8738 83.3028 16.9611
729 2 -0.0233418 87.1533 17.2054
730 2 3.89668 87.2194 17.1877
731 2 7.81699 87.2239 17.234
732 2 11.9021 87.2061 17.2458
733 2 -0.117822 91.4116 17.1219
734 2 3.81106 91.1755 17.309
735 2 7.67198 91.4 17.2029
736 2 11.6912 91.2574 17.1726
737 2 -0.0785411 95.248 17.2685
738 2 3.89546 95.3526 17.4766
739 2 7.85686 95.2303 17.4992
740 2 11.9383 95.2317 17.3459
741 2 -0.00539778 99.3647 17.5205
742 2 3.89554 99.4096 17.4132
743 2 7.80425 99.4 17.3935
744 2 11.8122 99.4299 17.4281
745 2 -0.237515 103.401 17.5433
746 2 3.72215 103.168 17.4232
747 2 7.87045 103.301 17.3936
748 2 11.6273 103.236 17.3428
749 2 -0.0273941 107.151 17.5929
750 2 3.89961 107.282 17.4154
751 2 7.69384 107.065 17.3523
752 2 11.5971 107.414 17.2332
753 2 -0.291158 111.15 17.3858
754 2 3.89601 111.212 17.2764
755 2 7.73089 111.046 17.2978
756 2 11.8699 111.13 17.4733
757 2 -0.181778 115.254 17.3656
758 2 3.98363 114.95 17.3859
759 2 7.92981 114.887 17.4483
760 2 11.7919 115.136 17.3318
761 2 0.107981 119.105 17.2111
762 2 3.95552 118.85 17.3069
763 2 7.91342 119.022 17.2676
764 2 11.8749 118.98 17.2394
765 2 0.0840308 122.855 17.1412
766 2 4.14443 122.743 17.3467
767 2 7.98469 122.933 17.3626
768 2 11.9191 122.973 17.3584
769 2 15.8212 126.8 17.0868
770 2 3.93096 126.723 17.155
771 2 8.07376 126.827 17.0922
772 2 11.9094 126.787 17.2539
773 2 15.9035 130.682 17.1266
774 2 4.09258 130.585 17.0296
775 2 8.0067 130.856 17.1889
776 2 12.0803 130.553 17.0611
777 2 16.0878 134.612 17.1243
778 2 4.14338 134.511 17.0172
779 2 8.09051 134.638 17.2579
780 2 12.0185 134.78 17.0666
781 2 0.229417 138.542 16.8121
782 2 4.23986 138.537 17.1224
783 2 8.15303 138.623 16.9087
784 2 12.058 138.543 17.151
785 2 15.8254 142.315 16.8817
786 2 4.0551 142.453 16.8455
787 2 8.04943 142.538 16.9202
788 2 11.914 142.495 16.9823
789 2 15.8989 146.242 16.783
790 2 3.99422 146.268 16.8698
791 2 7.92253 146.228 16.9564
792 2 11.8839 146.296 16.8374
793 2 15.8962 150.282 16.8666
794 2 4.06159 150.121 16.795
795 2 7.99262 150.256 16.6448
796 2 11.9846 150.223 16.7805
797 2 15.9008 154.078 16.8525
798 2 4.19366 154.156 16.7056
799 2 7.82385 154.258 16.8849
800 2 11.8878 154.128 16.6959
801 2 15.8237 158.255 20.5705
802 2 3.98632 158.246 20.8192
803 2 8.011 158.058 20.6056
804 2 11.724 158.138 20.706
805 2 -0.133444 3.79358 20.4486
806 2 3.97372 3.79032 20.6017
807 2 7.92262 3.63305 20.6537
808 2 11.7203 3.7653 20.5815
809 2 15.7215 7.69473 20.5445
810 2 3.9902 7.7297 20.6363
811 2 7.85655 7.71128 20.5881
812 2 11.7394 7.63781 20.6754
813 2 15.5947 11.646 20.5438
814 2 3.91088 11.6116 20.553
815 2 7.81001 11.6149 20.5736
816 2 11.7346 11.6512 20.5245
817 2 15.8649 15.5721 20.4007
818 2 4.05748 15.5883 20.4341
819 2 7.6767 15.5023 20.4259
820 2 11.8091 15.4742 20.4034
821 2 -0.0484771 19.3714 20.4806
822 2 4.07467 19.4107 20.3712
823 2 7.96429 19.3467 20.4324
824 2 11.8924 19.5469 20.3021
825 2 -0.132707 23.3116 20.4523
826 2 3.92424 23.3386 20.5219
827 2 7.92368 23.1894 20.4222
828 2 11.6784 23.5153 20.4556
829 2 15.7455 27.2596 20.3934
830 2 3.86172 27.2002 20.4016
831 2 7.98037 27.1654 20.3419
832 2 11.9005 27.1111 20.3727
833 2 15.9102 31.1083 20.4272
834 2 4.01011 31.3758 20.3782
835 2 7.99838 31.0199 20.265
836 2 11.7386 31.2102 20.4192
837 2 15.8194 35.1313 20.4641
838 2 4.01091 35.0806 20.4128
839 2 7.84599 35.3121 20.1511
840 2 12.0022 35.1555 20.1919
841 2 -0.0780887 39.0819 20.3405
842 2 4.08058 38.9408 20.2344
843 2 8.15688 39.0868 20.2798
844 2 12.0491 38.8939 20.244
845 2 15.6249 43.0452 20.4763
846 2 3.88164 42.7826 20.2921
847 2 8.03988 42.8421 20.3162
848 2 11.9708 42.9312 20.4665
849 2 15.6096 46.9314 20.1711
850 2 3.93555 46.8333 20.3728
851 2 7.88066 46.8618 20.4354
852 2 11.7807 46.9458 20.5161
853 2 -0.182938 50.9454 20.4445
854 2 3.85032 50.8609 20.4872
855 2 7.82324 50.8625 20.3851
856 2 11.9498 50.8986 20.4707
857 2 -0.0273413 55.0768 20.2653
858 2 3.94096 54.9982 20.5431
859 2 7.86173 54.8835 20.6034
860 2 11.9117 54.9875 20.5914
861 2 15.9145 59.07 20.4797
862 2 3.9457 59.0959 20.7
863 2 7.95121 58.8881 20.6203
864 2 11.6921 59.1589 20.556
865 2 15.7659 62.8286 20.6032
866 2 3.67996 63.227 20.7444
867 2 7.67915 63.0237 20.4881
868 2 12.0354 63.0927 20.5665
869 2 0.0828469 67.0431 20.8262
870 2 3.86266 67.2033 20.7778
871 2 7.823 67.0805 20.6599
872 2 11.6523 67.1536 20.753
873 2 0.0243378 71.134 20.5973
874 2 3.98834 71.1008 20.7795
875 2 7.85588 71.0278 20.8099
876 2 11.9026 71.2583 20.7416
877 2 0.29723 75.2075 20.8994
878 2 4.11048 75.2129 20.6668
879 2 7.93641 75.0987 20.9036
880 2 11.7548 75.1294 20.8766
881 2 0.142406 79.0706 21.0559
882 2 4.09579 79.4205 20.9146
883 2 8.13722 79.2302 20.9339
884 2 12.0168 79.2538 20.8645
885 2 0.114568 83.1696 20.9102
886 2 3.98294 83.3271 21.0378
887 2 7.77115 83.132 20.9797
888 2 11.7665 83.2008 21.1114
889 2 -0.00865164 87.1568 21.3666
890 2 3.96623 87.0204 21.0963
891 2 7.93287 87.2024 21.0055
892 2 11.6746 87.461 21.2917
893 2 -0.155854 91.0617 20.9374
894 2 3.82061 91.2416 21.2446
895 2 7.7679 91.0832 21.2347
896 2 11.8445 91.2226 21.1111
897 2 -0.0801248 95.1856 21.2486
898 2 4.03541 95.282 21.3499
899 2 7.74701 95.3221 21.3434
900 2 11.72 95.1073 21.1864
901 2 -0.240145 99.2238 21.3733
902 2 3.6656 99.3092 21.4478
903 2 7.57954 99.2232 21.3973
904 2 11.6674 99.2576 21.1449
905 2 -0.110554 103.322 21.3334
906 2 3.77026 103.344 21.3775
907 2 7.6969 103.417 21.4137
908 2 11.7291 103.364 21.5806
909 2 0.0921363 107.154 21.509
910 2 4.08376 107.17 21.3882
911 2 7.93324 107.338 21.5391
912 2 11.8552 107.276 21.374
913 2 -0.176947 111.031 21.3691
914 2 3.87285 111.091 21.4941
915 2 7.93277 111.215 21.4989
916 2 11.8118 111.166 21.34
917 2 15.8498 114.876 21.254
918 2 3.7846 114.866 21.5193
919 2 7.90504 115.119 21.3813
920 2 11.8546 115.072 21.3742
921 2 -0.0272204 118.964 21.496
922 2 4.0168 119.091 21.2772
923 2 7.96646 119.098 21.342
924 2 11.8793 118.924 21.1728
925 2 15.8524 123.039 21.3329
926 2 4.08623 122.975 21.2901
927 2 8.03976 122.929 21.3738
928 2 11.8472 122.814 21.3977
929 2 15.8461 126.894 21.1968
930 2 3.80734 126.739 21.2319
931 2 8.04276 126.842 21.3165
932 2 11.9159 126.926 21.2022
933 2 15.9575 130.936 21.0847
934 2 4.11314 130.564 20.958
935 2 7.81835 130.726 21.4077
936 2 12.054 130.88 21.1588
937 2 0.0536551 134.752 21.1356
938 2 4.19895 134.582 20.9283
939 2 8.20802 134.612 21.2088
940 2 11.8957 134.718 21.1415
941 2 15.84 138.538 20.991
942 2 3.95385 138.586 21.0266
943 2 8.00137 138.447 21.0711
944 2 12.0998 138.723 21.0573
945 2 15.8775 142.466 20.9868
946 2 3.76756 142.503 20.8925
947 2 7.92257 142.377 20.943
948 2 11.9263 142.503 21.1109
949 2 16.0632 146.342 20.8651
950 2 4.05039 146.331 20.8809
951 2 8.00895 146.376 21.0464
952 2 11.9927 146.407 21.0921
953 2 16.0478 150.289 20.8802
954 2 4.08472 150.18 20.7685
955 2 7.93375 150.277 20.8232
956 2 12.026 150.236 20.8561
957 2 15.7045 154.251 20.7274
958 2 3.91173 154.287 20.8175
959 2 8.17107 154.217 20.7974
960 2 11.9487 154.291 20.9481
961 2 -0.00816232 158.232 24.535
962 2 3.88008 158.229 24.7269
963 2 7.78582 158.198 24.7731
964 2 11.9385 158.277 24.6886
965 2 15.8417 3.74468 24.5943
966 2 3.99774 3.83175 24.6673
967 2 7.8533 3.896 24.6439
968 2 11.8717 3.76254 24.4869
969 2 15.7455 7.71431 24.5737
970 2 3.79617 7.64357 24.5166
971 2 7.7357 7.74262 24.673
972 2 11.7915 7.63517 24.5569
973 2 15.922 11.53 24.6318
974 2 3.82919 11.57 24.5346
975 2 7.81826 11.447 24.5399
976 2 11.7051 11.5954 24.6771
977 2 -0.0336579 15.6934 24.4523
978 2 3.99612 15.6139 24.4233
979 2 7.96027 15.5891 24.558
980 2 11.8024 15.4443 24.5648
981 2 -0.0140445 19.4741 24.4063
982 2 4.02135 19.5048 24.3859
983 2 7.91922 19.2973 24.5584
984 2 11.8531 19.4282 24.3897
985 2 -0.126386 23.3815 24.4702
986 2 3.99725 23.5118 24.2894
987 2 7.75238 23.3881 24.501
988 2 11.8998 23.2978 24.4847
989 2 0.00615937 27.3406 24.3059
990 2 3.75611 27.2691 24.3747
991 2 7.70241 27.2138 24.4768