ITEM: TIMESTEP
20300
ITEM: NUMBER OF ATOMS
32000
ITEM: BOX BOUNDS xy xz yz pp pp pp
0.0000000000000000e+00 1.5832000000000001e+01 0.0000000000000000e+00
0.0000000000000000e+00 1.5831999999999999e+02 0.0000000000000000e+00
7.9533360793401187e-01 1.6018178439206298e+02 0.0000000000000000e+00
ITEM: ATOMS id type x y z
1 2 15.9556 157.706 160.034
2 2 4.14132 157.99 159.981
3 2 8.03969 157.788 159.938
4 2 11.919 157.898 160.022
5 2 -0.141548 3.33061 159.963
6 2 3.95541 3.52526 159.929
7 2 7.83455 3.5241 159.881
8 2 11.9275 3.40352 159.873
9 2 15.9698 7.39738 159.901
10 2 3.96471 7.32527 159.854
11 2 7.79224 7.41479 159.851
12 2 11.7893 7.57747 159.72
13 2 15.9199 11.2534 159.964
14 2 4.00848 10.9571 159.705
15 2 8.14914 11.2079 159.837
16 2 12.0029 11.3085 159.664
17 2 -0.031718 14.9904 159.734
18 2 3.94403 15.0798 159.856
19 2 7.91495 15.086 159.762
20 2 11.7486 15.2619 159.693
21 2 15.9053 19.0663 159.879
22 2 3.95389 19.1274 159.641
23 2 7.83582 19.055 159.623
24 2 11.7653 19.0548 159.791
25 2 15.6078 23.1853 159.645
26 2 3.8956 23.0148 159.826
27 2 7.8913 23.0359 159.907
28 2 11.9 23.0517 159.645
29 2 15.9428 27.1001 159.926
30 2 3.97234 26.9441 159.87
31 2 7.89519 26.9119 159.889
32 2 11.952 27.2084 159.749
33 2 15.7871 31.1403 160.028
34 2 3.83822 31.0857 0.586654
35 2 7.82029 31.0155 160.036
36 2 11.7644 31.0904 159.878
37 2 -0.0858964 35.0766 160.03
38 2 3.71101 35.2156 159.869
39 2 7.83836 35.0152 159.919
40 2 11.8674 35.1186 160.072
41 2 -0.0871492 39.1088 159.976
42 2 3.94655 39.1113 0.442598
43 2 7.92798 39.0384 0.560761
44 2 11.8764 39.3822 0.464389
45 2 -0.303285 43.3323 160.025
46 2 3.96085 43.1527 160.109
47 2 8.07494 43.1909 0.696056
48 2 11.9126 43.3338 0.730679
49 2 -0.022878 47.2603 0.806332
50 2 3.92728 47.3238 1.02994
51 2 7.83754 47.2247 0.786169
52 2 11.8601 47.2876 0.730217
53 2 -0.156072 51.2426 1.00774
54 2 3.91341 51.2116 0.85917
55 2 7.83671 51.4078 0.996158
56 2 12.0213 51.344 0.953179
57 2 15.8396 55.2539 1.06059
58 2 3.84408 55.3859 1.03851
59 2 7.97496 55.331 0.959267
60 2 11.9481 55.4068 1.04194
61 2 -0.0307116 59.4749 0.953181
62 2 3.89266 59.349 0.970857
63 2 7.74926 59.3357 1.08434
64 2 11.8577 59.367 1.0586
65 2 -0.162282 63.5652 1.20838
66 2 3.99376 63.3313 1.13161
67 2 7.92532 63.4172 1.2083
68 2 11.7082 63.4897 1.11
69 2 15.7538 67.3757 1.06495
70 2 3.83794 67.3997 1.26056
71 2 7.79772 67.4224 1.03466
72 2 11.7394 67.5584 1.10429
73 2 0.0224037 71.2916 1.17114
74 2 3.83235 71.4136 1.18725
75 2 7.88982 71.3933 1.12121
76 2 11.8269 71.4516 1.0864
77 2 -0.394686 75.4554 1.33978
78 2 3.8338 75.5167 1.26492
79 2 7.67714 75.5152 1.21576
80 2 11.7278 75.3619 1.3412
81 2 0.0600912 79.5227 1.19337
82 2 4.0269 79.4491 1.47606
83 2 7.78445 79.5465 1.33243
84 2 11.8117 79.4678 1.30005
85 2 -0.092431 83.6017 1.67221
86 2 3.95379 83.5164 1.30036
87 2 7.75715 83.4683 1.48727
88 2 11.8698 83.4266 1.31494
89 2 0.0760126 87.6815 1.51292
90 2 4.0288 87.6476 1.62322
91 2 7.90505 87.6265 1.55655
92 2 11.9003 87.5239 1.58949
93 2 -0.120422 91.4558 1.44513
94 2 4.00777 91.4786 1.62658
95 2 7.87555 91.5007 1.52409
96 2 11.8773 91.4421 1.56147
97 2 15.7124 95.4062 1.52647
98 2 3.75291 95.2981 1.29528
99 2 7.7323 95.2697 1.50355
100 2 11.8935 95.2188 1.57484
101 2 -0.052449 99.2263 1.48702
102 2 4.11479 99.2311 1.58005
103 2 8.0313 99.1772 1.64171
104 2 11.684 99.428 1.46737
105 2 0.0964276 103.259 1.22276
106 2 4.07127 102.963 1.23104
107 2 7.95163 103.229 1.29697
108 2 11.8458 103.358 1.21461
109 2 0.0180166 107.188 1.11463
110 2 3.93219 107.216 1.26304
111 2 7.98762 106.88 1.25042
112 2 11.6935 107.094 1.22432
113 2 -0.0373494 111.048 1.22964
114 2 3.76123 111.011 1.20101
115 2 7.79244 110.749 1.42219
116 2 11.9531 110.906 1.15279
117 2 15.836 114.895 1.11481
118 2 4.01019 114.899 1.27662
119 2 7.91849 114.87 1.20451
120 2 11.821 114.825 1.33277
121 2 -0.00269102 118.796 0.962368
122 2 4.08329 118.63 1.07079
123 2 8.08317 118.77 1.119
124 2 11.9176 118.667 0.99523
125 2 15.632 122.545 1.11423
126 2 4.00903 122.597 1.0072
127 2 7.74323 122.684 1.08164
128 2 11.9291 122.438 1.26527
129 2 0.0933146 126.49 0.972766
130 2 3.94817 126.658 0.949292
131 2 7.76171 126.383 1.07984
132 2 11.8759 126.517 1.14782
133 2 15.6618 130.291 0.990293
134 2 3.95032 130.423 0.960915
135 2 7.89367 130.417 1.08541
136 2 11.6758 130.404 0.926666
137 2 15.74 134.433 0.916362
138 2 3.89869 134.465 0.808217
139 2 7.75817 134.519 160.45
140 2 11.6465 134.306 0.904776
141 2 -0.238938 138.236 0.895289
142 2 3.91832 138.288 160.398
143 2 7.73051 138.278 160.261
144 2 11.8404 138.43 0.782338
145 2 15.8655 142.128 160.216
146 2 4.18087 142.121 160.199
147 2 7.7882 142.286 160.391
148 2 11.7496 142.403 160.172
149 2 0.106896 145.995 160.091
150 2 3.78511 146.266 160.151
151 2 7.69945 146.113 160.158
152 2 11.7695 146.109 160.134
153 2 15.74 150.026 160.054
154 2 3.96767 150.087 160.094
155 2 7.88665 150.153 160.173
156 2 11.7092 149.953 0.832503
157 2 16.1004 153.958 160.122
158 2 4.02172 153.951 160.102
159 2 8.01348 153.823 160.095
160 2 11.9071 153.877 160.06
161 2 15.9185 157.844 4.806
162 2 4.16691 157.804 4.61305
163 2 7.78141 157.848 4.63855
164 2 11.895 157.838 4.49593
165 2 -0.0875471 3.52553 4.60447
166 2 3.97077 3.48253 4.74488
167 2 8.09111 3.72723 4.54916
168 2 12.0811 3.55554 4.41483
169 2 0.126729 7.38055 4.57835
170 2 3.97855 7.3121 4.58525
171 2 7.89209 7.45638 4.6268
172 2 12.0495 7.52074 4.63752
173 2 -0.184261 11.292 4.45392
174 2 3.91947 11.4853 4.53026
175 2 7.93833 11.4049 4.4289
176 2 11.9966 11.2794 4.53805
177 2 15.7055 15.2456 4.52059
178 2 3.67118 15.2082 4.49403
179 2 7.85295 15.2748 4.43505
180 2 11.6817 15.3354 4.39963
181 2 -0.351036 19.1486 4.12446
182 2 3.77365 19.2681 4.33846
183 2 7.7121 19.0793 4.18252
184 2 11.756 19.1113 4.40121
185 2 0.00428357 23.103 4.36205
186 2 3.73476 22.9305 4.31637
187 2 8.03543 23.1037 4.31473
188 2 11.8812 23.0083 4.27741
189 2 15.8682 26.9735 4.46398
190 2 3.96631 26.8972 4.34778
191 2 8.02035 27.0138 4.32138
192 2 11.8438 26.9374 4.33772
193 2 0.0207819 31.0653 4.2976
194 2 3.94616 31.0549 4.34539
195 2 7.85612 31.0689 4.42346
196 2 11.7457 31.0537 4.48027
197 2 -0.131649 34.9639 4.36307
198 2 3.91789 35.0793 4.50124
199 2 7.8199 35.3105 4.61428
200 2 11.487 35.1262 4.44702
201 2 15.6832 39.1147 4.57411
202 2 3.8679 39.0573 4.41743
203 2 7.92565 39.2557 4.65749
204 2 11.7521 39.1303 4.50034
205 2 0.0750825 43.197 4.57963
206 2 3.98563 43.2189 4.63607
207 2 7.92198 43.064 4.54217
208 2 11.6954 43.1529 4.54254
209 2 -0.054044 47.2543 4.56212
210 2 3.79603 47.2661 4.77323
211 2 7.98656 47.2111 4.66312
212 2 11.7375 47.1974 4.81293
213 2 -0.0288655 51.3509 4.9498
214 2 3.97719 51.2246 4.701
215 2 7.95292 51.221 4.86608
216 2 11.8391 51.2432 4.79324
217 2 0.0117331 55.1558 4.95075
218 2 3.98554 55.3646 4.78098
219 2 8.03647 55.3533 4.86991
220 2 11.8557 55.2637 4.92287
221 2 15.9528 59.1494 4.96925
222 2 3.83364 59.3093 4.96755
223 2 7.89827 59.2062 5.08868
224 2 11.7316 59.2101 5.08219
225 2 -0.112317 63.1686 4.89053
226 2 3.87768 63.5812 5.06269
227 2 7.78324 63.4857 4.96537
228 2 11.7035 63.2558 4.9533
229 2 15.621 67.3901 5.1645
230 2 3.86366 67.269 4.99957
231 2 7.67153 67.4396 4.97831
232 2 11.7139 67.3485 5.05563
233 2 15.76 71.2949 5.09503
234 2 3.80647 71.4445 5.17844
235 2 7.88994 71.3135 5.23526
236 2 11.9325 71.3609 4.98968
237 2 15.7642 75.3045 5.23667
238 2 3.78191 75.3963 4.90493
239 2 7.83456 75.4799 5.24649
240 2 11.6927 75.7197 5.02854
241 2 -0.331786 79.4349 5.40751
242 2 3.85328 79.5088 5.24676
243 2 7.92846 79.5873 5.62529
244 2 11.7863 79.4164 5.34881
245 2 15.567 83.5174 5.34026
246 2 3.85768 83.3545 5.30728
247 2 7.97789 83.4768 5.37583
248 2 11.8337 83.5886 5.22236
249 2 -0.0384227 87.4762 5.4634
250 2 3.95259 87.3833 5.48815
251 2 7.96135 87.4229 5.41781
252 2 12.1677 87.5905 5.61804
253 2 0.0296895 91.5286 5.60572
254 2 4.15072 91.3719 5.50653
255 2 7.96529 91.2119 5.62017
256 2 11.876 91.5365 5.67188
257 2 15.8582 95.3868 5.61934
258 2 3.96042 95.3072 5.70607
259 2 7.85768 95.3877 5.54327
260 2 11.6838 95.4637 5.5782
261 2 -0.167236 99.4921 5.43565
262 2 3.93563 99.2393 5.39178
263 2 7.9893 99.1237 5.69711
264 2 11.7716 99.3865 5.46512
265 2 0.104757 103.288 5.32062
266 2 3.91498 103.218 5.37241
267 2 8.07925 103.241 5.40316
268 2 12.0958 103.24 5.41279
269 2 15.9858 107.182 5.3787
270 2 4.09368 107.095 5.27712
271 2 7.87888 107.17 5.3901
272 2 11.9462 107.195 5.33056
273 2 15.8379 111.274 5.11855
274 2 4.00026 111.204 5.31032
275 2 7.98083 111.105 5.2161
276 2 12.043 111.064 5.24445
277 2 -0.146037 115.083 5.26105
278 2 3.89998 114.882 5.37462
279 2 8.08677 115.062 5.15853
280 2 12.1198 114.85 5.29066
281 2 0.0567942 118.818 5.28092
282 2 4.00847 118.76 5.229
283 2 7.93758 118.849 5.16272
284 2 11.9712 118.996 5.19093
285 2 15.9397 122.779 5.13519
286 2 3.86528 122.72 4.96287
287 2 7.87093 122.695 5.10229
288 2 11.8004 122.816 4.93242
289 2 -0.101582 126.559 5.08086
290 2 3.70707 126.569 5.1389
291 2 7.76486 126.672 5.07564
292 2 11.751 126.577 5.10019
293 2 -0.26273 130.451 4.96309
294 2 3.82338 130.513 4.95011
295 2 7.91073 130.617 5.07324
296 2 11.7264 130.529 4.83913
297 2 15.7332 134.442 5.01759
298 2 3.61051 134.33 4.8526
299 2 7.83883 134.411 5.06406
300 2 11.8274 134.544 4.99867
301 2 0.0175386 138.326 5.01888
302 2 3.74263 138.341 4.98488
303 2 7.71141 138.106 4.78875
304 2 11.7486 138.166 4.98922
305 2 -0.191714 142.295 4.91957
306 2 3.93414 142.21 5.0412
307 2 7.71763 142.248 4.93549
308 2 11.9211 142.054 4.90406
309 2 15.9103 146.203 4.69225
310 2 3.96298 146.281 4.80441
311 2 7.84123 146.184 4.85419
312 2 11.6796 146.249 4.86628
313 2 15.5735 150.029 4.64743
314 2 4.12552 150.173 4.89699
315 2 8.01256 150.127 4.7579
316 2 11.6041 150.092 4.81979
317 2 15.8789 153.976 4.85405
318 2 3.99181 154.111 4.75463
319 2 7.84421 153.907 4.50968
320 2 11.787 153.948 4.75812
321 2 15.6705 158.086 8.62722
322 2 3.9282 157.922 8.5736
323 2 8.17393 158.082 8.51319
324 2 11.9417 157.778 8.64043
325 2 15.946 3.61073 8.47833
326 2 3.8682 3.55681 8.71049
327 2 8.07179 3.48251 8.63178
328 2 11.9634 3.48862 8.61284
329 2 15.8565 7.55355 8.53343
330 2 3.89727 7.56729 8.76623
331 2 7.94312 7.58928 8.49196
332 2 11.8367 7.43791 8.76245
333 2 0.0131434 11.4624 8.53109
334 2 4.00031 11.5484 8.64582
335 2 7.97987 11.5094 8.44715
336 2 11.9125 11.4489 8.38262
337 2 15.7444 15.3941 8.36988
338 2 3.97305 15.4104 8.30372
339 2 7.87876 15.3571 8.30926
340 2 11.8918 15.3068 8.18026
341 2 -0.122075 19.188 8.48359
342 2 3.97239 19.2708 8.39831
343 2 7.95048 19.3065 8.36794
344 2 11.9933 19.2408 8.53643
345 2 -0.0685083 23.2204 8.30545
346 2 3.96954 23.0182 8.28173
347 2 8.06788 23.1027 8.19957
348 2 11.8675 23.0721 8.37361
349 2 0.0397968 27.0212 8.45251
350 2 4.16124 27.1302 8.29747
351 2 7.8327 26.9766 8.31605
352 2 11.8735 27.1012 8.43795
353 2 -0.108235 31.0694 8.31927
354 2 3.91924 31.0995 8.31447
355 2 7.89171 31.1053 8.24702
356 2 11.9718 31.0983 8.27772
357 2 15.6975 35.094 8.44531
358 2 4.09591 35.0153 8.12368
359 2 7.86385 35.0386 8.50557
360 2 12.0392 35.0989 8.30839
361 2 -0.0793687 38.9571 8.4113
362 2 3.65095 39.0702 8.48964
363 2 7.84785 38.9794 8.59739
364 2 11.8204 39.0218 8.58647
365 2 -0.0542488 42.8997 8.53202
366 2 3.74832 43.2721 8.60162
367 2 7.75077 43.1974 8.50088
368 2 11.9465 43.1018 8.53724
369 2 -0.122656 47.1664 8.47006
370 2 4.00268 47.3185 8.76955
371 2 7.83313 47.097 8.57947
372 2 11.8692 47.0113 8.62472
373 2 15.8766 51.1106 8.97795
374 2 3.8936 51.2449 8.78224
375 2 7.83999 51.101 8.84414
376 2 11.8138 51.0678 8.5816
377 2 15.8445 55.0694 8.74295
378 2 3.998 55.2127 8.77934
379 2 7.84923 55.1543 8.81944
380 2 11.9757 55.0269 8.87907
381 2 -0.134544 59.2753 8.96199
382 2 4.11479 59.3137 8.81115
383 2 7.93586 59.171 8.97354
384 2 11.8513 59.2761 8.84812
385 2 0.151031 63.2649 8.95508
386 2 3.93911 63.343 8.87248
387 2 7.80341 63.2799 8.81679
388 2 11.9819 63.2844 8.96187
389 2 15.7645 67.3038 8.94041
390 2 4.09313 67.596 9.09285
391 2 8.0205 67.4418 8.95772
392 2 11.8672 67.0499 9.08546
393 2 15.8438 71.3438 8.94781
394 2 3.91206 71.3728 9.00276
395 2 8.02696 71.3628 8.97775
396 2 11.8753 71.2581 8.85925
397 2 15.6412 75.184 8.91202
398 2 4.05798 75.2545 8.94638
399 2 7.87284 75.3425 9.03293
400 2 11.834 75.2249 9.1258
401 2 15.801 79.2952 9.14635
402 2 3.95664 79.2226 9.02306
403 2 7.9344 79.4729 9.18426
404 2 11.7617 79.4877 9.43444
405 2 -0.113557 83.3689 9.22166
406 2 3.94837 83.5036 9.32485
407 2 7.88756 83.5139 9.31688
408 2 11.8557 83.4757 9.33179
409 2 -0.222323 87.5194 9.35068
410 2 3.871 87.4646 9.44568
411 2 7.96372 87.2649 9.21644
412 2 11.8308 87.51 9.29376
413 2 -0.0649198 91.533 9.56338
414 2 3.91908 91.4124 9.60715
415 2 7.87379 91.3155 9.44047
416 2 11.7021 91.5545 9.52403
417 2 16.0493 95.3665 9.55024
418 2 3.99731 95.2691 9.45756
419 2 7.84639 95.398 9.6226
420 2 11.9259 95.4041 9.60525
421 2 15.8678 99.3514 9.51535
422 2 3.93711 99.3958 9.2617
423 2 7.95591 99.4827 9.53398
424 2 11.958 99.3951 9.56163
425 2 -0.0618227 103.3 9.33306
426 2 4.05539 103.253 9.43558
427 2 7.92345 103.199 9.39779
428 2 12.003 103.363 9.44122
429 2 -0.00675532 107.373 9.23145
430 2 3.89592 107.019 9.27217
431 2 7.91076 107.072 9.37671
432 2 11.699 107.128 9.20859
433 2 15.8468 110.984 9.58288
434 2 4.05018 111.12 9.47707
435 2 7.87839 110.981 9.25898
436 2 11.9139 111.249 9.25659
437 2 0.0640648 114.895 9.40354
438 2 3.91861 114.808 9.24274
439 2 8.02469 115.105 9.32264
440 2 12.0081 115.199 9.41051
441 2 0.155793 118.868 9.28825
442 2 3.97626 118.728 9.27953
443 2 7.7732 118.991 9.20746
444 2 11.9327 118.832 9.10749
445 2 15.809 122.715 8.94731
446 2 4.0315 122.605 9.21703
447 2 7.72733 122.718 9.19108
448 2 11.8245 122.75 9.06223
449 2 15.7413 126.723 8.93109
450 2 3.8296 126.679 8.98145
451 2 7.93384 126.667 9.17711
452 2 11.7608 126.605 9.09519
453 2 0.00928341 130.634 9.14795
454 2 4.07756 130.543 9.08893
455 2 7.95068 130.521 9.04497
456 2 11.8367 130.62 9.08095
457 2 -0.110672 134.517 8.95572
458 2 4.08799 134.316 9.02938
459 2 7.85999 134.479 8.98501
460 2 11.8276 134.461 9.07136
461 2 -0.112311 138.29 8.92432
462 2 4.09848 138.443 8.90344
463 2 8.03714 138.402 8.97364
464 2 11.9598 138.447 9.0248
465 2 -0.287111 142.322 8.83557
466 2 3.82841 142.554 9.14722
467 2 7.82835 142.354 8.96969
468 2 11.7612 142.223 8.83907
469 2 15.6333 146.266 8.6785
470 2 3.58638 146.531 8.95202
471 2 7.85159 146.213 8.81476
472 2 11.7749 146.314 8.78285
473 2 15.7426 150.28 8.73973
474 2 3.70539 150.055 8.88335
475 2 7.86677 150.05 8.7593
476 2 11.8338 150.124 8.86563
477 2 15.8994 154.039 8.70844
478 2 3.93336 154.171 8.67766
479 2 7.93579 154.091 8.76262
480 2 11.8709 154.014 8.68156
481 2 15.8153 158.104 12.5651
482 2 3.91938 158.029 12.7304
483 2 7.80752 158.094 12.7712
484 2 11.8236 158.19 12.6903
485 2 15.8906 3.60045 12.5072
486 2 4.05022 3.58394 12.5118
487 2 7.91582 3.7069 12.6171
488 2 11.934 3.709 12.5427
489 2 15.8344 7.55197 12.6251
490 2 4.1154 7.38282 12.6128
491 2 7.91137 7.63446 12.3856
492 2 12.1354 7.48318 12.6653
493 2 0.0322074 11.5082 12.5388
494 2 3.85834 11.3528 12.4482
495 2 7.89287 11.3812 12.3377
496 2 11.9065 11.6974 12.4169
497 2 0.0590806 15.419 12.4817
498 2 3.84272 15.26 12.3658
499 2 7.92488 15.3757 12.5536
500 2 12.049 15.3449 12.6289
501 2 -0.204258 19.2226 12.4069
502 2 4.16848 19.2777 12.3812
503 2 7.91057 19.2022 12.4443
504 2 11.8442 19.4343 12.494
505 2 0.267859 23.1871 12.4054
506 2 4.05602 23.1824 12.4257
507 2 7.90405 23.1019 12.1694
508 2 11.9286 23.2443 12.5128
509 2 0.162295 27.079 12.4244
510 2 4.10548 26.9732 12.202
511 2 7.95291 27.1195 12.385
512 2 11.7807 27.1554 12.1762
513 2 -0.0605713 30.8157 12.3233
514 2 3.81672 30.852 12.4315
515 2 8.02058 31.0133 12.1854
516 2 11.9961 30.836 12.3103
517 2 -0.0513864 34.8641 12.3758
518 2 3.82603 34.8567 12.3731
519 2 7.69581 35.0166 12.3671
520 2 11.8737 35.0293 12.2838
521 2 0.0431693 38.9327 12.3298
522 2 3.86749 38.942 12.2169
523 2 7.91572 38.9636 12.3066
524 2 11.8262 39.0684 12.4584
525 2 -0.0663461 43.0937 12.3736
526 2 3.97768 42.9153 12.462
527 2 8.08746 42.9236 12.5512
528 2 11.692 42.9484 12.583
529 2 -0.188061 46.9713 12.5372
530 2 3.97824 47.1448 12.6022
531 2 7.81809 47.0611 12.5693
532 2 11.9494 46.7143 12.3952
533 2 -0.264775 50.8771 12.5165
534 2 3.9658 51.1349 12.7421
535 2 7.84328 51.0211 12.7568
536 2 11.6536 51.0661 12.5816
537 2 15.7041 55.1002 12.732
538 2 3.93126 55.2094 12.7567
539 2 7.78289 55.102 12.6036
540 2 11.942 55.0923 12.6985
541 2 15.835 59.0064 12.7332
542 2 3.82864 59.0456 12.554
543 2 7.80366 59.1503 12.81
544 2 11.7915 59.2066 12.877
545 2 15.9242 63.2347 12.9591
546 2 4.0406 63.0863 12.7396
547 2 8.00017 63.2399 12.8946
548 2 11.8131 63.1658 12.8604
549 2 -0.0354837 67.2093 12.8883
550 2 3.80028 67.2321 12.9465
551 2 7.95051 67.2402 12.8269
552 2 11.7861 67.2751 13.0704
553 2 0.116842 71.3352 12.8855
554 2 3.78668 71.1941 12.71
555 2 7.96723 71.3082 12.8945
556 2 11.7968 71.2289 12.8973
557 2 -0.133563 75.3777 12.8367
558 2 3.91025 75.2465 12.9717
559 2 7.95131 75.3627 13.0883
560 2 11.9349 75.3452 12.9058
561 2 0.0428401 79.3667 13.0236
562 2 3.76938 79.0575 13.0792
563 2 7.68081 79.5415 13.1478
564 2 11.7017 79.3377 13.1472
565 2 -0.0614294 83.2916 13.0734
566 2 3.80625 83.2656 13.1285
567 2 7.65493 83.2691 13.0503
568 2 11.8464 83.2653 13.1373
569 2 -0.157709 87.5375 13.1761
570 2 3.83847 87.4951 13.3288
571 2 7.72924 87.3979 13.2277
572 2 11.641 87.4436 13.3932
573 2 -0.103702 91.2853 13.32
574 2 3.9144 91.3547 13.6183
575 2 7.8525 91.2381 13.3613
576 2 11.8378 91.5754 13.4817
577 2 -0.0863946 95.354 13.2708
578 2 3.77139 95.3458 13.4002
579 2 7.82376 95.4128 13.3898
580 2 11.8327 95.4181 13.6135
581 2 -0.197065 99.3163 13.4873
582 2 3.80911 99.2771 13.5223
583 2 7.74602 99.2972 13.3728
584 2 11.6149 99.2448 13.4719
585 2 -0.208257 103.243 13.4734
586 2 3.82952 103.518 13.4675
587 2 7.83555 103.245 13.5477
588 2 11.8021 103.283 13.5197
589 2 0.0722297 107.184 13.3696
590 2 3.79101 107.318 13.3097
591 2 7.69567 107.15 13.2795
592 2 11.845 107.051 13.4187
593 2 0.0767353 111.118 13.3417
594 2 3.94887 111.088 13.5068
595 2 7.94387 111.103 13.3917
596 2 11.8258 111.055 13.4954
597 2 0.0831985 115.034 13.3238
598 2 3.90854 115.051 13.4769
599 2 7.7646 114.919 13.2669
600 2 11.8632 115.031 13.4775
601 2 0.0587749 119.131 13.1385
602 2 3.95733 118.847 13.2676
603 2 8.03876 118.884 13.24
604 2 11.7885 118.992 13.2948
605 2 -0.00876437 122.949 13.0108
606 2 4.14794 123.063 13.1763
607 2 7.94858 122.856 13.0749
608 2 11.9127 122.93 13.1682
609 2 -0.119792 126.596 13.1326
610 2 3.82552 126.847 13.0719
611 2 7.89796 126.738 13.4034
612 2 11.9116 126.709 13.3344
613 2 15.895 130.824 13.2496
614 2 3.8199 130.612 13.2734
615 2 8.00276 130.751 13.2366
616 2 11.9396 130.651 13.1235
617 2 15.9652 134.646 12.9496
618 2 4.05576 134.515 13.0677
619 2 7.94744 134.71 13.0184
620 2 11.9499 134.555 13.0116
621 2 -0.101119 138.535 12.7475
622 2 3.93648 138.517 12.877
623 2 7.93655 138.586 13.0372
624 2 11.8389 138.405 12.998
625 2 16.0224 142.241 12.8781
626 2 3.96256 142.426 12.5393
627 2 7.95387 142.427 12.8694
628 2 11.7389 142.514 12.9958
629 2 -0.181485 146.365 12.8711
630 2 4.0088 146.331 12.8492
631 2 8.02134 146.427 12.9318
632 2 11.8359 146.412 12.9772
633 2 -0.0758321 150.413 12.8383
634 2 4.0933 150.357 12.834
635 2 7.99964 150.335 12.7382
636 2 11.9513 149.994 12.855
637 2 15.9785 154.262 12.7447
638 2 4.19562 154.148 12.7901
639 2 8.04651 154.23 12.8225
640 2 11.9932 154.086 12.8623
641 2 -0.000461198 158.368 16.4354
642 2 3.86467 -0.33086 16.7731
643 2 8.08559 158.197 16.6566
644 2 11.9222 158.159 16.6708
645 2 15.9435 3.60736 16.7751
646 2 4.15367 3.62794 16.63
647 2 7.95248 3.72482 16.7055
648 2 11.9596 3.63312 16.6672
649 2 -0.0193388 7.70276 16.6382
650 2 3.91058 7.75034 16.7068
651 2 7.86114 7.71183 16.4873
652 2 11.8922 7.56966 16.5247
653 2 -0.00331033 11.5827 16.5838
654 2 3.94764 11.5283 16.6025
655 2 8.10197 11.4976 16.3583
656 2 11.7837 11.5672 16.5511
657 2 -0.049676 15.4274 16.3352
658 2 3.90161 15.4727 16.3559
659 2 7.82699 15.5921 16.5069
660 2 11.8692 15.3665 16.6928
661 2 16.0122 19.3051 16.3017
662 2 4.03315 19.4252 16.3828
663 2 7.98542 19.2748 16.313
664 2 11.9112 19.3488 16.3433
665 2 -0.132343 23.303 16.427
666 2 3.92846 23.2258 16.4528
667 2 7.82286 23.174 16.4025
668 2 11.7944 23.2061 16.2877
669 2 -0.190055 27.1568 16.4155
670 2 4.0117 26.9796 16.5686
671 2 7.85548 27.0557 16.4279
672 2 11.8028 27.3065 16.507
673 2 0.0186103 31.1759 16.3383
674 2 3.94701 30.8526 16.246
675 2 7.90216 31.0498 16.1649
676 2 11.8217 30.9888 16.195
677 2 -0.000747619 35.1964 16.2779
678 2 3.95013 34.8827 16.3489
679 2 7.85556 34.8624 16.2054
680 2 11.8368 34.8912 16.1885
681 2 -0.0217856 38.8801 16.2586
682 2 3.8819 38.8753 16.366
683 2 7.8605 38.815 16.3553
684 2 11.7714 38.8393 16.2871
685 2 -0.0731144 42.8009 16.391
686 2 3.91139 42.639 16.4344
687 2 7.83294 42.9244 16.4617
688 2 11.7999 42.8719 16.4762
689 2 15.7787 46.8848 16.2801
690 2 3.88426 46.9403 16.3866
691 2 7.95725 46.981 16.5321
692 2 11.8275 46.9862 16.5243
693 2 -0.257834 51.0551 16.4724
694 2 3.94371 50.9247 16.559
695 2 7.75823 51.0565 16.6848
696 2 11.837 50.9395 16.474
697 2 0.0606122 54.9268 16.65
698 2 3.85144 54.954 16.5202
699 2 8.0054 55.012 16.3024
700 2 11.9921 54.9297 16.5039
701 2 -0.20189 59.0847 16.7165
702 2 3.88703 59.0099 16.5646
703 2 7.92927 59.0277 16.6799
704 2 11.703 59.1569 16.6477
705 2 -0.0444225 63.0695 16.7072
706 2 3.83022 63.0074 16.5837
707 2 7.95447 63.0917 16.7276
708 2 11.835 63.2742 16.663
709 2 -0.0303213 67.105 16.8678
710 2 4.01854 67.1502 16.9406
711 2 7.79934 67.1369 16.8955
712 2 11.9214 67.2925 17.0196
713 2 0.0802941 71.2673 16.6665
714 2 4.17837 71.227 16.7364
715 2 7.90925 71.1612 16.7901
716 2 11.9316 71.1707 17.0286
717 2 -0.0866889 75.3309 16.8661
718 2 3.97276 75.0743 16.7887
719 2 7.97798 75.1734 16.9425
720 2 11.8539 75.0918 16.9487
721 2 0.0388028 79.1646 17.0612
722 2 3.89808 79.1904 16.9648
723 2 7.87642 79.3279 16.9367
724 2 11.778 79.2488 17.0165
725 2 0.0315285 83.2389 16.8855
726 2 3.72925 83.2066 17.0843
727 2 8.04357 83.1941 17.1524
728 2 11.8567 83.2872 17.0331
729 2 -0.241782 87.3339 17.1063
730 2 3.87651 87.2414 17.2243
731 2 7.77671 87.2236 17.1335
732 2 11.7826 87.2907 17.2307
733 2 -0.373124 91.4273 17.233
734 2 3.71125 91.4373 17.3625
735 2 7.72027 91.2864 17.4492
736 2 11.7455 91.2231 17.402
737 2 -0.203979 95.3934 17.4001
738 2 3.87053 95.3315 17.1338
739 2 7.77291 95.4805 17.3089
740 2 11.5266 95.536 17.3386
741 2 -0.173324 99.3164 17.3746
742 2 3.81745 99.1586 17.3909
743 2 7.69717 99.4507 17.3471
744 2 11.7573 99.2612 17.4399
745 2 0.0675306 103.281 17.4769
746 2 3.88426 103.287 17.4382
747 2 7.77282 103.349 17.4055
748 2 11.9702 103.344 17.5293
749 2 0.0238423 107.336 17.4653
750 2 3.98125 107.136 17.5608
751 2 7.77943 107.292 17.3233
752 2 11.7546 107.032 17.3875
753 2 0.0232246 111.129 17.4
754 2 3.86082 111.127 17.4872
755 2 8.05738 111.167 17.4652
756 2 11.7024 110.948 17.2278
757 2 0.165893 114.927 17.3575
758 2 3.98614 115.178 17.4117
759 2 7.92265 115.055 17.3446
760 2 11.8939 114.973 17.4644
761 2 0.0130499 118.912 17.3992
762 2 3.99902 119.044 17.2047
763 2 7.95846 118.915 17.3207
764 2 11.9125 118.831 17.5153
765 2 0.192312 122.924 17.447
766 2 3.9653 122.928 17.2141
767 2 7.939 122.79 17.2324
768 2 12.0118 122.664 17.2339
769 2 16.0207 126.627 17.083
770 2 4.18273 126.87 17.2444
771 2 7.99496 126.721 17.3052
772 2 11.919 126.778 17.274
773 2 15.7763 130.649 17.1918
774 2 4.1199 130.761 17.108
775 2 8.16243 130.536 17.0542
776 2 11.8709 131.049 17.2204
777 2 15.8511 134.751 16.9718
778 2 4.1433 134.673 17.1051
779 2 8.2245 134.656 16.8869
780 2 12.1066 134.616 17.1219
781 2 0.121945 138.564 17.0067
782 2 3.9773 138.647 16.9416
783 2 7.99945 138.643 17.1233
784 2 12.0472 138.552 16.8926
785 2 15.906 142.368 16.8876
786 2 4.06425 142.52 16.9214
787 2 7.90046 142.447 17.102
788 2 11.9597 142.492 17.0184
789 2 15.8855 146.286 16.8708
790 2 3.955 146.3 16.8826
791 2 8.05506 146.565 16.8421
792 2 11.955 146.409 17.06
793 2 15.9846 150.337 16.8923
794 2 4.02658 150.13 16.832
795 2 7.89386 150.502 17.0345
796 2 11.965 150.293 17.0172
797 2 15.7673 154.302 16.79
798 2 3.75501 154.219 16.9537
799 2 7.94604 154.296 16.6106
800 2 11.8334 154.39 16.8178
801 2 15.8442 158.08 20.873
802 2 3.94943 158.053 20.7538
803 2 7.91142 158.142 20.7121
804 2 12.0379 158.277 20.5154
805 2 0.17701 3.71211 20.7292
806 2 4.01957 3.7124 20.7295
807 2 7.84198 3.79181 20.7153
808 2 12.0308 3.73082 20.7584
809 2 15.6369 7.6507 20.5694
810 2 3.81353 7.63132 20.6261
811 2 7.76981 7.67316 20.6443
812 2 11.7873 7.7149 20.5811
813 2 15.7774 11.6148 20.4975
814 2 4.02817 11.6105 20.5571
815 2 7.93415 11.5833 20.5159
816 2 11.785 11.4975 20.6196
817 2 15.8431 15.5455 20.5579
818 2 3.78223 15.4441 20.4923
819 2 7.85503 15.5904 20.444
820 2 11.9777 15.5021 20.4882
821 2 -0.186212 19.4828 20.4772
822 2 3.67112 19.3893 20.4951
823 2 7.86829 19.3465 20.4748
824 2 11.7139 19.2384 20.4192
825 2 -0.238408 23.2848 20.3512
826 2 3.86551 23.0919 20.2773
827 2 7.75986 23.3041 20.4922
828 2 11.7379 22.9619 20.2543
829 2 15.7671 27.2346 20.5214
830 2 4.18702 27.0648 20.4026
831 2 8.08301 27.0989 20.5453
832 2 11.8352 27.1062 20.5097
833 2 15.6254 31.1087 20.3741
834 2 4.14829 30.9201 20.2371
835 2 7.94004 31.0774 20.412
836 2 11.9202 31.3164 20.2579
837 2 15.8937 34.9185 20.2199
838 2 3.95509 34.966 20.3076
839 2 8.06072 35.0016 20.3922
840 2 11.9764 35.0877 20.3702
841 2 0.136493 38.8955 20.2718
842 2 4.10615 38.8983 20.2463
843 2 7.83422 38.8025 20.4112
844 2 11.6434 38.9918 20.1963
845 2 15.8457 43.0949 20.1717
846 2 3.85255 43.0701 20.2295
847 2 7.77369 42.954 20.3147
848 2 11.7169 42.9927 20.3851
849 2 15.9303 47.1229 20.2452
850 2 3.90928 46.977 20.443
851 2 7.77674 46.9251 20.4646
852 2 11.8381 46.918 20.4429
853 2 0.0698366 50.8561 20.4468
854 2 3.8553 51.034 20.3955
855 2 7.82374 50.9912 20.4382
856 2 11.656 50.9054 20.5875
857 2 -0.0946367 54.8809 20.797
858 2 3.82438 54.9797 20.5787
859 2 7.7479 55.0451 20.6126
860 2 11.7256 54.864 20.4336
861 2 15.6036 58.8324 20.5855
862 2 3.80262 58.9332 20.5494
863 2 7.76304 59.0946 20.4276
864 2 11.8731 58.7536 20.5963
865 2 15.8363 63.1618 20.6872
866 2 3.99215 62.9175 20.7099
867 2 7.89651 62.9414 20.6574
868 2 11.8275 63.0059 20.6813
869 2 -0.113273 67.0466 20.6714
870 2 3.94112 66.9925 20.836
871 2 7.82985 66.9685 20.795
872 2 11.763 67.019 20.6539
873 2 0.1749 71.5249 20.7976
874 2 3.77877 71.1556 20.9526
875 2 8.00008 71.1387 20.7681
876 2 12.0436 70.9766 20.858
877 2 0.0463273 75.173 20.7458
878 2 3.94986 75.2053 20.8512
879 2 7.92691 75.0442 20.8173
880 2 12.1549 75.1366 20.6359
881 2 -0.181874 79.1446 20.9505
882 2 3.90709 78.9526 20.984
883 2 7.76285 79.1418 20.8629
884 2 11.8861 79.0219 20.925
885 2 -0.140608 83.0976 21.0062
886 2 3.83102 82.9699 21.0921
887 2 7.77859 83.185 20.9483
888 2 11.8481 83.2125 20.9102
889 2 -0.108467 87.187 20.9165
890 2 3.84961 87.3765 20.9952
891 2 7.78924 87.1378 21.1494
892 2 11.8015 87.125 20.9684
893 2 0.110638 91.4262 21.194
894 2 3.84128 91.2247 21.1462
895 2 7.77538 91.4264 21.2295
896 2 11.6879 91.1688 21.1936
897 2 -0.212772 95.2815 21.1747
898 2 3.74539 95.3376 21.3074
899 2 7.69605 95.2154 21.2517
900 2 11.6282 95.3417 21.1681
901 2 -0.0154394 99.2292 21.3501
902 2 3.98849 99.119 21.2854
903 2 7.83142 99.34 21.2172
904 2 11.6724 99.378 21.3668
905 2 -0.39279 103.373 21.2806
906 2 3.9213 103.157 21.4324
907 2 7.9692 103.205 21.4549
908 2 11.7243 103.312 21.2412
909 2 -0.0128954 107.469 21.4074
910 2 3.85016 107.377 21.5104
911 2 7.71981 107.13 21.4543
912 2 11.6248 107.139 21.5249
913 2 -0.0596243 111.382 21.4897
914 2 4.03442 111.195 21.3473
915 2 7.89005 111.075 21.3702
916 2 11.8745 111.036 21.3899
917 2 15.7135 115.24 21.3473
918 2 3.90524 115.106 21.21
919 2 7.8095 114.958 21.4615
920 2 11.8823 115.023 21.4035
921 2 -0.00266192 119.141 21.3006
922 2 3.88942 118.886 21.3001
923 2 7.94712 118.946 21.335
924 2 11.9277 119.072 21.5017
925 2 15.9326 122.866 21.3775
926 2 4.01072 122.904 21.3262
927 2 7.87756 122.925 21.3139
928 2 12.1179 122.965 21.16
929 2 16.0451 126.785 21.1345
930 2 4.12668 126.983 21.1596
931 2 7.93592 126.857 21.154
932 2 12.1079 126.861 21.1881
933 2 15.9937 130.703 21.1191
934 2 4.10855 130.771 21.181
935 2 8.21217 130.8 21.0475
936 2 11.874 130.676 21.2593
937 2 0.290123 134.63 21.0544
938 2 4.12326 134.635 21.0129
939 2 7.85218 134.678 21.0817
940 2 12.0089 134.591 21.1844
941 2 16.0418 138.577 21.0295
942 2 3.95061 138.441 20.9932
943 2 8.05738 138.524 21.0517
944 2 11.8934 138.368 21.1262
945 2 15.7256 142.526 20.979
946 2 4.03645 142.482 20.925
947 2 7.92682 142.422 21.0981
948 2 11.8277 142.466 20.9901
949 2 15.7435 146.542 21.0487
950 2 3.86917 146.38 20.8482
951 2 7.9652 146.427 20.8817
952 2 11.9003 146.412 20.8341
953 2 15.7714 150.428 20.8133
954 2 4.03903 150.549 20.7703
955 2 8.0906 150.304 20.7737
956 2 11.964 150.319 20.7774
957 2 15.8593 154.206 20.954
958 2 3.94859 154.354 20.8869
959 2 7.82874 154.219 20.7679
960 2 11.8674 154.224 20.6543
961 2 -0.0578257 158.203 24.9616
962 2 3.88377 158.19 24.8607
963 2 7.8368 158.322 24.6657
964 2 11.7312 158.186 24.7364
965 2 15.8194 3.69974 24.5885
966 2 3.81155 3.86213 24.6815
967 2 7.97755 3.79492 24.6421
968 2 11.802 3.77265 24.8992
969 2 15.7715 7.66861 24.6958
970 2 3.72344 7.76631 24.5878
971 2 7.99131 7.68611 24.687
972 2 11.9352 7.59499 24.7169
973 2 15.5435 11.6285 24.5105
974 2 3.68989 11.4778 24.3213
975 2 7.87713 11.5895 24.7449
976 2 11.8396 11.6108 24.4921
977 2 -0.0598418 15.5643 24.5319
978 2 3.79286 15.3239 24.3771
979 2 7.99584 15.3467 24.3983
980 2 11.8983 15.532 24.5204
981 2 -0.0722941 19.6565 24.4625
982 2 3.9039 19.4326 24.5205
983 2 7.85177 19.3982 24.525
984 2 11.7104 19.2639 24.5833
985 2 0.0189214 23.415 24.4029
986 2 3.74597 23.3294 24.5902
987 2 7.92734 23.0737 24.3797
988 2 11.6986 23.3018 24.4639
989 2 -0.153723 27.232 24.4585
990 2 3.98778 27.116 24.4286
991 2 8.02344 27.4303 24.3731
992 2 11.7563 27.4023 24.4513