ITEM: TIMESTEP
20400
ITEM: NUMBER OF ATOMS
32000
ITEM: BOX BOUNDS xy xz yz pp pp pp
0.0000000000000000e+00 1.5832000000000001e+01 0.0000000000000000e+00
0.0000000000000000e+00 1.5831999999999999e+02 0.0000000000000000e+00
8.0743311320824773e-01 1.6016968488678873e+02 0.0000000000000000e+00
ITEM: ATOMS id type x y z
1 2 15.7876 157.919 160.045
2 2 3.84121 157.95 160.023
3 2 8.02771 157.956 159.964
4 2 11.9016 157.752 160.054
5 2 0.167797 3.58707 159.968
6 2 3.77419 3.56026 159.945
7 2 7.90605 3.4786 159.946
8 2 11.8089 3.26121 159.872
9 2 15.5935 7.27298 159.838
10 2 3.97668 7.3853 159.938
11 2 8.08489 7.37557 160.001
12 2 12.0487 7.18977 159.802
13 2 15.9282 11.0756 159.594
14 2 3.89852 11.2125 159.782
15 2 7.92372 11.183 159.668
16 2 11.9415 11.0906 159.759
17 2 0.00926662 15.007 159.582
18 2 3.94634 14.9709 159.765
19 2 7.90688 15.022 159.735
20 2 11.9152 15.106 159.895
21 2 15.7739 18.8952 159.614
22 2 3.83879 18.8601 159.785
23 2 7.82198 19.0003 159.687
24 2 11.7405 18.97 159.678
25 2 15.9748 23.1569 159.941
26 2 3.81043 23.2404 159.733
27 2 7.74033 23.0331 159.589
28 2 11.6928 22.9675 159.94
29 2 15.6334 27.0458 159.73
30 2 3.9707 27.0974 159.741
31 2 7.90638 27.0934 159.801
32 2 11.7911 27.0034 160.027
33 2 15.7523 30.9977 159.694
34 2 3.98916 31.0183 0.469198
35 2 7.81335 31.1411 159.76
36 2 11.8804 31.1609 159.886
37 2 -0.148051 35.1909 159.806
38 2 3.94116 34.9948 159.936
39 2 7.85417 35.1355 159.926
40 2 11.7125 35.1385 159.89
41 2 -0.192178 39.1809 159.976
42 2 3.84516 39.2232 0.681177
43 2 7.69129 39.1692 0.528858
44 2 11.6427 39.0572 0.6537
45 2 0.0326095 43.1393 160.135
46 2 3.81174 43.2978 159.965
47 2 7.66151 43.2628 0.571831
48 2 11.7158 43.1719 0.747818
49 2 -0.0486853 47.2645 0.639976
50 2 3.8477 47.1979 0.780787
51 2 7.85607 47.1582 0.764723
52 2 11.6743 47.0899 0.843382
53 2 0.0178297 51.2046 0.818834
54 2 4.18279 51.4679 0.867913
55 2 8.02997 51.1693 1.00586
56 2 11.8659 51.473 0.883944
57 2 15.7498 55.2608 0.837308
58 2 3.86753 55.1502 0.855516
59 2 7.80968 55.3943 0.940465
60 2 11.7761 55.3751 0.910741
61 2 -0.00628498 59.2118 1.08292
62 2 3.83669 59.4163 0.944443
63 2 7.79216 59.4482 1.02558
64 2 11.8687 59.248 1.01983
65 2 -0.231485 63.1668 1.242
66 2 3.79536 63.471 1.1016
67 2 7.73231 63.4102 1.0158
68 2 11.8092 63.3413 1.13442
69 2 15.7608 67.3695 1.33653
70 2 3.75179 67.351 1.22329
71 2 7.67536 67.7148 1.29624
72 2 11.8383 67.4713 1.16919
73 2 -0.182958 71.6274 1.17512
74 2 3.82418 71.4563 1.18
75 2 7.72792 71.5343 1.35469
76 2 11.8094 71.4662 1.50482
77 2 -0.0348745 75.5598 1.37378
78 2 3.73718 75.3607 1.30283
79 2 7.69508 75.6077 1.38679
80 2 11.6209 75.5539 1.24779
81 2 -0.19505 79.483 1.36135
82 2 3.68942 79.4504 1.17297
83 2 7.98652 79.5766 1.56492
84 2 11.9003 79.5298 1.4121
85 2 0.065254 83.6025 1.46534
86 2 3.8836 83.6165 1.53752
87 2 7.92994 83.5035 1.48577
88 2 11.743 83.5609 1.44586
89 2 0.0344573 87.5879 1.37125
90 2 3.9705 87.4433 1.44489
91 2 7.9097 87.361 1.40978
92 2 11.744 87.481 1.47465
93 2 0.100824 91.4803 1.57205
94 2 3.93104 91.4647 1.5003
95 2 8.04888 91.3634 1.49582
96 2 11.8794 91.3484 1.48766
97 2 15.6978 95.3374 1.388
98 2 3.99781 95.4705 1.58609
99 2 8.02566 95.2831 1.44925
100 2 11.7 95.5509 1.48121
101 2 0.179909 99.3911 1.28468
102 2 3.88582 99.2236 1.35881
103 2 7.82135 99.3795 1.29311
104 2 12.097 99.0902 1.45306
105 2 0.0489862 103.083 1.49683
106 2 3.98417 103.092 1.49636
107 2 7.93206 103.181 1.49387
108 2 12.0507 103.039 1.40599
109 2 0.0153699 106.941 1.47679
110 2 3.89806 106.827 1.2195
111 2 7.92253 107.193 1.43359
112 2 12.0629 106.94 1.3121
113 2 0.0366099 110.874 1.32336
114 2 4.08139 111.1 1.15983
115 2 8.03001 111.07 1.18759
116 2 11.7855 111.08 1.37789
117 2 15.9346 114.946 1.11191
118 2 4.06115 114.89 1.08459
119 2 7.82071 114.968 1.02632
120 2 11.925 114.847 0.996542
121 2 -0.0174244 118.54 1.24358
122 2 4.04396 118.681 1.09739
123 2 7.70927 118.686 1.15139
124 2 11.7998 118.818 1.26726
125 2 15.962 122.501 1.08898
126 2 3.75291 122.577 1.10365
127 2 7.93455 122.588 1.13665
128 2 11.7869 122.798 1.01467
129 2 -0.097129 126.428 1.14188
130 2 3.97157 126.496 1.17795
131 2 7.89531 126.596 1.10465
132 2 11.7791 126.403 0.935448
133 2 15.8181 130.545 1.06586
134 2 3.80158 130.486 1.06096
135 2 7.79038 130.475 1.01414
136 2 11.8905 130.45 1.10213
137 2 15.8908 134.388 1.01567
138 2 3.91325 134.364 1.13388
139 2 7.99267 134.271 160.285
140 2 11.9231 134.573 1.05565
141 2 0.0971034 138.5 0.754703
142 2 3.75907 138.28 160.018
143 2 7.84209 138.374 160.403
144 2 11.8149 138.439 1.016
145 2 15.8072 142.306 160.247
146 2 3.69689 142.456 160.217
147 2 7.77012 142.178 160.053
148 2 11.773 142.232 160.292
149 2 -0.00144072 146.227 160.063
150 2 3.97137 146.072 160.183
151 2 7.78995 146.054 160.079
152 2 11.7667 146.075 160.171
153 2 15.7306 150.117 160.318
154 2 3.87746 149.983 160.219
155 2 7.94894 149.896 160.165
156 2 12.0157 149.979 0.788626
157 2 15.7177 153.942 160.161
158 2 3.91246 153.894 160.136
159 2 7.91038 154.039 160.036
160 2 11.9525 153.909 159.816
161 2 15.7261 157.971 4.51682
162 2 4.02094 158.049 4.49783
163 2 8.08165 158.192 4.47408
164 2 11.9243 157.721 4.67891
165 2 0.117906 3.54903 4.61993
166 2 4.01111 3.51704 4.44364
167 2 7.978 3.5549 4.63708
168 2 11.9214 3.40637 4.58407
169 2 -0.176098 7.5331 4.58479
170 2 3.99295 7.63034 4.5728
171 2 7.87179 7.46914 4.44772
172 2 11.679 7.30635 4.36381
173 2 0.08222 11.3707 4.48819
174 2 3.84025 11.2563 4.46987
175 2 7.82004 11.2646 4.57529
176 2 11.7324 11.4629 4.31588
177 2 15.6814 15.2302 4.35374
178 2 3.8292 15.3354 4.28332
179 2 7.72126 15.238 4.29573
180 2 11.8474 15.073 4.23595
181 2 -0.0799191 19.0551 4.52104
182 2 3.89275 19.0037 4.41034
183 2 7.69626 19.1634 4.34371
184 2 11.7794 19.1675 4.4739
185 2 -0.0281434 22.9064 4.16943
186 2 4.05685 23.1341 4.34105
187 2 7.61693 22.873 4.22755
188 2 11.7337 22.9343 4.29163
189 2 15.8614 27.1987 4.53752
190 2 3.90395 27.2462 4.53431
191 2 7.93643 27.1939 4.45851
192 2 11.8703 26.9932 4.38078
193 2 -0.0987555 31.1221 4.36108
194 2 3.84381 31.0332 4.35022
195 2 7.92173 31.1067 4.37196
196 2 12.0562 31.1368 4.31137
197 2 0.0603079 35.1752 4.52606
198 2 3.8303 35.2017 4.2396
199 2 7.8039 34.9516 4.43991
200 2 11.8136 35.1808 4.37504
201 2 15.56 39.1087 4.36763
202 2 3.8097 39.224 4.43793
203 2 7.53146 39.0581 4.40433
204 2 11.483 39.2102 4.64396
205 2 -0.14723 43.04 4.67642
206 2 3.79935 43.0149 4.52171
207 2 7.74488 43.1143 4.64636
208 2 11.8597 43.0602 4.79558
209 2 -0.231578 47.1232 4.58246
210 2 3.93302 46.9877 4.77822
211 2 7.64326 47.169 4.83822
212 2 11.6833 47.0897 4.71271
213 2 0.115892 51.0649 4.65796
214 2 3.95897 51.1287 4.87529
215 2 7.86279 51.153 4.87693
216 2 11.6949 51.2706 4.8888
217 2 -0.00455099 55.3279 4.90494
218 2 3.93807 55.1558 5.00197
219 2 7.83952 55.1897 4.81581
220 2 11.7889 55.2905 4.76304
221 2 15.6664 59.3309 5.05643
222 2 3.76197 59.2318 4.78351
223 2 7.72079 59.3234 4.67812
224 2 11.9159 59.3379 5.03953
225 2 -0.145098 63.463 5.14481
226 2 3.8271 63.1643 5.02458
227 2 7.79532 63.2262 5.0764
228 2 11.6669 63.3972 4.98069
229 2 15.6787 67.3746 5.11324
230 2 3.56711 67.6266 5.26819
231 2 7.74307 67.2391 5.00498
232 2 11.509 67.4388 5.04638
233 2 15.6091 71.4827 5.19293
234 2 3.83814 71.3296 5.20245
235 2 7.71344 71.4461 5.1413
236 2 11.6527 71.4947 5.21383
237 2 15.7566 75.4463 5.24515
238 2 4.02184 75.4622 5.21116
239 2 7.90948 75.396 5.27151
240 2 11.7639 75.4736 5.19275
241 2 0.0330862 79.4696 5.28116
242 2 3.7482 79.3657 5.2906
243 2 7.78233 79.5112 5.21019
244 2 11.8896 79.7055 5.3911
245 2 15.8993 83.4539 5.39053
246 2 3.80937 83.5863 5.34741
247 2 7.68507 83.2922 5.37806
248 2 11.9343 83.586 5.31779
249 2 0.188738 87.5271 5.40586
250 2 4.08529 87.5403 5.48999
251 2 7.93195 87.4537 5.57293
252 2 11.7502 87.4855 5.39944
253 2 0.0690831 91.4234 5.50523
254 2 4.04747 91.5456 5.6263
255 2 8.02681 91.6437 5.45823
256 2 12.095 91.5629 5.38319
257 2 15.8029 95.2858 5.35263
258 2 3.83187 95.4592 5.25527
259 2 7.83311 95.3566 5.57627
260 2 11.9638 95.3622 5.5884
261 2 -0.154069 99.1334 5.49736
262 2 3.86044 99.235 5.50054
263 2 7.74743 99.3426 5.35711
264 2 11.8257 99.3 5.53031
265 2 -0.0913174 103.301 5.56985
266 2 3.82303 103.172 5.5149
267 2 7.85573 103.06 5.41175
268 2 11.8232 103.271 5.35174
269 2 15.8915 107.295 5.15284
270 2 3.92519 107.196 5.36646
271 2 7.89947 106.93 5.26356
272 2 12.0445 107.023 5.39725
273 2 15.7744 110.871 5.33997
274 2 4.05291 110.985 5.28078
275 2 8.03632 110.987 5.31879
276 2 11.752 110.983 5.39593
277 2 0.127986 114.741 5.17764
278 2 4.14893 114.88 5.30737
279 2 8.02054 114.828 5.34986
280 2 11.7616 114.99 5.28654
281 2 -0.0623575 118.634 5.11521
282 2 3.83119 118.807 5.14923
283 2 8.05584 118.694 5.12316
284 2 11.898 118.643 5.2556
285 2 15.7507 122.575 5.04543
286 2 3.95345 122.782 5.1562
287 2 7.84068 122.589 5.23821
288 2 11.8634 122.664 5.38829
289 2 -0.290329 126.619 5.03611
290 2 3.96296 126.729 5.00489
291 2 7.78636 126.603 5.11956
292 2 11.6409 126.661 5.05826
293 2 0.00545292 130.557 5.02006
294 2 3.94038 130.705 5.09843
295 2 7.70144 130.404 4.93486
296 2 11.8187 130.437 5.10498
297 2 15.618 134.45 4.91849
298 2 3.85579 134.589 5.01886
299 2 7.79329 134.404 4.89525
300 2 11.7967 134.334 4.92974
301 2 -0.0761553 138.497 4.87264
302 2 4.05043 138.29 4.83317
303 2 7.95181 138.367 5.13835
304 2 11.778 138.404 4.83779
305 2 0.0816842 142.236 4.87728
306 2 3.89119 142.34 4.89423
307 2 7.95748 142.21 4.92568
308 2 11.6876 142.316 4.64324
309 2 15.7545 146.131 4.84946
310 2 3.82447 146.149 4.82875
311 2 7.78451 146.115 4.79933
312 2 12.0211 146.071 4.64437
313 2 15.7014 150.2 4.83573
314 2 3.7686 149.982 4.71621
315 2 7.62871 150.104 4.85602
316 2 11.7496 149.963 4.68558
317 2 15.9563 154.106 4.6579
318 2 3.96906 154.027 4.75511
319 2 7.90919 154.149 4.87194
320 2 11.8618 153.926 4.74282
321 2 15.9088 157.923 8.64571
322 2 4.13458 158.03 8.70181
323 2 7.9437 158 8.49503
324 2 11.8899 158.157 8.70063
325 2 15.8307 3.57265 8.51386
326 2 4.01915 3.49485 8.43962
327 2 7.90138 3.5779 8.49924
328 2 11.7595 3.65195 8.59059
329 2 15.926 7.4625 8.61587
330 2 4.11831 7.47102 8.47343
331 2 8.00701 7.4814 8.47003
332 2 12.0272 7.52695 8.40837
333 2 -0.0454084 11.3772 8.52465
334 2 4.06621 11.3515 8.41612
335 2 7.91713 11.4252 8.55524
336 2 11.8492 11.3376 8.63947
337 2 15.8947 15.303 8.61767
338 2 3.92346 15.4074 8.603
339 2 7.78386 15.273 8.6528
340 2 11.4819 15.3916 8.30344
341 2 0.132869 19.3349 8.34481
342 2 3.94039 19.2385 8.44247
343 2 7.99533 19.0156 8.42658
344 2 11.9068 19.3761 8.18962
345 2 0.185133 23.2539 8.48055
346 2 4.0788 23.1585 8.40703
347 2 7.8849 23.0436 8.32987
348 2 12.013 23.1975 8.2564
349 2 0.0315271 27.0915 8.35628
350 2 3.75179 26.9136 8.21248
351 2 8.00259 27.0515 8.16985
352 2 11.9138 26.8411 8.03802
353 2 -0.157407 31.0323 8.27025
354 2 4.02521 30.996 8.35482
355 2 7.92677 30.9442 8.3307
356 2 11.7376 30.8897 8.29711
357 2 15.9222 34.9738 8.18855
358 2 3.69559 35.0009 8.53605
359 2 7.87322 34.9397 8.17769
360 2 11.6899 35.014 8.56683
361 2 -0.115383 39.0234 8.38122
362 2 3.98535 39.0213 8.2677
363 2 7.70411 39.087 8.38464
364 2 11.8128 39.0698 8.38952
365 2 -0.0664122 43.1294 8.49707
366 2 3.76066 43.0105 8.58134
367 2 7.7304 42.97 8.50519
368 2 11.7922 43.107 8.65568
369 2 -0.0330362 47.1081 8.48782
370 2 3.81668 46.9217 8.65296
371 2 7.70054 47.071 8.79562
372 2 11.8065 47.105 8.7539
373 2 15.6944 51.0725 8.52372
374 2 3.79183 50.9457 8.72979
375 2 7.84275 51.1772 8.77025
376 2 11.845 51.2023 8.73722
377 2 15.905 55.2261 8.82058
378 2 3.90978 55.0019 8.84281
379 2 7.80477 55.1345 8.62835
380 2 11.8118 55.3466 8.67779
381 2 0.0406294 59.1701 8.8842
382 2 3.91292 59.164 8.89008
383 2 7.86801 59.2567 8.77352
384 2 11.7493 59.1334 8.9452
385 2 -0.125039 63.3181 8.76619
386 2 3.86392 63.0777 8.9334
387 2 7.96531 63.2726 8.96876
388 2 11.6931 63.0617 8.8964
389 2 15.6208 67.1563 9.05519
390 2 3.79768 67.0507 8.97647
391 2 7.88386 67.1328 9.11049
392 2 11.7652 67.3862 8.86342
393 2 15.5259 71.3069 9.0719
394 2 3.90436 71.1699 9.01594
395 2 7.77355 71.2777 9.04203
396 2 11.669 71.2846 9.30879
397 2 15.8781 75.4481 9.23021
398 2 3.90667 75.3565 9.12973
399 2 7.96819 75.3954 9.30099
400 2 11.7478 75.3983 9.17399
401 2 15.7529 79.4005 9.1185
402 2 3.91607 79.4365 9.40259
403 2 7.75891 79.4312 9.28482
404 2 11.6922 79.4173 9.07425
405 2 0.012068 83.5017 9.29226
406 2 3.77312 83.4935 9.16735
407 2 7.73525 83.4422 9.21464
408 2 11.8149 83.4472 9.37595
409 2 0.169271 87.5387 9.49287
410 2 3.8252 87.5611 9.22605
411 2 8.10793 87.5967 9.38777
412 2 11.9966 87.2656 9.54803
413 2 -0.0712304 91.2804 9.44458
414 2 3.94387 91.5288 9.46461
415 2 8.11547 91.4782 9.54653
416 2 11.9881 91.3935 9.45584
417 2 15.7532 95.6243 9.47436
418 2 3.89552 95.5593 9.61671
419 2 7.93798 95.4611 9.52421
420 2 11.8673 95.465 9.57133
421 2 15.7639 99.3635 9.58332
422 2 4.03974 99.4226 9.45737
423 2 7.92447 99.364 9.53883
424 2 11.7321 99.4124 9.34387
425 2 0.112758 103.401 9.65579
426 2 3.72181 103.169 9.43438
427 2 7.76927 103.352 9.47943
428 2 11.7874 103.366 9.51214
429 2 0.0583097 107.227 9.53042
430 2 4.05505 107.269 9.46197
431 2 7.81857 107.014 9.29825
432 2 11.7778 107.418 9.36306
433 2 15.9662 111.239 9.17603
434 2 4.00827 110.988 9.19496
435 2 8.07903 111.093 9.52124
436 2 11.8129 111.026 9.49565
437 2 -0.0204533 114.975 9.36567
438 2 4.13997 115.034 9.39057
439 2 7.88401 114.937 9.3633
440 2 11.8759 114.763 9.37048
441 2 -0.103449 118.97 9.17181
442 2 3.89434 118.944 9.14072
443 2 7.91524 118.753 9.21705
444 2 11.8047 118.972 9.40563
445 2 15.9274 122.97 9.23061
446 2 4.03124 122.888 9.0181
447 2 8.00988 122.715 9.21658
448 2 11.9073 122.772 9.26588
449 2 15.6603 126.782 9.15063
450 2 3.92184 126.626 9.12573
451 2 7.69333 126.625 9.08177
452 2 11.6886 126.665 9.17492
453 2 0.0311458 130.503 8.95586
454 2 3.80142 130.527 9.05204
455 2 7.9305 130.571 9.1098
456 2 11.8445 130.622 9.16886
457 2 0.00705382 134.64 9.05954
458 2 3.79506 134.51 9.10554
459 2 7.88746 134.269 8.94848
460 2 11.9846 134.476 9.00554
461 2 0.0862426 138.562 9.06256
462 2 3.98167 138.471 8.89428
463 2 7.78308 138.342 8.9939
464 2 11.6611 138.494 8.97006
465 2 0.0653132 142.282 8.85207
466 2 3.99859 142.371 8.81251
467 2 7.93678 142.554 8.85277
468 2 11.7341 142.368 8.78805
469 2 15.6014 146.198 8.73127
470 2 3.95488 146.191 8.66516
471 2 8.04027 146.357 8.93096
472 2 11.8826 146.251 8.99194
473 2 15.8643 150.223 8.90899
474 2 3.98981 150.321 8.79153
475 2 7.72318 150.178 8.84968
476 2 11.8985 150.305 8.75217
477 2 15.8141 154.175 8.76029
478 2 3.88928 154.036 8.84421
479 2 8.02672 154.093 8.73124
480 2 11.8372 154.076 8.79242
481 2 15.9226 158.159 12.7084
482 2 4.21601 158.037 12.5103
483 2 8.07814 158.009 12.5649
484 2 12.0577 158.001 12.625
485 2 15.773 3.63047 12.7246
486 2 4.13507 3.60393 12.5643
487 2 7.98681 3.58811 12.6792
488 2 11.7924 3.75186 12.7532
489 2 16.0599 7.38661 12.5299
490 2 4.08402 7.49477 12.4871
491 2 8.13365 7.42392 12.5595
492 2 11.9608 7.63465 12.3951
493 2 -0.0514598 11.4466 12.5625
494 2 4.03833 11.3588 12.6044
495 2 8.10724 11.5166 12.6872
496 2 11.9824 11.3633 12.5991
497 2 -0.0845635 15.3002 12.5002
498 2 3.94266 15.4049 12.5983
499 2 7.95609 15.3501 12.4741
500 2 11.7329 15.5413 12.2506
501 2 -0.0921218 19.2457 12.3483
502 2 3.94332 19.3938 12.4681
503 2 8.16711 19.3842 12.4221
504 2 11.9184 19.2795 12.3912
505 2 -0.0168104 23.2214 12.446
506 2 3.96782 23.2103 12.4549
507 2 7.9508 23.2958 12.553
508 2 11.8406 23.353 12.1726
509 2 0.00275828 27.0297 12.3556
510 2 4.15717 27.1877 12.357
511 2 8.11477 27.0652 12.2773
512 2 11.8834 26.9995 12.3527
513 2 -0.109027 30.907 12.219
514 2 3.87238 30.979 12.0118
515 2 7.71905 30.8499 12.2302
516 2 11.7746 31.0463 12.1353
517 2 0.0783738 34.9816 12.2782
518 2 3.9313 34.9267 12.1902
519 2 8.03194 34.8252 12.0874
520 2 11.8434 34.8543 12.2405
521 2 0.0335098 38.9876 12.3074
522 2 4.18012 38.9216 12.3757
523 2 7.94732 38.8366 12.4647
524 2 11.7584 38.9793 12.4677
525 2 0.174069 42.9487 12.4338
526 2 4.02773 42.9555 12.5104
527 2 7.85044 42.946 12.424
528 2 12.1061 43.0404 12.2907
529 2 0.195486 47.1308 12.5393
530 2 3.96606 46.8992 12.5975
531 2 8.0785 47.0195 12.613
532 2 11.6468 47.1977 12.7424
533 2 0.119364 51.2202 12.8379
534 2 3.79033 50.9372 12.6672
535 2 7.98417 51.1874 12.5931
536 2 11.9607 51.0191 12.5832
537 2 15.8947 55.1373 12.6526
538 2 3.80125 54.9603 12.7346
539 2 7.88646 55.0707 12.6047
540 2 11.7324 55.068 12.5592
541 2 15.724 59.2082 12.8795
542 2 3.90592 59.1844 12.993
543 2 7.83471 59.1042 12.7997
544 2 11.9332 59.06 12.7253
545 2 15.8267 63.1059 12.7845
546 2 3.9296 63.1146 12.883
547 2 7.84519 63.1453 12.793
548 2 11.9323 63.1572 12.8603
549 2 0.0102858 67.1283 12.8123
550 2 4.01995 67.1016 12.8786
551 2 7.69812 67.0712 13.133
552 2 11.8324 67.1337 12.9741
553 2 -0.00254177 71.256 12.9289
554 2 4.09435 71.2566 13.0467
555 2 7.78842 71.1364 12.8601
556 2 11.9041 71.1347 12.9553
557 2 -0.111298 75.1767 13.1177
558 2 3.92761 75.2222 12.9753
559 2 7.87874 75.2375 13.068
560 2 11.8121 75.2187 13.2275
561 2 -0.0513059 79.2162 13.0618
562 2 4.10483 79.5602 13.1228
563 2 7.84992 79.2382 13.0792
564 2 11.984 79.5239 12.995
565 2 -0.0639747 83.3049 13.1534
566 2 3.83104 83.5464 13.1699
567 2 7.91988 83.5575 13.2752
568 2 11.9287 83.433 13.2836
569 2 -0.160155 87.3721 13.3291
570 2 3.86364 87.2651 13.3137
571 2 7.79318 87.3698 13.1769
572 2 11.8361 87.4018 13.3565
573 2 -0.0858473 91.5483 13.5024
574 2 3.80691 91.5013 13.3244
575 2 7.68414 91.3797 13.292
576 2 11.6829 91.4855 13.4782
577 2 -0.175126 95.3745 13.5007
578 2 3.98033 95.36 13.4103
579 2 7.61975 95.3954 13.3857
580 2 11.6621 95.3267 13.4639
581 2 -0.0893838 99.3369 13.5741
582 2 3.79122 99.5174 13.3694
583 2 7.75014 99.5193 13.4973
584 2 11.7709 99.3689 13.3729
585 2 -0.107446 103.116 13.3066
586 2 3.86313 103.155 13.5881
587 2 7.86477 103.322 13.4849
588 2 11.7708 103.241 13.5111
589 2 -0.194113 107.18 13.1588
590 2 4.05078 107.232 13.5895
591 2 7.98363 107.275 13.5375
592 2 11.8017 107.222 13.4082
593 2 -0.0279452 111.137 13.5424
594 2 4.18317 111.125 13.3516
595 2 7.98174 111.098 13.5237
596 2 11.8986 111.036 13.3257
597 2 0.0269933 115.095 13.4733
598 2 3.94968 115.115 13.2031
599 2 8.05454 115.192 13.4256
600 2 12.0934 115.16 13.1927
601 2 -0.0873842 118.941 13.3425
602 2 3.77468 119.231 13.2192
603 2 7.87449 118.904 13.388
604 2 12.0295 118.979 13.2695
605 2 0.0360722 122.958 13.2664
606 2 3.72487 122.843 13.2227
607 2 7.83175 122.77 13.3729
608 2 11.7835 122.852 13.1182
609 2 -0.0602911 126.935 13.1816
610 2 4.00421 126.737 13.1201
611 2 7.89703 126.769 13.0219
612 2 11.801 126.733 13.0406
613 2 15.8002 130.489 12.9942
614 2 4.06232 130.649 12.9925
615 2 7.91481 130.381 12.99
616 2 11.8651 130.707 13.1357
617 2 15.9393 134.555 13.0575
618 2 4.01778 134.53 13.0964
619 2 7.8361 134.427 13.0319
620 2 11.7736 134.572 13.0471
621 2 0.182112 138.409 13.2563
622 2 3.99921 138.642 12.797
623 2 7.98356 138.413 12.91
624 2 11.9446 138.63 12.9888
625 2 15.7729 142.531 12.9506
626 2 3.99109 142.461 13.1461
627 2 7.81812 142.492 13.0142
628 2 11.9583 142.355 12.9517
629 2 0.0724411 146.212 12.8111
630 2 3.88007 146.364 12.9203
631 2 7.85855 146.315 12.922
632 2 11.8811 146.209 12.9458
633 2 0.0587198 150.143 12.9026
634 2 3.88987 150.218 12.802
635 2 7.78008 150.101 12.9053
636 2 11.9539 150.465 12.8004
637 2 15.8199 154.31 12.7626
638 2 3.95942 154.238 12.7405
639 2 7.83419 154.046 12.7148
640 2 11.6745 154.189 12.6156
641 2 0.19132 158.207 16.6911
642 2 4.11981 -0.166688 16.6889
643 2 7.96643 158.172 16.7494
644 2 11.9652 158.044 16.824
645 2 15.9399 3.88602 16.5737
646 2 3.89485 3.70809 16.7143
647 2 7.9732 3.71446 16.7428
648 2 11.9948 3.58377 16.7289
649 2 0.0219772 7.41243 16.5934
650 2 4.0564 7.53214 16.5041
651 2 8.03993 7.45885 16.6741
652 2 11.896 7.6625 16.5846
653 2 -0.0159199 11.5315 16.5322
654 2 4.13043 11.4854 16.429
655 2 7.78266 11.526 16.5261
656 2 11.9591 11.4164 16.4502
657 2 0.125153 15.3724 16.6933
658 2 4.07258 15.4944 16.5928
659 2 7.96377 15.2275 16.576
660 2 11.8176 15.4375 16.4035
661 2 15.7114 19.2738 16.4681
662 2 3.86636 19.3144 16.5338
663 2 7.88376 19.298 16.6249
664 2 11.9476 19.3598 16.5059
665 2 0.0202379 23.3272 16.433
666 2 3.90485 23.1662 16.412
667 2 7.93839 23.3162 16.4605
668 2 11.8794 23.3028 16.6059
669 2 -0.020103 27.0374 16.2892
670 2 3.78315 27.3232 16.2163
671 2 7.96787 27.2234 16.3766
672 2 11.7683 27.1158 16.4052
673 2 -0.156524 30.9603 16.2825
674 2 3.87872 31.0507 16.3888
675 2 7.80032 31.0741 16.3095
676 2 11.8159 31.1567 16.4271
677 2 0.0255923 34.9257 16.3774
678 2 3.92412 34.9024 16.0988
679 2 7.89421 34.8213 16.2126
680 2 11.8868 34.8376 16.2244
681 2 -0.150049 38.8531 16.1929
682 2 4.16341 38.9024 16.1479
683 2 8.03334 38.8222 16.4668
684 2 11.8679 38.7903 16.4528
685 2 0.0413801 42.8637 16.286
686 2 3.81765 43.1294 16.3473
687 2 7.89617 42.8916 16.3693
688 2 12.0323 42.9715 16.3486
689 2 15.8137 46.9913 16.6105
690 2 3.95228 46.9971 16.4085
691 2 7.90846 46.9194 16.4027
692 2 11.985 46.9121 16.4385
693 2 -0.0920285 50.991 16.6487
694 2 3.86497 51.0256 16.666
695 2 7.95868 50.8791 16.4884
696 2 11.831 51.003 16.5741
697 2 -0.0888314 55.0677 16.6928
698 2 3.93932 55.1155 16.6416
699 2 7.82535 55.0379 16.5289
700 2 11.7566 55.075 16.5744
701 2 -0.345472 59.2336 16.8442
702 2 3.6095 59.2028 16.712
703 2 7.65272 59.043 16.72
704 2 11.6735 58.9935 16.6731
705 2 -0.00856672 63.2436 16.8729
706 2 3.93603 63.1255 16.7494
707 2 7.96117 63.1279 16.7508
708 2 11.8367 62.9665 16.848
709 2 -0.0667559 67.1585 16.6115
710 2 3.88022 67.2268 16.8546
711 2 7.87221 67.1165 16.8646
712 2 11.9033 67.2084 16.7371
713 2 0.184902 71.1148 16.891
714 2 3.9051 71.2929 16.8339
715 2 8.03745 71.1322 16.781
716 2 11.7285 71.1039 16.7824
717 2 -0.210324 75.0723 16.9747
718 2 3.75407 75.3602 17.1245
719 2 7.77979 75.1793 16.8909
720 2 11.7865 75.302 16.8891
721 2 -0.0881419 79.2667 16.8737
722 2 3.8063 79.228 17.071
723 2 7.84792 79.2743 16.8172
724 2 11.7234 79.1299 16.8918
725 2 -0.0411738 83.3133 17.1233
726 2 4.04655 83.3356 17.1231
727 2 7.66868 83.2509 17.1073
728 2 11.7682 83.1216 17.1507
729 2 -0.0637828 87.4084 17.0964
730 2 3.77013 87.3531 17.1564
731 2 7.77826 87.3022 17.1479
732 2 11.5662 87.376 17.1497
733 2 0.0448118 91.2068 17.4709
734 2 3.89693 91.2736 17.312
735 2 7.9888 91.305 17.2956
736 2 11.7161 91.4947 17.4035
737 2 -0.218774 95.5385 17.4081
738 2 3.70792 95.2707 17.3455
739 2 7.5849 95.2688 17.2766
740 2 11.6883 95.2329 17.4664
741 2 -0.124129 99.3274 17.44
742 2 3.7102 99.4284 17.3753
743 2 7.69376 99.2514 17.4198
744 2 11.5854 99.4432 17.3659
745 2 -0.00542944 103.222 17.4076
746 2 3.89714 103.428 17.555
747 2 7.82453 103.248 17.522
748 2 11.8112 103.264 17.4671
749 2 -0.0905423 107.135 17.2063
750 2 3.73808 107.286 17.3518
751 2 8.04656 107.262 17.6608
752 2 12.1709 107.235 17.475
753 2 0.145689 111.103 17.5356
754 2 4.13821 111.151 17.4568
755 2 7.89651 111.19 17.475
756 2 12.02 111.232 17.4648
757 2 -0.0519522 114.978 17.3865
758 2 3.9334 115.086 17.2378
759 2 7.97957 115.219 17.2953
760 2 12.0163 115.001 17.3132
761 2 -0.0800191 118.937 17.2402
762 2 4.05107 119.086 17.3701
763 2 8.03357 119.014 17.4383
764 2 11.9027 119.017 17.1834
765 2 -0.208459 122.717 17.0549
766 2 4.04367 122.914 17.2477
767 2 7.95138 122.86 17.2465
768 2 11.8383 122.945 17.2095
769 2 15.9473 126.9 17.3721
770 2 3.99764 126.792 17.1472
771 2 7.95182 126.723 17.2151
772 2 12.0279 126.757 17.1359
773 2 15.9971 130.79 17.1091
774 2 3.93357 130.839 17.1929
775 2 7.94254 130.843 17.1156
776 2 12.0341 130.522 17.1304
777 2 15.868 134.633 17.1345
778 2 3.90292 134.722 17.0182
779 2 7.68652 134.713 17.0724
780 2 11.7386 134.662 17.02
781 2 -0.175223 138.628 17.0406
782 2 3.85263 138.574 16.9421
783 2 7.8483 138.501 16.9528
784 2 11.7927 138.553 16.9996
785 2 15.9858 142.586 17.0611
786 2 3.92406 142.513 17.0423
787 2 7.88038 142.382 16.8688
788 2 11.8872 142.381 16.8638
789 2 15.9443 146.522 17.0361
790 2 3.96679 146.498 17.0111
791 2 7.82197 146.38 16.992
792 2 11.9286 146.435 16.8065
793 2 15.8326 150.19 16.7223
794 2 3.87866 150.588 16.8945
795 2 7.91974 150.134 16.817
796 2 11.8114 150.492 16.7692
797 2 15.8117 154.306 16.6937
798 2 3.96201 154.261 16.6135
799 2 8.13212 154.243 16.8514
800 2 12.0401 154.174 16.8236
801 2 15.8368 158.132 20.71
802 2 4.03579 158.108 20.7132
803 2 7.9077 158.31 20.9642
804 2 11.8736 158.118 21.0222
805 2 0.0303922 3.70452 20.8398
806 2 3.92404 3.71531 20.7721
807 2 8.00146 3.82005 20.7161
808 2 11.8898 3.87052 20.6643
809 2 15.9623 7.56858 20.6103
810 2 4.02954 7.66925 20.629
811 2 8.00303 7.54606 20.6253
812 2 11.8891 7.57942 20.5858
813 2 15.9317 11.3969 20.5019
814 2 3.89767 11.4904 20.572
815 2 7.86919 11.491 20.6609
816 2 11.9214 11.5558 20.4673
817 2 15.5412 15.4469 20.4624
818 2 3.92319 15.3449 20.5392
819 2 7.95818 15.28 20.587
820 2 11.7518 15.385 20.6577
821 2 -0.00719455 19.422 20.4344
822 2 3.95689 19.2947 20.4838
823 2 7.65727 19.4204 20.5237
824 2 11.8799 19.3525 20.6478
825 2 0.030999 23.3779 20.5687
826 2 3.88277 23.3183 20.5619
827 2 7.9317 23.233 20.4891
828 2 11.9781 23.2077 20.4473
829 2 15.8158 27.0781 20.3957
830 2 3.78795 27.1998 20.3894
831 2 7.63094 27.2834 20.3471
832 2 11.7636 27.4338 20.2927
833 2 16.0032 31.0521 20.3685
834 2 3.69363 30.8903 20.3008
835 2 7.90668 31.1487 20.3843
836 2 11.9982 30.9754 20.3597
837 2 15.9639 34.9518 20.2511
838 2 4.037 34.7637 20.1512
839 2 7.80714 34.7694 20.2516
840 2 11.8093 34.9579 20.3847
841 2 -0.0890111 38.7626 20.2148
842 2 3.67255 38.8385 20.4295
843 2 7.60227 38.9181 20.1855
844 2 11.777 38.7573 20.3968
845 2 15.8195 42.5496 20.202
846 2 3.96076 42.7498 20.3257
847 2 7.66775 42.851 20.3398
848 2 11.7627 42.7259 20.1245
849 2 15.8741 46.7063 20.5171
850 2 3.90375 46.9281 20.2322
851 2 7.98334 46.9523 20.3354
852 2 11.8891 46.8026 20.2908
853 2 -0.0965607 50.982 20.4523
854 2 4.01738 50.8738 20.4794
855 2 7.87084 51.007 20.6187
856 2 11.793 50.964 20.261
857 2 -0.0723016 54.8477 20.4747
858 2 3.80806 54.8204 20.4836
859 2 7.88898 54.9883 20.2901
860 2 11.7165 54.9567 20.5199
861 2 15.7622 59.0492 20.6189
862 2 3.86079 58.9342 20.4279
863 2 7.76141 58.9006 20.6046
864 2 11.7443 59.0106 20.5877
865 2 15.8686 62.9936 20.7112
866 2 4.01175 62.9994 20.517
867 2 7.93139 63.0401 20.7961
868 2 11.6578 62.9982 20.6798
869 2 0.024233 67.1786 20.5543
870 2 3.95663 67.0354 20.6589
871 2 7.86194 67.0106 20.7537
872 2 12.0791 67.1387 20.7698
873 2 0.0588377 70.8774 20.9047
874 2 4.25383 71.0721 20.5697
875 2 7.89757 71.0182 20.7501
876 2 11.7718 71.0709 20.7576
877 2 -0.173744 75.0432 20.866
878 2 3.86932 74.927 20.9337
879 2 7.95453 75.2124 20.6908
880 2 11.7006 75.074 21.0721
881 2 -0.0764949 79.2217 20.733
882 2 3.78969 79.1887 20.8994
883 2 7.7138 79.076 20.8501
884 2 11.58 79.2422 20.946
885 2 -0.152894 83.2734 21.0029
886 2 3.93098 83.2058 20.8448
887 2 7.92602 83.0931 21.073
888 2 11.7702 83.0576 20.9697
889 2 -0.0955762 87.2218 20.9648
890 2 3.72095 87.1081 21.0995
891 2 7.77093 87.2319 21.0528
892 2 11.9149 87.1122 21.0614
893 2 -0.349807 91.3153 21.3612
894 2 3.88205 91.2296 21.1597
895 2 7.708 91.1323 21.1896
896 2 11.7886 91.3084 21.2801
897 2 -0.221149 95.3592 21.309
898 2 3.81013 95.1826 21.0595
899 2 7.92223 95.3106 21.2158
900 2 11.8524 95.4137 21.3842
901 2 -0.0738428 99.3663 21.2426
902 2 3.89894 99.3653 21.1756
903 2 7.80931 99.218 21.321
904 2 11.8738 99.3239 21.5093
905 2 0.114648 103.18 21.5569
906 2 3.79206 103.354 21.3897
907 2 7.74726 103.302 21.4321
908 2 11.6862 103.145 21.4397
909 2 -0.335619 107.189 21.3317
910 2 3.78915 107.152 21.479
911 2 7.92335 107.201 21.4254
912 2 11.8699 107.28 21.3282
913 2 0.19759 111.154 21.2961
914 2 4.02432 111.257 21.5614
915 2 7.84729 111.118 21.4796
916 2 11.7727 111.24 21.4789
917 2 15.9517 115.134 21.4898
918 2 4.15209 115.305 21.4228
919 2 8.05022 115.14 21.1372
920 2 11.865 115.151 21.4491
921 2 0.068743 118.963 21.3314
922 2 4.11641 119.093 21.3775
923 2 8.02486 118.979 21.4203
924 2 11.8363 119.002 21.2652
925 2 15.9979 122.948 21.1583
926 2 3.99606 122.863 21.2614
927 2 8.14089 122.906 21.2396
928 2 11.8634 123.009 21.3053
929 2 15.9534 126.791 21.3323
930 2 4.26741 126.821 21.277
931 2 8.19159 126.711 21.2532
932 2 11.9384 126.751 21.2511
933 2 15.8922 130.539 21.204
934 2 3.9874 130.968 21.1754
935 2 8.04046 130.701 20.9392
936 2 12.1101 130.719 21.1078
937 2 -0.0133383 134.642 21.0229
938 2 3.92269 134.713 21.2008
939 2 7.89989 134.807 20.9714
940 2 11.9203 134.66 21.0386
941 2 15.7867 138.675 21.151
942 2 4.17232 138.76 21.0857
943 2 7.94007 138.84 20.968
944 2 11.8415 138.686 20.8935
945 2 15.9327 142.466 21.0391
946 2 4.03371 142.588 21.1186
947 2 8.05275 142.737 20.8864
948 2 11.9379 142.586 20.865
949 2 15.7972 146.415 20.8562
950 2 3.95132 146.593 21.075
951 2 7.8338 146.472 20.9212
952 2 11.8205 146.35 20.8971
953 2 15.7952 150.401 20.9186
954 2 3.85757 150.327 21.0008
955 2 7.77439 150.53 21.0103
956 2 11.7073 150.54 20.9264
957 2 15.9952 154.34 20.738
958 2 3.9715 154.127 20.7514
959 2 7.7597 154.393 20.8196
960 2 11.8083 154.373 20.8412
961 2 0.0470128 158.243 24.7861
962 2 4.18708 158.285 24.8226
963 2 8.18119 158.155 24.8803
964 2 11.9993 158.143 24.8414
965 2 15.7421 3.83727 25.0527
966 2 4.09114 3.72879 24.7969
967 2 8.01442 3.74348 24.8599
968 2 11.9801 3.84802 24.658
969 2 15.7081 7.68426 24.7034
970 2 4.14133 7.64366 24.7107
971 2 7.95042 7.64826 24.6101
972 2 11.8005 7.7878 24.7394
973 2 15.7007 11.6324 24.5643
974 2 3.95436 11.7158 24.6823
975 2 7.91935 11.632 24.3486
976 2 11.7935 11.4721 24.6777
977 2 -0.175089 15.3419 24.6577
978 2 3.76709 15.5961 24.5926
979 2 7.59835 15.534 24.6282
980 2 11.7554 15.5738 24.6061
981 2 -0.189815 19.287 24.6643
982 2 3.72748 19.2558 24.4682
983 2 7.62497 19.3918 24.4057
984 2 11.7848 19.6355 24.5488
985 2 -0.20722 23.3866 24.4619
986 2 3.94255 23.2362 24.3714
987 2 7.80848 23.4811 24.4862
988 2 11.7272 23.3509 24.46
989 2 0.0316911 27.2489 24.4301
990 2 4.00514 27.2777 24.4463
991 2 7.99756 26.9673 24.3324
992 2 11.946 27.1914 24.3427