ITEM: TIMESTEP
20500
ITEM: NUMBER OF ATOMS
32000
ITEM: BOX BOUNDS xy xz yz pp pp pp
0.0000000000000000e+00 1.5832000000000001e+01 0.0000000000000000e+00
0.0000000000000000e+00 1.5831999999999999e+02 0.0000000000000000e+00
8.2656492851666030e-01 1.6015055307148015e+02 0.0000000000000000e+00
ITEM: ATOMS id type x y z
1 2 15.6882 157.892 159.918
2 2 3.9129 157.674 159.87
3 2 7.74485 157.806 160.042
4 2 11.7581 157.847 159.884
5 2 -0.0448383 3.49136 159.73
6 2 4.19762 3.36115 159.821
7 2 7.88699 3.35074 159.873
8 2 11.9944 3.56026 159.941
9 2 15.9264 7.38031 159.818
10 2 3.89252 7.43303 159.78
11 2 7.942 7.27494 159.614
12 2 11.7618 7.31652 159.832
13 2 15.7076 11.1596 159.576
14 2 3.85827 11.3742 159.861
15 2 7.77031 11.2634 159.804
16 2 11.8055 11.2278 159.778
17 2 -0.0181114 15.2006 159.734
18 2 3.89357 15.2744 159.569
19 2 7.89061 15.148 159.666
20 2 11.8044 14.9508 159.592
21 2 15.5574 19.1469 159.579
22 2 3.7563 19.1536 159.588
23 2 7.85056 19.0934 159.794
24 2 11.8431 19.0007 159.745
25 2 15.732 22.8202 159.667
26 2 3.97779 22.9261 159.676
27 2 7.84394 23.0568 159.726
28 2 11.8449 23.0806 159.706
29 2 15.7963 26.9752 159.807
30 2 3.75035 27.1611 159.864
31 2 7.70707 27.1674 159.78
32 2 11.724 27.0161 159.679
33 2 15.8446 31.2094 159.887
34 2 3.76607 31.1275 0.442425
35 2 8.03225 31.0393 159.786
36 2 11.8685 30.9798 159.782
37 2 -0.0381097 35.125 159.829
38 2 3.90171 35.1443 159.776
39 2 7.80945 35.1578 159.852
40 2 11.7724 35.1242 159.765
41 2 -0.226381 39.1752 159.99
42 2 3.73939 39.1551 0.674813
43 2 7.91083 39.3518 0.780253
44 2 11.7313 39.2331 0.703691
45 2 -0.139688 43.2189 160.068
46 2 3.83602 43.1174 160.155
47 2 7.8556 43.0733 0.850835
48 2 11.6736 43.1067 0.747478
49 2 -0.152128 47.1794 0.859275
50 2 3.94742 47.2607 0.681497
51 2 7.88225 47.2296 0.942948
52 2 11.8795 47.2728 0.868371
53 2 0.157508 51.2269 0.793424
54 2 3.76529 51.0195 0.992431
55 2 7.77123 51.276 0.744623
56 2 11.6526 51.0923 0.96218
57 2 15.6939 55.2748 0.918944
58 2 3.90196 55.4534 1.10905
59 2 7.90451 55.1358 0.966558
60 2 11.8392 55.1464 0.862466
61 2 -0.197332 59.3969 1.01823
62 2 3.82448 59.2267 1.143
63 2 7.93526 59.1708 0.861508
64 2 11.6555 59.4365 0.980857
65 2 0.0147025 63.6025 0.869653
66 2 3.67079 63.467 1.13912
67 2 7.66915 63.4583 1.1273
68 2 11.5979 63.401 1.06927
69 2 15.5754 67.6937 1.19696
70 2 3.71152 67.7032 1.12603
71 2 7.76081 67.2302 1.29493
72 2 11.6154 67.3062 1.21516
73 2 -0.253483 71.4858 1.41828
74 2 3.65816 71.5411 1.33393
75 2 7.7057 71.5684 1.26295
76 2 11.6213 71.533 1.16314
77 2 0.0388998 75.407 1.3485
78 2 3.93053 75.5235 1.30836
79 2 7.92582 75.42 1.47702
80 2 11.8743 75.7539 1.3831
81 2 -0.179242 79.5831 1.61585
82 2 3.79327 79.669 1.43372
83 2 7.70807 79.4907 1.33391
84 2 11.6018 79.7501 1.62172
85 2 -0.129294 83.467 1.33024
86 2 3.89645 83.4972 1.49836
87 2 7.85966 83.5348 1.52683
88 2 11.9018 83.6983 1.64786
89 2 -0.0568667 87.3136 1.61172
90 2 3.91863 87.4565 1.51346
91 2 7.90169 87.5619 1.61233
92 2 11.9724 87.4628 1.52657
93 2 -0.00388562 91.3132 1.43695
94 2 4.1021 91.3566 1.46208
95 2 7.90145 91.3948 1.45576
96 2 11.8797 91.4762 1.5285
97 2 16.0961 95.2944 1.4392
98 2 4.16478 95.3181 1.31605
99 2 8.01415 95.5003 1.41653
100 2 12.048 95.2992 1.37605
101 2 -0.0340063 99.1836 1.52057
102 2 3.94001 99.2219 1.29687
103 2 7.99897 99.2285 1.27215
104 2 11.8659 99.3024 1.35567
105 2 0.0123064 103.09 1.3934
106 2 3.906 103.29 1.35954
107 2 7.99469 103.07 1.29559
108 2 11.8212 103.004 1.43759
109 2 0.0594549 107.086 1.36991
110 2 4.02535 107.148 1.50175
111 2 7.93095 106.979 1.20263
112 2 11.8928 107.058 1.46144
113 2 0.0282692 110.969 1.23285
114 2 4.07662 110.758 1.33573
115 2 8.06898 111.041 1.1643
116 2 11.9875 110.796 1.20571
117 2 15.8153 114.58 1.36543
118 2 3.87864 114.823 1.24195
119 2 8.11568 114.779 1.32767
120 2 11.9468 114.916 1.30419
121 2 -0.0592678 118.928 1.19586
122 2 3.67043 118.858 1.27267
123 2 7.96317 118.868 1.18216
124 2 11.8007 118.797 1.08387
125 2 15.6644 122.81 1.16486
126 2 4.09013 122.72 1.2112
127 2 7.83265 122.648 1.11669
128 2 11.755 122.575 1.14922
129 2 -0.19256 126.668 1.07963
130 2 3.76153 126.45 1.05386
131 2 7.88189 126.652 1.12809
132 2 11.8475 126.727 1.25063
133 2 15.8602 130.522 1.01362
134 2 3.91122 130.507 1.01532
135 2 7.83778 130.631 1.05747
136 2 11.8918 130.538 0.998698
137 2 15.7183 134.479 0.983465
138 2 3.93795 134.468 0.945859
139 2 7.92039 134.372 160.325
140 2 11.8897 134.296 0.993047
141 2 -0.104446 138.31 0.992743
142 2 3.92444 138.334 160.358
143 2 7.896 138.239 160.176
144 2 11.8384 138.14 0.924726
145 2 15.636 142.302 160.057
146 2 3.83648 141.898 160.115
147 2 7.89859 142.163 160.137
148 2 11.87 142.197 160.079
149 2 -0.177442 146.12 160.284
150 2 3.99633 146.115 160.193
151 2 8.0242 146.214 160.281
152 2 11.8512 146.235 160.183
153 2 16.0328 149.985 159.813
154 2 3.9483 150.086 160.074
155 2 7.85132 150.176 160.076
156 2 11.657 150.126 0.709632
157 2 15.7375 154.008 159.903
158 2 3.89436 154.037 159.959
159 2 7.73986 153.979 160.088
160 2 11.6532 153.873 160.269
161 2 15.8671 157.99 4.75601
162 2 3.8095 157.916 4.78784
163 2 7.96103 157.709 4.75215
164 2 11.8576 158.192 4.71236
165 2 0.0387881 3.45451 4.51373
166 2 3.90268 3.67159 4.6304
167 2 7.65009 3.3965 4.44072
168 2 11.8048 3.5577 4.71396
169 2 -0.0209333 7.44926 4.49133
170 2 3.81561 7.38542 4.39963
171 2 8.0279 7.45091 4.52146
172 2 11.8786 7.57564 4.60914
173 2 -0.100153 11.4698 4.52227
174 2 3.95169 11.3497 4.41505
175 2 7.88489 11.4123 4.4055
176 2 11.8027 11.3266 4.65422
177 2 15.8147 15.1374 4.46199
178 2 4.04013 15.0482 4.40622
179 2 7.91963 15.109 4.50762
180 2 11.9332 15.2218 4.53964
181 2 0.148799 19.1297 4.34916
182 2 3.86753 19.0165 4.33965
183 2 8.03592 19.0058 4.45354
184 2 11.8288 18.8851 4.20511
185 2 -0.0105481 22.9902 4.46771
186 2 3.93289 23.027 4.31289
187 2 7.92305 23.086 4.34808
188 2 11.8158 22.928 4.36228
189 2 15.7368 26.9403 4.12828
190 2 3.91743 26.8837 4.24078
191 2 7.72405 26.916 4.25109
192 2 11.781 27.0154 4.32498
193 2 -0.00261752 31.0405 4.5058
194 2 3.97715 31.0248 4.37605
195 2 7.86656 30.9912 4.43796
196 2 11.7632 31.0323 4.33777
197 2 -0.147033 34.9872 4.40801
198 2 3.83496 34.8802 4.56159
199 2 7.8385 34.9927 4.36449
200 2 12.0043 34.9463 4.53048
201 2 15.7497 39.0935 4.66554
202 2 3.72674 38.9732 4.63979
203 2 7.93018 39.0615 4.53834
204 2 11.824 38.976 4.47348
205 2 -0.283727 43.2544 4.69467
206 2 3.6774 43.2799 4.7586
207 2 7.66985 43.3447 4.69736
208 2 11.6396 43.1929 4.66233
209 2 -0.0614716 47.1835 4.82659
210 2 3.77001 47.1873 4.57648
211 2 7.92941 47.0604 4.73511
212 2 11.7979 47.1136 4.67215
213 2 -0.307121 51.2267 4.65867
214 2 3.74426 51.1054 4.77028
215 2 7.7578 51.0626 4.71118
216 2 11.9044 51.0635 4.76284
217 2 -0.0950268 55.0755 4.76396
218 2 3.78992 55.1807 4.81508
219 2 7.69754 55.164 4.88191
220 2 11.8326 55.1365 4.80153
221 2 15.6837 59.3418 4.77848
222 2 4.00415 59.2577 5.01391
223 2 7.78356 59.2996 4.8905
224 2 11.7332 59.1934 4.6768
225 2 -0.319995 63.2204 5.01178
226 2 3.81732 63.3363 4.9976
227 2 7.74287 63.3159 4.98321
228 2 11.809 63.3172 5.12125
229 2 15.6628 67.3481 5.11065
230 2 3.94097 67.1845 5.02058
231 2 7.73471 67.4149 5.24778
232 2 11.9405 67.4556 5.18626
233 2 15.5834 71.4902 5.20267
234 2 3.74352 71.4775 5.23879
235 2 7.70018 71.4462 5.15536
236 2 11.6192 71.3979 5.36969
237 2 15.7701 75.4505 5.32889
238 2 3.74847 75.4728 5.59356
239 2 7.67385 75.5173 5.2656
240 2 11.8718 75.2406 5.45196
241 2 0.0161201 79.4363 5.19514
242 2 4.11859 79.5501 5.36735
243 2 7.84477 79.3526 5.18909
244 2 11.7709 79.3432 5.28636
245 2 15.8132 83.566 5.4505
246 2 3.97239 83.5943 5.51161
247 2 7.90283 83.786 5.37915
248 2 11.8683 83.4883 5.71791
249 2 -0.0932135 87.5352 5.54529
250 2 4.02585 87.7479 5.4546
251 2 7.92501 87.6999 5.55355
252 2 11.8643 87.3088 5.44389
253 2 0.0758877 91.4385 5.37957
254 2 3.87778 91.5082 5.30619
255 2 7.96157 91.559 5.53931
256 2 11.8867 91.2666 5.48256
257 2 15.8326 95.3228 5.54446
258 2 3.92223 95.414 5.58638
259 2 8.10806 95.4247 5.27301
260 2 11.9334 95.4041 5.24194
261 2 0.218028 99.2903 5.43892
262 2 3.96944 99.3701 5.52712
263 2 7.85402 99.4122 5.31008
264 2 11.9172 99.1617 5.37505
265 2 -0.0754056 103.072 5.42915
266 2 4.06199 103.184 5.44552
267 2 7.82972 103.306 5.42188
268 2 11.7198 103.086 5.51961
269 2 15.6417 106.927 5.59717
270 2 3.9712 107.026 5.41301
271 2 8.00038 107.118 5.42201
272 2 11.5578 107.118 5.40123
273 2 15.959 111.051 5.38117
274 2 3.96668 110.805 5.31843
275 2 7.82962 110.845 5.29309
276 2 11.9848 110.944 5.3333
277 2 0.0806658 114.786 5.29345
278 2 3.89773 114.907 5.04982
279 2 7.71456 114.789 5.18318
280 2 11.7753 114.848 5.17587
281 2 -0.111926 118.806 5.33763
282 2 3.9859 118.806 5.36905
283 2 7.70476 118.799 5.32499
284 2 11.8299 118.723 5.20923
285 2 15.729 122.736 5.32371
286 2 3.86075 122.637 5.28692
287 2 7.96343 122.726 5.09266
288 2 11.836 122.575 4.97927
289 2 0.120582 126.616 5.15024
290 2 4.04032 126.566 5.09262
291 2 8.01981 126.559 5.123
292 2 11.9603 126.527 5.14265
293 2 0.0700659 130.556 5.16756
294 2 3.82594 130.437 5.03887
295 2 7.9669 130.613 5.15079
296 2 11.8161 130.596 5.11553
297 2 15.9233 134.622 5.04979
298 2 4.10744 134.498 4.9764
299 2 8.00188 134.443 5.04511
300 2 11.7851 134.452 5.1351
301 2 -0.096756 138.344 5.02418
302 2 4.0341 138.384 4.98969
303 2 8.04054 138.526 4.74706
304 2 11.9204 138.395 5.11884
305 2 -0.0490482 142.261 4.91975
306 2 4.0517 142.154 4.58204
307 2 7.83284 142.362 4.74336
308 2 11.8631 142.407 5.06593
309 2 15.7684 146.206 4.96227
310 2 3.98067 146.151 4.88994
311 2 8.00629 146.373 4.90949
312 2 11.7216 146.194 5.05179
313 2 15.9643 150.134 4.76646
314 2 3.84405 150.152 4.79239
315 2 7.99099 150.148 4.7332
316 2 11.9301 150.265 4.78859
317 2 15.6073 154.078 4.76431
318 2 3.94067 153.987 4.66418
319 2 7.89173 153.954 4.67513
320 2 11.8083 154.021 4.77498
321 2 15.936 158.046 8.65936
322 2 3.90554 157.987 8.64193
323 2 7.84848 157.921 8.8317
324 2 11.9461 158.04 8.64289
325 2 15.8464 3.5764 8.80834
326 2 4.07582 3.62869 8.62487
327 2 7.97276 3.76243 8.64574
328 2 12.0607 3.66104 8.66313
329 2 15.8768 7.43835 8.52267
330 2 4.01344 7.42387 8.46975
331 2 7.94039 7.5181 8.7101
332 2 11.9637 7.53784 8.32294
333 2 0.0220784 11.4465 8.54878
334 2 3.83554 11.387 8.61069
335 2 7.84781 11.3855 8.61488
336 2 11.8342 11.4877 8.47975
337 2 15.658 15.2896 8.4468
338 2 3.9259 15.158 8.51094
339 2 7.78401 15.3137 8.3911
340 2 11.9644 15.2641 8.68232
341 2 0.0212333 19.2433 8.4302
342 2 3.95091 19.1707 8.48555
343 2 7.69644 19.3546 8.30654
344 2 11.7482 19.1526 8.37275
345 2 0.0573189 22.9669 8.24187
346 2 3.95495 23.1668 8.4576
347 2 7.88692 23.0793 8.43763
348 2 11.9272 23.0461 8.31243
349 2 -0.117132 26.8843 8.08818
350 2 3.98497 26.9961 8.45487
351 2 7.99299 27.0072 8.39018
352 2 11.7881 27.0548 8.34797
353 2 -0.00621523 30.9331 8.36983
354 2 3.80725 30.9084 8.23827
355 2 7.85774 30.9548 8.22751
356 2 11.9037 31.0555 8.41425
357 2 15.5896 35.0517 8.4627
358 2 3.98027 35.0667 8.30283
359 2 7.78547 35.0197 8.32133
360 2 11.841 34.9648 8.19009
361 2 -0.04646 39.0367 8.46255
362 2 3.9769 38.982 8.64613
363 2 7.95699 38.9577 8.29247
364 2 11.7051 38.9236 8.48882
365 2 -0.192619 43.0694 8.66975
366 2 4.01825 42.9245 8.52633
367 2 7.9943 43.0748 8.71011
368 2 11.6963 42.9802 8.53547
369 2 -0.0574431 47.0241 8.92216
370 2 3.83845 47.1165 8.621
371 2 8.03047 47.081 8.64336
372 2 11.7481 47.1246 8.63174
373 2 15.6769 51.2827 8.54277
374 2 3.94598 51.1746 8.66637
375 2 7.92712 51.0693 8.51747
376 2 11.8753 51.0974 8.81552
377 2 15.626 55.1774 8.7464
378 2 3.74689 55.3082 8.76952
379 2 7.80769 55.1948 8.83055
380 2 11.6646 55.1572 8.59874
381 2 -0.0924883 59.1533 8.85968
382 2 3.78878 59.0756 8.8325
383 2 7.66804 59.0238 8.74298
384 2 11.7373 59.1381 8.72517
385 2 -0.280147 63.0769 9.04873
386 2 3.85976 63.2112 8.95473
387 2 7.6814 63.0405 8.95547
388 2 11.7663 63.3229 8.97124
389 2 15.8626 67.3409 8.93585
390 2 3.79882 67.3303 8.97943
391 2 7.51371 67.2545 8.94956
392 2 11.4505 67.4366 9.08576
393 2 15.7897 71.3198 9.26391
394 2 3.75855 71.3132 9.23108
395 2 7.67848 71.2209 9.26062
396 2 11.737 71.3538 9.01139
397 2 15.7716 75.333 9.35522
398 2 3.69894 75.4763 9.34247
399 2 7.71158 75.3772 9.13953
400 2 11.8822 75.4988 9.17068
401 2 15.6773 79.3815 9.36149
402 2 3.78768 79.6505 9.17692
403 2 7.82906 79.308 9.20518
404 2 11.8236 79.4162 9.13119
405 2 -0.0813831 83.3751 9.33123
406 2 3.88665 83.3619 9.37311
407 2 7.87844 83.3634 9.26968
408 2 11.712 83.346 9.23655
409 2 -0.119721 87.4013 9.40615
410 2 4.18191 87.4497 9.48221
411 2 7.80779 87.5378 9.54452
412 2 11.8152 87.5804 9.22642
413 2 0.096593 91.5745 9.4784
414 2 3.86859 91.4919 9.40307
415 2 7.74844 91.5326 9.33226
416 2 12.0052 91.4001 9.39331
417 2 15.6475 95.2018 9.53731
418 2 3.86141 95.4225 9.36875
419 2 7.89854 95.4258 9.35392
420 2 11.7326 95.3961 9.42749
421 2 15.6516 99.4686 9.37075
422 2 3.78826 99.2759 9.62884
423 2 7.71683 99.2234 9.32442
424 2 11.7252 99.2653 9.56598
425 2 -0.263589 103.18 9.32125
426 2 3.96591 103.485 9.45699
427 2 7.89372 103.191 9.45899
428 2 11.6553 103.086 9.29934
429 2 0.0642355 106.996 9.36633
430 2 3.83592 107.174 9.53775
431 2 7.90658 107.345 9.61859
432 2 12.0959 107.015 9.62768
433 2 15.8643 111.114 9.42471
434 2 3.95883 111.048 9.57693
435 2 7.80098 111.063 9.27237
436 2 12.0247 110.98 9.36458
437 2 0.117322 115.094 9.14959
438 2 3.84531 115.102 9.21847
439 2 7.86688 114.896 9.3291
440 2 11.9259 114.902 9.22297
441 2 -0.0295929 118.836 9.267
442 2 3.9141 119.037 9.30837
443 2 7.97991 118.878 9.35873
444 2 11.9327 118.779 9.23447
445 2 15.6451 122.752 9.17673
446 2 3.71648 122.843 9.31776
447 2 7.93923 122.702 9.143
448 2 11.8438 122.767 9.2946
449 2 15.9527 126.549 9.1177
450 2 3.91168 126.763 9.16322
451 2 7.93403 126.719 9.13135
452 2 11.9844 126.776 8.95093
453 2 -0.170572 130.775 9.14352
454 2 3.7903 130.762 8.98068
455 2 7.69553 130.609 9.00279
456 2 11.8819 130.656 8.95858
457 2 -0.0241795 134.509 9.054
458 2 3.83242 134.731 8.84572
459 2 7.86163 134.698 9.09543
460 2 11.7671 134.615 9.0356
461 2 -0.0467238 138.448 8.84433
462 2 3.88379 138.375 9.13683
463 2 7.94218 138.516 9.01782
464 2 11.9239 138.297 8.92292
465 2 0.104727 142.392 9.06952
466 2 4.06694 142.124 8.76473
467 2 7.94539 142.184 8.92477
468 2 12.0302 142.428 9.0679
469 2 16.0386 146.204 9.06455
470 2 4.18194 146.078 8.96305
471 2 7.87351 146.305 8.83947
472 2 11.7964 146.319 8.74199
473 2 15.7476 150.047 8.67971
474 2 3.95266 150.102 8.78376
475 2 8.09206 150.147 8.81332
476 2 11.8337 150.114 8.84354
477 2 15.75 154.032 8.69962
478 2 4.05701 154.124 8.63076
479 2 7.82718 153.99 8.68258
480 2 11.9678 154.113 8.7311
481 2 15.9135 158.026 12.7927
482 2 3.99652 158.094 12.7936
483 2 8.12331 158.023 12.6978
484 2 11.8729 158.054 12.7695
485 2 15.9232 3.69371 12.6138
486 2 3.86394 3.60427 12.7236
487 2 8.09973 3.6331 12.5537
488 2 12.1338 3.40511 12.4646
489 2 15.8272 7.63717 12.4466
490 2 3.93412 7.67871 12.5257
491 2 7.81319 7.50931 12.6775
492 2 11.7648 7.48751 12.688
493 2 0.088996 11.492 12.5439
494 2 3.9755 11.5239 12.5307
495 2 7.84175 11.4562 12.5728
496 2 11.8681 11.373 12.5984
497 2 -0.00685975 15.3889 12.4665
498 2 3.96387 15.5028 12.5647
499 2 7.91024 15.517 12.5872
500 2 11.9004 15.376 12.5358
501 2 0.050008 19.3191 12.5737
502 2 3.8541 19.2246 12.588
503 2 7.75529 19.3619 12.4858
504 2 12.0296 19.2754 12.4644
505 2 -0.195263 23.1294 12.3822
506 2 4.07438 23.2433 12.3981
507 2 7.90111 23.1596 12.4178
508 2 11.8563 22.8859 12.4225
509 2 -0.23762 27.1884 12.2379
510 2 3.64724 27.1475 12.2899
511 2 7.80846 26.9661 12.3495
512 2 11.9287 27.1096 12.3708
513 2 -0.116039 31.2074 12.2214
514 2 4.08483 31.0151 12.3055
515 2 7.97109 30.9713 12.3382
516 2 11.7059 30.9567 12.4037
517 2 -0.0413337 35.0496 12.2273
518 2 4.02134 34.9916 12.2865
519 2 7.91321 34.9883 12.4685
520 2 11.8221 35.0033 12.3979
521 2 -0.0879411 38.8555 12.4721
522 2 3.82537 38.9647 12.4018
523 2 7.93338 39.102 12.3835
524 2 11.9546 38.7997 12.2402
525 2 -0.0960216 42.9321 12.5079
526 2 3.77126 42.933 12.4108
527 2 7.87563 43.0099 12.4398
528 2 11.8397 43.1103 12.5892
529 2 -0.0148256 47.0374 12.6078
530 2 3.9633 47.094 12.4295
531 2 7.6916 47.0277 12.5447
532 2 12.0405 47.1851 12.5903
533 2 0.0161262 51.1225 12.5535
534 2 4.05807 51.0418 12.5128
535 2 7.89052 50.9747 12.5322
536 2 12.0263 51.2165 12.5856
537 2 15.6938 54.9818 12.6936
538 2 3.98747 55.0992 12.5616
539 2 7.83829 55.0934 12.7781
540 2 11.8421 55.1441 12.7123
541 2 15.7453 59.095 12.8293
542 2 3.84303 59.2338 12.8011
543 2 7.79006 59.0566 12.6666
544 2 11.6588 59.0767 12.6947
545 2 15.5561 63.1047 12.7134
546 2 3.69959 63.1317 12.8296
547 2 7.7854 63.012 12.8725
548 2 11.6613 63.0201 12.7941
549 2 -0.0742575 67.1686 12.9475
550 2 3.82265 67.1502 12.8436
551 2 7.98858 67.2114 12.7147
552 2 11.868 67.1429 12.7369
553 2 -0.0991638 71.0811 13.0118
554 2 3.87484 71.2253 13.063
555 2 7.81765 71.2113 13.1618
556 2 11.7673 71.2488 13.1058
557 2 0.00283667 75.2571 13.1779
558 2 3.84245 75.3181 13.2084
559 2 7.68491 75.1926 13.0309
560 2 11.7401 75.2109 12.9297
561 2 -0.0805326 79.3636 13.1863
562 2 3.83947 79.3957 13.2645
563 2 7.94547 79.2535 13.0605
564 2 11.7796 79.1526 13.0382
565 2 0.00377979 83.4681 13.3648
566 2 3.97816 83.3247 13.2507
567 2 7.95917 83.319 13.1895
568 2 11.6427 83.2888 13.1485
569 2 0.0353644 87.3581 13.4154
570 2 3.95532 87.5747 13.0419
571 2 7.88384 87.395 13.3559
572 2 11.9327 87.3183 13.1631
573 2 -0.1742 91.4476 13.4884
574 2 3.70493 91.3923 13.1868
575 2 7.85718 91.5609 13.4037
576 2 11.8449 91.2475 13.2725
577 2 -0.103446 95.504 13.582
578 2 3.65341 95.3969 13.5185
579 2 8.00423 95.4231 13.5919
580 2 11.7404 95.5173 13.2619
581 2 -0.00286968 99.3732 13.4304
582 2 4.08182 99.2482 13.6396
583 2 7.9148 99.2914 13.5994
584 2 11.9111 99.5348 13.5458
585 2 0.00947581 103.434 13.6243
586 2 4.06749 103.318 13.3983
587 2 7.82166 103.459 13.4769
588 2 11.7927 103.381 13.3364
589 2 0.00113257 107.278 13.6769
590 2 4.02594 107.095 13.448
591 2 8.02274 107.197 13.5957
592 2 11.8949 107.348 13.5663
593 2 0.209432 111.134 13.2331
594 2 3.91017 111.181 13.423
595 2 7.94898 111.207 13.3807
596 2 11.9795 111.284 13.5016
597 2 0.127664 114.914 13.2003
598 2 4.05926 115.001 13.3635
599 2 8.00456 114.946 13.3384
600 2 11.8179 114.853 13.3931
601 2 0.111965 118.834 13.2297
602 2 4.1022 118.716 13.2743
603 2 7.85987 118.981 13.2221
604 2 11.7617 118.829 13.1653
605 2 -0.116609 122.737 13.2996
606 2 3.97944 122.707 13.1786
607 2 7.92099 122.932 13.0905
608 2 11.8379 122.821 13.4394
609 2 0.1955 126.671 13.1075
610 2 3.99689 126.663 13.2834
611 2 7.88808 126.651 13.0879
612 2 11.7785 126.831 13.1124
613 2 15.8346 130.805 13.1661
614 2 3.99751 130.71 13.0823
615 2 7.96336 130.796 13.1033
616 2 11.7601 130.664 13.0029
617 2 15.6248 134.524 13.1257
618 2 3.75397 134.567 12.8119
619 2 7.94194 134.532 13.0528
620 2 11.908 134.647 13.0969
621 2 -0.189169 138.576 12.8639
622 2 4.05295 138.446 13.2503
623 2 7.8889 138.448 12.9696
624 2 11.8871 138.419 12.989
625 2 15.8175 142.425 13.038
626 2 3.86845 142.404 12.9359
627 2 7.98761 142.357 12.8966
628 2 11.8639 142.359 12.9544
629 2 0.0224094 146.409 13.0011
630 2 3.90996 146.283 12.8052
631 2 7.90848 146.25 12.9484
632 2 11.8943 146.37 12.728
633 2 -0.00204855 150.13 12.746
634 2 3.81232 150.25 12.8203
635 2 7.89223 150.232 12.8246
636 2 11.7239 150.282 12.7893
637 2 15.7024 153.971 12.7305
638 2 3.7278 154.117 12.7232
639 2 7.9313 154.165 12.7199
640 2 11.9471 154.248 12.8762
641 2 -0.0356136 157.884 16.902
642 2 4.09718 -0.10468 16.5809
643 2 7.89863 157.936 16.7539
644 2 11.8827 158.109 16.7526
645 2 15.7619 3.46717 16.7222
646 2 4.06264 3.64618 16.6851
647 2 7.95534 3.56686 16.5632
648 2 11.8369 3.78977 16.6247
649 2 0.18873 7.77096 16.5389
650 2 4.12943 7.47671 16.5716
651 2 7.9023 7.65515 16.6958
652 2 11.9821 7.52333 16.7469
653 2 0.144578 11.4476 16.5921
654 2 3.84548 11.505 16.6257
655 2 8.02111 11.3643 16.7407
656 2 12.0094 11.4641 16.5981
657 2 -0.06637 15.3772 16.4102
658 2 3.95915 15.3356 16.5099
659 2 8.02118 15.4625 16.4397
660 2 11.8971 15.4683 16.5286
661 2 15.764 19.37 16.6535
662 2 3.89147 19.1491 16.456
663 2 7.8485 19.3885 16.4722
664 2 11.722 19.2959 16.5938
665 2 0.0252614 23.0734 16.4895
666 2 3.99001 23.3858 16.379
667 2 7.87583 23.2895 16.4854
668 2 11.851 23.189 16.366
669 2 -0.0100478 27.1286 16.3007
670 2 3.8245 27.1851 16.2416
671 2 7.77869 27.0954 16.3553
672 2 11.8976 27.0868 16.3077
673 2 -0.111021 30.9935 16.172
674 2 3.75962 31.1199 16.053
675 2 7.91548 30.9297 16.3273
676 2 11.8366 30.9914 16.3235
677 2 -0.0316257 34.7623 16.0668
678 2 3.90851 34.8557 16.1144
679 2 7.85481 35.0135 16.3746
680 2 11.8423 34.9718 16.44
681 2 0.167927 38.7992 16.4325
682 2 3.87339 38.8672 16.4044
683 2 7.9343 39.0817 16.025
684 2 11.8451 38.8953 16.2182
685 2 -0.00540949 43.0004 16.3384
686 2 4.08557 43.0637 16.3315
687 2 8.04532 42.9173 16.4289
688 2 11.9188 42.8699 16.2297
689 2 15.9432 46.9489 16.6031
690 2 4.11723 47.1165 16.5861
691 2 7.89022 46.9634 16.4867
692 2 11.8085 46.8679 16.4952
693 2 0.169079 50.9508 16.573
694 2 4.05216 50.9474 16.4552
695 2 7.92831 51.1763 16.5139
696 2 11.9457 50.8856 16.5067
697 2 -0.315528 55.0333 16.5104
698 2 3.80927 54.8985 16.6384
699 2 7.64893 55.099 16.8579
700 2 11.579 55.0056 16.6155
701 2 0.118485 58.8472 16.5787
702 2 3.94131 58.9525 16.7523
703 2 7.80904 59.0396 16.5734
704 2 11.9378 59.0599 16.6094
705 2 -0.144832 62.9975 16.7525
706 2 3.99914 63.0999 16.9126
707 2 7.8339 62.9871 16.8631
708 2 11.6989 63.0614 16.7614
709 2 0.05602 67.0912 16.9286
710 2 3.9167 66.9676 16.5754
711 2 8.02157 67.0043 16.7679
712 2 11.8219 66.8207 16.744
713 2 -0.389254 71.1728 17.0193
714 2 3.84841 71.0051 16.9634
715 2 7.68023 71.1207 17.0483
716 2 11.8723 71.1281 16.8776
717 2 -0.0381376 75.1983 17.059
718 2 3.81752 75.1494 16.9863
719 2 7.81797 75.2795 16.8921
720 2 11.7938 75.1372 17.1603
721 2 -0.150367 79.1809 17.0062
722 2 3.84501 79.222 17.0072
723 2 7.72521 79.0992 17.0826
724 2 11.9147 79.3701 17.0942
725 2 -0.242168 83.1981 17.1625
726 2 3.71495 83.2298 17.0199
727 2 7.93111 83.4433 17.0619
728 2 11.7064 83.4636 17.0569
729 2 -0.188747 87.2373 17.3442
730 2 3.851 87.293 17.1803
731 2 7.76854 87.312 17.2071
732 2 12.0018 87.2253 17.2518
733 2 -0.0318153 91.485 17.2163
734 2 3.85939 91.2717 17.1727
735 2 7.65908 91.2638 17.0285
736 2 11.7305 91.2916 17.182
737 2 -0.107549 95.2363 17.4006
738 2 3.93207 95.3759 17.4706
739 2 7.98635 95.3497 17.4112
740 2 11.8102 95.3638 17.3937
741 2 -0.153862 99.3471 17.4378
742 2 3.96777 99.4369 17.4455
743 2 8.02381 99.2691 17.5528
744 2 11.7979 99.2466 17.4903
745 2 -0.337024 103.376 17.4353
746 2 3.84694 103.316 17.434
747 2 7.92161 103.344 17.6215
748 2 11.6771 103.167 17.4517
749 2 -0.0340181 107.239 17.4887
750 2 3.9592 107.34 17.376
751 2 7.94811 107.203 17.4684
752 2 11.6717 107.403 17.4302
753 2 0.143356 111.235 17.301
754 2 3.95359 111.166 17.4179
755 2 7.9385 111.184 17.4311
756 2 11.9798 111.276 17.4986
757 2 0.103203 115.181 17.3909
758 2 4.02844 115.005 17.4395
759 2 8.00217 114.961 17.375
760 2 11.8923 115.2 17.4029
761 2 0.087974 119.035 17.3742
762 2 3.88928 118.832 17.3147
763 2 7.80694 119.005 17.0859
764 2 11.9595 119.094 17.3405
765 2 0.0455917 123.066 17.2694
766 2 3.9041 122.849 17.3639
767 2 7.98241 123.015 17.2845
768 2 11.8674 123.039 17.2493
769 2 15.8241 126.813 16.964
770 2 3.91398 126.762 17.2946
771 2 7.86611 127.091 16.9043
772 2 11.8882 126.824 17.1859
773 2 15.8667 130.712 17.0854
774 2 4.03715 130.485 17.0649
775 2 7.7764 130.729 17.2001
776 2 11.8222 130.694 17.0336
777 2 15.766 134.637 17.0329
778 2 3.81546 134.611 17.1769
779 2 7.81395 134.62 17.0795
780 2 11.7207 134.586 17.0329
781 2 0.0945885 138.38 16.9965
782 2 3.95643 138.535 17.1252
783 2 7.79072 138.484 16.8855
784 2 11.7271 138.497 17.0277
785 2 15.6418 142.454 16.9244
786 2 3.97159 142.383 16.901
787 2 7.9473 142.617 16.9919
788 2 11.7534 142.598 16.9256
789 2 15.5886 146.436 16.8063
790 2 3.95387 146.431 16.9404
791 2 7.95316 146.294 16.9006
792 2 11.7704 146.448 16.862
793 2 15.6178 150.455 17.0019
794 2 3.9703 150.239 16.8274
795 2 7.9875 150.24 16.7319
796 2 11.8676 150.212 16.8256
797 2 16.0082 154.167 16.9202
798 2 4.26115 154.241 16.7383
799 2 7.80122 154.128 16.8148
800 2 11.8506 154.148 16.7431
801 2 16.0208 158.326 20.7808
802 2 3.96865 158.196 20.9283
803 2 8.03251 158.034 20.5393
804 2 11.8107 158.25 20.6604
805 2 -0.0692213 3.86134 20.5084
806 2 3.94596 3.78579 20.6701
807 2 7.97403 3.59441 20.7266
808 2 11.9093 3.6015 20.6845
809 2 16.0164 7.72847 20.6226
810 2 4.0788 7.58407 20.7899
811 2 8.04759 7.70615 20.733
812 2 12.0946 7.67944 20.7339
813 2 15.7655 11.5495 20.7165
814 2 3.91669 11.4598 20.7124
815 2 7.87052 11.4772 20.5318
816 2 11.9592 11.5099 20.6751
817 2 15.8445 15.1751 20.6246
818 2 3.86173 15.4904 20.5907
819 2 7.81435 15.4058 20.5615
820 2 11.7464 15.5088 20.4823
821 2 -0.0373174 19.1722 20.6464
822 2 3.97358 19.372 20.6077
823 2 8.12174 19.276 20.5204
824 2 11.876 19.5077 20.4482
825 2 0.106829 23.2021 20.4156
826 2 4.01773 23.3236 20.3766
827 2 7.90314 23.4193 20.4175
828 2 11.7779 23.5722 20.6471
829 2 15.6749 27.2711 20.3138
830 2 3.79436 27.2148 20.3895
831 2 7.74573 27.1513 20.3163
832 2 11.8054 27.0791 20.5195
833 2 15.646 31.0578 20.3267
834 2 4.05884 31.264 20.3662
835 2 7.79809 30.9204 20.32
836 2 11.7117 31.174 20.5079
837 2 15.8954 34.8952 20.3669
838 2 3.91283 35.0951 20.2072
839 2 7.72583 35.224 20.1636
840 2 11.7924 34.7906 20.319
841 2 -0.0339447 38.7831 20.1985
842 2 3.82814 38.912 20.0515
843 2 8.03591 38.9341 20.0684
844 2 11.9453 38.738 20.2185
845 2 15.7293 42.9216 20.4752
846 2 3.78125 42.7082 20.4145
847 2 8.12192 42.7487 20.2405
848 2 12.0279 42.8137 20.368
849 2 15.7634 46.8628 20.3975
850 2 3.97629 46.6401 20.5113
851 2 7.87604 46.6977 20.3119
852 2 11.865 46.8024 20.3544
853 2 -0.0047932 50.8589 20.5886
854 2 3.96879 50.7841 20.5483
855 2 8.0442 50.6915 20.3675
856 2 12.0078 50.7881 20.5497
857 2 0.0176748 55.0698 20.389
858 2 4.00289 54.9552 20.5546
859 2 7.92029 54.7379 20.6597
860 2 12.0599 54.9411 20.5543
861 2 15.8839 58.9399 20.614
862 2 3.97897 59.0831 20.7927
863 2 7.97361 59.0057 20.7958
864 2 11.7669 59.0086 20.5973
865 2 15.6675 62.9874 20.6729
866 2 3.80528 63.2362 20.7129
867 2 7.83805 63.0147 20.5248
868 2 12.0446 63.1203 20.7441
869 2 0.0672429 66.8966 20.8204
870 2 3.95212 67.1837 20.7521
871 2 7.99066 67.0565 20.6846
872 2 11.798 67.0998 20.7943
873 2 -0.359668 71.057 20.683
874 2 3.75835 71.1406 20.8901
875 2 7.81275 71.0459 20.7878
876 2 11.6361 71.1091 20.8253
877 2 -0.206544 75.1052 20.8248
878 2 3.90206 75.2693 20.7701
879 2 7.68444 75.0704 21.0194
880 2 11.5845 75.2041 20.7324
881 2 -0.119282 79.124 21.0091
882 2 3.89667 79.2639 20.9529
883 2 7.93369 79.1905 21.0897
884 2 11.7937 79.0832 20.8235
885 2 0.0411027 83.228 20.9228
886 2 3.8437 83.2226 21.0326
887 2 7.79234 83.1582 20.9101
888 2 11.7191 83.2495 21.1535
889 2 -0.109947 87.1751 21.3711
890 2 4.00678 87.1996 21.1461
891 2 8.02651 87.1865 21.0815
892 2 11.684 87.398 21.198
893 2 -0.0461178 91.1164 21.1677
894 2 3.73387 91.1746 21.2189
895 2 7.90305 91.1874 21.1145
896 2 11.7386 91.2683 21.113
897 2 0.00571169 95.2294 21.3551
898 2 4.09902 95.2664 21.3697
899 2 7.81538 95.2279 21.2379
900 2 11.7606 95.1122 21.4596
901 2 -0.211228 99.2659 21.4936
902 2 3.74254 99.2983 21.5231
903 2 7.80323 99.2888 21.4255
904 2 11.7666 99.1758 21.3705
905 2 -0.138146 103.35 21.3839
906 2 3.88072 103.385 21.4137
907 2 7.74502 103.265 21.3831
908 2 12.0655 103.355 21.5271
909 2 0.151951 107.173 21.4823
910 2 4.05603 107.316 21.2003
911 2 7.97191 107.39 21.505
912 2 11.9013 107.307 21.4974
913 2 0.0384533 111.073 21.5048
914 2 4.00809 111.203 21.3687
915 2 7.97159 111.324 21.4457
916 2 11.9673 111.345 21.3527
917 2 16.0366 114.954 21.3097
918 2 4.03881 114.944 21.4703
919 2 8.1104 115.206 21.4916
920 2 12.1141 115.059 21.3855
921 2 0.199006 118.984 21.3936
922 2 4.07001 119.048 21.3177
923 2 7.96956 119.091 21.2258
924 2 12.0949 118.943 21.2659
925 2 15.8686 122.871 21.3513
926 2 4.22143 122.953 21.2252
927 2 7.90814 122.917 21.3129
928 2 12.0497 122.667 21.2259
929 2 15.9118 126.876 21.1912
930 2 3.82173 126.72 21.0805
931 2 7.91317 127.01 21.1672
932 2 11.897 126.938 21.133
933 2 15.8841 131.032 21.1601
934 2 3.95589 130.585 21.1671
935 2 7.88838 130.846 21.263
936 2 11.9443 130.905 21.02
937 2 -0.122646 134.802 21.1807
938 2 3.99354 134.933 21.1043
939 2 8.12455 134.707 21.1734
940 2 11.7704 134.669 21.0281
941 2 15.6611 138.519 20.7539
942 2 3.84981 138.676 21.0925
943 2 7.87613 138.629 21.1918
944 2 11.8766 138.769 21.0328
945 2 15.874 142.511 20.8832
946 2 3.85292 142.624 20.8562
947 2 7.95898 142.552 20.9362
948 2 11.8934 142.654 21.0343
949 2 15.826 146.322 20.8598
950 2 4.04342 146.355 20.9053
951 2 7.95438 146.581 20.9944
952 2 11.8366 146.674 21.065
953 2 15.7533 150.386 20.8925
954 2 3.87671 150.343 20.8792
955 2 7.83827 150.314 20.8343
956 2 11.7948 150.295 20.9375
957 2 15.7349 154.33 20.843
958 2 3.95701 154.228 20.9218
959 2 8.10959 154.236 20.9736
960 2 11.9533 154.21 21.0296
961 2 0.228674 158.346 24.7016
962 2 4.01584 158.108 24.8419
963 2 7.84557 158.223 24.9625
964 2 12.0397 158.302 24.7829
965 2 16.1591 3.84165 24.4781
966 2 4.01313 3.78957 24.863
967 2 7.90765 3.8821 24.7661
968 2 12.0084 3.78986 24.7656
969 2 16.0433 7.72876 24.7125
970 2 3.93188 7.67534 24.7762
971 2 7.84723 7.72959 24.7794
972 2 11.8441 7.78206 24.5861
973 2 16.0582 11.553 24.7825
974 2 3.96683 11.6162 24.7952
975 2 7.76472 11.547 24.7666
976 2 11.8177 11.717 24.7564
977 2 -0.108458 15.6035 24.4727
978 2 3.88397 15.4955 24.6777
979 2 7.81989 15.5625 24.5939
980 2 11.5921 15.4316 24.5781
981 2 -0.0724651 19.346 24.3696
982 2 3.78499 19.5447 24.5099
983 2 7.78096 19.498 24.6049
984 2 11.74 19.3292 24.4035
985 2 -0.0146776 23.2643 24.5531
986 2 3.92152 23.3447 24.4927
987 2 7.85798 23.2588 24.5296
988 2 11.8863 23.3277 24.4703
989 2 0.026474 27.2423 24.5227
990 2 3.89918 27.3438 24.5004
991 2 7.78174 27.4091 24.5674