ITEM: TIMESTEP
20600
ITEM: NUMBER OF ATOMS
32000
ITEM: BOX BOUNDS xy xz yz pp pp pp
0.0000000000000000e+00 1.5832000000000001e+01 0.0000000000000000e+00
0.0000000000000000e+00 1.5831999999999999e+02 0.0000000000000000e+00
8.2955934197309489e-01 1.6014755865802374e+02 0.0000000000000000e+00
ITEM: ATOMS id type x y z
1 2 15.874 157.78 159.953
2 2 3.79449 158.009 159.956
3 2 7.9297 157.845 159.85
4 2 11.8447 157.975 160.008
5 2 -0.0601506 3.22708 159.903
6 2 3.87244 3.43488 159.859
7 2 7.87075 3.50527 159.841
8 2 11.7575 3.55999 159.846
9 2 15.8314 7.37444 159.775
10 2 3.92563 7.30208 159.806
11 2 7.54029 7.40826 159.73
12 2 11.7017 7.60324 159.775
13 2 15.7639 11.4783 159.985
14 2 3.94869 11.2643 159.623
15 2 7.89945 11.3164 159.795
16 2 11.7575 11.321 159.823
17 2 -0.119846 15.2027 159.705
18 2 3.78991 15.199 159.828
19 2 7.74339 15.2035 159.79
20 2 11.815 15.2643 159.574
21 2 15.8117 19.0807 159.74
22 2 3.91162 19.1168 159.696
23 2 7.89478 19.057 159.694
24 2 11.7734 19.2035 159.61
25 2 15.5958 23.3637 159.522
26 2 3.84723 22.9691 159.623
27 2 7.95444 23.0821 159.836
28 2 11.6825 22.9596 159.521
29 2 15.7367 27.1765 159.745
30 2 3.87145 26.9782 159.603
31 2 7.73126 26.9365 159.667
32 2 11.8523 27.1928 159.563
33 2 15.7376 31.0026 159.908
34 2 4.02384 31.1724 0.534343
35 2 7.69942 31.1443 159.897
36 2 11.7795 31.0918 159.76
37 2 0.0377115 35.0015 159.95
38 2 3.90706 35.1189 159.942
39 2 7.91993 35.0562 159.811
40 2 11.8986 35.0422 160.006
41 2 0.225052 39.1266 160.126
42 2 4.02624 39.1374 0.726683
43 2 7.76144 38.9454 0.779859
44 2 11.8586 39.2329 0.548672
45 2 -0.140896 43.1366 160.067
46 2 3.86696 43.1698 160.092
47 2 7.82449 43.2231 0.822203
48 2 11.983 43.2953 0.749607
49 2 -0.0319668 47.1961 0.958847
50 2 3.86572 47.0841 0.946103
51 2 7.78562 47.1987 0.695529
52 2 11.7304 47.2166 0.688769
53 2 -0.464572 51.3084 0.963817
54 2 3.88167 51.3207 0.725826
55 2 7.6302 51.1992 0.798735
56 2 11.8368 51.2527 0.735537
57 2 15.8447 55.2678 0.996625
58 2 3.89689 55.2725 0.923511
59 2 7.81855 55.2802 0.935858
60 2 11.7163 55.288 1.07395
61 2 -0.153867 59.4829 0.842398
62 2 3.90241 59.3704 0.948659
63 2 7.64285 59.4677 1.21227
64 2 11.7532 59.246 1.02579
65 2 -0.183892 63.5516 1.03702
66 2 3.96278 63.278 1.05178
67 2 7.85361 63.2868 1.11111
68 2 11.8447 63.5122 1.26324
69 2 15.608 67.3136 1.09621
70 2 3.73318 67.3401 1.19889
71 2 7.89346 67.5124 1.11017
72 2 11.6954 67.6784 1.31219
73 2 -0.0252744 71.4624 1.26822
74 2 3.82972 71.4849 1.33776
75 2 7.72587 71.3625 1.38459
76 2 11.6049 71.5173 1.33373
77 2 -0.290841 75.6328 1.37934
78 2 3.803 75.5743 1.5345
79 2 7.81954 75.4535 1.27858
80 2 11.9156 75.323 1.49462
81 2 0.0748436 79.6363 1.3775
82 2 4.01 79.5542 1.73085
83 2 7.71516 79.6624 1.5063
84 2 11.8298 79.5053 1.43569
85 2 -0.121103 83.5 1.70537
86 2 3.90348 83.576 1.50648
87 2 7.7326 83.6615 1.52064
88 2 11.7798 83.2834 1.45603
89 2 0.0957305 87.4781 1.39852
90 2 3.93747 87.5165 1.56224
91 2 7.83918 87.5586 1.3603
92 2 11.8417 87.5189 1.5453
93 2 -0.0726806 91.2965 1.3081
94 2 3.84999 91.5244 1.38343
95 2 7.84771 91.5474 1.45216
96 2 11.9689 91.357 1.41054
97 2 15.8163 95.3541 1.45455
98 2 3.85289 95.1976 1.40431
99 2 7.8613 95.1669 1.37567
100 2 12.0413 95.2379 1.35364
101 2 -0.0283177 99.1959 1.33821
102 2 4.06868 99.2414 1.55021
103 2 7.87468 99.2097 1.57201
104 2 11.7938 99.3657 1.38954
105 2 -0.122848 103.303 1.25797
106 2 3.92448 103.061 1.28314
107 2 7.82152 103.161 1.36925
108 2 11.8679 103.441 1.2631
109 2 -0.0124331 107.001 1.2882
110 2 3.93764 107.084 1.21614
111 2 8.00023 106.974 1.33518
112 2 11.8582 107.014 1.27411
113 2 0.0642986 110.877 1.37279
114 2 3.79933 111.074 1.27129
115 2 7.84682 110.819 1.3228
116 2 11.9953 111.002 1.30692
117 2 15.7683 115.161 1.20916
118 2 4.00452 114.931 1.32813
119 2 7.84266 114.783 1.24575
120 2 11.8333 114.748 1.35919
121 2 -0.0934454 118.873 1.12225
122 2 4.10909 118.717 1.24943
123 2 7.88934 118.643 1.12211
124 2 11.9032 118.619 1.21054
125 2 15.757 122.672 1.13953
126 2 3.85385 122.678 1.12419
127 2 7.83233 122.845 1.13732
128 2 11.9116 122.672 1.12416
129 2 0.111513 126.643 1.11151
130 2 4.06724 126.798 1.04061
131 2 7.92522 126.547 1.04138
132 2 11.8603 126.577 0.96913
133 2 15.7776 130.479 1.09552
134 2 4.10624 130.452 1.04109
135 2 8.01204 130.325 1.05148
136 2 11.7772 130.389 1.09917
137 2 15.9024 134.375 1.04934
138 2 3.9505 134.395 0.889913
139 2 7.80473 134.475 160.289
140 2 11.6266 134.2 0.854341
141 2 -0.188614 138.19 0.979434
142 2 3.94956 138.261 160.356
143 2 8.0517 138.205 160.136
144 2 11.8043 138.412 0.84121
145 2 15.8441 142.138 160.405
146 2 4.16087 142.294 160.209
147 2 8.02751 142.277 160.338
148 2 11.8832 142.273 160.298
149 2 0.148393 146.034 160.099
150 2 3.83066 146.138 160.152
151 2 7.87073 146.14 160.099
152 2 12.0099 146.195 160.205
153 2 15.7626 150.098 160.154
154 2 3.98454 150.021 159.998
155 2 7.76498 150.016 160.046
156 2 11.9337 150.101 0.743244
157 2 15.7169 153.989 159.936
158 2 3.80731 153.902 160.001
159 2 7.99492 153.894 159.892
160 2 12.0132 154.163 159.765
161 2 15.8029 157.904 4.61625
162 2 3.90754 157.874 4.63927
163 2 7.65986 158.078 4.64633
164 2 11.6738 158.025 4.56656
165 2 -0.18169 3.58389 4.54267
166 2 3.95761 3.34519 4.63075
167 2 8.01209 3.51467 4.66618
168 2 11.7859 3.75904 4.47075
169 2 0.212512 7.26556 4.42945
170 2 4.03699 7.33007 4.61827
171 2 7.72769 7.3898 4.54202
172 2 11.9534 7.35979 4.59646
173 2 -0.000627778 11.1688 4.30147
174 2 4.05439 11.2381 4.60476
175 2 8.00396 11.3118 4.5111
176 2 11.9413 11.2208 4.36348
177 2 15.9208 15.3225 4.40891
178 2 3.87124 15.2732 4.48284
179 2 8.05199 15.32 4.3558
180 2 11.8232 15.1739 4.47592
181 2 -0.264259 19.1104 4.15619
182 2 4.18441 19.1148 4.31618
183 2 7.82919 19.096 4.22389
184 2 11.8659 19.154 4.38416
185 2 -0.0429769 23.0542 4.36592
186 2 3.85496 22.819 4.35252
187 2 8.01524 23.0033 4.49833
188 2 11.8922 23.0858 4.33259
189 2 15.731 26.811 4.4053
190 2 3.83229 26.8696 4.34535
191 2 7.87959 26.8804 4.38624
192 2 11.756 26.9171 4.2177
193 2 -0.0841239 30.843 4.39865
194 2 3.9391 30.8891 4.46463
195 2 7.85179 30.8437 4.3368
196 2 11.6976 30.8642 4.49773
197 2 0.0319943 34.9475 4.51461
198 2 4.10141 35.1442 4.50949
199 2 7.89052 35.1192 4.52125
200 2 11.6429 35.0021 4.37974
201 2 15.8814 39.0311 4.61393
202 2 4.04039 39.1402 4.62499
203 2 7.99409 39.0779 4.65328
204 2 12.0383 39.0716 4.51777
205 2 0.0984945 43.096 4.76375
206 2 3.99125 43.1009 4.778
207 2 7.8247 42.9613 4.7303
208 2 11.8895 43.0725 4.60198
209 2 -0.00892382 47.1566 4.80609
210 2 3.8655 47.1258 4.83265
211 2 7.88951 47.2663 4.61591
212 2 11.882 47.2166 4.78632
213 2 -0.0291443 51.1806 5.04354
214 2 3.882 51.2663 4.70961
215 2 7.7441 51.3073 4.77058
216 2 11.627 51.1472 4.74247
217 2 -0.212106 55.2389 4.85479
218 2 3.84209 55.3395 4.77085
219 2 7.88721 55.145 4.81474
220 2 11.6015 55.151 4.7961
221 2 15.67 59.1265 4.82974
222 2 3.68213 59.2023 4.90415
223 2 7.88522 59.1345 5.03829
224 2 11.6566 59.2296 4.91617
225 2 0.036583 63.2588 4.8685
226 2 3.60676 63.2925 4.92291
227 2 7.79487 63.3281 5.02179
228 2 11.7118 63.1597 4.93645
229 2 15.7467 67.2906 5.0932
230 2 3.80491 67.4246 5.04112
231 2 7.81015 67.3414 5.03201
232 2 11.7441 67.1658 5.17999
233 2 15.8286 71.2688 5.26409
234 2 3.85652 71.3978 5.23781
235 2 7.77896 71.3661 5.22756
236 2 11.7959 71.3669 4.94269
237 2 15.6692 75.3899 5.3064
238 2 3.76562 75.5757 5.05632
239 2 7.75124 75.2858 5.38157
240 2 11.5586 75.6198 5.19869
241 2 -0.167332 79.4516 5.57535
242 2 3.7684 79.5838 5.44364
243 2 7.93499 79.5386 5.50464
244 2 11.7975 79.4078 5.37563
245 2 15.7407 83.6002 5.56612
246 2 3.9783 83.4781 5.6288
247 2 7.97976 83.6707 5.5348
248 2 11.6468 83.4617 5.23359
249 2 0.075036 87.4687 5.52861
250 2 3.64659 87.2914 5.59629
251 2 7.89794 87.4178 5.3766
252 2 11.9901 87.7177 5.56623
253 2 -0.0507865 91.4502 5.63454
254 2 3.90444 91.3354 5.48272
255 2 7.81108 91.251 5.35247
256 2 11.7594 91.5383 5.48426
257 2 15.9202 95.4658 5.38069
258 2 4.11816 95.4075 5.34725
259 2 7.97849 95.3777 5.451
260 2 11.899 95.2386 5.55951
261 2 0.076487 99.2721 5.35534
262 2 4.06937 99.2519 5.38076
263 2 8.03145 99.0948 5.49471
264 2 11.8851 99.2349 5.38947
265 2 0.163606 103.102 5.22857
266 2 3.90529 103.241 5.3343
267 2 7.95523 103.208 5.41523
268 2 11.8798 103.231 5.19021
269 2 15.9866 107.046 5.25549
270 2 3.94239 106.941 5.36943
271 2 7.80115 107.186 5.49178
272 2 12.0202 107.07 5.41224
273 2 15.81 110.964 5.32813
274 2 3.93714 111.102 5.40262
275 2 7.95877 111.225 5.44431
276 2 11.8539 110.935 5.32486
277 2 -0.231823 115.101 5.23165
278 2 3.78163 114.955 5.37872
279 2 7.98379 114.956 5.26139
280 2 11.9405 114.795 5.39418
281 2 0.0867458 118.95 5.15447
282 2 3.98658 118.853 5.09177
283 2 7.90189 118.809 5.10835
284 2 11.7187 118.922 5.11488
285 2 15.9796 122.855 5.05489
286 2 4.04528 122.727 4.95236
287 2 7.89421 122.845 5.27017
288 2 11.7127 122.827 5.15726
289 2 0.0935465 126.598 5.16365
290 2 3.99217 126.575 5.22888
291 2 7.98552 126.701 5.21547
292 2 11.9875 126.768 5.19475
293 2 -0.0778691 130.642 5.0365
294 2 4.13014 130.524 5.0369
295 2 7.95058 130.494 5.07243
296 2 12.0167 130.601 4.99259
297 2 15.941 134.267 4.97411
298 2 3.98487 134.276 4.9051
299 2 7.8939 134.548 5.1258
300 2 11.9863 134.589 5.01194
301 2 0.152188 138.454 4.99236
302 2 3.85537 138.466 4.96622
303 2 7.95895 138.336 4.91121
304 2 11.9189 138.43 4.89443
305 2 0.0297162 142.455 4.93483
306 2 4.01287 142.335 5.02691
307 2 8.07492 142.435 4.97205
308 2 11.8942 142.235 4.93342
309 2 16.1201 146.193 4.59546
310 2 4.11117 146.222 4.7432
311 2 7.84452 146.151 4.79233
312 2 11.9544 146.364 4.68751
313 2 15.7928 150.016 4.55426
314 2 4.23356 150.131 4.77273
315 2 8.04827 150.117 4.79536
316 2 11.9782 150.127 4.78233
317 2 15.8254 153.955 4.60234
318 2 3.74738 154.037 4.77614
319 2 7.84923 154.004 4.70342
320 2 11.7833 154.275 4.68394
321 2 15.7227 157.933 8.71356
322 2 3.97188 157.943 8.84333
323 2 7.89495 158.077 8.69092
324 2 11.7332 157.825 8.74401
325 2 15.949 3.65522 8.52828
326 2 3.93296 3.50523 8.7826
327 2 7.89144 3.40724 8.73176
328 2 11.9123 3.51418 8.54014
329 2 15.7909 7.64502 8.56365
330 2 3.91471 7.60633 8.63174
331 2 7.83283 7.48563 8.52533
332 2 11.6416 7.38775 8.81862
333 2 -0.081299 11.3166 8.56403
334 2 3.96 11.4543 8.50198
335 2 7.95181 11.3685 8.43159
336 2 11.8539 11.3518 8.59165
337 2 15.8374 15.359 8.37774
338 2 3.91169 15.3672 8.27104
339 2 8.10399 15.3311 8.49394
340 2 11.8837 15.2568 8.43123
341 2 -0.0775135 19.0529 8.39771
342 2 3.88002 19.1652 8.32617
343 2 7.8524 19.2604 8.4463
344 2 11.9075 19.069 8.53718
345 2 -0.286838 22.9411 8.28007
346 2 3.75935 23.0357 8.24563
347 2 7.9645 23.1696 8.21825
348 2 11.7068 22.9035 8.42171
349 2 -0.140094 26.8922 8.29529
350 2 3.91654 27.1201 8.34983
351 2 7.63703 27.0039 8.3438
352 2 11.8309 27.0931 8.46603
353 2 -0.00308153 30.8668 8.21248
354 2 3.89605 30.9495 8.38383
355 2 7.82197 30.9363 8.41969
356 2 11.7551 30.8569 8.22192
357 2 15.9653 34.7608 8.42854
358 2 4.08138 34.8277 8.39044
359 2 8.00261 34.9002 8.67901
360 2 11.8297 34.9293 8.42189
361 2 -0.00683452 38.948 8.58079
362 2 3.77118 39.0454 8.45271
363 2 7.85655 39.019 8.66612
364 2 11.8916 39.0524 8.38638
365 2 -0.0399466 42.9927 8.50759
366 2 3.86827 43.2128 8.62447
367 2 7.76069 43.1182 8.49522
368 2 11.9489 43.0698 8.51914
369 2 -0.0612356 47.2384 8.58095
370 2 3.99297 47.2449 8.5843
371 2 7.82235 47.0454 8.58159
372 2 11.8733 47.0491 8.67336
373 2 15.9486 51.0545 8.92655
374 2 3.9317 51.2561 8.52761
375 2 7.79629 51.098 8.71609
376 2 11.6238 51.122 8.5412
377 2 15.5679 55.1138 8.69793
378 2 3.73776 55.0996 8.63512
379 2 7.8028 54.9832 8.78345
380 2 11.7211 55.054 8.95015
381 2 -0.361987 59.1381 8.72904
382 2 3.70678 59.2481 8.77868
383 2 7.79023 59.2478 8.96581
384 2 11.7028 59.1163 8.67731
385 2 0.104734 63.2796 8.79269
386 2 3.69805 63.2171 8.87476
387 2 7.76587 63.3052 8.84593
388 2 11.7305 63.1199 8.87077
389 2 15.6449 67.2579 8.99519
390 2 3.91897 67.3946 8.96689
391 2 7.8572 67.4185 9.02505
392 2 11.9074 67.101 8.94088
393 2 15.7684 71.2365 9.04286
394 2 3.84818 71.3611 9.08721
395 2 7.81836 71.5336 9.09326
396 2 11.7471 71.2668 9.10947
397 2 15.555 75.3309 9.10944
398 2 3.84898 75.2859 9.30454
399 2 7.6454 75.3111 9.22876
400 2 11.6378 75.0842 9.16618
401 2 15.8052 79.4756 9.27956
402 2 3.80794 79.1663 9.30313
403 2 7.87686 79.374 9.20629
404 2 11.8917 79.3126 9.38771
405 2 -0.11528 83.3927 9.45756
406 2 4.04914 83.4496 9.45245
407 2 7.90879 83.454 9.41653
408 2 11.8972 83.38 9.37356
409 2 -0.0712124 87.4016 9.4138
410 2 3.77074 87.4464 9.439
411 2 7.742 87.4274 9.37814
412 2 11.6956 87.4851 9.54556
413 2 -0.230089 91.5132 9.50303
414 2 3.96416 91.4221 9.52828
415 2 7.70316 91.5326 9.49289
416 2 11.5511 91.6156 9.51241
417 2 15.8422 95.4934 9.35118
418 2 3.98249 95.2761 9.54389
419 2 7.7503 95.2397 9.54008
420 2 11.8218 95.3768 9.39905
421 2 15.9067 99.1808 9.54135
422 2 3.90805 99.4 9.36107
423 2 7.87582 99.279 9.56203
424 2 12.0325 99.2226 9.45007
425 2 -0.120577 103.066 9.30354
426 2 3.99934 103.052 9.54288
427 2 8.01039 103.082 9.43772
428 2 11.9328 103.064 9.60332
429 2 -0.215735 107.063 9.498
430 2 3.98931 106.938 9.30589
431 2 8.08504 107.067 9.33476
432 2 11.7401 107.039 9.24886
433 2 15.8297 110.868 9.36395
434 2 3.88588 111.006 9.26155
435 2 7.85485 111.076 9.38696
436 2 11.8777 111.113 9.32985
437 2 -0.127091 114.862 9.33498
438 2 3.91997 114.837 9.24768
439 2 8.06744 115.015 9.1375
440 2 11.8019 115.039 9.30601
441 2 0.0220746 118.819 9.29733
442 2 4.0552 118.712 9.2616
443 2 7.81683 118.935 9.05952
444 2 11.7214 118.744 9.07472
445 2 15.7375 122.579 9.12389
446 2 4.09159 122.667 9.15377
447 2 7.84202 122.927 9.29457
448 2 11.8195 122.75 8.98491
449 2 15.8601 126.795 9.17865
450 2 4.03145 126.826 9.14503
451 2 8.07591 126.696 9.16078
452 2 11.9841 126.733 9.33998
453 2 0.120343 130.512 9.0977
454 2 4.10266 130.564 9.20177
455 2 7.93322 130.715 9.13633
456 2 11.7971 130.521 9.18724
457 2 -0.110261 134.487 9.022
458 2 4.12531 134.51 9.12591
459 2 7.79224 134.572 8.96506
460 2 11.7251 134.429 9.06043
461 2 0.0603251 138.315 9.0248
462 2 4.06964 138.585 8.80577
463 2 7.9887 138.479 8.93598
464 2 11.9871 138.612 8.97589
465 2 -0.0409884 142.424 8.80383
466 2 3.93553 142.439 9.08524
467 2 7.97907 142.371 9.00205
468 2 11.8173 142.361 8.81255
469 2 15.8911 146.327 8.64473
470 2 3.78896 146.46 8.81795
471 2 7.7874 146.051 8.87863
472 2 11.9749 146.189 8.97101
473 2 15.8259 150.194 8.72913
474 2 3.95296 150.082 8.78512
475 2 7.85983 150.286 8.83348
476 2 11.8884 150.131 8.87149
477 2 15.9381 154.009 8.79771
478 2 3.83736 154.038 8.86735
479 2 7.89119 154.142 8.88216
480 2 11.8424 154.115 8.73308
481 2 15.7707 157.916 12.6554
482 2 3.78855 158.03 12.7824
483 2 7.74047 158.116 12.7687
484 2 11.8445 158.022 12.7483
485 2 15.8807 3.62982 12.7412
486 2 3.98205 3.64161 12.7555
487 2 7.97342 3.64928 12.6722
488 2 11.9345 3.76753 12.8167
489 2 15.6073 7.66012 12.8175
490 2 3.94183 7.38791 12.8282
491 2 7.83248 7.68177 12.5838
492 2 11.9177 7.49229 12.6805
493 2 -0.0321982 11.3742 12.554
494 2 3.94919 11.6151 12.5223
495 2 7.87952 11.4474 12.5162
496 2 11.7318 11.6305 12.4811
497 2 0.0220033 15.3913 12.607
498 2 3.94942 15.1778 12.3376
499 2 7.97541 15.1906 12.4723
500 2 11.8951 15.265 12.6343
501 2 0.0387148 19.2771 12.4159
502 2 4.00371 19.2372 12.3238
503 2 7.78046 19.0615 12.449
504 2 11.6299 19.1141 12.4652
505 2 0.129358 23.1583 12.2294
506 2 3.63476 23.179 12.4285
507 2 7.85301 23.0806 12.3502
508 2 11.7889 23.2881 12.4628
509 2 -0.214086 26.9476 12.2409
510 2 3.75731 26.9272 12.2512
511 2 7.74891 27.0555 12.398
512 2 11.5963 26.8557 12.2651
513 2 -0.131515 30.9032 12.2218
514 2 3.84331 30.7933 12.3089
515 2 7.94479 31.0562 12.3045
516 2 11.8861 30.9174 12.2992
517 2 -0.119012 34.772 12.261
518 2 3.9437 34.7851 12.3352
519 2 7.77588 35.0376 12.3789
520 2 11.7096 34.8959 12.3275
521 2 -0.00523818 38.984 12.3581
522 2 3.72293 39.0053 12.4065
523 2 7.76288 38.808 12.2171
524 2 11.7746 39.0792 12.472
525 2 -0.187194 43.1114 12.4208
526 2 3.95545 43.0859 12.4394
527 2 7.83305 43.1365 12.5557
528 2 11.7036 42.8777 12.4514
529 2 0.0268302 46.9272 12.568
530 2 3.85637 47.0171 12.5971
531 2 7.9099 47.0096 12.3841
532 2 11.7759 46.9549 12.5161
533 2 -0.0398571 50.9039 12.4935
534 2 4.05682 51.2194 12.5498
535 2 7.93139 51.0808 12.5703
536 2 11.6224 50.8772 12.6795
537 2 15.6889 55.0981 12.6351
538 2 3.85803 54.9957 12.6992
539 2 7.78904 54.9825 12.7482
540 2 11.8172 54.9926 12.7448
541 2 15.6867 58.9102 12.6539
542 2 3.72319 58.8343 12.5942
543 2 7.71357 58.9806 12.7952
544 2 11.6578 59.0589 12.7893
545 2 15.6365 63.1048 13.0318
546 2 3.89293 63.0858 12.7989
547 2 7.73024 63.0918 12.8149
548 2 11.6884 63.1233 12.8057
549 2 -0.263552 67.081 12.9353
550 2 3.71601 67.0925 12.9816
551 2 7.65936 67.2281 12.8424
552 2 11.582 67.1207 13.0461
553 2 -0.343389 71.3459 13.146
554 2 3.62443 71.1169 13.0944
555 2 7.84661 71.2988 13.0944
556 2 11.6412 71.2085 12.9018
557 2 -0.302961 75.3518 13.1109
558 2 3.83171 75.252 13.1835
559 2 7.89282 75.4083 13.1008
560 2 11.6658 75.3007 13.0855
561 2 -0.276503 79.418 13.258
562 2 3.75061 79.1084 13.088
563 2 7.62526 79.33 13.3648
564 2 11.6376 79.3321 13.4011
565 2 -0.243601 83.3368 13.2168
566 2 3.87305 83.169 13.2884
567 2 7.66762 83.2696 13.2201
568 2 11.8274 83.365 13.1452
569 2 -0.0447675 87.3921 13.1424
570 2 3.77324 87.3074 13.3688
571 2 7.89915 87.4267 13.4508
572 2 11.7616 87.4084 13.2412
573 2 -0.0144898 91.2961 13.2151
574 2 3.89458 91.4296 13.5926
575 2 7.93561 91.45 13.5146
576 2 11.8386 91.3473 13.3197
577 2 -0.0374234 95.4229 13.3748
578 2 4.04693 95.6822 13.4615
579 2 7.89238 95.3919 13.458
580 2 11.9296 95.4359 13.5929
581 2 0.0502474 99.4749 13.5642
582 2 3.89096 99.4249 13.4597
583 2 7.86122 99.2117 13.4055
584 2 11.7868 99.2412 13.5568
585 2 0.0523291 103.283 13.5141
586 2 3.87817 103.27 13.5261
587 2 7.97848 103.075 13.5137
588 2 11.8027 103.319 13.5476
589 2 0.132948 107.094 13.3993
590 2 3.91859 107.314 13.2617
591 2 7.84738 107.321 13.2226
592 2 11.9536 107.174 13.3628
593 2 -0.0637117 111.177 13.4609
594 2 4.01827 111.039 13.4495
595 2 7.96825 111.113 13.2344
596 2 11.98 111.031 13.3656
597 2 -0.15124 115.063 13.2582
598 2 3.98885 114.97 13.3525
599 2 7.87891 114.915 13.1853
600 2 11.8692 115.141 13.4002
601 2 -0.0576955 119.012 13.3404
602 2 4.01482 118.942 13.2859
603 2 8.08568 118.959 13.1822
604 2 11.8572 118.869 13.4151
605 2 -0.0134475 122.784 13.0386
606 2 4.16985 123.001 13.1605
607 2 8.07523 122.879 13.2658
608 2 11.9366 122.808 13.0282
609 2 -0.111792 126.634 13.1523
610 2 3.88063 126.806 12.9841
611 2 7.90843 126.863 13.2149
612 2 12.0113 126.728 13.2097
613 2 15.7799 130.687 13.0904
614 2 3.77842 130.661 13.1311
615 2 7.70942 130.832 13.0644
616 2 11.9087 130.692 13.0516
617 2 15.8553 134.713 12.9394
618 2 3.89644 134.613 13.2453
619 2 7.83103 134.718 13.0256
620 2 11.7265 134.542 13.0319
621 2 -0.0957007 138.485 12.9735
622 2 3.72026 138.48 12.868
623 2 7.84485 138.558 13.1658
624 2 11.7218 138.476 13.0926
625 2 15.8473 142.363 12.9074
626 2 3.95235 142.22 12.7915
627 2 7.98778 142.412 13.0105
628 2 11.8151 142.468 12.9616
629 2 -0.117284 146.278 12.8402
630 2 4.04163 146.35 12.9873
631 2 7.84523 146.365 12.8259
632 2 11.8273 146.374 12.9479
633 2 -0.159381 150.334 12.8887
634 2 4.0491 150.188 12.8507
635 2 7.97295 150.358 12.7286
636 2 11.8308 150.089 12.8248
637 2 15.9529 154.093 12.8099
638 2 4.04989 154.049 12.7926
639 2 7.95325 154.163 12.8714
640 2 11.9661 154.019 12.725
641 2 0.0157108 158.148 16.7725
642 2 3.91961 -0.377714 16.8945
643 2 7.88344 158.045 16.5502
644 2 11.8725 158.124 16.7326
645 2 15.9462 3.78978 16.7357
646 2 4.08683 3.66471 16.681
647 2 7.99551 3.67657 16.8045
648 2 11.9245 3.67845 16.7905
649 2 -0.0299985 7.55027 16.7746
650 2 3.91182 7.6635 16.8127
651 2 8.00148 7.59989 16.5929
652 2 11.8604 7.58051 16.6207
653 2 -0.0366705 11.5512 16.7245
654 2 4.03634 11.5234 16.6845
655 2 7.96843 11.589 16.4604
656 2 11.7767 11.5641 16.718
657 2 -0.125598 15.4421 16.638
658 2 3.88659 15.3613 16.6473
659 2 7.82601 15.4332 16.7183
660 2 11.8949 15.2734 16.6315
661 2 15.9499 19.2526 16.4103
662 2 3.92697 19.5025 16.5521
663 2 7.88236 19.2802 16.4581
664 2 12.0179 19.242 16.3309
665 2 -0.095919 23.3029 16.3719
666 2 3.77326 23.164 16.44
667 2 7.78527 23.1046 16.3106
668 2 11.8096 23.213 16.4072
669 2 -0.181121 27.1989 16.4436
670 2 3.76149 27.1207 16.4404
671 2 7.80779 27.0538 16.4046
672 2 11.8082 27.0776 16.4286
673 2 0.0341389 31.0968 16.4584
674 2 3.8991 30.808 16.3379
675 2 7.80546 30.8865 16.2765
676 2 11.7245 30.8729 16.2667
677 2 -0.0916861 35.0087 16.3619
678 2 4.00363 34.9144 16.4141
679 2 7.88342 34.9215 16.2491
680 2 11.7262 34.8546 16.2061
681 2 -0.102967 39.0773 16.2111
682 2 3.84524 39.0203 16.2004
683 2 7.77383 38.8525 16.3175
684 2 11.9992 38.8671 16.2017
685 2 0.00415673 42.8932 16.5068
686 2 3.98839 42.6879 16.3959
687 2 7.88185 42.9695 16.2383
688 2 11.7957 42.9703 16.6385
689 2 15.8787 46.9542 16.1463
690 2 3.86226 46.7933 16.3975
691 2 8.02126 46.9314 16.4327
692 2 11.8459 47.0376 16.3456
693 2 -0.0258341 50.968 16.4119
694 2 3.927 50.9719 16.4173
695 2 7.93838 50.8643 16.4913
696 2 11.7986 51.0021 16.5174
697 2 0.189454 54.8535 16.595
698 2 3.94498 54.9889 16.5512
699 2 8.04807 54.9235 16.5775
700 2 11.986 54.9059 16.6396
701 2 0.0392203 59.0816 16.6614
702 2 4.09394 58.9329 16.6645
703 2 8.02139 58.9873 16.8529
704 2 11.7977 58.9476 16.7624
705 2 -0.0390345 62.929 16.6887
706 2 3.73824 62.9339 16.6234
707 2 7.76117 62.9636 16.6501
708 2 11.8624 62.9996 16.608
709 2 -0.149873 66.9375 16.9085
710 2 3.8804 67.0561 17.0099
711 2 7.58632 67.1269 16.7354
712 2 11.7196 67.2743 16.9121
713 2 -0.0780591 71.0816 16.8139
714 2 3.74185 71.0626 16.986
715 2 7.73793 71.0652 16.9156
716 2 11.4951 71.1418 17.0763
717 2 -0.0996255 75.2552 16.8961
718 2 3.91991 75.1254 16.9734
719 2 7.73689 75.0714 17.108
720 2 11.5898 75.2511 16.7258
721 2 -0.123924 79.35 17.3858
722 2 3.93105 79.1933 17.1763
723 2 7.94127 79.516 17.1988
724 2 11.7022 79.1269 17.1388
725 2 -0.11065 83.348 17.1729
726 2 3.80978 83.3256 17.201
727 2 7.89597 83.1977 17.1424
728 2 11.8798 83.236 17.1522
729 2 0.0684348 87.2534 17.2349
730 2 3.95451 87.1971 17.1921
731 2 7.82597 87.2672 17.1942
732 2 11.7361 87.3401 17.2483
733 2 -0.379073 91.2171 17.2178
734 2 3.69519 91.42 17.2201
735 2 7.81009 91.4474 17.3588
736 2 11.9269 91.1917 17.2176
737 2 0.0415138 95.3585 17.4373
738 2 4.14104 95.4839 17.4454
739 2 7.98561 95.3266 17.5013
740 2 12.018 95.3632 17.4139
741 2 0.125191 99.3309 17.5693
742 2 3.9742 99.2239 17.7125
743 2 7.98809 99.5716 17.4522
744 2 12.0703 99.3227 17.5455
745 2 0.179666 103.396 17.5151
746 2 3.95284 103.126 17.485
747 2 7.90792 103.368 17.3561
748 2 12.0645 103.524 17.4386
749 2 0.0309642 107.376 17.6073
750 2 4.08558 107.158 17.5502
751 2 7.72718 107.266 17.2762
752 2 11.7731 107.109 17.438
753 2 -0.160996 111.157 17.4971
754 2 4.03428 111.158 17.4276
755 2 8.06074 111.082 17.3829
756 2 11.7771 111.083 17.2731
757 2 0.179743 115.115 17.1881
758 2 4.10206 115.128 17.3524
759 2 8.01191 115.148 17.5011
760 2 11.9558 115.174 17.3959
761 2 0.10835 119.077 17.2157
762 2 4.09393 119.065 17.2333
763 2 8.00384 118.99 17.4117
764 2 11.8566 118.917 17.377
765 2 0.0700029 122.818 17.2331
766 2 4.05515 122.862 17.0828
767 2 7.97692 122.931 17.1242
768 2 11.9392 122.764 17.2962
769 2 15.7075 126.745 17.1392
770 2 3.95305 126.808 16.9609
771 2 7.94397 126.662 17.3481
772 2 11.7367 127.009 17.108
773 2 15.6311 130.669 17.086
774 2 3.79273 130.79 17.105
775 2 7.93018 130.752 16.9706
776 2 11.7484 130.858 17.1691
777 2 15.7878 134.526 17.1274
778 2 4.0588 134.605 16.9782
779 2 8.01668 134.636 17.0749
780 2 11.9255 134.714 17.1954
781 2 0.000122459 138.638 16.916
782 2 3.98505 138.516 16.9855
783 2 7.87459 138.629 17.2512
784 2 11.8932 138.689 17.0719
785 2 15.6352 142.419 16.8327
786 2 3.91802 142.491 16.9497
787 2 7.85287 142.362 17.0437
788 2 11.7626 142.416 17.1705
789 2 15.792 146.236 16.86
790 2 3.87018 146.136 16.7633
791 2 7.76023 146.539 16.8297
792 2 11.8141 146.323 17.0666
793 2 16.0326 150.227 16.852
794 2 3.9751 150.046 16.9352
795 2 7.74311 150.445 16.9586
796 2 11.7727 150.23 17.0193
797 2 15.7612 154.153 16.9126
798 2 3.73044 154.024 16.9299
799 2 7.85718 154.158 16.7696
800 2 11.806 154.211 16.858
801 2 15.7788 158.05 20.7929
802 2 4.08138 158.12 20.6852
803 2 8.00404 158.007 20.8433
804 2 11.9899 158.093 20.8154
805 2 0.171196 3.75125 20.7495
806 2 4.21295 3.70447 20.6683
807 2 7.96595 3.68674 20.7228
808 2 11.8472 3.85311 20.8762
809 2 15.6659 7.73994 20.7252
810 2 4.06335 7.6888 20.5532
811 2 7.96751 7.62799 20.6908
812 2 11.767 7.61355 20.7617
813 2 15.8688 11.639 20.7076
814 2 4.12102 11.7178 20.6346
815 2 8.04953 11.6035 20.7567
816 2 11.7719 11.553 20.7355
817 2 15.9242 15.7173 20.6253
818 2 4.03704 15.5238 20.6405
819 2 7.76342 15.594 20.5219
820 2 11.9337 15.3939 20.6251
821 2 -0.0383182 19.5109 20.4271
822 2 3.90147 19.4261 20.4535
823 2 7.78626 19.5592 20.4872
824 2 11.8621 19.418 20.5931
825 2 -0.220082 23.2527 20.3925
826 2 3.95635 23.2828 20.529
827 2 7.79833 23.2769 20.4903
828 2 11.8365 23.0103 20.2137
829 2 15.8382 27.1856 20.5805
830 2 3.9283 27.3106 20.4174
831 2 8.05346 27.1581 20.486
832 2 11.9032 27.1809 20.4384
833 2 15.6021 31.082 20.3388
834 2 3.85757 31.1987 20.2653
835 2 7.71082 31.1772 20.2178
836 2 11.6377 31.016 20.1304
837 2 15.5294 34.9306 20.3112
838 2 3.8129 35.0052 20.4307
839 2 7.92132 35.0123 20.3326
840 2 11.8819 35.0765 20.105
841 2 0.0392993 38.8737 20.375
842 2 4.15374 38.7938 20.1944
843 2 8.07948 38.8832 20.3449
844 2 12.0253 39.0321 20.0074
845 2 15.9117 43.0518 20.2503
846 2 4.09539 43.1398 20.0327
847 2 7.97309 42.9208 20.1693
848 2 11.9461 42.9798 20.385
849 2 15.8081 46.8784 20.2205
850 2 3.94715 47.2146 20.2988
851 2 7.95002 47.0039 20.4238
852 2 11.9261 46.9782 20.5588
853 2 0.0498627 50.8253 20.2427
854 2 3.84525 50.9269 20.3211
855 2 7.83233 51.0116 20.4063
856 2 11.8787 50.8561 20.4247
857 2 0.0209716 54.8382 20.5192
858 2 3.96599 54.9087 20.5176
859 2 7.79237 55.0877 20.6135
860 2 11.8216 54.9305 20.3306
861 2 15.7829 58.9178 20.5713
862 2 3.89389 58.9536 20.7606
863 2 7.93048 58.9863 20.5078
864 2 12.001 58.8036 20.6413
865 2 15.946 62.9176 20.6528
866 2 3.92836 62.8055 20.8463
867 2 7.83307 62.9736 20.6603
868 2 11.7485 62.8477 20.586
869 2 -0.265011 67.0509 20.7927
870 2 3.79276 66.8621 20.8411
871 2 7.62853 67.0981 20.7422
872 2 11.6826 66.836 20.6663
873 2 -0.144816 71.4914 20.7852
874 2 3.60201 71.0624 20.9416
875 2 7.59916 71.0745 20.9003
876 2 11.827 71.0254 20.7753
877 2 0.0414286 75.224 20.9925
878 2 3.74968 75.0699 20.8692
879 2 7.767 75.0343 20.8538
880 2 11.685 75.0344 20.9304
881 2 -0.16902 79.0379 21.0912
882 2 3.92307 79.0246 20.9636
883 2 7.76587 79.15 20.8788
884 2 11.8718 79.1757 21.1726
885 2 -0.152114 83.0552 21.1321
886 2 3.83337 83.0643 21.104
887 2 7.73262 83.2867 21.0797
888 2 11.6853 83.1858 20.9458
889 2 -0.0948423 87.2374 21.0941
890 2 3.98021 87.3146 21.0861
891 2 7.75464 87.2372 21.1985
892 2 11.76 87.137 21.2742
893 2 0.101128 91.2304 21.0846
894 2 4.01566 91.1738 21.1191
895 2 7.95036 91.3174 21.0877
896 2 11.8535 91.0536 21.174
897 2 -0.0060941 95.1497 21.2265
898 2 3.86157 95.3341 21.4389
899 2 7.86485 95.1655 21.3414
900 2 11.7888 95.3047 21.1532
901 2 0.147894 99.2037 21.4018
902 2 4.02057 99.2198 21.392
903 2 7.9107 99.4219 21.4905
904 2 11.8825 99.3359 21.4556
905 2 -0.038877 103.428 21.3139
906 2 3.90944 103.114 21.4937
907 2 8.03543 103.312 21.4397
908 2 11.7961 103.338 21.3771
909 2 0.131063 107.382 21.4966
910 2 3.99374 107.344 21.6065
911 2 7.86659 107.248 21.4287
912 2 11.8128 107.315 21.5466
913 2 -0.00486511 111.27 21.4114
914 2 4.04375 111.166 21.4943
915 2 8.11053 111.266 21.5145
916 2 12.0707 111.153 21.5099
917 2 15.911 115.202 21.4595
918 2 4.08269 115.131 21.3578
919 2 7.90958 115.059 21.3787
920 2 12.0188 115.183 21.3386
921 2 0.0221251 119.207 21.3733
922 2 4.01082 118.943 21.3162
923 2 8.07702 119.089 21.3966
924 2 11.9345 119.122 21.4658
925 2 15.8832 123.054 21.2881
926 2 3.85735 122.991 21.3204
927 2 7.96797 123.106 21.2529
928 2 11.696 123.213 21.2334
929 2 15.5926 126.982 21.0942
930 2 3.87428 126.983 21.2554
931 2 7.81468 126.868 21.1757
932 2 11.8996 126.823 21.2114
933 2 15.7367 130.861 21.031
934 2 3.99573 130.845 21.0541
935 2 7.95813 130.795 21.1538
936 2 11.6919 130.738 21.2331
937 2 0.0818757 134.654 21.0424
938 2 4.02328 134.454 20.9176
939 2 7.75497 134.59 21.0864
940 2 12.0082 134.819 21.2332
941 2 15.9243 138.724 21.1016
942 2 3.82317 138.579 20.9389
943 2 7.95734 138.468 20.92
944 2 11.8207 138.431 21.0809
945 2 15.712 142.589 21.021
946 2 3.90184 142.391 20.9607
947 2 7.79606 142.367 21.1804
948 2 11.7658 142.364 21.059
949 2 15.8869 146.515 21.1019
950 2 3.77399 146.396 20.8762
951 2 7.86452 146.233 21.0086
952 2 11.9616 146.235 20.9158
953 2 15.9645 150.28 20.9398
954 2 3.98069 150.226 20.8254
955 2 8.08303 150.215 20.943
956 2 12.0914 150.328 20.9141
957 2 15.858 154.197 20.9427
958 2 4.04939 154.247 20.9195
959 2 7.93715 154.052 20.817
960 2 11.8333 154.248 20.8291
961 2 -0.110067 158.091 24.9051
962 2 3.83065 158.302 24.8743
963 2 7.74378 158.238 24.5807
964 2 11.7028 158.197 24.8924
965 2 15.768 3.83587 24.5636
966 2 3.97832 3.86361 24.6559
967 2 7.97319 3.73377 24.7609
968 2 11.7825 3.76686 24.7932
969 2 15.8108 7.72909 24.7785
970 2 3.95773 7.71516 24.6858
971 2 8.05629 7.70638 24.7834
972 2 12.0566 7.59927 24.9011
973 2 15.6643 11.6958 24.6503
974 2 3.98235 11.5262 24.6364
975 2 7.95247 11.6279 24.7962
976 2 11.868 11.668 24.6602
977 2 0.0515056 15.6112 24.663
978 2 4.08655 15.5221 24.6376
979 2 8.01091 15.536 24.5837
980 2 11.9222 15.4702 24.6309
981 2 -0.109113 19.6005 24.5714
982 2 4.23389 19.4753 24.6047
983 2 8.05265 19.4371 24.5872
984 2 11.8497 19.3828 24.5365
985 2 0.23312 23.3063 24.356
986 2 3.99522 23.4706 24.5741
987 2 7.85792 23.3217 24.5094
988 2 11.8844 23.3346 24.5892
989 2 -0.088279 27.2409 24.3541
990 2 3.81889 27.1456 24.3629
991 2 7.83448 27.3222 24.2933