ITEM: TIMESTEP
21400
ITEM: NUMBER OF ATOMS
32000
ITEM: BOX BOUNDS xy xz yz pp pp pp
0.0000000000000000e+00 1.5832000000000001e+01 0.0000000000000000e+00
0.0000000000000000e+00 1.5831999999999999e+02 0.0000000000000000e+00
8.3012397503057400e-01 1.6014699402496558e+02 0.0000000000000000e+00
ITEM: ATOMS id type x y z
1 2 15.738 157.992 159.898
2 2 3.91658 157.651 159.922
3 2 7.90054 158.205 160.043
4 2 11.8244 157.947 159.966
5 2 -0.0739304 3.64226 160.088
6 2 3.81129 3.44765 160.084
7 2 7.77262 3.6879 159.899
8 2 11.7633 3.63079 159.763
9 2 15.6571 7.33788 159.92
10 2 3.73731 7.54497 159.853
11 2 7.95067 7.55486 159.983
12 2 11.7773 7.58671 159.831
13 2 15.7758 11.158 159.828
14 2 3.92876 11.2036 159.727
15 2 7.70112 11.4882 159.732
16 2 11.8188 11.4093 159.721
17 2 -0.0670491 15.1281 159.723
18 2 4.08238 15.18 159.759
19 2 7.79571 15.1424 159.634
20 2 11.8621 15.3494 159.689
21 2 15.7483 19.1446 159.658
22 2 3.826 19.1221 159.678
23 2 7.67703 19.1622 159.602
24 2 11.8407 18.9581 159.706
25 2 15.6322 23.0928 159.645
26 2 3.70898 23.0675 159.9
27 2 7.84179 23.1309 159.582
28 2 11.7409 23.0747 159.748
29 2 15.7986 27.0666 159.794
30 2 3.82402 27.146 159.936
31 2 7.70174 27.0874 159.579
32 2 11.8645 27.0952 159.837
33 2 15.6644 31.1127 159.757
34 2 3.81191 31.1287 0.321099
35 2 7.83323 31.1087 159.895
36 2 11.6968 31.1591 159.615
37 2 -0.00927086 34.9387 159.979
38 2 3.8803 35.0634 159.946
39 2 7.84059 35.0949 160.056
40 2 11.7002 35.2311 159.903
41 2 -0.234158 39.0247 160.098
42 2 3.80956 39.0797 0.689776
43 2 7.87044 39.0515 0.749469
44 2 11.8144 39.2079 0.676282
45 2 -0.170506 43.1262 160.234
46 2 3.90069 43.1539 160.156
47 2 7.84113 42.9562 0.722513
48 2 12.0536 43.1714 0.84724
49 2 -0.140582 47.1651 0.914189
50 2 3.75953 47.3869 0.891383
51 2 7.87463 47.2595 0.884649
52 2 11.7682 47.1349 0.738547
53 2 0.00650904 51.3161 1.00599
54 2 4.04075 51.1779 1.02692
55 2 7.75437 51.3911 0.785699
56 2 11.9785 51.3111 1.00553
57 2 15.7172 55.1868 0.901694
58 2 3.85035 55.2325 0.894029
59 2 8.05538 55.2136 1.04141
60 2 11.8905 55.2717 1.04718
61 2 0.111358 59.3659 1.06656
62 2 4.00824 59.3221 1.05369
63 2 8.16622 59.2844 1.18421
64 2 12.0995 59.5184 1.16329
65 2 -0.125514 63.3842 0.943344
66 2 3.9352 63.3771 1.14768
67 2 8.05671 63.4082 1.36873
68 2 11.9011 63.45 1.12736
69 2 15.8994 67.4142 1.22472
70 2 3.91326 67.4447 1.07748
71 2 8.00108 67.4795 1.26668
72 2 11.9119 67.5241 1.15312
73 2 0.177833 71.4105 1.2125
74 2 4.0515 71.5959 1.19267
75 2 7.91292 71.4837 1.29836
76 2 12.0245 71.4924 1.29805
77 2 -0.0457704 75.3712 1.45763
78 2 3.95463 75.6263 1.30275
79 2 7.93032 75.6248 1.27916
80 2 11.9148 75.5989 1.10689
81 2 0.153563 79.6475 1.52977
82 2 4.05969 79.8336 1.21929
83 2 8.06996 79.5429 1.25165
84 2 12.1233 79.6257 1.32982
85 2 0.0594457 83.7801 1.41499
86 2 3.87441 83.4844 1.52971
87 2 8.00578 83.5008 1.50447
88 2 12.0568 83.5559 1.46843
89 2 -0.10951 87.4358 1.25195
90 2 3.6887 87.4622 1.32631
91 2 7.95208 87.2911 1.53703
92 2 11.8385 87.6248 1.3035
93 2 0.0850244 91.3216 1.41931
94 2 4.07558 91.0788 1.33283
95 2 7.94325 91.1288 1.44141
96 2 11.9485 91.4168 1.34317
97 2 16.0289 95.3878 1.33324
98 2 4.05489 95.3181 1.40938
99 2 8.02238 95.1298 1.33343
100 2 11.9669 95.2943 1.33336
101 2 0.0290878 99.3952 1.20904
102 2 4.14431 99.3987 1.30706
103 2 8.02196 99.369 1.41981
104 2 11.9125 99.2357 1.38715
105 2 0.13031 103.214 1.37641
106 2 4.04018 103.163 1.14171
107 2 7.7945 103.263 1.24528
108 2 11.863 103.157 1.18963
109 2 0.0559805 107.139 1.30774
110 2 4.09089 107.283 1.17124
111 2 7.81046 107.329 1.23396
112 2 11.8558 106.999 1.28855
113 2 -0.0692844 110.943 1.09589
114 2 3.96286 110.969 1.06729
115 2 7.87596 110.952 1.11309
116 2 11.8021 110.869 1.19454
117 2 15.6544 114.792 0.99927
118 2 3.87343 114.957 1.18062
119 2 8.03215 114.843 1.37031
120 2 11.872 114.769 1.22006
121 2 0.0987154 118.689 1.21692
122 2 3.78194 118.916 1.09781
123 2 7.82907 118.768 1.21421
124 2 11.9712 118.689 1.22637
125 2 15.923 122.774 1.05369
126 2 3.93154 122.812 1.05445
127 2 7.8511 122.646 1.05
128 2 11.9082 122.761 1.17813
129 2 -0.11972 126.758 1.10993
130 2 3.97555 126.572 1.06824
131 2 7.92396 126.475 1.00838
132 2 11.8591 126.54 1.06183
133 2 15.8712 130.506 0.930451
134 2 3.96787 130.442 0.957604
135 2 7.88765 130.669 1.0557
136 2 11.859 130.638 0.986477
137 2 15.7008 134.557 0.892253
138 2 3.89045 134.398 0.897794
139 2 7.97714 134.404 160.191
140 2 11.7571 134.441 1.06144
141 2 0.0280896 138.453 0.807141
142 2 3.92474 138.326 160.454
143 2 7.94798 138.555 160.256
144 2 11.6802 138.435 0.865118
145 2 15.9024 142.26 160.118
146 2 4.06548 142.345 160.101
147 2 7.60101 142.383 159.951
148 2 11.9456 142.439 159.859
149 2 0.0292902 146.344 160.139
150 2 3.89008 146.289 160.065
151 2 7.86619 146.238 160.167
152 2 11.7504 146.232 160.234
153 2 15.8096 150.185 160.15
154 2 4.01422 150.033 160.269
155 2 7.92462 150.113 159.892
156 2 11.8289 150.156 0.701183
157 2 15.969 154.088 160.148
158 2 4.22486 153.98 159.894
159 2 7.87932 154.04 160.004
160 2 11.7624 153.969 160.099
161 2 15.9675 157.999 4.88757
162 2 4.02225 157.971 4.80257
163 2 8.03843 157.972 4.62412
164 2 11.9359 157.925 4.74622
165 2 -0.0883933 3.36766 4.64967
166 2 3.9763 3.44729 4.80704
167 2 7.88812 3.56338 4.7002
168 2 11.9014 3.45801 4.55547
169 2 -0.057118 7.46035 4.51493
170 2 3.94522 7.46721 4.73956
171 2 7.97296 7.50493 4.53198
172 2 11.888 7.45891 4.77959
173 2 -0.0777917 11.4635 4.5787
174 2 3.92 11.4141 4.48941
175 2 7.61992 11.299 4.47699
176 2 11.7459 11.3813 4.55008
177 2 15.7048 15.1453 4.31811
178 2 3.6605 15.4537 4.5024
179 2 7.90819 15.195 4.52524
180 2 11.7145 15.3548 4.32725
181 2 -0.217929 19.0639 4.23199
182 2 3.90318 19.2707 4.3405
183 2 7.87796 19.0963 4.34131
184 2 11.7523 19.1828 4.45581
185 2 0.0299423 22.9792 4.2753
186 2 3.9673 23.268 4.51482
187 2 7.94214 23.0702 4.21362
188 2 11.8397 22.9951 4.30956
189 2 15.8982 26.9738 4.32963
190 2 3.99492 27.106 4.46878
191 2 7.9935 27.0027 4.35525
192 2 11.8251 26.963 4.43
193 2 -0.0988396 31.2008 4.33085
194 2 3.89033 30.8973 4.4029
195 2 7.8493 31.0632 4.42423
196 2 11.6277 31.0857 4.48986
197 2 0.108129 35.0023 4.55004
198 2 3.9622 35.0124 4.65678
199 2 7.95649 34.9458 4.7392
200 2 11.7775 35.0361 4.50519
201 2 15.7484 39.0291 4.55529
202 2 3.81416 39.0708 4.5651
203 2 7.97686 38.9068 4.58904
204 2 11.8675 39.0682 4.72913
205 2 -0.0123231 43.2253 4.94717
206 2 3.94983 43.0309 4.78142
207 2 7.83275 43.0978 4.66234
208 2 11.6745 43.1598 4.68204
209 2 -0.281849 47.0637 4.76637
210 2 4.00514 47.1338 4.96496
211 2 7.8747 47.3055 4.7146
212 2 11.81 47.1343 4.67139
213 2 -0.0619601 51.1394 4.7036
214 2 3.9821 51.2332 4.81576
215 2 7.95935 51.1972 4.72301
216 2 11.9523 51.2396 4.87971
217 2 0.0697745 55.2325 5.03401
218 2 4.09317 55.3374 4.80368
219 2 7.97657 55.2301 5.01686
220 2 11.9593 55.3604 4.94464
221 2 15.9427 59.2747 5.05158
222 2 4.02691 59.261 4.97635
223 2 7.79336 59.2405 4.99729
224 2 11.8453 59.2118 5.17158
225 2 -0.0631619 63.3258 5.01265
226 2 4.00255 63.2186 5.09067
227 2 8.00465 63.2093 5.06675
228 2 11.8026 63.3187 4.98538
229 2 15.9646 67.2078 5.12737
230 2 3.90572 67.3955 5.07662
231 2 7.8063 67.4918 5.19256
232 2 11.8298 67.3835 5.08018
233 2 15.6845 71.2912 5.06313
234 2 4.03342 71.3743 5.15443
235 2 7.79689 71.3716 5.16411
236 2 11.8024 71.3425 5.22362
237 2 15.8736 75.3726 5.15649
238 2 4.04575 75.5015 5.39879
239 2 7.88956 75.4459 5.20716
240 2 11.8783 75.3146 5.23028
241 2 -0.0131981 79.3929 5.35326
242 2 4.10953 79.4072 5.48948
243 2 7.91041 79.378 5.17924
244 2 11.8258 79.2993 5.19665
245 2 15.7423 83.6394 5.43776
246 2 4.11949 83.5986 5.41862
247 2 8.02514 83.3424 5.22017
248 2 12.0026 83.5939 5.42708
249 2 -0.0940947 87.4844 5.29387
250 2 3.95214 87.4034 5.50199
251 2 7.90267 87.4426 5.63552
252 2 11.8346 87.3109 5.62542
253 2 0.12067 91.3952 5.41198
254 2 4.01962 91.3705 5.48939
255 2 8.0729 91.2063 5.35084
256 2 11.6478 91.418 5.49459
257 2 15.7292 95.27 5.17237
258 2 3.89453 95.455 5.30856
259 2 7.84336 95.2436 5.28873
260 2 11.9153 95.4195 5.302
261 2 -0.0892945 99.3507 5.32884
262 2 3.84214 99.0629 5.34697
263 2 8.01571 99.1872 5.19942
264 2 12.0297 99.3192 5.18342
265 2 -0.00351733 103.117 5.30325
266 2 3.91641 103.009 5.11176
267 2 7.87474 103.292 5.25343
268 2 11.8868 103.281 5.41416
269 2 15.7302 107.028 5.32686
270 2 3.86359 107.128 5.35132
271 2 7.80397 106.996 5.30571
272 2 11.8444 107.063 5.16783
273 2 15.7707 111.174 5.18943
274 2 3.98372 111.026 5.23785
275 2 7.91743 111.128 5.19348
276 2 11.9906 111.082 5.39994
277 2 0.0353299 114.746 5.13573
278 2 3.94071 114.818 5.17206
279 2 7.95891 114.882 5.31231
280 2 11.9807 115.099 5.26558
281 2 -0.0951477 118.693 5.11272
282 2 3.81691 118.734 5.1752
283 2 7.93285 118.65 5.1737
284 2 11.7748 118.868 5.25469
285 2 15.6076 122.842 5.18467
286 2 3.75345 122.823 5.15716
287 2 7.75205 122.566 5.13184
288 2 11.7133 122.784 5.07048
289 2 -0.0921033 126.611 5.01509
290 2 3.92673 126.77 4.97819
291 2 7.85607 126.899 5.1615
292 2 11.7098 126.7 5.10441
293 2 -0.0258696 130.532 5.1623
294 2 3.89498 130.738 5.00695
295 2 7.93228 130.611 5.04887
296 2 11.9008 130.634 4.95967
297 2 15.7222 134.569 4.94065
298 2 3.90527 134.554 4.9779
299 2 7.74538 134.56 5.08512
300 2 11.8796 134.514 5.02093
301 2 -0.0953847 138.529 4.84895
302 2 3.95183 138.41 4.90366
303 2 7.6908 138.586 4.94689
304 2 11.8677 138.32 4.9138
305 2 -0.000508846 142.393 4.91721
306 2 3.93237 142.499 4.89625
307 2 7.95189 142.41 4.73585
308 2 11.9844 142.487 4.9204
309 2 15.6678 146.296 4.68485
310 2 3.91232 146.219 4.90359
311 2 8.04167 146.291 4.67694
312 2 11.7375 146.162 4.89607
313 2 15.811 150.236 4.97674
314 2 3.8483 150.038 4.85694
315 2 7.93259 150.133 4.75147
316 2 11.7258 150.185 4.78279
317 2 15.8158 154.008 4.72608
318 2 3.97232 154.072 4.70324
319 2 7.9643 154.12 4.73032
320 2 11.8195 153.978 4.78376
321 2 15.8017 158.011 8.83969
322 2 3.99221 158.085 8.83215
323 2 7.81963 157.96 8.74454
324 2 12.0058 158.113 8.64498
325 2 15.7069 3.66512 8.81217
326 2 3.8733 3.55574 8.68899
327 2 7.96759 3.73575 8.66507
328 2 11.8567 3.7316 8.81527
329 2 15.9354 7.43509 8.39326
330 2 3.97092 7.40205 8.75074
331 2 7.94234 7.68363 8.59211
332 2 11.8504 7.75813 8.67675
333 2 -0.135472 11.6347 8.49134
334 2 3.8514 11.6234 8.64197
335 2 7.78297 11.3728 8.52189
336 2 11.9032 11.4226 8.60526
337 2 15.7475 15.44 8.30537
338 2 3.93996 15.3388 8.55112
339 2 7.9216 15.3727 8.56442
340 2 11.7305 15.2869 8.50064
341 2 0.0804147 19.2713 8.43947
342 2 4.0331 19.2241 8.47192
343 2 8.07392 19.1394 8.42087
344 2 12.0021 19.3225 8.44754
345 2 0.0529701 23.1258 8.24327
346 2 4.04601 23.0879 8.42183
347 2 7.80747 23.033 8.40588
348 2 11.686 23.1088 8.29529
349 2 -0.205466 26.914 8.23767
350 2 3.90681 26.8614 8.38638
351 2 7.90565 26.9589 8.53798
352 2 11.8208 27.0342 8.05836
353 2 -0.0422335 30.996 8.34621
354 2 4.03358 30.887 8.41958
355 2 7.92996 30.8776 8.45003
356 2 11.986 30.9655 8.35071
357 2 15.6301 34.9855 8.36961
358 2 3.99434 35.1578 8.39425
359 2 7.99026 34.9022 8.45779
360 2 11.7404 34.9515 8.52581
361 2 -0.137162 39.1917 8.47807
362 2 3.96292 39.1018 8.55809
363 2 7.80045 38.9845 8.61494
364 2 11.8824 39.1176 8.73265
365 2 0.266437 43.1119 8.63661
366 2 3.88857 42.9102 8.67163
367 2 8.15194 42.9261 8.48334
368 2 11.9263 42.8635 8.60494
369 2 0.0376044 47.0463 8.71546
370 2 4.1104 47.0953 8.56887
371 2 8.07584 46.9966 8.59382
372 2 12.0377 47.0993 8.69643
373 2 15.8969 51.3345 8.65425
374 2 3.99126 50.9309 8.82699
375 2 7.99774 51.1796 8.70502
376 2 11.8807 51.2112 8.74036
377 2 15.9572 55.0881 8.86622
378 2 4.01103 55.2364 8.89225
379 2 7.89028 55.1283 8.89347
380 2 11.7321 55.2099 8.83281
381 2 0.00981919 59.2108 8.7489
382 2 3.62227 59.2814 8.9434
383 2 7.80834 59.1995 8.86766
384 2 11.8302 59.1512 9.07498
385 2 -0.143575 63.3555 8.81802
386 2 3.84921 63.268 8.81449
387 2 7.81882 63.215 8.91234
388 2 11.8201 63.2604 8.97278
389 2 15.8785 67.1866 9.01977
390 2 3.86797 67.2637 8.97457
391 2 7.86125 67.112 9.28928
392 2 11.6921 67.4684 8.94261
393 2 15.8313 71.2811 9.18386
394 2 3.83936 71.2703 8.94238
395 2 7.95999 71.2356 9.2789
396 2 12.0533 71.1799 9.19227
397 2 15.7589 75.3281 9.28925
398 2 3.95381 75.1556 9.11452
399 2 7.98538 75.2555 9.22594
400 2 11.9575 75.1793 9.07999
401 2 15.8206 79.3695 9.38491
402 2 4.03302 79.392 9.24853
403 2 8.05505 79.2731 9.22905
404 2 11.7551 79.274 9.15102
405 2 0.105282 83.4986 9.09368
406 2 3.88131 83.4954 9.42959
407 2 7.95883 83.3034 9.17996
408 2 11.9313 83.31 9.1998
409 2 -0.142479 87.4652 9.36825
410 2 4.0844 87.5184 9.39645
411 2 7.86923 87.2245 9.38491
412 2 11.6675 87.4765 9.37472
413 2 0.0258696 91.2981 9.41754
414 2 3.832 91.6597 9.35726
415 2 7.83228 91.6273 9.2659
416 2 11.9016 91.5399 9.28784
417 2 15.7912 95.315 9.42518
418 2 4.06922 95.3854 9.3866
419 2 7.89271 95.3469 9.27247
420 2 11.7575 95.267 9.3421
421 2 15.8587 99.1604 9.38046
422 2 3.97217 99.2079 9.29951
423 2 7.89451 99.3513 9.33263
424 2 11.7365 99.3208 9.36462
425 2 0.0545866 103.254 9.24573
426 2 3.87963 103.155 9.18742
427 2 7.62857 103.062 9.2815
428 2 11.8076 103.247 9.30971
429 2 -0.0864073 107.135 9.35864
430 2 3.79447 107.19 9.3686
431 2 7.83821 106.964 9.3737
432 2 11.68 107.15 9.24794
433 2 15.7537 110.969 9.22448
434 2 3.89175 110.951 9.34613
435 2 7.99319 110.962 9.28684
436 2 11.6895 111.048 9.32584
437 2 -0.208955 114.97 9.17694
438 2 3.80589 115.047 9.19674
439 2 7.92371 114.91 9.19149
440 2 11.7511 115.01 9.405
441 2 -0.170607 118.785 9.19245
442 2 3.82343 118.795 9.04777
443 2 7.79756 118.772 9.37
444 2 11.8105 118.852 9.20592
445 2 15.9015 122.737 8.97758
446 2 3.88136 122.655 9.05519
447 2 7.76844 122.807 9.17434
448 2 11.7666 122.928 9.0781
449 2 15.9163 126.717 9.10084
450 2 4.0645 126.658 9.1417
451 2 7.80848 126.545 9.10643
452 2 11.7944 126.685 9.15919
453 2 0.0911214 130.487 8.92252
454 2 3.76621 130.509 9.1081
455 2 7.97563 130.764 9.05871
456 2 11.931 130.561 8.8865
457 2 0.0045607 134.666 8.88834
458 2 3.90117 134.478 9.13542
459 2 8.0568 134.611 9.0493
460 2 11.9171 134.718 8.91178
461 2 -0.301933 138.585 8.90884
462 2 3.8589 138.368 8.7403
463 2 7.88362 138.47 8.9021
464 2 11.817 138.556 8.96957
465 2 -0.115333 142.256 8.89297
466 2 3.95031 142.622 8.82451
467 2 7.94426 142.352 8.97748
468 2 11.6284 142.361 8.81113
469 2 15.648 146.39 9.00309
470 2 3.8939 146.051 9.00534
471 2 7.92488 146.459 8.88325
472 2 11.8666 146.398 8.8916
473 2 15.6979 150.209 8.94219
474 2 3.89481 150.264 8.91939
475 2 7.95171 150.264 8.98793
476 2 11.8115 150.352 8.86447
477 2 15.7138 154.257 8.71298
478 2 4.05038 154.253 8.79283
479 2 7.94494 154.118 8.84256
480 2 11.7284 154.107 8.92783
481 2 15.7399 158.167 12.6819
482 2 3.93621 158.123 12.9855
483 2 7.88361 158.172 12.8218
484 2 11.7017 158.101 12.7658
485 2 15.6352 4.00905 12.6083
486 2 3.74567 3.75492 12.7211
487 2 7.86936 3.57617 12.6256
488 2 11.7648 3.70304 12.761
489 2 15.9584 7.87572 12.6469
490 2 4.08067 7.55436 12.7999
491 2 7.64951 7.54863 12.8418
492 2 11.8525 7.56603 12.8231
493 2 0.0241715 11.5722 12.5172
494 2 3.96083 11.4734 12.481
495 2 7.88569 11.4197 12.4937
496 2 11.9551 11.4898 12.5741
497 2 0.0217166 15.2748 12.3985
498 2 4.03027 15.4954 12.6335
499 2 7.88166 15.4913 12.655
500 2 12.1008 15.4044 12.452
501 2 0.227501 19.2945 12.5333
502 2 4.09973 19.3719 12.533
503 2 8.2521 19.4489 12.3245
504 2 12.0845 19.398 12.3802
505 2 -0.0284334 23.1441 12.5019
506 2 4.0438 23.3359 12.4435
507 2 7.98524 23.1869 12.537
508 2 11.8725 23.2339 12.5068
509 2 0.00353116 27.0651 12.3467
510 2 3.98661 27.0254 12.3407
511 2 7.8527 27.0537 12.3993
512 2 11.9554 27.1243 12.2546
513 2 -0.0457281 30.9664 12.2777
514 2 4.03024 30.8897 12.403
515 2 7.93007 30.9144 12.3323
516 2 11.8616 30.9335 12.3365
517 2 0.0903015 34.9842 12.1412
518 2 4.05095 34.9827 12.2548
519 2 8.06496 34.905 12.5545
520 2 12.1608 34.8926 12.3281
521 2 -0.0303589 38.998 12.4696
522 2 3.92774 38.9479 12.2579
523 2 8.04329 38.895 12.4975
524 2 11.9067 39.0101 12.4343
525 2 0.0275288 43.1614 12.7229
526 2 4.00452 43.0283 12.4828
527 2 8.02746 43.0998 12.7809
528 2 12.0753 43.0341 12.3612
529 2 0.119652 47.0349 12.5756
530 2 4.15502 47.1533 12.5264
531 2 7.85807 47.0578 12.4936
532 2 11.981 47.0182 12.6151
533 2 -0.213193 51.2165 12.4965
534 2 4.14832 50.9433 12.674
535 2 7.89349 51.2042 12.6805
536 2 11.8983 50.9828 12.5929
537 2 15.8591 55.1039 12.7744
538 2 4.0866 55.0569 12.6926
539 2 7.90382 55.2507 12.8232
540 2 11.9814 55.2043 12.6633
541 2 15.8314 59.1007 12.891
542 2 3.97138 59.059 12.7823
543 2 8.00624 59.1535 12.8855
544 2 12.017 59.2115 13.1211
545 2 15.9147 63.2017 12.6872
546 2 4.10744 63.2285 12.9392
547 2 7.88489 63.0196 12.7038
548 2 11.9244 63.2525 12.7892
549 2 0.1709 67.2196 13.0151
550 2 3.85889 66.9508 12.8829
551 2 8.12478 67.203 12.9571
552 2 11.9438 67.0463 13.0633
553 2 0.24146 71.3017 12.9505
554 2 4.07961 71.0865 12.8953
555 2 7.87441 71.3208 13.0546
556 2 11.8735 71.1479 13.02
557 2 0.0501827 75.3316 13.1191
558 2 3.93992 75.0736 13.0898
559 2 7.80506 75.2203 13.1477
560 2 11.7178 75.3618 13.0462
561 2 0.095097 79.2729 13.1024
562 2 3.99646 79.2558 13.2559
563 2 7.93769 79.2127 13.1496
564 2 12.0339 79.2707 13.1799
565 2 0.0153697 83.2907 13.1672
566 2 4.05543 83.4498 13.2188
567 2 7.98882 83.2227 13.074
568 2 11.9733 83.2391 13.2475
569 2 -0.0636803 87.3402 13.2911
570 2 3.91487 87.43 13.2511
571 2 8.21404 87.3506 13.0103
572 2 11.8873 87.372 13.2563
573 2 0.0660079 91.3821 13.4397
574 2 4.06396 91.4053 13.5583
575 2 7.86715 91.3243 13.2905
576 2 11.8186 91.5175 13.4547
577 2 -0.0355599 95.3737 13.4424
578 2 3.9566 95.447 13.4654
579 2 7.96866 95.3279 13.3839
580 2 12.0428 95.3403 13.3409
581 2 -0.132726 99.2854 13.4458
582 2 3.98804 99.342 13.3466
583 2 7.95106 99.2608 13.5013
584 2 11.7512 99.3846 13.1287
585 2 -0.204659 103.05 13.2502
586 2 3.78953 103.152 13.4325
587 2 7.68511 103.255 13.4178
588 2 11.6924 103.159 13.2875
589 2 -0.0556407 107.033 13.3632
590 2 3.80355 107.103 13.1903
591 2 7.81408 106.991 13.368
592 2 11.7607 106.983 13.3563
593 2 -0.160608 111.041 13.1551
594 2 3.86103 110.975 13.267
595 2 7.81169 111.144 13.2897
596 2 11.6754 110.928 13.2452
597 2 -0.113655 114.918 13.1844
598 2 3.78046 115.004 13.1674
599 2 7.66817 115.07 13.3181
600 2 11.8324 114.951 13.3526
601 2 -0.0322721 118.764 13.0982
602 2 3.91508 118.943 13.2757
603 2 7.68047 118.777 13.185
604 2 11.8095 119.089 13.279
605 2 0.211825 122.708 13.0952
606 2 3.97689 122.784 13.2181
607 2 7.82037 122.681 13.1565
608 2 11.8807 122.77 13.021
609 2 -0.0814348 126.609 13.0218
610 2 3.88933 126.699 13.0554
611 2 7.91925 126.895 13.0478
612 2 11.8397 126.493 12.8777
613 2 15.4322 130.591 13.1038
614 2 3.95674 130.615 13.1188
615 2 7.75753 130.826 13.035
616 2 11.854 130.74 13.0275
617 2 15.679 134.434 12.9604
618 2 3.56913 134.547 12.878
619 2 7.77938 134.497 12.9402
620 2 11.7623 134.77 12.8748
621 2 0.0904362 138.61 12.9313
622 2 4.02899 138.528 12.9194
623 2 7.94242 138.494 13.0274
624 2 11.7752 138.769 12.9273
625 2 15.8458 142.402 12.8786
626 2 3.83752 142.339 12.794
627 2 7.85965 142.604 12.9043
628 2 11.6885 142.46 12.922
629 2 -0.19756 146.107 12.9505
630 2 4.04761 146.253 12.8881
631 2 7.83214 146.389 12.956
632 2 11.8916 146.214 12.8965
633 2 0.0416656 150.057 12.6894
634 2 3.83103 150.388 12.8928
635 2 7.74751 150.153 12.8715
636 2 11.7535 150.425 12.9554
637 2 15.5623 154.339 12.7363
638 2 3.77629 154.178 12.9529
639 2 7.69621 154.26 12.818
640 2 11.5552 154.353 12.9618
641 2 -0.105919 158.149 16.7503
642 2 3.87265 -0.126777 16.806
643 2 7.75768 158.018 16.9033
644 2 11.7595 158.155 16.7634
645 2 15.7467 3.80058 16.7029
646 2 3.82746 3.61957 16.7243
647 2 7.79666 3.73015 16.7404
648 2 11.9656 3.71781 16.8544
649 2 0.0271583 7.41661 16.5957
650 2 3.93576 7.71467 16.8669
651 2 7.98952 7.45938 16.7456
652 2 11.8151 7.5056 16.7048
653 2 0.00557579 11.5523 16.7522
654 2 3.98862 11.5933 16.7608
655 2 7.96986 11.3628 16.6554
656 2 11.9467 11.4694 16.5597
657 2 0.318723 15.4352 16.6151
658 2 4.22538 15.4849 16.3712
659 2 8.19755 15.4153 16.434
660 2 12.2927 15.4921 16.5039
661 2 15.9464 19.4524 16.5816
662 2 4.05774 19.4531 16.6095
663 2 7.93951 19.3225 16.498
664 2 11.9062 19.3292 16.6625
665 2 -0.097872 23.2687 16.4765
666 2 4.11866 23.2776 16.6104
667 2 7.99305 23.3372 16.4365
668 2 11.7806 23.0384 16.3668
669 2 0.02916 27.1523 16.4689
670 2 4.16974 27.2066 16.5025
671 2 8.06591 27.1044 16.6715
672 2 11.9319 27.3721 16.393
673 2 0.0584472 30.9428 16.2241
674 2 3.87433 31.1505 16.3471
675 2 7.88306 30.9689 16.1755
676 2 11.8604 31.0093 16.2927
677 2 0.0842193 34.9414 16.0095
678 2 4.07854 35.1781 16.2842
679 2 7.97214 34.8399 16.2994
680 2 11.8936 34.7413 16.3089
681 2 0.0798411 38.9233 16.3357
682 2 4.19 39.003 16.4488
683 2 8.11862 38.9006 16.3287
684 2 12.049 39.0767 16.4069
685 2 0.0963771 43.0379 16.3137
686 2 3.94681 42.847 16.5638
687 2 8.30187 43.0183 16.5393
688 2 11.9162 43.0385 16.3994
689 2 15.7719 46.9355 16.6419
690 2 4.00714 46.9616 16.5285
691 2 7.97051 46.9342 16.6283
692 2 11.7696 47.0706 16.5323
693 2 0.0152376 51.03 16.4638
694 2 3.82597 50.942 16.5372
695 2 7.95382 51.0351 16.7587
696 2 11.7098 51.0691 16.4888
697 2 -0.0649716 54.9314 16.8046
698 2 3.98361 54.9195 16.6415
699 2 7.95768 54.9332 16.5832
700 2 11.8827 54.986 16.5854
701 2 0.0351127 59.1416 16.785
702 2 3.91149 59.0727 16.7068
703 2 8.00616 59.2669 16.5719
704 2 11.9961 59.0017 16.6741
705 2 -0.0667789 63.0147 16.7656
706 2 4.07414 63.0794 16.6216
707 2 8.14116 62.9465 16.924
708 2 11.9274 63.118 16.8644
709 2 -0.120254 67.0889 16.9001
710 2 3.87597 66.9388 16.9617
711 2 7.9543 66.9824 16.8556
712 2 11.6715 66.8553 16.6143
713 2 0.0616918 70.8699 16.9707
714 2 4.10934 71.0336 16.9425
715 2 7.87337 70.929 16.7977
716 2 11.9319 71.215 16.79
717 2 0.0103284 75.0251 16.9523
718 2 3.89171 75.2293 17.1758
719 2 7.78307 75.2683 16.9133
720 2 12.0193 75.1171 17.2309
721 2 0.21892 79.2607 16.9531
722 2 3.81491 79.3 17.164
723 2 7.87006 79.2902 16.9409
724 2 11.6814 79.2778 16.8854
725 2 -0.0363802 83.2262 17.2523
726 2 4.04401 83.1554 16.9529
727 2 8.01518 83.2286 16.9662
728 2 11.7571 83.2097 17.2686
729 2 -0.164338 87.356 17.0538
730 2 3.82967 87.2624 17.3088
731 2 7.93917 87.1561 17.1497
732 2 12.0222 87.3619 17.1552
733 2 0.276259 91.2064 17.092
734 2 4.25171 91.1533 17.3237
735 2 8.085 91.2501 17.3322
736 2 11.969 91.4364 17.3085
737 2 0.0117088 95.5415 17.5095
738 2 3.86821 95.2062 17.2646
739 2 8.05014 95.3164 17.3711
740 2 11.9437 95.3389 17.3365
741 2 -0.114614 99.4274 17.379
742 2 3.87327 99.3474 17.5075
743 2 7.94271 99.3012 17.4078
744 2 11.7707 99.4425 17.4134
745 2 -0.187005 103.387 17.1364
746 2 3.88946 103.344 17.4057
747 2 7.93035 103.177 17.5553
748 2 12.0255 103.261 17.4193
749 2 -0.165201 107.22 17.4113
750 2 3.98567 107.323 17.0993
751 2 7.81213 107.061 17.3749
752 2 12.0623 107.135 17.4877
753 2 0.0392865 111.088 17.2202
754 2 3.90676 111.041 17.3854
755 2 7.73862 111.235 17.2581
756 2 11.8148 111.084 17.2697
757 2 0.033395 114.94 17.357
758 2 3.85354 114.868 17.2194
759 2 7.69878 115.036 17.2058
760 2 11.7151 114.897 17.4618
761 2 0.0528536 118.825 17.1824
762 2 3.8153 119.008 17.3125
763 2 7.83041 118.734 17.1337
764 2 11.7879 118.995 17.2999
765 2 -0.0829686 122.88 17.1435
766 2 3.97512 122.943 17.3397
767 2 7.76267 122.813 16.9719
768 2 11.8172 122.791 17.228
769 2 15.6777 126.586 16.8425
770 2 3.7975 126.861 17.0657
771 2 7.81701 126.803 17.1059
772 2 11.605 126.611 17.2015
773 2 15.6551 130.808 17.0612
774 2 3.87913 130.644 17.0661
775 2 7.93853 130.712 16.9435
776 2 11.844 130.611 17.1271
777 2 15.661 134.845 17.0109
778 2 3.90604 134.596 17.0635
779 2 7.7987 134.585 17.1136
780 2 11.7906 134.841 17.0427
781 2 0.0475843 138.533 16.8563
782 2 3.82987 138.466 17.0154
783 2 7.80535 138.495 16.9515
784 2 11.8646 138.512 16.9165
785 2 15.8771 142.501 17.1192
786 2 3.86015 142.556 17.037
787 2 7.88306 142.385 16.9584
788 2 11.9458 142.474 17.0611
789 2 15.6475 146.394 16.9683
790 2 4.04853 146.233 17.0241
791 2 7.97877 146.271 16.9972
792 2 11.8193 146.408 16.9423
793 2 15.6355 150.204 16.8462
794 2 3.88255 150.329 16.9383
795 2 7.84383 150.027 16.7093
796 2 11.6933 150.363 17.0085
797 2 15.6151 154.298 16.9418
798 2 3.76546 154.326 16.9316
799 2 7.72251 154.293 16.9442
800 2 11.7456 154.131 17.0099
801 2 15.9399 158.322 20.9537
802 2 3.84272 158.229 20.9987
803 2 7.73781 158.187 20.8102
804 2 11.8408 158.025 20.8509
805 2 0.0776988 3.75532 20.8755
806 2 3.76462 3.82848 20.81
807 2 7.90662 3.80586 20.9635
808 2 11.9258 3.67341 20.8776
809 2 15.9179 7.59774 20.7484
810 2 4.0345 7.64586 20.6675
811 2 7.93899 7.67863 20.8919
812 2 11.8743 7.75479 20.6236
813 2 15.8163 11.5483 20.8466
814 2 3.76028 11.6247 20.556
815 2 7.97777 11.5145 20.7581
816 2 12.0199 11.5264 20.6834
817 2 15.9898 15.3842 20.6602
818 2 4.05047 15.6521 20.6719
819 2 8.16794 15.4188 20.5135
820 2 11.9311 15.7326 20.7516
821 2 0.0921622 19.3105 20.7405
822 2 3.87304 19.4059 20.7505
823 2 7.93417 19.2737 20.6356
824 2 11.9153 19.3426 20.6749
825 2 0.155779 23.4458 20.3904
826 2 4.04508 23.4043 20.6193
827 2 7.92202 23.2449 20.4133
828 2 11.987 23.1595 20.6349
829 2 15.7741 27.3704 20.4218
830 2 3.74394 27.2072 20.5077
831 2 7.78282 27.2315 20.5877
832 2 11.9855 27.1226 20.4417
833 2 15.7278 31.0209 20.3712
834 2 4.04149 31.0328 20.4796
835 2 8.02384 31.0725 20.54
836 2 11.8359 30.9727 20.5374
837 2 15.935 34.9226 20.3006
838 2 3.99129 34.8325 20.3685
839 2 7.79831 34.8745 20.3656
840 2 11.7359 34.9473 20.3421
841 2 0.0906078 38.9189 20.2256
842 2 4.06758 38.7813 20.2811
843 2 8.1188 38.8762 20.3134
844 2 11.8668 38.8906 20.3047
845 2 15.9544 42.8393 20.3095
846 2 3.96577 42.7758 20.3738
847 2 7.88931 42.6533 20.5554
848 2 11.9304 42.8373 20.3628
849 2 15.9133 46.8277 20.5048
850 2 4.15565 46.7176 20.4467
851 2 7.87185 46.7237 20.6107
852 2 11.9466 46.9678 20.4808
853 2 0.0771986 50.8801 20.385
854 2 4.0535 50.7595 20.3086
855 2 7.80433 50.8181 20.5117
856 2 12.0245 50.8325 20.6267
857 2 0.176081 55.0204 20.5965
858 2 4.07078 55.0306 20.487
859 2 7.998 54.9598 20.3361
860 2 12.0371 54.9038 20.6294
861 2 15.7718 58.9063 20.5837
862 2 4.04625 58.9221 20.4106
863 2 7.92842 59.0368 20.5893
864 2 11.8609 58.8364 20.6552
865 2 15.9145 62.949 20.5689
866 2 3.90675 62.9792 20.7175
867 2 7.991 62.9653 20.6425
868 2 12.0332 62.8181 20.6398
869 2 0.111197 66.9893 20.7918
870 2 4.07502 66.9009 20.8461
871 2 8.00586 66.9395 20.8327
872 2 11.8691 66.882 20.5926
873 2 -0.0201893 71.0434 20.9003
874 2 4.03358 71.1026 20.9478
875 2 7.96298 71.0314 20.8272
876 2 11.8464 70.8687 20.6417
877 2 0.0224701 75.1717 20.7549
878 2 4.1463 74.9985 20.9839
879 2 8.20624 75.0772 20.8053
880 2 11.7323 75.0282 20.8572
881 2 0.0642585 79.1653 20.7746
882 2 3.98445 79.1011 21.1676
883 2 7.91301 79.0828 20.8499
884 2 11.9583 79.2047 20.863
885 2 0.0738729 83.1626 21.2317
886 2 4.14388 83.0467 20.9305
887 2 7.94684 83.0048 21.034
888 2 12.1038 83.0905 21.0008
889 2 0.0946374 87.0862 21.0042
890 2 4.00416 87.2737 20.9866
891 2 7.86257 87.1287 21.14
892 2 11.9133 87.2173 20.9373
893 2 0.195025 91.2859 21.1335
894 2 3.96177 91.2532 21.3408
895 2 8.0004 91.2075 21.1673
896 2 11.9726 91.1318 21.1879
897 2 0.147095 95.3103 21.2915
898 2 4.09549 95.166 21.2731
899 2 8.03249 95.4606 21.1781
900 2 12.0757 95.1786 21.2546
901 2 -0.164092 99.3573 21.3389
902 2 3.94366 99.1562 21.3691
903 2 7.77733 99.1071 21.3158
904 2 11.9375 99.4141 21.3565
905 2 0.0104772 103.226 21.3515
906 2 3.87102 103.23 21.2537
907 2 7.80641 103.186 21.5234
908 2 11.6465 103.208 21.4412
909 2 -0.131352 107.275 21.3773
910 2 3.85547 106.953 21.2248
911 2 7.73425 107.053 21.4486
912 2 11.7277 107.201 21.4132
913 2 -0.0308625 111.067 21.2897
914 2 3.91085 110.955 21.4108
915 2 7.71264 110.847 21.332
916 2 11.8143 111.088 21.3565
917 2 15.7958 115.149 21.1471
918 2 3.99387 115.194 21.4238
919 2 7.96495 115.145 21.4734
920 2 11.9324 114.893 21.3217
921 2 -0.225138 119.038 21.1496
922 2 3.84037 118.893 21.0803
923 2 7.65573 118.965 21.3393
924 2 11.7955 119.247 21.0926
925 2 15.7834 122.911 21.2812
926 2 3.89558 122.886 21.2279
927 2 7.84451 123.001 21.2217
928 2 11.5968 122.935 21.255
929 2 15.7999 126.634 21.0787
930 2 3.85016 126.721 21.2497
931 2 7.8285 126.782 21.2541
932 2 11.9011 126.885 21.1291
933 2 15.9741 130.634 21.175
934 2 3.77672 130.488 21.1405
935 2 8.01434 130.63 21.0011
936 2 11.9023 130.713 21.2197
937 2 0.137225 134.591 21.1559
938 2 4.14947 134.667 21.1978
939 2 7.91878 134.658 21.106
940 2 11.9295 134.577 21.1117
941 2 15.6797 138.504 21.131
942 2 3.85814 138.517 21.1696
943 2 7.89253 138.511 20.9162
944 2 11.9152 138.755 20.8549
945 2 15.747 142.383 21.0045
946 2 3.83161 142.206 21.009
947 2 7.60271 142.386 20.9804
948 2 11.779 142.564 20.9998
949 2 15.7051 146.384 21.176
950 2 4.04296 146.443 21.0344
951 2 7.79789 146.403 20.9345
952 2 11.6998 146.417 21.0488
953 2 15.7827 150.253 20.8448
954 2 3.96156 150.501 20.8236
955 2 7.79313 150.332 20.9607
956 2 11.8483 150.13 20.9706
957 2 15.7784 154.459 20.9219
958 2 3.74972 154.254 21.0102
959 2 7.91039 154.383 20.7723
960 2 11.9106 154.263 20.8984
961 2 0.0541841 158.292 24.8868
962 2 4.1646 158.177 24.8792
963 2 7.91624 158.105 24.885
964 2 12.0459 158.206 25.0107
965 2 15.7155 3.83964 24.9004
966 2 3.9425 3.91829 24.9592
967 2 7.97338 3.82532 24.8393
968 2 11.7727 3.79215 24.672
969 2 15.7002 7.51747 24.7504
970 2 3.8286 7.8603 24.719
971 2 7.92514 7.62728 24.9408
972 2 11.7638 7.8433 24.7494
973 2 15.9188 11.5122 24.8885
974 2 3.96803 11.6122 24.9642
975 2 7.92818 11.6385 24.6855
976 2 12.0224 11.6709 24.7968
977 2 0.152055 15.4845 24.8259
978 2 3.94521 15.4133 24.8331
979 2 8.08921 15.4803 24.6884
980 2 11.9397 15.6145 24.8967
981 2 0.121773 19.4909 24.7747
982 2 4.00248 19.6406 24.6925
983 2 7.96785 19.4479 24.6948
984 2 11.8722 19.3757 24.6588
985 2 -0.119965 23.4091 24.5717
986 2 4.0532 23.3618 24.4613
987 2 8.03474 23.3802 24.695
988 2 11.894 23.4498 24.6336
989 2 0.0619591 27.1711 24.6492
990 2 4.15863 27.2651 24.53
991 2 8.02749 27.2736 24.4764
992 2 11.9981 27.1621 24.5339