ITEM: TIMESTEP
21700
ITEM: NUMBER OF ATOMS
32000
ITEM: BOX BOUNDS xy xz yz pp pp pp
0.0000000000000000e+00 1.5832000000000001e+01 0.0000000000000000e+00
0.0000000000000000e+00 1.5831999999999999e+02 0.0000000000000000e+00
8.4275640394172058e-01 1.6013436159605402e+02 0.0000000000000000e+00
ITEM: ATOMS id type x y z
1 2 15.6326 157.881 159.963
2 2 3.86897 157.752 159.972
3 2 7.90243 158.195 159.926
4 2 11.9153 157.806 159.932
5 2 0.0541025 3.59095 160.13
6 2 3.77983 3.51987 159.887
7 2 7.88069 3.71057 159.777
8 2 11.8246 3.39941 159.502
9 2 15.8707 7.51312 159.932
10 2 3.95488 7.47251 160.012
11 2 8.1421 7.47217 159.926
12 2 11.8524 7.48417 159.875
13 2 15.799 11.3586 159.914
14 2 3.9119 11.3599 159.91
15 2 7.80158 11.5035 159.875
16 2 11.9453 11.385 159.774
17 2 0.0468782 15.2885 159.814
18 2 3.95914 15.3542 160.065
19 2 7.99725 15.316 159.864
20 2 11.8293 15.4167 159.832
21 2 15.8368 19.2345 159.831
22 2 4.00374 19.0386 159.833
23 2 7.96089 19.1337 159.861
24 2 11.9381 18.8801 159.85
25 2 15.5669 23.0891 159.567
26 2 3.85912 23.0241 159.787
27 2 7.86015 22.9942 159.695
28 2 11.7254 23.0033 159.776
29 2 15.7889 27.0489 159.846
30 2 4.0059 27.0673 159.699
31 2 7.84922 26.9901 159.674
32 2 11.9726 27.0764 159.969
33 2 15.6837 31.0434 160.029
34 2 3.91342 30.9838 0.626971
35 2 7.8879 31.1965 159.879
36 2 11.8351 31.1468 159.928
37 2 -0.0814914 35.0025 160.086
38 2 3.94781 35.2377 160.067
39 2 7.77734 35.1892 159.939
40 2 11.8457 35.1956 159.792
41 2 -0.109451 39.1041 160.053
42 2 3.97226 39.3327 0.697499
43 2 7.91875 39.1197 0.661378
44 2 11.8445 39.306 0.587388
45 2 0.0774691 43.3335 160.095
46 2 4.00897 43.3169 160.027
47 2 8.00679 43.0344 0.824923
48 2 12.0708 43.1678 0.833639
49 2 0.118291 47.2645 0.858357
50 2 3.83175 47.1532 0.884549
51 2 8.01592 47.1908 0.901556
52 2 11.8308 47.3393 0.708267
53 2 0.0829359 51.2259 1.00175
54 2 4.00473 51.1642 1.08665
55 2 7.87498 51.3328 0.936079
56 2 12.0202 51.2839 0.918453
57 2 15.596 55.3945 1.10017
58 2 3.82904 55.3501 0.878565
59 2 7.90891 55.2812 0.970344
60 2 11.7993 55.3413 1.0676
61 2 -0.0244957 59.2396 1.0468
62 2 3.82805 59.4176 0.887263
63 2 7.85252 59.3415 1.10978
64 2 12.0772 59.3068 1.24149
65 2 -0.127844 63.2019 1.14071
66 2 3.82643 63.3169 1.22968
67 2 7.85393 63.4292 1.21361
68 2 11.7964 63.5722 1.24267
69 2 15.9509 67.3419 1.45973
70 2 4.1257 67.2781 1.1071
71 2 8.06545 67.2706 1.10121
72 2 12.0447 67.2944 1.29054
73 2 0.334563 71.3063 1.28344
74 2 4.33647 71.5959 1.09744
75 2 8.19404 71.3571 1.25885
76 2 12.191 71.5348 1.50457
77 2 0.172402 75.3403 1.31824
78 2 3.96652 75.4007 1.09814
79 2 7.99493 75.4608 1.49731
80 2 11.9923 75.5001 1.46484
81 2 -0.168689 79.5018 1.51843
82 2 4.03473 79.553 1.22432
83 2 8.01066 79.6142 1.25005
84 2 11.9129 79.5845 1.40552
85 2 0.0033406 83.6228 1.54041
86 2 3.99984 83.5461 1.48324
87 2 8.06433 83.6949 1.5875
88 2 11.9747 83.535 1.42852
89 2 -0.00394169 87.6364 1.32067
90 2 4.01263 87.4821 1.50047
91 2 7.86856 87.4768 1.59576
92 2 12.0125 87.7322 1.51214
93 2 0.0723853 91.4861 1.42152
94 2 4.08914 91.449 1.34824
95 2 7.95235 91.399 1.50295
96 2 11.8552 91.632 1.57871
97 2 15.8474 95.3689 1.15986
98 2 3.83135 95.3607 1.44866
99 2 7.68924 95.2519 1.38085
100 2 11.7768 95.437 1.37038
101 2 -0.104395 99.5213 1.22271
102 2 4.15232 99.3723 1.25808
103 2 7.88508 99.3834 1.52782
104 2 11.7203 99.3858 1.29606
105 2 0.055522 103.231 1.25042
106 2 3.85291 103.189 1.18751
107 2 7.76651 103.416 1.26541
108 2 11.7099 103.251 1.23182
109 2 -0.00169893 107.151 1.25609
110 2 3.9752 107.08 1.22622
111 2 7.91546 107.311 1.45046
112 2 11.8363 106.977 1.27526
113 2 -0.028839 110.863 1.20722
114 2 3.84122 111.023 1.0862
115 2 7.89668 111.096 1.22958
116 2 11.6395 110.902 1.27488
117 2 15.6902 114.989 0.967835
118 2 3.9572 115.067 1.13525
119 2 7.85298 114.822 1.29152
120 2 11.7296 114.919 1.18282
121 2 0.095487 118.882 1.17798
122 2 3.88854 118.929 1.01437
123 2 7.68047 118.811 1.20696
124 2 11.957 118.901 1.06458
125 2 15.8425 122.73 1.07812
126 2 4.02457 122.869 1.06114
127 2 7.96369 122.757 1.02436
128 2 11.9509 122.848 1.09355
129 2 0.145573 126.851 1.14106
130 2 3.97711 126.496 1.13692
131 2 8.08782 126.467 0.977986
132 2 11.8141 126.559 1.02529
133 2 16.0447 130.587 1.08434
134 2 4.10092 130.515 1.00538
135 2 7.92224 130.429 1.02775
136 2 11.8228 130.506 1.10895
137 2 15.9483 134.352 0.908434
138 2 4.15067 134.526 1.0407
139 2 7.94926 134.532 160.276
140 2 11.8915 134.391 1.18623
141 2 0.115236 138.56 0.947607
142 2 4.0332 138.332 160.307
143 2 8.14506 138.302 160.266
144 2 11.6815 138.455 1.07031
145 2 15.8095 142.409 160.183
146 2 4.08981 142.327 160.148
147 2 7.83533 142.32 160.184
148 2 11.764 142.29 160.071
149 2 -0.00117351 146.305 160.139
150 2 3.91541 146.194 160.124
151 2 7.75075 146.048 159.979
152 2 11.9936 146.279 160.257
153 2 15.9149 150.168 160.132
154 2 4.01752 150.01 160.013
155 2 7.97947 149.981 159.997
156 2 12.0642 150.141 0.750511
157 2 15.9089 154.053 159.984
158 2 4.00343 153.936 159.996
159 2 7.85499 153.983 159.887
160 2 11.9319 153.984 160.019
161 2 15.747 158.102 4.55791
162 2 3.85898 158.067 4.76324
163 2 7.8143 158.095 4.46382
164 2 11.7255 157.986 4.57346
165 2 0.0151349 3.63539 4.54694
166 2 4.02456 3.43842 4.71449
167 2 7.93301 3.63481 4.65244
168 2 12.0079 3.48504 4.50109
169 2 0.0731962 7.45954 4.5249
170 2 4.04299 7.36366 4.64074
171 2 8.04435 7.43817 4.61904
172 2 12.0405 7.35422 4.63496
173 2 0.0136517 11.3682 4.67276
174 2 4.2147 11.271 4.58086
175 2 7.89484 11.3129 4.45977
176 2 11.9506 11.3723 4.51004
177 2 15.8981 15.2757 4.52862
178 2 3.91625 15.5647 4.64681
179 2 7.97836 15.1788 4.6673
180 2 11.9207 15.3652 4.51591
181 2 0.0276509 19.2136 4.44772
182 2 4.05727 19.1349 4.44123
183 2 7.95009 19.2072 4.57045
184 2 11.7977 19.3664 4.72674
185 2 0.0772465 23.0676 4.37241
186 2 4.09408 23.0212 4.51161
187 2 7.90842 23.0329 4.35828
188 2 11.7984 23.0686 4.5175
189 2 16.0048 27.1401 4.37113
190 2 4.06064 27.0571 4.57663
191 2 8.06819 26.9521 4.3633
192 2 11.9446 27.0146 4.51237
193 2 -0.164031 31.1019 4.52408
194 2 3.98165 30.9982 4.52912
195 2 7.73999 31.0354 4.28235
196 2 11.7918 31.0002 4.50465
197 2 0.137369 34.9728 4.68871
198 2 4.05618 35.01 4.80803
199 2 7.93526 34.9901 4.61413
200 2 11.8099 35.161 4.52053
201 2 15.8515 39.1422 4.57223
202 2 3.95044 39.1119 4.49873
203 2 7.95457 39.0491 4.45506
204 2 11.9689 39.0759 4.76601
205 2 0.0681556 43.1668 4.78857
206 2 4.06461 43.0444 4.65957
207 2 7.9112 43.247 4.65121
208 2 11.8136 43.1644 4.65291
209 2 -0.0646479 47.0151 4.79584
210 2 3.92757 47.0537 4.92623
211 2 7.85165 47.1323 4.77532
212 2 11.7576 47.3148 4.78401
213 2 0.0103847 51.1019 4.89536
214 2 3.85865 51.1954 4.84813
215 2 7.92346 51.266 4.71875
216 2 11.9081 51.1474 4.93915
217 2 0.0558758 55.1886 4.97307
218 2 4.08155 55.261 4.87993
219 2 7.96396 55.1714 4.8861
220 2 11.9204 55.2138 4.8578
221 2 15.9129 59.2112 4.95571
222 2 4.0284 59.2272 4.90005
223 2 7.82585 59.1936 5.05508
224 2 11.9406 59.2078 5.11186
225 2 0.0375165 63.3216 5.21102
226 2 4.07372 63.2404 5.10016
227 2 7.98304 63.2177 5.05644
228 2 11.9752 63.1169 5.20718
229 2 15.8861 67.0967 5.25864
230 2 3.99586 67.2061 5.05585
231 2 7.88327 67.2832 5.21798
232 2 11.8044 67.2167 5.17764
233 2 16.0711 71.2492 5.13733
234 2 4.09899 71.3535 5.1354
235 2 7.97895 71.2972 5.20773
236 2 11.8661 71.2724 5.29121
237 2 16.1322 75.4429 5.07247
238 2 4.17586 75.3689 5.06928
239 2 8.05279 75.4157 5.16026
240 2 11.9745 75.4106 5.34328
241 2 0.264765 79.2576 5.39251
242 2 4.07603 79.4452 5.20091
243 2 7.92233 79.2981 5.22265
244 2 11.9754 79.4349 5.2331
245 2 15.9711 83.3226 5.31214
246 2 4.28562 83.3732 5.36784
247 2 8.12271 83.4779 5.32321
248 2 12.1953 83.4253 5.30362
249 2 0.209858 87.5079 5.30164
250 2 4.05908 87.442 5.38302
251 2 7.92492 87.4046 5.65553
252 2 12.0626 87.5081 5.49003
253 2 0.0169261 91.3635 5.46299
254 2 4.15509 91.5292 5.49138
255 2 7.96223 91.5132 5.37359
256 2 11.9443 91.4231 5.53155
257 2 15.7264 95.3109 5.37364
258 2 3.81621 95.5167 5.49011
259 2 7.72484 95.4378 5.31978
260 2 11.7944 95.3867 5.38576
261 2 -0.107041 99.2995 5.42312
262 2 3.71881 99.2041 5.46672
263 2 7.98409 99.2478 5.43488
264 2 11.942 99.2925 5.4349
265 2 -0.00595201 103.131 5.32912
266 2 3.83611 103.205 5.25244
267 2 7.90689 103.331 5.52594
268 2 11.859 103.266 5.51457
269 2 15.9447 107.004 5.1545
270 2 3.87545 107.251 5.4577
271 2 7.91436 107.114 5.41925
272 2 11.8799 107.257 5.1363
273 2 15.728 111.031 5.085
274 2 3.86935 111.111 5.12543
275 2 7.81091 111.14 5.38422
276 2 12.001 111.128 5.19966
277 2 0.0654348 114.904 4.95887
278 2 3.98684 115.012 5.07272
279 2 7.75052 115.031 5.09775
280 2 11.9572 115.206 5.21356
281 2 0.140194 118.936 5.02578
282 2 4.04881 119.058 5.24068
283 2 7.99901 118.833 5.03052
284 2 11.8415 119.064 5.21371
285 2 15.7579 122.909 5.08851
286 2 3.95193 122.88 5.10504
287 2 7.87596 122.839 5.20894
288 2 11.7477 122.798 5.22868
289 2 -0.118569 126.642 5.10663
290 2 4.0325 126.699 5.1531
291 2 7.81056 126.657 5.17412
292 2 11.6559 126.705 5.08434
293 2 -0.0332033 130.503 5.06822
294 2 3.94235 130.568 5.02807
295 2 7.7424 130.468 5.15881
296 2 11.9323 130.717 5.03368
297 2 15.8857 134.492 4.90195
298 2 3.88207 134.557 4.96655
299 2 7.82026 134.661 5.03536
300 2 11.81 134.442 5.04654
301 2 0.12763 138.589 4.80669
302 2 3.90249 138.491 5.00844
303 2 7.87891 138.499 5.03622
304 2 11.8609 138.337 4.76302
305 2 -0.034715 142.406 4.97582
306 2 3.75282 142.459 5.09954
307 2 8.01234 142.283 4.94212
308 2 11.9321 142.426 4.88517
309 2 15.7374 146.238 4.72058
310 2 3.88932 146.14 4.93684
311 2 7.74078 146.383 4.92343
312 2 11.6503 146.168 5.01919
313 2 15.8182 150.197 4.93791
314 2 3.96612 150.023 5.02615
315 2 7.7691 150.143 4.88932
316 2 11.7841 150.173 4.75382
317 2 15.8672 154.101 4.65673
318 2 3.88516 153.969 4.62449
319 2 7.73071 154.06 4.71372
320 2 11.6929 154.101 4.65962
321 2 15.9559 157.95 8.6234
322 2 4.01279 157.967 8.70405
323 2 7.86905 158.116 8.59146
324 2 11.9962 157.963 8.60988
325 2 15.7735 3.68273 8.74254
326 2 3.91304 3.5818 8.67471
327 2 7.95099 3.6302 8.56739
328 2 11.767 3.8409 8.71008
329 2 15.9884 7.43573 8.42226
330 2 4.05482 7.38169 8.69881
331 2 7.93422 7.54357 8.62198
332 2 11.9422 7.57139 8.70477
333 2 -0.175321 11.2888 8.42247
334 2 3.9511 11.4161 8.50132
335 2 7.90869 11.325 8.48353
336 2 11.9243 11.4234 8.6068
337 2 15.7789 15.4688 8.32197
338 2 3.90969 15.3933 8.48655
339 2 7.94861 15.1884 8.53423
340 2 11.7107 15.1763 8.46182
341 2 -0.131751 19.1961 8.57405
342 2 3.86326 19.3104 8.52765
343 2 7.835 19.1501 8.57257
344 2 12.0027 19.2453 8.53881
345 2 -0.149201 23.1964 8.41476
346 2 3.82407 23.1937 8.47385
347 2 7.7625 22.9929 8.37127
348 2 11.7616 23.2863 8.49956
349 2 0.0354487 27.0416 8.24604
350 2 3.93096 27.2059 8.37449
351 2 7.8938 27.0863 8.48089
352 2 11.8569 27.1369 8.24321
353 2 -0.0265529 31.0076 8.47968
354 2 3.97081 30.9208 8.5153
355 2 7.7703 31.1263 8.40758
356 2 11.8701 31.0322 8.37481
357 2 15.8059 34.927 8.39608
358 2 3.90337 35.0448 8.65869
359 2 7.95236 35.0587 8.50449
360 2 11.5487 35.1023 8.56186
361 2 -0.0860103 38.9954 8.41959
362 2 3.93463 39.0469 8.67357
363 2 7.78931 38.8369 8.56147
364 2 11.9676 38.9692 8.69956
365 2 0.140448 43.1877 8.64746
366 2 3.89891 42.9827 8.78737
367 2 7.78567 42.8389 8.68894
368 2 11.8062 42.924 8.67295
369 2 -0.113606 47.0139 8.87847
370 2 3.94474 46.9437 8.71899
371 2 7.9904 46.8726 8.73926
372 2 11.8971 47.0066 8.88842
373 2 15.9642 51.2097 8.71093
374 2 3.9316 50.9614 8.90769
375 2 7.84395 51.1704 8.65229
376 2 11.7032 51.123 8.80966
377 2 15.8684 55.0403 8.85756
378 2 3.93615 54.9606 8.80909
379 2 7.95264 55.0239 8.95962
380 2 11.7771 55.2724 8.82066
381 2 0.0474188 59.1002 8.88805
382 2 3.87647 59.2594 9.11808
383 2 7.95431 59.158 9.0414
384 2 11.9453 59.0752 9.19066
385 2 0.0449131 63.0797 9.02209
386 2 4.11283 63.1685 9.06019
387 2 7.97954 63.1796 8.93628
388 2 12.1765 63.1831 8.97011
389 2 15.8819 67.2297 9.13723
390 2 3.99775 67.2816 9.00668
391 2 8.08355 67.2156 9.0017
392 2 11.935 67.3557 8.98794
393 2 15.946 71.2748 8.93687
394 2 4.00954 71.1827 8.85756
395 2 8.08029 71.2392 9.18684
396 2 12.2155 71.1257 9.04427
397 2 15.9871 75.4328 9.11558
398 2 4.05824 75.2975 9.04298
399 2 8.22108 75.3142 9.25153
400 2 12.0959 75.2191 9.0294
401 2 15.9977 79.4263 9.23005
402 2 4.10999 79.4136 9.15478
403 2 8.12846 79.3718 9.32273
404 2 12.0141 79.2803 9.0339
405 2 0.161293 83.2988 9.11979
406 2 3.93894 83.4157 9.33115
407 2 8.0633 83.2568 9.17628
408 2 12.0953 83.3211 9.2236
409 2 0.19927 87.4571 9.23696
410 2 4.25744 87.5092 9.44268
411 2 7.8412 87.4835 9.52158
412 2 11.9862 87.463 9.38141
413 2 0.0581007 91.2956 9.41321
414 2 3.84491 91.5175 9.46541
415 2 7.92181 91.6513 9.28313
416 2 12.0082 91.3678 9.29766
417 2 15.81 95.3918 9.52376
418 2 3.94966 95.5154 9.36115
419 2 7.81973 95.457 9.52178
420 2 11.8467 95.3969 9.37657
421 2 15.9852 99.2616 9.53507
422 2 4.05109 99.3488 9.52467
423 2 8.09085 99.4066 9.42087
424 2 11.8458 99.4705 9.35354
425 2 0.168702 103.265 9.28891
426 2 4.02976 103.204 9.32471
427 2 7.89604 103.149 9.39562
428 2 12.0022 103.273 9.43702
429 2 -0.0760101 107.216 9.27555
430 2 3.97979 107.364 9.25791
431 2 8.01291 107.072 9.295
432 2 11.9359 107.322 9.19057
433 2 15.7573 111.012 9.14961
434 2 3.9906 111.031 9.32132
435 2 8.06795 110.973 9.01869
436 2 11.7632 111.134 9.12898
437 2 -0.0674694 115.009 9.15246
438 2 3.87989 115.072 9.14928
439 2 7.87381 114.924 9.13799
440 2 11.8463 115.142 9.21519
441 2 -0.0516917 118.845 9.20071
442 2 4.06123 118.79 9.05032
443 2 7.92926 118.987 9.22521
444 2 11.7461 118.879 9.25075
445 2 15.9841 122.619 9
446 2 3.95658 122.703 9.13789
447 2 7.90097 122.764 9.19191
448 2 11.9183 123.003 8.93616
449 2 15.9021 126.76 9.27416
450 2 3.94561 126.594 9.13711
451 2 7.79163 126.741 9.21671
452 2 11.8117 126.78 9.21497
453 2 0.207885 130.692 9.02909
454 2 3.85609 130.474 9.20039
455 2 7.80855 130.831 8.98746
456 2 11.8649 130.546 9.17149
457 2 0.171899 134.71 9.06669
458 2 3.95343 134.549 9.17474
459 2 7.9926 134.617 9.08251
460 2 11.9038 134.581 8.99944
461 2 -0.148402 138.466 8.98731
462 2 3.82219 138.377 8.81185
463 2 7.90444 138.412 9.08176
464 2 11.9471 138.576 9.05506
465 2 0.0102728 142.258 8.92255
466 2 4.04967 142.451 9.0136
467 2 7.92489 142.352 9.03362
468 2 11.7692 142.327 8.86024
469 2 15.6876 146.373 8.93657
470 2 3.80332 146.038 9.04427
471 2 7.77744 146.279 8.85367
472 2 11.8097 146.284 8.83082
473 2 15.8444 149.996 8.78359
474 2 3.95907 150.113 8.78649
475 2 7.81306 150.035 8.80191
476 2 12.0018 150.337 8.69118
477 2 15.7924 154.107 8.58762
478 2 4.18243 154.087 8.70764
479 2 8.0208 154.133 8.68658
480 2 11.9033 154.026 8.55609
481 2 15.9925 157.918 12.6913
482 2 4.00807 157.921 12.7908
483 2 8.0721 158.126 12.6046
484 2 12.0205 157.949 12.6363
485 2 15.7769 3.66074 12.4967
486 2 3.87028 3.37326 12.6008
487 2 7.94987 3.53956 12.7118
488 2 11.8381 3.63024 12.693
489 2 16.0432 7.66149 12.6821
490 2 4.02998 7.54592 12.737
491 2 7.86543 7.42902 12.6279
492 2 11.8989 7.56652 12.6972
493 2 -0.0826152 11.3257 12.5711
494 2 3.82671 11.2771 12.4803
495 2 7.93464 11.5318 12.4626
496 2 11.7455 11.3943 12.7316
497 2 -0.141702 15.2119 12.6591
498 2 3.80051 15.3739 12.6698
499 2 7.80435 15.3261 12.7398
500 2 11.6938 15.3472 12.5956
501 2 0.0220831 19.1157 12.4835
502 2 3.78017 19.4414 12.4959
503 2 7.8794 19.2933 12.5009
504 2 11.9543 19.1718 12.4802
505 2 -0.22312 23.2963 12.6297
506 2 3.87039 23.348 12.5743
507 2 7.91577 23.2279 12.5755
508 2 11.9332 23.382 12.5523
509 2 0.0677373 27.083 12.2873
510 2 4.06742 27.0638 12.4611
511 2 8.12863 27.1638 12.4193
512 2 12.0406 27.1652 12.2555
513 2 -0.029892 31.0332 12.3327
514 2 3.8414 31.0073 12.3991
515 2 8.0466 31.1019 12.4553
516 2 11.7452 30.8634 12.4982
517 2 0.181315 34.8968 12.2746
518 2 3.95316 34.8598 12.3584
519 2 8.05978 34.9266 12.616
520 2 11.9225 35.0301 12.4083
521 2 -0.230641 38.8271 12.496
522 2 3.88582 38.9302 12.2726
523 2 7.79838 38.8652 12.5933
524 2 11.8531 38.8768 12.4328
525 2 -0.0104538 42.8714 12.6539
526 2 3.99494 42.8766 12.6809
527 2 7.74989 43.0103 12.6415
528 2 11.7825 42.9652 12.3975
529 2 0.114108 47.2116 12.6526
530 2 4.13572 47.0347 12.6514
531 2 7.95967 46.8869 12.5318
532 2 11.8696 47.0067 12.6175
533 2 -0.14718 51.0642 12.6628
534 2 4.14302 50.8885 12.8077
535 2 7.93469 51.1389 12.779
536 2 11.7833 50.8454 12.6056
537 2 15.8768 54.9733 12.6802
538 2 3.909 55.138 12.8838
539 2 7.80745 55.2064 12.729
540 2 11.9935 55.1514 12.5675
541 2 15.7715 59.1327 12.8639
542 2 3.94728 58.9176 12.8564
543 2 7.95126 59.1487 12.9723
544 2 11.9788 59.0635 12.9669
545 2 16.1428 63.1407 12.7675
546 2 4.16275 63.0009 12.8283
547 2 7.93412 63.032 12.757
548 2 12.0804 63.1 12.7932
549 2 0.0137892 67.2716 13.2528
550 2 3.84718 67.1731 13.0237
551 2 8.10085 67.1588 12.8695
552 2 12.0342 67.056 12.9383
553 2 0.341883 71.4489 13.0186
554 2 4.24119 71.1022 12.8405
555 2 8.14367 71.403 12.9661
556 2 11.9283 71.3845 12.9286
557 2 0.0192093 75.2698 13.1226
558 2 4.13898 75.2756 12.979
559 2 8.02804 75.2236 13.1153
560 2 11.8113 75.3941 13.1568
561 2 0.131921 79.3102 13.0184
562 2 4.00157 79.1892 13.0081
563 2 8.03472 79.2765 12.933
564 2 12.106 79.4532 13.0969
565 2 -0.00846394 83.4535 13.1451
566 2 3.96214 83.4045 13.1698
567 2 8.02743 83.3533 13.1718
568 2 12.0187 83.1577 13.2775
569 2 0.00413685 87.1629 13.0373
570 2 4.04398 87.2679 13.222
571 2 8.17334 87.4184 13.1253
572 2 12.0032 87.3489 13.222
573 2 -0.0155849 91.3627 13.1136
574 2 3.99222 91.3947 13.3602
575 2 7.91929 91.2803 13.2635
576 2 11.7708 91.4835 13.0856
577 2 0.0230773 95.3917 13.3755
578 2 3.95116 95.5716 13.4733
579 2 7.95426 95.4626 13.3673
580 2 12.022 95.3956 13.3957
581 2 0.0880493 99.304 13.4849
582 2 4.14166 99.4692 13.5511
583 2 7.95029 99.3097 13.4965
584 2 11.8056 99.3862 13.218
585 2 0.127352 103.184 13.3186
586 2 4.01204 103.219 13.4458
587 2 7.77534 103.283 13.4452
588 2 11.858 103.46 13.2954
589 2 0.0535688 107.239 13.2903
590 2 3.99061 107.164 13.3295
591 2 8.03089 107.255 13.2781
592 2 11.9394 107.139 13.2922
593 2 -0.234076 111.303 13.1324
594 2 4.00649 111.101 13.1733
595 2 8.01478 111.092 13.1519
596 2 11.8697 111.107 13.2564
597 2 -0.00246618 115.04 13.3342
598 2 3.84532 114.858 13.013
599 2 7.85164 115.149 13.25
600 2 12.0068 115.193 13.3359
601 2 -0.141645 118.895 13.2406
602 2 3.96504 118.962 13.2224
603 2 7.9135 118.772 13.2649
604 2 11.8198 119.096 13.2634
605 2 0.200115 122.675 13.1074
606 2 4.06374 122.96 13.1445
607 2 7.99935 122.918 13.126
608 2 11.9187 122.846 13.1741
609 2 -0.046774 126.841 13.1238
610 2 3.96872 126.772 13.0585
611 2 7.97306 127.044 13.2185
612 2 12.0435 126.631 13.0305
613 2 15.7352 130.661 13.2998
614 2 3.87036 130.726 13.2163
615 2 8.09689 130.812 13.1184
616 2 11.9789 130.785 13.1466
617 2 15.7227 134.496 13.0955
618 2 3.66686 134.737 12.9968
619 2 7.73767 134.562 13.0268
620 2 11.8276 134.626 12.9819
621 2 0.0540909 138.52 13.0381
622 2 4.238 138.465 12.8354
623 2 7.92041 138.378 13.1288
624 2 11.8176 138.498 13.1248
625 2 15.8516 142.436 12.9102
626 2 3.99443 142.197 12.955
627 2 7.87699 142.411 12.9117
628 2 11.7706 142.539 12.9074
629 2 -0.0989714 146.217 12.9798
630 2 3.99927 146.372 12.8254
631 2 7.95776 146.501 12.837
632 2 11.9262 146.288 12.9499
633 2 0.31841 150.105 12.6926
634 2 3.9911 150.342 12.8431
635 2 7.88138 150.236 12.7809
636 2 11.9574 150.51 12.7697
637 2 15.9792 154.127 12.5554
638 2 3.92076 154.086 12.7695
639 2 7.97834 154.162 12.6712
640 2 11.9083 154.199 12.7545
641 2 -0.0500991 158.045 16.7436
642 2 3.90895 -0.328441 16.709
643 2 7.94181 158.18 16.8857
644 2 11.9329 158.167 16.8312
645 2 15.7814 3.56518 16.5658
646 2 3.93255 3.49614 16.6645
647 2 7.88329 3.66743 16.6886
648 2 12.0995 3.65234 16.8011
649 2 -0.100296 7.41022 16.6389
650 2 4.01641 7.64567 16.6664
651 2 8.12431 7.378 16.6256
652 2 11.9388 7.5568 16.7453
653 2 -0.0904573 11.4002 16.625
654 2 3.83508 11.4527 16.7678
655 2 7.94014 11.5539 16.7149
656 2 11.6998 11.678 16.5315
657 2 0.0197588 15.4009 16.7105
658 2 4.1167 15.3073 16.4817
659 2 8.02599 15.437 16.5589
660 2 11.9703 15.5147 16.6097
661 2 15.7163 19.4073 16.5993
662 2 3.85912 19.5073 16.6288
663 2 7.75578 19.2576 16.4307
664 2 11.8508 19.1865 16.7177
665 2 -0.106879 23.2683 16.4234
666 2 3.97484 23.171 16.5617
667 2 7.95017 23.2764 16.4127
668 2 11.9266 23.2224 16.4224
669 2 0.187385 27.114 16.4992
670 2 4.19368 27.1572 16.433
671 2 8.23095 27.0307 16.6836
672 2 11.9909 27.2082 16.5485
673 2 0.0727943 30.9913 16.3366
674 2 3.9337 30.8549 16.4202
675 2 7.88567 31.0161 16.2053
676 2 11.9181 31.0908 16.6725
677 2 0.0831636 34.8047 16.425
678 2 3.91783 34.9637 16.3625
679 2 7.82828 34.8907 16.5399
680 2 11.983 34.9702 16.6027
681 2 -0.0481553 38.825 16.4209
682 2 3.93356 38.8582 16.4941
683 2 7.97253 38.7975 16.125
684 2 12.0887 38.7363 16.4527
685 2 0.0933545 42.9605 16.3243
686 2 3.99318 42.672 16.3336
687 2 8.01157 42.8143 16.4949
688 2 11.9219 43.0706 16.3453
689 2 15.9552 46.8796 16.5591
690 2 4.11242 46.8228 16.5805
691 2 7.99528 46.7452 16.5094
692 2 11.8951 47.0457 16.643
693 2 0.118975 50.9528 16.4223
694 2 3.84917 50.9739 16.5931
695 2 7.81872 50.9497 16.7212
696 2 11.7935 50.7328 16.5841
697 2 0.013961 55.0032 16.583
698 2 3.97192 54.887 16.7421
699 2 8.12191 54.885 16.7423
700 2 11.9106 54.8958 16.6297
701 2 -0.0253455 59.1072 16.7727
702 2 3.87033 58.9562 16.8231
703 2 7.99293 59.0686 16.7802
704 2 11.7901 59.0022 16.8071
705 2 0.146398 62.9908 16.8664
706 2 4.17757 63.2389 16.6011
707 2 8.04805 63.0434 16.8242
708 2 12.0644 63.1174 16.9077
709 2 -0.0900187 67.1719 16.9964
710 2 3.89933 67.1098 16.8905
711 2 7.86874 67.1655 16.7683
712 2 11.8281 66.9882 16.7025
713 2 0.260609 71.0303 16.9113
714 2 4.20976 70.9966 16.9243
715 2 8.02512 70.9928 16.7901
716 2 12.1083 71.2593 16.9156
717 2 -0.00465119 75.1955 16.8289
718 2 4.02694 75.1581 17.1199
719 2 7.97259 75.3632 17.0182
720 2 12.1242 75.1817 17.0606
721 2 0.182087 79.2035 16.9726
722 2 4.0773 79.3997 17.101
723 2 7.85364 79.2237 16.9733
724 2 11.9158 79.3838 17.0326
725 2 -0.0302994 83.3331 17.1762
726 2 4.07914 83.3712 16.9124
727 2 7.91194 83.5115 16.8786
728 2 11.8751 83.4094 17.2273
729 2 -0.0856385 87.3158 17.1492
730 2 3.9369 87.0993 17.3292
731 2 8.06551 87.1352 17.0158
732 2 12.0136 87.3219 17.214
733 2 -0.0765824 91.271 17.028
734 2 4.00165 91.1725 17.1226
735 2 7.91053 91.2635 17.0986
736 2 11.8675 91.3117 17.0385
737 2 -0.284264 95.4279 17.3907
738 2 3.7879 95.3069 17.2633
739 2 7.84367 95.2284 17.172
740 2 11.7209 95.4209 17.2682
741 2 -0.00414482 99.2941 17.4133
742 2 3.89925 99.4776 17.5366
743 2 7.87903 99.387 17.3518
744 2 11.7202 99.3359 17.4115
745 2 0.0743889 103.528 17.3261
746 2 3.9388 103.24 17.5362
747 2 8.07975 103.406 17.3342
748 2 11.9152 103.45 17.4179
749 2 -0.0493322 107.211 17.3517
750 2 4.04885 107.452 17.088
751 2 8.12874 107.403 17.4227
752 2 11.9486 107.319 17.4849
753 2 0.0868423 111.168 17.182
754 2 4.09653 111.068 17.4791
755 2 7.87553 111.283 17.3875
756 2 11.663 111.21 17.2136
757 2 0.0350548 115.077 17.2043
758 2 3.889 114.922 17.3606
759 2 7.76635 115.072 17.3487
760 2 11.7444 115.114 17.3869
761 2 -0.0397201 118.902 17.2161
762 2 3.93653 119.144 17.2303
763 2 7.90931 118.738 17.3463
764 2 11.8067 119.002 17.2221
765 2 -0.0242922 122.896 17.2343
766 2 4.08553 122.942 17.3166
767 2 7.9528 123.015 16.9874
768 2 11.8378 122.797 17.2369
769 2 15.6027 126.777 16.9855
770 2 4.01219 126.923 17.111
771 2 7.8396 126.792 17.1052
772 2 11.7361 126.768 17.2834
773 2 15.8847 130.857 17.204
774 2 3.80422 130.793 17.0914
775 2 7.89126 130.647 17.2284
776 2 11.92 130.702 17.3958
777 2 15.8007 134.837 17.1816
778 2 3.94709 134.651 17.2962
779 2 7.89105 134.504 17.2027
780 2 11.833 134.76 17.2047
781 2 -0.0525122 138.639 16.9608
782 2 3.84254 138.556 16.9368
783 2 7.8521 138.627 16.9617
784 2 11.9048 138.511 16.9635
785 2 15.8508 142.736 16.9509
786 2 3.75406 142.572 17.0453
787 2 7.88194 142.329 16.9638
788 2 11.8571 142.488 17.0275
789 2 15.8201 146.554 16.9118
790 2 4.00003 146.393 16.9098
791 2 8.04337 146.356 16.862
792 2 11.8558 146.568 16.9579
793 2 15.9491 150.155 16.783
794 2 3.99295 150.237 16.8645
795 2 7.94092 150.262 16.8067
796 2 11.9227 150.505 16.8734
797 2 15.6734 154.091 16.8265
798 2 3.98696 154.139 16.9615
799 2 7.92588 154.27 16.9185
800 2 11.9557 154.097 16.9204
801 2 15.8883 158.187 20.8067
802 2 3.86983 158.198 20.8138
803 2 7.81625 158.2 20.6581
804 2 11.8016 158.2 20.8054
805 2 0.044584 3.75168 20.7662
806 2 4.00048 3.7263 20.6783
807 2 7.88865 3.75948 20.864
808 2 11.7853 3.65986 20.6529
809 2 15.8108 7.5008 20.6477
810 2 4.15769 7.76538 20.5739
811 2 7.86345 7.74269 20.8029
812 2 11.7902 7.72258 20.6972
813 2 15.6945 11.625 20.8285
814 2 3.91574 11.5191 20.6647
815 2 7.84987 11.5029 20.6812
816 2 11.8718 11.5902 20.6412
817 2 15.7963 15.378 20.7904
818 2 4.04283 15.5097 20.4634
819 2 7.83999 15.2867 20.4732
820 2 11.7673 15.5913 20.7184
821 2 -0.106946 19.2818 20.7283
822 2 3.83765 19.3621 20.7806
823 2 7.65193 19.4065 20.5028
824 2 11.8981 19.3798 20.6251
825 2 0.0990875 23.3366 20.4161
826 2 3.94455 23.2567 20.6479
827 2 8.01532 23.2728 20.4997
828 2 11.8935 23.256 20.623
829 2 15.8369 27.339 20.5656
830 2 3.96119 27.1722 20.4928
831 2 7.91568 27.2123 20.5115
832 2 11.978 26.9957 20.4443
833 2 16.012 31.2189 20.5204
834 2 4.17677 31.0724 20.3983
835 2 8.13976 31.1579 20.5469
836 2 11.9014 31.1697 20.5302
837 2 16.0687 35.1059 20.4634
838 2 4.14664 34.7716 20.3407
839 2 8.00338 35.1275 20.3332
840 2 11.9449 35.0973 20.3576
841 2 0.0793914 38.9118 20.3742
842 2 4.12683 38.8183 20.3746
843 2 8.13722 38.7636 20.4198
844 2 12.1115 38.8057 20.3561
845 2 15.8846 42.7356 20.3956
846 2 4.03053 42.6753 20.3547
847 2 7.91636 42.7841 20.341
848 2 11.863 42.7459 20.4247
849 2 15.8826 46.8298 20.4752
850 2 4.08834 46.74 20.2885
851 2 7.98431 46.5831 20.5509
852 2 11.8627 46.7411 20.3304
853 2 0.0487917 50.8135 20.3655
854 2 3.89451 50.8041 20.4917
855 2 7.88342 50.9499 20.5478
856 2 12.0199 50.7689 20.4796
857 2 0.0926352 54.9562 20.6931
858 2 4.04201 54.9851 20.8405
859 2 8.04655 54.8408 20.5547
860 2 11.9752 54.8681 20.4682
861 2 15.757 58.8579 20.6364
862 2 4.11758 58.9832 20.5821
863 2 7.91117 58.9692 20.6984
864 2 11.7336 58.7705 20.5686
865 2 16.0162 63.0366 20.638
866 2 4.07376 63.0535 20.5962
867 2 7.98316 62.9186 20.7351
868 2 12.0563 62.8517 20.8474
869 2 0.235966 67.0898 20.7196
870 2 4.13324 66.9328 20.7963
871 2 8.02169 67.0197 20.6974
872 2 11.8878 66.9016 20.6726
873 2 0.100847 71.052 20.7966
874 2 4.13772 70.9473 20.7211
875 2 7.98531 71.0535 20.8261
876 2 11.9254 71.0529 20.6269
877 2 0.0182697 75.2382 20.6598
878 2 4.1814 75.0441 20.834
879 2 8.13152 75.1429 20.8969
880 2 11.8509 75.1163 21.0543
881 2 0.115618 79.3099 20.7602
882 2 4.06006 79.1499 20.8961
883 2 7.99259 79.2196 20.8049
884 2 12.0238 79.2869 20.9962
885 2 0.153256 83.2871 21.3338
886 2 4.1114 83.2295 20.8547
887 2 7.96063 83.3519 20.992
888 2 12.1829 83.0541 21.0467
889 2 -0.0239744 87.1521 21.2196
890 2 3.99831 87.2268 20.9866
891 2 7.95838 87.0979 21.1353
892 2 11.8457 87.3616 21.2206
893 2 -0.182597 91.1803 21.1225
894 2 3.84779 91.2672 21.0166
895 2 7.93752 91.2347 21.105
896 2 11.7167 91.2519 21.249
897 2 -0.228191 95.3701 20.9999
898 2 3.89361 95.2239 21.0711
899 2 7.81272 95.2283 21.0025
900 2 11.8143 95.1402 21.2596
901 2 -0.218039 99.3628 21.2184
902 2 4.08286 99.2185 21.3159
903 2 7.79547 99.3582 21.3116
904 2 11.8082 99.211 21.341
905 2 0.193725 103.377 21.1565
906 2 3.93325 103.245 21.3893
907 2 7.90446 103.303 21.4898
908 2 11.5546 103.256 21.3148
909 2 0.0434547 107.306 21.4329
910 2 3.89953 107.184 21.2018
911 2 7.84974 107.393 21.3908
912 2 11.7746 107.377 21.2926
913 2 0.143041 111.081 21.4421
914 2 3.84564 111.184 21.4417
915 2 7.70822 111.274 21.2948
916 2 11.6176 111.297 21.2563
917 2 15.9021 115.061 21.1328
918 2 3.928 115.238 21.413
919 2 7.89749 115.168 21.6231
920 2 11.8333 115.079 21.5037
921 2 -0.201082 118.991 21.1549
922 2 3.72753 119.074 21.2522
923 2 7.84974 119.109 21.3255
924 2 11.668 119.144 21.1604
925 2 15.7398 122.953 21.2128
926 2 3.9719 122.89 21.2301
927 2 7.93825 122.968 21.34
928 2 11.6564 123.027 21.1726
929 2 15.7673 126.771 21.056
930 2 3.8676 126.854 21.048
931 2 7.86738 126.839 21.3168
932 2 11.8355 127.13 21.2034
933 2 15.8761 130.781 21.2865
934 2 3.78759 130.802 21.1467
935 2 7.82281 130.597 20.9142
936 2 11.8235 130.758 21.3396
937 2 0.0455001 134.748 21.1396
938 2 4.20486 134.675 21.0831
939 2 7.85492 134.727 21.2114
940 2 11.8425 134.648 21.2008
941 2 15.7165 138.693 21.0967
942 2 3.9379 138.652 21.1291
943 2 7.98092 138.635 20.9503
944 2 11.8699 138.732 20.9874
945 2 15.7361 142.609 21.0344
946 2 3.74693 142.344 20.9946
947 2 7.52591 142.286 20.9589
948 2 11.5511 142.513 20.781
949 2 15.7912 146.489 21.0027
950 2 3.9529 146.376 21.0024
951 2 7.76688 146.247 20.8834
952 2 11.7136 146.337 21.0007
953 2 15.9427 150.141 20.87
954 2 3.96683 150.268 20.884
955 2 8.02376 150.239 20.8021
956 2 11.8543 150.144 20.9541
957 2 15.8921 154.273 20.9372
958 2 3.8696 154.046 20.9576
959 2 8.04789 154.182 20.8611
960 2 11.9406 154.215 20.9912
961 2 -0.217648 158.287 24.9246
962 2 3.99919 158.142 24.9065
963 2 7.82598 158.135 24.7041
964 2 11.8068 158.244 24.9797
965 2 15.5012 3.78947 24.9456
966 2 3.83497 3.91435 24.9046
967 2 7.89015 3.75379 24.8947
968 2 11.6105 3.84444 24.7091
969 2 15.6609 7.53574 24.6089
970 2 3.86246 7.70256 24.7215
971 2 7.82629 7.65711 24.8022
972 2 11.8478 7.72929 24.8113
973 2 15.7201 11.4093 24.8063
974 2 3.89428 11.557 24.7635
975 2 7.97154 11.5266 24.4847
976 2 11.8258 11.6888 24.7649
977 2 -0.123256 15.365 24.6431
978 2 3.99177 15.4451 24.6857
979 2 7.96337 15.6334 24.6038
980 2 11.9677 15.4043 24.7911
981 2 0.0917733 19.5182 24.6894
982 2 4.06793 19.2791 24.5778
983 2 8.03349 19.5773 24.6658
984 2 11.8821 19.6651 24.5782
985 2 -0.0168717 23.2026 24.6097
986 2 4.01528 23.309 24.4699
987 2 8.15213 23.5025 24.5372
988 2 11.8147 23.5261 24.5761
989 2 0.232247 27.2195 24.6594
990 2 4.15905 27.3945 24.4595
991 2 8.16673 27.2482 24.5389