ITEM: TIMESTEP
22100
ITEM: NUMBER OF ATOMS
32000
ITEM: BOX BOUNDS xy xz yz pp pp pp
0.0000000000000000e+00 1.5832000000000001e+01 0.0000000000000000e+00
0.0000000000000000e+00 1.5831999999999999e+02 0.0000000000000000e+00
8.5399844110349932e-01 1.6012311955889180e+02 0.0000000000000000e+00
ITEM: ATOMS id type x y z
1 2 15.7102 158.126 159.981
2 2 3.64025 157.99 159.943
3 2 7.82142 157.935 160.002
4 2 11.6501 157.813 159.84
5 2 -0.006414 3.60006 159.897
6 2 3.93781 3.57847 160.047
7 2 7.81329 3.5348 159.96
8 2 11.916 3.53006 159.907
9 2 15.8357 7.37849 160.06
10 2 3.91433 7.39193 159.704
11 2 8.04827 7.46006 159.881
12 2 12.0644 7.35524 159.799
13 2 16.0728 11.2869 159.834
14 2 4.09706 11.4481 159.944
15 2 8.01246 11.2364 159.954
16 2 11.8862 11.4743 159.772
17 2 0.251566 15.228 159.802
18 2 4.15084 15.356 159.883
19 2 8.10936 15.2959 159.779
20 2 12.2706 15.1934 159.9
21 2 15.7473 19.0371 159.578
22 2 4.10025 19.1718 159.561
23 2 8.02575 19.1342 159.809
24 2 11.8862 19.1648 159.687
25 2 15.7562 23.1275 159.781
26 2 3.98039 23.0397 159.579
27 2 8.10832 22.9664 159.684
28 2 11.9697 23.1533 159.846
29 2 15.9586 27.1907 159.803
30 2 3.93501 27.1378 159.892
31 2 8.05371 27.1006 159.805
32 2 12.1506 27.1618 159.825
33 2 15.9671 31.0541 159.967
34 2 4.1111 31.07 0.581994
35 2 8.08697 30.9695 159.709
36 2 12.0518 31.1653 159.844
37 2 0.159039 35.1512 160.062
38 2 4.16468 35.0154 160.002
39 2 8.21518 35.1241 160.03
40 2 11.9957 35.0969 159.996
41 2 0.148692 39.3347 159.988
42 2 4.07882 38.9408 0.526259
43 2 7.98106 39.1408 0.632099
44 2 12.0886 39.2672 0.639657
45 2 0.133101 43.2929 160.173
46 2 4.06131 43.1376 160.253
47 2 8.21099 43.1538 0.910065
48 2 12.0096 43.2973 0.66067
49 2 0.0543716 47.1743 0.975789
50 2 4.04079 47.2313 1.00428
51 2 8.17034 47.1534 1.02039
52 2 12.1821 47.1044 0.791619
53 2 0.171035 51.237 0.96228
54 2 3.98993 51.2241 1.0341
55 2 8.03791 51.057 0.859899
56 2 12.0849 51.1335 1.10686
57 2 15.9849 55.2419 0.836716
58 2 4.0742 55.249 0.871209
59 2 8.03903 55.1605 0.947934
60 2 12.1847 55.2982 1.12885
61 2 0.0430918 59.3292 1.06981
62 2 4.06401 59.3057 1.00857
63 2 8.12722 59.3071 1.09026
64 2 11.9647 59.4721 1.083
65 2 -0.156142 63.4748 1.21487
66 2 3.91764 63.3222 1.01281
67 2 7.91651 63.3717 1.09182
68 2 11.7659 63.34 1.13493
69 2 15.8437 67.3539 1.16234
70 2 4.03392 67.3718 1.11959
71 2 7.98201 67.396 1.16639
72 2 11.9843 67.4981 1.17836
73 2 0.395558 71.6416 1.32136
74 2 4.13103 71.45 1.13646
75 2 8.16167 71.4339 1.37313
76 2 12.1385 71.3194 1.32842
77 2 -0.0161863 75.4063 1.31475
78 2 4.08095 75.3345 1.22951
79 2 7.86487 75.4308 1.34657
80 2 11.8642 75.4325 1.40561
81 2 -0.139746 79.5211 1.28895
82 2 3.8057 79.5444 1.40316
83 2 7.84758 79.4771 1.43427
84 2 11.7461 79.3866 1.40148
85 2 -0.311118 83.501 1.44771
86 2 3.87817 83.4286 1.32959
87 2 7.75005 83.4866 1.34758
88 2 11.7629 83.4031 1.49241
89 2 -0.0158038 87.5162 1.46639
90 2 3.90779 87.3944 1.41938
91 2 7.95204 87.5857 1.7003
92 2 11.977 87.5996 1.52699
93 2 0.156146 91.4206 1.3524
94 2 4.03394 91.2955 1.73296
95 2 7.88036 91.539 1.61127
96 2 12.0869 91.5632 1.52302
97 2 15.8325 95.4473 1.2742
98 2 4.13247 95.4998 1.59295
99 2 8.04961 95.4853 1.6158
100 2 12.0369 95.2944 1.46068
101 2 -0.00531604 99.2877 1.14038
102 2 3.92342 99.4035 1.39688
103 2 7.87194 99.2708 1.37345
104 2 11.7424 99.3492 1.51584
105 2 0.186773 103.138 1.36585
106 2 4.12899 103.089 1.48728
107 2 8.03382 103.343 1.5285
108 2 11.9253 103.38 1.49647
109 2 0.194014 106.85 1.21808
110 2 4.0274 107.253 1.28357
111 2 7.90578 107.17 1.39511
112 2 11.8712 107.11 1.53413
113 2 -0.06093 110.977 1.33794
114 2 3.85186 111.059 1.26332
115 2 7.74726 110.949 1.36165
116 2 11.9585 111.022 1.3583
117 2 15.6873 114.862 1.23794
118 2 3.97163 115.013 1.22046
119 2 7.7654 114.876 1.38307
120 2 11.8497 114.942 1.22575
121 2 0.113817 118.92 1.03148
122 2 4.13453 119.145 1.26115
123 2 8.08384 118.769 1.21858
124 2 12.0143 118.84 1.23968
125 2 16.193 122.91 1.0141
126 2 4.06416 122.857 1.18432
127 2 8.01542 122.939 0.95345
128 2 11.9957 122.791 1.17988
129 2 0.0879336 126.581 0.920856
130 2 4.11494 126.681 0.811791
131 2 7.83403 126.642 0.92955
132 2 11.9434 126.788 1.07774
133 2 15.8942 130.726 0.907316
134 2 4.19936 130.452 0.959028
135 2 8.08893 130.455 0.881477
136 2 12.1424 130.531 1.06596
137 2 15.951 134.541 1.02387
138 2 4.07371 134.512 0.859444
139 2 8.05828 134.56 160.328
140 2 11.7053 134.486 0.890092
141 2 0.108408 138.189 0.853258
142 2 4.14278 138.324 160.114
143 2 7.81895 138.563 160.085
144 2 11.9042 138.387 0.899043
145 2 15.9984 142.346 160.088
146 2 3.9577 142.477 160.107
147 2 7.97896 142.253 160.06
148 2 12.0596 142.271 160.123
149 2 -0.0303172 146.354 160.21
150 2 3.9582 146.344 159.982
151 2 7.94968 146.121 160.028
152 2 11.9354 146.339 159.93
153 2 15.9423 150.365 160.033
154 2 4.10711 150.032 160.054
155 2 7.94637 150.196 160.001
156 2 11.9498 150.283 0.823377
157 2 15.9228 154.235 160.059
158 2 4.04251 154.037 159.928
159 2 7.87255 154.082 159.949
160 2 11.8158 154.01 159.957
161 2 15.8415 158.018 4.72982
162 2 3.87755 157.954 4.67018
163 2 8.05488 158.203 4.7348
164 2 11.9015 157.984 4.61409
165 2 -0.0173621 3.44809 4.6496
166 2 3.89846 3.61918 4.79159
167 2 7.96474 3.45325 4.80744
168 2 11.7385 3.63558 4.59362
169 2 0.206174 7.3936 4.68417
170 2 4.18843 7.51943 4.67604
171 2 8.17314 7.46549 4.61032
172 2 12.0812 7.45608 4.71897
173 2 0.287523 11.4564 4.70151
174 2 4.13462 11.5388 4.59812
175 2 8.10832 11.3221 4.67295
176 2 12.1639 11.5835 4.74824
177 2 15.9553 15.4115 4.5368
178 2 4.22374 15.3845 4.45804
179 2 8.19786 15.3452 4.5762
180 2 12.0826 15.5145 4.53833
181 2 0.0999003 19.185 4.58495
182 2 4.16648 19.1965 4.4652
183 2 8.14936 19.2523 4.62883
184 2 12.1126 19.379 4.51544
185 2 0.248514 23.0676 4.32494
186 2 4.15562 23.0501 4.54897
187 2 8.00985 22.8197 4.40924
188 2 11.9765 23.2966 4.5849
189 2 16.0079 27.1117 4.40216
190 2 4.34896 27.1301 4.41172
191 2 7.97162 27.105 4.31417
192 2 12.1051 27.0929 4.6045
193 2 0.25507 31.0639 4.69509
194 2 4.19261 30.8952 4.54726
195 2 8.19011 31.0302 4.43954
196 2 11.8856 31.0927 4.55159
197 2 0.203797 34.9737 4.5641
198 2 4.33477 35.1016 4.68782
199 2 8.15643 35.1058 4.55332
200 2 12.0928 35.0763 4.63673
201 2 16.1251 39.1783 4.72726
202 2 4.21085 39.131 4.64968
203 2 8.23343 39.0049 4.53091
204 2 12.3242 39.1422 4.67112
205 2 0.15771 43.1833 4.86639
206 2 3.92534 43.0312 4.75989
207 2 7.8761 42.942 4.64554
208 2 11.958 43.0354 4.7351
209 2 0.0190522 47.1173 4.99139
210 2 3.93273 47.0221 4.77309
211 2 8.06474 47.0767 4.79124
212 2 11.9524 47.0144 4.87935
213 2 0.166959 51.1982 4.87653
214 2 4.07504 51.2106 4.98353
215 2 8.11924 51.1386 4.78026
216 2 11.936 51.3315 4.87056
217 2 0.221529 55.2463 4.83182
218 2 4.14007 55.1671 4.84934
219 2 8.13238 55.0302 4.82447
220 2 11.851 55.1579 5.02883
221 2 15.8579 59.3075 4.91452
222 2 3.95083 59.3065 4.75815
223 2 8.04101 59.3877 4.7526
224 2 12.101 59.2296 5.04648
225 2 -0.0772951 63.3778 5.11463
226 2 3.97798 63.3907 5.06518
227 2 7.92227 63.4468 5.12706
228 2 11.857 63.4542 5.08585
229 2 15.8843 67.2826 5.19541
230 2 4.07241 67.3546 5.26166
231 2 7.8528 67.2964 5.01247
232 2 11.782 67.4064 5.32858
233 2 15.8428 71.3955 5.15952
234 2 4.10296 71.3143 5.10201
235 2 7.93554 71.1572 5.13527
236 2 11.919 71.1469 5.21106
237 2 15.9732 75.4838 5.2041
238 2 4.05353 75.5726 5.28986
239 2 8.03005 75.3678 5.2842
240 2 11.9502 75.333 5.26983
241 2 -0.14154 79.398 5.13656
242 2 3.95835 79.3784 5.27027
243 2 7.93024 79.4486 5.19652
244 2 11.7589 79.24 5.30352
245 2 15.7611 83.37 5.42746
246 2 3.77199 83.4384 5.27461
247 2 7.91311 83.3358 5.33782
248 2 11.8296 83.3287 5.46429
249 2 -0.00894513 87.4013 5.24178
250 2 4.09894 87.5544 5.50546
251 2 8.03145 87.4034 5.53659
252 2 11.8713 87.4814 5.57115
253 2 0.0798469 91.4106 5.50018
254 2 3.91732 91.4232 5.49363
255 2 8.15119 91.4645 5.50339
256 2 11.882 91.4957 5.41613
257 2 15.701 95.4723 5.5919
258 2 3.89174 95.3678 5.53084
259 2 7.8356 95.2692 5.48973
260 2 11.7393 95.4076 5.55848
261 2 0.0300437 99.5435 5.54685
262 2 3.99728 99.0624 5.50019
263 2 7.93964 99.2736 5.46064
264 2 11.8979 99.3159 5.52823
265 2 0.226391 103.21 5.37895
266 2 3.79914 103.074 5.39672
267 2 7.98577 103.259 5.51168
268 2 12.1665 103.289 5.34505
269 2 15.6952 107.175 5.5326
270 2 3.8979 107.078 5.31433
271 2 7.94076 107.348 5.54036
272 2 11.8393 107.168 5.54653
273 2 15.8382 111.035 5.23536
274 2 3.98817 111.133 5.2604
275 2 8.02626 111.181 5.36227
276 2 11.8016 111.295 5.31582
277 2 0.136753 115.044 5.22015
278 2 3.92452 115.051 5.09961
279 2 7.9917 115.022 5.33757
280 2 11.894 115.055 4.93747
281 2 0.150763 118.963 5.16919
282 2 3.96062 118.877 5.17594
283 2 7.96453 118.976 5.28814
284 2 12.0744 119.007 5.17023
285 2 15.8132 122.834 5.26141
286 2 4.00256 122.845 5.22553
287 2 7.97806 122.788 5.24895
288 2 11.8308 123.055 5.06001
289 2 0.0994289 126.859 4.92683
290 2 4.02702 126.658 4.99934
291 2 7.90035 126.73 5.21772
292 2 11.7567 126.665 5.26154
293 2 0.233248 130.603 4.78193
294 2 4.05117 130.665 4.971
295 2 7.86099 130.688 4.97626
296 2 11.8209 130.566 5.01094
297 2 16.0675 134.433 4.85848
298 2 3.99811 134.682 4.96792
299 2 7.86944 134.503 4.93669
300 2 12.0252 134.413 4.94803
301 2 -0.0291162 138.437 4.89291
302 2 3.92503 138.488 4.77853
303 2 7.86656 138.413 4.80399
304 2 11.9046 138.528 4.9919
305 2 0.124144 142.467 4.85269
306 2 4.06218 142.357 4.92408
307 2 8.01127 142.528 4.90525
308 2 11.9407 142.302 4.8792
309 2 15.7069 146.296 5.08469
310 2 3.86704 146.229 4.97064
311 2 7.97522 146.048 5.05777
312 2 11.9126 146.448 4.77169
313 2 15.9416 150.244 4.80383
314 2 3.89377 149.964 4.69688
315 2 7.81266 150.11 4.88153
316 2 11.9123 150.268 4.95367
317 2 15.756 154.133 4.7001
318 2 4.02567 154.208 4.91734
319 2 7.94364 154.129 4.85732
320 2 11.8762 154.057 4.71779
321 2 15.932 157.939 8.83297
322 2 4.02833 158.131 8.80721
323 2 7.99745 158.02 8.80728
324 2 11.7633 157.931 8.80875
325 2 15.9109 3.68719 8.81474
326 2 3.93529 3.55259 8.75917
327 2 7.82866 3.75507 8.93022
328 2 12.038 3.80832 8.79501
329 2 16.055 7.6384 8.7609
330 2 4.21162 7.46234 8.68025
331 2 8.06923 7.50252 8.80256
332 2 11.8431 7.61136 8.67026
333 2 0.0905787 11.4918 8.69924
334 2 4.15382 11.3138 8.66568
335 2 7.97138 11.5064 8.73801
336 2 11.9701 11.4627 8.63287
337 2 15.8044 15.4032 8.48992
338 2 4.08899 15.4678 8.46589
339 2 8.04495 15.4258 8.60356
340 2 11.8609 15.5253 8.72116
341 2 0.0704888 19.3941 8.56021
342 2 3.95237 19.0632 8.4413
343 2 8.10688 19.2132 8.60996
344 2 12.0891 19.4455 8.43114
345 2 0.1086 23.262 8.36066
346 2 4.00936 23.0073 8.62654
347 2 7.74828 23.021 8.62642
348 2 11.8361 23.2316 8.45548
349 2 0.0837947 27.3982 8.26172
350 2 4.05626 27.068 8.43717
351 2 7.88166 27.1505 8.31644
352 2 12.0581 27.113 8.27069
353 2 0.0632741 31.1069 8.48956
354 2 4.06224 31.0688 8.54316
355 2 8.05495 31.0972 8.40592
356 2 11.7408 30.948 8.58196
357 2 16.0025 35.0241 8.53129
358 2 4.07909 35.0016 8.63038
359 2 7.88704 34.9977 8.57476
360 2 11.8291 35.0427 8.40774
361 2 0.0170549 39.159 8.64251
362 2 4.14093 39.0024 8.3878
363 2 8.13968 39.0929 8.74907
364 2 11.8273 39.0333 8.60603
365 2 0.273283 43.1415 8.69842
366 2 4.20242 43.0064 8.58477
367 2 8.04433 43.2188 8.6186
368 2 12.1546 43.1113 8.64567
369 2 0.106863 47.129 8.75108
370 2 4.2075 47.2167 8.81942
371 2 8.10609 47.1711 8.78611
372 2 11.9533 47.1937 8.83015
373 2 15.9402 51.0588 8.59372
374 2 4.17213 51.0887 8.66824
375 2 8.09485 51.1357 8.63721
376 2 12.0703 51.1657 8.76038
377 2 16.0018 55.1876 8.58724
378 2 4.01758 55.154 8.89373
379 2 7.88981 55.2473 8.63559
380 2 11.9224 55.0701 8.62455
381 2 0.0915972 59.2494 9.07246
382 2 3.97897 59.1785 8.74655
383 2 7.79366 59.2314 8.89131
384 2 12.0032 59.0358 8.78919
385 2 0.134096 63.2247 8.94915
386 2 4.03852 63.1877 8.95308
387 2 7.83047 63.0865 8.97231
388 2 11.9413 63.2236 8.98326
389 2 15.7786 67.2885 9.0441
390 2 3.81284 67.3249 8.8927
391 2 7.84445 67.4441 8.99946
392 2 11.7904 67.3422 8.99692
393 2 15.9705 71.222 9.13407
394 2 3.89471 71.3474 8.97881
395 2 8.21087 71.4705 9.2553
396 2 11.8402 71.3789 9.0999
397 2 15.9464 75.1153 9.02934
398 2 3.91629 75.2112 9.05762
399 2 8.04797 75.223 9.10996
400 2 11.9353 75.3 9.28501
401 2 15.8424 79.098 9.2706
402 2 3.8413 79.2417 9.29246
403 2 7.98061 79.2232 9.28204
404 2 11.7477 79.2482 9.27328
405 2 -0.0596893 83.2507 9.23847
406 2 3.77998 83.4171 9.39521
407 2 7.77816 83.3135 9.19385
408 2 11.8268 83.0221 9.15941
409 2 -0.0138157 87.2036 9.30267
410 2 3.78044 87.2337 9.48494
411 2 7.80363 87.2869 9.37727
412 2 11.8402 87.3624 9.3787
413 2 -0.0011675 91.1381 9.34166
414 2 3.81554 91.5043 9.51001
415 2 7.75619 91.3367 9.42273
416 2 11.8062 91.4512 9.17757
417 2 15.9541 95.123 9.55364
418 2 4.08362 95.4333 9.61457
419 2 7.81242 95.5509 9.41539
420 2 11.792 95.3197 9.64595
421 2 15.99 99.2615 9.49936
422 2 4.09864 99.265 9.47096
423 2 7.89478 99.37 9.53838
424 2 12.0019 99.242 9.58934
425 2 0.145408 103.282 9.50481
426 2 3.98248 103.286 9.42201
427 2 7.87011 103.25 9.39647
428 2 11.7455 103.173 9.3871
429 2 0.0868409 107.451 9.3243
430 2 4.02624 107.281 9.35735
431 2 7.97654 107.251 9.30193
432 2 11.914 107.165 9.30717
433 2 15.6569 111.378 9.31348
434 2 3.94179 111.09 9.38024
435 2 7.98787 111.086 9.36122
436 2 12.0608 111.301 9.41992
437 2 -0.122906 115.06 9.39945
438 2 4.02675 114.905 9.29134
439 2 7.95961 115.163 9.28076
440 2 11.8283 115.25 9.32995
441 2 0.0374095 118.982 9.23465
442 2 3.99812 119.063 9.11855
443 2 7.89837 118.8 9.11918
444 2 11.9507 119.163 9.14878
445 2 15.9998 122.908 9.21798
446 2 3.99542 122.821 9.37145
447 2 7.71325 122.892 9.10519
448 2 11.8099 122.853 9.38888
449 2 15.978 126.75 8.88152
450 2 4.05619 126.811 9.14656
451 2 7.88115 126.751 9.15544
452 2 11.9775 126.721 9.0473
453 2 -0.018638 130.522 9.16167
454 2 3.9046 130.599 9.03867
455 2 7.87774 130.722 9.27311
456 2 12.1737 130.826 8.87462
457 2 0.04497 134.462 8.98924
458 2 3.94758 134.698 9.04426
459 2 8.02551 134.675 9.00731
460 2 12.084 134.769 8.90391
461 2 0.200831 138.482 8.87182
462 2 4.1397 138.371 8.98992
463 2 8.09092 138.346 8.9662
464 2 11.82 138.585 8.97274
465 2 -0.0125226 142.348 8.95605
466 2 3.91309 142.207 8.82795
467 2 8.04357 142.297 8.79578
468 2 12.0994 142.314 9.00421
469 2 15.749 146.066 9.00088
470 2 4.13627 146.219 8.97143
471 2 7.98675 146.364 8.99811
472 2 11.9365 146.351 8.96764
473 2 15.9335 150.243 8.90268
474 2 4.09275 149.996 9.0053
475 2 7.90662 150.494 8.83702
476 2 11.9607 150.315 8.70376
477 2 16.1009 154.061 8.78031
478 2 4.20044 154.179 8.97007
479 2 8.16023 154.001 8.62871
480 2 12.0519 154.135 8.76907
481 2 15.8083 157.879 12.6752
482 2 3.97647 158.017 12.8371
483 2 7.98503 158.062 12.9743
484 2 11.9725 158.127 12.7237
485 2 15.817 3.69069 12.9062
486 2 3.86646 3.60133 12.8761
487 2 8.04026 3.45677 12.7634
488 2 12.042 3.78448 12.8393
489 2 15.8602 7.70424 12.7504
490 2 3.95144 7.42636 12.6256
491 2 7.88663 7.66798 12.9758
492 2 11.7457 7.53179 12.7659
493 2 0.00279101 11.5723 12.6512
494 2 3.81476 11.5826 12.7427
495 2 7.82606 11.4576 12.7554
496 2 11.8373 11.651 12.6754
497 2 -0.110872 15.5139 12.351
498 2 3.85194 15.4343 12.5887
499 2 8.15569 15.3723 12.671
500 2 11.9392 15.3935 12.6698
501 2 -0.105286 19.4731 12.579
502 2 3.92509 19.4381 12.6863
503 2 8.06565 19.5067 12.6053
504 2 12.0345 19.3075 12.4283
505 2 0.0172223 23.3207 12.4631
506 2 3.98919 23.266 12.5335
507 2 8.06067 23.1988 12.4819
508 2 11.8753 23.2587 12.4869
509 2 -0.0249305 27.0957 12.4712
510 2 3.90211 27.0344 12.3879
511 2 8.04099 27.048 12.434
512 2 11.783 27.2252 12.4392
513 2 -0.0381509 30.9287 12.309
514 2 4.05903 30.8565 12.2689
515 2 7.86577 30.968 12.6001
516 2 11.7729 31.0909 12.3882
517 2 0.0357668 35.0114 12.2456
518 2 4.00319 35.1022 12.4963
519 2 7.94911 35.039 12.555
520 2 11.9205 34.8706 12.5771
521 2 -0.109674 38.9944 12.4129
522 2 3.82394 39.0322 12.5049
523 2 8.10985 38.9494 12.5146
524 2 11.8161 38.82 12.528
525 2 -0.0291959 42.9796 12.5134
526 2 3.83946 42.966 12.2906
527 2 7.85502 42.8653 12.6743
528 2 11.968 43.1155 12.4962
529 2 0.00256593 47.0053 12.8043
530 2 4.14056 46.9291 12.6854
531 2 7.93569 46.9661 12.6696
532 2 11.9443 47.1993 12.6293
533 2 0.0735201 50.9441 12.5736
534 2 3.91239 50.9739 12.7099
535 2 7.8671 50.9035 12.6834
536 2 11.9796 51.2229 12.4751
537 2 15.884 55.2263 12.6587
538 2 3.95743 54.8521 12.63
539 2 7.9892 55.0086 12.6771
540 2 11.8492 55.1557 12.5094
541 2 15.8089 59.0713 12.8367
542 2 4.02218 59.1841 12.7612
543 2 7.90398 58.9338 12.7695
544 2 11.8664 59.0865 12.8226
545 2 15.6595 63.112 12.7779
546 2 3.90254 63.1458 13.0236
547 2 7.99457 63.1744 12.6066
548 2 12.0184 63.117 12.9966
549 2 0.157663 67.2481 13.0273
550 2 3.94158 67.178 12.9145
551 2 7.9335 67.2728 12.8774
552 2 11.8556 67.3294 12.9821
553 2 0.0152858 71.0939 13.14
554 2 4.10683 71.2146 12.979
555 2 7.83718 71.2675 12.9507
556 2 11.9044 71.2779 13.0242
557 2 2.13171e-05 75.1648 13.0188
558 2 3.88887 75.319 13.0465
559 2 7.8813 75.2412 13.0736
560 2 11.8674 75.3078 13.1819
561 2 -0.240107 79.1803 13.056
562 2 3.80138 79.2646 13.2331
563 2 7.80052 79.0886 13.1017
564 2 11.691 79.2601 13.0267
565 2 -0.182611 83.2082 13.1064
566 2 3.78697 83.3487 13.2427
567 2 7.9047 83.1016 13.1969
568 2 11.6687 83.3718 13.3697
569 2 -0.231157 87.5871 13.1096
570 2 3.86217 87.1637 13.2642
571 2 7.97921 87.0336 13.1386
572 2 11.7608 87.2562 13.2661
573 2 -0.0746322 91.2965 13.1954
574 2 3.88871 91.2996 13.458
575 2 7.85367 91.3407 13.1908
576 2 11.83 91.3126 13.3483
577 2 -0.0837464 95.4592 13.625
578 2 3.95392 95.4866 13.5467
579 2 7.97743 95.3381 13.3037
580 2 11.8263 95.1297 13.308
581 2 0.271249 99.1776 13.298
582 2 4.18158 99.356 13.5544
583 2 8.05063 99.4673 13.6727
584 2 11.8945 99.3069 13.4611
585 2 -0.169891 103.31 13.5981
586 2 3.8832 103.272 13.6013
587 2 7.9918 103.222 13.3847
588 2 11.7497 103.452 13.4155
589 2 -0.217722 107.154 13.2567
590 2 3.98874 107.264 13.367
591 2 7.92848 107.007 13.2668
592 2 11.8378 107.219 13.4908
593 2 -0.0424785 111.226 13.4401
594 2 3.93316 111.119 13.3033
595 2 7.99807 111.316 13.3937
596 2 11.8724 111.267 13.3559
597 2 -0.269517 115.038 13.1643
598 2 3.89984 115.076 13.2587
599 2 7.84566 115.192 13.3297
600 2 11.7734 115.044 13.2517
601 2 0.114865 118.731 13.2969
602 2 4.09757 118.866 13.3699
603 2 7.97666 119.079 13.2385
604 2 12.0145 118.868 13.3961
605 2 0.146811 122.784 13.1921
606 2 3.94491 122.705 13.2786
607 2 8.05837 122.943 13.2107
608 2 11.8515 122.753 13.1709
609 2 0.175356 126.674 13.1375
610 2 4.05139 126.838 13.2711
611 2 8.0593 126.806 12.9878
612 2 11.9522 126.678 13.1366
613 2 15.8266 130.542 13.2472
614 2 3.80482 130.654 13.1306
615 2 7.79733 130.846 12.9548
616 2 12.0619 130.745 12.9805
617 2 15.8421 134.64 13.1502
618 2 4.05535 134.452 13.0158
619 2 8.03606 134.542 12.9787
620 2 11.9709 134.761 13.1355
621 2 0.254591 138.546 12.8844
622 2 4.03007 138.358 13.0537
623 2 8.09874 138.574 12.9322
624 2 12.0435 138.538 12.9167
625 2 15.8593 142.396 13.0385
626 2 4.07688 142.646 12.8612
627 2 7.85345 142.522 13.0433
628 2 11.9369 142.35 13.1471
629 2 0.176989 146.291 12.999
630 2 4.08526 146.284 12.8543
631 2 8.00427 146.345 12.8135
632 2 11.934 146.446 12.9123
633 2 0.106775 150.191 13.0237
634 2 4.05281 150.222 12.8612
635 2 7.96549 150.305 12.9081
636 2 11.9141 150.459 12.9152
637 2 15.906 154.093 12.953
638 2 4.12255 154.216 12.8608
639 2 7.97044 154.116 12.771
640 2 12.003 154.316 12.8078
641 2 0.146399 157.979 16.7874
642 2 3.9593 -0.279879 16.7616
643 2 7.82358 158.025 16.9502
644 2 11.9248 157.888 16.853
645 2 15.7696 3.57572 16.806
646 2 3.89412 3.45588 16.6919
647 2 8.12796 3.51114 16.9632
648 2 12.019 3.75978 16.8191
649 2 0.379311 7.50111 16.6314
650 2 4.05495 7.52644 16.9093
651 2 7.84208 7.63611 16.8228
652 2 11.6994 7.40417 16.5995
653 2 -0.0381943 11.504 16.7584
654 2 4.03715 11.4079 16.6245
655 2 7.93522 11.568 16.721
656 2 11.9096 11.3907 16.8297
657 2 0.104291 15.4348 16.6891
658 2 4.14105 15.4728 16.6729
659 2 8.11052 15.5276 16.6158
660 2 11.8787 15.3502 16.5628
661 2 15.8551 19.1607 16.4907
662 2 3.88335 19.3356 16.4164
663 2 7.65801 19.4397 16.4701
664 2 11.8966 19.3486 16.4123
665 2 -0.131142 23.2457 16.5532
666 2 4.15671 23.1971 16.5205
667 2 7.99701 23.2349 16.6491
668 2 11.7749 23.2401 16.5547
669 2 0.10515 27.0669 16.4872
670 2 4.08253 27.0231 16.5788
671 2 7.96495 26.9704 16.4043
672 2 11.9949 27.1148 16.3755
673 2 -0.0417858 30.9286 16.3962
674 2 3.80715 31.0043 16.3013
675 2 7.92602 31.0265 16.4768
676 2 11.6994 31.0526 16.4932
677 2 -0.00479436 34.9445 16.1216
678 2 3.85826 34.8226 16.5677
679 2 8.00035 34.7588 16.347
680 2 11.7799 35.0028 16.6415
681 2 -0.0459775 38.8124 16.5586
682 2 3.94732 38.9224 16.3144
683 2 8.07554 38.8091 16.5487
684 2 11.9552 38.7964 16.2901
685 2 -0.12118 42.8131 16.5706
686 2 4.05688 42.7728 16.459
687 2 8.0193 42.77 16.3066
688 2 11.9617 43.0701 16.3634
689 2 15.8221 46.8716 16.5561
690 2 4.09965 46.9082 16.3746
691 2 7.99956 46.7289 16.4444
692 2 11.7446 47.0225 16.5075
693 2 -0.0244487 50.8452 16.4508
694 2 3.9926 50.9557 16.5444
695 2 8.08999 50.9245 16.5706
696 2 12.0196 51.1111 16.4343
697 2 -0.0656837 54.8251 16.746
698 2 3.86899 54.8612 16.5875
699 2 7.76408 55.0372 16.7186
700 2 11.8407 55.0692 16.3833
701 2 -0.0993333 58.8605 16.5485
702 2 3.93282 59.0594 16.4748
703 2 7.97263 58.9565 16.7765
704 2 11.8286 59.0434 16.6151
705 2 -0.145589 63.3468 16.7795
706 2 3.80888 63.0015 16.9435
707 2 7.75284 63.2076 16.6715
708 2 11.7341 63.2205 16.8258
709 2 0.0231707 67.3032 16.943
710 2 3.78986 67.089 16.9196
711 2 7.84615 67.013 16.8343
712 2 11.6672 66.9804 16.8335
713 2 0.0251223 71.1518 17.1223
714 2 4.03192 71.1803 17.0208
715 2 7.77893 71.1013 16.8324
716 2 11.7858 71.2893 16.7801
717 2 0.0982675 75.0062 16.9887
718 2 3.97604 75.2232 17.0552
719 2 7.75362 75.0966 16.9142
720 2 11.8052 75.0901 17.1052
721 2 -0.201196 79.3463 16.7896
722 2 3.63441 79.0635 17.0556
723 2 7.64133 79.3113 16.9007
724 2 11.8402 79.3206 16.9176
725 2 0.101878 83.3228 17.1503
726 2 3.98972 83.307 17.0964
727 2 7.93007 83.2638 17.0226
728 2 11.8003 83.0453 17.1613
729 2 -0.0205417 87.2091 17.2078
730 2 3.96967 87.1643 16.9986
731 2 8.00579 87.2623 17.258
732 2 11.8122 87.117 17.1097
733 2 0.0979198 91.0984 17.177
734 2 4.03918 91.321 17.2819
735 2 8.22543 91.1567 17.0261
736 2 11.9649 91.2608 17.2118
737 2 -0.19657 95.4678 17.4647
738 2 3.9205 95.3168 17.3421
739 2 7.68105 95.3918 17.11
740 2 11.9222 95.1134 17.2851
741 2 -0.0655625 99.5138 17.4926
742 2 3.95942 99.3733 17.4879
743 2 7.98666 99.2196 17.468
744 2 11.8524 99.2993 17.2923
745 2 -0.0486722 103.374 17.2986
746 2 3.86916 103.502 17.2979
747 2 7.93251 103.246 17.6162
748 2 12.0071 103.539 17.3865
749 2 0.0866049 107.173 17.378
750 2 3.98448 107.36 17.5055
751 2 8.03863 107.295 17.5437
752 2 11.8859 107.481 17.4143
753 2 -0.0312322 111.149 17.3062
754 2 4.03006 111.205 17.2186
755 2 7.75097 111.269 17.3675
756 2 11.7716 111.296 17.5725
757 2 0.0879114 115.011 17.443
758 2 3.91539 115.085 17.3205
759 2 7.96311 115.082 17.2892
760 2 11.8338 115.079 17.3578
761 2 -0.0413613 118.94 17.3158
762 2 3.95955 118.937 17.2812
763 2 7.93317 119.046 17.2824
764 2 11.9331 119.052 17.3929
765 2 -0.117395 123.047 17.078
766 2 4.04631 122.985 17.0917
767 2 7.84862 122.91 17.222
768 2 11.8201 122.842 17.2037
769 2 15.7045 126.926 17.2879
770 2 4.00078 126.713 17.0956
771 2 7.94797 127.014 17.0336
772 2 11.7304 126.604 17.126
773 2 15.82 130.938 17.2272
774 2 4.12463 130.731 17.1439
775 2 8.03238 130.771 17.2865
776 2 11.9251 130.634 17.0973
777 2 15.953 134.888 16.9872
778 2 3.9072 134.731 17.0576
779 2 7.96976 134.488 17.1621
780 2 12.0028 134.703 16.9468
781 2 0.152385 138.712 16.9329
782 2 4.24078 138.57 16.9753
783 2 8.05126 138.437 17.1744
784 2 11.9702 138.537 17.0546
785 2 15.8464 142.636 17.1159
786 2 4.07969 142.355 17.012
787 2 7.87178 142.34 17.1243
788 2 11.9438 142.701 16.9746
789 2 15.7231 146.404 17.0201
790 2 4.0779 146.53 16.7614
791 2 7.97375 146.479 16.9846
792 2 11.932 146.425 16.9192
793 2 15.8921 150.176 17.125
794 2 4.10862 150.312 17.0032
795 2 8.06293 150.288 16.8913
796 2 11.9328 150.288 17.1198
797 2 15.957 154.214 16.9546
798 2 3.87267 154.065 16.81
799 2 8.11847 154.123 16.9712
800 2 11.8866 154.274 17.0162
801 2 15.7728 158.236 20.9701
802 2 4.01705 158.116 20.8744
803 2 7.85791 158.155 20.9518
804 2 11.9051 158.049 20.8395
805 2 -0.0419099 3.77336 20.6924
806 2 3.91883 3.57702 20.7188
807 2 8.01453 3.58537 20.7796
808 2 12.0595 3.76258 20.6183
809 2 15.922 7.61356 20.918
810 2 4.17992 7.51831 20.8009
811 2 8.21471 7.70648 20.7792
812 2 11.9985 7.6661 20.7742
813 2 15.8122 11.496 20.714
814 2 3.88699 11.6538 20.6722
815 2 7.9575 11.6132 20.7742
816 2 11.9137 11.7326 20.8472
817 2 15.8765 15.4321 20.6524
818 2 4.02359 15.363 20.8592
819 2 7.8623 15.4175 20.6798
820 2 11.97 15.5603 20.606
821 2 0.119349 19.4579 20.6355
822 2 3.85176 19.6103 20.5943
823 2 7.83878 19.1186 20.5828
824 2 11.7908 19.4151 20.6073
825 2 -0.159119 23.2393 20.6255
826 2 3.97185 23.3185 20.5479
827 2 7.93202 23.3062 20.5176
828 2 11.8424 23.2148 20.5743
829 2 15.8589 27.0745 20.3916
830 2 3.90125 27.2147 20.4355
831 2 7.97533 27.0834 20.5289
832 2 11.7543 27.2133 20.5406
833 2 15.7511 31.1186 20.4396
834 2 3.82474 31.1209 20.4706
835 2 7.71332 31.0546 20.4227
836 2 11.8623 31.1306 20.3753
837 2 15.7395 35.0884 20.3722
838 2 3.88757 34.951 20.5014
839 2 7.63431 34.8727 20.4968
840 2 11.872 34.9897 20.5834
841 2 -0.13371 38.999 20.5938
842 2 3.88856 38.9098 20.2444
843 2 7.76191 39.0684 20.4135
844 2 11.8394 38.6645 20.3853
845 2 15.5694 42.821 20.3348
846 2 3.90554 42.8564 20.3365
847 2 7.86119 42.7709 20.4076
848 2 11.6905 42.9231 20.3654
849 2 15.9748 46.9337 20.2917
850 2 4.07342 46.9236 20.4507
851 2 7.94403 46.9607 20.2845
852 2 11.7899 46.9934 20.5682
853 2 0.185088 50.7184 20.3615
854 2 4.22233 50.9162 20.3899
855 2 7.93546 50.8173 20.4874
856 2 11.815 50.8421 20.2373
857 2 0.183363 54.8863 20.568
858 2 4.26217 54.9186 20.4937
859 2 7.98512 54.9503 20.5418
860 2 11.9478 54.8203 20.4728
861 2 15.7394 58.9424 20.462
862 2 3.92579 59.0069 20.6455
863 2 8.02452 58.9588 20.5969
864 2 11.9382 59.0058 20.6112
865 2 15.8565 63.0635 20.7525
866 2 3.95717 62.946 20.739
867 2 7.98198 62.9103 20.6581
868 2 11.7423 63.0908 20.5458
869 2 0.00675384 66.9165 20.8079
870 2 4.01197 67.1187 20.8309
871 2 7.76301 66.8191 20.851
872 2 11.8277 67.2457 20.6558
873 2 -0.0264098 70.9529 20.7242
874 2 4.11423 70.9386 20.8864
875 2 7.87083 70.9868 20.7635
876 2 11.703 71.1732 20.9889
877 2 -0.124853 75.0424 20.8371
878 2 4.11378 75.1092 20.8759
879 2 8.20948 75.1483 20.8364
880 2 11.8798 74.979 20.8416
881 2 -0.0832085 79.0918 20.9096
882 2 3.91455 79.0847 20.7122
883 2 7.79834 79.0498 20.9249
884 2 11.9058 78.9266 20.8712
885 2 0.112961 83.2109 21.0399
886 2 4.06017 83.2917 21.0763
887 2 7.99356 83.0859 20.7761
888 2 12.0081 83.0902 21.2466
889 2 0.0430191 87.0923 21.1391
890 2 4.1207 87.0867 21.1319
891 2 8.10668 87.3212 21.0674
892 2 12.0096 87.1627 21.2539
893 2 0.261613 91.2396 21.0413
894 2 4.11013 91.2144 21.1184
895 2 7.96621 91.3622 21.1588
896 2 11.9519 91.2674 21.2529
897 2 -0.150552 95.2776 21.1102
898 2 3.97445 95.1555 21.0002
899 2 8.16475 95.4104 21.2477
900 2 12.0276 95.395 21.0544
901 2 0.24274 99.2902 21.2616
902 2 3.89824 99.3484 21.4254
903 2 7.91425 99.2067 21.2759
904 2 11.8381 99.3832 21.2745
905 2 -0.0605291 103.358 21.2729
906 2 4.03152 103.228 21.2157
907 2 7.79728 103.369 21.4866
908 2 11.8026 103.152 21.2248
909 2 -0.059426 107.199 21.2388
910 2 4.03365 107.211 21.4003
911 2 7.80269 107.17 21.5484
912 2 11.6286 107.299 21.1762
913 2 -0.00137138 111.211 21.3305
914 2 4.16339 111.166 21.4268
915 2 7.72467 111.05 21.4267
916 2 11.8426 111.277 21.488
917 2 15.9843 115.119 21.3355
918 2 4.12787 115.099 21.37
919 2 8.01737 115.209 21.3681
920 2 11.7823 115.141 21.2026
921 2 0.0416645 119.023 21.2996
922 2 4.00419 119.015 21.3367
923 2 7.953 119.168 21.3794
924 2 11.8216 119.039 21.3904
925 2 16.0612 122.765 21.2102
926 2 4.06198 122.945 21.1221
927 2 7.92946 122.922 21.2605
928 2 12.0504 123.027 21.237
929 2 15.8732 126.656 21.2514
930 2 4.03213 126.63 21.2644
931 2 7.98942 126.935 21.1287
932 2 11.9283 126.741 21.135
933 2 15.8741 130.739 21.1178
934 2 4.03563 130.572 21.1159
935 2 8.03758 130.905 21.1548
936 2 11.982 130.696 21.1666
937 2 0.423056 134.6 21.2158
938 2 4.19753 134.58 21.1593
939 2 8.06003 134.63 21.1965
940 2 12.0986 134.785 21.0517
941 2 15.9421 138.617 21.0569
942 2 4.11628 138.686 21.001
943 2 7.93537 138.599 21.0793
944 2 11.8063 138.582 21.0295
945 2 15.8905 142.458 21.0894
946 2 3.88695 142.518 20.9179
947 2 7.99955 142.446 20.8781
948 2 11.9138 142.433 21.0821
949 2 15.8895 146.309 21.0617
950 2 4.06042 146.329 21.0214
951 2 7.90956 146.232 20.9107
952 2 11.7806 146.482 21.0415
953 2 15.8685 150.159 21.1665
954 2 3.94682 150.342 21.0642
955 2 7.97565 150.213 20.9848
956 2 11.8308 150.302 21.0283
957 2 15.8454 154.28 21.0775
958 2 4.06309 154.186 20.9362
959 2 8.00604 154.102 20.9608
960 2 11.8215 154.063 20.934
961 2 0.0287887 158.169 24.9623
962 2 3.82774 158.04 24.9366
963 2 8.15782 158.117 24.9407
964 2 11.9759 158.17 24.8558
965 2 15.8485 3.85614 24.9784
966 2 4.10424 3.65265 24.9688
967 2 8.05568 3.74779 24.789
968 2 11.8596 3.77737 24.9466
969 2 15.7467 7.56931 24.9013
970 2 4.08102 7.64962 24.8601
971 2 8.01919 7.48032 24.5357
972 2 11.7528 7.68548 24.6526
973 2 15.73 11.3807 24.6744
974 2 4.03341 11.403 24.8797
975 2 7.90994 11.5708 24.8217
976 2 12.1352 11.6561 24.707
977 2 -0.0971813 15.4054 24.673
978 2 3.92271 15.533 24.7266
979 2 7.91166 15.3618 24.7032
980 2 11.7898 15.7441 24.7315
981 2 0.00897133 19.1582 24.5603
982 2 3.82843 19.6444 24.5438
983 2 7.88268 19.5036 24.5492
984 2 11.7423 19.5611 24.5859
985 2 -0.0233418 23.4645 24.6029
986 2 3.79366 23.2435 24.5705
987 2 7.92353 23.415 24.648
988 2 12.0255 23.263 24.6145
989 2 -0.184557 27.3334 24.6092
990 2 3.76256 27.2281 24.563
991 2 7.91159 27.2398 24.5342
992 2 11.7439 27.1802 24.5421
993 2 -0.122257 31.1688 24.3359