ITEM: TIMESTEP
22400
ITEM: NUMBER OF ATOMS
32000
ITEM: BOX BOUNDS xy xz yz pp pp pp
0.0000000000000000e+00 1.5832000000000001e+01 0.0000000000000000e+00
0.0000000000000000e+00 1.5831999999999999e+02 0.0000000000000000e+00
7.9560993298200344e-01 1.6018150806701351e+02 0.0000000000000000e+00
ITEM: ATOMS id type x y z
1 2 15.8924 158.073 159.959
2 2 3.94932 158.039 160.007
3 2 8.05216 158.093 160.009
4 2 11.9586 157.828 159.846
5 2 0.267652 3.75154 160.068
6 2 4.263 3.7363 160.066
7 2 7.95436 3.67901 159.964
8 2 12.0074 3.56876 160.001
9 2 15.7867 7.46857 160.125
10 2 4.2079 7.39356 159.827
11 2 8.13957 7.58894 159.981
12 2 12.0161 7.49325 159.856
13 2 15.9185 11.1223 159.854
14 2 3.94955 11.3518 159.985
15 2 8.03485 11.3418 160.041
16 2 11.6112 11.4065 159.833
17 2 0.140326 15.1939 159.836
18 2 3.91312 15.354 159.795
19 2 7.94448 15.2915 159.962
20 2 12.0826 15.2094 159.939
21 2 15.9853 19.2379 159.769
22 2 3.98756 19.2582 159.755
23 2 7.8081 19.2182 159.906
24 2 11.848 19.1154 159.929
25 2 15.6936 22.9654 159.699
26 2 4.02836 22.9489 159.728
27 2 8.04686 23.1376 159.851
28 2 11.6971 23.1853 159.958
29 2 15.8452 27.1118 159.861
30 2 4.04693 26.8465 159.82
31 2 7.92 26.8954 159.885
32 2 12.0743 27.1539 159.91
33 2 15.7284 31.1334 160.071
34 2 4.00265 30.9844 0.50507
35 2 8.00831 30.8808 159.744
36 2 12.0086 31.1038 159.747
37 2 0.0770802 35.2827 159.982
38 2 3.88293 35.0387 160.047
39 2 8.06029 35.106 160.085
40 2 11.9776 35.1307 159.862
41 2 0.152597 39.1959 160.054
42 2 4.05952 39.0647 0.442128
43 2 7.90192 39.0308 0.600653
44 2 11.9049 39.216 0.754111
45 2 0.187062 43.1757 160.051
46 2 4.25267 43.2368 159.919
47 2 8.09631 43.2541 0.788241
48 2 11.8646 43.3641 0.8267
49 2 0.189215 47.3537 0.643208
50 2 4.14775 47.1215 0.6522
51 2 8.17119 47.2703 0.878844
52 2 12.1111 47.3593 0.686261
53 2 0.198425 51.1819 0.93452
54 2 4.15346 51.1288 0.987613
55 2 7.95334 51.1458 0.666779
56 2 12.0505 51.1475 0.872804
57 2 15.8896 55.2386 0.862687
58 2 3.94618 55.2731 0.85578
59 2 7.7756 55.152 0.771336
60 2 11.9189 55.2879 0.879246
61 2 -0.0965917 59.2436 0.919577
62 2 3.79015 59.2786 0.946798
63 2 7.88049 59.0897 0.977577
64 2 11.9252 59.1862 0.919713
65 2 -0.12376 63.3265 1.02365
66 2 3.93364 63.2304 1.02366
67 2 8.02953 63.2591 0.824749
68 2 11.9011 63.2411 0.844207
69 2 15.9094 67.3004 1.00564
70 2 4.01367 67.2601 1.10284
71 2 8.07822 67.2925 0.790021
72 2 12.0477 67.1848 0.907943
73 2 0.227082 71.3042 1.30595
74 2 3.93873 71.3137 1.18989
75 2 8.00546 71.382 1.15904
76 2 12.01 71.2802 1.08719
77 2 -0.0319221 75.4137 1.21242
78 2 3.83594 75.3037 0.994096
79 2 7.81288 75.3049 1.42054
80 2 11.7434 75.1823 1.28439
81 2 0.0353644 79.404 1.35477
82 2 3.90742 79.3155 1.54496
83 2 8.03973 79.5346 1.32698
84 2 12.0407 79.2856 1.18938
85 2 -0.179704 83.3504 1.41053
86 2 4.14169 83.4042 1.35408
87 2 8.17019 83.4127 1.35873
88 2 11.8022 83.2546 1.3136
89 2 -0.125386 87.3407 1.52834
90 2 3.78979 87.3177 1.47485
91 2 7.71984 87.3156 1.56839
92 2 11.7438 87.3852 1.50858
93 2 -0.0316852 91.3794 1.36865
94 2 3.96959 91.2737 1.5728
95 2 7.62119 91.3657 1.34727
96 2 11.8541 91.3957 1.39113
97 2 16.0718 95.3628 1.40738
98 2 4.13735 95.2514 1.65304
99 2 8.04433 95.343 1.56419
100 2 12.0501 95.2946 1.60009
101 2 0.154694 99.2874 1.14119
102 2 4.06113 99.2822 1.39298
103 2 8.03293 99.1275 1.2295
104 2 11.9201 99.0432 1.47035
105 2 0.0660868 103.091 1.27589
106 2 4.17238 103.117 1.40162
107 2 8.07987 103.118 1.24601
108 2 11.8593 103.171 1.40573
109 2 0.0624036 106.875 1.24889
110 2 4.06312 106.987 1.18162
111 2 8.06506 107.085 1.35316
112 2 11.8933 107.091 1.45629
113 2 0.0238959 110.81 1.14084
114 2 4.05713 110.96 1.20833
115 2 8.10226 110.894 1.04299
116 2 12.1254 110.816 1.27109
117 2 15.9031 114.748 1.16915
118 2 3.9953 115.065 1.12765
119 2 7.91862 114.753 1.23168
120 2 11.871 115.026 1.1766
121 2 0.000111857 118.844 1.10246
122 2 4.06756 118.849 1.26742
123 2 8.06466 118.781 1.20846
124 2 11.7261 118.888 1.21544
125 2 15.8965 122.677 1.1299
126 2 3.87779 122.843 1.29228
127 2 8.00443 122.843 1.02363
128 2 11.8662 122.651 1.13946
129 2 0.0766448 126.608 0.926728
130 2 3.90783 126.623 1.03194
131 2 7.9201 126.63 0.959037
132 2 11.9371 126.738 1.1139
133 2 15.9564 130.625 0.978857
134 2 4.16185 130.487 1.00087
135 2 7.94757 130.379 0.880656
136 2 12.1558 130.493 0.98336
137 2 15.9545 134.579 0.927914
138 2 4.14759 134.504 0.845326
139 2 8.06571 134.615 160.403
140 2 11.846 134.606 0.980682
141 2 0.25974 138.286 0.760239
142 2 4.09147 138.451 160.11
143 2 8.10487 138.455 160.124
144 2 11.8466 138.41 0.987696
145 2 15.9151 142.439 160.194
146 2 3.89495 142.457 160.132
147 2 7.879 142.326 160.312
148 2 12.0095 142.349 160.335
149 2 -0.0553021 146.321 160.239
150 2 4.08554 146.299 160.066
151 2 7.82591 146.136 160.072
152 2 11.9279 146.336 160.223
153 2 16.0468 150.303 160.016
154 2 4.03858 150.003 160.079
155 2 8.10836 150.365 160.096
156 2 11.9439 150.258 0.732987
157 2 16.0085 154.163 160.04
158 2 4.15323 154.188 160.098
159 2 7.85928 154.049 159.97
160 2 12.03 153.86 160.032
161 2 15.8917 158.087 4.72417
162 2 4.09849 157.988 4.58791
163 2 8.08567 158.125 4.65197
164 2 12.1853 157.977 4.53948
165 2 0.151674 3.59843 4.62648
166 2 4.08793 3.60816 4.71298
167 2 8.05615 3.49126 4.72617
168 2 12.0787 3.45608 4.53192
169 2 0.0640216 7.51479 4.67724
170 2 4.09022 7.57968 4.60267
171 2 8.12578 7.36869 4.54177
172 2 12.0505 7.39386 4.61989
173 2 -0.00748912 11.2264 4.64059
174 2 3.85902 11.4933 4.59341
175 2 7.8462 11.2377 4.43596
176 2 11.987 11.4717 4.66652
177 2 15.9079 15.1727 4.43508
178 2 4.05324 15.3825 4.43044
179 2 7.9453 15.1001 4.4273
180 2 11.7753 15.2778 4.52558
181 2 0.121823 19.2726 4.43002
182 2 3.89874 19.2152 4.38109
183 2 8.01618 19.2924 4.54174
184 2 11.9941 19.4188 4.41594
185 2 0.21142 23.0337 4.39249
186 2 4.07751 23.1409 4.55878
187 2 8.07264 22.9723 4.52205
188 2 11.8861 23.2337 4.65664
189 2 15.9805 27.0542 4.27432
190 2 4.09289 26.8257 4.6118
191 2 8.04287 26.8523 4.43011
192 2 12.0177 26.9719 4.53199
193 2 0.00785578 31.0043 4.67902
194 2 3.81967 30.9985 4.65194
195 2 7.8689 30.9458 4.20725
196 2 11.8706 30.9204 4.49296
197 2 0.12391 35.0158 4.52473
198 2 3.98591 34.9502 4.50277
199 2 7.91008 35.0109 4.43679
200 2 12.0687 35.1942 4.48658
201 2 16.1013 39.1761 4.56163
202 2 4.04702 38.975 4.37721
203 2 8.12316 39.1191 4.37135
204 2 12.1502 39.0607 4.62779
205 2 0.0615278 43.1694 4.62894
206 2 3.97768 43.1265 4.44405
207 2 7.95465 43.0862 4.66984
208 2 11.7801 43.0386 4.68104
209 2 -0.0500943 47.1804 4.75703
210 2 3.97615 47.088 4.5586
211 2 7.98535 47.0715 4.61582
212 2 12.0544 47.203 4.83492
213 2 0.273219 51.1874 4.70148
214 2 4.10647 51.1403 4.80207
215 2 7.979 51.0299 4.61718
216 2 11.9357 51.1816 4.61246
217 2 0.0449022 55.1422 4.87979
218 2 4.08268 55.2173 4.90823
219 2 7.89681 55.0558 4.79116
220 2 11.8429 55.1045 4.82639
221 2 15.826 59.1818 4.91025
222 2 3.98171 59.0496 4.88281
223 2 7.86977 59.2325 4.69494
224 2 11.9714 59.1409 4.95632
225 2 0.252105 63.2305 4.79128
226 2 4.1734 63.203 4.95578
227 2 8.14613 63.2637 4.86266
228 2 11.9993 63.1149 4.85964
229 2 15.9926 67.2645 4.89177
230 2 4.21214 67.3544 5.0468
231 2 7.9457 67.1328 4.76295
232 2 11.8385 67.0676 4.95499
233 2 15.5971 71.1839 4.97465
234 2 3.89825 71.2009 5.14686
235 2 7.80911 71.1523 5.03484
236 2 11.7924 71.0875 4.83472
237 2 15.7998 75.4495 5.10497
238 2 3.93989 75.3833 5.18793
239 2 7.74834 75.2318 5.13167
240 2 11.7278 75.1903 5.13451
241 2 0.0952914 79.5054 5.1475
242 2 3.85323 79.3636 5.36311
243 2 7.85911 79.2639 5.18549
244 2 11.8708 79.2804 5.163
245 2 15.8889 83.4721 5.43883
246 2 4.03923 83.4267 5.34041
247 2 7.95589 83.5351 5.30234
248 2 11.9934 83.373 5.40867
249 2 -0.00330092 87.2975 5.23873
250 2 3.92919 87.5032 5.54339
251 2 7.95589 87.2055 5.40288
252 2 11.9706 87.3361 5.39246
253 2 0.042059 91.4443 5.52549
254 2 3.89264 91.4969 5.56181
255 2 8.27343 91.4202 5.56186
256 2 11.8973 91.2674 5.25705
257 2 15.7795 95.3729 5.56238
258 2 3.68618 95.2941 5.39585
259 2 7.87066 95.2759 5.3723
260 2 11.9984 95.364 5.44133
261 2 0.0262938 99.2455 5.4563
262 2 4.05091 98.9926 5.36621
263 2 8.15631 99.2896 5.49965
264 2 12.0496 99.1135 5.40819
265 2 0.0761967 103.101 5.25011
266 2 3.94247 103.039 5.25358
267 2 7.89624 103.1 5.38608
268 2 12.1152 102.941 5.25886
269 2 15.7903 106.964 5.28859
270 2 3.90601 106.833 5.20101
271 2 7.81218 107.061 5.45416
272 2 11.8923 107.017 5.30854
273 2 15.9553 110.879 5.16715
274 2 3.99155 110.976 5.15375
275 2 7.97261 111.062 5.36526
276 2 11.8967 111.174 5.21534
277 2 0.287746 114.925 5.27438
278 2 3.97699 114.867 5.18767
279 2 7.91377 114.794 5.3097
280 2 11.8805 114.86 5.20235
281 2 0.0716948 118.757 5.21747
282 2 4.00718 118.67 5.10516
283 2 8.03778 118.818 5.19405
284 2 12.1552 118.9 5.16241
285 2 15.684 122.763 5.27329
286 2 4.01243 122.659 5.12878
287 2 8.11011 122.636 5.09688
288 2 11.9658 122.853 5.12885
289 2 0.118513 126.602 4.86072
290 2 4.00903 126.683 4.94056
291 2 8.04848 126.701 5.10452
292 2 11.792 126.707 5.15934
293 2 0.170526 130.619 4.86554
294 2 3.99031 130.694 5.07068
295 2 7.91107 130.73 5.07894
296 2 11.7028 130.537 4.86647
297 2 15.9989 134.5 4.96813
298 2 3.92748 134.564 5.15575
299 2 7.89552 134.507 5.02469
300 2 11.998 134.502 4.87156
301 2 -0.179492 138.383 4.8537
302 2 3.8893 138.636 4.97516
303 2 8.10939 138.516 4.71077
304 2 12.0174 138.397 4.97931
305 2 0.182076 142.386 4.72083
306 2 4.0602 142.319 4.8016
307 2 8.03966 142.426 4.80512
308 2 12.0041 142.308 4.75086
309 2 15.9173 146.264 4.8466
310 2 4.09216 146.309 4.84465
311 2 8.07765 146.246 4.94903
312 2 11.8841 146.343 4.7429
313 2 16.0719 150.242 4.75979
314 2 4.0844 150.203 4.61465
315 2 7.92406 150.084 4.65738
316 2 11.8864 150.126 4.45994
317 2 15.916 154.199 4.68698
318 2 4.1208 154.244 4.77736
319 2 7.7185 154.256 4.63213
320 2 11.9617 154.135 4.61408
321 2 15.7823 157.982 8.66384
322 2 4.05059 158.105 8.6593
323 2 8.00256 157.972 8.75801
324 2 11.8856 157.83 8.76051
325 2 15.8647 3.73028 8.85348
326 2 3.99111 3.65355 8.7207
327 2 7.94776 3.5922 8.85237
328 2 12.0596 3.58208 8.59486
329 2 15.9464 7.59022 8.65646
330 2 4.16955 7.41121 8.61387
331 2 8.09741 7.4552 8.57721
332 2 11.8391 7.36992 8.49329
333 2 -0.0427666 11.2936 8.49855
334 2 4.04707 11.3741 8.5184
335 2 8.06622 11.5428 8.59523
336 2 11.8236 11.2335 8.39951
337 2 15.982 15.1746 8.40207
338 2 4.16425 15.4243 8.47323
339 2 7.92364 15.3275 8.53721
340 2 11.747 15.3195 8.60954
341 2 0.132274 19.1922 8.62512
342 2 3.93221 19.1847 8.45912
343 2 8.20521 19.164 8.69139
344 2 12.2065 19.2177 8.42846
345 2 0.121468 23.0198 8.42007
346 2 4.0195 23.0614 8.6199
347 2 7.97072 22.9735 8.656
348 2 11.9752 23.1273 8.45251
349 2 0.068247 27.0293 8.29737
350 2 3.99603 26.9999 8.42401
351 2 7.92487 26.9421 8.45686
352 2 12.145 26.915 8.48722
353 2 -0.0401959 31.0231 8.44832
354 2 3.84342 30.9928 8.43612
355 2 7.9969 30.9057 8.24203
356 2 11.8243 31.0053 8.61103
357 2 15.9059 35.0873 8.36991
358 2 4.06152 34.8993 8.54647
359 2 7.85434 34.9477 8.31299
360 2 11.9152 34.8711 8.26654
361 2 -0.0312147 38.9996 8.45671
362 2 4.22669 38.9871 8.3329
363 2 8.10003 39.0684 8.51144
364 2 11.9591 39.0565 8.40447
365 2 0.294869 43.2389 8.50338
366 2 4.18335 43.1788 8.44257
367 2 8.10426 43.2256 8.4837
368 2 11.9398 43.192 8.49767
369 2 0.196002 47.1699 8.69994
370 2 4.07196 46.9799 8.54257
371 2 8.0216 47.1698 8.44664
372 2 11.9242 47.1788 8.72378
373 2 15.9514 50.983 8.55236
374 2 4.08753 51.0857 8.59464
375 2 7.96391 50.963 8.57734
376 2 11.9304 51.0928 8.79583
377 2 15.8869 55.1245 8.69323
378 2 3.90908 55.096 8.81531
379 2 7.82719 55.2869 8.85821
380 2 11.9034 55.0675 8.78909
381 2 0.0525274 59.0768 8.85269
382 2 4.03414 59.1115 8.75701
383 2 8.01775 59.1313 8.84452
384 2 12.0523 59.0404 8.69142
385 2 0.274161 63.1532 8.81444
386 2 4.21514 62.9951 8.84917
387 2 8.0687 62.9293 8.7393
388 2 12.083 63.0308 8.76204
389 2 15.6605 67.0988 9.09708
390 2 3.87402 67.1124 8.88812
391 2 8.07279 67.0665 8.8939
392 2 11.9177 67.1123 8.72083
393 2 15.7284 71.1358 8.94669
394 2 3.79699 71.3019 8.93366
395 2 7.97009 71.426 9.07051
396 2 11.852 71.1393 8.75821
397 2 15.702 75.1708 8.85209
398 2 3.85766 75.1682 9.04811
399 2 7.89532 75.1408 9.0528
400 2 11.8565 75.3284 8.88386
401 2 15.8655 79.1779 9.18729
402 2 3.91581 79.314 9.23838
403 2 7.92042 79.3286 9.16191
404 2 11.9137 79.1925 9.0963
405 2 -0.0457978 83.13 9.09454
406 2 3.91085 83.305 9.29542
407 2 7.75607 83.3531 9.17263
408 2 11.9683 83.3482 9.23376
409 2 0.0804303 87.4285 9.31524
410 2 4.00402 87.256 9.29957
411 2 7.99214 87.3933 9.31152
412 2 12.0158 87.5195 9.43006
413 2 0.0882666 91.2728 9.44342
414 2 4.20804 91.3722 9.22161
415 2 8.03256 91.2802 9.42305
416 2 11.952 91.4268 9.22433
417 2 15.8689 95.1403 9.44921
418 2 4.06676 95.2844 9.19843
419 2 8.03329 95.4678 9.41211
420 2 11.8997 95.4407 9.52773
421 2 15.7802 99.2009 9.53335
422 2 3.89949 99.2822 9.50875
423 2 8.03502 99.5679 9.42339
424 2 12.0377 99.2984 9.43739
425 2 0.0298216 103.332 9.523
426 2 3.90607 103.466 9.35659
427 2 7.97871 103.145 9.22418
428 2 11.8347 103.185 9.42393
429 2 0.00287514 107.266 9.39233
430 2 3.93642 107.213 9.24121
431 2 7.93643 107.054 9.35552
432 2 11.9276 107.092 9.2543
433 2 15.6768 111.177 9.01901
434 2 3.95377 111.082 9.38322
435 2 8.01151 110.803 9.17784
436 2 11.851 110.933 9.50325
437 2 0.0568189 115.096 9.27135
438 2 3.94832 114.975 9.26645
439 2 7.81357 114.896 9.3252
440 2 11.8031 115.19 9.14009
441 2 0.027486 118.825 9.02723
442 2 4.00271 118.951 9.2034
443 2 7.94655 118.624 9.11519
444 2 11.9299 118.986 9.21491
445 2 15.8735 122.824 9.20888
446 2 3.99595 122.898 9.3281
447 2 7.77668 122.731 9.05414
448 2 11.8822 122.653 9.26035
449 2 15.8248 126.745 8.89133
450 2 4.10961 126.618 8.96888
451 2 8.066 126.844 9.08945
452 2 11.9225 126.845 9.15895
453 2 0.162929 130.592 9.07634
454 2 4.10958 130.671 8.954
455 2 8.09951 130.798 9.05482
456 2 12.0934 130.77 8.92955
457 2 0.157094 134.597 8.99833
458 2 4.15504 134.684 9.02905
459 2 8.17411 134.584 8.93249
460 2 12.1081 134.585 8.88207
461 2 0.11353 138.506 8.92449
462 2 4.21252 138.651 8.93505
463 2 8.01319 138.556 9.10232
464 2 11.8999 138.457 8.98221
465 2 0.10876 142.437 8.85124
466 2 4.0266 142.409 8.79422
467 2 8.03293 142.41 8.93654
468 2 12.2224 142.501 8.92007
469 2 15.9319 146.298 8.90071
470 2 4.105 146.281 8.97958
471 2 8.22941 146.332 8.88851
472 2 12.029 146.36 8.90306
473 2 16.0477 150.289 8.72205
474 2 3.8663 150.191 8.70349
475 2 7.92717 150.311 8.75523
476 2 12.0773 150.093 8.75657
477 2 16.1357 153.945 8.70688
478 2 4.04686 154.178 8.77825
479 2 8.12627 154.053 8.53321
480 2 12.1412 154.05 8.66566
481 2 15.8165 158.008 12.6484
482 2 4.12509 158.094 12.8323
483 2 8.03131 158.046 12.9941
484 2 11.8181 158.064 12.4796
485 2 15.8837 3.64527 12.7009
486 2 3.9605 3.73176 12.6847
487 2 8.12198 3.49259 12.7483
488 2 12.0527 3.61569 12.7566
489 2 15.9086 7.81348 12.5609
490 2 4.22752 7.41078 12.6295
491 2 8.09691 7.606 12.8196
492 2 11.9612 7.50622 12.6694
493 2 0.0667864 11.3339 12.7209
494 2 4.03691 11.5569 12.5022
495 2 7.86736 11.5972 12.5822
496 2 11.9656 11.5306 12.7203
497 2 0.150155 15.1631 12.4543
498 2 3.96402 15.2607 12.4812
499 2 7.98447 15.301 12.6022
500 2 11.9534 15.3178 12.7353
501 2 0.128316 19.1856 12.7773
502 2 3.88352 19.2957 12.6172
503 2 7.95843 19.3709 12.7045
504 2 12.0954 19.1262 12.5936
505 2 0.0163216 23.1717 12.5024
506 2 3.88971 23.2911 12.5101
507 2 7.98729 23.0628 12.5481
508 2 12.0496 23.3677 12.4986
509 2 0.0892875 26.8956 12.4183
510 2 4.00146 27.0812 12.4974
511 2 8.03093 27.0093 12.3544
512 2 11.9502 27.0177 12.4013
513 2 0.0481704 30.9046 12.4369
514 2 4.06639 30.8048 12.3447
515 2 7.88433 30.9244 12.402
516 2 11.8551 30.9614 12.415
517 2 0.258487 34.9484 12.1337
518 2 4.22981 34.9365 12.4722
519 2 7.89708 35.022 12.4118
520 2 12.1534 34.8711 12.3557
521 2 0.0549394 39.0778 12.4406
522 2 3.92994 38.975 12.2217
523 2 7.96757 38.9698 12.291
524 2 11.9956 38.944 12.23
525 2 0.10415 43.0689 12.5071
526 2 4.02667 42.8817 12.3418
527 2 7.90756 42.9198 12.3908
528 2 11.9169 43.2094 12.2551
529 2 0.218202 47.1157 12.5965
530 2 4.07844 47.0959 12.492
531 2 7.96647 47.0345 12.4483
532 2 11.995 47.2053 12.5342
533 2 0.227615 51.0423 12.5174
534 2 4.09213 51.0337 12.5098
535 2 7.8186 51.0228 12.6953
536 2 12.0329 51.1773 12.6139
537 2 15.8997 55.0812 12.5894
538 2 4.0696 54.8714 12.6669
539 2 8.09026 54.9487 12.7582
540 2 12.0404 55.1373 12.3788
541 2 15.9805 58.9772 12.7849
542 2 4.02763 59.0358 12.8306
543 2 8.10482 58.9617 12.9067
544 2 11.8357 59.2506 12.85
545 2 15.8983 63.0349 12.6182
546 2 4.04259 63.1975 12.9297
547 2 8.10688 63.0933 12.4203
548 2 12.0859 63.1946 12.8478
549 2 -0.0514466 67.1496 12.8861
550 2 3.80722 67.1758 12.7387
551 2 7.90952 67.1035 12.7351
552 2 11.8941 67.046 12.7375
553 2 -0.162977 71.16 12.8222
554 2 3.95893 71.0163 12.8358
555 2 7.84846 71.181 12.7279
556 2 11.8622 71.2368 12.8332
557 2 -0.0766866 75.1821 13.0308
558 2 3.83143 75.2146 12.8522
559 2 7.91352 75.1425 13.0777
560 2 11.7806 75.3517 13.258
561 2 -0.0888814 79.1678 12.9921
562 2 3.96751 79.0809 13.0285
563 2 7.89704 79.0614 12.945
564 2 11.8548 79.3727 13.117
565 2 -0.0364576 83.3362 13.1655
566 2 3.92964 83.3041 13.1741
567 2 7.8621 83.1214 13.0867
568 2 12.0248 83.4474 13.141
569 2 0.0806089 87.2926 13.179
570 2 4.0798 87.3256 13.2125
571 2 8.14299 87.253 13.1857
572 2 11.9049 87.2342 13.2498
573 2 0.195962 91.4434 13.3152
574 2 4.08034 91.3377 13.3089
575 2 7.96484 91.2944 13.361
576 2 11.9653 91.3986 13.3303
577 2 0.0459218 95.4003 13.5222
578 2 3.95778 95.2429 13.4384
579 2 7.95238 95.3359 13.1772
580 2 11.7737 95.3786 13.4977
581 2 0.182832 99.109 13.2027
582 2 3.99688 99.4555 13.3818
583 2 7.8116 99.3873 13.5527
584 2 11.9271 99.3438 13.4273
585 2 -0.0505413 103.155 13.4943
586 2 3.80352 103.338 13.6008
587 2 7.59088 103.12 13.4209
588 2 11.6661 103.363 13.362
589 2 -0.171512 107.295 13.2913
590 2 3.92566 107.226 13.3541
591 2 7.82294 107.104 13.2777
592 2 11.811 107.2 13.5151
593 2 0.232318 111.272 13.3721
594 2 4.04432 111.08 13.321
595 2 7.96946 111.108 13.485
596 2 11.7989 111.088 13.5185
597 2 -0.0167563 115.136 13.2961
598 2 3.85599 115.09 13.2298
599 2 7.96903 115.135 13.2363
600 2 11.7675 115.141 13.3631
601 2 0.0301316 118.871 13.1537
602 2 4.10333 119.061 13.2216
603 2 7.96771 118.907 13.1835
604 2 11.8297 118.971 13.2039
605 2 -0.0390276 122.956 13.0423
606 2 3.8903 122.891 13.0367
607 2 7.86307 122.973 13.1966
608 2 11.8853 122.852 13.0671
609 2 0.184959 126.839 12.9341
610 2 4.14042 126.851 13.185
611 2 8.21399 126.882 12.8539
612 2 12.0115 126.734 13.041
613 2 16.0757 130.635 12.9906
614 2 4.09488 130.696 12.997
615 2 7.99345 130.704 12.8691
616 2 12.1149 130.552 12.9118
617 2 15.8652 134.535 12.8973
618 2 4.1012 134.649 12.9046
619 2 8.08549 134.612 13.1044
620 2 11.84 134.521 13.1597
621 2 0.282016 138.536 12.9364
622 2 4.11304 138.628 13.0739
623 2 7.95957 138.604 13.0386
624 2 11.9472 138.547 13.0263
625 2 15.8768 142.377 12.9941
626 2 4.10776 142.518 12.9643
627 2 7.9217 142.517 13.0492
628 2 12.0032 142.297 13.0981
629 2 0.130516 146.519 12.9667
630 2 4.00991 146.441 12.6871
631 2 8.18494 146.113 12.784
632 2 11.9142 146.357 12.7046
633 2 -0.000804239 150.284 12.9177
634 2 3.95333 150.323 12.8727
635 2 7.95118 150.366 12.9301
636 2 11.9182 150.347 12.8874
637 2 15.8115 153.956 12.8479
638 2 4.06878 154.36 12.7432
639 2 7.97419 154.171 12.7223
640 2 11.9972 154.158 12.8686
641 2 0.109366 158.085 16.7996
642 2 3.95352 -0.183261 16.7565
643 2 8.00298 158.173 16.9527
644 2 11.9506 158.003 16.7016
645 2 15.8204 3.65253 16.6485
646 2 4.20191 3.74594 16.7731
647 2 8.13237 3.77478 16.6897
648 2 12.0632 3.7626 16.8312
649 2 0.17786 7.7669 16.6009
650 2 4.15099 7.52766 16.7422
651 2 7.88317 7.56775 16.8033
652 2 11.9625 7.58396 16.547
653 2 -0.275462 11.4128 16.6206
654 2 4.01254 11.5438 16.5972
655 2 7.96928 11.5799 16.7451
656 2 11.9791 11.3518 16.6994
657 2 0.0891256 15.41 16.8203
658 2 4.16672 15.3077 16.6179
659 2 8.10647 15.5256 16.5632
660 2 11.8777 15.5197 16.5393
661 2 15.9213 19.1269 16.5298
662 2 3.87254 19.3654 16.4557
663 2 7.71893 19.3375 16.6185
664 2 11.8878 19.2831 16.6147
665 2 -0.147698 23.185 16.4618
666 2 3.95235 23.0977 16.5782
667 2 8.16671 23.2187 16.4267
668 2 11.8734 23.0485 16.5609
669 2 0.0911499 27.0315 16.5074
670 2 4.02217 27.2541 16.5055
671 2 7.98052 27.0608 16.3733
672 2 12.0615 27.0608 16.3918
673 2 -0.0723109 31.2362 16.3193
674 2 3.69359 31.0205 16.3114
675 2 7.88719 31.0974 16.4537
676 2 11.7954 31.1321 16.361
677 2 0.0499524 34.9493 16.273
678 2 3.94015 35.0774 16.3478
679 2 7.723 34.9567 16.2724
680 2 11.8817 35.0133 16.6044
681 2 0.0739673 38.9959 16.4586
682 2 3.93722 38.9243 16.096
683 2 7.93187 39.0293 16.1675
684 2 12.0256 39.0557 16.2394
685 2 0.106607 42.9018 16.5078
686 2 3.9367 42.8853 16.3788
687 2 8.15535 42.9144 16.1466
688 2 11.9973 43.1183 16.2669
689 2 15.9457 46.9211 16.4183
690 2 3.95216 46.8374 16.365
691 2 7.9485 46.7986 16.3782
692 2 11.9768 47.052 16.4857
693 2 0.19531 50.8908 16.3907
694 2 3.9854 51.0208 16.5505
695 2 8.0112 50.8936 16.5294
696 2 11.9543 51.0637 16.4023
697 2 -0.0115068 54.9435 16.6152
698 2 4.02371 54.875 16.4358
699 2 7.89509 55.0765 16.6475
700 2 12.0142 54.9227 16.522
701 2 0.114322 59.006 16.6658
702 2 4.0298 58.986 16.5048
703 2 8.06108 58.9445 16.5968
704 2 11.9693 59.0578 16.7965
705 2 -0.0501736 63.1428 16.7731
706 2 4.05337 62.8589 16.652
707 2 7.8586 63.0435 16.5612
708 2 11.9419 63.1388 16.7133
709 2 -0.072494 67.2388 16.7195
710 2 3.73299 66.9927 16.6145
711 2 7.92119 67.0849 16.6062
712 2 11.7203 67.0905 16.6873
713 2 -0.0114036 71.1624 16.8831
714 2 3.8314 71.2718 16.7271
715 2 7.93498 71.0074 16.5907
716 2 11.7798 71.3085 16.744
717 2 0.0733189 75.0306 16.7885
718 2 3.85122 75.1612 16.9476
719 2 7.93201 75.1688 16.9757
720 2 11.7509 75.2287 17.2268
721 2 -0.0975239 79.2873 16.927
722 2 3.65703 79.1228 17.1721
723 2 7.75331 79.2444 17.1194
724 2 11.7806 79.2435 17.1148
725 2 0.0532671 83.1704 17.1288
726 2 3.84022 83.2171 16.9504
727 2 7.76594 83.2771 16.9755
728 2 11.7716 83.2134 17.1639
729 2 -0.0613575 87.2128 17.1306
730 2 3.90337 87.1809 16.9247
731 2 7.69061 87.2588 17.1881
732 2 11.8424 87.0061 17.1096
733 2 0.0466425 90.9895 17.1311
734 2 4.03615 91.208 17.3429
735 2 8.12242 91.1798 17.1739
736 2 11.8201 91.1939 17.3011
737 2 -0.0366447 95.2964 17.2588
738 2 3.90947 95.1988 17.3784
739 2 7.62353 95.1914 17.2736
740 2 11.8923 95.2109 17.4493
741 2 -0.0318366 99.3718 17.5805
742 2 3.89727 99.3655 17.5503
743 2 8.01503 99.1497 17.2575
744 2 11.9613 99.25 17.5048
745 2 -0.0193289 103.188 17.4923
746 2 3.89211 103.325 17.4437
747 2 7.87483 103.08 17.5517
748 2 11.9451 103.346 17.413
749 2 0.00452015 107.108 17.4148
750 2 4.10191 107.425 17.2876
751 2 8.02904 107.285 17.4061
752 2 11.745 107.501 17.4524
753 2 -0.143956 111.232 17.2824
754 2 4.1386 111.181 17.2416
755 2 7.88263 111.168 17.5485
756 2 11.8371 111.158 17.3218
757 2 0.102987 115.141 17.4277
758 2 3.94504 115.071 17.3213
759 2 7.9484 115.1 17.161
760 2 11.8963 115.118 17.3032
761 2 -0.101422 119.214 17.1794
762 2 3.92437 118.994 17.2319
763 2 7.88399 118.9 17.3191
764 2 11.9942 119.066 17.3319
765 2 -0.095421 123.134 17.0046
766 2 4.17762 122.932 17.046
767 2 7.82919 122.892 17.1095
768 2 12.0165 122.84 17.1994
769 2 15.9383 127.041 17.2092
770 2 4.15527 126.75 17.0811
771 2 7.98769 126.832 16.8122
772 2 11.8734 126.614 17.0816
773 2 15.9891 130.98 17.1024
774 2 4.18302 130.756 17.1053
775 2 8.01948 130.692 17.1987
776 2 11.9677 130.569 17.082
777 2 15.7859 134.659 17.153
778 2 3.87455 134.869 17.149
779 2 7.77435 134.422 17.07
780 2 11.9932 134.46 17.1032
781 2 -0.051549 138.741 16.9439
782 2 4.0351 138.665 17.0367
783 2 8.13463 138.469 16.9559
784 2 11.943 138.443 16.9509
785 2 15.951 142.659 17.0788
786 2 4.03381 142.528 16.9044
787 2 7.97737 142.383 16.9978
788 2 11.9989 142.589 16.9302
789 2 15.8768 146.442 16.9909
790 2 4.0219 146.631 16.782
791 2 8.02883 146.519 16.9516
792 2 11.9917 146.412 16.6979
793 2 15.9445 150.19 17.1056
794 2 4.09024 150.332 16.9347
795 2 7.92237 150.247 16.7789
796 2 11.9773 150.362 16.9111
797 2 15.9091 154.069 16.9634
798 2 3.89235 154.24 16.7568
799 2 7.95432 154.387 16.8745
800 2 12.001 154.302 16.8808
801 2 15.8489 158.186 20.8406
802 2 4.10002 158.068 20.8655
803 2 7.78708 158.197 20.8774
804 2 11.9093 158.177 20.9454
805 2 0.0844656 3.76946 20.728
806 2 3.92285 3.81933 20.8181
807 2 7.86938 3.63011 20.66
808 2 12.0698 3.55378 20.6493
809 2 16.0398 7.49332 20.841
810 2 4.08845 7.48862 20.7715
811 2 7.99945 7.62969 20.8214
812 2 12.1366 7.59332 20.6384
813 2 15.8655 11.5363 20.6746
814 2 3.81312 11.7219 20.6097
815 2 7.74164 11.566 20.8116
816 2 11.781 11.5897 20.7744
817 2 15.9736 15.4181 20.6119
818 2 4.01249 15.4276 20.8321
819 2 7.84978 15.2418 20.5696
820 2 11.7992 15.576 20.6001
821 2 0.0593699 19.439 20.6037
822 2 3.90414 19.4134 20.6674
823 2 7.85573 19.2204 20.5526
824 2 11.81 19.3569 20.5609
825 2 -0.11774 23.1622 20.456
826 2 3.99854 23.3395 20.5925
827 2 7.91023 23.2685 20.6595
828 2 11.8433 23.2044 20.5682
829 2 15.7578 27.0883 20.485
830 2 3.93628 27.1639 20.5361
831 2 7.93186 27.2411 20.5709
832 2 11.814 27.1523 20.4485
833 2 15.8139 31.1609 20.457
834 2 3.94231 30.9785 20.4404
835 2 7.87225 30.9127 20.3719
836 2 11.9093 31.0195 20.2631
837 2 15.9003 35.2406 20.4277
838 2 4.11029 34.9695 20.403
839 2 7.83316 35.0996 20.2557
840 2 11.9123 34.9985 20.4725
841 2 0.0967482 39.0524 20.5511
842 2 3.92246 39.0133 20.2164
843 2 8.02916 38.9436 20.2213
844 2 11.9603 38.8944 20.2881
845 2 15.6137 42.8797 20.3158
846 2 4.0155 42.964 20.2621
847 2 7.89461 42.8951 20.0783
848 2 11.691 42.9822 20.1193
849 2 15.9233 46.8559 20.336
850 2 3.91762 46.9703 20.3551
851 2 7.8714 46.8759 20.357
852 2 12.0279 46.9797 20.4704
853 2 0.0162052 50.758 20.2903
854 2 3.86195 50.9868 20.5032
855 2 7.88316 50.8698 20.5712
856 2 11.7168 50.8415 20.3656
857 2 0.1548 55.0352 20.4601
858 2 3.87215 54.9924 20.6174
859 2 8.10535 54.9093 20.4277
860 2 11.9524 54.7967 20.512
861 2 15.7268 58.9242 20.4476
862 2 3.87909 58.9349 20.3664
863 2 7.79824 58.9704 20.4067
864 2 12.0675 58.9266 20.5331
865 2 15.939 62.8532 20.649
866 2 3.99779 62.9872 20.3805
867 2 7.97744 62.9903 20.4279
868 2 11.9796 63.0695 20.702
869 2 -0.0760833 67.2426 20.698
870 2 4.05194 67.1097 20.6264
871 2 7.89813 67.0151 20.7297
872 2 11.9555 67.4845 20.6204
873 2 -0.077217 70.8886 20.5945
874 2 3.99229 71.1882 20.5779
875 2 7.87373 70.9027 20.7668
876 2 11.5413 71.0366 20.8027
877 2 -0.175426 75.0869 20.7726
878 2 3.89629 75.063 20.9926
879 2 8.02254 75.0723 20.9724
880 2 11.6859 75.3007 20.8424
881 2 -0.199512 79.1182 20.9557
882 2 3.77435 79.0822 20.7703
883 2 7.7676 79.0303 20.9859
884 2 11.7759 79.0603 20.8308
885 2 0.108758 83.1587 21.0564
886 2 3.92127 83.1716 21.0188
887 2 7.79203 83.1854 20.7786
888 2 11.8312 82.9599 20.9942
889 2 -0.227209 87.0636 21.0517
890 2 3.84659 87.161 21.2997
891 2 7.86714 87.3104 20.9729
892 2 11.8647 87.1023 21.0584
893 2 -0.0390335 91.1443 21.2234
894 2 3.79117 91.1859 21.2628
895 2 7.71966 91.3172 21.0574
896 2 11.6471 91.1456 21.3734
897 2 -0.0846993 95.2002 21.3028
898 2 3.89759 95.1059 21.1527
899 2 7.91956 95.2162 21.2921
900 2 11.8658 95.1219 21.2904
901 2 0.215646 99.1383 21.428
902 2 3.83992 99.3064 21.4685
903 2 7.92183 99.1263 21.1784
904 2 11.8602 99.336 21.2412
905 2 0.0121102 103.517 21.5837
906 2 3.89795 103.288 21.253
907 2 7.80723 103.297 21.3425
908 2 11.8774 103.162 21.3349
909 2 -0.0186293 107.414 21.4489
910 2 3.86646 107.23 21.4082
911 2 7.85827 107.163 21.5403
912 2 11.8277 107.211 21.3966
913 2 0.0255636 111.013 21.3407
914 2 3.95639 111.273 21.3016
915 2 7.75639 111.115 21.2694
916 2 12.0139 111.222 21.5964
917 2 15.9917 115.201 21.2398
918 2 3.89444 115.096 21.0981
919 2 8.02669 115.26 21.3988
920 2 11.8136 115.119 21.2243
921 2 -0.144803 119.035 21.1169
922 2 3.95968 119.06 21.2696
923 2 7.94357 119.228 21.4202
924 2 11.7763 119.006 21.2648
925 2 15.9527 122.983 20.9153
926 2 3.94278 123.015 21.0178
927 2 8.00702 122.99 21.1837
928 2 11.9954 123.104 21.2288
929 2 15.9383 126.932 21.1981
930 2 3.95097 126.892 21.0412
931 2 7.93892 126.94 21.1767
932 2 11.9599 126.904 21.2426
933 2 15.7901 130.752 21.1504
934 2 3.90832 130.77 21.1115
935 2 7.90084 130.887 21.1262
936 2 11.8855 130.745 21.1432
937 2 0.276718 134.708 21.0778
938 2 4.18496 134.751 21.0186
939 2 7.86803 134.774 21.1741
940 2 12.2341 134.744 21.0495
941 2 15.7934 138.531 20.7678
942 2 4.00854 138.764 21.0177
943 2 8.05379 138.805 21.0351
944 2 11.8939 138.605 21.0664
945 2 15.9816 142.519 20.8621
946 2 3.82544 142.598 20.8409
947 2 8.01096 142.58 20.8548
948 2 11.9933 142.567 20.9891
949 2 16.0714 146.402 21.0342
950 2 4.12898 146.483 20.8918
951 2 7.9583 146.361 20.9163
952 2 11.8477 146.474 20.9181
953 2 15.9802 150.272 20.9331
954 2 4.07807 150.425 20.8156
955 2 7.90585 150.32 20.961
956 2 12.1146 150.368 21.0025
957 2 15.9665 154.373 20.952
958 2 4.09331 154.277 20.677
959 2 8.06907 154.401 20.8054
960 2 12.0128 154.138 20.8586
961 2 0.0177376 158.334 24.7459
962 2 3.91222 158.103 24.7887
963 2 8.21729 158.136 24.829
964 2 11.7904 158.284 24.9408
965 2 15.7658 3.81974 24.9163
966 2 4.01653 3.76064 24.8368
967 2 7.95908 3.62298 24.9126
968 2 11.8399 3.70557 24.8006
969 2 15.9822 7.5853 24.9185
970 2 3.96426 7.65162 24.6332
971 2 7.93294 7.6607 24.6234
972 2 11.6484 7.53026 24.7345
973 2 15.7649 11.5839 24.737
974 2 3.9226 11.4713 24.8718
975 2 7.89652 11.6424 24.6676
976 2 12.0755 11.7254 24.7292
977 2 -0.121518 15.4306 24.55
978 2 3.95607 15.7667 24.7009
979 2 7.99558 15.5106 24.7949
980 2 11.8578 15.6575 24.78
981 2 0.0134895 19.1896 24.6256
982 2 4.09469 19.4905 24.5724
983 2 8.0054 19.4966 24.5121
984 2 11.7152 19.6403 24.4898
985 2 -0.0444598 23.3656 24.602
986 2 4.00523 23.2661 24.511
987 2 7.89688 23.648 24.55
988 2 12 23.1492 24.5041
989 2 -0.109598 27.2725 24.5229
990 2 4.03927 27.2161 24.5895
991 2 7.93628 27.1879 24.4633
992 2 11.9199 27.235 24.5174
993 2 0.100054 30.9456 24.3837