ITEM: TIMESTEP
22600
ITEM: NUMBER OF ATOMS
32000
ITEM: BOX BOUNDS xy xz yz pp pp pp
0.0000000000000000e+00 1.5832000000000001e+01 0.0000000000000000e+00
0.0000000000000000e+00 1.5831999999999999e+02 0.0000000000000000e+00
8.2634318354230629e-01 1.6015077481645329e+02 0.0000000000000000e+00
ITEM: ATOMS id type x y z
1 2 15.887 157.792 159.941
2 2 4.04513 157.718 160.047
3 2 8.02469 157.937 159.946
4 2 11.9654 157.986 160.014
5 2 -0.125515 3.38547 159.928
6 2 3.97112 3.37108 159.95
7 2 7.92015 3.40484 159.913
8 2 11.8393 3.40094 160.102
9 2 15.9574 7.38403 159.911
10 2 3.89457 7.48396 159.721
11 2 7.86601 7.32388 160.001
12 2 11.9184 7.37695 160.012
13 2 15.9957 11.5205 159.825
14 2 4.08086 11.2297 159.951
15 2 8.0459 11.4968 159.826
16 2 11.9713 11.1447 159.688
17 2 0.0499218 15.2963 159.923
18 2 4.03858 15.04 160.058
19 2 8.00664 15.2028 159.815
20 2 11.7704 15.2123 159.801
21 2 15.9458 19.1656 159.775
22 2 3.95239 19.0325 159.781
23 2 8.17262 19.1294 159.846
24 2 12.0272 19.1128 159.863
25 2 16.0783 23.0919 159.797
26 2 4.02093 23.011 159.878
27 2 7.82741 23.0556 159.703
28 2 11.8943 23.0921 159.826
29 2 15.8667 27.0864 160.025
30 2 4.15506 27.1223 159.802
31 2 7.86042 27.1142 159.667
32 2 11.7836 26.9493 159.771
33 2 15.8531 31.1148 159.581
34 2 4.05068 31.2177 0.56476
35 2 7.85861 31.0794 159.953
36 2 11.9079 31.0792 160.067
37 2 0.0717287 35.0785 159.861
38 2 3.95743 35.2571 160.033
39 2 7.93058 35.2165 159.883
40 2 11.8702 34.9632 159.873
41 2 0.0847888 38.9811 160.016
42 2 4.00535 39.0692 0.681153
43 2 7.86261 39.2437 0.77961
44 2 11.7558 38.8999 0.617193
45 2 -0.00373611 43.0496 159.916
46 2 3.92206 43.109 160.023
47 2 8.03394 43.2157 0.641218
48 2 11.8576 43.1791 0.656476
49 2 -0.0198113 47.2483 0.799944
50 2 3.87554 47.1939 0.849344
51 2 7.63144 47.2033 0.710773
52 2 11.6214 47.4049 0.649608
53 2 0.0516095 51.2345 0.756734
54 2 4.10312 51.2024 0.751993
55 2 7.97213 51.3352 0.926726
56 2 11.7181 51.2101 0.823489
57 2 15.8403 55.3762 0.942582
58 2 4.03447 55.3152 0.835792
59 2 8.08232 55.356 0.818187
60 2 12.0842 55.1851 0.664115
61 2 0.061173 59.2278 0.932576
62 2 4.16642 59.2931 0.794131
63 2 7.97502 59.2916 0.913343
64 2 11.9835 59.2432 0.891093
65 2 0.117926 63.1971 1.01057
66 2 3.94815 63.2534 1.00051
67 2 7.83026 63.2712 0.93098
68 2 11.9236 63.229 1.32434
69 2 15.6634 67.2994 1.05104
70 2 4.08094 67.3059 1.15657
71 2 7.83046 67.4467 1.31173
72 2 11.854 67.3146 1.17919
73 2 -0.0885207 71.2981 1.14094
74 2 3.88993 71.286 1.06331
75 2 7.93192 71.3135 1.2172
76 2 11.7792 71.2331 1.31508
77 2 0.103422 75.2895 1.16805
78 2 4.05681 75.3204 1.21847
79 2 8.05257 75.279 1.16586
80 2 12.0485 75.3758 1.22821
81 2 0.0955968 79.1949 1.35552
82 2 3.99644 79.3453 1.12786
83 2 8.05162 79.3696 1.35002
84 2 11.8461 79.4201 1.50805
85 2 0.187679 83.4112 1.67672
86 2 3.96689 83.4788 1.66507
87 2 7.91277 83.5766 1.4957
88 2 11.9226 83.6474 1.66507
89 2 0.112439 87.555 1.61733
90 2 4.11613 87.4363 1.53559
91 2 8.08144 87.527 1.46607
92 2 12.0652 87.4388 1.60998
93 2 0.0276873 91.4207 1.54529
94 2 4.1399 91.4012 1.44342
95 2 8.02618 91.4453 1.4566
96 2 11.9432 91.3916 1.65734
97 2 15.6937 95.3489 1.56921
98 2 3.85305 95.2767 1.437
99 2 7.77158 95.2023 1.41457
100 2 11.7109 95.4429 1.44883
101 2 0.00525401 99.2416 1.49368
102 2 4.04778 99.2736 1.47273
103 2 8.04174 99.1569 1.31802
104 2 11.866 99.1484 1.52855
105 2 0.10457 103.172 1.52644
106 2 3.89835 103.137 1.5004
107 2 7.84214 103.077 1.33369
108 2 12.002 103.249 1.28975
109 2 -0.0322529 107.199 1.19539
110 2 3.89445 107.006 1.27051
111 2 7.8605 107.006 1.13127
112 2 12.0895 106.979 1.17606
113 2 -0.0254404 111.118 1.34551
114 2 3.97385 110.949 1.32302
115 2 7.93495 111.003 1.34517
116 2 11.7938 110.794 1.26113
117 2 15.931 114.871 1.28435
118 2 4.11361 114.706 1.07891
119 2 8.04089 114.951 1.29362
120 2 12.0327 114.889 1.08966
121 2 0.105726 118.718 1.18764
122 2 3.95364 118.523 1.19123
123 2 8.01443 118.688 1.11109
124 2 12.0696 118.829 0.941261
125 2 16.0572 122.761 1.16992
126 2 4.11625 122.608 1.1555
127 2 8.32342 122.556 1.01148
128 2 11.9135 122.616 1.17727
129 2 0.13648 126.496 1.19355
130 2 4.122 126.672 1.12916
131 2 8.16957 126.681 0.950306
132 2 11.9648 126.558 1.076
133 2 15.8318 130.557 0.997121
134 2 4.02349 130.491 1.17776
135 2 8.06284 130.308 0.922359
136 2 11.9431 130.431 1.15631
137 2 16.0454 134.356 0.95447
138 2 3.91902 134.254 0.891801
139 2 8.05448 134.223 160.275
140 2 11.8525 134.561 0.85651
141 2 -0.00776158 138.35 1.06159
142 2 4.07911 138.131 160.368
143 2 8.13788 138.412 160.35
144 2 11.9772 138.289 1.01403
145 2 16.0006 142.206 160.207
146 2 4.14312 142.301 160.269
147 2 8.03332 142.206 160.28
148 2 11.9562 142.233 160.284
149 2 0.241437 146.111 160.203
150 2 4.12615 146.092 160.093
151 2 8.14202 146.186 160.137
152 2 12.1208 146.087 160.039
153 2 15.7466 150.005 160.074
154 2 4.03409 150.05 160.007
155 2 8.14753 150.156 160.16
156 2 12.103 149.958 0.893752
157 2 15.8892 153.962 160.091
158 2 3.97454 153.933 160.108
159 2 7.88446 153.99 160.081
160 2 12.1325 154.075 159.936
161 2 15.9404 157.981 4.78027
162 2 4.07651 157.717 4.67665
163 2 7.80507 157.947 4.57212
164 2 11.8618 157.981 4.74979
165 2 -0.00952757 3.65214 4.50301
166 2 3.89802 3.43486 4.57261
167 2 7.8772 3.72832 4.62828
168 2 12.0071 3.6693 4.68807
169 2 0.0639697 7.5228 4.56991
170 2 3.87083 7.33246 4.51405
171 2 7.88107 7.648 4.5732
172 2 11.8077 7.53016 4.56611
173 2 0.0781015 11.5039 4.6069
174 2 4.14462 11.2415 4.46681
175 2 8.13197 11.3997 4.5846
176 2 11.9573 11.2737 4.56408
177 2 15.965 15.3078 4.70667
178 2 4.06293 15.2541 4.50379
179 2 8.10065 15.1244 4.57455
180 2 11.8843 15.224 4.53026
181 2 0.140936 19.1009 4.62051
182 2 4.06037 19.207 4.3943
183 2 7.90907 19.2931 4.65034
184 2 11.8191 19.2175 4.56591
185 2 -0.138413 23.229 4.7137
186 2 3.93284 22.9035 4.45886
187 2 7.95191 23.2331 4.13795
188 2 11.8489 22.8738 4.22459
189 2 15.5877 27.0667 4.5571
190 2 3.82232 27.0829 4.4185
191 2 7.97113 27.0742 4.42892
192 2 11.8839 26.9983 4.30864
193 2 0.105169 30.9924 4.49206
194 2 3.93571 31.0162 4.50237
195 2 7.98399 31.2445 4.69456
196 2 12.0042 30.9695 4.38884
197 2 0.0345448 34.9048 4.39914
198 2 3.97746 35.0714 4.51382
199 2 7.85805 35.0965 4.4909
200 2 11.9774 35.1107 4.55753
201 2 15.7075 38.9597 4.42296
202 2 3.82708 39.1811 4.58799
203 2 7.79931 38.9792 4.51572
204 2 11.8179 38.9868 4.48727
205 2 0.250915 43.2647 4.57996
206 2 4.11113 43.2986 4.6872
207 2 8.10887 43.1005 4.60455
208 2 11.8553 43.0411 4.54649
209 2 0.19026 47.1534 4.67749
210 2 4.14422 47.146 4.81056
211 2 8.04571 47.1101 4.71027
212 2 11.8194 47.2171 4.63527
213 2 0.0320142 51.0561 4.75653
214 2 3.92733 51.1091 4.69512
215 2 7.94264 51.2176 4.72884
216 2 12.0656 51.1277 4.64079
217 2 0.244986 55.23 4.92391
218 2 4.07555 55.1656 4.53264
219 2 8.03343 55.0826 4.76679
220 2 12.1509 55.2289 4.70315
221 2 15.962 59.163 4.76793
222 2 4.0853 59.1195 4.92329
223 2 7.90344 59.3318 4.93418
224 2 12.012 59.1692 4.87747
225 2 -0.121728 63.1933 5.06983
226 2 3.93782 63.1938 4.88844
227 2 7.9519 63.3084 5.1232
228 2 11.7586 63.2359 4.88561
229 2 15.8445 67.2284 4.89534
230 2 3.72475 67.3999 4.86171
231 2 7.95615 67.2714 5.18565
232 2 11.8837 67.3237 5.10901
233 2 15.9184 71.2213 5.10175
234 2 4.09735 71.4134 4.9485
235 2 8.03516 71.3445 4.93549
236 2 12.1158 71.3666 5.33655
237 2 16.0789 75.3327 5.23548
238 2 4.08129 75.29 5.20523
239 2 8.2178 75.3161 5.24353
240 2 12.0432 75.188 5.15608
241 2 0.00662772 79.1239 5.41763
242 2 4.02373 79.1964 5.19591
243 2 7.98909 79.3346 5.24687
244 2 12.0787 79.3118 5.38115
245 2 15.97 83.2009 5.41973
246 2 3.93091 83.3735 5.41842
247 2 7.95252 83.3122 5.4439
248 2 11.9803 83.4558 5.11792
249 2 0.0573312 87.6008 5.7131
250 2 4.08581 87.4076 5.45696
251 2 7.97664 87.4735 5.56288
252 2 11.9492 87.431 5.53987
253 2 0.226854 91.4299 5.61435
254 2 3.96188 91.3172 5.45874
255 2 7.9589 91.4756 5.46464
256 2 11.9436 91.4729 5.70284
257 2 16.0304 95.2423 5.55968
258 2 4.1747 95.2944 5.26751
259 2 7.96922 95.2754 5.49306
260 2 11.8536 95.3924 5.50371
261 2 0.0244869 99.1414 5.51098
262 2 4.06312 99.2476 5.50375
263 2 7.88706 99.1752 5.33303
264 2 11.8678 99.2787 5.47363
265 2 -0.0945958 103.293 5.2614
266 2 3.92152 103.34 5.44861
267 2 8.01124 103.173 5.47791
268 2 11.8744 103.203 5.45691
269 2 15.9661 107.042 5.26101
270 2 4.13051 107.103 5.46674
271 2 8.07078 106.89 5.21613
272 2 11.9798 107.224 5.40792
273 2 15.8864 110.819 5.33465
274 2 4.05065 111.208 5.42052
275 2 7.94117 110.941 5.30798
276 2 11.8158 110.975 5.23206
277 2 0.126479 114.933 5.31278
278 2 3.94213 115.036 5.33244
279 2 8.03143 114.985 5.10851
280 2 11.9981 114.944 5.33167
281 2 0.137202 118.902 5.14192
282 2 4.02771 118.766 5.24885
283 2 7.88933 118.892 5.18635
284 2 11.825 118.82 5.36706
285 2 16.1087 122.704 5.08004
286 2 4.23283 123.002 5.11711
287 2 8.04753 122.688 5.07575
288 2 12.0475 122.546 4.99593
289 2 0.176792 126.765 5.11314
290 2 4.1087 126.447 5.05185
291 2 8.0139 126.744 5.0833
292 2 12.0737 126.474 5.08881
293 2 0.0978306 130.505 5.08089
294 2 4.13315 130.526 5.21358
295 2 8.21637 130.537 4.92583
296 2 12.1349 130.734 5.12082
297 2 15.8683 134.437 5.00413
298 2 4.13949 134.399 5.08625
299 2 8.2118 134.432 5.07716
300 2 12.1147 134.487 5.06034
301 2 0.258145 138.416 5.0681
302 2 4.24436 138.3 4.87459
303 2 8.05658 138.286 4.86015
304 2 12.0696 138.424 4.86404
305 2 0.0455437 142.178 4.98051
306 2 4.11792 142.316 5.10915
307 2 8.06123 142.221 5.02665
308 2 12.0249 142.367 4.93791
309 2 16.1065 146.191 4.79183
310 2 4.11708 146.226 4.79007
311 2 8.04829 146.42 4.84122
312 2 11.9953 146.094 4.73033
313 2 16.035 150.18 4.83933
314 2 4.12046 150.172 4.75028
315 2 8.17658 150.254 4.74315
316 2 12.0597 150.113 5.07724
317 2 15.8665 153.98 4.68976
318 2 4.08155 153.965 4.86586
319 2 8.03905 153.983 4.68937
320 2 11.9636 154.133 4.66174
321 2 16.0557 158.063 8.70073
322 2 4.12423 158.082 8.55997
323 2 7.93083 158.048 8.58691
324 2 11.9255 158.108 8.76403
325 2 15.7587 3.56893 8.72656
326 2 3.96011 3.59411 8.58463
327 2 8.02639 3.69952 8.72761
328 2 11.95 3.71217 8.63597
329 2 15.7843 7.41782 8.69169
330 2 3.79863 7.62508 8.69593
331 2 7.94347 7.41489 8.58457
332 2 11.9121 7.67215 8.52026
333 2 -0.0319113 11.4228 8.44229
334 2 3.92435 11.5086 8.78068
335 2 7.96937 11.5345 8.7372
336 2 12.2299 11.5107 8.56315
337 2 15.9343 15.3336 8.75144
338 2 4.06747 15.3997 8.59266
339 2 8.01603 15.1825 8.66994
340 2 12.0068 15.3552 8.71764
341 2 0.170768 19.3378 8.59556
342 2 3.94811 19.4438 8.46624
343 2 7.86032 19.4711 8.4448
344 2 11.7722 19.441 8.59378
345 2 -0.0894059 23.3956 8.54424
346 2 4.13798 23.3027 8.26406
347 2 7.93569 23.4217 8.23717
348 2 11.915 23.1355 8.40391
349 2 0.0410315 27.1266 8.4738
350 2 3.86244 27.0518 8.48229
351 2 7.71008 27.0676 8.40731
352 2 11.7247 27.081 8.43786
353 2 0.119069 30.9414 8.3626
354 2 3.84106 31.0899 8.27484
355 2 7.86254 31.0949 8.43767
356 2 11.887 30.8877 8.29248
357 2 15.6857 34.9608 8.45463
358 2 3.79583 34.8974 8.36177
359 2 7.97398 34.9368 8.47654
360 2 11.9797 35.1194 8.37043
361 2 0.00603479 39.0329 8.30485
362 2 4.00355 38.8687 8.57725
363 2 7.86667 39.0292 8.4792
364 2 11.9356 39.0345 8.4988
365 2 -0.0519814 42.893 8.42716
366 2 3.91247 42.9506 8.7564
367 2 7.91188 42.9473 8.54859
368 2 11.8161 42.8489 8.46502
369 2 -0.0159648 46.994 8.43272
370 2 4.04342 47.201 8.66292
371 2 7.94553 47.0209 8.5131
372 2 11.9991 47.0165 8.39913
373 2 15.95 51.0269 8.8088
374 2 4.03973 51.0496 8.66345
375 2 7.93124 51.1903 8.73464
376 2 11.9651 51.0534 8.70982
377 2 16.0234 55.0047 8.67137
378 2 3.98168 55.0663 8.59679
379 2 8.13709 54.9974 8.66367
380 2 12.0842 55.0859 8.77759
381 2 -0.0741801 59.1365 8.63321
382 2 3.92322 59.1664 8.75054
383 2 8.06792 59.1835 8.66577
384 2 11.9623 59.1423 8.88982
385 2 -0.188382 63.3056 8.85659
386 2 3.82022 63.1462 8.90356
387 2 7.74559 63.2879 8.86255
388 2 11.7319 63.1196 8.87753
389 2 15.8324 67.2808 8.99088
390 2 4.05934 67.1989 8.86542
391 2 7.93393 67.2973 8.86152
392 2 11.8733 67.1633 9.12685
393 2 15.9896 71.0407 8.8637
394 2 4.07123 71.2151 9.08451
395 2 7.95808 71.1336 8.99948
396 2 12.0476 71.1632 9.01059
397 2 15.9425 75.1957 9.14417
398 2 4.10922 75.0919 9.06289
399 2 7.90147 75.055 8.95798
400 2 11.8771 75.1839 9.08471
401 2 15.845 79.3029 9.086
402 2 3.95402 79.3212 9.10965
403 2 7.85479 79.2495 9.27075
404 2 11.8398 79.2625 9.20769
405 2 0.0164521 83.4322 9.26529
406 2 4.08803 83.3734 9.25531
407 2 8.03017 83.4524 9.38108
408 2 11.979 83.1149 9.24308
409 2 0.130625 87.1917 9.41539
410 2 4.10107 87.3632 9.31293
411 2 7.94126 87.3781 9.39064
412 2 11.8723 87.3443 9.24925
413 2 0.135082 91.5537 9.47477
414 2 3.82655 91.5496 9.58186
415 2 8.03678 91.3055 9.51606
416 2 11.9172 91.3236 9.65833
417 2 15.9075 95.5664 9.34316
418 2 3.77947 95.4011 9.47646
419 2 7.94728 95.256 9.6083
420 2 12.0073 95.4034 9.42884
421 2 15.8279 99.254 9.30981
422 2 3.94499 99.2999 9.54477
423 2 8.05937 99.1756 9.46645
424 2 11.8808 99.2666 9.42943
425 2 -0.0106679 103.135 9.44648
426 2 4.21404 103.102 9.43762
427 2 8.09597 103.129 9.55429
428 2 11.8359 103.178 9.53738
429 2 0.0773968 106.958 9.39615
430 2 4.02541 106.933 9.35438
431 2 7.8996 107.2 9.53782
432 2 11.794 107.259 9.34568
433 2 15.9753 110.864 9.38982
434 2 3.9882 111.17 9.30328
435 2 7.88728 111.088 9.32109
436 2 11.897 111.003 9.17598
437 2 0.16023 114.904 9.41623
438 2 4.14726 115.099 9.1612
439 2 8.09607 115.106 9.23098
440 2 11.9987 115.003 9.24702
441 2 -0.0101014 118.821 9.24151
442 2 3.98394 118.664 9.20165
443 2 7.93585 119.019 9.31296
444 2 12.0076 118.744 9.2441
445 2 15.9656 122.633 9.14254
446 2 4.16368 122.565 9.26227
447 2 8.12693 122.834 9.21735
448 2 12.1579 122.774 9.15116
449 2 15.8907 126.778 9.2016
450 2 3.96942 126.753 9.36199
451 2 8.07031 126.653 9.01543
452 2 11.988 126.681 9.19994
453 2 0.103466 130.76 9.24689
454 2 4.17983 130.566 9.01976
455 2 7.99792 130.472 9.15995
456 2 11.7687 130.49 9.2689
457 2 0.255161 134.594 8.94549
458 2 4.06452 134.328 8.99145
459 2 7.98782 134.526 8.94183
460 2 11.8937 134.538 9.05717
461 2 0.165224 138.491 8.8046
462 2 3.92071 138.38 8.91301
463 2 8.04423 138.492 9.0316
464 2 12.0806 138.395 8.96378
465 2 0.244442 142.355 8.77259
466 2 4.18844 142.481 8.96035
467 2 7.96203 142.297 9.00987
468 2 11.985 142.543 8.96497
469 2 16.0346 146.367 8.80663
470 2 4.03094 146.227 8.80886
471 2 7.87244 146.19 8.85483
472 2 11.977 146.264 8.78411
473 2 15.9228 150.268 8.80231
474 2 4.07706 150.219 8.88477
475 2 8.10405 150.055 8.82349
476 2 12.0068 150.171 8.94322
477 2 15.6805 154.231 8.67624
478 2 3.86911 154.037 8.72333
479 2 7.99024 154.249 8.77048
480 2 11.8933 154.353 8.91039
481 2 15.9914 158.13 12.8167
482 2 3.95979 158.055 12.7244
483 2 8.11299 158.119 12.6537
484 2 12.0284 158.192 12.7314
485 2 15.8251 3.7668 12.7035
486 2 4.0496 3.72154 12.6695
487 2 7.84707 3.82624 12.6661
488 2 11.622 3.56595 12.6063
489 2 15.7848 7.4837 12.8835
490 2 3.82504 7.59139 12.601
491 2 7.91988 7.5174 12.7658
492 2 12.0039 7.63847 12.8218
493 2 0.0113616 11.3886 12.6685
494 2 4.10654 11.4776 12.7077
495 2 8.09056 11.5392 12.6869
496 2 11.9184 11.4036 12.7515
497 2 0.134951 15.6661 12.7481
498 2 4.01013 15.4237 12.7321
499 2 7.90707 15.2732 12.7063
500 2 11.8416 15.4891 12.6965
501 2 0.062911 19.3981 12.3982
502 2 4.17779 19.331 12.5822
503 2 8.05968 19.2553 12.3071
504 2 11.8436 19.2855 12.5365
505 2 0.0746786 23.3091 12.579
506 2 4.00102 23.0571 12.5609
507 2 7.95195 23.2602 12.451
508 2 11.9763 23.2844 12.5952
509 2 0.107847 27.256 12.3611
510 2 3.85703 27.1693 12.3863
511 2 8.05098 27.2697 12.4719
512 2 11.7833 27.0643 12.5337
513 2 -0.152513 31.1643 12.3812
514 2 3.82049 31.1297 12.5052
515 2 7.68028 30.9665 12.4069
516 2 11.947 31.1151 12.2925
517 2 -0.0595693 34.9061 12.3781
518 2 3.91439 34.9366 12.2462
519 2 7.76774 34.942 12.3775
520 2 11.7356 34.9445 12.309
521 2 0.163593 38.8043 12.357
522 2 4.06822 38.8796 12.5183
523 2 7.76056 38.9502 12.2358
524 2 11.8571 38.8388 12.506
525 2 0.188377 42.8736 12.358
526 2 4.09046 43.1452 12.5415
527 2 8.0451 42.8944 12.5312
528 2 11.7043 42.8769 12.4467
529 2 -0.121768 46.9575 12.4412
530 2 3.9386 47.0823 12.4137
531 2 7.98873 46.8302 12.4404
532 2 11.9034 46.9909 12.5011
533 2 -0.0713813 51.1428 12.6519
534 2 3.98693 50.9921 12.7244
535 2 7.96536 51.0114 12.4961
536 2 11.9011 50.8637 12.4786
537 2 15.7861 55.0372 12.5482
538 2 3.81989 55.1578 12.7051
539 2 7.80898 54.975 12.6888
540 2 11.9964 55.2862 12.8568
541 2 15.7937 59.0966 12.6746
542 2 3.9842 59.0824 12.7855
543 2 7.6682 59.1054 12.5846
544 2 11.6596 59.1809 12.6143
545 2 15.7999 63.1951 12.822
546 2 3.84805 63.0549 12.6338
547 2 7.65602 63.2209 12.9353
548 2 11.7156 63.1511 12.7722
549 2 -0.0529971 67.1152 12.8149
550 2 3.78681 67.1064 12.9313
551 2 8.0161 67.1604 12.9752
552 2 11.8329 67.0919 12.8653
553 2 0.0581689 70.9877 12.8752
554 2 3.89007 71.0961 12.8866
555 2 7.78766 71.039 12.9982
556 2 11.8678 71.0879 13.0159
557 2 0.102174 75.2994 13.2308
558 2 3.9308 75.176 13.0033
559 2 7.9131 75.0896 13.0566
560 2 11.7589 75.0503 12.8429
561 2 0.135779 79.1105 13.1969
562 2 3.80574 79.2759 12.8726
563 2 7.81273 79.1289 13.0661
564 2 11.9608 79.1941 12.8858
565 2 0.00609861 83.194 13.2388
566 2 3.98458 83.0496 13.0394
567 2 7.96196 83.4459 13.3649
568 2 11.9652 83.2428 13.1608
569 2 -0.0171114 87.1232 13.3136
570 2 3.95818 87.1958 13.4316
571 2 7.82859 87.277 13.3329
572 2 11.9103 87.4056 13.2166
573 2 -0.101083 91.1982 13.4421
574 2 3.96605 91.1836 13.4069
575 2 7.66175 91.4512 13.4829
576 2 11.7571 91.1518 13.2652
577 2 0.00758591 95.6355 13.4122
578 2 4.04588 95.3663 13.5045
579 2 7.94429 95.3081 13.6434
580 2 11.9988 95.3375 13.3506
581 2 -0.0486275 99.3108 13.3667
582 2 3.92349 99.3842 13.5338
583 2 7.94546 99.2572 13.4994
584 2 11.7537 99.3468 13.509
585 2 0.273398 103.443 13.3394
586 2 4.24025 103.106 13.4074
587 2 8.05372 103.348 13.3269
588 2 12.1146 103.353 13.3649
589 2 0.141194 107.178 13.2993
590 2 4.00479 107.32 13.5095
591 2 7.85919 107.373 13.356
592 2 11.9591 107.255 13.5049
593 2 -0.0883156 111.009 13.5385
594 2 3.89921 111.247 13.206
595 2 8.0245 111.155 13.5701
596 2 11.7959 111.193 13.3102
597 2 0.196179 115.023 13.2311
598 2 4.07334 114.97 13.3106
599 2 8.00811 115.013 13.3867
600 2 12.0365 115.016 13.3063
601 2 -0.010349 119.014 13.4197
602 2 4.03996 118.816 13.2624
603 2 7.9492 118.936 13.305
604 2 11.8932 118.855 13.405
605 2 0.183717 122.739 13.1484
606 2 4.12378 122.861 13.1813
607 2 8.06598 122.867 13.3587
608 2 11.8804 122.894 13.2151
609 2 -0.00463548 126.623 13.1695
610 2 3.96947 126.71 13.1954
611 2 7.69879 126.616 13.3182
612 2 11.8664 126.924 13.2203
613 2 15.7868 130.675 13.1474
614 2 4.10407 130.665 13.0421
615 2 8.04464 130.687 13.2331
616 2 11.7588 130.927 13.0178
617 2 15.8872 134.721 13.0566
618 2 4.07225 134.686 12.8483
619 2 7.98581 134.684 12.9981
620 2 12.0815 134.696 12.9688
621 2 0.091456 138.774 12.9294
622 2 4.19145 138.581 12.9799
623 2 8.05817 138.509 12.9673
624 2 11.9272 138.676 12.8669
625 2 15.919 142.372 12.8477
626 2 4.16227 142.355 12.9109
627 2 7.95586 142.493 12.8951
628 2 12.0402 142.617 12.8469
629 2 0.014865 146.273 12.8925
630 2 3.94805 146.151 12.9058
631 2 8.17424 146.333 12.9227
632 2 12.048 146.278 12.9645
633 2 0.419005 150.287 12.7691
634 2 4.02052 150.308 12.7303
635 2 8.04178 150.101 12.9463
636 2 12.0767 150.367 12.7951
637 2 15.9351 154.264 12.7668
638 2 4.05598 154.078 12.7825
639 2 7.9505 154.24 12.8671
640 2 11.7849 154.173 12.8133
641 2 0.0252628 158.263 16.8362
642 2 4.21028 -0.174258 16.6926
643 2 7.85696 158.025 16.6647
644 2 11.8341 158.239 16.8401
645 2 15.7462 3.68348 16.9685
646 2 3.99295 3.63535 16.8942
647 2 7.78184 3.6718 16.7325
648 2 11.7705 3.72678 16.7214
649 2 -0.0893772 7.42669 16.6952
650 2 3.89624 7.75316 16.838
651 2 8.02787 7.4476 16.6469
652 2 12.0441 7.75514 16.6239
653 2 0.0312209 11.5876 16.5537
654 2 4.10675 11.4949 16.7071
655 2 7.981 11.5989 16.6581
656 2 11.956 11.6678 16.6435
657 2 -0.0693812 15.5714 16.5463
658 2 3.94757 15.496 16.6988
659 2 8.08595 15.3729 16.6135
660 2 11.9611 15.6161 16.6405
661 2 15.8471 19.4865 16.4838
662 2 4.11844 19.2856 16.5629
663 2 8.25624 19.3898 16.6164
664 2 12.0639 19.4512 16.665
665 2 0.122238 23.403 16.5813
666 2 4.00656 23.0276 16.456
667 2 7.89631 23.2969 16.6483
668 2 12.0419 23.4906 16.4177
669 2 -0.079985 27.2578 16.3955
670 2 3.93948 27.2699 16.4011
671 2 8.07793 27.1541 16.4279
672 2 11.8316 27.0451 16.4259
673 2 0.220824 30.9995 16.4176
674 2 4.18298 30.9912 16.4569
675 2 8.01734 31.0894 16.3539
676 2 11.9005 30.9459 16.5279
677 2 0.0215637 34.928 16.2968
678 2 4.04211 34.804 16.3272
679 2 7.98203 34.9868 16.3217
680 2 11.9273 34.9611 16.318
681 2 0.0663701 38.7699 16.2669
682 2 4.072 38.9446 16.3491
683 2 7.79698 38.8311 16.4193
684 2 11.7649 39.1977 16.4268
685 2 0.0889985 42.7826 16.2859
686 2 3.95865 42.8755 16.3828
687 2 7.77437 42.8777 16.3478
688 2 11.8748 42.9393 16.4029
689 2 15.8417 46.8619 16.4269
690 2 3.8669 47.0191 16.2802
691 2 8.05054 46.846 16.6279
692 2 11.9273 46.8707 16.3708
693 2 0.0603827 51.0217 16.4567
694 2 3.8522 50.9955 16.3973
695 2 7.87619 50.9372 16.4381
696 2 11.8224 51.0039 16.7019
697 2 0.13407 55.1381 16.5906
698 2 3.97525 55.062 16.6107
699 2 7.92246 54.9225 16.4118
700 2 11.7868 55.0606 16.5339
701 2 -0.0551423 59.016 16.6892
702 2 3.78564 59.0775 16.7436
703 2 7.70529 59.0912 16.6149
704 2 11.7152 58.9425 16.5987
705 2 -0.0466049 62.934 16.5886
706 2 3.86441 63.0805 16.8404
707 2 7.67155 63.1188 16.7928
708 2 11.942 62.9151 16.5456
709 2 -0.0677794 67.0764 16.6018
710 2 3.86017 67.0821 16.8441
711 2 7.8473 67.1193 16.8202
712 2 11.7834 66.9189 16.7542
713 2 0.0162413 71.1247 17.0367
714 2 3.88553 71.023 16.8341
715 2 7.95015 71.0308 17.0923
716 2 12.0485 71.0456 16.8688
717 2 -0.112951 75.1484 16.9422
718 2 3.88662 74.9597 16.7866
719 2 7.95169 75.0709 16.9427
720 2 11.8393 75.0317 16.7581
721 2 0.00926931 79.1212 17.1053
722 2 4.1249 79.1481 16.9796
723 2 8.08414 79.0866 17.0718
724 2 11.886 79.0999 17.0541
725 2 -0.069102 83.0786 17.0261
726 2 4.04694 83.1822 17.0897
727 2 7.98129 83.3003 17.0905
728 2 11.8106 83.1252 17.0254
729 2 0.0854111 87.1273 17.0801
730 2 3.89965 87.195 17.1651
731 2 8.03214 87.2021 17.1158
732 2 11.7879 87.2406 17.2284
733 2 -0.141292 91.6403 17.3481
734 2 3.59983 91.4079 17.1862
735 2 7.86579 91.2989 17.2862
736 2 11.7971 91.3284 17.0411
737 2 0.0299532 95.5051 17.3412
738 2 4.01187 95.4439 17.499
739 2 7.81521 95.2257 17.4636
740 2 11.8009 95.294 17.3313
741 2 -0.0167435 99.3859 17.5508
742 2 3.90499 99.3202 17.3471
743 2 7.73583 99.6305 17.4796
744 2 11.6896 99.2988 17.404
745 2 0.114613 103.472 17.4034
746 2 4.00557 103.188 17.4722
747 2 7.79227 103.402 17.5389
748 2 11.8451 103.31 17.5737
749 2 -0.0908498 107.227 17.4538
750 2 3.92881 107.229 17.6299
751 2 7.85101 107.45 17.3037
752 2 11.9432 107.266 17.4961
753 2 0.112303 111.261 17.4113
754 2 4.14569 111.278 17.5331
755 2 7.99884 111.247 17.4227
756 2 11.8884 111.195 17.2758
757 2 -0.0774812 115.125 17.3954
758 2 3.87806 114.978 17.3762
759 2 7.99908 115.109 17.3698
760 2 11.8847 115.214 17.3504
761 2 0.0309098 118.884 17.4208
762 2 4.10913 119.029 17.3681
763 2 7.89695 118.925 17.2186
764 2 11.9397 119.061 17.3369
765 2 0.00179696 122.775 17.4442
766 2 4.09525 122.957 17.265
767 2 7.86932 122.951 17.2572
768 2 12.0245 122.923 17.1885
769 2 15.7201 126.581 17.2921
770 2 3.93282 126.831 17.1076
771 2 7.87132 126.922 17.3491
772 2 11.9052 126.962 17.0769
773 2 15.8846 130.632 17.1332
774 2 3.88337 130.757 17.1275
775 2 7.83359 130.815 17.1423
776 2 11.9625 130.921 17.1271
777 2 16.0767 134.746 17.0765
778 2 4.09885 134.658 17.1316
779 2 7.9446 134.931 17.0276
780 2 12.0852 134.908 17.0587
781 2 0.123977 138.435 17.026
782 2 4.03966 138.64 17.0606
783 2 7.99077 138.838 16.7944
784 2 12.1472 138.748 16.8762
785 2 16.015 142.373 17.0267
786 2 3.98883 142.413 17.1814
787 2 7.9886 142.461 17.0418
788 2 11.8595 142.703 16.9576
789 2 15.9731 146.509 16.8557
790 2 3.92932 146.352 16.9288
791 2 7.79346 146.458 16.9451
792 2 11.9875 146.265 16.9971
793 2 15.753 150.452 16.6774
794 2 3.8937 150.267 16.961
795 2 7.83275 150.306 16.8446
796 2 11.863 150.359 16.7664
797 2 15.7913 154.294 16.8628
798 2 3.96674 154.211 16.9634
799 2 7.9481 154.275 16.9119
800 2 11.8801 154.283 16.7259
801 2 15.8086 158.118 20.8493
802 2 4.11901 158.162 20.7814
803 2 8.06479 158.159 20.8484
804 2 11.9788 158.335 20.797
805 2 0.269027 3.78241 20.8287
806 2 4.22284 3.88161 20.7222
807 2 7.96038 3.94602 20.9019
808 2 11.7186 3.66181 20.7972
809 2 15.7721 7.69544 20.7128
810 2 4.03925 7.66269 20.8057
811 2 8.01163 7.70592 20.6656
812 2 11.8966 7.77277 20.7738
813 2 16.2625 11.6903 20.6412
814 2 4.20718 11.6391 20.5638
815 2 8.05518 11.5165 20.6105
816 2 11.9656 11.6131 20.7737
817 2 15.9111 15.5108 20.7626
818 2 3.98308 15.5145 20.6691
819 2 7.97317 15.6223 20.6261
820 2 12.0252 15.5096 20.6404
821 2 0.0760038 19.5858 20.7829
822 2 4.04398 19.3843 20.5791
823 2 8.15715 19.4877 20.677
824 2 11.9375 19.4272 20.6029
825 2 0.0998321 23.3052 20.6748
826 2 4.19921 23.3672 20.6737
827 2 8.02628 23.3978 20.6681
828 2 12.0047 23.3128 20.6699
829 2 15.902 27.2811 20.4446
830 2 4.07621 27.3284 20.6233
831 2 7.8465 27.3122 20.5836
832 2 11.9435 27.2268 20.6268
833 2 15.8164 31.1941 20.5403
834 2 4.14712 31.1035 20.4833
835 2 8.01922 31.2514 20.4952
836 2 12.0962 31.216 20.4805
837 2 15.7831 34.9958 20.2956
838 2 3.86263 34.9314 20.2499
839 2 8.00779 35.0411 20.4079
840 2 12.0254 35.1672 20.1082
841 2 0.0666017 38.8174 20.0598
842 2 4.03872 38.8853 20.2737
843 2 8.04394 38.8217 20.3576
844 2 11.8629 39.0066 20.3563
845 2 15.924 42.6965 20.1974
846 2 4.09983 42.706 20.262
847 2 8.06369 42.8704 20.574
848 2 12.1294 42.7907 20.4458
849 2 15.8746 46.7531 20.3633
850 2 3.97227 46.8396 20.2346
851 2 8.06718 46.7658 20.4204
852 2 11.9416 46.739 20.1801
853 2 0.107893 50.9331 20.6626
854 2 3.81458 50.9937 20.2817
855 2 7.95689 51.0191 20.5119
856 2 12.1044 50.8544 20.5141
857 2 -0.147965 55.0268 20.6194
858 2 3.83019 55.0609 20.5736
859 2 7.96675 54.9934 20.39
860 2 11.8383 54.9924 20.4876
861 2 15.8551 58.8871 20.4108
862 2 3.94891 59.035 20.8368
863 2 7.76328 59.0595 20.4584
864 2 11.8769 58.7933 20.4519
865 2 15.5871 62.8959 20.5158
866 2 3.82332 62.8431 20.6713
867 2 7.81932 62.8487 20.7606
868 2 11.7075 62.7604 20.5577
869 2 0.0873731 66.9308 20.6303
870 2 3.86527 67.0187 20.6588
871 2 7.8776 66.9453 20.7797
872 2 11.8712 66.9197 20.7087
873 2 0.161762 70.9663 20.8447
874 2 3.77543 70.9676 20.8728
875 2 8.07892 71.0452 20.71
876 2 11.9534 70.8719 20.6324
877 2 0.126954 75.0581 20.7326
878 2 3.80496 75.0574 20.7981
879 2 7.98544 75.283 20.7004
880 2 11.7837 74.8878 20.7956
881 2 0.12136 78.9028 20.969
882 2 4.05102 79.0151 20.9535
883 2 7.90605 78.9836 20.7472
884 2 11.8943 78.8906 20.9752
885 2 -0.176112 83.0559 20.8663
886 2 3.87456 82.9831 20.9275
887 2 7.94338 83.0528 21.0684
888 2 12.0003 83.2006 20.9457
889 2 0.042127 87.0469 21.0791
890 2 4.15468 86.9855 21.0557
891 2 7.92878 87.2076 21.1336
892 2 11.8263 87.1833 21.0178
893 2 -0.202665 91.2514 21.1785
894 2 4.0962 91.1503 21.0757
895 2 8.08566 91.0956 21.1704
896 2 11.8806 91.1138 21.172
897 2 -0.025002 95.2482 21.2073
898 2 3.8932 95.1894 21.3157
899 2 7.808 95.2209 21.1012
900 2 11.6894 95.2814 21.3095
901 2 -0.251598 99.2353 21.2017
902 2 3.92783 99.2789 21.0579
903 2 7.95553 99.3164 21.481
904 2 11.7107 99.2176 21.3281
905 2 -0.0478386 103.023 21.3102
906 2 4.04424 103.288 21.5138
907 2 8.13072 103.428 21.3932
908 2 11.8298 103.428 21.5166
909 2 0.0688314 107.246 21.3906
910 2 4.12799 107.243 21.4525
911 2 8.09242 107.409 21.4618
912 2 12.0874 107.389 21.4057
913 2 0.0610313 111.374 21.473
914 2 4.06842 111.3 21.3502
915 2 7.96068 111.29 21.3063
916 2 11.9256 111.302 21.4142
917 2 15.7852 115.118 21.4433
918 2 3.97102 115.041 21.3758
919 2 8.03395 115.127 21.5536
920 2 11.8732 115.235 21.3942
921 2 0.0723913 119.001 21.283
922 2 3.98485 119.087 21.3495
923 2 8.01162 119.07 21.3121
924 2 11.9945 118.974 21.4371
925 2 15.6739 122.965 21.467
926 2 3.95742 123.01 21.301
927 2 8.00411 122.862 21.2369
928 2 11.8692 123.037 21.2928
929 2 15.8037 126.9 21.2129
930 2 4.00592 127.02 21.1814
931 2 7.96164 126.914 21.2691
932 2 11.7682 127.129 21.1832
933 2 15.8082 130.919 21.2267
934 2 4.01314 131.076 20.9777
935 2 7.9554 130.766 21.048
936 2 11.9751 130.817 21.2724
937 2 -0.173089 134.764 21.1556
938 2 3.9743 134.584 21.0111
939 2 8.02245 134.682 21.1105
940 2 11.8964 134.706 21.0425
941 2 15.9014 138.64 21.1363
942 2 4.09585 138.502 21.081
943 2 7.89733 138.65 21.1854
944 2 12.0083 138.67 21.0234
945 2 15.9873 142.558 20.9749
946 2 3.99232 142.467 21.0404
947 2 7.98556 142.439 21.1517
948 2 11.793 142.498 21.0319
949 2 15.8556 146.602 20.8112
950 2 3.90794 146.404 21.0291
951 2 7.9235 146.586 21.0508
952 2 11.8803 146.472 20.9689
953 2 15.8284 150.522 20.7985
954 2 3.83673 150.362 20.845
955 2 7.81531 150.35 21.0934
956 2 11.8293 150.422 20.8041
957 2 15.8912 154.235 20.9416
958 2 3.78267 154.336 20.7726
959 2 7.93698 154.303 20.9573
960 2 11.7937 154.454 20.7962
961 2 0.0255008 158.214 24.7636
962 2 4.10166 158.395 25.0053
963 2 7.95226 158.289 24.8705
964 2 11.8905 158.384 24.8512
965 2 15.9401 3.79209 24.5795
966 2 3.9333 3.8557 24.7549
967 2 8.09849 4.09099 24.8845
968 2 11.9309 3.81289 24.9056
969 2 16.0146 7.85395 24.6138
970 2 4.01281 7.9798 24.7885
971 2 7.96787 7.7467 24.8754
972 2 12.0685 7.796 24.9114
973 2 15.9801 11.8891 24.7455
974 2 4.07661 11.5892 24.7136
975 2 7.94935 11.7955 24.679
976 2 12.0106 11.6503 24.7118
977 2 0.143711 15.5558 24.771
978 2 4.01935 15.7422 24.5845
979 2 8.00629 15.5763 24.7151
980 2 11.8997 15.3876 24.7949
981 2 0.126388 19.5241 24.6941
982 2 3.97914 19.2532 24.5343
983 2 8.09275 19.3942 24.7551
984 2 11.8751 19.5042 24.6618
985 2 0.0272688 23.404 24.7406
986 2 4.10053 23.3217 24.5719
987 2 7.97965 23.3938 24.6314
988 2 11.8564 23.5508 24.5205
989 2 0.305819 27.4084 24.5482
990 2 4.21771 27.3871 24.5879
991 2 7.98275 27.4015 24.4069
992 2 11.9574 27.3367 24.6435