ITEM: TIMESTEP
22700
ITEM: NUMBER OF ATOMS
32000
ITEM: BOX BOUNDS xy xz yz pp pp pp
0.0000000000000000e+00 1.5832000000000001e+01 0.0000000000000000e+00
0.0000000000000000e+00 1.5831999999999999e+02 0.0000000000000000e+00
8.3846759986161601e-01 1.6013865040013388e+02 0.0000000000000000e+00
ITEM: ATOMS id type x y z
1 2 15.8331 158.018 160.051
2 2 3.95627 157.912 160.026
3 2 8.04892 157.929 160.023
4 2 11.8286 157.682 159.884
5 2 0.195646 3.63065 160.09
6 2 4.10217 3.50817 160.079
7 2 7.87985 3.60794 160.068
8 2 11.9231 3.56644 159.854
9 2 15.7866 7.44154 159.99
10 2 4.07351 7.35622 159.954
11 2 8.0568 7.60443 159.828
12 2 11.9338 7.33885 159.775
13 2 15.8092 11.1739 159.833
14 2 3.92982 11.3197 159.765
15 2 8.08073 11.3732 159.805
16 2 11.8621 11.3723 159.75
17 2 0.0671792 15.0993 159.791
18 2 4.00396 15.255 159.707
19 2 8.06582 15.2535 159.772
20 2 12.2244 15.1321 159.689
21 2 15.9424 19.1678 159.84
22 2 4.12132 19.0867 159.802
23 2 7.88849 19.0363 159.647
24 2 12.0461 18.9326 159.72
25 2 15.6871 22.9734 159.742
26 2 4.00355 22.9581 159.73
27 2 7.88608 23.0543 159.57
28 2 11.8366 22.9419 159.686
29 2 15.9992 26.9998 159.534
30 2 3.88323 26.8484 159.758
31 2 7.7827 26.9783 159.919
32 2 12.0331 27.2606 159.672
33 2 15.8923 30.9957 159.864
34 2 4.06492 30.8587 0.537483
35 2 7.95331 31.0312 159.95
36 2 11.9301 31.0877 159.717
37 2 0.068422 35.2223 159.578
38 2 4.02312 34.9335 159.801
39 2 7.95634 34.9121 159.963
40 2 11.9661 35.1106 159.744
41 2 -0.0408346 39.2851 159.883
42 2 4.05556 39.2289 0.683646
43 2 7.77186 38.9807 0.59769
44 2 11.7437 39.1947 0.667189
45 2 0.0536443 43.1059 160.123
46 2 4.2754 43.1868 159.841
47 2 8.03089 43.052 0.783006
48 2 11.8115 43.2128 0.842543
49 2 -0.168298 47.1171 0.684851
50 2 4.02511 46.9751 0.664324
51 2 7.94722 47.1968 0.963582
52 2 11.7544 47.2374 0.736078
53 2 0.0667747 51.123 0.885948
54 2 3.93141 51.2599 1.10456
55 2 7.74242 51.1834 0.792392
56 2 11.9153 51.2123 0.832684
57 2 15.9883 55.2044 0.999232
58 2 3.93177 55.2409 0.85404
59 2 7.90535 55.2155 0.881647
60 2 11.8987 55.3083 0.86377
61 2 -0.0158885 59.4892 0.788514
62 2 3.76204 59.4046 1.01726
63 2 8.00208 59.2826 1.07668
64 2 11.876 59.1799 1.00513
65 2 -0.221743 63.3039 1.07443
66 2 3.86878 63.3397 1.13092
67 2 7.84872 63.3812 1.10662
68 2 11.7986 63.2989 0.907047
69 2 15.8638 67.2496 1.11088
70 2 3.8371 67.328 1.20177
71 2 7.9317 67.2182 1.07919
72 2 11.8254 67.1562 1.16385
73 2 0.0138346 71.2925 1.39314
74 2 3.92164 71.3652 1.27747
75 2 8.00388 71.3 1.19199
76 2 12.0612 71.3786 1.14076
77 2 0.137573 75.4313 1.32128
78 2 4.00727 75.2974 1.02998
79 2 7.96896 75.3802 1.44288
80 2 11.9761 75.232 1.33998
81 2 -0.046375 79.5783 1.41461
82 2 4.03341 79.3475 1.42299
83 2 8.03812 79.4598 1.38682
84 2 12.1402 79.4444 1.3811
85 2 0.0548125 83.5517 1.39475
86 2 4.19818 83.4049 1.4228
87 2 8.19025 83.4695 1.59413
88 2 11.9667 83.6177 1.35802
89 2 0.251221 87.4602 1.6075
90 2 4.03858 87.4637 1.63446
91 2 7.9309 87.5128 1.62508
92 2 11.9698 87.6049 1.53157
93 2 0.0248997 91.4551 1.49257
94 2 3.99537 91.3038 1.56229
95 2 8.03396 91.3923 1.51006
96 2 11.8531 91.4384 1.43514
97 2 16.0534 95.3308 1.48892
98 2 3.93076 95.3369 1.53275
99 2 7.87019 95.3665 1.59286
100 2 12.0575 95.2311 1.5799
101 2 0.0684917 99.3706 1.31827
102 2 3.93013 99.3319 1.38554
103 2 7.96449 99.2244 1.35873
104 2 11.8643 99.1946 1.4295
105 2 -0.0891453 103.212 1.24851
106 2 3.99673 103.157 1.37967
107 2 8.01088 103.058 1.30051
108 2 11.7968 102.997 1.40678
109 2 0.192477 107.169 1.37098
110 2 4.17062 107.111 1.35224
111 2 8.07932 107.038 1.48198
112 2 11.7342 106.979 1.43738
113 2 0.120455 110.919 1.2314
114 2 4.15845 110.991 1.25915
115 2 8.00094 111.037 1.15673
116 2 11.9702 110.894 1.3106
117 2 15.9263 114.7 1.125
118 2 3.92573 115.028 1.18516
119 2 7.96484 114.672 1.10413
120 2 11.9357 115.031 1.26175
121 2 0.1315 118.689 1.07367
122 2 4.11551 118.81 1.14696
123 2 7.95373 118.543 1.26168
124 2 11.8648 118.718 1.34236
125 2 15.9248 122.488 1.09064
126 2 4.14893 122.765 1.15793
127 2 7.91249 122.731 1.17682
128 2 12.1379 122.68 1.13688
129 2 0.198726 126.598 0.899688
130 2 4.14637 126.465 1.08205
131 2 8.11053 126.557 1.14277
132 2 12.1227 126.552 1.15714
133 2 16.0043 130.414 1.17402
134 2 4.06497 130.489 1.25121
135 2 7.90914 130.456 1.11207
136 2 12.1367 130.602 0.959031
137 2 15.9268 134.453 0.966429
138 2 4.15453 134.292 1.2612
139 2 7.9894 134.509 160.458
140 2 11.9806 134.429 1.09018
141 2 0.315699 138.19 0.920346
142 2 4.10973 138.208 160.253
143 2 8.08846 138.319 160.048
144 2 11.9888 138.358 0.87544
145 2 15.8927 142.229 160.264
146 2 3.96633 142.188 160.35
147 2 7.92944 142.329 160.265
148 2 11.9292 142.248 160.185
149 2 -0.0134359 146.101 160.159
150 2 4.21324 146.257 160.208
151 2 7.98663 146.281 160.079
152 2 12.0465 146.137 160.221
153 2 16.0854 149.998 160.136
154 2 4.01698 149.827 160.002
155 2 8.29456 150.191 159.981
156 2 12.038 150.08 0.78203
157 2 15.9343 153.887 160.024
158 2 3.9766 153.936 160.133
159 2 8.02614 154.003 159.897
160 2 12.0471 153.794 160.057
161 2 15.7687 158.048 4.66286
162 2 3.83646 157.883 4.70204
163 2 8.11679 158.081 4.78905
164 2 11.8964 158.059 4.64184
165 2 0.118166 3.54667 4.84715
166 2 4.03789 3.48188 4.74642
167 2 7.90626 3.56814 4.78418
168 2 11.8578 3.42715 4.59444
169 2 -0.0355356 7.53903 4.63111
170 2 4.01297 7.52042 4.58023
171 2 7.8243 7.37235 4.72652
172 2 11.7698 7.3704 4.58146
173 2 0.00524172 11.4913 4.63565
174 2 3.93957 11.5353 4.71296
175 2 7.76425 11.2355 4.55453
176 2 12.0392 11.4408 4.46254
177 2 15.9044 15.2618 4.53868
178 2 4.25831 15.4513 4.66973
179 2 7.94872 15.2031 4.56099
180 2 11.8825 15.4412 4.6196
181 2 0.0360136 19.2806 4.56207
182 2 4.03089 19.1475 4.57057
183 2 8.10019 19.095 4.39881
184 2 12.0193 19.1618 4.49175
185 2 0.0299053 23.001 4.28166
186 2 3.9166 23.1614 4.50595
187 2 8.06584 22.9739 4.3305
188 2 11.8224 23.2273 4.49413
189 2 15.8874 26.9703 4.12287
190 2 3.91328 26.8653 4.40103
191 2 8.0059 27.0776 4.39939
192 2 11.8994 26.9537 4.36381
193 2 -0.152484 30.9474 4.32556
194 2 3.75103 31.1261 4.40201
195 2 7.87892 30.9058 4.36511
196 2 11.7944 31.0255 4.57344
197 2 -0.117003 35.1755 4.3924
198 2 3.74828 34.9621 4.60454
199 2 7.8875 35.003 4.6321
200 2 11.8901 35.0513 4.22831
201 2 15.9129 39.2438 4.45923
202 2 3.8645 39.015 4.6866
203 2 7.74517 39.205 4.65228
204 2 11.8936 39.037 4.73056
205 2 -0.0520533 42.9439 4.44228
206 2 3.94352 42.9317 4.6939
207 2 7.8522 43.0058 4.80022
208 2 11.9183 42.9999 4.64093
209 2 -0.171054 46.9642 4.59032
210 2 3.86891 47.0137 4.65312
211 2 7.87359 46.9509 4.6531
212 2 12.1098 47.055 4.69447
213 2 0.0835614 51.1311 4.67833
214 2 4.01363 51.1236 4.86077
215 2 7.95921 51.1027 4.8955
216 2 11.7892 51.1728 4.71254
217 2 0.0096959 55.1065 4.81613
218 2 4.0894 55.2232 4.93746
219 2 8.02107 55.1834 4.89762
220 2 11.8577 55.0079 4.73443
221 2 15.8479 59.1654 4.87065
222 2 3.95229 59.2117 4.84876
223 2 7.85217 59.0051 4.77457
224 2 11.6531 59.2387 4.8213
225 2 0.188365 63.3211 4.89071
226 2 3.91401 63.2757 5.16258
227 2 7.79979 63.2829 4.91629
228 2 11.8793 63.133 5.04651
229 2 15.8954 67.2965 5.15638
230 2 4.17381 67.2844 5.19787
231 2 7.82427 67.2914 5.00138
232 2 11.7409 67.1391 5.10308
233 2 15.8214 71.2747 5.13478
234 2 3.88084 71.2027 5.27857
235 2 7.95558 71.1952 5.26703
236 2 11.8415 71.1582 4.87448
237 2 16.0644 75.4406 5.12721
238 2 4.23019 75.3899 5.07971
239 2 7.88823 75.2896 5.08736
240 2 11.925 75.402 5.23836
241 2 0.213276 79.5254 5.2513
242 2 4.10105 79.3995 5.29208
243 2 7.96548 79.2621 5.24375
244 2 11.8019 79.3352 5.29049
245 2 15.8929 83.6018 5.3497
246 2 4.12816 83.276 5.21701
247 2 8.15644 83.5104 5.39145
248 2 12.0133 83.395 5.52899
249 2 0.0864301 87.3969 5.53552
250 2 3.94247 87.6733 5.60884
251 2 7.85799 87.3555 5.56644
252 2 12.0082 87.398 5.58125
253 2 -0.125776 91.4439 5.62765
254 2 4.10814 91.5196 5.70492
255 2 8.19636 91.4086 5.6813
256 2 11.937 91.233 5.40007
257 2 15.7314 95.4101 5.46725
258 2 3.7518 95.438 5.53927
259 2 7.7586 95.317 5.5799
260 2 11.9167 95.2664 5.44095
261 2 -0.0617938 99.4326 5.46389
262 2 3.95991 99.3305 5.48293
263 2 8.02436 99.3021 5.62034
264 2 11.8185 99.17 5.4135
265 2 -0.0160882 103.158 5.47755
266 2 3.96641 103.068 5.34338
267 2 7.78893 103.134 5.25297
268 2 11.8982 103.117 5.32266
269 2 16.0048 107.139 5.47876
270 2 4.11807 107.14 5.18192
271 2 7.93113 107.16 5.48295
272 2 11.8628 106.99 5.22825
273 2 15.9354 111.015 5.23563
274 2 4.06946 110.977 5.19187
275 2 8.01058 111.155 5.36541
276 2 11.836 111.222 5.34972
277 2 0.0278421 114.835 5.21702
278 2 4.00196 114.944 5.28791
279 2 7.97464 114.957 5.34782
280 2 11.8945 114.984 5.26997
281 2 0.0941002 118.831 5.21345
282 2 4.05385 119.057 5.17722
283 2 8.01596 118.922 5.24173
284 2 12.1219 118.763 5.11287
285 2 15.9478 122.765 5.26835
286 2 4.07991 122.555 5.19651
287 2 8.26302 122.813 5.10954
288 2 12.0813 122.827 5.30227
289 2 0.129532 126.476 5.06897
290 2 4.1341 126.739 5.21036
291 2 8.30822 126.488 5.1032
292 2 11.9947 126.684 5.2044
293 2 0.0586594 130.446 5.12609
294 2 3.97557 130.417 5.10476
295 2 7.92487 130.536 5.2177
296 2 11.8135 130.462 4.9851
297 2 16.0551 134.365 5.2281
298 2 4.00095 134.378 5.12552
299 2 7.98004 134.374 5.09557
300 2 12.0185 134.285 4.99095
301 2 -0.153001 138.25 4.93919
302 2 4.02648 138.279 4.928
303 2 8.20412 138.326 4.99657
304 2 12.0088 138.182 5.12856
305 2 0.254729 142.124 4.74752
306 2 4.13397 142.115 4.68302
307 2 8.04729 142.281 4.90207
308 2 11.904 142.192 5.06893
309 2 16.0131 146.058 4.90377
310 2 4.20572 146.231 4.91512
311 2 8.01527 146.206 4.99909
312 2 11.8818 146.127 4.95863
313 2 16.0179 150.014 4.87807
314 2 4.22591 150.137 4.80174
315 2 8.12738 150.128 4.84207
316 2 11.9625 149.941 4.5805
317 2 15.834 154.077 4.86133
318 2 3.92726 154.015 4.74697
319 2 7.78897 154.074 4.68959
320 2 11.752 154.111 4.85779
321 2 15.6992 158.056 8.81421
322 2 3.96681 158.051 8.85067
323 2 7.89106 158.129 8.86547
324 2 11.8445 157.907 8.63453
325 2 15.8121 3.75984 8.72143
326 2 3.92251 3.71192 8.74594
327 2 7.86745 3.65262 8.77612
328 2 11.8636 3.64724 8.62255
329 2 15.8148 7.6057 8.60939
330 2 4.01044 7.62452 8.56092
331 2 7.87648 7.69539 8.73774
332 2 11.7333 7.43689 8.71329
333 2 0.00409885 11.4899 8.6365
334 2 4.04451 11.3745 8.46092
335 2 8.12925 11.4366 8.64305
336 2 11.7775 11.2665 8.67822
337 2 15.9501 15.397 8.51505
338 2 4.10087 15.591 8.521
339 2 7.97981 15.4673 8.55039
340 2 11.9279 15.3865 8.6492
341 2 -0.204526 19.3258 8.64813
342 2 3.99429 19.4841 8.58253
343 2 8.06981 19.2833 8.6811
344 2 12.0423 19.1016 8.4575
345 2 -0.155762 23.0291 8.38081
346 2 3.87758 23.2774 8.56359
347 2 7.841 23.4119 8.50739
348 2 11.681 23.2746 8.39762
349 2 0.0658221 26.8781 8.33607
350 2 4.02908 27.1104 8.2818
351 2 7.84385 27.3022 8.34659
352 2 12.0351 27.0054 8.45591
353 2 -0.153849 30.92 8.36058
354 2 3.78737 30.9214 8.43996
355 2 7.95846 30.9117 8.15676
356 2 11.9307 31.0604 8.54272
357 2 15.7439 35.1529 8.3645
358 2 3.87857 35.0717 8.57788
359 2 7.94248 34.9076 8.32661
360 2 11.7406 34.8606 8.37887
361 2 -0.100125 39.0107 8.61259
362 2 3.87396 39.0095 8.40967
363 2 7.87793 38.8969 8.5006
364 2 11.7457 38.8727 8.58582
365 2 -0.0106316 42.9942 8.56127
366 2 3.90463 43.0879 8.59484
367 2 7.89017 42.9858 8.65013
368 2 11.9011 43.0334 8.55519
369 2 0.0362808 47.0521 8.7206
370 2 3.81562 46.8912 8.59259
371 2 8.0179 47.0665 8.47936
372 2 11.9697 47.0726 8.70983
373 2 15.8319 51.0332 8.57634
374 2 3.99914 51.078 8.75379
375 2 8.0094 51.0072 8.63644
376 2 11.8274 51.0274 8.77494
377 2 15.7071 55.051 8.77448
378 2 3.9439 55.084 8.77301
379 2 7.872 55.2065 8.80415
380 2 11.928 55.1112 8.65475
381 2 -0.0956551 59.0922 8.8691
382 2 3.87509 59.0441 8.90992
383 2 7.82578 59.0038 8.84419
384 2 11.744 59.0297 8.66427
385 2 -0.0692426 63.0983 8.77397
386 2 3.84997 63.2156 8.86619
387 2 7.63888 63.1309 8.84575
388 2 11.8588 63.0888 8.81535
389 2 15.6496 67.0884 9.01759
390 2 3.86868 67.2385 9.01524
391 2 8.03349 67.1365 9.20127
392 2 11.8319 67.1727 8.98898
393 2 15.9339 71.3762 9.10586
394 2 4.05134 71.2071 9.01711
395 2 8.06952 71.2606 9.21311
396 2 12.015 71.3072 8.98176
397 2 15.9214 75.2081 9.16875
398 2 3.97136 75.2594 9.17089
399 2 8.0391 75.2939 9.24529
400 2 11.9293 75.2053 9.08843
401 2 15.882 79.2092 9.33046
402 2 4.16271 79.373 9.19027
403 2 8.03542 79.514 9.06083
404 2 11.8683 79.1952 9.19434
405 2 0.00383238 83.1756 9.16591
406 2 3.92503 83.2762 9.31002
407 2 8.01604 83.3284 9.29437
408 2 11.7883 83.529 9.31043
409 2 0.188328 87.4078 9.48929
410 2 3.94914 87.3018 9.41623
411 2 7.85158 87.2279 9.51523
412 2 11.9165 87.3831 9.5637
413 2 -0.106322 91.3763 9.6741
414 2 4.22755 91.3304 9.50963
415 2 7.92459 91.4385 9.60421
416 2 11.8443 91.4471 9.36915
417 2 15.7681 95.148 9.5269
418 2 4.07641 95.4086 9.33405
419 2 7.96383 95.531 9.4727
420 2 11.8046 95.3574 9.58585
421 2 15.7744 99.3899 9.57611
422 2 3.84931 99.3842 9.36418
423 2 7.86147 99.4046 9.49658
424 2 11.9859 99.2906 9.47693
425 2 0.165714 103.359 9.47604
426 2 3.994 103.343 9.40104
427 2 8.13765 103.197 9.30545
428 2 12.0486 103.29 9.44721
429 2 0.138835 107.277 9.36349
430 2 4.1265 107.421 9.33504
431 2 8.07677 107.083 9.31002
432 2 12.0714 107.064 9.44295
433 2 15.6483 111.007 9.05349
434 2 4.12891 111.203 9.2922
435 2 8.08424 111.01 9.35055
436 2 11.9857 111.007 9.55626
437 2 -0.0239939 114.938 9.17352
438 2 3.96307 114.977 9.48775
439 2 7.91754 114.969 9.41887
440 2 12.0261 114.918 9.29439
441 2 0.0980933 118.801 9.17968
442 2 4.09445 119.136 9.34706
443 2 8.05885 118.813 9.20541
444 2 11.921 118.981 9.26258
445 2 16.02 122.812 9.31589
446 2 3.98673 123.008 9.28685
447 2 8.0202 122.791 9.22786
448 2 11.9801 122.723 9.29226
449 2 15.6751 126.687 9.02114
450 2 3.96532 126.44 8.95696
451 2 8.12557 126.593 9.22426
452 2 11.9393 126.685 9.21421
453 2 0.100742 130.499 9.1643
454 2 4.08682 130.395 9.23565
455 2 7.99968 130.436 9.11904
456 2 11.9991 130.651 9.15958
457 2 0.162461 134.479 9.23777
458 2 4.202 134.466 9.06102
459 2 8.10715 134.498 9.16623
460 2 12.1169 134.449 9.10834
461 2 0.0281977 138.388 9.13555
462 2 4.30476 138.461 8.9113
463 2 8.04292 138.44 9.0498
464 2 11.7402 138.475 9.12531
465 2 0.13366 142.439 8.77268
466 2 4.03137 142.39 8.82804
467 2 7.99496 142.266 8.86367
468 2 12.0956 142.508 8.82151
469 2 15.8403 146.425 8.84966
470 2 3.96817 146.326 8.99477
471 2 8.04256 146.377 9.03497
472 2 12.0046 146.409 8.91218
473 2 15.776 150.338 8.78404
474 2 3.81293 150.228 8.84923
475 2 7.81227 150.286 8.91629
476 2 11.9882 150.2 8.80647
477 2 15.9313 154.099 8.83703
478 2 4.04287 154.297 8.90423
479 2 8.01323 153.972 8.73224
480 2 11.9203 153.979 8.64518
481 2 15.9222 158.127 12.7648
482 2 4.13323 158.194 12.8139
483 2 7.85123 158.129 12.9096
484 2 11.9495 157.996 12.7412
485 2 15.8537 3.64302 12.8258
486 2 3.87666 3.82549 12.6989
487 2 7.9318 3.65077 12.8035
488 2 12.0475 3.64997 12.6711
489 2 16.081 7.65133 12.6208
490 2 4.12939 7.63725 12.7812
491 2 7.9996 7.73156 12.6487
492 2 11.8764 7.52831 12.5792
493 2 0.21272 11.6644 12.692
494 2 3.99501 11.545 12.6177
495 2 7.76207 11.4812 12.6873
496 2 12.0626 11.6599 12.6059
497 2 0.189768 15.1499 12.3754
498 2 3.96606 15.3893 12.5186
499 2 7.81318 15.4524 12.4461
500 2 11.962 15.4245 12.6711
501 2 0.0319878 19.3667 12.6838
502 2 3.94925 19.4022 12.4634
503 2 7.80387 19.4153 12.7147
504 2 11.7825 19.4388 12.5492
505 2 -0.122678 23.1947 12.4775
506 2 3.90071 23.4788 12.4828
507 2 7.75682 23.2704 12.5114
508 2 11.7213 23.3993 12.3509
509 2 0.0201756 26.9088 12.4525
510 2 4.11205 27.1735 12.5319
511 2 7.72007 27.2578 12.3741
512 2 11.8575 27.217 12.3296
513 2 -0.100607 30.907 12.4475
514 2 3.91518 30.9627 12.3726
515 2 7.91204 31.1629 12.1766
516 2 11.7322 30.8124 12.4685
517 2 0.0498305 34.9501 12.2901
518 2 4.13439 34.8832 12.4521
519 2 8.16952 34.9123 12.3493
520 2 12.007 34.8474 12.4043
521 2 -0.158697 39.0093 12.6733
522 2 3.81799 38.9058 12.2628
523 2 8.00858 38.8244 12.5531
524 2 11.8774 38.9436 12.4583
525 2 -0.167757 42.947 12.4947
526 2 3.94569 42.8248 12.5689
527 2 7.75345 42.9997 12.4785
528 2 11.9212 43.0674 12.3113
529 2 -0.0240742 47.0099 12.5376
530 2 3.97947 46.9839 12.4738
531 2 7.9155 47.0199 12.4554
532 2 11.7658 46.9809 12.5443
533 2 0.0769589 51.0465 12.6738
534 2 4.09996 51.0529 12.4719
535 2 7.82007 50.9398 12.669
536 2 11.7812 51.1588 12.8799
537 2 15.8122 55.1835 12.7268
538 2 4.01228 54.9757 12.4904
539 2 8.13547 55.0611 12.4991
540 2 12.0277 55.0864 12.473
541 2 15.7808 59.0162 12.7318
542 2 3.82774 58.9455 12.6665
543 2 7.83706 58.9776 12.803
544 2 11.5454 59.4561 12.842
545 2 15.7581 62.9159 12.551
546 2 3.85333 63.2741 12.8688
547 2 7.7114 63.2216 12.4835
548 2 11.7467 63.0279 12.8323
549 2 -0.0800357 67.1613 13.0512
550 2 3.9021 67.1716 12.9667
551 2 7.80055 67.1133 13.0676
552 2 11.7933 67.0545 12.9918
553 2 -0.0272603 71.3329 12.7956
554 2 4.10561 70.9711 12.9739
555 2 8.00811 71.0796 13.0697
556 2 11.9023 71.2116 12.8455
557 2 -0.087793 75.1421 13.0555
558 2 3.94642 75.1274 13.0029
559 2 7.97358 75.1655 13.1563
560 2 11.9382 75.2898 13.2584
561 2 0.0819891 79.1993 13.009
562 2 4.23654 79.0511 13.0886
563 2 8.0902 79.1029 13.1029
564 2 11.9536 79.2414 13.0458
565 2 0.0795674 83.1848 13.3192
566 2 3.92352 83.1807 13.36
567 2 7.93934 82.9798 13.113
568 2 12.0573 83.3216 13.1628
569 2 0.130691 87.2804 13.2589
570 2 3.88985 87.3471 13.3032
571 2 7.91147 87.281 13.3804
572 2 11.9558 87.1232 13.2914
573 2 -0.0535231 91.5039 13.4376
574 2 3.78117 91.3331 13.232
575 2 7.88638 91.3298 13.3809
576 2 11.846 91.5017 13.3704
577 2 -0.0588058 95.2073 13.4683
578 2 3.98452 95.2307 13.3205
579 2 7.89296 95.3868 13.2709
580 2 11.7049 95.4056 13.5671
581 2 0.0435077 99.2645 13.3956
582 2 3.98299 99.2244 13.2447
583 2 7.89007 99.1928 13.4652
584 2 11.926 99.5169 13.6082
585 2 0.0821802 103.076 13.5494
586 2 3.94663 103.426 13.6185
587 2 7.82779 103.264 13.6503
588 2 11.8651 103.358 13.6121
589 2 0.16894 107.267 13.4525
590 2 4.04181 107.169 13.3778
591 2 7.94287 107.133 13.427
592 2 11.9586 107.161 13.5052
593 2 0.326053 111.232 13.1895
594 2 4.10519 111.087 13.4552
595 2 7.96132 111.156 13.1842
596 2 12.0801 111.08 13.476
597 2 0.0980899 115.105 13.4587
598 2 3.9441 115.148 13.3199
599 2 8.10415 115.107 13.1502
600 2 11.9709 115.127 13.3363
601 2 0.162864 118.849 13.2441
602 2 4.15638 119.088 13.3816
603 2 8.09111 118.952 13.3921
604 2 11.9409 119.056 13.2547
605 2 -0.0976422 122.877 13.2256
606 2 3.8882 122.826 13.1622
607 2 7.97951 122.84 13.2294
608 2 11.9234 122.952 13.3188
609 2 -0.0412794 126.875 13.2168
610 2 3.8383 126.749 13.2679
611 2 8.09988 126.845 13.1912
612 2 11.9715 126.732 13.2653
613 2 15.9463 130.763 13.1726
614 2 4.03187 130.592 13.2076
615 2 7.86566 130.712 13.1696
616 2 11.9999 130.58 13.3318
617 2 15.8771 134.49 13.0014
618 2 4.07029 134.593 13.1627
619 2 7.99839 134.531 13.2378
620 2 11.8719 134.529 13.2318
621 2 0.279202 138.39 12.7424
622 2 3.98567 138.55 13.0048
623 2 8.06814 138.563 13.063
624 2 12.0921 138.566 12.9644
625 2 15.9913 142.33 12.9413
626 2 3.95487 142.472 13.0368
627 2 7.9758 142.35 13.0824
628 2 12.0391 142.374 12.9959
629 2 0.109391 146.493 13.0284
630 2 3.87672 146.375 12.7737
631 2 8.00065 146.224 12.9441
632 2 11.9509 146.31 12.7769
633 2 -0.0997494 150.308 12.9877
634 2 4.09292 150.402 13.0277
635 2 7.87003 150.24 12.8461
636 2 11.9087 150.274 12.8808
637 2 15.8942 154.172 12.896
638 2 4.08528 154.435 12.8443
639 2 7.91706 154.016 12.653
640 2 11.968 154.171 12.8353
641 2 0.00108211 158.213 16.764
642 2 3.77567 -0.0468781 16.8784
643 2 7.99412 158.227 16.9865
644 2 11.916 158.188 16.6938
645 2 15.7737 3.88874 16.6523
646 2 3.98257 3.93268 16.6719
647 2 8.02643 3.82956 16.751
648 2 11.8973 3.78557 16.8491
649 2 0.0482389 7.80751 16.7727
650 2 4.05277 7.70929 16.6896
651 2 7.89976 7.70667 16.7755
652 2 11.8131 7.76294 16.7398
653 2 -0.140718 11.6275 16.7136
654 2 3.86595 11.6432 16.6714
655 2 8.06323 11.5673 16.7189
656 2 12.0028 11.6412 16.769
657 2 0.135578 15.5821 16.7319
658 2 4.15439 15.5469 16.5707
659 2 8.1947 15.7621 16.4828
660 2 12.1206 15.764 16.5522
661 2 15.9928 19.5446 16.5916
662 2 4.01229 19.424 16.5562
663 2 7.77794 19.6057 16.5539
664 2 11.8391 19.6985 16.5139
665 2 -0.0256239 23.3565 16.4827
666 2 4.04304 23.3856 16.606
667 2 7.94234 23.4024 16.4857
668 2 11.7419 23.2363 16.6264
669 2 0.196438 27.1645 16.6133
670 2 4.09649 27.137 16.6033
671 2 7.84786 27.1371 16.5307
672 2 11.9663 27.2627 16.5493
673 2 -0.100994 31.1182 16.361
674 2 3.78739 31.0182 16.4523
675 2 7.93291 31.0255 16.5656
676 2 11.8018 30.9861 16.2387
677 2 0.0179754 34.8318 16.332
678 2 3.96555 34.9348 16.4085
679 2 7.80098 34.9604 16.3468
680 2 11.6297 34.9923 16.2946
681 2 -0.0608332 38.8751 16.4022
682 2 3.84814 38.806 16.3487
683 2 7.89643 39.1141 16.4568
684 2 11.7653 39.0873 16.35
685 2 0.0930227 42.8395 16.4062
686 2 4.05554 42.9691 16.615
687 2 8.07441 43.0152 16.4755
688 2 11.9578 43.0739 16.3246
689 2 15.9495 46.8532 16.2627
690 2 4.02401 46.7871 16.4411
691 2 7.79083 46.9302 16.4071
692 2 12.0565 47.1463 16.5044
693 2 0.0782543 51.0187 16.5604
694 2 4.04965 50.9481 16.598
695 2 7.83597 50.9185 16.577
696 2 11.8008 50.9817 16.4357
697 2 -0.190287 55.0017 16.6099
698 2 4.04237 54.8581 16.4923
699 2 7.97478 54.9592 16.5623
700 2 12.0024 54.9368 16.5787
701 2 0.00787196 58.9468 16.5061
702 2 3.92912 58.9201 16.5956
703 2 7.80544 58.9621 16.5802
704 2 11.6536 59.2504 16.6809
705 2 -0.050411 63.0053 16.7249
706 2 3.93754 62.8761 16.5593
707 2 7.79376 63.0436 16.7302
708 2 11.8305 63.0136 16.8612
709 2 -0.0708137 67.0381 16.8523
710 2 3.83591 66.9533 16.7741
711 2 7.93461 66.8497 16.9981
712 2 11.9109 66.9253 16.7664
713 2 0.103952 71.152 16.9093
714 2 4.12658 71.1908 16.797
715 2 8.03004 70.9769 16.7357
716 2 11.8704 71.0608 16.848
717 2 0.148414 75.036 16.8358
718 2 4.04205 75.1726 17.0214
719 2 8.02004 75.0688 16.899
720 2 11.9806 75.2505 17.0969
721 2 0.086367 78.9812 16.9862
722 2 4.06846 79.0674 17.1291
723 2 8.07031 79.1455 16.9811
724 2 11.9502 79.1174 16.9574
725 2 0.143594 83.0692 17.2281
726 2 4.01017 82.9619 17.0484
727 2 7.98651 82.9724 17.0579
728 2 11.8546 83.0918 17.1592
729 2 -0.0488171 87.1665 17.3094
730 2 3.91204 87.1682 17.3244
731 2 7.56682 87.2479 17.3305
732 2 11.864 87.0685 17.0202
733 2 -0.181805 91.0639 17.228
734 2 3.84417 91.2408 17.3751
735 2 8.06402 91.1596 17.1889
736 2 11.8364 91.1348 17.2252
737 2 0.089104 95.2069 17.0111
738 2 3.96302 95.2301 17.3707
739 2 7.83756 95.3978 17.3344
740 2 11.8733 95.3418 17.4743
741 2 -0.183731 99.3078 17.3017
742 2 3.86548 99.2982 17.4381
743 2 8.15762 99.1303 17.372
744 2 11.8878 99.4327 17.4496
745 2 -0.00350528 102.981 17.4876
746 2 4.01523 103.386 17.5476
747 2 8.03325 103.343 17.5301
748 2 11.8734 103.443 17.2668
749 2 0.150799 107.083 17.4248
750 2 3.9454 107.281 17.3009
751 2 8.03282 107.193 17.5833
752 2 11.7597 107.255 17.4076
753 2 -0.0942676 111.082 17.3144
754 2 4.14801 111.053 17.192
755 2 7.95735 111.129 17.4406
756 2 12.0202 111.107 17.3378
757 2 0.118658 115.116 17.4276
758 2 4.04634 115.184 17.3439
759 2 7.89813 115.019 17.3814
760 2 12.0168 115.022 17.3377
761 2 0.0313924 119.323 17.129
762 2 3.99336 118.907 17.3345
763 2 7.92248 118.842 17.5795
764 2 12.0224 118.986 17.3318
765 2 0.18107 123.045 17.1384
766 2 4.11354 122.8 17.3207
767 2 8.1346 122.765 17.4761
768 2 11.957 122.897 17.4193
769 2 15.9911 126.93 17.2811
770 2 3.94031 126.69 17.3774
771 2 8.00718 126.617 17.2058
772 2 11.9628 126.743 17.3469
773 2 16.0021 130.823 17.2315
774 2 4.0832 130.734 17.062
775 2 8.01428 130.845 17.179
776 2 11.9428 130.673 17.26
777 2 15.7086 134.498 17.0915
778 2 3.80013 134.897 16.9836
779 2 7.91684 134.667 17.1638
780 2 11.8811 134.526 17.0524
781 2 -0.0200131 138.611 16.9843
782 2 3.95746 138.513 17.0667
783 2 8.28626 138.444 17.0784
784 2 11.9296 138.606 16.9417
785 2 16.003 142.512 17.0059
786 2 4.21166 142.51 16.9599
787 2 7.98707 142.465 17.1094
788 2 12.1255 142.479 17.1004
789 2 15.7473 146.342 16.9802
790 2 4.02971 146.377 16.9511
791 2 8.09279 146.462 16.9673
792 2 11.947 146.52 16.764
793 2 15.8003 150.135 17.0207
794 2 4.11362 150.269 16.7986
795 2 7.90465 150.148 16.9095
796 2 11.7395 150.326 16.8962
797 2 15.7994 154.284 16.9205
798 2 3.97068 154.279 16.6146
799 2 8.03573 154.256 16.8829
800 2 11.8995 154.315 16.9354
801 2 15.9847 158.187 20.7809
802 2 4.05233 158.203 20.8642
803 2 7.75412 158.235 20.9152
804 2 11.7417 158.181 20.9518
805 2 0.0181022 3.76568 20.6983
806 2 3.89266 3.83772 20.9148
807 2 7.84802 3.82775 20.6757
808 2 11.9135 3.87589 20.8411
809 2 15.9252 7.59664 20.845
810 2 4.02868 7.89702 20.6618
811 2 8.07231 7.8082 20.8239
812 2 12.0422 7.76439 20.7705
813 2 15.832 11.7071 20.5828
814 2 4.02396 11.7892 20.5598
815 2 7.93998 11.7156 20.7756
816 2 11.9005 11.6054 20.7719
817 2 16.0968 15.6747 20.5528
818 2 4.23584 15.6786 20.5369
819 2 8.08117 15.26 20.5039
820 2 12.0739 15.5825 20.6498
821 2 0.101802 19.5405 20.5677
822 2 4.10045 19.4486 20.5985
823 2 7.97778 19.2672 20.4808
824 2 12.0792 19.4938 20.7358
825 2 0.213556 23.4441 20.5841
826 2 4.06803 23.3476 20.4882
827 2 7.94539 23.4035 20.6182
828 2 12.0701 23.4141 20.5857
829 2 15.9999 27.2003 20.6519
830 2 3.95362 27.1996 20.4152
831 2 8.06196 27.448 20.4811
832 2 12.0321 27.2855 20.4061
833 2 15.9605 31.2489 20.441
834 2 4.13094 31.1894 20.4725
835 2 8.1648 31.2831 20.4824
836 2 12.0004 31.0745 20.4356
837 2 15.7551 35.1427 20.332
838 2 4.17852 34.9324 20.501
839 2 7.93871 35.2979 20.3865
840 2 11.9726 34.9332 20.4429
841 2 0.155816 38.7803 20.4466
842 2 3.9557 38.9752 20.4594
843 2 8.0111 39.0301 20.4112
844 2 12.0736 39.0302 20.2664
845 2 15.7794 42.9754 20.4415
846 2 3.97652 43.1468 20.5564
847 2 7.92711 43.0048 20.2484
848 2 11.7901 43.1099 20.1407
849 2 15.9852 46.9881 20.4308
850 2 3.88986 47.0597 20.3458
851 2 7.9083 47.0229 20.4021
852 2 12.2195 47.117 20.393
853 2 -0.14851 50.9626 20.2315
854 2 3.85483 51.0431 20.3991
855 2 7.83765 50.8627 20.4156
856 2 11.7398 50.8287 20.261
857 2 -0.0312863 54.9577 20.3932
858 2 3.95211 54.97 20.6171
859 2 7.91977 54.911 20.3207
860 2 11.9457 54.8383 20.5763
861 2 15.6413 58.9159 20.6485
862 2 3.85065 58.9008 20.4314
863 2 7.71311 58.8185 20.5785
864 2 11.8032 58.9299 20.6882
865 2 15.8596 62.9405 20.7584
866 2 3.85171 63.031 20.5229
867 2 8.03839 62.9543 20.6516
868 2 11.9805 63.0291 20.7865
869 2 0.140653 67.0036 20.7527
870 2 4.04662 66.9051 20.7205
871 2 7.93313 66.8952 20.7714
872 2 12.1278 67.0253 20.53
873 2 -0.109307 70.8954 20.8152
874 2 4.18769 71.1899 20.506
875 2 7.78143 70.8529 20.7084
876 2 11.8307 70.9301 20.8126
877 2 -0.0873204 74.9394 20.843
878 2 4.07827 74.8867 20.9806
879 2 7.93038 74.672 20.9405
880 2 11.9901 74.9915 20.8381
881 2 -0.00706528 79 20.8967
882 2 4.13995 78.9928 20.8009
883 2 8.03356 78.9075 21.1114
884 2 11.996 79.0442 20.8868
885 2 0.320524 82.9661 20.9722
886 2 4.17695 83.0075 21.0665
887 2 8.0022 83.1427 20.9666
888 2 11.8332 82.8741 20.9559
889 2 -0.0235319 87.0772 20.9509
890 2 3.94588 87.2475 21.2782
891 2 7.87911 87.0194 21.0021
892 2 12.0137 86.9891 20.9669
893 2 0.0242006 91.0806 21.015
894 2 3.79026 91.0317 21.1825
895 2 7.89133 91.2454 21.0354
896 2 11.9088 91.2006 21.0707
897 2 0.0118426 95.1541 21.2653
898 2 4.14101 95.2301 21.259
899 2 7.90351 95.2044 21.4767
900 2 11.7718 95.1948 21.2854
901 2 0.0673953 99.1429 21.327
902 2 3.87955 99.1518 21.4341
903 2 7.98812 99.2919 21.4203
904 2 11.8444 99.338 21.2159
905 2 -0.0200392 103.533 21.5048
906 2 4.02417 103.165 21.298
907 2 7.93699 103.285 21.5398
908 2 12.0097 103.335 21.5612
909 2 0.226118 107.359 21.4665
910 2 3.87915 107.268 21.4256
911 2 7.8999 107.311 21.5384
912 2 12.0617 107.187 21.3859
913 2 0.0361038 110.919 21.3983
914 2 3.86541 111.177 21.4417
915 2 8.02671 111.138 21.5502
916 2 12.0996 111.113 21.4974
917 2 16.0675 115.105 21.2421
918 2 3.90261 115.106 21.2991
919 2 8.02331 115.14 21.3495
920 2 11.9065 114.941 21.3549
921 2 0.0834998 119.056 21.4491
922 2 4.05714 118.991 21.5018
923 2 7.89571 119.062 21.5252
924 2 11.8399 119.026 21.3126
925 2 15.9669 122.883 21.2133
926 2 3.87566 122.964 21.2179
927 2 7.97019 122.989 21.3544
928 2 12.016 123.023 21.2699
929 2 15.9369 126.851 21.3039
930 2 4.07936 127.065 21.2161
931 2 7.89281 126.916 21.2561
932 2 11.8168 126.882 21.2398
933 2 15.8243 130.704 21.0823
934 2 3.96586 130.76 21.363
935 2 7.85386 130.909 21.111
936 2 11.6884 130.83 21.0339
937 2 0.316143 134.657 21.1722
938 2 4.2152 134.834 21.2592
939 2 7.98757 134.899 21.0675
940 2 12.0009 134.724 21.075
941 2 15.6966 138.553 21.0838
942 2 3.93093 138.629 21.2013
943 2 8.07745 138.734 21.0093
944 2 11.8999 138.701 21.0998
945 2 15.806 142.384 21.0864
946 2 3.92416 142.468 21.0501
947 2 8.01658 142.582 20.9161
948 2 12.089 142.719 21.0709
949 2 15.9194 146.485 21.166
950 2 4.13137 146.391 20.8919
951 2 8.04598 146.387 20.9931
952 2 11.8973 146.506 21.0101
953 2 15.789 150.241 21.0207
954 2 4.00394 150.464 20.8571
955 2 7.97479 150.484 20.8643
956 2 11.9469 150.349 21.0562
957 2 15.8666 154.417 20.8129
958 2 4.06995 154.139 20.6398
959 2 8.07164 154.241 20.7939
960 2 11.9808 154.075 20.8834
961 2 0.177169 158.249 24.7728
962 2 3.94379 158.177 24.7048
963 2 8.01572 158.206 24.8776
964 2 11.9017 158.238 24.9085
965 2 15.7863 3.91106 24.9138
966 2 4.04507 3.98448 24.882
967 2 7.83255 3.69564 24.8582
968 2 12.0195 3.82112 24.7681
969 2 15.9167 7.7111 24.8328
970 2 3.9709 7.74328 24.7487
971 2 7.99053 7.87129 24.7558
972 2 11.8339 7.70375 24.6491
973 2 16.0662 11.6307 24.5687
974 2 4.03097 11.7786 24.7653
975 2 7.99869 11.7339 24.7085
976 2 12.1158 11.6027 24.7355
977 2 0.0375219 15.5608 24.5873
978 2 4.20211 15.5762 24.6857
979 2 8.11339 15.5485 24.7142
980 2 12.1109 15.6333 24.6326
981 2 -0.0789403 19.3645 24.6593
982 2 4.23934 19.664 24.6865
983 2 8.08247 19.6139 24.5093
984 2 11.8311 19.4805 24.5123
985 2 0.108028 23.464 24.6219
986 2 3.93509 23.3027 24.6824
987 2 7.8405 23.6006 24.5295
988 2 11.9617 23.3193 24.7124
989 2 0.106003 27.2475 24.5867
990 2 3.97832 27.3758 24.6148
991 2 8.13877 27.3323 24.6021
992 2 12.1234 27.37 24.4302
993 2 0.143153 30.9379 24.4252