ITEM: TIMESTEP
22800
ITEM: NUMBER OF ATOMS
32000
ITEM: BOX BOUNDS xy xz yz pp pp pp
0.0000000000000000e+00 1.5832000000000001e+01 0.0000000000000000e+00
0.0000000000000000e+00 1.5831999999999999e+02 0.0000000000000000e+00
8.2927407909303952e-01 1.6014784392090240e+02 0.0000000000000000e+00
ITEM: ATOMS id type x y z
1 2 15.8302 157.844 160.096
2 2 4.02861 158.077 160.061
3 2 7.83391 157.899 160.079
4 2 11.9793 157.919 160.111
5 2 -0.0304809 3.42826 159.936
6 2 3.93708 3.68923 159.987
7 2 8.1771 3.55558 159.923
8 2 12.0179 3.57447 159.954
9 2 15.9317 7.39851 159.853
10 2 3.95932 7.46057 160.052
11 2 7.98633 7.47834 160.021
12 2 11.8583 7.50622 159.964
13 2 15.8855 11.2547 159.99
14 2 3.99058 11.4732 159.931
15 2 7.74442 11.1998 159.961
16 2 12.0616 11.3016 160.076
17 2 0.232884 15.1761 159.671
18 2 4.15931 15.3676 159.773
19 2 8.01992 15.0524 159.871
20 2 11.9659 15.2618 159.846
21 2 15.8755 18.9805 159.694
22 2 3.96282 19.2166 159.73
23 2 7.89179 19.0013 159.716
24 2 11.7312 19.155 159.655
25 2 15.8734 22.9056 159.671
26 2 4.05978 23.0163 159.443
27 2 8.11452 22.9089 159.901
28 2 11.9335 23.0153 159.696
29 2 15.6827 26.9768 159.602
30 2 3.94513 26.9729 159.609
31 2 8.22068 27.0662 159.773
32 2 11.9931 26.895 159.794
33 2 15.8757 30.9936 159.793
34 2 3.84339 31.0743 0.470575
35 2 7.99935 30.8903 159.634
36 2 11.8703 31.0342 159.547
37 2 -0.0658555 35.017 160.016
38 2 3.92476 35.1116 159.929
39 2 7.89248 35.0938 159.889
40 2 11.8893 35.2576 159.997
41 2 0.134668 39.1004 159.901
42 2 3.91451 38.9044 0.570519
43 2 8.07245 39.0906 0.627262
44 2 11.9552 39.0971 0.692049
45 2 0.0578558 43.1741 159.928
46 2 3.80548 43.1841 160.192
47 2 7.73263 43.1328 0.828347
48 2 11.8721 42.9336 0.716174
49 2 0.0796174 47.1148 0.796514
50 2 3.9867 47.3347 0.827948
51 2 8.13381 47.0603 0.631009
52 2 12.0607 46.9741 0.897267
53 2 -0.115857 51.1889 0.88131
54 2 3.83836 51.0705 0.791573
55 2 7.94367 51.029 0.954496
56 2 11.8802 51.1588 0.893991
57 2 15.6528 55.1859 0.815415
58 2 3.90344 55.1208 1.06968
59 2 7.76497 55.1203 1.10306
60 2 11.7497 55.1745 1.15781
61 2 -0.0467144 59.0787 1.12078
62 2 3.91893 59.1284 1.08491
63 2 7.66989 59.2039 0.961661
64 2 11.7471 59.4164 1.02853
65 2 -0.149397 63.5031 1.08753
66 2 3.91857 63.4255 1.11141
67 2 8.01291 63.1927 1.09822
68 2 11.81 63.3451 0.975952
69 2 15.8353 67.3485 1.30957
70 2 3.84941 67.4436 1.19321
71 2 7.87107 67.2978 1.13989
72 2 11.8633 67.5177 1.04511
73 2 0.107688 71.4739 1.04325
74 2 3.9674 71.3663 1.3507
75 2 7.92113 71.3793 1.37599
76 2 11.9556 71.3662 1.20667
77 2 0.0486588 75.39 1.30353
78 2 3.93684 75.5031 1.46333
79 2 7.95015 75.4124 1.19895
80 2 11.9255 75.6886 1.30885
81 2 0.166025 79.5907 1.51664
82 2 4.08525 79.5912 1.52604
83 2 8.13032 79.4946 1.3578
84 2 11.9587 79.4921 1.29882
85 2 0.116369 83.5813 1.47506
86 2 4.17254 83.5954 1.33605
87 2 8.02096 83.5274 1.40052
88 2 12.1147 83.33 1.56745
89 2 -0.0544069 87.4262 1.41105
90 2 3.94005 87.5957 1.52708
91 2 7.92392 87.3871 1.61955
92 2 11.9147 87.3174 1.38107
93 2 0.138094 91.3023 1.59326
94 2 3.97321 91.4916 1.63246
95 2 7.90603 91.393 1.69212
96 2 11.9931 91.4089 1.61329
97 2 15.8565 95.2643 1.38769
98 2 4.24266 95.2617 1.46513
99 2 8.17585 95.2868 1.38894
100 2 11.9499 95.2556 1.35811
101 2 -0.0132556 99.1516 1.50285
102 2 3.91273 99.081 1.48392
103 2 7.86768 99.1711 1.58204
104 2 11.9752 99.1064 1.30798
105 2 0.0310236 103.174 1.46274
106 2 4.15001 103.127 1.17453
107 2 7.90434 103.162 1.54241
108 2 11.9655 103.121 1.46645
109 2 0.0530193 106.846 1.43094
110 2 4.05388 107.055 1.32051
111 2 7.95276 107.089 1.27626
112 2 12.0994 107.159 1.27681
113 2 0.147298 110.771 1.29516
114 2 4.08541 111.045 1.1523
115 2 8.07552 110.838 1.29193
116 2 12.135 111.121 1.20873
117 2 15.803 114.953 1.28041
118 2 4.15225 114.813 1.2589
119 2 7.92496 114.893 1.16953
120 2 11.8822 114.658 1.2485
121 2 0.0913431 118.739 1.19783
122 2 4.09122 118.91 1.21447
123 2 8.04735 119.1 1.04443
124 2 11.9679 118.778 1.10336
125 2 15.9769 122.737 1.13463
126 2 3.91108 122.608 1.12587
127 2 7.93794 122.697 1.21324
128 2 11.9286 122.653 1.12665
129 2 0.241326 126.553 1.25244
130 2 3.99981 126.622 1.14178
131 2 7.94481 126.525 1.1743
132 2 12.0042 126.625 0.94705
133 2 16.0672 130.556 0.971358
134 2 4.11984 130.417 0.71487
135 2 8.12256 130.685 1.13679
136 2 11.9795 130.418 1.17568
137 2 15.9163 134.315 1.18895
138 2 4.07983 134.705 0.771047
139 2 8.0358 134.485 160.279
140 2 12.0589 134.298 1.06047
141 2 -0.0408407 138.365 0.878139
142 2 4.09075 138.471 160.214
143 2 7.92871 138.328 160.437
144 2 12.0368 138.381 1.11024
145 2 15.9139 142.299 160.251
146 2 4.16749 142.252 159.973
147 2 8.08412 142.189 160.151
148 2 11.9691 142.265 160.373
149 2 0.224393 146.2 160.188
150 2 3.82676 146.039 160.102
151 2 7.99023 146.076 160.278
152 2 11.7916 146.281 160.28
153 2 15.98 150.128 160.066
154 2 4.11728 150.361 160.247
155 2 7.6613 149.98 160.151
156 2 11.9608 150.14 0.746984
157 2 15.9359 154.022 160.084
158 2 4.09595 154.057 159.901
159 2 8.01877 153.995 160.228
160 2 11.749 154.079 160.102
161 2 15.7662 157.884 4.75457
162 2 4.00092 158.249 4.73951
163 2 7.75676 157.852 4.77525
164 2 11.9464 157.825 4.81635
165 2 -0.0514467 3.48513 4.63737
166 2 3.95358 3.77052 4.71823
167 2 7.9718 3.25321 4.5396
168 2 11.8417 3.53385 4.73799
169 2 -0.0159777 7.4114 4.71852
170 2 4.01203 7.65183 4.80066
171 2 8.17303 7.43732 4.58766
172 2 12.0079 7.42406 4.76728
173 2 0.0911646 11.2485 4.61192
174 2 3.94479 11.4718 4.42391
175 2 7.99039 11.5493 4.54057
176 2 11.6978 11.46 4.72413
177 2 15.9481 15.3359 4.40715
178 2 3.81646 15.2928 4.39831
179 2 7.92659 15.4632 4.41409
180 2 12.0556 15.1925 4.41315
181 2 0.115545 19.1898 4.36123
182 2 4.01097 19.3474 4.44099
183 2 8.02843 19.1855 4.31516
184 2 11.9232 19.1842 4.40603
185 2 0.0744885 22.936 4.17217
186 2 4.2485 23.1153 4.38882
187 2 7.84609 23.0387 4.57988
188 2 11.8767 23.1206 4.46916
189 2 15.9558 26.889 4.39174
190 2 4.14088 27.0498 4.33339
191 2 7.73196 26.814 4.33804
192 2 11.8731 27.0125 4.38423
193 2 -0.0526895 31.103 4.46506
194 2 3.81062 31.0115 4.34198
195 2 7.8776 30.8733 4.3398
196 2 11.9043 31.0198 4.29558
197 2 -0.195545 35.0295 4.43328
198 2 3.94535 35.098 4.37013
199 2 7.87588 34.8327 4.29485
200 2 11.7728 34.9766 4.53389
201 2 15.871 38.8576 4.72915
202 2 4.08638 38.9224 4.39526
203 2 8.01005 38.8515 4.56453
204 2 11.8058 39.1159 4.51865
205 2 -0.10675 43.0423 4.87316
206 2 3.78015 43.0129 4.55901
207 2 7.80935 43.098 4.57376
208 2 11.8459 43.1583 4.94718
209 2 0.140992 47.1291 4.78665
210 2 3.87157 47.0164 4.67572
211 2 7.93697 47.2073 4.72412
212 2 11.689 47.0218 4.8293
213 2 -0.0854525 51.1384 4.80275
214 2 3.95833 51.1308 4.84252
215 2 7.8687 51.0351 4.68537
216 2 11.8171 51.0128 4.87473
217 2 -0.276781 55.203 4.75164
218 2 3.71356 55.1225 5.01571
219 2 7.7052 55.0586 4.79637
220 2 11.6601 55.2414 4.94803
221 2 15.5958 59.2322 4.91118
222 2 3.6393 59.236 4.85049
223 2 7.79705 59.2973 4.99372
224 2 11.8901 59.1389 4.88613
225 2 -0.215368 63.1691 4.93926
226 2 3.91797 63.2055 4.97034
227 2 7.78613 63.0635 4.99184
228 2 11.8507 63.3493 5.00266
229 2 15.6566 67.2305 5.12498
230 2 3.9165 67.1506 5.1876
231 2 8.04261 67.1892 4.94988
232 2 11.8814 67.3016 4.98377
233 2 15.7961 71.3471 5.20424
234 2 4.08564 71.2409 5.20698
235 2 7.81034 71.3386 5.20894
236 2 11.8187 71.4031 5.22644
237 2 15.749 75.2971 5.2135
238 2 3.85182 75.2247 5.21529
239 2 7.90513 75.245 5.29355
240 2 11.8597 75.2934 5.14533
241 2 0.0596609 79.5193 5.19457
242 2 4.12304 79.4018 5.30901
243 2 8.0934 79.4863 5.21379
244 2 12.058 79.4349 5.09952
245 2 16.0321 83.3637 5.41631
246 2 4.13667 83.5623 5.40075
247 2 8.09529 83.3822 5.28634
248 2 11.9333 83.549 5.50552
249 2 0.146651 87.4164 5.31127
250 2 3.98767 87.3369 5.5882
251 2 8.12383 87.4583 5.46493
252 2 11.9158 87.4377 5.52396
253 2 0.0440767 91.3641 5.4172
254 2 3.90189 91.518 5.5544
255 2 7.76231 91.4225 5.39589
256 2 11.823 91.4344 5.51566
257 2 15.7731 95.4599 5.61333
258 2 3.9136 95.3112 5.63061
259 2 8.07237 95.5216 5.41274
260 2 11.8602 95.3444 5.60351
261 2 0.0540708 99.351 5.40759
262 2 3.78591 99.2846 5.38741
263 2 7.90106 99.2618 5.38792
264 2 12.0198 99.3249 5.53285
265 2 0.22246 103.304 5.37392
266 2 4.10892 103.203 5.38771
267 2 8.01049 103.209 5.51659
268 2 12.0083 103.12 5.48245
269 2 15.8073 107.163 5.29287
270 2 3.91414 107.057 5.46391
271 2 8.08343 107.215 5.25729
272 2 11.9805 107.048 5.42031
273 2 15.8897 111.153 5.33616
274 2 4.01972 110.996 5.34492
275 2 8.01532 111.06 5.313
276 2 12.1782 110.776 5.26591
277 2 0.14569 114.987 5.26626
278 2 4.10331 114.806 5.16668
279 2 7.926 114.859 5.26591
280 2 11.9102 114.937 5.16404
281 2 0.162746 118.73 5.31672
282 2 4.1672 118.625 5.27046
283 2 8.15771 118.618 5.16324
284 2 11.9704 118.925 5.23702
285 2 15.8002 122.56 5.09583
286 2 3.993 122.793 5.1999
287 2 7.99019 122.677 5.28758
288 2 11.9767 122.734 5.13166
289 2 0.0609515 126.565 5.16643
290 2 4.09527 126.574 5.11562
291 2 7.95257 126.753 5.14618
292 2 12.0557 126.707 4.98431
293 2 0.190222 130.616 5.10376
294 2 4.13769 130.598 5.09052
295 2 7.94451 130.478 5.04267
296 2 11.935 130.431 5.15262
297 2 15.9357 134.496 4.97745
298 2 4.06395 134.486 5.07115
299 2 7.91325 134.456 4.97405
300 2 11.8191 134.461 5.16084
301 2 0.267483 138.316 5.0837
302 2 4.006 138.398 5.17071
303 2 7.825 138.443 5.09242
304 2 11.7779 138.399 5.00969
305 2 0.116772 142.334 5.07404
306 2 3.99375 142.231 5.0239
307 2 7.96804 142.282 4.90004
308 2 12.1515 142.147 4.8232
309 2 15.8035 146.287 4.93988
310 2 3.95031 146.198 4.95272
311 2 7.99225 146.035 4.83179
312 2 12.0802 146.268 4.98333
313 2 15.7316 150.172 4.75561
314 2 3.90759 150.018 4.90584
315 2 7.73519 150.017 4.87548
316 2 11.9989 150.238 4.63836
317 2 15.9303 154.067 4.77285
318 2 3.96339 154.299 4.6762
319 2 7.98115 154.071 4.89194
320 2 12.0954 153.902 4.71835
321 2 15.8149 158.008 8.72734
322 2 3.84968 158.109 8.85384
323 2 7.97643 157.935 8.80364
324 2 11.7923 157.982 8.907
325 2 15.9934 3.62111 8.68442
326 2 3.93752 3.62835 8.81133
327 2 7.82992 3.57682 8.58109
328 2 11.8714 3.5808 8.94165
329 2 15.7745 7.7508 8.61721
330 2 4.07128 7.37266 8.73122
331 2 8.02017 7.48001 8.68548
332 2 11.9534 7.50872 8.66644
333 2 0.030081 11.4458 8.65592
334 2 4.09753 11.547 8.594
335 2 7.7989 11.5005 8.45527
336 2 11.8362 11.6391 8.42763
337 2 15.789 15.3674 8.49027
338 2 3.93784 15.3338 8.48924
339 2 7.9896 15.4452 8.52155
340 2 11.9043 15.2617 8.3318
341 2 0.208177 19.1706 8.23525
342 2 4.06024 19.1279 8.47282
343 2 7.90895 19.2899 8.43828
344 2 11.9449 19.2987 8.52415
345 2 0.0786223 23.0875 8.36914
346 2 3.94083 23.0827 8.48121
347 2 7.86637 22.9039 8.55917
348 2 11.8763 23.1041 8.4775
349 2 -0.179194 27.0789 8.23823
350 2 3.74445 26.9611 8.34289
351 2 7.97613 27.0266 8.29146
352 2 11.9137 27.0892 8.13214
353 2 -0.015246 31.0544 8.34265
354 2 3.93186 31.1165 8.3647
355 2 7.79326 31.0628 8.26245
356 2 11.8967 30.8332 8.30643
357 2 15.8152 34.7649 8.38732
358 2 4.07754 35.0429 8.411
359 2 7.74572 34.8966 8.38659
360 2 11.8917 35.0043 8.37125
361 2 -0.0192628 38.9065 8.57974
362 2 3.81565 39.0036 8.59094
363 2 7.97639 38.9523 8.5543
364 2 11.8354 38.9929 8.37274
365 2 -0.00556182 43.1149 8.72245
366 2 3.97542 42.958 8.36631
367 2 7.93781 43.0372 8.51875
368 2 11.8888 43.0264 8.61215
369 2 -0.0451086 47.1469 8.66846
370 2 4.01251 47.0556 8.46996
371 2 7.8519 46.9698 8.86739
372 2 11.8244 47.036 8.72038
373 2 15.7371 51.1446 8.64301
374 2 3.91162 51.0222 8.56541
375 2 7.80597 50.9733 8.68205
376 2 12.0183 51.0762 8.55065
377 2 15.6756 55.2442 8.79092
378 2 3.87136 55.0628 8.85277
379 2 7.85586 54.999 8.70206
380 2 11.6745 55.0784 8.66321
381 2 -0.0362428 59.0438 8.85714
382 2 3.83274 59.1119 8.68452
383 2 7.71159 59.2219 8.95083
384 2 11.7895 59.2681 8.76048
385 2 0.00810324 63.0118 8.93924
386 2 3.94327 63.0563 8.90058
387 2 8.07403 63.039 8.87544
388 2 11.7314 63.1721 8.88281
389 2 15.8682 67.2315 9.01931
390 2 3.79637 67.1545 9.13639
391 2 7.84655 67.1376 8.95105
392 2 11.8811 67.0898 8.83371
393 2 15.6532 71.309 9.13628
394 2 3.92465 71.1879 9.11536
395 2 7.94703 71.2618 9.08369
396 2 11.7503 71.1729 8.93458
397 2 15.9546 75.4255 8.93486
398 2 3.98027 75.3356 8.92301
399 2 8.07317 75.3321 9.07989
400 2 12.0717 75.3694 9.0256
401 2 15.9539 79.3384 9.00069
402 2 3.99526 79.1782 9.1771
403 2 8.10744 79.1105 9.2072
404 2 12.1256 79.3499 9.03428
405 2 0.103358 83.3107 9.35628
406 2 4.02406 83.2288 9.27706
407 2 7.83443 83.1515 9.19614
408 2 12.0554 83.2298 9.32832
409 2 -0.120928 87.4537 9.29796
410 2 3.98226 87.3294 9.47713
411 2 7.9662 87.4034 9.33813
412 2 11.866 87.3581 9.44765
413 2 -0.0605094 91.271 9.29401
414 2 3.85741 91.2914 9.35556
415 2 8.00282 91.4285 9.46852
416 2 11.771 91.3114 9.3023
417 2 15.7471 95.4723 9.59504
418 2 3.95249 95.3433 9.62803
419 2 7.92478 95.5334 9.43892
420 2 11.7885 95.4493 9.51718
421 2 15.9487 99.3007 9.56755
422 2 4.05791 99.3387 9.47561
423 2 7.97998 99.5162 9.52791
424 2 11.7792 99.4768 9.57727
425 2 0.0622414 103.296 9.44007
426 2 3.94813 103.441 9.42295
427 2 7.73308 103.437 9.55828
428 2 12.0346 103.3 9.43132
429 2 0.166142 107.31 9.33654
430 2 4.05795 107.114 9.46499
431 2 8.22658 107.114 9.23798
432 2 12.0337 107.103 9.40099
433 2 15.9891 111.264 9.38577
434 2 3.99128 110.974 9.43641
435 2 8.07961 111.095 9.37342
436 2 11.942 111.135 9.21931
437 2 0.0790698 115.077 9.30284
438 2 4.00453 115.003 9.10776
439 2 7.88583 114.862 9.20802
440 2 11.8646 115.024 9.33451
441 2 0.194537 118.957 9.35186
442 2 4.07184 118.859 9.13829
443 2 8.02465 118.78 9.2613
444 2 12.0607 118.903 9.24064
445 2 15.8314 122.87 9.17516
446 2 4.10774 122.635 9.10762
447 2 7.85788 122.764 9.1434
448 2 11.8508 122.84 9.24108
449 2 16.169 126.62 9.33062
450 2 4.206 126.836 9.25309
451 2 7.9421 126.815 9.23683
452 2 11.9591 126.787 9.21625
453 2 0.136563 130.503 9.07387
454 2 3.94729 130.704 9.05802
455 2 7.97465 130.809 9.25246
456 2 12.1383 130.658 9.02211
457 2 -0.0387167 134.32 8.87167
458 2 4.03877 134.66 9.13934
459 2 8.0493 134.475 9.17231
460 2 11.8744 134.531 9.15177
461 2 0.202411 138.459 9.01797
462 2 4.11104 138.5 9.13626
463 2 8.09325 138.36 9.00923
464 2 12.2167 138.449 8.97548
465 2 0.0845277 142.315 9.15345
466 2 3.96096 142.298 9.02945
467 2 8.01539 142.545 9.07568
468 2 11.9679 142.152 9.03598
469 2 15.8564 146.175 9.01311
470 2 4.07819 146.27 8.8796
471 2 7.99977 146.229 8.86359
472 2 11.8975 146.182 8.98364
473 2 15.8869 150.161 8.9837
474 2 4.07746 150.342 8.78048
475 2 7.99455 150.242 8.81464
476 2 11.7248 150.163 8.68561
477 2 15.952 154.097 8.79481
478 2 4.02759 154.125 8.61623
479 2 7.87301 154.167 8.84564
480 2 11.8717 153.981 8.71384
481 2 15.6537 158.101 12.7746
482 2 3.91095 158.211 12.8926
483 2 7.98206 158.111 12.8309
484 2 11.7154 158.063 12.8168
485 2 15.9034 3.75844 12.6355
486 2 4.03287 3.66099 12.839
487 2 8.12275 3.66541 12.7311
488 2 11.9759 3.79908 12.8526
489 2 15.7191 7.89402 12.5093
490 2 4.00826 7.6948 12.6239
491 2 7.88719 7.59621 12.7606
492 2 11.8693 7.68398 12.7287
493 2 -0.097509 11.4468 12.4808
494 2 3.95331 11.6793 12.6039
495 2 8.13143 11.7337 12.5556
496 2 11.8295 11.5216 12.6421
497 2 -0.0438919 15.5337 12.5231
498 2 4.1615 15.533 12.521
499 2 8.08884 15.5642 12.6695
500 2 11.9903 15.5052 12.4464
501 2 -0.0998724 19.3039 12.4876
502 2 3.76799 19.3607 12.648
503 2 7.93649 19.4029 12.4619
504 2 12.0634 19.3792 12.5268
505 2 -0.0722399 23.2774 12.4655
506 2 3.85739 23.2908 12.3525
507 2 7.94296 23.4165 12.4093
508 2 11.755 23.267 12.4988
509 2 -0.126028 27.1739 12.4399
510 2 3.77492 27.2855 12.447
511 2 7.88573 27.2114 12.4624
512 2 11.7407 27.1779 12.4922
513 2 0.234981 30.9435 12.1928
514 2 3.91851 30.9748 12.2002
515 2 8.02734 31.0128 12.437
516 2 12.0161 31.1168 12.2425
517 2 0.0577663 34.9241 12.467
518 2 3.87503 35.0151 12.4106
519 2 7.80624 34.9188 12.34
520 2 11.8755 34.9233 12.3478
521 2 -0.0402714 38.9299 12.2959
522 2 4.01057 38.9271 12.5059
523 2 7.92677 39.0899 12.4488
524 2 11.8047 38.9397 12.3202
525 2 0.0369429 42.9697 12.6186
526 2 3.89621 42.9032 12.3549
527 2 7.9069 42.9393 12.375
528 2 11.8086 42.9196 12.6513
529 2 0.181183 47.0371 12.5888
530 2 4.00122 46.8887 12.6318
531 2 7.83362 47.0104 12.6034
532 2 11.9503 46.9739 12.5948
533 2 0.0487734 50.9093 12.3995
534 2 3.886 50.9233 12.5153
535 2 8.01686 51.1205 12.5168
536 2 11.9177 51.006 12.3284
537 2 15.8895 54.882 12.6361
538 2 4.00273 54.8984 12.7465
539 2 7.9184 55.112 12.7027
540 2 11.7034 54.9506 12.6299
541 2 15.6948 59.017 12.7644
542 2 3.86776 59.0892 12.7858
543 2 8.03668 59.0738 12.7292
544 2 12.1211 58.8016 12.6902
545 2 15.7066 63.1751 12.9352
546 2 3.86833 62.8938 12.7917
547 2 7.97745 62.9086 12.9419
548 2 11.8804 63.1233 12.7864
549 2 -0.0384577 67.0827 12.8133
550 2 3.889 66.9903 12.8258
551 2 7.86884 66.9713 12.721
552 2 11.9604 67.1189 12.8563
553 2 0.0600103 71.0566 13.1172
554 2 4.02019 71.3928 12.8676
555 2 8.05289 71.262 12.7703
556 2 12.0285 71.0849 12.9561
557 2 0.282835 75.1333 12.8484
558 2 4.21434 75.1478 13.068
559 2 8.05615 75.1843 12.8278
560 2 12.1283 75.1837 13.0134
561 2 -0.0177825 79.1726 13.0372
562 2 3.94584 79.29 13.2403
563 2 8.05358 79.3166 12.9404
564 2 11.9763 79.1282 13.2714
565 2 0.0697599 83.1725 13.0001
566 2 3.99743 83.3213 13.1639
567 2 7.98209 83.2836 13.1053
568 2 11.8378 83.0247 13.3198
569 2 -0.0299317 87.5476 13.2719
570 2 4.01303 87.1259 13.1907
571 2 7.87772 87.115 13.2662
572 2 11.8024 87.2052 13.3032
573 2 -0.103723 91.2063 13.3656
574 2 4.07235 91.4583 13.4847
575 2 8.07024 91.2441 13.2741
576 2 11.7949 91.253 13.5013
577 2 -0.0265755 95.2058 13.2859
578 2 3.76435 95.4184 13.409
579 2 7.67256 95.3661 13.5173
580 2 11.7992 95.5117 13.3385
581 2 0.0538242 99.297 13.604
582 2 3.93779 99.3478 13.6061
583 2 7.82075 99.6006 13.5308
584 2 11.9517 99.1975 13.3595
585 2 -0.0906026 103.373 13.4849
586 2 3.89847 103.212 13.3355
587 2 7.91366 103.216 13.3101
588 2 11.7782 103.199 13.3462
589 2 0.020871 107.18 13.478
590 2 3.98328 107.228 13.4641
591 2 8.05615 107.124 13.4263
592 2 11.9814 107.27 13.3727
593 2 0.0873632 111.222 13.2592
594 2 4.20652 111.101 13.3799
595 2 8.11858 111.148 13.3685
596 2 11.9798 111.11 13.3885
597 2 0.018747 114.976 13.1905
598 2 4.14355 115.071 13.4184
599 2 7.96993 115.056 13.5046
600 2 11.983 115.001 13.4574
601 2 0.0879193 118.92 13.1292
602 2 3.97333 118.912 13.27
603 2 7.99438 118.9 13.2692
604 2 12.0052 118.918 13.3579
605 2 0.154096 122.966 13.3379
606 2 4.01012 122.912 13.4291
607 2 7.91978 122.86 13.1961
608 2 11.9956 122.692 13.2959
609 2 0.186362 126.778 13.254
610 2 4.40291 126.738 13.0265
611 2 8.12651 126.763 13.1818
612 2 11.961 126.608 13.2604
613 2 16.0989 130.565 13.0379
614 2 4.02155 130.669 13.1555
615 2 7.99969 130.53 13.1374
616 2 11.9812 130.526 13.0337
617 2 16.0559 134.536 13.2481
618 2 3.99362 134.488 13.1794
619 2 8.0014 134.595 13.0851
620 2 11.9658 134.549 13.0598
621 2 0.0596466 138.318 13.168
622 2 4.04373 138.451 13.1051
623 2 7.95786 138.457 13.0812
624 2 12.0309 138.372 13.1599
625 2 15.9893 142.619 13.0068
626 2 4.04648 142.466 12.9608
627 2 8.0731 142.438 12.9303
628 2 11.9529 142.335 12.9729
629 2 -0.0224708 146.296 12.7943
630 2 4.09122 146.555 13.0533
631 2 7.70493 146.408 12.8174
632 2 11.8077 146.352 13.0116
633 2 -0.0728716 150.329 12.8858
634 2 3.80082 150.242 12.8378
635 2 7.86679 150.377 12.8439
636 2 11.7516 150.242 13.0205
637 2 15.8721 154.142 12.8513
638 2 3.83231 154.155 12.922
639 2 8.03758 154.291 12.9248
640 2 11.9476 154.18 12.8638
641 2 0.041969 158.069 16.9383
642 2 4.08957 -0.179113 16.8165
643 2 7.8979 158.356 16.7962
644 2 11.8824 158.132 16.9502
645 2 15.9378 3.89401 16.6783
646 2 3.92394 3.84677 16.6946
647 2 8.04718 3.77804 16.843
648 2 12.0952 3.85402 16.614
649 2 0.0929371 7.84038 16.6041
650 2 4.10927 7.61346 16.7229
651 2 7.96872 7.87493 16.6876
652 2 11.8065 7.64548 16.6452
653 2 0.27391 11.6331 16.6649
654 2 4.1611 11.6662 16.6994
655 2 7.99946 11.7612 16.608
656 2 11.8205 11.6104 16.4605
657 2 0.143187 15.5461 16.4357
658 2 4.08958 15.5488 16.5974
659 2 7.91196 15.4479 16.5942
660 2 11.8713 15.3913 16.5581
661 2 15.7843 19.2916 16.6144
662 2 3.93359 19.6552 16.5471
663 2 7.92586 19.3972 16.4985
664 2 11.852 19.0984 16.5132
665 2 -0.126158 23.1409 16.4677
666 2 3.97539 23.546 16.4697
667 2 7.96963 23.2663 16.5829
668 2 11.9107 23.4669 16.4835
669 2 -0.060929 27.316 16.4476
670 2 3.94775 27.4143 16.4715
671 2 7.99583 27.4516 16.4958
672 2 11.8907 27.2398 16.441
673 2 -0.151319 31.203 16.4756
674 2 3.89233 31.3439 16.361
675 2 7.76816 31.3518 16.3226
676 2 11.8062 31.2891 16.4584
677 2 -0.0921038 35.1112 16.4489
678 2 3.7818 35.1026 16.3736
679 2 7.84931 35.1741 16.4808
680 2 11.8928 35.0064 16.4636
681 2 0.0273633 39.03 16.4527
682 2 3.91111 39.0663 16.3577
683 2 7.96893 38.853 16.3108
684 2 11.9779 38.6894 16.3033
685 2 -0.0586945 43.1572 16.6267
686 2 3.99046 42.8416 16.2057
687 2 7.96486 42.8776 16.3616
688 2 11.8527 42.8336 16.4652
689 2 15.8892 47.0746 16.5346
690 2 3.93089 46.9845 16.4906
691 2 7.96468 46.9491 16.265
692 2 11.7919 46.7033 16.369
693 2 0.00679579 50.8736 16.2866
694 2 3.96636 50.9678 16.4169
695 2 8.00352 51.0008 16.4476
696 2 11.9336 50.8474 16.4435
697 2 -0.0238482 54.8984 16.4724
698 2 3.79666 54.9905 16.5227
699 2 7.85274 54.9791 16.5848
700 2 11.7174 54.9721 16.5232
701 2 -0.187981 58.9295 16.7314
702 2 4.0069 58.8956 16.5242
703 2 7.98863 58.9123 16.7145
704 2 11.9296 58.9694 16.69
705 2 -0.0335065 62.9563 16.8193
706 2 3.8884 63.0137 16.7476
707 2 7.90829 62.8867 16.7085
708 2 11.7325 63.1455 16.8064
709 2 0.0878615 67.0189 16.8845
710 2 4.05386 67.0911 16.7773
711 2 8.0106 67.1569 16.5698
712 2 12.0109 67.1328 16.804
713 2 0.0962876 70.9249 16.7452
714 2 4.00902 70.8728 16.8442
715 2 7.86597 71.1634 16.7729
716 2 11.8124 71.0372 16.8815
717 2 0.16687 75.0183 17.0061
718 2 4.12522 75.0059 17.0478
719 2 8.10104 74.9914 17.0005
720 2 12.0256 74.891 17.0408
721 2 0.208307 79.1694 16.8964
722 2 3.99645 78.9392 16.9378
723 2 7.85414 79.0152 17.0442
724 2 12.049 79.0587 17.0825
725 2 0.153592 83.1581 16.9929
726 2 4.00398 83.2067 17.2167
727 2 7.85687 83.1591 17.0665
728 2 12.1192 83.0379 17.0259
729 2 -0.0578339 87.1254 17.0812
730 2 3.97081 87.1645 17.0986
731 2 8.08656 87.0199 17.0254
732 2 11.8461 87.1108 17.2278
733 2 0.126819 91.1368 17.1447
734 2 4.31996 91.209 17.1879
735 2 7.81479 91.2121 17.2038
736 2 11.7918 91.2352 17.3732
737 2 -0.133772 95.1664 17.5411
738 2 3.9176 95.1416 17.2424
739 2 7.95456 95.2668 17.1453
740 2 11.8526 95.2029 17.3108
741 2 0.132986 99.0589 17.3211
742 2 4.02779 99.281 17.5245
743 2 7.81292 99.3161 17.4165
744 2 11.8918 99.3128 17.5756
745 2 -0.040183 103.458 17.457
746 2 3.96634 103.125 17.4348
747 2 7.98102 103.141 17.4244
748 2 11.9678 103.26 17.7076
749 2 0.0390079 107.315 17.4854
750 2 4.16345 107.178 17.3246
751 2 7.92304 107.186 17.4758
752 2 12.0605 107.21 17.3986
753 2 0.223056 111.13 17.4686
754 2 3.93903 111.188 17.4963
755 2 8.09213 111.083 17.3296
756 2 11.8547 111.094 17.5012
757 2 0.177672 115.055 17.26
758 2 4.14561 114.971 17.4542
759 2 8.14473 114.95 17.3593
760 2 11.9768 114.943 17.4409
761 2 0.0863996 118.814 17.4252
762 2 4.1021 119.096 17.3495
763 2 8.17574 119.118 17.1509
764 2 11.909 118.847 17.3637
765 2 0.11319 123.005 17.3699
766 2 3.93091 122.922 17.27
767 2 7.94827 122.886 17.1784
768 2 11.9863 122.883 17.2854
769 2 16.0273 126.996 17.1941
770 2 4.2624 126.923 17.1528
771 2 7.97014 126.787 17.201
772 2 11.9783 126.811 17.3115
773 2 15.7974 130.798 17.2321
774 2 4.10333 130.74 17.4181
775 2 7.97172 130.551 17.2851
776 2 11.8643 130.512 17.1521
777 2 15.8585 134.746 17.1705
778 2 4.09664 134.44 17.2434
779 2 7.99405 134.496 17.1337
780 2 11.8413 134.433 17.0895
781 2 0.124309 138.553 17.1582
782 2 4.03479 138.693 17.0785
783 2 7.65426 138.556 17.1379
784 2 11.9431 138.38 17.2338
785 2 15.7701 142.648 16.9612
786 2 3.92511 142.421 16.9297
787 2 8.09836 142.424 16.7519
788 2 11.9823 142.264 16.7297
789 2 15.977 146.41 17.016
790 2 4.04453 146.458 16.9485
791 2 8.05317 146.177 16.8163
792 2 11.8688 146.404 17.0529
793 2 16.0511 150.334 16.898
794 2 3.97263 150.432 16.9928
795 2 8.09786 150.436 16.8399
796 2 12.0523 150.322 16.9333
797 2 15.9661 154.148 16.8382
798 2 3.97313 154.279 16.9357
799 2 7.93298 154.341 16.8242
800 2 11.9446 154.222 16.8925
801 2 15.8572 158.324 20.8652
802 2 3.76939 158.286 20.7226
803 2 7.96557 158.233 20.7141
804 2 11.998 158.122 20.7303
805 2 -0.13306 3.78194 20.8101
806 2 3.81494 3.84858 20.6411
807 2 8.01599 3.70324 20.8147
808 2 12.0006 3.85111 20.7454
809 2 16.0117 7.91745 20.6377
810 2 4.05941 7.72018 20.7709
811 2 7.78072 7.70878 20.7332
812 2 11.8022 7.60135 20.6962
813 2 15.7682 11.6447 20.8124
814 2 3.93273 11.7184 20.8759
815 2 8.02023 11.6406 20.6835
816 2 12.0716 11.7731 20.5187
817 2 15.9316 15.5341 20.6372
818 2 4.09337 15.5161 20.6903
819 2 8.09024 15.7788 20.6638
820 2 11.9431 15.6121 20.5143
821 2 0.234332 19.325 20.4586
822 2 4.03049 19.5417 20.6465
823 2 7.90188 19.5518 20.6204
824 2 11.8487 19.5641 20.4336
825 2 -0.0513861 23.284 20.4629
826 2 3.9541 23.4201 20.6539
827 2 8.08649 23.4205 20.4618
828 2 11.82 23.3645 20.4815
829 2 15.8372 27.3201 20.358
830 2 4.14006 27.3702 20.5853
831 2 8.11938 27.1558 20.5592
832 2 11.9963 27.2856 20.5998
833 2 16.0483 31.1713 20.4393
834 2 3.97872 31.2446 20.5655
835 2 7.79852 31.1136 20.4557
836 2 11.7919 31.2369 20.4123
837 2 15.9764 35.0244 20.5776
838 2 3.9452 35.4169 20.4286
839 2 8.04298 35.0063 20.3874
840 2 11.7804 35.1437 20.4985
841 2 -0.0841199 39.2758 20.4534
842 2 3.95459 39.0629 20.2856
843 2 7.87085 39.2134 20.3021
844 2 11.9325 38.8492 20.4183
845 2 15.8528 42.9219 20.4159
846 2 3.90408 42.8266 20.2011
847 2 7.85792 42.8945 20.2311
848 2 11.8349 42.9305 20.254
849 2 15.7561 46.938 20.2389
850 2 4.04322 46.7966 20.5752
851 2 7.89859 46.716 20.2877
852 2 11.7138 46.8475 20.4374
853 2 0.082058 50.8934 20.3243
854 2 4.07509 50.6879 20.4473
855 2 7.89922 50.815 20.2567
856 2 11.7737 50.9976 20.378
857 2 0.101375 54.8053 20.3842
858 2 3.93162 54.7644 20.2597
859 2 7.8383 54.7861 20.5848
860 2 11.807 54.9544 20.2533
861 2 15.8957 58.8414 20.5111
862 2 3.88514 58.8501 20.3751
863 2 8.09896 58.9938 20.495
864 2 11.8104 58.8956 20.5344
865 2 15.9301 62.874 20.6556
866 2 4.07811 62.7891 20.5764
867 2 7.77005 63.0643 20.5782
868 2 12.0004 62.9582 20.7034
869 2 -0.0959599 66.9447 20.7782
870 2 3.8716 67.0381 20.6803
871 2 7.93812 66.9816 20.7077
872 2 11.8192 67.0214 20.9058
873 2 0.0663651 71.0046 20.589
874 2 3.95826 70.759 20.8001
875 2 7.97594 70.9109 20.9304
876 2 11.8089 71.2053 21.006
877 2 0.0571176 74.9856 20.9097
878 2 4.00295 75.0017 20.7556
879 2 8.0107 75.153 20.8183
880 2 11.8763 74.9641 20.9206
881 2 0.0905879 79.1137 20.9259
882 2 3.88663 78.9166 21.0383
883 2 7.96561 79.1043 20.8805
884 2 11.8792 78.9849 20.8966
885 2 -0.0378157 83.1375 21.132
886 2 3.93902 83.1104 21.0149
887 2 7.96368 82.9187 20.9051
888 2 11.9974 83.0767 20.9184
889 2 0.0159603 87.0262 21.1708
890 2 3.8269 87.0895 20.9766
891 2 7.94833 87.0567 21.056
892 2 11.644 87.0491 21.0598
893 2 0.0222408 91.1175 21.1004
894 2 3.97277 91.3227 21.2948
895 2 7.8829 91.0821 21.2146
896 2 11.7595 91.0524 21.0646
897 2 -0.00785751 95.2094 21.0045
898 2 3.89441 95.1435 21.0184
899 2 8.03697 95.209 21.1453
900 2 12.0931 95.1675 21.0702
901 2 0.168386 99.4945 21.3204
902 2 3.97248 99.1688 21.2454
903 2 7.79921 99.1301 21.0973
904 2 12.075 99.2268 21.4728
905 2 0.183008 103.418 21.525
906 2 3.86032 103.275 21.377
907 2 7.76948 103.225 21.4254
908 2 11.9591 103.22 21.3394
909 2 0.0229416 107.172 21.5794
910 2 4.07129 107.277 21.575
911 2 7.83833 107.037 21.4695
912 2 11.7361 107.214 21.629
913 2 0.113195 111.315 21.4074
914 2 4.12065 111.024 21.4708
915 2 7.89523 111.191 21.4695
916 2 11.8441 111.079 21.4505
917 2 15.8039 115.042 21.365
918 2 4.10524 115.118 21.4959
919 2 7.85506 114.94 21.3033
920 2 12.0844 115.127 21.414
921 2 -0.0308178 118.99 21.2665
922 2 4.01777 119.069 21.2312
923 2 8.07673 118.98 21.3122
924 2 11.9743 118.9 21.4023
925 2 15.9867 123.013 21.3294
926 2 4.20022 122.854 21.4679
927 2 7.97637 122.979 21.399
928 2 11.8611 122.781 21.4329
929 2 15.825 126.92 21.2172
930 2 3.9755 126.66 21.3818
931 2 7.97169 126.852 21.1769
932 2 12.091 126.678 21.3475
933 2 15.8865 130.853 21.3157
934 2 4.00884 130.711 21.1681
935 2 7.95719 130.864 21.326
936 2 11.8881 130.722 21.3655
937 2 0.0137564 134.649 21.1635
938 2 3.82168 134.732 21.1038
939 2 7.92105 134.752 21.2619
940 2 11.9514 134.741 21.3409
941 2 16.0456 138.582 21.0405
942 2 4.05187 138.817 20.8225
943 2 8.03595 138.666 21.0335
944 2 11.9166 138.519 21.1336
945 2 15.9676 142.674 21.0476
946 2 4.14482 142.657 20.9671
947 2 7.96191 142.654 21.0101
948 2 11.8975 142.439 21.0347
949 2 15.9963 146.258 20.7522
950 2 4.05377 146.582 21.0776
951 2 7.97865 146.459 20.8126
952 2 11.9614 146.424 21.0413
953 2 16.0246 150.378 20.8855
954 2 4.0851 150.329 20.97
955 2 8.02226 150.345 20.789
956 2 11.9352 150.351 20.9332
957 2 15.7863 154.155 20.7766
958 2 4.10822 154.315 20.9302
959 2 7.91242 154.404 20.8395
960 2 11.9577 154.433 20.9261
961 2 -0.0452149 158.331 24.9473
962 2 4.00677 158.197 24.7642
963 2 7.92433 158.236 24.8482
964 2 11.8817 158.218 24.7897
965 2 15.9075 3.81766 24.9498
966 2 4.05096 3.79051 24.7922
967 2 8.04306 3.78876 24.6617
968 2 11.7661 3.84986 24.87
969 2 15.7162 7.76505 24.8389
970 2 4.08444 7.7243 24.7952
971 2 7.96011 7.67121 24.7028
972 2 11.7821 7.74146 24.7863
973 2 15.7651 11.5048 24.7287
974 2 3.98368 11.7396 24.7393
975 2 7.98257 11.6573 24.7624
976 2 11.8023 11.7648 24.6247
977 2 0.207013 15.693 24.6815
978 2 3.91431 15.6284 24.749
979 2 7.99209 15.6748 24.5139
980 2 11.8983 15.6698 24.6052
981 2 0.228018 19.587 24.4729
982 2 3.96848 19.4911 24.5583
983 2 7.90631 19.5523 24.6101
984 2 11.9923 19.5459 24.6914
985 2 0.0706334 23.2415 24.4391
986 2 4.13223 23.6801 24.5114
987 2 8.1264 23.4868 24.5744
988 2 11.8494 23.4436 24.385
989 2 -0.112989 27.3428 24.4494
990 2 3.96805 27.3169 24.4418
991 2 7.8344 27.3795 24.5498
992 2 11.8021 27.3511 24.5676
993 2 -0.00538611 31.4346 24.5825