ITEM: TIMESTEP
23000
ITEM: NUMBER OF ATOMS
32000
ITEM: BOX BOUNDS xy xz yz pp pp pp
0.0000000000000000e+00 1.5832000000000001e+01 0.0000000000000000e+00
0.0000000000000000e+00 1.5831999999999999e+02 0.0000000000000000e+00
7.8395476931011387e-01 1.6019316323068506e+02 0.0000000000000000e+00
ITEM: ATOMS id type x y z
1 2 15.7855 157.926 160.144
2 2 4.08214 157.655 160.183
3 2 8.04315 157.818 160.103
4 2 11.8874 157.723 160.097
5 2 0.18117 3.48637 160.075
6 2 4.09426 3.37742 160.165
7 2 7.96921 3.42351 160.069
8 2 11.9642 3.50864 159.946
9 2 16.0187 7.52726 159.92
10 2 4.16018 7.3276 159.992
11 2 8.09147 7.5483 159.908
12 2 11.9638 7.38379 159.823
13 2 15.8966 11.2696 159.866
14 2 4.17545 11.2596 159.781
15 2 8.00668 11.292 159.753
16 2 12.0461 11.3261 159.882
17 2 0.0692966 15.2178 159.8
18 2 4.02011 15.0485 159.814
19 2 7.98561 15.2091 159.957
20 2 12.0224 15.2678 159.775
21 2 15.991 19.0134 159.808
22 2 4.10436 19.0006 159.765
23 2 8.08198 19.1247 159.683
24 2 11.9882 18.9474 159.735
25 2 15.8827 23.0645 159.953
26 2 3.93556 22.9625 159.758
27 2 7.82015 23.0089 159.473
28 2 11.8754 22.936 159.747
29 2 15.7909 27.3213 159.507
30 2 3.97581 26.995 159.762
31 2 7.75829 27.0938 159.885
32 2 11.777 27.3161 159.725
33 2 15.8995 31.024 159.987
34 2 3.9445 30.9487 0.362705
35 2 7.8815 31.0811 160.013
36 2 11.867 31.3114 159.885
37 2 0.112934 35.0324 159.755
38 2 4.0319 35.0112 159.839
39 2 7.95824 35.0898 160.054
40 2 11.8617 35.1979 159.927
41 2 0.139458 39.1954 159.91
42 2 3.97798 39.0718 0.676074
43 2 7.79055 38.8518 0.526863
44 2 11.6805 39.0142 0.523615
45 2 0.247605 43.2917 160.157
46 2 4.263 43.2442 159.89
47 2 8.0745 43.0465 0.618
48 2 11.9214 43.213 0.453057
49 2 -0.0672594 47.0978 0.678216
50 2 3.93045 47.1319 0.710594
51 2 7.98049 47.2163 0.940118
52 2 11.6327 47.2439 0.609012
53 2 -0.00505906 51.1974 0.787697
54 2 3.75704 51.2136 1.02236
55 2 7.67246 51.2825 0.879001
56 2 11.7844 51.3644 0.775788
57 2 15.8913 55.4737 1.02591
58 2 3.83038 55.4796 0.80322
59 2 7.76027 55.3195 0.879417
60 2 11.9166 55.2561 0.878047
61 2 -0.222877 59.29 0.963378
62 2 3.80065 59.3299 0.945717
63 2 7.92748 59.351 0.909568
64 2 11.9335 59.2954 0.990459
65 2 -0.108851 63.3744 1.20473
66 2 3.9536 63.266 1.06962
67 2 7.79593 63.309 1.02132
68 2 11.7425 63.1887 1.06702
69 2 15.8191 67.1342 0.962825
70 2 3.84084 67.3889 0.912231
71 2 7.99076 67.2323 1.0654
72 2 11.8146 67.1269 1.20925
73 2 -0.131389 71.4631 1.23304
74 2 3.98567 71.5157 1.09895
75 2 7.9812 71.377 1.03168
76 2 11.9621 71.3592 1.01359
77 2 0.173117 75.3162 1.25682
78 2 3.97937 75.2724 1.04535
79 2 8.07311 75.5088 1.35331
80 2 11.961 75.427 1.16328
81 2 -0.091868 79.318 1.27679
82 2 4.05479 79.4821 1.22348
83 2 7.99358 79.3629 1.36269
84 2 12.054 79.4548 1.38304
85 2 -0.0887889 83.4448 1.30693
86 2 4.04774 83.3421 1.47553
87 2 7.93338 83.4192 1.4521
88 2 11.9286 83.4819 1.40088
89 2 0.0878724 87.5454 1.5593
90 2 4.11568 87.4166 1.3765
91 2 7.93427 87.4657 1.36722
92 2 11.8855 87.6306 1.30606
93 2 0.0178508 91.3895 1.41515
94 2 4.0012 91.2148 1.31577
95 2 8.02204 91.4985 1.30901
96 2 11.7769 91.5351 1.28648
97 2 15.9134 95.3675 1.43195
98 2 4.05881 95.3508 1.42228
99 2 7.80177 95.3587 1.39769
100 2 11.9071 95.3732 1.25509
101 2 0.0901128 99.4022 1.31257
102 2 4.05817 99.2759 1.30659
103 2 8.02013 99.1123 1.37293
104 2 11.9067 99.2499 1.3011
105 2 -0.00174416 103.242 1.31777
106 2 4.07663 103.084 1.2243
107 2 8.0732 103.064 1.20495
108 2 12.1506 103.014 1.37714
109 2 0.0544251 107.197 1.30225
110 2 4.06343 107.001 1.37762
111 2 8.08924 107.115 1.32287
112 2 11.9181 107.053 1.35726
113 2 -0.0796201 110.871 1.28713
114 2 4.05527 110.951 1.20332
115 2 7.74908 111.007 1.15962
116 2 11.9611 110.952 1.31438
117 2 15.8216 114.689 1.191
118 2 3.91327 114.932 1.39843
119 2 8.04355 114.621 1.0056
120 2 11.9844 114.97 1.15139
121 2 -0.0189705 118.794 1.16723
122 2 3.87794 118.776 1.22143
123 2 7.96342 118.556 1.11909
124 2 11.7911 118.788 1.31424
125 2 15.7749 122.682 1.24846
126 2 4.01834 122.862 1.12045
127 2 7.74862 122.639 1.14971
128 2 11.9465 122.673 1.18031
129 2 0.0206921 126.647 1.16031
130 2 4.06843 126.559 1.03612
131 2 7.98414 126.569 1.05306
132 2 11.7154 126.622 0.985249
133 2 15.8401 130.423 1.04739
134 2 3.98094 130.376 1.07237
135 2 7.96678 130.378 1.05664
136 2 11.8659 130.682 0.973189
137 2 15.9149 134.601 0.919445
138 2 4.12003 134.311 1.22743
139 2 7.90953 134.505 160.403
140 2 11.9472 134.483 0.936649
141 2 0.156242 138.296 0.743108
142 2 4.14038 138.134 160.312
143 2 7.91677 138.465 160.298
144 2 12.0844 138.548 0.876032
145 2 15.8606 142.364 160.349
146 2 3.95291 142.361 160.39
147 2 7.8789 142.282 160.298
148 2 11.6652 142.204 160.39
149 2 -0.0745079 146.197 160.113
150 2 3.93606 146.146 160.289
151 2 7.96824 146.301 160.233
152 2 11.927 146.056 160.388
153 2 15.7534 150.052 160.202
154 2 3.88169 149.947 160.164
155 2 8.0405 150.186 160.168
156 2 12.0714 150.101 0.792613
157 2 15.747 153.888 160.177
158 2 3.85809 153.782 160.143
159 2 7.89872 154.01 160.115
160 2 12.0218 153.98 160.274
161 2 15.9332 157.915 4.66898
162 2 4.04966 157.626 4.79267
163 2 8.08433 158.071 4.86254
164 2 12.0778 158.092 4.55252
165 2 0.244414 3.58565 4.70829
166 2 4.10688 3.26839 4.67932
167 2 7.9501 3.62187 4.72044
168 2 11.9508 3.67959 4.55468
169 2 0.0400568 7.5071 4.45468
170 2 4.01253 7.50267 4.46722
171 2 7.89223 7.46496 4.52905
172 2 11.8983 7.49646 4.45186
173 2 0.0605983 11.4955 4.44803
174 2 3.87768 11.4706 4.26503
175 2 8.02774 11.25 4.46267
176 2 11.9875 11.4098 4.4154
177 2 15.9323 15.2173 4.40933
178 2 4.17324 15.2409 4.53389
179 2 7.95402 15.1068 4.50388
180 2 11.7806 15.3556 4.601
181 2 -0.0129436 19.1853 4.49242
182 2 4.02296 19.0551 4.45269
183 2 8.00557 19.1718 4.26491
184 2 11.8675 19.146 4.35962
185 2 -0.0508967 23.1065 4.31206
186 2 3.96301 22.8121 4.41081
187 2 8.12258 23.0218 4.04891
188 2 11.9858 23.2239 4.22531
189 2 15.7627 27.001 4.36403
190 2 4.05065 26.979 4.4149
191 2 8.07126 26.9727 4.27776
192 2 12.0219 26.846 4.20907
193 2 -0.157689 30.972 4.34439
194 2 3.94237 31.2264 4.33767
195 2 7.94273 30.9765 4.34611
196 2 11.906 31.1094 4.54787
197 2 0.0369397 35.1257 4.2146
198 2 3.83413 34.9911 4.4949
199 2 8.05073 35.1783 4.4982
200 2 12.0555 34.9137 4.1449
201 2 15.9013 39.0311 4.36525
202 2 4.02439 38.9563 4.36031
203 2 7.83354 39.0992 4.35324
204 2 11.8662 38.9631 4.51025
205 2 0.0566818 42.9269 4.4615
206 2 4.05252 43.0491 4.57987
207 2 8.01654 43.0933 4.62106
208 2 11.9547 43.0608 4.46382
209 2 -0.0507268 47.0411 4.68317
210 2 3.87018 47.0351 4.63655
211 2 7.83979 47.1265 4.64326
212 2 11.9034 47.1469 4.56706
213 2 -0.0939137 51.0679 4.75597
214 2 4.0132 51.1807 4.84348
215 2 7.81031 51.1893 4.82419
216 2 11.6283 51.1777 4.66876
217 2 -0.095607 55.0736 4.80834
218 2 4.04544 55.3337 4.70587
219 2 7.97898 55.1239 4.79479
220 2 12.0669 55.0189 4.62267
221 2 15.8896 59.0975 4.85748
222 2 3.99443 59.2635 4.8214
223 2 7.99655 59.1043 4.80502
224 2 11.7405 59.2414 4.88538
225 2 0.139859 63.2913 4.86644
226 2 4.0606 63.261 5.03179
227 2 7.91645 63.1153 4.93606
228 2 12.0313 63.2967 5.07629
229 2 15.7457 67.2191 4.94849
230 2 4.18794 67.2058 4.74984
231 2 7.92922 67.4854 4.88527
232 2 11.775 67.0983 4.98388
233 2 15.8411 71.3344 5.08718
234 2 3.89319 71.4147 4.91215
235 2 7.97647 71.4037 5.10377
236 2 11.9526 71.2185 4.9526
237 2 16.1714 75.4329 5.2745
238 2 4.23902 75.3354 5.12476
239 2 8.05319 75.3407 5.08993
240 2 12.1989 75.4663 5.31942
241 2 0.0831575 79.4495 5.26909
242 2 3.87213 79.3409 5.38544
243 2 7.96215 79.4045 5.21903
244 2 12.0792 79.3022 5.36123
245 2 15.8971 83.3484 5.2465
246 2 3.94924 83.2609 5.20297
247 2 8.07178 83.4068 5.2683
248 2 11.9385 83.2709 5.15825
249 2 0.0696292 87.4708 5.50607
250 2 3.96593 87.5165 5.20325
251 2 7.8994 87.4653 5.30755
252 2 12.0187 87.3681 5.24047
253 2 -0.0474312 91.4066 5.48202
254 2 4.13067 91.3512 5.32914
255 2 8.22424 91.4754 5.40279
256 2 12.0066 91.275 5.39739
257 2 15.9752 95.3239 5.31749
258 2 3.87819 95.3508 5.39251
259 2 7.96596 95.1811 5.34684
260 2 11.9399 95.2724 5.39735
261 2 -0.0161699 99.4209 5.40258
262 2 4.10568 99.4142 5.35144
263 2 8.18279 99.207 5.49744
264 2 11.9029 99.1654 5.44364
265 2 0.0166289 103.14 5.59084
266 2 3.91699 103.091 5.24663
267 2 7.81498 103.167 5.34231
268 2 11.938 103.248 5.22606
269 2 15.8521 106.97 5.55507
270 2 4.08383 106.903 5.25927
271 2 7.91817 107.165 5.58173
272 2 11.9568 107.155 5.19026
273 2 15.8695 110.944 5.2635
274 2 4.15033 111.023 5.25316
275 2 8.03386 111.083 5.18436
276 2 11.8993 110.96 5.35884
277 2 0.127959 114.767 5.18935
278 2 4.03327 114.991 5.3976
279 2 7.95742 114.975 5.34727
280 2 11.9578 114.924 5.26402
281 2 0.139827 118.895 5.33577
282 2 3.97621 118.896 5.34209
283 2 7.82042 118.926 5.18351
284 2 11.9166 118.837 5.08031
285 2 15.9802 122.837 5.12232
286 2 4.00195 122.753 5.16793
287 2 7.88876 122.679 5.21271
288 2 12.0061 122.776 5.15285
289 2 0.0176154 126.656 5.02927
290 2 4.05801 126.779 5.118
291 2 8.00989 126.589 5.11094
292 2 12.004 126.789 5.06698
293 2 -0.0826611 130.693 5.14328
294 2 3.91582 130.664 5.16638
295 2 7.87386 130.615 5.22724
296 2 11.9379 130.75 4.93134
297 2 16.0402 134.582 5.18552
298 2 4.01434 134.582 5.15201
299 2 8.09153 134.633 4.99652
300 2 12.0419 134.468 4.88945
301 2 -0.0788172 138.563 5.05755
302 2 3.93345 138.37 4.94204
303 2 8.11579 138.437 4.99856
304 2 11.9864 138.404 4.95613
305 2 0.0761898 142.301 4.85748
306 2 4.01043 142.284 4.82462
307 2 7.84975 142.406 4.81746
308 2 11.7715 142.223 4.908
309 2 15.7704 146.174 4.94886
310 2 4.17051 146.319 5.00674
311 2 7.81752 146.289 4.95693
312 2 11.6725 146.269 5.03738
313 2 15.7867 150.087 4.92582
314 2 4.12985 150.158 4.88449
315 2 8.02228 150.225 5.01784
316 2 11.8261 150.185 4.68243
317 2 15.7096 154.051 4.90531
318 2 3.9477 153.914 4.75146
319 2 7.70812 154.085 4.78905
320 2 11.7457 154.196 4.90525
321 2 15.8478 158.131 8.73776
322 2 3.99096 157.855 8.76504
323 2 8.10044 158.183 8.85577
324 2 11.904 158.009 8.62983
325 2 15.8831 3.65732 8.62193
326 2 4.08531 3.60209 8.6295
327 2 7.93951 3.71587 8.6843
328 2 11.9229 3.68012 8.74228
329 2 15.7917 7.56513 8.51588
330 2 3.874 7.58786 8.59407
331 2 7.84008 7.64653 8.61805
332 2 12.0901 7.63536 8.70091
333 2 -0.11498 11.4313 8.63041
334 2 3.85708 11.4317 8.442
335 2 8.15562 11.4356 8.50045
336 2 11.9609 11.3514 8.62184
337 2 15.81 15.5289 8.46452
338 2 3.83372 15.5332 8.36084
339 2 7.96603 15.2697 8.49882
340 2 11.8807 15.2844 8.5634
341 2 -0.223871 19.35 8.5385
342 2 4.10476 19.5023 8.3487
343 2 7.95727 19.4024 8.41126
344 2 11.9841 19.1251 8.50941
345 2 0.117179 23.1081 8.34795
346 2 4.08409 23.1938 8.11922
347 2 8.08568 23.1983 8.17352
348 2 11.8266 23.2244 8.28664
349 2 0.254111 27.1536 8.39706
350 2 4.16809 26.9658 8.17558
351 2 7.90308 27.1566 8.22656
352 2 11.9716 27.1621 8.33635
353 2 -0.125454 30.9217 8.27853
354 2 3.88694 31.0106 8.35753
355 2 7.86841 31.0246 8.08345
356 2 12.0247 30.9943 8.43448
357 2 15.855 34.8053 8.2826
358 2 3.99808 34.843 8.38622
359 2 7.88749 34.8959 8.27544
360 2 12.0128 34.9639 8.14389
361 2 0.046007 39.0392 8.38962
362 2 3.88455 39.043 8.34241
363 2 7.9843 38.7962 8.37006
364 2 11.8777 38.8901 8.31475
365 2 -0.0281671 43.0331 8.20247
366 2 3.91173 43.0771 8.67592
367 2 7.97314 43.0358 8.53912
368 2 11.8375 42.8952 8.22212
369 2 -0.0965252 47.094 8.4793
370 2 3.75586 46.9801 8.5756
371 2 7.91836 47.0492 8.37228
372 2 11.9189 47.1205 8.47767
373 2 15.5328 50.9568 8.58928
374 2 3.76298 50.9586 8.76087
375 2 7.83503 50.9612 8.58972
376 2 11.721 51.0663 8.7516
377 2 15.6466 55.0544 8.70314
378 2 3.82046 54.9597 8.68098
379 2 7.87705 54.9418 8.73603
380 2 11.9355 54.93 8.7119
381 2 -0.0139326 59.0257 8.68417
382 2 3.98178 59.0937 8.72601
383 2 7.9586 59.097 8.77134
384 2 11.7692 59.1619 8.66075
385 2 0.131034 63.0364 8.75068
386 2 3.89751 63.3125 8.69325
387 2 7.80733 63.2068 8.74666
388 2 11.9607 63.1977 8.74124
389 2 15.7455 67.1792 8.8387
390 2 3.92482 67.3363 8.92136
391 2 8.14291 67.2424 8.96819
392 2 11.9532 67.1531 8.91214
393 2 15.9592 71.4404 8.92492
394 2 4.1519 71.2696 8.85202
395 2 8.13202 71.3567 8.91175
396 2 12.0864 71.3584 8.86299
397 2 15.8541 75.2964 9.08761
398 2 3.9715 75.2712 9.02734
399 2 7.98206 75.1763 9.19361
400 2 11.8523 75.1627 9.03398
401 2 15.873 79.2581 9.32199
402 2 4.01548 79.3873 9.12848
403 2 8.02253 79.4713 9.05966
404 2 11.9671 79.2422 9.19445
405 2 0.219412 83.2652 9.14162
406 2 4.08232 83.293 9.32757
407 2 7.98111 83.4782 9.23907
408 2 11.8825 83.3084 9.12502
409 2 0.238773 87.3955 9.12784
410 2 4.0902 87.2313 9.22717
411 2 8.01926 87.238 9.20587
412 2 11.8823 87.4447 9.2984
413 2 0.129946 91.3706 9.43455
414 2 4.06143 91.4371 9.41908
415 2 7.8796 91.35 9.43035
416 2 11.9823 91.3873 9.2552
417 2 16.0067 95.3331 9.36648
418 2 4.0931 95.4007 9.2147
419 2 8.08259 95.3145 9.30056
420 2 11.8703 95.2938 9.52508
421 2 15.7529 99.2759 9.52619
422 2 3.88717 99.3012 9.29142
423 2 7.94968 99.3042 9.56702
424 2 11.9178 99.2098 9.42434
425 2 0.0200721 103.253 9.36073
426 2 4.02625 103.229 9.51208
427 2 8.06172 103.148 9.43813
428 2 11.9243 103.246 9.3886
429 2 0.0238782 107.108 9.37128
430 2 4.00086 107.094 9.39674
431 2 7.94214 106.817 9.22087
432 2 11.8617 107.02 9.43855
433 2 15.7406 110.761 9.13416
434 2 3.95483 111.182 9.20891
435 2 8.16126 110.959 9.3554
436 2 12.0017 111.021 9.42269
437 2 0.198617 114.805 9.18992
438 2 3.99833 114.956 9.31543
439 2 7.95601 115.078 9.22473
440 2 12.0999 114.897 9.4168
441 2 0.089576 118.72 9.33553
442 2 4.10193 118.914 9.17912
443 2 7.99439 118.82 9.22753
444 2 11.9751 118.932 9.09904
445 2 16.001 122.745 9.212
446 2 4.16015 122.983 9.2279
447 2 7.94768 122.895 9.2437
448 2 12.1274 122.674 9.29275
449 2 15.8513 126.912 9.07775
450 2 4.12089 126.762 9.10504
451 2 7.92284 126.635 9.21424
452 2 12.0205 126.722 9.15697
453 2 0.0826669 130.735 9.07617
454 2 4.13064 130.391 9.27819
455 2 8.00133 130.456 9.1335
456 2 11.9376 130.698 9.08753
457 2 0.183737 134.554 9.1047
458 2 4.03379 134.499 8.94016
459 2 7.94057 134.473 9.08506
460 2 12.0059 134.437 9.09176
461 2 -0.0760905 138.561 9.004
462 2 4.11392 138.486 8.80152
463 2 7.78578 138.233 8.92917
464 2 11.5663 138.576 9.07988
465 2 -0.0277503 142.371 8.81294
466 2 3.92148 142.382 8.71293
467 2 7.83524 142.312 8.89801
468 2 11.8993 142.562 8.96796
469 2 15.8957 146.292 8.89684
470 2 4.00284 146.175 8.99331
471 2 7.90913 146.334 9.11302
472 2 11.9787 146.437 9.07644
473 2 15.7183 150.289 8.83578
474 2 3.81163 150.084 8.97084
475 2 7.8072 150.126 9.00853
476 2 12.0284 150.323 8.81865
477 2 15.9132 154.147 8.87541
478 2 4.08852 154.185 8.77861
479 2 8.03377 154.013 8.82269
480 2 11.9284 154.181 8.65405
481 2 16.0565 158.173 12.7338
482 2 4.24545 158.079 12.5767
483 2 7.98918 158.107 12.8155
484 2 11.8446 157.926 12.7304
485 2 15.7399 3.49215 12.7247
486 2 3.9606 3.66525 12.6973
487 2 7.88003 3.64638 12.772
488 2 11.8053 3.65287 12.7457
489 2 15.8872 7.49687 12.643
490 2 4.01707 7.6469 12.651
491 2 8.07127 7.53399 12.6928
492 2 12.0021 7.51046 12.6843
493 2 0.0362179 11.447 12.5599
494 2 3.97134 11.4286 12.6827
495 2 7.88693 11.513 12.803
496 2 11.9521 11.6156 12.7201
497 2 -0.0286917 15.4305 12.4714
498 2 3.9854 15.3586 12.3622
499 2 7.81571 15.2207 12.4752
500 2 11.8431 15.4989 12.6303
501 2 0.0864951 19.3047 12.5278
502 2 4.10702 19.2527 12.2695
503 2 7.88105 19.3474 12.5574
504 2 11.9637 19.2883 12.5335
505 2 0.185479 23.3333 12.3859
506 2 4.05026 23.3222 12.2918
507 2 8.02089 23.1343 12.3352
508 2 11.8725 23.1881 12.2136
509 2 0.0913801 27.1908 12.3846
510 2 4.14119 27.1344 12.3315
511 2 7.93216 27.0598 12.3654
512 2 11.949 27.2356 12.4304
513 2 -0.00805182 31.146 12.4093
514 2 3.71627 31.1464 12.3807
515 2 7.81051 31.0377 12.3918
516 2 11.6061 30.9462 12.348
517 2 -0.0075521 34.9311 12.1175
518 2 4.05061 34.8099 12.102
519 2 8.0173 34.8854 12.207
520 2 12.0034 35.0446 12.2582
521 2 -0.00256423 38.8843 12.3703
522 2 3.94744 38.7989 12.0329
523 2 7.94688 38.9216 12.3629
524 2 11.8875 38.934 12.3053
525 2 -0.0922496 42.8273 12.2615
526 2 4.0999 42.8598 12.4692
527 2 7.86039 42.9083 12.3702
528 2 11.7482 42.9581 12.131
529 2 -0.325993 46.9918 12.393
530 2 3.90493 46.8126 12.4345
531 2 7.87993 46.9605 12.3861
532 2 11.7085 46.9206 12.327
533 2 -0.0715001 50.8855 12.6226
534 2 3.76482 50.9226 12.5639
535 2 7.66115 50.9961 12.5617
536 2 11.6529 51.0852 12.6962
537 2 15.7197 55.0877 12.723
538 2 3.86012 54.7701 12.4431
539 2 7.94785 55.0015 12.5152
540 2 11.9132 54.9283 12.5808
541 2 15.7925 58.9945 12.6918
542 2 3.95874 59.1229 12.755
543 2 7.84471 59.0377 12.741
544 2 11.7979 59.1881 12.7767
545 2 15.9367 63.211 12.3963
546 2 4.12186 63.2281 12.7148
547 2 7.91955 63.228 12.3792
548 2 11.8941 63.0739 12.6142
549 2 0.0830872 67.2616 12.7889
550 2 4.07552 67.3012 12.8171
551 2 7.99252 67.1418 12.9017
552 2 12.0489 67.1894 12.9623
553 2 -0.0129014 71.1216 12.8608
554 2 3.99367 71.0797 12.805
555 2 7.92221 71.1068 12.9646
556 2 11.9151 71.0758 12.777
557 2 -0.219773 75.1279 13.0197
558 2 3.87579 75.0275 13.0024
559 2 7.66669 75.1252 12.9299
560 2 11.6923 75.2467 12.9718
561 2 -0.0609439 79.4532 13.0051
562 2 4.10975 79.1685 12.9533
563 2 7.96215 79.3484 12.8859
564 2 11.9474 79.3036 12.8595
565 2 0.0527944 83.1014 13.204
566 2 4.0801 83.3815 13.1329
567 2 8.01368 83.3115 13.051
568 2 12.1117 83.3674 13.0819
569 2 0.165368 87.321 13.083
570 2 4.08763 87.2336 13.2886
571 2 7.98618 87.3939 13.4087
572 2 12.061 87.2416 13.1422
573 2 -0.013516 91.348 13.2476
574 2 3.78193 91.4573 13.2034
575 2 7.84464 91.3023 13.2994
576 2 11.8284 91.198 13.1391
577 2 0.0896505 95.526 13.3699
578 2 4.06148 95.4099 13.4351
579 2 7.93086 95.1947 13.5046
580 2 11.8031 95.393 13.3363
581 2 0.0147646 99.348 13.3295
582 2 4.13807 99.186 13.3129
583 2 7.82095 99.3025 13.4336
584 2 11.9211 99.454 13.4038
585 2 0.101183 103.254 13.5233
586 2 4.12137 103.268 13.5547
587 2 7.85726 103.058 13.4465
588 2 11.8295 103.364 13.4223
589 2 0.126749 107.141 13.494
590 2 3.90451 106.98 13.2186
591 2 7.96166 107.211 13.4036
592 2 11.8733 107.202 13.4822
593 2 0.145319 111.165 13.2229
594 2 3.92347 111.081 13.4713
595 2 7.82154 111.139 13.2377
596 2 11.9446 111.12 13.547
597 2 0.0345085 114.895 13.3054
598 2 3.93855 114.985 13.4076
599 2 8.18355 114.958 13.3157
600 2 11.9119 115.002 13.3393
601 2 0.238141 118.787 12.9805
602 2 4.23907 118.898 13.2563
603 2 8.17447 119.026 13.4227
604 2 11.8994 118.995 13.2768
605 2 0.0883894 122.752 13.1076
606 2 4.19509 122.939 13.0327
607 2 8.05541 122.89 13.2176
608 2 11.9171 123.003 13.2502
609 2 0.116349 126.778 13.1401
610 2 3.92016 126.683 13.1624
611 2 8.01289 126.923 13.2438
612 2 11.9495 126.842 13.2001
613 2 16.0528 130.698 12.9931
614 2 4.12803 130.422 13.0174
615 2 7.95456 130.539 13.0629
616 2 11.822 130.638 13.3139
617 2 15.8961 134.583 13.0251
618 2 4.07592 134.469 13.1381
619 2 8.03617 134.485 12.9962
620 2 11.7849 134.643 13.0797
621 2 -0.0480394 138.361 12.8462
622 2 3.93251 138.519 13.0294
623 2 7.96232 138.607 13.0083
624 2 11.9033 138.522 13.1361
625 2 15.8437 142.262 12.8462
626 2 3.92338 142.331 13.0811
627 2 7.91265 142.31 13.1349
628 2 11.8068 142.491 13.0399
629 2 0.204005 146.247 13.0032
630 2 4.06196 146.183 12.8998
631 2 8.03217 146.14 12.9801
632 2 12.0481 146.173 12.9214
633 2 0.102416 150.304 13.1318
634 2 4.1599 150.242 13.0627
635 2 8.11579 150.116 12.8942
636 2 12.0036 150.344 13.0334
637 2 15.9719 154.073 12.9103
638 2 3.978 154.143 12.9704
639 2 8.16632 154.044 12.7438
640 2 11.8301 154.326 12.7814
641 2 -0.035068 158.164 16.8463
642 2 3.91727 -0.213224 16.8648
643 2 7.98413 158.05 16.8692
644 2 11.9629 158.154 16.744
645 2 15.7709 3.78256 16.7529
646 2 4.02843 3.73233 16.6657
647 2 7.96588 3.68652 16.8058
648 2 11.7509 3.57953 16.6618
649 2 -0.0842377 7.52255 16.7582
650 2 3.87025 7.61845 16.6565
651 2 8.01293 7.67837 16.6362
652 2 11.8542 7.60434 16.6794
653 2 -0.209203 11.6263 16.8042
654 2 3.82468 11.6168 16.6956
655 2 8.14532 11.5324 16.6052
656 2 11.7522 11.6002 16.5794
657 2 -0.179189 15.672 16.5374
658 2 3.96781 15.4803 16.5552
659 2 8.11214 15.4993 16.4702
660 2 11.9705 15.7661 16.567
661 2 15.859 19.5517 16.5213
662 2 4.05875 19.3122 16.495
663 2 7.93823 19.4886 16.5188
664 2 11.8661 19.4691 16.4915
665 2 -0.166413 23.3531 16.2979
666 2 3.93485 23.2605 16.5449
667 2 8.09043 23.3704 16.431
668 2 11.8827 23.4829 16.5492
669 2 0.0287458 27.3352 16.4323
670 2 3.95839 27.1891 16.4414
671 2 7.96089 27.1362 16.4521
672 2 11.832 27.1433 16.3844
673 2 -0.0568173 31.189 16.3371
674 2 3.835 31.0172 16.2724
675 2 7.96249 30.9003 16.4709
676 2 11.865 31.0894 16.317
677 2 0.0744782 35.068 16.2256
678 2 4.12657 34.9138 16.2771
679 2 7.99361 34.9529 16.3107
680 2 11.6839 35.221 16.2089
681 2 0.145225 38.811 16.2449
682 2 4.04418 38.9537 16.1991
683 2 7.89682 39.0019 16.2806
684 2 11.789 39.0794 16.3468
685 2 0.0108492 42.6624 16.1987
686 2 4.07351 42.7884 16.4667
687 2 7.95337 42.9382 16.3023
688 2 11.8418 42.9492 16.2304
689 2 15.784 46.6822 16.1022
690 2 3.88002 46.7063 16.2671
691 2 7.83485 46.8113 16.2974
692 2 11.7988 46.8111 16.3933
693 2 0.121924 50.9219 16.4824
694 2 3.79316 50.8035 16.4562
695 2 7.60468 51.0095 16.5653
696 2 11.5703 50.7509 16.4948
697 2 -0.0758108 55.024 16.5569
698 2 3.85611 54.7028 16.5347
699 2 8 54.8587 16.5202
700 2 11.9787 55.0181 16.6417
701 2 0.132273 58.8626 16.5102
702 2 4.03477 58.8858 16.6449
703 2 7.85819 58.7932 16.5469
704 2 11.843 59.2128 16.4871
705 2 0.219102 62.8992 16.5166
706 2 4.10588 62.8987 16.518
707 2 7.98428 62.9239 16.6541
708 2 11.8914 62.9116 16.7295
709 2 -0.00934101 67.0519 16.7206
710 2 3.81292 67.0984 16.8024
711 2 7.91979 66.8938 16.8981
712 2 12.0196 66.9995 16.431
713 2 0.164092 71.1152 16.7902
714 2 3.97016 71.1254 16.8148
715 2 7.91374 71.2161 16.7276
716 2 11.9764 71.0712 16.7837
717 2 0.0390605 75.1505 16.8549
718 2 3.83143 75.3067 16.8227
719 2 7.79948 75.084 16.8518
720 2 11.846 75.1121 16.9554
721 2 -0.0203983 79.128 16.923
722 2 3.93999 79.2414 17.0061
723 2 7.97377 79.1286 16.9803
724 2 11.8938 79.2671 16.8538
725 2 -0.0828289 83.1454 17.0907
726 2 3.99144 83.1709 16.95
727 2 8.11523 83.3101 16.9831
728 2 11.7754 83.3051 17.0499
729 2 -0.0355865 87.1224 17.137
730 2 4.07285 87.2178 17.2214
731 2 7.82576 87.2937 17.1922
732 2 11.7794 87.2593 16.8678
733 2 -0.220073 91.2277 17.1879
734 2 3.91467 91.4251 17.0675
735 2 7.98903 91.1543 17.0541
736 2 11.9324 91.2029 17.1511
737 2 0.0692688 95.2768 17.2242
738 2 3.81303 95.3455 17.2764
739 2 7.65402 95.3286 17.2497
740 2 11.9197 95.1584 17.3458
741 2 0.0290152 99.2565 17.4698
742 2 3.87456 99.424 17.2482
743 2 7.96014 99.2405 17.3198
744 2 11.7679 99.2891 17.3806
745 2 0.0377264 103.013 17.442
746 2 4.14973 103.301 17.5703
747 2 7.78378 103.21 17.4702
748 2 11.8267 103.401 17.2543
749 2 0.0326868 107.135 17.479
750 2 3.97678 107.274 17.2756
751 2 7.95039 107.387 17.6949
752 2 11.853 107.369 17.2463
753 2 -0.071833 111.138 17.4315
754 2 4.09885 111.201 17.4194
755 2 7.94385 111.246 17.2977
756 2 11.8522 111.341 17.4297
757 2 0.0349768 115.191 17.3268
758 2 3.97786 115.015 17.4927
759 2 7.9109 114.994 17.4295
760 2 11.9343 115.183 17.354
761 2 0.0884381 119.148 17.3193
762 2 4.01336 118.952 17.3385
763 2 7.97031 119.036 17.3809
764 2 11.9538 118.88 17.2616
765 2 0.218225 122.917 17.022
766 2 4.21244 122.826 17.107
767 2 8.14622 122.792 17.2808
768 2 11.8798 122.948 17.2854
769 2 15.9612 126.738 17.0544
770 2 4.01368 126.593 17.2266
771 2 7.79915 126.721 16.9953
772 2 11.9743 126.833 17.2359
773 2 16.0823 130.687 17.1983
774 2 4.07673 130.709 17.1505
775 2 7.96835 130.736 17.1121
776 2 12.0063 130.561 17.1573
777 2 15.8988 134.505 17.0183
778 2 3.79953 134.656 16.9841
779 2 7.88555 134.666 17.1575
780 2 12.0125 134.744 17.019
781 2 0.053681 138.503 17.0539
782 2 4.01002 138.486 17.1176
783 2 8.04937 138.521 17.2763
784 2 11.9028 138.625 16.9746
785 2 15.9099 142.382 17.1052
786 2 4.16164 142.416 17.1674
787 2 7.77101 142.511 17.1128
788 2 12.0337 142.61 17.0927
789 2 15.8682 146.398 17.0833
790 2 3.83393 146.351 16.9738
791 2 8.1091 146.584 17.0108
792 2 11.923 146.561 16.7999
793 2 15.9528 150.259 16.9561
794 2 3.88548 150.235 16.8702
795 2 7.87429 150.171 16.9883
796 2 11.7768 150.425 16.9759
797 2 15.7768 154.312 16.9124
798 2 3.94056 154.193 16.6751
799 2 8.09318 154.21 16.8631
800 2 11.9282 154.363 16.867
801 2 16.0442 158.227 20.8042
802 2 4.14208 158.217 20.8732
803 2 7.88047 158.06 20.9209
804 2 11.7225 158.237 20.9446
805 2 0.0232332 3.66515 20.6757
806 2 4.12634 3.7001 20.8534
807 2 7.90766 3.97432 20.7424
808 2 11.8719 3.94157 20.8705
809 2 16.0083 7.55291 20.677
810 2 4.01556 7.96029 20.4147
811 2 8.01214 7.70702 20.8647
812 2 11.9863 7.70824 20.8553
813 2 15.7153 11.8157 20.644
814 2 3.98933 11.6991 20.4809
815 2 7.77816 11.7549 20.602
816 2 11.7264 11.7715 20.8021
817 2 15.9108 15.7338 20.5495
818 2 3.91222 15.7603 20.4249
819 2 7.8529 15.3428 20.5788
820 2 11.7248 15.4634 20.5744
821 2 -0.119193 19.5904 20.5458
822 2 3.84 19.5817 20.664
823 2 7.83962 19.3153 20.4228
824 2 11.7495 19.6037 20.6289
825 2 0.0491347 23.5982 20.5729
826 2 3.92384 23.2455 20.5372
827 2 7.76634 23.5094 20.4565
828 2 11.7909 23.5343 20.5404
829 2 15.6683 27.2188 20.5574
830 2 3.88144 27.409 20.474
831 2 7.70369 27.3423 20.5305
832 2 11.6953 27.2474 20.4111
833 2 15.733 31.3645 20.162
834 2 3.89782 31.2182 20.4139
835 2 7.9499 31.3759 20.442
836 2 11.7076 31.1829 20.2894
837 2 15.5467 35.1734 20.2501
838 2 3.85991 34.95 20.3421
839 2 7.90176 35.2788 20.3159
840 2 11.8119 35.11 20.2886
841 2 0.046485 38.8678 20.272
842 2 3.95179 38.9975 20.2961
843 2 7.96108 38.9545 20.3099
844 2 11.9811 39.163 20.3329
845 2 15.8029 42.8224 20.1656
846 2 4.05198 43.0237 20.3856
847 2 7.89827 42.9734 20.3947
848 2 11.7993 42.9952 20.3181
849 2 15.7713 46.8507 20.2783
850 2 3.91615 46.9529 20.2789
851 2 7.99734 46.7638 20.4265
852 2 12.0124 46.7369 20.3895
853 2 -0.203879 50.8898 20.3933
854 2 3.70873 50.7919 20.3841
855 2 7.77746 50.8201 20.3259
856 2 11.7708 50.824 20.3342
857 2 0.033899 54.8817 20.475
858 2 3.90231 54.9518 20.5237
859 2 7.93271 54.7887 20.2675
860 2 11.872 54.8944 20.5092
861 2 15.8631 58.8294 20.5134
862 2 3.88793 58.993 20.4305
863 2 7.89903 58.7018 20.478
864 2 11.7265 58.7381 20.4744
865 2 15.8324 63.0612 20.5479
866 2 4.1529 62.8756 20.5689
867 2 7.9965 62.8623 20.585
868 2 12.0442 62.9301 20.481
869 2 0.229252 67.0495 20.5826
870 2 4.09037 67.1667 20.7075
871 2 7.89945 66.9217 20.7605
872 2 12.1454 66.8958 20.4815
873 2 0.0229636 71.0588 20.7747
874 2 4.06324 70.9865 20.4868
875 2 7.92521 70.9871 20.5856
876 2 11.9187 71.1076 20.6588
877 2 0.0991314 75.0802 20.8024
878 2 4.05712 75.1658 20.6981
879 2 8.0066 74.898 20.7099
880 2 11.8932 74.9455 20.6293
881 2 0.0592117 79.0748 20.8168
882 2 4.10782 79.0737 20.7418
883 2 7.95496 78.9613 20.8904
884 2 12.09 79.1233 20.9426
885 2 0.196619 83.0012 20.8328
886 2 4.07176 83.0894 20.8994
887 2 8.01539 83.1542 20.7696
888 2 11.8895 83.1572 20.9971
889 2 0.169995 86.9993 20.9669
890 2 4.04646 87.2081 21.0433
891 2 8.12515 87.2602 20.8977
892 2 12.0199 87.1839 21.0523
893 2 0.06914 91.1779 21.1012
894 2 3.89824 91.1968 21.0997
895 2 8.02994 91.1158 21.1363
896 2 11.9 91.2292 21.0376
897 2 -0.126564 95.2163 20.96
898 2 4.10393 95.2162 20.9872
899 2 7.87107 95.1837 21.3117
900 2 11.8569 95.1598 21.115
901 2 -0.108993 99.1592 21.3239
902 2 3.90895 99.1913 21.2051
903 2 8.09581 99.3517 21.2494
904 2 11.8578 99.1081 21.0744
905 2 -0.190368 103.411 21.3167
906 2 4.15544 103.265 21.3335
907 2 8.03595 103.24 21.3592
908 2 11.9014 103.455 21.4327
909 2 0.0240764 107.19 21.4661
910 2 3.82892 107.256 21.5167
911 2 7.94359 107.385 21.4419
912 2 11.9008 107.194 21.4706
913 2 -0.0675638 111.113 21.4157
914 2 3.85117 111.266 21.4237
915 2 8.00239 111.316 21.6258
916 2 11.8448 111.251 21.3751
917 2 15.7421 115.15 21.2881
918 2 3.94993 115.02 21.5393
919 2 7.99817 115.055 21.3978
920 2 11.9425 115.146 21.4426
921 2 0.0200263 118.929 21.522
922 2 3.95448 119.053 21.4434
923 2 8.00332 119.116 21.5631
924 2 11.8505 119.029 21.4026
925 2 15.9388 122.871 21.3141
926 2 3.84835 123.038 21.2234
927 2 8.03775 122.927 21.3811
928 2 11.9075 122.989 21.399
929 2 15.8397 126.791 21.2451
930 2 4.19409 127.022 21.1943
931 2 7.99728 126.95 21.2209
932 2 11.841 126.902 21.2451
933 2 15.7958 130.648 21.1108
934 2 4.1463 130.792 21.1789
935 2 7.92975 130.753 21.067
936 2 11.8979 130.806 21.1659
937 2 0.256702 134.507 21.0833
938 2 4.19339 134.664 21.1599
939 2 7.99023 134.548 21.0446
940 2 11.9028 134.67 21.2172
941 2 15.7183 138.56 21.1046
942 2 3.75285 138.563 21.0964
943 2 7.97806 138.58 21.0042
944 2 11.8175 138.622 21.1747
945 2 15.7574 142.572 21.1648
946 2 3.94695 142.348 21.0206
947 2 7.88379 142.46 21.0567
948 2 11.9353 142.747 21.1357
949 2 15.9254 146.537 20.9668
950 2 3.94952 146.437 21.0533
951 2 7.95077 146.462 21.1631
952 2 12.038 146.438 20.955
953 2 15.8504 150.434 20.9958
954 2 3.91065 150.446 20.9153
955 2 7.81361 150.407 20.9335
956 2 11.8532 150.459 20.9441
957 2 15.7871 154.457 20.7454
958 2 4.07949 154.169 20.7422
959 2 7.95351 154.248 20.7898
960 2 12.0637 154.357 20.951
961 2 0.0207568 158.327 24.7443
962 2 3.85466 158.324 24.6502
963 2 8.07175 158.349 24.9286
964 2 11.868 158.382 24.8401
965 2 15.7595 3.9387 24.7847
966 2 3.90494 4.07329 24.7605
967 2 7.89595 3.97439 24.7453
968 2 12.0224 3.92363 24.8651
969 2 15.8367 7.88755 24.7804
970 2 3.92757 7.8019 24.7352
971 2 8.05441 7.90745 24.7269
972 2 11.9969 7.86628 24.5549
973 2 16.0896 11.8098 24.5329
974 2 3.91579 11.8353 24.5665
975 2 7.84014 11.8106 24.8803
976 2 12.1592 11.7799 24.69
977 2 -0.0458603 15.6663 24.6201
978 2 3.90555 15.7014 24.6794
979 2 7.87835 15.7584 24.6765
980 2 11.7893 15.6752 24.7182
981 2 -0.214354 19.4822 24.5704
982 2 3.89913 19.5045 24.5919
983 2 7.95664 19.6128 24.4522
984 2 11.5853 19.4998 24.6591
985 2 -0.0378115 23.495 24.4398
986 2 3.86375 23.432 24.4874
987 2 7.76279 23.4843 24.3847
988 2 11.6789 23.4341 24.5153
989 2 -0.0529753 27.2887 24.5431
990 2 4.08888 27.499 24.3573
991 2 8.01144 27.2891 24.4145
992 2 11.8463 27.4506 24.3422