ITEM: TIMESTEP
23100
ITEM: NUMBER OF ATOMS
32000
ITEM: BOX BOUNDS xy xz yz pp pp pp
0.0000000000000000e+00 1.5832000000000001e+01 0.0000000000000000e+00
0.0000000000000000e+00 1.5831999999999999e+02 0.0000000000000000e+00
7.7021273552203695e-01 1.6020690526447328e+02 0.0000000000000000e+00
ITEM: ATOMS id type x y z
1 2 15.8682 157.79 160.111
2 2 3.96882 157.827 160.022
3 2 7.92203 157.809 160.129
4 2 11.9099 157.854 160.194
5 2 0.213232 3.51238 159.944
6 2 4.15854 3.52303 159.94
7 2 8.10605 3.65351 159.938
8 2 12.0186 3.53149 159.94
9 2 16.0309 7.33665 159.896
10 2 4.09443 7.39538 159.858
11 2 8.00912 7.41769 159.912
12 2 12.0087 7.45545 159.872
13 2 15.7683 11.258 159.946
14 2 3.94542 11.3993 159.809
15 2 8.04026 11.2685 159.965
16 2 11.9807 11.3683 159.733
17 2 0.250603 15.1066 159.721
18 2 4.18474 15.4451 159.801
19 2 8.14989 15.1347 159.703
20 2 12.151 15.1659 159.761
21 2 15.9642 19.1461 159.809
22 2 3.99766 19.1775 159.835
23 2 7.89995 18.9536 159.731
24 2 12.0213 19.1494 159.687
25 2 15.9067 23.0009 159.721
26 2 4.08991 23.051 159.701
27 2 8.02539 22.9736 159.924
28 2 11.8896 23.1849 159.633
29 2 15.7875 26.9226 159.807
30 2 3.85684 26.9767 159.784
31 2 8.1678 27.1001 159.895
32 2 11.9632 26.9422 159.77
33 2 15.8322 30.9949 159.659
34 2 3.93815 31.0228 0.488958
35 2 7.97799 30.9737 159.801
36 2 11.9138 31.0535 159.535
37 2 -0.0128795 35.1624 159.739
38 2 3.98249 35.0305 159.971
39 2 7.94909 34.9551 159.891
40 2 12.0878 35.1598 159.738
41 2 0.175619 39.2903 159.831
42 2 4.09398 39.1068 0.139595
43 2 7.93312 39.2326 0.465666
44 2 11.8223 39.1977 0.596937
45 2 -0.0199331 43.0795 159.946
46 2 3.94988 43.1871 160.126
47 2 7.76758 43.2395 0.750535
48 2 11.7552 42.9549 0.640188
49 2 -0.200503 47.2452 0.715524
50 2 3.96568 47.2963 0.691173
51 2 7.82904 47.1466 0.57308
52 2 11.9168 47.1716 0.787382
53 2 -0.126376 51.1933 0.977806
54 2 3.89296 51.2386 0.819237
55 2 7.78074 51.231 0.801284
56 2 11.7335 51.2055 0.705905
57 2 15.9626 55.1793 0.784197
58 2 4.01887 55.1153 1.00547
59 2 7.87289 55.1982 0.761947
60 2 11.8767 55.1735 0.915351
61 2 0.190955 59.3181 0.876582
62 2 3.95247 59.2976 0.868516
63 2 7.81642 59.0338 0.941718
64 2 11.8772 59.3124 0.920808
65 2 -0.0362885 63.2445 0.958889
66 2 3.8334 63.4498 1.08695
67 2 8.0998 63.1873 1.00228
68 2 11.9576 63.3343 1.00444
69 2 15.857 67.4132 1.28216
70 2 3.85226 67.4733 1.18708
71 2 7.75286 67.4244 0.97349
72 2 11.8339 67.4854 1.00934
73 2 0.175464 71.2829 1.06599
74 2 3.91032 71.2513 1.06942
75 2 8.06759 71.4108 1.24101
76 2 12.0624 71.4034 1.14328
77 2 0.13288 75.5117 1.16256
78 2 3.98438 75.397 1.02552
79 2 7.93983 75.2479 1.21039
80 2 12.1156 75.6232 1.31447
81 2 0.156858 79.4703 1.40282
82 2 3.91506 79.3192 1.45088
83 2 7.91499 79.4848 1.28855
84 2 11.8368 79.5128 1.32721
85 2 0.00414803 83.4387 1.39842
86 2 3.93016 83.5234 1.03354
87 2 8.02053 83.5286 1.3218
88 2 11.9873 83.4149 1.48346
89 2 0.0264372 87.4882 1.29866
90 2 3.82196 87.4963 1.42875
91 2 7.79266 87.3683 1.52737
92 2 11.9046 87.3275 1.22782
93 2 0.0369175 91.3981 1.37344
94 2 3.9653 91.4661 1.41407
95 2 7.84022 91.3108 1.53905
96 2 11.9047 91.3457 1.45054
97 2 15.847 95.2388 1.30829
98 2 3.9804 95.3207 1.44125
99 2 7.99693 95.3692 1.40633
100 2 11.9234 95.3457 1.31665
101 2 -0.083875 99.3288 1.23974
102 2 3.78526 99.2542 1.29091
103 2 7.92722 99.2294 1.44104
104 2 11.9686 99.1062 1.19811
105 2 0.143493 103.264 1.36199
106 2 4.18862 103.221 1.17156
107 2 7.96427 103.171 1.47673
108 2 11.7308 103.264 1.26587
109 2 0.0434321 106.947 1.46329
110 2 4.01742 107.157 1.31817
111 2 7.88244 107.082 1.36363
112 2 11.826 107.113 1.26794
113 2 0.0736608 110.913 1.37573
114 2 3.89322 111.273 1.18487
115 2 8.08144 110.885 1.32069
116 2 11.8532 111.141 1.24587
117 2 15.7856 114.945 1.29234
118 2 3.92877 115.034 1.11478
119 2 7.77459 114.901 1.28381
120 2 11.7058 114.82 1.38279
121 2 0.0210873 118.72 1.20974
122 2 4.16219 118.863 1.21507
123 2 7.93616 119.048 1.18503
124 2 11.9583 118.757 1.19872
125 2 15.9809 122.766 0.966522
126 2 3.87909 122.526 1.13856
127 2 8.0045 122.8 1.172
128 2 11.975 122.698 1.04298
129 2 0.168234 126.527 1.00228
130 2 4.05307 126.647 1.16664
131 2 8.0236 126.59 1.19997
132 2 12.1163 126.599 0.982411
133 2 15.9721 130.527 1.03165
134 2 3.96565 130.462 0.956976
135 2 7.9471 130.711 1.12694
136 2 11.9879 130.464 1.1073
137 2 15.8739 134.2 1.0469
138 2 3.80346 134.462 0.800689
139 2 7.85927 134.514 160.42
140 2 11.8392 134.38 1.0457
141 2 0.00487913 138.344 0.920997
142 2 3.94431 138.362 160.387
143 2 7.98417 138.201 160.423
144 2 11.8746 138.176 0.984222
145 2 15.7324 142.215 160.417
146 2 3.90797 142.124 160.205
147 2 7.79327 142.22 160.3
148 2 12.0237 142.412 160.337
149 2 0.104486 146.163 160.38
150 2 3.93113 146.246 160.259
151 2 7.92903 146.166 160.226
152 2 11.8904 146.338 160.247
153 2 16.0215 149.952 160.14
154 2 4.08637 150.199 160.256
155 2 7.8205 150.026 160.215
156 2 11.9665 150.08 0.602925
157 2 16.0116 153.919 160.042
158 2 3.94077 153.911 160.017
159 2 7.96997 153.893 160.184
160 2 11.6648 153.875 160.058
161 2 15.8027 158.027 4.72857
162 2 4.05842 158.211 4.61003
163 2 7.81688 157.902 4.55514
164 2 11.936 157.981 4.74705
165 2 0.0704319 3.43 4.41289
166 2 4.0926 3.76944 4.54661
167 2 8.05586 3.33486 4.46945
168 2 11.9856 3.66942 4.54956
169 2 -0.0070638 7.41065 4.64187
170 2 3.96513 7.59374 4.67954
171 2 8.08123 7.40294 4.5589
172 2 11.9612 7.44662 4.61612
173 2 -0.0140326 11.26 4.56441
174 2 3.9869 11.5542 4.43874
175 2 7.92608 11.3649 4.41185
176 2 11.772 11.5033 4.62729
177 2 16.0068 15.3878 4.43732
178 2 3.96065 15.3549 4.47761
179 2 7.95831 15.2509 4.3765
180 2 12.1182 15.2878 4.23242
181 2 0.0650776 19.3071 4.35912
182 2 4.02731 19.27 4.50843
183 2 8.1637 19.0232 4.24299
184 2 11.9187 19.2904 4.42768
185 2 -0.0817363 22.9984 4.27703
186 2 4.06685 23.2565 4.30735
187 2 8.00051 22.9041 4.33781
188 2 11.9202 23.1808 4.4965
189 2 16.0654 26.9234 4.10361
190 2 4.06966 27.0137 4.22654
191 2 7.9146 26.912 4.2124
192 2 11.9196 27.1791 4.31342
193 2 0.118993 31.0553 4.33664
194 2 3.74221 30.9237 4.30245
195 2 7.95666 30.8996 4.32125
196 2 11.9419 30.9888 4.17272
197 2 -0.110313 35.0293 4.20904
198 2 3.88943 35.1403 4.31298
199 2 7.841 34.6983 4.33574
200 2 11.9245 35.2975 4.44282
201 2 16.0619 39.0203 4.51574
202 2 4.03644 39.0089 4.47443
203 2 7.96527 38.8792 4.50803
204 2 11.9702 39.0998 4.28571
205 2 -0.126951 43.0534 4.43055
206 2 3.98593 43.0869 4.52479
207 2 7.84714 43.1197 4.5515
208 2 11.8816 43.0165 4.51295
209 2 -0.0847492 47.0799 4.43866
210 2 3.8147 47.0109 4.62703
211 2 7.87456 47.1884 4.78049
212 2 11.6368 47.1209 4.60032
213 2 -0.0538 51.1638 4.60345
214 2 3.88412 51.2006 4.86028
215 2 7.81631 51.0877 4.70342
216 2 11.8736 51.1891 4.64789
217 2 0.151861 55.2594 4.83668
218 2 3.99131 55.0693 5.05227
219 2 7.88452 55.1341 4.66077
220 2 11.7703 55.276 4.85237
221 2 15.7592 59.3138 4.82678
222 2 4.02808 59.0444 4.79799
223 2 7.95755 59.1397 4.8423
224 2 12.0216 59.0725 4.72174
225 2 0.0453153 63.1499 4.99211
226 2 4.13918 63.3254 4.88902
227 2 7.82392 63.2543 4.80738
228 2 11.9199 63.2575 4.88748
229 2 16.0212 67.3363 5.0071
230 2 4.01706 67.4128 5.26825
231 2 8.14718 67.217 4.94554
232 2 11.9891 67.4072 5.06984
233 2 15.9723 71.3183 4.965
234 2 4.2153 71.0915 5.15886
235 2 7.91911 71.1845 4.99155
236 2 12.0366 71.4901 4.82907
237 2 15.873 75.3636 4.98119
238 2 4.02304 75.3214 4.94934
239 2 7.91843 75.1725 5.12792
240 2 11.7647 75.2308 4.93234
241 2 0.184306 79.4249 5.24959
242 2 4.16249 79.416 5.11357
243 2 7.86156 79.2811 5.1271
244 2 11.7304 79.3726 5.19605
245 2 15.84 83.4184 5.29653
246 2 4.01123 83.4068 5.1056
247 2 8.03956 83.4962 5.15312
248 2 11.9157 83.6873 5.56589
249 2 0.346292 87.413 5.15574
250 2 4.02603 87.3365 5.59887
251 2 8.10937 87.38 5.44937
252 2 12.0375 87.426 5.41234
253 2 0.159855 91.4056 5.27605
254 2 4.12759 91.5669 5.44821
255 2 8.00026 91.274 5.36926
256 2 11.9777 91.3068 5.28304
257 2 15.7825 95.4519 5.41055
258 2 3.88234 95.3629 5.4457
259 2 8.028 95.4954 5.33037
260 2 12.0428 95.2757 5.41326
261 2 -0.0279993 99.2526 5.30809
262 2 3.83947 99.1884 5.24645
263 2 7.83842 99.2244 5.32729
264 2 11.9894 99.1402 5.33668
265 2 0.0800406 103.321 5.09598
266 2 4.09338 103.134 5.33736
267 2 8.05321 103.066 5.39117
268 2 11.849 102.901 5.33665
269 2 15.9454 107.204 5.12401
270 2 3.96045 107.108 5.42842
271 2 7.876 107.292 4.98002
272 2 11.7068 106.918 5.50141
273 2 15.7538 110.917 5.35701
274 2 3.98946 110.971 5.2436
275 2 7.86042 111.187 5.44702
276 2 11.9146 111.003 5.31362
277 2 -0.0164728 114.974 5.29269
278 2 3.91957 114.873 5.09287
279 2 7.777 114.977 5.31907
280 2 11.6969 115.071 5.2477
281 2 0.0373722 118.707 5.18955
282 2 4.09774 118.725 5.17841
283 2 8.16153 118.697 5.29552
284 2 11.9308 118.926 5.35363
285 2 15.7621 122.625 5.18176
286 2 3.95788 122.825 5.17519
287 2 8.10554 122.694 5.21196
288 2 12.0191 122.77 5.10483
289 2 -0.0343405 126.617 5.21246
290 2 4.01797 126.548 5.12243
291 2 8.19604 126.667 5.13746
292 2 11.91 126.701 5.07658
293 2 0.0974528 130.452 5.00142
294 2 4.0647 130.472 5.0895
295 2 7.90263 130.415 5.01022
296 2 11.7991 130.5 5.16214
297 2 15.8168 134.484 4.93617
298 2 3.95873 134.323 5.02164
299 2 7.93315 134.26 4.97646
300 2 11.8796 134.513 5.14699
301 2 0.0446928 138.161 4.95499
302 2 3.99919 138.371 5.06851
303 2 7.89296 138.44 4.90077
304 2 11.7095 138.305 5.03223
305 2 0.0489591 142.304 4.99836
306 2 3.9196 142.243 4.98
307 2 7.90162 142.358 4.86854
308 2 11.9851 142.239 4.74737
309 2 15.8919 146.19 4.86915
310 2 3.97992 146.149 4.77819
311 2 8.17731 146.213 4.89235
312 2 12.0612 146.18 4.91521
313 2 15.8774 150.118 4.74387
314 2 3.93861 149.986 4.89162
315 2 7.84037 150.073 4.71637
316 2 11.9264 150.24 4.82485
317 2 15.9258 154.06 4.69552
318 2 3.84395 154.145 4.80693
319 2 7.9617 154.026 4.90158
320 2 11.9691 153.961 4.59439
321 2 15.793 158.073 8.69603
322 2 4.05452 158.112 8.84527
323 2 8.02454 157.925 8.65939
324 2 11.9005 158.079 8.83354
325 2 15.943 3.68809 8.61092
326 2 3.89364 3.71317 8.71187
327 2 7.89389 3.80986 8.57483
328 2 11.8364 3.69017 8.68856
329 2 15.9007 7.64807 8.49591
330 2 4.04588 7.42378 8.60095
331 2 7.97557 7.62563 8.62656
332 2 11.7296 7.38137 8.54051
333 2 0.00904033 11.4431 8.43241
334 2 4.12329 11.4793 8.58189
335 2 7.86091 11.3223 8.65518
336 2 11.8661 11.481 8.53032
337 2 15.7988 15.2797 8.52039
338 2 4.11243 15.3124 8.54611
339 2 7.993 15.3708 8.64832
340 2 11.8607 15.2049 8.43641
341 2 0.098692 19.2432 8.35614
342 2 4.05927 19.1583 8.45491
343 2 8.08584 19.2123 8.51284
344 2 11.7899 19.2767 8.4366
345 2 0.0428591 23.2068 8.43235
346 2 4.07924 23.1624 8.49287
347 2 8.01169 23.0634 8.51394
348 2 11.9677 23.2549 8.54872
349 2 0.0870008 27.0041 8.13833
350 2 4.02665 27.122 8.37877
351 2 8.15654 27.2147 8.14614
352 2 12.1631 27.14 8.32492
353 2 0.173564 31.0555 8.37612
354 2 3.92825 31.0231 8.27689
355 2 7.97896 30.9992 8.19834
356 2 11.8276 30.9675 8.31049
357 2 15.7612 35.0184 8.24044
358 2 4.03462 35.1289 8.33524
359 2 7.91984 34.914 8.31464
360 2 11.8587 35.0274 8.26836
361 2 -0.0246473 38.9153 8.4582
362 2 3.85938 38.9154 8.40794
363 2 7.8964 39.0545 8.42307
364 2 11.7728 38.9302 8.22241
365 2 0.00324871 43.0068 8.53412
366 2 4.01565 42.8831 8.27774
367 2 7.83475 42.9963 8.30438
368 2 11.8787 43.0972 8.43685
369 2 -0.146739 47.0626 8.51464
370 2 3.79196 46.941 8.4239
371 2 7.71457 46.965 8.75733
372 2 11.7628 47.0394 8.60337
373 2 15.877 51.1615 8.58302
374 2 3.82762 51.1273 8.57613
375 2 7.82108 51.0114 8.68396
376 2 11.8954 51.0476 8.55856
377 2 15.7899 55.1849 8.72612
378 2 3.85838 55.1679 8.73809
379 2 8.02037 55.2319 8.53431
380 2 11.7529 55.1638 8.60012
381 2 0.0364348 59.1647 8.85479
382 2 4.00867 58.996 8.72296
383 2 7.81831 59.0786 8.877
384 2 11.8356 59.1393 8.67306
385 2 0.0294919 63.1815 8.75367
386 2 3.99479 63.1891 8.7761
387 2 8.04089 63.1012 8.73122
388 2 11.7939 63.1383 8.80847
389 2 16.0172 67.4228 8.9699
390 2 4.01213 67.2762 8.96877
391 2 7.97482 67.2973 8.97208
392 2 11.9059 67.2077 8.83411
393 2 15.8704 71.2187 8.86225
394 2 3.92804 71.2316 8.9351
395 2 8.14087 71.2429 9.10457
396 2 11.9238 71.2175 8.78243
397 2 15.9389 75.3299 9.05074
398 2 4.03987 75.3678 8.94172
399 2 7.93685 75.3762 8.99611
400 2 11.9782 75.4028 9.01432
401 2 15.9125 79.3617 8.99317
402 2 4.04941 79.1884 9.10328
403 2 8.00041 79.1733 9.09245
404 2 11.8116 79.308 8.92808
405 2 0.00125943 83.3549 9.27045
406 2 3.98942 83.2959 9.05351
407 2 7.84819 83.2571 8.98949
408 2 12.0716 83.4778 9.20078
409 2 0.212752 87.461 9.19294
410 2 4.10738 87.32 9.27334
411 2 7.87148 87.3197 9.3147
412 2 12.0581 87.329 9.41802
413 2 0.127254 91.5074 9.46745
414 2 4.25452 91.2747 9.32537
415 2 8.22101 91.3768 9.32733
416 2 12.0394 91.2667 9.36035
417 2 15.9122 95.3174 9.4356
418 2 4.18989 95.2781 9.36484
419 2 8.08931 95.3846 9.40101
420 2 12.08 95.3793 9.33144
421 2 15.9781 99.3004 9.43415
422 2 4.08416 99.1622 9.39736
423 2 8.0141 99.4679 9.24827
424 2 11.8558 99.3124 9.46855
425 2 0.0499584 103.105 9.51629
426 2 3.94062 103.396 9.16132
427 2 7.73913 103.194 9.40335
428 2 12.1118 103.173 9.39245
429 2 0.162267 107.193 9.25192
430 2 4.08918 107.24 9.39043
431 2 8.15673 107.219 9.30482
432 2 12.0366 106.984 9.32663
433 2 15.9293 111.159 9.28118
434 2 4.08842 110.888 9.47033
435 2 7.9133 111.036 9.32234
436 2 11.8386 110.915 9.25182
437 2 -0.0915729 114.876 9.24994
438 2 3.96059 114.966 9.23477
439 2 7.9735 114.807 9.37992
440 2 11.8467 114.953 9.1903
441 2 0.200988 118.921 9.11343
442 2 4.0263 118.999 9.36392
443 2 8.08009 118.928 9.36172
444 2 12.1655 118.812 9.16886
445 2 15.6743 122.874 9.17349
446 2 3.90332 122.737 9.12896
447 2 7.97958 122.697 9.13494
448 2 11.7945 122.882 9.15588
449 2 15.8115 126.534 9.28724
450 2 3.85492 126.635 9.19212
451 2 8.1136 126.75 9.08823
452 2 11.8216 126.77 9.15433
453 2 -0.00118446 130.514 9.15552
454 2 3.86917 130.693 8.88058
455 2 7.8829 130.716 9.16795
456 2 12.0341 130.707 9.10687
457 2 -0.0981427 134.567 9.02812
458 2 4.16298 134.577 9.17599
459 2 8.06802 134.403 9.09499
460 2 11.7864 134.662 9.06821
461 2 -0.041118 138.487 8.97888
462 2 4.0687 138.482 9.09649
463 2 8.02433 138.611 9.08241
464 2 12.0633 138.572 8.87095
465 2 0.0287424 142.393 9.02716
466 2 3.81701 142.284 9.03761
467 2 7.89501 142.542 8.97902
468 2 11.8047 142.397 8.92527
469 2 15.883 146.364 8.98115
470 2 3.89868 146.364 8.86692
471 2 8.0434 146.294 8.81675
472 2 11.984 146.24 8.83228
473 2 15.9602 150.194 9.06385
474 2 3.95635 150.323 8.81982
475 2 8.10126 150.299 8.95051
476 2 11.8703 150.128 8.82119
477 2 16.0138 154.101 8.76315
478 2 4.08493 153.998 8.79817
479 2 7.98116 154.063 8.86144
480 2 12.1326 154.117 8.79251
481 2 15.8112 157.956 12.7638
482 2 3.95373 158.072 12.9744
483 2 7.96474 157.994 12.7562
484 2 11.8734 158.022 12.7449
485 2 15.9765 3.67097 12.5552
486 2 3.96942 3.64838 12.762
487 2 8.09423 3.64509 12.67
488 2 12.0491 3.65985 12.7978
489 2 15.8613 7.77912 12.6229
490 2 3.97591 7.48258 12.7466
491 2 7.77921 7.59272 12.7245
492 2 11.846 7.55804 12.7394
493 2 0.0716778 11.4864 12.685
494 2 3.85529 11.5827 12.6008
495 2 7.84434 11.4589 12.4369
496 2 11.872 11.4095 12.6027
497 2 0.202655 15.3267 12.5541
498 2 3.98733 15.2737 12.4903
499 2 7.91289 15.4619 12.5854
500 2 11.9062 15.3824 12.4747
501 2 0.0192255 19.3863 12.4407
502 2 3.79855 19.2167 12.5891
503 2 7.75878 19.2262 12.3792
504 2 11.956 19.3869 12.4615
505 2 0.0960891 23.1045 12.3125
506 2 3.96484 23.2126 12.2846
507 2 8.02581 23.3046 12.3982
508 2 11.8996 23.504 12.5302
509 2 0.0977796 26.8942 12.4402
510 2 3.99467 27.2154 12.3888
511 2 7.83577 27.0556 12.212
512 2 11.8803 27.0788 12.2781
513 2 0.0908488 30.839 12.341
514 2 4.07427 30.8402 12.2011
515 2 8.02456 30.9338 12.1819
516 2 11.9038 31.0667 12.2785
517 2 0.146331 35.0715 12.4716
518 2 4.13521 35.0668 12.3805
519 2 8.00497 34.9325 12.1697
520 2 11.933 34.8555 12.1442
521 2 -0.00306808 38.9254 12.3664
522 2 4.03008 38.9479 12.5298
523 2 8.04542 39.0412 12.4666
524 2 11.8503 38.8611 12.1604
525 2 -0.156201 42.8723 12.4398
526 2 3.78 42.8089 12.2377
527 2 7.93158 42.8637 12.2701
528 2 11.8147 42.8682 12.3783
529 2 0.023982 46.897 12.4039
530 2 3.70307 46.9191 12.3829
531 2 7.64055 46.9529 12.4112
532 2 11.7523 47.114 12.5915
533 2 -0.199235 51.0942 12.5009
534 2 3.85481 50.906 12.4235
535 2 7.76222 51.1348 12.5734
536 2 11.7375 50.857 12.4207
537 2 15.8255 54.9412 12.5466
538 2 4.02642 55.1209 12.6279
539 2 7.98461 55.0239 12.6721
540 2 11.7445 54.9952 12.5987
541 2 15.6846 59.1342 12.5837
542 2 3.96345 58.8962 12.6144
543 2 8.08461 59.0136 12.6009
544 2 11.9604 58.9375 12.5
545 2 15.7843 62.9699 12.7015
546 2 3.88952 62.9643 12.6045
547 2 7.86141 62.97 12.8305
548 2 11.7885 63.0778 12.6792
549 2 -0.0310599 67.0379 12.7015
550 2 3.99205 67.0041 12.8448
551 2 7.96498 67.0308 12.8817
552 2 11.9529 67.0027 12.6547
553 2 0.0260911 71.3253 12.8083
554 2 4.02061 71.4228 12.742
555 2 8.04141 71.3302 12.7692
556 2 11.8933 71.2847 12.801
557 2 0.0191199 75.2772 12.7533
558 2 3.90466 75.4544 12.9102
559 2 7.83815 75.3015 12.9715
560 2 11.8886 75.2608 13.0851
561 2 -0.0734724 79.0849 12.8889
562 2 3.87104 79.3748 13.1439
563 2 8.09057 79.411 12.9
564 2 11.6877 79.2768 13.1959
565 2 0.188244 83.4156 12.9547
566 2 3.99847 83.2062 13.2019
567 2 8.04317 83.3431 13.0006
568 2 11.8924 83.3205 13.1077
569 2 0.235061 87.5466 13.2901
570 2 3.82832 87.2926 13.1169
571 2 7.84368 87.261 13.1848
572 2 12.0341 87.2487 13.0997
573 2 -0.0678734 91.3851 13.4382
574 2 4.15548 91.4948 13.388
575 2 8.06766 91.2715 13.112
576 2 11.8399 91.3501 13.3069
577 2 0.035251 95.1417 13.3574
578 2 4.00335 95.422 13.2757
579 2 7.88147 95.4343 13.2362
580 2 11.8487 95.4303 13.46
581 2 0.0929925 99.2895 13.5129
582 2 3.83933 99.3511 13.3299
583 2 8.01182 99.3825 13.3691
584 2 11.9563 99.111 13.3942
585 2 -0.0555238 103.187 13.3992
586 2 3.82393 103.299 13.3403
587 2 7.85146 103.238 13.2932
588 2 11.7881 103.303 13.4378
589 2 -0.00937057 107.192 13.3702
590 2 3.97677 107.321 13.5481
591 2 7.8065 107.122 13.3122
592 2 11.9892 107.277 13.4291
593 2 0.0186173 111.143 13.3655
594 2 4.1744 111.088 13.1971
595 2 8.06266 111.232 13.3145
596 2 11.9244 111.001 13.2357
597 2 -0.0891512 115.026 13.2245
598 2 4.09321 115.06 13.3314
599 2 7.7996 115.194 13.3026
600 2 11.9955 115.068 13.4628
601 2 0.130292 118.935 13.1549
602 2 4.04637 118.874 13.2487
603 2 7.95711 118.786 13.0362
604 2 12.0867 118.952 13.278
605 2 -0.0109945 122.885 13.3171
606 2 3.81873 122.755 13.3152
607 2 8.01753 122.812 13.1518
608 2 11.9812 122.665 13.3015
609 2 -0.139014 126.829 13.2541
610 2 4.10105 126.691 13.1037
611 2 8.05507 126.653 13.0661
612 2 11.9266 126.703 13.2577
613 2 15.8904 130.74 13.1125
614 2 3.92582 130.808 13.2135
615 2 7.87414 130.772 13.2887
616 2 11.9205 130.688 12.9172
617 2 15.977 134.6 13.0034
618 2 3.88425 134.717 12.9369
619 2 7.82634 134.809 13.1155
620 2 11.9764 134.698 13.0829
621 2 -0.00148192 138.418 13.0131
622 2 4.00825 138.47 12.9832
623 2 7.95447 138.505 13.0752
624 2 11.9112 138.597 12.9578
625 2 16.0136 142.404 12.9396
626 2 3.90218 142.332 12.9067
627 2 7.9257 142.43 12.9495
628 2 11.9588 142.314 12.9847
629 2 0.0626987 146.345 12.8316
630 2 3.98835 146.439 13.1111
631 2 7.78024 146.275 12.8842
632 2 11.9213 146.379 13.055
633 2 -0.0359059 150.232 12.8578
634 2 3.86477 150.221 12.9064
635 2 7.84344 150.174 12.9249
636 2 11.833 150.138 12.9391
637 2 15.9366 154.266 12.8817
638 2 4.18844 154.232 12.7087
639 2 7.95935 154.093 12.9128
640 2 12.2144 154.072 12.8963
641 2 0.0729769 158.104 16.8784
642 2 4.04994 -0.251231 16.6818
643 2 7.85275 158.268 16.8312
644 2 11.7368 158.07 16.9471
645 2 15.7256 3.63682 16.6629
646 2 3.89432 3.75822 16.7156
647 2 7.98577 3.78994 16.7283
648 2 12.007 3.74846 16.8504
649 2 -0.161701 7.79146 16.6637
650 2 3.87914 7.52439 16.6945
651 2 7.87247 7.67247 16.7874
652 2 11.7801 7.65429 16.7769
653 2 -0.0837062 11.5696 16.5774
654 2 3.85179 11.5446 16.6191
655 2 7.71091 11.6311 16.6147
656 2 11.8651 11.5444 16.6549
657 2 0.0606063 15.5593 16.5092
658 2 3.8763 15.5091 16.521
659 2 7.96204 15.5304 16.5402
660 2 11.775 15.4883 16.5094
661 2 15.7221 19.4603 16.399
662 2 3.83739 19.5399 16.4821
663 2 7.79986 19.3639 16.3217
664 2 11.8744 19.4235 16.5263
665 2 0.0324216 23.2063 16.5548
666 2 4.0464 23.3167 16.3938
667 2 7.85127 23.099 16.4181
668 2 11.7309 23.2597 16.3743
669 2 0.0294475 27.0506 16.4053
670 2 4.02136 27.0823 16.4976
671 2 7.78262 27.1522 16.4536
672 2 12.0352 27.2511 16.3631
673 2 -0.222866 31.1176 16.3497
674 2 3.87158 31.033 16.358
675 2 7.76304 31.1285 16.2143
676 2 11.7592 31.1245 16.2984
677 2 -0.138271 35.0079 16.248
678 2 3.95802 34.8686 16.1207
679 2 7.70658 35.1005 16.3293
680 2 11.8677 34.9136 16.244
681 2 0.105448 38.9977 16.3677
682 2 3.95101 38.7923 16.266
683 2 7.93601 38.8302 16.3718
684 2 11.9774 38.8323 16.2495
685 2 0.0708449 42.994 16.3255
686 2 3.99625 42.9255 16.1883
687 2 8.02633 42.9542 16.4541
688 2 11.9427 42.7908 16.3618
689 2 15.7834 46.9886 16.4082
690 2 3.75603 46.8667 16.3876
691 2 7.81528 46.9169 16.181
692 2 11.7863 46.8361 16.2335
693 2 -0.259516 50.9 16.3265
694 2 3.84242 51.0241 16.3991
695 2 7.76675 50.9746 16.4096
696 2 11.8844 50.9689 16.3765
697 2 -0.093018 54.8198 16.6065
698 2 3.73129 55.2206 16.3648
699 2 7.76099 55.0315 16.5133
700 2 11.8084 54.9619 16.4644
701 2 -0.271072 59.0526 16.6067
702 2 3.89998 58.9357 16.2947
703 2 7.90856 58.9823 16.5468
704 2 11.82 59.1266 16.6675
705 2 -0.0644114 63.0143 16.5763
706 2 3.85864 63.0198 16.5648
707 2 7.84503 62.9882 16.5687
708 2 11.7825 63.0476 16.5822
709 2 0.149719 67.0189 16.7353
710 2 4.06159 66.992 16.6191
711 2 8.15008 67.1383 16.6449
712 2 12.0461 67.0568 16.8707
713 2 -0.0844507 71.1554 16.617
714 2 3.99896 71.0748 16.6246
715 2 7.92593 71.0718 16.7288
716 2 11.765 71.0992 16.7535
717 2 -0.104327 75.2313 16.7737
718 2 3.83777 75.0677 16.961
719 2 8.03048 75.2445 16.883
720 2 11.8874 75.1481 16.8655
721 2 0.0896683 79.2671 16.7027
722 2 4.01667 78.991 16.814
723 2 7.80591 79.1863 16.8937
724 2 11.8105 79.0409 16.9759
725 2 0.252056 83.1842 16.9568
726 2 4.12687 83.1502 17.138
727 2 7.82094 83.0653 16.9101
728 2 12.1419 83.1247 16.9576
729 2 0.0571069 87.3026 17.1085
730 2 3.87091 87.4124 17.1264
731 2 7.91765 87.141 17.0156
732 2 11.9282 87.1335 17.1182
733 2 0.141567 91.1795 16.9304
734 2 4.17713 91.1782 17.2832
735 2 7.84712 91.2822 17.1922
736 2 11.7291 91.3685 17.2772
737 2 -0.212108 95.1696 17.241
738 2 4.01505 95.3003 17.4055
739 2 7.98435 95.2253 17.3471
740 2 11.6745 95.2977 17.2282
741 2 -0.12772 99.1431 17.0779
742 2 4.02624 99.2654 17.5996
743 2 8.03288 99.3217 17.3717
744 2 11.8179 99.3955 17.3857
745 2 -0.132641 103.392 17.3136
746 2 3.8643 103.262 17.3691
747 2 8.13227 103.425 17.4229
748 2 11.7939 103.414 17.6326
749 2 -0.077112 107.222 17.3737
750 2 4.11647 107.254 17.3737
751 2 7.84769 107.33 17.3158
752 2 11.7706 107.375 17.3522
753 2 0.048341 111.13 17.349
754 2 3.76076 111.216 17.3913
755 2 7.86651 111.204 17.5709
756 2 11.7372 111.039 17.4068
757 2 0.0946552 115.233 17.0866
758 2 3.94737 115.149 17.4042
759 2 7.93167 115.06 17.3724
760 2 11.7705 114.988 17.4099
761 2 -0.0422531 119.016 17.2362
762 2 3.9734 118.925 17.2966
763 2 7.90664 118.861 17.21
764 2 11.8837 119.096 17.3893
765 2 0.0202379 122.971 17.4495
766 2 3.87765 122.7 17.2624
767 2 7.86533 122.835 17.1958
768 2 12.1207 122.887 17.2878
769 2 16.0071 127.024 17.2005
770 2 4.13303 126.825 17.0539
771 2 7.97137 126.662 17.2656
772 2 11.9881 126.718 17.2282
773 2 15.6919 130.984 16.9288
774 2 4.08575 130.687 17.1472
775 2 8.05533 130.787 17.1504
776 2 11.898 130.754 17.1144
777 2 15.6589 134.711 17.1023
778 2 4.05178 134.641 17.1535
779 2 7.9904 134.661 16.8134
780 2 11.8503 134.405 16.9371
781 2 -0.113174 138.574 17.0819
782 2 3.86252 138.613 17.039
783 2 7.76534 138.631 16.9855
784 2 11.9167 138.501 17.2967
785 2 15.7809 142.621 16.9986
786 2 3.74415 142.359 16.9015
787 2 8.17527 142.481 17.0201
788 2 11.9618 142.396 16.786
789 2 15.8779 146.308 16.9681
790 2 4.08957 146.281 17.0586
791 2 7.91778 146.043 16.9441
792 2 11.8942 146.448 17.0972
793 2 15.7471 150.219 16.9701
794 2 4.05551 150.285 17.0597
795 2 7.96343 150.312 16.8748
796 2 11.9054 150.355 16.9503
797 2 15.9423 154.091 16.788
798 2 4.01404 154.146 16.9395
799 2 7.89842 154.106 16.8419
800 2 11.9223 154.215 16.9549
801 2 15.8175 158.187 20.8846
802 2 3.81507 158.09 20.6683
803 2 7.78161 158.283 20.7408
804 2 11.9526 158.169 20.8122
805 2 -0.03902 3.87215 20.8822
806 2 3.80085 3.92151 20.6163
807 2 7.86769 3.68641 20.8395
808 2 11.8925 3.76611 20.8173
809 2 16.0135 7.86941 20.629
810 2 4.06772 7.70387 20.7887
811 2 7.7826 7.92222 20.5821
812 2 11.7978 7.73109 20.6548
813 2 15.7081 11.7157 20.6694
814 2 3.80501 11.9336 20.6272
815 2 7.84013 11.5854 20.6666
816 2 11.9009 11.7025 20.4318
817 2 15.6974 15.6291 20.5304
818 2 4.03163 15.5804 20.5303
819 2 7.95862 15.6369 20.5617
820 2 11.8191 15.8106 20.5847
821 2 0.0317691 19.4504 20.5524
822 2 3.9714 19.3756 20.494
823 2 7.76152 19.3678 20.577
824 2 11.8513 19.4839 20.509
825 2 -0.11412 23.2783 20.4671
826 2 3.7604 23.4217 20.6012
827 2 7.81615 23.2061 20.4149
828 2 11.714 23.2842 20.4987
829 2 15.8539 27.3738 20.3634
830 2 3.91831 27.2739 20.485
831 2 8.08701 27.3019 20.4593
832 2 11.9692 27.4199 20.6277
833 2 15.8303 31.2204 20.351
834 2 3.8377 31.2155 20.4134
835 2 7.70432 31.2675 20.3153
836 2 11.7074 31.2833 20.3141
837 2 15.9114 34.9835 20.4101
838 2 3.88281 35.3206 20.2867
839 2 7.83898 35.1206 20.384
840 2 11.6215 35.1439 20.3614
841 2 -0.0698559 39.1276 20.3276
842 2 3.84147 38.9554 20.3214
843 2 7.89617 39.3172 20.3319
844 2 12.0454 38.9949 20.3139
845 2 16.0327 42.9273 20.372
846 2 3.85928 42.8889 20.426
847 2 7.84035 42.9771 20.2712
848 2 12.1388 43.0166 20.2494
849 2 15.8392 46.9104 20.1103
850 2 3.88759 46.7455 20.4359
851 2 7.91092 46.916 20.1722
852 2 11.9561 47.0811 20.2463
853 2 -0.0896524 50.8981 20.2848
854 2 3.96417 50.8498 20.2731
855 2 7.75049 50.809 20.1896
856 2 11.6475 50.8925 20.2809
857 2 -0.0732644 54.9156 20.571
858 2 3.86831 54.785 20.4223
859 2 7.9209 54.8962 20.5843
860 2 11.8725 54.8559 20.3076
861 2 15.7417 58.8487 20.4669
862 2 3.86824 58.7597 20.4462
863 2 7.79837 58.9986 20.3855
864 2 11.868 59.007 20.5264
865 2 16.0046 62.6989 20.5254
866 2 3.84102 62.8888 20.3134
867 2 7.82825 63.2088 20.3742
868 2 11.9698 62.8804 20.6027
869 2 -0.00169772 67.0192 20.7184
870 2 3.90759 66.8764 20.6019
871 2 8.04016 66.9933 20.4984
872 2 11.9505 67.2438 20.5922
873 2 0.0392517 71.1817 20.4454
874 2 4.10704 71.0924 20.7099
875 2 7.97991 70.9105 20.707
876 2 11.8344 70.9769 20.6849
877 2 -0.0458791 75.1349 20.777
878 2 4.03457 74.9701 20.8384
879 2 8.01539 75.1704 20.9706
880 2 11.9864 75.2392 20.7929
881 2 0.145136 79.3117 20.7873
882 2 4.0076 78.9828 20.8922
883 2 8.08097 79.2033 20.8971
884 2 11.7785 79.0565 20.6599
885 2 0.0896021 83.1777 21.0425
886 2 4.18549 83.181 21.02
887 2 8.06113 83.0479 20.957
888 2 12.0108 82.9893 20.7991
889 2 -0.0410784 87.184 20.9985
890 2 3.94768 87.0657 21.0942
891 2 7.87039 87.0246 21.1
892 2 11.7973 87.0461 20.8683
893 2 0.0566644 91.0814 20.9761
894 2 3.93204 91.3595 21.2225
895 2 7.91669 91.1979 21.0315
896 2 11.8989 91.0539 21.0927
897 2 0.150993 95.284 21.1505
898 2 3.91333 95.1882 21.2366
899 2 7.9946 95.3057 21.2919
900 2 11.8885 95.1791 21.265
901 2 -0.101682 99.5413 21.1514
902 2 3.84893 99.1353 21.3453
903 2 7.84359 99.0817 21.2241
904 2 11.9328 99.3847 21.3996
905 2 0.0277691 103.398 21.2962
906 2 3.77451 103.199 21.116
907 2 7.78303 103.3 21.4203
908 2 11.7459 103.351 21.3523
909 2 -0.0362153 107.208 21.4203
910 2 3.8444 107.275 21.3527
911 2 7.70671 107.186 21.5102
912 2 11.8019 107.352 21.4471
913 2 -0.181213 111.251 21.3421
914 2 3.64985 111.156 21.3818
915 2 7.67899 111.167 21.3042
916 2 12.0254 111.107 21.5843
917 2 15.7543 115.002 21.4109
918 2 3.76512 115.278 21.4114
919 2 7.72434 115.139 21.5223
920 2 11.8766 115.068 21.4426
921 2 -0.221975 119.063 21.1387
922 2 3.97411 118.968 21.306
923 2 7.87697 118.981 21.2941
924 2 11.8434 118.903 21.3609
925 2 15.8318 122.91 21.2068
926 2 4.24977 122.856 21.3814
927 2 7.93067 122.965 21.3274
928 2 11.8125 122.809 21.215
929 2 16.007 126.904 21.0108
930 2 3.86951 126.575 21.2442
931 2 7.96008 126.828 21.0875
932 2 12.0569 126.66 21.0942
933 2 16.0762 130.706 21.1901
934 2 4.08226 130.565 21.0682
935 2 8.14262 130.831 21.0705
936 2 11.8772 130.643 21.0283
937 2 0.0308096 134.566 21.0009
938 2 4.05611 134.739 21.0635
939 2 8.03905 134.766 21.1631
940 2 12.0609 134.676 21.0133
941 2 15.7353 138.498 21.0154
942 2 3.98104 138.512 20.9333
943 2 8.0763 138.59 21.1022
944 2 11.8865 138.505 21.0658
945 2 15.798 142.525 21.0885
946 2 3.89464 142.52 21.0745
947 2 7.96511 142.658 21.0825
948 2 11.8827 142.413 21.0748
949 2 15.8542 146.388 21.104
950 2 3.97122 146.36 21.0602
951 2 7.90063 146.387 20.7988
952 2 11.8201 146.508 21.1854
953 2 15.8088 150.387 20.9066
954 2 3.94469 150.327 20.951
955 2 7.91025 150.298 20.8156
956 2 11.8373 150.404 21.0517
957 2 15.8258 154.209 20.8555
958 2 4.00759 154.304 20.8613
959 2 7.96852 154.33 20.986
960 2 11.7053 154.27 21.0023
961 2 -0.00595083 158.235 24.9184
962 2 4.0158 158.266 24.8292
963 2 7.82101 158.366 24.8105
964 2 11.8556 158.248 24.9188
965 2 15.9912 3.83347 24.7908
966 2 4.04573 3.86956 24.7817
967 2 7.9126 3.91084 24.8749
968 2 11.6985 3.76958 24.6897
969 2 15.9322 7.79006 24.5967
970 2 3.90061 7.9039 24.5936
971 2 7.85233 7.80071 24.666
972 2 11.8995 7.8249 24.7175
973 2 15.8052 11.533 24.609
974 2 4.03168 11.7771 24.7467
975 2 7.94635 11.5367 24.5225
976 2 11.7977 11.7143 24.4769
977 2 0.0165705 15.6003 24.4597
978 2 3.95897 15.6702 24.6438
979 2 7.90344 15.5076 24.5701
980 2 11.8764 15.557 24.5504
981 2 -0.207482 19.5041 24.4889
982 2 3.8633 19.548 24.5597
983 2 7.58659 19.4664 24.6753
984 2 11.869 19.4773 24.4835
985 2 -0.249221 23.3048 24.6596
986 2 3.83606 23.6179 24.5697
987 2 7.81196 23.5861 24.5879
988 2 11.638 23.3036 24.3681
989 2 -0.256388 27.3359 24.4148
990 2 3.72446 27.3671 24.4818
991 2 7.6713 27.4856 24.5155
992 2 11.7569 27.2986 24.582