ITEM: TIMESTEP
23200
ITEM: NUMBER OF ATOMS
32000
ITEM: BOX BOUNDS xy xz yz pp pp pp
0.0000000000000000e+00 1.5832000000000001e+01 0.0000000000000000e+00
0.0000000000000000e+00 1.5831999999999999e+02 0.0000000000000000e+00
7.8075589735335882e-01 1.6019636210264167e+02 0.0000000000000000e+00
ITEM: ATOMS id type x y z
1 2 0.0511474 157.937 160.036
2 2 3.99918 158.21 159.993
3 2 7.90572 157.932 160.055
4 2 11.9588 157.977 159.936
5 2 -0.125994 3.52338 159.938
6 2 3.94995 3.69721 159.836
7 2 7.99735 3.47074 159.965
8 2 11.9134 3.45029 160.103
9 2 15.7227 7.41896 159.952
10 2 3.98047 7.55428 159.986
11 2 7.9561 7.42573 160.014
12 2 11.878 7.39183 160.096
13 2 0.323126 11.3042 159.854
14 2 4.09048 11.4168 160.125
15 2 7.96104 11.3831 159.947
16 2 11.8629 11.228 160.067
17 2 0.0828954 15.3221 159.968
18 2 4.06759 15.1536 159.925
19 2 8.04741 15.3628 159.824
20 2 11.9059 15.1779 159.843
21 2 0.0840525 19.2648 159.784
22 2 4.13876 19.1956 159.798
23 2 8.11385 19.2027 159.834
24 2 12.015 19.3025 159.847
25 2 -0.0240033 22.9946 159.542
26 2 4.12666 23.1196 159.723
27 2 8.14728 23.1761 159.827
28 2 12.0446 22.9114 159.857
29 2 0.0831713 26.9326 159.729
30 2 4.05987 27.1123 159.761
31 2 7.87089 26.958 159.626
32 2 12.055 27.0072 159.796
33 2 15.7278 31.1401 159.696
34 2 4.01511 31.1172 159.642
35 2 7.89787 31.1625 159.665
36 2 11.8741 30.8591 159.941
37 2 15.8751 35.0423 160.025
38 2 3.85007 35.094 159.69
39 2 7.88496 35.0576 159.741
40 2 11.814 34.9424 159.84
41 2 0.00824165 38.9522 159.963
42 2 3.98655 39.1647 160.155
43 2 8.09291 39.0763 159.888
44 2 12.1285 39.0587 159.711
45 2 15.523 43.1708 159.965
46 2 3.66368 43.156 0.643482
47 2 7.76836 43.1671 159.956
48 2 11.7661 43.2583 160.048
49 2 15.863 47.105 159.946
50 2 3.72421 47.0664 160.078
51 2 7.76552 47.2346 160.094
52 2 11.715 47.1269 160.089
53 2 15.7891 51.2882 0.573421
54 2 3.95831 51.1546 159.993
55 2 8.06303 51.0473 160.147
56 2 11.907 51.1263 0.944164
57 2 15.7048 55.1741 0.770191
58 2 3.96625 55.1943 0.799735
59 2 8.04702 55.1924 0.955502
60 2 11.8526 55.3387 0.941975
61 2 0.194235 59.1817 0.974487
62 2 4.1749 59.1077 0.949519
63 2 8.01263 59.5491 0.848526
64 2 11.9381 59.1675 0.859903
65 2 0.169706 63.3422 1.01655
66 2 4.13592 63.1961 1.0156
67 2 7.84266 63.4505 0.946564
68 2 12.0201 63.3977 0.924777
69 2 15.806 67.4158 1.08331
70 2 4.09763 67.1699 1.21847
71 2 8.07939 67.3383 1.17812
72 2 12.0304 67.3737 1.05514
73 2 0.0886189 71.4184 1.05715
74 2 4.10951 71.3428 1.24141
75 2 7.88275 71.2527 1.18645
76 2 11.7669 71.4182 1.29024
77 2 -0.00149114 75.4062 1.1974
78 2 4.00913 75.4223 1.42541
79 2 7.86667 75.5225 1.0062
80 2 11.8664 75.3465 1.11457
81 2 0.0562869 79.6885 1.33596
82 2 4.06581 79.6135 1.13907
83 2 7.99521 79.5065 1.30214
84 2 11.9656 79.3681 1.35456
85 2 0.0123827 83.4944 1.43621
86 2 3.85993 83.4681 1.43854
87 2 8.00878 83.5264 1.44508
88 2 11.8728 83.5105 1.28033
89 2 0.0469246 87.2276 1.38932
90 2 3.93073 87.3401 1.41163
91 2 8.03888 87.4534 1.36757
92 2 12.017 87.4005 1.57732
93 2 15.8105 91.42 1.31067
94 2 4.02277 91.507 1.46351
95 2 7.93711 91.3232 1.38987
96 2 11.9529 91.3091 1.43373
97 2 15.7787 95.3033 1.34485
98 2 3.87099 95.3296 1.29412
99 2 7.98749 95.2925 1.33731
100 2 11.8101 95.1331 1.47065
101 2 15.8257 99.0959 1.40509
102 2 4.04621 99.1994 1.3574
103 2 7.79027 99.3586 1.20061
104 2 11.8081 99.2669 1.48918
105 2 -0.121855 103.025 1.29999
106 2 3.77797 103.206 1.49071
107 2 7.78866 103.163 1.3292
108 2 11.7662 103.12 1.38228
109 2 15.798 107.212 1.1754
110 2 3.88125 107.273 1.15418
111 2 7.78156 107.127 1.17878
112 2 11.9264 107.178 1.41658
113 2 15.6932 111.153 1.21827
114 2 3.96998 110.905 1.32837
115 2 7.85193 111.148 1.33473
116 2 11.8164 110.938 1.34706
117 2 15.7996 115.035 1.2588
118 2 3.93699 114.799 1.23053
119 2 7.95969 115.143 1.29392
120 2 11.8445 114.996 1.06932
121 2 0.0661451 118.896 1.17612
122 2 3.92192 118.872 1.05998
123 2 8.06467 118.791 1.14842
124 2 11.9416 118.889 1.08524
125 2 0.177771 122.587 1.12522
126 2 4.20295 122.789 1.06159
127 2 8.09792 122.777 0.971794
128 2 11.9971 122.755 1.17359
129 2 0.124175 126.611 1.07954
130 2 3.96211 126.502 0.941067
131 2 7.91516 126.691 1.03917
132 2 12.0155 126.655 1.24932
133 2 -0.0545293 130.517 1.04123
134 2 3.91956 130.624 1.10058
135 2 7.83587 130.542 0.888739
136 2 11.8754 130.411 1.04029
137 2 15.5669 134.572 0.81797
138 2 3.79156 134.572 160.348
139 2 7.811 134.283 1.07226
140 2 11.7651 134.318 0.97965
141 2 15.6397 138.274 1.0868
142 2 3.76235 138.369 0.94971
143 2 7.75614 138.437 1.00648
144 2 11.5888 138.37 0.996788
145 2 0.154495 142.2 0.802658
146 2 3.96266 142.244 0.924019
147 2 7.95615 142.227 0.957616
148 2 11.8837 142.079 0.856847
149 2 0.00261997 146.132 0.779132
150 2 4.09746 146.091 160.187
151 2 7.8794 145.964 0.960649
152 2 11.9037 146.12 160.172
153 2 0.0305762 150.25 160.159
154 2 3.94464 150.01 160.052
155 2 7.96552 149.971 0.81878
156 2 11.6945 150.086 0.943444
157 2 0.0291585 154.057 160.248
158 2 4.13636 154.152 160.21
159 2 7.78267 153.998 160.119
160 2 12.0372 154.008 160.137
161 2 0.103977 157.915 4.65718
162 2 3.89719 -0.0946433 4.51228
163 2 8.00951 157.768 4.7423
164 2 11.7143 157.841 4.66381
165 2 0.0128348 3.60208 4.76316
166 2 3.94915 3.72864 4.59681
167 2 7.96551 3.61662 4.59836
168 2 11.8857 3.25846 4.67689
169 2 0.165404 7.50421 4.59228
170 2 4.08549 7.32933 4.452
171 2 7.91295 7.52325 4.5997
172 2 11.9745 7.45784 4.62932
173 2 0.136674 11.4248 4.41494
174 2 4.02916 11.3166 4.71334
175 2 7.89364 11.5108 4.63563
176 2 12.0095 11.2344 4.39953
177 2 -0.102255 15.2718 4.47758
178 2 4.0186 15.3304 4.45477
179 2 8.08103 15.4039 4.46013
180 2 12.0372 15.3139 4.44539
181 2 0.216211 19.2058 4.3813
182 2 4.04786 19.4167 4.25527
183 2 7.94165 19.283 4.5443
184 2 12.1027 19.1322 4.43282
185 2 0.335083 23.0983 4.39906
186 2 4.18396 23.1284 4.41222
187 2 7.89709 23.2608 4.53773
188 2 11.843 22.9443 4.33494
189 2 0.0453787 27.0683 4.45401
190 2 4.02481 26.9934 4.31335
191 2 8.034 27.1175 4.44764
192 2 12.0599 27.0838 4.44366
193 2 0.182832 30.9946 4.25513
194 2 4.20938 30.8851 4.29108
195 2 7.92951 31.0066 4.18081
196 2 12.0031 31.0092 4.14899
197 2 15.9078 34.8819 4.51425
198 2 4.14423 34.8886 4.25479
199 2 7.93151 35.1922 4.18862
200 2 11.7501 34.9052 4.43138
201 2 -0.198413 39.1305 4.36097
202 2 3.82004 39.0259 4.44607
203 2 7.97267 39.037 4.30851
204 2 11.8346 38.9779 4.45233
205 2 15.7914 43.1535 4.72777
206 2 3.69746 43.0759 4.42288
207 2 7.77121 42.9789 4.43364
208 2 11.6425 43.0989 4.5637
209 2 15.7016 47.1035 4.73776
210 2 3.95409 47.2818 4.54182
211 2 7.80574 46.9833 4.56154
212 2 11.8703 47.037 4.72089
213 2 15.767 51.1325 4.78987
214 2 3.87356 51.0558 4.4187
215 2 7.96394 51.0761 4.61878
216 2 11.9741 51.064 4.75252
217 2 -0.120081 55.166 4.67043
218 2 3.91545 55.1425 4.58436
219 2 7.91997 55.209 4.88887
220 2 11.8228 55.1656 4.77685
221 2 15.9308 59.1158 4.81081
222 2 3.85779 59.2765 4.92083
223 2 7.83448 59.3682 4.74692
224 2 11.9567 59.2619 4.85261
225 2 15.8279 63.3287 4.86119
226 2 3.8573 63.1223 4.8627
227 2 8.171 63.3378 4.8902
228 2 11.7853 63.2357 4.71271
229 2 0.0686927 67.1888 5.13204
230 2 3.9791 67.2735 5.10833
231 2 7.88561 67.257 5.06823
232 2 12.137 67.209 4.88745
233 2 0.10109 71.3979 5.06956
234 2 3.93689 71.5881 5.04017
235 2 8.16689 71.3536 5.11124
236 2 11.9241 71.1829 5.37123
237 2 15.6904 75.3287 5.08409
238 2 3.74569 75.297 5.19033
239 2 7.83302 75.4586 5.02263
240 2 11.8945 75.3959 5.15344
241 2 -0.00958145 79.2996 5.12363
242 2 3.9942 79.3999 5.07332
243 2 8.07277 79.4638 5.11891
244 2 11.8372 79.4637 4.98875
245 2 0.0988731 83.4988 5.40345
246 2 4.08089 83.4924 5.41599
247 2 7.85062 83.414 5.34035
248 2 11.9877 83.4231 5.29409
249 2 0.0441062 87.5237 5.39091
250 2 4.14987 87.5186 5.22828
251 2 7.9562 87.3826 5.28097
252 2 11.8811 87.6649 5.44747
253 2 0.124652 91.4028 5.47627
254 2 3.90882 91.266 5.39686
255 2 7.96019 91.4073 5.38978
256 2 11.9396 91.5447 5.57803
257 2 15.8745 95.2136 5.41343
258 2 4.29621 95.3334 5.28849
259 2 8.01838 95.3537 5.48939
260 2 11.7599 95.422 5.33061
261 2 0.205814 99.2493 5.32531
262 2 3.95215 99.2553 5.49782
263 2 7.79075 99.339 5.27641
264 2 11.8267 99.4225 5.30528
265 2 0.0174102 103.058 5.2914
266 2 3.95166 103.392 5.37936
267 2 7.95091 103.197 5.27075
268 2 11.9887 103.337 5.45731
269 2 -0.0549375 107.148 5.3368
270 2 3.91514 107.272 5.27072
271 2 7.97842 106.896 5.28936
272 2 12.0985 107.165 5.27938
273 2 15.821 111.21 5.23532
274 2 3.77961 111.102 5.46433
275 2 7.84243 110.812 5.21479
276 2 11.8299 111.047 5.26986
277 2 15.7512 114.932 5.27666
278 2 3.94125 114.96 5.33825
279 2 7.92699 114.905 5.27284
280 2 11.9224 114.84 5.34994
281 2 15.8159 118.897 5.14195
282 2 3.96291 118.852 5.24976
283 2 7.78683 118.976 5.20059
284 2 11.9089 118.755 5.15457
285 2 0.114755 122.789 5.14797
286 2 4.08908 122.573 5.18746
287 2 7.89292 122.951 5.01381
288 2 11.7543 122.712 5.2829
289 2 0.14378 126.622 5.11543
290 2 4.00327 126.61 5.18015
291 2 7.61932 126.623 5.04875
292 2 11.9137 126.546 5.2177
293 2 0.121174 130.534 5.14383
294 2 3.9695 130.436 4.95982
295 2 8.02643 130.61 5.05193
296 2 12.0282 130.501 5.07041
297 2 15.7301 134.243 4.97072
298 2 3.90709 134.54 5.01407
299 2 7.72452 134.567 5.05502
300 2 11.7616 134.361 5.03539
301 2 0.150581 138.421 4.87812
302 2 3.96101 138.307 4.97098
303 2 7.81046 138.404 5.03936
304 2 11.9511 138.476 4.88763
305 2 0.0354826 142.266 4.89957
306 2 3.99064 142.292 5.02927
307 2 7.96311 142.278 5.06656
308 2 11.9512 142.401 5.03719
309 2 0.189369 146.235 4.87384
310 2 3.8891 146.099 4.86422
311 2 7.92188 146.127 4.73927
312 2 12.0703 146.324 4.62113
313 2 15.8698 150.206 4.83175
314 2 3.91902 150.328 4.74147
315 2 8.02447 150.136 4.86323
316 2 12.0535 149.973 4.84327
317 2 0.139855 154.198 4.70845
318 2 4.18831 154.076 4.75289
319 2 8.16249 154.033 4.60478
320 2 12.1538 154.027 4.77909
321 2 0.175137 157.929 8.71301
322 2 3.95732 158.109 8.57414
323 2 7.76404 157.942 8.63783
324 2 11.9242 157.99 8.74807
325 2 15.7535 3.54867 8.75317
326 2 4.07743 3.50642 8.68349
327 2 8.00622 3.2718 8.7424
328 2 12.0018 3.49015 8.61139
329 2 0.020664 7.44134 8.81276
330 2 4.08104 7.56153 8.52229
331 2 7.99171 7.27213 8.59786
332 2 11.9457 7.5398 8.62322
333 2 0.121806 11.2958 8.6127
334 2 3.91799 11.3431 8.55927
335 2 7.93704 11.5748 8.44096
336 2 11.7648 11.3822 8.49666
337 2 0.0809088 15.293 8.45368
338 2 3.93681 15.1381 8.46719
339 2 8.00097 15.3182 8.28281
340 2 12.0945 15.5373 8.46034
341 2 0.185587 19.1338 8.5119
342 2 4.00634 19.1455 8.47746
343 2 7.85464 19.0906 8.28676
344 2 12.07 19.3125 8.41101
345 2 0.148205 23.1005 8.39921
346 2 4.03791 23.0937 8.40121
347 2 7.87973 23.231 8.3771
348 2 12.015 23.1528 8.29213
349 2 15.765 27.0016 8.19635
350 2 3.97947 27.0556 8.35346
351 2 8.05311 26.8941 8.37494
352 2 11.8798 27.0075 8.22938
353 2 0.137536 31.2416 8.21077
354 2 4.23048 31.024 8.28873
355 2 8.01728 30.9489 8.38307
356 2 12.0717 31.1516 8.00156
357 2 15.9463 35.1135 8.44031
358 2 3.98616 34.9361 8.33902
359 2 7.94564 34.9895 8.17735
360 2 11.8446 34.8571 8.38041
361 2 15.814 38.9339 8.24796
362 2 4.09802 38.8743 8.39787
363 2 7.79791 38.9293 8.29221
364 2 11.9754 39.0086 8.46955
365 2 15.6661 42.8967 8.5393
366 2 3.8173 43.0404 8.42575
367 2 7.88211 42.8985 8.52588
368 2 11.8423 42.9157 8.64666
369 2 15.7578 46.9024 8.49219
370 2 3.94718 47.1314 8.61184
371 2 7.85026 47.0075 8.46643
372 2 11.6931 46.947 8.56334
373 2 -0.0080364 51.0043 8.6308
374 2 4.09233 51.0343 8.56358
375 2 7.91388 51.1548 8.61284
376 2 11.8383 51.0114 8.53383
377 2 0.095544 55.0025 8.61167
378 2 4.16426 55.1177 8.65348
379 2 7.78605 55.0409 8.82237
380 2 11.8726 55.0917 8.61579
381 2 15.7118 59.4182 8.57239
382 2 3.85283 59.2713 8.79647
383 2 8.01566 59.2965 8.52054
384 2 11.9333 59.0821 8.77981
385 2 15.7246 63.2458 8.87744
386 2 4.10091 62.9491 8.88498
387 2 7.90625 63.12 8.87042
388 2 11.8921 63.1717 8.73178
389 2 0.101288 67.0397 8.97452
390 2 4.06208 67.0106 8.98856
391 2 7.84375 67.069 8.79283
392 2 11.908 67.2087 8.88049
393 2 15.7744 71.3082 9.10087
394 2 4.02735 71.4022 9.15481
395 2 7.70005 71.317 8.84851
396 2 11.8176 71.2853 9.20078
397 2 0.00613219 75.2944 8.85803
398 2 4.04387 75.1793 9.01957
399 2 7.93952 75.2248 8.94906
400 2 11.9779 75.236 8.95337
401 2 15.7786 79.2743 8.96028
402 2 3.99363 79.5204 8.98472
403 2 7.82635 79.4209 9.02877
404 2 11.8895 79.3674 9.07984
405 2 15.7974 83.3682 9.11137
406 2 3.89804 83.4459 9.11568
407 2 8.1497 83.3193 9.25287
408 2 11.9896 83.405 9.32023
409 2 0.0835554 87.5785 9.57811
410 2 3.95593 87.612 9.40485
411 2 8.05299 87.4735 9.43206
412 2 12.0066 87.4449 9.05085
413 2 0.105517 91.344 9.32516
414 2 4.08155 91.6176 9.25092
415 2 8.07918 91.5577 9.24734
416 2 11.9293 91.4862 9.43261
417 2 0.108348 95.4107 9.44203
418 2 3.96193 95.3647 9.49792
419 2 7.95622 95.3846 9.3786
420 2 11.9076 95.4125 9.37931
421 2 0.126385 99.3418 9.26177
422 2 3.98463 99.4549 9.44883
423 2 7.93845 99.177 9.47126
424 2 12.0635 99.3322 9.34241
425 2 0.109089 103.295 9.21534
426 2 4.03125 103.204 9.46462
427 2 8.01551 103.356 9.29807
428 2 11.7121 103.231 9.32319
429 2 -0.0409665 107.042 9.41751
430 2 3.92661 107.057 9.36609
431 2 7.87521 107.265 9.43241
432 2 12.0081 107.237 9.22697
433 2 0.0539615 111.143 9.50216
434 2 3.87201 111.108 9.2577
435 2 7.84863 111.117 9.29565
436 2 11.9549 111.023 9.26963
437 2 15.8436 115.168 9.38197
438 2 3.93396 114.994 9.35817
439 2 8.0272 115.085 9.23528
440 2 11.8994 114.893 9.37849
441 2 0.0458543 118.933 9.24577
442 2 3.90175 118.758 9.11682
443 2 7.75318 118.813 9.09207
444 2 11.717 118.995 9.40155
445 2 15.8882 122.785 9.27733
446 2 3.92814 122.753 9.23096
447 2 7.80552 122.785 9.32659
448 2 11.8533 122.781 9.26796
449 2 0.0424662 126.737 9.12954
450 2 4.00661 126.633 9.23549
451 2 7.65161 126.74 9.34011
452 2 11.9153 126.675 9.26967
453 2 15.8315 130.523 9.06222
454 2 3.94155 130.703 9.24583
455 2 7.89573 130.562 9.09652
456 2 11.7286 130.633 9.15724
457 2 15.8058 134.444 8.97659
458 2 3.76352 134.57 8.91898
459 2 7.81759 134.867 9.00453
460 2 11.9016 134.531 8.97229
461 2 0.179597 138.367 8.9423
462 2 3.85195 138.423 8.96638
463 2 8.08856 138.65 8.85135
464 2 12.008 138.361 9.03297
465 2 0.0485317 142.382 8.99881
466 2 4.2151 142.493 9.00988
467 2 8.06536 142.364 8.94306
468 2 12.1104 142.206 8.93779
469 2 15.7723 146.204 8.91386
470 2 4.18621 146.416 8.77378
471 2 7.95159 146.352 8.72962
472 2 11.8145 146.142 8.79435
473 2 0.0765939 150.173 8.57214
474 2 4.31483 150.148 8.71032
475 2 7.99615 150.158 8.54485
476 2 11.9804 150.231 8.96528
477 2 -0.0172663 154.164 8.71415
478 2 3.92494 154.238 8.82652
479 2 7.99354 154.199 8.7793
480 2 11.7495 154.006 8.87392
481 2 15.8094 158.051 12.8701
482 2 3.82299 158.089 12.6079
483 2 8.03458 158.068 12.8172
484 2 11.9973 158.209 12.9179
485 2 -0.0201295 3.78323 12.82
486 2 4.05601 3.59137 12.7163
487 2 7.93346 3.63059 12.7645
488 2 11.9206 3.73616 12.6118
489 2 15.7029 7.49783 12.6326
490 2 3.88335 7.51523 12.599
491 2 7.95382 7.52253 12.6005
492 2 11.7577 7.62941 12.5191
493 2 15.6687 11.5326 12.4411
494 2 4.06618 11.308 12.4341
495 2 7.98946 11.4407 12.6907
496 2 11.7616 11.4642 12.4534
497 2 15.5524 15.3939 12.4278
498 2 3.93931 15.552 12.6088
499 2 8.06193 15.4401 12.4974
500 2 11.9201 15.2982 12.5576
501 2 15.6604 19.2154 12.4047
502 2 3.99129 19.4871 12.2971
503 2 8.15907 19.4036 12.4584
504 2 11.7995 19.3501 12.3884
505 2 15.7149 23.2267 12.4632
506 2 4.03157 23.1909 12.5935
507 2 7.84096 23.2436 12.4152
508 2 11.8381 23.057 12.359
509 2 -0.0184974 27.447 12.1432
510 2 3.79185 26.9271 12.2707
511 2 8.05961 27.2692 12.4272
512 2 11.9468 27.2544 12.4788
513 2 15.8793 31.0983 12.1319
514 2 4.15891 31.1548 12.2926
515 2 7.98446 30.9664 12.2281
516 2 12.175 30.9189 12.2658
517 2 -0.051891 34.8489 12.2303
518 2 3.76845 35.0312 12.3229
519 2 7.82965 34.9524 12.3971
520 2 11.7702 34.9216 12.3405
521 2 0.045447 38.9017 12.2559
522 2 4.01768 39.1404 12.422
523 2 7.96852 38.8404 12.1861
524 2 11.9279 38.8411 12.4158
525 2 0.100243 42.9687 12.3953
526 2 3.92998 43.0407 12.3988
527 2 7.877 42.9271 12.4281
528 2 12.0287 42.9262 12.514
529 2 0.0290359 47.0115 12.4339
530 2 4.01234 47.108 12.5216
531 2 7.90874 46.9049 12.5479
532 2 11.7498 46.7778 12.369
533 2 15.8006 50.9528 12.3515
534 2 3.96814 51.1645 12.5876
535 2 7.94333 50.8384 12.4336
536 2 12.0023 51.0923 12.3657
537 2 -0.0334469 55.1024 12.5458
538 2 3.87308 55.1486 12.7931
539 2 7.78229 54.9758 12.5863
540 2 11.8457 55.0549 12.5747
541 2 15.8769 58.9839 12.7491
542 2 3.97524 59.1507 12.5756
543 2 7.89193 59.0692 12.7075
544 2 11.875 59.0638 12.757
545 2 15.7827 63.1194 12.8943
546 2 3.95698 63.0452 12.8448
547 2 8.04263 63.1537 12.7959
548 2 11.858 63.0776 12.7359
549 2 0.0450149 67.1526 12.849
550 2 3.96004 67.1151 12.6644
551 2 7.94634 67.2162 12.6062
552 2 11.7629 67.2344 12.7727
553 2 0.118262 71.107 12.8919
554 2 4.07107 71.1889 13.0599
555 2 7.92442 71.2003 12.8646
556 2 11.9561 71.2262 12.9187
557 2 0.0835527 75.324 12.8762
558 2 4.11766 75.2627 12.939
559 2 8.31167 75.3468 12.8831
560 2 12.0734 75.2574 12.703
561 2 15.975 79.3386 12.9988
562 2 3.999 79.1449 12.8703
563 2 7.79426 79.0598 13.081
564 2 12.0676 79.2096 12.8915
565 2 -0.0382132 83.2545 13.0638
566 2 4.00052 83.2936 12.8376
567 2 7.91668 83.1268 13.0842
568 2 11.8702 83.1366 13.0448
569 2 15.6753 87.2976 13.2785
570 2 4.23461 87.4113 13.0451
571 2 8.04867 87.2307 13.0165
572 2 11.7212 87.4129 13.3665
573 2 0.272652 91.3506 13.278
574 2 4.22252 91.3656 13.3243
575 2 8.02442 91.4038 13.4695
576 2 12.0028 91.3395 13.4501
577 2 0.115487 95.3197 13.4238
578 2 4.08084 95.3897 13.5713
579 2 7.92221 95.5756 13.4242
580 2 11.9379 95.1554 13.2537
581 2 -0.036595 99.1708 13.2495
582 2 4.09439 99.3544 13.617
583 2 7.81416 99.4503 13.4892
584 2 11.8019 99.495 13.3824
585 2 15.8525 103.298 13.415
586 2 3.90256 103.278 13.3321
587 2 7.91994 103.394 13.4374
588 2 11.9745 103.102 13.353
589 2 15.8168 107.257 13.4018
590 2 4.02038 107.227 13.351
591 2 8.1053 107.21 13.418
592 2 11.8447 107.073 13.0842
593 2 0.0337762 111.08 13.4712
594 2 3.91463 111.17 13.4832
595 2 8.02428 111.024 13.4272
596 2 11.9719 111.136 13.3297
597 2 0.11495 115.053 13.4543
598 2 3.95618 115.01 13.2344
599 2 8.04683 114.83 13.378
600 2 11.7707 114.958 13.0795
601 2 15.6992 118.968 13.4959
602 2 3.72735 119.025 13.2801
603 2 7.9388 118.883 13.3331
604 2 11.8176 118.749 13.2784
605 2 15.8382 122.959 13.3021
606 2 4.08626 122.865 13.2491
607 2 7.89534 122.751 13.2521
608 2 11.8217 122.797 13.1992
609 2 0.249062 126.706 13.1816
610 2 4.02674 126.911 13.1909
611 2 7.84367 126.659 13.2548
612 2 11.7801 126.668 13.1163
613 2 15.7687 130.663 13.2203
614 2 3.94509 130.817 13.004
615 2 7.9382 130.704 12.9577
616 2 11.976 130.67 13.1905
617 2 -0.075712 134.61 13.1959
618 2 3.92077 134.626 13.1033
619 2 8.02948 134.482 12.9929
620 2 11.8474 134.556 12.9913
621 2 0.125037 138.693 13.1215
622 2 3.96816 138.628 13.0812
623 2 7.87198 138.558 12.9783
624 2 11.8391 138.394 12.9651
625 2 15.7264 142.597 13.0579
626 2 4.10158 142.561 12.9736
627 2 7.92278 142.627 12.9016
628 2 11.9564 142.52 12.9493
629 2 15.7278 146.424 12.9588
630 2 3.87075 146.337 12.6819
631 2 7.90924 146.494 12.9838
632 2 11.6981 146.416 12.807
633 2 0.132385 150.21 12.8089
634 2 4.00277 150.249 12.78
635 2 7.89895 150.342 12.8752
636 2 11.8161 150.243 12.7902
637 2 -0.0271686 154.065 12.7905
638 2 3.91829 154.136 12.8227
639 2 7.99204 154.246 12.8622
640 2 11.6833 154.115 12.7498
641 2 -0.029399 157.979 16.7343
642 2 3.90628 158.187 16.9331
643 2 8.00188 158.096 16.7353
644 2 11.975 158.098 16.7246
645 2 15.8305 3.74339 16.8018
646 2 3.90771 3.70105 16.7438
647 2 7.79226 3.75196 16.7137
648 2 11.8278 3.83567 16.724
649 2 15.9118 7.65149 16.5789
650 2 3.97473 7.80127 16.6598
651 2 7.80217 7.60515 16.5657
652 2 11.8472 7.64634 16.6205
653 2 0.159949 11.6071 16.5074
654 2 4.08029 11.5994 16.5272
655 2 7.82348 11.5233 16.578
656 2 11.7622 11.5568 16.486
657 2 -0.0639354 15.3464 16.5556
658 2 3.95161 15.5297 16.5937
659 2 7.63728 15.4083 16.5638
660 2 11.7225 15.3044 16.5318
661 2 15.8086 19.2486 16.6024
662 2 3.81936 19.3324 16.5069
663 2 7.78353 19.3234 16.5698
664 2 11.8045 19.3346 16.4417
665 2 0.0296152 23.4142 16.4481
666 2 3.90949 23.2932 16.5119
667 2 7.76912 23.5106 16.4377
668 2 11.8538 23.128 16.4542
669 2 15.7196 27.2051 16.4626
670 2 3.79699 27.3097 16.2647
671 2 8.01341 27.3158 16.3501
672 2 11.6909 27.2317 16.5336
673 2 16.0099 30.9575 16.2888
674 2 3.96775 31.1721 16.3455
675 2 7.81207 31.3021 16.4086
676 2 11.7189 31.0985 16.3992
677 2 15.8071 34.8605 16.4174
678 2 3.65505 35.0743 16.4244
679 2 8.00611 34.9801 16.2341
680 2 11.8816 34.8604 16.4325
681 2 15.6032 38.9232 16.3458
682 2 4.02451 38.9674 16.3969
683 2 8.07643 39.0676 16.2834
684 2 11.9113 38.7455 16.2753
685 2 -0.0734032 42.9324 16.4539
686 2 3.9067 42.8786 16.2264
687 2 7.87624 42.8059 16.2395
688 2 11.9047 42.8767 16.2784
689 2 15.7325 46.9651 16.4948
690 2 4.13753 47.1185 16.3033
691 2 7.84455 46.8162 16.4547
692 2 11.8331 47.0063 16.367
693 2 15.818 50.9753 16.4721
694 2 3.85372 50.9338 16.4199
695 2 8.00674 50.8463 16.3813
696 2 11.8737 50.9861 16.3029
697 2 15.7901 55.0902 16.3782
698 2 3.85524 55.0314 16.6582
699 2 7.77149 54.9667 16.555
700 2 11.6735 54.9223 16.4547
701 2 15.7551 59.053 16.5701
702 2 3.79318 59.0966 16.7768
703 2 7.90799 59.1545 16.6451
704 2 11.7959 58.7052 16.5876
705 2 15.6226 63.1623 16.7221
706 2 3.91066 63.0209 16.6529
707 2 7.914 63.1245 16.6231
708 2 11.8596 63.0843 16.6277
709 2 0.0181449 67.1935 16.5833
710 2 4.08786 67.1913 16.6012
711 2 7.92299 67.1889 16.5461
712 2 11.8633 67.1683 16.7243
713 2 0.0851127 71.0027 16.6841
714 2 4.02139 71.0929 16.8336
715 2 7.90514 71.0826 16.7413
716 2 11.9616 71.181 16.6636
717 2 15.8878 75.0457 16.8788
718 2 4.2051 75.1592 16.7472
719 2 7.86408 74.993 16.8846
720 2 11.8748 75.1423 16.7841
721 2 0.0350496 79.1537 17.0751
722 2 3.86818 79.3764 17.0469
723 2 7.92373 79.1639 16.8599
724 2 12.0546 79.3276 16.8433
725 2 0.135203 83.3674 16.9873
726 2 3.92042 83.2108 16.9097
727 2 7.96553 83.2686 17.0494
728 2 11.9059 83.2673 16.921
729 2 0.147228 87.2613 17.0324
730 2 4.10649 87.0001 17.0096
731 2 8.01573 87.2376 17.0027
732 2 11.9908 87.1711 17.1484
733 2 0.0893535 91.3405 17.3557
734 2 3.96886 91.3276 17.3274
735 2 7.91437 91.1941 17.2431
736 2 11.8259 91.179 17.1265
737 2 15.9034 95.3911 17.3378
738 2 4.00318 95.2343 17.3495
739 2 8.02988 95.4041 17.3698
740 2 11.9182 95.4912 17.3287
741 2 15.7427 99.4081 17.4306
742 2 3.95675 99.2375 17.265
743 2 7.71993 99.4499 17.4918
744 2 11.8806 99.3408 17.4532
745 2 15.7059 103.432 17.4212
746 2 3.71267 103.311 17.2121
747 2 7.77455 103.244 17.3738
748 2 11.8801 103.172 17.2379
749 2 15.7673 107.388 17.3966
750 2 3.80448 107.187 17.4381
751 2 7.91673 106.993 17.2449
752 2 11.8466 107.068 17.5304
753 2 -0.0831626 111.239 17.4365
754 2 4.0102 111.053 17.277
755 2 7.93153 111.11 17.2971
756 2 11.9375 111.123 17.4127
757 2 15.6736 114.87 17.5399
758 2 3.95147 115.078 17.1918
759 2 7.8927 115.006 17.3557
760 2 11.8737 114.998 17.2379
761 2 -0.00382896 118.794 17.3877
762 2 3.8756 119.015 17.377
763 2 7.99018 118.944 17.293
764 2 11.7611 118.853 17.2355
765 2 0.0480021 122.831 17.1779
766 2 3.94664 123.022 17.3514
767 2 7.82929 122.889 17.2325
768 2 11.6391 122.774 17.2063
769 2 -0.0553546 126.707 17.195
770 2 4.0273 126.866 17.2715
771 2 8.13503 126.936 17.1151
772 2 11.8491 126.826 17.1751
773 2 15.8633 130.614 17.2314
774 2 4.02007 130.773 17.0322
775 2 7.86048 130.588 17.1132
776 2 11.8144 130.674 17.1229
777 2 16.0072 134.724 17.1983
778 2 4.09406 134.666 17.1664
779 2 7.91652 134.66 17.3036
780 2 11.787 134.707 17.2527
781 2 15.8517 138.658 17.112
782 2 3.99525 138.553 17.1649
783 2 7.93143 138.581 17.0175
784 2 11.7286 138.522 16.7269
785 2 15.7639 142.468 17.016
786 2 3.97708 142.588 17.0629
787 2 7.8276 142.343 16.9638
788 2 11.7678 142.372 17.1677
789 2 -0.0322199 146.412 16.91
790 2 3.96068 146.469 16.9794
791 2 7.91499 146.471 16.9429
792 2 11.8777 146.117 16.8654
793 2 15.8752 150.367 16.9386
794 2 3.90473 150.311 16.9125
795 2 8.03716 150.259 16.9715
796 2 11.9449 150.071 16.9369
797 2 0.0409477 154.085 16.9699
798 2 4.0429 154.182 16.9847
799 2 7.94168 154.281 16.96
800 2 11.8197 154.159 16.8742
801 2 15.6387 158.171 20.8303
802 2 3.76461 158.323 20.863
803 2 7.88877 -0.00655412 20.8217
804 2 11.9639 158.099 20.791
805 2 15.7998 3.91063 20.6687
806 2 3.79697 3.79806 20.7303
807 2 7.90369 3.77008 20.7761
808 2 11.7691 3.75046 20.7125
809 2 15.4669 7.75782 20.6912
810 2 3.7065 7.63798 20.7046
811 2 7.94414 7.55462 20.6611
812 2 11.7986 7.65007 20.5373
813 2 0.120251 11.5214 20.5201
814 2 4.01156 11.3868 20.6459
815 2 8.08195 11.7016 20.5261
816 2 11.9009 11.5723 20.675
817 2 15.7925 15.4014 20.6314
818 2 3.83657 15.4705 20.7008
819 2 7.84131 15.6472 20.5866
820 2 11.8944 15.3635 20.4977
821 2 -0.0271289 19.3772 20.4834
822 2 3.92974 19.4349 20.5525
823 2 7.98579 19.7046 20.5584
824 2 11.8792 19.2256 20.4046
825 2 15.7017 23.3306 20.5141
826 2 4.08304 23.4559 20.3258
827 2 7.97062 23.4091 20.6447
828 2 11.8181 23.4347 20.4295
829 2 -0.0828241 27.2767 20.5425
830 2 3.9691 27.2461 20.4879
831 2 7.87139 27.2186 20.4062
832 2 11.8577 27.0962 20.1873
833 2 15.7885 31.1261 20.6404
834 2 3.93838 31.1546 20.3911
835 2 7.79731 30.9859 20.3859
836 2 11.896 31.1668 20.5416
837 2 -0.0186041 35.1894 20.3579
838 2 3.97343 35.029 20.4559
839 2 7.72217 35.1186 20.3048
840 2 11.9392 35.0986 20.3717
841 2 15.842 39.023 20.4576
842 2 3.92265 39.1118 20.3078
843 2 7.81195 39.0491 20.3493
844 2 11.5193 38.8877 20.2211
845 2 0.00748697 42.9594 20.3763
846 2 4.05171 42.8808 20.1712
847 2 8.07232 42.9752 20.3031
848 2 11.8482 42.8845 20.384
849 2 0.0456796 46.7454 20.4732
850 2 4.01737 46.9094 20.1779
851 2 7.75173 46.8124 20.217
852 2 11.5974 46.8175 20.2345
853 2 0.139904 50.7346 20.3768
854 2 4.00979 50.8352 20.4276
855 2 8.0017 50.9717 20.4333
856 2 11.87 50.9028 20.347
857 2 15.7706 54.784 20.2941
858 2 3.93908 54.9623 20.2624
859 2 7.73587 55.0519 20.3215
860 2 11.7915 54.8267 20.4617
861 2 15.7489 58.9651 20.4737
862 2 4.08324 59.0254 20.5025
863 2 7.95432 58.8994 20.57
864 2 11.7637 58.8667 20.4816
865 2 15.6375 63.102 20.5024
866 2 3.9967 63.0119 20.7145
867 2 7.8337 62.8043 20.5676
868 2 11.6365 63.0768 20.5187
869 2 15.7592 66.9007 20.4296
870 2 4.02013 67.0154 20.3902
871 2 7.93193 66.9961 20.4685
872 2 11.7874 66.8001 20.7666
873 2 0.0845326 70.8916 20.6046
874 2 3.81713 70.896 20.5902
875 2 7.95229 71.1646 20.6498
876 2 11.9878 71.1208 20.6183
877 2 15.8462 74.9855 20.5672
878 2 3.90816 75.0904 20.591
879 2 7.95019 75.0397 20.5827
880 2 11.8336 75.0806 20.8928
881 2 0.0901248 78.9712 20.8551
882 2 3.96842 79.15 20.7835
883 2 7.92455 79.1345 20.7258
884 2 12.0009 79.13 20.804
885 2 0.109134 83.1393 20.9596
886 2 3.93277 83.0769 20.9111
887 2 7.92079 83.2098 20.9518
888 2 11.9804 83.1729 20.8293
889 2 15.7342 87.3199 21.0338
890 2 4.05664 87.159 20.9539
891 2 7.99605 87.1584 20.9968
892 2 11.8533 87.11 21.0573
893 2 15.7765 91.2747 20.9861
894 2 4.16145 90.984 21.1265
895 2 7.88137 91.06 21.2055
896 2 11.9118 91.2003 21.1043
897 2 -0.0355234 95.0824 21.1691
898 2 3.87321 95.2752 21.3569
899 2 7.96125 95.0682 21.1595
900 2 11.9705 95.2513 21.1224
901 2 15.8099 99.1595 21.0792
902 2 3.8734 99.3404 21.2269
903 2 7.74191 99.3578 21.3886
904 2 11.7382 99.2982 21.4143
905 2 -0.120599 103.192 21.5256
906 2 3.71934 103.204 21.4179
907 2 7.67146 103.258 21.3422
908 2 11.7845 103.203 21.4521
909 2 15.7065 107.316 21.4835
910 2 3.85751 107.206 21.4656
911 2 7.83736 107.263 21.2803
912 2 11.8216 107.238 21.5071
913 2 15.8461 111.144 21.4869
914 2 4.09241 111.182 21.4074
915 2 7.77509 111.095 21.4259
916 2 11.4637 111.299 21.2842
917 2 0.011531 115.193 21.3583
918 2 4.00711 114.985 21.3061
919 2 7.96013 115.028 21.2381
920 2 11.6907 115.06 21.3814
921 2 15.9263 118.964 21.4601
922 2 3.91801 119.057 21.3928
923 2 7.90099 118.939 21.3098
924 2 11.8726 119.131 21.2673
925 2 15.8709 122.983 21.4321
926 2 3.76146 122.843 21.2333
927 2 7.94658 122.818 21.2439
928 2 11.9119 122.982 21.361
929 2 0.135313 126.825 21.302
930 2 4.13386 126.867 21.0972
931 2 7.97467 126.705 21.3652
932 2 11.8392 126.874 21.3135
933 2 0.0599028 130.93 21.0643
934 2 4.0741 130.844 21.1823
935 2 7.86972 130.72 21.3795
936 2 12.0325 130.707 21.2842
937 2 15.7668 134.843 21.1768
938 2 3.86563 134.552 21.0768
939 2 7.94417 134.653 21.138
940 2 11.7105 134.567 21.167
941 2 0.208782 138.71 21.1288
942 2 4.21842 138.723 21.1328
943 2 7.88311 138.691 21.1397
944 2 11.9689 138.602 21.1137
945 2 15.8612 142.439 21.0503
946 2 4.03716 142.519 21.0415
947 2 7.90036 142.315 21.0435
948 2 11.8933 142.421 21.0076
949 2 15.7603 146.362 21.0533
950 2 3.97342 146.529 20.9391
951 2 7.82161 146.378 21.1714
952 2 11.7845 146.33 20.8676
953 2 15.787 150.166 21.0669
954 2 4.03379 150.251 21.0157
955 2 7.99404 150.264 21.1215
956 2 11.9421 150.138 20.8963
957 2 0.038205 154.253 21.0654
958 2 3.8152 154.248 21.0245
959 2 7.78871 154.279 20.9347
960 2 11.8245 154.204 20.6977
961 2 0.00300216 158.394 24.8778
962 2 3.95524 158.209 24.9624
963 2 7.80413 158.191 24.7364
964 2 11.906 158.188 24.7903
965 2 -0.0969712 3.82896 24.7702
966 2 4.04045 3.78443 24.8032
967 2 7.93445 3.74834 24.7283
968 2 11.8644 4.03002 24.7128
969 2 15.6548 7.62162 24.78
970 2 4.13136 7.80622 24.8855
971 2 7.82304 7.66124 24.7293
972 2 11.8298 7.59238 24.8273
973 2 15.5832 11.7103 24.6896
974 2 3.86935 11.5995 24.622
975 2 7.94629 11.6513 24.5606
976 2 11.6862 11.4942 24.6602
977 2 15.782 15.5397 24.813
978 2 3.87901 15.3283 24.5625
979 2 7.91252 15.428 24.5916
980 2 11.8112 15.5464 24.5812
981 2 0.208749 19.5624 24.6447
982 2 3.85199 19.5978 24.5691
983 2 8.10965 19.565 24.5312
984 2 11.8604 19.5015 24.5795
985 2 15.7678 23.5193 24.3207
986 2 3.81718 23.303 24.4601
987 2 7.82205 23.2443 24.5561
988 2 11.8843 23.5789 24.6724
989 2 15.6996 27.4226 24.4999
990 2 3.85227 27.2381 24.5468
991 2 7.84359 27.2726 24.5254
992 2 11.7352 27.406 24.5189
993 2 15.8161 31.3748 24.5622