ITEM: TIMESTEP
23300
ITEM: NUMBER OF ATOMS
32000
ITEM: BOX BOUNDS xy xz yz pp pp pp
0.0000000000000000e+00 1.5832000000000001e+01 0.0000000000000000e+00
0.0000000000000000e+00 1.5831999999999999e+02 0.0000000000000000e+00
8.0604174273015872e-01 1.6017107625726484e+02 0.0000000000000000e+00
ITEM: ATOMS id type x y z
1 2 0.103098 158.035 159.989
2 2 4.02129 157.898 160.096
3 2 7.96649 158.006 159.957
4 2 11.8618 157.949 160.082
5 2 -0.113206 3.5497 160.078
6 2 3.84876 3.5468 160.184
7 2 7.77562 3.46883 160.108
8 2 11.765 3.52794 159.994
9 2 15.8547 7.48329 160.041
10 2 3.95287 7.37569 160.116
11 2 7.88904 7.46063 160.019
12 2 11.8185 7.39541 160.007
13 2 0.0436041 11.4986 159.879
14 2 4.11365 11.2403 159.848
15 2 8.0031 11.5586 159.903
16 2 12.0366 11.3994 159.909
17 2 -0.00199242 15.3908 159.739
18 2 4.04962 15.2525 159.917
19 2 8.00515 15.3207 160.023
20 2 11.9101 15.3154 159.971
21 2 0.274921 19.0566 159.742
22 2 4.2106 19.1543 159.772
23 2 8.10194 19.3564 159.799
24 2 12.0118 19.0272 159.828
25 2 0.273515 23.0844 159.831
26 2 4.01828 23.1512 159.794
27 2 7.95842 23.2573 159.496
28 2 11.9941 23.1783 159.781
29 2 0.0213494 27.2085 159.672
30 2 4.09984 26.9469 159.713
31 2 7.94441 26.9876 159.695
32 2 11.6961 27.0945 159.747
33 2 15.8939 30.9342 159.882
34 2 3.90905 30.8909 159.817
35 2 7.93774 30.8676 159.738
36 2 11.8616 31.238 159.765
37 2 15.6916 34.9998 159.738
38 2 4.1163 35.1447 159.901
39 2 7.91307 35.2738 159.745
40 2 11.832 35.0697 159.87
41 2 -0.172427 39.1522 159.924
42 2 3.66995 39.0827 159.936
43 2 7.74768 39.0278 159.896
44 2 11.7364 39.1429 160.001
45 2 15.9421 43.1695 160.224
46 2 4.01584 43.123 0.471046
47 2 7.89385 42.9808 159.977
48 2 11.7981 43.0815 159.961
49 2 15.6729 47.1569 160.157
50 2 3.97482 47.1552 160.069
51 2 7.88043 47.0686 160.166
52 2 11.8374 47.2347 160.06
53 2 15.8334 51.1378 0.703038
54 2 3.96829 51.2018 160.134
55 2 7.86693 51.2998 160.083
56 2 11.9163 51.1745 0.663711
57 2 15.828 55.3756 0.919294
58 2 4.05607 55.3147 0.749499
59 2 7.83218 55.3547 0.900189
60 2 11.7249 55.1619 0.742041
61 2 -0.236064 59.2599 0.961645
62 2 3.9349 59.4528 1.03008
63 2 8.09259 59.2597 0.926548
64 2 11.9703 59.4094 0.911353
65 2 0.0296911 63.3239 0.924495
66 2 3.95705 63.3396 1.07528
67 2 7.9823 63.2984 1.0568
68 2 11.8788 63.181 1.04705
69 2 15.9985 67.3612 1.03801
70 2 4.07412 67.4951 0.953354
71 2 8.03332 67.3551 1.10069
72 2 11.8708 67.3392 1.15006
73 2 -0.246427 71.3673 1.39241
74 2 4.03589 71.465 1.15498
75 2 7.89604 71.5321 1.08159
76 2 11.7947 71.2991 1.22653
77 2 -0.144582 75.2651 1.2543
78 2 3.85678 75.4652 1.19549
79 2 7.7783 75.355 1.25551
80 2 11.6828 75.3424 1.27763
81 2 -0.00745714 79.3045 1.28388
82 2 3.94547 79.5999 1.15789
83 2 7.79959 79.4256 1.31074
84 2 11.8362 79.5465 1.0836
85 2 0.0716582 83.5652 1.48301
86 2 4.13133 83.5321 1.58232
87 2 7.81133 83.3637 1.4418
88 2 11.8159 83.4578 1.47196
89 2 -0.0509554 87.5698 1.6326
90 2 4.15615 87.5231 1.44278
91 2 8.08414 87.4946 1.40366
92 2 11.7642 87.6225 1.47936
93 2 15.9015 91.3549 1.68581
94 2 3.89498 91.2164 1.47694
95 2 8.07135 91.5803 1.31532
96 2 11.8333 91.5291 1.45816
97 2 15.8476 95.3424 1.60492
98 2 4.1131 95.2775 1.47924
99 2 7.84036 95.3189 1.48301
100 2 11.8831 95.5339 1.39843
101 2 15.8677 99.1975 1.47051
102 2 3.96692 99.2106 1.38332
103 2 7.92545 99.2469 1.4594
104 2 11.7913 99.2159 1.35008
105 2 -0.154646 103.159 1.38024
106 2 3.7893 103.116 1.14041
107 2 7.78017 103.277 1.15534
108 2 11.9582 103.113 1.33302
109 2 15.7574 107.099 1.20843
110 2 3.895 106.846 1.43733
111 2 8.01485 107.022 1.32927
112 2 11.8601 106.903 1.16044
113 2 15.9031 111.071 1.09371
114 2 3.96028 110.922 1.29201
115 2 7.73885 110.961 1.11726
116 2 11.8408 110.961 1.1853
117 2 15.9248 114.881 1.12323
118 2 3.95216 114.968 1.27494
119 2 7.93855 114.703 1.08927
120 2 12.0089 115.043 1.23178
121 2 -0.022937 118.776 1.15597
122 2 3.90275 118.651 1.31256
123 2 7.82664 118.621 1.18242
124 2 11.8474 118.877 1.235
125 2 -0.170396 122.82 1.21185
126 2 3.94579 122.722 1.1523
127 2 7.97033 122.598 1.21466
128 2 11.7985 122.699 1.13311
129 2 -0.190852 126.629 1.1937
130 2 3.97636 126.748 1.21593
131 2 7.9382 126.653 1.08182
132 2 11.5811 126.561 0.981085
133 2 -0.129366 130.462 1.1234
134 2 3.85149 130.505 1.08431
135 2 7.85413 130.373 1.19686
136 2 11.7262 130.659 1.11877
137 2 15.8466 134.388 1.02313
138 2 4.0057 134.287 160.548
139 2 7.84522 134.553 0.946508
140 2 11.6406 134.537 0.954393
141 2 15.7783 138.435 0.682202
142 2 3.93994 138.194 0.946849
143 2 7.77729 138.262 0.894615
144 2 11.9945 138.333 0.830103
145 2 -0.0682695 142.318 0.944068
146 2 4.01835 142.363 0.874503
147 2 7.88448 142.25 0.819237
148 2 11.7691 142.344 0.960506
149 2 -0.0256248 146.197 0.701332
150 2 3.8854 146.161 160.328
151 2 7.95992 146.291 0.598913
152 2 11.9496 145.949 160.27
153 2 0.0216751 150.03 160.218
154 2 3.968 149.994 160.293
155 2 7.9547 150.054 0.724651
156 2 12.1566 149.956 0.608485
157 2 0.0310243 154.079 160.019
158 2 3.89394 153.942 160.013
159 2 8.15928 153.994 160.073
160 2 12.0412 154.098 160.106
161 2 0.111765 157.998 4.69251
162 2 4.13693 -0.678431 4.75097
163 2 8.02133 158.187 4.61946
164 2 12.1716 157.96 4.51677
165 2 0.0214383 3.58191 4.67304
166 2 3.94239 3.2585 4.71693
167 2 7.86558 3.5717 4.82297
168 2 11.9617 3.7143 4.69351
169 2 -0.028583 7.41934 4.64541
170 2 4.00439 7.52208 4.76286
171 2 8.05221 7.46445 4.68153
172 2 11.8725 7.44815 4.57284
173 2 0.107633 11.3995 4.69753
174 2 4.0326 11.2155 4.29555
175 2 8.18716 11.3163 4.56867
176 2 12.0907 11.2911 4.67343
177 2 0.154693 15.2029 4.51092
178 2 4.09807 15.3081 4.48744
179 2 8.05764 15.3796 4.61122
180 2 11.9172 15.2841 4.6667
181 2 0.192523 19.0946 4.43843
182 2 4.19898 19.0603 4.42256
183 2 7.9969 19.3739 4.41505
184 2 11.969 19.2536 4.41821
185 2 0.16834 23.368 4.23403
186 2 3.93938 23.0151 4.28283
187 2 8.15572 23.3594 4.23929
188 2 12.271 23.1522 4.21232
189 2 0.110225 27.1081 4.41896
190 2 4.00541 27.1821 4.3991
191 2 8.12136 27.1409 4.35522
192 2 11.9847 26.8959 4.18569
193 2 0.112831 30.9907 4.29234
194 2 4.13003 31.2314 4.20814
195 2 8.04902 30.9753 4.37826
196 2 11.9026 30.9123 4.51382
197 2 15.9593 35.1629 4.3404
198 2 4.01894 35.0569 4.47934
199 2 8.1002 35.1822 4.38711
200 2 11.961 34.925 4.30942
201 2 -0.184075 38.936 4.43221
202 2 3.98423 39.0084 4.4985
203 2 7.7901 39.1894 4.37198
204 2 11.7642 39.0084 4.56851
205 2 15.6831 42.965 4.52618
206 2 3.9413 43.0225 4.63048
207 2 7.85592 43.0721 4.65032
208 2 11.7749 43.0393 4.49436
209 2 15.9109 47.0913 4.69171
210 2 3.8878 46.9237 4.61533
211 2 7.80334 47.1054 4.55125
212 2 11.8909 47.0703 4.47652
213 2 15.9307 51.0316 4.60397
214 2 3.97868 51.2755 4.63779
215 2 7.88079 51.1609 4.66178
216 2 11.7804 51.0568 4.58377
217 2 0.057083 55.0206 4.79224
218 2 4.0009 55.2887 4.60195
219 2 7.86401 55.1555 4.81386
220 2 11.9654 55.0709 4.69342
221 2 15.8109 59.1353 4.85244
222 2 4.04418 59.2089 4.90882
223 2 7.99413 59.0651 4.82688
224 2 11.6859 59.1631 4.89711
225 2 15.8419 63.1704 4.81341
226 2 4.04299 63.274 5.0061
227 2 7.90553 63.1539 4.99419
228 2 12.1909 63.3228 5.02293
229 2 0.109802 67.3873 4.94852
230 2 3.98736 67.2091 4.80753
231 2 7.90264 67.4108 5.03222
232 2 11.6867 67.316 5.05134
233 2 -0.0979515 71.1488 5.1566
234 2 3.82586 71.1986 5.04537
235 2 7.71201 71.4264 5.05409
236 2 11.8236 71.3755 4.96553
237 2 15.9228 75.3882 5.19832
238 2 4.07513 75.5998 5.17389
239 2 7.9279 75.514 5.02268
240 2 11.9353 75.291 5.14138
241 2 -0.103169 79.4727 5.13139
242 2 3.84179 79.386 5.26291
243 2 7.91066 79.3851 5.25096
244 2 12.055 79.3016 5.28712
245 2 0.183176 83.5769 5.31106
246 2 4.01823 83.5948 5.53202
247 2 8.06011 83.4679 5.50948
248 2 11.8492 83.3599 5.12052
249 2 -0.0830016 87.4856 5.67299
250 2 4.07326 87.4831 5.42449
251 2 7.96442 87.5071 5.54976
252 2 11.9208 87.351 5.33534
253 2 -0.0545629 91.4598 5.5075
254 2 4.06145 91.3409 5.31222
255 2 7.89482 91.4668 5.50763
256 2 11.8838 91.4897 5.45042
257 2 15.982 95.3714 5.43661
258 2 3.86355 95.2709 5.44224
259 2 7.84464 95.327 5.3587
260 2 11.9214 95.4657 5.56652
261 2 -0.00494976 99.2128 5.51188
262 2 4.23826 99.4195 5.28355
263 2 8.09809 99.2908 5.47976
264 2 11.9277 99.3515 5.50946
265 2 -0.00781148 103.236 5.51497
266 2 3.84084 103.144 5.13316
267 2 7.79599 103.313 5.46175
268 2 11.7201 103.326 5.03837
269 2 0.0763412 107.026 5.41258
270 2 3.89807 107.074 5.28922
271 2 7.84292 107.232 5.48582
272 2 11.805 107.365 5.1572
273 2 15.7924 111.123 5.24693
274 2 4.09742 111.053 5.14788
275 2 8.00634 111.077 5.27714
276 2 11.7311 111.064 5.36529
277 2 15.808 115.109 5.16548
278 2 3.97828 114.959 5.27931
279 2 8.05988 114.919 5.14943
280 2 11.9178 114.925 5.24624
281 2 15.8191 118.949 5.33911
282 2 3.87001 118.929 5.25874
283 2 7.80834 118.871 5.07004
284 2 11.7558 118.962 5.2897
285 2 -0.0731957 122.859 5.21097
286 2 3.87975 122.908 5.06987
287 2 7.83011 122.691 5.27648
288 2 11.928 122.799 5.22112
289 2 -0.0386048 126.672 5.18437
290 2 3.8616 126.735 5.0596
291 2 7.94651 126.794 5.20035
292 2 11.8451 126.694 5.139
293 2 -0.191797 130.53 5.04571
294 2 3.91711 130.777 5.22238
295 2 7.75869 130.625 5.2214
296 2 11.7417 130.505 5.11191
297 2 15.8153 134.626 5.057
298 2 3.89271 134.412 5.03464
299 2 8.03866 134.542 5.13345
300 2 11.8531 134.475 4.86202
301 2 -0.170298 138.447 5.07677
302 2 3.77945 138.564 4.84971
303 2 8.10562 138.407 4.9809
304 2 12.04 138.25 4.92806
305 2 0.0747869 142.405 4.93888
306 2 4.02083 142.34 4.79645
307 2 7.96716 142.247 4.90661
308 2 11.9503 142.293 4.89043
309 2 -0.0379515 146.31 4.80113
310 2 4.09577 146.508 4.87043
311 2 7.89076 146.244 4.96832
312 2 11.9671 146.118 4.99293
313 2 16.0666 150.151 4.74388
314 2 4.17056 150.162 4.74443
315 2 8.1948 150.171 4.64856
316 2 11.8522 150.184 4.63676
317 2 0.0902111 153.97 4.82008
318 2 4.13028 154.026 4.5068
319 2 7.93673 154.062 4.69949
320 2 11.8003 154.104 4.72311
321 2 -0.107398 158.029 8.75171
322 2 3.92876 157.845 8.77038
323 2 8.0066 158.075 8.82106
324 2 11.9409 157.841 8.65929
325 2 16.0035 3.51993 8.65605
326 2 4.06507 3.58611 8.63486
327 2 8.0495 3.69462 8.64508
328 2 11.8904 3.44223 8.71453
329 2 0.0139915 7.32836 8.43569
330 2 3.93321 7.45301 8.75546
331 2 7.96344 7.51151 8.55811
332 2 11.9895 7.55472 8.60499
333 2 -0.0498858 11.4786 8.53731
334 2 4.02493 11.3992 8.60543
335 2 7.97723 11.4201 8.58223
336 2 12.0137 11.3799 8.57925
337 2 0.0971032 15.3266 8.54299
338 2 3.97189 15.462 8.60053
339 2 7.91242 15.2921 8.57405
340 2 11.8147 15.218 8.56401
341 2 0.0436239 19.3256 8.42504
342 2 4.02243 19.3059 8.4364
343 2 7.9593 19.3272 8.53232
344 2 11.9707 19.2928 8.50347
345 2 -0.0423128 23.1351 8.34597
346 2 3.87566 23.187 8.44677
347 2 8.05317 23.2154 8.39352
348 2 11.9172 23.0303 8.24997
349 2 15.9812 27.2427 8.6131
350 2 3.96927 27.0438 8.3542
351 2 7.86629 27.2107 8.57493
352 2 11.856 27.0729 8.4999
353 2 0.0944899 30.8711 8.18248
354 2 4.19582 30.9886 8.29154
355 2 8.03656 30.9544 8.29802
356 2 11.9196 30.9322 8.4754
357 2 15.9994 34.8947 8.25257
358 2 4.14353 34.847 8.18175
359 2 8.01487 34.8689 8.44914
360 2 11.8993 35.0322 8.18956
361 2 15.8508 38.9599 8.31411
362 2 3.89836 39.0581 8.24191
363 2 8.08631 38.896 8.37255
364 2 11.9099 38.9389 8.51162
365 2 15.8841 43.0218 8.3801
366 2 3.8692 43.1117 8.7465
367 2 7.80139 43.0136 8.468
368 2 11.7794 42.9346 8.37774
369 2 15.9996 47.1663 8.66647
370 2 4.09668 46.9994 8.5736
371 2 7.87562 47.0613 8.32779
372 2 11.9615 46.9838 8.46507
373 2 0.0623068 51.0476 8.57104
374 2 3.93877 51.0665 8.53362
375 2 7.97992 50.9384 8.47812
376 2 11.8388 51.1453 8.74969
377 2 0.096093 55.2168 8.56409
378 2 3.83765 54.9823 8.6018
379 2 7.99089 55.1101 8.58572
380 2 11.8392 55.0569 8.80624
381 2 15.8276 58.9357 8.77139
382 2 3.98124 59.0942 8.72412
383 2 7.86399 59.0459 8.77667
384 2 11.7761 59.1832 8.82391
385 2 15.8039 63.053 8.94265
386 2 3.77542 63.3544 8.94457
387 2 7.98083 63.1946 8.79967
388 2 11.9586 63.1264 8.93013
389 2 -0.0706801 67.2622 8.84286
390 2 3.7636 67.3823 8.67426
391 2 7.95062 67.266 8.85304
392 2 11.8558 67.1912 8.93992
393 2 15.9626 71.2115 9.00649
394 2 3.98337 71.2095 8.91434
395 2 8.00253 71.3529 8.8816
396 2 11.9524 71.2176 8.95791
397 2 0.0187332 75.2853 9.13698
398 2 3.90845 75.3523 9.13133
399 2 7.92823 75.334 9.03827
400 2 11.752 75.243 9.10701
401 2 15.9682 79.4408 9.25302
402 2 3.94431 79.1775 9.06616
403 2 8.05252 79.2685 9.03983
404 2 11.9527 79.2099 9.14506
405 2 16.0764 83.4822 9.15416
406 2 4.09087 83.4219 9.3725
407 2 8.05342 83.5824 9.34243
408 2 11.8619 83.2251 9.02665
409 2 -0.146756 87.2453 9.26133
410 2 4.16349 87.4314 9.3263
411 2 8.21653 87.5741 9.16448
412 2 11.8745 87.4464 9.52889
413 2 0.146104 91.4706 9.49897
414 2 3.9194 91.5023 9.66799
415 2 7.73228 91.4688 9.67361
416 2 11.8894 91.5826 9.55863
417 2 0.0815755 95.4421 9.31894
418 2 3.97446 95.5314 9.38276
419 2 7.8935 95.4656 9.57617
420 2 11.8591 95.4768 9.55568
421 2 -0.00448862 99.2001 9.41756
422 2 3.92928 99.3896 9.41918
423 2 7.85872 99.3764 9.40842
424 2 11.8962 99.3603 9.31709
425 2 -0.0425073 103.239 9.46805
426 2 3.97238 103.249 9.46173
427 2 7.98497 103.197 9.36196
428 2 12.0167 103.202 9.35292
429 2 -0.00838767 107.272 9.34616
430 2 3.88793 107.2 9.32054
431 2 7.76444 107.092 9.31027
432 2 11.7131 107.207 9.39422
433 2 -0.0597986 110.842 9.0279
434 2 3.95761 111.174 9.30107
435 2 7.89586 110.991 9.32982
436 2 11.8693 111.245 9.43968
437 2 15.875 114.899 9.27822
438 2 4.00772 114.947 9.31205
439 2 7.70161 114.991 9.22848
440 2 11.8184 115.134 9.20473
441 2 -0.22652 118.895 9.32904
442 2 3.83785 118.856 9.37478
443 2 7.79331 118.914 9.38479
444 2 11.6337 118.87 8.9688
445 2 15.8877 122.759 9.23985
446 2 3.96788 122.78 9.33671
447 2 7.93626 122.796 9.20578
448 2 11.8918 122.709 9.22445
449 2 -0.0550787 126.806 9.15928
450 2 3.91507 126.872 9.1999
451 2 8.0585 126.584 9.03225
452 2 11.8655 126.629 9.08987
453 2 15.7443 130.765 9.21868
454 2 4.0402 130.605 9.05965
455 2 7.91418 130.685 9.0999
456 2 11.7888 130.409 9.03922
457 2 15.8065 134.554 9.15361
458 2 3.8582 134.563 9.13334
459 2 7.85059 134.429 8.95408
460 2 11.9502 134.467 9.1786
461 2 -0.0637604 138.534 9.12718
462 2 4.02346 138.508 9.08162
463 2 7.78941 138.198 9.11425
464 2 11.8281 138.357 9.07571
465 2 0.144731 142.305 8.94348
466 2 3.95749 142.382 8.7885
467 2 8.04789 142.199 8.93174
468 2 11.8965 142.451 8.93743
469 2 16.0236 146.333 8.8628
470 2 3.96388 146.218 8.96535
471 2 8.02687 146.254 9.01073
472 2 11.9773 146.409 8.94876
473 2 -0.0280058 150.25 8.82266
474 2 3.7151 150.269 8.85122
475 2 7.88837 150.123 8.89314
476 2 11.9584 150.184 8.58261
477 2 -0.0159947 154.082 8.86754
478 2 4.07126 154.02 8.65464
479 2 7.77342 154.07 8.71028
480 2 11.9879 154.174 8.743
481 2 15.9021 158.134 12.7134
482 2 4.01097 157.967 12.7818
483 2 7.82417 158.1 12.7616
484 2 11.8713 157.819 12.6282
485 2 0.0530974 3.46896 12.6951
486 2 3.81525 3.73714 12.6814
487 2 7.80751 3.6552 12.7344
488 2 11.6643 3.5806 12.7781
489 2 15.8789 7.49203 12.7164
490 2 3.97628 7.70225 12.4794
491 2 7.92547 7.4153 12.4986
492 2 11.9837 7.59403 12.6423
493 2 15.8409 11.414 12.6203
494 2 3.98593 11.5233 12.6628
495 2 7.86488 11.5436 12.4188
496 2 11.8574 11.4684 12.6124
497 2 15.9044 15.3881 12.6103
498 2 3.95044 15.3427 12.4029
499 2 7.66279 15.3412 12.388
500 2 11.7398 15.5674 12.4655
501 2 15.9222 19.3859 12.6489
502 2 4.16386 19.3509 12.5901
503 2 7.83017 19.3324 12.5063
504 2 11.8101 19.2452 12.5863
505 2 15.7999 23.4456 12.4879
506 2 3.80668 23.3616 12.4664
507 2 7.83712 23.2166 12.4486
508 2 11.8244 23.1325 12.3314
509 2 -0.0972333 27.2468 12.4716
510 2 4.03421 27.3065 12.3367
511 2 8.00618 27.1531 12.4718
512 2 11.9045 27.0561 12.3946
513 2 15.9759 31.2157 12.3258
514 2 3.85946 31.2397 12.4034
515 2 7.85647 31.14 12.5377
516 2 11.7094 31.1969 12.1498
517 2 -0.125091 34.9689 12.2278
518 2 3.96776 35.0051 12.3503
519 2 7.83054 34.9628 12.2827
520 2 11.9278 34.9663 12.4128
521 2 -0.0460359 38.8357 12.2885
522 2 3.83589 38.6886 12.1553
523 2 7.73752 38.8533 12.2483
524 2 11.8758 38.9498 12.3364
525 2 0.139189 42.9386 12.3743
526 2 4.04512 42.9271 12.4923
527 2 7.94636 42.8463 12.3315
528 2 11.8474 42.9347 12.2375
529 2 -0.0729849 47.0002 12.5598
530 2 4.13665 46.8966 12.4602
531 2 8.18 47.1228 12.2293
532 2 12.0636 47.0274 12.4292
533 2 15.9644 51.0281 12.6625
534 2 3.93804 50.8929 12.6137
535 2 8.04661 51.1503 12.4783
536 2 11.972 50.9929 12.6792
537 2 0.0430285 55.0009 12.4949
538 2 3.93518 54.9418 12.407
539 2 7.79462 55.3041 12.5681
540 2 11.8967 55.0627 12.5505
541 2 15.85 59.1111 12.5284
542 2 3.83127 59.1267 12.8439
543 2 7.72671 59.1321 12.6949
544 2 11.7597 59.0569 12.6075
545 2 15.836 63.2542 12.7117
546 2 4.07595 63.2393 12.8608
547 2 7.97907 63.1554 12.5729
548 2 11.958 63.0983 12.7871
549 2 0.0117789 67.1495 12.7347
550 2 4.04755 67.194 12.8307
551 2 7.88602 67.1338 12.8005
552 2 11.884 67.2125 12.8853
553 2 0.04479 71.1857 12.9293
554 2 3.94639 71.1076 12.7634
555 2 7.90219 71.1163 12.9044
556 2 11.9394 71.0979 12.8283
557 2 0.169843 75.1626 13.1345
558 2 4.04901 75.0583 12.8842
559 2 7.95454 75.1611 12.9819
560 2 11.9002 75.2349 12.9278
561 2 16.0344 79.2556 13.1322
562 2 4.12669 79.2924 12.9799
563 2 8.09152 79.3196 12.9503
564 2 12.0209 79.2779 13.0239
565 2 0.0694226 83.2342 13.1044
566 2 4.03065 83.3136 13.1908
567 2 7.92601 83.2756 13.1356
568 2 11.9851 83.3339 13.2109
569 2 15.9771 87.2416 13.1175
570 2 4.07898 87.3225 13.3483
571 2 8.06503 87.5524 13.2975
572 2 12.1299 87.3721 13.1138
573 2 0.0903959 91.3428 13.333
574 2 3.8709 91.3795 13.338
575 2 7.97297 91.496 13.425
576 2 12.0928 91.5575 13.2407
577 2 0.01843 95.6086 13.4832
578 2 3.95579 95.3886 13.4557
579 2 8.09581 95.3174 13.532
580 2 12.0599 95.5444 13.5034
581 2 -0.0907193 99.4458 13.4531
582 2 3.94954 99.3581 13.1613
583 2 8.01197 99.2434 13.5151
584 2 11.8874 99.2895 13.4189
585 2 15.8151 103.33 13.399
586 2 4.0334 103.246 13.5155
587 2 8.07739 103.27 13.4062
588 2 11.9268 103.315 13.2852
589 2 15.8101 107.131 13.376
590 2 3.94044 107.018 13.2005
591 2 7.83674 107.208 13.3734
592 2 11.915 107.076 13.529
593 2 0.021751 111.158 13.2916
594 2 3.87707 111.09 13.3047
595 2 7.7192 110.969 13.2939
596 2 11.811 111.062 13.442
597 2 -0.141846 115.02 13.3086
598 2 3.89656 115.06 13.518
599 2 7.79227 114.947 13.2211
600 2 11.806 114.877 13.4249
601 2 15.7006 118.929 13.2111
602 2 3.9809 118.897 13.425
603 2 7.7236 118.967 13.4093
604 2 11.6735 119.053 13.3644
605 2 15.7421 122.695 13.1784
606 2 3.87515 122.919 13.2945
607 2 7.79418 122.92 13.3478
608 2 11.7567 122.957 13.2768
609 2 -0.150478 126.809 13.2357
610 2 3.80991 126.749 13.3277
611 2 7.90655 126.954 13.2128
612 2 11.9772 126.831 13.2815
613 2 15.836 130.721 13.1247
614 2 4.01623 130.664 13.2503
615 2 8.04564 130.652 13.1134
616 2 11.8083 130.672 13.215
617 2 -0.0151032 134.545 13.1104
618 2 4.07876 134.598 13.1786
619 2 7.8739 134.514 13.0195
620 2 11.8724 134.483 13.2285
621 2 -0.0284638 138.537 12.9545
622 2 3.94615 138.536 13.0951
623 2 7.86978 138.549 13.0041
624 2 11.9611 138.508 13.1722
625 2 15.9212 142.391 12.9015
626 2 3.89235 142.481 13.073
627 2 7.88604 142.3 13.0436
628 2 11.7525 142.449 12.972
629 2 15.9028 146.36 12.8406
630 2 3.93808 146.395 12.9116
631 2 7.99569 146.343 12.8392
632 2 11.9552 146.289 12.9361
633 2 0.00422037 150.236 12.9184
634 2 4.03885 150.403 12.8315
635 2 7.92715 150.326 12.8308
636 2 11.9825 150.358 12.9141
637 2 -0.0224425 154.03 12.7802
638 2 3.8695 154.137 12.9045
639 2 7.72525 154.201 12.8204
640 2 11.7853 154.199 12.7662
641 2 -0.0383629 158.151 16.8695
642 2 3.84748 158.013 16.7323
643 2 7.81625 158.056 16.9024
644 2 11.9397 158.109 16.8411
645 2 15.8846 3.79622 16.6386
646 2 4.04448 3.72336 16.7412
647 2 7.8506 3.57222 16.7414
648 2 11.6397 3.51192 16.5696
649 2 15.8143 7.59103 16.6679
650 2 3.92424 7.63798 16.5722
651 2 7.92722 7.56723 16.6885
652 2 11.9261 7.66009 16.599
653 2 -0.00823827 11.5286 16.5802
654 2 3.89169 11.6169 16.6439
655 2 8.02228 11.5357 16.6038
656 2 11.9423 11.4562 16.6847
657 2 0.0471593 15.4745 16.4602
658 2 3.81113 15.3448 16.4897
659 2 7.94566 15.4382 16.4469
660 2 11.9823 15.5902 16.6113
661 2 15.9258 19.4098 16.4493
662 2 4.00427 19.3287 16.5494
663 2 8.01755 19.4495 16.6615
664 2 11.7812 19.2915 16.7177
665 2 -0.117156 23.1722 16.4588
666 2 3.72578 23.36 16.3874
667 2 7.85383 23.2869 16.4604
668 2 11.9853 23.4574 16.4879
669 2 15.7553 27.408 16.3628
670 2 3.83478 27.2537 16.4103
671 2 7.83828 27.3613 16.4331
672 2 11.9243 27.068 16.1822
673 2 15.8572 31.257 16.4608
674 2 4.00493 31.2518 16.4328
675 2 7.94333 30.9636 16.4789
676 2 12.1419 31.2532 16.4813
677 2 15.8366 35.1287 16.3434
678 2 4.09759 35.2313 16.3791
679 2 7.82477 34.937 16.411
680 2 11.8387 35.0918 16.313
681 2 15.8881 38.7752 16.2171
682 2 3.85673 39.0101 16.2566
683 2 7.76639 38.8082 16.1909
684 2 11.6465 39.0157 16.2899
685 2 -0.0593419 42.7708 16.2922
686 2 3.83772 42.8561 16.4168
687 2 7.92699 42.9624 16.107
688 2 11.9011 42.9047 16.3007
689 2 15.9619 46.7445 16.2756
690 2 3.94814 46.7018 16.4004
691 2 8.10589 47.0873 16.3606
692 2 11.9303 46.7639 16.4674
693 2 15.8801 50.8596 16.4524
694 2 4.07324 50.8396 16.4796
695 2 7.98801 51.0635 16.4448
696 2 11.863 50.8125 16.4711
697 2 15.7224 54.9435 16.4915
698 2 3.99682 54.8278 16.4138
699 2 8.03887 54.9357 16.3106
700 2 11.9919 54.9853 16.5379
701 2 15.9521 59.0212 16.6731
702 2 3.97504 59.1567 16.6807
703 2 7.75146 58.8425 16.5955
704 2 11.981 59.3355 16.5073
705 2 15.9597 62.9693 16.6747
706 2 3.96503 63.0654 16.7748
707 2 7.90898 62.9189 16.7291
708 2 11.8508 62.9086 16.6905
709 2 -0.109791 66.9295 16.7709
710 2 3.80536 66.9628 16.8113
711 2 7.83144 66.9507 16.9035
712 2 11.6811 67.1351 16.5963
713 2 0.0441464 71.2371 17.02
714 2 4.04992 71.1367 16.806
715 2 8.12858 71.2688 16.8853
716 2 12.0416 71.0263 16.912
717 2 15.9623 75.2158 16.8639
718 2 3.94399 75.2795 16.7708
719 2 8.12622 75.2823 16.7297
720 2 12.0576 75.1362 16.7885
721 2 0.0788496 79.1551 16.9755
722 2 4.05985 79.1508 16.8923
723 2 8.15912 79.0971 16.9944
724 2 11.9706 79.1512 16.88
725 2 -0.120696 83.0774 17.0488
726 2 3.98477 83.2755 16.8957
727 2 7.94828 83.1175 16.9989
728 2 11.6572 83.2828 17.1895
729 2 0.0954747 87.1876 17.1359
730 2 4.02864 87.3775 17.0629
731 2 7.99226 87.2777 17.1865
732 2 11.9355 87.338 17.1036
733 2 0.057724 91.2525 17.2587
734 2 3.90998 91.2311 17.1027
735 2 8.106 91.4039 17.304
736 2 12.2054 91.3791 17.2192
737 2 15.9732 95.4075 17.3575
738 2 3.95685 95.3209 17.3499
739 2 7.86147 95.3067 17.4211
740 2 12.0161 95.2599 17.2753
741 2 15.8754 99.438 17.4796
742 2 3.74298 99.5014 17.3132
743 2 7.90274 99.3 17.4358
744 2 11.6586 99.3112 17.3999
745 2 15.8789 103.19 17.4503
746 2 3.84142 103.312 17.5334
747 2 7.74771 103.298 17.4753
748 2 11.86 103.187 17.4658
749 2 15.7508 107.143 17.5238
750 2 3.83037 107.195 17.2727
751 2 7.89918 107.172 17.5359
752 2 11.9904 107.2 17.2688
753 2 -0.0097056 111.045 17.4275
754 2 4.01033 111.084 17.4986
755 2 7.92322 110.896 17.2263
756 2 11.904 111.064 17.3267
757 2 15.9224 115.203 17.3148
758 2 3.90039 114.956 17.5015
759 2 7.7445 115.113 17.1956
760 2 11.9159 115.068 17.4234
761 2 -0.142837 119.083 17.3433
762 2 3.92382 119.02 17.2983
763 2 7.71994 118.999 17.4192
764 2 11.9168 118.891 17.3225
765 2 -0.242935 122.822 17.2158
766 2 4.07914 122.898 17.2071
767 2 7.9684 122.903 17.451
768 2 11.8927 122.972 17.3553
769 2 -0.0501238 126.686 17.2222
770 2 3.85253 126.818 17.2716
771 2 7.66462 126.79 17.2066
772 2 11.8576 126.77 17.3078
773 2 15.8477 130.655 17.2445
774 2 3.88782 130.759 17.3224
775 2 7.92125 130.878 17.2198
776 2 12.0015 130.712 17.3242
777 2 15.8008 134.607 17.1403
778 2 3.85218 134.66 16.9814
779 2 7.88907 134.561 17.1218
780 2 12.0342 134.747 17.0562
781 2 15.9302 138.441 17.0805
782 2 4.05281 138.517 16.8865
783 2 7.97503 138.346 17.1636
784 2 11.9325 138.577 16.9291
785 2 15.876 142.282 17.049
786 2 4.00198 142.57 17.0185
787 2 7.75256 142.608 16.9983
788 2 11.8325 142.479 16.896
789 2 -0.00483271 146.395 16.9311
790 2 3.76848 146.447 16.9113
791 2 7.87252 146.584 16.9109
792 2 11.749 146.533 16.8468
793 2 15.7932 150.292 16.896
794 2 3.97904 150.312 16.9238
795 2 7.69917 150.349 16.9249
796 2 11.8291 150.411 16.8588
797 2 -0.0967607 154.354 16.8097
798 2 3.89098 154.373 16.7861
799 2 7.88109 154.234 16.8641
800 2 11.8659 154.135 16.741
801 2 15.9142 158.192 20.7744
802 2 4.06789 158.102 20.8908
803 2 7.99731 -0.400941 20.9125
804 2 11.6948 158.174 20.8653
805 2 15.7112 3.57115 20.7198
806 2 4.02379 3.65638 20.912
807 2 7.84224 3.79268 20.6905
808 2 11.7628 3.76032 20.6395
809 2 15.979 7.31281 20.5413
810 2 3.9267 7.61841 20.6078
811 2 7.77917 7.60379 20.705
812 2 11.8412 7.65561 20.7398
813 2 -0.10243 11.4883 20.7913
814 2 3.98638 11.5553 20.6073
815 2 7.86003 11.5069 20.6925
816 2 11.7604 11.5068 20.6764
817 2 15.8279 15.5076 20.6477
818 2 4.04031 15.544 20.5453
819 2 7.87215 15.3847 20.6258
820 2 11.8613 15.2764 20.6714
821 2 -0.149221 19.4351 20.6768
822 2 3.90838 19.4346 20.567
823 2 8.02112 19.3011 20.5213
824 2 11.8926 19.4843 20.6683
825 2 15.9792 23.3961 20.3852
826 2 4.04589 23.2024 20.5028
827 2 7.86372 23.4651 20.2767
828 2 12.0091 23.1704 20.5907
829 2 -0.0443106 27.1501 20.4783
830 2 3.84776 27.3195 20.4683
831 2 7.78477 27.2183 20.5352
832 2 11.6879 27.2485 20.4869
833 2 15.8352 31.2382 20.3107
834 2 4.00688 31.1731 20.5859
835 2 8.1371 31.2999 20.5075
836 2 11.9452 31.0819 20.4341
837 2 -0.0409021 35.1297 20.5497
838 2 3.84294 35.0285 20.4154
839 2 8.10887 35.0025 20.484
840 2 11.9525 34.9791 20.4882
841 2 15.8022 38.9332 20.3882
842 2 4.11057 38.9626 20.368
843 2 7.85614 38.6953 20.3053
844 2 11.8592 39.0223 20.3455
845 2 -0.142167 42.7178 20.1841
846 2 3.93547 42.8505 20.2061
847 2 7.80887 42.6766 20.3059
848 2 11.7127 42.7346 20.1846
849 2 -0.0669689 46.8618 20.2185
850 2 3.93895 46.8306 20.245
851 2 8.0263 46.8224 20.4096
852 2 11.9655 46.7573 20.3078
853 2 -0.149569 50.924 20.3629
854 2 3.87856 50.9164 20.3035
855 2 7.96127 50.8715 20.4021
856 2 12.0802 50.8447 20.322
857 2 15.7805 54.9176 20.3841
858 2 3.85024 55.0066 20.6086
859 2 7.90149 54.6773 20.3327
860 2 11.8405 54.92 20.3713
861 2 15.8254 59.0386 20.6134
862 2 3.77961 58.9239 20.7246
863 2 7.88906 58.819 20.561
864 2 11.8501 58.8638 20.5232
865 2 15.6536 63.1347 20.6008
866 2 3.88114 62.994 20.6562
867 2 7.95428 62.9474 20.7312
868 2 11.8712 62.8534 20.5174
869 2 15.9658 67.0372 20.711
870 2 3.98818 66.9829 20.7583
871 2 7.83195 66.993 20.8135
872 2 11.8199 67.1208 20.5899
873 2 -0.136274 71.0995 20.9293
874 2 4.02216 71.1167 20.7476
875 2 7.96162 70.9625 20.7002
876 2 11.9151 70.9294 20.7328
877 2 15.9462 75.0645 20.876
878 2 4.08539 75.1078 20.869
879 2 7.85807 75.1244 20.7203
880 2 11.8245 75.0652 20.5489
881 2 -0.0487562 79.0857 20.8777
882 2 4.0883 79.1214 20.9837
883 2 7.97092 78.9733 20.8025
884 2 12.0088 79.0719 21.0166
885 2 -0.0264845 83.1423 20.7771
886 2 4.00687 83.1386 20.8607
887 2 7.93771 82.9813 20.8797
888 2 11.8164 83.1644 21.0672
889 2 16.0642 87.0519 21.0371
890 2 4.00692 87.1269 20.9804
891 2 7.95148 87.3025 20.9298
892 2 12.1539 87.346 21.1595
893 2 15.8787 91.1916 21.4507
894 2 3.849 91.3017 21.0622
895 2 8.11129 91.3273 21.0833
896 2 11.8957 91.2145 21.0838
897 2 -0.141185 95.2776 21.3804
898 2 4.09208 95.1742 21.1365
899 2 7.85343 95.2427 21.2439
900 2 11.7684 95.1828 21.2498
901 2 15.7855 99.1746 21.6438
902 2 3.86199 99.1675 21.368
903 2 7.7666 99.3173 21.3891
904 2 11.767 99.1057 21.2078
905 2 -0.215049 103.33 21.3216
906 2 4.00111 103.551 21.625
907 2 7.82691 103.361 21.3721
908 2 11.7458 103.32 21.3295
909 2 15.7374 107.301 21.5057
910 2 3.90367 107.24 21.4558
911 2 7.86759 107.203 21.446
912 2 11.697 107.187 21.3691
913 2 15.8327 111.255 21.4692
914 2 4.01938 111.112 21.3901
915 2 8.06949 111.237 21.3628
916 2 11.9452 111.098 21.385
917 2 0.0598115 115.018 21.4241
918 2 4.09487 115.043 21.3624
919 2 8.02135 115.069 21.3317
920 2 11.9694 115.23 21.3504
921 2 15.9173 119.084 21.273
922 2 3.98388 119 21.318
923 2 7.93291 119.09 21.4467
924 2 11.8739 119.016 21.4224
925 2 15.7857 122.999 21.1301
926 2 3.88815 123.155 21.1348
927 2 7.84405 122.953 21.3721
928 2 11.9158 123.068 21.1873
929 2 -0.112164 126.955 21.3724
930 2 4.01559 127.156 21.33
931 2 7.989 126.984 21.2118
932 2 11.8231 127.052 21.2279
933 2 -0.226338 130.766 21.2879
934 2 3.72658 130.851 21.3864
935 2 7.9607 130.73 21.0443
936 2 11.7407 130.987 21.2128
937 2 15.9284 134.708 21.1314
938 2 4.05993 134.815 21.293
939 2 7.87412 134.611 21.2007
940 2 12.0172 134.756 21.1845
941 2 0.00230228 138.587 21.0735
942 2 3.73903 138.525 21.2045
943 2 7.90518 138.443 21.1731
944 2 11.9123 138.57 21.0668
945 2 15.8689 142.476 21.017
946 2 4.0218 142.463 20.973
947 2 7.95047 142.541 21.0596
948 2 11.8087 142.618 20.9852
949 2 15.9567 146.355 20.8433
950 2 3.88456 146.322 21.0907
951 2 8.01267 146.414 20.8817
952 2 11.9716 146.226 20.9021
953 2 15.8545 150.408 20.8666
954 2 3.85721 150.434 20.8828
955 2 7.95475 150.372 20.8722
956 2 11.8488 150.311 21.0193
957 2 -0.0355513 154.201 20.7502
958 2 3.99166 154.238 20.8044
959 2 7.93483 154.118 20.781
960 2 11.9413 154.212 21.0273
961 2 -0.0890021 158.14 24.7095
962 2 3.85452 158.219 24.7676
963 2 8.0788 158.156 24.928
964 2 11.8216 158.255 24.7903
965 2 -0.0449505 3.86944 24.8116
966 2 3.72645 3.8681 24.7994
967 2 7.7898 3.7131 24.7539
968 2 11.8294 3.6227 24.8804
969 2 15.8983 7.84 24.7084
970 2 3.74111 7.49111 24.5979
971 2 7.9926 7.67691 24.7723
972 2 11.7269 7.95071 24.5635
973 2 16.0948 11.7308 24.6663
974 2 3.88987 11.4427 24.622
975 2 7.74738 11.6893 24.837
976 2 12.0521 11.7169 24.7205
977 2 15.7892 15.6269 24.4728
978 2 3.92457 15.6661 24.6522
979 2 7.76194 15.8242 24.604
980 2 11.8967 15.6489 24.7581
981 2 -0.146078 19.4888 24.4763
982 2 4.1274 19.321 24.5414
983 2 7.95432 19.3828 24.4858
984 2 11.8865 19.5272 24.6465
985 2 16.0059 23.499 24.6435
986 2 4.04435 23.3506 24.6119
987 2 7.95712 23.3598 24.5115
988 2 11.9399 23.2617 24.4909
989 2 16.0574 27.2214 24.5849
990 2 4.14419 27.2753 24.5053
991 2 8.13347 27.1013 24.4326
992 2 12.0436 27.3315 24.4291
993 2 15.9348 31.0954 24.5032