ITEM: TIMESTEP
24000
ITEM: NUMBER OF ATOMS
32000
ITEM: BOX BOUNDS xy xz yz pp pp pp
0.0000000000000000e+00 1.5832000000000001e+01 0.0000000000000000e+00
0.0000000000000000e+00 1.5831999999999999e+02 0.0000000000000000e+00
8.5415748902582322e-01 1.6012296051096922e+02 0.0000000000000000e+00
ITEM: ATOMS id type x y z
1 2 -0.0896372 158.091 160.174
2 2 3.84728 157.814 160.005
3 2 7.83343 157.913 160.097
4 2 11.8385 157.891 159.853
5 2 0.0469435 3.56079 160.146
6 2 3.86465 3.65264 159.903
7 2 7.74523 3.57468 159.99
8 2 11.7192 3.47983 159.871
9 2 15.8967 7.51464 159.944
10 2 4.0008 7.5378 159.893
11 2 7.87259 7.46162 160.039
12 2 11.876 7.28197 159.87
13 2 -0.0351455 11.2685 159.95
14 2 3.87573 11.3189 160.079
15 2 7.99601 11.1684 159.872
16 2 11.9503 11.2371 159.743
17 2 -0.103706 15.3913 159.891
18 2 3.68637 15.1844 159.884
19 2 7.90957 15.1516 159.916
20 2 11.931 15.0691 159.626
21 2 -0.0274493 18.8935 159.62
22 2 4.03089 19.0148 159.657
23 2 8.04874 19.182 159.622
24 2 11.88 18.9585 159.674
25 2 0.0738533 23.169 159.793
26 2 4.23729 23.2775 159.751
27 2 8.0232 22.9001 159.739
28 2 12.0132 23.0803 159.708
29 2 0.069049 27.1824 159.701
30 2 3.96771 27.0447 159.792
31 2 7.99501 27.0677 159.819
32 2 11.9464 26.9594 159.773
33 2 15.9815 31.0799 159.887
34 2 4.00719 30.9941 159.83
35 2 7.87374 31.0785 159.76
36 2 11.8976 31.1888 159.634
37 2 15.8397 34.9568 159.952
38 2 4.15936 35.1864 159.816
39 2 7.88783 34.9417 159.716
40 2 11.8697 35.1732 159.885
41 2 -0.238551 39.3218 160.035
42 2 3.8432 38.9756 159.917
43 2 7.69037 39.2242 159.941
44 2 11.6386 38.9636 160.056
45 2 15.7346 43.1877 159.911
46 2 3.94362 43.1971 0.621413
47 2 8.1709 43.1071 159.952
48 2 12.0568 43.2451 159.97
49 2 15.9873 47.102 160.161
50 2 4.02832 47.224 159.771
51 2 7.97921 47.1062 160.123
52 2 11.9771 47.3372 160.089
53 2 15.7871 51.2337 0.783404
54 2 3.91376 51.2717 160.016
55 2 7.86572 51.2404 160.279
56 2 11.7976 51.1222 0.844695
57 2 15.7959 55.1478 0.903583
58 2 3.83078 55.3958 0.888645
59 2 7.92888 55.0972 0.864532
60 2 12.0146 55.1213 0.834872
61 2 -0.197946 59.3498 0.832781
62 2 4.02043 59.154 1.00924
63 2 7.88689 59.3876 1.12264
64 2 11.7527 59.2726 0.778875
65 2 -0.0862073 63.3187 1.0625
66 2 3.83232 63.1985 1.16843
67 2 7.94547 63.3694 0.943059
68 2 11.8282 63.319 0.932079
69 2 15.8652 67.3255 1.1919
70 2 4.12481 67.4772 1.20408
71 2 8.00167 67.216 1.11695
72 2 11.764 67.5581 1.219
73 2 0.104883 71.3452 1.54181
74 2 3.97417 71.1867 1.18926
75 2 7.97121 71.2311 1.1015
76 2 11.7403 71.3229 1.31631
77 2 0.0315875 75.4175 1.23179
78 2 3.86009 75.344 0.917551
79 2 7.74955 75.4924 1.4078
80 2 11.6608 75.5285 1.33157
81 2 0.00102882 79.3916 1.14314
82 2 3.86107 79.5812 1.30999
83 2 7.71436 79.5345 1.33054
84 2 11.627 79.5854 1.39767
85 2 -0.0109716 83.5987 1.30969
86 2 3.86685 83.3669 1.38038
87 2 7.7868 83.4979 1.29783
88 2 11.7187 83.5112 1.43211
89 2 -0.259498 87.7061 1.64458
90 2 3.87941 87.6745 1.4627
91 2 7.85629 87.557 1.34298
92 2 11.7087 87.4737 1.60967
93 2 15.7392 91.609 1.5169
94 2 4.13367 91.4445 1.44946
95 2 7.98003 91.4632 1.48027
96 2 11.8357 91.5884 1.52119
97 2 15.8818 95.4763 1.49581
98 2 3.9011 95.4356 1.53728
99 2 7.77325 95.511 1.49802
100 2 11.8378 95.295 1.48609
101 2 15.5769 99.215 1.37531
102 2 3.82224 99.3778 1.45762
103 2 7.9482 99.3232 1.45329
104 2 11.7378 99.343 1.44697
105 2 0.0989247 103.218 1.38871
106 2 3.91573 103.144 1.62083
107 2 8.0739 103.254 1.4146
108 2 11.8933 103.199 1.51208
109 2 15.9561 107.03 1.49146
110 2 4.11209 107.114 1.36062
111 2 8.05299 107.279 1.42387
112 2 11.7732 106.928 1.2358
113 2 15.8717 111.047 1.40162
114 2 3.95819 111.212 1.25371
115 2 7.96968 110.869 1.35869
116 2 12.0394 110.935 1.20946
117 2 15.822 114.873 1.25008
118 2 3.98772 114.975 1.13661
119 2 8.01921 114.705 1.12458
120 2 11.9689 114.787 1.27054
121 2 0.115818 118.869 1.09859
122 2 3.99326 118.667 1.10249
123 2 7.99256 118.916 1.24647
124 2 11.8494 119.022 1.19767
125 2 -0.138438 122.81 1.11017
126 2 3.91578 122.578 1.17021
127 2 7.74659 122.663 1.1342
128 2 11.4506 122.81 1.02588
129 2 -0.0936782 126.625 1.02073
130 2 3.94971 126.607 1.22091
131 2 7.86443 126.586 1.04676
132 2 11.6261 126.682 1.00445
133 2 -0.242809 130.401 1.02846
134 2 3.88837 130.478 1.08764
135 2 7.73505 130.728 1.10866
136 2 11.6254 130.582 1.06045
137 2 15.7268 134.248 1.01538
138 2 3.82803 134.463 160.395
139 2 7.80131 134.513 0.915115
140 2 11.6915 134.502 0.941398
141 2 15.9859 138.318 0.938501
142 2 3.91858 138.407 0.831874
143 2 7.94411 138.447 0.970336
144 2 11.8309 138.592 0.918221
145 2 -0.10027 142.407 0.915854
146 2 3.79191 142.219 0.867418
147 2 7.75255 142.122 0.779075
148 2 11.8387 142.418 0.684121
149 2 -0.209723 146.365 1.051
150 2 3.79873 146.332 160.275
151 2 7.75467 146.153 0.825863
152 2 11.8051 146.101 160.098
153 2 -0.188743 150.03 160.09
154 2 3.9007 150.159 160.065
155 2 7.87501 150.107 0.847358
156 2 11.7863 150.1 0.694821
157 2 -0.14342 154.053 159.915
158 2 3.75637 154.001 160.076
159 2 7.91233 154.095 160.042
160 2 11.82 153.857 159.977
161 2 0.0934603 158.169 4.72178
162 2 4.06181 -0.253716 4.87639
163 2 7.88087 157.971 4.86313
164 2 11.8708 157.897 4.64414
165 2 0.0332301 3.5744 4.75587
166 2 4.03145 3.66636 4.7602
167 2 7.82386 3.41649 4.74522
168 2 11.8272 3.4555 4.62537
169 2 -0.197772 7.33795 4.74516
170 2 3.9374 7.59509 4.62144
171 2 7.97423 7.45442 4.6562
172 2 11.8543 7.35553 4.64034
173 2 0.0423641 11.3585 4.6917
174 2 4.03617 11.3229 4.74766
175 2 8.05342 11.4663 4.57608
176 2 11.98 11.4754 4.53898
177 2 0.200309 15.2614 4.61809
178 2 3.95365 15.2717 4.66979
179 2 7.7742 15.166 4.52181
180 2 11.7634 15.3913 4.78913
181 2 0.14282 19.3794 4.38527
182 2 4.04532 19.1418 4.38653
183 2 7.94182 19.1158 4.62278
184 2 11.9044 19.3206 4.54505
185 2 0.146883 23.0838 4.27097
186 2 3.89988 22.9586 4.44672
187 2 8.17811 22.9825 4.47328
188 2 12.0425 23.1424 4.4048
189 2 0.0814158 26.9724 4.41504
190 2 4.17773 27.0709 4.49728
191 2 7.98405 26.8813 4.45879
192 2 11.8212 27.0094 4.41213
193 2 -0.0149584 30.9513 4.45992
194 2 3.86831 31.0775 4.46319
195 2 7.95033 31.0524 4.67025
196 2 11.8205 30.9645 4.53072
197 2 15.5666 35.0797 4.4491
198 2 3.95524 35.0579 4.52634
199 2 7.87982 34.9813 4.36246
200 2 11.726 35.0638 4.48373
201 2 -0.00431475 39.1091 4.7442
202 2 3.81075 38.955 4.45923
203 2 7.87737 39.1557 4.52952
204 2 11.7002 39.1455 4.65108
205 2 15.8972 43.2438 4.66924
206 2 3.79639 43.053 4.72752
207 2 7.80964 43.1735 4.47819
208 2 11.8433 43.2449 4.5387
209 2 15.9732 47.1057 4.62989
210 2 3.96073 47.1627 4.6373
211 2 7.95897 47.0294 4.67202
212 2 12.0075 47.2268 4.72462
213 2 16.1054 51.2302 4.83747
214 2 4.07456 51.2276 4.83682
215 2 7.94639 51.1042 4.72717
216 2 12.0974 51.1133 4.93439
217 2 0.0512448 55.15 4.97628
218 2 4.18643 55.1794 4.78638
219 2 7.9995 55.0479 4.89293
220 2 11.8598 55.2206 4.99049
221 2 15.6827 59.1973 4.97442
222 2 4.03523 59.2453 4.83976
223 2 7.84743 59.254 4.91252
224 2 11.8386 59.0679 4.93504
225 2 15.8213 63.2614 5.09118
226 2 3.92291 63.3984 5.157
227 2 7.85795 63.2569 5.00931
228 2 11.8474 63.2115 5.1236
229 2 -0.0811418 67.5138 4.89901
230 2 4.06574 67.2835 5.00588
231 2 7.79507 67.2322 5.0201
232 2 11.8675 67.2793 5.12843
233 2 0.0578261 71.2913 5.2887
234 2 3.91631 71.3307 5.38306
235 2 7.79573 71.2943 5.12941
236 2 11.7141 71.4239 5.11788
237 2 15.7622 75.2745 5.1001
238 2 4.08384 75.413 4.97317
239 2 7.8495 75.3067 5.17701
240 2 11.8621 75.2698 5.26601
241 2 0.0779016 79.5331 4.90527
242 2 3.63282 79.2351 5.34885
243 2 7.73523 79.405 5.37895
244 2 11.702 79.366 5.21954
245 2 -0.0599515 83.4546 5.21956
246 2 3.76967 83.6751 5.38103
247 2 7.82836 83.5874 5.4339
248 2 11.8221 83.3009 5.25584
249 2 -0.272691 87.5841 5.41421
250 2 3.84261 87.5046 5.21916
251 2 7.86755 87.5506 5.19611
252 2 11.8624 87.4035 5.49843
253 2 -0.0141899 91.6033 5.54947
254 2 3.72289 91.4709 5.56746
255 2 7.76151 91.3998 5.42312
256 2 11.81 91.4369 5.43965
257 2 15.8089 95.5056 5.62286
258 2 3.91817 95.3645 5.53892
259 2 7.80082 95.4816 5.40439
260 2 11.7253 95.3617 5.66208
261 2 0.129392 99.4302 5.4361
262 2 4.0314 99.1741 5.54219
263 2 7.91017 99.3461 5.40605
264 2 11.8185 99.2901 5.5553
265 2 -0.0544501 103.268 5.2934
266 2 4.07539 103.171 5.51027
267 2 7.94117 103.293 5.44042
268 2 11.9407 103.018 5.66546
269 2 -0.087072 107.149 5.26789
270 2 4.01813 107.095 5.40083
271 2 7.84365 107.244 5.40615
272 2 11.8052 107.032 5.36719
273 2 15.8893 110.881 5.55952
274 2 4.13961 110.937 5.21655
275 2 8.03236 110.984 5.32227
276 2 11.9495 111.123 5.3762
277 2 15.8967 115.011 5.17554
278 2 4.17167 115.003 5.26695
279 2 8.03906 114.855 5.24698
280 2 11.9659 115.327 5.30264
281 2 15.664 119.007 5.22392
282 2 3.99193 118.932 5.16631
283 2 7.80541 118.828 5.16651
284 2 11.9475 118.956 5.20939
285 2 -0.110548 122.908 5.15575
286 2 3.65922 122.816 5.22678
287 2 7.71575 122.789 5.14372
288 2 11.7793 123.03 5.00254
289 2 -0.166872 126.637 5.01208
290 2 3.88932 126.758 5.20202
291 2 7.78882 126.777 5.14013
292 2 11.7851 126.828 5.08525
293 2 -0.184883 130.476 5.13854
294 2 3.71959 130.69 5.12766
295 2 7.83909 130.686 4.94704
296 2 11.6124 130.58 5.06609
297 2 15.8804 134.526 5.06926
298 2 3.68293 134.593 4.93668
299 2 7.92423 134.63 5.13926
300 2 11.9884 134.587 5.07561
301 2 -0.0105541 138.48 5.02978
302 2 3.93238 138.537 4.80091
303 2 7.95628 138.589 4.94384
304 2 11.8266 138.187 4.82925
305 2 -0.0132274 142.281 4.80157
306 2 4.04196 142.518 4.93873
307 2 7.99271 142.453 4.86631
308 2 11.9371 142.397 4.87228
309 2 -0.149109 146.374 4.99623
310 2 3.94609 146.41 4.72753
311 2 7.82488 146.245 4.86924
312 2 11.7819 146.172 4.96327
313 2 15.6949 150.295 4.79107
314 2 3.8549 150.293 4.74529
315 2 7.72068 150.267 4.85466
316 2 11.8138 150.153 4.90344
317 2 -0.192134 154.202 4.6369
318 2 3.90085 154.214 4.89677
319 2 7.69761 154.073 4.80644
320 2 11.7789 154.019 4.63322
321 2 -0.0257838 157.956 8.75267
322 2 3.67338 157.996 8.82476
323 2 8.05505 158.089 8.85399
324 2 11.9495 157.911 8.90681
325 2 15.8768 3.58667 8.91066
326 2 3.89312 3.56776 8.84333
327 2 7.85529 3.74409 8.7887
328 2 11.8312 3.42844 8.66641
329 2 0.0310246 7.44635 8.70793
330 2 3.96445 7.56146 8.51135
331 2 7.84177 7.49825 8.69376
332 2 11.7331 7.39605 8.60719
333 2 -0.0700164 11.515 8.67818
334 2 3.85517 11.3143 8.60966
335 2 8.07939 11.2291 8.67297
336 2 11.9355 11.4075 8.60385
337 2 -0.0584483 15.3567 8.54963
338 2 3.77678 15.383 8.70658
339 2 7.99607 15.3832 8.65993
340 2 11.9205 15.2694 8.77559
341 2 -0.00497077 19.357 8.64344
342 2 3.96371 19.236 8.55646
343 2 7.79825 19.4165 8.74527
344 2 11.7719 19.1488 8.73076
345 2 -0.153777 23.0901 8.49259
346 2 3.63004 23.1782 8.59362
347 2 7.86682 23.1792 8.45831
348 2 11.9357 22.8347 8.43333
349 2 15.7705 27.0154 8.43108
350 2 3.90594 26.8822 8.42633
351 2 7.84373 26.9976 8.45904
352 2 11.7428 26.8717 8.37599
353 2 -0.111728 31.0087 8.45737
354 2 3.82915 30.9112 8.35829
355 2 7.70118 31.2292 8.49664
356 2 11.5645 30.8862 8.54136
357 2 15.5564 35.0632 8.30865
358 2 3.97287 35.0814 8.44281
359 2 7.87826 35.1349 8.55801
360 2 11.6434 35.0238 8.57979
361 2 15.7301 38.9701 8.45715
362 2 3.8639 39.084 8.36961
363 2 7.90992 39.2186 8.388
364 2 11.817 38.9731 8.54445
365 2 15.7922 42.9855 8.81334
366 2 3.98064 42.8706 8.45515
367 2 7.72448 43.0332 8.26745
368 2 11.7943 43.0157 8.50799
369 2 15.9631 46.9086 8.62954
370 2 3.85249 46.9669 8.7856
371 2 7.83119 47.0771 8.46956
372 2 11.7714 47.1815 8.64243
373 2 0.0573999 50.9311 8.675
374 2 4.00475 50.9929 8.71187
375 2 7.9563 50.9081 8.70693
376 2 11.9815 51.0754 8.81487
377 2 0.12795 55.1113 8.7967
378 2 3.88462 55.2054 8.72803
379 2 7.92074 55.1346 8.825
380 2 11.8811 54.9362 8.99566
381 2 15.7881 59.1634 8.90083
382 2 3.96659 59.0402 8.92208
383 2 7.7624 59.0838 9.00059
384 2 11.7921 59.0959 8.81164
385 2 15.9899 63.2505 8.88217
386 2 3.9079 63.2928 8.84199
387 2 7.86712 63.2157 8.84393
388 2 11.9305 63.196 8.9628
389 2 -0.00420213 67.2902 9.02829
390 2 3.95504 67.2327 9.00599
391 2 7.93096 67.2102 9.05717
392 2 11.8115 67.1598 9.07501
393 2 15.9174 71.1998 9.24259
394 2 3.92295 71.2359 8.92809
395 2 8.03687 71.3714 9.08045
396 2 12.0535 71.4607 8.8666
397 2 -0.106191 75.1059 9.13298
398 2 3.76787 75.426 8.91266
399 2 7.75152 75.3733 9.12533
400 2 11.8319 75.2282 8.95967
401 2 15.6987 79.2627 9.18498
402 2 3.80148 79.4345 9.0421
403 2 7.87377 79.2056 9.16797
404 2 11.9027 79.2362 9.03808
405 2 15.7761 83.3847 9.32785
406 2 3.91428 83.2614 9.32476
407 2 7.89189 83.3242 9.26359
408 2 11.7012 83.5015 9.37456
409 2 -0.197391 87.4277 9.3571
410 2 3.92272 87.5345 9.19414
411 2 7.85454 87.4748 9.20369
412 2 11.7515 87.4128 9.52649
413 2 0.0109032 91.5566 9.49266
414 2 3.82248 91.6113 9.46525
415 2 7.67922 91.3854 9.11071
416 2 11.8095 91.4751 9.53409
417 2 -0.113437 95.4359 9.55571
418 2 3.93322 95.5157 9.61556
419 2 7.76727 95.3742 9.49364
420 2 11.7741 95.3444 9.54084
421 2 0.0635212 99.4724 9.56931
422 2 4.07624 99.2983 9.57605
423 2 7.90011 99.5138 9.5066
424 2 11.6152 99.2177 9.44583
425 2 0.135449 103.19 9.55849
426 2 4.01051 103.399 9.35009
427 2 8.10084 103.314 9.63294
428 2 12.045 103.287 9.6183
429 2 0.204406 107.144 9.40845
430 2 3.96872 107.246 9.29543
431 2 7.95074 107.063 9.40052
432 2 11.9918 107.151 9.40622
433 2 0.26322 111.197 9.02792
434 2 4.23504 111.14 9.28231
435 2 8.06091 111.07 9.36687
436 2 12.0041 111.213 9.34301
437 2 15.8744 115.065 9.16824
438 2 3.99934 114.92 9.19799
439 2 8.0757 114.952 9.26013
440 2 11.9979 115.015 9.35093
441 2 -0.052036 118.932 9.22864
442 2 3.94304 119.121 9.18002
443 2 7.98225 118.931 9.38477
444 2 11.8374 118.959 9.14935
445 2 15.6755 122.859 9.11666
446 2 3.94824 123.027 9.34035
447 2 7.74498 123.043 9.05944
448 2 11.6248 122.895 9.173
449 2 -0.254705 126.82 9.01181
450 2 3.90862 126.903 9.00674
451 2 7.8114 126.797 9.09904
452 2 11.8391 126.751 9.12326
453 2 15.8079 130.77 9.13919
454 2 3.9512 130.932 8.94226
455 2 7.70231 130.774 8.97653
456 2 11.8666 130.721 9.12022
457 2 15.8132 134.612 9.03296
458 2 4.01918 134.73 8.95533
459 2 7.84285 134.634 9.10747
460 2 11.8855 134.487 9.15153
461 2 0.0364094 138.481 8.97315
462 2 4.03919 138.533 8.87449
463 2 8.10613 138.525 8.97353
464 2 11.8941 138.505 9.00167
465 2 -0.102134 142.376 8.81689
466 2 4.01605 142.386 8.89425
467 2 7.65914 142.289 8.92705
468 2 11.9528 142.436 8.87389
469 2 15.7528 146.349 8.89021
470 2 3.89028 146.363 8.95252
471 2 7.9283 146.204 8.80238
472 2 11.9204 146.275 8.94023
473 2 -0.23771 150.212 8.73321
474 2 3.89347 150.28 9.01139
475 2 7.76447 150.153 8.91568
476 2 11.6793 150.228 8.84586
477 2 -0.130788 154.059 8.76006
478 2 3.85234 153.988 8.97052
479 2 7.897 154.079 8.77035
480 2 11.7018 154.161 8.8194
481 2 15.9548 158.036 12.8189
482 2 3.85189 158.09 12.895
483 2 7.70641 157.994 12.8792
484 2 11.731 158.009 12.8576
485 2 -0.12457 3.72963 12.9446
486 2 4.07216 3.64202 12.7608
487 2 7.71952 3.5784 12.7595
488 2 11.7436 3.61263 12.7081
489 2 15.769 7.45476 12.7792
490 2 3.94871 7.58105 12.6103
491 2 7.8623 7.64449 12.7236
492 2 11.7299 7.4312 12.7664
493 2 15.7383 11.4065 12.714
494 2 4.0398 11.462 12.5624
495 2 7.76744 11.3554 12.5127
496 2 11.9001 11.3763 12.6834
497 2 15.9449 15.3926 12.7109
498 2 3.98724 15.197 12.6988
499 2 7.69619 15.336 12.6546
500 2 11.7481 15.3267 12.7597
501 2 15.7293 19.1388 12.6834
502 2 3.88437 19.2308 12.6073
503 2 7.77038 19.207 12.5642
504 2 11.702 19.2262 12.5793
505 2 15.6475 23.2252 12.6011
506 2 3.96877 23.1075 12.6298
507 2 7.9543 23.2774 12.5939
508 2 11.8304 23.0584 12.4294
509 2 0.0654051 26.9641 12.2397
510 2 4.08477 27.0676 12.441
511 2 7.92389 27.1197 12.4527
512 2 11.757 27.012 12.3466
513 2 15.7289 31.0428 12.2759
514 2 3.86946 30.9421 12.3157
515 2 7.80169 31.0465 12.3945
516 2 11.6564 30.9805 12.4155
517 2 -0.197321 35.0625 12.4728
518 2 3.81486 34.9146 12.3468
519 2 7.61287 35.0709 12.5178
520 2 11.7809 35.0268 12.2921
521 2 0.00914209 38.9455 12.5463
522 2 3.89072 38.8859 12.4183
523 2 7.94268 39.036 12.5111
524 2 11.8666 38.8548 12.4508
525 2 -0.0811854 42.8208 12.5448
526 2 4.0689 42.9297 12.5203
527 2 7.8823 42.9199 12.3057
528 2 11.9575 42.9045 12.5716
529 2 -0.0453689 46.7263 12.5285
530 2 3.85065 46.9155 12.6672
531 2 7.7756 46.9272 12.2224
532 2 11.9227 46.936 12.4731
533 2 15.736 50.7802 12.7187
534 2 3.96223 50.9689 12.6171
535 2 7.8051 50.9606 12.707
536 2 11.7842 50.9328 12.7545
537 2 0.0411692 55.0255 12.7576
538 2 3.94994 54.9846 12.6259
539 2 8.08463 55.0112 12.8636
540 2 12.0031 55.0347 12.7899
541 2 15.8773 59.094 12.8382
542 2 3.91116 59.0018 12.8209
543 2 7.80258 58.9253 12.8248
544 2 11.7563 59.0353 12.7547
545 2 15.9651 63.0635 12.7073
546 2 4.03849 63.1398 12.851
547 2 7.96434 63.0318 12.6739
548 2 11.6751 63.1254 12.687
549 2 -0.0296518 67.0859 12.8877
550 2 4.00171 67.1508 12.7272
551 2 7.95728 67.1679 12.7322
552 2 11.7666 67.0144 12.7698
553 2 0.00692029 71.152 12.8504
554 2 4.15252 71.3984 12.9398
555 2 7.9109 71.1634 13.029
556 2 11.7367 71.2085 12.9644
557 2 0.0110873 75.045 13.0261
558 2 3.88057 75.2183 13.0972
559 2 7.66809 75.3243 12.8908
560 2 11.7856 75.1999 12.9761
561 2 15.7271 79.343 13.0782
562 2 3.98574 79.3893 12.9265
563 2 7.96174 79.1416 13.1174
564 2 11.8415 79.1046 13.0738
565 2 0.014051 83.252 13.166
566 2 3.94671 83.2557 13.1104
567 2 7.81969 83.3021 13.198
568 2 11.6607 83.503 13.132
569 2 15.7901 87.2053 13.0692
570 2 3.82468 87.2795 13.2286
571 2 7.80332 87.4365 12.989
572 2 11.768 87.2944 13.2554
573 2 -0.169122 91.3562 13.3293
574 2 3.6749 91.2472 13.444
575 2 7.64953 91.4935 13.1649
576 2 11.7847 91.4606 13.335
577 2 -0.213147 95.4581 13.332
578 2 3.92145 95.6008 13.4606
579 2 7.98119 95.4245 13.4215
580 2 11.6919 95.2356 13.5317
581 2 -0.139603 99.4548 13.4106
582 2 3.88485 99.5663 13.5566
583 2 8.02565 99.2864 13.48
584 2 11.7533 99.2593 13.6629
585 2 15.7695 103.459 13.5219
586 2 3.76544 103.488 13.5628
587 2 8.04144 103.216 13.59
588 2 11.9915 103.385 13.5946
589 2 15.891 107.36 13.4313
590 2 3.87101 107.479 13.4785
591 2 7.89728 107.054 13.393
592 2 11.8927 107.37 13.3381
593 2 0.18358 111.277 13.2613
594 2 4.24508 111.174 13.2058
595 2 8.05474 111.061 13.5023
596 2 12.0734 111.221 13.3168
597 2 0.0969097 115.12 13.2693
598 2 4.05821 115.213 13.3257
599 2 8.08261 115.195 13.4713
600 2 11.8906 115.04 13.1882
601 2 15.9546 119.085 13.1427
602 2 3.95678 118.994 13.1215
603 2 7.79208 119.016 13.3224
604 2 12.0194 118.931 13.2008
605 2 15.7594 122.966 13.3402
606 2 3.83492 122.904 13.205
607 2 7.88011 122.984 13.2874
608 2 11.9432 123.059 13.1217
609 2 -0.0874118 126.907 13.0866
610 2 3.76605 126.943 13.2183
611 2 7.97795 127.019 13.1393
612 2 11.6755 126.852 13.0556
613 2 15.7087 130.705 13.073
614 2 4.00789 130.673 13.1165
615 2 7.8898 130.905 13.2301
616 2 11.8351 130.75 13.0265
617 2 -0.0050114 134.711 13.0726
618 2 3.81459 134.919 13.0812
619 2 8.00409 134.748 13.121
620 2 11.8221 134.554 12.9503
621 2 -0.0769484 138.491 13.0365
622 2 4.04032 138.707 12.9622
623 2 7.96989 138.468 13.0729
624 2 11.7678 138.675 13.0917
625 2 15.8309 142.241 12.9523
626 2 3.75095 142.588 13.0251
627 2 7.87277 142.41 12.9861
628 2 11.7135 142.348 13.0708
629 2 15.8488 146.24 13.0621
630 2 3.88734 146.476 12.8724
631 2 7.91787 146.537 12.888
632 2 11.8831 146.287 12.7516
633 2 -0.112721 150.102 12.7559
634 2 3.89652 150.237 12.9088
635 2 7.95822 150.333 12.8731
636 2 11.9389 150.078 12.9018
637 2 -0.0145284 154.053 12.8737
638 2 3.93043 154.329 12.9571
639 2 7.75102 154.112 12.7712
640 2 11.9598 154.148 12.9175
641 2 0.12311 158.19 16.7669
642 2 3.73106 158.06 16.8954
643 2 7.84858 158.118 16.9557
644 2 11.7108 158.114 16.9198
645 2 15.6166 3.80693 16.7281
646 2 3.89062 3.78759 16.7262
647 2 7.93819 3.59944 16.7056
648 2 11.9221 3.72475 16.8338
649 2 15.8976 7.51965 16.6259
650 2 4.04266 7.65416 16.6659
651 2 7.84817 7.57378 16.857
652 2 11.7008 7.57465 16.6465
653 2 -0.0904956 11.4027 16.603
654 2 3.89614 11.493 16.6612
655 2 7.86505 11.5194 16.8009
656 2 11.8536 11.5368 16.7578
657 2 -0.0876408 15.2736 16.7214
658 2 3.84112 15.2118 16.6176
659 2 7.88328 15.519 16.843
660 2 11.8504 15.4132 16.7403
661 2 15.779 19.0747 16.5786
662 2 3.93118 19.2657 16.6159
663 2 7.81675 19.4491 16.694
664 2 11.8177 19.1651 16.5711
665 2 -0.0544639 23.1625 16.514
666 2 3.93728 22.9972 16.5634
667 2 7.78272 23.3773 16.5968
668 2 11.7586 23.1692 16.496
669 2 15.8957 26.972 16.3459
670 2 4.08442 27.1098 16.493
671 2 7.8624 27.0883 16.4778
672 2 12.0542 27.3189 16.4833
673 2 15.8847 30.884 16.1856
674 2 3.82361 30.9646 16.5448
675 2 8.13399 30.9457 16.3909
676 2 11.9246 31.1551 16.3959
677 2 15.5795 35.0012 16.3897
678 2 3.70841 34.8585 16.3464
679 2 7.74206 34.8069 16.3245
680 2 11.7746 34.9401 16.4512
681 2 15.7639 38.8805 16.4637
682 2 3.83051 38.9492 16.3762
683 2 7.70156 38.7542 16.3906
684 2 11.8643 38.8574 16.5727
685 2 0.0324143 42.882 16.4214
686 2 4.06716 42.8188 16.4493
687 2 7.83548 42.8449 16.324
688 2 11.9746 42.8568 16.4257
689 2 15.6324 46.734 16.3923
690 2 3.89506 46.9219 16.5858
691 2 7.92739 46.7897 16.3967
692 2 11.8291 46.8525 16.4254
693 2 15.8249 50.8443 16.653
694 2 3.95459 50.9396 16.5971
695 2 7.97507 50.851 16.6071
696 2 11.8828 50.9394 16.5476
697 2 16.0725 55.098 16.578
698 2 4.10138 54.8475 16.6655
699 2 8.08955 55.2046 16.6096
700 2 12.0624 55.1232 16.5193
701 2 15.9176 59.1112 16.631
702 2 3.97546 58.8568 16.7223
703 2 7.83714 58.9307 16.6792
704 2 11.7809 59.0713 16.787
705 2 15.9108 63.1829 16.5046
706 2 3.92032 63.0672 16.6646
707 2 7.98366 63.0614 16.7505
708 2 11.7585 62.9751 16.8152
709 2 -0.0894977 67.1582 16.7617
710 2 3.95912 67.0221 16.8797
711 2 7.71473 67.207 16.8754
712 2 11.9512 67.1852 16.5836
713 2 0.0801144 71.108 16.988
714 2 3.82516 71.1478 16.7533
715 2 7.88846 71.1241 16.717
716 2 11.7239 71.0137 16.9608
717 2 15.7478 75.1382 16.8809
718 2 3.82975 75.3058 16.9412
719 2 7.83926 75.081 16.8847
720 2 11.911 75.0871 16.8152
721 2 0.0116523 79.1249 16.9152
722 2 3.90716 79.107 17.0386
723 2 7.9749 79.2601 16.9357
724 2 11.9325 79.1596 16.8777
725 2 -0.0260215 83.1726 17.0618
726 2 4.05166 83.2128 16.9401
727 2 8.00454 83.3979 16.8258
728 2 11.82 83.1479 17.1556
729 2 0.0603519 87.3178 17.2489
730 2 3.82529 87.3154 17.1638
731 2 7.70025 87.4872 16.952
732 2 11.8375 87.3104 17.1654
733 2 -0.10298 91.296 17.2223
734 2 3.72741 91.36 17.2989
735 2 7.8499 91.2897 17.1942
736 2 11.8808 91.2878 17.1001
737 2 15.6976 95.253 17.3761
738 2 3.82428 95.2784 17.252
739 2 7.80792 95.3627 17.5008
740 2 11.751 95.3229 17.4183
741 2 15.6795 99.2829 17.4009
742 2 3.75356 99.0324 17.3607
743 2 7.67029 99.2297 17.4912
744 2 11.7957 99.3008 17.4946
745 2 15.8218 103.072 17.3062
746 2 3.88428 103.485 17.3298
747 2 7.85613 103.323 17.2595
748 2 11.8981 103.355 17.4131
749 2 15.8434 107.345 17.425
750 2 3.80655 107.45 17.5017
751 2 7.841 107.369 17.2578
752 2 11.8644 107.428 17.4007
753 2 -0.0611022 111.3 17.3043
754 2 3.92845 111.298 17.4718
755 2 7.83867 111.147 17.3726
756 2 12.0402 111.166 17.1937
757 2 15.7747 115.22 17.2273
758 2 3.94257 115.103 17.1627
759 2 8.03675 115.036 17.3927
760 2 11.9123 115.155 17.2948
761 2 -0.123913 119.175 17.2435
762 2 3.87283 118.815 17.3134
763 2 7.87058 118.969 17.246
764 2 11.7045 119.226 17.1805
765 2 0.003448 122.84 17.1658
766 2 3.90606 122.799 17.2237
767 2 7.72112 122.982 17.1619
768 2 12.015 122.729 17.1178
769 2 -0.0345736 126.96 17.1471
770 2 3.80734 126.791 17.2345
771 2 7.91224 126.784 17.3113
772 2 11.9105 126.711 17.058
773 2 15.6382 130.789 16.9932
774 2 4.01362 130.699 17.0882
775 2 7.87184 130.705 17.2084
776 2 11.7463 130.811 17.0846
777 2 15.823 134.465 17.0425
778 2 3.94695 134.597 17.1495
779 2 8.01755 134.689 17.1244
780 2 12.0253 134.483 17.2528
781 2 15.9113 138.584 17.1372
782 2 4.05249 138.433 17.1578
783 2 7.99088 138.525 17.0752
784 2 12.1089 138.432 17.0583
785 2 15.8185 142.487 16.961
786 2 4.09091 142.53 17.0128
787 2 7.92018 142.595 16.9917
788 2 11.7409 142.454 17.0621
789 2 -0.0762446 146.367 16.9772
790 2 3.95018 146.558 16.9382
791 2 7.77372 146.422 17.0675
792 2 11.7445 146.299 17.008
793 2 15.737 150.236 16.7974
794 2 3.91229 150.356 17.0508
795 2 8.01792 150.475 16.9107
796 2 11.6454 150.355 16.8788
797 2 -0.059485 154.227 16.8834
798 2 3.80246 154.282 16.957
799 2 7.98501 154.236 16.9645
800 2 11.8207 154.059 17.0877
801 2 15.8445 158.081 20.888
802 2 3.89856 158.168 20.7904
803 2 7.94063 -0.237484 20.86
804 2 11.9812 158.11 20.8855
805 2 15.8947 3.78856 20.7727
806 2 3.9798 3.76479 20.8782
807 2 7.95249 3.58655 20.9466
808 2 11.9277 3.74222 20.7411
809 2 15.9048 7.61803 20.8217
810 2 4.16922 7.63301 20.7399
811 2 8.1172 7.73972 20.7845
812 2 11.9547 7.57539 20.802
813 2 -0.019114 11.4402 20.7611
814 2 3.89329 11.5734 20.7311
815 2 7.82822 11.5021 20.8586
816 2 11.7226 11.499 20.7657
817 2 15.749 15.2916 20.7211
818 2 3.69286 15.4966 20.7128
819 2 7.9418 15.2345 20.7173
820 2 11.797 15.1924 20.8205
821 2 0.00580862 19.2452 20.6709
822 2 3.95485 19.2752 20.6206
823 2 7.75136 19.2184 20.6387
824 2 11.7027 19.5262 20.5632
825 2 15.8036 23.1748 20.624
826 2 3.76916 23.2074 20.5807
827 2 7.78757 23.3373 20.4023
828 2 11.9659 23.2646 20.7133
829 2 -0.161605 27.1261 20.5704
830 2 3.73354 26.9651 20.4759
831 2 7.81054 27.3208 20.5544
832 2 11.9709 27.1984 20.4201
833 2 15.9612 31.0324 20.3864
834 2 3.7331 31.0034 20.3205
835 2 7.83129 31.1101 20.5073
836 2 11.7398 31.0363 20.5
837 2 -0.0568891 34.7445 20.4274
838 2 3.96583 35.0479 20.4249
839 2 7.64016 34.8244 20.4159
840 2 11.7375 34.739 20.3539
841 2 15.6925 38.8197 20.364
842 2 3.8584 38.8414 20.365
843 2 7.84771 38.916 20.3432
844 2 11.735 38.8771 20.4509
845 2 -0.178341 42.9946 20.3714
846 2 3.76112 42.7878 20.4564
847 2 7.82201 42.909 20.2754
848 2 11.7002 42.8301 20.2971
849 2 -0.119312 46.898 20.3957
850 2 3.91305 46.8135 20.4123
851 2 7.92553 46.9163 20.6082
852 2 11.9236 46.6811 20.3736
853 2 -0.0987648 50.8312 20.3761
854 2 4.02939 50.762 20.4659
855 2 8.08168 50.7917 20.3633
856 2 11.7935 50.867 20.4591
857 2 15.8662 54.74 20.4637
858 2 4.09619 54.807 20.5504
859 2 8.09518 54.8377 20.5093
860 2 11.9972 54.9477 20.3685
861 2 15.765 58.8348 20.4318
862 2 3.67367 58.9093 20.7393
863 2 7.96603 58.8771 20.628
864 2 11.9492 58.9745 20.656
865 2 15.7093 62.8996 20.6807
866 2 4.02733 63.0243 20.5357
867 2 7.98765 63.0266 20.7068
868 2 11.8727 63.0088 20.6769
869 2 15.702 66.9579 20.6569
870 2 4.11152 66.9314 20.4371
871 2 7.92831 67.1054 20.6463
872 2 11.8578 67.1459 20.6563
873 2 -0.067507 71.1466 20.8154
874 2 4.00346 71.0035 20.7388
875 2 7.84606 71.0108 20.8302
876 2 11.7138 71.0108 20.7274
877 2 15.5662 75.1659 20.8027
878 2 3.67989 75.2293 20.8246
879 2 7.82856 74.9905 20.8891
880 2 11.6769 75.1977 20.6436
881 2 -0.0722494 79.1287 20.956
882 2 3.96733 79.0787 20.8917
883 2 7.75941 79.1117 20.9099
884 2 11.8391 79.0304 21.0884
885 2 -0.0560783 83.1462 20.9144
886 2 3.93005 83.1851 20.9209
887 2 7.86531 83.2411 20.9466
888 2 11.9223 83.0818 21.0759
889 2 15.9329 87.1048 21.1399
890 2 3.90452 87.0912 21.062
891 2 7.90122 87.2749 20.9898
892 2 11.9472 87.1784 21.0209
893 2 15.8142 91.0509 21.2423
894 2 3.8452 91.1706 21.2709
895 2 7.71378 91.153 21.1652
896 2 11.8016 91.1782 21.2026
897 2 -0.141185 95.2336 21.3572
898 2 3.91729 95.109 21.0714
899 2 7.73205 95.1523 21.3294
900 2 11.6776 95.188 21.197
901 2 15.8216 99.2376 21.201
902 2 4.02654 99.2213 21.2343
903 2 8.0164 99.2945 21.395
904 2 11.6312 99.3439 21.2254
905 2 0.112818 103.228 21.3874
906 2 3.82797 103.523 21.1725
907 2 8.04299 103.17 21.2931
908 2 11.9491 103.224 21.3727
909 2 15.7081 107.407 21.3346
910 2 3.93449 107.386 21.4711
911 2 7.95525 107.021 21.3623
912 2 11.6501 107.089 21.315
913 2 15.7734 111.193 21.4246
914 2 3.7286 111.372 21.2641
915 2 7.78609 111.037 21.1843
916 2 11.7483 111.304 21.3146
917 2 -0.0444003 115.236 21.3762
918 2 4.02873 115.156 21.1804
919 2 7.73595 115.226 21.5444
920 2 11.7826 115.085 21.3642
921 2 15.6909 119.213 21.1763
922 2 3.87476 118.997 21.2979
923 2 7.71487 119.105 21.3719
924 2 11.8627 118.974 21.3528
925 2 15.8799 123.021 21.327
926 2 4.03589 122.909 21.3493
927 2 8.06321 122.984 21.3017
928 2 11.9637 122.89 21.1711
929 2 -0.0330873 126.848 21.3194
930 2 3.96486 126.789 21.2998
931 2 7.87008 126.941 21.2835
932 2 11.943 126.797 21.0504
933 2 -0.121935 130.829 21.2183
934 2 3.8319 130.708 21.2804
935 2 7.7252 130.911 21.322
936 2 11.7193 130.845 21.1743
937 2 15.9488 134.68 21.2539
938 2 3.88752 134.697 21.2819
939 2 8.01413 134.665 21.1637
940 2 11.8248 134.79 21.1728
941 2 0.0697746 138.595 20.9623
942 2 4.05561 138.551 21.1614
943 2 7.8588 138.638 21.1015
944 2 11.835 138.611 21.064
945 2 16.0414 142.467 21.0396
946 2 3.98618 142.595 21.0505
947 2 8.01417 142.428 21.0568
948 2 11.8971 142.5 21.0872
949 2 15.8675 146.353 21.0683
950 2 3.94206 146.48 20.9201
951 2 8.06661 146.492 21.0675
952 2 11.9803 146.662 20.916
953 2 15.7016 150.185 21.0754
954 2 3.90083 150.265 20.9126
955 2 7.81442 150.443 21.0327
956 2 11.717 150.244 20.9937
957 2 -0.128963 154.339 20.9667
958 2 4.05948 154.331 20.7654
959 2 7.97103 154.224 21.0745
960 2 11.8058 154.109 20.8929
961 2 -0.065722 158.285 25.0267
962 2 3.94682 158.129 24.9432
963 2 7.97902 158.403 24.9125
964 2 11.8963 158.223 24.9659
965 2 -0.109867 3.79999 24.7072
966 2 4.02356 3.89259 24.8397
967 2 7.80286 3.75102 24.948
968 2 11.7699 3.97593 24.9582
969 2 15.8956 7.77036 24.9354
970 2 3.9588 7.58008 24.9291
971 2 7.88926 7.75488 24.9154
972 2 12.0507 7.76541 24.9054
973 2 16.0382 11.6573 24.7332
974 2 4.01256 11.6522 24.8066
975 2 8.06239 11.5007 24.8973
976 2 11.9782 11.7294 24.7334
977 2 15.7906 15.5344 24.7279
978 2 4.04951 15.5901 24.6516
979 2 7.82174 15.5597 24.8202
980 2 11.885 15.7073 24.5949
981 2 -0.230629 19.4867 24.7639
982 2 3.73365 19.3787 24.7779
983 2 7.7934 19.5798 24.7356
984 2 11.9812 19.3745 24.7129
985 2 15.7432 23.3976 24.5586
986 2 3.96415 23.3796 24.5021
987 2 7.99507 23.2673 24.5569
988 2 11.8241 23.264 24.5795
989 2 15.7647 27.2528 24.5666
990 2 4.05627 27.098 24.4584
991 2 7.91346 27.1623 24.4044
992 2 11.9427 27.1777 24.4723
993 2 15.8791 31.0341 24.4366
994 2 3.9901 31.1792 24.4396