ITEM: TIMESTEP
24200
ITEM: NUMBER OF ATOMS
32000
ITEM: BOX BOUNDS xy xz yz pp pp pp
0.0000000000000000e+00 1.5832000000000001e+01 0.0000000000000000e+00
0.0000000000000000e+00 1.5831999999999999e+02 0.0000000000000000e+00
8.8154537664442500e-01 1.6009557262335056e+02 0.0000000000000000e+00
ITEM: ATOMS id type x y z
1 2 -0.100498 157.792 159.932
2 2 4.05657 158.021 159.906
3 2 7.86625 157.946 159.834
4 2 11.842 158.047 160.116
5 2 0.0959548 3.45693 159.935
6 2 3.9179 3.37804 159.936
7 2 8.05511 3.55371 159.803
8 2 11.8595 3.40355 159.927
9 2 15.7291 7.33249 159.751
10 2 4.02297 7.30315 159.909
11 2 8.08636 7.50464 159.894
12 2 11.8399 7.49771 159.94
13 2 0.15062 11.3343 159.7
14 2 3.99349 11.1742 159.872
15 2 7.74698 11.3729 159.785
16 2 11.8063 11.3469 159.833
17 2 0.161668 15.3519 159.704
18 2 3.98847 15.4229 159.581
19 2 8.03102 15.2545 159.841
20 2 11.7647 15.3413 159.744
21 2 0.23238 19.2481 159.741
22 2 3.87895 19.1161 159.955
23 2 7.93243 19.3405 159.547
24 2 12.0022 19.2625 159.757
25 2 0.0799797 22.9645 159.667
26 2 3.93965 23.0537 159.774
27 2 7.87773 23.2207 159.547
28 2 11.7992 23.0785 159.806
29 2 -0.104913 27.0403 159.888
30 2 3.9397 26.8751 159.708
31 2 7.98945 27.1686 159.626
32 2 11.9161 26.8565 159.658
33 2 15.7098 30.9531 159.662
34 2 3.87816 31.0858 159.867
35 2 7.94344 30.9591 159.839
36 2 11.9969 31.2874 159.853
37 2 15.7526 35.0862 159.688
38 2 3.78779 35.1251 159.87
39 2 7.8792 35.1012 159.917
40 2 11.8386 35.0848 159.794
41 2 0.179936 39.172 159.633
42 2 3.94092 39.1861 159.855
43 2 8.03352 39.2325 159.892
44 2 12.0189 39.1901 159.844
45 2 15.8969 43.0608 159.938
46 2 3.82112 43.0437 0.798064
47 2 7.78015 43.3088 159.989
48 2 11.7216 43.2286 160.114
49 2 15.6856 47.0436 160.043
50 2 3.77587 47.1099 160.267
51 2 7.89549 47.3353 159.938
52 2 11.664 47.085 160.058
53 2 15.9432 51.2714 1.0067
54 2 4.10059 51.3118 160.409
55 2 8.07072 51.4078 160.018
56 2 11.8933 51.1025 0.837011
57 2 15.8282 55.347 1.12535
58 2 4.10413 55.328 0.951508
59 2 7.94074 55.3623 1.16755
60 2 11.8576 55.2445 0.948473
61 2 0.156975 59.3588 0.95563
62 2 3.97037 59.3013 0.971403
63 2 7.99776 59.1055 1.09779
64 2 11.9076 59.4384 0.998785
65 2 0.0448445 63.3964 0.905416
66 2 4.09409 63.4897 1.02553
67 2 7.72674 63.3792 1.08162
68 2 11.9352 63.2988 1.02753
69 2 15.8037 67.3038 1.03947
70 2 3.99059 67.3971 1.11404
71 2 7.89019 67.4971 1.19855
72 2 11.7401 67.4742 1.13854
73 2 -0.129962 71.2944 1.08
74 2 3.72505 71.3846 1.25248
75 2 7.86639 71.3909 1.30229
76 2 11.8416 71.3108 1.24158
77 2 -0.129804 75.4654 1.32183
78 2 3.83831 75.61 1.54508
79 2 7.85279 75.3385 1.11971
80 2 11.8672 75.2722 1.01816
81 2 -0.153761 79.5598 1.44038
82 2 3.92884 79.4368 1.2417
83 2 7.88732 79.3326 1.38272
84 2 11.9575 79.2178 1.26706
85 2 -0.281497 83.511 1.46057
86 2 3.59369 83.5489 1.3106
87 2 7.88751 83.572 1.39459
88 2 11.7557 83.5334 1.41007
89 2 0.0506749 87.2371 1.47451
90 2 3.93033 87.5392 1.47187
91 2 7.84072 87.7083 1.58126
92 2 11.8552 87.4193 1.56464
93 2 15.7873 91.2604 1.49139
94 2 3.86141 91.4233 1.32341
95 2 7.78728 91.4436 1.46328
96 2 12.057 91.5101 1.51283
97 2 15.8918 95.2973 1.43229
98 2 3.96032 95.2746 1.4239
99 2 8.02462 95.255 1.61324
100 2 11.7485 95.3157 1.30764
101 2 16.02 99.268 1.45904
102 2 4.07717 99.3164 1.39649
103 2 7.78796 99.2454 1.40008
104 2 12.0181 99.4178 1.5106
105 2 -0.0238589 103.187 1.32023
106 2 3.87514 103.234 1.27867
107 2 7.98556 103.213 1.25713
108 2 11.8177 103.241 1.38706
109 2 15.8581 107.164 1.27892
110 2 3.95185 107.042 1.43122
111 2 7.87107 107.174 1.35627
112 2 11.8836 107.188 1.47266
113 2 15.9341 110.979 0.941079
114 2 4.10277 110.968 1.39693
115 2 7.82061 110.914 1.33321
116 2 11.826 111.077 1.33094
117 2 15.8141 115.097 1.18947
118 2 4.04704 114.905 1.15811
119 2 7.85238 115.054 1.29807
120 2 11.773 114.887 1.11088
121 2 -0.0642355 118.83 1.22315
122 2 3.85549 119.019 1.28242
123 2 7.80153 118.857 1.18888
124 2 11.8332 118.714 1.32254
125 2 -0.0824771 122.675 1.25399
126 2 4.15466 122.717 1.18287
127 2 8.01544 122.7 1.16187
128 2 11.9837 122.689 1.37338
129 2 -0.104531 126.73 1.10185
130 2 3.79855 126.762 1.23652
131 2 8.05072 126.772 1.07045
132 2 11.9503 126.729 1.14366
133 2 -0.0300881 130.827 1.02756
134 2 3.95458 130.695 1.08743
135 2 7.90976 130.383 1.00601
136 2 11.8992 130.567 1.22414
137 2 15.8639 134.711 1.07069
138 2 3.97368 134.533 160.383
139 2 8.03486 134.361 1.02165
140 2 11.7081 134.59 1.09609
141 2 15.709 138.465 1.03089
142 2 3.84446 138.521 0.956293
143 2 7.82112 138.425 1.00075
144 2 11.7189 138.374 0.966358
145 2 -0.00642349 142.264 1.03065
146 2 4.16314 142.148 0.989567
147 2 7.92358 142.355 1.06924
148 2 11.9179 142.324 0.997123
149 2 0.126835 146.217 0.658691
150 2 4.0451 146.179 160.092
151 2 7.87616 146.256 0.908149
152 2 11.9745 146.242 160.138
153 2 0.0504932 150.175 160.144
154 2 3.8907 150.094 159.976
155 2 7.83191 150.098 0.769791
156 2 11.7794 150.142 0.857902
157 2 -0.0392259 154.019 159.92
158 2 3.95609 154.099 159.94
159 2 7.68223 154.092 159.688
160 2 11.8077 154.022 160.148
161 2 0.0130989 157.87 4.76998
162 2 3.7116 -0.509974 4.58303
163 2 7.77491 158.041 4.74719
164 2 11.8821 158.044 4.92672
165 2 -0.0617614 3.64069 4.6633
166 2 3.88002 3.55338 4.73768
167 2 7.94713 3.73518 4.80675
168 2 12.0017 3.6135 4.53238
169 2 0.189218 7.61785 4.69753
170 2 4.10039 7.32653 4.57379
171 2 7.82997 7.46716 4.9014
172 2 11.9369 7.62442 4.77967
173 2 0.0234482 11.4324 4.58922
174 2 3.75842 11.3288 4.46718
175 2 7.83714 11.4331 4.56038
176 2 11.834 11.2496 4.64184
177 2 -0.0688592 15.0866 4.52814
178 2 3.7058 15.3374 4.39025
179 2 7.93401 15.4373 4.60956
180 2 12.0243 14.9996 4.51449
181 2 -0.111068 19.2672 4.6519
182 2 3.79951 19.0936 4.49012
183 2 7.94081 19.2895 4.42722
184 2 11.9918 19.2033 4.42461
185 2 -0.179941 23.0732 4.58555
186 2 3.96094 23.1319 4.59193
187 2 7.95105 23.1889 4.4654
188 2 11.6205 23.0804 4.30793
189 2 -0.0223145 26.9427 4.47186
190 2 3.62184 27.1197 4.50307
191 2 7.65612 26.9271 4.53192
192 2 11.7863 26.89 4.62448
193 2 -0.0933346 30.866 4.4628
194 2 3.93458 31.0415 4.36127
195 2 7.8784 31.0617 4.51204
196 2 11.7144 31.2015 4.45636
197 2 15.815 35.161 4.55031
198 2 3.95586 35.006 4.53971
199 2 7.75894 35.0591 4.54907
200 2 11.9007 35.0671 4.44831
201 2 -0.0190536 38.9731 4.56028
202 2 3.95165 39.1145 4.77981
203 2 7.90974 38.8857 4.52992
204 2 11.8505 39.0368 4.65163
205 2 15.7461 42.9554 4.48573
206 2 4.00727 43.1946 4.72905
207 2 7.94632 42.8832 4.87462
208 2 11.7334 42.902 4.59866
209 2 15.7351 47.2233 4.70724
210 2 3.99341 47.2239 4.8981
211 2 7.92258 47.089 4.83598
212 2 11.7133 46.9948 4.68854
213 2 15.7106 51.1883 4.95671
214 2 3.83257 51.0475 4.78778
215 2 7.9468 51.2364 4.77238
216 2 11.8474 51.0789 4.767
217 2 0.135043 55.0898 4.89553
218 2 4.00073 55.0517 4.94364
219 2 7.84019 55.1644 5.04257
220 2 11.7478 55.3684 4.7112
221 2 15.9301 59.1822 5.07299
222 2 3.96431 59.3264 5.01044
223 2 7.77183 59.2982 4.96356
224 2 12.0959 59.3449 5.15891
225 2 15.9736 63.0159 4.9933
226 2 4.05117 63.1408 5.0009
227 2 7.99921 63.1746 5.05822
228 2 11.8845 63.2618 4.86372
229 2 0.0701852 67.1711 5.10508
230 2 3.77055 67.1421 4.99755
231 2 7.86443 67.4162 5.25274
232 2 11.9682 67.2004 4.93404
233 2 -0.0550334 71.2165 4.93657
234 2 3.86386 71.4387 4.98055
235 2 7.82841 71.3272 5.02365
236 2 11.9242 71.3001 5.1343
237 2 15.7446 75.2867 5.29114
238 2 3.6777 75.3691 5.41134
239 2 7.99431 75.2945 5.1835
240 2 11.7754 75.4182 5.32392
241 2 -0.0460851 79.4056 5.19748
242 2 3.99728 79.3845 5.17734
243 2 7.83261 79.561 5.12707
244 2 11.6241 79.4296 5.17447
245 2 -0.17404 83.5671 5.27512
246 2 3.8118 83.3383 5.24828
247 2 7.83378 83.4508 5.41602
248 2 11.593 83.5084 5.32469
249 2 -0.145096 87.4056 5.49495
250 2 3.98122 87.5738 5.5225
251 2 7.84729 87.5639 5.36649
252 2 11.6599 87.6153 5.30653
253 2 0.0108461 91.437 5.44466
254 2 4.01217 91.401 5.53894
255 2 7.83284 91.4453 5.53939
256 2 11.8357 91.5445 5.43606
257 2 15.761 95.4059 5.50408
258 2 4.08608 95.4446 5.38023
259 2 7.94141 95.4622 5.66618
260 2 11.9874 95.4353 5.37165
261 2 0.127059 99.4737 5.49844
262 2 3.90167 99.3898 5.29527
263 2 7.95186 99.3707 5.50185
264 2 11.7088 99.5912 5.30678
265 2 0.0552968 103.292 5.35624
266 2 3.92766 103.409 5.40133
267 2 7.90057 103.151 5.29779
268 2 11.8292 103.374 5.20681
269 2 0.295732 107.156 5.30946
270 2 4.1226 107.209 5.50933
271 2 7.99701 107.09 5.37518
272 2 12.2183 107.335 5.23354
273 2 15.9163 111.15 5.30106
274 2 4.04378 111.135 5.29694
275 2 7.9246 111.078 5.37438
276 2 11.8919 110.998 5.23481
277 2 15.7568 114.882 5.33623
278 2 3.94461 114.878 5.25748
279 2 7.802 114.973 5.28048
280 2 12.0298 114.73 5.25734
281 2 15.8972 118.82 5.41236
282 2 3.98646 118.874 5.08663
283 2 7.91193 119.032 5.33508
284 2 11.7983 118.807 5.30371
285 2 -0.0943205 122.822 5.25871
286 2 3.99775 122.897 5.08013
287 2 7.94865 122.864 5.20454
288 2 11.9016 122.733 5.07193
289 2 0.00851538 126.749 5.21913
290 2 3.89023 126.597 5.08739
291 2 7.82807 126.83 5.08409
292 2 11.786 126.637 5.31054
293 2 0.149692 130.693 5.10527
294 2 4.12152 130.759 5.21285
295 2 7.83009 130.562 5.17587
296 2 11.7924 130.568 5.10336
297 2 15.8603 134.552 5.24051
298 2 3.81909 134.483 5.14818
299 2 7.85757 134.382 5.03773
300 2 11.7216 134.602 5.05757
301 2 0.078839 138.427 5.11625
302 2 3.8231 138.312 5.11711
303 2 7.71986 138.38 5.12781
304 2 11.8464 138.522 5.0591
305 2 -0.00192526 142.277 5.08501
306 2 3.83117 142.368 4.97684
307 2 7.99269 142.345 5.05305
308 2 11.8567 142.444 5.03497
309 2 -0.0416709 146.138 4.98962
310 2 3.82275 146.225 4.84114
311 2 7.9251 146.222 5.06588
312 2 12.0286 146.264 4.96526
313 2 15.8955 150.088 4.81249
314 2 4.04185 149.894 4.72736
315 2 7.82786 150.215 4.89972
316 2 12.0235 150.112 4.82948
317 2 -0.0774915 153.839 4.73718
318 2 3.93379 153.945 4.89957
319 2 7.86166 153.916 4.73562
320 2 11.8438 154.013 4.84046
321 2 -0.0404605 158.164 8.8751
322 2 3.86236 158.283 8.75645
323 2 7.76169 158 8.6679
324 2 11.577 158.06 8.68271
325 2 15.9012 3.51664 8.50128
326 2 3.91442 3.51835 8.66109
327 2 7.87172 3.6021 8.72706
328 2 11.9082 3.83395 8.56627
329 2 0.00522478 7.6069 8.76131
330 2 3.97666 7.69302 8.73589
331 2 7.73732 7.66529 8.76367
332 2 11.8894 7.63628 8.79209
333 2 -0.00709621 11.4793 8.66625
334 2 3.84042 11.4312 8.69859
335 2 7.73771 11.5872 8.60758
336 2 11.5888 11.2892 8.61144
337 2 -0.0150682 15.2605 8.5526
338 2 4.0163 15.3338 8.65112
339 2 7.86597 15.4001 8.59986
340 2 11.7553 15.3291 8.5297
341 2 0.0468858 19.2028 8.3323
342 2 3.95133 19.0023 8.502
343 2 8.00505 19.1058 8.42768
344 2 11.9464 19.5384 8.63305
345 2 0.0878207 23.1206 8.43893
346 2 4.05668 23.225 8.41407
347 2 8.06603 23.0798 8.61935
348 2 11.7872 23.3027 8.61493
349 2 15.7792 26.9664 8.46294
350 2 3.77431 27.0264 8.48044
351 2 7.83622 26.9518 8.50573
352 2 11.7219 27.0809 8.62653
353 2 0.102077 30.9057 8.45601
354 2 4.05219 30.959 8.4425
355 2 7.86253 30.8407 8.2972
356 2 11.8219 30.7723 8.33328
357 2 15.8156 34.767 8.51601
358 2 3.94055 34.9889 8.60189
359 2 7.90139 34.7929 8.45134
360 2 11.8964 34.9211 8.44931
361 2 15.7432 38.9375 8.42761
362 2 3.85843 39.0968 8.53004
363 2 8.03211 38.8696 8.45339
364 2 11.8094 38.9857 8.48449
365 2 15.9155 43.2806 8.41293
366 2 3.84379 43.1039 8.69407
367 2 7.77123 43.0349 8.70579
368 2 11.8396 42.9257 8.59271
369 2 15.8964 47.1721 8.63356
370 2 4.10692 47.0535 8.62308
371 2 7.92693 47.0652 8.81487
372 2 11.7621 47.1251 8.77903
373 2 -0.0864673 51.2554 8.67461
374 2 3.89848 51.0487 8.77903
375 2 7.97303 51.0477 8.67058
376 2 11.7317 51.1459 8.80331
377 2 0.0546878 55.0346 8.87549
378 2 4.19286 55.3643 8.85858
379 2 7.91027 55.1969 8.85288
380 2 11.9754 55.1123 8.75761
381 2 16.0024 58.9646 8.8337
382 2 4.00427 59.1194 8.98587
383 2 8.03063 59.0467 8.81658
384 2 11.9844 59.2172 8.89547
385 2 15.4784 63.2006 9.01488
386 2 3.99615 63.3047 8.94239
387 2 8.06832 63.3394 9.06367
388 2 11.8815 63.2184 8.9731
389 2 0.0442357 67.1702 9.00621
390 2 3.88542 67.2001 8.88105
391 2 7.70587 67.0718 8.97195
392 2 11.7035 67.1793 9.12869
393 2 15.7134 71.2467 8.93964
394 2 3.84571 71.1083 9.1433
395 2 7.8638 71.2635 8.94085
396 2 11.7678 71.2855 8.86011
397 2 -0.00557422 75.3635 9.14585
398 2 4.04347 75.2378 9.10846
399 2 7.97267 75.3124 9.05555
400 2 11.8185 75.1148 9.19168
401 2 15.8314 79.3365 9.14598
402 2 4.00626 79.3308 9.18405
403 2 7.74962 79.2818 9.08814
404 2 11.624 79.3271 9.27764
405 2 15.759 83.4061 9.18711
406 2 3.67014 83.2491 9.35548
407 2 7.63239 83.5716 9.09127
408 2 11.8952 83.4131 9.21737
409 2 -0.116809 87.4412 9.44184
410 2 3.85247 87.5288 9.36447
411 2 7.78776 87.2822 9.3267
412 2 11.6778 87.2195 9.27468
413 2 -0.0267218 91.4994 9.27366
414 2 3.90621 91.4135 9.40418
415 2 7.9709 91.5909 9.67365
416 2 11.8577 91.4522 9.43218
417 2 -0.00496216 95.19 9.2171
418 2 3.98249 95.3241 9.39725
419 2 8.00151 95.5208 9.51293
420 2 11.8778 95.5627 9.59178
421 2 -0.112979 99.3592 9.43886
422 2 3.76917 99.3402 9.45534
423 2 7.93527 99.1959 9.26098
424 2 11.8597 99.3982 9.40952
425 2 -0.0555569 103.348 9.49857
426 2 3.92652 103.222 9.46048
427 2 7.79823 103.336 9.20134
428 2 11.8862 103.424 9.34594
429 2 -0.0190869 107.197 9.51514
430 2 4.00753 107.316 9.28717
431 2 7.90838 107.198 9.36155
432 2 11.8616 107.229 9.34199
433 2 -0.015801 111.119 9.53496
434 2 3.94498 111.009 9.32441
435 2 7.87432 111.096 9.3639
436 2 11.97 111.131 9.20888
437 2 15.8683 115.015 9.31036
438 2 3.89374 115.14 9.32417
439 2 8.09916 115.085 9.19274
440 2 11.9603 115.083 9.39853
441 2 -0.132052 118.967 9.38667
442 2 3.85861 118.804 9.44484
443 2 7.92377 119.024 9.042
444 2 11.9215 118.906 9.17948
445 2 15.8598 122.88 9.13035
446 2 3.90295 122.704 9.09455
447 2 7.93581 122.856 9.21751
448 2 11.9957 122.88 9.25233
449 2 -0.187979 126.855 9.40795
450 2 3.70188 126.632 9.08791
451 2 7.88559 126.667 9.16144
452 2 11.8787 126.544 9.06141
453 2 15.5784 130.668 9.09034
454 2 3.81114 130.603 9.06653
455 2 7.94371 130.574 9.36484
456 2 11.9827 130.607 9.04806
457 2 15.7186 134.499 9.09382
458 2 3.80224 134.451 9.17462
459 2 7.8629 134.544 9.14258
460 2 11.6815 134.614 9.1544
461 2 -0.0745912 138.428 9.15942
462 2 3.87729 138.418 9.07357
463 2 7.81789 138.434 8.98893
464 2 11.8303 138.453 9.15066
465 2 0.0411723 142.217 9.13368
466 2 4.03977 142.217 8.92505
467 2 7.96587 142.301 9.00704
468 2 11.9577 142.481 9.05839
469 2 15.7724 146.284 8.99733
470 2 3.99038 146.27 9.03195
471 2 7.70273 146.335 8.99062
472 2 11.9151 146.252 8.9278
473 2 0.00306127 150.165 9.04967
474 2 3.92776 150.272 8.89384
475 2 7.81028 150.316 8.94263
476 2 11.958 150.14 8.88635
477 2 0.131785 154.172 8.83345
478 2 3.83934 154.131 8.73385
479 2 7.80559 154.033 8.76332
480 2 11.7723 154.084 8.77481
481 2 15.9627 157.928 12.6662
482 2 3.88223 158.091 12.9086
483 2 7.91915 158.213 12.8322
484 2 11.9856 158.289 12.7603
485 2 -0.0704375 3.61255 12.6462
486 2 3.87801 3.74714 12.7041
487 2 7.97812 3.65367 12.7916
488 2 11.9067 3.79255 12.8174
489 2 15.7679 7.63452 12.906
490 2 3.90452 7.41769 12.7351
491 2 7.76322 7.51778 12.6907
492 2 11.903 7.63936 12.8853
493 2 15.7054 11.5707 12.7993
494 2 3.87544 11.4388 12.7273
495 2 7.82788 11.464 12.6895
496 2 11.748 11.582 12.7094
497 2 15.6799 15.3669 12.6318
498 2 3.74296 15.4928 12.7253
499 2 7.94798 15.4786 12.5341
500 2 11.9512 15.5614 12.5438
501 2 15.7909 19.3861 12.4692
502 2 4.09118 19.3683 12.5672
503 2 7.99998 19.297 12.6102
504 2 12.0492 19.4029 12.5759
505 2 15.9096 23.0484 12.5062
506 2 3.95891 23.2781 12.4783
507 2 7.69448 23.0234 12.4542
508 2 11.8051 23.2634 12.485
509 2 -0.235166 27.1502 12.6071
510 2 3.65315 27.0684 12.3778
511 2 7.85755 27.1407 12.3993
512 2 11.9916 27.0308 12.5456
513 2 15.6975 30.9191 12.4525
514 2 3.83655 30.9052 12.4809
515 2 7.72121 30.7879 12.3368
516 2 11.8557 30.9651 12.4284
517 2 -0.0547856 34.8567 12.5404
518 2 3.94592 34.9329 12.5127
519 2 8.00707 34.7472 12.3971
520 2 11.6526 34.887 12.2342
521 2 -0.202074 38.7983 12.3034
522 2 3.88254 38.9088 12.5265
523 2 7.74158 38.9052 12.4217
524 2 11.7627 38.9098 12.3627
525 2 -0.0870348 43.0566 12.5021
526 2 3.85317 42.8382 12.4914
527 2 7.77716 42.9303 12.4843
528 2 11.9407 42.974 12.5986
529 2 0.0686237 47.056 12.6356
530 2 4.03942 46.9509 12.4117
531 2 8.0505 47.1448 12.5726
532 2 12.0634 46.9803 12.6244
533 2 15.934 50.9995 12.5647
534 2 4.06394 51.0124 12.6274
535 2 8.17519 51.1962 12.5409
536 2 12.048 50.8355 12.5663
537 2 0.176413 54.8298 12.6959
538 2 3.98986 55.0787 12.7377
539 2 7.91006 55.0461 12.6792
540 2 11.8277 55.1662 12.7478
541 2 15.8752 59.0353 12.7533
542 2 3.93782 59.1886 12.8161
543 2 8.05252 58.9874 12.8292
544 2 11.9835 59.0587 12.8278
545 2 15.857 63.0574 12.94
546 2 3.94625 63.0272 12.9453
547 2 7.93764 63.1077 12.7106
548 2 11.9175 63.1086 12.7735
549 2 0.0224518 67.1686 12.7778
550 2 3.8685 67.0936 12.821
551 2 7.92671 67.1596 12.9288
552 2 11.7562 67.1025 12.9087
553 2 -0.219048 71.1153 12.9268
554 2 3.74469 71.3396 12.9973
555 2 7.71208 71.1743 13.0215
556 2 11.9472 71.0069 12.9946
557 2 -0.113446 75.3023 12.9308
558 2 3.97148 75.0311 12.9504
559 2 8.00344 75.2706 13.1018
560 2 11.8255 75.2743 12.8815
561 2 15.8261 79.3518 13.2163
562 2 3.85457 79.2323 13.0014
563 2 7.79302 79.4622 12.96
564 2 11.6867 79.2444 13.0286
565 2 -0.0624531 83.3811 12.912
566 2 3.86012 83.2905 12.9927
567 2 7.89585 83.4431 13.1334
568 2 11.8262 83.3555 13.0157
569 2 15.7563 87.3581 13.235
570 2 3.86333 87.3151 13.1991
571 2 8.01859 87.1891 13.2446
572 2 11.9349 87.3435 13.1583
573 2 -0.0738385 91.4114 13.4792
574 2 4.17826 91.1872 13.3139
575 2 8.15803 91.4382 13.5426
576 2 12.0159 91.4515 13.365
577 2 0.0957072 95.374 13.4748
578 2 3.94316 95.298 13.3794
579 2 7.78996 95.3812 13.3461
580 2 12.0927 95.4146 13.4261
581 2 0.124902 99.353 13.51
582 2 3.86292 99.1484 13.4387
583 2 7.85778 99.4017 13.321
584 2 11.9088 99.5506 13.4736
585 2 15.9247 103.282 13.3686
586 2 4.03827 103.139 13.4921
587 2 8.08096 103.39 13.2314
588 2 11.7342 103.175 13.3957
589 2 15.9194 107.061 13.411
590 2 4.0452 107.03 13.5035
591 2 8.11694 107.464 13.4073
592 2 11.7985 107.085 13.4645
593 2 -0.105672 111.113 13.4791
594 2 3.98789 110.972 13.4496
595 2 7.88867 111.345 13.3352
596 2 11.7785 111.198 13.492
597 2 -0.0630907 115.005 13.4828
598 2 3.98799 115.023 13.4848
599 2 7.8838 115.134 13.2413
600 2 11.8879 114.999 13.3846
601 2 15.8255 119 13.3126
602 2 3.96625 119.123 13.4126
603 2 7.86693 118.845 13.2174
604 2 11.8802 118.961 13.2986
605 2 15.6596 122.759 13.3387
606 2 4.03448 122.82 13.3121
607 2 7.91827 122.755 13.1575
608 2 11.9007 122.942 13.3956
609 2 -0.0997237 126.827 13.2504
610 2 3.88481 126.791 13.3327
611 2 7.96331 126.656 12.8804
612 2 11.9154 126.815 13.4086
613 2 15.686 130.658 13.2636
614 2 3.80734 130.67 13.1586
615 2 8.02569 130.461 13.0833
616 2 11.8801 130.79 13.2529
617 2 -0.157912 134.516 13.2187
618 2 3.80655 134.595 13.2044
619 2 7.81719 134.383 12.8284
620 2 11.8393 134.569 13.136
621 2 0.178047 138.634 13.1433
622 2 3.99977 138.428 13.1281
623 2 7.91136 138.545 13.1315
624 2 11.919 138.515 13.1313
625 2 15.9876 142.531 12.9494
626 2 3.93851 142.448 12.9977
627 2 8.12369 142.409 13.0814
628 2 11.9636 142.279 13.066
629 2 15.8593 146.588 12.9536
630 2 3.96609 146.208 13.0871
631 2 8.01142 146.281 13.1232
632 2 11.8073 146.483 13.1907
633 2 0.00778903 150.435 12.9983
634 2 3.81415 150.173 13.0708
635 2 7.82721 150.09 12.8073
636 2 11.8621 150.386 12.8071
637 2 -0.282413 154.266 12.8302
638 2 3.803 154.143 12.8883
639 2 7.81122 154.221 12.7949
640 2 11.6167 154.162 12.9293
641 2 0.0447554 158.215 16.7526
642 2 3.96178 158.033 16.7886
643 2 7.93151 158.098 16.8636
644 2 11.8441 158.143 16.9677
645 2 15.9851 3.67947 16.7691
646 2 3.95425 3.68261 16.699
647 2 7.84055 3.76472 16.7838
648 2 11.7628 3.72601 16.7637
649 2 15.7043 7.57537 16.7606
650 2 3.79219 7.77886 16.8239
651 2 7.8407 7.62929 16.7402
652 2 11.978 7.64259 16.8165
653 2 0.0650914 11.6706 16.6872
654 2 4.10023 11.5799 16.7018
655 2 7.779 11.532 16.595
656 2 11.7195 11.5346 16.8813
657 2 0.136809 15.6084 16.6664
658 2 3.82184 15.5107 16.6951
659 2 7.69609 15.3659 16.705
660 2 11.8617 15.5599 16.689
661 2 15.8566 19.4468 16.6039
662 2 3.84933 19.4138 16.6277
663 2 7.81129 19.2675 16.6477
664 2 11.7938 19.3302 16.7519
665 2 -0.036297 23.3804 16.7368
666 2 3.9522 23.2125 16.649
667 2 7.83035 23.2541 16.5206
668 2 11.895 23.1923 16.59
669 2 15.7482 27.1981 16.6988
670 2 3.68208 27.0702 16.4331
671 2 7.44706 27.1543 16.3347
672 2 11.5491 26.9671 16.5663
673 2 15.5617 31.0128 16.599
674 2 3.79806 31.07 16.4428
675 2 7.67487 31.0941 16.4973
676 2 11.5124 30.9287 16.4138
677 2 15.802 34.9361 16.4495
678 2 3.91798 34.9627 16.375
679 2 7.86948 34.8869 16.4361
680 2 11.7277 34.8504 16.3419
681 2 15.7354 38.8945 16.294
682 2 3.98848 38.8818 16.34
683 2 7.74876 38.9834 16.3373
684 2 11.8091 38.9759 16.2208
685 2 -0.129447 42.8902 16.4388
686 2 3.73244 42.9013 16.2952
687 2 7.86437 43.026 16.6058
688 2 11.8836 42.7806 16.3786
689 2 15.9999 46.8557 16.5301
690 2 3.99366 47.074 16.4825
691 2 8.08228 46.9601 16.4945
692 2 12.0462 46.9056 16.6309
693 2 15.8597 50.8273 16.5441
694 2 3.96045 50.9174 16.4871
695 2 8.01648 50.7926 16.5408
696 2 12.0193 50.8169 16.5484
697 2 15.6283 54.9712 16.6293
698 2 3.85619 55.0529 16.6392
699 2 7.88547 54.8598 16.5364
700 2 11.7226 54.9575 16.6727
701 2 15.8762 58.8432 16.7097
702 2 4.00849 58.9242 16.434
703 2 8.08513 58.8929 16.56
704 2 11.8886 58.8598 16.6784
705 2 15.8354 62.9901 16.8544
706 2 3.93653 63.1031 16.6957
707 2 7.9217 63.0084 16.6727
708 2 11.9853 63.0237 16.8457
709 2 -0.137977 67.0144 16.7493
710 2 3.95276 67.0826 16.9235
711 2 7.71623 67.058 16.9576
712 2 11.8544 67.0592 16.8485
713 2 -0.0459461 71.1963 16.9711
714 2 3.87602 71.0908 16.7516
715 2 7.99331 71.1216 16.8174
716 2 11.6806 71.0713 16.9136
717 2 15.6242 75.173 16.9782
718 2 3.95573 74.971 16.7965
719 2 7.83145 75.1623 16.9984
720 2 11.8003 75.3321 16.9238
721 2 0.0118598 79.1198 17.0741
722 2 3.95714 79.0397 16.949
723 2 7.738 79.2486 16.9063
724 2 11.826 79.1552 16.8575
725 2 -0.0814779 83.2016 17.0254
726 2 3.7764 83.1972 16.8787
727 2 7.77839 83.0697 17.0399
728 2 11.8561 82.9769 16.8875
729 2 0.112994 87.2981 17.0554
730 2 4.00138 87.2323 17.0747
731 2 7.9147 87.051 17.1442
732 2 11.8318 87.0939 17.1933
733 2 0.139388 91.239 17.1294
734 2 4.13847 91.2699 17.2149
735 2 7.91912 91.2793 17.3314
736 2 11.8169 91.2247 17.1675
737 2 15.8144 95.2375 17.3939
738 2 4.05922 95.3948 17.4339
739 2 8.08207 95.4642 17.1761
740 2 11.8746 95.4444 17.1932
741 2 15.7285 99.2399 17.4042
742 2 4.00243 99.5102 17.3586
743 2 8.04922 99.1477 17.3855
744 2 11.7923 99.3371 17.3482
745 2 15.7048 103.381 17.3205
746 2 3.88434 103.235 17.4647
747 2 7.91204 103.367 17.5585
748 2 11.7017 103.127 17.1862
749 2 15.6657 107.204 17.3745
750 2 3.93173 107.003 17.3191
751 2 7.8167 107.338 17.3505
752 2 11.9195 107.23 17.516
753 2 -0.00870511 110.997 17.3719
754 2 3.85791 111.066 17.3842
755 2 7.86671 111.086 17.4571
756 2 11.8566 111.199 17.369
757 2 15.9147 115.037 17.4743
758 2 3.90304 115.182 17.519
759 2 7.71491 115.264 17.0915
760 2 11.8055 115.16 17.4304
761 2 0.133768 119.06 17.4859
762 2 3.94049 119.188 17.3103
763 2 7.96692 119.022 17.3591
764 2 11.9523 119.072 17.2972
765 2 -0.0277034 122.714 17.3411
766 2 3.87933 123.135 17.1312
767 2 8.05217 123.039 17.3574
768 2 11.9039 122.919 17.4503
769 2 0.00654414 126.674 17.1161
770 2 4.03605 127.076 17.1254
771 2 7.84247 126.875 17.2384
772 2 11.9184 126.698 17.3191
773 2 15.9395 130.831 17.4729
774 2 3.94463 130.818 17.2782
775 2 8.21751 130.779 17.2789
776 2 11.833 130.943 17.2336
777 2 15.5472 134.732 17.129
778 2 4.04934 134.81 17.1468
779 2 7.79969 134.705 17.0386
780 2 11.6332 134.697 17.2001
781 2 15.7342 138.616 17.1787
782 2 3.9153 138.658 17.2473
783 2 7.94343 138.526 17.2038
784 2 11.8513 138.656 17.0639
785 2 15.9154 142.519 16.9552
786 2 3.97019 142.434 17.2185
787 2 7.97572 142.429 17.0753
788 2 12.053 142.493 17.0624
789 2 0.0837342 146.467 17.1009
790 2 3.97066 146.252 17.1719
791 2 8.08286 146.291 17.0514
792 2 12.0889 146.375 17.0415
793 2 15.8641 150.263 16.968
794 2 4.04632 150.111 16.8844
795 2 7.96031 150.299 17.1206
796 2 11.9204 150.318 16.7758
797 2 0.0964645 154.244 16.9572
798 2 4.01534 154.32 16.878
799 2 7.79065 154.099 17.0341
800 2 11.7972 154.239 16.9333
801 2 15.6085 158.031 20.8839
802 2 3.97012 158.038 20.9453
803 2 7.87577 -0.200507 20.7982
804 2 11.771 158.343 20.9726
805 2 15.727 3.6376 20.7848
806 2 3.89651 3.69955 20.9981
807 2 7.83456 3.75816 20.7176
808 2 11.7585 3.8209 20.7857
809 2 15.6704 7.40425 20.8067
810 2 3.71118 7.73064 20.8378
811 2 7.68434 7.71786 20.755
812 2 11.6846 7.69338 20.6758
813 2 -0.0516298 11.8628 20.7315
814 2 3.87493 11.538 20.8543
815 2 7.83512 11.7114 20.6387
816 2 11.8933 11.5739 20.8121
817 2 15.8106 15.4915 20.749
818 2 3.76989 15.4397 20.7089
819 2 8.06008 15.5673 20.5976
820 2 11.8968 15.4143 20.6521
821 2 -0.056382 19.5913 20.8817
822 2 3.95765 19.5294 20.5556
823 2 7.92664 19.5107 20.7329
824 2 11.8894 19.4355 20.7787
825 2 15.8519 23.3116 20.8754
826 2 4.11199 23.4226 20.5742
827 2 7.82143 23.2815 20.6063
828 2 11.9754 23.3532 20.6389
829 2 -0.0767482 27.291 20.6837
830 2 3.95943 27.1911 20.6652
831 2 7.79564 27.1065 20.6991
832 2 11.5859 27.1609 20.6287
833 2 15.7095 30.9864 20.3907
834 2 3.81439 31.1308 20.606
835 2 7.91335 30.8662 20.3642
836 2 11.8837 31.0996 20.4182
837 2 -0.210222 35.1109 20.3516
838 2 3.70044 34.9223 20.4091
839 2 7.83678 34.9208 20.3569
840 2 11.7164 35.0285 20.2662
841 2 15.7123 38.8734 20.2934
842 2 3.72745 38.773 20.2943
843 2 7.91241 39.2137 20.1478
844 2 11.8883 38.8762 20.2979
845 2 0.0952963 42.8499 20.4291
846 2 3.97033 42.6682 20.372
847 2 7.84805 42.8772 20.4085
848 2 12.0699 42.9713 20.4159
849 2 -0.0270495 46.7816 20.3872
850 2 3.9623 46.8166 20.4159
851 2 7.88799 46.7117 20.4409
852 2 11.8423 46.8715 20.3787
853 2 -0.0139186 50.9396 20.4684
854 2 3.8583 50.724 20.5166
855 2 7.81812 50.9024 20.5875
856 2 12.0037 50.7628 20.4605
857 2 15.8395 54.949 20.2887
858 2 3.98892 54.8369 20.5139
859 2 7.74442 54.7915 20.4647
860 2 11.7293 54.5981 20.6281
861 2 16.0108 58.9822 20.569
862 2 4.07221 58.8379 20.6598
863 2 8.14238 58.8171 20.6116
864 2 11.8174 58.9506 20.4536
865 2 15.9461 62.9855 20.7283
866 2 3.89329 62.9466 20.7147
867 2 7.91467 62.8074 20.5745
868 2 11.874 62.9494 20.8608
869 2 15.8297 66.913 20.8422
870 2 4.00483 67.1579 20.6666
871 2 7.75197 66.868 20.6503
872 2 11.9587 66.9423 20.7902
873 2 -0.170595 71.0674 20.7399
874 2 3.86902 70.9324 20.7664
875 2 7.94976 71.0562 20.7839
876 2 11.7957 70.885 20.6603
877 2 15.9296 75.0703 20.7016
878 2 3.96175 75.0402 20.8877
879 2 7.8578 75.1238 20.7886
880 2 11.9149 74.9804 21.0007
881 2 -0.00961213 79.0422 20.7869
882 2 4.02752 79.1217 20.8965
883 2 8.04202 79.1249 20.9842
884 2 11.8466 79.1204 20.888
885 2 -0.0630895 83.1879 21.0038
886 2 3.97479 83.1229 21.1027
887 2 7.97058 82.9713 21.0216
888 2 11.8883 83.1132 20.9587
889 2 15.8873 87.2001 20.7507
890 2 3.84052 87.0713 20.9952
891 2 7.92306 87.0768 21.1336
892 2 11.9296 87.0748 21.0038
893 2 15.7839 91.1172 21.1614
894 2 4.12611 91.1585 20.8894
895 2 8.06452 91.1958 21.132
896 2 11.9855 91.329 21.1765
897 2 0.1053 95.1677 21.1036
898 2 3.91399 95.254 21.1221
899 2 7.98846 95.1762 21.0734
900 2 11.8967 95.2216 21.1572
901 2 15.6834 99.3115 21.3243
902 2 3.69674 99.1868 21.358
903 2 7.76613 99.1744 21.1283
904 2 11.8356 99.1727 21.2672
905 2 -0.229801 103.403 21.4066
906 2 3.86041 103.175 21.4244
907 2 7.68759 103.474 21.4452
908 2 11.7226 103.366 21.3085
909 2 15.7589 107.336 21.4286
910 2 3.71258 107.174 21.4626
911 2 7.7274 107.44 21.3783
912 2 11.67 107.365 21.5734
913 2 15.7297 111.045 21.424
914 2 3.74055 111.054 21.3365
915 2 7.96172 111.305 21.2581
916 2 11.7863 111.14 21.3949
917 2 0.0323644 114.972 21.28
918 2 3.96137 115.121 21.439
919 2 7.65724 115.135 21.3878
920 2 11.9683 115.208 21.376
921 2 15.8021 119.061 21.236
922 2 4.02626 119.165 21.313
923 2 7.78224 119.052 21.2433
924 2 11.8433 119.04 21.4078
925 2 15.8588 122.898 21.2674
926 2 3.88596 123.214 21.4073
927 2 7.71283 122.903 21.3228
928 2 11.6463 123.16 21.3516
929 2 0.146961 126.876 21.4097
930 2 4.04994 126.844 21.3728
931 2 7.87798 126.767 21.4325
932 2 11.9649 127.042 21.5199
933 2 0.0226404 130.679 21.3054
934 2 4.08218 130.915 21.2488
935 2 8.1131 130.744 21.1828
936 2 12.1407 130.646 21.0832
937 2 16.0113 134.738 21.11
938 2 3.92095 134.795 21.2711
939 2 7.97792 134.862 21.0234
940 2 11.9741 134.614 21.2043
941 2 -0.111768 138.564 21.1783
942 2 3.95259 138.6 21.2113
943 2 7.98012 138.558 21.3072
944 2 11.9 138.763 21.2448
945 2 15.6957 142.552 21.0875
946 2 3.94375 142.502 21.1696
947 2 7.87021 142.494 21.1703
948 2 11.8426 142.504 21.0274
949 2 15.8747 146.508 21.1581
950 2 3.83326 146.373 21.0683
951 2 7.89682 146.439 20.9857
952 2 11.8439 146.471 21.2119
953 2 15.9279 150.458 21.1387
954 2 4.12054 150.402 21.0113
955 2 8.28945 150.409 20.8916
956 2 11.7937 150.419 21.0989
957 2 0.0277639 154.372 20.8641
958 2 3.83109 154.376 20.8773
959 2 8.04996 154.105 20.8675
960 2 11.8147 154.219 20.9759
961 2 0.0391598 158.038 24.9305
962 2 3.98345 158.385 24.9373
963 2 7.96331 158.15 24.8832
964 2 11.8625 158.002 24.9381
965 2 -0.0347256 3.73531 24.8373
966 2 3.90807 3.76367 25.1244
967 2 7.88222 3.69081 24.9077
968 2 11.8602 3.63186 24.9438
969 2 15.7008 7.71085 24.8764
970 2 3.88156 7.62762 24.7185
971 2 7.67895 7.58582 24.6312
972 2 11.6802 7.59709 24.968
973 2 15.5833 11.4869 24.6254
974 2 3.79618 11.5622 24.9218
975 2 7.85855 11.6402 24.8553
976 2 11.5008 11.5297 24.6071
977 2 15.7697 15.5162 24.9325
978 2 3.91731 15.35 24.5739
979 2 7.818 15.5074 24.8482
980 2 11.7681 15.3627 24.8945
981 2 0.0577295 19.3591 24.5925
982 2 4.02612 19.4157 24.6919
983 2 7.8765 19.3507 24.6855
984 2 12.0271 19.5065 24.8033
985 2 15.7369 23.346 24.8141
986 2 3.81739 23.3462 24.7845
987 2 7.80812 23.3956 24.7973
988 2 11.8495 23.4208 24.7559
989 2 15.8146 27.2497 24.5607
990 2 3.7391 27.2946 24.6648
991 2 7.71569 27.2677 24.6938
992 2 11.9698 27.2742 24.5724