ITEM: TIMESTEP
24300
ITEM: NUMBER OF ATOMS
32000
ITEM: BOX BOUNDS xy xz yz pp pp pp
0.0000000000000000e+00 1.5832000000000001e+01 0.0000000000000000e+00
0.0000000000000000e+00 1.5831999999999999e+02 0.0000000000000000e+00
8.5969400131294549e-01 1.6011742399868206e+02 0.0000000000000000e+00
ITEM: ATOMS id type x y z
1 2 0.0479866 158.145 159.947
2 2 3.90211 157.908 159.91
3 2 7.86872 157.997 160.044
4 2 11.8673 157.789 159.93
5 2 -0.0408267 3.60385 159.871
6 2 3.83048 3.55583 159.797
7 2 7.75287 3.47727 159.915
8 2 11.8409 3.47695 159.851
9 2 15.8201 7.5078 159.763
10 2 3.93609 7.35458 159.596
11 2 7.80209 7.34589 159.876
12 2 11.8316 7.22655 159.772
13 2 -0.0251001 11.3681 159.773
14 2 3.86916 11.4306 159.658
15 2 7.86525 11.3965 159.769
16 2 11.8453 11.1672 159.613
17 2 -0.14182 15.3995 159.685
18 2 3.84613 15.137 159.808
19 2 7.93885 15.3413 159.833
20 2 12.0073 15.1553 159.833
21 2 -0.0187416 19.2096 159.738
22 2 4.01334 19.1926 159.623
23 2 7.81728 19.0048 159.619
24 2 11.8322 19.1335 159.811
25 2 -0.156711 23.2317 159.672
26 2 3.95876 23.2959 159.864
27 2 7.66284 22.8828 159.797
28 2 11.6316 23.0662 159.716
29 2 -0.049659 27.0664 159.646
30 2 3.79931 27.1648 159.712
31 2 7.84249 27.1443 159.835
32 2 11.8442 27.2107 159.749
33 2 16.1488 31.0928 159.799
34 2 4.11785 30.9745 159.769
35 2 7.91563 31.0511 159.75
36 2 11.8687 31.0117 159.683
37 2 15.8687 35.0102 159.991
38 2 4.13093 35.0569 159.985
39 2 7.86582 35.0279 159.762
40 2 11.8943 35.1562 159.973
41 2 -0.156617 39.1987 160
42 2 3.98794 39.1208 160.132
43 2 7.84553 39.1647 160.036
44 2 11.9168 39.0346 159.934
45 2 15.7549 43.1314 159.962
46 2 4.08826 43.2456 0.782481
47 2 8.07427 43.0024 160.025
48 2 12.0365 43.0736 159.878
49 2 15.9162 47.1099 160.258
50 2 3.96074 47.2365 159.958
51 2 7.74082 47.0382 160.284
52 2 11.9574 47.2689 160.19
53 2 15.7685 51.1678 0.94671
54 2 3.94213 51.1903 160.053
55 2 7.93877 51.1488 160.293
56 2 11.9754 51.2451 0.989049
57 2 15.8593 55.2326 1.06645
58 2 3.82776 55.3396 0.878398
59 2 8.01487 55.1875 0.974869
60 2 11.986 55.1549 0.976217
61 2 -0.0212285 59.3571 1.20416
62 2 4.11754 59.2404 1.19654
63 2 7.86108 59.6068 1.10138
64 2 11.8291 59.203 1.1036
65 2 0.0382167 63.3247 1.1033
66 2 3.89703 63.2737 1.2467
67 2 8.10403 63.4011 1.08645
68 2 11.6917 63.4538 1.06479
69 2 15.8741 67.3998 1.07992
70 2 4.07562 67.4403 1.32048
71 2 7.97626 67.3355 1.39749
72 2 11.8215 67.4084 1.21089
73 2 -0.0595032 71.4937 1.37609
74 2 3.9458 71.3947 1.21138
75 2 7.89805 71.2838 1.2736
76 2 11.7483 71.4082 1.11407
77 2 -0.130981 75.382 1.13865
78 2 3.88656 75.419 1.13784
79 2 7.88607 75.4298 1.41268
80 2 11.5337 75.536 1.22706
81 2 0.0290186 79.4165 1.19293
82 2 3.98849 79.5025 1.41277
83 2 7.98197 79.5333 1.41242
84 2 11.7934 79.5169 1.41206
85 2 0.0542278 83.4175 1.44219
86 2 4.09978 83.3799 1.40187
87 2 7.8167 83.4402 1.4397
88 2 11.7752 83.4777 1.29372
89 2 -0.192717 87.5178 1.55305
90 2 3.91377 87.5401 1.38898
91 2 7.91149 87.5474 1.26394
92 2 11.8425 87.5055 1.37002
93 2 15.8941 91.533 1.53769
94 2 3.90799 91.5485 1.5064
95 2 8.1025 91.4378 1.30331
96 2 11.9273 91.4348 1.46635
97 2 15.9309 95.3997 1.5268
98 2 4.1427 95.3431 1.44397
99 2 7.90298 95.4287 1.35615
100 2 11.9765 95.3167 1.56668
101 2 15.7696 99.0932 1.2944
102 2 3.98362 99.2985 1.36459
103 2 8.03225 99.218 1.33766
104 2 11.7043 99.1515 1.23723
105 2 0.0956304 103.168 1.16161
106 2 3.99751 103.181 1.4456
107 2 7.95898 103.317 1.32958
108 2 12.081 103.165 1.3207
109 2 15.9749 107.169 1.33049
110 2 4.06316 107.289 1.27203
111 2 8.0393 107.195 1.35163
112 2 11.9057 107.047 1.18642
113 2 15.8329 111.165 1.51868
114 2 3.8854 111.35 1.15856
115 2 7.93564 111.207 1.28418
116 2 11.877 110.958 1.17515
117 2 15.7183 114.795 1.30275
118 2 3.76677 115.116 1.3698
119 2 7.98931 114.872 1.04346
120 2 11.8389 114.828 1.35158
121 2 0.0729663 118.862 1.25055
122 2 3.98054 118.705 1.27194
123 2 8.09378 118.792 1.35016
124 2 11.9185 118.847 1.23772
125 2 0.00849536 122.841 1.14485
126 2 3.99147 122.814 1.2419
127 2 8.02056 122.826 1.29534
128 2 11.7182 122.856 1.1155
129 2 0.0254208 126.759 1.13437
130 2 4.0127 126.544 1.06865
131 2 7.95177 126.633 1.07313
132 2 11.9123 126.742 1.15259
133 2 -0.0866137 130.535 1.12659
134 2 3.9885 130.55 1.10975
135 2 7.89262 130.638 1.11104
136 2 11.8421 130.778 1.04154
137 2 15.6443 134.296 1.10285
138 2 3.91065 134.514 160.294
139 2 7.84215 134.416 0.983001
140 2 11.8901 134.55 1.13819
141 2 15.8736 138.268 0.979172
142 2 3.92958 138.153 1.00338
143 2 7.9135 138.405 1.17767
144 2 11.8628 138.622 1.04152
145 2 -0.0628976 142.42 0.985352
146 2 3.77176 142.308 0.939492
147 2 7.91235 142.083 0.867293
148 2 11.8027 142.438 0.892619
149 2 0.0489965 146.319 1.11654
150 2 3.93728 146.114 160.209
151 2 7.81032 146.016 0.883286
152 2 11.8171 146.14 160.273
153 2 -0.0701102 150.116 160.024
154 2 4.23173 150.181 160.037
155 2 7.97145 150.172 0.910928
156 2 11.9119 150.044 0.95896
157 2 0.00593545 154.027 159.96
158 2 3.84668 154.131 159.894
159 2 7.98484 154.287 160.053
160 2 11.8286 154.057 159.941
161 2 0.0419729 158.084 4.76763
162 2 4.15592 -0.292357 4.91732
163 2 7.87887 157.992 4.85848
164 2 11.8745 157.764 4.59726
165 2 0.0899151 3.68462 4.82512
166 2 4.0011 3.59035 4.55767
167 2 7.90654 3.43596 4.6487
168 2 11.8509 3.49698 4.77451
169 2 -0.317064 7.4088 4.63787
170 2 3.94005 7.5917 4.58639
171 2 7.9759 7.52803 4.44143
172 2 11.685 7.48622 4.55413
173 2 0.0292804 11.2473 4.4803
174 2 4.0255 11.2963 4.54068
175 2 7.82821 11.6907 4.50393
176 2 12.0268 11.3395 4.36363
177 2 -0.162216 15.2672 4.57817
178 2 4.01946 15.1245 4.56595
179 2 7.87322 15.2307 4.58436
180 2 11.7643 15.4185 4.56325
181 2 0.0376565 19.366 4.47021
182 2 3.99641 19.1907 4.48781
183 2 7.84676 19.0853 4.69833
184 2 11.8847 19.1574 4.52482
185 2 -0.0508134 23.2124 4.45707
186 2 4.01421 23.0075 4.39234
187 2 7.80066 22.9835 4.6353
188 2 11.7469 23.1321 4.54016
189 2 -0.128251 26.995 4.45945
190 2 4.05436 26.9498 4.45621
191 2 7.98771 27.0591 4.33953
192 2 11.8995 27.0379 4.22753
193 2 0.0221403 31.0808 4.47532
194 2 3.85709 31.141 4.53434
195 2 7.92876 30.8821 4.46055
196 2 11.8816 30.8213 4.44651
197 2 15.706 34.925 4.62106
198 2 3.80283 35.0842 4.62419
199 2 7.8637 35.0273 4.50374
200 2 11.7486 35.0492 4.41573
201 2 0.114861 39.1226 4.60844
202 2 3.98795 38.9383 4.4892
203 2 8.06905 39.1748 4.65038
204 2 11.9581 39.1058 4.57352
205 2 15.8872 43.2849 4.82092
206 2 3.93864 42.9531 4.80029
207 2 7.89915 43.1968 4.46813
208 2 12.0412 43.2959 4.76031
209 2 15.7918 46.9859 4.82343
210 2 3.94842 47.103 4.71479
211 2 7.85669 47.0733 4.79075
212 2 11.9547 47.1732 4.95937
213 2 15.9705 51.287 4.96803
214 2 3.97888 51.266 4.90715
215 2 7.82156 51.1124 4.84816
216 2 11.9948 51.1427 4.8916
217 2 -0.115164 55.2341 5.03878
218 2 4.00415 55.4045 4.72317
219 2 7.93523 55.2374 5.03445
220 2 11.8165 55.2297 4.88007
221 2 15.8101 59.1807 4.97564
222 2 3.94024 59.3905 4.99112
223 2 8.04429 59.3335 4.99978
224 2 11.8694 59.1742 4.73449
225 2 15.8791 63.4441 4.97286
226 2 3.97351 63.382 5.14933
227 2 7.97516 63.4656 5.0565
228 2 12.0583 63.2636 5.00581
229 2 -0.0585208 67.2917 4.88453
230 2 3.93661 67.3378 5.16552
231 2 7.83554 67.1972 5.14746
232 2 12.0141 67.294 5.20663
233 2 -0.0495923 71.4155 5.20828
234 2 3.75092 71.39 5.42238
235 2 7.60943 71.4377 5.24924
236 2 11.7873 71.3981 4.98422
237 2 15.6873 75.3997 5.08395
238 2 4.06242 75.3732 5.06575
239 2 7.74645 75.4036 5.07625
240 2 11.8979 75.286 5.07334
241 2 -0.0723766 79.449 5.05895
242 2 3.80099 79.3479 5.3807
243 2 7.757 79.4142 5.40319
244 2 11.795 79.3975 5.40228
245 2 -0.0141797 83.2914 5.31014
246 2 3.92272 83.6123 5.38013
247 2 7.72362 83.5906 5.2584
248 2 11.8474 83.3556 5.35897
249 2 0.00331251 87.5135 5.46726
250 2 3.97114 87.3365 5.12407
251 2 7.73153 87.4566 5.2614
252 2 11.8535 87.4224 5.58383
253 2 -0.00364155 91.5233 5.44396
254 2 3.85758 91.4082 5.42334
255 2 8.05097 91.5071 5.46154
256 2 11.9186 91.3669 5.42899
257 2 15.9412 95.6907 5.39388
258 2 4.0351 95.2849 5.52394
259 2 7.99893 95.3476 5.39844
260 2 11.7588 95.4389 5.53934
261 2 -0.03126 99.2956 5.24341
262 2 4.10112 99.2975 5.46045
263 2 7.88802 99.3595 5.20956
264 2 11.9982 99.3782 5.38385
265 2 -0.0277662 103.311 5.24948
266 2 4.04504 103.131 5.29167
267 2 7.96486 103.331 5.29309
268 2 11.9688 103.234 5.47828
269 2 0.0352962 107.345 5.25112
270 2 3.94825 107.171 5.17542
271 2 7.92493 107.218 5.31187
272 2 11.8306 107.02 5.24356
273 2 15.7414 111.022 5.39239
274 2 3.89829 111.014 5.37924
275 2 7.93487 111.13 5.37822
276 2 11.8253 111.076 5.41575
277 2 15.8628 114.947 5.21908
278 2 3.99678 115.107 5.33848
279 2 7.94241 114.981 5.39469
280 2 11.7664 115.177 5.23583
281 2 15.782 118.959 5.20828
282 2 3.96145 118.926 5.44853
283 2 7.81913 118.826 5.26274
284 2 12.0048 118.882 5.2498
285 2 0.167951 122.703 5.21097
286 2 3.86834 122.706 5.26358
287 2 7.80192 122.917 5.23396
288 2 12.0027 122.973 5.22474
289 2 0.269968 126.661 5.03305
290 2 4.07094 126.729 5.1783
291 2 7.94201 126.74 5.28584
292 2 12.1275 126.861 4.99898
293 2 -0.0101356 130.411 5.17825
294 2 3.94406 130.43 5.08081
295 2 8.01894 130.662 5.21863
296 2 11.8513 130.649 5.2223
297 2 15.8339 134.43 5.12466
298 2 3.97164 134.445 4.99636
299 2 7.93741 134.646 5.26765
300 2 12.0483 134.502 5.20064
301 2 -0.236577 138.407 5.14496
302 2 3.90643 138.429 4.83587
303 2 7.87495 138.587 5.00131
304 2 11.63 138.269 4.96484
305 2 -0.138835 142.183 4.94146
306 2 3.8946 142.418 5.06344
307 2 7.89507 142.365 5.02484
308 2 11.886 142.392 4.99297
309 2 -0.0154402 146.327 5.00952
310 2 3.87117 146.199 5.04066
311 2 7.83912 146.308 4.85075
312 2 11.7178 146.323 5.07403
313 2 16.079 150.22 4.86858
314 2 4.01591 150.338 4.82211
315 2 8.18735 150.103 4.74046
316 2 11.9689 150.144 4.91651
317 2 0.104716 154.091 4.7208
318 2 3.9755 154.132 4.65341
319 2 7.84442 154.052 4.77927
320 2 11.936 153.982 4.7315
321 2 -0.243497 158.037 8.65676
322 2 3.73366 157.898 8.77938
323 2 7.96657 158.175 8.81843
324 2 11.9153 158.02 8.78577
325 2 15.8118 3.76723 8.93299
326 2 3.9449 3.77823 8.80282
327 2 8.03855 3.7456 8.74538
328 2 11.9555 3.55312 8.68248
329 2 -0.0777331 7.53778 8.75263
330 2 3.86869 7.49947 8.60106
331 2 7.91957 7.51714 8.53746
332 2 11.6565 7.59453 8.62943
333 2 -0.0758357 11.4566 8.6922
334 2 3.87707 11.4032 8.55981
335 2 7.7854 11.5044 8.56501
336 2 11.8833 11.4615 8.63505
337 2 -0.021807 15.3641 8.58132
338 2 3.82741 15.315 8.62785
339 2 8.04542 15.4001 8.49047
340 2 11.9834 15.3425 8.66871
341 2 0.0982559 19.282 8.61021
342 2 3.98487 19.1979 8.36677
343 2 7.90439 19.2986 8.61302
344 2 11.9182 19.0533 8.49126
345 2 -0.0838783 23.0817 8.53103
346 2 3.7547 23.0069 8.69342
347 2 7.60194 23.1511 8.37457
348 2 11.8732 23.0819 8.44436
349 2 15.6593 27.1344 8.41557
350 2 3.87159 26.9004 8.39932
351 2 7.74931 27.1264 8.47136
352 2 11.7864 26.9693 8.45509
353 2 0.0176649 31.0075 8.27045
354 2 3.89172 30.9558 8.38886
355 2 7.86206 31.0871 8.29693
356 2 11.804 30.9917 8.30209
357 2 15.7645 35.0167 8.41444
358 2 4.02584 35.0275 8.59362
359 2 7.95165 35.172 8.5418
360 2 11.7863 34.8233 8.40044
361 2 15.8095 39.0123 8.45565
362 2 3.93966 38.9248 8.64496
363 2 8.00564 39.1564 8.47256
364 2 11.9996 38.9444 8.63678
365 2 15.6869 42.8436 8.67904
366 2 3.94155 42.8556 8.51965
367 2 7.91576 42.9308 8.52314
368 2 11.8689 43.0866 8.67716
369 2 15.9165 46.9209 8.62098
370 2 3.94352 47.0614 8.91011
371 2 7.86346 46.9814 8.67524
372 2 11.7882 47.025 8.62464
373 2 -0.102499 50.9628 8.73214
374 2 4.02805 51.0846 8.69188
375 2 7.90803 51.0792 8.75898
376 2 11.8785 51.0747 8.65123
377 2 0.0811934 55.1179 8.70297
378 2 3.9534 55.1297 8.78473
379 2 7.93891 55.0833 8.80531
380 2 11.7034 55.1773 8.97591
381 2 15.8714 59.2728 8.86529
382 2 4.04008 59.3555 8.93807
383 2 7.9413 59.3257 8.83674
384 2 11.9351 59.0413 8.79869
385 2 16.0849 63.2002 9.05058
386 2 3.90872 63.1121 9.13021
387 2 7.92868 63.0897 8.65951
388 2 12.0259 63.2476 8.76903
389 2 -0.139949 67.2489 8.96367
390 2 3.76332 67.2398 9.12582
391 2 7.71565 67.4206 9.12501
392 2 11.8459 67.2899 8.92179
393 2 15.7785 71.1323 9.16999
394 2 3.85062 71.447 8.94557
395 2 7.88265 71.1892 9.07343
396 2 11.8466 71.1398 8.96969
397 2 -0.223901 75.1934 9.1422
398 2 3.71623 75.3408 9.18632
399 2 7.76162 75.2525 9.25485
400 2 11.6958 75.4325 8.90509
401 2 15.6394 79.2279 9.18876
402 2 3.82914 79.2386 9.11216
403 2 7.91008 79.3605 9.22651
404 2 11.9619 79.1733 9.11354
405 2 15.7401 83.2961 9.01263
406 2 4.04736 83.4242 9.131
407 2 7.98339 83.335 9.39378
408 2 11.8119 83.2285 9.19828
409 2 -0.0196096 87.3624 9.23361
410 2 4.00239 87.6534 9.26996
411 2 8.02853 87.6294 9.07711
412 2 12.0103 87.5459 9.38368
413 2 0.0565001 91.3563 9.37647
414 2 3.89145 91.4857 9.56321
415 2 7.94653 91.4122 9.19091
416 2 12.0001 91.3468 9.45768
417 2 -0.0868708 95.4938 9.45644
418 2 3.81104 95.4069 9.45494
419 2 7.88365 95.3429 9.4395
420 2 11.9272 95.3481 9.33643
421 2 -0.107468 99.2422 9.34093
422 2 3.91679 99.3718 9.36913
423 2 7.66543 99.4304 9.34431
424 2 11.6559 99.3599 9.31519
425 2 0.059268 103.155 9.28611
426 2 3.95244 103.278 9.32344
427 2 7.9867 103.195 9.47467
428 2 12.0335 103.204 9.3792
429 2 -0.0295445 107.158 9.29759
430 2 3.76393 107.102 9.41268
431 2 7.92518 107.129 9.28959
432 2 11.805 107.147 9.22621
433 2 -0.00996958 111.115 9.21376
434 2 3.89902 111.306 9.43963
435 2 7.81321 111.096 9.4623
436 2 11.6907 111.019 9.49289
437 2 15.7015 114.999 9.42263
438 2 3.88688 114.89 9.43569
439 2 7.92951 114.976 9.26225
440 2 11.7764 114.987 9.30328
441 2 0.0463115 118.826 9.22794
442 2 3.97867 118.9 9.23961
443 2 8.0603 118.933 9.37105
444 2 11.8461 118.997 9.2933
445 2 15.9213 122.716 9.41803
446 2 4.07828 122.799 9.51173
447 2 8.00341 122.835 9.20646
448 2 11.8786 122.671 9.25736
449 2 0.135142 126.657 9.0946
450 2 4.04157 126.603 9.36372
451 2 7.96029 126.608 9.23156
452 2 11.9957 126.576 9.2432
453 2 15.9282 130.622 9.26847
454 2 4.00011 130.559 9.25289
455 2 7.76999 130.55 9.02956
456 2 11.783 130.643 9.13235
457 2 15.6807 134.487 9.22524
458 2 3.98222 134.563 9.20462
459 2 7.97289 134.569 9.19174
460 2 11.9356 134.551 9.13245
461 2 -0.113457 138.303 9.13408
462 2 4.05042 138.319 9.07349
463 2 7.98214 138.464 9.19565
464 2 11.8493 138.571 9.09504
465 2 -0.136682 142.289 8.94671
466 2 3.96546 142.366 9.09757
467 2 7.7689 142.269 9.00096
468 2 11.8394 142.406 9.1048
469 2 15.9161 146.261 9.10737
470 2 3.85879 146.186 8.93929
471 2 8.11606 146.182 8.93462
472 2 11.9064 146.421 9.1236
473 2 0.189412 150.33 8.81969
474 2 4.04466 150.096 9.06441
475 2 7.90804 150.052 8.87297
476 2 11.7937 150.33 8.8521
477 2 0.027272 154.163 8.75668
478 2 4.09383 154.058 9.00488
479 2 7.90695 154.24 8.76541
480 2 11.797 154.221 8.80759
481 2 15.7777 158.18 12.7478
482 2 4.08865 157.939 12.805
483 2 7.94288 157.996 12.7853
484 2 11.8406 158.09 12.871
485 2 -0.159243 3.79829 12.892
486 2 4.18966 3.44874 12.6556
487 2 7.91705 3.61242 12.7944
488 2 11.7539 3.84985 12.6739
489 2 15.8431 7.57568 12.6472
490 2 3.87127 7.59819 12.6421
491 2 8.0039 7.47814 12.8022
492 2 11.7292 7.72411 12.6908
493 2 15.6518 11.4993 12.5936
494 2 4.06459 11.4095 12.5915
495 2 7.88601 11.4631 12.6434
496 2 11.7868 11.5072 12.711
497 2 15.8935 15.4381 12.6143
498 2 4.06296 15.3047 12.5249
499 2 7.89971 15.3528 12.6783
500 2 11.8742 15.3283 12.6559
501 2 15.9099 19.1983 12.5515
502 2 3.91286 19.2767 12.5718
503 2 8.00076 19.1801 12.4505
504 2 11.8801 19.3024 12.5595
505 2 15.6001 23.3676 12.5926
506 2 3.79766 23.0099 12.5928
507 2 7.94387 23.2673 12.5872
508 2 11.8325 23.1542 12.5641
509 2 -0.101485 27.1696 12.358
510 2 3.89194 27.1193 12.4536
511 2 7.76381 27.0115 12.5652
512 2 11.5654 27.1089 12.4681
513 2 15.6794 31.0667 12.3748
514 2 3.82024 31.0245 12.2951
515 2 7.78642 31.1229 12.3938
516 2 11.6046 30.8651 12.341
517 2 -0.136773 34.8646 12.4148
518 2 3.7778 34.89 12.3814
519 2 7.66253 35.0357 12.4275
520 2 11.9324 34.8049 12.3306
521 2 0.130429 38.9228 12.4263
522 2 3.90429 38.7959 12.3731
523 2 8.08364 39.005 12.4244
524 2 11.9651 38.8557 12.4907
525 2 -0.0419681 42.854 12.3911
526 2 3.97544 42.958 12.5082
527 2 7.98446 43.0422 12.5322
528 2 11.8511 42.8407 12.4899
529 2 0.0105872 46.8142 12.433
530 2 4.03095 47.1789 12.8077
531 2 7.9284 46.8969 12.5641
532 2 11.8816 46.971 12.4595
533 2 15.8149 50.92 12.6165
534 2 3.88321 50.9808 12.6804
535 2 7.87269 51.0379 12.7621
536 2 11.9203 51.1546 12.7521
537 2 -0.00481793 55.123 12.6485
538 2 4.00642 54.9694 12.7171
539 2 7.96372 55 12.7538
540 2 12.0538 54.9224 12.7138
541 2 15.8152 59.0556 12.7451
542 2 4.00509 59.0343 12.7643
543 2 7.989 59.2058 12.6287
544 2 11.9032 59.1304 12.7355
545 2 15.9813 63.1631 12.9475
546 2 4.11146 63.0942 12.927
547 2 8.03038 63.0374 12.8715
548 2 11.7868 63.1532 12.9118
549 2 -0.0225624 67.0246 12.9817
550 2 4.07779 67.2059 12.8394
551 2 7.86216 67.129 12.8655
552 2 11.8136 67.0504 12.9282
553 2 -0.0555583 71.1414 12.9211
554 2 4.07333 71.0997 12.9932
555 2 7.96094 71.0498 12.8815
556 2 11.6032 71.1904 12.8139
557 2 -0.0151938 74.9779 12.9734
558 2 3.9349 75.1801 13.0624
559 2 7.67017 75.1043 13.0176
560 2 11.6692 75.0841 12.9293
561 2 15.7954 79.0784 13.095
562 2 3.99124 79.1896 13.1279
563 2 7.9053 79.0747 13.3255
564 2 11.8757 79.1403 13.0218
565 2 -0.0888646 83.1804 13.1874
566 2 3.82572 83.1999 13.1236
567 2 7.73421 83.1672 13.2419
568 2 11.7656 83.2373 13.0552
569 2 15.9316 87.1117 13.2141
570 2 4.10844 87.2248 13.1928
571 2 7.91583 87.4806 13.0432
572 2 11.7987 87.1615 13.3232
573 2 0.0443283 91.3539 13.2282
574 2 3.84123 91.2665 13.2952
575 2 7.87523 91.3315 13.2372
576 2 11.8763 91.1951 13.2798
577 2 0.0748966 95.4787 13.2022
578 2 4.02295 95.4276 13.3311
579 2 8.05638 95.2813 13.24
580 2 11.8794 95.257 13.2887
581 2 0.0151753 99.2132 13.2612
582 2 3.97965 99.5561 13.4546
583 2 7.84693 99.1364 13.2108
584 2 11.905 99.1341 13.4417
585 2 15.7909 103.256 13.3949
586 2 4.03418 103.304 13.3659
587 2 7.95948 103.148 13.416
588 2 11.9768 103.198 13.3899
589 2 15.7072 107.258 13.401
590 2 3.83322 107.178 13.3486
591 2 7.68488 106.999 13.307
592 2 11.7079 107.189 13.2161
593 2 -0.0137019 110.975 13.3529
594 2 3.98931 111.063 13.1489
595 2 7.83106 111.054 13.5135
596 2 11.7213 111.022 13.2667
597 2 -0.019424 114.942 13.4265
598 2 3.8191 115.099 13.4349
599 2 7.92546 115.136 13.4784
600 2 11.8059 114.969 13.403
601 2 16.0204 118.897 13.4602
602 2 4.03421 118.863 13.2906
603 2 7.95974 119.012 13.4359
604 2 12.0499 118.825 13.289
605 2 16.0144 123.011 13.3798
606 2 4.07644 122.952 13.2913
607 2 8.14846 122.83 13.4074
608 2 12.0461 122.904 13.3079
609 2 0.0129761 126.917 13.3288
610 2 3.87796 126.828 13.2491
611 2 8.05115 126.83 13.1907
612 2 11.7742 126.922 13.0807
613 2 15.75 130.749 13.2184
614 2 4.12879 130.74 13.2776
615 2 7.90539 130.631 13.1209
616 2 11.7636 130.619 13.2794
617 2 0.0863818 134.635 13.1688
618 2 3.85251 134.645 13.1481
619 2 7.86594 134.635 13.1949
620 2 11.7266 134.676 13.1753
621 2 -0.0469849 138.426 13.1398
622 2 4.04418 138.65 13.097
623 2 7.93658 138.434 13.095
624 2 11.8 138.691 13.2542
625 2 15.8021 142.352 13.0595
626 2 3.89986 142.47 13.1542
627 2 7.76317 142.383 12.9716
628 2 11.7618 142.6 13.1358
629 2 15.822 146.243 13.1254
630 2 4.06363 146.4 12.9604
631 2 7.9205 146.406 12.8442
632 2 11.8444 146.359 12.7269
633 2 -0.0514703 150.277 12.7543
634 2 4.11351 150.211 12.9416
635 2 7.99842 150.398 12.9974
636 2 11.8724 150.351 12.858
637 2 -0.142138 154.182 12.6789
638 2 4.02898 154.208 12.9455
639 2 7.78857 154.186 12.8192
640 2 11.8411 154.462 12.7588
641 2 0.0437144 158.249 16.782
642 2 3.80026 158.047 16.9601
643 2 7.87035 158.163 16.9177
644 2 11.8443 158.129 16.7856
645 2 15.7823 3.7857 16.7402
646 2 3.89758 3.78957 16.8979
647 2 7.78203 3.56844 16.8872
648 2 12.0152 3.78297 16.8157
649 2 16.1251 7.77779 16.7279
650 2 4.02976 7.73037 16.686
651 2 7.70249 7.5394 16.8238
652 2 11.6289 7.75831 16.7037
653 2 0.00476831 11.5444 16.5957
654 2 3.88508 11.6944 16.6691
655 2 7.8886 11.7148 16.6982
656 2 11.8561 11.7035 16.5883
657 2 -0.0913738 15.499 16.6831
658 2 3.89805 15.5221 16.5239
659 2 7.92124 15.6566 16.6348
660 2 11.9487 15.5249 16.6965
661 2 15.7627 19.475 16.6495
662 2 3.98993 19.3704 16.5628
663 2 7.96512 19.539 16.535
664 2 11.9283 19.3767 16.5169
665 2 -0.0606367 23.3484 16.541
666 2 3.85638 23.245 16.4996
667 2 7.81589 23.4857 16.5601
668 2 11.6791 23.2778 16.6088
669 2 15.6282 27.0961 16.4471
670 2 3.80558 27.1132 16.5222
671 2 7.78622 27.2401 16.4461
672 2 11.7985 27.277 16.3964
673 2 15.8098 30.9551 16.2942
674 2 3.79992 30.9887 16.6069
675 2 7.86153 30.9509 16.4451
676 2 11.8661 31.1129 16.5058
677 2 15.6944 34.8017 16.4474
678 2 3.88758 34.8143 16.488
679 2 7.88459 34.7874 16.3437
680 2 11.9611 34.9345 16.2837
681 2 15.7903 38.8011 16.436
682 2 3.88831 38.8912 16.3931
683 2 7.9418 38.7025 16.3358
684 2 11.8334 38.7274 16.4908
685 2 0.0788615 42.8944 16.4776
686 2 3.95416 42.9697 16.3823
687 2 7.84775 42.9148 16.2258
688 2 11.9262 42.8896 16.383
689 2 15.6914 46.7997 16.3986
690 2 4.11282 46.9176 16.4468
691 2 7.898 46.8755 16.3844
692 2 11.7578 46.835 16.4074
693 2 15.83 50.9883 16.5752
694 2 3.92075 50.8795 16.6467
695 2 8.03229 50.9881 16.6058
696 2 11.9051 50.9985 16.5585
697 2 16.0125 55.0218 16.3786
698 2 3.99956 54.807 16.6256
699 2 7.74956 55.045 16.601
700 2 12.0004 54.9565 16.5333
701 2 15.6934 59.1239 16.6109
702 2 4.00209 58.9878 16.8777
703 2 7.78909 58.9846 16.7373
704 2 11.8217 59.1293 16.7424
705 2 15.704 63.1266 16.7536
706 2 3.90184 62.8941 16.74
707 2 8.01555 63.0132 16.7673
708 2 11.7655 63.0617 16.8514
709 2 -0.0269071 67.1315 16.8699
710 2 3.76149 66.9897 16.7899
711 2 7.74142 67.0933 16.8222
712 2 11.8812 66.9585 16.6962
713 2 0.0433633 70.993 16.9253
714 2 3.76912 71.0998 16.8178
715 2 7.83024 70.9394 16.8921
716 2 11.983 70.9454 16.8674
717 2 15.7458 74.9818 16.7591
718 2 3.86969 75.1885 17.0076
719 2 7.982 74.9764 16.973
720 2 11.7598 74.8898 16.6928
721 2 0.0738172 79.0853 16.8888
722 2 3.8167 79.2529 17.0457
723 2 7.89516 79.1546 17.1266
724 2 11.9173 79.1343 16.8967
725 2 -0.122056 83.0331 16.9395
726 2 4.06514 83.1434 17.1733
727 2 7.99944 83.2721 17.0619
728 2 11.7504 83.1962 17.1531
729 2 0.0872349 87.1265 17.044
730 2 4.01387 87.1596 17.1796
731 2 7.88289 87.2853 17.1205
732 2 11.8477 87.2127 17.1023
733 2 0.0553584 91.2707 17.1366
734 2 4.07083 91.3364 17.0256
735 2 8.14386 91.2389 17.1992
736 2 11.9514 91.2063 17.0672
737 2 16.061 95.3036 17.2513
738 2 4.06474 95.2864 17.0707
739 2 8.03587 95.3354 17.2675
740 2 12.0516 95.362 17.2169
741 2 15.8439 99.3787 17.4184
742 2 3.86307 99.208 17.4474
743 2 7.71256 99.3332 17.2187
744 2 11.9026 99.3909 17.4388
745 2 15.8116 103.159 17.469
746 2 4.10483 103.231 17.4159
747 2 7.88513 103.318 17.2642
748 2 11.9149 103.328 17.5182
749 2 15.8423 107.092 17.3941
750 2 3.8063 107.207 17.4698
751 2 7.87683 107.304 17.3022
752 2 11.8219 107.204 17.2566
753 2 -0.200938 111.045 17.3383
754 2 3.85027 111.103 17.3604
755 2 7.7878 111.258 17.3171
756 2 11.8032 111.204 17.4223
757 2 15.6878 115.095 17.4196
758 2 3.82997 114.988 17.3142
759 2 7.99828 115.009 17.6197
760 2 11.9096 115.128 17.4052
761 2 -0.147719 118.908 17.3928
762 2 3.93073 118.886 17.45
763 2 7.91995 119.179 17.3598
764 2 11.6971 118.909 17.4466
765 2 -0.0773305 122.983 17.4459
766 2 3.99608 123.107 17.2645
767 2 7.7804 122.993 17.289
768 2 11.8789 122.872 17.2555
769 2 0.0928681 126.859 17.4096
770 2 3.9768 126.905 17.3542
771 2 7.87649 126.739 17.2728
772 2 11.7824 126.754 17.2058
773 2 15.7816 130.626 17.0146
774 2 4.27382 130.759 17.0579
775 2 7.7832 130.652 17.1027
776 2 11.8789 130.53 17.245
777 2 15.9423 134.636 17.2257
778 2 3.95839 134.488 17.1281
779 2 8.02704 134.71 17.1452
780 2 11.9442 134.66 17.0677
781 2 15.8594 138.581 17.1885
782 2 4.00149 138.508 17.0913
783 2 7.87735 138.457 17.0834
784 2 11.9811 138.425 17.1804
785 2 15.7933 142.618 17.0317
786 2 4.0331 142.523 17.0249
787 2 7.88208 142.482 17.1742
788 2 11.7252 142.509 17.0508
789 2 -0.175924 146.53 17.0542
790 2 3.99438 146.612 16.9378
791 2 7.90667 146.44 17.0611
792 2 11.748 146.345 16.9644
793 2 15.9133 150.41 16.9417
794 2 4.04861 150.433 17.0573
795 2 8.02624 150.339 16.8579
796 2 11.8312 150.394 16.8723
797 2 -0.176712 154.155 16.8416
798 2 3.69451 154.108 16.9152
799 2 8.11119 154.274 16.7637
800 2 11.9515 154.261 16.8521
801 2 15.7591 158.262 20.8823
802 2 3.78682 158.237 20.9051
803 2 7.9499 -0.290286 21.0095
804 2 11.8435 158.033 20.8515
805 2 15.6872 3.71362 20.8209
806 2 3.83031 3.81976 20.9304
807 2 7.82809 3.62783 20.9267
808 2 11.7557 3.87215 20.8095
809 2 15.701 7.68672 20.6414
810 2 3.86867 7.71417 20.8117
811 2 7.81706 7.64384 20.6943
812 2 11.7727 7.59663 20.7144
813 2 -0.265115 11.238 20.6804
814 2 3.71044 11.7573 20.736
815 2 7.81139 11.613 20.8225
816 2 11.71 11.5445 20.562
817 2 15.8283 15.636 20.6478
818 2 3.90855 15.6392 20.6171
819 2 7.85021 15.4841 20.7915
820 2 11.9349 15.4025 20.6866
821 2 0.0826335 19.3787 20.5212
822 2 4.18656 19.4429 20.703
823 2 7.97182 19.3286 20.6389
824 2 11.787 19.5538 20.5248
825 2 15.9292 23.3683 20.5469
826 2 3.82458 23.2461 20.7175
827 2 8.05812 23.4701 20.5858
828 2 11.7936 23.2993 20.6493
829 2 -0.211009 27.1397 20.5472
830 2 3.72699 27.2512 20.5774
831 2 7.7176 27.3317 20.5362
832 2 11.8646 27.1003 20.5429
833 2 15.7906 31.221 20.5802
834 2 3.81742 31.0184 20.444
835 2 7.86185 31.1977 20.6339
836 2 11.6921 31.0142 20.6413
837 2 -0.206929 34.8912 20.5685
838 2 3.81429 35.2741 20.4448
839 2 7.62511 35.0763 20.4962
840 2 11.665 34.9772 20.55
841 2 15.6148 38.9332 20.4349
842 2 3.91086 39.0116 20.2672
843 2 7.83704 39.1732 20.262
844 2 11.5959 38.9321 20.3784
845 2 0.00307726 42.9256 20.4426
846 2 3.95809 42.8836 20.3173
847 2 7.95993 42.9188 20.2989
848 2 11.7589 42.6704 20.2764
849 2 0.0906391 46.9257 20.5812
850 2 3.92964 46.8299 20.2619
851 2 7.85062 46.947 20.2482
852 2 12.01 46.7213 20.4558
853 2 -0.0305846 50.8406 20.5183
854 2 3.85529 50.9919 20.5028
855 2 8.04249 50.7541 20.2562
856 2 11.8797 50.9845 20.4403
857 2 15.936 54.8034 20.5652
858 2 4.08378 54.7928 20.5886
859 2 8.04867 54.8758 20.4185
860 2 11.9444 55.1675 20.4595
861 2 15.8002 58.7642 20.438
862 2 3.88696 58.8862 20.5683
863 2 7.79189 58.9492 20.4773
864 2 12.0263 58.8117 20.73
865 2 15.7641 62.8583 20.6578
866 2 3.99136 62.7674 20.505
867 2 7.85989 62.8923 20.7025
868 2 11.7397 62.9732 20.5001
869 2 15.9401 67.1013 20.7448
870 2 3.96648 66.8042 20.5927
871 2 7.97291 66.9835 20.7045
872 2 11.7669 67.0103 20.731
873 2 0.0560227 71.1965 20.9901
874 2 3.97152 71.076 20.8101
875 2 7.8755 70.9829 20.9563
876 2 11.8425 70.9946 20.848
877 2 15.5515 74.959 20.7946
878 2 3.84951 75.0655 20.7344
879 2 7.84346 74.91 20.7714
880 2 11.7925 75.1777 20.6129
881 2 -0.00628927 79.0777 20.8095
882 2 3.9176 79.0983 20.908
883 2 7.79933 79.0911 20.7989
884 2 11.9354 78.9548 20.9353
885 2 0.00702813 83.0435 20.8273
886 2 3.88161 83.0253 20.9474
887 2 7.90699 83.1743 21.0417
888 2 11.8372 83.0344 21.0435
889 2 15.875 87.0473 21.0061
890 2 3.95586 87.0363 21.0365
891 2 7.80413 87.0904 20.9956
892 2 11.8579 87.1018 20.927
893 2 15.8496 91.0126 20.9225
894 2 3.97471 91.1725 21.1178
895 2 7.87929 91.0895 21.0696
896 2 11.8215 90.9775 20.9891
897 2 -0.147626 95.087 21.0913
898 2 4.02219 95.1328 21.0607
899 2 7.86299 95.19 21.1222
900 2 11.951 95.1174 21.0244
901 2 15.7825 99.1217 21.27
902 2 3.80495 99.413 21.2471
903 2 7.9003 99.312 21.4608
904 2 11.6245 99.4045 21.2063
905 2 0.0150591 103.308 21.3375
906 2 3.74548 103.332 21.2749
907 2 7.97619 103.235 21.2509
908 2 11.7411 103.335 21.3136
909 2 15.7206 107.306 21.5009
910 2 4.03003 107.265 21.45
911 2 7.96532 107.163 21.3853
912 2 11.715 107.288 21.2419
913 2 15.8448 111.26 21.4719
914 2 3.96674 111.259 21.2908
915 2 7.65541 111.126 21.2349
916 2 11.7716 111.442 21.3061
917 2 0.173231 115.078 21.5294
918 2 4.14236 115.12 21.3379
919 2 8.1792 115.157 21.4493
920 2 11.783 115.066 21.4453
921 2 15.7315 119.091 21.4868
922 2 3.8801 118.884 21.4281
923 2 7.96538 119.065 21.5174
924 2 11.8905 119.045 21.4818
925 2 15.779 123.129 21.4
926 2 3.8893 122.754 21.2735
927 2 8.01098 122.865 21.346
928 2 11.9142 123.037 21.4038
929 2 -0.0618215 126.99 21.2073
930 2 3.98527 126.965 21.2428
931 2 7.982 126.97 21.3601
932 2 11.9578 126.97 21.1936
933 2 0.102892 130.778 21.1013
934 2 4.04478 130.764 21.1783
935 2 7.9667 130.889 21.326
936 2 11.7932 130.982 21.3635
937 2 15.9349 134.536 21.1712
938 2 3.99304 134.547 21.1641
939 2 8.05402 134.616 21.2432
940 2 11.9782 134.819 21.258
941 2 -0.0650787 138.617 21.0416
942 2 3.83486 138.624 21.179
943 2 7.77355 138.669 21.0891
944 2 11.7884 138.623 21.0063
945 2 15.9678 142.48 21.1128
946 2 3.84629 142.503 21.0897
947 2 7.96232 142.463 21.1139
948 2 11.7683 142.63 21.274
949 2 15.8511 146.351 21.07
950 2 4.05817 146.422 21.0757
951 2 8.07135 146.466 21.0518
952 2 12.1119 146.443 20.7952
953 2 15.8099 150.294 20.8995
954 2 4.01176 150.239 20.9049
955 2 7.70925 150.365 21.0393
956 2 12.084 150.242 20.9473
957 2 -0.170868 154.146 21.0014
958 2 3.97733 154.269 20.9156
959 2 7.81472 154.349 21.0898
960 2 11.9314 154.344 20.7932
961 2 -0.0405172 158.143 25.0264
962 2 3.92624 157.923 24.9294
963 2 8.0682 158.146 24.9825
964 2 11.9619 158.181 25.0467
965 2 -0.0973608 3.77073 24.7977
966 2 3.9351 3.73155 24.6408
967 2 7.84053 3.69891 24.8172
968 2 11.6991 3.86559 24.8448
969 2 15.5948 7.73254 24.7531
970 2 3.72654 7.62195 24.8278
971 2 7.90564 7.81049 24.8269
972 2 11.8194 7.68803 24.7303
973 2 15.8085 11.7482 24.8227
974 2 3.99674 11.6789 24.5966
975 2 7.79013 11.5857 24.6517
976 2 11.8805 11.5871 24.7713
977 2 15.8146 15.5974 24.5548
978 2 3.99723 15.5707 24.8474
979 2 7.8767 15.6525 24.6563
980 2 11.8293 15.6092 24.4924
981 2 -0.0496217 19.4251 24.8278
982 2 3.86762 19.3139 24.7228
983 2 7.93472 19.5093 24.7286
984 2 11.8865 19.3174 24.5968
985 2 15.71 23.4409 24.61
986 2 3.92405 23.301 24.5268
987 2 7.87444 23.2221 24.6321
988 2 11.6975 23.3432 24.645
989 2 15.7213 27.3639 24.8029
990 2 3.98494 27.3266 24.6732
991 2 7.80237 27.3182 24.5571
992 2 11.7165 27.3858 24.6806
993 2 15.7714 31.2846 24.6305