ITEM: TIMESTEP
24400
ITEM: NUMBER OF ATOMS
32000
ITEM: BOX BOUNDS xy xz yz pp pp pp
0.0000000000000000e+00 1.5832000000000001e+01 0.0000000000000000e+00
0.0000000000000000e+00 1.5831999999999999e+02 0.0000000000000000e+00
8.3099359448628718e-01 1.6014612440550860e+02 0.0000000000000000e+00
ITEM: ATOMS id type x y z
1 2 -0.0926946 157.939 160.02
2 2 3.78365 157.996 160.02
3 2 7.94569 157.998 159.979
4 2 11.9072 157.941 159.845
5 2 -0.184028 3.60714 159.932
6 2 3.76953 3.66118 159.93
7 2 7.79945 3.51104 159.886
8 2 11.7701 3.57174 159.984
9 2 15.8003 7.48477 159.961
10 2 3.69291 7.67903 159.936
11 2 7.66016 7.44579 159.72
12 2 11.6654 7.5299 159.737
13 2 -0.225393 11.4283 159.818
14 2 3.84969 11.4312 159.862
15 2 7.97954 11.3175 159.867
16 2 11.7935 11.4996 159.85
17 2 -0.0538303 15.2281 159.925
18 2 3.89087 15.3935 159.821
19 2 7.79085 15.2034 159.708
20 2 11.8111 15.3559 159.741
21 2 -0.244457 19.2146 159.787
22 2 4.01719 19.2335 159.511
23 2 7.92339 19.1994 159.871
24 2 11.7404 19.1451 159.682
25 2 -0.143289 23.0326 159.868
26 2 3.73022 23.1303 159.595
27 2 8.02451 23.2328 159.732
28 2 11.9297 23.0521 159.596
29 2 -0.106729 27.0978 159.608
30 2 3.94458 27.1076 159.785
31 2 7.88788 26.9896 159.673
32 2 11.8411 27.1201 159.621
33 2 15.6738 31.304 159.948
34 2 3.92361 31.1527 159.77
35 2 7.84194 31.1745 159.658
36 2 11.8909 31.0747 159.781
37 2 15.8331 35.2255 159.858
38 2 3.97434 35.1077 159.875
39 2 8.02998 35.1199 160.016
40 2 11.8033 34.9454 159.823
41 2 -0.0133007 39.0512 160.151
42 2 3.81205 39.0873 159.932
43 2 7.93117 38.9813 159.998
44 2 11.6863 39.1486 160.111
45 2 15.8956 43.4253 160.239
46 2 3.88077 43.042 0.690885
47 2 7.97227 43.1359 160.087
48 2 11.8963 43.1829 160.125
49 2 15.9732 47.4955 160.068
50 2 4.05312 47.306 160.071
51 2 8.17553 47.2247 160.107
52 2 12.0496 47.2223 160.102
53 2 15.8397 51.2913 1.00291
54 2 3.90413 51.294 160.289
55 2 7.80303 51.2165 160.344
56 2 11.7184 51.3175 1.13577
57 2 15.8939 55.2121 0.82373
58 2 4.03629 55.22 1.15801
59 2 7.87818 55.343 0.91614
60 2 11.7884 55.3836 1.08636
61 2 -0.120533 59.2893 0.931279
62 2 3.77133 59.5145 1.05401
63 2 7.84373 59.3553 0.963425
64 2 11.939 59.3392 0.846828
65 2 -0.129243 63.439 1.2242
66 2 3.96466 63.3519 1.09153
67 2 7.9031 63.3279 1.14473
68 2 12.0578 63.2803 1.04642
69 2 15.7799 67.5111 1.41076
70 2 3.85029 67.4153 1.1902
71 2 7.84614 67.4034 0.96875
72 2 11.9264 67.4248 1.08231
73 2 -0.0136573 71.3653 1.28153
74 2 4.03704 71.4448 1.31055
75 2 7.87548 71.5228 1.02363
76 2 11.7193 71.4938 1.19836
77 2 -0.00430373 75.505 1.29663
78 2 3.83983 75.367 1.17144
79 2 7.71937 75.6212 1.23
80 2 11.8529 75.6189 1.46698
81 2 -0.162927 79.4017 1.27171
82 2 3.79309 79.4445 1.36322
83 2 7.66819 79.5663 1.2926
84 2 11.514 79.8102 1.26368
85 2 0.00524597 83.4473 1.34067
86 2 3.98501 83.5958 1.43282
87 2 7.94871 83.4364 1.3054
88 2 11.8282 83.4782 1.50503
89 2 0.0133131 87.6729 1.36632
90 2 3.90831 87.5075 1.30691
91 2 7.89227 87.2411 1.33706
92 2 11.8017 87.4262 1.48886
93 2 15.8081 91.5286 1.35669
94 2 4.24602 91.3126 1.37812
95 2 7.91495 91.3891 1.49516
96 2 11.7709 91.2829 1.37555
97 2 15.7882 95.3377 1.2388
98 2 3.94973 95.4889 1.38898
99 2 7.90314 95.3838 1.23433
100 2 11.9832 95.3686 1.19414
101 2 15.7722 99.4713 1.33563
102 2 3.9808 99.3291 1.40989
103 2 8.0084 99.4094 1.32099
104 2 12.0017 99.2852 1.39869
105 2 0.101511 103.2 1.48603
106 2 4.11815 103.305 1.27899
107 2 7.99853 103.174 1.38667
108 2 11.9203 103.139 1.22644
109 2 15.7967 107.098 1.31798
110 2 4.02637 107.232 1.20476
111 2 7.96369 107.12 1.24928
112 2 11.9917 107.074 1.20687
113 2 15.7147 110.939 1.19485
114 2 3.8919 111.025 1.29329
115 2 7.92926 111.059 1.27596
116 2 11.8488 110.955 1.36488
117 2 15.8329 114.875 1.15528
118 2 3.94822 114.854 1.2224
119 2 7.88796 115.014 1.44214
120 2 11.9819 115.226 1.19142
121 2 -0.0154205 118.836 1.21572
122 2 4.07733 118.882 1.20285
123 2 7.83375 119.066 1.01179
124 2 11.8713 119.042 1.10514
125 2 0.0506014 122.752 1.22851
126 2 3.83766 122.665 1.08344
127 2 7.64146 122.724 1.0392
128 2 11.9224 122.781 1.02856
129 2 0.0766254 126.525 1.23366
130 2 4.19301 126.649 1.03786
131 2 7.92061 126.626 1.27443
132 2 11.6909 126.546 1.15331
133 2 0.161264 130.423 1.12858
134 2 3.95152 130.473 1.14761
135 2 7.91611 130.614 1.17677
136 2 11.7232 130.388 1.02096
137 2 15.8599 134.386 0.985459
138 2 3.87166 134.288 160.305
139 2 7.82666 134.608 1.16387
140 2 11.8949 134.345 0.980287
141 2 15.8314 138.437 1.08144
142 2 3.97454 138.467 1.08291
143 2 7.92943 138.273 0.796178
144 2 11.9069 138.174 1.03262
145 2 -0.0364994 142.268 0.952174
146 2 3.89923 142.254 0.986826
147 2 7.82122 142.369 0.932016
148 2 11.8322 142.213 1.04318
149 2 -0.129129 146.16 0.852001
150 2 3.89276 146.407 160.292
151 2 7.95664 146.303 0.965873
152 2 11.8361 146.318 160.134
153 2 0.180567 150.094 160.21
154 2 3.80547 150.153 160.271
155 2 8.06077 150.123 0.844652
156 2 11.9854 150.194 0.753017
157 2 0.105538 154.079 160.228
158 2 4.05233 153.922 160.222
159 2 7.9529 153.803 160.106
160 2 12.0538 154.073 160.088
161 2 0.0262542 158.073 4.67758
162 2 3.94429 -0.215316 4.58139
163 2 8.07839 157.898 4.58513
164 2 11.9475 158.042 4.68138
165 2 -0.168298 3.49281 4.52886
166 2 3.90953 3.75536 4.84345
167 2 7.82968 3.58344 4.51698
168 2 11.7616 3.60719 4.59811
169 2 -0.0120997 7.42172 4.42896
170 2 3.78321 7.52675 4.59244
171 2 7.7917 7.50129 4.52592
172 2 11.8085 7.29609 4.49763
173 2 -0.1323 11.3558 4.57619
174 2 3.91539 11.5037 4.60481
175 2 8.02999 11.1157 4.5172
176 2 11.7253 11.5263 4.58945
177 2 0.232058 15.4346 4.39482
178 2 3.94162 15.3191 4.55743
179 2 7.88145 15.246 4.4677
180 2 11.8182 15.3905 4.5091
181 2 0.112302 19.0461 4.33902
182 2 3.93032 19.1018 4.4811
183 2 7.83555 19.2561 4.33169
184 2 11.7241 19.3561 4.5754
185 2 0.0297566 22.979 4.38116
186 2 3.65425 23.1712 4.31323
187 2 7.8859 23.0825 4.16529
188 2 11.976 23.0566 4.46735
189 2 -0.00342922 27.1528 4.29537
190 2 3.97497 27.0182 4.32575
191 2 8.1001 26.9976 4.53296
192 2 11.8349 27.013 4.32481
193 2 0.0338385 30.9938 4.43542
194 2 3.98294 30.8811 4.58158
195 2 7.74734 31.1282 4.32148
196 2 11.9344 31.0849 4.29055
197 2 15.8446 35.0334 4.38213
198 2 4.15665 35.028 4.54753
199 2 7.96803 34.9566 4.53366
200 2 11.841 34.9021 4.69422
201 2 -0.0583265 38.9825 4.58795
202 2 3.944 39.1228 4.64507
203 2 7.96269 39.24 4.69399
204 2 11.9681 39.0052 4.5966
205 2 15.9684 42.8967 4.7552
206 2 3.9641 43.0566 4.4911
207 2 8.05915 43.1694 4.61401
208 2 12.0281 43.0736 4.63122
209 2 16.0558 47.1704 4.80381
210 2 3.90921 47.0173 4.79405
211 2 7.94386 47.1934 4.7196
212 2 11.9553 47.1592 4.694
213 2 15.8496 51.0042 4.71798
214 2 4.11767 51.1206 4.77391
215 2 7.97255 51.2008 4.93073
216 2 11.854 51.238 4.87697
217 2 0.110302 55.2926 4.79698
218 2 3.93823 55.2048 4.99521
219 2 7.9541 55.172 4.65578
220 2 11.9987 55.1119 5.03043
221 2 15.822 59.3471 4.87949
222 2 4.08986 59.0341 4.89422
223 2 7.96112 59.137 4.92493
224 2 11.8103 59.2316 4.99893
225 2 15.7595 63.3219 4.9667
226 2 3.86235 63.3843 5.06665
227 2 7.92428 63.2242 4.92507
228 2 11.8157 63.35 5.13739
229 2 -0.00896005 67.5348 5.1714
230 2 4.07625 67.4379 5.24319
231 2 7.99605 67.4533 4.97932
232 2 11.6145 67.4836 5.06746
233 2 -0.173288 71.3987 5.22379
234 2 3.97963 71.3078 4.96369
235 2 8.05027 71.2736 5.22685
236 2 11.7429 71.3058 5.22631
237 2 15.8022 75.4008 5.00076
238 2 3.78478 75.4398 5.03347
239 2 7.80421 75.3339 5.34186
240 2 11.618 75.4569 5.11813
241 2 -0.100898 79.2918 5.27557
242 2 3.92277 79.5534 5.39279
243 2 7.83436 79.3645 5.2831
244 2 11.8972 79.3698 5.18294
245 2 0.0619463 83.398 5.24245
246 2 4.03554 83.3259 5.38133
247 2 7.94538 83.3354 5.39791
248 2 12.0564 83.4358 5.24892
249 2 0.0503762 87.2746 5.23377
250 2 3.81157 87.502 5.36943
251 2 8.10006 87.369 5.38981
252 2 11.9873 87.2359 5.14418
253 2 0.00606975 91.3332 5.44459
254 2 3.99478 91.4596 5.41326
255 2 7.83927 91.318 5.13583
256 2 11.955 91.521 5.37731
257 2 15.8633 95.1703 5.28607
258 2 3.86135 95.5487 5.35702
259 2 7.76179 95.3179 5.21728
260 2 11.9057 95.3309 5.34491
261 2 -0.00484589 99.2704 5.3763
262 2 3.93012 99.308 5.29186
263 2 8.04449 99.2817 5.45874
264 2 11.7476 99.0992 5.36562
265 2 0.0892593 103.173 5.34995
266 2 3.89062 103.222 5.28931
267 2 7.98505 103.35 5.34046
268 2 11.8652 103.068 5.27745
269 2 -0.199013 107.003 5.38021
270 2 3.84514 107.079 5.33693
271 2 7.74889 107.303 5.29765
272 2 11.6822 107.142 5.35977
273 2 15.7377 111.037 5.22972
274 2 3.92451 111.136 5.26949
275 2 7.70349 111.004 5.21405
276 2 11.8093 111.169 5.23464
277 2 15.7865 115.06 5.47011
278 2 3.91806 114.96 5.32681
279 2 7.89254 114.991 5.19327
280 2 11.7943 115.004 5.37575
281 2 15.8193 118.897 5.12801
282 2 3.91688 118.834 5.18131
283 2 8.02064 118.892 5.28292
284 2 11.8858 119.144 5.16187
285 2 -0.0169226 122.783 5.12688
286 2 4.18614 122.697 5.2952
287 2 8.13408 122.636 5.33561
288 2 11.8693 122.696 5.26261
289 2 -0.0822916 126.602 5.26453
290 2 4.09068 126.614 5.20727
291 2 8.08597 126.579 5.15097
292 2 11.9658 126.675 5.26461
293 2 -0.00289333 130.717 5.16112
294 2 3.91758 130.675 5.15253
295 2 7.90097 130.65 5.03423
296 2 11.9678 130.578 5.18326
297 2 15.8257 134.494 5.10139
298 2 4.00848 134.578 5.24232
299 2 7.85785 134.5 4.94434
300 2 11.7581 134.46 5.02492
301 2 0.0814498 138.299 4.85108
302 2 3.9111 138.449 5.19716
303 2 8.00828 138.333 5.0647
304 2 12.0742 138.487 5.11833
305 2 0.00261989 142.443 4.99593
306 2 3.95704 142.128 4.95309
307 2 7.72511 142.322 4.89993
308 2 11.8067 142.235 5.00685
309 2 0.0220774 146.394 4.89767
310 2 4.08473 146.335 4.90588
311 2 7.78384 146.188 4.9123
312 2 11.9911 146.069 4.8437
313 2 15.6786 150.257 4.91294
314 2 4.07853 150.247 5.00208
315 2 7.84347 150.2 4.9797
316 2 11.8083 150.243 4.89281
317 2 0.111201 154.296 4.82683
318 2 4.10303 154.228 4.81251
319 2 8.04678 154.244 4.8628
320 2 12.0013 154.121 4.86895
321 2 0.347345 158.097 8.71319
322 2 4.14144 158.022 8.76298
323 2 8.00348 158.032 8.70247
324 2 12.083 158.062 8.72424
325 2 15.7886 3.55404 8.62718
326 2 3.98754 3.60352 8.6867
327 2 7.75936 3.55296 8.66224
328 2 11.8312 3.57052 8.81555
329 2 -0.158956 7.43846 8.4339
330 2 3.91538 7.46905 8.66746
331 2 7.9538 7.45612 8.57728
332 2 11.8937 7.54513 8.44769
333 2 -0.12845 11.2929 8.35725
334 2 3.95291 11.39 8.61345
335 2 8.06643 11.2544 8.61525
336 2 12.0031 11.5848 8.45532
337 2 0.0243552 15.3204 8.58363
338 2 3.94927 15.2072 8.39212
339 2 7.876 15.1448 8.63263
340 2 11.9127 15.2646 8.44822
341 2 -0.198948 19.1832 8.48901
342 2 3.93092 19.3841 8.71482
343 2 7.76824 19.3509 8.56703
344 2 11.8096 19.1799 8.40477
345 2 -0.238855 23.2972 8.49815
346 2 3.79186 23.313 8.26389
347 2 7.79483 23.206 8.5358
348 2 11.6883 22.9596 8.50791
349 2 15.7098 26.9698 8.44991
350 2 3.89004 27.1435 8.40769
351 2 7.79283 27.0838 8.2922
352 2 11.719 27.1091 8.07264
353 2 -0.307171 30.9132 8.47298
354 2 3.73269 30.9838 8.37387
355 2 7.76803 30.9456 8.56321
356 2 11.7059 31.1319 8.54768
357 2 15.7141 35.0531 8.39213
358 2 3.95981 34.9528 8.27551
359 2 7.81731 34.9388 8.36349
360 2 11.7612 35.2128 8.41801
361 2 15.8948 38.9266 8.67052
362 2 4.08364 38.9895 8.33539
363 2 7.9171 38.8743 8.57775
364 2 11.812 38.9506 8.40078
365 2 15.9486 42.9972 8.67032
366 2 4.20384 43.1251 8.58659
367 2 8.03334 43.1136 8.49961
368 2 11.9038 42.9029 8.56667
369 2 15.7225 47.0487 8.84351
370 2 3.91015 46.9755 8.58306
371 2 7.82226 47.03 8.55482
372 2 11.9914 47.0277 8.69331
373 2 0.256602 51.2053 8.80924
374 2 3.98503 51.1062 8.77486
375 2 7.8633 51.0734 8.85656
376 2 11.9081 50.9936 8.82579
377 2 -0.102432 55.1824 8.81617
378 2 3.89117 55.0448 8.7782
379 2 7.82858 55.1239 8.82821
380 2 11.9517 55.0525 8.71506
381 2 15.7088 59.2057 8.86443
382 2 3.99705 58.9703 8.70232
383 2 7.88166 59.0577 8.84834
384 2 11.774 59.4332 8.91883
385 2 15.9029 63.2224 8.77184
386 2 4.08818 63.2051 8.74754
387 2 7.96371 63.2939 9.11458
388 2 11.9186 63.1264 9.07254
389 2 0.0154402 67.2473 9.09931
390 2 4.06625 67.1967 9.01326
391 2 8.11795 67.0583 8.97244
392 2 11.8996 67.1528 9.04497
393 2 15.7472 71.4262 9.02764
394 2 3.74907 71.1991 9.06767
395 2 7.816 71.3548 9.07743
396 2 11.8044 71.3949 9.16088
397 2 -0.0600912 75.1822 9.01718
398 2 3.80246 75.3078 9.03545
399 2 7.72137 75.2493 9.02621
400 2 11.8215 75.1871 9.05869
401 2 15.8262 79.2925 9.14096
402 2 3.77741 79.3976 9.24344
403 2 7.87357 79.217 9.28136
404 2 11.77 79.3025 9.15461
405 2 15.9171 83.3293 9.40073
406 2 4.13229 83.3845 9.22946
407 2 7.97495 83.2691 9.19042
408 2 11.8219 83.3719 9.23801
409 2 0.15082 87.1752 9.29229
410 2 4.08556 87.1028 9.21034
411 2 8.11883 87.2452 9.23388
412 2 11.9653 87.2356 9.30903
413 2 0.0693755 91.3378 9.37109
414 2 4.0434 91.3634 9.12652
415 2 7.87611 91.1656 9.16879
416 2 11.9448 91.4678 9.14254
417 2 0.0807284 95.5 9.44256
418 2 4.03619 95.4334 9.37979
419 2 7.76269 95.2692 9.16135
420 2 11.8378 95.195 9.22981
421 2 0.13074 99.3721 9.42998
422 2 4.16383 99.4547 9.28127
423 2 8.01151 99.3062 9.53192
424 2 11.9507 99.2911 9.41707
425 2 0.00370833 103.191 9.28938
426 2 3.92593 103.232 9.27032
427 2 7.94854 103.237 9.29347
428 2 11.734 103.1 9.34771
429 2 -0.053387 107.124 9.23166
430 2 4.05715 107.154 9.18535
431 2 7.74905 107.137 9.34243
432 2 11.8563 107.071 9.47108
433 2 -0.261053 111.037 9.26677
434 2 3.87797 110.91 9.20264
435 2 7.90753 111.02 9.20141
436 2 11.8317 111.13 9.23712
437 2 15.7883 114.947 9.25797
438 2 3.93418 115.059 9.24744
439 2 7.81972 114.964 9.5227
440 2 11.7769 114.893 9.31547
441 2 0.061029 118.834 9.45185
442 2 4.14742 118.901 9.34339
443 2 7.88617 118.817 9.44408
444 2 11.9535 118.796 9.42059
445 2 15.833 122.79 9.28959
446 2 3.97106 122.923 9.11821
447 2 8.05557 122.659 9.42892
448 2 12.0132 122.86 9.31233
449 2 0.215528 126.539 9.13702
450 2 4.21704 126.897 9.19349
451 2 8.13718 126.787 9.22694
452 2 11.9661 126.956 9.17127
453 2 15.9234 130.582 9.16554
454 2 4.02133 130.732 9.22147
455 2 8.05343 130.785 9.15433
456 2 11.9274 130.609 9.32899
457 2 16.1227 134.692 9.05946
458 2 4.03884 134.602 8.96753
459 2 7.88659 134.57 9.0419
460 2 11.9236 134.495 9.17645
461 2 0.170777 138.606 8.99635
462 2 3.84467 138.618 9.05978
463 2 7.88045 138.441 9.03379
464 2 11.8975 138.356 9.0786
465 2 0.0844705 142.496 9.01065
466 2 3.75888 142.46 8.97223
467 2 7.96539 142.497 9.03417
468 2 11.7632 142.313 8.88154
469 2 15.7752 146.321 8.76734
470 2 3.99646 146.322 9.0106
471 2 7.89972 146.294 8.91943
472 2 11.9773 146.219 8.69396
473 2 -0.0136551 150.155 8.83798
474 2 3.9673 150.199 8.69344
475 2 8.04644 150.291 8.84798
476 2 11.956 150.25 8.92281
477 2 -0.0052153 154.082 8.88655
478 2 3.91479 154.112 8.72543
479 2 8.01373 154.085 8.94031
480 2 12.0883 154.125 8.84863
481 2 15.8576 158.189 12.901
482 2 3.80986 158.139 12.7215
483 2 7.83661 158.083 12.904
484 2 11.7884 158.049 12.7599
485 2 0.197586 3.6516 12.704
486 2 3.75188 3.69605 12.8198
487 2 7.78427 3.66944 12.6828
488 2 11.9728 3.48864 12.8216
489 2 15.7604 7.49078 12.6509
490 2 4.0552 7.64803 12.714
491 2 7.77142 7.69351 12.6178
492 2 11.8452 7.52172 12.6115
493 2 16.0245 11.3559 12.5967
494 2 3.93521 11.6159 12.6211
495 2 7.88188 11.5504 12.6496
496 2 11.939 11.4244 12.5497
497 2 15.9934 15.3448 12.5613
498 2 4.0872 15.3833 12.5256
499 2 7.92678 15.4213 12.4974
500 2 11.7479 15.3347 12.596
501 2 15.7147 19.3428 12.7225
502 2 3.94182 19.1702 12.5667
503 2 7.71045 19.4035 12.5964
504 2 11.7375 19.2794 12.4859
505 2 15.8417 23.1892 12.4672
506 2 3.9042 23.3281 12.4896
507 2 7.91456 23.3081 12.4062
508 2 11.7531 23.2444 12.4296
509 2 -0.104764 27.0951 12.4588
510 2 3.96151 27.1168 12.532
511 2 7.75783 27.2489 12.3225
512 2 11.5882 27.1968 12.1516
513 2 15.7826 30.8564 12.349
514 2 3.78524 31 12.3998
515 2 7.80335 31.1402 12.5147
516 2 11.7987 31.1478 12.2644
517 2 0.0559852 34.9877 12.1451
518 2 3.88943 34.9435 12.3253
519 2 7.87661 34.9503 12.4771
520 2 11.7637 34.9623 12.5054
521 2 0.0508696 39.0046 12.7167
522 2 4.0939 39.0185 12.4493
523 2 7.9389 38.8017 12.4762
524 2 11.9362 38.9312 12.4893
525 2 0.13877 42.8893 12.704
526 2 4.0469 42.9278 12.4727
527 2 7.91165 42.689 12.4147
528 2 11.8689 42.982 12.4566
529 2 -0.0209351 47.1032 12.6994
530 2 3.788 46.8198 12.5699
531 2 7.81145 46.9543 12.5094
532 2 11.6833 46.9779 12.5284
533 2 15.7366 51.0731 12.7089
534 2 3.89636 50.9765 12.6965
535 2 7.84932 50.8559 12.559
536 2 11.7176 50.9054 12.5918
537 2 -0.0164722 55.1739 12.5635
538 2 3.92868 55.0715 12.6237
539 2 7.90775 55.152 12.7068
540 2 11.7559 55.1443 12.6444
541 2 15.8537 59.1 12.7585
542 2 4.03953 59.0484 12.7236
543 2 7.86306 59.0279 12.8131
544 2 11.7932 59.0797 12.6739
545 2 15.7641 63.0333 12.7097
546 2 3.87049 63.1899 12.7515
547 2 7.81578 63.2705 12.9532
548 2 11.9318 63.0478 12.7488
549 2 0.0190435 67.3367 12.9046
550 2 3.88522 67.0153 13.0576
551 2 7.91832 67.0627 12.8913
552 2 11.9235 67.1955 12.7915
553 2 0.0675144 71.0846 12.955
554 2 3.89119 71.0651 12.8677
555 2 7.84292 71.1719 12.9836
556 2 11.9269 71.1657 13.0513
557 2 -0.108434 75.2407 13.0461
558 2 3.833 75.2206 13.1319
559 2 7.88939 75.1278 13.0174
560 2 11.859 75.1318 13.1327
561 2 15.8204 79.2923 12.8699
562 2 3.96142 79.1682 13.0897
563 2 7.89968 79.1723 12.9614
564 2 11.8787 79.2133 13.0025
565 2 0.0826804 83.092 13.1208
566 2 4.10099 83.2423 13.1867
567 2 7.95268 83.1294 13.0598
568 2 11.8307 83.1708 13.2822
569 2 15.848 87.2162 13.0573
570 2 3.93384 87.2555 13.1325
571 2 7.78636 87.1191 13.1738
572 2 11.9084 87.2838 13.0205
573 2 0.119269 91.1632 13.1919
574 2 3.98818 91.497 13.1944
575 2 7.84047 91.2031 12.9456
576 2 11.8295 91.2748 13.2087
577 2 -0.105766 95.3569 13.4586
578 2 4.10555 95.3295 13.3106
579 2 8.0338 95.3334 13.3663
580 2 11.7896 95.3393 13.3527
581 2 -0.130001 99.4567 13.5326
582 2 3.96723 99.2698 13.3518
583 2 8.09961 99.3257 13.5562
584 2 11.7379 99.2918 13.1106
585 2 15.7546 103.258 13.433
586 2 3.65692 103.435 13.2365
587 2 7.82747 103.219 13.4795
588 2 11.8408 103.342 13.3872
589 2 15.7293 107.133 13.3038
590 2 3.7304 107.411 13.1799
591 2 7.81768 107.106 13.4048
592 2 11.9581 107.169 13.4158
593 2 -0.137349 111.188 13.2945
594 2 3.76899 111.251 13.5301
595 2 7.78503 110.86 13.159
596 2 11.8497 111.04 13.4394
597 2 -0.0825166 115.113 13.237
598 2 3.97759 114.938 13.0182
599 2 7.89252 114.801 13.4012
600 2 11.8983 115.058 13.3087
601 2 15.7442 119.053 13.2332
602 2 3.99066 118.874 13.4256
603 2 7.96568 118.891 13.4438
604 2 11.7634 119.056 13.4662
605 2 15.8914 122.668 13.3123
606 2 3.95855 122.737 13.3936
607 2 7.74602 122.914 13.3371
608 2 11.975 122.805 13.1704
609 2 0.094172 126.579 13.1675
610 2 4.18282 126.697 13.2431
611 2 7.83493 126.672 13.4138
612 2 12.1505 126.614 13.2374
613 2 16.0325 130.656 13.0644
614 2 3.8443 130.668 13.0767
615 2 7.92847 130.95 13.2895
616 2 11.9992 130.713 13.0272
617 2 -0.0431311 134.614 13.1663
618 2 4.22519 134.6 13.0714
619 2 8.07652 134.733 13.246
620 2 12.0283 134.494 13.1464
621 2 -0.171907 138.622 13.0779
622 2 3.7307 138.499 13.0927
623 2 7.85922 138.628 13.1603
624 2 11.9192 138.388 12.9347
625 2 15.735 142.382 13.1796
626 2 3.89794 142.358 13.003
627 2 7.77019 142.501 13.0733
628 2 11.8454 142.398 12.974
629 2 15.7792 146.272 12.881
630 2 3.82752 146.492 12.9159
631 2 7.85324 146.4 13.028
632 2 12.0352 146.339 13.1163
633 2 0.0157114 150.105 12.9883
634 2 4.0653 150.427 12.621
635 2 7.96989 150.327 12.8609
636 2 11.9764 150.126 12.9369
637 2 0.279597 154.099 12.9979
638 2 3.9792 154.149 12.8207
639 2 8.11662 154.248 12.9667
640 2 12.2107 153.999 12.7372
641 2 -0.123122 157.973 16.8822
642 2 4.03493 158.161 16.8128
643 2 7.83443 158.122 16.9079
644 2 11.8439 158.218 16.8859
645 2 15.6859 3.83119 16.8572
646 2 3.8782 3.69998 16.7429
647 2 8.00219 3.78456 16.731
648 2 11.7115 3.72589 16.858
649 2 15.5565 7.57701 16.5087
650 2 4.01094 7.45416 16.7701
651 2 8.00349 7.7334 16.6553
652 2 11.8223 7.52813 16.6718
653 2 -0.092701 11.5016 16.7349
654 2 3.76496 11.5465 16.6431
655 2 7.88401 11.4893 16.7709
656 2 11.9285 11.5407 16.6415
657 2 -0.0499772 15.4069 16.5409
658 2 4.04386 15.4096 16.7368
659 2 8.02586 15.4383 16.5698
660 2 11.7359 15.3995 16.6314
661 2 15.849 19.1873 16.515
662 2 4.06937 19.4445 16.6114
663 2 7.90196 19.4013 16.6297
664 2 11.8133 19.4661 16.5253
665 2 -0.0969203 23.0927 16.3144
666 2 3.87087 23.4004 16.5478
667 2 7.81672 23.2624 16.6088
668 2 11.8539 23.4349 16.4425
669 2 15.785 27.1362 16.2861
670 2 3.98996 27.3182 16.5341
671 2 8.03257 27.2232 16.6662
672 2 11.9334 27.3827 16.5642
673 2 15.8731 31.0332 16.4843
674 2 3.97158 31.0506 16.1749
675 2 7.79863 31.1917 16.5061
676 2 11.9465 31.1686 16.3885
677 2 15.8612 35.0104 16.3182
678 2 3.76478 35.0478 16.335
679 2 7.78438 35.0149 16.3568
680 2 11.7583 34.8814 16.5799
681 2 15.7835 38.8046 16.4527
682 2 3.85127 38.7412 16.3584
683 2 7.9709 38.9221 16.4
684 2 11.8935 38.9024 16.3939
685 2 0.00323779 42.7571 16.4063
686 2 4.06025 42.7797 16.5954
687 2 7.98182 42.6865 16.3766
688 2 11.9712 42.9439 16.4619
689 2 15.7739 47.1384 16.596
690 2 3.68544 46.7665 16.5401
691 2 7.87517 46.8773 16.5293
692 2 11.9475 46.8634 16.376
693 2 15.7395 50.9447 16.6257
694 2 3.99798 51.05 16.5167
695 2 7.90223 51.0183 16.4894
696 2 11.8836 50.9322 16.5538
697 2 15.9508 55.0246 16.7894
698 2 4.05273 55.0094 16.4722
699 2 8.17936 54.9534 16.6199
700 2 11.987 55.0407 16.5518
701 2 15.9183 59.037 16.5041
702 2 3.76662 59.0455 16.6311
703 2 7.86715 58.9663 16.6379
704 2 11.8505 58.9259 16.5401
705 2 15.8304 62.9588 16.6341
706 2 3.97419 63.0648 16.7765
707 2 7.76203 62.9736 16.7983
708 2 11.8691 62.9212 16.5609
709 2 0.0522355 66.9426 16.8467
710 2 4.05871 67.0335 16.793
711 2 8.20104 67.0603 16.7
712 2 11.9219 67.135 16.9159
713 2 -0.0333092 70.9723 16.7663
714 2 4.08851 71.019 17.0515
715 2 7.83573 71.154 16.9445
716 2 11.8258 71.1273 16.8059
717 2 15.8969 75.0977 16.9175
718 2 3.87215 75.0249 16.9146
719 2 7.77573 75.202 16.6957
720 2 11.9922 75.1073 17.0642
721 2 -0.289667 79.2188 16.8002
722 2 4.12916 79.0976 16.9738
723 2 7.97904 79.0188 16.8356
724 2 11.8598 79.0556 17.0664
725 2 0.116883 83.1888 17.0746
726 2 3.94588 83.175 17.0244
727 2 7.97393 83.1243 17.0318
728 2 11.9621 83.3269 16.9902
729 2 -0.082595 87.0829 17.1111
730 2 3.86338 87.1154 17.0152
731 2 7.85744 87.1879 16.9937
732 2 11.9494 87.1703 16.8746
733 2 -0.0129188 91.1381 17.0788
734 2 3.87135 91.1384 17.2081
735 2 7.81215 91.2132 16.9282
736 2 12.0255 91.1601 17.0722
737 2 15.7747 95.395 17.0021
738 2 4.00426 95.1383 17.2157
739 2 7.87403 95.1162 17.2691
740 2 11.9144 95.0972 17.212
741 2 15.8992 99.2696 17.2527
742 2 4.00657 99.2671 17.2588
743 2 7.90985 99.39 17.4681
744 2 11.8861 99.1966 17.2958
745 2 15.9115 103.397 17.3405
746 2 3.81938 103.311 17.3806
747 2 7.96516 103.142 17.2535
748 2 11.9413 103.286 17.4027
749 2 15.8481 107.369 17.4233
750 2 4.02488 107.374 17.3298
751 2 7.8296 107.107 17.481
752 2 11.7047 107.289 17.4071
753 2 -0.0152953 111.298 17.4102
754 2 3.85759 111.291 17.3267
755 2 7.82557 111.046 17.297
756 2 11.7785 111.017 17.3611
757 2 15.7516 114.946 17.273
758 2 3.94409 115.043 17.3888
759 2 7.91416 115.111 17.1897
760 2 11.7418 114.875 17.4462
761 2 -0.0272501 119.031 17.1921
762 2 3.86209 118.875 17.4077
763 2 7.79893 118.841 17.3601
764 2 11.9186 118.989 17.3242
765 2 0.135558 122.953 17.1603
766 2 3.97924 122.544 17.4821
767 2 7.92131 122.764 17.3259
768 2 11.8133 122.867 17.2398
769 2 -0.0547184 126.841 17.2117
770 2 3.96099 126.558 17.2958
771 2 8.00465 126.779 17.2817
772 2 11.8562 126.953 17.1211
773 2 15.7531 130.74 17.2165
774 2 3.70718 130.51 17.2455
775 2 7.92899 130.744 17.2854
776 2 11.9013 130.854 17.1411
777 2 16.0245 134.561 17.0227
778 2 4.00824 134.685 17.2891
779 2 7.91478 134.488 17.3047
780 2 12.1613 134.504 17.3385
781 2 15.9159 138.506 17.0208
782 2 3.97284 138.479 17.1206
783 2 7.92928 138.671 17.1217
784 2 11.8462 138.67 17.1383
785 2 15.8107 142.378 17.2323
786 2 3.85524 142.574 17.0344
787 2 7.80159 142.523 16.9655
788 2 11.7733 142.406 17.0552
789 2 0.0860268 146.173 16.8014
790 2 3.91865 146.473 16.8081
791 2 7.78286 146.405 16.917
792 2 11.7174 146.537 16.9436
793 2 15.7899 150.255 16.8281
794 2 3.81907 150.388 16.8679
795 2 7.88838 150.388 16.9779
796 2 11.8371 150.298 17.092
797 2 0.0249124 154.272 16.9061
798 2 4.00771 154.303 16.9191
799 2 7.79032 154.243 17.0237
800 2 11.8811 154.196 16.9631
801 2 15.8883 158.17 20.9087
802 2 3.97628 158.082 20.8627
803 2 7.78965 -0.0181966 20.8117
804 2 11.8857 158.173 20.8711
805 2 15.768 3.89224 20.8027
806 2 3.86011 3.78723 20.5392
807 2 7.87132 3.76793 20.8702
808 2 11.8531 3.55904 20.8277
809 2 15.785 7.7784 20.83
810 2 4.10689 7.6464 20.6913
811 2 7.96197 7.71483 20.8539
812 2 11.9043 7.74747 20.7329
813 2 0.037529 11.7762 20.5839
814 2 4.02471 11.5698 20.5734
815 2 7.79395 11.5045 20.6562
816 2 11.7988 11.621 20.7287
817 2 15.8095 15.2666 20.6088
818 2 4.04937 15.5114 20.717
819 2 7.8564 15.4536 20.5907
820 2 11.748 15.6381 20.6222
821 2 0.0324067 19.392 20.4143
822 2 3.69625 19.3757 20.5795
823 2 7.77797 19.4384 20.5461
824 2 12.0075 19.3712 20.6527
825 2 15.5698 23.1664 20.4552
826 2 3.89818 23.3312 20.4911
827 2 7.66792 23.3501 20.6316
828 2 11.7727 23.3959 20.5766
829 2 0.0822687 27.1692 20.4581
830 2 3.8909 27.2228 20.5341
831 2 7.92623 27.2727 20.5329
832 2 11.8977 27.4483 20.6193
833 2 15.7262 31.07 20.5733
834 2 3.8351 31.2046 20.6001
835 2 7.76289 31.3664 20.4718
836 2 11.7528 31.2287 20.4814
837 2 0.0893799 35.1665 20.4403
838 2 3.89185 34.9018 20.4424
839 2 7.92017 35.1167 20.4222
840 2 11.8991 35.0575 20.3838
841 2 15.8929 38.9442 20.4212
842 2 3.92226 39.126 20.4896
843 2 7.8028 38.6258 20.4392
844 2 11.8118 38.8559 20.3583
845 2 -0.124192 42.7729 20.2297
846 2 3.83048 43.0624 20.2972
847 2 7.8674 42.7444 20.2185
848 2 11.8985 42.9451 20.2462
849 2 0.0495104 46.8138 20.2719
850 2 3.96071 46.9287 20.4367
851 2 8.04347 46.7924 20.398
852 2 11.7588 46.9174 20.2218
853 2 -0.0451458 50.7987 20.3947
854 2 4.28063 50.9365 20.357
855 2 7.98769 51.0218 20.6041
856 2 11.9425 50.8426 20.4682
857 2 15.7822 54.9424 20.634
858 2 3.80836 54.929 20.4988
859 2 8.08277 55.0691 20.6175
860 2 12.1143 54.9216 20.319
861 2 15.7469 58.9956 20.8218
862 2 3.80115 58.9257 20.6224
863 2 7.82862 58.9329 20.6306
864 2 11.8574 59.1248 20.4696
865 2 15.7655 62.9903 20.6285
866 2 3.86454 63.0563 20.8036
867 2 7.94771 63.0868 20.6634
868 2 11.9191 62.906 20.7162
869 2 15.7252 66.7917 20.6355
870 2 3.9608 66.9591 20.7521
871 2 7.88596 67.0083 20.7101
872 2 11.8846 66.9439 20.6355
873 2 -0.0359119 70.7485 20.6258
874 2 3.99238 70.9506 20.8003
875 2 7.90993 70.8935 20.6816
876 2 11.8733 71.0085 20.8404
877 2 15.8972 75.1491 20.7669
878 2 3.95497 74.9642 20.7736
879 2 8.00304 75.0103 20.8589
880 2 11.8156 74.8684 20.7674
881 2 0.0119396 78.9922 20.8834
882 2 3.8984 78.9671 20.8353
883 2 7.93688 78.969 20.97
884 2 11.8006 79.122 20.7105
885 2 -0.00412434 83.0516 20.9495
886 2 3.97 83.0753 20.9276
887 2 7.91665 83.1043 20.8806
888 2 11.8519 83.1341 20.8053
889 2 15.8066 87.1269 21.1692
890 2 3.91897 87.1777 21.0639
891 2 7.86159 87.1802 20.9106
892 2 11.8857 87.0984 21.0329
893 2 15.9099 91.2455 20.9732
894 2 3.84648 91.0443 21.083
895 2 7.81096 91.0432 20.9554
896 2 11.783 91.1037 20.9357
897 2 0.00793283 95.2114 20.993
898 2 3.9141 95.1778 21.0403
899 2 7.91536 95.0644 21.1474
900 2 11.6611 95.147 21.0338
901 2 15.6481 99.2292 21.1265
902 2 4.10311 99.1629 21.1996
903 2 7.74734 99.1509 21.0313
904 2 11.7638 99.1154 21.174
905 2 -0.15403 103.215 21.4576
906 2 4.06722 103.345 21.3657
907 2 7.78926 103.135 21.2239
908 2 11.8928 103.181 21.4899
909 2 15.8012 107.175 21.2457
910 2 3.8816 107.181 21.2415
911 2 7.86745 107.177 21.4153
912 2 11.9375 107.188 21.326
913 2 15.8204 111.173 21.3937
914 2 3.92466 111.147 21.5095
915 2 8.0064 111.065 21.5833
916 2 11.8746 110.91 21.4454
917 2 -0.250425 115.278 21.2139
918 2 3.80159 115.046 21.3056
919 2 7.86252 115.109 21.2725
920 2 12.0091 115.203 21.4381
921 2 15.963 118.991 21.3637
922 2 3.97434 119.031 21.3546
923 2 7.9984 118.997 21.2837
924 2 11.9477 119.038 21.2732
925 2 15.8312 122.974 21.2602
926 2 4.03975 122.809 21.3201
927 2 7.99222 123.177 21.332
928 2 12.1171 122.709 21.1618
929 2 -0.00656592 126.873 21.3383
930 2 3.88156 126.759 21.4063
931 2 7.97712 126.8 21.1755
932 2 11.7091 126.697 21.1729
933 2 0.0141975 130.84 21.3468
934 2 3.95466 130.687 21.3205
935 2 7.84453 130.699 21.1993
936 2 11.9015 130.707 21.0866
937 2 15.7488 134.762 21.2232
938 2 3.9893 134.745 21.1829
939 2 7.77042 134.74 21.2333
940 2 11.8372 134.631 21.0407
941 2 0.165054 138.633 21.245
942 2 4.04616 138.51 21.099
943 2 7.95531 138.42 21.0207
944 2 11.8831 138.481 21.156
945 2 15.8525 142.471 21.032
946 2 4.22351 142.467 21.0081
947 2 7.91903 142.554 21.0676
948 2 12.1041 142.264 20.7831
949 2 15.8791 146.245 20.7319
950 2 4.03899 146.353 20.9125
951 2 7.85854 146.388 21.0784
952 2 11.8746 146.412 21.0562
953 2 15.8066 150.1 21.0045
954 2 3.77338 150.341 20.9957
955 2 7.92712 150.317 20.9704
956 2 11.7541 150.335 20.9785
957 2 0.0662449 154.209 20.8795
958 2 3.96884 154.117 20.9725
959 2 7.89671 154.199 20.7477
960 2 11.841 154.12 21.1314
961 2 -0.172124 158.341 24.7513
962 2 3.7718 158.244 24.8539
963 2 7.62601 158.216 24.9012
964 2 11.6664 158.362 24.8377
965 2 -0.120494 3.822 24.9783
966 2 3.83645 3.80248 24.8349
967 2 7.77603 3.91939 24.9033
968 2 11.8112 3.81493 24.8981
969 2 16.06 7.70725 24.7261
970 2 4.00711 7.78674 24.791
971 2 7.84427 7.67339 24.8766
972 2 11.8384 7.78726 24.8696
973 2 15.8619 11.6552 24.6625
974 2 3.80169 11.6065 24.7629
975 2 7.89532 11.5545 24.7964
976 2 11.9764 11.6768 24.6952
977 2 15.7547 15.5297 24.5772
978 2 3.73916 15.655 24.5997
979 2 8.08771 15.42 24.5964
980 2 11.9285 15.5781 24.7179
981 2 -0.171662 19.5195 24.5335
982 2 3.84213 19.6421 24.6262
983 2 7.83447 19.4167 24.6413
984 2 11.6778 19.574 24.6227
985 2 15.7937 23.3188 24.5858
986 2 3.99121 23.418 24.6398
987 2 7.91854 23.4659 24.5871
988 2 11.916 23.3987 24.5001
989 2 15.7527 27.2152 24.412
990 2 3.92249 27.2427 24.4652
991 2 7.91515 27.3506 24.5912
992 2 11.7093 27.1993 24.5243
993 2 15.89 31.1819 24.6165