ITEM: TIMESTEP
24700
ITEM: NUMBER OF ATOMS
32000
ITEM: BOX BOUNDS xy xz yz pp pp pp
0.0000000000000000e+00 1.5832000000000001e+01 0.0000000000000000e+00
0.0000000000000000e+00 1.5831999999999999e+02 0.0000000000000000e+00
8.2473489177894521e-01 1.6015238310821590e+02 0.0000000000000000e+00
ITEM: ATOMS id type x y z
1 2 -0.0642776 158.029 160.006
2 2 3.78786 158.02 159.958
3 2 7.95268 158.034 160.152
4 2 11.9094 158.015 159.974
5 2 0.160353 3.5852 160.081
6 2 4.06016 3.66325 160.057
7 2 8.13329 3.47931 159.993
8 2 11.9319 3.42326 159.871
9 2 16.0877 7.46346 159.946
10 2 4.09 7.52798 159.976
11 2 7.77633 7.30013 159.766
12 2 11.9812 7.41078 159.987
13 2 -0.121743 11.3319 159.872
14 2 3.94813 11.3476 159.94
15 2 7.97851 11.2526 159.975
16 2 11.9582 11.362 159.798
17 2 -0.0794478 15.2157 159.82
18 2 3.71296 15.3274 159.766
19 2 7.89315 15.0105 159.936
20 2 11.9328 15.327 159.661
21 2 -0.202536 19.256 159.768
22 2 3.96467 19.1257 159.648
23 2 7.89144 19.2346 159.865
24 2 11.8089 19.1156 159.667
25 2 -0.0993348 23.1008 159.736
26 2 3.98986 23.0519 159.723
27 2 7.74895 23.0568 159.888
28 2 11.8441 23.1315 159.736
29 2 0.0850622 27.1058 159.49
30 2 3.93647 27.0022 159.759
31 2 7.8586 27.1358 159.793
32 2 11.8334 27.0059 159.765
33 2 15.9785 31.3122 160.007
34 2 3.91332 31.1529 159.845
35 2 7.83438 31.0812 159.718
36 2 12.001 31.0527 159.774
37 2 15.9672 35.1035 159.891
38 2 4.09138 35.2542 159.89
39 2 7.90957 35.1678 159.901
40 2 11.6279 35.1894 159.728
41 2 -0.177449 39.2718 160
42 2 3.94232 39.1167 159.816
43 2 7.89093 39.1364 159.978
44 2 11.6684 39.0828 159.905
45 2 15.672 43.4579 160.032
46 2 3.93221 43.1113 0.532543
47 2 7.84603 43.1837 159.915
48 2 11.8213 43.2412 159.918
49 2 15.7626 47.4277 160.013
50 2 3.86312 47.1908 160.019
51 2 8.0187 47.144 160.172
52 2 11.8408 47.211 159.936
53 2 15.8996 51.3322 0.875375
54 2 3.86912 51.3573 160.008
55 2 7.68376 51.3156 160.248
56 2 11.803 51.2651 0.964388
57 2 15.9803 55.3798 0.828821
58 2 3.94917 55.3935 0.960064
59 2 7.88022 55.33 0.820633
60 2 12.0384 55.3316 1.04096
61 2 -0.175478 59.1646 0.928578
62 2 3.68381 59.4251 1.06864
63 2 7.92985 59.4559 1.23399
64 2 11.8088 59.2819 0.785517
65 2 -0.0652897 63.2946 1.15213
66 2 4.01861 63.2533 1.1252
67 2 7.79804 63.3133 1.20728
68 2 11.863 63.2673 0.913612
69 2 15.8829 67.3879 1.30308
70 2 3.88908 67.2796 1.21456
71 2 7.80956 67.0791 1.09054
72 2 11.8175 67.2559 1.03204
73 2 -0.0513984 71.2949 1.07933
74 2 4.0921 71.3469 1.32798
75 2 8.02103 71.3778 1.21293
76 2 11.8021 71.3945 1.05072
77 2 0.139972 75.3276 1.18012
78 2 4.10361 75.3327 1.13997
79 2 7.84943 75.4181 1.3686
80 2 11.9327 75.3991 1.35851
81 2 0.134469 79.324 1.16288
82 2 4.014 79.3022 1.50549
83 2 7.79841 79.4891 1.50932
84 2 11.9017 79.5145 1.18829
85 2 0.103257 83.3938 1.25802
86 2 3.9733 83.5103 1.39962
87 2 7.98084 83.3273 1.24167
88 2 11.9252 83.4206 1.42817
89 2 -0.175185 87.6973 1.58767
90 2 3.69388 87.5765 1.48543
91 2 7.73708 87.1809 1.41662
92 2 11.7607 87.4257 1.57233
93 2 15.7371 91.6605 1.65214
94 2 4.17472 91.4769 1.63631
95 2 8.0075 91.634 1.59646
96 2 11.8062 91.3906 1.50503
97 2 15.9373 95.3233 1.4383
98 2 3.71885 95.5606 1.48571
99 2 7.93387 95.3565 1.40558
100 2 11.7623 95.2582 1.2882
101 2 15.5488 99.2333 1.27227
102 2 3.8824 99.2038 1.43062
103 2 7.7315 99.3207 1.47284
104 2 11.7778 99.1524 1.37187
105 2 -0.0993753 103.164 1.51849
106 2 3.9942 103.333 1.3057
107 2 7.89864 103.202 1.30724
108 2 11.7796 103.071 1.31619
109 2 15.8114 107.094 1.34166
110 2 4.00144 107.114 1.26117
111 2 7.99184 107.072 1.16045
112 2 11.846 106.862 1.1981
113 2 15.7319 110.801 1.12924
114 2 3.9024 111.03 1.19203
115 2 8.02483 110.852 1.22378
116 2 11.8573 110.788 1.2875
117 2 15.7428 114.649 1.42039
118 2 3.91097 114.816 1.16805
119 2 7.89031 114.815 1.32879
120 2 11.9212 114.804 1.22117
121 2 -0.0357213 118.446 1.05816
122 2 4.09331 118.712 1.07044
123 2 7.90714 118.988 1.06255
124 2 11.999 118.727 1.17401
125 2 0.0560926 122.824 1.09827
126 2 3.92921 122.561 1.12014
127 2 7.77627 122.72 1.05492
128 2 11.8801 122.843 0.996932
129 2 -0.00356378 126.641 1.10566
130 2 4.19689 126.793 1.07876
131 2 8.11419 126.653 1.2124
132 2 11.9033 126.75 1.03352
133 2 0.13096 130.509 1.01479
134 2 4.17154 130.623 0.942317
135 2 8.00568 130.84 0.970853
136 2 12.0207 130.571 0.933339
137 2 16.0638 134.627 0.925513
138 2 3.97876 134.367 160.338
139 2 8.00895 134.759 0.939068
140 2 11.8047 134.637 0.898061
141 2 15.9579 138.493 1.00341
142 2 3.97636 138.397 0.948537
143 2 8.07476 138.479 0.87984
144 2 11.8877 138.538 0.919627
145 2 0.0131932 142.426 1.03497
146 2 3.9925 142.204 0.987449
147 2 7.95658 142.369 0.882451
148 2 11.8712 142.389 0.951074
149 2 0.0800375 146.18 0.865784
150 2 3.95814 146.327 160.213
151 2 7.96682 146.391 0.801882
152 2 11.8139 146.307 160.128
153 2 0.0466388 150.109 160.183
154 2 3.73416 150.222 160.156
155 2 8.06581 150.116 0.745199
156 2 11.8007 150.169 0.653657
157 2 -0.173069 154.022 159.989
158 2 3.85611 154.058 160.209
159 2 7.70663 153.998 160.063
160 2 11.824 153.995 160.15
161 2 0.0277074 158.112 4.87105
162 2 3.80824 -0.174344 4.6945
163 2 7.83645 158.017 4.58593
164 2 11.727 158.009 4.90129
165 2 0.0594097 3.39884 4.80315
166 2 4.02007 3.69456 4.94174
167 2 7.98571 3.5516 4.65952
168 2 11.8872 3.55134 4.80513
169 2 0.0569773 7.53199 4.70645
170 2 4.04154 7.5361 4.68544
171 2 7.94268 7.55078 4.54976
172 2 11.7739 7.38583 4.51582
173 2 -0.146892 11.2926 4.50519
174 2 3.98041 11.6448 4.62367
175 2 7.95997 11.368 4.53106
176 2 11.7475 11.5485 4.56404
177 2 0.0399197 15.4577 4.34108
178 2 3.85352 15.3587 4.52825
179 2 7.59791 15.4214 4.50438
180 2 11.6406 15.467 4.46065
181 2 -0.0352032 19.4385 4.43708
182 2 3.87702 19.2342 4.50512
183 2 7.69718 19.285 4.47325
184 2 11.6959 19.4949 4.60037
185 2 -0.0923695 23.2689 4.43658
186 2 3.74147 23.1243 4.47604
187 2 7.77309 23.1371 4.32672
188 2 11.8264 23.285 4.40984
189 2 -0.106776 27.1345 4.34916
190 2 4.02469 26.9828 4.24457
191 2 8.12948 27.0428 4.60554
192 2 11.7641 27.1138 4.35684
193 2 0.13757 31.0089 4.45854
194 2 3.84805 30.9576 4.43506
195 2 7.79905 31.0172 4.42219
196 2 11.8444 31.0167 4.28489
197 2 15.8045 35.1043 4.38866
198 2 3.89692 35.08 4.59477
199 2 7.85497 35.1476 4.38539
200 2 11.7344 34.9713 4.58538
201 2 -0.0777994 39.0325 4.50879
202 2 3.85127 39.2907 4.63106
203 2 7.84311 39.3573 4.45743
204 2 11.9817 39.0985 4.46231
205 2 15.7935 43.0538 4.68108
206 2 3.83893 43.1525 4.41481
207 2 7.8642 43.2642 4.52278
208 2 11.8427 43.1933 4.44194
209 2 15.8846 47.0407 4.74705
210 2 3.79463 47.1386 4.65598
211 2 7.76028 47.0971 4.55613
212 2 11.7739 47.2973 4.58449
213 2 15.8239 51.118 4.71959
214 2 4.0804 51.2002 4.66566
215 2 8.04163 51.2662 4.70025
216 2 11.8407 51.0914 4.87033
217 2 -0.0741206 55.273 4.72352
218 2 3.85491 55.2049 5.01206
219 2 8.03046 55.3266 4.71948
220 2 11.9164 55.3032 4.94189
221 2 15.7026 59.1799 5.01595
222 2 4.17532 59.208 4.98719
223 2 8.01505 59.2536 4.93378
224 2 11.8267 59.1948 4.91859
225 2 15.8013 63.26 4.9291
226 2 3.84466 63.2659 5.15031
227 2 7.91574 63.0611 4.93334
228 2 11.694 63.3313 4.99367
229 2 -0.0562613 67.2813 5.10362
230 2 3.96435 67.2328 5.17977
231 2 7.77995 67.1563 4.98938
232 2 11.7702 67.2129 4.9157
233 2 -0.117118 71.2174 5.18848
234 2 4.09299 71.2644 5.20031
235 2 7.92179 71.0984 5.17259
236 2 11.9346 71.2544 4.99493
237 2 16.0707 75.2842 4.97972
238 2 4.06513 75.3423 5.1187
239 2 7.97506 75.3741 5.31012
240 2 11.7496 75.4436 4.98846
241 2 0.126559 79.2533 5.23039
242 2 3.97184 79.3682 5.24481
243 2 7.96879 79.3055 5.32379
244 2 12.025 79.2848 5.23909
245 2 -0.0764706 83.3955 5.16187
246 2 3.874 83.3412 5.09286
247 2 7.75981 83.5077 5.3645
248 2 11.8765 83.3658 5.32483
249 2 -0.168236 87.2606 5.2413
250 2 3.949 87.524 5.24411
251 2 7.71836 87.3695 5.33674
252 2 11.7477 87.3785 5.37963
253 2 0.109433 91.4202 5.64655
254 2 3.92505 91.5305 5.53448
255 2 7.91502 91.1704 5.40145
256 2 11.9394 91.5776 5.59219
257 2 15.7863 95.2557 5.43011
258 2 3.84341 95.4602 5.48308
259 2 7.90709 95.3955 5.40638
260 2 11.8111 95.4889 5.43211
261 2 -0.0391131 99.2214 5.532
262 2 3.93685 99.3082 5.32271
263 2 7.91743 99.4348 5.63955
264 2 11.5998 99.2545 5.5053
265 2 -0.0677788 103.381 5.38762
266 2 3.94726 103.172 5.32362
267 2 7.94805 103.467 5.27453
268 2 11.9322 103.111 5.48818
269 2 -0.0716161 107.122 5.37126
270 2 3.88608 107.099 5.29354
271 2 7.89769 107.113 5.39053
272 2 11.8037 107.126 5.45756
273 2 16.0238 110.973 5.3821
274 2 4.04551 111.18 5.19441
275 2 8.02404 110.869 5.18462
276 2 11.8695 111.007 5.21861
277 2 15.7072 114.996 5.30584
278 2 3.98578 115.041 5.41631
279 2 8.11461 114.829 5.25615
280 2 11.9722 115.021 5.31703
281 2 15.7419 118.769 5.04215
282 2 3.71837 118.879 5.09782
283 2 7.87151 118.819 5.15952
284 2 11.8167 118.941 5.21517
285 2 -0.000101934 122.841 5.01823
286 2 3.9298 122.719 5.21025
287 2 7.95044 122.766 5.24627
288 2 11.7902 122.754 5.04422
289 2 0.0108197 126.762 4.99995
290 2 4.04936 126.535 5.0878
291 2 8.04645 126.69 4.92759
292 2 12.0888 126.795 5.07596
293 2 0.104547 130.533 4.93087
294 2 4.00396 130.587 5.15633
295 2 7.95818 130.614 4.95017
296 2 12.0455 130.732 4.96329
297 2 15.7416 134.392 4.96538
298 2 4.03694 134.575 4.94742
299 2 8.05738 134.585 4.95364
300 2 12.0302 134.538 4.99085
301 2 -0.0808782 138.214 4.89943
302 2 4.12808 138.381 5.09611
303 2 8.05357 138.621 4.94192
304 2 12.054 138.649 5.16422
305 2 0.0117326 142.584 4.95617
306 2 4.03865 142.167 4.95081
307 2 7.86344 142.346 4.92196
308 2 11.7492 142.391 5.0333
309 2 0.108521 146.373 4.86473
310 2 4.10635 146.162 4.76892
311 2 7.87552 146.078 4.93
312 2 11.9193 146.305 4.77913
313 2 15.8397 150.306 4.77249
314 2 4.08369 150.205 4.95731
315 2 7.80571 150.159 4.89135
316 2 11.7418 150.025 4.83727
317 2 -0.213788 154.044 4.82421
318 2 4.02967 154.263 4.83382
319 2 7.77598 154.301 4.68505
320 2 11.7597 153.95 4.71719
321 2 -0.0481158 158.084 8.85591
322 2 3.98931 158.082 8.85796
323 2 7.8186 158.033 8.66573
324 2 11.725 158.066 8.827
325 2 15.6923 3.7512 8.74228
326 2 3.99172 3.62826 8.86371
327 2 7.8531 3.69949 8.72899
328 2 11.7569 3.75122 8.83839
329 2 -0.19387 7.57572 8.654
330 2 3.84387 7.6733 8.66417
331 2 7.94477 7.69066 8.76306
332 2 11.7392 7.61269 8.68585
333 2 -0.181665 11.5529 8.65114
334 2 3.74994 11.3722 8.64417
335 2 7.94497 11.4048 8.5289
336 2 11.805 11.6614 8.63595
337 2 -0.135781 15.3924 8.52616
338 2 3.67085 15.441 8.35916
339 2 7.74104 15.5185 8.39553
340 2 11.881 15.4622 8.52539
341 2 -0.0735012 19.2929 8.61102
342 2 3.80456 19.4552 8.59849
343 2 7.85104 19.2757 8.4701
344 2 11.9652 19.1923 8.56617
345 2 -0.135233 23.3625 8.53712
346 2 3.70782 23.1458 8.24653
347 2 7.81471 23.2895 8.50364
348 2 11.8375 23.0298 8.52809
349 2 15.9038 26.977 8.40856
350 2 3.88694 27.0611 8.35613
351 2 7.74654 27.0331 8.29424
352 2 11.967 27.3218 8.03282
353 2 -0.0243828 30.9909 8.38245
354 2 3.96752 31.0327 8.38363
355 2 7.83676 31.072 8.44732
356 2 11.8329 31.1969 8.30095
357 2 15.7271 35.013 8.36864
358 2 3.94099 35.1363 8.46964
359 2 7.83412 34.9001 8.46387
360 2 11.8281 35.2308 8.45529
361 2 15.8316 39.078 8.63378
362 2 3.98081 39.1531 8.17629
363 2 7.91684 38.9408 8.57007
364 2 11.8075 39.1547 8.31232
365 2 15.8062 43.0071 8.74522
366 2 3.95884 43.0873 8.59716
367 2 7.94688 43.0977 8.39643
368 2 11.8151 43.012 8.48436
369 2 15.6449 47.1381 8.64165
370 2 3.92337 46.9797 8.60658
371 2 7.9049 47.1463 8.49377
372 2 11.9141 47.0052 8.50194
373 2 0.311521 51.1067 8.52176
374 2 4.05123 51.1234 8.65157
375 2 7.8606 51.0658 8.70325
376 2 11.9889 51.0725 8.67585
377 2 -0.154462 55.2696 8.78628
378 2 3.82221 55.1974 8.68716
379 2 7.82181 55.0845 8.74004
380 2 11.9746 54.9435 8.67956
381 2 15.9031 59.076 8.97908
382 2 4.04187 59.0409 8.82804
383 2 7.90974 59.1238 8.78213
384 2 11.7507 59.2924 8.64141
385 2 15.9413 63.1693 8.82179
386 2 4.01902 63.0803 8.86271
387 2 7.83401 63.009 8.98137
388 2 12.0228 63.2243 8.93515
389 2 -0.115617 67.2795 8.98135
390 2 3.91452 67.1304 9.02709
391 2 7.83469 67.0042 8.93944
392 2 11.906 67.0536 8.88987
393 2 15.8722 71.3787 9.10601
394 2 3.92994 71.0733 9.02334
395 2 7.84109 71.2219 9.13913
396 2 11.9249 71.2851 8.97081
397 2 0.0210763 75.2105 9.00538
398 2 4.12028 75.282 9.08269
399 2 7.95166 75.2628 9.11903
400 2 11.9658 75.1195 9.0434
401 2 15.841 79.2245 9.00795
402 2 3.93474 79.3017 9.20475
403 2 8.0933 79.1315 9.31873
404 2 11.9213 79.171 9.0387
405 2 15.7345 83.2371 9.26357
406 2 3.96023 83.2827 9.13123
407 2 7.88015 83.3552 9.01288
408 2 11.8436 83.3054 9.04335
409 2 -0.0758236 87.2239 9.29764
410 2 4.04301 87.4062 9.18193
411 2 8.16761 87.4949 9.18307
412 2 11.9331 87.2687 9.41665
413 2 0.000757806 91.2847 9.44222
414 2 3.97372 91.3451 9.35172
415 2 7.94404 91.3095 9.36282
416 2 12.0068 91.2946 9.43214
417 2 -0.00942853 95.383 9.6014
418 2 3.82409 95.3194 9.42937
419 2 7.69283 95.3217 9.37294
420 2 11.8026 95.1554 9.30016
421 2 0.0114686 99.3891 9.46962
422 2 3.98988 99.5089 9.49469
423 2 7.7156 99.4961 9.61463
424 2 11.907 99.2986 9.19781
425 2 -0.0804711 103.287 9.35554
426 2 4.09562 103.24 9.36478
427 2 7.91108 103.289 9.33177
428 2 11.8901 103.368 9.31658
429 2 0.0932114 107.331 9.41441
430 2 4.15971 107.268 9.32569
431 2 7.93697 107.152 9.56157
432 2 12.0002 107.133 9.46322
433 2 0.0765005 111.034 9.25527
434 2 3.96784 111.05 9.36406
435 2 7.99871 111.085 9.30888
436 2 11.8502 111.13 9.28143
437 2 15.7885 114.833 9.2005
438 2 3.89656 114.947 9.10555
439 2 7.91421 115.058 9.39013
440 2 11.7142 115.026 9.33064
441 2 -0.0833322 118.879 9.1817
442 2 4.06653 119.078 9.27809
443 2 7.80977 118.823 9.36309
444 2 11.8744 118.608 9.12682
445 2 15.7936 122.6 8.93958
446 2 3.7318 122.821 8.94542
447 2 7.84433 122.62 9.28439
448 2 11.8063 122.785 9.08142
449 2 0.137032 126.64 9.09729
450 2 4.11403 126.726 8.87215
451 2 7.91187 126.539 9.05162
452 2 11.6657 126.663 8.96668
453 2 15.7366 130.595 8.98195
454 2 3.86727 130.509 8.97239
455 2 7.90269 130.515 9.07739
456 2 11.8539 130.601 9.14645
457 2 16.049 134.512 8.9654
458 2 4.10602 134.395 9.03254
459 2 7.90779 134.624 8.9262
460 2 12.0499 134.441 8.94207
461 2 0.0163549 138.528 9.06235
462 2 4.21593 138.486 9.18336
463 2 8.09278 138.532 9.07292
464 2 11.9747 138.594 9.0235
465 2 -0.126069 142.415 9.10523
466 2 3.9266 142.303 8.99627
467 2 8.05928 142.362 9.18265
468 2 11.9651 142.508 8.93559
469 2 15.885 146.165 8.8083
470 2 4.0382 146.149 9.10704
471 2 8.13035 146.186 9.00691
472 2 11.9534 146.286 8.90283
473 2 -0.032584 150.076 8.77665
474 2 3.77999 150.133 8.83932
475 2 7.97077 150.235 8.94554
476 2 11.6778 150.133 8.81496
477 2 -0.238033 154.184 8.91658
478 2 3.58579 154.021 8.75997
479 2 7.79097 154.006 8.86054
480 2 11.7339 154.247 8.89141
481 2 15.6692 158.13 12.8276
482 2 3.88961 157.964 12.7663
483 2 7.73671 158.069 12.843
484 2 11.598 158.145 12.7038
485 2 0.111354 3.83696 12.796
486 2 3.93657 3.71385 12.7065
487 2 8.00325 3.57305 12.751
488 2 11.9369 3.65913 12.785
489 2 15.9022 7.71219 12.6253
490 2 4.24918 7.65833 12.6637
491 2 7.91235 7.73626 12.6242
492 2 11.6867 7.63905 12.7459
493 2 15.9538 11.3928 12.6386
494 2 3.90002 11.6015 12.7038
495 2 7.84668 11.4523 12.7068
496 2 11.8306 11.536 12.6647
497 2 15.8225 15.3908 12.6419
498 2 3.89633 15.2573 12.529
499 2 7.92065 15.3902 12.5842
500 2 11.845 15.2411 12.6571
501 2 15.8042 19.4241 12.6192
502 2 3.885 19.2691 12.458
503 2 7.80664 19.2957 12.5373
504 2 11.7742 19.2455 12.5757
505 2 15.8568 23.2909 12.4359
506 2 3.89903 23.1792 12.2977
507 2 8.07345 23.279 12.4715
508 2 11.7663 23.3697 12.4133
509 2 -0.184934 27.2738 12.4985
510 2 4.0919 27.1469 12.4215
511 2 7.91726 27.2226 12.4537
512 2 11.6327 27.1668 12.3436
513 2 15.8896 31.106 12.4778
514 2 3.86364 31.1636 12.3962
515 2 7.8372 31.0376 12.5373
516 2 11.9568 31.0118 12.3404
517 2 0.0674833 34.8916 12.2002
518 2 3.85391 35.009 12.2329
519 2 8.06403 34.9293 12.3788
520 2 11.9694 34.9742 12.3041
521 2 -0.00234724 39.0596 12.5235
522 2 3.97672 39.1225 12.3729
523 2 8.05139 38.8333 12.5259
524 2 12.0894 39.013 12.3267
525 2 0.0941939 42.8391 12.4136
526 2 3.97532 42.9935 12.4646
527 2 7.8657 42.8814 12.3533
528 2 11.966 43.1815 12.3731
529 2 0.105739 47.0472 12.5064
530 2 3.9998 46.8042 12.6217
531 2 8.03821 46.9952 12.5519
532 2 11.8542 46.8442 12.4608
533 2 15.8049 51.056 12.6427
534 2 4.0388 50.8229 12.7163
535 2 8.05721 50.9292 12.606
536 2 11.8926 50.9752 12.5659
537 2 -0.0495238 55.0424 12.5829
538 2 3.99855 54.9892 12.5832
539 2 7.95259 54.9354 12.617
540 2 11.8648 54.9901 12.6058
541 2 15.9673 58.9541 12.7516
542 2 4.07785 59.0987 12.7695
543 2 7.97534 59.0415 12.7339
544 2 11.7502 59.064 12.6904
545 2 15.77 63.2564 12.9382
546 2 3.89073 63.0474 12.7548
547 2 7.85059 63.0181 12.8399
548 2 11.8883 63.1407 12.812
549 2 -0.0265513 67.0596 12.9947
550 2 3.89402 67.0873 13.0447
551 2 7.84205 67.1874 12.7769
552 2 11.6525 67.2325 12.8993
553 2 0.122823 71.2 12.8674
554 2 4.21585 71.1791 12.887
555 2 7.86744 70.9875 12.8517
556 2 11.8632 70.9265 12.826
557 2 0.108382 75.2798 13.009
558 2 4.06599 75.1763 13.1302
559 2 8.07268 75.106 12.9134
560 2 11.7396 75.1145 12.8166
561 2 15.9384 79.2071 12.8718
562 2 3.99682 79.2124 12.9741
563 2 8.0286 79.1218 13.0076
564 2 11.9458 79.0717 12.998
565 2 0.0358048 83.0507 13.0305
566 2 4.13452 83.1921 13.114
567 2 7.89402 83.0675 13.0841
568 2 11.716 83.3015 13.2247
569 2 15.8761 87.1212 13.0532
570 2 3.95123 87.4152 13.2485
571 2 7.85906 87.3118 13.1695
572 2 11.8888 87.1903 13.1448
573 2 0.0994094 91.3214 13.2653
574 2 3.84474 91.3938 13.3046
575 2 8.01262 91.201 13.2018
576 2 11.8305 91.4419 13.3953
577 2 -0.174448 95.2933 13.3212
578 2 3.90984 95.3233 13.1315
579 2 8.12008 95.2998 13.282
580 2 11.7577 95.1644 13.2733
581 2 -0.192826 99.4096 13.4516
582 2 3.86893 99.2749 13.3354
583 2 7.8925 99.1801 13.4476
584 2 11.6413 99.213 13.1044
585 2 15.775 103.309 13.4383
586 2 3.81074 103.438 13.4839
587 2 7.91684 103.302 13.5447
588 2 11.8736 103.408 13.3742
589 2 15.8628 107.034 13.2349
590 2 3.79623 107.423 13.2985
591 2 7.92209 107.103 13.4225
592 2 11.8922 107.2 13.4351
593 2 -0.0288638 111.17 13.2817
594 2 3.92405 111.322 13.4629
595 2 7.93957 111.034 13.2467
596 2 11.8634 111.107 13.3634
597 2 0.0316036 115.2 13.0799
598 2 4.06587 114.989 13.3783
599 2 8.02875 114.981 13.468
600 2 11.8936 115.1 13.4337
601 2 15.8894 118.959 13.1573
602 2 4.03508 118.939 13.3095
603 2 8.06232 119.038 13.519
604 2 11.8885 119.04 13.3941
605 2 16.052 122.916 13.135
606 2 3.89837 122.837 13.1991
607 2 7.83378 122.944 13.1165
608 2 12.0699 122.906 12.9477
609 2 -0.0126408 126.718 13.1501
610 2 4.07391 126.92 13.229
611 2 7.91324 126.667 13.204
612 2 11.9091 126.562 13.0312
613 2 15.8411 130.613 13.0357
614 2 3.81981 130.649 13.1461
615 2 7.85305 130.838 13.1757
616 2 11.6668 130.605 12.8984
617 2 -0.099598 134.667 13.0535
618 2 4.27837 134.601 13.1129
619 2 8.08447 134.834 13.16
620 2 11.8799 134.667 13.1357
621 2 -0.0949816 138.518 13.2227
622 2 4.06171 138.406 13.1527
623 2 8.01871 138.564 13.1724
624 2 11.8262 138.599 13.0713
625 2 15.9063 142.305 13.2064
626 2 4.16143 142.361 13.0681
627 2 8.00541 142.377 13.0819
628 2 11.9271 142.433 12.9185
629 2 15.8697 146.159 13.0115
630 2 4.14004 146.363 12.954
631 2 8.018 146.432 13.0765
632 2 12.0307 146.349 13.0417
633 2 0.0164168 150.142 12.9412
634 2 4.12113 150.248 12.7476
635 2 7.97737 150.258 12.7402
636 2 11.6938 150.109 13.023
637 2 -0.00295326 154.2 12.9959
638 2 3.99247 154.105 12.7623
639 2 7.97697 154.24 12.898
640 2 11.8294 154.162 12.8271
641 2 -0.0396599 158.19 16.8264
642 2 3.91366 158.121 16.7727
643 2 8.00881 157.992 16.7582
644 2 12.0238 158.213 16.6905
645 2 16.0331 3.84998 16.8466
646 2 3.95985 3.66832 16.7708
647 2 8.13223 3.8389 16.7025
648 2 11.8418 3.84307 16.8283
649 2 15.8188 7.73057 16.665
650 2 4.12062 7.58871 16.8335
651 2 8.08989 7.63785 16.7878
652 2 11.8937 7.63819 16.7007
653 2 -0.0542629 11.4741 16.678
654 2 3.76684 11.4743 16.7074
655 2 7.77746 11.5666 16.7038
656 2 11.8861 11.6326 16.7772
657 2 -0.167119 15.504 16.5564
658 2 3.9895 15.6034 16.6916
659 2 8.02798 15.5157 16.6142
660 2 11.936 15.5419 16.5854
661 2 15.9544 19.2184 16.5213
662 2 4.02853 19.4465 16.6398
663 2 7.96623 19.6899 16.6587
664 2 11.8453 19.4749 16.7241
665 2 -0.0527489 23.2875 16.3896
666 2 3.92887 23.3817 16.5333
667 2 7.76847 23.2332 16.561
668 2 11.8074 23.5117 16.4269
669 2 15.7294 27.1655 16.5359
670 2 3.96535 27.2447 16.6039
671 2 8.00113 27.0711 16.4843
672 2 11.9279 27.3216 16.5565
673 2 15.9484 31.2113 16.4933
674 2 4.08553 30.9997 16.413
675 2 7.96875 30.8893 16.4396
676 2 12.0991 31.089 16.2169
677 2 15.8591 34.8547 16.4385
678 2 3.97353 35.1498 16.3825
679 2 7.9646 34.8667 16.1922
680 2 11.9903 34.8473 16.4948
681 2 15.7806 38.7722 16.3611
682 2 3.97844 38.8049 16.35
683 2 7.99242 38.9372 16.2232
684 2 11.9004 38.8991 16.4819
685 2 0.00139231 42.8931 16.3342
686 2 4.27464 42.8281 16.4669
687 2 8.07813 42.9025 16.3432
688 2 11.9786 42.9102 16.5688
689 2 15.9366 46.9449 16.3728
690 2 3.81438 46.7802 16.5143
691 2 8.00249 46.9307 16.5152
692 2 11.9434 46.8186 16.312
693 2 15.8359 50.985 16.5347
694 2 3.88221 50.9385 16.5424
695 2 7.90395 50.7957 16.6669
696 2 11.9217 50.9137 16.4406
697 2 15.9672 54.9068 16.5585
698 2 4.16848 54.8881 16.5644
699 2 8.06595 54.8775 16.6225
700 2 11.9251 54.8639 16.4007
701 2 15.8981 58.8105 16.6066
702 2 3.90758 58.9281 16.6395
703 2 7.78762 58.9748 16.6559
704 2 11.8135 58.9469 16.6597
705 2 15.834 62.9947 16.5891
706 2 4.00552 62.9808 16.818
707 2 7.87599 62.9307 16.7479
708 2 11.8038 62.9694 16.7585
709 2 -0.0553653 66.9271 16.8304
710 2 3.99486 66.9879 16.7473
711 2 8.10771 67.0903 16.6859
712 2 11.9755 67.1641 16.8375
713 2 0.101822 71.0785 16.7625
714 2 4.07697 71.2211 17.0114
715 2 8.01603 71.1575 16.786
716 2 11.6898 71.1896 16.8124
717 2 16.0189 75.0669 16.7389
718 2 3.84851 74.9357 16.9018
719 2 7.86531 75.2189 16.7872
720 2 12.0429 75.0451 16.8962
721 2 -0.0514188 79.0904 16.7194
722 2 4.11797 79.1983 17.13
723 2 8.08328 79.1515 16.9812
724 2 11.9175 79.2216 16.8847
725 2 0.113431 83.2104 16.8666
726 2 4.01294 83.1576 16.9618
727 2 7.87587 83.1904 17.1063
728 2 11.9095 83.2611 17.0438
729 2 -0.0541859 87.0419 17.1551
730 2 4.08274 87.1429 16.9289
731 2 7.98141 87.2335 16.9856
732 2 11.8982 87.1417 16.9867
733 2 0.108676 91.0979 17.1098
734 2 4.04327 91.1414 17.268
735 2 8.03401 91.1467 17.1935
736 2 12.2102 91.0972 17.2657
737 2 15.9203 95.2091 17.169
738 2 4.16096 95.1816 17.2274
739 2 8.01982 95.2001 17.361
740 2 12.0317 95.1263 17.4087
741 2 15.9889 99.3116 17.3358
742 2 3.84024 99.2051 17.2495
743 2 7.81593 99.245 17.1643
744 2 11.9077 99.3127 17.3147
745 2 15.9292 103.308 17.4261
746 2 3.8696 103.299 17.2237
747 2 8.23386 103.234 17.1619
748 2 12.0651 103.28 17.3487
749 2 15.8754 107.403 17.4497
750 2 4.2723 107.265 17.1955
751 2 7.85419 107.235 17.2998
752 2 11.8687 107.316 17.5298
753 2 -0.0233171 111.169 17.3031
754 2 4.07702 111.193 17.4163
755 2 7.97747 111.227 17.3128
756 2 11.7899 111.13 17.373
757 2 15.7502 114.994 17.1658
758 2 4.03385 115.095 17.1806
759 2 8.04865 115.256 17.2574
760 2 11.9303 114.904 17.4765
761 2 -0.144584 118.95 17.1823
762 2 3.78548 118.813 17.3658
763 2 7.89834 119.036 17.3635
764 2 11.963 119.141 17.335
765 2 0.0438444 123.254 17.2042
766 2 3.88082 122.868 17.4386
767 2 7.91448 122.955 17.3138
768 2 11.8913 122.901 17.2143
769 2 -0.0922841 127.01 17.0986
770 2 4.1063 126.722 17.2376
771 2 8.03189 126.779 17.1601
772 2 11.9911 126.886 17.0377
773 2 15.8101 130.631 17.123
774 2 3.79127 130.476 17.1181
775 2 7.96716 130.712 17.1571
776 2 11.7545 130.69 16.9462
777 2 15.9621 134.578 16.9195
778 2 4.12634 134.436 17.0533
779 2 8.04277 134.541 17.1476
780 2 12.0303 134.704 17.2786
781 2 15.9618 138.536 16.9452
782 2 3.88108 138.535 17.1614
783 2 8.06419 138.568 17.0401
784 2 11.79 138.516 17.1548
785 2 15.7582 142.464 17.3039
786 2 3.95347 142.562 17.1686
787 2 7.94664 142.536 17.0149
788 2 11.7543 142.533 17.0947
789 2 0.215958 146.358 16.8793
790 2 4.12859 146.699 17.0252
791 2 7.96518 146.421 17.0295
792 2 11.7769 146.423 17.0907
793 2 15.8125 150.324 16.9333
794 2 4.01413 150.392 16.8366
795 2 7.94536 150.318 17.0519
796 2 11.8907 150.396 16.953
797 2 -0.0621481 154.27 16.773
798 2 3.8908 154.259 16.9071
799 2 7.88261 154.2 16.8126
800 2 11.9228 154.238 16.8788
801 2 16.103 158.196 20.7644
802 2 3.99436 158.182 20.9175
803 2 8.05731 -0.0525177 20.8313
804 2 12.0563 158.25 20.8893
805 2 15.9585 4.05813 20.7709
806 2 3.87819 3.75547 20.6065
807 2 8.03553 3.62836 20.9037
808 2 11.9696 3.65595 20.7332
809 2 15.8062 7.72699 20.7951
810 2 3.921 7.72649 20.7587
811 2 8.04615 7.64479 20.8038
812 2 11.866 7.68289 20.8536
813 2 -0.0351059 11.5869 20.6414
814 2 3.91896 11.5953 20.63
815 2 7.69073 11.5648 20.7875
816 2 11.64 11.4641 20.6946
817 2 15.8702 15.377 20.6103
818 2 4.09934 15.5838 20.8291
819 2 7.89319 15.3657 20.7754
820 2 11.7512 15.4865 20.7485
821 2 0.113318 19.3857 20.646
822 2 3.94677 19.2793 20.7851
823 2 7.88108 19.4552 20.7213
824 2 12.1729 19.4359 20.5873
825 2 15.6712 23.212 20.4681
826 2 3.95424 23.3083 20.6333
827 2 7.70991 23.2049 20.5842
828 2 11.8855 23.3043 20.5467
829 2 0.0174953 27.047 20.4435
830 2 3.75903 27.0872 20.4547
831 2 7.96569 27.1427 20.459
832 2 11.8487 27.3188 20.6242
833 2 15.7489 31.0401 20.4946
834 2 3.94763 31.2176 20.4848
835 2 7.90727 31.213 20.3485
836 2 11.9004 31.1004 20.4649
837 2 0.0627707 35.0765 20.4673
838 2 4.06918 34.8516 20.2666
839 2 7.88716 35.1034 20.3543
840 2 11.9533 35.0374 20.3413
841 2 15.893 38.8349 20.3809
842 2 4.05928 39.0809 20.3683
843 2 7.78233 38.883 20.4947
844 2 11.73 38.9036 20.4072
845 2 -0.124548 42.8753 20.372
846 2 3.92858 43.0293 20.1451
847 2 8.05562 42.7955 20.2293
848 2 12.0712 42.9104 20.3979
849 2 0.00780972 46.8429 20.5846
850 2 3.89684 47.0249 20.3952
851 2 7.94966 46.823 20.4808
852 2 11.732 46.7079 20.3201
853 2 -0.0368065 50.8072 20.5513
854 2 3.96644 50.7456 20.2659
855 2 7.93926 50.935 20.3276
856 2 11.7343 50.7565 20.6079
857 2 15.9445 54.8738 20.5862
858 2 3.87456 54.8867 20.3395
859 2 8.0398 55.0833 20.4474
860 2 12.0115 54.8438 20.3805
861 2 15.8318 58.948 20.6848
862 2 3.95111 58.7464 20.6273
863 2 7.96463 58.8783 20.5747
864 2 12.0022 58.9513 20.4339
865 2 15.744 63.0328 20.5136
866 2 4.02047 62.9655 20.503
867 2 7.99783 63.0381 20.4791
868 2 11.9121 62.979 20.7583
869 2 15.7456 66.8792 20.7654
870 2 3.90575 67.1594 20.4445
871 2 7.87451 66.9459 20.6296
872 2 11.7597 66.9258 20.7261
873 2 -0.0401365 71.0143 20.7919
874 2 3.90483 71.1342 20.8991
875 2 7.92744 71.1049 20.7832
876 2 11.8337 71.1056 20.8277
877 2 15.8544 75.0646 20.5818
878 2 3.83752 75.0793 20.6982
879 2 7.94183 74.9596 20.8342
880 2 11.8955 74.8903 20.7501
881 2 0.00827434 79.1923 20.7292
882 2 3.77225 78.9845 20.6926
883 2 7.80921 79.0453 21.0884
884 2 12.0312 79.1485 20.9605
885 2 -0.0642874 83.0092 20.834
886 2 3.7746 83.0539 20.8296
887 2 7.80254 83.187 20.9896
888 2 11.7231 83.2279 20.9719
889 2 15.8319 87.0996 21.1017
890 2 3.864 86.9697 20.9596
891 2 7.82569 87.1158 20.9224
892 2 11.7716 87.1364 21.045
893 2 15.9054 91.1455 21.2069
894 2 3.98434 91.1913 21.1421
895 2 7.98135 91.0058 21.149
896 2 12.0027 91.0765 21.0154
897 2 0.254057 95.277 21.1524
898 2 3.9912 95.1442 21.1905
899 2 8.02859 95.1658 21.4689
900 2 11.6971 95.2533 21.2248
901 2 15.8092 99.2962 21.0937
902 2 4.01842 99.1403 21.3007
903 2 7.82381 99.0762 21.2047
904 2 11.7638 99.1309 21.099
905 2 -0.0962194 103.194 21.3802
906 2 4.07717 103.215 21.1918
907 2 8.05196 103.149 21.1667
908 2 11.8993 103.015 21.3423
909 2 15.9789 107.225 21.1371
910 2 4.04095 107.001 21.1141
911 2 7.82607 107.248 21.2971
912 2 12.158 107.014 21.3164
913 2 15.9356 111.29 21.3898
914 2 4.02478 111.262 21.3669
915 2 8.03396 111.299 21.4431
916 2 11.8721 111.18 21.4028
917 2 0.0237569 115.25 21.2811
918 2 4.08031 115.007 21.2051
919 2 7.93686 115.066 21.3562
920 2 12.0273 115.165 21.3955
921 2 15.9751 119.163 21.2584
922 2 3.87711 118.964 21.4024
923 2 7.97571 119.014 21.3727
924 2 11.8406 119.105 21.4967
925 2 15.7924 123.072 21.2147
926 2 3.94797 122.917 21.3261
927 2 8.05767 123.102 21.3732
928 2 12.1333 122.802 21.1427
929 2 0.0296536 127.047 21.1972
930 2 4.12758 126.858 21.1902
931 2 8.01259 127 21.2689
932 2 11.8626 127.013 21.126
933 2 -0.0301722 130.852 21.3138
934 2 4.13944 130.72 21.1696
935 2 7.92183 130.99 21.3319
936 2 12.0406 130.839 21.1986
937 2 15.8763 134.736 21.0044
938 2 3.92841 134.581 21.153
939 2 7.92319 134.762 21.2109
940 2 11.8825 134.645 21.1247
941 2 -0.00123449 138.628 21.1447
942 2 3.90359 138.582 21.096
943 2 7.77302 138.484 21.1708
944 2 11.861 138.457 21.1022
945 2 15.8503 142.643 21.0036
946 2 3.9712 142.314 21.1007
947 2 7.93893 142.512 21.0492
948 2 11.9855 142.478 20.9853
949 2 16.0039 146.27 20.9947
950 2 4.00862 146.541 20.9434
951 2 8.05598 146.387 21.0782
952 2 12.034 146.391 21.159
953 2 15.9308 150.118 20.9617
954 2 3.87209 150.369 21.0164
955 2 7.92923 150.328 20.9192
956 2 11.9438 150.478 20.9608
957 2 0.109203 154.226 20.7717
958 2 3.94789 154.25 21.0205
959 2 8.17335 154.386 20.8429
960 2 11.9121 154.14 21.0111
961 2 0.175788 158.23 24.9482
962 2 4.0147 158.223 24.7194
963 2 8.04444 158.227 24.7579
964 2 11.9851 158.25 24.8835
965 2 0.0666392 3.96908 24.7765
966 2 3.97648 3.91383 24.7941
967 2 7.97219 3.94921 24.8024
968 2 11.9808 3.92176 24.9483
969 2 15.9079 7.70772 24.7466
970 2 4.12211 7.69739 24.6906
971 2 7.8714 7.67908 24.7657
972 2 11.8896 7.78015 24.838
973 2 15.7917 11.6883 24.5878
974 2 3.95164 11.6639 24.8825
975 2 7.90347 11.703 24.829
976 2 12.0407 11.756 24.5442
977 2 15.7521 15.5579 24.6542
978 2 3.94309 15.8189 24.6883
979 2 8.00165 15.442 24.7634
980 2 11.9496 15.539 24.7789
981 2 -0.0911199 19.3954 24.559
982 2 3.87483 19.476 24.8222
983 2 7.94503 19.292 24.7795
984 2 11.8424 19.4018 24.6218
985 2 15.7646 23.2878 24.7083
986 2 3.92862 23.2535 24.7441
987 2 8.09849 23.2361 24.5948
988 2 11.8398 23.2528 24.6198
989 2 15.7249 27.2075 24.4448
990 2 3.86996 27.1016 24.4072
991 2 7.93373 27.192 24.7118
992 2 11.8318 27.1407 24.5353
993 2 15.9142 31.1934 24.5958