ITEM: TIMESTEP
24800
ITEM: NUMBER OF ATOMS
32000
ITEM: BOX BOUNDS xy xz yz pp pp pp
0.0000000000000000e+00 1.5832000000000001e+01 0.0000000000000000e+00
0.0000000000000000e+00 1.5831999999999999e+02 0.0000000000000000e+00
8.4667440068646727e-01 1.6013044359930834e+02 0.0000000000000000e+00
ITEM: ATOMS id type x y z
1 2 -0.0228922 157.878 160.143
2 2 3.98213 158.095 160.202
3 2 7.73774 157.631 159.873
4 2 11.8289 157.9 160.161
5 2 -0.075088 3.51813 159.88
6 2 3.91796 3.60929 160.007
7 2 7.8518 3.51761 159.921
8 2 11.9243 3.52812 159.943
9 2 15.6529 7.50034 159.951
10 2 3.89083 7.46647 159.987
11 2 8.08602 7.46273 160.041
12 2 11.8653 7.39365 159.868
13 2 0.150361 11.4312 159.92
14 2 4.03876 11.4395 159.965
15 2 8.08898 11.211 159.676
16 2 11.9468 11.4499 160.091
17 2 0.153926 15.3875 159.848
18 2 4.24108 15.1358 159.707
19 2 8.04921 15.2992 159.649
20 2 11.7004 15.3464 159.981
21 2 0.0444394 19.1033 159.819
22 2 3.80661 19.0599 159.691
23 2 7.9951 19.2679 159.685
24 2 11.7214 19.2146 159.722
25 2 0.0218879 23.1583 159.814
26 2 3.79266 23.1392 159.741
27 2 8.13128 23.2719 159.577
28 2 11.9515 23.0793 159.624
29 2 -0.0544662 27.1857 159.89
30 2 4.05681 27.0908 159.688
31 2 8.00489 27.0702 159.773
32 2 11.8718 27.1773 159.648
33 2 15.7508 30.9508 159.796
34 2 3.98144 31.0722 159.822
35 2 7.99551 31.0755 159.834
36 2 11.8683 31.1967 159.934
37 2 15.7355 35.1984 160.092
38 2 3.9004 35.1646 159.907
39 2 7.95596 35.1171 159.948
40 2 12.0555 35.1799 159.945
41 2 -0.0176009 39.0995 159.968
42 2 3.8846 39.2699 160.068
43 2 7.79855 39.201 159.927
44 2 11.8274 39.2701 159.834
45 2 15.8047 42.9839 159.99
46 2 3.70607 43.2193 0.708164
47 2 7.80162 43.318 159.872
48 2 11.7615 43.062 160.073
49 2 15.8445 47.1354 159.888
50 2 3.94161 47.1322 160.013
51 2 7.86252 47.3367 159.861
52 2 11.9036 47.1052 160.048
53 2 15.7506 51.1704 0.837826
54 2 3.93471 51.1547 160.232
55 2 7.95716 51.2302 160.138
56 2 11.8209 51.3094 1.03666
57 2 15.7451 55.2005 0.988229
58 2 3.98222 55.2182 1.11947
59 2 7.8215 55.2211 0.966558
60 2 11.7499 55.3221 0.943142
61 2 -0.0130811 59.4457 0.926278
62 2 3.90439 59.291 0.802468
63 2 7.84412 59.0888 0.927029
64 2 11.823 59.4232 1.0535
65 2 -0.047566 63.4577 1.24179
66 2 3.58727 63.4449 1.13611
67 2 7.75411 63.2453 1.01302
68 2 11.8743 63.5086 1.0494
69 2 15.7353 67.2158 1.26248
70 2 3.88862 67.3589 1.33755
71 2 7.88755 67.5313 1.06829
72 2 11.9011 67.3842 1.2079
73 2 0.0253186 71.4378 1.34687
74 2 3.96951 71.3428 1.14951
75 2 7.86237 71.4784 1.24556
76 2 12.1515 71.3593 1.35931
77 2 0.011617 75.3935 1.22892
78 2 4.01705 75.4466 1.28539
79 2 7.94551 75.4592 1.41162
80 2 11.9849 75.47 1.06514
81 2 -0.0512955 79.4113 1.46735
82 2 4.01474 79.5016 1.32335
83 2 7.87651 79.415 1.2369
84 2 11.8495 79.3588 1.45485
85 2 -0.00801458 83.5307 1.46843
86 2 4.15316 83.5628 1.46967
87 2 7.88091 83.5173 1.46524
88 2 11.7862 83.4446 1.47892
89 2 -0.0112235 87.5178 1.44494
90 2 4.04027 87.3854 1.68821
91 2 7.859 87.5769 1.54474
92 2 11.6947 87.412 1.43997
93 2 15.8661 91.2848 1.51047
94 2 3.82775 91.4658 1.49723
95 2 7.80108 91.2639 1.57589
96 2 11.8434 91.5669 1.48404
97 2 15.7469 95.4149 1.64305
98 2 4.06192 95.3815 1.48445
99 2 7.85984 95.4015 1.53159
100 2 11.8519 95.3856 1.60982
101 2 15.9786 99.4304 1.60188
102 2 3.92486 99.5995 1.36829
103 2 7.88843 99.2162 1.32795
104 2 11.9411 99.1994 1.45762
105 2 0.00112096 103.241 1.26284
106 2 3.96316 103.224 1.32775
107 2 7.91221 103.175 1.28512
108 2 11.7813 103.295 1.39628
109 2 15.8336 106.967 1.25532
110 2 3.8982 107.063 1.35666
111 2 7.7941 107.122 1.42929
112 2 11.9425 107.071 1.34032
113 2 15.7867 110.811 1.17918
114 2 3.84093 110.824 1.3575
115 2 7.75589 110.914 1.29915
116 2 11.9953 111.117 1.16047
117 2 15.8374 115.039 1.13011
118 2 4.11924 114.876 1.33471
119 2 7.98471 115.025 1.23014
120 2 11.7988 114.928 1.25618
121 2 -0.0300413 118.907 1.22232
122 2 3.65599 118.817 1.16218
123 2 7.78396 118.778 1.16803
124 2 11.7314 118.9 1.10163
125 2 -0.00320321 122.592 1.20475
126 2 3.83028 122.81 1.16616
127 2 7.84522 122.729 1.14396
128 2 11.9887 122.605 1.33195
129 2 0.112501 126.574 1.08916
130 2 3.98662 126.594 1.20917
131 2 7.75775 126.784 0.981844
132 2 11.8079 126.594 1.25267
133 2 0.0805319 130.569 1.04105
134 2 4.05492 130.585 1.15956
135 2 7.87807 130.593 0.875246
136 2 11.8436 130.551 1.20005
137 2 15.9164 134.6 1.03571
138 2 4.20405 134.631 160.301
139 2 7.92913 134.631 1.06383
140 2 11.8871 134.411 1.07869
141 2 15.8138 138.314 0.871555
142 2 3.94292 138.505 1.01216
143 2 7.93557 138.511 0.91815
144 2 12.0881 138.454 0.954008
145 2 0.12554 142.334 0.923586
146 2 4.05299 142.619 0.934492
147 2 7.88137 142.481 0.987413
148 2 11.9218 142.295 0.934583
149 2 -0.101669 146.325 0.887804
150 2 3.96259 146.443 160.007
151 2 7.90424 146.232 0.957648
152 2 11.8814 146.409 160.134
153 2 -0.145768 150.244 160.191
154 2 4.02513 150.131 160.221
155 2 7.61958 150.103 0.861322
156 2 11.9088 150.3 0.996785
157 2 0.0481185 154.023 160.255
158 2 3.95961 154.004 160.12
159 2 8.01666 153.945 160.14
160 2 11.9065 154.014 160.062
161 2 -0.0839252 157.972 4.81969
162 2 3.93423 -0.316811 4.79151
163 2 7.93189 158.04 4.82801
164 2 11.8927 158.058 4.68589
165 2 -0.107316 3.75249 4.63326
166 2 3.99124 3.59569 4.41059
167 2 7.86987 3.56686 4.74518
168 2 11.853 3.54025 4.55642
169 2 0.00803622 7.46096 4.66628
170 2 3.94773 7.51909 4.7468
171 2 7.84436 7.36759 4.73602
172 2 11.9683 7.4571 4.59577
173 2 -0.154373 11.5713 4.50938
174 2 3.87067 11.3362 4.62765
175 2 7.86487 11.2651 4.69931
176 2 11.7865 11.2811 4.62871
177 2 -0.0147233 15.3701 4.65832
178 2 4.03949 15.3221 4.45275
179 2 7.92727 15.28 4.45089
180 2 12.0509 15.3899 4.57809
181 2 -0.167512 19.0561 4.56644
182 2 3.99358 19.3112 4.49505
183 2 7.79693 19.2194 4.46567
184 2 11.7465 19.0405 4.41693
185 2 0.0265639 23.0384 4.45901
186 2 3.96682 23.0662 4.3303
187 2 7.8213 22.9614 4.34964
188 2 12.0324 23.0664 4.40139
189 2 0.0752871 26.9572 4.39709
190 2 4.03201 27.049 4.49027
191 2 7.79535 27.0386 4.28357
192 2 11.9695 27.1856 4.36581
193 2 -0.0116596 31.1158 4.50925
194 2 4.10552 31.053 4.32688
195 2 8.09336 31.0658 4.41978
196 2 11.97 31.1218 4.54629
197 2 15.8562 35.0241 4.54175
198 2 4.08214 35.0941 4.46328
199 2 7.97023 34.9651 4.55017
200 2 11.953 35.2901 4.43648
201 2 -0.0927003 39.1568 4.7226
202 2 3.70374 39.0559 4.48509
203 2 7.72402 39.0021 4.51423
204 2 11.697 39.0518 4.61887
205 2 15.7123 43.2191 4.59464
206 2 3.89843 43.1716 4.63279
207 2 7.79576 43.0262 4.5547
208 2 11.8428 43.0174 4.64104
209 2 15.6948 47.2846 4.56822
210 2 4.01189 47.0986 4.55837
211 2 7.90007 47.1562 4.65972
212 2 11.9364 47.0388 4.64122
213 2 15.7594 51.1296 4.68919
214 2 3.90578 51.0893 4.91303
215 2 7.86262 51.0605 4.88523
216 2 11.8417 51.2209 4.99286
217 2 0.176988 55.2374 4.75927
218 2 4.11877 55.0702 4.93087
219 2 7.99807 55.132 4.88422
220 2 12.0786 55.1822 4.87807
221 2 15.8788 59.2435 4.76916
222 2 3.86242 59.2272 4.92383
223 2 7.93042 59.1656 4.8555
224 2 11.9291 59.3132 5.04333
225 2 15.6903 63.0764 5.13484
226 2 3.99255 63.1135 4.95026
227 2 7.90488 63.2606 5.11484
228 2 11.8674 63.1185 4.90961
229 2 -0.10754 67.2905 5.34486
230 2 3.89575 67.2672 5.13472
231 2 8.03369 67.2056 5.04709
232 2 11.7306 67.3356 5.15273
233 2 0.209125 71.3201 5.03795
234 2 4.05813 71.1763 5.08025
235 2 8.05852 71.4257 5.05084
236 2 11.7436 71.342 5.23756
237 2 15.6378 75.223 5.17168
238 2 3.85136 75.2283 5.18673
239 2 7.92856 75.271 5.25097
240 2 11.897 75.2859 5.18225
241 2 -0.0327783 79.4049 5.33588
242 2 3.99483 79.3006 5.27553
243 2 8.11884 79.4042 5.36254
244 2 11.8545 79.4234 4.95714
245 2 0.14814 83.2446 5.35389
246 2 3.91858 83.3753 5.36719
247 2 8.10373 83.2947 5.36853
248 2 11.9077 83.2123 5.28538
249 2 -0.0192223 87.4559 5.50072
250 2 3.71525 87.2823 5.58846
251 2 8.05687 87.3426 5.51848
252 2 12.0435 87.4363 5.21355
253 2 -0.141616 91.333 5.41822
254 2 3.82072 91.546 5.46606
255 2 7.82164 91.5164 5.55107
256 2 11.6517 91.4616 5.40029
257 2 15.6967 95.3181 5.48737
258 2 3.84166 95.5557 5.4935
259 2 7.68615 95.3393 5.57644
260 2 11.7291 95.2745 5.51942
261 2 -0.0979261 99.4077 5.4515
262 2 4.01122 99.4212 5.59457
263 2 7.80832 99.299 5.22649
264 2 12.0246 99.1965 5.43149
265 2 0.0190065 103.027 5.51691
266 2 3.99296 103.422 5.47533
267 2 7.99823 103.059 5.43675
268 2 11.7836 103.341 5.33048
269 2 0.0612037 107.044 5.42211
270 2 3.93154 107.35 5.44786
271 2 7.88246 107.215 5.3844
272 2 12.0141 107.257 5.27163
273 2 15.5766 111.138 5.20172
274 2 3.8887 111.101 5.37506
275 2 7.85081 111.21 5.40652
276 2 11.7899 111.123 5.27124
277 2 15.9114 114.901 5.20658
278 2 3.9434 114.854 4.99871
279 2 7.72319 115.081 5.24887
280 2 11.8363 114.84 5.09332
281 2 15.7286 118.838 5.39931
282 2 4.02579 118.66 5.24832
283 2 7.88079 118.773 5.23747
284 2 11.7177 118.793 5.09462
285 2 -0.127027 122.693 5.25565
286 2 3.92579 122.696 4.99247
287 2 8.00873 122.567 5.02345
288 2 11.961 122.648 5.22404
289 2 0.04294 126.687 5.20908
290 2 4.05887 126.626 5.0756
291 2 8.0135 126.557 5.18467
292 2 11.6798 126.497 5.14633
293 2 0.0605632 130.65 5.03048
294 2 3.93166 130.625 5.01355
295 2 8.00155 130.712 5.19183
296 2 11.9336 130.634 5.00334
297 2 15.8133 134.549 4.89545
298 2 4.01473 134.534 5.11883
299 2 7.94868 134.55 5.09779
300 2 11.7989 134.591 5.0314
301 2 0.172513 138.574 5.08277
302 2 3.99127 138.483 4.97005
303 2 7.96377 138.211 5.03056
304 2 11.9345 138.386 4.81524
305 2 0.0662847 142.374 4.80294
306 2 3.92394 142.381 5.02147
307 2 7.87954 142.336 5.02306
308 2 11.8396 142.331 4.88416
309 2 -0.00645223 146.194 4.84203
310 2 4.02519 146.302 5.03877
311 2 8.05718 146.339 4.93152
312 2 11.9223 146.227 4.79793
313 2 15.6938 150.19 5.00969
314 2 3.74849 150.174 4.85692
315 2 7.80747 150.22 5.01665
316 2 11.5997 150.362 4.89521
317 2 -0.129688 154.312 4.97782
318 2 3.83434 154.021 4.91927
319 2 7.96244 154.058 4.7975
320 2 11.7131 154.352 4.94062
321 2 0.012504 158.048 8.85088
322 2 4.05651 158.052 8.76519
323 2 7.94063 157.904 8.98626
324 2 11.835 158.204 8.92966
325 2 15.8555 3.60918 8.6546
326 2 3.87385 3.67596 8.69246
327 2 7.8723 3.54965 8.74461
328 2 11.7111 3.70112 8.55331
329 2 -0.104068 7.60863 8.66633
330 2 3.80555 7.57797 8.62814
331 2 7.84418 7.45913 8.74854
332 2 11.8638 7.52538 8.78342
333 2 -0.0854042 11.3069 8.53644
334 2 3.92997 11.6387 8.5321
335 2 8.06177 11.5663 8.52469
336 2 11.9388 11.3637 8.48026
337 2 -0.0442937 15.3601 8.45247
338 2 4.06804 15.3348 8.75453
339 2 7.99078 15.1914 8.69172
340 2 11.7526 15.4177 8.66161
341 2 -0.058328 19.3027 8.56877
342 2 3.82636 19.1788 8.53966
343 2 7.71578 19.2871 8.46487
344 2 11.5519 19.3157 8.48215
345 2 -0.0788526 23.1525 8.49956
346 2 3.8029 23.3728 8.54171
347 2 7.98495 23.1021 8.43744
348 2 11.8547 23.2206 8.34179
349 2 15.7016 27.2307 8.40538
350 2 4.02524 27.1417 8.37732
351 2 7.94496 26.9861 8.34205
352 2 11.6621 27.0317 8.39949
353 2 -0.0704724 31.008 8.37383
354 2 3.82768 30.9603 8.36313
355 2 7.75742 31.0454 8.50512
356 2 11.7485 31.0148 8.28121
357 2 15.8305 34.9182 8.3289
358 2 3.76828 35.0504 8.31781
359 2 7.82136 35.039 8.36985
360 2 11.7259 34.9016 8.39141
361 2 15.9194 39.196 8.55097
362 2 4.02391 39.0195 8.60905
363 2 7.9099 39.0407 8.3716
364 2 11.821 39.0332 8.4135
365 2 15.9524 43.2234 8.46824
366 2 3.98941 43.0693 8.3941
367 2 7.99584 42.9978 8.48658
368 2 11.9785 43.2102 8.38533
369 2 15.9233 47.1128 8.56251
370 2 3.77357 47.1345 8.55707
371 2 7.88153 46.8794 8.56213
372 2 11.8373 47.0672 8.62696
373 2 -0.0982196 51.0782 8.88165
374 2 3.9439 50.9895 8.8026
375 2 7.93882 50.9462 8.76999
376 2 11.8137 50.9757 8.75721
377 2 0.175041 54.9802 8.76316
378 2 3.96609 54.9394 8.67558
379 2 7.99895 55.0475 8.77391
380 2 11.942 55.2595 8.72109
381 2 15.8873 59.0796 8.78019
382 2 3.99763 59.1336 8.85434
383 2 7.96405 59.0584 8.93256
384 2 11.8738 58.9525 9.04363
385 2 15.751 63.1323 8.9232
386 2 3.9945 63.191 8.96926
387 2 8.02091 63.3293 9.05043
388 2 11.9589 63.1699 9.08164
389 2 0.0759775 67.1254 9.06869
390 2 4.13138 67.1029 9.00364
391 2 8.03296 67.2363 8.97794
392 2 11.8158 67.3014 9.08599
393 2 15.7386 71.1138 8.97816
394 2 3.90883 71.1921 9.12265
395 2 7.81835 71.1124 8.99596
396 2 11.7987 71.078 9.13657
397 2 0.101637 75.2654 8.86035
398 2 3.96929 75.0261 9.00725
399 2 7.94899 75.0774 9.08291
400 2 11.894 75.2148 9.0807
401 2 15.7555 79.2446 9.14534
402 2 4.07351 79.1998 9.20333
403 2 7.68984 79.2598 9.00964
404 2 11.9162 79.3057 9.15133
405 2 15.8965 83.314 9.23017
406 2 3.9641 83.2054 9.20436
407 2 7.82902 83.2025 9.37732
408 2 11.8753 83.2327 9.41794
409 2 0.0621748 87.408 9.30445
410 2 3.90959 87.1185 9.23883
411 2 7.75532 87.0799 9.50936
412 2 11.8834 87.2837 8.99446
413 2 -0.0349805 91.3845 9.50131
414 2 3.90853 91.384 9.34119
415 2 7.84985 91.1413 9.27292
416 2 11.7653 91.2503 9.3048
417 2 0.0227179 95.4721 9.39634
418 2 3.89573 95.6218 9.50198
419 2 7.76008 95.1934 9.4982
420 2 11.7395 95.3499 9.57389
421 2 0.0296009 99.4602 9.63645
422 2 3.95617 99.2748 9.47743
423 2 8.11753 99.2379 9.36541
424 2 11.8836 99.1104 9.48192
425 2 0.109054 103.226 9.58481
426 2 3.94676 103.315 9.54375
427 2 7.82137 103.362 9.54107
428 2 11.731 103.147 9.45409
429 2 0.0189308 107.101 9.28918
430 2 3.95523 107.233 9.3959
431 2 8.01031 107.233 9.28273
432 2 11.8222 107.245 9.26157
433 2 -0.0544754 111.188 9.37433
434 2 3.95388 111.326 9.2003
435 2 7.87964 111.092 9.39352
436 2 11.9101 110.991 9.34565
437 2 15.8006 115.194 9.38165
438 2 4.09106 115.198 9.39604
439 2 7.99071 115.017 9.2327
440 2 11.9887 114.93 9.32821
441 2 0.175093 118.888 9.2241
442 2 3.93794 118.789 9.22544
443 2 8.01258 118.889 9.21588
444 2 11.8279 119.167 9.35343
445 2 15.9483 122.977 9.19618
446 2 4.15277 122.769 9.16224
447 2 7.89978 122.909 9.0526
448 2 11.9402 122.842 9.25465
449 2 -0.0621793 126.716 9.06467
450 2 4.0979 126.825 8.96833
451 2 7.92765 126.831 9.11115
452 2 11.9793 126.842 9.23782
453 2 15.9502 130.571 9.05176
454 2 4.12866 130.783 9.00216
455 2 8.02677 130.771 9.08388
456 2 11.9434 130.621 8.95782
457 2 15.9695 134.662 9.05742
458 2 3.99214 134.703 9.16478
459 2 8.03566 134.596 9.1882
460 2 11.7937 134.579 9.09776
461 2 0.094204 138.509 9.03268
462 2 3.69462 138.467 8.9376
463 2 7.94218 138.506 9.06137
464 2 12.082 138.289 8.85049
465 2 0.112581 142.474 8.95187
466 2 4.08342 142.231 9.02387
467 2 7.8728 142.511 8.98027
468 2 11.9783 142.218 8.93531
469 2 15.9828 146.35 9.02802
470 2 3.92183 146.333 8.73625
471 2 7.70448 146.366 8.99864
472 2 11.8423 146.093 8.89462
473 2 -0.186549 150.039 8.84526
474 2 3.99494 150.304 8.91633
475 2 7.95795 150.168 8.87637
476 2 12.0927 150.023 8.83775
477 2 -0.0343848 154.083 8.84048
478 2 3.89414 154.222 8.84961
479 2 7.89931 154.186 8.76382
480 2 12.0144 154.021 8.83115
481 2 15.8267 157.957 12.7378
482 2 3.76481 158.37 12.8596
483 2 7.70788 158.034 12.75
484 2 11.9279 158.215 12.8885
485 2 -0.0479042 3.60421 12.675
486 2 3.87793 3.9561 12.8608
487 2 7.7301 3.79491 12.7534
488 2 11.884 3.65655 12.69
489 2 15.795 7.57779 12.7143
490 2 3.75399 7.67171 12.6481
491 2 7.85071 7.79958 12.8293
492 2 11.8989 7.51847 12.752
493 2 15.86 11.6642 12.7387
494 2 3.92102 11.5511 12.6966
495 2 7.82612 11.669 12.5633
496 2 11.9666 11.6211 12.6084
497 2 15.8195 15.4609 12.6584
498 2 4.10125 15.5893 12.6385
499 2 7.96641 15.4748 12.5881
500 2 11.9517 15.7323 12.5907
501 2 15.9558 19.395 12.5612
502 2 4.07985 19.4434 12.6857
503 2 7.84447 19.5864 12.4854
504 2 11.7808 19.4201 12.5814
505 2 15.7889 23.2454 12.6985
506 2 4.15107 23.383 12.6241
507 2 7.6917 23.3306 12.5593
508 2 11.7999 23.345 12.4732
509 2 0.0271425 26.8491 12.3038
510 2 3.82586 27.3009 12.4565
511 2 7.94184 27.2316 12.3117
512 2 11.9691 27.1927 12.4244
513 2 15.7372 30.8381 12.22
514 2 3.95273 30.9798 12.4581
515 2 8.0212 31.175 12.345
516 2 11.9144 31.0327 12.3772
517 2 0.030081 35.0593 12.2447
518 2 4.0349 34.9654 12.3127
519 2 7.9104 34.8844 12.3649
520 2 12.0449 35.0875 12.4915
521 2 0.12583 38.8896 12.3657
522 2 4.19861 38.8237 12.3926
523 2 8.00106 38.9733 12.3579
524 2 11.8259 38.9782 12.4374
525 2 0.0726562 43.0302 12.5468
526 2 4.21573 42.9121 12.4824
527 2 8.02593 43.0103 12.3227
528 2 11.8478 42.8135 12.4138
529 2 -0.200491 46.9947 12.7787
530 2 3.84125 46.9333 12.4484
531 2 7.67643 46.7591 12.484
532 2 11.9171 47.0411 12.546
533 2 16.0276 50.9923 12.6064
534 2 4.03196 51.1983 12.5094
535 2 7.75654 51.0095 12.5784
536 2 11.7803 50.8954 12.528
537 2 0.0380987 54.9738 12.8946
538 2 4.02515 54.9897 12.8497
539 2 8.02154 54.9224 12.7476
540 2 11.9535 54.9718 12.6073
541 2 15.8115 59.0521 12.7412
542 2 3.93664 58.864 12.6465
543 2 7.95972 58.9554 12.7753
544 2 11.9787 59.0227 12.8252
545 2 15.8637 62.9217 12.6072
546 2 3.81569 63.0166 12.8267
547 2 7.76014 63.0555 12.974
548 2 11.8678 62.9021 12.9131
549 2 0.0906222 67.1162 12.9697
550 2 3.92715 67.056 12.8832
551 2 7.96813 66.9794 12.9963
552 2 12.0006 66.9574 12.88
553 2 -0.0360669 71.0869 12.9043
554 2 3.76496 71.0274 13.0613
555 2 7.98859 71.2323 12.9471
556 2 12.0062 71.2947 12.9884
557 2 0.0478195 75.1266 12.8616
558 2 3.92126 75.0774 12.9579
559 2 7.9274 75.1297 12.982
560 2 12.1435 75.0737 13.1712
561 2 15.8069 79.1842 12.9329
562 2 3.94722 79.0744 13.1345
563 2 7.9177 79.1737 13.0341
564 2 11.8452 79.2988 12.9479
565 2 0.101046 83.4357 13.155
566 2 4.03722 83.2263 13.2406
567 2 8.02279 83.3349 13.2062
568 2 11.9724 83.0862 13.1193
569 2 15.8418 87.3974 13.1512
570 2 3.88119 87.168 13.0352
571 2 8.0216 87.1877 13.1283
572 2 11.8278 87.258 13.2457
573 2 0.214459 91.3966 13.2966
574 2 4.27621 91.21 13.3285
575 2 7.96835 91.1994 13.2173
576 2 12.0294 91.3407 13.2044
577 2 0.0787815 95.4244 13.5361
578 2 4.05302 95.1975 13.5964
579 2 7.80524 95.2755 13.5301
580 2 11.9234 95.2792 13.4009
581 2 -0.10112 99.2452 13.5396
582 2 4.06512 99.1722 13.4412
583 2 7.93435 99.5288 13.5306
584 2 11.8471 99.2083 13.349
585 2 15.7238 103.467 13.3856
586 2 3.90897 103.38 13.3626
587 2 7.9641 103.217 13.2761
588 2 11.9766 103.236 13.4521
589 2 15.9082 107.429 13.3935
590 2 4.05912 107.297 13.4525
591 2 8.01708 107.288 13.4178
592 2 11.9998 107.197 13.5286
593 2 -0.103558 111.218 13.3386
594 2 3.78613 111.125 13.1653
595 2 7.82289 111.216 13.4608
596 2 11.898 110.995 13.3399
597 2 0.0641068 115.19 13.3931
598 2 3.93697 115.095 13.3492
599 2 8.04803 115.083 13.1607
600 2 11.9289 115.033 13.3554
601 2 15.7775 119.037 13.3915
602 2 3.84314 119.079 13.31
603 2 7.95952 118.972 13.1444
604 2 11.9451 119.201 13.1956
605 2 15.832 122.897 12.894
606 2 4.0464 122.906 13.2456
607 2 8.01623 122.863 13.3243
608 2 11.7188 122.931 13.4793
609 2 0.160221 126.688 12.9097
610 2 4.03729 126.621 12.9217
611 2 7.82933 126.96 13.0737
612 2 11.7588 126.96 13.1436
613 2 15.8313 130.632 12.9111
614 2 3.96587 130.63 13.0821
615 2 7.90869 130.589 13.0444
616 2 12.0275 130.744 13.1032
617 2 0.210502 134.527 12.8961
618 2 3.85396 134.496 13.0246
619 2 7.86842 134.49 12.9848
620 2 12.0736 134.54 13.0043
621 2 0.0953647 138.484 12.9875
622 2 3.96709 138.419 13.0817
623 2 7.84847 138.584 13.0138
624 2 11.9057 138.249 13.06
625 2 15.6956 142.465 12.9823
626 2 3.77096 142.49 13.0068
627 2 7.98308 142.53 13.0519
628 2 11.8751 142.36 13.1269
629 2 15.9468 146.353 12.99
630 2 3.98452 146.395 12.9394
631 2 7.96409 146.371 12.9569
632 2 11.7919 146.349 13.0624
633 2 0.141156 150.338 12.8466
634 2 3.87723 150.257 12.9019
635 2 8.04651 150.395 12.8509
636 2 12.1592 150.328 12.8525
637 2 -0.0594323 154.136 12.7224
638 2 3.9404 154.111 12.8062
639 2 7.94785 154.167 12.6809
640 2 11.9464 154.112 12.9865
641 2 -0.0504332 158.16 16.8451
642 2 3.96731 158.311 16.9074
643 2 7.98281 158.16 16.7519
644 2 11.7557 158.167 17.0072
645 2 15.6766 3.65363 16.6157
646 2 4.07337 3.82506 16.7269
647 2 7.85688 3.78248 16.7647
648 2 11.9037 3.67438 16.7128
649 2 15.6155 7.67295 16.8879
650 2 3.65639 7.62962 16.6711
651 2 8.03208 7.70147 16.6478
652 2 11.8562 7.69537 16.8506
653 2 -0.170908 11.7254 16.781
654 2 3.94406 11.493 16.7972
655 2 8.00714 11.5787 16.6322
656 2 11.774 11.4607 16.6288
657 2 0.0362153 15.3352 16.7755
658 2 4.16781 15.6057 16.5829
659 2 7.95548 15.4375 16.7416
660 2 11.7934 15.693 16.6379
661 2 15.925 19.4538 16.5087
662 2 3.93918 19.3754 16.656
663 2 7.96245 19.2184 16.5944
664 2 11.8965 19.4354 16.4841
665 2 -0.0928263 23.156 16.5293
666 2 4.01219 23.4804 16.6028
667 2 8.20753 23.4494 16.5798
668 2 11.9515 23.2533 16.6403
669 2 16.0486 27.167 16.4771
670 2 4.0734 27.1612 16.4856
671 2 7.98254 27.3704 16.5746
672 2 11.8539 27.2026 16.5207
673 2 15.9018 30.9181 16.2539
674 2 3.86824 31.1521 16.5292
675 2 7.85656 31.2763 16.3693
676 2 11.8823 31.1014 16.5865
677 2 15.8715 35.0366 16.2855
678 2 3.78271 34.8178 16.308
679 2 7.75854 35.0217 16.6157
680 2 11.8748 35.0231 16.3279
681 2 15.9363 38.9471 16.2371
682 2 3.97647 39.0425 16.3238
683 2 7.9803 38.7127 16.3788
684 2 11.9837 38.8232 16.2882
685 2 0.0989684 42.8387 16.5195
686 2 3.83425 42.9418 16.2933
687 2 8.12834 42.8529 16.408
688 2 11.9094 42.8014 16.2377
689 2 15.8539 46.8586 16.6041
690 2 4.13003 47.0818 16.5834
691 2 7.81603 46.8298 16.296
692 2 11.8797 47.1676 16.3334
693 2 15.9544 50.9574 16.5196
694 2 4.11429 50.922 16.4455
695 2 7.89379 50.984 16.3065
696 2 11.7483 50.8695 16.5502
697 2 15.7964 54.9596 16.6265
698 2 4.03777 55.1678 16.6962
699 2 8.11573 55.0518 16.5155
700 2 12.09 54.9472 16.6423
701 2 15.9085 59.071 16.8978
702 2 4.09943 58.9109 16.6847
703 2 7.9535 58.9725 16.7394
704 2 12.1303 59.0865 16.5537
705 2 15.7956 62.9529 16.8642
706 2 3.88637 62.9787 16.7362
707 2 7.89805 63.1168 16.7987
708 2 11.8564 63.0032 16.7381
709 2 0.0116437 67.1184 16.7636
710 2 4.09004 67.1331 16.9964
711 2 7.86741 66.939 16.8928
712 2 11.8965 66.987 16.6593
713 2 -0.0593255 71.01 16.8129
714 2 4.03532 70.8754 16.7935
715 2 7.95019 71.0685 16.7557
716 2 11.8982 71.0892 16.9689
717 2 15.7343 75.1381 16.8026
718 2 4.12795 75.1968 16.9131
719 2 7.96432 74.9653 17.0301
720 2 11.9445 75.2537 16.8711
721 2 0.0978516 79.1965 16.9283
722 2 3.95361 78.9149 16.7188
723 2 7.87817 78.9927 17.0079
724 2 11.7351 78.9805 16.9597
725 2 -0.074697 83.1062 17.0556
726 2 3.89118 82.9499 17.0469
727 2 7.78742 83.1196 17.0698
728 2 11.9568 82.967 16.9959
729 2 -0.0517552 87.3409 16.816
730 2 3.73798 87.17 17.2263
731 2 7.84104 87.0128 17.1395
732 2 11.8075 87.0878 17.1814
733 2 0.151283 91.2318 17.2084
734 2 3.97529 91.3334 17.274
735 2 7.84203 91.0587 17.1214
736 2 11.6798 91.1757 17.1616
737 2 15.9226 95.2245 17.3906
738 2 4.05234 95.2019 17.4237
739 2 8.08405 95.2352 17.3063
740 2 11.8057 95.1547 17.3052
741 2 15.8916 99.2067 17.3364
742 2 4.17277 99.3538 17.2316
743 2 8.04099 99.1932 17.4001
744 2 12.1079 99.2297 17.2653
745 2 15.8726 103.169 17.444
746 2 3.91054 103.271 17.24
747 2 7.77579 103.13 17.4086
748 2 12.0086 103.289 17.4956
749 2 15.9313 107.425 17.3093
750 2 3.98381 107.371 17.3101
751 2 8.10724 107.105 17.3926
752 2 11.9289 107.165 17.4687
753 2 0.117021 111.325 17.5023
754 2 4.00798 111.359 17.3224
755 2 8.03464 111.089 17.5337
756 2 11.9409 111.169 17.4232
757 2 15.8236 115.181 17.4874
758 2 4.02558 115.109 17.4438
759 2 7.94541 114.931 17.4262
760 2 11.8619 115.153 17.2151
761 2 0.256215 119.043 17.354
762 2 4.21289 119.146 17.2959
763 2 7.92157 118.924 17.3752
764 2 11.84 119.034 17.2241
765 2 0.0499793 122.843 17.2119
766 2 4.03534 122.823 17.1873
767 2 7.95554 122.868 17.2387
768 2 12.0142 123.16 17.1483
769 2 -0.0437098 126.895 17.1501
770 2 3.8033 126.806 17.1106
771 2 7.85748 126.937 17.2101
772 2 11.8486 126.994 17.1484
773 2 15.8714 130.898 17.1822
774 2 3.97733 130.843 17.1423
775 2 7.88114 130.709 17.1862
776 2 11.9532 130.958 17.0008
777 2 15.8788 134.56 17.1675
778 2 4.04206 134.674 17.1129
779 2 7.95381 134.573 17.138
780 2 11.8357 134.668 16.9629
781 2 15.8787 138.451 17.2329
782 2 4.15531 138.571 17.0845
783 2 7.82608 138.61 17.2538
784 2 11.8863 138.6 17.1174
785 2 15.9339 142.3 16.7003
786 2 4.07284 142.389 16.9935
787 2 7.80941 142.672 16.9688
788 2 11.9583 142.56 17.1064
789 2 0.105279 146.372 17.048
790 2 4.02394 146.223 16.9068
791 2 7.90851 146.601 17.0187
792 2 12.0468 146.473 17.0235
793 2 15.742 150.317 17.0531
794 2 3.92601 150.392 16.834
795 2 7.83995 150.679 16.7616
796 2 11.9043 150.299 16.9727
797 2 0.0710832 154.238 17.012
798 2 3.99202 154.305 16.798
799 2 7.92691 154.37 16.9408
800 2 11.7931 154.431 16.8875
801 2 15.8513 158.156 20.9621
802 2 4.2809 158.07 20.7278
803 2 8.04886 -0.106391 20.8483
804 2 11.9527 158.178 20.8821
805 2 15.7926 3.71397 20.832
806 2 4.19884 3.61781 20.7237
807 2 7.86652 3.95812 20.6783
808 2 11.946 3.88582 20.9046
809 2 15.9135 7.71224 20.804
810 2 4.11052 7.65774 20.7056
811 2 7.82574 7.66509 20.8506
812 2 11.8343 7.75601 20.8519
813 2 0.107401 11.7859 20.8164
814 2 4.03377 11.5947 20.8381
815 2 8.0127 11.6469 20.774
816 2 11.971 11.7649 20.8447
817 2 15.8776 15.6097 20.7215
818 2 4.01118 15.3917 20.4195
819 2 8.00683 15.6154 20.6987
820 2 11.8328 15.6341 20.6161
821 2 0.00211101 19.3171 20.6209
822 2 3.9256 19.4617 20.5376
823 2 7.99188 19.4904 20.6372
824 2 11.7138 19.418 20.7403
825 2 15.8498 23.1849 20.4979
826 2 3.84534 23.2916 20.5671
827 2 7.96093 23.3238 20.6055
828 2 11.8601 23.4198 20.6686
829 2 -0.0876262 27.2453 20.6371
830 2 4.08356 27.2799 20.688
831 2 7.91272 27.3398 20.7552
832 2 11.8212 27.2524 20.5687
833 2 15.9033 31.1122 20.4776
834 2 3.87894 30.9382 20.5845
835 2 7.73638 31.0918 20.6913
836 2 11.8207 31.4295 20.4527
837 2 0.0415813 34.9183 20.4593
838 2 3.87531 35.0637 20.6226
839 2 7.89632 34.8826 20.5884
840 2 11.7394 35.0236 20.5809
841 2 15.7995 38.8887 20.3505
842 2 3.88847 38.6522 20.4084
843 2 8.02376 38.6938 20.1715
844 2 11.9671 38.7585 20.3828
845 2 0.346635 42.8982 20.211
846 2 4.14422 42.6486 20.3318
847 2 7.91314 42.6809 20.2675
848 2 11.822 42.7037 20.3704
849 2 -0.167744 47.1123 20.2707
850 2 4.15296 46.657 20.4998
851 2 7.86073 46.8372 20.191
852 2 12.0243 46.9425 20.2994
853 2 0.0907831 51.0658 20.4773
854 2 3.93793 51.1253 20.428
855 2 8.01751 51.0303 20.6164
856 2 11.8783 50.853 20.1981
857 2 15.764 54.8968 20.5991
858 2 3.99879 54.8461 20.5551
859 2 7.94869 54.7247 20.5134
860 2 11.8667 54.8646 20.5924
861 2 15.8536 58.8921 20.5659
862 2 3.99118 59.207 20.6233
863 2 7.97199 58.9716 20.4913
864 2 11.8042 58.8815 20.5937
865 2 15.8087 62.8455 20.6891
866 2 3.71776 63.0783 20.7779
867 2 7.97635 62.8374 20.6197
868 2 11.8821 62.9653 20.6001
869 2 15.7701 67.0088 20.5529
870 2 3.94895 66.9541 20.9071
871 2 8.0375 66.9645 20.8381
872 2 12.0049 67.0503 20.8244
873 2 -0.0201999 70.9451 20.6063
874 2 3.99373 70.8584 20.7206
875 2 7.97815 71.0185 20.5927
876 2 11.9205 70.8775 20.6537
877 2 16.001 75.0589 20.7205
878 2 4.06641 74.9693 20.9795
879 2 7.89072 75.1112 20.8018
880 2 12.1079 75.2092 20.8472
881 2 -0.0964015 79.0761 20.799
882 2 4.09084 79.0243 21.0272
883 2 8.038 79.1433 20.8463
884 2 11.6231 78.9762 20.7202
885 2 -0.0719925 83.2048 21.0463
886 2 3.90692 83.076 20.8909
887 2 7.83806 83.0066 20.9082
888 2 11.8611 82.9545 20.8844
889 2 15.8243 87.0208 21.0042
890 2 3.97925 87.1395 21.0937
891 2 7.93942 86.9916 21.19
892 2 11.8102 87.0738 20.9016
893 2 15.9345 91.0285 21.0765
894 2 4.03436 90.9148 21.156
895 2 7.9236 91.048 20.9918
896 2 11.9974 91.1887 21.0165
897 2 -0.118408 95.3539 21.0195
898 2 4.10707 95.1235 21.2814
899 2 7.80308 95.1575 21.151
900 2 11.9644 94.9911 21.2067
901 2 15.7789 99.0996 21.1682
902 2 3.86542 99.2031 21.2757
903 2 7.845 99.1559 21.2149
904 2 11.7982 99.093 21.4225
905 2 0.135765 103.286 21.2342
906 2 3.8653 103.143 21.3286
907 2 7.86196 102.987 21.1607
908 2 11.8589 103.243 21.3777
909 2 16.0141 107.264 21.2592
910 2 4.08838 107.31 21.1737
911 2 7.99679 107.233 21.1828
912 2 11.8211 107.187 21.3344
913 2 15.9279 111.189 21.3732
914 2 4.06783 111.183 21.5162
915 2 8.00263 111.208 21.5257
916 2 12.0509 111.072 21.5316
917 2 -0.0942529 115.123 21.4909
918 2 3.74956 115.276 21.609
919 2 7.93953 115.128 21.4215
920 2 11.8116 115.328 21.3125
921 2 15.8002 119.074 21.3127
922 2 3.98757 119.184 21.365
923 2 8.02236 119.11 21.2455
924 2 12.0722 119.08 21.2403
925 2 16.0115 123.012 21.3563
926 2 4.06946 123.138 21.3291
927 2 8.01478 122.891 21.0765
928 2 11.7128 123.1 21.3252
929 2 -0.0402109 126.806 21.2528
930 2 4.00943 126.827 21.2853
931 2 7.89768 126.906 21.1644
932 2 11.9302 126.753 21.238
933 2 0.164656 130.867 21.1123
934 2 3.92753 130.828 21.2634
935 2 8.06756 130.64 21.0927
936 2 11.8717 130.78 21.1292
937 2 15.9269 134.802 21.1775
938 2 4.05818 134.776 21.2251
939 2 7.83906 134.505 21.1311
940 2 11.9024 134.728 21.2157
941 2 0.0374975 138.617 21.0425
942 2 4.16338 138.481 21.2244
943 2 8.15647 138.648 21.1424
944 2 12.0955 138.59 21.0744
945 2 16.0538 142.538 21.0583
946 2 4.02292 142.621 21.0685
947 2 8.07079 142.454 21.0107
948 2 11.9383 142.478 21.1559
949 2 15.8175 146.495 21.0044
950 2 4.06057 146.575 21.0481
951 2 7.88693 146.44 20.8895
952 2 11.6273 146.407 20.914
953 2 15.7822 150.448 20.9549
954 2 4.03707 150.376 21.0792
955 2 8.03699 150.358 21.0991
956 2 11.8998 150.128 21.0472
957 2 0.185178 154.272 21.0197
958 2 4.07598 154.15 20.8524
959 2 7.96988 154.171 21.0461
960 2 12.0276 154.456 20.9046
961 2 0.00172602 158.396 24.8354
962 2 4.01746 158.347 24.927
963 2 7.83589 158.355 24.818
964 2 11.7691 158.296 24.8716
965 2 0.0081159 3.7917 24.7892
966 2 3.85113 3.80274 24.9532
967 2 7.91828 3.81063 24.8795
968 2 11.8484 3.78101 24.8819
969 2 15.9071 7.89463 24.7609
970 2 3.9326 7.75542 24.9043
971 2 7.96028 7.653 24.777
972 2 11.9681 7.74663 24.8256
973 2 15.8189 11.6085 24.7904
974 2 3.83769 11.6827 24.6904
975 2 7.89376 11.4518 24.7861
976 2 11.6846 11.58 24.9911
977 2 15.8269 15.4943 24.8729
978 2 4.01213 15.4688 24.7948
979 2 7.88902 15.4916 24.7612
980 2 11.8584 15.6135 24.7626
981 2 0.175276 19.4808 24.7549
982 2 4.07741 19.5505 24.5771
983 2 7.92137 19.4741 24.6386
984 2 11.9255 19.3613 24.7637
985 2 15.8865 23.3308 24.6546
986 2 4.04628 23.5321 24.6662
987 2 7.82064 23.4425 24.7067
988 2 11.9142 23.3696 24.7201
989 2 15.7643 27.2386 24.6513
990 2 3.96981 27.1874 24.7553
991 2 7.86275 27.2432 24.5268
992 2 11.84 27.2201 24.5765
993 2 15.6807 31.1012 24.5222