LAMMPS (29 Oct 2020)
OMP_NUM_THREADS environment is not set. Defaulting to 1 thread. (src/comm.cpp:94)
  using 1 OpenMP thread(s) per MPI task
variable        NSTEPS          equal 50000
variable        THERMO_FREQ     equal 10
variable        DUMP_FREQ       equal 10
variable        TEMP            equal 300
variable        PRES            equal 1.0
variable        TAU_T           equal 1.0
variable        TAU_P           equal 5.0

units           metal
boundary        p p p
atom_style      atomic

neighbor	2.0 bin
neigh_modify	every 1

read_data       PTO_C.data
Reading data file ...
  triclinic box = (0.0000000 0.0000000 0.0000000) to (59.370000 59.370000 99.500000) with tilt (0.0000000 0.0000000 0.0000000)
  1 by 1 by 1 MPI processor grid
  reading atoms ...
  28125 atoms
  read_data CPU = 0.027 seconds

mass            1 87.620000
mass            2 207.200000
mass            3 47.867000
mass            4 15.999000
pair_style      deepmd /storage/liushiLab/huyihao/DPMD/L25/new-field-model/phase-diagram/15-15-15/300K_3.956_3.956_D/Sr-dope/PSTO_SS_example/1_DP_potential/compress01.pb

pair_coeff

thermo_style    custom step temp pe ke etotal press vol lx ly lz
thermo          ${THERMO_FREQ}
thermo          10

#min_style cg
#minimize 1.0e-4 1.0e-6 1000 10000

dump            1 all custom ${DUMP_FREQ} traj/*.lammpstrj id type x y z
dump            1 all custom 10 traj/*.lammpstrj id type x y z
dump_modify  1 sort id

velocity        all create ${TEMP} 539619
velocity        all create 300 539619
fix             1 all npt temp ${TEMP} ${TEMP} ${TAU_T} z ${PRES} ${PRES} ${TAU_P}
fix             1 all npt temp 300 ${TEMP} ${TAU_T} z ${PRES} ${PRES} ${TAU_P}
fix             1 all npt temp 300 300 ${TAU_T} z ${PRES} ${PRES} ${TAU_P}
fix             1 all npt temp 300 300 1 z ${PRES} ${PRES} ${TAU_P}
fix             1 all npt temp 300 300 1 z 1 ${PRES} ${TAU_P}
fix             1 all npt temp 300 300 1 z 1 1 ${TAU_P}
fix             1 all npt temp 300 300 1 z 1 1 5

timestep        0.002000
run             ${NSTEPS}
run             50000
Neighbor list info ...
  update every 1 steps, delay 10 steps, check yes
  max neighbors/atom: 2000, page size: 100000
  master list distance cutoff = 8
  ghost atom cutoff = 8
  binsize = 4, bins = 15 15 25
  1 neighbor lists, perpetual/occasional/extra = 1 0 0
  (1) pair deepmd, perpetual
      attributes: , newton on
      pair build: full/bin/atomonly
      stencil: full/bin/3d
      bin: standard
Per MPI rank memory allocation (min/avg/max) = 33.79 | 33.79 | 33.79 Mbytes
Step Temp PotEng KinEng TotEng Press Volume Lx Ly Lz 
       0          300   -223882.24    1090.5937   -222791.65   -20909.519    350717.29        59.37        59.37         99.5 
      10    146.31833   -223320.86    531.91281   -222788.95   -19589.656    350712.54        59.37        59.37    99.498653 
      20    158.30943   -223365.07    575.50422   -222789.57    -13443.82    350695.32        59.37        59.37    99.493768 
      30    164.58612   -223387.11    598.32194   -222788.79   -4363.0883    350679.98        59.37        59.37    99.489414 
      40    142.35175   -223305.19    517.49308    -222787.7   -10664.537    350682.05        59.37        59.37    99.490002 
      50    149.68348   -223331.32     544.1462   -222787.17   -12715.464    350680.49        59.37        59.37    99.489559 
      60    141.13103   -223299.28    513.05539   -222786.23    -7644.703    350669.34        59.37        59.37    99.486395 
      70    131.50294   -223263.29    478.05426   -222785.24   -10174.966    350661.42        59.37        59.37    99.484149 
      80    141.55024   -223299.03    514.57933   -222784.45   -10292.929    350656.08        59.37        59.37    99.482633 
      90    147.61252   -223320.21    536.61763    -222783.6   -7870.2823    350658.56        59.37        59.37    99.483338 
     100    153.54852   -223340.76    558.19682   -222782.56   -15581.664    350673.04        59.37        59.37    99.487445 
     110    164.95023   -223381.39    599.64562   -222781.74   -18400.127    350674.34        59.37        59.37    99.487816 
     120    164.68632   -223379.65     598.6862   -222780.97   -14593.983     350649.6        59.37        59.37    99.480797 
     130     160.2911   -223362.88    582.70822   -222780.17   -14180.648    350606.88        59.37        59.37    99.468676 
     140    168.46351   -223391.93    612.41748   -222779.51   -12931.152    350550.66        59.37        59.37    99.452725 
     150    165.89427    -223381.5    603.07749   -222778.43   -9452.7662    350486.67        59.37        59.37     99.43457 
     160    166.30537   -223381.93    604.57197   -222777.36   -12129.246    350423.38        59.37        59.37    99.416617 
     170    164.76468    -223375.5    598.97106   -222776.53   -12006.726    350352.75        59.37        59.37    99.396578 
     180    161.17628   -223361.63     585.9261    -222775.7   -6539.1493     350268.5        59.37        59.37    99.372676 
     190    162.84907   -223366.56    592.00724   -222774.55   -4486.7904    350179.08        59.37        59.37    99.347308 
     200    165.33334   -223374.21    601.03832   -222773.17   -4347.4202    350092.08        59.37        59.37    99.322624 
     210    162.67921   -223363.11    591.38972   -222771.72   -4136.1955     350010.2        59.37        59.37    99.299396 
     220    163.11558   -223363.32    592.97608   -222770.34   -8734.4342    349934.11        59.37        59.37    99.277809 
     230    162.32751   -223359.38    590.11118   -222769.27   -12452.551    349855.77        59.37        59.37    99.255583 
     240    157.70668   -223341.62    573.31303   -222768.31   -10813.329    349767.77        59.37        59.37    99.230617 
     250    157.19291   -223338.72    571.44531   -222767.27   -9690.4708    349672.35        59.37        59.37    99.203545 
     260     155.6325    -223331.9    565.77275   -222766.13   -10287.776    349573.02        59.37        59.37    99.175366 
     270    156.77662   -223334.88    569.93199   -222764.95    -9252.798    349471.19        59.37        59.37    99.146477 
     280    158.46622   -223339.76    576.07421   -222763.69   -9890.0641    349368.73        59.37        59.37    99.117407 
     290    160.37661   -223345.54    583.01907   -222762.52   -10768.584    349264.45        59.37        59.37    99.087822 
     300    162.21107   -223350.88    589.68791   -222761.19   -7625.0083    349158.33        59.37        59.37    99.057715 
     310      166.073   -223363.26    603.72724   -222759.53   -4003.8636    349057.68        59.37        59.37     99.02916 
     320    168.05642   -223368.62    610.93759   -222757.68   -2050.2635    348969.92        59.37        59.37    99.004263 
     330    167.13715   -223363.37    607.59573   -222755.77   -382.92697    348898.65        59.37        59.37    98.984045 
     340    168.33711   -223365.95    611.95796   -222753.99   -927.02497    348845.19        59.37        59.37    98.968877 
     350    167.87091   -223362.58    610.26317   -222752.32   -2787.3136    348805.71        59.37        59.37    98.957677 
     360    168.28167   -223362.49    611.75644   -222750.73   -3103.5691    348775.38        59.37        59.37    98.949071 
     370    167.27861   -223357.26       608.11   -222749.15   -2928.1764    348754.68        59.37        59.37      98.9432 
     380    166.47238   -223352.78    605.17911    -222747.6   -3811.8995    348744.74        59.37        59.37    98.940378 
     390    166.95211      -223353    606.92307   -222746.08   -4850.8545    348742.76        59.37        59.37    98.939816 
     400    164.98001   -223344.27    599.75386   -222744.52   -6171.0265    348744.64        59.37        59.37    98.940351 
     410    164.17798   -223339.79    596.83822   -222742.95   -7536.9627    348745.06        59.37        59.37    98.940469 
     420     163.8215   -223336.97     595.5423   -222741.42    -7533.042    348738.71        59.37        59.37    98.938669 
     430    165.50983   -223341.61    601.67991   -222739.93   -5972.9289    348724.74        59.37        59.37    98.934706 
     440    166.32499   -223343.03    604.64327   -222738.39   -4879.1606     348706.4        59.37        59.37    98.929503 
     450    166.16575   -223340.88     604.0644   -222736.81   -3408.0594    348686.02        59.37        59.37     98.92372 
     460    166.12645   -223339.13    603.92154    -222735.2   -2062.3814    348665.38        59.37        59.37    98.917864 
     470    166.78243    -223339.9    606.30623   -222733.59   -1988.7659    348645.35        59.37        59.37    98.912181 
     480    166.29702   -223336.53     604.5416   -222731.99   -1490.6605    348624.98        59.37        59.37    98.906403 
     490     166.7082   -223336.41    606.03639   -222730.38    -520.3447    348604.24        59.37        59.37    98.900518 
     500    169.09701   -223343.49    614.72044   -222728.77   -983.35606    348584.62        59.37        59.37    98.894953 
     510    169.74426   -223344.15    617.07342   -222727.07   -1610.7945    348567.03        59.37        59.37    98.889962 
     520    171.94963   -223350.51    625.09059   -222725.42   -2261.4356    348551.32        59.37        59.37    98.885505 
     530     171.7795   -223348.18    624.47213   -222723.71    -3632.805    348537.08        59.37        59.37    98.881464 
     540    171.40462    -223345.1    623.10932   -222721.99     -4543.57    348523.32        59.37        59.37     98.87756 
     550    171.04799   -223342.13    621.81288   -222720.31   -4670.6717    348509.12        59.37        59.37    98.873533 
     560    170.01023   -223336.66    618.04027   -222718.62   -4801.9735     348494.3        59.37        59.37    98.869328 
     570    169.27624    -223332.3      615.372   -222716.93   -4513.6125     348479.2        59.37        59.37    98.865044 
     580    169.57008    -223331.7    616.44019   -222715.26   -3598.3756    348465.36        59.37        59.37    98.861119 
     590    168.86322   -223327.39    613.87055   -222713.52    -2708.625    348455.35        59.37        59.37    98.858276 
     600    169.13729   -223326.69    614.86687   -222711.83   -2052.8034     348451.9        59.37        59.37    98.857298 
     610    167.77706   -223320.04    609.92202   -222710.12   -1152.6738    348457.34        59.37        59.37    98.858843 
     620    168.76033   -223321.95    613.49649   -222708.45   -500.56922     348473.1        59.37        59.37    98.863314 
     630    170.30353   -223325.92    619.10651   -222706.82   -476.29393    348499.24        59.37        59.37     98.87073 
     640    171.32121   -223328.01    622.80611   -222705.21   -619.71446     348535.1        59.37        59.37    98.880903 
     650    172.72614   -223331.51    627.91346   -222703.59   -1355.8362    348579.94        59.37        59.37    98.893624 
     660    175.10137   -223338.53    636.54816   -222701.98   -2400.9338    348632.63        59.37        59.37    98.908572 
     670    175.07185   -223336.75    636.44084   -222700.31   -3363.4959    348691.45        59.37        59.37    98.925259 
     680    173.75721   -223330.25    631.66172   -222698.58   -4439.7448    348754.24        59.37        59.37    98.943073 
     690    173.53419   -223327.68    630.85098   -222696.82   -4824.4447    348818.46        59.37        59.37    98.961293 
     700    173.93466   -223327.34    632.30682   -222695.04   -5020.7914    348882.07        59.37        59.37    98.979341 
     710    172.64708   -223320.82    627.62606    -222693.2   -4997.9174    348943.62        59.37        59.37    98.996803 
     720    171.97387   -223316.53    625.17874   -222691.36   -4596.7096    349002.17        59.37        59.37    99.013413 
     730      172.522   -223316.71    627.17135   -222689.54   -4420.0796    349057.74        59.37        59.37    99.029177 
     740    172.21196   -223313.74    626.04426   -222687.69   -4201.5884    349110.39        59.37        59.37    99.044114 
     750    172.89978   -223314.39     628.5447   -222685.84    -3851.413    349160.08        59.37        59.37    99.058213 
     760    172.25768   -223310.18    626.21046   -222683.97   -3541.1112    349207.02        59.37        59.37    99.071529 
     770    173.95943   -223314.54    632.39685   -222682.14   -3660.1958    349251.54        59.37        59.37    99.084159 
     780    176.43829   -223321.69     641.4083   -222680.28   -3863.7602     349293.6        59.37        59.37    99.096093 
     790    175.18343   -223315.19    636.84647   -222678.34   -4513.8528    349332.86        59.37        59.37    99.107232 
     800    176.16626   -223316.86    640.41938   -222676.44   -5243.8998    349368.71        59.37        59.37    99.117403 
     810    174.88941   -223310.27    635.77764    -222674.5   -5541.3429    349400.54        59.37        59.37    99.126433 
     820    176.19898   -223313.15    640.53832   -222672.62   -6104.0495    349428.19        59.37        59.37    99.134278 
     830    175.54119   -223308.85    638.14705    -222670.7    -6230.808    349451.61        59.37        59.37     99.14092 
     840    176.50953   -223310.49    641.66728   -222668.82    -6431.532    349471.44        59.37        59.37    99.146546 
     850    176.15285   -223307.27    640.37062    -222666.9   -6475.7388    349488.17        59.37        59.37    99.151294 
     860    174.62969   -223299.82    634.83347   -222664.99   -6283.6771    349502.34        59.37        59.37    99.155313 
     870    175.21782   -223300.07    636.97151    -222663.1   -6013.6144     349515.4        59.37        59.37    99.159019 
     880     177.1129   -223305.08    643.86069   -222661.22   -5902.2076     349528.6        59.37        59.37    99.162763 
     890    175.38654   -223296.85    637.58483   -222659.27   -5557.3057    349542.68        59.37        59.37    99.166759 
     900    179.45592   -223309.82     652.3783   -222657.44   -5439.2772    349558.84        59.37        59.37    99.171343 
     910    177.20343   -223299.64    644.18981   -222655.45   -5290.6824     349577.2        59.37        59.37    99.176552 
     920    179.29502   -223305.35    651.79341   -222653.56   -5752.9921    349597.43        59.37        59.37    99.182292 
     930    179.53056   -223304.27    652.64965   -222651.62   -5925.3592    349618.88        59.37        59.37    99.188375 
     940     179.8536   -223303.51    653.82402   -222649.69   -6227.5897    349641.48        59.37        59.37    99.194786 
     950    178.91987   -223298.15    650.42962   -222647.72   -6660.6452    349664.76        59.37        59.37    99.201393 
     960     178.7773   -223295.66    649.91132   -222645.75   -6755.2213    349688.08        59.37        59.37    99.208008 
     970    179.10346   -223294.89      651.097   -222643.79   -7056.5455    349710.83        59.37        59.37    99.214463 
     980    179.52705   -223294.46    652.63689   -222641.82   -7282.4533    349731.65        59.37        59.37    99.220368 
     990    178.87806   -223290.11    650.27763   -222639.83   -7023.4529    349749.38        59.37        59.37    99.225401 
    1000    179.26624   -223289.55    651.68876   -222637.87   -6997.1643    349764.25        59.37        59.37    99.229618 
    1010    179.95843   -223290.07    654.20509   -222635.87   -7084.3925    349776.02        59.37        59.37    99.232956 
    1020    181.14698   -223292.42    658.52584   -222633.89   -6784.1439    349784.05        59.37        59.37    99.235236 
    1030    181.37774   -223291.24    659.36473   -222631.87   -6711.1841    349788.86        59.37        59.37    99.236599 
    1040    182.52038   -223293.39    663.51857   -222629.87   -6617.7028    349790.17        59.37        59.37    99.236973 
    1050    181.67116   -223288.27     660.4314   -222627.84   -6458.4412    349787.45        59.37        59.37    99.236201 
    1060    183.28092   -223292.13     666.2834   -222625.84   -6455.6367    349780.98        59.37        59.37    99.234363 
    1070    182.64237   -223287.76    663.96206    -222623.8   -6544.1783    349771.53        59.37        59.37    99.231683 
    1080    183.76591   -223289.86    668.04648   -222621.81   -6572.1896     349759.2        59.37        59.37    99.228186 
    1090    183.79179   -223287.93    668.14054   -222619.79   -6838.6458    349743.98        59.37        59.37    99.223868 
    1100    184.35295   -223287.97    670.18053   -222617.79   -7136.0771    349725.99        59.37        59.37    99.218765 
    1110    183.87332   -223284.21    668.43695   -222615.78   -7010.3939    349704.77        59.37        59.37    99.212743 
    1120    183.83384   -223282.05    668.29343   -222613.76   -6961.5555    349679.95        59.37        59.37      99.2057 
    1130    183.60983   -223279.22    667.47908   -222611.75   -6957.0994    349651.92        59.37        59.37    99.197751 
    1140    183.81611   -223277.95    668.22895   -222609.72   -6676.9845    349622.16        59.37        59.37    99.189307 
    1150    183.09579   -223273.26    665.61038   -222607.65   -6567.4168    349591.91        59.37        59.37    99.180724 
    1160    183.36802   -223272.21    666.60004   -222605.61   -6517.9266    349561.72        59.37        59.37    99.172159 
    1170    184.04226   -223272.62    669.05108   -222603.57   -6327.8952    349531.85        59.37        59.37    99.163686 
    1180    183.85032   -223269.85    668.35333   -222601.49   -6048.3643    349502.51        59.37        59.37    99.155362 
    1190     185.6261   -223274.23    674.80884   -222599.42   -6055.5898    349473.78        59.37        59.37    99.147209 
    1200    187.47408   -223278.86    681.52683   -222597.34   -6074.9615    349446.31        59.37        59.37    99.139417 
    1210    186.61436    -223273.6    678.40147    -222595.2   -5689.3269    349421.11        59.37        59.37    99.132269 
    1220    186.68455   -223271.74    678.65663   -222593.08   -5834.8984    349398.86        59.37        59.37    99.125956 
    1230    187.97579   -223274.34    683.35072   -222590.99   -6087.7819    349379.02        59.37        59.37    99.120326 
    1240    188.14233   -223272.82    683.95614   -222588.87   -5833.8528    349360.96        59.37        59.37    99.115202 
    1250    186.39956   -223264.36    677.62061   -222586.74   -5852.3982    349344.25        59.37        59.37    99.110462 
    1260    187.61007   -223266.68    682.02121   -222584.66   -5881.1159     349328.1        59.37        59.37     99.10588 
    1270    188.21675   -223266.77    684.22665   -222582.54   -5568.5357    349312.84        59.37        59.37     99.10155 
    1280    187.34357   -223261.45     681.0524    -222580.4   -5560.5744       349299        59.37        59.37    99.097625 
    1290     188.6071   -223263.92    685.64573   -222578.28   -5603.5169    349286.29        59.37        59.37    99.094019 
    1300    188.21542   -223260.38    684.22184   -222576.15   -5784.6342     349274.7        59.37        59.37     99.09073 
    1310    188.14079   -223257.98    683.95054   -222574.03   -5767.6458    349263.54        59.37        59.37    99.087565 
    1320    188.78862   -223258.21    686.30558    -222571.9   -5762.6562    349251.93        59.37        59.37    99.084271 
    1330    188.34957   -223254.47    684.70951   -222569.76   -5608.4065     349239.6        59.37        59.37    99.080771 
    1340    189.91119   -223258.04    690.38649   -222567.65   -5462.3825    349226.81        59.37        59.37    99.077143 
    1350    189.18624   -223253.22    687.75108   -222565.47     -5231.16    349213.49        59.37        59.37    99.073366 
    1360    190.42916   -223255.61    692.26948   -222563.34   -5430.1226    349199.92        59.37        59.37    99.069516 
    1370    189.09924    -223248.6     687.4348   -222561.17   -5685.4934    349186.03        59.37        59.37    99.065575 
    1380    190.83782   -223252.81    693.75508   -222559.06   -5462.3715    349171.38        59.37        59.37    99.061417 
    1390     190.6159   -223249.83    692.94834   -222556.88   -5210.6379    349156.26        59.37        59.37    99.057129 
    1400    190.68266   -223247.91    693.19104   -222554.71   -5186.1868    349141.17        59.37        59.37    99.052848 
    1410    190.96126   -223246.75    694.20384   -222552.55   -4778.2039    349126.65        59.37        59.37    99.048727 
    1420    191.44445   -223246.32    695.96038   -222550.36    -4936.419    349112.99        59.37        59.37    99.044853 
    1430    191.68349   -223245.01    696.82934   -222548.18   -5154.6659    349099.98        59.37        59.37    99.041162 
    1440    192.03273    -223244.1    698.09895   -222546.01   -4917.6494    349087.67        59.37        59.37     99.03767 
    1450    193.19189   -223246.14    702.31286   -222543.83   -5065.3169    349076.87        59.37        59.37    99.034605 
    1460    193.11887   -223243.66    702.04741   -222541.61   -5138.7071    349067.63        59.37        59.37    99.031983 
    1470    192.96512   -223240.89    701.48847   -222539.41   -5036.2269    349059.87        59.37        59.37    99.029783 
    1480    193.86558   -223241.97    704.76192   -222537.21   -4933.9133    349054.09        59.37        59.37    99.028143 
    1490     192.2814   -223233.97    699.00295   -222534.97    -4891.203    349050.48        59.37        59.37    99.027119 
    1500    194.51435   -223239.91     707.1204   -222532.79   -5000.9119    349048.68        59.37        59.37    99.026608 
    1510    193.84076   -223235.23    704.67171   -222530.56   -4930.7296    349048.87        59.37        59.37    99.026662 
    1520    193.36527   -223231.32    702.94316   -222528.38    -4873.464    349051.78        59.37        59.37    99.027486 
    1530    193.77177   -223230.61    704.42091   -222526.19   -4968.0089    349057.29        59.37        59.37    99.029052 
    1540    194.86273   -223232.37    708.38687   -222523.98   -5280.0831    349065.38        59.37        59.37    99.031346 
    1550    194.83312   -223230.02    708.27924   -222521.74   -5209.7051    349075.78        59.37        59.37    99.034297 
    1560    195.94002   -223231.84    712.30315   -222519.54   -5055.9415    349088.05        59.37        59.37    99.037778 
    1570    194.84863   -223225.62    708.33564   -222517.29   -5140.1585    349101.84        59.37        59.37     99.04169 
    1580    195.32821   -223225.13    710.07904   -222515.05   -4948.5494    349117.39        59.37        59.37    99.046101 
    1590    197.28062   -223230.03    717.17666   -222512.86   -5293.1938    349134.79        59.37        59.37    99.051037 
    1600    196.78388   -223225.96    715.37086   -222510.59   -5442.0628    349152.94        59.37        59.37    99.056187 
    1610    198.12637   -223228.61    720.25124   -222508.36   -5579.0952    349171.23        59.37        59.37    99.061375 
    1620    197.90065   -223225.53    719.43067    -222506.1   -5506.7663    349189.44        59.37        59.37    99.066541 
    1630    197.43113   -223221.56    717.72383   -222503.84   -5146.6466    349207.27        59.37        59.37    99.071601 
    1640      197.463   -223219.43    717.83968   -222501.59   -5267.1562    349225.07        59.37        59.37    99.076651 
    1650    198.63186   -223221.42    722.08884   -222499.34   -5303.7613     349243.2        59.37        59.37    99.081794 
    1660    198.61964   -223219.11    722.04441   -222497.06   -5364.9468    349261.74        59.37        59.37    99.087054 
    1670    199.17887   -223218.87    724.07742   -222494.79     -5586.74    349279.75        59.37        59.37    99.092164 
    1680     198.6315    -223214.6    722.08753   -222492.52   -5407.8063    349297.02        59.37        59.37    99.097061 
    1690    198.70961   -223212.61     722.3715   -222490.23    -5614.485    349313.66        59.37        59.37    99.101784 
    1700    200.71767   -223217.63    729.67143   -222487.96   -5703.3415    349328.96        59.37        59.37    99.106124 
    1710    200.00663   -223212.74    727.08657   -222485.66   -5647.4611    349342.96        59.37        59.37    99.110097 
    1720    199.57242   -223208.87    725.50806   -222483.36   -5793.5279    349356.25        59.37        59.37    99.113867 
    1730    201.22024   -223212.58    731.49841   -222481.08   -5907.1918    349369.09        59.37        59.37    99.117508 
    1740    201.66005   -223211.88    733.09725   -222478.78   -5590.4847    349381.63        59.37        59.37    99.121068 
    1750      200.761   -223206.27    729.82893   -222476.44   -5796.1099     349394.1        59.37        59.37    99.124606 
    1760    202.36237   -223209.82    735.65043   -222474.17    -5815.287    349405.96        59.37        59.37     99.12797 
    1770    202.54991   -223208.19    736.33218   -222471.86   -5705.6328    349417.15        59.37        59.37    99.131143 
    1780    203.16484   -223208.11    738.56765   -222469.54   -5777.2465    349427.99        59.37        59.37    99.134219 
    1790    202.38883   -223202.97    735.74662   -222467.22    -5392.117    349438.99        59.37        59.37    99.137341 
    1800    203.85178   -223206.02     741.0649   -222464.95   -5281.6173    349451.22        59.37        59.37    99.140809 
    1810    203.80302   -223203.49    740.88764    -222462.6   -5551.0899    349464.61        59.37        59.37    99.144609 
    1820    205.22077   -223206.34    746.04159   -222460.29   -5696.9787    349478.47        59.37        59.37    99.148542 
    1830    204.55008   -223201.57    743.60342   -222457.96   -5852.0211    349492.54        59.37        59.37    99.152533 
    1840     203.5043   -223195.43     739.8017   -222455.63   -5838.4357    349506.25        59.37        59.37    99.156423 
    1850    205.30938   -223199.68    746.36371   -222453.32   -5573.4576     349519.5        59.37        59.37    99.160181 
    1860    206.03763   -223199.97    749.01115   -222450.95   -5722.0309    349532.95        59.37        59.37    99.163998 
    1870     205.8909   -223197.09    748.47772   -222448.61   -5751.2746    349546.08        59.37        59.37    99.167722 
    1880    206.34749   -223196.41    750.13756   -222446.28   -5720.9065    349558.67        59.37        59.37    99.171295 
    1890    205.81611   -223192.12    748.20585   -222443.92   -5848.6458    349571.04        59.37        59.37    99.174804 
    1900    207.52121      -223196    754.40442    -222441.6   -5775.1238    349582.41        59.37        59.37    99.178028 
    1910    207.77661   -223194.55    755.33286   -222439.22    -5489.784    349592.41        59.37        59.37    99.180866 
    1920    207.83753   -223192.41    755.55434   -222436.85   -5514.7556       349602        59.37        59.37    99.183586 
    1930     208.5033   -223192.48    757.97462   -222434.51   -5458.0133    349610.93        59.37        59.37     99.18612 
    1940    208.74927   -223191.01     758.8688   -222432.15   -5187.3682    349619.29        59.37        59.37    99.188493 
    1950    208.71802   -223188.54     758.7552   -222429.78   -5509.6862     349627.8        59.37        59.37    99.190906 
    1960    209.32992    -223188.4    760.97965   -222427.42   -5169.1552     349635.4        59.37        59.37    99.193063 
    1970    209.80178   -223187.76    762.69499   -222425.06   -5258.6752    349642.09        59.37        59.37     99.19496 
    1980    208.45014   -223180.43    757.78136   -222422.65   -5564.5156    349648.26        59.37        59.37    99.196711 
    1990    210.25444   -223184.66    764.34056   -222420.32   -5210.0499    349653.34        59.37        59.37    99.198151 
    2000    209.32567   -223178.88    760.96419   -222417.92   -5480.9664    349657.58        59.37        59.37    99.199356 
    2010    210.62044   -223181.23    765.67107   -222415.56   -5593.3606    349660.93        59.37        59.37    99.200307 
    2020    211.05434   -223180.42    767.24844   -222413.17   -5504.2562    349663.29        59.37        59.37    99.200976 
    2030    210.23943   -223175.06    764.28599   -222410.77   -5457.5732     349664.8        59.37        59.37    99.201404 
    2040    211.33401   -223176.66    768.26513   -222408.39   -5288.7141    349665.27        59.37        59.37    99.201537 
    2050    213.57853   -223182.47    776.42465   -222406.04   -5112.1477    349665.04        59.37        59.37    99.201473 
    2060    212.13824   -223174.82    771.18877   -222403.63   -4932.1397    349664.08        59.37        59.37      99.2012 
    2070    212.75313   -223174.67    773.42407   -222401.25   -5005.8952    349662.21        59.37        59.37    99.200668 
    2080    213.50057   -223174.97    776.14126   -222398.83   -4953.8132    349659.87        59.37        59.37    99.200005 
    2090    214.48631   -223176.15    779.72473   -222396.42   -4855.3603     349657.4        59.37        59.37    99.199306 
    2100    213.26167   -223169.27    775.27276      -222394   -5021.1117    349654.71        59.37        59.37     99.19854 
    2110    214.08444   -223169.87    778.26379   -222391.61   -5010.7899    349651.32        59.37        59.37    99.197579 
    2120    214.71192   -223169.74    780.54487   -222389.19   -4628.9425       349647        59.37        59.37    99.196354 
    2130     214.8884   -223167.97    781.18646   -222386.79    -4927.573    349642.25        59.37        59.37    99.195006 
    2140    214.40166   -223163.81    779.41699   -222384.39   -4808.1314    349637.03        59.37        59.37    99.193526 
    2150    214.26298   -223160.88    778.91284   -222381.96   -4702.7822    349631.29        59.37        59.37    99.191897 
    2160    215.68114   -223163.64    784.06831   -222379.57   -5023.9031     349624.9        59.37        59.37    99.190084 
    2170     215.2835   -223159.79    782.62278   -222377.17   -4882.4624    349617.03        59.37        59.37    99.187851 
    2180    216.01053   -223160.04    785.26575   -222374.77   -4601.9482    349607.67        59.37        59.37    99.185195 
    2190    217.07645   -223161.49    789.14069   -222372.35   -4672.0409    349597.91        59.37        59.37    99.182426 
    2200    216.84537   -223158.21    788.30064   -222369.91   -4660.5314    349588.43        59.37        59.37    99.179738 
    2210    217.23186   -223157.18    789.70566   -222367.48   -4266.3392    349578.79        59.37        59.37    99.177003 
    2220    217.46741   -223155.59    790.56195   -222365.03     -4547.13    349569.15        59.37        59.37    99.174267 
    2230    216.65915   -223150.23    787.62368    -222362.6   -4427.8516    349558.68        59.37        59.37    99.171297 
    2240    218.71655   -223155.33    795.10297   -222360.22    -3980.966    349547.52        59.37        59.37    99.168131 
    2250     217.5477    -223148.6    790.85382   -222357.74   -4198.6315    349537.37        59.37        59.37    99.165251 
    2260    219.38449   -223152.86    797.53113   -222355.33   -4391.2774    349528.43        59.37        59.37    99.162716 
    2270    219.28195   -223150.05    797.15836   -222352.89   -4155.0561    349520.34        59.37        59.37     99.16042 
    2280    218.48956    -223144.7    794.27781   -222350.43    -4371.394    349513.48        59.37        59.37    99.158473 
    2290    221.21018    -223152.2     804.1681   -222348.03   -4591.2878    349507.34        59.37        59.37    99.156732 
    2300    219.49564   -223143.48    797.93521   -222345.55   -3890.4707    349501.46        59.37        59.37    99.155062 
    2310     220.8429   -223145.96    802.83291   -222343.13   -4204.8712    349496.87        59.37        59.37    99.153761 
    2320    221.70209   -223146.62    805.95633   -222340.66   -4732.6089    349492.95        59.37        59.37    99.152649 
    2330    220.84359   -223141.03    802.83542   -222338.19   -4267.5815    349489.05        59.37        59.37    99.151542 
    2340    221.46041   -223140.82    805.07776   -222335.74   -4244.6622    349486.45        59.37        59.37    99.150806 
    2350    220.99031   -223136.64     803.3688   -222333.27   -4575.0284    349485.31        59.37        59.37    99.150481 
    2360    222.08642   -223138.21    807.35349   -222330.85   -4234.7174     349484.8        59.37        59.37    99.150336 
    2370     221.6443   -223134.15    805.74626    -222328.4   -4372.9227    349484.91        59.37        59.37    99.150369 
    2380    223.09197   -223136.97    811.00897   -222325.96   -4653.4819    349484.92        59.37        59.37    99.150371 
    2390    223.75954   -223136.93    813.43582   -222323.49   -4238.9374    349484.15        59.37        59.37    99.150151 
    2400    222.42753   -223129.61    808.59354   -222321.02   -4184.3661    349483.45        59.37        59.37    99.149953 
    2410    222.64609   -223127.95    809.38808   -222318.56   -4404.6432    349483.12        59.37        59.37    99.149859 
    2420     222.6969   -223125.65    809.57277   -222316.08   -4408.5075     349482.5        59.37        59.37    99.149683 
    2430    225.35097   -223132.88    819.22117   -222313.66   -4743.6848    349481.66        59.37        59.37    99.149446 
    2440    224.65865   -223127.86    816.70435   -222311.16   -5050.4783    349480.13        59.37        59.37    99.149012 
    2450    224.66471   -223125.41    816.72637   -222308.69   -4922.8193    349477.12        59.37        59.37    99.148158 
    2460    227.39724   -223132.93    826.66001   -222306.27   -4960.2257    349472.65        59.37        59.37    99.146891 
    2470    225.08282      -223122    818.24635   -222303.75   -4575.4526    349466.67        59.37        59.37    99.145192 
    2480    226.14263   -223123.41     822.0991   -222301.31    -4532.604    349459.69        59.37        59.37    99.143214 
    2490    226.86991   -223123.58    824.74299   -222298.84   -4368.7349    349451.72        59.37        59.37    99.140952 
    2500    226.96947   -223121.47    825.10493   -222296.36    -4266.704    349443.48        59.37        59.37    99.138615 
    2510    226.88064   -223118.66    824.78199   -222293.87   -4329.0191    349436.08        59.37        59.37    99.136514 
    2520    227.72021   -223119.25     827.8341   -222291.41   -4259.4169    349429.39        59.37        59.37    99.134616 
    2530    227.57078    -223116.2    827.29084   -222288.91   -4392.7417    349423.12        59.37        59.37    99.132837 
    2540    228.18733   -223115.96     829.5322   -222286.42   -4446.3674    349417.03        59.37        59.37    99.131111 
    2550    230.26833   -223121.06     837.0973   -222283.97   -4351.4824    349411.05        59.37        59.37    99.129413 
    2560     229.8923    -223117.2    835.73031   -222281.47   -4434.4609     349405.5        59.37        59.37     99.12784 
    2570    230.07092   -223115.37    836.37964   -222278.99   -4677.1489    349401.01        59.37        59.37    99.126564 
    2580    228.96702   -223108.84    832.36662   -222276.47   -4659.3217    349397.61        59.37        59.37    99.125602 
    2590     229.7781   -223109.33    835.31517   -222274.02    -5044.787    349394.84        59.37        59.37    99.124814 
    2600    229.31139   -223105.17    833.61852   -222271.55   -5077.2855    349392.13        59.37        59.37    99.124046 
    2610    229.80461   -223104.47    835.41152   -222269.05   -4784.0486    349389.67        59.37        59.37    99.123347 
    2620    230.54791   -223104.68    838.11367   -222266.57   -4644.0112    349387.34        59.37        59.37    99.122686 
    2630    229.99188   -223100.16    836.09231   -222264.07   -4721.9467    349385.29        59.37        59.37    99.122105 
    2640    230.36491   -223099.03    837.44841   -222261.58   -4428.3141    349384.47        59.37        59.37    99.121872 
    2650     231.7111   -223101.46    842.34223   -222259.12   -4465.0005    349385.03        59.37        59.37    99.122031 
    2660     232.7899   -223102.91    846.26401   -222256.64   -4873.8481     349386.3        59.37        59.37    99.122393 
    2670    232.49527   -223099.33    845.19293   -222254.14   -4545.2449    349388.02        59.37        59.37    99.122879 
    2680    234.38782   -223103.76    852.07293   -222251.69   -4541.5094    349390.67        59.37        59.37    99.123633 
    2690    231.60942   -223091.12    841.97257   -222249.14   -4837.7794    349393.95        59.37        59.37    99.124561 
    2700    235.05556    -223101.2    854.50037    -222246.7   -5086.7706    349397.47        59.37        59.37    99.125562 
    2710     234.3034   -223095.92    851.76605   -222244.15   -4838.9666    349401.38        59.37        59.37    99.126669 
    2720    234.25791   -223093.25    851.60065   -222241.65   -5155.6472    349405.64        59.37        59.37    99.127879 
    2730    232.92406   -223085.88    846.75171   -222239.12   -4977.0063    349409.61        59.37        59.37    99.129006 
    2740    234.20835   -223088.11    851.42049   -222236.69   -4621.3599    349413.67        59.37        59.37    99.130158 
    2750    234.73859   -223087.57    853.34808   -222234.22   -5034.6131    349417.98        59.37        59.37    99.131379 
    2760    235.96766   -223089.54    857.81613   -222231.73   -5017.9727    349421.56        59.37        59.37    99.132394 
    2770    235.07373   -223083.75    854.56644   -222229.18   -4997.8792    349424.54        59.37        59.37     99.13324 
    2780    237.02656   -223088.38    861.66556   -222226.72   -5277.6975    349427.33        59.37        59.37    99.134032 
    2790    234.63111   -223077.15    852.95735   -222224.19    -4887.538    349430.18        59.37        59.37     99.13484 
    2800    236.21937   -223080.48    858.73119   -222221.75   -5036.6375    349433.79        59.37        59.37    99.135865 
    2810    236.30325   -223078.28    859.03613   -222219.24   -4906.7969    349437.88        59.37        59.37    99.137025 
    2820    236.22292   -223075.47    858.74409   -222216.73   -4853.2962    349442.24        59.37        59.37    99.138264 
    2830    236.91131   -223075.49    861.24661   -222214.24   -5121.5165    349446.45        59.37        59.37    99.139456 
    2840    237.41847   -223074.84     863.0903   -222211.75   -5354.2887    349450.11        59.37        59.37    99.140496 
    2850    236.94551   -223070.62    861.37093   -222209.24   -5790.7847    349453.78        59.37        59.37    99.141536 
    2860    238.84328   -223075.06    868.26993   -222206.79   -5581.5089    349457.25        59.37        59.37    99.142521 
    2870    238.42252   -223071.01    866.74034   -222204.27   -5543.3746    349460.93        59.37        59.37    99.143565 
    2880    240.11397   -223074.66    872.88926   -222201.77   -5609.2558    349465.25        59.37        59.37    99.144792 
    2890    237.42372   -223062.36    863.10939   -222199.25   -5549.2947    349469.81        59.37        59.37    99.146083 
    2900    238.34051   -223063.22    866.44221   -222196.77     -5399.25     349474.5        59.37        59.37    99.147415 
    2910    239.96903   -223066.65    872.36238   -222194.29   -5491.7559    349479.68        59.37        59.37    99.148884 
    2920    238.93911   -223060.38    868.61829   -222191.76   -5383.3212    349485.62        59.37        59.37    99.150569 
    2930    239.74579    -223060.8    871.55081   -222189.25   -5226.6317    349492.65        59.37        59.37    99.152565 
    2940    241.82419   -223065.89    879.10646   -222186.78   -5306.1696    349500.87        59.37        59.37    99.154896 
    2950    239.44855   -223054.72    870.47025   -222184.25    -5228.286    349510.27        59.37        59.37    99.157563 
    2960    241.51599    -223059.8    877.98604   -222181.82   -5231.2483    349521.04        59.37        59.37    99.160618 
    2970    243.73572   -223065.38    886.05547   -222179.33   -5612.7211    349532.98        59.37        59.37    99.164005 
    2980    242.04053   -223056.66    879.89294   -222176.76   -5247.6347    349545.26        59.37        59.37     99.16749 
    2990    243.59374   -223059.86    885.53931   -222174.32   -5372.5466    349558.25        59.37        59.37    99.171174 
    3000    242.23918   -223052.41    880.61506   -222171.79   -5507.9899    349571.78        59.37        59.37    99.175013 
    3010    243.38668   -223054.11    884.78658   -222169.33   -5772.0525    349585.62        59.37        59.37    99.178939 
    3020     243.2386   -223051.07    884.24829   -222166.82   -5588.6119    349599.32        59.37        59.37    99.182827 
    3030    242.16058   -223044.62    880.32936   -222164.29    -6068.159    349612.79        59.37        59.37    99.186647 
    3040     243.6996   -223047.75    885.92415   -222161.83   -6027.2355    349624.79        59.37        59.37    99.190052 
    3050    243.29044   -223043.74    884.43673   -222159.31   -5591.6339    349635.24        59.37        59.37    99.193018 
    3060    243.71219   -223042.81    885.96993   -222156.84   -6051.1105    349644.91        59.37        59.37    99.195762 
    3070    243.68751    -223040.2    885.88021   -222154.32   -6044.8215    349653.04        59.37        59.37    99.198068 
    3080    245.51456    -223044.4    892.52209   -222151.88   -5546.9937    349659.54        59.37        59.37    99.199912 
    3090    244.25173   -223037.29    887.93134   -222149.35   -5873.7133    349665.56        59.37        59.37     99.20162 
    3100    246.57985   -223043.26    896.39478   -222146.87   -5524.1761     349670.8        59.37        59.37    99.203107 
    3110     246.9768   -223042.19    897.83782   -222144.35   -5015.2991    349675.72        59.37        59.37    99.204502 
    3120    247.85816   -223042.91    901.04182   -222141.87   -5586.4673    349681.38        59.37        59.37    99.206107 
    3130    247.25769   -223038.22    898.85891   -222139.36   -5542.2689    349686.88        59.37        59.37    99.207668 
    3140    247.79932   -223037.71    900.82791   -222136.88   -5557.2355    349691.67        59.37        59.37    99.209028 
    3150    248.64353   -223038.27    903.89687   -222134.38   -5634.8636    349696.25        59.37        59.37    99.210326 
    3160    247.84697   -223032.87    901.00113   -222131.87   -5830.7765    349700.87        59.37        59.37    99.211636 
    3170     248.0498   -223031.14     901.7385    -222129.4   -5184.0298    349705.87        59.37        59.37    99.213057 
    3180    249.83604   -223035.17    908.23203   -222126.93   -5683.9605    349712.62        59.37        59.37     99.21497 
    3190     249.0833   -223029.94    905.49558   -222124.44    -5709.417    349720.67        59.37        59.37    99.217255 
    3200    248.60655   -223025.69    903.76245   -222121.92   -5525.1549    349729.59        59.37        59.37    99.219786 
    3210    248.63685   -223023.31    903.87261   -222119.43   -5641.1584       349739        59.37        59.37    99.222453 
    3220    248.62994   -223020.81    903.84747   -222116.96   -5453.6542    349748.71        59.37        59.37     99.22521 
    3230    250.58043   -223025.48    910.93811   -222114.54    -5094.015    349759.49        59.37        59.37    99.228268 
    3240    249.29166   -223018.31    906.25305   -222112.06   -5192.3684    349772.43        59.37        59.37     99.23194 
    3250    250.17981    -223019.1    909.48174   -222109.62   -5499.4321    349787.65        59.37        59.37    99.236257 
    3260    251.49299    -223021.4    914.25557   -222107.15   -5497.7597    349804.31        59.37        59.37    99.240982 
    3270    250.43346   -223015.05    910.40384   -222104.65   -5331.4151    349821.96        59.37        59.37     99.24599 
    3280    252.06349   -223018.51     916.3295   -222102.18   -5671.6978    349840.57        59.37        59.37     99.25127 
    3290    254.74466   -223025.82    926.07641   -222099.74   -5646.1927    349859.54        59.37        59.37    99.256652 
    3300    253.42401   -223018.55    921.27542   -222097.28   -5233.2991     349879.7        59.37        59.37    99.262373 
    3310    253.21549   -223015.33     920.5174   -222094.82   -5647.0731    349901.87        59.37        59.37    99.268662 
    3320    255.24795   -223020.25    927.90602   -222092.34    -5719.205    349925.13        59.37        59.37     99.27526 
    3330    253.73432   -223012.27     922.4035   -222089.87   -5555.7839     349949.2        59.37        59.37    99.282089 
    3340    254.06452   -223011.03    923.60387   -222087.43   -5763.7482    349973.55        59.37        59.37    99.288997 
    3350    253.24182   -223005.57    920.61312   -222084.96   -5569.0014     349997.6        59.37        59.37     99.29582 
    3360    254.55381   -223007.92    925.38258   -222082.54   -5879.1754    350022.02        59.37        59.37    99.302748 
    3370    253.64989   -223002.15    922.09656   -222080.06   -5606.5951     350046.7        59.37        59.37    99.309751 
    3380    256.72275   -223010.92    933.26737   -222077.65   -5835.3831    350070.97        59.37        59.37    99.316636 
    3390     256.1286   -223006.29    931.10745   -222075.18   -5776.0201    350094.62        59.37        59.37    99.323346 
    3400     255.9598    -223003.2    930.49381   -222072.71   -5843.5034    350117.69        59.37        59.37    99.329891 
    3410    257.69152   -223007.04    936.78914   -222070.25   -6254.1823    350139.35        59.37        59.37    99.336036 
    3420    258.25838   -223006.61    938.84988   -222067.76   -6310.3373    350158.75        59.37        59.37    99.341539 
    3430    257.68701   -223002.06    936.77277   -222065.28   -6447.8202    350175.96        59.37        59.37    99.346421 
    3440    257.13476   -222997.59    934.76514   -222062.82    -5983.338    350190.98        59.37        59.37    99.350684 
    3450    257.26971   -222995.63    935.25576   -222060.38   -6193.4672    350204.12        59.37        59.37     99.35441 
    3460    259.75433   -223002.26    944.28811   -222057.97   -6382.6259    350215.35        59.37        59.37    99.357597 
    3470    257.81059   -222992.72    937.22202    -222055.5   -6155.0191    350224.91        59.37        59.37    99.360309 
    3480     260.5677   -223000.35    947.24497   -222053.11   -6308.8084    350232.79        59.37        59.37    99.362546 
    3490    258.86653   -222991.71    941.06067   -222050.65   -6337.8615    350238.54        59.37        59.37    99.364176 
    3500     258.4764   -222987.85    939.64244   -222048.21   -5934.9271    350242.26        59.37        59.37    99.365231 
    3510    259.92243   -222990.68    944.89921   -222045.78   -6239.2368    350244.08        59.37        59.37    99.365749 
    3520    260.35994   -222989.88     946.4897   -222043.39     -6152.54    350243.38        59.37        59.37    99.365551 
    3530    260.45399   -222987.79    946.83158   -222040.96   -6229.6468    350240.86        59.37        59.37    99.364836 
    3540     261.5682   -222989.43    950.88208   -222038.55   -6166.0587     350236.9        59.37        59.37    99.363712 
    3550    260.13891   -222981.81    945.68617   -222036.12    -6088.599    350231.18        59.37        59.37    99.362088 
    3560    261.97652    -222986.1    952.36647   -222033.73   -6240.0945    350223.56        59.37        59.37    99.359927 
    3570    264.45181    -222992.7    961.36493   -222031.34   -6130.9445    350214.06        59.37        59.37     99.35723 
    3580    261.54941    -222979.7    950.81381   -222028.88   -5928.5543    350203.11        59.37        59.37    99.354125 
    3590    262.77647   -222981.78    955.27455   -222026.51   -6169.9784    350190.92        59.37        59.37    99.350667 
    3600    262.77447    -222979.4    955.26727   -222024.13   -5559.7542    350177.22        59.37        59.37    99.346778 
    3610    262.16201   -222974.79    953.04077   -222021.75   -5452.6237    350163.45        59.37        59.37    99.342872 
    3620    264.63083   -222981.41     962.0157    -222019.4    -6098.064     350149.4        59.37        59.37    99.338886 
    3630     263.8341    -222976.1    959.11935   -222016.98   -5588.5267    350134.43        59.37        59.37     99.33464 
    3640      266.032   -222981.74    967.10941   -222014.63   -5637.2731    350120.14        59.37        59.37    99.330586 
    3650    265.00228   -222975.56    963.36605   -222012.19   -5986.5091    350106.67        59.37        59.37    99.326765 
    3660    264.44131   -222971.14    961.32675   -222009.81   -5603.9119    350092.79        59.37        59.37    99.322826 
    3670    265.26989   -222971.82    964.33889   -222007.48   -5498.4789     350078.8        59.37        59.37    99.318857 
    3680    266.24049   -222972.98    967.86732   -222005.12   -5605.7838    350064.67        59.37        59.37    99.314848 
    3690    265.90477    -222969.4    966.64687   -222002.76   -5430.7515    350049.83        59.37        59.37    99.310638 
    3700    265.96515   -222967.23     966.8664   -222000.36   -5411.8549    350034.92        59.37        59.37    99.306409 
    3710     266.5585   -222967.02    969.02338      -221998   -5515.8762    350020.47        59.37        59.37     99.30231 
    3720    266.11574   -222963.05    967.41384   -221995.64   -5375.7393    350006.24        59.37        59.37     99.29827 
    3730    266.66763   -222962.71    969.42013   -221993.29   -5134.6475    349991.68        59.37        59.37    99.294142 
    3740    268.46696   -222966.91    975.96125   -221990.95   -5717.6298    349976.32        59.37        59.37    99.289783 
    3750    268.09785   -222963.23    974.61943   -221988.61   -5250.6928    349959.01        59.37        59.37    99.284872 
    3760    267.76703   -222959.71    973.41677   -221986.29   -5080.6937    349939.74        59.37        59.37    99.279405 
    3770    268.95311    -222961.7    977.72854   -221983.97   -5169.2846    349919.22        59.37        59.37    99.273582 
    3780    269.27034   -222960.53    978.88179   -221981.65   -4932.8691    349897.74        59.37        59.37    99.267489 
    3790    270.39784   -222962.34    982.98059   -221979.36   -4722.8432    349875.08        59.37        59.37    99.261061 
    3800    268.82158   -222954.27    977.25042   -221977.02   -4990.9237    349851.23        59.37        59.37    99.254296 
    3810    269.52068   -222954.52    979.79185   -221974.73   -4907.9475    349825.79        59.37        59.37    99.247078 
    3820    270.36549    -222955.3      982.863   -221972.44   -4664.9022    349798.43        59.37        59.37    99.239315 
    3830    269.28952   -222949.04    978.95151   -221970.09   -4624.3573    349769.46        59.37        59.37    99.231097 
    3840    271.10078   -222953.33      985.536    -221967.8   -4709.2967    349739.37        59.37        59.37    99.222559 
    3850    270.10235   -222947.42    981.90642   -221965.51   -4547.7671    349708.26        59.37        59.37    99.213734 
    3860     269.9093   -222944.42    981.20461   -221963.21   -4352.5016    349676.82        59.37        59.37    99.204813 
    3870    271.78952   -222948.96     988.0398   -221960.93    -4594.798    349645.77        59.37        59.37    99.196004 
    3880     273.4048   -222952.57    993.91183   -221958.66   -4487.6366    349614.99        59.37        59.37    99.187274 
    3890    272.73081   -222947.81    991.46167   -221956.35   -4528.8698    349584.31        59.37        59.37    99.178569 
    3900    273.32714   -222947.72    993.62952   -221954.09   -4347.3317    349553.42        59.37        59.37    99.169804 
    3910    273.05596   -222944.42     992.6437   -221951.78   -3877.2338    349522.66        59.37        59.37    99.161078 
    3920    273.61641   -222944.18     994.6811   -221949.49   -3828.9534    349492.88        59.37        59.37    99.152628 
    3930    273.87217   -222942.81    995.61087    -221947.2   -3495.8212    349464.85        59.37        59.37    99.144678 
    3940    275.93016   -222948.03    1003.0923   -221944.94   -3540.0396    349439.62        59.37        59.37     99.13752 
    3950    272.60757   -222933.62    991.01365   -221942.61   -3548.4581    349417.21        59.37        59.37    99.131162 
    3960    275.80964   -222943.03    1002.6542   -221940.38   -3685.4647    349397.67        59.37        59.37    99.125619 
    3970    274.24079   -222935.01    996.95094   -221938.06   -3662.6269    349380.96        59.37        59.37    99.120878 
    3980    275.47927    -222937.3    1001.4532   -221935.85   -3573.2918    349366.38        59.37        59.37     99.11674 
    3990    276.06324   -222937.17    1003.5761    -221933.6   -3284.9837    349353.81        59.37        59.37    99.113175 
    4000    275.74068   -222933.77    1002.4035   -221931.37    -3039.399    349343.99        59.37        59.37    99.110389 
    4010    275.18323   -222929.52     1000.377   -221929.15   -3278.4753    349337.18        59.37        59.37    99.108456 
    4020    275.36115   -222927.94    1001.0238   -221926.92   -3273.4108    349332.68        59.37        59.37    99.107179 
    4030    277.27204    -222932.7    1007.9704   -221924.73   -3475.4705    349330.66        59.37        59.37    99.106607 
    4040     275.6778   -222924.66    1002.1749   -221922.48   -3299.8328    349330.42        59.37        59.37    99.106539 
    4050    276.01425   -222923.68     1003.398   -221920.29   -3091.8763    349331.64        59.37        59.37    99.106886 
    4060     279.2464   -222933.26    1015.1479   -221918.12   -3202.7565    349334.23        59.37        59.37    99.107618 
    4070    277.94603    -222926.3    1010.4206   -221915.88   -3837.2972    349337.25        59.37        59.37    99.108477 
    4080    279.12718   -222928.42    1014.7145    -221913.7   -3585.1916    349339.64        59.37        59.37    99.109156 
    4090     279.1253   -222926.21    1014.7076    -221911.5    -3601.906    349342.02        59.37        59.37    99.109831 
    4100    279.34711   -222924.83     1015.514   -221909.32   -3350.3948    349344.96        59.37        59.37    99.110664 
    4110    280.26096   -222925.98    1018.8361   -221907.14   -3281.3383    349348.66        59.37        59.37    99.111712 
    4120    279.52992   -222921.17    1016.1785   -221904.99   -3328.4831    349353.18        59.37        59.37    99.112995 
    4130    277.66192   -222912.21    1009.3878   -221902.82   -3388.3319    349358.62        59.37        59.37    99.114539 
    4140    279.77505   -222917.78    1017.0697   -221900.71   -3251.2263    349364.29        59.37        59.37    99.116149 
    4150    278.19313   -222909.85    1011.3189   -221898.53   -3308.8547    349370.07        59.37        59.37    99.117788 
    4160    280.26999    -222915.3     1018.869   -221896.43   -3200.9532    349376.83        59.37        59.37    99.119706 
    4170    279.70962   -222911.13    1016.8318    -221894.3    -3159.745    349385.45        59.37        59.37    99.122151 
    4180    279.97142      -222910    1017.7836   -221892.21   -3647.4099    349396.17        59.37        59.37    99.125191 
    4190    282.16646   -222915.88    1025.7632   -221890.12   -3772.1768    349408.26        59.37        59.37    99.128621 
    4200    282.61546    -222915.4    1027.3955      -221888    -4005.832    349421.45        59.37        59.37    99.132364 
    4210    280.95694   -222907.21    1021.3662   -221885.85   -4089.5667    349435.32        59.37        59.37    99.136299 
    4220     282.4743   -222910.61    1026.8823   -221883.72   -3942.8634    349449.77        59.37        59.37    99.140398 
    4230    283.10063   -222910.78    1029.1592   -221881.62   -4058.8512    349465.38        59.37        59.37    99.144828 
    4240    282.89907   -222907.95    1028.4265   -221879.52   -4111.9193    349481.96        59.37        59.37    99.149531 
    4250     283.8139   -222909.21    1031.7522   -221877.45   -3988.0381    349499.36        59.37        59.37    99.154469 
    4260    282.38437   -222901.93    1026.5554   -221875.37   -4059.2105    349518.08        59.37        59.37    99.159777 
    4270     282.0465   -222898.66    1025.3271   -221873.33    -4009.017    349537.96        59.37        59.37    99.165419 
    4280    283.44586   -222901.74    1030.4142   -221871.33    -3826.562    349559.43        59.37        59.37    99.171509 
    4290    283.09067   -222898.42     1029.123   -221869.29   -3680.6961    349583.17        59.37        59.37    99.178244 
    4300    283.24553   -222896.94     1029.686   -221867.25   -4166.4395     349608.8        59.37        59.37    99.185517 
    4310    283.55661   -222896.03    1030.8168   -221865.21   -4636.8782    349635.35        59.37        59.37    99.193049 
    4320    284.95113   -222899.07    1035.8864   -221863.18   -4900.8829    349661.95        59.37        59.37    99.200595 
    4330    285.39629   -222898.62    1037.5047   -221861.11   -4848.4837    349687.73        59.37        59.37    99.207908 
    4340     285.7958   -222898.03     1038.957   -221859.08   -5112.3909    349712.69        59.37        59.37    99.214991 
    4350    286.96788   -222900.29    1043.2179   -221857.07   -5152.1658    349737.14        59.37        59.37    99.221928 
    4360    285.95003   -222894.54    1039.5177   -221855.03   -5039.0044    349761.03        59.37        59.37    99.228706 
    4370    284.99146   -222889.04     1036.033   -221853.01   -5557.4256     349783.7        59.37        59.37    99.235136 
    4380     285.2096   -222887.86     1036.826   -221851.04   -5275.3764    349804.46        59.37        59.37    99.241027 
    4390    287.34721   -222893.66    1044.5969   -221849.06    -5143.596    349824.08        59.37        59.37    99.246591 
    4400    288.08253   -222894.37      1047.27    -221847.1      -4855.7    349842.96        59.37        59.37    99.251948 
    4410    285.79507   -222884.06    1038.9543    -221845.1   -4914.7046    349861.56        59.37        59.37    99.257227 
    4420     285.0101   -222879.25    1036.1007   -221843.15   -4788.4823    349880.28        59.37        59.37    99.262537 
    4430    284.63482   -222875.93    1034.7365   -221841.19   -5066.5772    349898.78        59.37        59.37    99.267785 
    4440    288.21925   -222887.07     1047.767   -221839.31   -5631.7905    349916.03        59.37        59.37    99.272679 
    4450    287.71571   -222883.26    1045.9365   -221837.32   -5475.7128    349931.42        59.37        59.37    99.277044 
    4460     288.4422   -222883.95    1048.5775   -221835.37   -5633.2247    349945.55        59.37        59.37    99.281054 
    4470     288.8537   -222883.53    1050.0734   -221833.46   -5911.0325    349959.12        59.37        59.37    99.284903 
    4480    289.23594   -222882.97     1051.463   -221831.51   -6026.8037    349972.03        59.37        59.37    99.288566 
    4490    288.49331   -222878.33    1048.7633   -221829.56   -6088.1452    349983.48        59.37        59.37    99.291814 
    4500    288.62929   -222876.92    1049.2576   -221827.67   -6143.4687     349992.8        59.37        59.37    99.294459 
    4510    288.28614   -222873.76    1048.0102   -221825.75   -5695.1324    349999.68        59.37        59.37    99.296411 
    4520    289.33093    -222875.7    1051.8083   -221823.89   -5771.6207     350005.2        59.37        59.37    99.297977 
    4530     289.2982    -222873.7    1051.6893   -221822.01   -5399.0907    350010.02        59.37        59.37    99.299344 
    4540    288.06403   -222867.31    1047.2027   -221820.11   -5540.5369    350014.56        59.37        59.37    99.300633 
    4550    289.09379    -222869.2    1050.9462   -221818.26   -5543.0247    350018.79        59.37        59.37    99.301832 
    4560    289.66467   -222869.39    1053.0216   -221816.36   -5335.2276     350023.1        59.37        59.37    99.303056 
    4570    291.13048   -222872.87    1058.3502   -221814.52   -5647.4942    350027.46        59.37        59.37    99.304291 
    4580    291.77649   -222873.38    1060.6987   -221812.68   -6057.1361    350031.48        59.37        59.37    99.305433 
    4590    289.56055   -222863.45     1052.643    -221810.8   -5488.0695    350035.35        59.37        59.37     99.30653 
    4600    292.22769   -222871.38    1062.3389   -221809.04   -5881.4136    350039.44        59.37        59.37    99.307691 
    4610    292.59155   -222870.91    1063.6617   -221807.24   -6006.4344    350042.81        59.37        59.37    99.308647 
    4620    293.02899   -222870.67    1065.2519   -221805.42   -5598.9027    350045.57        59.37        59.37    99.309429 
    4630    293.55614   -222870.78    1067.1683   -221803.61   -5746.7118    350047.84        59.37        59.37    99.310074 
    4640    291.98186   -222863.25    1061.4453    -221801.8   -6050.0306    350048.92        59.37        59.37    99.310381 
    4650    292.13651   -222862.03    1062.0075   -221800.02    -5893.429     350048.4        59.37        59.37    99.310233 
    4660    291.75591   -222858.88    1060.6239   -221798.26   -6184.3586    350047.16        59.37        59.37    99.309881 
    4670    292.94888    -222861.5    1064.9607   -221796.54   -5949.1881    350045.45        59.37        59.37    99.309394 
    4680    292.69025    -222858.8    1064.0205   -221794.77   -5680.7387    350043.32        59.37        59.37    99.308791 
    4690    292.59409   -222856.73    1063.6709   -221793.06   -5595.7431    350041.34        59.37        59.37    99.308229 
    4700     292.6228   -222855.08    1063.7753   -221791.31   -5839.3725    350039.22        59.37        59.37    99.307627 
    4710    295.40396   -222863.51    1073.8857   -221789.62   -5473.9029    350036.11        59.37        59.37    99.306745 
    4720    292.73395   -222852.04    1064.1793   -221787.86   -5424.2659    350032.64        59.37        59.37    99.305761 
    4730    293.82058   -222854.29    1068.1296   -221786.16   -5679.7145    350028.97        59.37        59.37    99.304721 
    4740     294.3452   -222854.51    1070.0367   -221784.47   -5413.0757     350024.6        59.37        59.37     99.30348 
    4750    295.60583   -222857.42    1074.6195    -221782.8   -5496.5689    350019.89        59.37        59.37    99.302143 
    4760    295.45017   -222855.16    1074.0536   -221781.11   -5535.0663    350015.34        59.37        59.37    99.300855 
    4770    294.96458   -222851.74    1072.2884   -221779.45   -5509.0867    350011.02        59.37        59.37    99.299629 
    4780    295.39245   -222851.65    1073.8438    -221777.8   -5159.0644    350007.07        59.37        59.37    99.298507 
    4790    297.38263   -222857.28    1081.0787    -221776.2   -5471.4993    350003.94        59.37        59.37    99.297619 
    4800    295.91479   -222850.27    1075.7427   -221774.53    -5220.441    350001.27        59.37        59.37    99.296863 
    4810    297.42946   -222854.18     1081.249   -221772.93   -5116.7914    349999.42        59.37        59.37    99.296337 
    4820    297.11098   -222851.41    1080.0912   -221771.32   -5318.2541    349998.49        59.37        59.37    99.296073 
    4830    297.58594   -222851.57    1081.8178   -221769.75   -5437.1312    349997.93        59.37        59.37    99.295913 
    4840     296.5233   -222846.13    1077.9548   -221768.18   -4866.5781    349998.26        59.37        59.37    99.296008 
    4850    296.83553   -222845.68    1079.0899   -221766.59   -5059.1201    350000.49        59.37        59.37     99.29664 
    4860    297.42229   -222846.27    1081.2229   -221765.05   -4987.0542    350003.98        59.37        59.37     99.29763 
    4870    298.09673   -222847.16    1083.6747   -221763.48    -4853.698    350008.96        59.37        59.37    99.299045 
    4880    296.20047   -222838.71    1076.7812   -221761.92   -4784.7087    350015.37        59.37        59.37    99.300862 
    4890    296.90983   -222839.85      1079.36   -221760.49   -5292.0492    350022.77        59.37        59.37     99.30296 
    4900    296.92303   -222838.38     1079.408   -221758.97   -5223.1255    350030.74        59.37        59.37    99.305222 
    4910    299.42031   -222845.97    1088.4863   -221757.49   -5386.8371    350039.27        59.37        59.37    99.307643 
    4920    298.66084   -222841.73    1085.7254   -221756.01   -5579.7364    350048.45        59.37        59.37    99.310246 
    4930    297.89038   -222837.44    1082.9246   -221754.51   -5257.5295    350058.32        59.37        59.37    99.313047 
    4940    297.99282   -222836.32     1083.297   -221753.02   -5323.0648    350069.28        59.37        59.37    99.316157 
    4950    299.27738   -222839.56    1087.9667    -221751.6   -5916.6619    350080.77        59.37        59.37    99.319417 
    4960    299.14346   -222837.66    1087.4799   -221750.18   -5935.1115    350091.23        59.37        59.37    99.322385 
    4970    300.00517    -222839.4    1090.6125   -221748.79   -5414.6982    350100.64        59.37        59.37    99.325053 
    4980    300.42336   -222839.51    1092.1327   -221747.38   -5632.9984    350110.54        59.37        59.37    99.327862 
    4990    299.73614   -222835.61    1089.6345   -221745.97   -5591.3302    350121.49        59.37        59.37     99.33097 
    5000    301.81774   -222841.83    1097.2017   -221744.63   -5420.4423    350133.73        59.37        59.37    99.334442 
    5010    299.31622   -222831.33    1088.1079   -221743.23   -5327.7229    350147.54        59.37        59.37     99.33836 
    5020    300.12933   -222832.96    1091.0639    -221741.9   -5431.7586     350162.5        59.37        59.37    99.342603 
    5030     302.2732   -222839.45    1098.8575   -221740.59   -5040.1673    350178.34        59.37        59.37    99.347097 
    5040    299.45062   -222827.81    1088.5965   -221739.21   -5366.1216    350195.51        59.37        59.37    99.351969 
    5050    301.97123   -222835.72    1097.7597   -221737.96   -5765.4627    350213.22        59.37        59.37    99.356993 
    5060    300.54684    -222829.2    1092.5816   -221736.61   -5595.0763    350230.92        59.37        59.37    99.362015 
    5070    300.97839   -222829.46    1094.1505   -221735.31   -5863.5678    350248.94        59.37        59.37    99.367127 
    5080    303.63942    -222837.9    1103.8241   -221734.08   -6152.4982    350267.15        59.37        59.37    99.372293 
    5090    301.04224   -222827.18    1094.3826    -221732.8   -5763.8879    350285.81        59.37        59.37    99.377586 
    5100    301.28469   -222826.85     1095.264   -221731.59   -5932.0271    350305.56        59.37        59.37     99.38319 
    5110     301.9545   -222828.08    1097.6989   -221730.38    -6602.826    350324.96        59.37        59.37    99.388693 
    5120    301.91928   -222826.74    1097.5709   -221729.17   -6502.5308    350342.37        59.37        59.37    99.393634 
    5130    300.74892   -222821.25    1093.3163   -221727.93   -6112.7646    350358.08        59.37        59.37    99.398091 
    5140    305.68264   -222838.08    1111.2519   -221726.83   -6724.8926    350372.77        59.37        59.37    99.402257 
    5150    301.34615   -222821.08    1095.4874   -221725.59   -6357.0618    350385.92        59.37        59.37    99.405989 
    5160    302.69111   -222824.86    1100.3767   -221724.48   -6157.0091    350398.39        59.37        59.37    99.409525 
    5170    300.88569    -222817.1    1093.8135   -221723.29    -6622.176    350410.42        59.37        59.37    99.412941 
    5180    304.84793   -222830.43    1108.2175   -221722.21   -6435.0189     350420.5        59.37        59.37    99.415798 
    5190    303.32774   -222823.73    1102.6911   -221721.04   -6146.3034    350428.74        59.37        59.37    99.418138 
    5200     303.6356   -222823.81    1103.8102      -221720   -6322.3143     350436.1        59.37        59.37    99.420225 
    5210    303.86231   -222823.55    1104.6344   -221718.92   -6574.2107    350441.85        59.37        59.37    99.421857 
    5220    305.60251   -222828.83    1110.9606   -221717.87   -6529.1678    350445.73        59.37        59.37    99.422957 
    5230    302.49477   -222816.43     1099.663   -221716.76    -6568.118    350448.01        59.37        59.37    99.423605 
    5240    305.10797   -222824.94    1109.1628   -221715.77   -6850.2841    350448.59        59.37        59.37    99.423769 
    5250    304.86366   -222823.05    1108.2746   -221714.77   -6225.5585    350447.67        59.37        59.37    99.423506 
    5260    305.17382   -222823.23    1109.4021   -221713.83   -6536.7325    350446.47        59.37        59.37    99.423166 
    5270    302.89424   -222813.94    1101.1152   -221712.83   -6643.9616     350445.1        59.37        59.37    99.422778 
    5280    303.52098   -222815.29    1103.3936   -221711.89   -6243.5766    350442.84        59.37        59.37    99.422137 
    5290    303.82083   -222815.46    1104.4836   -221710.98   -6351.1127    350439.68        59.37        59.37    99.421242 
    5300    305.25607   -222819.83    1109.7011   -221710.13   -6708.4852    350435.51        59.37        59.37    99.420058 
    5310    302.87695   -222810.26    1101.0523    -221709.2   -6325.4094    350430.01        59.37        59.37    99.418498 
    5320    303.59543   -222811.99    1103.6642   -221708.33   -6464.8123    350423.49        59.37        59.37    99.416648 
    5330    304.46332   -222814.28    1106.8193   -221707.46   -7047.8896    350415.85        59.37        59.37     99.41448 
    5340    306.92378   -222822.38    1115.7638   -221706.61   -6827.2508    350407.15        59.37        59.37    99.412013 
    5350    305.33393   -222815.74    1109.9842   -221705.76   -6424.2957    350397.93        59.37        59.37    99.409395 
    5360    305.37375   -222815.07     1110.129   -221704.94   -6119.6085    350388.47        59.37        59.37    99.406713 
    5370     306.9797   -222820.14    1115.9671   -221704.17     -6545.41    350378.89        59.37        59.37    99.403995 
    5380    306.17862   -222816.47    1113.0549   -221703.42   -6155.2986    350367.83        59.37        59.37    99.400857 
    5390    304.07958   -222808.04    1105.4243   -221702.62   -6158.5674    350355.09        59.37        59.37    99.397243 
    5400    305.40494   -222812.13    1110.2423   -221701.89   -5971.8392    350341.21        59.37        59.37    99.393305 
    5410    305.74232   -222812.63    1111.4688   -221701.17   -5829.1555    350327.08        59.37        59.37    99.389295 
    5420     305.0395   -222809.37    1108.9139   -221700.46   -6086.5472    350313.44        59.37        59.37    99.385426 
    5430    306.64469   -222814.57    1114.7492   -221699.82   -6547.6306     350299.6        59.37        59.37      99.3815 
    5440    308.57589   -222820.99    1121.7697   -221699.22   -6434.0259    350284.76        59.37        59.37     99.37729 
    5450    307.57367    -222816.7    1118.1264   -221698.58   -6037.7851    350269.15        59.37        59.37    99.372861 
    5460     307.1785   -222814.65    1116.6898   -221697.96   -6049.7023    350252.49        59.37        59.37    99.368133 
    5470    305.73923   -222808.79    1111.4576   -221697.34   -5676.8792    350234.67        59.37        59.37    99.363077 
    5480    305.74417   -222808.24    1111.4755   -221696.76   -5872.5498    350217.21        59.37        59.37    99.358125 
    5490     305.7625   -222807.76    1111.5422   -221696.22   -6169.1901    350199.58        59.37        59.37    99.353122 
    5500    307.05405   -222811.93    1116.2374   -221695.69   -6039.8194    350181.12        59.37        59.37    99.347886 
    5510    306.65968      -222810    1114.8037   -221695.19   -5890.0624    350162.95        59.37        59.37     99.34273 
    5520    305.82682   -222806.47     1111.776   -221694.69   -5574.4093    350145.29        59.37        59.37     99.33772 
    5530    306.86781   -222809.79    1115.5603   -221694.23   -5159.4508    350128.03        59.37        59.37    99.332823 
    5540    308.19861   -222814.17    1120.3982   -221693.78    -5342.851    350111.32        59.37        59.37    99.328084 
    5550    309.04785   -222816.83    1123.4854   -221693.34   -5565.4734    350094.72        59.37        59.37    99.323375 
    5560    307.16395   -222809.56    1116.6369   -221692.92   -5372.5116    350077.49        59.37        59.37    99.318485 
    5570     307.6036    -222810.8    1118.2352   -221692.56   -5288.1162    350059.97        59.37        59.37    99.313515 
    5580    307.07132   -222808.47    1116.3002   -221692.17   -5074.0582    350043.33        59.37        59.37    99.308793 
    5590    308.26632    -222812.5    1120.6444   -221691.86   -5130.0591    350028.28        59.37        59.37    99.304525 
    5600    308.69883   -222813.75    1122.2167   -221691.53   -4948.2779    350014.21        59.37        59.37    99.300531 
    5610     306.6642      -222806    1114.8201   -221691.18   -4873.7491    350000.94        59.37        59.37    99.296767 
    5620    306.73275      -222806    1115.0694   -221690.93    -5041.831    349988.43        59.37        59.37    99.293218 
    5630    307.78571   -222809.62    1118.8972   -221690.72   -4862.8947    349975.91        59.37        59.37    99.289667 
    5640    306.73528   -222805.54    1115.0785   -221690.46   -4979.7955    349963.42        59.37        59.37    99.286124 
    5650    306.97448   -222806.22    1115.9481   -221690.27   -5061.7437    349951.19        59.37        59.37    99.282655 
    5660    307.87893   -222809.39    1119.2361   -221690.15   -5516.9857    349939.12        59.37        59.37    99.279229 
    5670    307.19914   -222806.74    1116.7648   -221689.98   -5116.2687    349926.46        59.37        59.37    99.275639 
    5680    307.00114   -222805.87     1116.045   -221689.82   -5123.3109    349913.43        59.37        59.37    99.271942 
    5690    307.58124   -222807.84    1118.1539   -221689.69     -4473.65    349900.53        59.37        59.37    99.268281 
    5700    307.73751   -222808.28     1118.722   -221689.56   -4763.4503     349888.5        59.37        59.37    99.264868 
    5710    308.08201   -222809.48    1119.9743   -221689.51   -4578.1509    349876.68        59.37        59.37    99.261516 
    5720    307.98685   -222809.09    1119.6284   -221689.46   -4304.9964    349866.01        59.37        59.37    99.258488 
    5730     307.5071   -222807.32    1117.8843   -221689.43   -4306.5306     349857.5        59.37        59.37    99.256072 
    5740    308.69617   -222811.65     1122.207   -221689.45   -4424.9865     349850.9        59.37        59.37    99.254202 
    5750    307.93011   -222808.85    1119.4221   -221689.43   -4029.5945    349845.96        59.37        59.37      99.2528 
    5760    306.89649    -222805.1    1115.6646   -221689.43   -4249.3738    349843.13        59.37        59.37    99.251995 
    5770    307.98753   -222809.15    1119.6309   -221689.52   -4375.9272    349841.91        59.37        59.37     99.25165 
    5780    308.00247   -222809.32    1119.6852   -221689.63   -4320.1589     349842.1        59.37        59.37    99.251703 
    5790    309.13733    -222813.6    1123.8108   -221689.79   -4294.2308    349844.69        59.37        59.37    99.252439 
    5800      307.255    -222806.9    1116.9679   -221689.93   -4828.0071    349850.27        59.37        59.37    99.254022 
    5810    307.10273   -222806.54    1116.4144   -221690.13   -4500.9781    349857.84        59.37        59.37    99.256169 
    5820    308.17901   -222810.66     1120.327   -221690.33   -4999.5444    349867.01        59.37        59.37     99.25877 
    5830    307.94333   -222810.01    1119.4702   -221690.54   -5107.3723    349876.67        59.37        59.37    99.261512 
    5840    305.73912   -222802.17    1111.4572   -221690.71   -4619.6478    349886.37        59.37        59.37    99.264264 
    5850    308.77642   -222813.49    1122.4987   -221690.99   -4674.1598    349896.78        59.37        59.37    99.267217 
    5860    305.64913   -222802.35    1111.1301   -221691.22   -4656.5905    349908.04        59.37        59.37    99.270413 
    5870    306.72049   -222806.59    1115.0248   -221691.56   -4717.3851    349920.56        59.37        59.37    99.273962 
    5880    307.90032    -222811.2    1119.3138   -221691.89   -4814.8315    349934.14        59.37        59.37    99.277817 
    5890    308.15788   -222812.49    1120.2502   -221692.24   -5037.4844     349947.9        59.37        59.37     99.28172 
    5900     308.2747   -222813.29    1120.6748   -221692.61   -4783.9187    349961.28        59.37        59.37    99.285515 
    5910    308.35933      -222814    1120.9825   -221693.02   -4600.4182    349974.69        59.37        59.37    99.289321 
    5920    308.00472   -222813.12    1119.6933   -221693.43   -5302.8745    349987.95        59.37        59.37    99.293082 
    5930    307.53909   -222811.85    1118.0007   -221693.85   -4811.4776    350000.69        59.37        59.37    99.296696 
    5940    306.56388   -222808.72    1114.4554   -221694.27   -4819.8244     350014.2        59.37        59.37     99.30053 
    5950    305.31224   -222804.64    1109.9053   -221694.74   -5486.0966    350028.21        59.37        59.37    99.304506 
    5960    306.25036   -222808.55    1113.3157   -221695.23   -5576.2047    350041.46        59.37        59.37    99.308263 
    5970    306.01617   -222808.16    1112.4643   -221695.69   -5364.0351    350054.19        59.37        59.37    99.311875 
    5980    305.96682    -222808.5    1112.2849   -221696.22   -5693.3259    350066.28        59.37        59.37    99.315306 
    5990    306.15035   -222809.73    1112.9521   -221696.78   -5655.9322    350077.52        59.37        59.37    99.318493 
    6000    306.52764   -222811.68    1114.3237   -221697.36    -5278.329    350088.76        59.37        59.37    99.321683 
    6010    306.93022   -222813.75    1115.7872   -221697.96   -5946.4342    350100.81        59.37        59.37    99.325101 
    6020    305.99621   -222810.95    1112.3918   -221698.56   -5442.7929    350112.42        59.37        59.37    99.328395 
    6030    307.36687   -222816.57    1117.3746    -221699.2   -5534.2216    350124.64        59.37        59.37    99.331861 
    6040    307.15967   -222816.45    1116.6213   -221699.83   -5727.1822    350137.85        59.37        59.37    99.335611 
    6050    306.29737   -222813.97    1113.4866   -221700.48   -5170.0328    350151.31        59.37        59.37    99.339429 
    6060    303.16729   -222803.22    1102.1078   -221701.11    -5071.908    350166.05        59.37        59.37    99.343609 
    6070    304.53178   -222808.89    1107.0681   -221701.82   -5947.5916    350182.59        59.37        59.37    99.348302 
    6080     305.3156   -222812.46    1109.9176   -221702.54    -5706.672    350199.67        59.37        59.37    99.353147 
[...]
   48540    297.75064   -222834.09    1082.4166   -221751.67   -6253.0673     350294.2        59.37        59.37    99.379966 
   48550    298.66573   -222837.55    1085.7432    -221751.8   -6681.6705    350304.59        59.37        59.37    99.382913 
   48560    299.80545   -222841.79    1089.8864   -221751.91   -6267.2028    350313.38        59.37        59.37    99.385408 
   48570    298.58977   -222837.48    1085.4671   -221752.01   -6452.6588    350321.09        59.37        59.37    99.387597 
   48580     300.3804   -222844.14    1091.9766   -221752.16   -6666.4572    350327.29        59.37        59.37    99.389354 
   48590    302.26554    -222851.1    1098.8296   -221752.27   -6130.6905     350331.4        59.37        59.37     99.39052 
   48600    299.50222   -222841.12    1088.7841   -221752.33   -6249.0758    350334.53        59.37        59.37    99.391409 
   48610    300.12115   -222843.49    1091.0341   -221752.46   -6852.9871    350336.38        59.37        59.37    99.391933 
   48620     297.9347   -222835.62    1083.0857   -221752.54   -6563.6786    350335.54        59.37        59.37    99.391696 
   48630    298.37092   -222837.33    1084.6715   -221752.66   -6608.0914    350332.41        59.37        59.37    99.390808 
   48640    298.66478   -222838.52    1085.7398   -221752.78   -6848.2473    350327.77        59.37        59.37    99.389491 
   48650    298.17993   -222836.89    1083.9772   -221752.92   -6456.9569    350321.98        59.37        59.37    99.387848 
   48660    297.90886   -222835.99    1082.9917      -221753   -6189.0134    350316.29        59.37        59.37    99.386235 
   48670    298.32828   -222837.58    1084.5165   -221753.07   -6397.9872    350311.12        59.37        59.37    99.384767 
   48680    296.97509   -222832.73    1079.5972   -221753.13   -6546.2782    350305.36        59.37        59.37    99.383133 
   48690    299.17864   -222840.87    1087.6078   -221753.27   -6454.2773    350298.33        59.37        59.37    99.381139 
   48700    298.10845   -222836.99    1083.7173   -221753.28   -6292.9992    350290.49        59.37        59.37    99.378915 
   48710    299.10601   -222840.73    1087.3438   -221753.38    -6269.745    350282.94        59.37        59.37    99.376773 
   48720    299.16692   -222840.99    1087.5652   -221753.42   -6272.6516    350276.59        59.37        59.37    99.374971 
   48730    298.55311   -222838.79    1085.3338   -221753.45   -5753.5626    350271.93        59.37        59.37    99.373649 
   48740    299.80537   -222843.42    1089.8861   -221753.53   -6376.8308    350269.43        59.37        59.37    99.372941 
   48750    298.72447   -222839.48    1085.9568   -221753.52    -6434.908    350268.02        59.37        59.37    99.372541 
   48760    298.85979   -222840.06    1086.4487   -221753.61   -6083.0709    350266.79        59.37        59.37     99.37219 
   48770    298.74226   -222839.71    1086.0214   -221753.69    -6304.753    350266.05        59.37        59.37     99.37198 
   48780    299.71343    -222843.3    1089.5519   -221753.75   -6193.3172    350266.34        59.37        59.37    99.372064 
   48790    298.66455   -222839.53    1085.7389   -221753.79   -5858.1931    350268.14        59.37        59.37    99.372573 
   48800    298.18642   -222837.83    1084.0008   -221753.83   -6187.3853     350271.4        59.37        59.37    99.373499 
   48810    300.10295   -222844.85    1090.9679   -221753.88   -6663.1702    350275.39        59.37        59.37    99.374632 
   48820     297.9586   -222837.04    1083.1726   -221753.86   -6622.5442     350279.3        59.37        59.37    99.375741 
   48830    298.31355   -222838.35    1084.4629   -221753.88   -6565.6895    350282.79        59.37        59.37    99.376729 
   48840    299.53249   -222842.81    1088.8942   -221753.92   -6351.3399    350285.27        59.37        59.37    99.377435 
   48850    298.78634   -222840.11    1086.1817   -221753.93   -5781.3238    350286.99        59.37        59.37    99.377921 
   48860    299.65667   -222843.35    1089.3456      -221754    -5979.705     350288.7        59.37        59.37    99.378408 
   48870    299.58888   -222843.13    1089.0991   -221754.03   -6491.0325    350289.77        59.37        59.37    99.378712 
   48880    297.70399   -222836.26     1082.247   -221754.01   -6013.0618    350289.44        59.37        59.37    99.378616 
   48890    298.78893   -222840.23    1086.1911   -221754.04   -6390.5803    350288.27        59.37        59.37    99.378286 
   48900    297.70559   -222836.28    1082.2528   -221754.03   -6800.6126    350285.42        59.37        59.37    99.377477 
   48910    297.78135   -222836.58    1082.5282   -221754.05   -6312.2309    350279.58        59.37        59.37    99.375819 
   48920    298.17964   -222838.04    1083.9761   -221754.07   -6151.2649    350271.45        59.37        59.37    99.373513 
   48930    297.76403   -222836.51    1082.4653   -221754.05   -6455.2431    350262.04        59.37        59.37    99.370844 
   48940    301.28251   -222849.34     1095.256   -221754.09   -6184.5461     350251.4        59.37        59.37    99.367825 
   48950    299.48224   -222842.74    1088.7115   -221754.03   -5983.2358    350239.95        59.37        59.37    99.364575 
   48960    298.88891   -222840.57    1086.5545   -221754.01   -6386.6285    350227.78        59.37        59.37    99.361124 
   48970    298.24418    -222838.2    1084.2107   -221753.99   -6330.7277    350213.88        59.37        59.37     99.35718 
   48980    299.81598   -222843.91    1089.9247   -221753.99   -5727.3488    350198.42        59.37        59.37    99.352795 
   48990    297.39455   -222835.03    1081.1221   -221753.91   -5899.0216    350182.65        59.37        59.37     99.34832 
   49000    299.06815   -222841.16    1087.2061   -221753.95   -5851.4374    350167.13        59.37        59.37    99.343917 
   49010    298.12119   -222837.66    1083.7636    -221753.9   -5119.8309    350152.66        59.37        59.37    99.339812 
   49020    297.41532   -222835.05    1081.1976   -221753.85   -5496.8461    350140.01        59.37        59.37    99.336224 
   49030    299.96393   -222844.29    1090.4626   -221753.83   -5955.3627    350128.46        59.37        59.37    99.332947 
   49040    297.75159   -222836.15      1082.42   -221753.73   -5539.5863    350117.27        59.37        59.37    99.329772 
   49050    299.34882   -222841.96    1088.2265   -221753.74   -5346.6089    350107.07        59.37        59.37    99.326877 
   49060    299.45958   -222842.27    1088.6291   -221753.64   -5539.9186    350098.02        59.37        59.37    99.324309 
   49070    299.52431   -222842.46    1088.8644    -221753.6   -5369.5358    350090.31        59.37        59.37    99.322123 
   49080    299.08708   -222840.81    1087.2749   -221753.54   -5835.7742       350084        59.37        59.37    99.320334 
   49090      299.175   -222841.05    1087.5946   -221753.45   -6259.1823    350078.06        59.37        59.37    99.318648 
   49100     298.9444   -222840.16    1086.7563    -221753.4   -6209.1548     350071.4        59.37        59.37    99.316759 
   49110    298.89246    -222839.9    1086.5675   -221753.33   -5626.8716    350064.29        59.37        59.37    99.314741 
   49120    300.62087   -222846.14    1092.8507   -221753.29   -5758.6203    350057.53        59.37        59.37    99.312821 
   49130    299.35912   -222841.46    1088.2639    -221753.2   -5427.5068    350051.47        59.37        59.37    99.311103 
   49140    298.41583   -222837.93    1084.8347    -221753.1   -5265.6217    350046.92        59.37        59.37    99.309813 
   49150    298.21888   -222837.14    1084.1188   -221753.02   -5417.1648    350043.29        59.37        59.37    99.308784 
   49160    297.99427   -222836.24    1083.3022   -221752.94   -5365.2721     350039.8        59.37        59.37    99.307793 
   49170    298.85602   -222839.34     1086.435    -221752.9   -5393.9029    350035.97        59.37        59.37    99.306705 
   49180    297.66325   -222834.89    1082.0989    -221752.8   -5657.0107     350032.2        59.37        59.37    99.305635 
   49190    299.51696   -222841.58    1088.8377   -221752.74   -5409.9221    350028.54        59.37        59.37    99.304598 
   49200     299.7609   -222842.36    1089.7245   -221752.64   -5559.5316    350025.55        59.37        59.37     99.30375 
   49210    298.52295   -222837.71    1085.2242   -221752.49   -5676.1202    350023.09        59.37        59.37    99.303051 
   49220    299.14132   -222839.85    1087.4721   -221752.38   -5832.3428    350020.04        59.37        59.37    99.302185 
   49230    299.19403   -222839.94    1087.6638   -221752.28   -5925.8331    350015.67        59.37        59.37    99.300948 
   49240    299.15059    -222839.7    1087.5058   -221752.19   -5850.0181    350010.86        59.37        59.37    99.299582 
   49250    298.69329   -222837.91    1085.8434   -221752.07   -5414.1602    350006.26        59.37        59.37    99.298278 
   49260    298.89247    -222838.5    1086.5675   -221751.94    -5291.214     350002.1        59.37        59.37    99.297097 
   49270    300.10198   -222842.78    1090.9644   -221751.81   -5338.6711     349999.1        59.37        59.37    99.296247 
   49280    296.93507    -222831.1    1079.4517   -221751.65   -5261.5197    349997.04        59.37        59.37    99.295661 
   49290    298.86883   -222838.08    1086.4815    -221751.6   -5381.4014    349994.91        59.37        59.37    99.295056 
   49300    298.93588   -222838.17    1086.7253   -221751.45   -5119.0958    349993.01        59.37        59.37    99.294519 
   49310    300.56609   -222843.99    1092.6516   -221751.34   -4864.5337    349992.72        59.37        59.37    99.294436 
   49320    299.47321   -222839.88    1088.6787    -221751.2   -4951.3225    349994.44        59.37        59.37    99.294923 
   49330    299.02975   -222838.12    1087.0665   -221751.05   -4684.4528    349998.02        59.37        59.37    99.295941 
   49340    298.78409   -222837.06    1086.1735   -221750.89   -5307.8296    350003.77        59.37        59.37     99.29757 
   49350    298.82911   -222837.09    1086.3371   -221750.76   -5692.3055    350009.98        59.37        59.37    99.299333 
   49360    297.78675   -222833.14    1082.5478   -221750.59     -5654.19    350015.42        59.37        59.37    99.300877 
   49370    300.40985   -222842.59    1092.0836   -221750.51   -5747.9472    350020.48        59.37        59.37    99.302313 
   49380    299.73391   -222839.97    1089.6264   -221750.34   -5739.9703    350026.18        59.37        59.37     99.30393 
   49390    298.41945   -222835.01    1084.8479   -221750.16   -5388.9937    350032.23        59.37        59.37    99.305645 
   49400    299.00859   -222837.01    1086.9896   -221750.02   -5263.7773    350038.29        59.37        59.37    99.307365 
   49410    299.62937   -222839.13    1089.2463   -221749.88   -5666.7554    350044.43        59.37        59.37    99.309107 
   49420    299.39305   -222838.12    1088.3872   -221749.73   -5908.1884    350049.64        59.37        59.37    99.310583 
   49430    300.07505   -222840.46    1090.8665   -221749.59   -5359.6123    350053.67        59.37        59.37    99.311728 
   49440    300.40858   -222841.51     1092.079   -221749.43   -5266.8743    350058.25        59.37        59.37    99.313026 
   49450    300.35812   -222841.17    1091.8956   -221749.27    -5540.959    350063.99        59.37        59.37    99.314656 
   49460    298.64709   -222834.74    1085.6755   -221749.06    -5006.494    350070.19        59.37        59.37    99.316415 
   49470    298.36125   -222833.55    1084.6363   -221748.92    -5074.416    350077.16        59.37        59.37    99.318393 
   49480    300.43813   -222840.96    1092.1864   -221748.77   -6014.5792     350084.1        59.37        59.37    99.320361 
   49490    299.57155    -222837.6    1089.0361   -221748.56   -5585.4472    350089.49        59.37        59.37    99.321891 
   49500    300.23749    -222839.9     1091.457   -221748.44   -5584.8982    350094.06        59.37        59.37    99.323186 
   49510    299.13764   -222835.72    1087.4587   -221748.26   -5637.3148     350098.8        59.37        59.37     99.32453 
   49520    299.88334   -222838.28    1090.1696   -221748.11   -5699.1735     350104.1        59.37        59.37    99.326036 
   49530    300.12541   -222838.98    1091.0496   -221747.93   -5665.2588    350109.11        59.37        59.37    99.327457 
   49540    299.43208   -222836.26    1088.5291   -221747.73   -6002.6944    350113.29        59.37        59.37    99.328643 
   49550    300.55185   -222840.19    1092.5998   -221747.59   -5888.2239     350116.3        59.37        59.37    99.329497 
   49560     298.2267   -222831.53    1084.1472   -221747.38   -5456.2963    350118.71        59.37        59.37    99.330179 
   49570    300.05211   -222838.04    1090.7831   -221747.25   -5245.7344     350121.4        59.37        59.37    99.330942 
   49580    300.93938   -222841.07    1094.0087   -221747.07   -5789.2529    350125.13        59.37        59.37    99.332003 
   49590    300.35883   -222838.79    1091.8981    -221746.9   -5637.3071    350128.68        59.37        59.37    99.333009 
   49600     298.8862   -222833.22    1086.5447   -221746.68   -5740.5762    350131.83        59.37        59.37    99.333902 
   49610    299.43428   -222835.03    1088.5371   -221746.49   -5743.4001    350134.45        59.37        59.37    99.334644 
   49620    300.56547      -222839    1092.6493   -221746.35   -5387.7157    350136.69        59.37        59.37    99.335281 
   49630     299.6167   -222835.36    1089.2003   -221746.16    -5552.739    350139.47        59.37        59.37     99.33607 
   49640    301.40854   -222841.74    1095.7142   -221746.03    -6059.913    350142.78        59.37        59.37     99.33701 
   49650    298.67805   -222831.56     1085.788   -221745.77   -6081.2257    350145.54        59.37        59.37    99.337791 
   49660    300.23461   -222837.07    1091.4466   -221745.62   -6373.9955    350146.95        59.37        59.37    99.338191 
   49670     299.4043   -222833.85    1088.4281   -221745.42   -6198.8515    350146.49        59.37        59.37     99.33806 
   49680    299.75522   -222834.95    1089.7039   -221745.25    -5639.843    350144.72        59.37        59.37    99.337559 
   49690    298.87664   -222831.59    1086.5099   -221745.08   -5401.7309    350143.06        59.37        59.37    99.337088 
   49700    301.26388   -222840.14    1095.1883   -221744.95   -5662.7071    350141.64        59.37        59.37    99.336684 
   49710    299.83792   -222834.76    1090.0045   -221744.76   -5546.3274     350140.1        59.37        59.37    99.336248 
   49720    299.80175   -222834.47     1089.873    -221744.6   -5520.7999    350138.53        59.37        59.37    99.335804 
   49730    299.62958   -222833.63    1089.2471   -221744.39   -6073.5297     350136.9        59.37        59.37     99.33534 
   49740    300.31556   -222835.97    1091.7409   -221744.23   -5706.1841    350134.58        59.37        59.37    99.334683 
   49750    300.91535   -222838.01    1093.9213   -221744.09   -5370.7035    350132.31        59.37        59.37    99.334037 
   49760    298.97656   -222830.75    1086.8732   -221743.88   -5900.2615    350130.55        59.37        59.37     99.33354 
   49770    298.75452   -222829.73     1086.066   -221743.67   -5844.3829    350128.51        59.37        59.37    99.332959 
   49780    301.66715   -222840.18    1096.6543   -221743.53   -5656.9856    350126.29        59.37        59.37     99.33233 
   49790    301.17914   -222838.24    1094.8803   -221743.36   -6289.9974    350124.23        59.37        59.37    99.331747 
   49800    300.56243   -222835.83    1092.6383   -221743.19   -6295.1375    350121.56        59.37        59.37    99.330987 
   49810    300.54002   -222835.58    1092.5568   -221743.02   -5445.2383    350118.44        59.37        59.37    99.330104 
   49820    300.46912   -222835.13    1092.2991   -221742.83   -5796.1349    350116.25        59.37        59.37    99.329481 
   49830    299.45979   -222831.28    1088.6299   -221742.65   -5423.4664    350114.41        59.37        59.37    99.328961 
   49840    302.45461   -222842.07     1099.517   -221742.56   -5380.9757    350113.42        59.37        59.37    99.328679 
   49850    300.09252   -222833.27      1090.93   -221742.34   -5571.4419    350113.71        59.37        59.37     99.32876 
   49860    299.23204   -222829.97    1087.8019   -221742.17   -5753.8178    350114.08        59.37        59.37    99.328867 
   49870    301.20274      -222837     1094.966   -221742.03   -5426.3829    350113.79        59.37        59.37    99.328784 
   49880    300.98786   -222836.04    1094.1849   -221741.85   -5293.4314    350113.71        59.37        59.37    99.328762 
   49890    300.14063   -222832.79    1091.1049   -221741.68   -5298.6446    350113.69        59.37        59.37    99.328755 
   49900    302.76189   -222842.19     1100.634   -221741.56   -5745.5214    350113.21        59.37        59.37    99.328619 
   49910    299.78253   -222831.19    1089.8031   -221741.38   -5581.2994    350112.01        59.37        59.37     99.32828 
   49920    298.81236   -222827.52    1086.2763   -221741.24   -5698.8166    350110.43        59.37        59.37    99.327831 
   49930    299.90157   -222831.32    1090.2359   -221741.08   -6214.5347    350107.62        59.37        59.37    99.327035 
   49940    301.05096   -222835.37    1094.4143   -221740.96   -5897.4134    350102.27        59.37        59.37    99.325516 
   49950    299.44902   -222829.35    1088.5907   -221740.76   -5562.8999    350095.45        59.37        59.37     99.32358 
   49960    301.70096   -222837.45    1096.7772   -221740.67   -6001.0063    350087.45        59.37        59.37    99.321312 
   49970    300.18582   -222831.74    1091.2692   -221740.47   -5449.6195    350077.56        59.37        59.37    99.318506 
   49980     302.4699   -222839.92    1099.5726   -221740.35    -5390.647    350067.24        59.37        59.37    99.315579 
   49990    299.90138   -222830.43    1090.2352    -221740.2   -6131.7276    350056.61        59.37        59.37    99.312561 
   50000     300.3793   -222832.09    1091.9726   -221740.12   -5408.0585    350044.28        59.37        59.37    99.309064 
Loop time of 5151.1 on 1 procs for 50000 steps with 28125 atoms

Performance: 1.677 ns/day, 14.309 hours/ns, 9.707 timesteps/s
74.2% CPU use with 1 MPI tasks x 1 OpenMP threads

MPI task timing breakdown:
Section |  min time  |  avg time  |  max time  |%varavg| %total
---------------------------------------------------------------
Pair    | 4834.1     | 4834.1     | 4834.1     |   0.0 | 93.85
Neigh   | 0.40863    | 0.40863    | 0.40863    |   0.0 |  0.01
Comm    | 11.768     | 11.768     | 11.768     |   0.0 |  0.23
Output  | 236.58     | 236.58     | 236.58     |   0.0 |  4.59
Modify  | 58.575     | 58.575     | 58.575     |   0.0 |  1.14
Other   |            | 9.684      |            |       |  0.19

Nlocal:        28125.0 ave       28125 max       28125 min
Histogram: 1 0 0 0 0 0 0 0 0 0
Nghost:        25309.0 ave       25309 max       25309 min
Histogram: 1 0 0 0 0 0 0 0 0 0
Neighs:        0.00000 ave           0 max           0 min
Histogram: 1 0 0 0 0 0 0 0 0 0

Total # of neighbors = 0
Ave neighs/atom = 0.0000000
Neighbor list builds = 3
Dangerous builds = 0
write_restart    PTO_C.restart
System init for write_restart ...


Please see the log.cite file for references relevant to this simulation

Total wall time: 1:25:58
