ITEM: TIMESTEP
27500
ITEM: NUMBER OF ATOMS
14625
ITEM: BOX BOUNDS xy xz yz pp pp pp
0.0000000000000000e+00 5.9369999999999997e+01 0.0000000000000000e+00
0.0000000000000000e+00 5.9369999999999997e+01 0.0000000000000000e+00
-4.4023497885195439e-02 5.1784023497885329e+01 0.0000000000000000e+00
ITEM: ATOMS id type x y z
1 2 0.0702674 0.342654 0.00460059
2 2 4.02084 0.139906 0.313639
3 2 8.02252 0.20787 0.289411
4 2 11.9686 0.124132 0.333793
5 2 15.8882 0.12329 0.195146
6 2 19.8607 0.139895 0.0623459
7 2 23.8938 0.127043 0.089313
8 2 27.8324 -0.0423159 0.308356
9 2 31.7205 0.00440488 0.310883
10 2 35.5645 0.23105 0.234969
11 2 39.7147 0.18514 0.10404
12 2 43.5074 0.0763491 0.224717
13 2 47.6138 -0.201172 0.331216
14 2 51.3882 0.00163586 0.238959
15 2 55.3235 -0.125677 0.260985
16 2 -0.0195884 4.15897 0.193916
17 2 3.95104 3.78115 0.129049
18 2 7.96977 3.99853 0.361762
19 2 11.8682 3.99657 0.335099
20 2 15.7996 3.91804 0.156591
21 2 19.7951 4.04602 0.225674
22 2 23.8055 4.14002 0.25632
23 2 27.6909 4.00692 0.360959
24 2 31.6565 4.14023 0.223983
25 2 35.4391 4.11788 0.232915
26 2 39.3809 4.01961 0.0561013
27 2 43.5517 4.00496 0.315623
28 2 47.4742 4.04571 0.106549
29 2 51.4472 4.12798 0.271993
30 2 55.4632 3.92045 0.242803
31 2 0.0822936 7.97804 0.168977
32 2 3.93136 7.84984 0.261939
33 2 7.76094 7.90354 0.317378
34 2 11.825 7.90952 0.407319
35 2 15.8074 8.1011 0.2426
36 2 19.8035 8.12069 0.162498
37 2 23.9135 8.14778 0.147911
38 2 27.5236 8.14209 0.263032
39 2 31.5368 7.96829 0.154561
40 2 35.7012 8.10989 0.157553
41 2 39.5551 7.92117 0.0618471
42 2 43.5152 8.03893 0.345171
43 2 47.2234 8.06688 0.016766
44 2 51.5652 7.97233 0.423327
45 2 55.6477 8.23251 0.24557
46 2 0.171952 11.7931 0.172789
47 2 3.95143 11.9168 0.152951
48 2 7.86287 11.8138 0.170348
49 2 11.7634 11.856 0.180875
50 2 15.7754 11.9918 0.153119
51 2 19.7725 11.8881 0.133432
52 2 23.7157 11.9297 0.266659
53 2 27.7559 12.0312 0.260922
54 2 31.7389 12.0354 0.22677
55 2 35.6673 12.058 0.104845
56 2 39.4422 11.8625 0.17849
57 2 43.4538 11.9392 0.235034
58 2 47.3555 11.976 0.258935
59 2 51.2746 11.894 0.131516
60 2 55.2773 12.0191 0.17657
61 2 -0.0225158 15.6525 0.196102
62 2 3.88435 15.8776 0.185295
63 2 7.919 16.0038 0.273921
64 2 11.8392 15.973 0.213553
65 2 15.6835 15.9246 0.18313
66 2 19.7799 15.5711 0.103265
67 2 23.8815 15.9896 0.276438
68 2 27.6151 15.6992 0.254645
69 2 31.5318 15.7676 0.303822
70 2 35.6122 15.9354 0.219061
71 2 39.5699 16.0176 0.332161
72 2 43.6382 15.7313 0.308331
73 2 47.4714 15.9453 0.244263
74 2 51.2898 15.8951 0.278817
75 2 55.5146 15.9235 0.181104
76 2 -0.0621061 19.6836 0.115474
77 2 3.79656 19.8834 0.0215933
78 2 7.99755 19.8412 0.163196
79 2 12.0057 20.0574 0.0720079
80 2 16.0222 19.9125 0.292354
81 2 19.7085 19.7903 0.24005
82 2 23.869 19.8625 0.25886
83 2 27.7957 19.578 0.245156
84 2 31.6284 19.8218 0.164206
85 2 35.3126 19.9099 0.180911
86 2 39.2475 19.5869 0.0755334
87 2 43.3693 19.8839 0.181375
88 2 47.5164 19.9023 0.275066
89 2 51.4636 19.8687 0.307027
90 2 55.4934 19.8138 0.173099
91 2 0.0572536 23.8144 0.21113
92 2 3.92445 23.8219 0.344164
93 2 7.93614 23.7602 0.422452
94 2 11.9391 23.9911 0.263164
95 2 15.854 23.8788 0.277115
96 2 20.0251 23.8855 0.281243
97 2 23.7539 24.1068 -0.000965508
98 2 27.7137 23.744 0.3712
99 2 31.3978 23.7417 0.0867737
100 2 35.4872 24.0335 0.152946
101 2 39.3854 23.8142 0.174668
102 2 43.5065 23.9009 0.272824
103 2 47.5521 23.7514 0.143935
104 2 51.5096 23.734 0.215807
105 2 55.3125 23.8638 0.205693
106 2 -0.08412 27.9079 0.221693
107 2 3.84034 27.665 0.241466
108 2 7.9664 27.7456 0.135091
109 2 11.8369 27.8634 0.376329
110 2 15.9201 27.7488 0.122877
111 2 19.7118 27.8122 0.071027
112 2 23.6779 27.9232 0.201113
113 2 27.5391 27.814 0.257942
114 2 31.607 27.7934 0.192541
115 2 35.6868 27.7945 0.16854
116 2 39.6224 27.7917 0.23996
117 2 43.4122 27.9795 0.240188
118 2 47.6328 27.773 0.146494
119 2 51.4715 27.8107 0.201755
120 2 55.2076 27.7992 0.222537
121 2 -0.0169937 31.577 0.185705
122 2 3.9277 31.6728 0.13521
123 2 7.83786 31.6828 0.197539
124 2 11.8089 31.6357 0.188896
125 2 15.8821 31.667 0.381589
126 2 19.6771 31.6705 0.408579
127 2 23.7107 31.55 0.306655
128 2 27.6582 31.5648 0.295265
129 2 31.6962 31.6602 0.213523
130 2 35.6296 31.8326 0.164063
131 2 39.4594 31.6737 -0.0213681
132 2 43.1964 31.885 0.0892496
133 2 47.4963 31.7676 0.313166
134 2 51.4758 31.7679 0.21726
135 2 55.2702 31.6694 0.190724
136 2 -0.228459 35.5463 0.190208
137 2 3.93745 35.6142 0.233285
138 2 7.92045 35.5421 0.205116
139 2 11.7826 35.7381 0.314226
140 2 15.8941 35.7515 0.16609
141 2 19.8238 35.7302 0.115885
142 2 23.8779 35.78 0.189726
143 2 27.8086 35.9376 0.321012
144 2 31.8078 35.7173 0.127472
145 2 35.7649 35.6886 0.320515
146 2 39.5213 35.883 0.263223
147 2 43.5428 35.8075 0.152976
148 2 47.5383 35.8306 0.331735
149 2 51.5036 35.6439 0.345053
150 2 55.4088 35.462 0.254266
151 2 0.1695 39.5082 0.295726
152 2 3.88776 39.5183 0.217314
153 2 7.82713 39.6434 0.243822
154 2 11.861 39.5205 0.306401
155 2 15.7952 39.7537 0.408684
156 2 19.8925 39.6174 0.0407741
157 2 23.709 39.7826 0.216939
158 2 27.5817 39.9325 0.0677262
159 2 31.755 39.5412 0.205943
160 2 35.6686 39.5134 0.149601
161 2 39.6517 39.7503 0.0717499
162 2 43.4616 39.7696 0.0802637
163 2 47.4873 39.7235 0.268312
164 2 51.5749 39.5835 0.2864
165 2 55.4227 39.679 0.30195
166 2 -0.150546 43.5502 0.130994
167 2 3.94349 43.5884 0.102981
168 2 7.93275 43.5948 0.133044
169 2 11.9608 43.586 0.144947
170 2 15.9121 43.4736 0.437976
171 2 19.8239 43.4752 0.224888
172 2 23.7094 43.7201 0.072794
173 2 27.6842 43.7659 0.22723
174 2 31.7962 43.3409 0.272498
175 2 35.4594 43.6266 0.410855
176 2 39.4584 43.5946 0.0189731
177 2 43.6106 43.5491 0.37708
178 2 47.5406 43.629 0.288998
179 2 51.4376 43.7407 0.241082
180 2 55.396 43.6816 0.160167
181 2 -0.0463803 47.5123 0.242868
182 2 4.08156 47.4879 0.235063
183 2 8.01321 47.5878 0.162874
184 2 11.8348 47.6041 0.174607
185 2 15.8722 47.4562 0.255181
186 2 19.7981 47.4729 0.22687
187 2 23.837 47.6737 0.229164
188 2 27.6436 47.3987 -0.0384145
189 2 31.5781 47.4694 0.240876
190 2 35.601 47.59 0.345789
191 2 39.4767 47.465 0.102391
192 2 43.4615 47.5362 0.272676
193 2 47.2883 47.6489 0.0808553
194 2 51.597 47.6693 0.243035
195 2 55.5229 47.3218 0.353698
196 2 0.0347148 51.5768 0.117274
197 2 3.94114 51.4572 0.376145
198 2 7.88434 51.5813 0.212149
199 2 11.9215 51.5971 0.284718
200 2 15.7817 51.3732 0.269336
201 2 19.7916 51.3509 0.275648
202 2 23.82 51.7919 0.243073
203 2 27.653 51.7262 0.191937
204 2 31.7194 51.5281 0.226952
205 2 35.514 51.2273 0.197082
206 2 39.5949 51.5822 -0.0144335
207 2 43.4808 51.6295 -0.00884248
208 2 47.3763 51.3943 0.28454
209 2 51.3806 51.4959 0.126611
210 2 55.521 51.3971 0.218929
211 2 0.0475421 55.4836 0.14827
212 2 3.98667 55.4111 0.365963
213 2 7.94133 55.4165 0.274641
214 2 11.8385 55.5086 0.34454
215 2 15.9371 55.3386 0.379785
216 2 19.7714 55.4709 0.223928
217 2 23.7174 55.6838 0.0721478
218 2 28.0127 55.4989 0.0402847
219 2 31.7758 55.4992 0.137978
220 2 35.5773 55.5076 0.183942
221 2 39.5712 55.5498 0.195518
222 2 43.4304 55.3681 0.0409774
223 2 47.4159 55.2808 0.250281
224 2 51.452 55.3516 0.208795
225 2 55.6091 55.5323 0.241034
226 2 -0.190059 0.0280578 4.04624
227 2 4.00459 -0.143928 4.16329
228 2 7.82771 0.0203964 4.21765
229 2 11.9203 -0.0762178 4.01796
230 2 15.9233 0.0289882 4.30189
231 2 19.7427 0.00736796 4.26839
232 2 23.4833 0.0588015 4.03401
233 2 27.7708 -0.0433126 4.22855
234 2 31.7905 0.0511524 4.34883
235 2 35.4283 0.0583951 4.18441
236 2 39.4356 0.23326 4.10541
237 2 43.6405 -0.0737557 4.31093
238 2 47.4121 -0.267147 4.12488
239 2 51.3784 0.0862327 4.20869
240 2 55.2036 0.319168 4.23284
241 2 0.00326888 3.85602 4.24315
242 2 3.82515 3.99383 4.09172
243 2 7.93919 4.00201 4.28876
244 2 12.0295 3.91934 4.2322
245 2 15.9253 4.06553 4.07333
246 2 19.7928 4.22304 4.26731
247 2 23.6299 3.98014 4.19205
248 2 27.6735 3.68773 4.16403
249 2 31.7131 3.96718 4.00245
250 2 35.5809 3.93233 4.20277
251 2 39.5774 3.99241 4.32588
252 2 43.4654 3.85619 4.1468
253 2 47.6733 3.94604 4.10288
254 2 51.38 3.88612 3.94709
255 2 55.317 4.00755 4.11653
256 2 -0.122475 8.00747 4.14004
257 2 3.88755 7.99228 4.37683
258 2 7.82395 8.01549 4.19429
259 2 11.9966 7.76406 4.28493
260 2 16.0112 8.14794 4.17999
261 2 19.7067 7.96429 4.28713
262 2 23.5522 8.08281 4.10576
263 2 27.5178 7.94584 4.05177
264 2 31.3759 7.93854 4.11068
265 2 35.4966 8.03867 4.23125
266 2 39.6879 7.99949 4.03859
267 2 43.6072 7.75595 4.17644
268 2 47.5879 7.79477 4.33206
269 2 51.3934 7.91554 4.16613
270 2 55.3193 8.00039 4.25858
271 2 -0.154646 11.9226 4.13685
272 2 4.09348 11.8125 4.06667
273 2 7.83496 12.1145 4.30085
274 2 11.8429 11.9605 4.16273
275 2 15.7777 12.06 4.24274
276 2 19.6379 11.6938 4.21329
277 2 23.6385 11.8701 4.28598
278 2 27.6514 11.9726 4.21674
279 2 31.5608 11.9571 4.36595
280 2 35.5868 11.7613 4.18709
281 2 39.6071 11.9789 4.22165
282 2 43.4827 11.9744 4.23162
283 2 47.352 11.9533 4.18581
284 2 51.4148 11.8666 4.13367
285 2 55.3193 12.0847 4.19561
286 2 -0.0527593 15.7835 4.1457
287 2 3.84629 16.0955 4.0818
288 2 8.00408 15.9706 4.25891
289 2 11.6965 15.8998 4.07232
290 2 15.7471 16.0145 4.10318
291 2 19.7403 15.8698 4.21335
292 2 23.8066 16.011 4.23774
293 2 27.547 15.7786 4.38938
294 2 31.5967 15.9925 4.26111
295 2 35.4384 16.1126 4.16392
296 2 39.4304 15.756 4.17914
297 2 43.431 15.9102 4.36139
298 2 47.6352 15.8704 4.26017
299 2 51.5496 15.8948 4.23721
300 2 55.5532 16.136 4.24331
301 2 -0.0402303 19.9409 4.24892
302 2 3.75584 19.9032 4.18205
303 2 7.86622 19.8257 4.22788
304 2 11.9281 19.8964 4.16369
305 2 16.0455 19.7237 4.22776
306 2 19.8328 19.6619 4.27896
307 2 23.5829 19.9036 4.31309
308 2 27.6317 19.7402 4.29696
309 2 31.7033 19.795 4.33532
310 2 35.5204 19.9292 4.08518
311 2 39.5616 19.9104 4.04381
312 2 43.3901 19.7749 4.1412
313 2 47.2952 20.0173 4.14353
314 2 51.429 19.8985 4.25511
315 2 55.3328 20.0031 4.34533
316 2 0.0527393 23.8605 4.20306
317 2 3.86733 23.7 4.12106
318 2 7.81803 23.6696 4.1895
319 2 11.7388 23.8657 4.37935
320 2 15.6554 23.7088 4.26601
321 2 19.8877 23.8883 4.18931
322 2 23.745 23.7386 4.31546
323 2 27.5635 23.7246 4.35005
324 2 31.5275 23.8249 4.32894
325 2 35.5794 23.801 4.09322
326 2 39.4967 23.8144 4.21021
327 2 43.5568 23.6095 4.11334
328 2 47.3151 23.8745 4.30284
329 2 51.2701 23.8329 4.23341
330 2 55.3805 23.9106 4.1666
331 2 -0.138568 27.5689 4.28728
332 2 3.94627 27.6587 4.31449
333 2 7.86155 27.6433 4.2495
334 2 11.9624 27.7584 4.21142
335 2 15.8919 27.8587 4.303
336 2 19.7095 27.7942 4.25404
337 2 23.6539 27.7729 4.27395
338 2 27.5735 27.6924 4.28583
339 2 31.6765 27.8943 4.31564
340 2 35.6501 27.7995 4.24977
341 2 39.5593 27.7786 4.03255
342 2 43.5157 27.7158 4.35771
343 2 47.4517 27.7788 4.17843
344 2 51.3977 27.8143 4.2904
345 2 55.5183 27.5264 4.18442
346 2 -0.207012 31.5606 4.18213
347 2 3.80783 31.5702 4.20985
348 2 7.7219 31.4803 4.24226
349 2 11.9141 31.5401 4.25153
350 2 15.9358 31.8789 4.16464
351 2 19.8109 31.6188 3.97923
352 2 23.871 31.7929 4.24932
353 2 27.7652 31.9207 4.26471
354 2 31.6723 31.921 4.14157
355 2 35.4586 31.8157 4.26674
356 2 39.3712 31.6655 4.27924
357 2 43.4728 31.8711 4.19186
358 2 47.4762 31.6538 4.22605
359 2 51.3672 31.7771 4.30634
360 2 55.1707 31.8568 4.27759
361 2 -0.0470773 35.5791 4.1279
362 2 3.84726 35.5435 4.22374
363 2 7.78659 35.4971 4.1861
364 2 11.9175 35.6055 4.28915
365 2 15.7219 35.8071 4.30335
366 2 19.7573 35.8117 4.26086
367 2 23.5947 35.6971 4.19674
368 2 27.5811 35.7652 4.12944
369 2 31.4686 35.714 4.27956
370 2 35.6314 35.7103 4.12912
371 2 39.4541 35.6159 4.35846
372 2 43.373 35.6423 4.16942
373 2 47.3067 35.4679 4.22775
374 2 51.402 35.8821 4.18071
375 2 55.488 35.7114 4.18814
376 2 -0.0892442 39.4499 4.18044
377 2 4.00434 39.6875 4.28002
378 2 7.9041 39.4504 4.22471
379 2 11.7334 39.5222 4.28747
380 2 15.8659 39.6768 4.46703
381 2 19.8531 39.5076 4.35637
382 2 23.7688 39.6987 4.24435
383 2 27.7028 39.634 4.37431
384 2 31.7971 39.5442 4.30622
385 2 35.5804 39.4864 4.14951
386 2 39.5029 39.7175 4.23762
387 2 43.5119 39.5392 4.11526
388 2 47.554 39.5584 4.31961
389 2 51.3112 39.6424 4.37199
390 2 55.5016 39.5695 4.32134
391 2 -0.0335556 43.4217 4.20358
392 2 3.95652 43.3719 4.16479
393 2 7.82593 43.5764 4.34423
394 2 11.605 43.546 4.1488
395 2 15.5478 43.5347 4.31501
396 2 19.7822 43.5573 4.17825
397 2 23.7607 43.51 4.12414
398 2 27.5657 43.5785 4.19645
399 2 31.6088 43.6125 4.34379
400 2 35.7168 43.38 4.18896
401 2 39.4388 43.4558 4.34395
402 2 43.3461 43.5108 4.22386
403 2 47.5408 43.5501 4.18753
404 2 51.3953 43.6537 3.99339
405 2 55.4439 43.5978 4.21802
406 2 -0.043256 47.4536 4.27053
407 2 3.81795 47.3691 4.09939
408 2 7.8358 47.4519 4.21135
409 2 11.7428 47.5461 4.23338
410 2 15.6562 47.4891 4.29039
411 2 19.6994 47.6358 4.30289
412 2 23.5323 47.7317 4.16267
413 2 27.5176 47.4813 4.04162
414 2 31.656 47.6417 4.27825
415 2 35.6054 47.4205 4.17054
416 2 39.6015 47.3679 4.34958
417 2 43.4286 47.4968 4.20761
418 2 47.4097 47.5848 4.26363
419 2 51.4068 47.3971 4.22091
420 2 55.4288 47.6539 4.05377
421 2 0.0316645 51.5074 4.18193
422 2 3.90581 51.4357 4.25675
423 2 7.9367 51.3832 4.35309
424 2 11.8284 51.4647 4.30897
425 2 15.6162 51.4195 4.12698
426 2 19.5938 51.6657 4.21688
427 2 23.5245 51.6931 4.29562
428 2 27.7812 51.6022 4.3113
429 2 31.5269 51.4431 4.23967
430 2 35.6758 51.3388 4.14623
431 2 39.4627 51.5488 4.16908
432 2 43.3998 51.5608 4.14223
433 2 47.3689 51.4541 4.25805
434 2 51.2245 51.4013 4.0517
435 2 55.1543 51.4742 4.24882
436 2 0.0399789 55.4658 4.06319
437 2 4.00401 55.5639 4.2593
438 2 7.78715 55.2709 4.28297
439 2 11.686 55.1594 4.30639
440 2 15.6417 55.3722 4.16833
441 2 19.7673 55.4212 4.1609
442 2 23.634 55.3685 4.25279
443 2 27.5814 55.683 4.29152
444 2 31.7054 55.4575 4.28985
445 2 35.5491 55.3793 4.22552
446 2 39.3445 55.5812 3.95904
447 2 43.2962 55.654 4.11479
448 2 47.259 55.4315 4.13774
449 2 51.3235 55.4801 4.06202
450 2 55.3212 55.4234 4.23236
451 2 -0.0774289 0.0114187 8.31131
452 2 3.82281 0.153264 8.03598
453 2 7.74525 -0.0812814 8.30467
454 2 11.6698 0.00100366 8.17614
455 2 15.6884 0.145778 7.9085
456 2 19.7993 -0.0685485 8.00793
457 2 23.5697 0.0925358 8.12959
458 2 27.6588 -0.146571 8.19264
459 2 31.6986 0.0552791 8.1005
460 2 35.5262 0.0163274 8.03838
461 2 39.3675 -0.0850532 8.27752
462 2 43.2599 -0.0134793 8.10057
463 2 47.3559 -0.0923159 8.09541
464 2 51.4323 0.0559923 8.15372
465 2 55.2691 -0.196536 8.22051
466 2 -0.118315 3.89338 8.16178
467 2 3.70012 4.186 8.04943
468 2 7.86122 3.72059 8.24349
469 2 11.7568 3.90195 8.13821
470 2 15.738 3.97178 8.04686
471 2 19.7928 3.94271 8.16862
472 2 23.7141 3.94487 8.24338
473 2 27.7064 3.72472 8.07378
474 2 31.6786 4.05991 7.92826
475 2 35.5834 3.81017 8.22437
476 2 39.4867 3.89445 8.14848
477 2 43.5129 4.00407 8.19137
478 2 47.3669 3.98978 8.34889
479 2 51.4649 4.00898 8.23883
480 2 55.4078 3.87588 8.21445
481 2 -0.309468 8.00746 7.93878
482 2 3.82551 7.80741 8.2132
483 2 7.74996 7.93569 8.05277
484 2 11.9056 7.91924 8.26451
485 2 15.8357 8.12468 8.25675
486 2 19.7307 8.08425 8.21607
487 2 23.7785 8.03675 8.12983
488 2 27.6857 8.00961 8.23795
489 2 31.5896 7.83571 8.13613
490 2 35.5368 7.91289 8.04026
491 2 39.5457 7.79351 8.13
492 2 43.3931 8.06613 8.03168
493 2 47.3155 7.74154 8.12007
494 2 51.3426 7.89571 8.21302
495 2 55.0885 7.96354 7.91996
496 2 -0.277919 11.7838 8.08328
497 2 3.76721 11.8391 8.03322
498 2 7.85313 11.6897 8.10454
499 2 11.776 11.9087 8.11503
500 2 15.8149 12.0045 8.09739
501 2 19.8315 12.1033 8.25931
502 2 23.6474 11.9292 8.18923
503 2 27.5715 11.9019 8.20709
504 2 31.3999 11.9977 8.14732
505 2 35.6266 11.696 8.30076
506 2 39.494 11.7008 8.26257
507 2 43.5512 11.91 8.14948
508 2 47.3968 11.806 8.34553
509 2 51.4075 11.8494 8.34458
510 2 55.2604 11.9106 8.20332
511 2 -0.0798227 15.9199 8.14547
512 2 3.70343 15.7585 8.18689
513 2 7.78337 15.8318 8.23047
514 2 11.6951 15.7915 8.40972
515 2 15.4798 16.0347 8.13409
516 2 19.603 15.8038 8.28528
517 2 23.441 16.0283 8.23601
518 2 27.4895 15.9202 8.16734
519 2 31.8057 15.838 8.22424
520 2 35.6231 15.606 8.22472
521 2 39.5958 15.7802 8.17118
522 2 43.3294 15.8514 8.19286
523 2 47.6032 15.796 8.15155
524 2 51.3233 15.9221 8.19555
525 2 55.2418 15.9822 8.39296
526 2 -0.147733 19.7452 8.42343
527 2 3.84739 19.752 8.15287
528 2 7.93139 19.8448 8.17825
529 2 11.9809 19.9628 8.03503
530 2 15.7377 20.058 8.20648
531 2 19.6916 19.9294 8.18332
532 2 23.6208 20.0456 8.34194
533 2 27.5457 19.9757 8.36481
534 2 31.3999 19.9413 8.22018
535 2 35.6245 19.6896 8.0506
536 2 39.5664 19.7558 8.31002
537 2 43.3942 19.741 8.29474
538 2 47.1796 20.0705 8.07218
539 2 51.1655 19.7481 8.14964
540 2 55.2322 19.8613 8.2191
541 2 -0.0850088 23.7492 8.32929
542 2 4.04188 23.7583 8.20162
543 2 7.91577 23.8283 8.18748
544 2 11.6852 23.8725 8.05044
545 2 15.8982 23.8849 8.36356
546 2 19.6504 23.9701 8.21303
547 2 23.6476 23.9401 8.23434
548 2 27.7215 23.7719 8.21862
549 2 31.4197 23.699 8.13404
550 2 35.4002 23.8224 8.1716
551 2 39.413 23.5574 7.84515
552 2 43.2103 23.6775 8.12806
553 2 47.3737 23.8729 8.22535
554 2 51.1853 23.8408 8.16891
555 2 55.2243 23.8881 8.23912
556 2 -0.0158867 27.7854 8.36015
557 2 4.02677 27.7409 8.20512
558 2 7.97663 27.9079 8.35203
559 2 11.9701 27.9525 8.24173
560 2 15.9193 27.7885 8.31057
561 2 19.8087 27.809 8.30024
562 2 23.8302 27.6504 8.06265
563 2 27.6812 27.6854 8.20148
564 2 31.4271 27.8149 8.23582
565 2 35.5901 27.6459 8.11897
566 2 39.3336 27.5933 8.17254
567 2 43.4577 27.7064 8.32384
568 2 47.2633 27.4996 8.15341
569 2 51.4455 27.8955 8.20845
570 2 55.3676 27.7581 8.25088
571 2 -0.0688744 31.8024 8.0414
572 2 4.00528 31.7481 8.37905
573 2 8.08776 31.7716 8.18904
574 2 11.9401 31.7023 8.15091
575 2 15.9003 31.7482 8.14217
576 2 19.8836 31.5758 8.34575
577 2 23.6491 31.6531 8.26129
578 2 27.6625 31.7425 8.19156
579 2 31.7441 31.8557 8.14305
580 2 35.4061 31.6862 8.18675
581 2 39.5035 31.5714 8.28928
582 2 43.3892 31.7717 8.22002
583 2 47.3256 31.4634 8.26609
584 2 51.2952 31.9016 8.2425
585 2 55.2326 31.8114 8.17027
586 2 -0.0654139 35.3988 8.21423
587 2 3.8199 35.5189 8.29524
588 2 7.79678 35.5086 8.31704
589 2 11.8707 35.6702 8.37642
590 2 15.9011 35.4343 8.23886
591 2 19.7992 35.5423 8.1012
592 2 23.7071 35.6642 8.1452
593 2 27.7165 35.7305 8.23677
594 2 31.7551 35.8829 8.21777
595 2 35.5983 35.7096 8.11203
596 2 39.3859 35.793 8.3281
597 2 43.4353 35.4922 8.08453
598 2 47.3519 35.5918 8.20722
599 2 51.2844 35.7369 8.28912
600 2 55.2189 35.6782 8.24906
601 2 -0.128738 39.5816 8.13822
602 2 3.90683 39.4844 8.15253
603 2 7.8886 39.5338 8.27317
604 2 11.8252 39.5031 8.2606
605 2 15.7066 39.5525 8.40632
606 2 19.8923 39.5634 8.2848
607 2 23.6921 39.6894 8.26794
608 2 27.587 39.7378 8.20882
609 2 31.6806 39.533 8.40424
610 2 35.557 39.6431 8.17611
611 2 39.6046 39.4989 8.27893
612 2 43.4978 39.4839 8.26991
613 2 47.5456 39.4265 8.20946
614 2 51.5969 39.9101 8.25079
615 2 55.6294 39.7106 8.29464
616 2 0.0745768 43.5378 8.2129
617 2 3.95099 43.4449 8.22311
618 2 7.68901 43.557 8.17141
619 2 11.7097 43.4908 8.36549
620 2 15.7833 43.7329 8.10363
621 2 19.574 43.5916 8.1585
622 2 23.7301 43.588 8.25358
623 2 27.7636 43.6319 7.98027
624 2 31.4633 43.4257 8.1978
625 2 35.5756 43.4888 8.30591
626 2 39.6255 43.4955 8.22751
627 2 43.5497 43.3769 8.23623
628 2 47.5345 43.289 8.25545
629 2 51.434 43.7999 8.03975
630 2 55.3641 43.7737 8.24891
631 2 -0.164175 47.2992 8.12838
632 2 3.76702 47.3583 8.06397
633 2 7.92579 47.5025 8.17403
634 2 11.7437 47.448 8.41625
635 2 15.9795 47.5279 8.20146
636 2 19.7943 47.7241 8.20797
637 2 23.4555 47.4526 8.19522
638 2 27.4739 47.4753 8.08839
639 2 31.6471 47.4712 8.39378
640 2 35.5565 47.4934 8.19589
641 2 39.4928 47.5367 8.32272
642 2 43.6073 47.2123 8.14824
643 2 47.3381 47.4099 8.15036
644 2 51.4389 47.5513 8.04225
645 2 55.282 47.5819 8.38462
646 2 -0.173664 51.5587 8.31172
647 2 3.75795 51.4221 8.39972
648 2 7.88794 51.3294 8.46543
649 2 11.798 51.3874 8.3402
650 2 15.7038 51.5032 8.16803
651 2 19.5216 51.5964 8.1845
652 2 23.6986 51.5808 8.30853
653 2 27.4607 51.4238 8.07295
654 2 31.5808 51.4133 8.19058
655 2 35.6341 51.4267 8.13709
656 2 39.3419 51.3784 8.37915
657 2 43.3494 51.2829 8.16255
658 2 47.1882 51.2745 8.02737
659 2 51.246 51.4404 8.19016
660 2 55.4744 51.2148 8.1906
661 2 0.00512901 55.6194 8.19216
662 2 3.98445 55.3348 8.26388
663 2 7.74509 55.3476 8.19399
664 2 11.875 55.3224 8.27188
665 2 15.6277 55.585 8.2325
666 2 19.5764 55.2774 8.19135
667 2 23.5401 55.1608 8.10372
668 2 27.6815 55.3951 8.15329
669 2 31.6129 55.2595 8.25587
670 2 35.4607 55.4069 8.19911
671 2 39.2891 55.1841 8.05847
672 2 43.4525 55.2198 8.17936
673 2 47.3102 55.2839 8.25299
674 2 51.3717 55.2888 8.2257
675 2 55.2652 55.3328 8.13952
676 2 -0.208219 0.155815 12.1797
677 2 3.65612 0.0691773 12.0797
678 2 7.77798 -0.109199 12.248
679 2 11.7893 -0.0963219 12.1895
680 2 15.6725 0.214629 12.0102
681 2 19.6443 0.245424 12.0938
682 2 23.7256 -0.04601 12.2199
683 2 27.6621 -0.150415 12.0903
684 2 31.4544 -0.0424101 12.0816
685 2 35.5876 -0.0968065 12.1168
686 2 39.4769 -0.11837 12.2168
687 2 43.3113 -0.126303 12.0116
688 2 47.3973 -0.0862374 12.152
689 2 51.3447 -0.0137035 12.2116
690 2 55.2568 -0.118009 12.181
691 2 -0.257272 3.9846 12.0934
692 2 3.62315 4.07808 12.2432
693 2 7.58984 3.9571 12.1111
694 2 11.9485 3.78034 12.2649
695 2 15.7088 4.16544 12.1918
696 2 19.6059 4.03453 12.2789
697 2 23.8033 3.76041 12.0009
698 2 27.4358 3.82107 12.0806
699 2 31.713 3.8965 12.1925
700 2 35.5553 3.9321 12.2656
701 2 39.4783 3.80974 12.315
702 2 43.4502 4.0139 12.0495
703 2 47.3419 3.60189 12.0669
704 2 51.1589 3.89663 12.286
705 2 55.3919 3.90696 12.1327
706 2 -0.304135 7.91923 12.2085
707 2 3.6907 7.76759 11.8894
708 2 7.87085 7.8331 12.1743
709 2 11.7794 7.91269 12.0925
710 2 15.8668 7.89029 12.039
711 2 19.6657 7.74986 12.0444
712 2 23.6247 8.05854 11.9946
713 2 27.6913 7.88247 12.1773
714 2 31.5218 7.95765 12.1935
715 2 35.5245 7.90663 12.2595
716 2 39.4738 7.78337 12.0656
717 2 43.5674 7.74873 12.0715
718 2 47.3989 7.85917 12.2478
719 2 51.3269 7.85872 12.1647
720 2 55.1852 8.03284 12.269
721 2 -0.168059 11.7166 11.8842
722 2 3.95475 11.8515 12.0721
723 2 7.72641 11.9603 12.0172
724 2 11.7182 11.8021 11.9543
725 2 15.7481 11.8006 12.2302
726 2 19.805 11.8338 12.0693
727 2 23.6473 12.0223 12.2357
728 2 27.738 11.8278 12.0266
729 2 31.6774 11.7537 12.3476
730 2 35.676 11.8154 12.2748
731 2 39.4668 11.9905 12.2256
732 2 43.5327 11.7724 12.3783
733 2 47.4391 11.9381 12.1955
734 2 51.4429 11.8963 12.1476
735 2 55.2689 11.8974 12.1669
736 2 -0.137266 15.7694 12.0318
737 2 4.02873 15.7143 12.1859
738 2 7.8846 15.8185 12.1211
739 2 11.8999 16.0552 12.0412
740 2 15.6533 15.9257 11.8683
741 2 19.5291 16.1245 12.149
742 2 23.7198 15.7711 12.097
743 2 27.459 15.8822 12.2638
744 2 31.4209 15.6064 12.0701
745 2 35.4945 15.829 12.1342
746 2 39.5634 15.7876 12.1172
747 2 43.5747 15.6388 12.0281
748 2 47.4092 15.9308 12.1139
749 2 51.3737 16.0027 12.2206
750 2 55.2482 15.846 12.2044
751 2 0.00480049 19.8366 12.3009
752 2 3.93091 19.6605 12.0848
753 2 7.67377 19.7921 11.9428
754 2 11.7437 19.925 12.0565
755 2 15.8256 19.9347 12.2503
756 2 19.6617 19.9115 12.1394
757 2 23.6367 19.7491 12.2723
758 2 27.6855 19.9883 12.3752
759 2 31.6309 19.4472 12.161
760 2 35.67 19.7527 12.1465
761 2 39.5728 19.6206 12.3551
762 2 43.5305 19.7933 12.3445
763 2 47.3542 19.8105 12.2675
764 2 51.3183 19.9888 12.1504
765 2 55.1324 20.0945 12.3029
766 2 -0.0887363 23.9022 12.2339
767 2 3.91615 23.6585 12.0229
768 2 7.95645 23.8219 12.4179
769 2 11.891 23.9398 12.2448
770 2 15.7226 23.8527 12.384
771 2 19.6393 23.6946 12.2586
772 2 23.7561 23.6325 12.3146
773 2 27.6656 23.6323 12.1913
774 2 31.6814 23.6371 12.0069
775 2 35.6789 23.6469 12.2142
776 2 39.4632 23.8276 12.2276
777 2 43.3558 23.8141 12.3496
778 2 47.3085 23.7213 12.2322
779 2 51.4217 23.8824 12.142
780 2 55.378 23.8329 12.1296
781 2 0.0200176 27.8296 12.0467
782 2 3.91339 27.786 12.1664
783 2 7.87689 27.4966 12.3041
784 2 11.8313 27.8822 12.3645
785 2 15.7904 27.5595 12.3386
786 2 19.8264 27.7352 12.2344
787 2 24.0406 27.6878 12.0144
788 2 27.9349 27.735 12.2417
789 2 31.52 27.4638 12.2853
790 2 35.8433 27.5876 11.9102
791 2 39.5634 27.6911 12.0562
792 2 43.3144 27.8027 12.0851
793 2 47.4347 27.6237 12.3225
794 2 51.507 27.8868 12.1935
795 2 55.2295 27.7637 12.1499
796 2 0.0598944 31.5402 12.2513
797 2 4.04417 31.6522 12.3572
798 2 7.73582 31.8271 12.4108
799 2 11.76 31.6621 12.4531
800 2 15.8918 31.5561 12.3152
801 2 19.9242 31.6375 12.3707
802 2 23.7372 31.7214 12.2656
803 2 27.6613 31.7679 12.3635
804 2 31.6688 31.5892 12.21
805 2 35.4084 31.5112 12.0155
806 2 39.6034 31.7205 12.084
807 2 43.5947 31.7999 12.0825
808 2 47.5301 31.5774 12.2301
809 2 51.4765 31.7723 12.2649
810 2 55.4383 31.4855 12.276
811 2 -0.0937765 35.6643 12.1487
812 2 3.91775 35.6591 12.2887
813 2 7.86437 35.6423 12.2492
814 2 11.7739 35.7033 12.2543
815 2 15.8019 35.7214 12.4322
816 2 19.782 35.6503 12.1478
817 2 23.9322 35.7786 12.0892
818 2 27.7073 35.7798 12.2828
819 2 31.5274 35.7118 12.3342
820 2 35.7765 35.42 12.1937
821 2 39.358 35.5667 12.211
822 2 43.5279 35.6879 12.1645
823 2 47.5 35.5487 12.3308
824 2 51.4964 35.7131 12.1828
825 2 55.4062 35.5656 12.2618
826 2 -0.251869 39.3557 12.0107
827 2 3.86602 39.4785 12.1516
828 2 7.87978 39.64 12.1984
829 2 11.7466 39.6938 12.1077
830 2 15.9316 39.6376 12.2148
831 2 19.6974 39.3869 12.3607
832 2 23.4589 39.7907 11.9195
833 2 27.5933 39.5492 12.1263
834 2 31.5687 39.4691 12.2961
835 2 35.748 39.6137 12.1947
836 2 39.4435 39.6372 12.2285
837 2 43.3981 39.5477 12.2825
838 2 47.3644 39.438 12.1843
839 2 51.2142 39.7462 12.3225
840 2 55.0981 39.761 12.3686
841 2 0.102811 43.5979 12.3478
842 2 3.91245 43.6642 12.2906
843 2 7.6869 43.745 12.2103
844 2 11.8087 43.6574 12.3597
845 2 15.8161 43.5202 12.2023
846 2 19.6671 43.441 12.3786
847 2 23.7262 43.672 12.2201
848 2 27.7298 43.4859 12.1849
849 2 31.6002 43.4801 12.2683
850 2 35.7177 43.448 12.2058
851 2 39.5085 43.4801 12.2687
852 2 43.6007 43.3455 12.2407
853 2 47.3361 43.5914 12.2448
854 2 51.2718 43.582 12.3175
855 2 55.4382 43.5474 12.2221
856 2 -0.150308 47.4323 12.2393
857 2 3.81487 47.5833 11.8739
858 2 7.75523 47.4485 12.1088
859 2 11.8385 47.4852 12.2712
860 2 15.6306 47.447 12.3057
861 2 19.5653 47.6545 12.1744
862 2 23.4586 47.4126 12.1452
863 2 27.6337 47.5428 12.3367
864 2 31.5998 47.4299 12.3929
865 2 35.5224 47.2365 12.0117
866 2 39.6481 47.3512 12.2899
867 2 43.4444 47.3124 12.0701
868 2 47.4823 47.4139 11.9908
869 2 51.461 47.3574 12.2129
870 2 55.3859 47.42 12.3087
871 2 -0.027814 51.5101 12.2813
872 2 3.78968 51.4753 12.4122
873 2 7.81095 51.3713 12.2033
874 2 11.7066 51.5804 12.2629
875 2 15.7304 51.5387 12.2372
876 2 19.689 51.4989 12.2303
877 2 23.6714 51.4495 12.3179
878 2 27.4447 51.2677 12.0405
879 2 31.6138 51.5026 12.2006
880 2 35.6458 51.3502 12.246
881 2 39.6095 51.4002 12.2859
882 2 43.3662 51.3777 11.9956
883 2 47.5199 51.3096 12.0697
884 2 51.4172 51.6378 12.2581
885 2 55.2814 51.2671 12.2853
886 2 -0.192391 55.4314 12.0836
887 2 3.89412 55.473 12.3595
888 2 7.89631 55.3273 12.1453
889 2 11.7746 55.3972 12.2741
890 2 15.7312 55.5731 12.2664
891 2 19.655 55.6443 12.0905
892 2 23.5968 55.534 12.1612
893 2 27.5587 55.5462 12.0068
894 2 31.5839 55.1686 12.0466
895 2 35.3207 55.3509 12.1417
896 2 39.4131 55.3422 12.0745
897 2 43.3426 55.3058 12.0332
898 2 47.4768 55.4801 12.1527
899 2 51.3125 55.4456 12.0882
900 2 55.419 55.3083 12.0287
901 2 59.529 0.0875129 16.0153
902 2 3.87356 -0.0595428 16.155
903 2 7.95658 0.105238 16.3481
904 2 11.9433 0.252011 16.1417
905 2 15.769 0.0853414 16.1718
906 2 19.7364 0.0448334 16.1328
907 2 23.6648 -0.0536164 16.3725
908 2 27.6957 -0.119588 16.2133
909 2 32.0254 -0.006104 16.0294
910 2 35.5743 -0.156543 16.1146
911 2 39.5378 -0.0703925 16.1254
912 2 43.3228 -0.152726 16.0277
913 2 47.2927 -0.0167078 16.2217
914 2 51.3634 0.107823 16.1525
915 2 55.3876 -0.111303 16.1907
916 2 59.2421 3.96413 16.3569
917 2 3.82865 4.00767 16.0773
918 2 7.73636 3.78241 16.0407
919 2 11.8535 3.87279 16.1862
920 2 16.0535 4.1027 16.1626
921 2 20.0212 4.00259 16.1765
922 2 23.842 3.84192 16.0536
923 2 27.6913 3.9396 16.1526
924 2 31.4191 3.95691 16.2333
925 2 35.6122 3.9685 16.1245
926 2 39.5766 3.73807 16.1956
927 2 43.5245 3.91901 16.1486
928 2 47.5537 3.80267 16.1414
929 2 51.4649 3.88202 16.421
930 2 55.3019 3.81926 16.0747
931 2 59.1935 7.9614 16.207
932 2 3.83076 7.9606 15.973
933 2 7.8815 7.78598 16.0796
934 2 11.8063 7.90803 16.1636
935 2 15.587 7.72263 16.0822
936 2 19.9363 7.85897 16.0435
937 2 23.7681 7.83424 16.33
938 2 27.6342 7.77473 15.9757
939 2 31.6732 8.18712 16.2649
940 2 35.4861 7.78911 16.283
941 2 39.5808 7.80108 16.2595
942 2 43.4952 7.82057 15.9082
943 2 47.4689 7.92831 16.1802
944 2 51.3862 7.90459 16.172
945 2 55.446 7.79945 16.0985
946 2 59.2999 11.8598 15.901
947 2 3.78544 11.8204 15.9749
948 2 7.71501 11.728 16.0772
949 2 11.8208 11.6354 16.0408
950 2 15.9319 11.9477 16.221
951 2 19.5293 11.9308 16.0988
952 2 23.5686 11.6417 16.1166
953 2 27.5653 11.8531 16.0191
954 2 31.4186 11.9123 16.2424
955 2 35.3505 11.8234 16.0312
956 2 39.2388 11.619 16.199
957 2 43.2448 11.8833 16.1885
958 2 47.5213 11.6504 16.2275
959 2 51.474 11.7879 16.1544
960 2 55.3273 11.9561 16.0963
961 2 59.121 15.8891 16.087
962 2 3.69168 15.6413 16.066
963 2 7.88837 15.6869 16.0242
964 2 11.7927 15.65 16.0603
965 2 15.6473 15.862 16.1466
966 2 19.7062 15.6908 16.1854
967 2 23.4406 15.7381 16.2489
968 2 27.58 15.8833 16.2746
969 2 31.3204 15.7784 16.2163
970 2 35.3116 15.8061 16.1661
971 2 39.6084 15.5963 15.9051
972 2 43.4189 15.9243 16.218
973 2 47.2708 15.799 16.0952
974 2 51.31 15.7807 16.1856
975 2 55.298 15.9324 16.2031
976 2 59.259 19.6997 16.0502
977 2 3.81467 19.6788 15.9969
978 2 7.7065 19.7428 15.9654
979 2 11.7699 19.6951 16.3273
980 2 15.6543 19.6515 16.266
981 2 19.7069 19.6287 16.1702
982 2 23.5824 19.7179 16.1306
983 2 27.6814 19.9125 16.2322
984 2 31.6472 19.7054 16.1864
985 2 35.5243 19.6071 16.1783