ITEM: TIMESTEP
28700
ITEM: NUMBER OF ATOMS
14625
ITEM: BOX BOUNDS xy xz yz pp pp pp
0.0000000000000000e+00 5.9369999999999997e+01 0.0000000000000000e+00
0.0000000000000000e+00 5.9369999999999997e+01 0.0000000000000000e+00
-4.7983460694396740e-02 5.1787983460694335e+01 0.0000000000000000e+00
ITEM: ATOMS id type x y z
1 2 -0.0620181 0.201724 0.167505
2 2 3.91282 0.0125782 0.136858
3 2 7.86384 0.1256 0.123359
4 2 11.7655 0.0248572 0.193382
5 2 15.9326 0.000181399 0.174141
6 2 19.7109 0.157902 0.033983
7 2 23.746 0.00383802 0.388566
8 2 27.6758 -0.0122931 0.447791
9 2 31.702 0.0526283 0.364319
10 2 35.7727 0.172227 0.490919
11 2 39.782 0.0492315 0.207558
12 2 43.4762 0.0679811 0.322687
13 2 47.4144 0.102386 0.291
14 2 51.24 -0.128736 0.137181
15 2 55.3855 0.156005 0.245936
16 2 -0.0562922 4.02771 0.184365
17 2 3.95127 4.21281 0.329966
18 2 7.77474 4.14213 0.151692
19 2 11.855 4.06103 0.258244
20 2 15.9474 4.08422 0.401997
21 2 19.8857 4.22597 0.210298
22 2 23.6875 4.00611 0.390909
23 2 27.8141 4.18986 0.385737
24 2 31.7023 4.04712 0.38683
25 2 35.6026 4.17219 0.126159
26 2 39.8206 3.84471 0.0267957
27 2 43.8377 4.03525 0.122604
28 2 47.6473 4.09638 0.199248
29 2 51.4598 3.87557 0.0877111
30 2 55.4241 4.07212 0.100496
31 2 0.141603 8.11835 0.108593
32 2 4.07512 8.06188 0.211492
33 2 8.02576 8.06862 0.166305
34 2 12.1053 8.18688 0.142733
35 2 15.9143 8.09135 0.197215
36 2 19.7177 8.15169 0.321312
37 2 23.6417 7.9349 0.195946
38 2 27.7254 8.15707 0.272481
39 2 31.658 8.26549 0.303307
40 2 35.6258 8.08702 0.264111
41 2 39.6885 7.8446 0.340469
42 2 43.412 8.07112 0.329684
43 2 47.3774 8.09224 0.277673
44 2 51.3438 8.11387 0.0375165
45 2 55.4015 8.01325 0.255368
46 2 0.0938476 12.0794 0.267136
47 2 4.0102 12.0651 0.338314
48 2 8.01265 12.1423 0.123165
49 2 11.976 12.1171 0.298229
50 2 15.9543 12.0068 0.0975305
51 2 19.8557 11.9068 0.139471
52 2 23.8383 12.1403 0.203922
53 2 27.7411 12.2022 0.178784
54 2 31.6434 12.2976 0.278284
55 2 35.412 12.151 0.218967
56 2 39.7084 11.9595 0.0925169
57 2 43.3867 11.9505 0.291696
58 2 47.428 11.9912 0.161385
59 2 51.5731 11.9209 0.303172
60 2 55.3656 11.8849 0.24939
61 2 -0.122074 15.9684 0.270652
62 2 3.95242 15.9673 0.251777
63 2 8.01078 16.0647 0.194981
64 2 12.0909 16.1637 0.199058
65 2 16.0422 16.0119 0.30475
66 2 19.8619 15.9637 0.175826
67 2 23.5129 15.9174 0.15391
68 2 27.7373 16.0573 0.116043
69 2 31.7923 16.1595 0.298173
70 2 35.6632 16.0609 0.203523
71 2 39.4978 15.857 0.222813
72 2 43.4364 16.0538 0.164769
73 2 47.3084 15.7094 0.0882049
74 2 51.3604 16.0717 0.145325
75 2 55.3118 15.7726 0.1894
76 2 -0.198865 19.9304 0.177098
77 2 3.96325 20.1189 0.255832
78 2 7.82818 19.9089 0.109527
79 2 11.792 19.8806 0.318443
80 2 15.8836 19.9706 0.355904
81 2 19.9462 20.0144 0.349941
82 2 23.7976 19.9815 0.194099
83 2 27.5716 19.7539 0.0224185
84 2 31.5938 20.0026 0.157129
85 2 35.6699 19.956 0.269922
86 2 39.6664 19.7773 0.253432
87 2 43.5119 19.8149 0.171121
88 2 47.5937 19.8635 0.289147
89 2 51.4094 19.975 0.333718
90 2 55.3708 19.8449 0.040184
91 2 -0.137052 23.9316 0.235855
92 2 3.80828 23.8013 0.272092
93 2 7.70305 23.9586 0.276624
94 2 11.9637 24.0431 0.0863883
95 2 15.7116 23.7743 0.228458
96 2 19.7954 23.8591 0.0806291
97 2 23.7532 23.7091 0.0766993
98 2 27.8826 23.8754 0.41947
99 2 31.926 24.059 0.186672
100 2 35.7583 23.8375 0.250777
101 2 39.6304 23.8171 0.226881
102 2 43.5658 23.7241 0.396858
103 2 47.5901 23.8148 0.350184
104 2 51.3711 23.9102 0.348092
105 2 55.1865 23.9251 0.151239
106 2 -0.0205355 27.9411 0.178074
107 2 3.73433 27.8617 0.114941
108 2 8.14715 27.7464 0.381593
109 2 11.9146 27.7907 0.269645
110 2 15.6893 27.7993 0.259531
111 2 19.7447 27.6762 0.0264042
112 2 23.8473 27.6078 0.300141
113 2 27.8342 27.9242 0.312752
114 2 31.7831 27.9064 0.286607
115 2 35.566 27.81 0.171704
116 2 39.7697 27.9118 0.111716
117 2 43.5553 27.8109 0.252564
118 2 47.5067 27.8704 0.233969
119 2 51.1526 27.7047 0.393681
120 2 55.3215 27.8797 0.0807777
121 2 -0.0645196 31.914 0.250938
122 2 4.02738 31.7093 0.203387
123 2 8.03806 31.918 0.310962
124 2 12.0272 31.785 0.31015
125 2 15.8423 31.7505 0.293438
126 2 19.8029 31.6922 0.276381
127 2 23.6433 31.5483 0.276627
128 2 27.7268 31.7535 0.133117
129 2 31.6278 31.534 0.100839
130 2 35.5449 31.6443 0.329641
131 2 39.4465 31.7085 0.267161
132 2 43.3732 31.7365 0.257609
133 2 47.2231 31.7946 0.20246
134 2 51.39 31.7126 0.189965
135 2 55.214 31.9364 0.141678
136 2 0.203841 35.8664 0.0270993
137 2 4.00916 35.7217 0.234754
138 2 8.03724 35.7516 0.305402
139 2 12.086 35.7842 0.269668
140 2 15.7267 35.6994 0.0711938
141 2 19.7449 35.8038 0.00123452
142 2 23.7219 35.6668 0.314393
143 2 27.6219 35.6653 0.265619
144 2 31.6044 35.6133 0.208557
145 2 35.3518 35.5942 0.265591
146 2 39.3071 35.6327 0.256458
147 2 43.448 35.8526 0.160613
148 2 47.2846 35.6086 0.293222
149 2 51.3517 35.5558 0.27046
150 2 55.5604 35.6668 0.320974
151 2 0.208453 39.7337 0.182789
152 2 4.08064 39.6404 0.256516
153 2 7.95824 39.5433 0.230987
154 2 11.8824 39.6988 0.169867
155 2 15.96 39.5995 0.449502
156 2 19.7132 39.6577 0.33359
157 2 23.7582 39.5668 0.300013
158 2 27.6993 39.7156 0.401633
159 2 31.5309 39.5507 0.302681
160 2 35.5771 39.4956 0.269616
161 2 39.3815 39.7111 0.190024
162 2 43.4176 39.4545 0.239987
163 2 47.5511 39.8482 0.229206
164 2 51.6746 39.6348 0.297182
165 2 55.5725 39.7676 0.23264
166 2 0.199658 43.6013 0.260206
167 2 3.9786 43.6903 0.0450665
168 2 8.02061 43.6183 0.274276
169 2 11.7527 43.5874 0.312673
170 2 15.7005 43.8086 0.181164
171 2 19.8569 43.5966 0.355969
172 2 23.6969 43.6879 0.162329
173 2 27.7721 43.6997 0.33151
174 2 31.7911 43.5896 0.202795
175 2 35.6082 43.4251 0.348797
176 2 39.6376 43.5746 0.18548
177 2 43.4974 43.5358 0.213743
178 2 47.4262 43.4483 0.292686
179 2 51.5995 43.6953 0.265814
180 2 55.3563 43.707 0.315838
181 2 0.0272631 47.6708 0.306965
182 2 3.76534 47.6129 0.0781491
183 2 7.73123 47.6327 0.140014
184 2 11.7875 47.6336 0.297071
185 2 15.799 47.7279 0.139894
186 2 20.0329 47.6336 0.131426
187 2 23.9912 47.5737 0.332886
188 2 27.6737 47.6994 0.222722
189 2 31.627 47.6032 0.365243
190 2 35.6825 47.3803 0.147805
191 2 39.3829 47.5023 0.161967
192 2 43.6471 47.7204 0.280689
193 2 47.5425 47.6186 0.0923891
194 2 51.2384 47.6169 0.136892
195 2 55.5214 47.643 0.374601
196 2 0.102083 51.6863 0.292
197 2 4.0646 51.5407 0.297417
198 2 7.76094 51.7146 -0.00675566
199 2 11.7268 51.4309 0.166587
200 2 15.8403 51.6771 0.200741
201 2 20.0337 51.4791 0.108717
202 2 23.5224 51.3875 0.178139
203 2 27.6608 51.7057 0.33755
204 2 31.7975 51.6038 0.291241
205 2 35.6528 51.5528 0.341255
206 2 39.5023 51.5772 0.282699
207 2 43.4188 51.4744 0.0362045
208 2 47.547 51.5789 0.22563
209 2 51.4769 51.5586 0.267536
210 2 55.4615 51.4643 0.25006
211 2 0.195654 55.5714 0.205615
212 2 4.03809 55.6548 0.209565
213 2 8.07716 55.5823 0.049232
214 2 11.9017 55.6268 0.170259
215 2 15.9409 55.5649 0.130811
216 2 19.7884 55.2949 0.194063
217 2 23.6441 55.4329 0.178748
218 2 27.8736 55.6206 0.169917
219 2 31.6542 55.7802 0.197068
220 2 35.5635 55.5255 0.202405
221 2 39.7281 55.4611 0.202115
222 2 43.3188 55.5418 0.299716
223 2 47.4455 55.5702 0.190872
224 2 51.4293 55.5068 0.169648
225 2 55.3579 55.5947 0.210303
226 2 -0.0160539 0.0770803 4.12638
227 2 3.82386 0.124868 4.07384
228 2 7.85902 0.16982 4.25521
229 2 11.7226 0.316633 4.05508
230 2 16.0341 0.190724 4.1839
231 2 19.772 0.215448 4.11601
232 2 23.5907 0.111546 4.31167
233 2 27.7023 0.260031 4.22317
234 2 31.6738 0.0297988 4.28802
235 2 35.6338 0.182251 4.03775
236 2 39.5395 0.00706046 4.29553
237 2 43.6594 0.270631 4.19828
238 2 47.5516 0.133501 4.33585
239 2 51.4279 -0.00383442 4.28384
240 2 55.4973 0.0202619 4.25835
241 2 0.117794 3.93566 4.14196
242 2 3.9293 4.00827 4.27594
243 2 7.89437 4.23682 4.14793
244 2 11.8054 4.07469 4.07492
245 2 15.7633 4.10546 4.21615
246 2 20.0278 4.22709 4.24354
247 2 23.7796 4.2803 4.28501
248 2 27.7248 4.30248 4.19793
249 2 31.6283 4.1264 4.38474
250 2 35.6253 4.11559 4.07581
251 2 39.6879 3.96513 4.19497
252 2 43.6005 3.8687 4.15714
253 2 47.5065 3.9637 4.21841
254 2 51.506 4.05859 4.08316
255 2 55.3359 4.03483 4.0108
256 2 0.0746073 8.00343 4.28966
257 2 3.90676 8.13507 4.18194
258 2 7.79608 7.95612 4.26689
259 2 11.737 8.08417 4.16999
260 2 15.8324 8.06125 4.43734
261 2 19.9835 8.16354 4.24981
262 2 24 7.96726 4.27812
263 2 27.7212 8.31097 4.15449
264 2 31.7515 8.13932 4.23454
265 2 35.5728 7.94407 4.17216
266 2 39.4728 7.81627 4.13459
267 2 43.5255 8.02076 4.0536
268 2 47.3232 7.99999 4.1624
269 2 51.4844 8.03201 4.10487
270 2 55.458 8.08293 4.31676
271 2 -0.149613 12.1848 4.07057
272 2 3.9582 12.0048 4.32746
273 2 7.91152 12.0184 4.34379
274 2 11.6387 11.9714 4.10407
275 2 15.8268 12.116 4.20844
276 2 19.791 12.0253 4.26789
277 2 23.726 12.1343 4.12712
278 2 27.7817 12.038 4.28355
279 2 31.7025 12.1537 4.28817
280 2 35.9775 11.9408 4.20166
281 2 39.6117 11.8873 4.36459
282 2 43.5062 11.9041 4.25568
283 2 47.6165 11.8908 4.30617
284 2 51.4003 11.9588 4.26791
285 2 55.2733 11.9421 4.18127
286 2 -0.128947 16.051 4.03653
287 2 3.91852 16.0144 4.12079
288 2 7.6785 16.0961 4.2105
289 2 11.9381 15.982 4.03531
290 2 15.7893 15.9749 4.26925
291 2 19.6078 15.9708 4.23191
292 2 23.8412 15.9087 4.23908
293 2 27.7807 16.181 4.24108
294 2 31.8112 15.9898 4.41998
295 2 35.6703 16.0097 4.30629
296 2 39.5825 15.8236 4.28895
297 2 43.7874 15.837 4.3657
298 2 47.6643 15.7812 4.05757
299 2 51.3157 15.9343 4.3026
300 2 55.2519 16.0617 4.14501
301 2 0.000671009 19.9717 4.18583
302 2 3.87529 19.8213 4.26219
303 2 7.95827 19.9546 4.26523
304 2 11.7976 19.9818 4.34793
305 2 15.9474 20.0193 4.28091
306 2 19.909 19.8875 4.36731
307 2 23.8914 19.6857 4.22146
308 2 27.5976 20.1521 4.10176
309 2 31.5185 19.8893 4.16326
310 2 35.5575 19.9477 4.30971
311 2 39.4969 19.7677 4.27849
312 2 43.5252 19.7284 4.29366
313 2 47.4706 19.7686 4.28617
314 2 51.3786 19.8653 4.33198
315 2 55.2393 19.8166 4.17863
316 2 -0.161241 23.979 4.15537
317 2 3.83022 23.8724 4.16511
318 2 7.81126 23.9521 4.12224
319 2 11.9711 23.8195 4.26013
320 2 15.8291 23.9461 4.27671
321 2 19.7521 23.8326 4.28962
322 2 23.9004 24.0733 4.08648
323 2 28.0453 23.8489 4.34955
324 2 31.8427 23.9235 4.39409
325 2 35.7404 23.9339 4.2826
326 2 39.477 24.0089 4.20082
327 2 43.4007 23.8354 4.22639
328 2 47.345 23.9139 4.18643
329 2 51.4876 23.7762 4.23941
330 2 55.4736 23.8639 4.06739
331 2 0.037055 27.7859 3.99123
332 2 3.85769 27.8285 4.30584
333 2 7.80156 27.8237 4.22769
334 2 11.8528 27.5901 4.36905
335 2 15.9208 28.1393 4.17174
336 2 19.7829 27.7779 4.14103
337 2 23.69 27.7579 4.23712
338 2 27.6819 27.7846 4.27768
339 2 31.6207 27.8919 4.33579
340 2 35.6451 27.6541 4.20997
341 2 39.5639 27.8495 4.12728
342 2 43.5128 27.583 4.12561
343 2 47.5168 27.7526 4.20521
344 2 51.4116 27.6876 4.20035
345 2 55.2761 27.7775 3.93182
346 2 0.0344589 31.6157 4.12496
347 2 3.80838 31.6171 4.21627
348 2 7.87092 31.8255 4.2672
349 2 11.8175 31.8929 4.33677
350 2 15.7919 31.6268 4.15929
351 2 19.7645 31.5945 4.24772
352 2 23.656 31.6502 4.23318
353 2 27.6198 31.8805 4.08925
354 2 31.6916 31.7519 4.3308
355 2 35.7383 31.734 4.21471
356 2 39.5497 31.8486 4.22966
357 2 43.3295 31.7134 4.26771
358 2 47.4716 31.6329 4.43864
359 2 51.3358 31.594 4.33693
360 2 55.3175 31.9124 4.22204
361 2 -0.0683378 35.4985 4.30453
362 2 3.79869 35.6188 4.35968
363 2 8.03264 35.7847 4.41353
364 2 11.7616 35.7715 4.10377
365 2 15.885 35.6498 4.29001
366 2 19.8639 35.6938 4.28364
367 2 23.798 35.4385 4.27099
368 2 27.6517 35.8087 4.42382
369 2 31.5336 35.7198 4.26354
370 2 35.4533 35.7236 4.18508
371 2 39.4384 35.747 4.32781
372 2 43.4482 35.6118 4.11985
373 2 47.506 35.5018 4.25321
374 2 51.4471 35.5664 4.27116
375 2 55.3548 35.6412 4.21601
376 2 0.0339125 39.6751 4.0376
377 2 3.89103 39.6393 4.13214
378 2 7.8931 39.6338 4.25978
379 2 11.8157 39.6666 4.06083
380 2 15.8736 39.6429 4.24037
381 2 19.8162 39.6706 4.10429
382 2 23.7086 39.6701 4.23656
383 2 27.701 39.7685 4.24592
384 2 31.6388 39.6999 4.27018
385 2 35.4445 39.6835 4.40735
386 2 39.6178 39.4568 4.09204
387 2 43.5983 39.5306 4.31267
388 2 47.3308 39.4671 4.25008
389 2 51.4316 39.5505 4.3409
390 2 55.3792 39.7467 4.26435
391 2 0.030101 43.4882 4.32293
392 2 3.89258 43.7047 4.29244
393 2 7.88996 43.6621 4.1979
394 2 11.8302 43.5197 4.21771
395 2 15.6861 43.5038 4.13849
396 2 19.8266 43.7879 4.31225
397 2 23.7198 43.5224 4.24181
398 2 27.6126 43.602 4.27176
399 2 31.6032 43.6213 4.30661
400 2 35.4022 43.3725 4.27019
401 2 39.5813 43.5566 4.26912
402 2 43.5658 43.5643 4.20654
403 2 47.5544 43.4458 4.29875
404 2 51.427 43.5741 4.3112
405 2 55.3917 43.6187 4.23954
406 2 -0.0476233 47.6226 4.14373
407 2 3.93388 47.4888 4.08647
408 2 7.94706 47.7929 4.11549
409 2 11.6765 47.6083 4.31846
410 2 15.8045 47.5857 4.06835
411 2 19.506 47.4264 4.17266
412 2 23.7608 47.5311 4.32838
413 2 27.5701 47.6021 4.28763
414 2 31.7088 47.7017 4.23549
415 2 35.6891 47.509 4.32351
416 2 39.4103 47.4094 4.27062
417 2 43.2153 47.4599 4.04104
418 2 47.1227 47.3964 3.87808
419 2 51.3955 47.6501 4.0596
420 2 55.2598 47.4318 4.18946
421 2 0.139163 51.699 4.07088
422 2 3.87537 51.6443 4.27013
423 2 7.98076 51.6268 4.17914
424 2 11.8121 51.6027 4.05829
425 2 15.6619 51.5085 4.10603
426 2 19.6334 51.2632 4.22633
427 2 23.6945 51.4907 4.25268
428 2 27.836 51.4737 4.15049
429 2 31.5276 51.4769 4.2194
430 2 35.5671 51.575 4.39049
431 2 39.6126 51.4717 4.35462
432 2 43.4379 51.3716 4.27208
433 2 47.3829 51.4289 4.16712
434 2 51.4577 51.6144 4.13334
435 2 55.6369 51.6878 4.20103
436 2 0.059141 55.6988 4.0885
437 2 4.10968 55.5479 4.21934
438 2 7.96282 55.4537 4.20891
439 2 11.8533 55.7146 4.11732
440 2 15.8865 55.5139 4.06994
441 2 20.1 55.4831 4.27084
442 2 23.7791 55.4242 4.18158
443 2 27.6378 55.4465 4.17321
444 2 31.587 55.4025 4.31083
445 2 35.7542 55.4692 4.44428
446 2 39.6525 55.5199 4.20092
447 2 43.6649 55.3138 4.10374
448 2 47.4941 55.6199 4.13669
449 2 51.4733 55.2309 4.09923
450 2 55.348 55.5969 4.1939
451 2 -0.248066 0.27653 8.09324
452 2 4.07766 0.0985364 8.31594
453 2 7.99526 0.101 8.26308
454 2 11.8553 0.445663 8.07261
455 2 15.6997 0.00755495 8.13302
456 2 19.6229 0.17916 8.03888
457 2 23.6383 0.110255 8.19123
458 2 27.4438 0.257917 8.26972
459 2 31.5518 -0.0379572 8.06736
460 2 35.3205 0.000958431 8.30635
461 2 39.61 0.0611073 8.19262
462 2 43.5959 -0.193315 8.11146
463 2 47.5381 -0.0586393 8.21
464 2 51.4359 -0.0229058 8.30212
465 2 55.4322 -0.11793 8.25139
466 2 0.0428373 4.05932 8.18705
467 2 3.69585 4.14832 8.20154
468 2 7.82264 3.93765 8.03736
469 2 11.9773 4.06226 8.32479
470 2 15.9379 4.27564 8.04802
471 2 19.8529 4.05453 8.13979
472 2 23.5847 3.97703 8.22271
473 2 27.8425 4.06398 8.21693
474 2 31.502 4.16004 8.14416
475 2 35.5017 4.0196 8.34543
476 2 39.5334 3.97864 8.25133
477 2 43.5048 3.73248 8.0022
478 2 47.5771 4.03593 8.15685
479 2 51.3885 4.03568 8.11119
480 2 55.3585 3.95518 8.042
481 2 -0.196647 7.9861 8.3167
482 2 3.97103 8.11862 8.1598
483 2 7.87064 7.86902 8.16499
484 2 11.8102 8.00212 8.10701
485 2 15.8532 7.97897 8.29006
486 2 19.9142 8.14751 8.25804
487 2 23.887 7.92447 8.29041
488 2 27.713 7.89543 8.26489
489 2 31.6244 8.10608 7.99423
490 2 35.8254 7.85506 8.29465
491 2 39.553 7.89183 8.15002
492 2 43.4302 8.00118 8.27332
493 2 47.5825 7.74663 8.31105
494 2 51.6077 8.00885 8.13908
495 2 55.4358 7.87225 8.25381
496 2 -0.309335 12.0244 7.99813
497 2 3.79074 11.8268 8.1295
498 2 7.93938 12.1588 8.27225
499 2 11.7194 12.0544 7.81989
500 2 15.6142 11.9963 8.13237
501 2 19.8986 11.9156 8.21864
502 2 23.9172 12.0516 8.27047
503 2 27.6384 12.0992 8.3515
504 2 31.6399 12.0069 8.18618
505 2 35.6931 11.9457 8.28288
506 2 39.6255 12.0795 8.21833
507 2 43.6662 11.9167 8.04463
508 2 47.4627 11.8535 8.30411
509 2 51.2333 11.8256 8.20914
510 2 55.2346 11.9141 8.2145
511 2 -0.00402144 15.8627 8.3054
512 2 3.85517 15.9167 8.13588
513 2 7.64182 15.9489 8.17542
514 2 11.6691 16.1982 8.25519
515 2 15.7985 15.9006 8.27379
516 2 19.8922 15.9849 8.09404
517 2 23.9593 16.0017 8.22635
518 2 27.9247 16.135 8.13328
519 2 31.6914 15.8545 8.1068
520 2 35.5341 15.978 8.19183
521 2 39.7449 15.8994 8.22202
522 2 43.5572 15.9312 8.27279
523 2 47.6814 15.8668 8.2221
524 2 51.4311 15.9497 8.30763
525 2 55.2772 15.853 8.34253
526 2 0.108477 19.8828 8.37153
527 2 3.89903 19.9177 8.15792
528 2 7.90524 19.8434 8.15269
529 2 11.8855 19.9483 8.18673
530 2 15.8194 19.8722 8.25998
531 2 19.8418 19.8666 8.07416
532 2 23.6936 19.7609 8.07831
533 2 27.896 19.9149 8.18764
534 2 31.5508 19.9052 8.26074
535 2 35.6547 19.9539 8.21129
536 2 39.5509 19.9032 8.28024
537 2 43.4141 19.8957 8.24731
538 2 47.3337 19.8272 8.31552
539 2 51.2928 19.7486 8.34881
540 2 55.5471 19.8865 8.14982
541 2 -0.0478944 23.7507 8.10827
542 2 3.94524 23.8869 8.31162
543 2 7.7236 23.7518 8.0314
544 2 11.7567 23.9862 8.08032
545 2 15.7651 23.9157 8.29397
546 2 19.7106 23.7231 8.26353
547 2 23.7931 23.8045 8.17269
548 2 27.6838 23.8151 8.22514
549 2 31.7079 23.8103 8.39625
550 2 35.5938 23.8984 8.25203
551 2 39.5861 23.8466 8.2044
552 2 43.5134 23.553 8.25346
553 2 47.4629 23.8197 8.29442
554 2 51.5319 23.6493 8.31094
555 2 55.4087 23.5498 8.29987
556 2 -0.106616 27.7227 8.1037
557 2 3.93095 27.7846 8.28334
558 2 7.89954 27.7057 8.41727
559 2 11.7293 27.8653 8.23848
560 2 15.8102 27.9571 8.23473
561 2 20.0077 27.7584 8.18625
562 2 23.7899 27.7808 8.17391
563 2 27.5206 27.8465 8.27224
564 2 31.4639 27.9015 8.32524
565 2 35.5088 27.9756 8.14789
566 2 39.6971 27.7546 8.27493
567 2 43.3477 27.6248 8.21833
568 2 47.4542 27.7081 8.26104
569 2 51.365 27.3976 8.06644
570 2 55.2427 27.5457 8.15585
571 2 -0.00745451 31.5097 8.23622
572 2 3.89871 31.6783 8.36847
573 2 7.92266 31.8336 8.31587
574 2 11.6778 31.5735 8.17343
575 2 15.5149 31.8046 8.11549
576 2 19.8337 31.6465 8.27299
577 2 23.8558 31.7733 8.42698
578 2 27.4548 31.7739 8.07437
579 2 31.5296 31.6929 8.24123
580 2 35.518 31.8101 8.45152
581 2 39.5919 31.8459 8.09799
582 2 43.4435 31.6823 8.14953
583 2 47.4307 31.526 8.31701
584 2 51.5563 31.4445 8.15552
585 2 55.4133 31.6033 8.30115
586 2 -0.211884 35.7055 8.17353
587 2 3.75919 35.6851 8.16843
588 2 7.71356 35.7927 8.18504
589 2 11.8114 35.5289 8.12869
590 2 16.1133 35.8461 8.26994
591 2 19.8349 35.8746 8.2429
592 2 23.516 35.7426 8.19901
593 2 27.6504 35.5883 8.22785
594 2 31.6606 35.6022 8.29514
595 2 35.6472 35.8258 8.27041
596 2 39.6307 35.7289 8.36041
597 2 43.5748 35.8381 8.19583
598 2 47.4197 35.6725 8.17217
599 2 51.575 35.7213 8.25814
600 2 55.2751 35.4832 8.01803
601 2 -0.00349084 39.6149 8.39185
602 2 3.77356 39.7076 8.04368
603 2 7.66679 39.7151 8.26646
604 2 11.7177 39.6786 8.3174
605 2 15.9897 39.6576 8.14326
606 2 19.7864 39.6001 8.1526
607 2 23.545 39.4898 8.27139
608 2 27.7066 39.6144 8.35084
609 2 31.4585 39.5345 8.41793
610 2 35.4214 39.7799 8.25423
611 2 39.4878 39.501 8.0528
612 2 43.3618 39.6658 8.155
613 2 47.4329 39.6239 8.34249
614 2 51.4663 39.5567 8.23168
615 2 55.2782 39.7338 8.15917
616 2 -0.0873628 43.5705 8.20854
617 2 3.89669 43.7833 8.1544
618 2 7.88066 43.7774 8.051
619 2 11.7776 43.4891 7.91805
620 2 15.6931 43.6231 8.28207
621 2 19.539 43.6352 8.24211
622 2 23.5079 43.6781 8.20512
623 2 27.6426 43.77 8.24244
624 2 31.4264 43.6387 8.08722
625 2 35.7621 43.4797 8.17441
626 2 39.4737 43.6235 8.23713
627 2 43.4756 43.5404 8.29192
628 2 47.5354 43.3999 8.33245
629 2 51.4293 43.6697 8.15166
630 2 55.4864 43.4847 8.12328
631 2 0.0854919 47.5268 8.1853
632 2 3.86149 47.5608 8.09506
633 2 7.76101 47.6787 8.19622
634 2 11.7937 47.523 8.24614
635 2 15.4768 47.6299 8.07154
636 2 19.4672 47.4859 8.10137
637 2 23.6148 47.7751 8.17511
638 2 27.6876 47.6395 8.13577
639 2 31.7638 47.418 8.0746
640 2 35.374 47.3581 8.15101
641 2 39.7572 47.5716 8.1031
642 2 43.6792 47.4491 8.26179
643 2 47.5753 47.3424 8.09864
644 2 51.2686 47.719 7.98293
645 2 55.2603 47.4931 8.08344
646 2 -0.177847 51.5468 8.20796
647 2 4.08481 51.4663 8.19799
648 2 8.00933 51.5625 8.15428
649 2 11.8047 51.7659 8.33749
650 2 15.5058 51.6632 8.05316
651 2 19.6124 51.4657 8.09553
652 2 23.6113 51.5166 8.29234
653 2 27.7889 51.4637 8.43352
654 2 31.5707 51.62 8.16458
655 2 35.6913 51.589 8.42527
656 2 39.6298 51.4133 8.30449
657 2 43.6225 51.3611 8.30966
658 2 47.3423 51.4874 8.24
659 2 51.3948 51.2328 8.30941
660 2 55.5823 51.5189 8.17929
661 2 -0.120583 55.4446 8.21345
662 2 3.86466 55.5372 8.14863
663 2 7.99429 55.4757 8.19337
664 2 11.8711 55.5225 8.12314
665 2 15.609 55.5706 8.0385
666 2 19.8383 55.4482 8.12408
667 2 23.6504 55.5252 8.26855
668 2 27.504 55.5101 8.18334
669 2 31.4356 55.5142 8.37264
670 2 35.5951 55.4465 8.301
671 2 39.5179 55.5196 8.1414
672 2 43.6072 55.4115 8.06595
673 2 47.5001 55.4432 8.24478
674 2 51.4092 55.3595 8.24874
675 2 55.3018 55.3786 8.29304
676 2 0.067803 -0.0942264 12.1271
677 2 3.81046 0.0309885 12.0415
678 2 7.90082 0.123203 12.1898
679 2 12.0486 0.330617 11.9023
680 2 15.856 0.177118 12.3077
681 2 19.7243 -0.117038 12.3132
682 2 23.7098 -0.0736166 12.1573
683 2 27.4917 0.050428 12.061
684 2 31.4261 0.0688987 12.3336
685 2 35.529 -0.151697 12.0627
686 2 39.5011 -0.0665252 12.1078
687 2 43.4944 -0.12134 12.1731
688 2 47.376 -0.0772032 12.1305
689 2 51.276 0.0197552 12.1209
690 2 55.4195 0.0750456 12.2578
691 2 -0.244787 3.81647 12.1246
692 2 3.99559 4.16909 12.0924
693 2 7.85333 4.06954 11.96
694 2 11.6673 4.05172 12.1427
695 2 15.7594 4.09199 12.2048
696 2 19.7031 3.94432 12.109
697 2 23.5105 3.98717 12.2182
698 2 27.4991 3.79056 12.3165
699 2 31.5241 4.10851 11.9252
700 2 35.6559 4.02393 12.1719
701 2 39.4858 3.83753 12.3351
702 2 43.4902 3.9453 12.2286
703 2 47.4173 4.03257 12.0545
704 2 51.3533 3.78805 12.1317
705 2 55.5166 3.89689 12.2435
706 2 -0.100559 7.96238 12.2734
707 2 3.86576 8.0224 12.1779
708 2 7.89261 8.04345 12.2193
709 2 11.8163 7.96495 12.1861
710 2 15.9021 8.11236 12.2496
711 2 19.8087 8.03812 12.1862
712 2 23.717 7.81117 12.1522
713 2 27.6908 7.86491 12.1337
714 2 31.8186 8.09943 12.2092
715 2 35.6641 8.11584 12.1451
716 2 39.7253 8.01157 12.147
717 2 43.4842 8.04366 12.102
718 2 47.5362 7.78983 12.1141
719 2 51.4931 7.70347 12.2461
720 2 55.1778 7.86795 12.1585
721 2 -0.0601303 11.6782 11.9915
722 2 3.91205 11.9437 12.1278
723 2 7.81642 11.7128 12.2299
724 2 11.7471 11.8161 11.9993
725 2 15.9058 11.9962 12.0835
726 2 19.6735 12.15 12.1325
727 2 23.678 11.892 12.2228
728 2 27.6964 11.8855 12.1455
729 2 31.4791 11.9384 12.1413
730 2 35.5221 12.0571 12.0903
731 2 39.4551 11.9497 12.0481
732 2 43.5203 11.751 12.2022
733 2 47.4907 11.805 12.0267
734 2 51.3889 11.7191 12.0884
735 2 55.3016 11.7864 12.3052
736 2 0.0466818 15.7343 12.1448
737 2 3.98138 15.8866 12.0742
738 2 7.79742 15.8999 12.3114
739 2 11.8332 15.7088 12.1087
740 2 15.7142 16.0473 12.2896
741 2 19.741 15.8349 12.1045
742 2 23.522 15.973 11.9154
743 2 27.6878 15.8993 12.2703
744 2 31.5643 16.1146 12.1411
745 2 35.465 15.9523 12.2744
746 2 39.3895 15.9373 12.1289
747 2 43.3592 15.8852 12.1555
748 2 47.4798 15.7914 12.2968
749 2 51.4454 15.856 12.3307
750 2 55.4543 15.7618 12.1313
751 2 -0.13083 19.7866 12.337
752 2 3.77699 19.8412 12.2445
753 2 7.78748 19.7364 12.4233
754 2 11.9577 19.8694 12.2492
755 2 15.6946 19.8841 12.0675
756 2 19.9184 19.9127 12.018
757 2 23.7564 19.7328 12.2511
758 2 27.7241 19.8399 12.2824
759 2 31.7304 19.9634 12.2304
760 2 35.8003 19.9997 12.228
761 2 39.4405 19.8397 12.3148
762 2 43.5575 19.8367 12.1644
763 2 47.5386 19.7565 12.2946
764 2 51.4678 19.8214 12.3963
765 2 55.3508 19.6943 12.2253
766 2 -0.00971734 23.9659 12.1601
767 2 3.94016 23.7694 12.3255
768 2 7.73423 23.7682 12.2507
769 2 11.7352 23.6102 12.0912
770 2 15.8347 23.9849 12.1194
771 2 19.7608 23.8909 12.213
772 2 23.65 23.7028 12.1669
773 2 27.7479 23.6757 12.2656
774 2 31.6796 23.9468 12.3997
775 2 35.5054 23.7632 12.152
776 2 39.6098 23.9332 12.2945
777 2 43.7044 23.8532 12.2725
778 2 47.549 23.8587 12.4355
779 2 51.2131 23.7465 12.1783
780 2 55.3739 23.7359 12.3297
781 2 -0.08077 27.6792 12.2803
782 2 3.95163 27.6578 12.1236
783 2 7.79893 27.8806 12.3039
784 2 11.5809 27.7625 12.1727
785 2 15.7788 27.7884 12.1664
786 2 19.7746 27.7431 12.2419
787 2 23.6605 27.6203 12.3756
788 2 27.66 27.6247 12.112
789 2 31.7879 27.7764 12.4891
790 2 35.5993 27.7289 12.2817
791 2 39.5327 27.7896 12.1924
792 2 43.5678 27.4864 12.2568
793 2 47.5211 27.9224 12.2426
794 2 51.5258 27.6909 12.4204
795 2 55.2811 27.7079 12.2775
796 2 -0.179984 31.558 12.2431
797 2 3.79456 31.7074 12.1293
798 2 7.77807 31.7913 12.1681
799 2 11.8845 31.6399 12.133
800 2 15.8312 31.6804 12.256
801 2 19.634 31.6155 12.113
802 2 23.727 31.5149 12.2995
803 2 27.8729 31.7235 12.2383
804 2 31.5129 31.6158 12.2803
805 2 35.5882 31.7975 12.0968
806 2 39.5535 31.6199 12.322
807 2 43.2856 31.6951 12.1377
808 2 47.5108 31.7046 12.1553
809 2 51.3509 31.6214 12.0876
810 2 55.4628 31.8564 12.1222
811 2 -0.0656561 35.6124 12.0796
812 2 3.94147 35.6799 12.1313
813 2 7.84311 35.8041 12.198
814 2 11.9591 35.5219 12.1391
815 2 15.6932 35.4944 12.0374
816 2 19.7859 35.6681 12.3681
817 2 23.6198 35.6045 12.1283
818 2 27.6771 35.5794 12.2296
819 2 31.5221 35.4402 12.327
820 2 35.5489 35.8803 12.1213
821 2 39.6763 35.4967 12.2974
822 2 43.5745 35.7513 12.3084
823 2 47.4181 35.6652 12.1973
824 2 51.2934 35.5041 12.1463
825 2 55.3883 35.7759 12.1364
826 2 -0.213698 39.6125 12
827 2 3.81232 39.6295 12.256
828 2 7.73599 39.716 12.1158
829 2 11.8884 39.4197 12.1802
830 2 15.6938 39.6567 12.1896
831 2 19.7587 39.6769 12.1695
832 2 23.8959 39.5676 12.1244
833 2 27.7448 39.6077 12.3265
834 2 31.6994 39.6155 12.4248
835 2 35.4461 39.6693 12.164
836 2 39.625 39.5976 12.1797
837 2 43.6108 39.5357 12.2122
838 2 47.3533 39.4344 12.2623
839 2 51.4221 39.4747 12.0456
840 2 55.4921 39.5702 12.0944
841 2 -0.142845 43.5072 12.1379
842 2 3.76258 43.5486 12.3311
843 2 7.67643 43.6119 12.2307
844 2 11.6572 43.6703 12.1588
845 2 15.4582 43.6285 12.0178
846 2 19.7616 43.6696 12.0431
847 2 23.4105 43.5772 12.0595
848 2 27.5322 43.6182 12.0537
849 2 31.6333 43.7207 12.1309
850 2 35.547 43.7812 12.052
851 2 39.6799 43.5249 12.3065
852 2 43.6475 43.4543 12.3274
853 2 47.4217 43.5253 12.2026
854 2 51.524 43.4179 12.2291
855 2 55.1872 43.5118 12.1774
856 2 -0.0872659 47.5741 12.2036
857 2 3.78877 47.6698 12.2002
858 2 7.73922 47.582 12.1351
859 2 11.8226 47.7398 12.0235
860 2 15.5872 47.6318 11.9143
861 2 19.7461 47.6776 11.9529
862 2 23.6357 47.5868 12.1001
863 2 27.6756 47.5611 12.1905
864 2 31.6067 47.652 12.2267
865 2 35.7977 47.5205 12.1158
866 2 39.6841 47.3274 12.3399
867 2 43.4861 47.413 12.1637
868 2 47.4853 47.3959 12.1877
869 2 51.463 47.4627 12.1826
870 2 55.4019 47.3876 12.2693
871 2 0.0763873 51.5646 12.0347
872 2 4.01567 51.5313 11.9131
873 2 7.79163 51.5681 12.2052
874 2 11.9368 51.6688 12.1838
875 2 15.7567 51.5852 12.1296
876 2 19.6702 51.4653 12.0121
877 2 23.5962 51.4859 12.0542
878 2 27.7058 51.4697 12.2166
879 2 31.5492 51.3362 12.153
880 2 35.8123 51.3268 12.0158
881 2 39.5902 51.586 12.1457
882 2 43.6922 51.2586 12.1984
883 2 47.5397 51.1582 12.1014
884 2 51.3443 51.3804 12.2488
885 2 55.4222 51.3279 12.1899
886 2 -0.0533548 55.5297 12.1437
887 2 3.76875 55.457 12.1045
888 2 7.90718 55.3873 12.1888
889 2 11.9376 55.474 12.3129
890 2 15.9558 55.7022 12.1782
891 2 19.7466 55.4162 12.0869
892 2 23.5292 55.5061 12.1978
893 2 27.6485 55.2707 12.176
894 2 31.6239 55.2759 12.3018
895 2 35.7053 55.4893 12.1212
896 2 39.5274 55.4098 12.1699
897 2 43.5076 55.4165 12.147
898 2 47.5314 55.175 12.2961
899 2 51.4037 55.1896 12.2338
900 2 55.3146 55.4037 12.3049
901 2 59.3581 -0.0919568 16.1276
902 2 3.76067 -0.0466853 16.1359
903 2 8.09608 0.0220293 16.0305
904 2 11.8107 0.0492857 15.9871
905 2 15.67 0.162597 16.2663
906 2 19.6512 0.101504 16.1043
907 2 23.7841 0.0292768 16.2239
908 2 27.6259 -0.186316 16.2253
909 2 31.5948 -0.102637 16.1796
910 2 35.6014 -0.135321 16.1513
911 2 39.4903 -0.000486032 16.1117
912 2 43.5518 0.020413 16.2294
913 2 47.4736 0.0106454 16.0908
914 2 51.4643 0.0204706 16.1393
915 2 55.3041 -0.237438 16.2552
916 2 59.3463 3.83469 16.1535
917 2 4.10249 3.82756 16.0287
918 2 8.05278 3.94937 16.1495
919 2 11.9686 4.18667 16.2437
920 2 15.6433 4.06006 16.318
921 2 19.5644 4.08921 16.2037
922 2 23.6384 4.06105 16.2017
923 2 27.466 3.9028 15.9879
924 2 31.5939 4.06872 16.0961
925 2 35.5909 3.80138 15.9023
926 2 39.4033 3.89641 16.2188
927 2 43.6188 3.92817 16.0017
928 2 47.2682 4.04584 16.2884
929 2 51.3425 3.8993 16.2312
930 2 55.3519 3.9342 16.0918
931 2 59.3973 7.76165 16.0979
932 2 3.6848 7.79499 16.3532
933 2 7.82855 8.05719 16.1158
934 2 11.8475 7.92501 16.2444
935 2 15.711 8.02121 16.2316
936 2 19.5771 7.99359 16.0666
937 2 23.7417 7.90695 16.1836
938 2 27.5291 8.00864 16.1054
939 2 31.5338 7.79043 16.1922
940 2 35.4329 7.89794 15.9514
941 2 39.5326 7.96842 16.0317
942 2 43.5346 7.88976 16.1624
943 2 47.4127 7.98361 16.2777
944 2 51.327 7.86978 16.1291
945 2 55.3811 7.8878 16.2129
946 2 59.4155 11.9321 16.1203
947 2 3.96842 11.7724 16.2773
948 2 7.973 11.947 16.3092
949 2 12.1362 11.8594 16.1638
950 2 15.7747 11.8892 16.197
951 2 19.8634 11.8296 16.1485
952 2 23.6789 11.9192 16.2166
953 2 27.5298 11.8425 16.2353
954 2 31.5625 12.0397 15.9091
955 2 35.5227 12.0417 16.0178
956 2 39.5855 11.8916 16.213
957 2 43.4814 11.8469 16.1359
958 2 47.6113 11.6976 16.2094
959 2 51.475 11.995 16.1228
960 2 55.3092 11.8135 16.1418
961 2 59.3709 15.7592 16.1138
962 2 4.08193 15.7084 16.2802
963 2 7.84635 16.0337 16.2521
964 2 11.6762 15.9374 16.0248
965 2 15.7395 15.9232 16.2188
966 2 19.7792 15.853 16.1995
967 2 23.7216 15.8198 15.9595
968 2 27.8333 15.9533 16.1512
969 2 31.7854 15.7452 16.213
970 2 35.6641 15.9355 16.2555
971 2 39.7461 15.9232 16.2106
972 2 43.6375 15.7437 16.0678
973 2 47.5881 15.7196 16.3156
974 2 51.5077 15.8616 16.459
975 2 55.5348 15.9151 16.0228
976 2 59.2813 19.6004 16.1765
977 2 4.06094 19.7511 16.2945
978 2 7.99778 19.8412 16.2804
979 2 11.8899 19.927 16.2468
980 2 15.7777 19.7267 16.243
981 2 19.5133 19.8301 16.0028
982 2 23.5566 19.9843 16.1722
983 2 27.5194 19.6846 16.1711
984 2 31.6555 19.8409 16.2129
985 2 35.6896 19.7814 16.1981