ITEM: TIMESTEP
42500
ITEM: NUMBER OF ATOMS
14625
ITEM: BOX BOUNDS xy xz yz pp pp pp
0.0000000000000000e+00 5.9369999999999997e+01 0.0000000000000000e+00
0.0000000000000000e+00 5.9369999999999997e+01 0.0000000000000000e+00
-4.6537408269752945e-02 5.1786537408269410e+01 0.0000000000000000e+00
ITEM: ATOMS id type x y z
1 2 -0.00325329 0.124946 0.269839
2 2 4.02178 0.0924988 0.0713874
3 2 8.02553 0.131651 0.177927
4 2 11.9938 0.0279778 0.188964
5 2 15.7715 0.119452 0.0874363
6 2 19.6844 0.133775 0.187279
7 2 23.7092 0.149229 0.312251
8 2 27.86 -0.01502 0.310226
9 2 31.8331 -0.060356 0.249288
10 2 35.7655 0.079798 0.40573
11 2 39.5834 0.113806 0.0960309
12 2 43.5096 -0.00197564 0.375772
13 2 47.6722 0.186898 0.0251039
14 2 51.7522 0.0491852 0.296957
15 2 55.717 0.141494 0.0576516
16 2 0.0468858 4.04885 0.090243
17 2 3.97086 3.96995 0.246928
18 2 8.1098 4.06261 0.0632938
19 2 12.0944 3.81743 0.203251
20 2 16.2281 4.02389 0.179769
21 2 19.8247 3.93935 0.427824
22 2 23.5953 4.07385 0.211935
23 2 27.7096 3.90447 0.236368
24 2 31.6888 4.01853 0.29339
25 2 35.5416 3.9543 0.406813
26 2 39.6208 3.86383 0.204929
27 2 43.4795 3.73021 0.221725
28 2 47.667 4.06206 0.389087
29 2 51.4473 3.96239 0.168278
30 2 55.5514 4.14402 0.275556
31 2 0.116144 8.16929 0.357896
32 2 4.0952 7.82231 0.241243
33 2 8.02819 8.1036 0.263121
34 2 11.9504 7.98117 0.130915
35 2 15.886 8.03749 0.253539
36 2 20.0175 8.06871 0.162657
37 2 23.9191 8.01118 0.180362
38 2 27.7754 7.80889 0.41388
39 2 31.7426 7.91167 0.22211
40 2 35.7668 7.98961 0.0888742
41 2 39.6967 8.10326 0.199863
42 2 43.6032 8.04184 0.239537
43 2 47.5681 8.12646 0.277671
44 2 51.705 8.09281 0.271297
45 2 55.4227 7.89547 0.403721
46 2 0.241215 11.9549 0.219858
47 2 4.11762 11.9717 0.142873
48 2 7.81843 12.0158 0.315053
49 2 11.9163 12.0662 0.0609421
50 2 15.9902 11.9262 0.167501
51 2 19.9588 12.1768 0.0339645
52 2 23.8558 12.0039 0.17283
53 2 27.8092 11.9686 0.41072
54 2 31.7112 11.8565 0.166363
55 2 35.5745 11.8519 0.272355
56 2 39.6491 12.0476 0.211249
57 2 43.5516 11.7855 0.128684
58 2 47.5177 11.9266 0.223332
59 2 51.6452 12.128 0.198423
60 2 55.6422 11.9655 0.0662085
61 2 -0.0459001 16.0114 0.16371
62 2 3.87313 15.8798 0.21777
63 2 7.9076 15.7056 0.131174
64 2 11.8631 15.8897 0.0945782
65 2 15.932 16.0001 0.260251
66 2 19.8646 15.945 0.31641
67 2 23.7627 15.979 0.290258
68 2 27.6576 15.7628 0.122694
69 2 31.9356 15.726 0.242468
70 2 35.8891 16.0641 0.316863
71 2 39.7326 15.8916 0.274127
72 2 43.5562 15.8722 0.414225
73 2 47.7012 16.0056 0.511025
74 2 51.3433 15.8939 0.235079
75 2 55.6366 15.9104 0.436484
76 2 -0.0234607 19.8544 0.222661
77 2 4.26645 19.9013 0.215762
78 2 8.0587 19.9514 0.183796
79 2 11.8245 19.8888 0.108309
80 2 15.651 19.8338 0.150495
81 2 19.8056 19.998 0.142229
82 2 23.8298 19.717 0.250316
83 2 27.8639 19.8264 0.303396
84 2 31.6375 19.9205 0.14585
85 2 35.6235 19.8054 0.0874864
86 2 39.6928 19.8958 0.274713
87 2 43.3986 19.9908 0.107363
88 2 47.6027 19.7898 0.139834
89 2 51.4721 19.9012 0.190815
90 2 55.5223 19.8508 0.302629
91 2 0.154772 23.8181 0.32352
92 2 3.96015 23.7798 0.243051
93 2 8.15926 23.9405 0.221296
94 2 11.9577 23.8791 0.351292
95 2 15.8864 23.8749 0.366435
96 2 19.683 23.9434 0.297855
97 2 23.7351 23.6422 0.152288
98 2 27.6322 23.7197 0.228727
99 2 31.5221 23.8493 0.214066
100 2 35.5297 23.5113 0.164548
101 2 39.5004 23.9254 0.146279
102 2 43.5602 23.8498 0.22746
103 2 47.4201 23.658 0.276658
104 2 51.4876 23.8057 0.26308
105 2 55.4412 23.7024 0.270141
106 2 -0.238034 27.8254 0.148348
107 2 3.88014 27.767 0.259139
108 2 7.81099 27.6273 0.0960665
109 2 11.9839 27.8833 0.190128
110 2 15.8996 27.8877 0.3715
111 2 19.8197 27.8559 0.336824
112 2 23.9849 27.8858 0.128597
113 2 27.8914 27.7231 0.375262
114 2 31.6976 27.6888 0.192552
115 2 35.476 27.8105 0.161642
116 2 39.5514 27.6571 0.106129
117 2 43.422 27.6227 0.410495
118 2 47.5144 27.9373 0.39938
119 2 51.3883 27.9275 0.0876048
120 2 55.5174 27.4207 0.119259
121 2 0.0394384 31.7789 0.0779252
122 2 4.12973 31.5751 0.210105
123 2 7.96989 31.7586 0.10367
124 2 12.0121 31.6806 0.0974921
125 2 15.8364 31.8043 0.286788
126 2 19.8704 31.775 0.236618
127 2 23.8188 31.6479 0.285501
128 2 27.7253 31.5615 0.331731
129 2 31.6697 31.5592 0.11848
130 2 35.6458 31.6905 0.289945
131 2 39.5655 31.5712 0.137902
132 2 43.5859 31.716 0.268065
133 2 47.5154 31.7847 0.231202
134 2 51.6478 31.8317 0.276128
135 2 55.4569 31.8241 0.512006
136 2 0.129075 35.8172 0.210217
137 2 4.24101 35.7206 0.312822
138 2 8.12602 35.6482 0.256719
139 2 12.0429 35.853 0.288622
140 2 15.8677 35.7198 0.332541
141 2 19.6187 35.6841 0.24083
142 2 23.9117 35.6571 0.375312
143 2 27.8961 35.7556 -0.103618
144 2 31.6461 35.6411 0.226978
145 2 35.6947 35.7456 0.30587
146 2 39.4536 35.6946 0.240137
147 2 43.6183 35.6963 0.152411
148 2 47.5871 35.6854 0.165282
149 2 51.5249 35.6443 0.308474
150 2 55.4771 35.6529 0.2503
151 2 0.125232 39.8597 0.116588
152 2 3.99152 39.772 0.315649
153 2 7.96674 39.8444 0.208538
154 2 11.9279 39.8307 0.130214
155 2 15.9188 39.5843 0.241301
156 2 19.9308 39.5364 0.251176
157 2 23.6624 39.536 0.153132
158 2 27.7818 39.5725 0.27073
159 2 31.6557 39.7784 0.13785
160 2 35.5681 39.7316 0.175041
161 2 39.7213 39.7337 0.234318
162 2 43.511 39.6819 0.314205
163 2 47.5014 39.7095 0.400833
164 2 51.2421 39.5685 0.292378
165 2 55.3477 39.5507 0.411711
166 2 -0.0114785 43.6499 0.196397
167 2 4.03915 43.6718 0.281102
168 2 7.83185 43.6758 0.349996
169 2 11.9785 43.531 -0.0275764
170 2 15.574 43.5957 0.245369
171 2 19.7364 43.6225 0.0912127
172 2 23.6516 43.3628 0.117732
173 2 27.6599 43.5134 0.329962
174 2 31.776 43.4685 0.0918557
175 2 35.8067 43.6162 0.192504
176 2 39.7199 43.6123 0.154273
177 2 43.5401 43.5416 0.0514766
178 2 47.624 43.7199 0.120816
179 2 51.5094 43.6786 0.21447
180 2 55.5386 43.5224 0.349858
181 2 0.132 47.5316 0.257541
182 2 4.06607 47.7261 0.124837
183 2 8.04279 47.6215 0.217679
184 2 11.8366 47.5312 0.236354
185 2 15.7207 47.6727 0.164959
186 2 19.8556 47.6443 0.0701156
187 2 23.7347 47.5068 0.201873
188 2 27.6847 47.4107 0.331056
189 2 31.7478 47.4034 0.358382
190 2 35.4125 47.4891 0.0736839
191 2 39.6783 47.5253 0.184475
192 2 43.5628 47.5247 0.167987
193 2 47.526 47.505 0.293939
194 2 51.3914 47.5853 0.309359
195 2 55.3633 47.6264 0.275337
196 2 -0.0410391 51.409 0.209879
197 2 4.01 51.6013 0.106617
198 2 7.85614 51.6528 0.082813
199 2 12.0606 51.4607 0.288865
200 2 15.7628 51.4948 0.212489
201 2 19.8012 51.4957 0.000877285
202 2 23.746 51.4504 0.153283
203 2 27.6546 51.5199 0.243908
204 2 31.5721 51.3642 0.214782
205 2 35.5549 51.5409 0.0723482
206 2 39.5462 51.3177 0.243948
207 2 43.5666 51.4678 0.0323729
208 2 47.5772 51.5654 0.0364725
209 2 51.5903 51.5875 0.193916
210 2 55.4831 51.4592 0.165779
211 2 0.0596985 55.4655 0.245118
212 2 4.09834 55.3891 0.281134
213 2 8.0517 55.6014 0.189557
214 2 11.9001 55.5721 0.161558
215 2 15.8352 55.6561 0.311277
216 2 19.7136 55.5934 0.219948
217 2 23.5755 55.5932 0.296266
218 2 27.6092 55.4542 0.12619
219 2 31.7045 55.3035 -0.0753952
220 2 35.7776 55.2431 0.221094
221 2 39.7534 55.2701 0.171991
222 2 43.4775 55.4849 0.242979
223 2 47.4718 55.4842 0.238116
224 2 51.4385 55.7304 0.360638
225 2 55.6164 55.3073 0.127268
226 2 0.0484652 0.0401608 4.26818
227 2 4.04573 0.0207445 4.2847
228 2 7.92137 0.251545 4.11508
229 2 11.8993 0.183905 4.23034
230 2 15.9222 0.186445 4.17002
231 2 19.9259 0.160814 4.11181
232 2 23.7902 0.0573867 4.28709
233 2 27.8924 0.238753 4.21109
234 2 31.5625 0.0401346 4.21266
235 2 35.608 -0.0665641 4.32123
236 2 39.551 -0.0248624 4.18118
237 2 43.6069 0.0419374 4.30036
238 2 47.5294 -0.0819717 4.27816
239 2 51.4964 0.0127164 4.19267
240 2 55.399 -0.0373123 4.13984
241 2 0.0120581 4.08093 4.41859
242 2 3.97293 3.83029 4.29021
243 2 7.67902 4.05819 4.18051
244 2 11.7342 4.0643 4.44921
245 2 15.7143 4.16426 4.18959
246 2 19.6624 4.17609 4.28798
247 2 23.6239 3.97814 4.15746
248 2 27.6017 4.10843 4.1685
249 2 31.8554 3.92766 4.24659
250 2 35.7441 4.07302 4.07013
251 2 39.5859 4.06375 4.23603
252 2 43.5075 4.05739 4.11664
253 2 47.4877 4.01902 4.14514
254 2 51.5149 3.96944 4.14107
255 2 55.5071 4.16791 4.15639
256 2 -0.05318 8.08751 4.16046
257 2 3.85072 7.91589 4.17872
258 2 7.82797 8.04466 4.3317
259 2 11.7628 7.97334 4.31044
260 2 15.7492 8.11089 4.14125
261 2 19.7388 8.01298 4.05726
262 2 23.6729 8.1234 4.19404
263 2 27.5527 8.06477 4.36713
264 2 31.6284 7.92563 4.39063
265 2 35.6129 8.05857 4.03808
266 2 39.5874 7.79358 4.19794
267 2 43.7555 8.02971 4.1429
268 2 47.4253 7.90014 4.10308
269 2 51.366 7.91 4.22686
270 2 55.2303 8.12539 4.18709
271 2 0.0498757 12.0542 4.25729
272 2 4.03203 11.9786 4.16047
273 2 8.1725 11.8578 4.16801
274 2 11.9029 12.0011 4.15117
275 2 16.0135 11.9918 4.20389
276 2 19.7614 11.9849 4.31254
277 2 23.7292 11.864 4.26951
278 2 27.668 11.9817 4.23615
279 2 31.5705 11.996 4.10171
280 2 35.88 12.0652 4.1757
281 2 39.6337 11.8217 4.22405
282 2 43.7606 11.945 4.30165
283 2 47.4861 11.9878 4.27039
284 2 51.1977 11.8734 4.17545
285 2 55.4775 12.0691 4.34993
286 2 0.099891 15.8793 4.40169
287 2 3.91201 16.0405 4.08431
288 2 7.95402 15.904 4.29743
289 2 11.8684 16.1244 3.95258
290 2 15.829 15.9271 4.36969
291 2 19.8875 15.9652 4.34686
292 2 23.5837 15.7754 4.21514
293 2 27.6847 15.8419 4.23846
294 2 31.6649 16.0752 4.20722
295 2 35.7059 15.9058 4.2785
296 2 39.4687 15.9228 4.14823
297 2 43.6119 15.9471 4.32224
298 2 47.3598 15.6188 4.20518
299 2 51.3386 15.9099 4.16903
300 2 55.3916 15.858 4.29054
301 2 0.132598 19.8097 4.20487
302 2 3.91558 19.7407 4.34248
303 2 7.90482 19.9961 4.35142
304 2 11.9535 19.7832 4.2406
305 2 15.8223 19.8303 4.10665
306 2 19.6759 19.9686 4.20455
307 2 23.815 19.9855 4.30233
308 2 27.6385 19.8524 4.34531
309 2 31.6351 19.7556 4.18669
310 2 35.4798 19.8331 4.19319
311 2 39.5187 19.8682 4.30689
312 2 43.5445 19.8435 4.12904
313 2 47.5488 19.9015 4.09357
314 2 51.5906 19.8353 4.34309
315 2 55.3937 19.6797 4.40049
316 2 0.138445 23.7257 4.27781
317 2 3.80653 23.7763 4.26981
318 2 7.69124 23.8324 4.32476
319 2 11.9424 23.9626 4.25202
320 2 15.9188 23.8275 4.25487
321 2 20.0055 23.8876 3.94844
322 2 23.6336 23.8203 4.13155
323 2 27.6712 23.9192 4.24943
324 2 31.7566 23.5557 4.22946
325 2 35.6069 23.849 4.25382
326 2 39.417 23.7151 4.07149
327 2 43.5287 23.7368 4.14546
328 2 47.4961 23.7042 4.26325
329 2 51.3131 23.8741 4.05055
330 2 55.3691 23.654 4.26077
331 2 0.00205961 27.7796 4.00167
332 2 3.78628 27.7762 4.06476
333 2 8.1099 27.8254 4.15852
334 2 11.8655 27.9971 4.11754
335 2 15.7916 27.8368 4.20624
336 2 19.7111 27.8676 4.27424
337 2 23.7757 27.8259 4.35573
338 2 27.7353 27.595 4.25154
339 2 31.6596 27.8562 4.46948
340 2 35.699 27.8181 4.31103
341 2 39.5838 27.8947 4.19451
342 2 43.5962 27.5667 4.09595
343 2 47.5418 27.7413 4.25027
344 2 51.4276 27.8567 4.201
345 2 55.6376 27.8447 4.25621
346 2 -0.0989746 31.7489 4.13717
347 2 3.94856 31.8577 4.21332
348 2 7.82239 31.6872 4.21655
349 2 11.7481 31.8793 4.236
350 2 15.8361 31.9357 4.17528
351 2 19.918 31.8052 4.16193
352 2 23.79 31.7689 4.36949
353 2 27.7253 31.6329 4.21038
354 2 31.8497 31.6593 4.26227
355 2 35.7508 31.8644 4.152
356 2 39.5532 31.8146 4.18317
357 2 43.7705 31.7527 4.12585
358 2 47.6227 31.7502 4.15603
359 2 51.5643 31.7861 4.30421
360 2 55.3153 31.7196 4.29305
361 2 0.0868918 35.5422 4.18824
362 2 3.98828 35.8682 4.35789
363 2 7.88006 35.7898 4.27901
364 2 11.6767 35.7378 4.27931
365 2 16.039 35.7186 4.08556
366 2 19.8031 35.6075 4.13988
367 2 23.8411 35.675 4.063
368 2 27.892 35.7376 4.11267
369 2 31.8264 35.6734 4.22389
370 2 35.6159 35.6324 4.27734
371 2 39.4898 35.8635 4.15883
372 2 43.4812 35.5427 4.29725
373 2 47.5873 35.5115 4.20813
374 2 51.3979 35.6361 4.34608
375 2 55.5861 35.8552 4.27524
376 2 0.210323 39.7824 4.2371
377 2 3.99879 39.6382 4.28729
378 2 7.97551 39.6565 4.08453
379 2 11.9403 39.3857 4.21458
380 2 16.0078 39.8009 4.01573
381 2 19.8866 39.7671 4.20448
382 2 23.8173 39.5467 4.20004
383 2 27.7752 39.599 4.28006
384 2 31.86 39.5996 4.16136
385 2 35.6794 39.7796 4.26002
386 2 39.5548 39.7138 4.03017
387 2 43.5357 39.5724 4.07765
388 2 47.2928 39.6484 4.16998
389 2 51.4189 39.4374 4.17991
390 2 55.414 39.5934 4.16242
391 2 -0.295666 43.8406 4.2087
392 2 4.06039 43.5912 4.41777
393 2 7.80573 43.5914 4.31708
394 2 11.8532 43.4072 3.96787
395 2 16.1119 43.7265 4.18368
396 2 19.9192 43.5073 4.27411
397 2 23.7407 43.4404 4.02292
398 2 27.6344 43.6302 4.21894
399 2 31.566 43.7056 4.05489
400 2 35.7069 43.8167 3.94357
401 2 39.5449 43.6209 4.21499
402 2 43.26 43.5593 4.18771
403 2 47.4415 43.7598 4.1614
404 2 51.548 43.588 4.15096
405 2 55.3478 43.3008 4.1671
406 2 -0.159429 47.5712 4.37412
407 2 3.84707 47.6719 3.9696
408 2 8.01733 47.5837 4.11705
409 2 11.7912 47.6959 4.26177
410 2 15.9986 47.612 3.92934
411 2 19.8309 47.6948 4.12418
412 2 23.907 47.6033 4.22433
413 2 27.6696 47.5535 4.26002
414 2 31.7264 47.4702 4.2485
415 2 35.5359 47.6225 4.18083
416 2 39.4979 47.4695 4.16559
417 2 43.4796 47.857 4.15306
418 2 47.4091 47.6915 4.04884
419 2 51.4959 47.7151 4.14315
420 2 55.3397 47.638 4.16608
421 2 -0.0075638 51.5062 4.35505
422 2 3.95234 51.5291 4.192
423 2 7.72543 51.53 4.13846
424 2 11.7251 51.7259 4.11707
425 2 16.0214 51.6466 4.22283
426 2 19.8242 51.6261 4.27053
427 2 23.8854 51.5765 4.30407
428 2 27.7507 51.6118 4.2521
429 2 31.4845 51.5148 4.09441
430 2 35.5497 51.6552 4.03647
431 2 39.2987 51.5723 4.26125
432 2 43.4933 51.5743 4.36129
433 2 47.5809 51.5235 4.29869
434 2 51.4767 51.781 4.23045
435 2 55.4149 51.6356 4.17792
436 2 0.0925113 55.5679 4.11411
437 2 3.96911 55.3886 4.14164
438 2 7.8528 55.385 4.33939
439 2 11.8086 55.6023 4.29852
440 2 15.789 55.5049 4.34093
441 2 19.7201 55.638 4.20509
442 2 23.8502 55.5143 4.19386
443 2 27.6743 55.4758 4.27695
444 2 31.5501 55.4239 4.05845
445 2 35.4022 55.6342 4.11151
446 2 39.856 55.5113 4.11683
447 2 43.5344 55.4234 4.18274
448 2 47.4832 55.2874 4.0546
449 2 51.577 55.4832 4.08722
450 2 55.5371 55.4348 4.39174
451 2 -0.214669 0.0147397 8.21523
452 2 3.87617 -0.00386894 8.3309
453 2 7.8632 -0.00394236 8.49097
454 2 11.7259 0.152288 8.20359
455 2 15.9014 0.0364113 8.31256
456 2 19.7286 0.0535986 8.19432
457 2 23.6423 0.0534298 8.0667
458 2 27.7539 0.125628 8.10452
459 2 31.6473 0.273491 8.01916
460 2 35.6919 -0.129488 8.12971
461 2 39.634 0.0840127 8.08632
462 2 43.5267 0.0728423 8.18695
463 2 47.5548 -0.0129353 8.21242
464 2 51.3002 0.126529 8.21613
465 2 55.3044 0.171073 8.0679
466 2 -0.230336 4.05097 8.21636
467 2 3.83497 3.8929 8.24751
468 2 7.87294 4.19344 8.2178
469 2 11.8906 4.15849 8.27209
470 2 15.737 4.01515 8.14194
471 2 19.6237 3.85454 8.18381
472 2 23.6751 3.85783 8.1753
473 2 27.5329 4.03661 8.19092
474 2 31.822 4.05819 8.16784
475 2 35.7236 4.36277 8.1741
476 2 39.3233 4.0154 8.06034
477 2 43.5155 4.02824 8.22412
478 2 47.282 3.98267 8.30222
479 2 51.3527 3.94367 8.14182
480 2 55.3584 4.149 8.13013
481 2 -0.144553 8.02708 8.01917
482 2 3.69314 7.88329 8.23709
483 2 7.77043 8.07573 8.07702
484 2 11.7928 7.99416 8.29622
485 2 15.8191 8.13959 8.13554
486 2 19.6365 8.09727 8.31783
487 2 23.7822 8.0307 8.3185
488 2 27.7811 8.07328 8.24722
489 2 31.6524 7.93012 8.1712
490 2 35.5115 8.0465 8.33024
491 2 39.5193 8.14635 8.16973
492 2 43.4574 7.88693 8.22218
493 2 47.3804 7.93477 8.29017
494 2 51.3065 7.79692 7.99774
495 2 55.2534 8.00532 8.27359
496 2 -0.0784282 12.0963 8.0682
497 2 3.95983 11.9458 8.16296
498 2 7.79867 11.8865 8.17761
499 2 11.7536 11.9778 8.00452
500 2 15.6736 12.0569 8.18935
501 2 19.7378 12.0882 8.34501
502 2 23.7955 11.9552 8.28066
503 2 27.6267 11.7479 8.22239
504 2 31.6806 11.9298 8.11332
505 2 35.4185 11.9436 8.11622
506 2 39.4912 12.1385 8.26244
507 2 43.5136 11.8499 8.30057
508 2 47.4908 12.0879 8.32469
509 2 51.3016 11.7681 8.28371
510 2 55.3223 12.0037 8.12574
511 2 0.0640877 15.8995 8.21459
512 2 4.06114 15.6374 8.39762
513 2 7.71474 15.8487 8.13293
514 2 11.8466 15.9492 8.09259
515 2 15.8279 16.0623 8.18873
516 2 19.8585 15.9105 8.37027
517 2 23.858 15.9435 8.26043
518 2 27.7824 16.1251 8.02032
519 2 31.6502 15.9089 8.21876
520 2 35.578 15.7094 8.25104
521 2 39.4828 15.9369 8.30185
522 2 43.48 15.8859 8.08236
523 2 47.5362 16.2355 8.31378
524 2 51.3759 16.0053 8.1806
525 2 55.2464 15.8683 8.12522
526 2 -0.15074 19.9526 8.1543
527 2 3.85096 19.7566 8.14832
528 2 7.8939 19.9548 8.16706
529 2 11.7511 20.0116 8.26339
530 2 15.8832 20.0452 8.13292
531 2 19.8989 19.867 8.21818
532 2 23.773 19.8858 8.20871
533 2 27.6404 20.2449 8.01874
534 2 31.5849 19.845 7.93619
535 2 35.6855 19.7771 8.37276
536 2 39.8918 19.8619 8.23736
537 2 43.486 19.7515 8.22391
538 2 47.585 19.9976 8.05063
539 2 51.4767 19.8396 8.12349
540 2 55.3628 19.8688 8.29005
541 2 -0.211741 23.7363 8.2986
542 2 4.04716 23.9536 8.21706
543 2 7.98233 23.8139 8.15953
544 2 11.9531 23.8595 8.18488
545 2 15.6954 23.7976 8.18175
546 2 19.5991 23.9162 8.20907
547 2 23.5288 23.826 8.27565
548 2 27.742 23.8665 8.29022
549 2 31.592 23.775 8.20169
550 2 35.6371 23.9775 8.36324
551 2 39.5485 23.8702 8.09691
552 2 43.368 23.9286 8.09035
553 2 47.2672 23.8614 8.24305
554 2 51.2136 23.7634 8.30537
555 2 55.2253 23.8005 8.08629
556 2 -0.00866608 28.0733 8.1285
557 2 4.05188 27.8758 8.18967
558 2 7.93502 27.9099 8.21731
559 2 12.0727 27.8963 8.17825
560 2 15.7418 27.8709 8.19712
561 2 19.8024 27.9035 8.16879
562 2 23.5851 28.0016 8.26956
563 2 27.4936 27.7344 8.17925
564 2 31.6767 28.0452 8.27152
565 2 35.6961 27.8883 8.41478
566 2 39.4473 27.7594 8.24498
567 2 43.4397 27.6802 8.25027
568 2 47.2972 27.8038 8.08319
569 2 51.3366 27.8309 8.2696
570 2 55.1846 27.7948 8.12969
571 2 0.024909 31.7878 8.14357
572 2 3.97467 31.9574 8.29273
573 2 7.73897 31.8187 8.28637
574 2 11.9684 31.7784 8.21092
575 2 15.7504 31.6622 8.15532
576 2 19.7564 31.8096 8.25265
577 2 23.819 31.7422 8.28103
578 2 27.6312 31.7532 8.20024
579 2 31.5195 31.7132 8.26471
580 2 35.4974 31.7472 8.29331
581 2 39.6459 31.749 8.1584
582 2 43.4971 31.5487 8.27259
583 2 47.4418 31.8183 8.24303
584 2 51.416 31.7403 8.19103
585 2 55.5846 31.7845 8.22729
586 2 -0.0748483 35.658 8.18993
587 2 4.06608 35.885 8.26043
588 2 7.8331 35.6443 8.374
589 2 11.7965 35.7102 8.30077
590 2 15.9522 35.6302 8.22065
591 2 19.7869 35.8859 8.39522
592 2 23.6311 35.7432 8.17592
593 2 27.813 35.4949 8.12323
594 2 31.6962 35.7434 8.12581
595 2 35.6523 35.5796 8.2
596 2 39.7183 35.7399 8.17393
597 2 43.3432 35.8265 8.18288
598 2 47.3781 35.7231 8.39924
599 2 51.3191 35.5127 8.16056
600 2 55.3134 35.7286 8.21355
601 2 0.0254936 39.5162 8.31017
602 2 3.80272 39.6629 8.21052
603 2 7.80123 39.7068 8.1477
604 2 11.8915 39.6761 8.12057
605 2 15.6166 39.6084 8.04587
606 2 19.7472 39.8692 8.18231
607 2 23.5745 39.72 8.18619
608 2 27.718 39.5202 8.20782
609 2 31.6469 39.6458 8.23684
610 2 35.8199 39.5697 8.03316
611 2 39.4881 39.8299 8.268
612 2 43.4546 39.7883 8.21195
613 2 47.3832 39.5854 8.03349
614 2 51.4631 39.6059 7.9573
615 2 55.2528 39.5662 8.2383
616 2 -0.0341474 43.6904 8.32156
617 2 3.99444 43.725 8.33319
618 2 7.9309 43.7439 8.17402
619 2 11.9579 43.7927 8.08587
620 2 15.7262 43.6535 8.02646
621 2 19.729 43.5661 8.15268
622 2 23.832 43.6471 7.9711
623 2 27.3851 43.5868 8.13675
624 2 31.566 43.7081 8.06184
625 2 35.5703 43.5077 8.16717
626 2 39.5575 43.6581 8.01909
627 2 43.5407 43.7352 8.26944
628 2 47.303 43.779 8.05555
629 2 51.4126 43.6005 8.1882
630 2 55.5258 43.409 8.2467
631 2 0.124976 47.6343 8.30335
632 2 3.85204 47.529 8.01639
633 2 8.06994 47.6503 8.18974
634 2 11.8209 47.7702 8.18114
635 2 15.5435 47.5688 8.1164
636 2 19.8995 47.5252 8.19312
637 2 23.5987 47.5166 8.14335
638 2 27.7093 47.4315 8.20451
639 2 31.769 47.515 8.03977
640 2 35.4459 47.7295 8.10777
641 2 39.4922 47.4734 8.02198
642 2 43.5266 47.7171 8.36955
643 2 47.3786 47.5702 8.36307
644 2 51.3232 47.4613 8.04487
645 2 55.4351 47.4874 8.1734
646 2 -0.270264 51.4093 8.26623
647 2 3.9186 51.5002 8.25388
648 2 7.74772 51.522 8.07936
649 2 11.7137 51.6576 8.07856
650 2 15.7534 51.4843 8.2498
651 2 19.7876 51.4102 8.10331
652 2 23.8022 51.5303 8.23582
653 2 27.6898 51.3492 8.24171
654 2 31.7517 51.5484 8.14635
655 2 35.505 51.5446 8.06086
656 2 39.3613 51.5293 8.21896
657 2 43.3895 51.6583 8.30299
658 2 47.6415 51.466 8.28511
659 2 51.2272 51.4916 8.02801
660 2 55.2013 51.4937 8.20752
661 2 -0.247704 55.2911 8.22
662 2 4.0425 55.5128 8.26647
663 2 8.076 55.5904 8.18452
664 2 11.8784 55.7102 8.11667
665 2 15.6906 55.518 8.1795
666 2 19.8691 55.4553 8.3223
667 2 23.7051 55.3704 8.20391
668 2 27.8067 55.5292 8.19809
669 2 31.6099 55.3258 8.22125
670 2 35.381 55.384 8.02268
671 2 39.5491 55.3792 8.01029
672 2 43.5648 55.5366 8.20637
673 2 47.7519 55.4123 8.28908
674 2 51.4236 55.4534 8.34352
675 2 55.4047 55.4678 8.34128
676 2 -0.0421897 0.0306348 12.3125
677 2 3.83532 -0.0975515 12.2074
678 2 7.94006 0.00588685 12.3069
679 2 11.7821 0.295725 12.2605
680 2 15.8238 0.0848044 12.3715
681 2 19.7227 -0.0619945 12.1479
682 2 23.6265 -0.12574 11.9459
683 2 27.5731 -0.0598478 12.16
684 2 31.4621 -0.133096 12.1038
685 2 35.5772 0.0799985 12.2585
686 2 39.2603 0.0515778 12.0478
687 2 43.2438 -0.0616233 12.0879
688 2 47.4703 -0.0128767 12.4993
689 2 51.2618 0.0872691 12.3857
690 2 55.4434 -0.0757446 12.1921
691 2 -0.0568401 4.07552 12.1689
692 2 3.83891 4.08224 12.105
693 2 7.74657 3.93826 12.0426
694 2 11.7559 4.04332 12.2288
695 2 15.7928 3.98377 12.1305
696 2 19.7784 3.94184 12.1126
697 2 23.5938 3.90961 12.2046
698 2 27.7173 4.05251 11.875
699 2 31.8811 4.03889 12.1389
700 2 35.759 3.87562 12.2384
701 2 39.5331 4.11511 12.2342
702 2 43.5761 3.93065 12.1457
703 2 47.3658 3.71482 12.3299
704 2 51.65 3.8706 12.2413
705 2 55.2437 4.07502 12.1716
706 2 -0.152894 7.97205 12.1019
707 2 3.74523 8.0214 12.2339
708 2 7.70985 7.92155 12.1375
709 2 11.8241 7.93819 12.1651
710 2 15.8363 7.83756 12.1085
711 2 19.6477 7.69683 12.1892
712 2 23.8054 7.95179 12.2451
713 2 27.5813 7.93845 12.1683
714 2 31.7256 7.86259 12.2175
715 2 35.7048 7.87823 12.0919
716 2 39.5614 8.26924 12.167
717 2 43.3791 7.95922 12.3098
718 2 47.6525 7.76328 12.0846
719 2 51.4018 8.01559 12.2408
720 2 55.2499 8.11575 12.1791
721 2 -0.142185 11.8891 12.0058
722 2 3.84123 11.9996 12.2912
723 2 7.77235 11.9295 12.0709
724 2 11.6294 11.892 11.9869
725 2 15.6599 11.9679 12.0393
726 2 19.8156 11.7485 12.3037
727 2 23.7624 11.9889 12.2554
728 2 27.6165 11.9871 12.2244
729 2 31.5228 12.0227 12.3328
730 2 35.5559 11.8695 12.4571
731 2 39.6243 12.0528 12.261
732 2 43.5544 11.9508 12.3917
733 2 47.6597 11.8906 12.1963
734 2 51.5265 11.8164 12.2712
735 2 55.3792 11.9178 12.1893
736 2 0.00158918 15.8901 12.212
737 2 3.7656 15.9665 12.3372
738 2 7.84524 15.8357 12.0153
739 2 11.8026 16.0079 12.1276
740 2 15.7782 15.8123 12.1641
741 2 19.757 15.8345 12.292
742 2 23.7793 16.0074 12.1776
743 2 27.4168 16.0192 11.931
744 2 31.4534 15.8435 11.9449
745 2 35.6417 15.9472 12.1466
746 2 39.337 15.6873 12.1667
747 2 43.6466 15.8529 12.1055
748 2 47.374 15.9341 12.3399
749 2 51.2031 15.9355 12.2124
750 2 55.3045 16.0169 12.2345
751 2 -0.0572481 19.7872 12.1114
752 2 3.89318 19.7752 12.4089
753 2 7.89626 19.9327 12.1732
754 2 11.884 19.9279 12.3672
755 2 15.6206 19.8705 12.1959
756 2 19.5846 19.7654 12.1343
757 2 23.5324 19.7452 12.2594
758 2 27.5873 19.9234 12.0307
759 2 31.7467 19.6013 12.224
760 2 35.7671 19.7459 12.2993
761 2 39.6717 19.7446 12.2641
762 2 43.4804 19.991 12.2522
763 2 47.5547 19.966 12.3431
764 2 51.616 19.8607 12.0058
765 2 55.4189 19.9077 12.2969
766 2 0.0980905 23.7626 12.0081
767 2 3.90383 23.7599 12.1487
768 2 7.89326 23.6488 12.3464
769 2 11.7371 23.9603 12.3048
770 2 15.5405 23.8188 12.1846
771 2 19.7502 23.7147 12.2879
772 2 23.6673 23.7306 12.0865
773 2 27.6526 23.6449 12.179
774 2 31.6854 23.6578 12.2015
775 2 35.3987 23.6581 12.3005
776 2 39.4224 23.8009 12.2693
777 2 43.4877 23.8689 12.1333
778 2 47.4097 23.7946 12.1035
779 2 51.2089 24.0003 12.0568
780 2 55.2649 23.9945 12.2996
781 2 0.0190938 27.7086 12.0572
782 2 4.00811 27.5798 12.2593
783 2 7.91484 27.9106 12.1751
784 2 11.8888 27.8146 12.2918
785 2 15.7285 27.64 12.2172
786 2 19.7098 27.6958 12.1819
787 2 23.4843 27.6582 12.2275
788 2 27.6563 27.6098 12.2883
789 2 31.6028 27.8475 12.2359
790 2 35.5753 27.8798 12.2312
791 2 39.5003 27.7612 12.4255
792 2 43.4189 27.7851 12.1458
793 2 47.5186 28.0367 12.1881
794 2 51.4142 28.0562 12.1687
795 2 55.0693 27.6824 12.0959
796 2 -0.0476653 31.7432 12.3038
797 2 3.91493 31.7407 12.1642
798 2 7.96078 31.9483 12.301
799 2 11.9557 32.0165 12.0994
800 2 15.8254 31.9339 12.3535
801 2 19.6331 31.6727 12.193
802 2 23.572 31.6295 12.157
803 2 27.5508 31.7783 12.1775
804 2 31.6568 31.6198 12.3416
805 2 35.5005 31.8399 12.1668
806 2 39.5747 31.8896 12.2173
807 2 43.5024 31.7286 12.2877
808 2 47.2869 31.9084 12.1423
809 2 51.3527 31.7668 12.2489
810 2 55.5811 31.8528 11.9092
811 2 -0.269597 35.8603 12.1727
812 2 3.81858 35.7419 12.1989
813 2 8.0327 35.7238 12.3575
814 2 11.6493 35.728 12.0526
815 2 15.7603 35.7828 12.2535
816 2 19.7356 35.8587 12.3465
817 2 23.6648 35.6777 12.1344
818 2 27.5477 35.6834 12.168
819 2 31.656 35.6334 12.24
820 2 35.5477 35.6391 12.1832
821 2 39.5238 35.9107 12.0381
822 2 43.5682 35.713 12.1924
823 2 47.4387 35.8223 12.4224
824 2 51.5162 35.4942 12.1639
825 2 55.1397 35.7071 12.2514
826 2 -0.275881 39.8696 12.1732
827 2 3.83194 39.5844 12.0786
828 2 7.63096 39.5291 12.1259
829 2 11.8216 39.7006 12.029
830 2 15.7169 39.6555 12.0084
831 2 19.636 39.6754 11.9957
832 2 23.6309 39.6263 12.2875
833 2 27.6247 39.7418 12.1291
834 2 31.5809 39.4819 12.0171
835 2 35.4836 39.6122 12.1155
836 2 39.3421 39.6998 12.1053
837 2 43.4675 39.7453 12.1543
838 2 47.4863 39.5367 12.107
839 2 51.3249 39.616 11.9912
840 2 55.1429 39.6697 12.3572
841 2 -0.183092 43.6652 12.225
842 2 3.80001 43.5786 12.3162
843 2 7.84712 43.7368 12.1588
844 2 11.6824 43.5454 12.1375
845 2 15.7564 43.6075 12.3244
846 2 19.5856 43.6939 12.0206
847 2 23.6551 43.7493 12.2026
848 2 27.7106 43.599 12.249
849 2 31.5297 43.641 12.243
850 2 35.6421 43.5741 12.2255
851 2 39.4499 43.6291 12.3533
852 2 43.3423 43.5668 12.2511
853 2 47.4917 43.5137 12.1713
854 2 51.2811 43.4907 12.07
855 2 55.3266 43.4044 11.9607
856 2 -0.147429 47.5072 12.11
857 2 3.74899 47.6937 12.1269
858 2 7.73944 47.5393 12.1416
859 2 11.7018 47.562 12.0846
860 2 15.7003 47.4101 12.2024
861 2 19.8362 47.6372 12.159
862 2 23.7003 47.522 12.2719
863 2 27.542 47.5398 11.9836
864 2 31.6535 47.7112 12.1834
865 2 35.4521 47.638 12.1227
866 2 39.2298 47.5832 12.1891
867 2 43.4708 47.5503 12.3267
868 2 47.3028 47.4898 12.3164
869 2 51.3142 47.5979 12.162
870 2 55.0702 47.3145 12.0992
871 2 -0.0488054 51.3968 12.1335
872 2 3.81627 51.5378 12.2525
873 2 7.6868 51.3681 12.1725
874 2 11.8033 51.3195 12.1527
875 2 15.8794 51.4264 12.0217
876 2 19.5547 51.4952 12.2107
877 2 23.697 51.5156 12.1182
878 2 27.5361 51.4209 12.2947
879 2 31.5444 51.4205 12.1917
880 2 35.7341 51.4245 12.0414
881 2 39.5368 51.6477 12.1629
882 2 43.533 51.8329 12.2523
883 2 47.2712 51.5394 12.0721
884 2 51.4444 51.4418 12.1775
885 2 55.2818 51.537 12.1825
886 2 -0.389543 55.5614 12.2104
887 2 3.75307 55.6441 12.1293
888 2 7.95031 55.3728 12.3605
889 2 11.9114 55.4206 12.1621
890 2 15.6518 55.4891 12.0622
891 2 19.7143 55.3263 12.1756
892 2 23.7113 55.5542 12.2409
893 2 27.3332 55.476 12.0446
894 2 31.328 55.3439 12.2885
895 2 35.5703 55.5162 12.1917
896 2 39.5717 55.504 11.8932
897 2 43.3474 55.6285 12.0733
898 2 47.4702 55.4748 12.2169
899 2 51.5363 55.495 12.1048
900 2 55.0826 55.327 12.2197
901 2 59.2862 0.164254 16.3122
902 2 3.90483 0.0426358 16.2911
903 2 7.74767 -0.179347 16.1342
904 2 11.8647 -0.116527 16.212
905 2 15.5298 0.0264444 16.2441
906 2 19.5284 0.177204 15.9671
907 2 23.6323 0.0460365 16.0396
908 2 27.6334 0.220291 16.1788
909 2 31.3097 0.0757527 15.9936
910 2 35.5865 0.0688431 16.0836
911 2 39.6184 -0.106314 16.1035
912 2 43.4286 -0.0264214 16.1156
913 2 47.4835 -0.0524243 16.34
914 2 51.2474 0.147235 16.2977
915 2 55.2991 -0.10613 16.3814
916 2 59.2253 4.18057 16.2471
917 2 3.62568 4.03764 16.0448
918 2 7.76287 3.87409 16.0476
919 2 11.7892 4.09898 16.2604
920 2 15.7499 3.91575 16.1586
921 2 19.69 3.98494 16.045
922 2 23.6206 3.79027 16.0825
923 2 27.6201 3.91467 16.0168
924 2 31.6694 4.09883 16.333
925 2 35.6529 3.99799 16.2555
926 2 39.5251 3.9395 16.1783
927 2 43.4631 3.77503 16.2627
928 2 47.3882 4.05885 16.2072
929 2 51.4891 3.97262 16.1709
930 2 55.2881 3.7427 16.0861
931 2 59.218 7.81696 16.2179
932 2 3.61962 8.00851 16.0909
933 2 7.78973 7.802 16.1354
934 2 11.6787 8.13593 16.1642
935 2 15.7758 7.80495 16.2269
936 2 19.6004 7.92879 16.0392
937 2 23.5441 7.692 15.9476
938 2 27.3479 7.89004 16.3113
939 2 31.3618 7.87442 16.1789
940 2 35.4171 7.90164 16.1901
941 2 39.5653 7.78561 16.0785
942 2 43.4531 7.74811 16.1508
943 2 47.6061 7.99169 16.3982
944 2 51.4097 8.1334 15.9797
945 2 55.2754 8.01037 16.0881
946 2 59.0439 11.8703 16.2257
947 2 3.74673 11.9292 16.053
948 2 7.76878 11.9369 16.075
949 2 11.6603 11.9612 15.7474
950 2 15.6682 11.9935 16.075
951 2 19.8584 11.7269 16.193
952 2 23.6247 11.7795 16.209
953 2 27.6115 11.7418 16.2741
954 2 31.4226 11.8219 15.9425
955 2 35.4001 11.7344 16.1733
956 2 39.4363 11.7568 16.108
957 2 43.5641 11.8385 16.1551
958 2 47.3829 11.8525 16.1122
959 2 51.2623 11.9628 16.2583
960 2 55.1101 11.8556 16.0845
961 2 59.1083 15.872 16.2353
962 2 3.9613 15.4736 15.978
963 2 7.78424 15.742 15.9861
964 2 11.5474 15.8807 16.1464
965 2 15.7653 15.769 16.2287
966 2 19.6793 15.747 16.1801
967 2 23.5898 15.7121 16.1699
968 2 27.7789 15.6613 16.1282
969 2 31.5872 15.7862 16.1434
970 2 35.447 15.6398 16.1
971 2 39.6385 15.7889 16.2874
972 2 43.3994 15.8239 15.9901
973 2 47.2948 15.9028 16.0667
974 2 51.2677 16.0236 16.083
975 2 55.2169 15.919 16.1266
976 2 59.1973 19.9002 16.0513
977 2 3.66518 19.8788 16.3143
978 2 7.78589 19.7255 16.1266
979 2 11.7926 19.8419 16.0822
980 2 15.7207 19.6598 16.2157
981 2 19.561 19.6918 16.2988
982 2 23.7229 19.589 16.1888
983 2 27.5735 19.752 16.1801
984 2 31.5128 19.7578 16.1065
985 2 35.6357 19.778 16.2407
986 2 39.6008 19.6639 16.0101
987 2 43.2872 19.7643 16.1354