LAMMPS (29 Oct 2020)
OMP_NUM_THREADS environment is not set. Defaulting to 1 thread. (src/comm.cpp:94)
  using 1 OpenMP thread(s) per MPI task
variable        NSTEPS          equal 50000
variable        THERMO_FREQ     equal 10
variable        DUMP_FREQ       equal 10
variable        TEMP            equal 300
variable        PRES            equal 1.0
variable        TAU_T           equal 1.0
variable        TAU_P           equal 5.0

units           metal
boundary        p p p
atom_style      atomic

neighbor	2.0 bin
neigh_modify	every 1

read_data       PTO_C.data
Reading data file ...
  triclinic box = (0.0000000 0.0000000 0.0000000) to (59.370000 59.370000 51.740000) with tilt (0.0000000 0.0000000 0.0000000)
  1 by 1 by 1 MPI processor grid
  reading atoms ...
  14625 atoms
  read_data CPU = 0.014 seconds

mass            1 87.620000
mass            2 207.200000
mass            3 47.867000
mass            4 15.999000
pair_style      deepmd /storage/liushiLab/huyihao/DPMD/L25/new-field-model/phase-diagram/15-15-15/300K_3.956_3.956_D/Sr-dope/PSTO_SS_example/1_DP_potential/compress01.pb

pair_coeff

thermo_style    custom step temp pe ke etotal press vol lx ly lz
thermo          ${THERMO_FREQ}
thermo          10

#min_style cg
#minimize 1.0e-4 1.0e-6 1000 10000

dump            1 all custom ${DUMP_FREQ} traj/*.lammpstrj id type x y z
dump            1 all custom 10 traj/*.lammpstrj id type x y z
dump_modify  1 sort id

velocity        all create ${TEMP} 539619
velocity        all create 300 539619
fix             1 all npt temp ${TEMP} ${TEMP} ${TAU_T} z ${PRES} ${PRES} ${TAU_P}
fix             1 all npt temp 300 ${TEMP} ${TAU_T} z ${PRES} ${PRES} ${TAU_P}
fix             1 all npt temp 300 300 ${TAU_T} z ${PRES} ${PRES} ${TAU_P}
fix             1 all npt temp 300 300 1 z ${PRES} ${PRES} ${TAU_P}
fix             1 all npt temp 300 300 1 z 1 ${PRES} ${TAU_P}
fix             1 all npt temp 300 300 1 z 1 1 ${TAU_P}
fix             1 all npt temp 300 300 1 z 1 1 5

timestep        0.002000
run             ${NSTEPS}
run             50000
Neighbor list info ...
  update every 1 steps, delay 10 steps, check yes
  max neighbors/atom: 2000, page size: 100000
  master list distance cutoff = 8
  ghost atom cutoff = 8
  binsize = 4, bins = 15 15 13
  1 neighbor lists, perpetual/occasional/extra = 1 0 0
  (1) pair deepmd, perpetual
      attributes: , newton on
      pair build: full/bin/atomonly
      stencil: full/bin/3d
      bin: standard
Per MPI rank memory allocation (min/avg/max) = 18.12 | 18.12 | 18.12 Mbytes
Step Temp PotEng KinEng TotEng Press Volume Lx Ly Lz 
       0          300   -116415.11    567.09011   -115848.02    -20840.72    182372.99        59.37        59.37        51.74 
      10    146.88059   -116124.27    277.64843   -115846.62   -19564.152    182370.46        59.37        59.37    51.739282 
      20    158.79101    -116147.1     300.1627   -115846.94   -13035.354    182361.48        59.37        59.37    51.736735 
      30    165.70477   -116159.78    313.23178   -115846.54   -4126.7009    182354.38        59.37        59.37     51.73472 
      40    142.96202    -116116.2    270.24116   -115845.96   -10395.745    182356.92        59.37        59.37     51.73544 
      50     151.6742   -116132.39    286.70979   -115845.68   -12362.165    182357.62        59.37        59.37    51.735638 
      60    141.68683   -116112.96    267.83067   -115845.13   -7311.9956    182354.32        59.37        59.37    51.734703 
      70    134.88622   -116099.56    254.97546   -115844.58   -10499.662    182353.84        59.37        59.37    51.734568 
      80    142.00175   -116112.48    268.42595   -115844.06   -9733.0813    182355.06        59.37        59.37    51.734913 
      90    149.05826   -116125.31    281.76488   -115843.54   -8034.8757     182361.6        59.37        59.37    51.736767 
     100    155.57152   -116136.95     294.0769   -115842.87   -15774.171    182374.89        59.37        59.37    51.740539 
     110    166.42914   -116156.87    314.60107   -115842.27   -17351.469    182381.25        59.37        59.37    51.742343 
     120    166.54712   -116156.54    314.82407   -115841.72   -13917.023    182375.14        59.37        59.37    51.740611 
     130    161.38066   -116146.22    305.05792   -115841.16   -14225.184    182361.22        59.37        59.37    51.736659 
     140    169.17997   -116160.51    319.80095   -115840.71   -12267.521    182341.45        59.37        59.37    51.731052 
     150    164.62592   -116151.26    311.19243   -115840.07   -9752.7588    182319.19        59.37        59.37    51.724737 
     160    166.53013   -116154.29    314.79197   -115839.49   -13543.022     182297.9        59.37        59.37    51.718697 
     170     164.0122      -116149    310.03233   -115838.97   -12268.306    182272.73        59.37        59.37    51.711557 
     180    161.89566   -116144.46    306.03143   -115838.43   -7131.5011    182241.82        59.37        59.37    51.702787 
     190     161.5774   -116143.15    305.42981   -115837.72   -6040.2744    182210.15        59.37        59.37    51.693801 
     200    165.03664    -116148.9    311.96882   -115836.93   -5114.7718    182181.62        59.37        59.37    51.685707 
     210     162.7478   -116143.73    307.64223   -115836.09    -5594.882    182158.24        59.37        59.37    51.679075 
     220    162.64365   -116142.75    307.44536   -115835.31   -10629.254    182139.24        59.37        59.37    51.673683 
     230    162.40433   -116141.59    306.99297   -115834.59   -13087.746     182119.6        59.37        59.37    51.668112 
     240    158.89688   -116134.22    300.36282   -115833.85   -11137.669    182097.16        59.37        59.37    51.661744 
     250    159.32416   -116134.25    301.17052   -115833.08   -10876.904    182074.45        59.37        59.37    51.655303 
     260    157.24601   -116129.51    297.24219   -115832.27   -11163.979    182052.99        59.37        59.37    51.649215 
     270    157.60652   -116129.38    297.92366   -115831.46   -10320.327    182033.47        59.37        59.37    51.643677 
     280    160.90522   -116134.83    304.15919   -115830.67   -11912.214    182015.66        59.37        59.37    51.638623 
     290    162.93319   -116137.89    307.99268    -115829.9   -12112.504    181996.47        59.37        59.37    51.633178 
     300    163.41728   -116137.96    308.90774   -115829.05   -9056.3931    181975.78        59.37        59.37    51.627309 
     310    164.95501   -116139.96    311.81452   -115828.15   -6801.8183    181957.97        59.37        59.37    51.622256 
     320    167.24567   -116143.38    316.14454   -115827.24   -6281.5949    181945.69        59.37        59.37    51.618773 
     330    167.79393   -116143.53    317.18093   -115826.34   -5815.2815    181939.02        59.37        59.37     51.61688 
     340    167.50625   -116142.12    316.63713   -115825.48   -7384.5222    181937.05        59.37        59.37    51.616321 
     350    167.62605   -116141.48    316.86358   -115824.61   -8394.5649    181936.38        59.37        59.37    51.616132 
     360    168.27955   -116141.84    318.09889   -115823.74   -7368.7709    181934.82        59.37        59.37    51.615689 
     370    167.75615   -116139.98    317.10952   -115822.87   -7809.6627    181934.02        59.37        59.37    51.615463 
     380    164.47562   -116132.86    310.90832   -115821.95   -9034.7908    181934.48        59.37        59.37    51.615593 
     390    164.20702   -116131.47    310.40059   -115821.07   -9955.2885     181934.3        59.37        59.37     51.61554 
     400    164.24446   -116130.65    310.47135   -115820.18   -11515.854    181931.37        59.37        59.37    51.614711 
     410    161.67687   -116124.91    305.61784   -115819.29   -12241.135    181923.11        59.37        59.37    51.612365 
     420    165.32795   -116131.03    312.51949   -115818.51   -9820.3486    181908.11        59.37        59.37    51.608111 
     430    166.34341   -116132.08      314.439   -115817.64   -8535.6672    181888.17        59.37        59.37    51.602453 
     440    166.92034   -116132.28    315.52959   -115816.75   -7868.3232    181865.32        59.37        59.37     51.59597 
     450    166.26101   -116130.12    314.28324   -115815.83   -6458.7095    181840.87        59.37        59.37    51.589035 
     460    167.21335      -116131    316.08345   -115814.91   -6589.7959    181815.67        59.37        59.37    51.581887 
     470    167.96326   -116131.48    317.50102   -115813.97    -6594.589    181789.53        59.37        59.37     51.57447 
     480    167.24009   -116129.16      316.134   -115813.02   -5031.8898    181763.12        59.37        59.37    51.566977 
     490    167.54083   -116128.73    316.70249   -115812.03   -4273.4684    181738.25        59.37        59.37    51.559921 
     500    170.45802   -116133.23    322.21686   -115811.01   -4689.3339    181716.05        59.37        59.37    51.553622 
     510     170.1221   -116131.57    321.58187   -115809.98   -5266.0884    181697.42        59.37        59.37    51.548339 
     520    170.97194   -116132.17    323.18832   -115808.99   -6640.8713    181682.41        59.37        59.37     51.54408 
     530    171.00676   -116131.24    323.25414   -115807.99   -7977.5294     181669.4        59.37        59.37    51.540389 
     540    170.96233   -116130.16    323.17015   -115806.99   -7653.1824    181658.11        59.37        59.37    51.537185 
     550    169.59659   -116126.55     320.5885   -115805.96   -7495.9385    181649.93        59.37        59.37    51.534864 
     560    171.44831   -116129.05     324.0888   -115804.96   -7596.6459    181645.15        59.37        59.37    51.533508 
     570    171.86744   -116128.84    324.88108   -115803.96   -6929.5292    181643.58        59.37        59.37    51.533063 
     580    169.76976   -116123.87    320.91584   -115802.95   -6790.7202    181645.88        59.37        59.37    51.533716 
     590    169.55461   -116122.47    320.50914   -115801.96   -6361.9368    181651.66        59.37        59.37    51.535356 
     600    169.89605   -116122.14    321.15457   -115800.99   -5178.0988    181660.54        59.37        59.37    51.537874 
     610    168.22339      -116118    317.99273   -115800.01   -5140.0491    181673.82        59.37        59.37    51.541643 
     620     169.7554   -116119.95    320.88869   -115799.06   -5054.8075    181692.08        59.37        59.37    51.546824 
     630     172.0044   -116123.25    325.13999   -115798.11   -5282.0449    181714.65        59.37        59.37    51.553226 
     640    172.43706   -116123.05    325.95784    -115797.1   -5856.7814    181740.09        59.37        59.37    51.560443 
     650    172.38115   -116121.92    325.85215   -115796.07   -6588.4274    181766.93        59.37        59.37    51.568058 
     660    173.69199   -116123.36    328.33004   -115795.03   -7271.7174    181793.64        59.37        59.37    51.575636 
     670    175.17292   -116125.07    331.12943   -115793.94   -7899.0439     181818.9        59.37        59.37    51.582801 
     680    176.14626   -116125.81    332.96933   -115792.84   -8608.9722    181841.87        59.37        59.37    51.589319 
     690    175.45141   -116123.39    331.65587   -115791.74   -9133.8201    181861.86        59.37        59.37    51.594991 
     700      173.883    -116119.3    328.69109   -115790.61   -8953.8115    181877.61        59.37        59.37    51.599459 
     710    173.69103   -116117.85    328.32822   -115789.52   -8863.9114    181888.46        59.37        59.37    51.602536 
     720     171.2891   -116112.21    323.78784   -115788.42   -8726.1673    181894.52        59.37        59.37    51.604256 
     730    175.45298   -116119.04    331.65882   -115787.38   -8094.2632    181895.99        59.37        59.37    51.604672 
     740    173.65953   -116114.56    328.26868   -115786.29   -7643.8151    181893.78        59.37        59.37    51.604047 
     750    175.04134   -116116.12    330.88071   -115785.24   -7606.1745    181889.02        59.37        59.37    51.602695 
     760    174.45714   -116113.92     329.7764   -115784.15   -7139.3377    181882.49        59.37        59.37    51.600842 
     770    175.52615   -116114.86    331.79714   -115783.07   -6735.9163    181875.07        59.37        59.37    51.598738 
     780    176.56548   -116115.74    333.76179   -115781.98   -7025.1937    181867.52        59.37        59.37    51.596595 
     790    176.62202   -116114.73    333.86868   -115780.86   -7050.4174    181860.23        59.37        59.37    51.594527 
     800    178.71764   -116117.61    337.83002   -115779.78    -6963.471    181853.77        59.37        59.37    51.592693 
     810    178.10567   -116115.34    336.67321   -115778.67   -7119.8363    181848.88        59.37        59.37    51.591306 
     820    177.97387   -116113.97    336.42407   -115777.54   -7537.8351    181846.15        59.37        59.37    51.590532 
     830    178.07373   -116113.03    336.61283   -115776.42   -7538.4909    181846.37        59.37        59.37    51.590594 
     840    176.79896    -116109.5    334.20313    -115775.3   -7992.6841    181850.13        59.37        59.37    51.591663 
     850    176.44605   -116107.74    333.53604   -115774.21   -8245.4478    181857.12        59.37        59.37    51.593646 
     860    178.07214   -116109.76    336.60984   -115773.15   -7695.9458    181867.51        59.37        59.37    51.596593 
     870    176.48765   -116105.66    333.61468   -115772.04   -7913.9725    181881.96        59.37        59.37    51.600693 
     880    178.74216   -116108.86    337.87637   -115770.98   -8028.6669    181900.11        59.37        59.37    51.605841 
     890    178.85865      -116108    338.09657    -115769.9   -7883.9066    181921.61        59.37        59.37    51.611942 
     900     178.5856   -116106.41    337.58042   -115768.83    -8393.106    181946.59        59.37        59.37    51.619027 
     910    179.87986   -116107.77    340.02696   -115767.74   -8390.3326    181974.12        59.37        59.37     51.62684 
     920    181.33607   -116109.42    342.77963   -115766.64   -8630.7578    182003.68        59.37        59.37    51.635224 
     930    182.94632   -116111.35    345.82349   -115765.53   -8855.4307    182034.95        59.37        59.37    51.644096 
     940    181.86792   -116108.17    343.78499   -115764.38   -9100.5945    182067.42        59.37        59.37    51.653307 
     950    181.89087   -116107.07    343.82838   -115763.24   -8770.7756    182100.13        59.37        59.37    51.662587 
     960     181.3322   -116104.84    342.77233   -115762.07   -9423.1145    182132.62        59.37        59.37    51.671805 
     970    182.36458   -116105.59    344.72384   -115760.87   -9468.8631    182163.93        59.37        59.37    51.680689 
     980    182.02443   -116103.74    344.08085   -115759.66   -9455.2034    182193.13        59.37        59.37    51.688973 
     990    181.08916   -116100.77     342.3129   -115758.45   -9978.6943    182219.47        59.37        59.37    51.696446 
    1000    181.37624   -116100.08    342.85558   -115757.23   -10245.502    182242.58        59.37        59.37    51.703003 
    1010    182.19878   -116100.43    344.41042   -115756.02   -10394.189    182262.42        59.37        59.37     51.70863 
    1020    181.46947   -116097.84     343.0318   -115754.81   -10583.771    182278.83        59.37        59.37    51.713286 
    1030    182.67251   -116098.91    345.30591   -115753.61   -11092.578    182291.46        59.37        59.37    51.716868 
    1040    183.50948   -116099.29    346.88804    -115752.4   -10806.817    182300.42        59.37        59.37    51.719412 
    1050    183.00862   -116097.13    345.94126   -115751.19   -10491.133    182305.96        59.37        59.37    51.720984 
    1060    182.50659   -116094.98    344.99227   -115749.98    -10521.88    182308.22        59.37        59.37    51.721624 
    1070    183.75528   -116096.16    347.35267   -115748.81   -10357.302    182307.89        59.37        59.37    51.721531 
    1080    185.27927   -116097.86    350.23348   -115747.63   -10245.187    182306.04        59.37        59.37    51.721005 
    1090    184.69072   -116095.54    349.12094   -115746.42   -10325.977    182303.09        59.37        59.37    51.720168 
    1100    185.63645   -116096.13    350.90864   -115745.22   -10143.431    182299.59        59.37        59.37    51.719176 
    1110    186.82239   -116097.16    353.15043   -115744.01    -9794.874    182296.83        59.37        59.37    51.718392 
    1120    186.03307   -116094.45    351.65837   -115742.79   -9959.4458    182295.28        59.37        59.37    51.717953 
    1130    186.39004    -116093.9    352.33316   -115741.57   -9662.3264    182294.89        59.37        59.37    51.717842 
    1140    187.79484   -116095.34    354.98865   -115740.35    -10117.31    182296.45        59.37        59.37    51.718284 
    1150    188.15285    -116094.8    355.66539   -115739.13   -10522.189    182299.98        59.37        59.37    51.719286 
    1160    187.64857   -116092.63    354.71216   -115737.92    -10438.18    182304.85        59.37        59.37    51.720667 
    1170    187.70256   -116091.52    354.81422    -115736.7   -10113.618    182311.52        59.37        59.37    51.722561 
    1180     186.2862   -116087.63    352.13688   -115735.49   -10727.248    182320.66        59.37        59.37    51.725152 
    1190    187.29806   -116088.34    354.04959   -115734.29   -10450.806    182331.42        59.37        59.37    51.728207 
    1200    186.50029    -116085.6    352.54157   -115733.06   -10393.507    182343.34        59.37        59.37    51.731588 
    1210    190.85056   -116092.63    360.76488   -115731.87    -11098.24    182356.05        59.37        59.37    51.735194 
    1220    188.66772   -116087.24    356.63866    -115730.6   -10628.676    182368.65        59.37        59.37    51.738768 
    1230    187.98651   -116084.72    355.35097   -115729.37    -10140.73    182381.03        59.37        59.37     51.74228 
    1240    190.32082   -116087.91    359.76351   -115728.15   -10494.949    182393.57        59.37        59.37     51.74584 
    1250    188.82062   -116083.78    356.92769   -115726.86   -10544.222     182406.2        59.37        59.37    51.749423 
    1260    191.28546    -116087.2    361.58697   -115725.61   -10752.252    182418.12        59.37        59.37    51.752803 
    1270    191.37364   -116086.08    361.75366   -115724.33   -10865.932    182428.29        59.37        59.37    51.755689 
    1280    192.29126   -116086.56    363.48823   -115723.07   -10571.228    182436.49        59.37        59.37    51.758015 
    1290     190.2924    -116081.5     359.7098   -115721.79   -10379.564    182442.86        59.37        59.37    51.759821 
    1300    192.14393   -116083.75    363.20974   -115720.54   -10640.004    182447.13        59.37        59.37    51.761034 
    1310    193.48481   -116085.01    365.74441   -115719.27   -10905.941     182449.2        59.37        59.37    51.761622 
    1320    192.44895    -116081.8    363.78631   -115718.01   -11290.471    182449.14        59.37        59.37    51.761602 
    1330    192.38203   -116080.41    363.65982   -115716.75   -11065.517    182446.45        59.37        59.37    51.760841 
    1340    194.30079   -116082.81    367.28686   -115715.52   -11207.403    182441.18        59.37        59.37    51.759346 
    1350     191.1574   -116075.56     361.3449   -115714.22   -10727.815    182433.83        59.37        59.37     51.75726 
    1360    192.73651   -116077.29     364.3299   -115712.96   -10751.544    182425.11        59.37        59.37    51.754785 
    1370    193.17816   -116076.86    365.16474   -115711.69   -10801.511    182414.97        59.37        59.37    51.751911 
    1380    194.18754    -116077.5    367.07277   -115710.43   -10871.749    182403.66        59.37        59.37    51.748701 
    1390    192.82886   -116073.63    364.50446   -115709.12   -10446.972    182391.64        59.37        59.37    51.745289 
    1400    196.39318   -116079.12    371.24209   -115707.88   -10151.338    182379.51        59.37        59.37     51.74185 
    1410    194.96651   -116075.09    368.54526   -115706.54    -10001.03    182367.97        59.37        59.37    51.738576 
    1420    197.13188   -116077.89    372.63847   -115705.26   -9751.9992    182357.37        59.37        59.37    51.735568 
    1430    197.25392   -116076.83    372.86916   -115703.96   -9691.2308    182347.91        59.37        59.37    51.732883 
    1440    196.80567   -116074.67    372.02182   -115702.65    -10154.35    182339.35        59.37        59.37    51.730456 
    1450     196.9119   -116073.57    372.22264   -115701.35    -10154.04    182331.47        59.37        59.37    51.728219 
    1460     197.0318   -116072.49    372.44928   -115700.04   -9816.0389    182324.67        59.37        59.37    51.726291 
    1470    197.47202   -116072.01    373.28143   -115698.73   -9861.2319    182319.15        59.37        59.37    51.724726 
    1480    198.14928   -116071.98    374.56165   -115697.41   -10083.554    182314.55        59.37        59.37    51.723421 
    1490    197.54111   -116069.54    373.41203   -115696.12   -9867.8756    182310.62        59.37        59.37    51.722306 
    1500    197.17636   -116067.53    372.72255   -115694.81   -10008.198    182307.25        59.37        59.37    51.721348 
    1510    201.07474   -116073.61    380.09165   -115693.52   -9732.8302    182303.88        59.37        59.37    51.720392 
    1520    198.30107   -116067.02    374.84858   -115692.17   -9547.7218    182300.55        59.37        59.37    51.719447 
    1530    198.14454   -116065.41     374.5527   -115690.86    -9919.813    182297.41        59.37        59.37    51.718558 
    1540    200.98561   -116069.49    379.92317   -115689.56   -10150.014    182293.75        59.37        59.37    51.717519 
    1550    199.72582   -116065.77    377.54179   -115688.23   -9758.3848    182289.05        59.37        59.37    51.716184 
    1560    200.29885   -116065.55    378.62499   -115686.92   -9764.3163    182283.59        59.37        59.37    51.714637 
    1570      201.265   -116066.04     380.4513   -115685.59   -9736.8009    182277.49        59.37        59.37    51.712905 
    1580    202.47154      -116067    382.73202   -115684.26   -9492.7052     182270.5        59.37        59.37    51.710923 
    1590    201.27946   -116063.39    380.47864   -115682.92   -9688.4613    182262.67        59.37        59.37      51.7087 
    1600    202.57643   -116064.52     382.9303   -115681.59   -9321.4101    182253.94        59.37        59.37    51.706225 
    1610    202.80889   -116063.64    383.36972   -115680.27   -9265.2668     182244.4        59.37        59.37    51.703518 
    1620    202.51228   -116061.76    382.80903   -115678.95   -9075.4036    182234.05        59.37        59.37    51.700582 
    1630     205.4124   -116065.92    388.29113   -115677.63   -9235.0841    182222.97        59.37        59.37    51.697438 
    1640    202.52504    -116059.1    382.83316   -115676.26   -9373.4081    182211.52        59.37        59.37     51.69419 
    1650    204.16603   -116060.87    385.93511   -115674.94    -9018.167     182200.1        59.37        59.37    51.690949 
    1660    203.20032    -116057.7    384.10964   -115673.59   -9250.8951    182189.01        59.37        59.37    51.687803 
    1670    204.25477   -116058.35    386.10287   -115672.25   -9339.8282    182178.04        59.37        59.37    51.684691 
    1680    205.73201   -116059.79    388.89529   -115670.89   -9184.0695    182167.25        59.37        59.37    51.681631 
    1690    203.46732   -116054.13    384.61434   -115669.52   -9178.2579    182156.62        59.37        59.37    51.678613 
    1700    204.56228   -116054.85    386.68416   -115668.17   -8677.6602    182146.04        59.37        59.37    51.675612 
    1710    205.41186    -116055.1    388.29011   -115666.81   -8976.9915     182136.3        59.37        59.37    51.672849 
    1720    205.00185   -116052.97    387.51508   -115665.45   -8686.3211    182127.64        59.37        59.37    51.670392 
    1730    208.59539   -116058.42    394.30794   -115664.11     -8473.72    182120.36        59.37        59.37    51.668328 
    1740    205.79871   -116051.74    389.02138   -115662.72   -8721.3459    182114.47        59.37        59.37    51.666655 
    1750    207.25545   -116053.15    391.77505   -115661.38    -8792.228    182109.56        59.37        59.37    51.665264 
    1760    207.78277   -116052.77    392.77185   -115659.99   -8455.9525     182105.3        59.37        59.37    51.664054 
    1770    208.64656   -116053.04    394.40467   -115658.64   -8614.8768    182101.77        59.37        59.37    51.663053 
    1780    206.88546   -116048.32    391.07567   -115657.24   -8191.9893    182099.29        59.37        59.37    51.662349 
    1790    209.35747   -116051.62    395.74851   -115655.88   -8233.0691    182098.38        59.37        59.37    51.662092 
    1800    209.94689   -116051.37    396.86269   -115654.51   -8661.6495    182098.56        59.37        59.37    51.662144 
    1810    208.39763   -116047.05    393.93412   -115653.11   -8478.2569    182098.87        59.37        59.37     51.66223 
    1820    211.80328   -116052.16    400.37181   -115651.79   -8552.9545    182099.27        59.37        59.37    51.662344 
    1830    210.63423   -116048.55    398.16195   -115650.39   -8189.7435     182099.8        59.37        59.37    51.662493 
    1840    210.01378   -116045.99    396.98913      -115649   -8005.6276    182100.53        59.37        59.37      51.6627 
    1850      211.037   -116046.57    398.92331   -115647.64   -8484.9672     182101.7        59.37        59.37    51.663034 
    1860    209.65981   -116042.57    396.32002   -115646.25   -9057.8275    182102.75        59.37        59.37    51.663332 
    1870    211.54484   -116044.75    399.88329   -115644.87   -8524.3798    182102.93        59.37        59.37    51.663384 
    1880    211.52505    -116043.3    399.84588   -115643.46   -8622.0972    182102.16        59.37        59.37    51.663165 
    1890    210.32803   -116039.65    397.58314   -115642.06   -8452.2421    182100.58        59.37        59.37    51.662717 
    1900     214.8516   -116046.83    406.13406    -115640.7   -7853.6068    182098.88        59.37        59.37    51.662232 
    1910    212.52487   -116041.03    401.73584   -115639.29   -8414.2443    182097.57        59.37        59.37    51.661862 
    1920    213.16318   -116040.86    402.94243   -115637.92   -8814.2877    182095.82        59.37        59.37    51.661364 
    1930    214.99596   -116042.94    406.40695   -115636.53   -8066.5947    182093.42        59.37        59.37    51.660684 
    1940    213.25763   -116038.24    403.12098   -115635.11   -8087.6174    182091.11        59.37        59.37    51.660028 
    1950    215.64644   -116041.38    407.63654   -115633.74   -8118.5336    182088.87        59.37        59.37    51.659393 
    1960    214.78152   -116038.31    406.00158   -115632.31   -7340.7981    182086.98        59.37        59.37    51.658857 
    1970    217.42441   -116041.94    410.99744   -115630.95   -7898.7555     182086.4        59.37        59.37    51.658692 
    1980    216.68981   -116039.13    409.60883   -115629.52   -8411.2243    182086.39        59.37        59.37     51.65869 
    1990    215.65684   -116035.76    407.65621   -115628.11   -8396.4459    182086.24        59.37        59.37    51.658646 
    2000    215.05096   -116033.22    406.51091   -115626.71   -8350.5478    182086.41        59.37        59.37    51.658696 
    2010    216.08428   -116033.78     408.4642   -115625.31   -8757.9275       182087        59.37        59.37    51.658863 
    2020    218.38029   -116036.73    412.80435   -115623.93   -8432.7347    182087.64        59.37        59.37    51.659046 
    2030    217.12684   -116032.93    410.43494    -115622.5   -8343.4931    182089.02        59.37        59.37    51.659436 
    2040     218.0946   -116033.35     412.2643   -115621.09    -8622.798    182091.14        59.37        59.37    51.660038 
    2050     216.9559   -116029.79    410.11182   -115619.68   -7852.8597    182093.28        59.37        59.37    51.660646 
    2060    217.64755   -116029.71    411.41924   -115618.29   -7726.9939    182096.06        59.37        59.37    51.661434 
    2070    217.25248   -116027.56    410.67244   -115616.89   -8505.0995    182099.78        59.37        59.37    51.662488 
    2080    219.90867    -116031.2    415.69344    -115615.5   -8014.2858     182103.8        59.37        59.37     51.66363 
    2090    219.17786   -116028.37    414.31199   -115614.06   -7859.2935    182108.55        59.37        59.37    51.664977 
    2100     220.0853   -116028.65    416.02733   -115612.62   -8380.1597     182114.1        59.37        59.37    51.666551 
    2110    221.27931   -116029.48    418.28435   -115611.19    -7476.456    182119.75        59.37        59.37    51.668154 
    2120    219.65854   -116024.97    415.22061   -115609.75   -7760.1162    182125.98        59.37        59.37    51.669922 
    2130    222.06943   -116028.12    419.77793   -115608.34   -8625.6164    182132.44        59.37        59.37    51.671753 
    2140    223.33028   -116029.08    422.16131   -115606.92   -8206.5568    182138.14        59.37        59.37    51.673372 
    2150    222.57367   -116026.23    420.73109    -115605.5   -8194.1805    182143.43        59.37        59.37    51.674872 
    2160    222.36525   -116024.42    420.33711   -115604.08   -8883.5847    182148.58        59.37        59.37    51.676332 
    2170    222.03103   -116022.38    419.70533   -115602.67   -7973.4374    182153.29        59.37        59.37     51.67767 
    2180    221.40992   -116019.77    418.53124   -115601.24   -8020.3155    182158.22        59.37        59.37    51.679068 
    2190    223.49422   -116022.28     422.4712   -115599.81   -8926.8998    182163.07        59.37        59.37    51.680446 
    2200    223.26425   -116020.43     422.0365   -115598.39   -8367.1107    182166.95        59.37        59.37    51.681545 
    2210    223.30248   -116019.06    422.10875   -115596.95   -8074.0603    182170.36        59.37        59.37    51.682514 
    2220    224.16873   -116019.27    423.74623   -115595.53   -8525.7445    182174.15        59.37        59.37    51.683587 
    2230    223.49558   -116016.57    422.47378    -115594.1   -8420.2827    182177.88        59.37        59.37    51.684646 
    2240    224.71553   -116017.45    424.77985   -115592.67   -8191.6441    182181.53        59.37        59.37    51.685682 
    2250    224.60746   -116015.79    424.57556   -115591.22   -9114.3681    182185.28        59.37        59.37    51.686746 
    2260    226.72698   -116018.39    428.58209   -115589.81   -8859.6056    182188.46        59.37        59.37    51.687649 
    2270    225.57964   -116014.76    426.41327   -115588.35    -8265.064    182191.54        59.37        59.37    51.688522 
    2280     226.6773   -116015.43    428.48819   -115586.94   -8516.0248    182195.38        59.37        59.37     51.68961 
    2290    227.71585   -116015.98    430.45135   -115585.53   -8399.1262    182200.12        59.37        59.37    51.690955 
    2300    227.27677   -116013.69    429.62135   -115584.07   -8844.1182    182205.83        59.37        59.37    51.692576 
    2310    227.75306   -116013.14    430.52169   -115582.62   -8897.2232     182211.7        59.37        59.37    51.694242 
    2320    230.48957   -116016.88    435.69452   -115581.19   -8859.4535    182217.82        59.37        59.37    51.695977 
    2330    228.52423   -116011.71    431.97943   -115579.73   -8498.5991    182224.72        59.37        59.37    51.697935 
    2340    228.40513   -116010.07    431.75431   -115578.32   -8391.1193    182232.87        59.37        59.37    51.700248 
    2350     230.1998   -116012.05    435.14677   -115576.91   -8659.5317    182242.44        59.37        59.37    51.702963 
    2360    228.71915    -116007.8    432.34789   -115575.45   -8922.0114    182253.17        59.37        59.37    51.706007 
    2370    229.22649   -116007.33    433.30691   -115574.03   -8873.5412    182264.11        59.37        59.37    51.709111 
    2380    230.68318   -116008.64    436.06049   -115572.58     -8797.65    182274.86        59.37        59.37    51.712159 
    2390     232.4377   -116010.52    439.37707   -115571.15   -9109.1811     182285.4        59.37        59.37     51.71515 
    2400    229.44551   -116003.41    433.72093   -115569.69   -8782.1525     182295.8        59.37        59.37    51.718101 
    2410    230.87375   -116004.67    436.42073   -115568.25   -8978.3877    182306.31        59.37        59.37    51.721083 
    2420    232.71929   -116006.71    439.90935   -115566.81   -9544.7818    182316.97        59.37        59.37    51.724108 
    2430    231.99852    -116003.9    438.54689   -115565.35   -9527.6168    182326.85        59.37        59.37    51.726911 
    2440    233.27695   -116004.88     440.9635   -115563.91   -9568.0653    182335.64        59.37        59.37    51.729402 
    2450    232.05097   -116001.07    438.64602   -115562.43    -9429.379    182343.39        59.37        59.37    51.731601 
    2460    233.60048   -116002.56    441.57506   -115560.98    -9202.166    182350.17        59.37        59.37    51.733524 
    2470    235.40819   -116004.55    444.99218   -115559.56   -8967.0598    182356.35        59.37        59.37     51.73528 
    2480    236.19031   -116004.59    446.47063   -115558.12   -9270.2989    182362.08        59.37        59.37    51.736904 
    2490    233.95124   -115998.89    442.23811   -115556.65   -9803.9872    182366.86        59.37        59.37    51.738262 
    2500    233.99611   -115997.53    442.32294    -115555.2   -9161.4069    182370.62        59.37        59.37    51.739327 
    2510    234.54193   -115997.09     443.3547   -115553.74   -9611.0175    182373.91        59.37        59.37     51.74026 
    2520    235.62526   -115997.71    445.40251    -115552.3   -9507.8512    182376.63        59.37        59.37    51.741032 
    2530    237.27425   -115999.37     448.5196   -115550.85   -9415.0177    182379.19        59.37        59.37    51.741758 
    2540    236.29328   -115996.05    446.66526   -115549.39    -9559.736     182381.7        59.37        59.37    51.742472 
    2550    235.20258   -115992.54    444.60353   -115547.94   -9795.1609    182383.57        59.37        59.37    51.743001 
    2560    236.81887   -115994.17    447.65879   -115546.51   -9539.5155    182384.79        59.37        59.37    51.743347 
    2570    234.44766   -115988.22    443.17649   -115545.05   -9293.2009    182385.87        59.37        59.37    51.743653 
    2580    237.80245   -115993.15    449.51806   -115543.63    -9660.459    182387.56        59.37        59.37    51.744132 
    2590    238.64207   -115993.29    451.10519   -115542.18   -9763.1609    182389.86        59.37        59.37    51.744785 
    2600    237.09805   -115988.89    448.18654    -115540.7   -9257.9093     182392.5        59.37        59.37    51.745533 
    2610    238.09152   -115989.32    450.06448   -115539.26   -9797.1629    182395.58        59.37        59.37    51.746408 
    2620    239.55616   -115990.66     452.8331   -115537.83   -9599.4363     182398.3        59.37        59.37     51.74718 
    2630    241.48966   -115992.87    456.48799   -115536.38   -9481.6165    182400.85        59.37        59.37    51.747904 
    2640    241.21961    -115990.9    455.97751   -115534.92   -9661.2404    182403.95        59.37        59.37    51.748782 
    2650    241.82847    -115990.6    457.12844   -115533.47   -10064.851    182407.41        59.37        59.37    51.749765 
    2660    240.82985   -115987.26    455.24076   -115532.02   -9601.0091    182410.69        59.37        59.37    51.750695 
    2670    238.97117   -115982.28     451.7273   -115530.56   -9925.7857     182414.1        59.37        59.37    51.751663 
    2680    239.84153   -115982.48    453.37253   -115529.11   -9862.3029    182417.13        59.37        59.37    51.752523 
    2690    241.79981   -115984.74    457.07428   -115527.67   -8797.0553    182419.73        59.37        59.37     51.75326 
    2700    240.90384   -115981.58    455.38062    -115526.2   -9349.0926    182422.77        59.37        59.37    51.754123 
    2710    241.87995   -115981.99    457.22576   -115524.77   -9389.0479    182425.71        59.37        59.37    51.754955 
    2720    241.73193   -115980.27    456.94595   -115523.32   -9249.7959     182428.4        59.37        59.37    51.755718 
    2730    243.89675   -115982.92    461.03811   -115521.88   -9573.4989     182431.1        59.37        59.37    51.756485 
    2740    245.15103   -115983.84    463.40908   -115520.43   -9525.6408     182433.4        59.37        59.37    51.757139 
    2750    243.98702   -115980.19    461.20876   -115518.98   -9615.6053    182435.04        59.37        59.37    51.757603 
    2760    245.63559   -115981.87    464.32505   -115517.55   -9766.6407     182436.2        59.37        59.37    51.757932 
    2770    246.78194   -115982.56    466.49198   -115516.07   -10191.239    182436.84        59.37        59.37    51.758115 
    2780    246.75106   -115981.06    466.43363   -115514.62   -10224.781    182436.69        59.37        59.37    51.758073 
    2790     243.7991   -115974.02    460.85353   -115513.17   -9696.9419    182435.73        59.37        59.37      51.7578 
    2800    244.24186   -115973.43    461.69048   -115511.74   -9899.3204     182434.2        59.37        59.37    51.757364 
    2810    248.58296   -115980.22    469.89645   -115510.32   -9791.6785    182431.87        59.37        59.37    51.756704 
    2820    245.25034   -115972.43    463.59681   -115508.84   -9470.3817    182429.09        59.37        59.37    51.755916 
    2830    246.52849   -115973.41    466.01289    -115507.4   -9465.8692     182426.1        59.37        59.37    51.755068 
    2840    247.48546   -115973.77    467.82185   -115505.95   -9145.8253    182422.89        59.37        59.37    51.754156 
    2850    246.26872   -115970.02    465.52184    -115504.5   -8954.4332    182420.09        59.37        59.37    51.753362 
    2860    248.37457   -115972.57    469.50255   -115503.07   -9277.8018     182418.3        59.37        59.37    51.752855 
    2870    249.99868   -115974.19    472.57259   -115501.62   -9578.7333     182417.3        59.37        59.37    51.752569 
    2880    247.00477   -115967.06    466.91321   -115500.15   -9241.4798    182416.78        59.37        59.37    51.752423 
    2890    250.34718   -115971.97    473.23137   -115498.73   -9802.0446    182416.57        59.37        59.37    51.752363 
    2900     251.1816   -115972.11    474.80868    -115497.3   -9645.6651    182416.18        59.37        59.37    51.752252 
    2910    249.26375   -115967.04    471.18335   -115495.86   -9480.6231    182415.67        59.37        59.37    51.752108 
    2920    250.61006   -115968.16    473.72828   -115494.43   -9717.4641    182415.39        59.37        59.37    51.752029 
    2930    250.08814   -115965.71     472.7417   -115492.96   -9586.6699    182415.11        59.37        59.37    51.751949 
    2940     252.5014   -115968.84    477.30349   -115491.54   -9730.6914    182414.62        59.37        59.37     51.75181 
    2950    251.03166   -115964.61    474.52523   -115490.08   -9838.7402    182413.52        59.37        59.37    51.751499 
    2960     252.3231   -115965.64    476.96646   -115488.68   -9475.2951    182411.86        59.37        59.37    51.751027 
    2970    249.67532    -115959.2    471.96135   -115487.24   -9093.3191    182410.16        59.37        59.37    51.750544 
    2980    252.12297   -115962.41    476.58814   -115485.83   -9023.7721    182408.34        59.37        59.37    51.750028 
    2990    253.63867   -115963.85    479.45327   -115484.39   -9529.6495    182406.27        59.37        59.37    51.749442 
    3000    252.14794   -115959.59    476.63533   -115482.95   -9207.3827     182403.6        59.37        59.37    51.748683 
    3010    255.04811   -115963.67    482.11754   -115481.56   -9287.8221    182400.13        59.37        59.37    51.747699 
    3020    253.00516   -115958.36    478.25575    -115480.1   -9179.0786    182396.03        59.37        59.37    51.746535 
    3030    253.59581   -115958.02    479.37224   -115478.65   -8848.3239    182391.87        59.37        59.37    51.745357 
    3040    254.29318   -115957.91    480.69049   -115477.22   -9066.7954    182387.89        59.37        59.37    51.744228 
    3050    256.21663   -115960.14    484.32639   -115475.81   -9049.2193    182383.65        59.37        59.37    51.743024 
    3060    257.40924   -115960.95    486.58077   -115474.37   -9219.9673    182378.72        59.37        59.37    51.741624 
    3070    256.88457   -115958.55    485.58899   -115472.96   -9013.6685    182372.98        59.37        59.37    51.739998 
    3080    257.51122    -115958.3    486.77356   -115471.53   -8974.8652    182367.04        59.37        59.37    51.738312 
    3090    259.65487   -115960.92    490.82569   -115470.09   -9227.5342    182361.14        59.37        59.37    51.736638 
    3100    257.25463   -115954.96    486.28852   -115468.67   -8995.2799    182355.38        59.37        59.37    51.735003 
    3110    257.63118   -115954.27    487.00031   -115467.27    -8930.153    182349.82        59.37        59.37    51.733427 
    3120    257.94596   -115953.43    487.59534   -115465.83   -8657.3043    182344.19        59.37        59.37    51.731828 
    3130    256.65507   -115949.57    485.15516   -115464.42   -8444.7244    182338.72        59.37        59.37    51.730277 
    3140    258.37125   -115951.45    488.39926   -115463.05   -8052.7473    182333.89        59.37        59.37    51.728906 
    3150    257.37154   -115948.12    486.50951   -115461.61   -8281.2542    182330.14        59.37        59.37    51.727842 
    3160    259.55304   -115950.84     490.6332   -115460.21   -8719.8549    182327.09        59.37        59.37    51.726977 
    3170    260.47565   -115951.16    492.37721   -115458.78   -8957.2299    182324.35        59.37        59.37    51.726199 
    3180     260.7959   -115950.36    492.98258   -115457.37   -9233.0005    182322.14        59.37        59.37    51.725573 
    3190    260.74611   -115948.87    492.88847   -115455.98   -8948.9971    182320.15        59.37        59.37     51.72501 
    3200     259.7899   -115945.63    491.08095   -115454.55   -8668.1136    182318.44        59.37        59.37    51.724524 
    3210    260.56854   -115945.72    492.55281   -115453.17   -8889.1685    182317.32        59.37        59.37    51.724204 
    3220    260.48623   -115944.16    492.39721   -115451.77   -8931.6942     182316.3        59.37        59.37    51.723916 
    3230    263.55854   -115948.58    498.20481   -115450.37    -8829.367    182314.65        59.37        59.37    51.723449 
    3240    262.36548   -115944.89    495.94956   -115448.94   -8866.0804    182312.66        59.37        59.37    51.722883 
    3250     261.5216   -115941.91    494.35437   -115447.56   -8566.6813    182310.53        59.37        59.37     51.72228 
    3260    260.80058   -115939.15    492.99143   -115446.16   -8116.9379    182308.54        59.37        59.37    51.721716 
    3270    264.96668   -115945.65    500.86661   -115444.78   -8501.7842    182306.97        59.37        59.37     51.72127 
    3280    264.27527   -115942.91    499.55965   -115443.35   -8306.4981    182305.58        59.37        59.37    51.720876 
    3290     262.0448    -115937.3    495.34339   -115441.96   -7758.8026    182304.32        59.37        59.37    51.720517 
    3300    265.31364   -115942.12    501.52248    -115440.6   -8113.6855    182303.34        59.37        59.37     51.72024 
    3310    263.59361   -115937.46     498.2711   -115439.19   -8677.1941    182302.48        59.37        59.37    51.719997 
    3320    265.42615   -115939.58    501.73514   -115437.84   -8421.4451     182301.4        59.37        59.37     51.71969 
    3330    265.47662   -115938.28    501.83055   -115436.45   -8355.1367    182300.16        59.37        59.37    51.719337 
    3340    265.50783   -115936.97    501.88956   -115435.08   -8615.0277    182298.63        59.37        59.37    51.718903 
    3350    265.90192   -115936.34    502.63449   -115433.71   -8419.6467     182296.8        59.37        59.37    51.718385 
    3360    268.37993   -115939.67    507.31868   -115432.35   -8376.8298    182295.01        59.37        59.37    51.717875 
    3370    266.95437   -115935.58    504.62395   -115430.96   -8629.4513    182293.29        59.37        59.37    51.717387 
    3380    267.46097   -115935.16    505.58158   -115429.58   -8433.5026    182291.48        59.37        59.37    51.716876 
    3390    267.98415   -115934.79    506.57053   -115428.22   -8324.5499    182289.92        59.37        59.37    51.716433 
    3400    267.55532   -115932.61    505.75993   -115426.85   -8372.0699    182288.91        59.37        59.37    51.716145 
    3410    268.73664   -115933.49    507.99297    -115425.5    -8082.327    182287.99        59.37        59.37    51.715885 
    3420    267.55082   -115929.86    505.75142   -115424.11    -7863.538    182287.71        59.37        59.37    51.715805 
    3430    271.19867   -115935.41    512.64694   -115422.76   -8363.5027    182288.28        59.37        59.37    51.715968 
    3440    269.75845    -115931.3     509.9245   -115421.37   -8074.3779    182289.11        59.37        59.37    51.716203 
    3450    271.23931   -115932.76    512.72377   -115420.04   -8212.0201    182290.87        59.37        59.37    51.716701 
    3460    271.08843   -115931.17    512.43855   -115418.73   -8749.0798    182293.95        59.37        59.37    51.717577 
    3470    269.93009   -115927.64    510.24894   -115417.39   -8121.4102     182297.8        59.37        59.37    51.718669 
    3480     271.2003   -115928.67    512.65003   -115416.02   -8431.9557    182302.54        59.37        59.37    51.720014 
    3490    271.66875   -115928.21    513.53553   -115414.67   -8433.1691    182307.76        59.37        59.37    51.721493 
    3500    271.43271   -115926.45    513.08935   -115413.36   -8191.1671    182313.34        59.37        59.37    51.723076 
    3510    270.31109   -115922.99    510.96916   -115412.02   -8381.9598    182319.62        59.37        59.37    51.724859 
    3520    272.31724   -115925.47    514.76138    -115410.7   -9014.2234     182326.4        59.37        59.37    51.726781 
    3530    272.17904   -115923.84    514.50014   -115409.34   -8557.9953    182333.56        59.37        59.37    51.728812 
    3540    271.99089   -115922.17    514.14448   -115408.02   -8918.6898    182341.35        59.37        59.37    51.731023 
    3550     273.3613   -115923.46    516.73496   -115406.72   -8941.7972     182349.1        59.37        59.37    51.733223 
    3560    273.15869   -115921.76    516.35196   -115405.41   -8560.4538    182356.73        59.37        59.37    51.735386 
    3570    273.09662   -115920.33    516.23464    -115404.1   -8852.2129    182364.43        59.37        59.37     51.73757 
    3580    276.30037   -115925.08    522.29069   -115402.79   -8528.5945    182371.82        59.37        59.37    51.739667 
    3590    274.15283   -115919.69     518.2312   -115401.46   -8076.7358    182379.21        59.37        59.37    51.741765 
    3600    275.17313   -115920.32    520.15987   -115400.16   -8452.1014    182386.93        59.37        59.37    51.743954 
    3610    274.69594   -115918.08    519.25784   -115398.82   -8622.2834    182394.51        59.37        59.37    51.746106 
    3620    274.46915   -115916.36    518.82913   -115397.53   -8713.7997    182401.86        59.37        59.37    51.748191 
    3630    275.43461   -115916.89    520.65415   -115396.24   -9259.0038    182408.86        59.37        59.37    51.750177 
    3640      276.061   -115916.77    521.83821   -115394.93   -9334.0657     182415.3        59.37        59.37    51.752003 
    3650    275.59988   -115914.58    520.96656   -115393.62   -9247.4012    182420.99        59.37        59.37    51.753617 
    3660    276.38166   -115914.78    522.44434   -115392.34   -9204.2964    182426.02        59.37        59.37    51.755044 
    3670    277.34061   -115915.31    524.25706   -115391.06   -9339.8299    182431.04        59.37        59.37    51.756469 
    3680    277.31939   -115913.96    524.21695   -115389.75   -9096.7401    182436.14        59.37        59.37    51.757914 
    3690    277.70692   -115913.43     524.9495   -115388.48   -9022.6605    182441.15        59.37        59.37    51.759335 
    3700    279.70845   -115915.96    528.73298   -115387.22     -8637.28    182446.39        59.37        59.37    51.760822 
    3710    278.54747   -115912.45    526.53839   -115385.92   -8975.7455     182452.4        59.37        59.37    51.762528 
    3720    277.32595   -115908.87    524.22934   -115384.64    -8413.343    182458.94        59.37        59.37    51.764385 
    3730    279.82873   -115912.36    528.96035    -115383.4   -8695.5169    182466.69        59.37        59.37    51.766583 
    3740    279.24165   -115909.99    527.85058   -115382.14   -9087.7148    182475.63        59.37        59.37     51.76912 
    3750    278.52172   -115907.38    526.48971   -115380.89   -9079.8719     182485.1        59.37        59.37    51.771806 
    3760    282.13288   -115912.99    533.31588   -115379.67   -9082.9055    182495.26        59.37        59.37    51.774688 
    3770    281.70201   -115910.91     532.5014   -115378.41   -9915.9006     182506.4        59.37        59.37    51.777849 
    3780    279.62325    -115905.7    528.57192   -115377.12    -9458.087    182517.89        59.37        59.37    51.781108 
    3790    280.38209   -115905.91    530.00637    -115375.9   -9528.7937    182529.97        59.37        59.37    51.784535 
    3800    281.10554   -115906.05     531.3739   -115374.68   -10219.602    182542.56        59.37        59.37    51.788109 
    3810    281.39779   -115905.33    531.92635   -115373.41   -10095.947    182554.61        59.37        59.37    51.791525 
    3820    281.50468    -115904.3     532.1284   -115372.17   -9986.7831    182566.14        59.37        59.37    51.794798 
    3830    281.39509   -115902.87    531.92123   -115370.95    -10265.02    182577.71        59.37        59.37    51.798078 
    3840    280.64956   -115900.23    530.51196   -115369.71   -9944.8621    182589.06        59.37        59.37      51.8013 
    3850    282.98795   -115903.46    534.93222   -115368.53   -9710.4409    182600.43        59.37        59.37    51.804525 
    3860    284.16769   -115904.47    537.16228   -115367.31   -9976.5317    182612.17        59.37        59.37    51.807857 
    3870    283.80798    -115902.6    536.48233   -115366.11   -9977.1992    182623.97        59.37        59.37    51.811204 
    3880    284.01498    -115901.8    536.87362   -115364.93   -9451.3763    182635.92        59.37        59.37    51.814595 
    3890    284.39239   -115901.29    537.58703    -115363.7   -9558.8568    182648.51        59.37        59.37    51.818166 
    3900    282.58327   -115896.66    534.16725   -115362.49   -9864.6812    182661.66        59.37        59.37    51.821896 
    3910    284.68473   -115899.47    538.13964   -115361.33   -9754.8023    182675.33        59.37        59.37    51.825774 
    3920    286.89963   -115902.46    542.32648   -115360.13   -10063.618    182690.04        59.37        59.37    51.829948 
    3930    284.25727   -115896.25    537.33162   -115358.92   -10722.089    182705.43        59.37        59.37    51.834314 
    3940    282.29546   -115891.38    533.62321   -115357.75    -10194.96    182720.85        59.37        59.37     51.83869 
    3950    286.32647   -115897.85    541.24304   -115356.61   -10802.511    182736.37        59.37        59.37    51.843091 
    3960    286.04179   -115896.09    540.70489   -115355.39    -11179.73    182751.35        59.37        59.37    51.847342 
    3970    286.48471   -115895.78    541.54214   -115354.23   -11357.519    182765.62        59.37        59.37    51.851389 
    3980    287.88317   -115897.28    544.18566   -115353.09   -10977.017    182779.48        59.37        59.37    51.855322 
    3990    285.42591   -115891.44     539.5407    -115351.9   -11375.453    182793.26        59.37        59.37    51.859231 
    4000    285.92585   -115891.24    540.48573   -115350.75   -11396.623    182806.56        59.37        59.37    51.863005 
    4010    286.51615   -115891.21    541.60159    -115349.6   -11773.766    182818.89        59.37        59.37    51.866503 
    4020    288.60779   -115894.02    545.55541   -115348.46   -11275.103    182829.96        59.37        59.37    51.869644 
    4030    288.30887   -115892.28    544.99036   -115347.29    -11336.29    182840.57        59.37        59.37    51.872653 
    4040    289.43046   -115893.27     547.1105   -115346.16   -11475.928    182850.97        59.37        59.37    51.875604 
    4050    288.64434   -115890.64     545.6245   -115345.02   -10541.788    182861.12        59.37        59.37    51.878485 
    4060    287.39588   -115887.15    543.26454   -115343.88    -11297.67    182871.13        59.37        59.37    51.881325 
    4070    290.35359   -115891.63    548.85549   -115342.78   -11216.737    182879.89        59.37        59.37    51.883811 
    4080    289.63336   -115889.16    547.49405   -115341.67   -10772.834    182887.47        59.37        59.37    51.885959 
    4090    287.89672   -115884.74    544.21128   -115340.53   -11347.654    182894.61        59.37        59.37    51.887986 
    4100    293.31894    -115893.9     554.4609   -115339.44   -11660.282    182900.95        59.37        59.37    51.889784 
    4110    289.12843   -115884.85    546.53958   -115338.31   -11375.126    182906.39        59.37        59.37    51.891328 
    4120    291.65066   -115888.54    551.30734   -115337.24   -11820.813     182911.3        59.37        59.37    51.892721 
    4130    290.77347   -115885.78     549.6492   -115336.13   -11853.228    182914.71        59.37        59.37    51.893688 
    4140    290.27792   -115883.75    548.71246   -115335.04   -11654.135    182916.48        59.37        59.37    51.894191 
    4150    294.86805   -115891.39    557.38919      -115334   -12203.083    182916.98        59.37        59.37    51.894332 
    4160    291.78297   -115884.46    551.55745    -115332.9   -11386.807    182915.79        59.37        59.37    51.893995 
    4170     290.7714   -115881.49    549.64529   -115331.85   -11131.472    182913.67        59.37        59.37    51.893392 
    4180    290.97229   -115880.82    550.02502    -115330.8   -11510.839    182911.03        59.37        59.37    51.892642 
    4190    288.60562   -115875.29     545.5513   -115329.74   -11258.363    182907.57        59.37        59.37    51.891662 
    4200    290.32866    -115877.5    548.80838   -115328.69   -11234.431    182903.65        59.37        59.37    51.890549 
    4210    293.59734   -115882.66    554.98716   -115327.67   -11567.783    182899.13        59.37        59.37    51.889268 
    4220    291.08695   -115876.86    550.24176   -115326.62   -11230.719    182893.69        59.37        59.37    51.887725 
    4230    292.41271   -115878.38    552.74785   -115325.63   -11433.439    182888.17        59.37        59.37    51.886157 
    4240    294.78882   -115881.87    557.23941   -115324.63   -11342.806    182882.68        59.37        59.37    51.884602 
    4250    295.43049   -115882.03    558.45237   -115323.58    -11514.56     182877.1        59.37        59.37    51.883019 
    4260     296.0149   -115882.11    559.55707   -115322.55   -11399.089    182871.37        59.37        59.37    51.881392 
    4270    295.37186   -115879.86    558.34153   -115321.52   -11240.509    182865.36        59.37        59.37    51.879686 
    4280    295.17492   -115878.48    557.96925   -115320.52   -11260.739    182859.02        59.37        59.37    51.877889 
    4290      295.424   -115877.96    558.44009   -115319.52    -10494.58    182852.76        59.37        59.37    51.876111 
    4300    295.85043   -115877.78    559.24618   -115318.53   -10697.307    182847.06        59.37        59.37    51.874495 
    4310    294.29748   -115873.85    556.31064   -115317.54   -11005.391    182841.38        59.37        59.37    51.872885 
    4320    296.84426   -115877.71    561.12481   -115316.58    -10837.43    182835.06        59.37        59.37     51.87109 
    4330    297.51812   -115878.02    562.39861   -115315.62   -10736.488    182828.47        59.37        59.37    51.869221 
    4340    295.74444   -115873.69    559.04582   -115314.64     -11284.9    182821.77        59.37        59.37    51.867319 
    4350     296.2583   -115873.73    560.01716   -115313.71   -11070.751    182814.55        59.37        59.37    51.865271 
    4360    299.77013   -115879.44    566.65558   -115312.79   -10810.838    182807.24        59.37        59.37    51.863197 
    4370    297.14404   -115873.53    561.69148   -115311.84   -11808.979    182799.71        59.37        59.37    51.861062 
    4380    296.75542   -115871.88    560.95688   -115310.92   -11034.755    182790.57        59.37        59.37    51.858469 
    4390    296.71171   -115870.89    560.87426   -115310.01   -10733.808    182780.39        59.37        59.37     51.85558 
    4400    295.91781   -115868.48    559.37355   -115309.11    -11085.34    182769.61        59.37        59.37    51.852521 
    4410    296.75071   -115869.13    560.94797   -115308.18   -10445.815    182757.81        59.37        59.37    51.849174 
    4420     296.5792    -115867.9    560.62377   -115307.28   -10068.423    182745.71        59.37        59.37    51.845741 
    4430    297.56695   -115868.89    562.49091    -115306.4   -10405.371    182733.95        59.37        59.37    51.842404 
    4440     298.9854   -115870.69    565.17222   -115305.52   -10305.797    182722.18        59.37        59.37    51.839067 
    4450    301.66122   -115874.89    570.23032   -115304.66   -10087.521    182710.59        59.37        59.37    51.835778 
    4460    297.70294   -115866.48    562.74798   -115303.74   -10410.319     182699.5        59.37        59.37    51.832632 
    4470    301.56922   -115872.97     570.0564   -115302.91   -10240.555    182688.04        59.37        59.37    51.829382 
    4480    299.58562   -115868.32    566.30681   -115302.01   -9448.1686     182676.5        59.37        59.37    51.826106 
    4490     301.8033   -115871.68    570.49888   -115301.18   -9906.5212    182665.86        59.37        59.37    51.823087 
    4500    301.29923   -115869.86    569.54605   -115300.31    -10135.32     182655.6        59.37        59.37    51.820177 
    4510    300.50443   -115867.53    568.04362   -115299.49   -9643.8856    182645.48        59.37        59.37    51.817307 
    4520     301.6395   -115868.85    570.18925   -115298.66   -10031.288    182635.86        59.37        59.37    51.814577 
    4530    301.00661   -115866.81    568.99291   -115297.81   -10168.175    182626.11        59.37        59.37    51.811811 
    4540     302.3201   -115868.51    571.47579   -115297.03   -9888.6658    182615.92        59.37        59.37    51.808919 
    4550    300.88423      -115865    568.76156   -115296.24   -9685.7943    182605.86        59.37        59.37    51.806065 
    4560    299.99544   -115862.57    567.08148   -115295.49   -9557.1807       182596        59.37        59.37    51.803269 
    4570    300.98774   -115863.63    568.95724   -115294.68   -9722.5922    182586.24        59.37        59.37    51.800501 
    4580    303.36626   -115867.37    573.45336   -115293.92   -9862.7434    182576.64        59.37        59.37    51.797777 
    4590    301.44576   -115862.97    569.82303   -115293.15   -9180.1861    182567.12        59.37        59.37    51.795076 
    4600    299.58874   -115858.69    566.31271   -115292.37   -8803.3663    182558.24        59.37        59.37    51.792556 
    4610    301.29247   -115861.18    569.53327   -115291.64   -9275.2997    182550.47        59.37        59.37    51.790351 
    4620    301.05474   -115859.97    569.08388   -115290.89   -8813.9015    182543.44        59.37        59.37    51.788356 
    4630    303.10639   -115863.14    572.96212   -115290.18   -8623.4818    182537.01        59.37        59.37    51.786532 
    4640    304.08017   -115864.25    574.80285   -115289.45   -9227.1812    182530.93        59.37        59.37    51.784809 
    4650    306.90981   -115868.92    580.15173   -115288.76   -9041.7742     182524.6        59.37        59.37    51.783012 
    4660    302.54244   -115859.91    571.89609   -115288.02   -8872.3614    182518.53        59.37        59.37    51.781289 
    4670    303.52558   -115861.09    573.75452   -115287.33   -9310.8579    182513.29        59.37        59.37    51.779804 
    4680    302.22492   -115857.94    571.29587   -115286.65   -9189.1706    182508.25        59.37        59.37    51.778374 
    4690    303.09058   -115858.93    572.93223      -115286   -8946.7286    182503.28        59.37        59.37    51.776964 
    4700    302.26656   -115856.72    571.37458   -115285.35   -8944.1767    182498.43        59.37        59.37    51.775586 
    4710     305.1631   -115861.57    576.84991   -115284.72   -8996.8803    182493.77        59.37        59.37    51.774264 
    4720    305.47124    -115861.5    577.43239   -115284.07   -8279.7901    182489.66        59.37        59.37    51.773101 
    4730    306.30868   -115862.47     579.0154   -115283.46   -8349.2539    182486.76        59.37        59.37    51.772278 
    4740    303.42982   -115856.39     573.5735   -115282.82   -8720.1908    182484.56        59.37        59.37    51.771652 
    4750    304.87665    -115858.5    576.30845   -115282.19   -8299.2597    182482.37        59.37        59.37    51.771032 
    4760    306.04332   -115860.11     578.5138   -115281.59   -8796.7357     182480.5        59.37        59.37      51.7705 
    4770    308.27023   -115863.75    582.72333   -115281.02   -9132.0729    182478.32        59.37        59.37    51.769882 
    4780    305.70598   -115858.33    577.87612   -115280.45   -8561.8595    182475.68        59.37        59.37    51.769134 
    4790    306.12962   -115858.57    578.67693    -115279.9   -8896.7688    182473.42        59.37        59.37    51.768492 
    4800    305.71788   -115857.24    577.89861   -115279.34   -8924.3228     182471.4        59.37        59.37    51.767918 
    4810    304.23931   -115853.87    575.10367   -115278.77   -8596.5744     182469.5        59.37        59.37    51.767379 
    4820    306.61413   -115857.83     579.5928   -115278.24   -8502.2881    182467.84        59.37        59.37     51.76691 
    4830    307.35303   -115858.72    580.98954   -115277.73   -8535.5623    182466.48        59.37        59.37    51.766522 
    4840    307.81632    -115859.1    581.86531   -115277.23   -7945.3281    182465.29        59.37        59.37    51.766186 
    4850    304.99463   -115853.23    576.53146    -115276.7   -7746.4002    182464.72        59.37        59.37    51.766024 
    4860    307.73141   -115857.95     581.7048   -115276.24   -8282.1128     182465.1        59.37        59.37    51.766132 
    4870    306.85893   -115855.81    580.05555   -115275.75   -8464.4653    182466.31        59.37        59.37    51.766474 
    4880    306.35947    -115854.4    579.11142   -115275.29   -8574.8674    182468.22        59.37        59.37    51.767017 
    4890    307.51169   -115856.14    581.28945   -115274.85   -8724.3419    182470.86        59.37        59.37    51.767767 
    4900    305.36627   -115851.62    577.23397   -115274.38   -8475.5214    182474.16        59.37        59.37    51.768703 
    4910    305.10246   -115850.71    576.73529   -115273.97   -8028.7281    182477.98        59.37        59.37    51.769785 
    4920    306.94139   -115853.82    580.21142   -115273.61   -8600.0144    182482.38        59.37        59.37    51.771034 
    4930    306.90344   -115853.35    580.13968   -115273.21   -8171.0442    182486.63        59.37        59.37    51.772239 
    4940    308.13018    -115855.3    582.45858   -115272.84     -8194.83    182490.87        59.37        59.37    51.773443 
    4950     308.1585   -115854.96    582.51212   -115272.44   -8922.2661    182495.31        59.37        59.37    51.774703 
    4960    308.81383   -115855.82     583.7509   -115272.07   -9171.3273    182499.54        59.37        59.37    51.775901 
    4970    306.89652   -115851.82     580.1266   -115271.69   -8780.3451    182503.38        59.37        59.37    51.776993 
    4980     306.7299   -115851.16    579.81164   -115271.35   -8894.9741    182506.97        59.37        59.37     51.77801 
    4990    308.50417   -115854.19    583.16555   -115271.02   -9036.3623     182510.2        59.37        59.37    51.778926 
    5000    309.03134   -115854.88    584.16206   -115270.72   -8547.5754    182512.99        59.37        59.37    51.779717 
    5010    308.82531   -115854.22    583.77259   -115270.45   -8694.9943    182515.52        59.37        59.37    51.780437 
    5020    308.07894   -115852.52    582.36173   -115270.16   -8542.8469    182518.05        59.37        59.37    51.781154 
    5030      307.762   -115851.63    581.76263   -115269.86   -9330.1974    182520.93        59.37        59.37    51.781971 
    5040    309.59517   -115854.85    585.22787   -115269.62    -8515.091    182523.84        59.37        59.37    51.782797 
    5050    306.80755   -115849.31    579.95843   -115269.36   -8746.8935    182527.14        59.37        59.37    51.783734 
    5060    308.30568   -115851.94    582.79033   -115269.15    -8741.949    182530.94        59.37        59.37    51.784812 
    5070    307.28486   -115849.77    580.86068   -115268.91   -7982.6037    182535.48        59.37        59.37    51.786098 
    5080    309.30036   -115853.38    584.67058   -115268.71   -8378.1515    182541.22        59.37        59.37    51.787726 
    5090    309.02795   -115852.65    584.15564   -115268.49   -9034.5467    182547.92        59.37        59.37    51.789629 
    5100    310.37105   -115855.03    586.69451   -115268.33   -8713.6988    182555.07        59.37        59.37    51.791658 
    5110    307.49558   -115849.42    581.25901   -115268.16   -9239.3209    182562.96        59.37        59.37    51.793894 
    5120    309.09095   -115852.29    584.27473   -115268.02    -9436.477    182571.17        59.37        59.37    51.796225 
    5130    312.90473    -115859.4    591.48391   -115267.91    -9049.349    182579.46        59.37        59.37    51.798576 
    5140    308.69355   -115851.31    583.52352   -115267.79   -8581.0485    182588.34        59.37        59.37    51.801094 
    5150    307.91256   -115849.73    582.04723   -115267.68   -8967.5921    182597.92        59.37        59.37    51.803812 
    5160    308.63867   -115850.99    583.41978   -115267.57   -8757.8782    182607.69        59.37        59.37    51.806586 
    5170    306.21234   -115846.29     578.8333   -115267.46   -9499.5987     182617.7        59.37        59.37    51.809425 
    5180    308.36428   -115850.31     582.9011   -115267.41   -9976.1502    182627.33        59.37        59.37    51.812158 
    5190    308.06041   -115849.67     582.3267   -115267.35   -9991.2032    182636.03        59.37        59.37    51.814627 
    5200     307.9039   -115849.32    582.03085   -115267.29   -9682.8792    182644.04        59.37        59.37    51.816899 
    5210    308.89289   -115851.15    583.90034   -115267.25   -9960.3287    182651.96        59.37        59.37    51.819143 
    5220    310.20535   -115853.62    586.38128   -115267.24   -10045.446    182659.14        59.37        59.37    51.821181 
    5230    308.85085   -115851.05    583.82087   -115267.22   -9178.3391    182665.44        59.37        59.37    51.822969 
    5240    309.49792   -115852.29    585.04403   -115267.24    -9513.528    182671.64        59.37        59.37    51.824728 
    5250    308.48047   -115850.36    583.12074   -115267.23   -9323.9678    182677.05        59.37        59.37    51.826263 
    5260    308.41108   -115850.26    582.98958   -115267.27   -9105.4995    182681.76        59.37        59.37    51.827599 
    5270    310.49346   -115854.29     586.9259   -115267.37   -9480.3388    182686.96        59.37        59.37    51.829074 
    5280    307.11094   -115847.93    580.53192    -115267.4   -10194.915    182692.63        59.37        59.37    51.830684 
    5290     307.5558   -115848.86    581.37285   -115267.49   -10080.688    182697.54        59.37        59.37    51.832075 
    5300    308.79196   -115851.31    583.70955    -115267.6   -10114.257     182701.8        59.37        59.37    51.833283 
    5310    307.14974   -115848.28    580.60527   -115267.68    -9980.197    182705.45        59.37        59.37    51.834319 
    5320    310.44044   -115854.66    586.82567   -115267.83   -9750.3368    182708.38        59.37        59.37    51.835151 
    5330    309.73563   -115853.44    585.49338   -115267.95   -9554.7481    182711.49        59.37        59.37    51.836035 
    5340    305.69108   -115845.91    577.84795   -115268.06   -10426.382    182714.86        59.37        59.37    51.836989 
    5350    307.34142   -115849.24    580.96759   -115268.27   -10394.818    182717.31        59.37        59.37    51.837685 
    5360    310.88516   -115856.12    587.66633   -115268.45   -10290.775     182718.7        59.37        59.37    51.838079 
    5370    307.21437   -115849.32    580.72744    -115268.6    -10866.11    182719.02        59.37        59.37     51.83817 
    5380    307.69364   -115850.45     581.6334   -115268.81   -9760.4054    182718.38        59.37        59.37    51.837987 
    5390     306.2578   -115847.92    578.91923      -115269   -9569.2261    182718.57        59.37        59.37    51.838043 
    5400    307.57087   -115850.63    581.40133   -115269.23   -10202.875    182719.76        59.37        59.37     51.83838 
    5410    307.40963   -115850.55    581.09653   -115269.45   -10032.904    182720.96        59.37        59.37     51.83872 
    5420    310.51984   -115856.72    586.97576   -115269.75   -10106.937    182722.31        59.37        59.37    51.839103 
    5430    308.09976   -115852.38     582.4011   -115269.98   -10182.686    182723.36        59.37        59.37    51.839401 
    5440    308.32305   -115853.06    582.82316   -115270.24    -9405.242    182723.91        59.37        59.37    51.839558 
    5450    310.52334   -115857.55    586.98239   -115270.57   -10008.714    182725.16        59.37        59.37    51.839912 
    5460    306.79121   -115850.73    579.92753   -115270.81   -10015.782    182726.82        59.37        59.37    51.840382 
    5470    308.91106   -115855.05    583.93469   -115271.12   -10066.605     182728.3        59.37        59.37    51.840802 
    5480    308.72739   -115855.04    583.58749   -115271.45    -10402.06    182729.45        59.37        59.37    51.841128 
    5490    305.15466    -115848.6    576.83396   -115271.77   -10646.088    182730.03        59.37        59.37    51.841293 
    5500    306.79822   -115852.05    579.94078   -115272.11   -10403.156    182729.73        59.37        59.37    51.841209 
    5510     308.9956   -115856.56    584.09449   -115272.46   -10010.032    182728.76        59.37        59.37    51.840934 
    5520    305.15216   -115849.62    576.82924    -115272.8   -10451.839    182727.75        59.37        59.37    51.840647 
    5530    306.92966   -115853.39    580.18925    -115273.2   -10262.743    182726.38        59.37        59.37    51.840257 
    5540    307.17898   -115854.25    580.66054   -115273.59   -10003.329    182724.53        59.37        59.37    51.839733 
    5550    306.87749   -115854.09    580.09062      -115274   -10127.014    182722.53        59.37        59.37    51.839167 
    5560    307.90502   -115856.45    582.03296   -115274.42   -10224.302    182720.47        59.37        59.37     51.83858 
    5570    306.85922   -115854.88     580.0561   -115274.82   -9856.3258    182718.34        59.37        59.37    51.837976 
    5580    307.15002   -115855.86     580.6058   -115275.25   -10268.838    182716.21        59.37        59.37    51.837374 
    5590    305.80946   -115853.76    578.07174   -115275.68   -10084.939    182713.61        59.37        59.37    51.836634 
    5600    303.81322   -115850.41    574.29823   -115276.12   -9815.9081    182710.94        59.37        59.37    51.835878 
    5610    307.32496   -115857.51    580.93649   -115276.58   -10236.924    182708.38        59.37        59.37     51.83515 
    5620    305.16862   -115853.85    576.86035   -115276.98   -10175.884    182705.78        59.37        59.37    51.834413 
    5630    305.47619    -115854.9    577.44174   -115277.46   -10078.109    182703.04        59.37        59.37    51.833636 
    5640    308.68416   -115861.47    583.50577   -115277.96   -10070.901    182699.84        59.37        59.37    51.832729 
    5650    307.04336   -115858.82    580.40417   -115278.42   -10611.787    182695.96        59.37        59.37    51.831628 
    5660    307.74225   -115860.67    581.72528   -115278.94   -10383.795    182690.96        59.37        59.37    51.830208 
    5670    303.82637   -115853.71     574.3231   -115279.39    -10148.08    182685.39        59.37        59.37    51.828629 
    5680    304.95399   -115856.36    576.45464    -115279.9   -10614.137    182679.77        59.37        59.37    51.827035 
    5690    302.67301   -115852.52    572.14291   -115280.38   -9902.6803    182673.62        59.37        59.37    51.825291 
    5700    304.84841   -115857.18    576.25506   -115280.93   -10247.185    182667.21        59.37        59.37     51.82347 
    5710    303.89489   -115855.92    574.45262   -115281.47     -10136.6     182660.3        59.37        59.37    51.821511 
    5720    304.05404   -115856.72    574.75346   -115281.97   -9581.3766    182652.88        59.37        59.37    51.819405 
    5730    304.39748   -115857.89    575.40267   -115282.48   -9619.5106    182645.57        59.37        59.37    51.817331 
    5740    302.06821      -115854    570.99965      -115283   -8762.8918    182638.86        59.37        59.37    51.815427 
    5750    303.77555   -115857.76    574.22703   -115283.53   -9441.2935    182633.12        59.37        59.37    51.813799 
    5760    307.08423   -115864.58    580.48142    -115284.1    -9815.224    182627.44        59.37        59.37    51.812188 
    5770    304.91364      -115861    576.37836   -115284.62   -9374.4999    182621.49        59.37        59.37      51.8105 
    5780     305.3674   -115862.41    577.23611   -115285.17     -9816.72    182616.04        59.37        59.37    51.808954 
    5790    304.31564   -115860.95    575.24796   -115285.71   -10349.315    182610.66        59.37        59.37    51.807427 
    5800    306.31169    -115865.3    579.02109   -115286.28   -9967.5428    182604.97        59.37        59.37    51.805814 
    5810    302.80256   -115859.22    572.38778   -115286.83   -9621.8639    182599.37        59.37        59.37    51.804224 
    5820    303.36722   -115860.89    573.45517   -115287.43   -9993.9197    182593.45        59.37        59.37    51.802546 
    5830    301.40351    -115857.7    569.74317   -115287.96   -9636.2501    182586.77        59.37        59.37    51.800649 
    5840    303.41016   -115862.06    573.53633   -115288.52   -9667.3049    182579.86        59.37        59.37     51.79869 
    5850    303.05264   -115861.97    572.86051   -115289.11   -9903.5528    182572.95        59.37        59.37     51.79673 
    5860    301.44813   -115859.52    569.82751   -115289.69   -9539.3866    182565.76        59.37        59.37    51.794689 
    5870    302.03155   -115861.19    570.93035   -115290.26    -9261.624     182559.2        59.37        59.37    51.792829 
    5880    300.25973   -115858.36    567.58108   -115290.77    -9348.263    182553.56        59.37        59.37    51.791228 
    5890    307.01739   -115871.74    580.35508   -115291.39   -9360.6866    182548.04        59.37        59.37    51.789662 
    5900     303.7301   -115866.06    574.14111   -115291.92   -8607.5913    182542.75        59.37        59.37    51.788161 
    5910    303.58716   -115866.36    573.87092   -115292.49   -8651.8898    182538.29        59.37        59.37    51.786895 
    5920    300.88235   -115861.81    568.75801   -115293.05    -8440.808    182534.67        59.37        59.37    51.785868 
    5930    302.22882   -115864.94    571.30325   -115293.63   -8387.7604    182532.39        59.37        59.37    51.785221 
    5940    303.08267   -115867.15    572.91728   -115294.23   -8834.9677    182531.55        59.37        59.37    51.784984 
    5950    301.42575   -115864.58     569.7852    -115294.8   -8914.3287    182531.13        59.37        59.37    51.784864 
    5960    304.15768   -115870.34    574.94937   -115295.39    -9104.643    182530.95        59.37        59.37    51.784813 
    5970    300.83134   -115864.62    568.66159   -115295.96   -9082.2784    182531.04        59.37        59.37    51.784838 
    5980     299.6168   -115862.92    566.36575   -115296.56   -9033.0334    182531.27        59.37        59.37    51.784905 
    5990    299.55177   -115863.37    566.24282   -115297.13   -9408.1793    182531.58        59.37        59.37    51.784991 
    6000    300.68389    -115866.1    568.38286   -115297.72   -9806.9509    182531.49        59.37        59.37    51.784965 
    6010     299.2634   -115863.97    565.69771   -115298.27   -9681.7743    182530.35        59.37        59.37    51.784643 
    6020        298.9   -115863.85    565.01079   -115298.84   -9526.4234    182528.24        59.37        59.37    51.784044 
    6030    300.68493   -115867.79    568.38483    -115299.4   -9433.1301    182525.52        59.37        59.37    51.783273 
    6040    298.02051   -115863.27    563.34827   -115299.92   -9017.2138    182522.35        59.37        59.37    51.782374 
    6050    300.04453   -115867.69    567.17428   -115300.51   -9333.7667    182518.99        59.37        59.37    51.781421 
    6060    297.80267   -115863.98     562.9365   -115301.04   -9122.8421    182515.43        59.37        59.37    51.780412 
    6070    300.24255   -115869.17    567.54861   -115301.62   -8710.3251    182511.87        59.37        59.37      51.7794 
    6080    300.00682   -115869.26      567.103   -115302.16   -8651.5325    182508.55        59.37        59.37     51.77846 
[...]
   48540    298.23028   -115869.97    563.74481   -115306.22   -9981.5341    182674.56        59.37        59.37    51.825557 
   48550     298.1474   -115869.86    563.58814   -115306.27   -9930.2002    182668.07        59.37        59.37    51.823715 
   48560     299.2762   -115872.08    565.72191   -115306.36   -10235.984    182662.03        59.37        59.37    51.822002 
   48570    298.46055   -115870.59    564.18008   -115306.41   -10400.292    182655.95        59.37        59.37    51.820277 
   48580    297.10899   -115868.05    561.62523   -115306.42   -9879.5847    182649.61        59.37        59.37    51.818478 
   48590    297.78777   -115869.41    562.90834   -115306.51   -10247.057    182643.12        59.37        59.37    51.816637 
   48600    297.55329   -115869.02    562.46509   -115306.56   -10190.812    182636.65        59.37        59.37    51.814802 
   48610    299.07763   -115871.95    565.34655    -115306.6   -10394.443     182630.7        59.37        59.37    51.813114 
   48620    296.74451   -115867.58    560.93625   -115306.65   -10172.047    182624.83        59.37        59.37    51.811448 
   48630    295.81815   -115865.85    559.18516   -115306.67   -10033.975    182618.96        59.37        59.37    51.809783 
   48640    299.49286   -115872.86    566.13146   -115306.73   -10186.129    182613.26        59.37        59.37    51.808166 
   48650    299.68022   -115873.26    566.48562   -115306.77   -9635.7891    182607.37        59.37        59.37    51.806493 
   48660    300.62656   -115875.07     568.2745    -115306.8   -9143.5212    182601.64        59.37        59.37    51.804869 
   48670     299.6439   -115873.24    566.41696   -115306.83   -8809.9335    182596.91        59.37        59.37    51.803525 
   48680    299.94116   -115873.84    566.97889   -115306.86   -9139.8757    182593.33        59.37        59.37    51.802512 
   48690    298.55083   -115871.22    564.35073   -115306.87   -9620.2334     182590.6        59.37        59.37    51.801737 
   48700    299.27077   -115872.63    565.71164   -115306.92   -9303.9514    182588.16        59.37        59.37    51.801045 
   48710    299.33306   -115872.79    565.82939   -115306.96   -9831.9496    182585.94        59.37        59.37    51.800415 
   48720     297.8294   -115869.97    562.98703   -115306.98   -9047.1139    182583.65        59.37        59.37    51.799764 
   48730    298.68035    -115871.6    564.59557   -115307.01   -9148.0658    182581.47        59.37        59.37    51.799147 
   48740    300.07205   -115874.27    567.22631   -115307.04   -9663.0393    182579.56        59.37        59.37    51.798604 
   48750    296.13116   -115866.78    559.77684   -115307.01   -9814.7494    182577.26        59.37        59.37    51.797951 
   48760    299.39468      -115873    565.94588   -115307.06   -9452.0494    182574.02        59.37        59.37    51.797032 
   48770    297.40798   -115869.26    562.19041   -115307.06   -9291.1048    182570.22        59.37        59.37    51.795954 
   48780    294.84149   -115864.39    557.33898   -115307.05   -9405.5826    182565.92        59.37        59.37    51.794735 
   48790    298.75949   -115871.84    564.74518    -115307.1    -9018.966       182561        59.37        59.37    51.793339 
   48800    298.07372   -115870.53    563.44886   -115307.08   -9766.9737    182556.07        59.37        59.37     51.79194 
   48810    297.17479   -115868.85    561.74961    -115307.1   -9529.3088    182550.25        59.37        59.37    51.790289 
   48820    298.31683   -115871.02    563.90841   -115307.11   -9071.4275    182543.24        59.37        59.37      51.7883 
   48830    298.39329   -115871.15    564.05294    -115307.1   -9195.2259     182535.8        59.37        59.37     51.78619 
   48840    297.90447   -115870.24    563.12893   -115307.11   -8822.5576    182528.26        59.37        59.37    51.784051 
   48850    298.38024   -115871.11    564.02827   -115307.09   -8562.7331    182520.88        59.37        59.37    51.781957 
   48860     299.8108   -115873.81    566.73246   -115307.08   -8974.4556    182513.67        59.37        59.37     51.77991 
   48870    301.03985   -115876.15    569.05574   -115307.09   -9170.5403    182506.29        59.37        59.37    51.777817 
   48880    299.16795   -115872.58    565.51729   -115307.06   -9036.7171    182498.53        59.37        59.37    51.775615 
   48890    300.08652   -115874.32    567.25366   -115307.07   -8996.7808    182490.68        59.37        59.37    51.773389 
   48900    296.26724   -115867.05    560.03406   -115307.01   -8708.5557    182483.59        59.37        59.37    51.771378 
   48910    297.57819   -115869.51    562.51216   -115306.99   -8812.3593    182477.69        59.37        59.37    51.769702 
   48920      297.018   -115868.41    561.45324   -115306.95   -8858.1108    182472.28        59.37        59.37    51.768169 
   48930    297.41371   -115869.12    562.20124   -115306.92   -8861.8742    182467.14        59.37        59.37    51.766711 
   48940    296.45818   -115867.29      560.395   -115306.89   -8824.3095     182462.4        59.37        59.37    51.765365 
   48950    295.69914   -115865.83    558.96019   -115306.87   -8231.2067    182458.14        59.37        59.37    51.764157 
   48960    299.63877   -115873.27    566.40727   -115306.87   -8303.4719    182455.15        59.37        59.37     51.76331 
   48970    300.28176   -115874.47    567.62273   -115306.84   -8830.1835    182453.57        59.37        59.37    51.762861 
   48980    299.95507   -115873.81    567.00517   -115306.81   -8425.0735    182452.85        59.37        59.37    51.762657 
   48990    299.58406   -115873.08    566.30386   -115306.77   -8788.1053    182452.62        59.37        59.37     51.76259 
   49000    299.04915   -115872.04    565.29271   -115306.75   -9049.7855    182452.41        59.37        59.37    51.762532 
   49010    299.62037   -115873.07    566.37249    -115306.7   -8202.8381    182452.67        59.37        59.37    51.762606 
   49020    301.64408   -115876.83    570.19791   -115306.63   -8849.3197    182454.16        59.37        59.37    51.763028 
   49030    300.77617   -115875.13    568.55731   -115306.58   -8935.7467    182456.07        59.37        59.37     51.76357 
   49040    300.00168   -115873.62    567.09329   -115306.53   -8028.0837    182457.98        59.37        59.37    51.764111 
   49050    299.26189    -115872.2    565.69485    -115306.5   -8541.0182     182460.3        59.37        59.37    51.764769 
   49060    298.32451   -115870.38    563.92293   -115306.46   -8888.6663    182462.21        59.37        59.37    51.765311 
   49070    298.49116   -115870.66    564.23794   -115306.42   -8145.6707    182463.89        59.37        59.37    51.765789 
   49080    297.40988   -115868.57    562.19401   -115306.38   -9135.3451    182466.55        59.37        59.37    51.766542 
   49090     300.4069   -115874.22    567.85927   -115306.36   -9664.7569     182469.1        59.37        59.37    51.767267 
   49100    297.44059   -115868.54    562.25205   -115306.29   -8515.6802    182470.96        59.37        59.37    51.767794 
   49110    296.53959    -115866.8    560.54889   -115306.25   -8904.9971    182473.26        59.37        59.37    51.768447 
   49120    298.47829    -115870.4    564.21362   -115306.19   -9316.7318    182475.02        59.37        59.37    51.768945 
   49130    298.25638   -115869.91    563.79414   -115306.11   -8410.6597    182475.44        59.37        59.37    51.769064 
   49140    295.56525   -115864.76    558.70709   -115306.05   -8723.5729    182475.97        59.37        59.37    51.769216 
   49150    298.97722   -115871.17    565.15674   -115306.01   -9650.1101    182476.59        59.37        59.37     51.76939 
   49160    299.89347   -115872.83    566.88874   -115305.94   -9231.7609    182476.52        59.37        59.37    51.769373 
   49170    300.43503   -115873.79    567.91245   -115305.88     -9362.49    182476.49        59.37        59.37    51.769362 
   49180    300.36611   -115873.59    567.78217    -115305.8   -9612.6618     182476.6        59.37        59.37    51.769395 
   49190    300.60104   -115873.98    568.22626   -115305.75   -8838.0494    182476.62        59.37        59.37      51.7694 
   49200    299.05283   -115870.97    565.29968   -115305.67   -8338.3832    182477.35        59.37        59.37    51.769607 
   49210    300.54555   -115873.73    568.12137   -115305.61   -8730.7566    182479.45        59.37        59.37    51.770203 
   49220    297.69711   -115868.25    562.73695   -115305.51   -8558.0932    182482.51        59.37        59.37     51.77107 
   49230    300.50902   -115873.53     568.0523   -115305.48   -8084.5306    182486.49        59.37        59.37    51.772201 
   49240    298.88176   -115870.36     564.9763   -115305.38   -8846.1421    182491.94        59.37        59.37    51.773747 
   49250    297.76568   -115868.18    562.86658   -115305.31   -8228.3616    182498.26        59.37        59.37    51.775541 
   49260    298.18572   -115868.91    563.66057   -115305.24   -7892.2113    182506.14        59.37        59.37    51.777774 
   49270     301.2442   -115874.64    569.44203    -115305.2   -9226.7273    182515.96        59.37        59.37     51.78056 
   49280     296.0234   -115864.65    559.57314   -115305.08   -9309.4013     182526.3        59.37        59.37    51.783495 
   49290       299.67   -115871.51     566.4663   -115305.05   -9235.4591    182536.81        59.37        59.37    51.786476 
   49300    302.30468   -115876.43    571.44665   -115304.98   -10279.627     182547.5        59.37        59.37    51.789508 
   49310    296.81516    -115865.9    561.06981   -115304.83   -10014.135    182557.48        59.37        59.37    51.792341 
   49320    298.95122   -115869.89    565.10759   -115304.79   -9277.2905    182567.04        59.37        59.37    51.795051 
   49330    297.79713   -115867.62    562.92602    -115304.7   -10123.679    182577.01        59.37        59.37    51.797881 
   49340    299.03481   -115869.88     565.2656   -115304.61   -10399.433    182586.35        59.37        59.37    51.800532 
   49350    298.63977   -115869.01    564.51886   -115304.49   -9988.6628    182594.53        59.37        59.37    51.802851 
   49360    295.98258   -115863.85    559.49598   -115304.36   -9822.4445    182602.04        59.37        59.37    51.804981 
   49370     300.7197   -115872.77    568.45057   -115304.32   -10232.437    182608.65        59.37        59.37    51.806858 
   49380    298.91548   -115869.23    565.04004   -115304.19   -9529.8433    182614.69        59.37        59.37    51.808571 
   49390    301.22513   -115873.53    569.40598   -115304.12   -9719.4084    182621.48        59.37        59.37    51.810496 
   49400    301.37044   -115873.71    569.68064   -115304.03   -9638.1942     182629.3        59.37        59.37    51.812717 
   49410    297.82162   -115866.88    562.97231    -115303.9   -9442.6877    182638.06        59.37        59.37    51.815202 
   49420    300.88847   -115872.61    568.76958   -115303.84   -9474.7753    182647.68        59.37        59.37     51.81793 
   49430    299.72975   -115870.27    566.57925   -115303.69   -9647.3886    182657.82        59.37        59.37    51.820806 
   49440    303.08316   -115876.57     572.9182   -115303.65   -9591.8694    182668.07        59.37        59.37    51.823715 
   49450    298.18795   -115867.18    563.66479   -115303.52    -9890.972    182678.54        59.37        59.37    51.826685 
   49460    298.16618   -115867.05    563.62364   -115303.43   -9858.1485    182689.41        59.37        59.37    51.829768 
   49470     297.9979   -115866.62    563.30554   -115303.32   -10401.122    182700.83        59.37        59.37    51.833008 
   49480    299.10623   -115868.62    565.40062   -115303.22   -10809.698    182712.23        59.37        59.37    51.836243 
   49490    299.78308   -115869.79    566.68006   -115303.11    -11045.86    182722.71        59.37        59.37    51.839218 
   49500    299.93235   -115869.96    566.96223   -115302.99   -10993.698    182732.19        59.37        59.37    51.841905 
   49510    298.39708   -115866.94    564.06011   -115302.88    -10948.99    182740.87        59.37        59.37    51.844368 
   49520    297.15619   -115864.48    561.71445   -115302.77   -10427.883    182749.07        59.37        59.37    51.846695 
   49530    299.35828   -115868.56    565.87706   -115302.68   -10533.414    182757.29        59.37        59.37    51.849027 
   49540    299.05076   -115867.85    565.29576   -115302.55    -10893.95    182765.13        59.37        59.37    51.851251 
   49550    297.94294   -115865.64    563.20165   -115302.44   -10975.573    182772.02        59.37        59.37    51.853207 
   49560    299.67202   -115868.82    566.47013   -115302.35   -10439.128    182778.14        59.37        59.37    51.854943 
   49570    299.18077   -115867.74    565.54151    -115302.2   -10448.279    182784.38        59.37        59.37    51.856713 
   49580    301.02536   -115871.12    569.02835   -115302.09   -10743.253    182791.12        59.37        59.37    51.858624 
   49590    301.48034   -115871.89    569.88839      -115302   -10887.566     182797.9        59.37        59.37     51.86055 
   49600    298.21002   -115865.56    563.70651   -115301.86   -10633.123    182804.37        59.37        59.37    51.862383 
   49610    298.67678   -115866.32    564.58883   -115301.74   -11041.296    182810.37        59.37        59.37    51.864086 
   49620    299.60444   -115867.96    566.34238   -115301.61   -10294.092    182815.66        59.37        59.37    51.865588 
   49630    300.60378   -115869.73    568.23143    -115301.5    -10268.68    182821.16        59.37        59.37    51.867147 
   49640    299.34431   -115867.21    565.85065   -115301.36   -11303.203    182826.85        59.37        59.37    51.868763 
   49650     298.7767   -115866.02    564.77771   -115301.24   -10903.066    182832.11        59.37        59.37    51.870255 
   49660     302.5015   -115872.99     571.8187   -115301.17   -11383.169    182837.17        59.37        59.37     51.87169 
   49670    299.35935   -115866.89    565.87909   -115301.01   -11835.097    182841.33        59.37        59.37    51.872869 
   49680    299.34566   -115866.74     565.8532   -115300.89   -11490.757    182843.92        59.37        59.37    51.873603 
   49690    299.93452   -115867.72    566.96633   -115300.75   -11509.246    182845.13        59.37        59.37    51.873947 
   49700    299.92487   -115867.56    566.94809   -115300.61   -11561.978    182844.94        59.37        59.37    51.873893 
   49710    299.14273   -115865.97    565.46961    -115300.5   -11090.616    182843.21        59.37        59.37    51.873404 
   49720     300.7242   -115868.89    568.45907   -115300.43    -10802.97    182840.69        59.37        59.37    51.872688 
   49730    299.98718   -115867.39    567.06587   -115300.32   -11063.997    182838.11        59.37        59.37    51.871956 
   49740    300.78845   -115868.78    568.58052    -115300.2   -10865.794    182835.09        59.37        59.37      51.8711 
   49750    299.80027   -115866.76    566.71257   -115300.04   -10563.378    182831.67        59.37        59.37    51.870128 
   49760    301.54758   -115869.93    570.01549   -115299.91   -10958.008    182828.03        59.37        59.37    51.869095 
   49770    300.51344   -115867.83    568.06066   -115299.77   -10547.338    182823.93        59.37        59.37    51.867932 
   49780    298.74434   -115864.37    564.71653   -115299.65   -10150.228    182819.87        59.37        59.37    51.866781 
   49790    299.80802   -115866.27     566.7272   -115299.54   -10477.844    182816.33        59.37        59.37    51.865776 
   49800    300.29384   -115867.09    567.64555   -115299.45   -10651.646    182813.03        59.37        59.37     51.86484 
   49810    300.67579    -115867.7    568.36756   -115299.33   -10767.289    182809.65        59.37        59.37    51.863882 
   49820    299.72579   -115865.77    566.57177    -115299.2   -10885.603    182806.04        59.37        59.37    51.862857 
   49830    300.50978   -115867.15    568.05374    -115299.1   -10812.913     182802.3        59.37        59.37    51.861797 
   49840    299.49915    -115865.1    566.14335   -115298.96   -10533.845    182798.78        59.37        59.37    51.860798 
   49850    302.96458   -115871.56    572.69405   -115298.86   -11099.105    182795.76        59.37        59.37    51.859942 
   49860    300.27157   -115866.32    567.60346   -115298.72   -10981.206    182792.84        59.37        59.37    51.859114 
   49870    299.80623   -115865.33    566.72382   -115298.61   -11117.028     182789.9        59.37        59.37    51.858278 
   49880    302.34876   -115870.05    571.52997   -115298.52    -11059.31    182786.53        59.37        59.37    51.857323 
   49890    299.68628   -115864.87    566.49709   -115298.37   -10398.813    182782.95        59.37        59.37    51.856308 
   49900    302.57191   -115870.24    571.95179   -115298.29   -10499.788    182779.79        59.37        59.37     51.85541 
   49910    299.81169   -115864.87    566.73415   -115298.14   -10168.536    182776.94        59.37        59.37    51.854601 
   49920    299.72015    -115864.6     566.5611   -115298.04   -10291.573    182774.56        59.37        59.37    51.853928 
   49930    300.37162   -115865.74    567.79258   -115297.95   -10918.136    182772.42        59.37        59.37     51.85332 
   49940    299.84741   -115864.63    566.80167   -115297.83   -10350.825    182769.88        59.37        59.37      51.8526 
   49950    298.81334   -115862.57    564.84697   -115297.72   -10280.687    182767.51        59.37        59.37    51.851928 
   49960    298.49093   -115861.87    564.23752   -115297.63   -10556.702    182765.81        59.37        59.37    51.851444 
   49970    301.43868   -115867.38    569.80964   -115297.57   -10611.924    182764.53        59.37        59.37     51.85108 
   49980    301.62914   -115867.62    570.16967   -115297.45   -10811.045     182763.6        59.37        59.37    51.850819 
   49990    300.70705   -115865.75    568.42665   -115297.32   -10605.941    182762.32        59.37        59.37    51.850453 
   50000    300.30751   -115864.87    567.67139    -115297.2   -10415.366    182760.51        59.37        59.37    51.849941 
Loop time of 2755.89 on 1 procs for 50000 steps with 14625 atoms

Performance: 3.135 ns/day, 7.655 hours/ns, 18.143 timesteps/s
76.3% CPU use with 1 MPI tasks x 1 OpenMP threads

MPI task timing breakdown:
Section |  min time  |  avg time  |  max time  |%varavg| %total
---------------------------------------------------------------
Pair    | 2591.2     | 2591.2     | 2591.2     |   0.0 | 94.02
Neigh   | 0          | 0          | 0          |   0.0 |  0.00
Comm    | 5.6853     | 5.6853     | 5.6853     |   0.0 |  0.21
Output  | 124.74     | 124.74     | 124.74     |   0.0 |  4.53
Modify  | 28.977     | 28.977     | 28.977     |   0.0 |  1.05
Other   |            | 5.315      |            |       |  0.19

Nlocal:        14625.0 ave       14625 max       14625 min
Histogram: 1 0 0 0 0 0 0 0 0 0
Nghost:        17295.0 ave       17295 max       17295 min
Histogram: 1 0 0 0 0 0 0 0 0 0
Neighs:        0.00000 ave           0 max           0 min
Histogram: 1 0 0 0 0 0 0 0 0 0

Total # of neighbors = 0
Ave neighs/atom = 0.0000000
Neighbor list builds = 0
Dangerous builds = 0
write_restart    PTO_C.restart
System init for write_restart ...


Please see the log.cite file for references relevant to this simulation

Total wall time: 0:46:04
