LAMMPS (29 Oct 2020)
OMP_NUM_THREADS environment is not set. Defaulting to 1 thread. (src/comm.cpp:94)
  using 1 OpenMP thread(s) per MPI task
variable        NSTEPS          equal 25000
variable        THERMO_FREQ     equal 10
variable        DUMP_FREQ       equal 10
variable        TEMP            equal 300
variable        PRES            equal 1.0
variable        TAU_T           equal 1.0
variable        TAU_P           equal 5.0

units           metal
boundary        p p p
atom_style      atomic

neighbor	2.0 bin
neigh_modify	every 1

read_data       PTO_C.data
Reading data file ...
  triclinic box = (0.0000000 0.0000000 0.0000000) to (15.832000 158.32000 160.97712) with tilt (0.0000000 0.0000000 0.0000000)
  1 by 1 by 1 MPI processor grid
  reading atoms ...
  32000 atoms
  read_data CPU = 0.058 seconds

mass            1 87.620000
mass            2 207.200000
mass            3 47.867000
mass            4 15.999000
pair_style      deepmd /storage/liushiLab/huyihao/DPMD/L25/new-field-model/phase-diagram/15-15-15/300K_3.956_3.956_D/Sr-dope/PSTO_SS_example/1_DP_potential/compress01.pb

pair_coeff

thermo_style    custom step temp pe ke etotal press vol lx ly lz
thermo          ${THERMO_FREQ}
thermo          10

#min_style cg
#minimize 1.0e-4 1.0e-6 1000 10000

dump            1 all custom ${DUMP_FREQ} traj/*.lammpstrj id type x y z
dump            1 all custom 10 traj/*.lammpstrj id type x y z
dump_modify  1 sort id

velocity        all create ${TEMP} 539619
velocity        all create 300 539619
fix             1 all npt temp ${TEMP} ${TEMP} ${TAU_T} z ${PRES} ${PRES} ${TAU_P}
fix             1 all npt temp 300 ${TEMP} ${TAU_T} z ${PRES} ${PRES} ${TAU_P}
fix             1 all npt temp 300 300 ${TAU_T} z ${PRES} ${PRES} ${TAU_P}
fix             1 all npt temp 300 300 1 z ${PRES} ${PRES} ${TAU_P}
fix             1 all npt temp 300 300 1 z 1 ${PRES} ${TAU_P}
fix             1 all npt temp 300 300 1 z 1 1 ${TAU_P}
fix             1 all npt temp 300 300 1 z 1 1 5

timestep        0.002000
run             ${NSTEPS}
run             25000
Neighbor list info ...
  update every 1 steps, delay 10 steps, check yes
  max neighbors/atom: 2000, page size: 100000
  master list distance cutoff = 8
  ghost atom cutoff = 8
  binsize = 4, bins = 4 40 41
  1 neighbor lists, perpetual/occasional/extra = 1 0 0
  (1) pair deepmd, perpetual
      attributes: , newton on
      pair build: full/bin/atomonly
      stencil: full/bin/3d
      bin: standard
Per MPI rank memory allocation (min/avg/max) = 41.23 | 41.23 | 41.23 Mbytes
Step Temp PotEng KinEng TotEng Press Volume Lx Ly Lz 
       0          300   -254364.68    1240.8586   -253123.82   -53531.452    403492.73       15.832       158.32    160.97712 
      10    169.08384   -253823.01    699.36381   -253123.65   -41998.505    403426.67       15.832       158.32    160.95076 
      20       189.76   -253912.95    784.88445   -253128.07   -26962.557    403262.42       15.832       158.32    160.88524 
      30    178.51339   -253868.87    738.36627   -253130.51   -24036.097    403044.93       15.832       158.32    160.79846 
      40    189.40797   -253917.61    783.42838   -253134.19   -19649.743    402777.82       15.832       158.32     160.6919 
      50    177.89075   -253871.83     735.7909   -253136.04   -17298.347    402481.59       15.832       158.32    160.57372 
      60    173.29233   -253856.94    716.77095   -253140.16   -18641.187    402161.48       15.832       158.32    160.44601 
      70    165.31556    -253827.3    683.77744   -253143.52   -8768.9557    401814.73       15.832       158.32    160.30766 
      80    177.81137   -253877.74    735.46259   -253142.27    -3954.064    401482.88       15.832       158.32    160.17527 
      90    185.98272   -253911.95    769.26085   -253142.69   -14587.035    401182.68       15.832       158.32     160.0555 
     100    199.43241   -253969.78    824.89143   -253144.89   -18089.254    400887.56       15.832       158.32    159.93776 
     110    203.86656   -253990.53    843.23191   -253147.29   -23335.623    400598.06       15.832       158.32    159.82227 
     120    204.36253   -253996.47    845.28334   -253151.19   -26367.724    400304.58       15.832       158.32    159.70518 
     130     198.8876   -253976.59    822.63797   -253153.95   -17791.539    400005.44       15.832       158.32    159.58583 
     140     203.5079   -253996.03    841.74843   -253154.28   -17522.766    399727.83       15.832       158.32    159.47508 
     150     202.3983   -253993.13    837.15891   -253155.97   -20956.708    399465.99       15.832       158.32    159.37061 
     160    193.60055   -253958.22    800.76968   -253157.45   -15800.418    399204.23       15.832       158.32    159.26618 
     170    201.92969   -253992.74    835.22066   -253157.51   -13101.226    398955.47       15.832       158.32    159.16694 
     180    196.33329   -253968.82    812.07285   -253156.74   -10285.384    398725.94       15.832       158.32    159.07536 
     190    199.61229   -253980.55    825.63542   -253154.91   -779.42188    398520.54       15.832       158.32    158.99342 
     200    203.28506   -253992.77    840.82673   -253151.94   -865.57299    398358.92       15.832       158.32    158.92894 
     210    196.32943   -253962.03    812.05687   -253149.98   -5717.7566    398232.17       15.832       158.32    158.87837 
     220    194.35806   -253952.33    803.90293   -253148.43   -3908.5273    398119.94       15.832       158.32     158.8336 
     230     203.3021   -253987.57    840.89722   -253146.67   -4858.3162    398023.97       15.832       158.32    158.79531 
     240    204.17408   -253989.35    844.50389   -253144.85   -7167.1771    397945.89       15.832       158.32    158.76416 
     250    202.20797   -253979.48    836.37167   -253143.11   -5638.7649    397884.45       15.832       158.32    158.73964 
     260    201.80589   -253976.14    834.70858   -253141.43   -9491.8511    397839.83       15.832       158.32    158.72184 
     270    195.48276   -253948.46     808.5549    -253139.9   -14489.382    397798.27       15.832       158.32    158.70526 
     280    190.82256   -253927.94    789.27941   -253138.66   -13648.419    397745.29       15.832       158.32    158.68412 
     290    194.39967   -253941.54    804.07503   -253137.47   -12038.654    397680.71       15.832       158.32    158.65836 
     300    195.62654   -253945.21    809.14958   -253136.06   -10566.808    397609.57       15.832       158.32    158.62998 
     310    199.26781   -253958.72    824.21061   -253134.51   -6736.7682    397538.25       15.832       158.32    158.60152 
     320    202.28528   -253969.46    836.69144   -253132.77   -5638.1949    397474.14       15.832       158.32    158.57595 
     330    202.76794    -253969.8    838.68782   -253131.11   -6219.9566    397415.68       15.832       158.32    158.55262 
     340    202.74635   -253968.06     838.5985   -253129.47    -3569.991    397359.27       15.832       158.32    158.53012 
     350    204.51844   -253973.59    845.92822   -253127.66   -1434.6592    397310.62       15.832       158.32    158.51071 
     360    206.56757   -253980.24    854.40381   -253125.83   -816.53118    397275.04       15.832       158.32    158.49652 
     370    206.49015   -253978.11    854.08361   -253124.03    155.27408    397254.28       15.832       158.32    158.48823 
     380    208.28497   -253983.79    861.50734   -253122.28   -1977.5584     397249.8       15.832       158.32    158.48645 
     390    206.79607   -253975.87    855.34896   -253120.53   -4402.7552    397254.86       15.832       158.32    158.48846 
     400    206.20816   -253971.73    852.91725   -253118.82   -4617.5513    397262.12       15.832       158.32    158.49136 
     410    207.56974   -253975.66    858.54901   -253117.11   -4614.7125    397271.26       15.832       158.32    158.49501 
     420    205.15161   -253963.88    848.54714   -253115.34    -4679.381    397283.55       15.832       158.32    158.49991 
     430    206.81051   -253969.04    855.40869   -253113.63   -4457.0123    397299.24       15.832       158.32    158.50617 
     440    205.61149    -253962.3    850.44928   -253111.85   -5124.7946    397318.27       15.832       158.32    158.51376 
     450    204.88705   -253957.54    847.45289   -253110.09   -5600.3364    397337.59       15.832       158.32    158.52147 
     460    204.40487   -253953.79    845.45848   -253108.34    -4283.805    397355.15       15.832       158.32    158.52848 
     470     205.0348   -253954.68    848.06399   -253106.62   -2549.9566    397373.97       15.832       158.32    158.53599 
     480    205.04718      -253953    848.11519   -253104.89   -1954.8703    397399.22       15.832       158.32    158.54606 
     490    206.85901   -253958.78    855.60927   -253103.17   -1848.0013     397432.6       15.832       158.32    158.55938 
     500    207.75231   -253960.72    859.30414   -253101.42   -2083.4045    397472.66       15.832       158.32    158.57536 
     510    208.63872   -253962.61    862.97052   -253099.63   -2830.4935    397517.03       15.832       158.32    158.59306 
     520    210.00443   -253966.49    868.61934   -253097.87   -2731.4309    397563.87       15.832       158.32    158.61175 
     530     211.5947   -253971.32    875.19703   -253096.12   -2502.3636    397614.68       15.832       158.32    158.63202 
     540    212.72167    -253974.2    879.85839   -253094.34   -3638.7138    397670.71       15.832       158.32    158.65437 
     550    212.56728   -253971.72    879.21982    -253092.5   -4478.6181    397728.87       15.832       158.32    158.67757 
     560    211.88361   -253967.05    876.39201   -253090.66   -5123.2691    397786.05       15.832       158.32    158.70039 
     570     210.0679   -253957.61    868.88187   -253088.73   -5830.7506    397839.82       15.832       158.32    158.72184 
     580    210.33878   -253956.86    870.00229   -253086.86   -5169.0076    397889.59       15.832       158.32    158.74169 
     590    208.50546   -253947.42    862.41932      -253085   -4102.6515    397938.86       15.832       158.32    158.76135 
     600    208.78828   -253946.75    863.58912   -253083.16   -4556.3186    397989.63       15.832       158.32    158.78161 
     610    208.42921   -253943.39    862.10393   -253081.28   -4211.9342     398039.6       15.832       158.32    158.80154 
     620    208.89511   -253943.46      864.031   -253079.43   -3820.8386    398088.72       15.832       158.32    158.82114 
     630     210.9419   -253950.05    872.49692   -253077.56   -3413.1296     398138.1       15.832       158.32    158.84084 
     640    214.05123   -253961.05    885.35772    -253075.7   -2801.5401     398189.1       15.832       158.32    158.86119 
     650    216.62625   -253969.89    896.00849   -253073.88    -3142.406    398244.44       15.832       158.32    158.88326 
     660    215.94468   -253965.12    893.18939   -253071.93   -3856.3266    398302.78       15.832       158.32    158.90654 
     670    217.18658   -253968.33    898.32612      -253070   -4269.0697    398360.53       15.832       158.32    158.92958 
     680    216.57399   -253963.81    895.79234   -253068.02   -4820.7771    398416.98       15.832       158.32     158.9521 
     690    216.74783    -253962.6    896.51136   -253066.09   -4504.6467     398472.2       15.832       158.32    158.97413 
     700     215.7321   -253956.49     892.3101   -253064.18   -4134.0788    398526.76       15.832       158.32     158.9959 
     710    213.48132   -253945.21    883.00047    -253062.2   -4693.4581    398581.17       15.832       158.32    159.01761 
     720    212.58075   -253939.48    879.27552   -253060.21    -4965.914    398633.13       15.832       158.32    159.03834 
     730    213.12232   -253939.75    881.51554   -253058.24   -4890.2218    398681.17       15.832       158.32     159.0575 
     740    213.07448   -253937.57    881.31769   -253056.26   -4983.0559    398726.95       15.832       158.32    159.07577 
     750    214.04283   -253939.56    885.32295   -253054.24   -4840.2721    398770.51       15.832       158.32    159.09315 
     760    215.42405   -253943.25    891.03594   -253052.21   -4560.8845    398811.35       15.832       158.32    159.10944 
     770    216.20896   -253944.45    894.28249   -253050.17    -5006.666    398849.05       15.832       158.32    159.12448 
     780    216.77999    -253944.7    896.64439   -253048.06   -4956.4753    398881.14       15.832       158.32    159.13728 
     790    217.51798   -253945.71    899.69687   -253046.01     -4396.12    398907.94       15.832       158.32    159.14797 
     800    217.97701   -253945.58    901.59549   -253043.98   -4522.5601    398932.02       15.832       158.32    159.15758 
     810    219.04567   -253947.94    906.01571   -253041.93   -4088.9591    398952.56       15.832       158.32    159.16578 
     820    218.17489   -253942.27    902.41396   -253039.85   -4345.3939    398969.72       15.832       158.32    159.17262 
     830    220.16875   -253948.49    910.66098   -253037.83   -4719.6834     398982.9       15.832       158.32    159.17788 
     840    219.74242   -253944.62    908.89757   -253035.72   -4326.2203     398990.7       15.832       158.32    159.18099 
     850    219.00396    -253939.5    905.84318   -253033.65   -4151.7267    398994.75       15.832       158.32    159.18261 
     860    219.23993    -253938.4    906.81918   -253031.58   -4176.4642    398996.35       15.832       158.32    159.18325 
     870    218.56703   -253933.52    904.03594   -253029.48   -4082.5317    398994.68       15.832       158.32    159.18258 
     880    218.57433    -253931.5    904.06612   -253027.44   -4344.7261    398989.97       15.832       158.32     159.1807 
     890    218.00347   -253927.08    901.70493   -253025.37   -4336.4202    398982.43       15.832       158.32    159.17769 
     900     218.8565   -253928.54    905.23325   -253023.31   -3657.6652    398972.75       15.832       158.32    159.17383 
     910    219.62302   -253929.66    908.40371   -253021.25   -3623.8199    398963.18       15.832       158.32    159.17002 
     920    219.92491   -253928.83    909.65239   -253019.18   -3575.7322    398953.73       15.832       158.32    159.16625 
     930    219.07556    -253923.2    906.13931   -253017.06   -3148.4688     398943.9       15.832       158.32    159.16232 
     940    219.87104   -253924.39    909.42957   -253014.97   -3327.0618    398934.82       15.832       158.32     159.1587 
     950    221.76052   -253930.11    917.24484   -253012.87   -2900.2106    398926.93       15.832       158.32    159.15555 
     960    222.96646   -253932.97    922.23286   -253010.74   -2366.7389    398922.09       15.832       158.32    159.15362 
     970    222.29488   -253928.03    919.45506   -253008.57   -2427.7626     398921.7       15.832       158.32    159.15346 
     980    222.49227   -253926.72     920.2715   -253006.45   -2298.9768    398925.22       15.832       158.32    159.15487 
     990     221.3323    -253919.8    915.47365   -253004.33   -2348.7316    398932.18       15.832       158.32    159.15764 
    1000    222.35662   -253921.96    919.71043   -253002.25    -2353.531    398942.71       15.832       158.32    159.16185 
    1010    222.87988   -253922.01    921.87471   -253000.14   -2130.8081    398957.19       15.832       158.32    159.16762 
    1020    223.26834   -253921.52    923.48147   -252998.04   -2413.7077    398976.35       15.832       158.32    159.17527 
    1030    222.40813   -253915.82    919.92347    -252995.9   -2620.7962    398999.38       15.832       158.32    159.18446 
    1040    223.27009    -253917.3    923.48873   -252993.81   -2589.3074    399024.92       15.832       158.32    159.19465 
    1050    224.06576   -253918.49    926.77976   -252991.71   -2673.2699    399053.08       15.832       158.32    159.20588 
    1060    224.27138   -253917.23    927.63025    -252989.6   -2529.6767    399084.51       15.832       158.32    159.21842 
    1070    224.08012   -253914.32    926.83917   -252987.48   -2213.6569     399119.7       15.832       158.32    159.23246 
    1080    224.45401   -253913.79    928.38563   -252985.41   -2692.4596    399158.83       15.832       158.32    159.24807 
    1090     225.2327   -253914.91    931.60644    -252983.3   -2749.3147    399200.35       15.832       158.32    159.26464 
    1100    225.56818   -253914.16    932.99408   -252981.17      -2528.2    399244.01       15.832       158.32    159.28205 
    1110      225.153   -253910.38    931.27679    -252979.1   -2452.8857    399291.23       15.832       158.32    159.30089 
    1120     224.0747   -253903.84    926.81672   -252977.02   -2058.8709    399342.54       15.832       158.32    159.32137 
    1130    224.29173   -253902.68    927.71442   -252974.96   -2467.3039    399397.69       15.832       158.32    159.34337 
    1140    225.43111   -253905.32     932.4271   -252972.89   -2796.6519    399455.59       15.832       158.32    159.36646 
    1150    226.78042    -253908.8    938.00814   -252970.79   -3010.2557    399514.71       15.832       158.32    159.39005 
    1160    226.64111   -253906.12    937.43191   -252968.68   -3081.2658     399575.2       15.832       158.32    159.41419 
    1170    225.77851   -253900.43    933.86405   -252966.56   -2998.7324    399637.96       15.832       158.32    159.43922 
    1180     227.9067   -253907.15    942.66666   -252964.48   -3136.2987    399702.57       15.832       158.32      159.465 
    1190    226.52974   -253899.28    936.97126   -252962.31   -3500.5602    399768.13       15.832       158.32    159.49116 
    1200    227.90212   -253902.86    942.64768   -252960.21    -3640.285    399834.19       15.832       158.32    159.51751 
    1210    226.54323    -253895.1    937.02707   -252958.07   -3258.2245    399900.64       15.832       158.32    159.54402 
    1220    226.28942   -253891.97    935.97726   -252955.99   -3266.2942    399968.62       15.832       158.32    159.57114 
    1230    226.75385   -253891.77    937.89824   -252953.87   -3308.9995    400038.05       15.832       158.32    159.59885 
    1240    227.57387   -253893.04    941.28998   -252951.75   -3625.6123    400107.75       15.832       158.32    159.62665 
    1250    227.01405   -253888.56    938.97446   -252949.59   -3842.2032    400177.21       15.832       158.32    159.65436 
    1260    228.36569   -253892.07    944.56511    -252947.5   -3836.2682    400246.65       15.832       158.32    159.68207 
    1270     228.6171   -253890.95    945.60497   -252945.35   -3937.0776    400316.21       15.832       158.32    159.70982 
    1280    228.98743   -253890.29    947.13674   -252943.15   -4242.1662     400385.5       15.832       158.32    159.73746 
    1290    228.21529   -253884.86    943.94302   -252940.92    -4772.116    400452.63       15.832       158.32    159.76424 
    1300     230.3915   -253891.69    952.94425   -252938.75   -5128.9358    400516.04       15.832       158.32    159.78954 
    1310    228.25552   -253880.55    944.10945   -252936.44    -5162.764    400575.64       15.832       158.32    159.81332 
    1320    229.66323   -253884.15      949.932   -252934.22   -5247.7978    400632.12       15.832       158.32    159.83585 
    1330    230.31324   -253884.57    952.62056   -252931.94   -5479.1615     400685.2       15.832       158.32    159.85703 
    1340    230.76425   -253884.19    954.48601    -252929.7   -5563.7265    400734.13       15.832       158.32    159.87655 
    1350    228.20607   -253871.31    943.90488   -252927.41   -5491.5061    400778.95       15.832       158.32    159.89443 
    1360    229.83339   -253875.81     950.6358   -252925.18   -5532.3086    400820.16       15.832       158.32    159.91087 
    1370    229.90309   -253873.83    950.92411   -252922.91   -5607.8945    400858.35       15.832       158.32    159.92611 
    1380    231.98234    -253880.2     959.5243   -252920.68   -5710.5432    400893.43       15.832       158.32     159.9401 
    1390    232.11414   -253878.43    960.06943   -252918.36   -5715.2617     400924.9       15.832       158.32    159.95266 
    1400    231.53267   -253873.73    957.66437   -252916.06   -5753.8241    400952.41       15.832       158.32    159.96364 
    1410    233.11668   -253878.04    964.21613   -252913.83    -5946.815    400976.73       15.832       158.32    159.97334 
    1420    232.86454    -253874.7    963.17324   -252911.52    -6242.094    400998.25       15.832       158.32    159.98192 
    1430    233.28029    -253874.1    964.89287    -252909.2   -6047.4138    401016.44       15.832       158.32    159.98918 
    1440    233.73692   -253873.74    966.78155   -252906.96   -6172.4457    401030.81       15.832       158.32    159.99491 
    1450    230.91576   -253859.76    955.11269   -252904.65   -5942.2429    401041.11       15.832       158.32    159.99902 
    1460    233.28394   -253867.33    964.90796   -252902.42   -5929.7564    401048.26       15.832       158.32    160.00188 
    1470    232.61666    -253862.3    962.14797   -252900.16   -6426.5256    401053.25       15.832       158.32    160.00387 
    1480    232.24875   -253858.53    960.62622   -252897.91   -6373.7886    401055.11       15.832       158.32    160.00461 
    1490    234.18603   -253864.31    968.63917   -252895.67   -6499.0332    401053.26       15.832       158.32    160.00387 
    1500     232.8226   -253856.38    962.99976   -252893.38   -6302.0165    401048.12       15.832       158.32    160.00182 
    1510    233.35428   -253856.34    965.19889   -252891.14   -6313.4522    401040.38       15.832       158.32    159.99873 
    1520    233.43745   -253854.34     965.5429    -252888.8   -6396.3029    401030.83       15.832       158.32    159.99492 
    1530    234.10885   -253854.84    968.31996   -252886.52   -6299.8909    401019.72       15.832       158.32    159.99049 
    1540     234.1791   -253852.88    968.61053   -252884.27   -5963.3264    401006.63       15.832       158.32    159.98527 
    1550    234.95169   -253853.82    971.80608   -252882.01   -6069.0567    400992.09       15.832       158.32    159.97947 
    1560    235.31418   -253853.03    973.30544   -252879.73   -5943.6817    400976.46       15.832       158.32    159.97323 
    1570    235.27265   -253850.56    973.13365   -252877.43   -6130.0734    400960.56       15.832       158.32    159.96689 
    1580    237.76175   -253858.63    983.42907    -252875.2   -6275.7755    400944.23       15.832       158.32    159.96037 
    1590    237.10043   -253853.58    980.69372   -252872.88   -6187.4357    400926.83       15.832       158.32    159.95343 
    1600    237.88496   -253854.54    983.93869    -252870.6   -5832.7676    400908.12       15.832       158.32    159.94597 
    1610    238.54154   -253854.95    986.65441    -252868.3   -5863.9524    400889.38       15.832       158.32    159.93849 
    1620    237.57898   -253848.66     982.6731   -252865.99   -5862.9235    400870.46       15.832       158.32    159.93094 
    1630    237.77905   -253847.21    983.50062   -252863.71   -5983.3131    400850.48       15.832       158.32    159.92297 
    1640    236.41267   -253839.24    977.84898   -252861.39   -6056.8425    400829.39       15.832       158.32    159.91456 
    1650    238.25941   -253844.63    985.48746   -252859.14   -6014.0159    400807.41       15.832       158.32    159.90579 
    1660    237.44461   -253838.97    982.11731   -252856.85   -6061.0696    400784.98       15.832       158.32    159.89684 
    1670    236.88499   -253834.36    979.80261   -252854.55   -5878.4749    400762.29       15.832       158.32    159.88779 
    1680    236.89732    -253832.1    979.85359   -252852.25   -6003.3126    400738.99       15.832       158.32    159.87849 
    1690    239.11084   -253839.03    989.00917   -252850.02   -6130.5432    400714.61       15.832       158.32    159.86876 
    1700    240.33408   -253841.77     994.0687    -252847.7   -5832.2345    400689.06       15.832       158.32    159.85857 
    1710    240.51381   -253840.15     994.8121   -252845.33   -5832.6712    400663.33       15.832       158.32     159.8483 
    1720    242.04018   -253844.17    1001.1255   -252843.05   -5986.5005    400637.46       15.832       158.32    159.83798 
    1730    240.12368    -253833.9    993.19844    -252840.7   -5863.5083    400610.75       15.832       158.32    159.82733 
    1740    242.23284   -253840.35    1001.9224   -252838.43   -5949.5975    400582.83       15.832       158.32    159.81619 
    1750    243.10339   -253841.65    1005.5231   -252836.13    -5630.826    400553.52       15.832       158.32    159.80449 
    1760    243.42655   -253840.71    1006.8598   -252833.85   -5472.3564    400523.89       15.832       158.32    159.79267 
    1770    244.96564   -253844.77    1013.2257   -252831.54   -5674.3077    400494.94       15.832       158.32    159.78112 
    1780    244.04554   -253838.66      1009.42   -252829.24   -5907.2765    400466.32       15.832       158.32    159.76971 
    1790    244.20948   -253837.05    1010.0981   -252826.95   -5812.1445    400436.86       15.832       158.32    159.75795 
    1800    243.82754   -253833.14    1008.5183   -252824.62   -6083.9063    400406.45       15.832       158.32    159.74582 
    1810    243.84783   -253830.94    1008.6023   -252822.34   -5817.5122    400375.41       15.832       158.32    159.73344 
    1820    244.55907   -253831.56    1011.5441   -252820.01   -5940.2516    400344.24       15.832       158.32      159.721 
    1830    244.26663   -253828.02    1010.3345   -252817.68   -6156.7749    400312.55       15.832       158.32    159.70836 
    1840    244.10236   -253825.04     1009.655   -252815.39   -5982.1375    400279.41       15.832       158.32    159.69514 
    1850    246.15631   -253831.29    1018.1506   -252813.14   -5777.0227    400245.08       15.832       158.32    159.68144 
    1860    245.16872   -253824.88    1014.0657   -252810.82   -5839.5538    400209.89       15.832       158.32     159.6674 
    1870    244.88761   -253821.43     1012.903   -252808.53    -5433.281    400174.19       15.832       158.32    159.65316 
    1880    247.53573   -253830.14    1023.8561   -252806.28   -5379.1146    400138.73       15.832       158.32    159.63901 
    1890    247.64922   -253828.27    1024.3256   -252803.94   -5886.0769    400103.31       15.832       158.32    159.62488 
    1900    247.51676   -253825.39    1023.7777   -252801.61   -5742.4256     400066.9       15.832       158.32    159.61035 
    1910    248.23065   -253826.05    1026.7305   -252799.32   -5436.9494    400030.22       15.832       158.32    159.59572 
    1920    246.81798   -253817.84    1020.8874   -252796.96   -5636.0808    399994.38       15.832       158.32    159.58142 
    1930    247.19113    -253817.1    1022.4308   -252794.67   -5588.1809    399959.32       15.832       158.32    159.56743 
    1940    248.71772   -253821.14    1028.7451   -252792.39   -5854.5586    399924.72       15.832       158.32    159.55363 
    1950    248.43281   -253817.64    1027.5667   -252790.07   -6201.4844     399889.9       15.832       158.32    159.53974 
    1960    248.07025   -253813.87     1026.067   -252787.81   -5933.1727    399854.54       15.832       158.32    159.52563 
    1970    247.48323   -253809.12     1023.639   -252785.48   -5775.6714    399819.59       15.832       158.32    159.51169 
    1980    248.64255   -253811.62    1028.4342   -252783.19   -5880.5866    399785.88       15.832       158.32    159.49824 
    1990    248.04467   -253806.82    1025.9612   -252780.86   -5639.2354    399753.26       15.832       158.32    159.48522 
    2000    248.98858   -253808.42    1029.8654   -252778.55   -5571.3507    399721.79       15.832       158.32    159.47267 
    2010    249.09744   -253806.54    1030.3157   -252776.22   -5523.3829    399691.65       15.832       158.32    159.46064 
    2020    249.44756   -253805.64    1031.7638   -252773.88   -5239.7343    399663.37       15.832       158.32    159.44936 
    2030    250.16474   -253806.29    1034.7303   -252771.56   -5399.7028    399637.34       15.832       158.32    159.43898 
    2040     249.9686   -253803.18     1033.919   -252769.26   -5778.0491    399612.82       15.832       158.32    159.42919 
    2050     249.4641   -253798.79    1031.8323   -252766.96   -5648.6693    399588.61       15.832       158.32    159.41954 
    2060    251.09711   -253803.24    1038.5867   -252764.65   -5939.7128    399564.96       15.832       158.32     159.4101 
    2070    251.47366   -253802.46    1040.1442   -252762.31   -6022.9509    399541.63       15.832       158.32    159.40079 
    2080    249.36977    -253791.4    1031.4421   -252759.95   -5832.6993    399518.42       15.832       158.32    159.39153 
    2090     251.1717   -253796.55    1038.8952   -252757.66   -5957.1003    399495.59       15.832       158.32    159.38242 
    2100     249.5635   -253787.56    1032.2434   -252755.32   -6184.4655    399471.97       15.832       158.32      159.373 
    2110    251.89806      -253795    1041.8996    -252753.1   -6162.9758    399446.59       15.832       158.32    159.36287 
    2120    251.89829   -253792.68    1041.9005   -252750.78   -6034.4213     399419.9       15.832       158.32    159.35223 
    2130    251.48367   -253788.65    1040.1856   -252748.46   -6001.6191    399392.04       15.832       158.32    159.34111 
    2140     251.7872   -253787.58    1041.4411   -252746.13   -5747.2965    399363.49       15.832       158.32    159.32972 
    2150    253.46451   -253792.25    1048.3787   -252743.87   -5851.2086    399334.69       15.832       158.32    159.31823 
    2160    250.87514   -253779.21    1037.6686   -252741.54   -6042.6305    399304.88       15.832       158.32    159.30634 
    2170    250.51945   -253775.45    1036.1974   -252739.25   -5994.7525    399273.75       15.832       158.32    159.29392 
    2180    253.10356   -253783.91    1046.8858   -252737.02   -6347.6868    399241.65       15.832       158.32    159.28111 
    2190    252.71546   -253779.99    1045.2805   -252734.71   -6136.0885    399207.97       15.832       158.32    159.26768 
    2200    252.20216   -253775.56    1043.1574   -252732.41   -6054.2963    399173.04       15.832       158.32    159.25374 
    2210    254.59813   -253783.21    1053.0676   -252730.14     -6346.51    399137.46       15.832       158.32    159.23955 
    2220    253.67709   -253777.11     1049.258   -252727.85   -6429.5447    399100.76       15.832       158.32     159.2249 
    2230    253.45016   -253773.87    1048.3194   -252725.56   -6399.9173    399062.71       15.832       158.32    159.20972 
    2240    254.55974   -253776.16    1052.9088   -252723.25   -6387.5241    399023.35       15.832       158.32    159.19402 
    2250    254.59201      -253774    1053.0423   -252720.96   -6346.5696    398982.83       15.832       158.32    159.17785 
    2260    255.21325   -253774.32    1055.6118   -252718.71   -6205.7645    398941.89       15.832       158.32    159.16152 
    2270    254.59672   -253769.47    1053.0618   -252716.41   -6027.7173    398901.11       15.832       158.32    159.14525 
    2280    253.55283   -253762.79    1048.7441   -252714.05   -5817.9086    398861.33       15.832       158.32    159.12938 
    2290    256.06703   -253770.93    1059.1433   -252711.78   -5886.5073    398823.21       15.832       158.32    159.11417 
    2300    254.51057   -253762.13    1052.7054   -252709.42   -5653.4079    398786.85       15.832       158.32    159.09966 
    2310    254.90242   -253761.39    1054.3262   -252707.06    -5738.819    398752.54       15.832       158.32    159.08598 
    2320    256.45115    -253765.5    1060.7321   -252704.77   -5691.6681    398720.31       15.832       158.32    159.07312 
    2330    255.25524   -253758.21    1055.7856   -252702.43   -5775.1479    398689.66       15.832       158.32    159.06089 
    2340    256.60347   -253761.51    1061.3621   -252700.14   -6030.6347    398660.55       15.832       158.32    159.04928 
    2350    255.62512   -253755.13    1057.3155   -252697.82    -6179.942    398632.59       15.832       158.32    159.03812 
    2360    258.37689   -253764.27    1068.6973   -252695.57    -6034.609    398604.99       15.832       158.32    159.02711 
    2370    256.50634   -253754.15    1060.9603   -252693.19   -6227.6413    398577.91       15.832       158.32    159.01631 
    2380    258.14789   -253758.67    1067.7501   -252690.92   -6068.5122    398551.24       15.832       158.32    159.00567 
    2390    256.11384   -253747.91    1059.3369   -252688.58   -5841.4835     398524.7       15.832       158.32    158.99508 
    2400    256.88879   -253748.86    1062.5422   -252686.32   -6252.1158    398498.35       15.832       158.32    158.98456 
    2410    256.76992   -253746.08    1062.0506   -252684.03   -6113.7775    398471.68       15.832       158.32    158.97393 
    2420    257.46183   -253746.64    1064.9125   -252681.73   -5983.8196     398444.4       15.832       158.32    158.96304 
    2430    258.04463   -253746.77     1067.323   -252679.44   -5829.9665    398417.17       15.832       158.32    158.95218 
    2440    258.42715   -253746.04    1068.9052   -252677.14     -5460.08    398390.41       15.832       158.32     158.9415 
    2450     259.6653   -253748.85    1074.0264   -252674.82   -5357.4522    398364.46       15.832       158.32    158.93115 
    2460    258.46665   -253741.58    1069.0686   -252672.52   -5632.1989    398339.22       15.832       158.32    158.92108 
    2470    257.66865   -253735.98    1065.7679   -252670.21   -5301.0785    398314.22       15.832       158.32    158.91111 
    2480    259.48292   -253741.19    1073.2721   -252667.91   -5180.4999    398289.64       15.832       158.32     158.9013 
    2490    257.72763   -253731.62    1066.0118    -252665.6   -5178.0916    398265.69       15.832       158.32    158.89174 
    2500    259.15725   -253735.25     1071.925   -252663.33   -4870.8742    398242.63       15.832       158.32    158.88255 
    2510    260.11175   -253736.89     1075.873   -252661.01   -5183.7085    398220.17       15.832       158.32    158.87358 
    2520    259.31681   -253731.33     1072.585   -252658.75   -5088.4389    398197.48       15.832       158.32    158.86453 
    2530    259.94566   -253731.66    1075.1861   -252656.47   -5001.1056    398174.92       15.832       158.32    158.85553 
    2540    260.64102   -253732.23    1078.0622   -252654.16   -5019.6954    398152.51       15.832       158.32    158.84659 
    2550    260.15691   -253727.92    1076.0598   -252651.86   -4895.6048    398130.38       15.832       158.32    158.83776 
    2560    260.19745   -253725.78    1076.2275   -252649.56    -4763.412    398109.12       15.832       158.32    158.82928 
    2570    261.18877    -253727.6    1080.3278   -252647.27   -4934.3121    398088.37       15.832       158.32      158.821 
    2580    259.67353   -253719.01    1074.0605   -252644.95   -4615.3215    398067.66       15.832       158.32    158.81274 
    2590    261.14561   -253722.88    1080.1493   -252642.73    -4447.818    398048.09       15.832       158.32    158.80493 
    2600    261.15473   -253720.62     1080.187   -252640.44   -4533.0876    398030.27       15.832       158.32    158.79782 
    2610    262.42081   -253723.59    1085.4237   -252638.17   -4541.0835    398013.82       15.832       158.32    158.79126 
    2620    260.36837   -253712.76    1076.9344   -252635.82   -4346.1954    397998.57       15.832       158.32    158.78518 
    2630    262.26024   -253718.32    1084.7596   -252633.56    -4690.673    397984.53       15.832       158.32    158.77957 
    2640    262.33546   -253716.33    1085.0707   -252631.26   -4518.4626    397971.11       15.832       158.32    158.77422 
    2650    260.54162   -253706.58    1077.6511   -252628.93   -4372.1266    397958.76       15.832       158.32    158.76929 
    2660    262.64379   -253713.06     1086.346   -252626.72   -4758.7209    397947.43       15.832       158.32    158.76477 
    2670    261.79598   -253707.21    1082.8393   -252624.37   -4649.7953    397936.54       15.832       158.32    158.76043 
    2680    261.34329   -253703.07    1080.9669    -252622.1   -4557.7428    397926.72       15.832       158.32    158.75651 
    2690    264.21092   -253712.75     1092.828   -252619.92   -4624.5009    397918.49       15.832       158.32    158.75323 
    2700    264.03877   -253709.72    1092.1159    -252617.6   -4628.8828    397911.79       15.832       158.32    158.75055 
    2710    264.08737   -253707.63     1092.317   -252615.31   -4536.0237    397906.64       15.832       158.32     158.7485 
    2720    262.99498   -253700.79    1087.7986      -252613   -4284.0761    397903.08       15.832       158.32    158.74708 
    2730    264.77975   -253705.89    1095.1808   -252610.71   -4238.2288    397901.18       15.832       158.32    158.74632 
    2740    264.63397      -253703    1094.5778   -252608.42   -4213.0578    397901.23       15.832       158.32    158.74634 
    2750    265.42793   -253704.06    1097.8618    -252606.2   -4137.3928    397903.28       15.832       158.32    158.74716 
    2760    265.40575   -253701.67      1097.77    -252603.9   -4488.4753    397906.89       15.832       158.32     158.7486 
    2770    266.69166   -253704.73    1103.0888   -252601.64   -4371.1874    397911.82       15.832       158.32    158.75057 
    2780     266.8533   -253703.16    1103.7574   -252599.41   -4500.6994    397918.42       15.832       158.32     158.7532 
    2790    266.16758   -253698.04    1100.9211   -252597.12   -4243.8137    397925.78       15.832       158.32    158.75613 
    2800    266.63283    -253697.7    1102.8455   -252594.85   -4664.0634    397933.53       15.832       158.32    158.75923 
    2810      266.112   -253693.28    1100.6912   -252592.59   -5024.0947     397941.1       15.832       158.32    158.76225 
    2820    266.81074   -253693.93    1103.5813   -252590.35   -5071.3878    397947.53       15.832       158.32    158.76481 
    2830    265.91171   -253687.97    1099.8628   -252588.11   -5337.3581    397953.25       15.832       158.32    158.76709 
    2840    267.09201   -253690.64    1104.7447    -252585.9   -5286.9678    397958.75       15.832       158.32    158.76929 
    2850    265.83501   -253683.18    1099.5455   -252583.63   -4817.8622    397963.82       15.832       158.32    158.77131 
    2860    265.72382   -253680.49    1099.0857    -252581.4   -4990.0216    397968.44       15.832       158.32    158.77315 
    2870    267.27766   -253684.68    1105.5126   -252579.17   -5104.1425    397972.07       15.832       158.32     158.7746 
    2880    268.75223   -253688.58    1111.6117   -252576.97   -4466.3156    397975.15       15.832       158.32    158.77583 
    2890    267.47078   -253680.99    1106.3114   -252574.68   -4379.2271    397978.84       15.832       158.32     158.7773 
    2900    270.36466   -253690.77    1118.2811   -252572.49   -4699.8113     397983.3       15.832       158.32    158.77908 
    2910    268.74873    -253681.8    1111.5973    -252570.2    -4199.163     397988.1       15.832       158.32      158.781 
    2920    269.95553   -253684.55    1116.5888   -252567.97   -4200.3374    397993.43       15.832       158.32    158.78312 
    2930    270.72704   -253685.53    1119.7799   -252565.75   -4797.7027    397998.73       15.832       158.32    158.78524 
    2940    271.10002   -253684.88    1121.3227   -252563.55   -4383.8947    398003.49       15.832       158.32    158.78714 
    2950    271.28679   -253683.42    1122.0952   -252561.33   -4709.8194    398009.03       15.832       158.32    158.78935 
    2960    271.78075   -253683.28    1124.1383   -252559.14   -4648.6857    398014.71       15.832       158.32    158.79161 
    2970    272.77924   -253685.23    1128.2682   -252556.96   -4744.1923    398020.11       15.832       158.32    158.79377 
    2980    270.37962   -253673.03    1118.3429   -252554.68   -4834.4078    398025.19       15.832       158.32    158.79579 
    2990    271.25334   -253674.48    1121.9568   -252552.52   -4976.1347    398029.44       15.832       158.32    158.79749 
    3000    270.06325   -253667.33    1117.0344    -252550.3   -4594.5533    398032.86       15.832       158.32    158.79885 
    3010    269.41764   -253662.44     1114.364   -252548.08     -4430.75    398036.57       15.832       158.32    158.80033 
    3020      272.066   -253671.24    1125.3181   -252545.92   -4794.0685    398041.15       15.832       158.32    158.80216 
    3030    270.71031   -253663.43    1119.7107   -252543.72   -4519.6992    398045.96       15.832       158.32    158.80408 
    3040    272.85618    -253670.2    1128.5865   -252541.62   -4508.2641    398051.56       15.832       158.32    158.80631 
    3050    272.69645   -253667.35    1127.9258   -252539.43   -4601.2409    398058.55       15.832       158.32     158.8091 
    3060    272.28458   -253663.46    1126.2222   -252537.23   -4226.2505    398066.17       15.832       158.32    158.81214 
    3070    275.16695   -253673.22    1138.1443   -252535.08   -4249.3925    398074.96       15.832       158.32    158.81565 
    3080    275.61954   -253672.93    1140.0163   -252532.91   -4323.9633    398085.51       15.832       158.32    158.81986 
    3090    275.03885   -253668.34    1137.6144   -252530.72   -4273.7824    398097.74       15.832       158.32    158.82474 
    3100    277.60946   -253676.84     1148.247   -252528.59   -4278.3157     398111.6       15.832       158.32    158.83027 
    3110    277.65143   -253674.86    1148.4206   -252526.44   -4337.3377    398127.35       15.832       158.32    158.83655 
    3120    275.06585   -253661.96    1137.7261   -252524.23   -4399.0769    398145.11       15.832       158.32    158.84364 
    3130    276.76775   -253666.93    1144.7655   -252522.17    -3807.512    398165.31       15.832       158.32     158.8517 
    3140    276.94899   -253665.62    1145.5151    -252520.1   -4312.8757    398189.64       15.832       158.32     158.8614 
    3150    275.28769   -253656.61    1138.6437   -252517.97   -4434.2174    398216.83       15.832       158.32    158.87225 
    3160      276.192   -253658.31    1142.3841   -252515.93   -3971.1628    398246.57       15.832       158.32    158.88411 
    3170    277.04238   -253659.76    1145.9014   -252513.86    -4463.302    398279.08       15.832       158.32    158.89709 
    3180    277.17151   -253658.22    1146.4355   -252511.79   -4409.4118    398313.58       15.832       158.32    158.91085 
    3190    276.68567   -253654.15     1144.426   -252509.73   -4181.7255    398350.97       15.832       158.32    158.92577 
    3200    276.74308   -253652.31    1144.6635   -252507.65   -4580.0746    398391.51       15.832       158.32    158.94194 
    3210    279.17757   -253660.31     1154.733   -252505.58   -4816.9165    398433.34       15.832       158.32    158.95863 
    3220    278.88885   -253657.01    1153.5388   -252503.47    -4732.038    398475.98       15.832       158.32    158.97564 
    3230    279.24451   -253656.47    1155.0098   -252501.46   -5035.2805    398519.42       15.832       158.32    158.99297 
    3240    277.56854   -253647.43    1148.0777   -252499.35   -4760.3726    398563.23       15.832       158.32    159.01045 
    3250     280.2906   -253656.73    1159.3367   -252497.39   -4744.9625     398608.8       15.832       158.32    159.02863 
    3260    279.03055   -253649.48    1154.1249   -252495.36   -4778.5989    398656.71       15.832       158.32    159.04774 
    3270    280.10245    -253651.9    1158.5585   -252493.34   -4866.2201    398706.02       15.832       158.32    159.06742 
    3280    281.45098   -253655.48    1164.1362   -252491.35   -4621.6364    398756.38       15.832       158.32    159.08751 
    3290     281.1535   -253652.27    1162.9058   -252489.37   -4780.1056    398808.51       15.832       158.32    159.10831 
    3300    279.58205   -253643.75     1156.406   -252487.35    -4592.728    398862.38       15.832       158.32     159.1298 
    3310     281.8734    -253651.3    1165.8835   -252485.41   -4523.3568    398918.56       15.832       158.32    159.15221 
    3320    282.52177   -253651.98    1168.5652   -252483.42   -5234.0094    398977.26       15.832       158.32    159.17563 
    3330    282.75863   -253650.96    1169.5449   -252481.41   -5662.2044    399037.13       15.832       158.32    159.19952 
    3340    283.38388   -253651.62    1172.1311   -252479.49   -5582.1145    399097.53       15.832       158.32    159.22362 
    3350    280.70639   -253638.58    1161.0565   -252477.53   -5595.9557    399158.69       15.832       158.32    159.24801 
    3360    281.81656   -253641.22    1165.6484   -252475.58    -5898.285    399220.38       15.832       158.32    159.27262 
    3370    283.70287   -253647.08    1173.4505   -252473.63   -5980.6384    399281.59       15.832       158.32    159.29705 
    3380    282.67109    -253640.8    1169.1828   -252471.62   -6209.4396       399342       15.832       158.32    159.32115 
    3390    284.25903   -253645.43    1175.7509   -252469.68   -6174.9621    399401.08       15.832       158.32    159.34472 
    3400    282.61235   -253636.64    1168.9399    -252467.7   -6375.4638    399459.03       15.832       158.32    159.36784 
    3410    283.18659   -253637.07    1171.3151   -252465.76   -6481.0103    399516.25       15.832       158.32    159.39067 
    3420    284.11776   -253638.96    1175.1666    -252463.8   -6678.0192    399572.54       15.832       158.32    159.41313 
    3430    284.15207   -253637.16    1175.3085   -252461.85   -6473.4231    399627.12       15.832       158.32     159.4349 
    3440    284.61436   -253637.14    1177.2206   -252459.92   -6595.8397    399680.19       15.832       158.32    159.45607 
    3450    284.31697   -253633.92    1175.9905   -252457.93    -6991.692    399731.24       15.832       158.32    159.47644 
    3460    285.51862   -253636.95    1180.9608   -252455.99   -6552.9527    399780.03       15.832       158.32     159.4959 
    3470    285.88807   -253636.57    1182.4889   -252454.08   -6527.2396     399827.4       15.832       158.32     159.5148 
    3480    286.56266   -253637.45    1185.2791   -252452.17   -6878.1368    399872.87       15.832       158.32    159.53294 
    3490    286.21869   -253634.12    1183.8564   -252450.26   -6640.4791    399915.45       15.832       158.32    159.54993 
    3500    285.75243   -253630.21    1181.9279   -252448.28   -6454.9792     399955.7       15.832       158.32    159.56599 
    3510    288.43319   -253639.42     1193.016    -252446.4   -7050.9377    399993.45       15.832       158.32    159.58105 
    3520     286.3604   -253628.92    1184.4426   -252444.48    -6853.881    400028.55       15.832       158.32    159.59505 
    3530    286.70118   -253628.44    1185.8521   -252442.58   -6959.0148     400061.6       15.832       158.32    159.60824 
    3540    287.48261   -253629.78    1189.0843    -252440.7   -7517.4685    400091.78       15.832       158.32    159.62028 
    3550     288.2013   -253630.89    1192.0569   -252438.83   -7232.3671    400118.06       15.832       158.32    159.63076 
    3560    287.07478   -253624.32    1187.3974   -252436.92   -7276.6016    400141.47       15.832       158.32    159.64011 
    3570    287.40522   -253623.81    1188.7642   -252435.04   -7321.3275     400161.7       15.832       158.32    159.64817 
    3580    288.52725   -253626.62    1193.4051   -252433.22   -7083.3182    400179.29       15.832       158.32    159.65519 
    3590    286.86186   -253617.86    1186.5167   -252431.34   -7022.0453    400195.06       15.832       158.32    159.66148 
    3600    289.42282   -253626.67    1197.1093   -252429.56   -7284.6952    400207.91       15.832       158.32    159.66661 
    3610    288.25944   -253619.97    1192.2974   -252427.67   -6974.8971    400218.31       15.832       158.32    159.67076 
    3620    288.68013   -253619.89    1194.0374   -252425.85   -7199.6663    400227.47       15.832       158.32    159.67442 
    3630    289.57228   -253621.78    1197.7275   -252424.05   -7042.9477    400234.72       15.832       158.32    159.67731 
    3640    290.37102   -253623.28    1201.0313   -252422.24   -6766.2265    400241.37       15.832       158.32    159.67996 
    3650    288.44572   -253613.47    1193.0679    -252420.4   -6935.8587    400247.81       15.832       158.32    159.68253 
    3660    288.55942   -253612.17    1193.5382   -252418.63   -7086.9634    400252.12       15.832       158.32    159.68425 
    3670    290.31607   -253617.67     1200.804   -252416.87   -6902.3076    400254.84       15.832       158.32    159.68533 
    3680     291.3387   -253620.13    1205.0338    -252415.1   -7617.9813     400256.4       15.832       158.32    159.68596 
    3690    289.92493   -253612.49    1199.1862    -252413.3   -7085.7303    400255.09       15.832       158.32    159.68543 
    3700    292.04381   -253619.51    1207.9502   -252411.56   -7039.0287    400252.78       15.832       158.32    159.68451 
    3710    292.04743   -253617.77    1207.9652   -252409.81   -7426.0519    400249.49       15.832       158.32     159.6832 
    3720    291.04053   -253611.88    1203.8005   -252408.07   -6689.6659    400244.15       15.832       158.32    159.68107 
    3730    292.07036    -253614.4    1208.0601   -252406.34   -6772.4798     400238.7       15.832       158.32     159.6789 
    3740    294.70458   -253623.64    1218.9557   -252404.68   -6984.0366    400232.43       15.832       158.32    159.67639 
    3750    292.59008   -253613.15    1210.2097   -252402.94    -6113.656    400224.35       15.832       158.32    159.67317 
    3760    292.60097    -253611.5    1210.2548   -252401.25   -6261.8413    400216.47       15.832       158.32    159.67003 
    3770    293.31409   -253612.77    1213.2044   -252399.57   -6428.3275    400208.75       15.832       158.32    159.66694 
    3780    292.72878   -253608.66    1210.7834   -252397.88   -6187.9183    400200.81       15.832       158.32    159.66378 
    3790    293.01578   -253608.18    1211.9705   -252396.21   -6394.3114    400193.72       15.832       158.32    159.66095 
    3800    293.78588    -253609.7    1215.1558   -252394.54   -6631.9053    400186.56       15.832       158.32    159.65809 
    3810    294.42064    -253610.7    1217.7813   -252392.92   -6392.2809    400178.34       15.832       158.32    159.65481 
    3820    295.03802   -253611.64    1220.3349   -252391.31   -6659.8208    400169.89       15.832       158.32    159.65144 
    3830    294.99796   -253609.84    1220.1692   -252389.67    -6547.766    400160.75       15.832       158.32     159.6478 
    3840    295.22977    -253609.2     1221.128   -252388.07   -6307.0644    400151.11       15.832       158.32    159.64395 
    3850    295.02213   -253606.74    1220.2692   -252386.47   -6308.7861    400141.96       15.832       158.32     159.6403 
    3860     295.7061   -253607.99    1223.0982   -252384.89    -6262.053    400132.67       15.832       158.32    159.63659 
    3870    293.15436   -253595.83    1212.5437   -252383.29   -5746.4321     400123.3       15.832       158.32    159.63285 
    3880    294.40204   -253599.43    1217.7044   -252381.73   -6122.4391    400115.31       15.832       158.32    159.62967 
    3890    297.22068   -253609.61    1229.3628   -252380.25   -5857.7083    400108.08       15.832       158.32    159.62678 
    3900    293.81246   -253593.92    1215.2657   -252378.65   -5466.4944    400101.67       15.832       158.32    159.62423 
    3910    296.49491   -253603.52    1226.3609   -252377.16   -5838.8058    400096.76       15.832       158.32    159.62227 
    3920    296.50686   -253602.02    1226.4103   -252375.61   -5890.6099    400092.17       15.832       158.32    159.62043 
    3930    296.49129   -253600.43    1226.3459   -252374.08   -5705.6108     400087.6       15.832       158.32    159.61861 
    3940    296.17329    -253597.6    1225.0306   -252372.57   -5801.5899    400083.58       15.832       158.32    159.61701 
    3950    296.50535   -253597.52     1226.404   -252371.11    -5470.568    400079.58       15.832       158.32    159.61541 
    3960    297.20867   -253598.96    1229.3131   -252369.65   -5574.4521    400075.65       15.832       158.32    159.61384 
    3970    298.07837   -253601.08    1232.9104   -252368.17   -5768.6502    400071.75       15.832       158.32    159.61229 
    3980    297.85593   -253598.71    1231.9903   -252366.72    -5178.238    400067.38       15.832       158.32    159.61054 
    3990    297.25382   -253594.77    1229.4999   -252365.27    -5227.454    400063.38       15.832       158.32    159.60895 
    4000    298.34982    -253597.9    1234.0331   -252363.87   -5327.4068    400060.38       15.832       158.32    159.60775 
    4010    297.63732   -253593.51    1231.0861   -252362.42   -5036.2888    400057.82       15.832       158.32    159.60673 
    4020    296.90736   -253589.08    1228.0668   -252361.01   -5101.5954    400055.85       15.832       158.32    159.60595 
    4030    295.41397   -253581.45    1221.8899   -252359.56   -4965.3417    400054.37       15.832       158.32    159.60535 
    4040    297.44738   -253588.51    1230.3005   -252358.21   -4895.3512    400052.89       15.832       158.32    159.60477 
    4050    299.01444   -253593.62    1236.7821   -252356.84   -5034.6353    400051.02       15.832       158.32    159.60402 
    4060    299.37882   -253593.77    1238.2893   -252355.48   -5148.8749    400049.41       15.832       158.32    159.60338 
    4070    297.38915   -253584.19    1230.0596   -252354.13   -4973.4338    400048.02       15.832       158.32    159.60282 
    4080    298.75807   -253588.56    1235.7217   -252352.84   -4952.5131    400046.57       15.832       158.32    159.60224 
    4090    298.60551   -253586.56    1235.0907   -252351.47   -5033.3396    400045.28       15.832       158.32    159.60173 
    4100    300.55673   -253593.33    1243.1614   -252350.17   -5091.2961    400043.72       15.832       158.32     159.6011 
    4110    298.29909   -253582.64    1233.8233   -252348.82   -4956.3109    400041.82       15.832       158.32    159.60035 
    4120      297.913   -253579.71    1232.2264   -252347.48    -4837.488    400040.09       15.832       158.32    159.59966 
    4130    300.17374   -253587.79    1241.5772   -252346.22   -4783.2321    400038.42       15.832       158.32    159.59899 
    4140    299.17034   -253582.39     1237.427   -252344.97   -4699.1966    400036.46       15.832       158.32    159.59821 
    4150     299.2789   -253581.59     1237.876   -252343.71   -4445.6601    400034.72       15.832       158.32    159.59752 
    4160    299.78605   -253582.43    1239.9737   -252342.46    -4485.486    400034.45       15.832       158.32    159.59741 
    4170     301.3336   -253587.63    1246.3746   -252341.26   -4686.8366    400035.13       15.832       158.32    159.59768 
    4180    300.12501   -253581.37    1241.3757      -252340   -4293.6625    400035.58       15.832       158.32    159.59786 
    4190    299.72834   -253578.51     1239.735   -252338.77   -4663.5346    400036.08       15.832       158.32    159.59806 
    4200     301.7923   -253585.89    1248.2719   -252337.62   -4798.1968    400036.03       15.832       158.32    159.59804 
    4210    299.58781   -253575.52    1239.1537   -252336.36   -4420.7194    400035.76       15.832       158.32    159.59793 
    4220    301.76047   -253583.38    1248.1403   -252335.24   -4681.0364    400036.27       15.832       158.32    159.59813 
    4230    301.46075   -253580.95    1246.9006   -252334.05   -4722.3632    400036.05       15.832       158.32    159.59804 
    4240    301.33045   -253579.28    1246.3616   -252332.92   -4474.2302    400033.83       15.832       158.32    159.59716 
    4250    301.89942   -253580.55     1248.715   -252331.84   -4213.8039    400030.51       15.832       158.32    159.59584 
    4260    301.62979   -253578.32    1247.5998   -252330.72   -4249.5519    400026.33       15.832       158.32    159.59417 
    4270    300.39306   -253572.07    1242.4844   -252329.59   -4131.3682    400021.18       15.832       158.32    159.59211 
    4280    302.40251   -253579.34    1250.7959   -252328.55   -4070.8309    400015.77       15.832       158.32    159.58995 
    4290    302.52566   -253578.72    1251.3052   -252327.41   -4002.5043     400009.8       15.832       158.32    159.58757 
    4300    303.01259    -253579.7    1253.3193   -252326.38    -3985.604    400002.47       15.832       158.32    159.58465 
    4310    300.08529   -253566.54    1241.2114   -252325.33   -3800.1269    399994.53       15.832       158.32    159.58148 
    4320    302.84172   -253576.95    1252.6125   -252324.34   -3929.1055     399987.2       15.832       158.32    159.57856 
    4330    301.35065   -253569.74    1246.4452   -252323.29   -4367.7997    399979.89       15.832       158.32    159.57564 
    4340    302.06109   -253571.71    1249.3837   -252322.33   -3751.5877    399972.08       15.832       158.32    159.57252 
    4350    302.47667   -253572.41    1251.1026    -252321.3   -4085.0683    399964.77       15.832       158.32    159.56961 
    4360    302.94722    -253573.4    1253.0489   -252320.35   -4194.4529    399956.91       15.832       158.32    159.56647 
    4370    301.71436   -253567.33    1247.9495   -252319.38   -3669.3637    399948.64       15.832       158.32    159.56317 
    4380    302.85452   -253571.11    1252.6655   -252318.44    -3995.399    399941.24       15.832       158.32    159.56022 
    4390    303.40302   -253572.46    1254.9342   -252317.52   -3848.6004    399933.95       15.832       158.32    159.55731 
    4400    302.46576    -253567.6    1251.0575   -252316.55   -3433.1086    399927.13       15.832       158.32    159.55459 
    4410    302.40362   -253566.43    1250.8004   -252315.63   -3355.4893    399921.69       15.832       158.32    159.55242 
    4420     303.3751   -253569.56    1254.8187   -252314.74    -3717.843    399917.53       15.832       158.32    159.55076 
    4430    304.18511   -253572.05     1258.169   -252313.88   -3185.7019    399913.91       15.832       158.32    159.54932 
    4440     301.5797   -253560.35    1247.3925   -252312.96   -3209.5999    399911.56       15.832       158.32    159.54838 
    4450     304.5404   -253571.81    1259.6386   -252312.17    -3589.007    399910.29       15.832       158.32    159.54787 
    4460    303.68823   -253567.44    1256.1138   -252311.32   -3595.8533    399909.38       15.832       158.32    159.54751 
    4470     301.9946   -253559.63    1249.1087   -252310.53   -3431.4574    399908.53       15.832       158.32    159.54717 
    4480    303.75961   -253566.22    1256.4091   -252309.81   -3734.9434       399908       15.832       158.32    159.54696 
    4490    304.74391    -253569.5    1260.4803   -252309.02   -3566.0505    399907.97       15.832       158.32    159.54695 
    4500    303.78962   -253564.73    1256.5332   -252308.19   -3541.3099    399907.95       15.832       158.32    159.54694 
    4510    305.67432   -253571.79    1264.3287   -252307.46   -3457.6223    399907.66       15.832       158.32    159.54682 
    4520    303.36419   -253561.42    1254.7736   -252306.64   -3407.3805     399907.8       15.832       158.32    159.54688 
    4530    305.44014   -253569.33    1263.3601   -252305.97   -3483.2355    399907.84       15.832       158.32     159.5469 
    4540    303.61817   -253561.08    1255.8241   -252305.26   -3772.6001    399907.64       15.832       158.32    159.54681 
    4550    303.54721    -253560.1    1255.5306   -252304.57   -3546.0091    399906.45       15.832       158.32    159.54634 
    4560    304.03011   -253561.39    1257.5279   -252303.86    -3601.745    399903.57       15.832       158.32    159.54519 
    4570    306.77943   -253572.19    1268.8997   -252303.29    -3660.845    399899.13       15.832       158.32    159.54342 
    4580    303.56371   -253558.21    1255.5988   -252302.61   -3452.4302    399893.66       15.832       158.32    159.54124 
    4590    304.05881   -253559.66    1257.6467   -252302.01   -3367.0165    399887.42       15.832       158.32    159.53875 
    4600    305.51594   -253565.08    1263.6736   -252301.41   -3749.2859    399880.89       15.832       158.32    159.53614 
    4610    304.78841   -253561.45    1260.6644   -252300.79   -3289.7575    399873.07       15.832       158.32    159.53302 
    4620    305.27102    -253562.9    1262.6606   -252300.23   -3847.3877    399864.49       15.832       158.32     159.5296 
    4630    305.01355   -253561.26    1261.5956   -252299.66   -4020.0365    399855.13       15.832       158.32    159.52587 
    4640    305.51432   -253562.83    1263.6669   -252299.17   -3646.0987    399844.74       15.832       158.32    159.52172 
    4650    305.19973   -253561.04    1262.3657   -252298.67   -3982.1343    399833.58       15.832       158.32    159.51727 
    4660    303.78375   -253554.68    1256.5089   -252298.17   -4094.0732    399821.11       15.832       158.32    159.51229 
    4670    304.12758   -253555.62    1257.9311   -252297.69   -3759.4218    399807.36       15.832       158.32    159.50681 
    4680     305.6433   -253561.45    1264.2004   -252297.25   -4149.6603    399793.38       15.832       158.32    159.50123 
    4690    304.70929   -253557.16    1260.3372   -252296.82   -4197.4684    399778.77       15.832       158.32     159.4954 
    4700    303.68518   -253552.44    1256.1012   -252296.33    -3957.913    399763.13       15.832       158.32    159.48916 
    4710    305.04119   -253557.68    1261.7099   -252295.97   -4156.7033    399747.02       15.832       158.32    159.48273 
    4720    304.61638    -253555.5    1259.9529   -252295.55    -3950.892    399730.75       15.832       158.32    159.47624 
    4730    306.87903   -253564.52    1269.3116   -252295.21   -3810.1052    399714.56       15.832       158.32    159.46978 
    4740    306.94294   -253564.42     1269.576   -252294.85   -3916.4643    399698.76       15.832       158.32    159.46348 
    4750    305.79283   -253559.28    1264.8189   -252294.46   -3785.5747    399683.12       15.832       158.32    159.45724 
    4760    304.26264   -253552.64    1258.4897   -252294.16   -3858.3639    399667.43       15.832       158.32    159.45098 
    4770    304.90328   -253555.02    1261.1395   -252293.88   -3406.4993    399651.67       15.832       158.32    159.44469 
    4780    306.29586   -253560.49    1266.8995   -252293.59   -3783.8429    399636.68       15.832       158.32    159.43871 
    4790    306.70104   -253561.93    1268.5754   -252293.36   -4013.2378    399621.39       15.832       158.32    159.43261 
    4800    304.82992   -253553.92    1260.8361   -252293.08   -4152.1633     399605.3       15.832       158.32    159.42619 
    4810    305.01859   -253554.47    1261.6165   -252292.85   -4437.6685    399588.73       15.832       158.32    159.41958 
    4820    305.44452   -253556.06    1263.3782   -252292.69    -4566.177    399571.21       15.832       158.32    159.41259 
    4830      304.437    -253551.7    1259.2109   -252292.49   -4493.6775    399552.58       15.832       158.32    159.40516 
    4840    307.79658   -253565.52    1273.1068   -252292.41   -4495.0128    399532.82       15.832       158.32    159.39728 
    4850    306.36173    -253559.4     1267.172   -252292.22    -4465.111    399511.95       15.832       158.32    159.38895 
    4860    306.08493   -253558.13    1266.0271   -252292.11   -4459.2418    399489.92       15.832       158.32    159.38016 
    4870    305.10133   -253553.95    1261.9587   -252291.99   -4080.6209    399467.08       15.832       158.32    159.37105 
    4880    306.59731   -253560.11    1268.1464   -252291.97    -4097.267    399444.58       15.832       158.32    159.36207 
    4890    304.11875   -253549.71    1257.8946   -252291.82   -3732.0537    399423.07       15.832       158.32    159.35349 
    4900    305.56565   -253555.67    1263.8792   -252291.79   -3727.4398    399402.48       15.832       158.32    159.34528 
    4910    304.58559   -253551.59    1259.8255   -252291.76   -3735.9336    399382.65       15.832       158.32    159.33737 
    4920    304.52204   -253551.29    1259.5626   -252291.72   -3961.3933    399364.09       15.832       158.32    159.32996 
    4930    304.89524   -253552.82    1261.1063   -252291.71   -3758.9604    399346.17       15.832       158.32    159.32281 
    4940    305.23306   -253554.23    1262.5036   -252291.73   -4233.4683    399329.22       15.832       158.32    159.31605 
    4950    306.61419   -253559.98    1268.2162   -252291.77   -4741.9383    399312.81       15.832       158.32     159.3095 
    4960    305.46665   -253555.29    1263.4697   -252291.82    -4351.867    399294.93       15.832       158.32    159.30237 
    4970    306.96782   -253561.67    1269.6789   -252291.99   -4354.8754    399275.83       15.832       158.32    159.29475 
    4980     305.3417   -253555.01    1262.9529   -252292.06   -4242.8957    399256.05       15.832       158.32    159.28686 
    4990    304.91384   -253553.36    1261.1832   -252292.18   -3799.4851    399235.51       15.832       158.32    159.27866 
    5000    305.81927   -253557.23    1264.9283   -252292.31   -4027.7831    399214.97       15.832       158.32    159.27047 
    5010    304.82016   -253553.22    1260.7957   -252292.43   -4050.6547    399194.56       15.832       158.32    159.26233 
    5020    305.95844   -253558.16    1265.5039   -252292.66   -3751.8707    399174.03       15.832       158.32    159.25413 
    5030    304.90963   -253553.96    1261.1658   -252292.79   -3574.8018    399154.27       15.832       158.32    159.24625 
    5040    304.59835   -253552.87    1259.8783   -252292.99   -3595.2384    399135.98       15.832       158.32    159.23895 
    5050    305.14536   -253555.36    1262.1408   -252293.22   -3684.5274    399118.83       15.832       158.32    159.23211 
    5060    304.92385   -253554.67    1261.2246   -252293.44   -4284.6908    399102.09       15.832       158.32    159.22543 
    5070    306.07486   -253559.72    1265.9854   -252293.73   -4310.9234    399084.83       15.832       158.32    159.21855 
    5080    306.21905   -253560.58    1266.5818      -252294   -4335.1304    399067.42       15.832       158.32     159.2116 
    5090    306.09545   -253560.38    1266.0706   -252294.31   -4382.1575    399050.25       15.832       158.32    159.20475 
    5100    303.53288   -253550.07    1255.4713   -252294.59   -4340.6898     399033.6       15.832       158.32    159.19811 
    5110    304.14322   -253552.96    1257.9958   -252294.96   -4354.5908    399017.14       15.832       158.32    159.19154 
    5120      304.576   -253555.07    1259.7859   -252295.28   -4451.5438    399000.59       15.832       158.32    159.18494 
    5130    304.51349   -253555.14    1259.5273   -252295.62   -4564.3324    398984.21       15.832       158.32     159.1784 
    5140    305.22521   -253558.52    1262.4711   -252296.04   -4098.2197    398967.75       15.832       158.32    159.17184 
    5150    303.45534   -253551.54    1255.1506   -252296.39    -3933.136    398952.47       15.832       158.32    159.16574 
    5160    304.63674   -253556.85    1260.0371   -252296.82   -3989.4191    398938.89       15.832       158.32    159.16032 
    5170    304.41576   -253556.33    1259.1231   -252297.21   -3940.2527    398926.71       15.832       158.32    159.15547 
    5180    303.92417   -253554.69    1257.0898    -252297.6   -3874.9379    398915.88       15.832       158.32    159.15114 
    5190    304.91055   -253559.24    1261.1696   -252298.07   -4093.1207    398906.74       15.832       158.32     159.1475 
    5200    304.80275   -253559.23    1260.7237   -252298.51   -3827.5969     398899.1       15.832       158.32    159.14445 
    5210    305.49732   -253562.58    1263.5966   -252298.99   -3992.3597     398892.9       15.832       158.32    159.14198 
    5220    304.08737   -253557.21    1257.7648   -252299.45   -4107.7266    398887.44       15.832       158.32     159.1398 
    5230    305.43071   -253563.28    1263.3211   -252299.96   -4665.6366    398882.23       15.832       158.32    159.13772 
    5240    304.27345   -253559.01    1258.5345   -252300.48   -4558.4512    398876.94       15.832       158.32    159.13561 
    5250    301.26591   -253547.05    1246.0947   -252300.96   -4335.6806    398872.26       15.832       158.32    159.13374 
    5260    304.53324   -253561.17     1259.609   -252301.56   -4325.5504    398869.04       15.832       158.32    159.13246 
    5270    302.54067   -253553.43    1251.3673   -252302.07   -4421.8837    398866.74       15.832       158.32    159.13154 
    5280    304.50673   -253562.17    1259.4993   -252302.67   -4602.8279    398863.96       15.832       158.32    159.13043 
    5290    303.07463   -253556.82    1253.5759   -252303.24    -4515.312    398860.03       15.832       158.32    159.12886 
    5300     302.5385    -253555.2    1251.3583   -252303.84   -4277.9508    398855.87       15.832       158.32     159.1272 
    5310     302.9047   -253557.31     1252.873   -252304.44   -4058.2489    398852.13       15.832       158.32    159.12571 
    5320    300.94199   -253549.72    1244.7549   -252304.96   -4004.6928    398849.26       15.832       158.32    159.12457 
    5330    303.36428   -253560.34     1254.774   -252305.57   -4609.8228    398846.85       15.832       158.32     159.1236 
    5340    302.59904   -253557.76    1251.6088   -252306.15   -4982.3914    398843.37       15.832       158.32    159.12222 
    5350    302.05992   -253556.13    1249.3789   -252306.75   -4791.9604    398838.51       15.832       158.32    159.12028 
    5360    302.35532   -253557.98    1250.6007   -252307.38   -4740.4882    398833.58       15.832       158.32    159.11831 
    5370     302.1663   -253557.85    1249.8189   -252308.03   -4736.3239    398828.82       15.832       158.32    159.11641 
    5380    304.03266   -253566.27    1257.5385   -252308.73   -4762.2388    398824.11       15.832       158.32    159.11453 
    5390    302.73189   -253561.49    1252.1582   -252309.33   -4390.7582     398819.7       15.832       158.32    159.11277 
    5400    301.31737   -253556.24    1246.3075   -252309.93   -4638.9781    398815.81       15.832       158.32    159.11122 
    5410    301.24452   -253556.58    1246.0062   -252310.57   -4779.4306    398811.76       15.832       158.32     159.1096 
    5420    302.88193   -253564.04    1252.7789   -252311.26   -4405.6433    398808.02       15.832       158.32    159.10811 
    5430    302.31321   -253562.34    1250.4265   -252311.92   -4405.2287    398805.82       15.832       158.32    159.10724 
    5440    302.63967   -253564.42    1251.7768   -252312.64   -4423.4375    398804.58       15.832       158.32    159.10674 
    5450    301.52049   -253560.45    1247.1476   -252313.31   -4105.8113    398803.95       15.832       158.32    159.10649 
    5460     300.3697   -253556.35    1242.3878   -252313.96   -5044.7194    398804.28       15.832       158.32    159.10662 
    5470    300.78685   -253558.77    1244.1132   -252314.66   -5079.3473     398803.9       15.832       158.32    159.10647 
    5480    299.69613   -253554.94    1239.6018   -252315.34   -5033.8817    398802.69       15.832       158.32    159.10599 
    5490    299.57338   -253555.11     1239.094   -252316.01   -5137.8267    398801.68       15.832       158.32    159.10558 
    5500    300.48458   -253559.55    1242.8629   -252316.69   -4819.1832    398800.49       15.832       158.32    159.10511 
    5510     299.3363   -253555.47    1238.1134   -252317.36   -4954.4689    398798.86       15.832       158.32    159.10446 
    5520    299.75705   -253557.87    1239.8537   -252318.02   -5283.0525    398796.45       15.832       158.32     159.1035 
    5530    300.50113   -253561.61    1242.9314   -252318.68    -5099.005    398792.77       15.832       158.32    159.10203 
    5540    298.46345   -253553.78    1234.5032   -252319.28   -4743.4869    398788.69       15.832       158.32     159.1004 
    5550    301.64274   -253567.64    1247.6533   -252319.98   -4941.0896    398785.45       15.832       158.32    159.09911 
    5560    301.17331   -253566.36    1245.7117   -252320.65   -4826.2241    398782.69       15.832       158.32    159.09801 
    5570    301.94206   -253570.25    1248.8914   -252321.36   -4640.6261    398780.25       15.832       158.32    159.09703 
    5580    300.79963   -253566.18    1244.1661   -252322.01   -4941.2876    398778.06       15.832       158.32    159.09616 
    5590    299.02412   -253559.49    1236.8222   -252322.67   -4843.2295    398776.13       15.832       158.32    159.09539 
    5600    300.77483   -253567.44    1244.0635   -252323.38   -4458.1197    398775.52       15.832       158.32    159.09514 
    5610    299.77886   -253563.93    1239.9439   -252323.99   -4781.9567    398776.66       15.832       158.32     159.0956 
    5620    300.58726   -253567.98    1243.2876   -252324.69   -4635.5283    398778.09       15.832       158.32    159.09617 
    5630    298.84202    -253561.4     1236.069   -252325.34   -4700.5852    398780.15       15.832       158.32    159.09699 
    5640    298.96041   -253562.56    1236.5587      -252326   -5224.7058    398783.12       15.832       158.32    159.09818 
    5650    298.48387   -253561.25    1234.5876   -252326.67   -5144.4634    398786.07       15.832       158.32    159.09936 
    5660    298.57071   -253562.27    1234.9468   -252327.32   -5112.2093    398789.84       15.832       158.32    159.10086 
    5670    297.93396   -253560.21    1232.3131    -252327.9   -5728.4839    398793.84       15.832       158.32    159.10245 
    5680    298.81056    -253564.5    1235.9389   -252328.56   -5540.5327     398795.9       15.832       158.32    159.10328 
    5690    297.97985   -253561.66    1232.5029   -252329.16   -5176.8338    398797.24       15.832       158.32    159.10381 
    5700    297.91032   -253561.97    1232.2153   -252329.75   -5750.1858    398798.79       15.832       158.32    159.10443 
    5710    297.33921   -253560.21    1229.8531   -252330.36   -5358.7912     398799.8       15.832       158.32    159.10483 
    5720    298.36278   -253565.05    1234.0868   -252330.96   -5148.5306    398801.49       15.832       158.32    159.10551 
    5730    298.61492   -253566.67    1235.1297   -252331.54   -5841.5176    398803.37       15.832       158.32    159.10626 
    5740    299.85138   -253572.37    1240.2439   -252332.13   -5856.7522    398804.11       15.832       158.32    159.10655 
    5750    298.69226   -253568.16    1235.4496   -252332.71   -5250.6887    398804.47       15.832       158.32     159.1067 
    5760    297.98561    -253565.8    1232.5267   -252333.28   -5543.6891    398805.85       15.832       158.32    159.10725 
    5770    300.02324   -253574.82    1240.9548   -252333.86   -5228.5015    398808.36       15.832       158.32    159.10825 
    5780    298.64682   -253569.69    1235.2616   -252334.42    -5225.828    398812.28       15.832       158.32    159.10981 
    5790     298.7925   -253570.88    1235.8642   -252335.02   -5163.7269    398817.43       15.832       158.32    159.11186 
    5800    297.13922   -253564.57    1229.0259   -252335.54     -5001.07    398823.66       15.832       158.32    159.11435 
    5810    296.89076   -253564.09    1227.9982    -252336.1   -5462.3064    398831.74       15.832       158.32    159.11758 
    5820    297.26877   -253566.19    1229.5617   -252336.63   -5892.2993    398841.33       15.832       158.32     159.1214 
    5830    297.76153   -253568.76    1231.5999   -252337.16   -5624.2132    398851.54       15.832       158.32    159.12547 
    5840    297.98134    -253570.2     1232.509   -252337.69   -6076.3231    398862.74       15.832       158.32    159.12994 
    5850    297.94477   -253570.55    1232.3578   -252338.19     -6153.79    398874.11       15.832       158.32    159.13448 
    5860    297.60076   -253569.63    1230.9349   -252338.69   -5583.2763    398885.26       15.832       158.32    159.13893 
    5870    297.67479   -253570.42    1231.2411   -252339.18    -6023.055    398897.73       15.832       158.32     159.1439 
    5880    297.88579   -253571.78    1232.1138   -252339.67    -5981.315    398911.01       15.832       158.32     159.1492 
    5890    296.92157   -253568.23    1228.1256   -252340.11   -6206.3806    398924.25       15.832       158.32    159.15448 
    5900    296.66828   -253567.65     1227.078   -252340.57   -6155.8687    398937.38       15.832       158.32    159.15972 
    5910    296.18075    -253566.1    1225.0615   -252341.04   -5758.1124    398950.79       15.832       158.32    159.16507 
    5920     296.2879   -253567.01    1225.5047   -252341.51   -5549.6649    398965.45       15.832       158.32    159.17092 
    5930    297.99931   -253574.55    1232.5834   -252341.97   -5829.8596    398982.23       15.832       158.32    159.17761 
    5940    296.65688   -253569.39    1227.0308   -252342.36   -5939.1494    399000.62       15.832       158.32    159.18495 
    5950    296.04359   -253567.26    1224.4941   -252342.77   -6167.6901    399019.37       15.832       158.32    159.19243 
    5960    297.81026   -253574.98    1231.8014   -252343.18   -6219.7346    399037.43       15.832       158.32    159.19963 
    5970    296.59941    -253570.3    1226.7931    -252343.5   -6343.7575    399055.24       15.832       158.32    159.20674 
    5980    298.13469   -253577.07    1233.1433   -252343.92   -6262.4813    399073.47       15.832       158.32    159.21402 
    5990    296.36947   -253570.12     1225.842   -252344.28   -6154.4522    399092.81       15.832       158.32    159.22173 
    6000    295.71538   -253567.77    1223.1366   -252344.63    -6310.196     399113.4       15.832       158.32    159.22995 
    6010    297.70801    -253576.4    1231.3785   -252345.02   -6485.8171     399134.3       15.832       158.32    159.23829 
    6020     296.5351   -253571.85    1226.5271   -252345.33   -6125.6408    399154.56       15.832       158.32    159.24637 
    6030    295.75566   -253568.94    1223.3032   -252345.64   -5979.0037    399175.23       15.832       158.32    159.25461 
    6040    296.48434   -253572.28    1226.3172   -252345.97   -6213.1639    399197.73       15.832       158.32    159.26359 
    6050    297.21552   -253575.63    1229.3415   -252346.28   -6040.0023    399221.94       15.832       158.32    159.27325 
    6060    295.28715   -253567.91    1221.3653   -252346.55   -6103.3532     399247.5       15.832       158.32    159.28345 
    6070    297.60265   -253577.79    1230.9427   -252346.84   -6728.7361    399273.46       15.832       158.32     159.2938 
    6080    296.89467    -253575.1    1228.0143   -252347.09   -6858.0986    399298.71       15.832       158.32    159.30388 
[...]
   23540    296.66665    -253573.5    1227.0712   -252346.43   -4492.8151    399379.35       15.832       158.32    159.33605 
   23550    298.77628   -253582.14    1235.7971   -252346.34   -4829.5332    399386.08       15.832       158.32    159.33874 
   23560     295.8648   -253569.91    1223.7546   -252346.15   -5152.2244    399393.03       15.832       158.32    159.34151 
   23570    299.79876   -253586.09    1240.0262   -252346.06   -5041.6613    399399.45       15.832       158.32    159.34407 
   23580    298.23274   -253579.43    1233.5489   -252345.88   -4864.7054    399405.44       15.832       158.32    159.34646 
   23590    297.05008   -253574.34    1228.6572   -252345.69   -4826.1996    399411.51       15.832       158.32    159.34888 
   23600     298.8216   -253581.58    1235.9845    -252345.6   -4860.1084    399417.97       15.832       158.32    159.35146 
   23610    298.56376   -253580.36     1234.918   -252345.44   -5064.7257    399424.58       15.832       158.32    159.35409 
   23620    299.83124   -253585.43    1240.1606   -252345.26   -4899.0464    399430.77       15.832       158.32    159.35656 
   23630    299.65742   -253584.53    1239.4416   -252345.09   -4886.9205    399436.86       15.832       158.32    159.35899 
   23640    298.82494   -253580.94    1235.9983   -252344.94   -4853.9318    399443.45       15.832       158.32    159.36162 
   23650    298.95701   -253581.31    1236.5446   -252344.77   -5290.6841    399450.79       15.832       158.32    159.36455 
   23660    300.00921   -253585.49    1240.8967   -252344.59   -5402.4675    399458.41       15.832       158.32    159.36759 
   23670    298.47781   -253578.95    1234.5625   -252344.39   -5500.6672    399464.89       15.832       158.32    159.37018 
   23680    298.01466   -253576.83    1232.6469   -252344.19   -5299.0851    399469.17       15.832       158.32    159.37188 
   23690    299.39957   -253582.37    1238.3751      -252344   -5027.5141    399471.99       15.832       158.32    159.37301 
   23700    298.31044   -253577.66    1233.8702   -252343.79   -5253.5391    399473.54       15.832       158.32    159.37363 
   23710    298.56139   -253578.51    1234.9082    -252343.6   -5387.6247     399473.2       15.832       158.32    159.37349 
   23720    299.25595    -253581.2    1237.7811   -252343.42   -5073.5306    399471.68       15.832       158.32    159.37288 
   23730    296.90012   -253571.19    1228.0369   -252343.16   -4891.5062    399469.39       15.832       158.32    159.37197 
   23740      298.901   -253579.27    1236.3129   -252342.95   -5015.7856    399466.26       15.832       158.32    159.37072 
   23750    298.24753    -253576.3      1233.61   -252342.69    -4787.089    399462.79       15.832       158.32    159.36934 
   23760     299.4243   -253580.96    1238.4774   -252342.49    -5062.192    399459.22       15.832       158.32    159.36791 
   23770    299.97098   -253583.01    1240.7386   -252342.27   -5591.2391     399454.6       15.832       158.32    159.36607 
   23780    298.74739   -253577.73    1235.6776   -252342.05   -4812.1644     399448.3       15.832       158.32    159.36356 
   23790    298.31412   -253575.71    1233.8855   -252341.82   -4910.0714    399441.41       15.832       158.32    159.36081 
   23800    298.52609   -253576.37    1234.7622    -252341.6   -4987.7823    399434.78       15.832       158.32    159.35817 
   23810    299.73085   -253581.13    1239.7454   -252341.39   -5016.1621    399428.89       15.832       158.32    159.35581 
   23820    299.11709   -253578.33    1237.2067   -252341.12   -5179.6078    399423.78       15.832       158.32    159.35377 
   23830     299.0864   -253577.98    1237.0798    -252340.9     -5139.43    399418.59       15.832       158.32     159.3517 
   23840     297.7421   -253572.15    1231.5195   -252340.63   -5136.5893    399412.06       15.832       158.32     159.3491 
   23850    298.81545   -253576.32    1235.9591   -252340.36    -5248.249    399404.16       15.832       158.32    159.34595 
   23860    299.34657   -253578.27    1238.1559   -252340.11   -5061.2187    399395.06       15.832       158.32    159.34232 
   23870    299.12632   -253577.12    1237.2449   -252339.87   -4919.4582    399385.13       15.832       158.32    159.33835 
   23880    298.67932      -253575     1235.396   -252339.61   -5034.0328    399374.87       15.832       158.32    159.33426 
   23890    299.88925   -253579.76    1240.4005   -252339.36   -4747.2161    399363.66       15.832       158.32    159.32979 
   23900    298.77443   -253574.84    1235.7894   -252339.05   -4871.6767    399351.42       15.832       158.32     159.3249 
   23910    299.91169   -253579.29    1240.4933    -252338.8   -4662.7242    399338.14       15.832       158.32    159.31961 
   23920    301.31726   -253584.88    1246.3071   -252338.57   -4814.4814    399324.31       15.832       158.32    159.31409 
   23930    298.48618   -253572.87    1234.5972   -252338.27   -4543.7137    399310.08       15.832       158.32    159.30841 
   23940    300.07679   -253579.22    1241.1762   -252338.05   -4517.6411    399295.84       15.832       158.32    159.30273 
   23950    298.74028   -253573.36    1235.6482   -252337.71   -4555.2071    399281.84       15.832       158.32    159.29714 
   23960    299.03646    -253574.3    1236.8732   -252337.42   -4483.4697    399267.73       15.832       158.32    159.29152 
   23970    298.73745   -253572.76    1235.6365   -252337.12   -4346.7459    399253.83       15.832       158.32    159.28597 
   23980    299.73617   -253576.64    1239.7674   -252336.87   -4603.5693    399240.01       15.832       158.32    159.28046 
   23990    300.32845   -253578.85    1242.2171   -252336.63   -4429.3429    399225.59       15.832       158.32    159.27471 
   24000     297.9443   -253568.66    1232.3558    -252336.3   -4645.6588     399210.8       15.832       158.32     159.2688 
   24010    301.60281   -253583.58    1247.4881    -252336.1   -4388.9022    399195.98       15.832       158.32    159.26289 
   24020    301.06774   -253581.07     1245.275   -252335.79   -4327.6931    399181.61       15.832       158.32    159.25716 
   24030    299.40096   -253573.85    1238.3809   -252335.47   -4495.7898    399167.84       15.832       158.32    159.25167 
   24040    300.23872   -253577.04     1241.846   -252335.19   -3948.6687    399154.34       15.832       158.32    159.24628 
   24050    300.06366   -253576.03    1241.1219   -252334.91   -4027.8673    399141.55       15.832       158.32    159.24118 
   24060    299.36107   -253572.79    1238.2159   -252334.57   -4242.6703    399129.25       15.832       158.32    159.23627 
   24070    302.08772   -253583.84    1249.4939   -252334.35   -4152.8605    399118.08       15.832       158.32    159.23181 
   24080    298.31406    -253567.9    1233.8852   -252334.01   -4265.2593    399108.32       15.832       158.32    159.22792 
   24090    298.77332   -253569.53    1235.7848   -252333.74    -4012.045    399099.74       15.832       158.32     159.2245 
   24100    299.31612   -253571.49    1238.0299   -252333.46   -4036.3104    399092.79       15.832       158.32    159.22172 
   24110    298.76174   -253568.88    1235.7369   -252333.15   -4268.6262    399086.78       15.832       158.32    159.21932 
   24120    300.75561   -253576.89     1243.984    -252332.9   -4296.3154    399081.32       15.832       158.32    159.21715 
   24130    299.90815   -253573.08    1240.4787    -252332.6   -4235.8764    399077.09       15.832       158.32    159.21546 
   24140    299.52567   -253571.21    1238.8967   -252332.31    -4599.452    399073.72       15.832       158.32    159.21411 
   24150    301.22227   -253577.92    1245.9142   -252332.01   -4240.3742    399071.19       15.832       158.32     159.2131 
   24160    301.53357   -253578.91    1247.2018   -252331.71   -4397.0759    399070.07       15.832       158.32    159.21266 
   24170    300.62799   -253574.88    1243.4561   -252331.42   -4331.9211    399069.27       15.832       158.32    159.21234 
   24180    301.14799   -253576.75    1245.6069   -252331.15   -4094.7302    399069.04       15.832       158.32    159.21225 
   24190    301.79113   -253579.16    1248.2671   -252330.89    -4038.228     399070.4       15.832       158.32    159.21279 
   24200    299.01512   -253567.39     1236.785   -252330.61   -3798.5228     399073.5       15.832       158.32    159.21403 
   24210    300.71429    -253574.2    1243.8131   -252330.39   -3939.5626    399079.04       15.832       158.32    159.21624 
   24220    300.72174   -253573.93    1243.8439   -252330.08    -4012.639    399086.65       15.832       158.32    159.21927 
   24230    300.39638   -253572.35    1242.4981   -252329.85   -4164.6836    399095.57       15.832       158.32    159.22283 
   24240    299.29982    -253567.5    1237.9625   -252329.54   -4048.0707    399106.03       15.832       158.32      159.227 
   24250     301.6865   -253577.15    1247.8343   -252329.31   -4262.5526    399118.07       15.832       158.32    159.23181 
   24260    299.45702   -253567.66    1238.6127   -252329.05   -4599.2805    399130.96       15.832       158.32    159.23695 
   24270    299.49385   -253567.56    1238.7651   -252328.79   -4605.8861    399143.98       15.832       158.32    159.24215 
   24280    299.36694   -253566.73    1238.2402   -252328.49    -4736.713    399156.97       15.832       158.32    159.24733 
   24290    301.84489   -253576.76    1248.4894   -252328.27    -4837.523    399169.97       15.832       158.32    159.25252 
   24300     299.9468   -253568.61    1240.6386   -252327.97   -4579.5938    399183.04       15.832       158.32    159.25773 
   24310    299.65398   -253567.12    1239.4274   -252327.69   -4574.1876    399196.42       15.832       158.32    159.26307 
   24320    301.01829    -253572.5    1245.0705   -252327.43   -4470.6867    399209.65       15.832       158.32    159.26834 
   24330     300.5258   -253570.18    1243.0334   -252327.14   -4500.8796    399222.58       15.832       158.32     159.2735 
   24340    301.33705   -253573.32    1246.3889   -252326.93   -4719.4637    399235.55       15.832       158.32    159.27868 
   24350    299.68076   -253566.19    1239.5382   -252326.65   -4792.3246    399248.86       15.832       158.32    159.28399 
   24360    300.03669   -253567.41    1241.0104    -252326.4   -4544.4077    399263.01       15.832       158.32    159.28963 
   24370    301.62691   -253573.76    1247.5878   -252326.18   -4780.6097    399278.13       15.832       158.32    159.29567 
   24380    300.20112   -253567.63    1241.6905   -252325.94   -4971.1642    399293.66       15.832       158.32    159.30186 
   24390    300.88934   -253570.28    1244.5371   -252325.75   -4760.8372    399309.84       15.832       158.32    159.30832 
   24400    300.46793   -253568.26    1242.7941   -252325.46   -5055.5589    399326.92       15.832       158.32    159.31513 
   24410    300.53004   -253568.25     1243.051    -252325.2   -5058.2606    399344.28       15.832       158.32    159.32206 
   24420    301.96256   -253573.97    1248.9762      -252325   -4995.4159    399361.47       15.832       158.32    159.32892 
   24430    300.46541   -253567.51    1242.7836   -252324.73   -5087.3369    399377.71       15.832       158.32    159.33539 
   24440    298.82912   -253560.49    1236.0156   -252324.48   -5081.8983    399393.15       15.832       158.32    159.34155 
   24450    300.14336   -253565.71    1241.4516   -252324.25   -5113.2975    399407.87       15.832       158.32    159.34743 
   24460    301.19624   -253569.83    1245.8065   -252324.03   -5395.6822    399421.72       15.832       158.32    159.35295 
   24470    301.43417   -253570.59    1246.7906    -252323.8   -5392.5035    399434.67       15.832       158.32    159.35812 
   24480    299.15723   -253560.89    1237.3728   -252323.52   -4939.6856    399446.09       15.832       158.32    159.36267 
   24490    302.43397    -253574.3     1250.926   -252323.37   -5530.3408    399455.77       15.832       158.32    159.36654 
   24500    300.03018   -253564.07    1240.9834   -252323.09   -5389.3522    399463.62       15.832       158.32    159.36967 
   24510    301.37043   -253569.42     1246.527   -252322.89    -5222.627    399469.96       15.832       158.32     159.3722 
   24520    304.20945   -253580.99    1258.2697   -252322.72   -5541.7718    399475.29       15.832       158.32    159.37433 
   24530    300.95207   -253567.28    1244.7965   -252322.49   -5473.7783    399478.66       15.832       158.32    159.37567 
   24540    301.37289   -253568.85    1246.5372   -252322.31   -4835.6006     399479.9       15.832       158.32    159.37616 
   24550    301.19051   -253567.86    1245.7828   -252322.08   -5378.8999    399480.28       15.832       158.32    159.37632 
   24560    301.15963   -253567.56    1245.6551    -252321.9   -5340.2706    399479.52       15.832       158.32    159.37601 
   24570    301.08481   -253567.03    1245.3456   -252321.69   -4922.7767    399478.03       15.832       158.32    159.37542 
   24580    300.51746   -253564.48    1242.9989   -252321.48   -5520.7861    399476.35       15.832       158.32    159.37475 
   24590    299.85377   -253561.58    1240.2538   -252321.32   -5279.0419    399472.69       15.832       158.32    159.37329 
   24600    300.67836   -253564.85    1243.6644   -252321.18   -5255.5329    399466.94       15.832       158.32    159.37099 
   24610    301.05746   -253566.22    1245.2325   -252320.99   -5468.7824    399459.91       15.832       158.32    159.36819 
   24620    300.42582   -253563.43    1242.6199   -252320.81   -5198.2958    399451.56       15.832       158.32    159.36486 
   24630    302.77031   -253572.99    1252.3171   -252320.67   -5213.9707    399442.32       15.832       158.32    159.36117 
   24640    300.62273   -253563.88    1243.4344   -252320.45   -5529.5258    399432.41       15.832       158.32    159.35722 
   24650    300.65658   -253563.88    1243.5744   -252320.31   -5383.6466    399420.95       15.832       158.32    159.35265 
   24660    301.55632   -253567.44    1247.2959   -252320.14    -5275.102    399408.34       15.832       158.32    159.34761 
   24670    301.25839   -253566.07    1246.0636   -252320.01   -5363.2283    399395.29       15.832       158.32    159.34241 
   24680    300.25365   -253561.76    1241.9077   -252319.85   -4750.8666    399381.96       15.832       158.32    159.33709 
   24690    304.42001   -253578.93    1259.1407   -252319.79   -4829.0657    399369.73       15.832       158.32    159.33221 
   24700    299.75314   -253559.39    1239.8376   -252319.55   -5294.4045    399358.29       15.832       158.32    159.32765 
   24710    302.20441   -253569.42    1249.9765   -252319.45   -5027.6153    399346.15       15.832       158.32     159.3228 
   24720    302.10385   -253568.83    1249.5605   -252319.27   -4763.6947     399334.2       15.832       158.32    159.31804 
   24730    301.34829    -253565.6    1246.4354   -252319.17     -4621.19    399323.11       15.832       158.32    159.31361 
   24740      303.738   -253575.45    1256.3197   -252319.13    -4817.087    399312.45       15.832       158.32    159.30936 
   24750    301.05594   -253564.18    1245.2262   -252318.95    -4542.542    399302.17       15.832       158.32    159.30526 
   24760    303.03601   -253572.31    1253.4162    -252318.9   -5039.9014    399292.33       15.832       158.32    159.30133 
   24770    302.78883   -253571.18    1252.3938   -252318.79   -5009.2827    399281.51       15.832       158.32    159.29701 
   24780    300.56742    -253561.9    1243.2056   -252318.69   -4532.6282    399270.05       15.832       158.32    159.29244 
   24790    300.95544   -253563.46    1244.8105   -252318.65    -4775.495    399259.15       15.832       158.32     159.2881 
   24800    300.84081   -253562.88    1244.3363   -252318.54    -4788.768    399248.31       15.832       158.32    159.28377 
   24810    299.87281   -253558.78    1240.3325   -252318.45   -4864.6723    399237.35       15.832       158.32     159.2794 
   24820    299.42919   -253556.88    1238.4976   -252318.38   -4964.7295    399225.99       15.832       158.32    159.27486 
   24830    300.61809   -253561.73    1243.4151   -252318.31   -4947.3557    399214.22       15.832       158.32    159.27017 
   24840    301.55652   -253565.56    1247.2967   -252318.26    -4873.864    399202.95       15.832       158.32    159.26567 
   24850    300.90593    -253562.8    1244.6057   -252318.19   -4513.8977    399192.32       15.832       158.32    159.26143 
   24860    303.24322   -253572.46    1254.2732   -252318.18    -4515.919    399182.62       15.832       158.32    159.25756 
   24870    302.79118   -253570.51    1252.4035   -252318.11   -4527.6252    399174.03       15.832       158.32    159.25413 
   24880    303.26786   -253572.44    1254.3751   -252318.07   -4314.1178    399166.12       15.832       158.32    159.25098 
   24890    302.34694   -253568.57     1250.566      -252318   -4221.5696    399159.41       15.832       158.32     159.2483 
   24900    302.64503   -253569.75     1251.799   -252317.96   -4106.9827    399155.42       15.832       158.32    159.24671 
   24910    300.51438   -253560.84    1242.9862   -252317.85   -4103.2434    399154.16       15.832       158.32    159.24621 
   24920    301.65223   -253565.56    1247.6926   -252317.87   -4269.5385    399154.41       15.832       158.32    159.24631 
   24930    302.65385   -253569.71    1251.8355   -252317.87   -4212.4963    399156.23       15.832       158.32    159.24703 
   24940    301.41391   -253564.58    1246.7068   -252317.87   -4299.4839    399159.75       15.832       158.32    159.24844 
   24950    301.64684   -253565.57    1247.6703    -252317.9   -4226.8542    399164.25       15.832       158.32    159.25023 
   24960    301.93198   -253566.75    1248.8497    -252317.9   -4558.7319    399170.02       15.832       158.32    159.25254 
   24970    301.94319   -253566.83     1248.896   -252317.93   -4854.9082    399176.49       15.832       158.32    159.25512 
   24980    299.39504   -253556.26    1238.3564    -252317.9   -4823.0963    399182.03       15.832       158.32    159.25733 
   24990    301.72655   -253565.98         1248   -252317.98   -4964.2774    399187.37       15.832       158.32    159.25946 
   25000    302.24967   -253568.15    1250.1637   -252317.99    -4822.206    399193.01       15.832       158.32    159.26171 
Loop time of 2960.42 on 1 procs for 25000 steps with 32000 atoms

Performance: 1.459 ns/day, 16.447 hours/ns, 8.445 timesteps/s
73.1% CPU use with 1 MPI tasks x 1 OpenMP threads

MPI task timing breakdown:
Section |  min time  |  avg time  |  max time  |%varavg| %total
---------------------------------------------------------------
Pair    | 2766.8     | 2766.8     | 2766.8     |   0.0 | 93.46
Neigh   | 5.9534     | 5.9534     | 5.9534     |   0.0 |  0.20
Comm    | 10.751     | 10.751     | 10.751     |   0.0 |  0.36
Output  | 136.36     | 136.36     | 136.36     |   0.0 |  4.61
Modify  | 34.807     | 34.807     | 34.807     |   0.0 |  1.18
Other   |            | 5.737      |            |       |  0.19

Nlocal:        32000.0 ave       32000 max       32000 min
Histogram: 1 0 0 0 0 0 0 0 0 0
Nghost:        48040.0 ave       48040 max       48040 min
Histogram: 1 0 0 0 0 0 0 0 0 0
Neighs:        0.00000 ave           0 max           0 min
Histogram: 1 0 0 0 0 0 0 0 0 0

Total # of neighbors = 0
Ave neighs/atom = 0.0000000
Neighbor list builds = 37
Dangerous builds = 0
write_restart    PTO_C.restart
System init for write_restart ...


Please see the log.cite file for references relevant to this simulation

Total wall time: 0:52:01
