ITEM: TIMESTEP
25400
ITEM: NUMBER OF ATOMS
7500
ITEM: BOX BOUNDS xy xz yz pp pp pp
0.0000000000000000e+00 3.9579999999999998e+01 0.0000000000000000e+00
0.0000000000000000e+00 3.9579999999999998e+01 0.0000000000000000e+00
-7.0152136884971128e-03 5.9707015213688692e+01 0.0000000000000000e+00
ITEM: ATOMS id type x y z
1 2 39.4701 39.6658 0.409635
2 2 3.88636 0.462401 0.191396
3 2 7.86802 0.00392577 0.225407
4 2 11.783 0.258508 0.347413
5 2 15.9153 39.6609 0.281721
6 2 19.7643 0.0812512 0.386204
7 2 23.9008 0.143993 0.221055
8 2 27.7211 39.4532 0.262955
9 2 31.4727 39.6353 0.29183
10 2 35.3691 39.4894 0.189275
11 2 39.3617 4.11236 0.184549
12 2 3.98283 4.19608 0.225022
13 2 7.7403 4.01479 0.528951
14 2 11.7131 4.14532 0.200137
15 2 15.6675 3.97099 0.198885
16 2 19.7163 3.92179 0.347501
17 2 23.6381 4.07233 0.445586
18 2 27.5251 3.90999 0.142198
19 2 31.7608 3.95811 0.357499
20 2 35.5098 4.07197 0.229367
21 2 39.4643 7.98948 0.31551
22 2 3.84588 8.07504 0.250337
23 2 8.01322 8.14021 0.143298
24 2 11.8314 7.89708 60.0015
25 2 15.7013 7.90993 0.185813
26 2 19.6287 7.68771 0.274707
27 2 23.6131 7.9486 0.344732
28 2 27.6931 7.89447 0.359026
29 2 31.7129 8.01005 0.215156
30 2 35.4542 7.88396 0.315489
31 2 39.4686 11.9604 0.346687
32 2 3.93695 11.8669 0.0888398
33 2 7.78917 12.0165 0.325647
34 2 11.7639 11.6962 0.210889
35 2 15.7101 11.9148 0.112015
36 2 19.6253 11.9732 0.331201
37 2 23.6729 11.6507 0.290015
38 2 27.6496 11.9548 0.258332
39 2 31.4956 11.8031 0.332234
40 2 35.4519 11.9306 0.424816
41 2 39.4546 15.9159 0.248832
42 2 3.8101 15.6959 0.506625
43 2 7.76818 15.9369 0.222932
44 2 11.6553 15.9888 0.0810382
45 2 15.8567 15.8307 0.495886
46 2 19.7548 15.8592 0.184364
47 2 23.5677 15.7256 0.177059
48 2 27.5375 15.7232 0.179227
49 2 31.5268 15.8333 0.241607
50 2 35.356 15.8886 0.255459
51 2 39.5149 20.0363 0.195956
52 2 3.6813 19.957 0.107774
53 2 7.79578 19.8472 0.31957
54 2 11.5999 19.9141 0.157618
55 2 15.7107 19.9731 0.335673
56 2 19.7234 19.776 0.181398
57 2 23.6342 19.8583 0.170138
58 2 27.5388 19.8225 0.246225
59 2 31.5257 19.921 0.125035
60 2 35.5325 19.9885 0.476426
61 2 39.3701 23.8068 0.377373
62 2 3.81209 24.0025 0.214772
63 2 7.69862 23.8454 0.418567
64 2 11.7163 23.8382 0.470709
65 2 15.7304 23.7531 0.233412
66 2 19.7412 23.6917 0.230293
67 2 23.6609 23.7019 0.356875
68 2 27.6454 23.8931 0.220266
69 2 31.5118 23.91 0.224731
70 2 35.5536 23.8859 0.25897
71 2 39.4044 27.8477 0.284291
72 2 3.79481 27.8445 0.3237
73 2 7.70923 27.778 0.429369
74 2 11.7965 27.8152 0.248853
75 2 15.8563 27.7515 0.26988
76 2 19.7232 27.788 0.357644
77 2 23.3897 27.7433 0.123236
78 2 27.3615 27.7813 0.183594
79 2 31.4854 27.8535 0.275825
80 2 35.3735 27.6918 0.252749
81 2 39.3717 31.6885 0.328695
82 2 3.93209 31.8861 0.0909669
83 2 7.82411 31.7883 0.388624
84 2 11.7651 31.7584 0.302535
85 2 15.429 31.7575 0.151093
86 2 19.7263 31.7583 0.16702
87 2 23.6169 31.5497 0.0659859
88 2 27.5032 31.8611 0.200157
89 2 31.6375 31.7515 0.385965
90 2 35.6661 31.7894 0.254447
91 2 39.411 35.6302 0.255712
92 2 3.72808 35.759 0.301543
93 2 7.74994 35.6132 0.338636
94 2 11.6999 35.8488 0.3022
95 2 15.8398 35.6036 0.312998
96 2 19.825 35.6336 0.336512
97 2 23.5431 35.7081 0.146202
98 2 27.6386 35.4893 0.228278
99 2 31.76 35.7205 0.395673
100 2 35.369 35.8006 0.177052
101 2 39.3409 0.117306 4.34891
102 2 3.74806 39.785 4.14726
103 2 7.75625 0.0622081 4.15367
104 2 12.0413 0.121874 4.31323
105 2 15.845 0.101852 4.29347
106 2 19.8271 39.4775 4.31581
107 2 23.6923 39.3739 4.098
108 2 27.8512 39.5717 4.24787
109 2 31.7064 -0.0181671 4.4194
110 2 35.541 39.6914 4.25069
111 2 39.4316 3.79086 4.1699
112 2 3.76941 4.10848 4.32273
113 2 7.80437 4.03041 4.43594
114 2 11.6833 4.27332 4.17084
115 2 15.8283 3.98691 4.45667
116 2 19.5855 3.88126 4.18569
117 2 23.7876 3.8601 4.21236
118 2 27.812 3.93068 4.45748
119 2 31.5637 4.11447 4.16389
120 2 35.4103 3.94391 4.19849
121 2 -0.00255762 7.83325 4.22459
122 2 4.126 7.94041 4.24097
123 2 7.82033 7.83104 4.29568
124 2 11.8278 8.02154 4.04671
125 2 15.7073 7.76995 4.20658
126 2 19.6626 7.87146 4.13038
127 2 23.6045 7.91172 4.05247
128 2 27.5693 7.87733 4.32639
129 2 31.5104 7.92177 4.25991
130 2 35.6426 7.63512 4.17739
131 2 39.6315 11.6132 4.25235
132 2 3.94608 11.8475 4.2748
133 2 7.8644 11.7796 4.41417
134 2 11.7489 11.932 4.24961
135 2 15.7643 12.0725 4.269
136 2 19.6266 11.7813 4.34065
137 2 23.5205 11.7586 4.25039
138 2 27.6152 11.6852 4.21377
139 2 31.535 11.8834 4.2454
140 2 35.4066 11.8297 4.33231
141 2 39.4151 15.7893 4.36117
142 2 3.74686 16.037 4.32098
143 2 7.58632 15.8697 4.04145
144 2 11.5984 15.7363 4.09438
145 2 15.7838 15.8973 4.10728
146 2 19.623 15.8434 4.247
147 2 23.4643 15.7357 4.28615
148 2 27.4824 15.8463 4.06895
149 2 31.6673 15.9622 3.99226
150 2 35.489 15.7203 4.15905
151 2 0.0332132 19.8101 4.3683
152 2 3.9252 19.8111 4.32721
153 2 7.65905 19.843 4.2312
154 2 11.7889 19.7347 4.36864
155 2 15.6239 19.8608 4.23995
156 2 19.7059 19.8495 4.28396
157 2 23.5757 19.5915 4.22536
158 2 27.4884 19.7383 4.13718
159 2 31.3987 19.6119 4.13007
160 2 35.4288 19.7043 4.21413
161 2 39.3487 23.8594 4.29206
162 2 3.76988 23.8274 4.15213
163 2 7.75532 23.7848 4.30246
164 2 11.7217 23.8505 4.25011
165 2 15.9053 23.5839 4.27668
166 2 19.7841 23.873 4.39325
167 2 23.6261 23.7816 4.33447
168 2 27.5339 23.7399 4.30102
169 2 31.48 23.9426 4.19457
170 2 35.4663 23.9438 4.32715
171 2 39.3028 27.7417 4.23651
172 2 3.72616 27.8861 4.24261
173 2 7.87585 27.9139 4.31344
174 2 11.8185 27.379 4.39955
175 2 15.715 27.6174 4.43906
176 2 19.4397 27.7104 4.1773
177 2 23.726 27.7238 4.10998
178 2 27.643 27.7687 4.20426
179 2 31.4781 27.7404 4.32238
180 2 35.43 27.8328 4.18298
181 2 -0.214523 31.8232 4.36646
182 2 3.99289 31.7295 4.208
183 2 8.03989 31.6965 4.43671
184 2 11.8104 31.7273 4.13595
185 2 15.6688 31.643 4.11275
186 2 19.5616 31.6488 4.07546
187 2 23.7243 31.6137 4.30617
188 2 27.7402 31.6499 4.1059
189 2 31.4539 31.4868 4.12879
190 2 35.5665 31.7462 4.36762
191 2 -0.247806 35.6168 4.23263
192 2 3.91447 35.7082 4.28761
193 2 7.79733 35.6496 4.17832
194 2 11.6859 35.7885 4.28211
195 2 15.5177 35.7002 4.18689
196 2 19.636 35.6548 4.14149
197 2 23.6522 35.5124 4.31537
198 2 27.5939 35.5197 4.11442
199 2 31.3723 35.6572 4.256
200 2 35.5236 35.6539 4.2074
201 2 39.5182 39.4331 8.20465
202 2 3.95384 39.5977 8.23662
203 2 7.80973 39.8155 8.14335
204 2 11.7298 0.00672615 8.14616
205 2 15.7016 -0.149324 8.34773
206 2 19.7797 39.2836 8.18152
207 2 23.6553 39.2295 8.13801
208 2 27.6644 -0.216438 8.13426
209 2 31.4463 39.6618 8.35636
210 2 35.6856 39.3487 8.22784
211 2 39.5277 4.02111 8.33176
212 2 3.8966 4.03977 8.29005
213 2 7.77357 3.94665 8.29628
214 2 11.6862 3.83124 8.03259
215 2 15.7089 4.02739 8.29376
216 2 19.795 3.87195 8.13799
217 2 23.5532 3.59987 8.15679
218 2 27.4944 3.98367 8.22817
219 2 31.512 4.1185 8.24051
220 2 35.5341 3.82603 8.27176
221 2 39.443 8.05091 8.30502
222 2 3.82089 7.86451 8.26175
223 2 7.85022 7.92775 8.35449
224 2 11.9634 7.76835 8.1613
225 2 15.7069 8.05566 8.30739
226 2 19.7462 7.7373 8.2296
227 2 23.6763 7.80343 8.22984
228 2 27.5284 7.77547 8.2741
229 2 31.3799 7.95369 8.29932
230 2 35.5448 7.70858 8.13107
231 2 39.4266 11.9157 8.19963
232 2 4.00149 11.9108 8.36154
233 2 7.80152 11.9096 8.21517
234 2 11.6342 11.8618 8.24131
235 2 15.7069 11.8221 8.24073
236 2 19.844 11.8456 8.21661
237 2 23.8509 11.6723 8.30476
238 2 27.6849 11.8943 8.12363
239 2 31.5663 11.8038 8.37227
240 2 35.4466 11.8868 8.25721
241 2 39.431 15.7834 8.21779
242 2 3.90406 15.7785 8.26856
243 2 7.7987 15.7655 8.23232
244 2 11.6132 15.8065 8.37134
245 2 15.8117 15.5926 8.22719
246 2 19.5404 15.5803 8.06281
247 2 23.8186 15.7724 8.20403
248 2 27.6715 15.6195 8.0609
249 2 31.4393 15.7345 8.32639
250 2 35.2985 15.7049 8.30267
251 2 39.2956 19.9023 8.26681
252 2 3.73094 19.9161 8.34245
253 2 7.74208 19.8746 8.18657
254 2 11.6129 19.9005 7.98276
255 2 15.4889 19.6577 8.14895
256 2 19.6602 19.577 8.07347
257 2 23.8882 19.6456 8.12241
258 2 27.6527 19.4953 8.28597
259 2 31.5128 19.7471 8.22797
260 2 35.4949 19.8068 8.17731
261 2 39.4045 23.8604 8.22073
262 2 3.58412 23.9396 8.17396
263 2 7.52332 23.7264 8.16243
264 2 11.6615 23.769 8.32347
265 2 15.6638 23.9627 8.38536
266 2 19.9274 23.663 8.48968
267 2 23.6703 23.5837 8.11958
268 2 27.6647 23.5936 8.22073
269 2 31.5269 23.5537 8.31404
270 2 35.4016 23.5981 8.3139
271 2 -0.159964 27.7016 8.23332
272 2 3.655 27.7135 8.03734
273 2 7.57073 27.6883 8.13732
274 2 11.5725 27.7155 8.38389
275 2 15.6688 27.6261 8.30498
276 2 19.8041 27.633 8.38883
277 2 23.6397 27.6774 8.28132
278 2 27.5995 27.6183 8.26106
279 2 31.5735 27.7641 8.16407
280 2 35.4194 27.7054 8.25931
281 2 0.0252362 31.7779 8.24516
282 2 3.83597 31.728 8.26399
283 2 7.82652 31.7905 8.30287
284 2 11.702 31.6831 8.30508
285 2 15.7811 31.4382 8.17585
286 2 19.6373 31.6493 8.11079
287 2 23.8262 31.3979 8.08942
288 2 27.7098 31.5963 8.29366
289 2 31.4992 31.7311 8.38514
290 2 35.6151 31.6426 8.3569
291 2 39.5026 35.8785 8.23452
292 2 3.80476 35.7132 8.21942
293 2 7.8536 35.7133 8.28563
294 2 11.7789 35.6717 8.29422
295 2 15.4332 35.4486 8.07667
296 2 19.7231 35.4884 8.06658
297 2 23.7815 35.4064 8.30557
298 2 27.5533 35.6537 8.16901
299 2 31.5382 35.592 8.25889
300 2 35.4862 35.6509 8.48826
301 2 39.5371 39.5309 12.2759
302 2 3.79726 39.463 12.2695
303 2 7.8035 39.4114 12.146
304 2 11.846 39.4082 12.2435
305 2 15.753 39.4451 12.3634
306 2 19.6811 -0.227455 12.0778
307 2 23.6021 -0.0690272 12.0783
308 2 27.5165 -0.0150069 12.2226
309 2 31.6391 0.0468414 12.1123
310 2 35.6393 39.6441 12.2914
311 2 39.269 3.88178 12.3114
312 2 3.57913 3.99485 12.1494
313 2 7.74007 3.74533 12.2487
314 2 11.8781 3.98917 12.2678
315 2 15.8536 3.85635 12.282
316 2 19.7846 4.00094 12.3123
317 2 23.8141 3.85027 12.2091
318 2 27.4556 3.8249 12.1661
319 2 31.5051 3.81511 12.2119
320 2 35.3724 4.05073 12.137
321 2 39.5716 7.87549 12.2367
322 2 3.89942 8.04487 12.2884
323 2 7.88025 8.04725 12.2076
324 2 11.7318 7.87778 12.233
325 2 15.7933 7.90786 12.1431
326 2 19.7749 7.92257 12.2106
327 2 23.6487 7.82448 12.3369
328 2 27.6653 7.65406 12.1276
329 2 31.6336 7.85137 12.406
330 2 35.6484 7.79848 12.2405
331 2 39.4846 11.9647 12.2058
332 2 3.99759 12.0352 12.1717
333 2 7.81066 11.9168 12.2528
334 2 11.86 11.7383 12.3301
335 2 15.8935 11.8732 12.2493
336 2 19.8719 11.7552 12.179
337 2 23.6872 11.6793 12.3316
338 2 27.6861 11.8074 12.2655
339 2 31.6595 11.5631 12.1061
340 2 35.6573 11.742 12.1727
341 2 39.3154 15.883 12.134
342 2 3.92068 15.8254 12.1734
343 2 7.88839 15.9023 12.173
344 2 11.6909 15.8174 12.3311
345 2 15.6409 15.6746 12.0718
346 2 19.8661 15.7938 12.3024
347 2 23.5676 15.5632 12.1035
348 2 27.8019 15.6704 12.3137
349 2 31.6557 15.7617 12.2024
350 2 35.3959 15.669 12.2365
351 2 -0.165055 19.7011 12.1381
352 2 3.91849 19.5417 12.0341
353 2 7.67858 19.7587 12.2621
354 2 11.7868 19.6713 12.083
355 2 15.8316 19.5296 12.1944
356 2 19.9005 19.4875 12.0128
357 2 23.8312 19.4898 12.2761
358 2 27.6286 19.5842 12.1168
359 2 31.5213 19.6199 12.2916
360 2 35.4867 19.6856 12.3277
361 2 -0.36986 23.6075 11.9496
362 2 3.78774 23.7189 12.3395
363 2 7.68535 23.7852 12.1661
364 2 11.6754 23.4643 12.2678
365 2 15.5842 23.4533 12.0843
366 2 19.735 23.4485 12.1424
367 2 23.6559 23.6093 11.9758
368 2 27.7072 23.6265 12.2497
369 2 31.6618 23.6485 12.2812
370 2 35.5955 23.7001 12.352
371 2 39.5546 27.4314 12.0848
372 2 3.99481 27.5942 12.2692
373 2 7.90269 27.6529 12.043
374 2 11.8202 27.7669 12.1583
375 2 15.6723 27.7421 12.2622
376 2 19.7003 27.5355 12.2468
377 2 23.6201 27.6348 12.2256
378 2 27.6446 27.6215 12.2303
379 2 31.6624 27.6322 12.099
380 2 35.6138 27.8269 12.1649
381 2 -0.0491077 31.775 12.2602
382 2 3.76128 31.6988 12.2932
383 2 7.73993 31.8075 12.1774
384 2 11.8162 31.4748 12.1747
385 2 15.7798 31.5981 12.2041
386 2 19.8166 31.6696 11.9941
387 2 23.7186 31.6157 12.2822
388 2 27.6407 31.5975 12.2728
389 2 31.475 31.5108 12.2756
390 2 35.522 31.5159 12.1151
391 2 39.3837 35.5623 12.3399
392 2 4.01155 35.6864 12.2148
393 2 7.93199 35.6857 12.3576
394 2 11.7923 35.5228 12.4777
395 2 15.6617 35.5593 12.2318
396 2 19.6248 35.3797 12.2232
397 2 23.7137 35.5561 12.205
398 2 27.5989 35.6145 12.1597
399 2 31.6865 35.4697 12.0649
400 2 35.4868 35.4543 12.1649
401 2 0.0467792 39.3195 16.4052
402 2 3.92887 39.712 16.2002
403 2 8.09628 39.83 16.1028
404 2 11.8577 -0.0924942 16.1422
405 2 15.8798 39.3901 16.0705
406 2 19.7866 39.2666 16.0807
407 2 23.5358 -0.246702 15.8603
408 2 27.7807 39.3335 16.1508
409 2 31.7133 39.5089 16.1562
410 2 35.7205 39.2185 16.0796
411 2 39.5213 4.01042 16.0018
412 2 3.88531 3.80895 16.1582
413 2 7.72317 3.76517 16.1972
414 2 11.9019 3.82008 15.9865
415 2 15.7207 3.82547 16.0277
416 2 19.7629 3.76571 16.0429
417 2 23.5652 3.81517 16.1474
418 2 27.596 3.63376 16.1793
419 2 31.6784 3.72436 16.2066
420 2 35.4925 3.87149 16.2862
421 2 0.100482 7.96424 16.2847
422 2 4.07665 7.71854 16.0857
423 2 7.90264 7.83522 16.31
424 2 11.7622 7.68592 16.2356
425 2 15.694 7.64452 16.2963
426 2 19.9592 7.80543 16.2385
427 2 23.7511 7.71208 16.2103
428 2 27.9055 7.61481 16.2365
429 2 31.8391 7.76026 16.1916
430 2 35.7987 7.68462 15.9898
431 2 39.6906 11.764 16.0167
432 2 4.01476 11.779 16.2094
433 2 8.00039 11.7458 16.3035
434 2 11.9891 11.7804 16.1021
435 2 15.9555 11.58 16.0147
436 2 19.7765 11.61 16.2467
437 2 23.6735 11.7401 16.273
438 2 27.6983 11.5933 16.0432
439 2 31.5435 11.6298 16.1992
440 2 35.4909 11.9754 16.1512
441 2 0.0840549 15.633 16.1485
442 2 4.00006 15.8612 16.2633
443 2 8.01312 15.7371 16.1725
444 2 11.7876 15.7226 16.2951
445 2 15.8284 15.9399 16.1904
446 2 19.8848 15.7285 16.1693
447 2 23.9576 15.6576 16.1778
448 2 27.493 15.645 16.1576
449 2 31.5113 15.7156 16.2373
450 2 35.5753 15.8105 16.1957
451 2 39.5736 19.6442 16.0439
452 2 3.82682 19.6486 16.1512
453 2 7.85294 19.9046 16.1469
454 2 11.9307 19.6518 16.3773
455 2 15.9999 19.5514 16.0923
456 2 19.95 19.71 16.0736
457 2 23.8586 19.6556 16.1654
458 2 27.5516 19.6988 16.1809
459 2 31.4811 19.4546 16.2771
460 2 35.4358 19.7473 16.1891
461 2 39.4946 23.5187 15.9466
462 2 3.8165 23.6046 16.1256
463 2 7.8415 23.7097 16.0959
464 2 11.95 23.4845 16.1718
465 2 16.022 23.6841 16.0076
466 2 19.7336 23.3626 15.9903
467 2 23.688 23.5769 16.1488
468 2 27.7247 23.5977 16.17
469 2 31.4852 23.5267 16.2615
470 2 35.5292 23.7057 16.2534
471 2 0.116229 27.5866 16.224
472 2 3.96109 27.6775 16.2792
473 2 7.78963 27.5108 16.1026
474 2 12.0687 27.5656 16.09
475 2 15.9483 27.6704 16.1609
476 2 19.9148 27.4541 16.1239
477 2 23.5737 27.5179 16.1087
478 2 27.6024 27.5639 16.1336
479 2 31.7303 27.5232 16.1194
480 2 35.5505 27.6695 16.3141
481 2 0.164758 31.6401 16.3126
482 2 3.85742 31.5941 16.1155
483 2 7.90122 31.5013 15.8745
484 2 11.8323 31.5063 16.1889
485 2 15.964 31.4906 16.1131
486 2 19.8228 31.3936 16.1693
487 2 23.7989 31.4284 16.2248
488 2 27.5521 31.6715 16.1478
489 2 31.5359 31.4189 16.0087
490 2 35.7253 31.5765 16.2654
491 2 -0.0104015 35.6434 16.3151
492 2 4.00359 35.5917 16.1613
493 2 7.88486 35.5636 16.4004
494 2 11.8785 35.518 16.3526
495 2 15.583 35.584 16.1465
496 2 19.6903 35.4037 16.0448
497 2 23.8238 35.4835 16.2592
498 2 27.5591 35.592 16.2889
499 2 31.6005 35.7679 16.2339
500 2 35.5702 35.4821 16.2894
501 2 0.249655 39.475 20.096
502 2 3.99076 39.3173 20.1713
503 2 7.93566 39.4483 20.333
504 2 11.7615 39.4748 20.3215
505 2 15.7979 39.5635 20.0692
506 2 19.7751 39.5751 20.0415
507 2 23.6575 39.348 20.2634
508 2 27.785 39.498 20.2386
509 2 31.5728 39.4036 20.2339
510 2 35.7497 39.3752 20.3396
511 2 -0.0676202 3.62513 20.0388
512 2 3.78905 3.92516 20.2261
513 2 7.89833 3.87716 20.3512
514 2 12.0348 3.85093 20.0982
515 2 15.8984 3.79048 20.1963
516 2 19.9032 3.58744 19.8731
517 2 23.7676 3.9321 20.1935
518 2 27.7323 3.72651 20.2283
519 2 31.6032 3.65786 20.1421
520 2 35.7333 3.61743 20.1374
521 2 0.187116 7.89877 20.2207
522 2 4.0046 7.66675 20.1256
523 2 7.93416 7.77016 20.2478
524 2 12.0053 7.83633 20.1465
525 2 16.0204 7.67809 20.1485
526 2 19.8645 7.69427 20.0233
527 2 24.0372 7.85213 20.1974
528 2 27.885 7.7757 20.2409
529 2 31.7003 7.86895 20.034
530 2 35.7199 7.76946 20.177
531 2 0.112891 11.6728 20.1443
532 2 4.05307 12.0251 20.0664
533 2 8.09092 11.7499 20.1344
534 2 12.0116 11.9982 20.2215
535 2 15.884 11.8228 20.129
536 2 19.8335 11.669 20.0317
537 2 23.8015 11.6494 20.2534
538 2 27.6546 11.5961 20.1781
539 2 31.8879 11.7515 20.2511
540 2 35.8439 11.6263 19.9865
541 2 0.0675828 15.644 20.3151
542 2 3.86777 15.721 20.1757
543 2 7.99573 15.7419 20.2183
544 2 12.0467 15.8847 20.1337
545 2 16.1976 15.6749 20.1308
546 2 19.9184 15.6297 20.1623
547 2 23.7165 15.7028 20.2105
548 2 27.7171 15.5599 19.9197
549 2 31.7448 15.6442 20.1053
550 2 35.8394 15.4545 20.0712
551 2 39.7015 19.5964 20.1338
552 2 4.0856 19.7589 20.2801
553 2 7.81986 19.9139 20.1252
554 2 11.8442 19.7254 20.381
555 2 15.9393 19.5218 20.1363
556 2 19.8646 19.6222 20.174
557 2 23.7997 19.6095 19.9775
558 2 27.7906 19.6279 20.2674
559 2 31.7467 19.5134 20.2121
560 2 35.713 19.5178 20.2207
561 2 39.7463 23.5703 20.1041
562 2 4.07128 23.5655 20.1494
563 2 7.87586 23.7207 19.8292
564 2 12.0297 23.7194 20.06
565 2 15.9077 23.5486 20.1516
566 2 19.7838 23.5948 20.1725
567 2 24.0091 23.62 20.0469
568 2 27.8043 23.747 20.1277
569 2 31.7979 23.6739 20.3865
570 2 35.7405 23.6191 20.2296
571 2 39.6131 27.6646 20.0858
572 2 4.04481 27.5133 20.1922
573 2 7.94438 27.7078 20.1208
574 2 12.0362 27.5509 20.1413
575 2 15.8961 27.6754 20.108
576 2 19.8931 27.4836 20.0881
577 2 23.9457 27.3812 20.1389
578 2 27.7234 27.7045 20.1246
579 2 31.6841 27.5626 19.9969
580 2 35.7537 27.5072 20.1791
581 2 39.5746 31.5954 20.1603
582 2 3.92865 31.5151 20.1937
583 2 8.065 31.6739 19.9402
584 2 12.0635 31.5572 20.0869
585 2 16.0534 31.4485 19.9671
586 2 19.9628 31.5589 20.363
587 2 23.8137 31.5437 20.0882
588 2 27.6577 31.607 20.0593
589 2 31.5246 31.6395 20.1408
590 2 35.4947 31.6236 20.3508
591 2 -0.138225 35.639 20.1627
592 2 4.08007 35.4847 20.1044
593 2 7.95873 35.4428 19.9375
594 2 12.1056 35.5088 20.0203
595 2 16.0292 35.5393 20.1745
596 2 19.6969 35.4604 20.0471
597 2 23.6096 35.4652 20.1041
598 2 27.5609 35.4875 20.2262
599 2 31.7338 35.4555 20.0922
600 2 35.4255 35.5638 20.1539
601 2 -0.00781278 39.4509 24.02
602 2 4.02601 39.4702 24.0427
603 2 7.99078 39.5289 24.1682
604 2 12.0151 -0.0441838 24.2642
605 2 15.8972 -0.19197 24.164
606 2 19.9676 39.4582 24.2446
607 2 23.7265 39.2822 24.1807
608 2 27.6073 39.3829 24.0911
609 2 31.6867 39.6152 24.0255
610 2 35.5921 39.3295 24.1358
611 2 39.6793 4.05252 24.1325
612 2 4.20929 3.80948 24.2006
613 2 8.07572 3.83564 24.1176
614 2 11.8273 4.02774 24.1119
615 2 15.7586 3.8867 24.1019
616 2 19.8209 3.91327 24.1189
617 2 23.8595 3.94773 24.1097
618 2 27.8698 3.77917 24.129
619 2 31.659 3.82443 24.1511
620 2 35.8281 4.0368 23.955
621 2 0.196387 7.82521 24.1845
622 2 4.16616 7.85752 24.1529
623 2 8.09296 7.9714 24.0715
624 2 12.0218 7.87684 24.0872
625 2 15.8589 7.88057 24.0217
626 2 19.9191 7.87043 24.0682
627 2 23.8249 8.01284 24.2492
628 2 27.9643 7.79112 24.2671
629 2 31.9676 7.91126 23.8455
630 2 35.7739 7.83834 24.0813
631 2 39.8205 11.6317 24.0587
632 2 4.15427 11.8176 24.196
633 2 7.89737 11.7008 24.1854
634 2 11.9549 11.8468 24.3807
635 2 15.8939 11.8092 24.374
636 2 19.732 11.6184 24.1325
637 2 23.6303 11.9849 24.1774
638 2 27.8569 11.907 24.2616
639 2 31.7359 11.6705 24.0955
640 2 35.8215 11.5799 24.1869
641 2 39.6927 15.6081 24.0731
642 2 4.05624 15.8603 24.1226
643 2 7.79581 15.6844 24.1324
644 2 11.9008 15.7003 24.1466
645 2 15.9881 15.6593 24.0241
646 2 19.9898 15.6295 24.1098
647 2 23.6866 15.6851 24.0566
648 2 27.8351 15.6316 24.0955
649 2 31.8325 15.5651 24.3078
650 2 35.5731 15.7197 24.2084
651 2 0.0326959 19.7368 24.1543
652 2 4.02582 19.8216 24.1121
653 2 8.14996 19.622 24.2138
654 2 11.9464 19.6005 23.9859
655 2 15.8446 19.7035 23.9836
656 2 19.8617 19.5318 24.0173
657 2 23.8015 19.4053 24.0855
658 2 27.8248 19.6216 24.0688
659 2 31.7673 19.6287 24.1875
660 2 35.7706 19.4806 24.0691
661 2 -0.0707993 23.8164 24.2153
662 2 4.12139 23.7019 24.0874
663 2 8.04241 23.6067 24.0637
664 2 12.2228 23.6802 24.1507
665 2 15.9845 23.4943 23.8568
666 2 19.9891 23.4658 24.0919
667 2 23.9272 23.5159 24.1252
668 2 27.8958 23.7822 23.9837
669 2 32.0521 23.6442 24.2092
670 2 35.6779 23.5272 24.2469
671 2 39.6341 27.6027 24.0995
672 2 4.02945 27.5789 24.219
673 2 8.20733 27.5984 24.0008
674 2 12.0037 27.6837 24.088
675 2 16.0756 27.5027 24.1028
676 2 19.8878 27.5459 24.2855
677 2 23.7366 27.5403 24.0295
678 2 27.934 27.5109 23.97
679 2 31.8715 27.7452 24.2219
680 2 35.6665 27.6862 24.092
681 2 0.165232 31.5292 23.9681
682 2 4.0358 31.4794 24.0288
683 2 7.90535 31.3877 24.1353
684 2 11.9167 31.486 24.2304
685 2 16.0209 31.5715 24.1017
686 2 19.9138 31.3806 24.0295
687 2 23.7798 31.3757 24.0696
688 2 27.8784 31.5381 24.2611
689 2 31.6791 31.7405 24.2423
690 2 35.7469 31.5149 24.2986
691 2 0.121828 35.5016 24.2106
692 2 4.08941 35.3681 24.152
693 2 8.08892 35.5519 24.1734
694 2 12.0543 35.5365 23.9435
695 2 15.8298 35.5668 24.1169
696 2 19.7542 35.453 24.1407
697 2 23.6528 35.4126 24.1532
698 2 27.7877 35.3168 24.021
699 2 31.5927 35.5094 24.123
700 2 35.6524 35.5423 24.3819
701 2 0.0984818 39.5091 28.037
702 2 4.02171 -0.170989 27.99
703 2 7.96781 39.4807 28.1636
704 2 12.091 39.2825 28.0016
705 2 16.0995 39.4319 27.9605
706 2 19.9131 39.5396 28.0903
707 2 23.7497 39.3999 28.1314
708 2 27.6868 39.5009 28.1345
709 2 31.7789 39.621 28.1383
710 2 35.733 39.625 28.251
711 2 0.00541547 4.15111 28.1485
712 2 3.95782 3.86379 28.1539
713 2 7.9891 3.89367 28.2062
714 2 11.968 3.98687 28.085
715 2 16.1223 3.99463 28.139
716 2 19.8306 3.91123 28.0568
717 2 24.1512 3.96111 28.0914
718 2 27.8887 3.96239 28.0167
719 2 31.6344 3.85637 28.0859
720 2 35.7395 4.01005 28.1521
721 2 0.0487783 7.94994 28.0299
722 2 4.12332 7.87536 28.017
723 2 8.00617 7.94911 28.2895
724 2 12.0467 7.75366 28.1706
725 2 16.156 7.72505 28.0528
726 2 19.916 7.71462 28.2221
727 2 23.726 7.7837 28.155
728 2 27.8191 7.70379 27.9012
729 2 31.8489 7.78773 28.1373
730 2 35.6331 8.02405 28.1439
731 2 0.0748234 11.73 27.9217
732 2 4.3328 11.8513 28.1561
733 2 8.2099 11.9258 28.0442
734 2 12.0624 11.6108 28.3495
735 2 16.0244 11.7359 28.2275
736 2 19.8476 11.7393 28.3648
737 2 23.9821 11.8084 28.1017
738 2 27.8503 11.7675 28.0544
739 2 31.7591 11.6644 28.148
740 2 35.6798 11.7805 28.2955
741 2 0.186827 15.7059 27.9823
742 2 4.23155 15.8806 28.1413
743 2 7.99384 15.796 28.058
744 2 12.045 15.8679 28.1281
745 2 15.9528 15.6677 28.1301
746 2 19.9495 15.8336 28.194
747 2 23.8261 15.5097 28.1278
748 2 27.7816 15.7225 27.9813
749 2 31.8384 15.7762 28.0165
750 2 36.0125 15.7438 28.2636
751 2 0.190418 19.601 28.0808
752 2 3.88131 19.6849 27.9542
753 2 7.97817 19.8997 28.2144
754 2 12.0272 19.773 27.9815
755 2 16.0098 19.6737 28.2164
756 2 19.7455 19.7094 28.1722
757 2 23.9783 19.6511 28.0202
758 2 27.9553 19.7029 27.8721
759 2 31.906 19.5788 28.0798
760 2 35.7712 19.5804 28.0629
761 2 0.260768 23.5815 28.0948
762 2 4.36481 23.8135 27.9908
763 2 8.21098 23.6872 28.124
764 2 11.8919 23.7088 28.1726
765 2 15.7625 23.6118 28.1159
766 2 19.8409 23.497 28.0255
767 2 23.9729 23.5501 28.047
768 2 28.0575 23.6746 28.2047
769 2 31.8667 23.7574 28.2312
770 2 35.8657 23.6002 28.069
771 2 39.4685 27.4829 28.2536
772 2 3.94841 27.6523 28.1196
773 2 8.00589 27.6487 28.2143
774 2 11.9448 27.519 28.0949
775 2 15.8654 27.5725 28.2521
776 2 19.954 27.4674 28.2275
777 2 23.9481 27.4574 28.0738
778 2 27.7364 27.5337 28.0793
779 2 31.8494 27.6708 28.0043
780 2 35.6407 27.6713 28.2234
781 2 0.133792 31.6553 28.1563
782 2 3.98997 31.5495 28.0178
783 2 8.13323 31.5029 28.1621
784 2 11.9733 31.5199 27.9251
785 2 15.9673 31.6532 28.1224
786 2 19.8983 31.56 28.3083
787 2 23.9027 31.3624 27.9
788 2 27.7267 31.2925 28.0181
789 2 31.7016 31.6422 28.1125
790 2 35.8459 31.6169 28.1659
791 2 0.186193 35.6021 28.0967
792 2 4.20711 35.5945 28.0427
793 2 8.22478 35.5317 28.1503
794 2 12.2284 35.2544 27.9647
795 2 15.9518 35.3177 28.2176
796 2 20.1068 35.577 28.2057
797 2 23.7518 35.4181 28.1256
798 2 27.7247 35.6655 28.1647
799 2 31.5663 35.769 27.9122
800 2 35.634 35.5981 28.0101
801 2 0.240799 39.6206 31.9177
802 2 4.08971 -0.0228361 32.0622
803 2 8.24716 -0.112546 31.9892
804 2 12.0826 39.3107 32.1345
805 2 15.9676 0.25579 32.0924
806 2 19.9623 -0.0602614 31.9657
807 2 23.931 39.5102 32.1675
808 2 27.7846 39.8131 32.0796
809 2 31.7326 39.7949 32.0622
810 2 35.8899 39.6906 31.9757
811 2 0.174359 3.75089 31.9736
812 2 4.12194 3.90569 32.1704
813 2 8.12373 3.99966 32.2373
814 2 11.9275 3.70994 32.1737
815 2 15.8128 4.05494 32.2033
816 2 19.9725 4.08184 32.0892
817 2 23.9744 3.94719 31.9634
818 2 27.8797 4.17934 31.919
819 2 31.6932 4.1208 32.1252
820 2 35.6405 3.82297 32.0205
821 2 39.7693 8.03738 31.9573
822 2 4.06888 8.13114 31.8695
823 2 8.0705 7.76714 32.0281
824 2 11.8522 7.85996 31.9242
825 2 15.7764 7.86646 32.2537
826 2 19.8201 7.94067 32.1677
827 2 23.8872 8.10378 32.1196
828 2 27.8527 8.03984 31.9014
829 2 31.7243 7.95393 32.1564
830 2 35.744 7.89075 32.089
831 2 0.126555 12.0633 32.0935
832 2 4.06969 11.9577 32.1034
833 2 7.90889 11.8945 32.2301
834 2 11.9341 11.8086 32.1802
835 2 15.9673 11.7748 32.1621
836 2 20.0214 11.8596 32.2299
837 2 23.9229 11.8351 32.0804
838 2 27.7992 11.828 32.053
839 2 31.6594 12.0224 32.0842
840 2 35.5511 11.9065 32.1187
841 2 0.244928 15.6916 32.0947
842 2 4.19735 15.9556 32.1347
843 2 8.13068 16.0235 32.2395
844 2 12.065 15.8285 32.1191
845 2 16.1422 15.8932 32.2155
846 2 20.0461 15.5775 32.3045
847 2 23.9591 15.7858 32.1301
848 2 27.9192 15.7875 32.1033
849 2 31.8355 15.6989 32.0365
850 2 35.6012 15.7787 32.0136
851 2 0.192823 19.6088 32.1903
852 2 4.17288 19.7395 31.946
853 2 8.26722 19.8473 32.03
854 2 11.924 19.7808 32.1722
855 2 15.7955 19.9083 32.1351
856 2 19.6097 19.6741 32.0419
857 2 23.9257 19.768 31.9515
858 2 27.9922 19.8111 32.0888
859 2 31.9263 19.7877 31.9177
860 2 35.8578 19.7901 32.2469
861 2 0.0365967 23.4771 32.268
862 2 4.18767 23.6283 32.1978
863 2 8.25811 23.6467 32.1161
864 2 12.0513 23.9332 32.2585
865 2 15.7701 23.833 32.0517
866 2 19.8346 23.722 32.0507
867 2 23.8702 23.6678 31.9949
868 2 27.9139 23.6742 32.0591
869 2 31.7878 23.7297 32.0769
870 2 35.9168 23.6368 32.2021
871 2 0.0888641 27.8167 32.1313
872 2 3.99657 27.5255 32.0763
873 2 7.92306 27.787 32.2783
874 2 12.0692 27.859 32.1845
875 2 16.011 27.6324 32.0488
876 2 19.941 27.7428 32.1535
877 2 23.9538 27.6743 32.1289
878 2 27.8561 27.5989 32.1484
879 2 31.8205 27.6186 31.9406
880 2 35.6117 27.8367 32.1339
881 2 0.255039 31.7154 32.0297
882 2 4.0883 31.8003 32.0651
883 2 8.11895 31.765 32.0369
884 2 12.0685 31.7236 32.0367
885 2 15.9876 31.7563 32.195
886 2 19.9973 31.6979 32.1695
887 2 23.9369 31.7353 32.0524
888 2 27.6728 31.4913 31.9452
889 2 31.9023 31.7918 31.8685
890 2 35.744 31.8499 31.7671
891 2 0.0691198 35.5265 32.1282
892 2 4.19137 35.646 32.0946
893 2 8.11601 35.4281 31.912
894 2 12.0888 35.5334 32.228
895 2 15.9645 35.6699 31.9611
896 2 19.9099 35.8489 32.0238
897 2 23.7926 35.4769 31.9047
898 2 27.8917 35.7055 31.8893
899 2 31.7454 35.808 31.9933
900 2 35.6376 35.6017 32.1143
901 2 0.205479 -0.00573099 35.9653
902 2 4.09989 0.0739119 36.0889
903 2 7.9806 0.142578 36.1399
904 2 12.0566 0.0159524 36.1433
905 2 16.0108 0.0841379 36.0641
906 2 19.903 0.095343 35.9988
907 2 24.0709 39.4782 35.9836
908 2 27.6883 39.5816 36.1296
909 2 31.5994 0.142944 36.1184
910 2 35.6867 0.0648332 35.967
911 2 0.187394 3.97193 36.2211
912 2 4.09984 4.05514 35.9445
913 2 7.86828 3.93765 36.1965
914 2 12.0271 4.18214 36.0074
915 2 15.9757 3.87595 36.1982
916 2 19.9353 3.91249 35.9507
917 2 23.7995 3.99191 36.1045
918 2 27.7722 3.9394 36.0511
919 2 31.6982 3.77118 36.0173
920 2 35.863 3.89568 36.0723
921 2 0.158203 7.92157 36.0749
922 2 4.0481 7.91394 36.0562
923 2 8.04732 7.90555 36.1704
924 2 11.8389 8.12 36.0769
925 2 15.8648 7.88771 36.0811
926 2 19.8429 7.9852 36.2032
927 2 23.9413 8.11797 36.1355
928 2 27.9554 8.01948 35.9056
929 2 31.942 7.87842 36.1149
930 2 35.8674 7.76973 35.9063
931 2 0.210178 11.8964 36.2377
932 2 3.96412 11.6521 36.1277
933 2 7.87955 11.9103 36.1395
934 2 11.9717 11.8467 36.2293
935 2 15.9778 11.8948 36.1439
936 2 20.0323 11.971 36.0494
937 2 24.017 11.9991 36.2477
938 2 28.0026 12.0211 36.2058
939 2 31.9649 11.8001 36.1886
940 2 35.8273 11.8668 36.0229
941 2 0.155325 15.7713 36.1104
942 2 3.99053 15.9497 36.0546
943 2 8.12727 15.8188 36.1466
944 2 12.1492 15.7705 36.1001
945 2 15.992 15.7274 36.176
946 2 19.8046 15.9632 36.0493
947 2 23.845 15.8868 36.0814
948 2 27.7148 15.8276 36.2949
949 2 31.6328 15.7048 36.1565
950 2 35.6415 15.8264 36.1399
951 2 0.0326647 19.806 36.1983
952 2 3.92581 19.6683 36.2441
953 2 7.94158 19.9438 36.1606
954 2 12.0015 19.8124 36.2678
955 2 15.9838 19.8591 36.1037
956 2 19.9337 19.8083 36.1753
957 2 23.8791 19.9266 36.0098
958 2 27.8464 19.7156 35.9968
959 2 31.9031 19.9743 35.9026
960 2 35.7811 19.7836 36.2928
961 2 0.14496 23.7704 36.019
962 2 4.16833 23.682 36.1831
963 2 7.94171 23.8577 36.2548
964 2 11.8981 23.8851 36.1737
965 2 16.1513 23.7249 35.975
966 2 19.9641 23.905 35.913
967 2 24.0422 23.8229 36.0282
968 2 27.8445 23.8069 36.0672
969 2 31.9539 23.7116 36.2512
970 2 35.7376 23.9825 35.9289
971 2 0.0887086 27.8623 36.2031
972 2 3.99613 27.746 36.2441
973 2 7.9329 27.7041 36.1857
974 2 11.9621 27.8289 36.1605
975 2 15.9625 27.8075 36.1638
976 2 19.9584 27.6971 36.1301
977 2 23.8447 27.8533 35.9988
978 2 27.7454 27.6366 36.0215
979 2 31.6779 27.6256 36.0156
980 2 35.7361 27.8766 36.0276
981 2 0.247704 31.7949 36.0096
982 2 4.15549 31.6648 36.2357
983 2 8.08549 31.6615 36.0756
984 2 11.9283 31.5983 36.0021
985 2 16.0723 31.6746 36.097
986 2 19.8368 31.6566 35.858
987 2 23.9536 31.7954 35.8344
988 2 27.8552 31.7305 35.8404
989 2 31.7754 31.7487 36.0338
990 2 35.8551 31.8281 35.9007
991 2 -0.0676188 35.8136 35.8525
992 2 4.2952 35.5962 35.9554
993 2 8.10278 35.724 36.1906
994 2 12.1676 35.6101 36.0823
995 2 15.9248 35.7128 36.3008