ITEM: TIMESTEP
27100
ITEM: NUMBER OF ATOMS
7500
ITEM: BOX BOUNDS xy xz yz pp pp pp
0.0000000000000000e+00 3.9579999999999998e+01 0.0000000000000000e+00
0.0000000000000000e+00 3.9579999999999998e+01 0.0000000000000000e+00
-6.1923685936562833e-02 5.9761923685936864e+01 0.0000000000000000e+00
ITEM: ATOMS id type x y z
1 2 39.3701 39.6939 0.0953373
2 2 3.74987 0.137699 0.375335
3 2 7.73941 -0.0757644 0.158019
4 2 11.6773 -0.0572545 0.152411
5 2 15.745 39.6753 0.170047
6 2 19.6091 0.010653 0.120712
7 2 23.6093 -0.0101083 0.196099
8 2 27.6455 39.3876 0.258471
9 2 31.4862 39.5232 0.235252
10 2 35.6821 39.7588 0.120347
11 2 39.4717 3.94419 0.313826
12 2 3.73733 3.9381 0.118253
13 2 7.6731 4.08607 0.243997
14 2 11.6553 3.83044 0.14457
15 2 15.7989 3.88547 0.233357
16 2 19.932 3.9561 0.254126
17 2 23.7434 3.95149 0.291949
18 2 27.6347 4.05796 0.351689
19 2 31.6537 3.97388 0.26458
20 2 35.5247 4.0027 0.399361
21 2 39.4702 7.90186 0.231089
22 2 3.88957 7.96747 0.176059
23 2 7.65383 7.97538 0.0428013
24 2 11.7658 7.83596 60.0193
25 2 15.9237 7.92286 0.27618
26 2 19.851 7.89013 0.253528
27 2 23.7663 8.07977 0.430645
28 2 27.8159 7.86711 0.027173
29 2 31.4727 8.0381 0.231784
30 2 35.4524 7.78352 0.295072
31 2 39.2303 11.9471 0.23556
32 2 3.99806 11.8455 0.185927
33 2 7.89189 11.8584 0.243315
34 2 11.7425 11.7582 0.107683
35 2 15.7887 11.6469 0.218468
36 2 19.6746 11.6183 0.170298
37 2 23.5131 11.8221 0.312674
38 2 27.6169 11.9764 0.232352
39 2 31.6031 12.0248 0.237628
40 2 35.436 11.8995 0.146411
41 2 39.7401 15.9826 0.323376
42 2 3.92257 15.972 0.170882
43 2 7.82294 16.0837 -0.13921
44 2 11.6248 15.9962 0.220289
45 2 15.683 15.8756 0.20763
46 2 19.7079 15.6503 0.186958
47 2 23.6339 15.8149 0.0811719
48 2 27.5891 15.8643 0.294154
49 2 31.4535 15.8682 0.145677
50 2 35.5064 15.8839 0.119716
51 2 39.2665 19.8933 0.10142
52 2 3.85962 19.9035 0.17899
53 2 7.85516 19.8486 0.277772
54 2 11.8275 19.9429 0.19492
55 2 15.7473 19.8133 0.263243
56 2 19.8916 19.7444 0.359111
57 2 23.5921 19.856 0.296401
58 2 27.6569 19.8069 0.181248
59 2 31.5718 19.871 0.28776
60 2 35.3304 19.7774 -0.137116
61 2 39.5549 23.7638 0.248687
62 2 3.91564 23.9665 0.125279
63 2 7.83612 23.7411 0.196134
64 2 11.739 23.8509 0.33988
65 2 15.7087 23.8086 0.103292
66 2 19.5626 23.8231 0.364988
67 2 23.5971 23.8089 0.279604
68 2 27.4634 23.7782 0.291898
69 2 31.5249 23.8387 0.131025
70 2 35.5559 23.6562 0.113544
71 2 39.2975 27.8429 0.230931
72 2 3.62318 27.9069 0.28669
73 2 7.77532 27.6988 0.145813
74 2 11.9065 27.7744 0.265213
75 2 15.8192 27.7181 0.357338
76 2 19.6101 27.6667 0.0623771
77 2 23.6147 27.7153 0.335737
78 2 27.6651 27.9304 0.13337
79 2 31.4309 27.6472 0.268102
80 2 35.5792 27.7286 0.160988
81 2 39.5575 31.5896 0.227091
82 2 3.83542 31.8142 0.185903
83 2 7.86037 31.5021 0.369402
84 2 11.9555 31.8577 0.285712
85 2 15.8269 31.6644 0.166266
86 2 19.7668 31.3979 0.157843
87 2 23.5135 31.5043 0.258524
88 2 27.5031 31.5675 0.238371
89 2 31.6082 31.5249 0.127539
90 2 35.629 31.7368 0.159513
91 2 39.3906 35.4999 0.0877296
92 2 3.85659 35.7025 0.267456
93 2 7.76993 35.4965 0.123411
94 2 11.6532 35.6603 0.102943
95 2 15.7705 35.6907 0.10808
96 2 19.7445 35.5682 0.166696
97 2 23.7204 35.6156 0.294487
98 2 27.5391 35.5183 0.337566
99 2 31.5836 35.6013 0.130544
100 2 35.4362 35.7078 0.127546
101 2 39.4458 0.194225 4.20311
102 2 3.52625 39.6823 4.1194
103 2 7.74394 -0.191018 4.191
104 2 11.7162 -0.0108155 4.088
105 2 15.8159 0.00528221 4.19567
106 2 19.622 39.7252 4.07492
107 2 23.5861 39.5263 4.25015
108 2 27.7692 39.4615 4.33811
109 2 31.4305 -0.0931942 4.13901
110 2 35.487 39.4424 4.34279
111 2 39.5363 4.01498 4.24174
112 2 3.99428 3.99797 4.11265
113 2 7.74541 3.87587 3.99837
114 2 11.6402 4.03126 4.02307
115 2 15.5926 3.76387 4.16109
116 2 19.9163 3.89072 4.23784
117 2 23.7178 3.76631 4.15973
118 2 27.5794 3.75595 4.21249
119 2 31.5653 3.94522 4.19884
120 2 35.6103 3.99893 4.35509
121 2 -0.162895 8.10655 4.37002
122 2 3.75677 7.66477 4.21337
123 2 7.85692 7.80235 4.1077
124 2 11.7503 7.84898 4.28198
125 2 15.8157 7.76902 4.18088
126 2 19.7937 7.83355 4.02875
127 2 23.807 7.94333 4.27791
128 2 27.5311 7.89543 4.11447
129 2 31.642 7.90513 4.20672
130 2 35.6936 7.97741 4.32364
131 2 39.6533 11.887 4.14927
132 2 4.03411 12.0552 4.15592
133 2 7.85023 11.8873 4.25214
134 2 11.9054 11.9493 4.0484
135 2 15.5891 11.8403 4.11028
136 2 19.7012 11.8539 4.24505
137 2 23.8085 11.8688 4.23005
138 2 27.7434 11.9614 4.35822
139 2 31.5868 11.9792 4.21384
140 2 35.5248 11.9125 4.19092
141 2 39.3784 15.7687 4.08769
142 2 3.7502 15.9382 4.16091
143 2 7.9359 15.9895 4.10661
144 2 11.8368 15.7644 4.18661
145 2 15.9001 15.7669 4.11175
146 2 19.6295 15.6862 4.00748
147 2 23.6064 15.8964 4.05058
148 2 27.4631 15.8239 4.19227
149 2 31.5304 15.8506 4.18148
150 2 35.4081 15.7595 4.23365
151 2 -0.220399 19.6359 4.09272
152 2 3.76288 19.8535 4.2729
153 2 7.74359 19.7924 4.30479
154 2 11.8255 19.8521 4.11278
155 2 15.7568 19.7176 4.18664
156 2 19.7331 19.8752 4.13213
157 2 23.7644 19.7352 4.20032
158 2 27.6671 19.8219 4.17388
159 2 31.6522 19.7337 4.3332
160 2 35.5679 19.6972 4.21915
161 2 39.555 23.5836 4.25703
162 2 3.89497 23.7146 4.27961
163 2 7.74421 23.8454 4.03552
164 2 11.8009 24.053 4.3682
165 2 15.7715 23.667 4.14694
166 2 19.8335 23.7742 4.28517
167 2 23.7571 23.8254 4.16235
168 2 27.6523 23.6403 4.18294
169 2 31.779 23.7954 4.14177
170 2 35.5216 23.7746 3.96702
171 2 39.5113 27.5227 3.96688
172 2 3.72711 27.5875 4.25252
173 2 7.94179 27.7313 4.1033
174 2 11.8672 27.7821 4.21022
175 2 15.8222 27.683 4.38191
176 2 19.734 27.7007 4.23281
177 2 23.5955 27.7808 4.30542
178 2 27.516 27.7263 4.10054
179 2 31.4769 27.7201 4.37528
180 2 35.5597 27.7114 4.13317
181 2 -0.0318331 31.7114 4.35541
182 2 3.78613 31.9517 4.30986
183 2 7.69985 31.7782 4.2329
184 2 11.8758 31.7305 4.14556
185 2 15.6423 31.6767 4.19916
186 2 19.8017 31.7204 4.30404
187 2 23.6734 31.6042 4.1754
188 2 27.6647 31.7622 4.17167
189 2 31.6032 31.6616 4.26378
190 2 35.5164 31.5791 4.24682
191 2 -0.0901748 35.6851 4.10294
192 2 3.71064 35.5373 4.23894
193 2 7.59436 35.6303 4.15153
194 2 11.9406 35.6242 4.25873
195 2 15.7495 35.5122 4.039
196 2 19.5533 35.5964 4.15706
197 2 23.3591 35.8014 4.18529
198 2 27.5005 35.6085 4.22632
199 2 31.5995 35.6472 4.11126
200 2 35.4897 35.7091 4.22907
201 2 39.4774 39.6182 8.28415
202 2 3.80306 39.7731 8.27195
203 2 7.79892 39.4454 8.02159
204 2 11.6107 -0.0855676 8.09434
205 2 15.6037 -0.000990187 8.09964
206 2 19.5084 39.4858 8.23348
207 2 23.5312 39.4452 8.13976
208 2 27.5682 -0.313441 8.18355
209 2 31.3446 39.6143 8.2495
210 2 35.5329 39.4648 8.33047
211 2 39.3892 4.01548 8.22283
212 2 3.93835 4.09347 8.22993
213 2 7.81263 3.76405 8.14849
214 2 11.8894 3.8391 8.20012
215 2 15.6374 3.84547 8.17966
216 2 19.679 3.9283 8.2
217 2 23.6883 4.00848 8.21851
218 2 27.7555 3.82186 8.20586
219 2 31.6146 3.94342 8.1915
220 2 35.4262 3.90964 8.23591
221 2 39.6849 7.99614 8.27376
222 2 4.06878 7.88935 8.20772
223 2 7.7966 7.82901 8.13648
224 2 11.6064 7.6427 8.01032
225 2 15.7353 7.84389 8.19035
226 2 19.5666 7.88187 8.15241
227 2 23.3995 8.0744 8.07246
228 2 27.5941 7.80806 8.24187
229 2 31.4614 7.70746 8.29122
230 2 35.3396 7.72072 8.06427
231 2 39.8086 11.9142 8.28426
232 2 4.14873 11.9337 8.30989
233 2 7.77771 11.7324 8.24784
234 2 11.7022 11.9112 8.02566
235 2 15.7727 11.8266 8.12926
236 2 19.7794 11.7931 8.11643
237 2 23.549 11.8471 8.13705
238 2 27.665 11.6831 8.10907
239 2 31.445 11.6137 8.18418
240 2 35.5993 11.9577 8.19424
241 2 39.2523 15.8157 8.09113
242 2 3.88699 15.8406 8.09147
243 2 7.84047 15.795 8.0718
244 2 11.9277 15.9404 8.22911
245 2 15.7792 15.7749 7.99757
246 2 19.5626 15.895 8.17589
247 2 23.7178 15.804 8.13972
248 2 27.7593 15.7976 7.95044
249 2 31.4051 15.8493 8.0439
250 2 35.3421 15.7386 8.35257
251 2 39.5563 19.6578 8.15634
252 2 4.04925 19.5558 8.11241
253 2 8.03298 19.6857 8.21925
254 2 11.811 19.8371 8.15392
255 2 15.5223 19.9594 8.09741
256 2 19.5629 19.8172 8.11318
257 2 23.5313 19.5299 8.06505
258 2 27.7549 19.8634 8.18492
259 2 31.5069 19.7401 8.13449
260 2 35.4619 19.8046 8.10219
261 2 39.3539 23.5184 8.18639
262 2 3.98021 23.763 8.13114
263 2 7.84298 23.5635 8.14485
264 2 11.7482 23.7606 8.17442
265 2 15.8623 23.7377 8.14445
266 2 19.8477 23.7123 8.2356
267 2 23.6959 23.75 8.26456
268 2 27.7548 23.8074 8.19298
269 2 31.6401 23.5902 8.28435
270 2 35.7442 23.5026 8.16037
271 2 -0.307287 27.5616 8.15369
272 2 3.92813 27.5409 7.93573
273 2 7.4966 27.7319 8.02284
274 2 11.6918 27.4824 8.05645
275 2 15.9006 27.6194 8.09858
276 2 19.9052 27.715 8.09172
277 2 23.7683 27.5398 8.33043
278 2 27.5608 27.7199 8.1438
279 2 31.6372 27.6814 8.0891
280 2 35.7395 27.6005 8.16294
281 2 -0.09064 31.4449 8.31267
282 2 3.81515 31.5757 8.25204
283 2 7.81818 31.4982 8.05794
284 2 11.8006 31.6592 8.12728
285 2 15.8513 31.4893 8.29376
286 2 19.7784 31.6337 8.2823
287 2 23.6221 31.6057 8.20039
288 2 27.4956 31.6466 8.26983
289 2 31.6458 31.4647 8.11051
290 2 35.5008 31.6507 8.01823
291 2 39.4254 35.5405 8.28703
292 2 3.91632 35.4689 8.30787
293 2 7.67825 35.653 8.19574
294 2 11.7868 35.4532 8.2071
295 2 15.5571 35.4596 8.07252
296 2 19.6795 35.727 8.23597
297 2 23.5309 35.5974 8.24028
298 2 27.4852 35.6012 8.31664
299 2 31.5058 35.4878 8.18907
300 2 35.4519 35.4973 8.32629
301 2 39.5708 39.4082 12.208
302 2 3.76758 39.5997 12.166
303 2 7.95294 39.5532 12.1984
304 2 11.8572 39.4201 12.2561
305 2 15.8675 39.2527 12.1606
306 2 19.7705 -0.17383 12.2133
307 2 23.7785 0.0388785 12.3859
308 2 27.7682 -0.106658 12.2578
309 2 31.7204 -0.0803903 12.0203
310 2 35.5255 39.4017 12.2329
311 2 39.5451 3.93588 12.2128
312 2 3.88383 3.8697 12.1213
313 2 7.9792 3.85842 12.3504
314 2 11.969 3.86353 12.2173
315 2 15.979 3.93481 12.1288
316 2 19.8414 3.81463 12.0931
317 2 23.798 4.08265 12.2097
318 2 27.5894 3.79471 12.0763
319 2 31.6258 3.91827 12.296
320 2 35.3951 3.80969 12.196
321 2 39.3918 7.87775 12.2099
322 2 3.88382 7.92921 12.2422
323 2 7.81164 7.83928 12.153
324 2 11.975 7.89492 12.1401
325 2 15.5499 7.72616 12.1137
326 2 19.7472 7.71539 12.0809
327 2 23.8311 7.99089 12.1219
328 2 27.7951 7.80669 12.3251
329 2 31.7211 7.76617 12.1801
330 2 35.5019 7.83851 12.1557
331 2 39.4461 11.6953 12.2124
332 2 3.98605 11.6634 12.1799
333 2 7.81779 11.6426 12.1609
334 2 11.8835 11.8185 12.0763
335 2 15.9337 11.9013 12.0524
336 2 19.5933 11.8033 12.1965
337 2 23.7042 11.879 12.1794
338 2 27.537 11.8228 12.1617
339 2 31.5958 11.6801 12.1139
340 2 35.4846 12.019 12.2744
341 2 39.481 15.7146 12.0795
342 2 3.95719 15.9542 12.217
343 2 7.90503 15.5623 12.1035
344 2 11.9632 15.6584 12.1144
345 2 15.8341 15.8827 12.2486
346 2 19.7786 15.7239 12.0494
347 2 23.8848 15.6568 11.9744
348 2 27.589 15.8729 12.0512
349 2 31.643 15.6984 12.1282
350 2 35.587 15.7358 12.1895
351 2 0.0532127 19.6086 11.9493
352 2 3.93713 19.6419 12.0906
353 2 7.74757 19.6809 12.3239
354 2 11.8366 19.8504 12.1829
355 2 15.885 19.7664 12.2309
356 2 19.8516 19.6357 12.181
357 2 23.7187 19.5879 12.1458
358 2 27.5984 19.6616 12.1524
359 2 31.6923 19.5744 12.1296
360 2 35.7516 19.6495 12.1757
361 2 0.034839 23.7247 12.2555
362 2 3.96497 23.4943 12.0387
363 2 7.95252 23.641 12.1029
364 2 11.8537 23.7182 12.1
365 2 15.7953 23.7784 12.0431
366 2 19.8269 23.524 12.0848
367 2 23.6407 23.4527 12.1242
368 2 27.4558 23.5488 12.3256
369 2 31.543 23.714 12.1229
370 2 35.7317 23.6796 12.0772
371 2 39.6242 27.6159 12.1031
372 2 3.76593 27.433 11.9916
373 2 7.75323 27.3893 12.0652
374 2 11.8778 27.5559 12.0396
375 2 15.9231 27.7867 11.9386
376 2 19.7203 27.4194 12.1197
377 2 23.704 27.6916 12.1879
378 2 27.6979 27.5693 12.3544
379 2 31.5757 27.8814 12.0922
380 2 35.3393 27.6491 12.1767
381 2 -0.118513 31.6618 11.9886
382 2 3.96886 31.5058 12.2611
383 2 7.76896 31.4039 12.0699
384 2 11.6891 31.3814 12.0544
385 2 15.832 31.6427 12.0949
386 2 19.6946 31.7488 12.2396
387 2 23.7306 31.4426 12.2525
388 2 27.6281 31.7747 12.3139
389 2 31.7275 31.7234 12.2314
390 2 35.6255 31.5969 12.1582
391 2 39.5379 35.577 12.143
392 2 4.1136 35.5138 12.0189
393 2 7.60934 35.5139 12.0625
394 2 11.9956 35.4671 12.1445
395 2 15.5715 35.6773 12.1567
396 2 19.6727 35.4718 12.2164
397 2 23.6008 35.6277 12.3908
398 2 27.7395 35.5305 12.1202
399 2 31.5505 35.4794 12.1928
400 2 35.6287 35.51 12.2144
401 2 0.0183484 39.2087 16.1997
402 2 3.90825 39.6787 16.121
403 2 8.00437 39.5084 16.3871
404 2 11.8466 -0.137487 16.1286
405 2 15.8019 39.4132 16.1793
406 2 19.9324 39.5931 16.333
407 2 23.8664 -0.131711 16.193
408 2 27.8303 39.4818 16.2395
409 2 31.8142 39.3582 16.216
410 2 35.7464 39.4011 16.3378
411 2 39.1826 4.04787 16.0196
412 2 3.94591 3.74505 16.2553
413 2 8.12031 3.65569 16.0478
414 2 12.0221 3.90497 16.2248
415 2 15.9607 3.55802 16.2833
416 2 19.8942 3.84289 16.1937
417 2 23.7605 3.86861 16.253
418 2 27.958 3.6143 16.2323
419 2 31.8723 3.77484 16.1229
420 2 35.624 3.54723 16.2765
421 2 0.105428 7.92756 16.2557
422 2 3.88685 7.60342 16.1318
423 2 7.96181 7.66252 15.9893
424 2 11.8993 7.7002 16.0626
425 2 16.0241 7.8439 16.1483
426 2 19.8754 7.88551 15.9846
427 2 23.8321 7.68609 16.0656
428 2 27.8061 7.91662 16.1645
429 2 31.823 7.89615 15.9589
430 2 35.5883 7.74274 16.1311
431 2 39.5038 11.723 16.1754
432 2 4.16024 11.6561 16.0504
433 2 7.9621 11.545 16.0163
434 2 12.0469 11.6656 16.1561
435 2 15.962 11.7382 16.3005
436 2 19.9118 11.8474 16.3272
437 2 23.7537 11.8391 16.2338
438 2 27.5215 11.855 16.2101
439 2 31.6354 11.9044 16.0484
440 2 35.7404 11.7679 16.3763
441 2 0.129167 15.5315 16.0295
442 2 3.99674 15.7716 16.1245
443 2 7.9286 15.5896 16.1384
444 2 11.7489 15.6559 16.149
445 2 15.693 15.6838 16.1234
446 2 19.7945 15.7413 16.1728
447 2 23.5624 15.7561 16.2818
448 2 27.6419 15.6555 16.0308
449 2 31.3294 15.7145 16.0683
450 2 35.4715 15.8878 16.2324
451 2 39.305 19.6007 16.1265
452 2 4.10947 19.5489 16.0716
453 2 7.99502 19.5729 16.1542
454 2 11.8622 19.6701 16.0982
455 2 15.8873 19.5755 16.1813
456 2 19.9006 19.6471 16.097
457 2 23.7832 19.6751 16.1903
458 2 27.7952 19.5769 16.1673
459 2 31.9345 19.7265 15.9793
460 2 35.6009 19.7191 16.0883
461 2 39.5701 23.6451 16.1418
462 2 3.98287 23.4771 16.0666
463 2 7.9488 23.6457 16.1656
464 2 11.7913 23.4382 16.0179
465 2 15.7659 23.7023 16.1601
466 2 19.5072 23.6764 16.136
467 2 23.7651 23.5529 16.1508
468 2 27.833 23.6744 16.0028
469 2 31.7276 23.7168 16.1996
470 2 35.6191 23.6463 15.8427
471 2 0.187203 27.685 16.0583
472 2 4.1355 27.6993 16.0334
473 2 8.06262 27.4679 16.266
474 2 11.7969 27.5255 16.1196
475 2 15.6665 27.7457 16.1724
476 2 19.9524 27.5867 16.1409
477 2 23.841 27.5039 16.1022
478 2 27.7362 27.4029 16.1864
479 2 31.6384 27.5891 16.0272
480 2 35.7948 27.6515 16.1354
481 2 -0.0561392 31.586 16.0617
482 2 4.05439 31.6316 16.0871
483 2 8.07651 31.4033 16.1304
484 2 11.8834 31.3899 16.1301
485 2 15.794 31.4281 16.2291
486 2 19.8182 31.5372 16.1564
487 2 23.6489 31.5134 16.0462
488 2 27.7352 31.5036 16.0967
489 2 31.6924 31.5337 16.2338
490 2 35.5354 31.3592 16.0704
491 2 0.122405 35.4556 16.1398
492 2 4.28243 35.4941 15.9512
493 2 8.09136 35.5795 16.2346
494 2 11.9227 35.23 15.9529
495 2 15.7743 35.5264 16.0864
496 2 19.7245 35.6099 16.077
497 2 23.7008 35.4623 16.1636
498 2 27.5676 35.5616 16.3301
499 2 31.6627 35.5796 16.2638
500 2 35.5466 35.382 16.0386
501 2 0.191064 39.3238 20.0062
502 2 4.06786 39.6823 20.0634
503 2 8.0059 39.4944 20.0564
504 2 11.9365 39.4955 20.0951
505 2 15.9756 39.4443 20.1544
506 2 19.9178 39.2699 20.0754
507 2 23.7588 39.4932 20.3132
508 2 27.6327 39.4429 20.1446
509 2 31.778 39.4683 20.1923
510 2 35.7318 39.3999 19.972
511 2 0.314285 3.87084 20.2254
512 2 4.05332 4.11676 20.2448
513 2 8.09998 3.81156 20.1149
514 2 12.1103 3.80924 20.1141
515 2 15.9527 4.07233 20.1981
516 2 19.7459 3.72004 20.1301
517 2 23.8191 3.7244 20.1199
518 2 27.8172 3.84922 20.1079
519 2 31.6164 3.84978 20.1452
520 2 35.6588 3.85 20.1524
521 2 0.114422 7.72801 20.1478
522 2 4.12134 7.83703 20.115
523 2 7.94917 7.61773 19.9694
524 2 11.9226 7.82467 20.1639
525 2 15.8824 7.86197 20.0799
526 2 19.8664 7.99318 20.2159
527 2 23.8658 7.57547 20.0892
528 2 27.7485 7.75394 20.1097
529 2 31.8141 7.73411 20.1312
530 2 35.7222 7.7566 20.1055
531 2 -0.135697 11.7982 20.3103
532 2 4.03448 11.7806 20.1191
533 2 7.80616 11.5416 20.0567
534 2 11.9248 11.7995 20.157
535 2 15.8091 11.7127 20.1644
536 2 19.782 11.5946 20.361
537 2 23.9497 11.6823 20.23
538 2 27.7235 11.9697 20.1116
539 2 31.8242 11.5748 20.0768
540 2 35.618 11.807 20.2827
541 2 0.0286745 15.8483 20.2703
542 2 3.96872 15.7906 20.2127
543 2 8.03918 15.7366 20.0788
544 2 11.7786 15.807 20.0429
545 2 16.1236 15.6501 20.0397
546 2 19.9257 15.7237 20.011
547 2 23.7391 15.7817 20.2768
548 2 27.744 15.977 20.0863
549 2 31.6188 15.7191 20.1003
550 2 35.4534 15.6972 20.2701
551 2 39.5379 19.6037 20.2883
552 2 4.28394 19.8237 20.1083
553 2 8.06513 19.6027 20.2442
554 2 12.2281 19.7269 20.1932
555 2 15.9339 19.7862 20.1591
556 2 19.8226 19.563 20.1691
557 2 23.74 19.7442 20.2192
558 2 27.567 19.6003 20.2346
559 2 31.7114 19.7533 19.9991
560 2 35.7311 19.6085 20.0944
561 2 39.7097 23.354 20.0545
562 2 3.9539 23.527 20.2192
563 2 7.94468 23.4141 19.9431
564 2 11.9529 23.4197 20.0723
565 2 15.8557 23.8145 20.261
566 2 19.7614 23.8515 20.1717
567 2 23.8695 23.5802 20.141
568 2 27.7177 23.6955 20.2815
569 2 31.8093 23.6253 20.0578
570 2 35.6913 23.6351 20.081
571 2 39.7175 27.4409 19.9628
572 2 4.19487 27.435 20.2944
573 2 7.90302 27.541 20.1159
574 2 11.9957 27.5714 20.2274
575 2 16.0299 27.7455 20.0565
576 2 19.9524 27.6325 20.0104
577 2 23.939 27.647 20.2683
578 2 27.8111 27.577 20.3226
579 2 31.8232 27.602 20.0985
580 2 35.7956 27.5639 20.2109
581 2 39.7034 31.6175 20.1371
582 2 4.04491 31.5579 20.1496
583 2 7.90991 31.5412 20.1591
584 2 11.7874 31.4879 20.0968
585 2 15.9485 31.6929 19.9539
586 2 19.8431 31.4198 20.1789
587 2 23.8111 31.3985 20.2431
588 2 27.909 31.5963 20.1566
589 2 31.8147 31.457 20.1163
590 2 35.7172 31.537 20.2286
591 2 0.17588 35.2997 19.9922
592 2 4.24741 35.5965 20.1921
593 2 7.95259 35.5108 20.0593
594 2 11.9078 35.3145 20.0094
595 2 15.7614 35.513 20.1387
596 2 20.0128 35.3226 19.9943
597 2 23.8315 35.3129 20.2654
598 2 27.9245 35.3546 20.1803
599 2 31.7768 35.6345 20.2762
600 2 35.6295 35.4462 20.0507
601 2 0.232955 39.4616 23.8865
602 2 4.17916 39.6457 24.0794
603 2 8.10264 39.7157 24.0995
604 2 12.056 -0.123554 24.0809
605 2 16.0103 -0.169362 24.069
606 2 20.0795 39.4793 24.0894
607 2 23.8816 39.6696 24.2293
608 2 27.792 39.5357 24.1898
609 2 31.6313 39.4219 24.1774
610 2 35.9918 39.489 23.9088
611 2 39.7502 4.03734 24.1948
612 2 4.20261 3.93166 24.097
613 2 8.2757 3.83605 24.2495
614 2 12.0112 4.06289 24.3297
615 2 16.0644 3.94758 24.139
616 2 19.9362 4.08589 23.9617
617 2 23.8244 3.69731 24.1119
618 2 27.8365 3.77425 23.9963
619 2 31.8613 3.78187 24.2353
620 2 35.6122 3.67156 24.1245
621 2 0.136223 7.89524 24.193
622 2 4.14798 7.89095 24.2527
623 2 8.05169 7.87386 24.02
624 2 11.8853 7.99794 24.1473
625 2 15.9979 7.86001 24.0531
626 2 19.9657 7.90488 24.1948
627 2 23.8783 8.07137 24.2022
628 2 27.8861 7.9045 24.207
629 2 31.7865 7.83097 24.1822
630 2 35.9718 7.82495 24.1337
631 2 39.8203 11.7348 24.3428
632 2 4.17019 11.8415 24.1934
633 2 8.03437 11.8844 24.1721
634 2 11.9661 11.8607 24.0633
635 2 15.7488 11.8657 24.0362
636 2 19.9519 11.9797 24.0689
637 2 23.7676 11.7466 24.1147
638 2 27.7012 11.8954 24.0652
639 2 31.7206 11.842 24.2367
640 2 35.9524 11.6598 24.2124
641 2 39.9153 15.7131 24.1565
642 2 4.15743 15.661 24.1978
643 2 7.92609 15.8212 24.158
644 2 11.8713 15.6013 24.1953
645 2 16.0808 15.7951 24.0269
646 2 19.8868 15.8244 24.1945
647 2 23.7244 15.9141 24.2105
648 2 27.8821 15.6981 24.0373
649 2 31.7605 15.7631 24.2136
650 2 35.7908 15.7704 24.0492
651 2 0.0911472 19.7131 24.2656
652 2 3.87931 19.9457 24.16
653 2 8.03539 19.741 24.2064
654 2 12.0085 19.479 24.1113
655 2 15.9246 19.5757 24.176
656 2 19.6389 19.8212 23.9627
657 2 23.7177 19.7733 24.4305
658 2 27.8166 19.6159 24.246
659 2 31.783 19.7031 24.1767
660 2 35.6069 19.5756 24.2491
661 2 -0.139673 23.9056 24.1627
662 2 3.78575 23.7595 24.1196
663 2 8.01063 23.7705 24.0753
664 2 11.9738 23.7212 24.1103
665 2 15.8807 23.6434 23.9866
666 2 19.8773 23.7902 24.1819
667 2 23.9773 23.7055 24.1361
668 2 27.76 23.6499 24.3424
669 2 31.8073 23.5687 23.963
670 2 35.8032 23.6827 24.0809
671 2 39.8088 27.4872 24.0996
672 2 4.173 27.6984 24.1832
673 2 8.02374 27.7457 24.2382
674 2 11.8602 27.8074 24.0743
675 2 15.8979 27.6809 24.1083
676 2 20.0761 27.5721 24.0535
677 2 23.8641 27.7091 24.0795
678 2 27.9028 27.7482 24.1987
679 2 31.7871 27.494 24.1247
680 2 35.9281 27.7131 23.9719
681 2 0.0599285 31.5914 24.2003
682 2 3.91042 31.6909 24.1686
683 2 8.01913 31.7419 23.9908
684 2 11.7861 31.6581 24.0143
685 2 15.8482 31.5359 24.1439
686 2 19.8507 31.6943 24.2745
687 2 24.0201 31.4982 24.0698
688 2 27.9839 31.5347 24.2427
689 2 31.739 31.5927 23.9617
690 2 35.7978 31.6587 24.2743
691 2 0.208015 35.7489 24.0496
692 2 4.08876 35.8147 23.9799
693 2 7.96079 35.7382 24.2594
694 2 12.0489 35.5463 24.1097
695 2 16.0363 35.548 24.2335
696 2 19.9603 35.4832 24.1618
697 2 23.9004 35.6415 24.3308
698 2 27.8206 35.5245 24.1601
699 2 31.792 35.6283 24.1169
700 2 35.8444 35.6039 24.3655
701 2 0.0383815 39.5319 28.1607
702 2 3.85398 0.209794 28.0862
703 2 7.9616 39.6205 28.3634
704 2 12.047 39.5573 28.1089
705 2 16.273 39.5597 28.132
706 2 19.9602 39.5935 28.0707
707 2 23.8333 39.4379 28.2445
708 2 27.7915 39.3072 28.2254
709 2 31.8283 39.441 28.3439
710 2 35.6911 39.4472 28.0361
711 2 0.101603 3.84519 28.2599
712 2 3.95635 3.72115 28.0518
713 2 7.96227 4.01873 28.0062
714 2 12.0648 3.79709 28.086
715 2 16.0813 4.05373 28.0396
716 2 19.9464 4.04052 28.1644
717 2 23.8352 3.79338 28.1083
718 2 27.4622 3.9663 27.9632
719 2 31.6385 4.0398 28.1416
720 2 35.6152 3.87659 28.0908
721 2 -0.0160603 7.66132 28.2103
722 2 4.15681 7.62263 28.15
723 2 8.06619 7.99325 28.2808
724 2 12.0198 7.769 28.1413
725 2 15.9946 7.75038 28.1933
726 2 20.1383 7.83735 28.1996
727 2 23.9535 7.99274 28.1722
728 2 27.8784 7.60212 28.0496
729 2 31.7867 7.84708 28.1745
730 2 35.8072 7.96953 28.174
731 2 0.120353 11.8427 28.2267
732 2 4.07084 11.7198 28.3516
733 2 8.07253 12.0811 28.1716
734 2 12.1072 11.937 28.1199
735 2 15.8119 11.6967 28.0628
736 2 19.8513 11.6315 28.1184
737 2 23.8526 12.0782 28.235
738 2 27.7935 11.6753 28.1821
739 2 32.0129 11.8684 28.0675
740 2 35.8075 11.9457 28.154
741 2 0.197483 15.7482 28.1092
742 2 4.17567 15.9664 28.1289
743 2 8.20176 15.961 28.1304
744 2 12.2237 15.8775 28.1954
745 2 16.1212 15.6402 28.2287
746 2 19.9204 15.8577 28.2387
747 2 23.7678 15.8082 28.2902
748 2 27.8485 15.6877 28.2054
749 2 31.7425 15.7576 28.1467
750 2 35.8469 16.0051 28.2124
751 2 0.155263 19.8602 28.1809
752 2 4.09975 19.9615 28.134
753 2 7.97774 19.8261 27.9927
754 2 11.8765 19.8055 27.9164
755 2 15.8142 19.7302 28.2512
756 2 19.9987 19.8299 27.9422
757 2 23.8226 19.7868 28.2558
758 2 27.8411 19.7731 28.0738
759 2 31.9861 19.7044 28.1819
760 2 35.8487 19.6466 28.1085
761 2 0.169534 23.7848 28.0045
762 2 4.142 23.8832 28.2016
763 2 7.98398 23.9458 28.0651
764 2 11.9601 23.9489 28.1258
765 2 15.9935 23.564 28.1052
766 2 19.9575 23.7032 28.2046
767 2 23.8228 23.7775 28.0203
768 2 27.8776 23.6715 28.0997
769 2 31.7276 23.6151 28.0799
770 2 35.8211 23.7527 28.1868
771 2 39.7991 27.9151 28.2167
772 2 4.35017 27.7554 28.074
773 2 8.09759 27.8639 27.8827
774 2 12.0439 27.7874 28.1172
775 2 16.0187 27.6026 28.1418
776 2 19.9728 27.5762 28.1473
777 2 23.7862 27.6863 28.3508
778 2 27.7368 27.7713 28.1327
779 2 31.634 27.358 28.1422
780 2 35.6342 27.827 28.1721
781 2 0.13027 31.7775 28.1826
782 2 4.00824 31.8159 28.1999
783 2 8.05223 31.8566 28.126
784 2 11.8521 31.7678 27.9617
785 2 15.7344 31.6686 28.1597
786 2 19.8909 31.5579 28.2273
787 2 23.8261 31.6869 28.0691
788 2 27.7637 31.7246 28.4296
789 2 31.8311 31.582 28.1229
790 2 35.688 31.6641 28.0231
791 2 0.183014 35.5913 28.0467
792 2 4.07916 35.6968 28.1323
793 2 7.88958 35.7116 28.1068
794 2 11.9512 35.6835 28.1307
795 2 15.8781 35.4507 28.0562
796 2 19.8914 35.6368 28.1424
797 2 23.8051 35.4935 28.0856
798 2 27.9957 35.5371 28.2121
799 2 31.8526 35.524 28.1105
800 2 35.5582 35.7942 27.844
801 2 0.0557779 39.6375 32.1592
802 2 4.11199 0.127581 32.2834
803 2 8.17658 -0.213323 32.1142
804 2 12.0462 39.4347 32.003
805 2 15.9019 0.0064039 32.0246
806 2 19.8376 0.0461317 32.151
807 2 23.8658 39.5094 32.2109
808 2 27.7933 39.7676 32.2834
809 2 31.7231 39.4881 32.1936
810 2 35.7301 39.6797 32.3544
811 2 0.117939 3.81864 32.2843
812 2 4.26367 4.06943 32.2009
813 2 8.07127 3.9794 32.0951
814 2 11.8128 3.89016 32.0874
815 2 16.0496 3.89808 31.9997
816 2 19.839 4.01717 32.1731
817 2 23.7708 3.91328 32.1599
818 2 27.9185 3.91906 31.9659
819 2 31.789 4.04211 32.2299
820 2 35.5342 3.91618 32.0656
821 2 39.7829 7.70764 32.1232
822 2 4.25414 8.04715 32.1279
823 2 8.20109 8.00496 31.9375
824 2 12.0138 7.84237 32.3652
825 2 16.0754 7.976 32.0038
826 2 19.9042 7.93542 32.0969
827 2 23.8909 7.77504 32.161
828 2 27.8561 7.91436 32.19
829 2 31.8316 7.92417 32.2739
830 2 35.7203 7.8616 32.2194
831 2 0.24139 11.7436 32.1033
832 2 4.10722 11.8849 32.1526
833 2 8.04745 11.7691 32.095
834 2 12.0313 12.1117 32.1438
835 2 16.0189 11.7767 32.2544
836 2 19.9255 11.7552 32.1406
837 2 23.9305 11.8375 32.2328
838 2 27.9461 12.0306 32.1384
839 2 31.9171 11.8088 31.9992
840 2 35.8584 11.9139 32.2001
841 2 0.0439025 15.8403 32.0764
842 2 4.11688 15.873 32.0855
843 2 8.10208 15.8515 32.175
844 2 11.8919 16.042 32.2035
845 2 16.1756 16.0793 31.9563
846 2 19.8301 16.0763 32.0291
847 2 23.7447 15.8451 32.1739
848 2 27.854 15.8529 32.1449
849 2 31.8309 15.5826 32.0757
850 2 35.7009 15.8455 32.2154
851 2 0.329177 19.9651 31.9427
852 2 4.1161 19.8019 32.1904
853 2 7.8458 19.9229 32.1809
854 2 11.9519 19.8904 32.2354
855 2 15.8566 20.1671 32.0774
856 2 19.9277 19.7803 32.0719
857 2 23.9543 19.6463 32.2122
858 2 27.8975 19.7791 32.1982
859 2 31.8431 19.6361 32.0768
860 2 35.7466 19.9552 32.0358
861 2 0.153396 23.7296 32.145
862 2 4.28505 23.8679 32.1153
863 2 8.18656 23.8503 31.8906
864 2 11.9979 23.7827 32.1183
865 2 15.9763 23.8382 32.2294
866 2 19.9634 23.8495 32.191
867 2 23.8552 23.7716 32.1139
868 2 27.7272 23.792 32.1888
869 2 31.8298 23.667 32.1302
870 2 35.8713 23.846 32.0393
871 2 -0.0555866 27.711 32.2681
872 2 3.99089 27.8904 32.2114
873 2 8.09007 27.8423 32.1087
874 2 11.8894 27.7996 32.2136
875 2 15.8336 27.7005 32.1972
876 2 19.7972 27.8669 32.1026
877 2 23.9486 27.5046 32.2567
878 2 27.8322 27.888 32.0626
879 2 31.7002 27.8778 32.2741
880 2 35.8119 27.6781 32.2389
881 2 -0.0913324 31.6302 31.9869
882 2 4.17184 31.6192 32.1035
883 2 8.14552 31.7339 32.1307
884 2 12.018 31.6995 31.9666
885 2 15.908 31.6998 32.0815
886 2 19.8333 31.6989 32.0089
887 2 23.6265 31.7787 32.2191
888 2 27.8058 31.7771 32.217
889 2 31.977 31.6852 32.1891
890 2 35.6726 31.6658 32.091
891 2 0.0487647 35.7434 32.0522
892 2 3.97986 35.7826 32.2028
893 2 7.98433 35.6791 32.1053
894 2 11.812 35.6108 32.1431
895 2 15.8428 35.6705 32.1869
896 2 19.7353 35.458 32.1208
897 2 23.782 35.7379 32.1766
898 2 27.8 35.4364 32.1856
899 2 31.7672 35.494 31.9733
900 2 35.7194 35.7467 32.1668
901 2 0.187436 -0.141833 36.1191
902 2 4.11734 0.204851 35.9985
903 2 7.71776 0.108099 36.0209
904 2 11.9431 -0.148211 36.1566
905 2 15.8505 0.253214 35.8077
906 2 19.67 0.066554 36.1119
907 2 23.8663 39.6551 35.9186
908 2 27.6941 39.7268 36.1324
909 2 31.5774 -0.0126765 36.236
910 2 35.6171 0.00117824 36.2502
911 2 -0.016176 3.98525 36.0076
912 2 4.1474 3.86773 36.002
913 2 8.01648 3.94802 36.2946
914 2 11.8406 4.06934 36.1571
915 2 15.8128 4.04212 35.9026
916 2 19.771 4.08399 36.1254
917 2 23.786 4.01114 36.0236
918 2 27.832 4.1797 35.9492
919 2 31.6996 3.89166 36.1004
920 2 35.5231 3.85704 36.1738
921 2 0.149996 8.01267 36.2195
922 2 3.87823 7.71146 36.2485
923 2 7.98364 7.98146 36.1865
924 2 11.9872 8.213 35.9869
925 2 15.9555 7.92121 36.1733
926 2 19.76 8.01064 36.1493
927 2 23.704 8.08312 36.0144
928 2 27.8105 8.09165 36.1083
929 2 31.7055 8.0316 36.1518
930 2 35.8816 7.76683 36.0349
931 2 -0.0199526 11.9594 36.2225
932 2 3.9481 11.8247 35.9866
933 2 7.93157 11.9981 36.1115
934 2 11.967 12.1719 36.1492
935 2 15.9271 11.8912 36.2622
936 2 19.8259 12.0587 36.1002
937 2 23.7574 11.9238 36.0067
938 2 27.8058 11.9033 36.0487
939 2 31.8068 11.9097 36.1031
940 2 35.6402 11.9769 36.0623
941 2 0.0450602 15.7288 36.1838
942 2 4.01844 15.937 35.9277
943 2 7.93051 15.8217 36.1032
944 2 12.1354 16.0648 36.0004
945 2 15.8243 15.8119 35.9935
946 2 19.7448 16.1187 36.1795
947 2 23.8693 15.8387 36.0348
948 2 27.8145 15.9429 36.0617
949 2 31.9237 15.907 36.2607
950 2 35.7153 15.8083 36.222
951 2 0.0809279 19.7694 36.2179
952 2 4.08893 19.8102 36.2147
953 2 8.07155 19.7862 36.141
954 2 12.02 19.7129 36.3095
955 2 16.0433 19.7878 36.2158
956 2 19.8106 19.9415 36.1968
957 2 23.8582 19.968 36.0292
958 2 27.8917 19.7803 35.945
959 2 31.6881 19.8862 36.0166
960 2 35.5992 19.5714 35.973
961 2 -0.0238717 23.7262 36.1363
962 2 4.03527 23.8209 36.2465
963 2 7.83326 23.81 35.9736
964 2 12.0644 23.8542 35.9316
965 2 15.9455 23.7734 36.1404
966 2 19.7449 23.8127 36.2503
967 2 23.8816 23.7469 36.0785
968 2 27.5785 23.6178 36.0099
969 2 31.6283 23.7136 36.0195
970 2 35.6213 23.6816 36.0758
971 2 -0.0293018 27.8712 36.1811
972 2 3.87074 27.8218 36.3386
973 2 7.775 27.67 36.2594
974 2 11.6366 27.8236 36.2211
975 2 15.7474 27.7763 36.0513
976 2 19.6792 27.8145 35.8647
977 2 23.679 27.7328 36.1972
978 2 27.6071 27.6748 36.0323
979 2 31.7306 27.7004 35.8989
980 2 35.6515 27.8007 36.3187
981 2 0.125787 31.7893 36.256
982 2 3.80696 31.6223 36.2601
983 2 8.03259 31.714 36.1933
984 2 11.934 31.7326 36.0465
985 2 15.9224 31.719 36.095
986 2 19.7736 31.7499 36.2282
987 2 23.7721 31.5795 36.1946
988 2 27.5202 31.704 35.892
989 2 31.754 31.7762 36.1436
990 2 35.6188 31.6934 36.3134
991 2 0.0877512 35.6936 35.961
992 2 4.04471 35.6455 36.2138
993 2 7.98779 35.6703 36.0533
994 2 11.9861 35.4732 36.3311
995 2 15.7738 35.6144 36.1753