ITEM: TIMESTEP
33200
ITEM: NUMBER OF ATOMS
7500
ITEM: BOX BOUNDS xy xz yz pp pp pp
0.0000000000000000e+00 3.9579999999999998e+01 0.0000000000000000e+00
0.0000000000000000e+00 3.9579999999999998e+01 0.0000000000000000e+00
-1.7409942005958357e-02 5.9717409942006277e+01 0.0000000000000000e+00
ITEM: ATOMS id type x y z
1 2 39.6069 39.5798 0.267057
2 2 3.94042 -0.0483875 0.320273
3 2 7.98408 0.0281065 0.140945
4 2 11.8977 0.167934 0.353615
5 2 15.7711 39.2305 0.35621
6 2 19.7573 -0.162564 0.319791
7 2 23.8151 -0.282833 0.122089
8 2 27.6749 39.465 0.185071
9 2 31.6091 39.585 0.215044
10 2 35.4271 39.6577 0.373302
11 2 39.6161 3.84243 0.346649
12 2 4.10381 3.87729 0.246861
13 2 8.04525 3.95652 0.220034
14 2 11.8944 3.95465 0.415105
15 2 15.8084 3.71191 0.259889
16 2 19.6597 3.66091 0.157383
17 2 23.7701 3.81314 0.435951
18 2 27.6543 3.73668 0.268363
19 2 31.5411 3.76776 0.184533
20 2 35.3955 3.77487 0.308912
21 2 39.4957 7.96386 0.0897308
22 2 4.06841 7.81893 0.241657
23 2 7.90399 7.95405 0.287995
24 2 11.835 7.78588 60.1269
25 2 15.9783 7.7246 0.15188
26 2 19.8874 7.92542 0.288561
27 2 23.8897 7.67682 0.307038
28 2 27.5201 7.80214 0.151322
29 2 31.4607 7.82431 0.274754
30 2 35.6368 7.7853 0.341987
31 2 39.7602 11.6426 0.162846
32 2 3.88213 11.6422 0.241711
33 2 7.88596 11.8546 0.16509
34 2 11.813 11.6013 0.355174
35 2 15.834 11.8916 0.535812
36 2 19.7811 11.8039 0.28013
37 2 23.9134 12.0188 0.258855
38 2 27.859 11.8841 0.196356
39 2 31.755 11.7156 0.412957
40 2 35.643 11.7071 0.286855
41 2 39.6092 15.6237 0.175837
42 2 3.99362 15.5664 0.229435
43 2 7.90489 15.6859 0.282255
44 2 11.7436 15.725 0.279275
45 2 15.9644 15.8119 0.0706965
46 2 19.96 15.7402 0.24817
47 2 23.8707 15.7228 0.32634
48 2 27.7708 15.8633 0.364649
49 2 31.5967 15.8234 0.186257
50 2 35.6112 15.7079 0.16063
51 2 39.727 19.7099 0.123641
52 2 3.90608 19.8207 0.187552
53 2 7.63214 19.5056 0.246237
54 2 12.0072 19.6986 0.286988
55 2 15.8551 19.7145 0.275704
56 2 19.7823 19.5326 0.171521
57 2 23.8661 19.7137 0.259264
58 2 27.8974 19.6941 0.0928935
59 2 31.6074 19.6939 0.0597072
60 2 35.8208 19.6288 0.234271
61 2 39.6052 23.7444 0.337833
62 2 4.15565 23.7026 0.173976
63 2 7.77346 23.6105 0.330289
64 2 11.978 23.6614 0.200995
65 2 16.0039 23.6808 0.434423
66 2 19.7738 23.593 0.221622
67 2 23.7605 23.6466 0.321381
68 2 27.7825 23.5572 0.148128
69 2 31.4885 23.7132 0.215431
70 2 35.4771 23.7484 0.240054
71 2 39.6318 27.7503 0.235044
72 2 4.16327 27.5412 0.113211
73 2 7.99633 27.6509 0.116935
74 2 11.8612 27.7084 0.294682
75 2 15.5623 27.6644 0.440835
76 2 19.7814 27.7502 0.324379
77 2 23.7464 27.5846 0.396668
78 2 27.8597 27.658 0.131843
79 2 31.7686 27.6287 0.330234
80 2 35.6064 27.571 0.232098
81 2 39.7413 31.6129 0.159549
82 2 4.01129 31.5204 0.30228
83 2 7.78372 31.576 0.275998
84 2 11.6835 31.7786 0.119792
85 2 15.6217 31.5157 0.235737
86 2 19.839 31.4771 0.258081
87 2 23.7096 31.4713 0.275866
88 2 27.5792 31.7511 0.1665
89 2 31.6432 31.5071 0.090018
90 2 35.6635 31.6851 0.210658
91 2 39.6473 35.7225 0.215253
92 2 4.04571 35.5657 0.279519
93 2 7.88632 35.7832 0.346299
94 2 11.6796 35.4217 0.151981
95 2 15.8206 35.424 0.388097
96 2 19.7601 35.5653 0.278564
97 2 23.764 35.562 0.206058
98 2 27.6771 35.4286 0.267279
99 2 31.7406 35.37 0.192791
100 2 35.5863 35.6078 0.16348
101 2 39.6277 -0.0626088 4.0907
102 2 4.03344 39.5112 4.15589
103 2 8.01322 -0.180601 4.07645
104 2 11.8805 -0.134381 4.28218
105 2 15.7708 -0.151351 4.25819
106 2 19.6873 39.5446 4.13209
107 2 23.6272 39.5486 4.40462
108 2 27.7611 39.6157 4.13509
109 2 31.6901 -0.0898156 4.13692
110 2 35.7622 39.7027 4.16966
111 2 39.6491 4.08578 4.36752
112 2 3.93751 3.78894 4.4104
113 2 7.79759 3.94033 4.46036
114 2 11.9497 3.87328 4.27217
115 2 15.8243 3.92053 4.11813
116 2 19.913 3.91149 4.35071
117 2 23.7815 3.81211 4.37104
118 2 27.7162 3.72378 4.21294
119 2 31.6097 3.73335 4.34935
120 2 35.499 4.02348 4.37375
121 2 0.0670678 7.98283 4.32658
122 2 3.81088 7.70523 4.18091
123 2 7.79587 7.9177 4.37753
124 2 11.9494 7.90858 4.28224
125 2 16.0829 7.81463 4.09258
126 2 19.7282 7.80832 4.33914
127 2 23.8125 7.87905 4.16524
128 2 27.7272 7.74533 4.31461
129 2 31.6571 7.77869 4.31643
130 2 35.8207 7.77339 4.29684
131 2 39.6426 11.7745 4.3528
132 2 3.99212 11.8236 4.24868
133 2 8.00537 11.8797 4.40967
134 2 11.8826 11.9401 4.33982
135 2 15.7735 11.8468 4.15062
136 2 20.0746 11.6854 4.25904
137 2 23.7943 11.6861 4.3656
138 2 27.7669 11.7006 4.32196
139 2 31.841 11.8151 4.09475
140 2 35.5771 11.6249 4.29536
141 2 39.7102 15.8065 4.1839
142 2 4.05652 15.6982 4.12127
143 2 7.96403 15.8781 4.19397
144 2 12.0039 15.8482 4.2892
145 2 15.9796 15.7473 4.25947
146 2 19.8486 15.8581 4.26766
147 2 23.8278 15.649 4.15417
148 2 27.7141 15.5359 4.21196
149 2 31.7568 15.7977 4.14225
150 2 35.7661 15.7239 4.06505
151 2 -0.0396892 19.68 4.08798
152 2 4.10241 19.6915 4.23262
153 2 8.01846 19.9555 4.08207
154 2 11.9871 19.6842 4.17348
155 2 15.9885 19.5568 4.18899
156 2 19.7838 19.9027 4.28089
157 2 23.8079 19.6194 4.37993
158 2 27.7184 19.7217 4.24871
159 2 31.976 19.7817 4.04745
160 2 35.6918 19.5636 4.147
161 2 39.6636 23.7293 4.21704
162 2 4.04791 23.6406 4.1814
163 2 8.08611 23.5643 4.31055
164 2 11.8642 23.7087 4.17816
165 2 15.8195 23.6672 4.26576
166 2 19.738 23.4953 4.12823
167 2 23.8885 23.5046 4.12998
168 2 27.7711 23.5986 4.09899
169 2 31.6956 23.8257 4.14704
170 2 35.9399 23.8554 4.02721
171 2 39.655 27.7599 4.3583
172 2 4.17369 27.5229 4.20724
173 2 8.07392 27.6956 4.16977
174 2 11.9922 27.6795 4.27663
175 2 15.8754 27.7715 4.40182
176 2 19.563 27.5114 4.34244
177 2 23.8101 27.6188 4.24598
178 2 27.8528 27.6839 4.30202
179 2 31.8854 27.8559 4.05848
180 2 35.5408 27.6884 4.38528
181 2 0.176638 31.5953 4.08309
182 2 3.89761 31.6821 4.44714
183 2 7.88707 31.4002 4.34474
184 2 11.7584 31.7513 4.15567
185 2 15.8641 31.5994 4.11358
186 2 19.9347 31.5696 4.04423
187 2 23.9505 31.5581 4.14143
188 2 27.7824 31.7412 4.04353
189 2 31.8589 31.6126 4.20167
190 2 35.8564 31.6584 4.23113
191 2 -0.153209 35.526 4.24196
192 2 3.83001 35.469 4.24588
193 2 7.80629 35.4428 4.2899
194 2 11.7397 35.4349 4.06923
195 2 15.7962 35.6037 4.05352
196 2 19.8225 35.5255 4.30646
197 2 23.6878 35.6766 4.33655
198 2 27.8247 35.6215 4.22159
199 2 31.7285 35.5148 4.25501
200 2 35.7128 35.6196 4.15895
201 2 39.781 39.4528 8.24519
202 2 4.11681 39.4996 8.23467
203 2 8.0462 39.5054 8.06684
204 2 11.9155 -0.0347207 8.22314
205 2 15.888 0.0991009 8.5208
206 2 19.8964 39.4843 8.3188
207 2 23.7795 39.4454 8.23546
208 2 27.7509 -0.0627902 8.23796
209 2 31.7495 39.5989 8.32368
210 2 35.6951 39.5758 8.28328
211 2 39.601 3.85433 7.97843
212 2 3.87811 3.69535 8.28127
213 2 7.90663 3.90799 8.18919
214 2 11.7825 3.84414 8.2197
215 2 15.6856 3.96749 8.21167
216 2 19.6062 3.95867 8.15862
217 2 23.8549 3.86562 8.27539
218 2 27.5924 3.91919 8.33527
219 2 31.8773 3.90178 8.15288
220 2 35.6575 3.90007 8.29069
221 2 39.7156 8.11184 8.22611
222 2 3.92741 8.05492 8.33041
223 2 8.03282 7.92375 8.2618
224 2 12.0093 7.87065 8.14522
225 2 15.9553 7.82311 8.16275
226 2 19.6901 7.75679 8.17446
227 2 23.7984 7.7915 8.35677
228 2 27.8532 8.0292 8.28674
229 2 31.6233 7.8896 8.23352
230 2 35.6071 7.86201 8.28412
231 2 39.545 11.8947 8.28192
232 2 3.96437 11.8565 8.27353
233 2 8.11781 11.6339 8.32821
234 2 12.0586 11.8085 8.16271
235 2 16.0965 11.9687 8.0095
236 2 19.6014 11.8733 8.24821
237 2 23.7282 11.5538 8.2223
238 2 27.867 11.9871 8.17205
239 2 31.6698 12.0371 8.08848
240 2 35.4593 11.8994 8.03248
241 2 39.537 15.7255 8.14967
242 2 4.01114 15.8711 8.261
243 2 8.13567 15.8947 8.19131
244 2 11.905 15.7693 8.23558
245 2 15.8749 15.949 8.2876
246 2 19.8995 15.7834 8.32879
247 2 23.9418 15.6799 8.24538
248 2 27.8916 15.8439 8.19697
249 2 31.7329 15.8496 8.35054
250 2 35.8852 15.7868 8.21587
251 2 39.5119 19.8182 8.18956
252 2 3.90891 19.5654 8.11946
253 2 8.0265 19.7859 8.13946
254 2 11.9058 19.5469 8.31815
255 2 15.9267 19.6849 8.25498
256 2 19.8273 19.6296 8.28643
257 2 23.7323 19.6354 8.39458
258 2 27.8526 19.6419 8.17123
259 2 31.7577 19.7148 8.04531
260 2 35.7851 19.8387 8.16623
261 2 39.8298 23.543 7.97815
262 2 4.08122 23.6856 8.1879
263 2 8.18366 23.7682 8.08512
264 2 12.1329 23.7749 8.13463
265 2 15.946 23.4927 8.27251
266 2 19.9299 23.7436 8.13834
267 2 23.8878 23.6588 8.19034
268 2 27.8497 23.6227 8.02994
269 2 31.6299 23.5716 8.0349
270 2 35.7631 23.4338 8.12639
271 2 -0.0798419 27.5281 8.0385
272 2 3.98743 27.5104 8.13093
273 2 8.10942 27.5988 8.22358
274 2 12.0482 27.781 8.41128
275 2 16.0028 27.8552 8.15461
276 2 19.8081 27.4834 8.12059
277 2 23.6668 27.7021 8.22283
278 2 27.7294 27.5637 8.14401
279 2 31.6895 27.7382 8.16044
280 2 35.6242 27.4991 8.06149
281 2 0.0776096 31.3917 8.28231
282 2 4.0476 31.5927 8.22232
283 2 7.94125 31.8019 8.2395
284 2 11.9317 31.6223 8.01023
285 2 15.9072 31.9389 8.01286
286 2 19.7747 31.5953 8.12127
287 2 23.833 31.6265 8.11194
288 2 27.7739 31.6403 8.14406
289 2 31.693 31.7192 8.20615
290 2 35.789 31.6885 8.39114
291 2 39.742 35.5983 8.32728
292 2 4.04076 35.5515 8.12162
293 2 7.94752 35.589 8.21662
294 2 11.9917 35.6474 8.24607
295 2 15.7475 35.7767 8.33068
296 2 19.7861 35.4527 8.28879
297 2 24.0246 35.4307 8.16796
298 2 27.8102 35.4713 8.32421
299 2 31.5929 35.5516 8.34306
300 2 35.5568 35.4802 8.21897
301 2 39.632 39.6047 12.119
302 2 3.95511 39.5298 12.2629
303 2 7.91279 39.3429 12.184
304 2 11.8576 39.3935 12.1419
305 2 15.9455 39.3982 12.403
306 2 19.9089 -0.0291364 12.041
307 2 23.7423 0.0396209 12.3056
308 2 27.8378 -0.0341234 12.2348
309 2 32.0226 0.0998282 12.1718
310 2 35.8136 39.418 12.1142
311 2 39.6729 4.17703 11.9862
312 2 4.11615 3.93435 12.0926
313 2 8.09676 3.95249 11.9489
314 2 11.9874 3.86308 12.1661
315 2 15.8477 3.85351 12.2664
316 2 19.784 4.08355 12.1495
317 2 23.7747 4.08547 12.0878
318 2 27.8238 4.06805 12.1933
319 2 31.7257 3.70266 12.113
320 2 35.8505 3.92878 12.2474
321 2 39.7269 7.8738 12.0569
322 2 4.08335 7.89717 12.2309
323 2 8.06728 7.7554 12.1097
324 2 12.045 7.92409 12.2552
325 2 15.9727 7.8323 12.2221
326 2 19.8835 8.04287 12.2005
327 2 23.8595 7.89104 12.2665
328 2 27.7294 7.86251 12.2986
329 2 31.7625 7.8562 12.1139
330 2 35.6543 7.81453 12.1673
331 2 39.4937 11.7663 12.1689
332 2 4.07824 11.8834 12.1079
333 2 8.08828 11.9314 12.1607
334 2 11.9597 11.8396 12.0942
335 2 15.8341 11.6873 11.9444
336 2 19.7986 11.6625 12.196
337 2 23.7423 11.7533 12.3581
338 2 27.7669 11.7312 12.1895
339 2 31.6546 11.765 12.2198
340 2 35.7827 11.8575 12.1888
341 2 39.7246 15.5743 12.247
342 2 4.09084 15.7335 12.241
343 2 7.90395 15.7772 12.2903
344 2 11.983 15.6507 12.2513
345 2 16.0507 15.7615 12.2212
346 2 20.0201 15.8113 12.241
347 2 23.7309 15.6724 12.2037
348 2 27.814 15.6183 12.1391
349 2 31.7267 15.7406 12.1968
350 2 35.6494 15.7234 12.4218
351 2 0.226325 19.4643 12.2216
352 2 4.39543 19.6711 12.1156
353 2 8.21166 19.8351 12.1575
354 2 11.9059 19.5066 12.2793
355 2 16.0593 19.6535 12.3241
356 2 19.938 19.7848 12.2609
357 2 23.8178 19.6291 12.3104
358 2 27.9318 19.5411 12.194
359 2 31.771 19.5955 12.183
360 2 35.7951 19.5642 12.1871
361 2 0.0754658 23.7689 12.3109
362 2 4.05477 23.8408 11.9511
363 2 8.16225 23.6038 12.1442
364 2 12.1814 23.685 12.0612
365 2 16.012 23.6736 12.1802
366 2 19.8755 23.7021 12.2938
367 2 23.8611 23.7733 12.2214
368 2 27.7471 23.7442 11.9062
369 2 31.793 23.6532 12.2163
370 2 35.6016 23.5372 12.1298
371 2 39.6802 27.6704 12.1706
372 2 4.17767 27.6271 12.1341
373 2 8.12993 27.6324 12.3493
374 2 12.1367 27.6982 12.0894
375 2 16.0376 27.5266 12.377
376 2 19.8103 27.2941 12.192
377 2 23.8983 27.6659 12.0952
378 2 27.8753 27.6815 12.1635
379 2 31.7459 27.6059 12.0774
380 2 35.5785 27.6393 12.3743
381 2 0.0121578 31.5002 12.1752
382 2 4.21123 31.7776 11.8878
383 2 7.94904 31.6578 12.1998
384 2 11.9721 31.4409 12.2821
385 2 16.1451 31.5825 12.1637
386 2 19.7898 31.5413 12.3357
387 2 23.7888 31.4761 12.1289
388 2 27.7247 31.7347 12.1403
389 2 31.8521 31.4847 12.0947
390 2 35.6911 31.6918 12.2558
391 2 39.8912 35.5196 12.304
392 2 3.99067 35.48 12.3026
393 2 7.96391 35.4377 12.1528
394 2 11.7969 35.2398 12.2633
395 2 15.782 35.6363 12.3894
396 2 19.9145 35.5322 12.1632
397 2 23.7584 35.6341 12.2861
398 2 27.8915 35.5855 12.1405
399 2 31.6946 35.6096 12.2052
400 2 35.7862 35.5049 12.1987
401 2 0.19401 39.5264 16.1056
402 2 4.21427 39.5122 16.0515
403 2 8.06907 39.6295 16.1726
404 2 12.0148 -0.109278 16.3568
405 2 16.036 39.6849 16.0996
406 2 19.9922 39.5388 16.0948
407 2 23.7556 0.156006 16.0668
408 2 27.6896 39.5387 16.2739
409 2 31.8072 39.664 16.3273
410 2 35.7674 39.5061 16.072
411 2 39.7476 3.89589 16.1939
412 2 4.03334 3.77255 16.1078
413 2 8.12754 3.94684 16.2517
414 2 11.9246 3.73628 16.2598
415 2 16.0427 3.88548 16.0215
416 2 20.0188 3.8765 16.036
417 2 23.8281 3.98337 16.2558
418 2 27.7787 4.00681 16.0881
419 2 31.7215 3.95763 15.97
420 2 35.8387 3.84547 16.0477
421 2 0.0474463 7.64683 16.202
422 2 4.04937 7.80009 16.0646
423 2 7.89393 7.65898 15.9894
424 2 11.9691 7.74079 16.2845
425 2 15.9276 7.79041 16.3044
426 2 19.8391 7.94679 16.3119
427 2 23.7886 7.96211 16.3815
428 2 27.7864 7.72306 16.22
429 2 31.867 7.83365 16.0312
430 2 35.5106 7.90731 16.2158
431 2 39.5885 11.9541 16.1867
432 2 4.07311 11.5765 16.2162
433 2 8.02684 11.5779 16.0611
434 2 11.8843 11.7963 16.2461
435 2 15.9754 11.8872 15.9415
436 2 19.8825 11.9081 16.2786
437 2 23.8091 11.751 16.2829
438 2 27.7701 11.7965 16.0855
439 2 31.7284 11.9235 16.2421
440 2 35.7687 11.6788 16.2696
441 2 0.104351 15.7286 16.2396
442 2 4.02683 15.6576 16.2881
443 2 7.95657 15.5592 16.1707
444 2 12.0575 15.5253 16.1185
445 2 15.7867 15.8016 16.2747
446 2 19.8777 15.8088 16.3852
447 2 23.713 15.9219 16.2704
448 2 27.6903 15.6951 16.1951
449 2 31.589 15.7545 16.2694
450 2 35.6458 15.9047 16.2065
451 2 39.8794 19.7918 15.943
452 2 4.23781 19.7488 16.2528
453 2 8.11708 19.8337 16.1338
454 2 11.79 19.732 16.2666
455 2 15.92 19.6987 16.3437
456 2 19.7332 19.7986 16.1512
457 2 23.6338 19.7205 16.2047
458 2 27.8126 19.8862 16.2205
459 2 31.6534 20.023 16.018
460 2 35.7859 19.6854 16.296
461 2 39.745 23.4075 16.1305
462 2 4.12307 23.753 16.2541
463 2 8.14426 23.6968 16.1505
464 2 12.2041 23.6584 16.1615
465 2 15.9348 23.6471 16.0403
466 2 19.8177 23.5967 16.381
467 2 23.9429 23.5964 16.1465
468 2 27.8482 23.508 16.2271
469 2 31.8788 23.6207 16.1574
470 2 35.6533 23.7781 16.3569
471 2 0.25146 27.5226 16.0341
472 2 4.09464 27.6039 16.1183
473 2 7.94584 27.4556 16.2811
474 2 11.8298 27.7676 15.9828
475 2 15.9078 27.7256 16.4036
476 2 19.94 27.6278 16.1241
477 2 23.922 27.6146 15.8794
478 2 27.7889 27.5634 16.2342
479 2 31.8245 27.6876 16.0327
480 2 35.8885 27.4545 16.1668
481 2 0.214711 31.536 16.296
482 2 4.06529 31.5329 16.1374
483 2 7.94779 31.3313 16.217
484 2 11.9619 31.6488 16.2168
485 2 16.0138 31.5297 16.2141
486 2 19.9279 31.7284 16.1312
487 2 23.9411 31.7699 15.9345
488 2 27.8763 31.6377 16.1133
489 2 31.857 31.6463 16.2338
490 2 35.9658 31.6385 16.2692
491 2 0.0705339 35.4808 16.2899
492 2 4.13053 35.4391 16.319
493 2 8.01899 35.5233 16.1674
494 2 11.9903 35.3903 16.2978
495 2 15.7211 35.5936 16.2566
496 2 20.0244 35.6278 16.1521
497 2 23.9374 35.798 16.146
498 2 27.8151 35.3636 16.1712
499 2 31.9697 35.6327 16.0714
500 2 35.768 35.6289 16.3434
501 2 0.269737 39.2807 20.2608
502 2 3.99688 39.5282 20.1419
503 2 7.89462 39.4069 20.3163
504 2 11.9946 39.6615 20.2245
505 2 15.794 39.734 20.2944
506 2 19.7247 39.5014 20.0495
507 2 23.7411 39.5911 20.1705
508 2 27.9189 39.7134 20.2456
509 2 31.5615 39.611 20.2002
510 2 35.5995 39.4621 20.164
511 2 0.199718 3.76184 20.0546
512 2 4.05135 3.70793 20.0348
513 2 7.94392 3.76406 20.3411
514 2 11.9662 3.88343 20.0591
515 2 15.9366 3.94155 20.1669
516 2 19.9822 3.92867 19.8513
517 2 23.8662 4.06878 20.2213
518 2 28.0424 4.03794 19.9658
519 2 31.9426 3.9871 20.1006
520 2 35.7379 3.73408 20.0217
521 2 0.0250642 7.86587 20.276
522 2 4.12197 7.61445 20.2298
523 2 8.08465 7.71861 20.342
524 2 11.8516 7.6973 20.1988
525 2 15.8099 7.83149 20.3562
526 2 19.7264 7.80422 20.183
527 2 23.6721 7.92748 20.2902
528 2 28.028 7.99881 20.2725
529 2 31.7021 8.01309 20.0351
530 2 35.7026 7.99919 20.2752
531 2 0.17372 11.887 20.1052
532 2 4.07237 11.7883 20.303
533 2 8.24872 11.6119 20.0788
534 2 11.9729 11.7481 20.127
535 2 16.008 11.7443 20.1828
536 2 19.7865 12.0043 20.118
537 2 23.9456 11.9193 20.1167
538 2 27.9429 11.8371 20.1113
539 2 31.8221 11.8874 20.3346
540 2 35.7662 11.9739 20.1922
541 2 -0.0524667 15.9284 20.2778
542 2 3.92776 15.795 19.9427
543 2 7.87842 15.7489 20.2024
544 2 11.7366 15.7587 20.0947
545 2 15.6482 16.0701 20.1107
546 2 19.7453 15.6075 20.3215
547 2 23.7976 15.9144 20.0799
548 2 27.5783 15.6909 20.2727
549 2 31.8147 15.7212 20.0764
550 2 35.6113 15.9327 20.1642
551 2 39.4023 19.5856 20.2334
552 2 3.99797 19.666 20.2514
553 2 7.96546 19.8164 20.323
554 2 11.7731 19.9 20.0298
555 2 15.7448 19.787 20.2545
556 2 19.6864 19.778 20.0553
557 2 23.7934 19.7926 20.285
558 2 27.792 19.5663 20.1597
559 2 31.8811 19.6524 20.1756
560 2 35.7349 19.6997 20.0742
561 2 39.5774 23.6946 20.2269
562 2 3.95863 23.6263 20.2478
563 2 8.09304 23.7921 20.1971
564 2 12.0493 23.8317 20.1849
565 2 15.938 23.7811 20.2604
566 2 19.9014 23.9833 20.117
567 2 24.0539 23.6214 20.3269
568 2 27.8284 23.879 20.0737
569 2 31.92 23.7866 20.1011
570 2 35.9438 23.6467 20.0516
571 2 39.5844 27.5803 20.3225
572 2 3.76902 27.6934 20.1217
573 2 7.96721 27.6228 20.1639
574 2 11.9507 27.8046 19.9862
575 2 15.9483 27.7169 20.2349
576 2 19.9977 27.7108 20.0543
577 2 23.8305 27.5631 20.0792
578 2 27.8109 27.8394 20.1105
579 2 31.7664 27.8394 20.0175
580 2 35.7799 27.6007 19.9526
581 2 39.8027 31.5269 20.0607
582 2 3.96912 31.5227 20.2297
583 2 7.89585 31.7941 20.0973
584 2 11.8104 31.5674 20.3024
585 2 16.2059 31.6344 20.2025
586 2 20.0861 31.6097 19.9483
587 2 23.8548 31.5367 20.2092
588 2 27.6682 31.7266 19.8885
589 2 31.7561 31.7556 20.0085
590 2 35.8338 31.6882 20.0117
591 2 0.275897 35.5674 20.1487
592 2 4.08564 35.61 20.2708
593 2 7.93558 35.6442 20.2276
594 2 11.8754 35.4391 20.0144
595 2 16.0171 35.7335 20.2253
596 2 19.9734 35.4728 20.204
597 2 23.92 35.4892 20.2751
598 2 27.7645 35.7937 20.2875
599 2 31.7646 35.7038 20.3362
600 2 35.9221 35.4984 20.1125
601 2 0.0982595 39.5875 24.083
602 2 4.10883 39.4329 24.1496
603 2 8.0896 39.6834 24.1136
604 2 11.8471 -0.149227 24.1834
605 2 16.0333 -0.139447 24.1572
606 2 19.9813 39.4511 24.1833
607 2 23.6643 39.7465 24.0568
608 2 27.8859 39.6927 24.3111
609 2 31.7496 39.5294 24.2013
610 2 35.886 39.6116 24.1638
611 2 39.4873 4.07508 23.8655
612 2 3.88524 3.95148 24.2475
613 2 7.77135 4.01227 24.3311
614 2 11.8704 3.8988 24.1397
615 2 15.9573 3.94997 24.3396
616 2 19.8112 3.95829 24.2144
617 2 23.8691 3.98118 24.0233
618 2 27.746 3.82861 24.1914
619 2 31.8377 3.89782 24.0279
620 2 35.7489 3.92401 24.0366
621 2 -0.174815 7.93705 24.1805
622 2 4.07833 7.97913 24.1063
623 2 7.93908 7.82904 24.0545
624 2 12.0072 7.82083 24.2696
625 2 15.9354 7.79298 23.9882
626 2 20.0632 7.936 24.1629
627 2 23.6928 7.83813 24.1877
628 2 27.8193 7.91515 24.1456
629 2 31.7702 7.90861 24.2573
630 2 35.6436 7.906 24.1935
631 2 39.775 11.8894 23.941
632 2 3.9698 11.7982 24.2093
633 2 7.91267 11.8257 24.3009
634 2 11.9226 12.0871 23.9719
635 2 15.905 11.9242 24.0633
636 2 19.9069 12.1258 24.0379
637 2 23.8618 11.9014 24.207
638 2 27.712 11.7082 24.1525
639 2 31.7013 11.9651 24.0828
640 2 35.8987 11.8781 24.0249
641 2 39.5787 15.6877 24.2583
642 2 4.10163 15.8225 24.1612
643 2 8.06703 15.8966 24.2799
644 2 11.8288 16.0203 24.1041
645 2 15.7467 15.9394 23.8884
646 2 19.8343 16.0605 23.9547
647 2 23.7437 15.8679 24.2642
648 2 27.6939 15.8389 24.2025
649 2 31.7282 16.0282 24.1756
650 2 35.5452 15.8221 24.1914
651 2 0.0384648 19.6708 24.1942
652 2 4.05593 19.8183 23.9076
653 2 8.04486 19.8199 24.1946
654 2 12.0442 19.8888 24.157
655 2 16.0059 19.7734 24.2829
656 2 19.7866 20.0018 24.0427
657 2 23.7228 19.991 24.1542
658 2 27.8239 19.7909 24.0954
659 2 31.5756 19.9471 24.2845
660 2 35.8122 19.769 24.2544
661 2 0.161866 23.5612 24.0862
662 2 3.88982 23.6496 24.0769
663 2 8.17551 23.7038 24.1229
664 2 11.8575 23.7923 23.989
665 2 15.8427 23.7709 24.2143
666 2 19.7935 23.7991 24.1132
667 2 23.8599 23.8465 24.0685
668 2 28.0091 23.6905 24.0963
669 2 31.6669 23.9578 24.1736
670 2 35.6108 23.8251 24.3056
671 2 39.621 27.6407 24.1613
672 2 4.22669 27.5758 24.0108
673 2 7.94648 27.7199 24.1196
674 2 11.76 27.8781 24.1922
675 2 15.771 27.8405 24.107
676 2 19.7349 27.8108 24.1762
677 2 23.8091 27.7251 24.119
678 2 27.9763 27.8961 23.9016
679 2 31.9002 27.6346 23.9956
680 2 35.8692 27.918 23.9797
681 2 0.0156158 31.6726 24.1821
682 2 3.94677 31.5953 24.2859
683 2 7.79918 31.5674 24.3564
684 2 11.8234 31.8435 24.2193
685 2 16.0221 31.8942 23.8874
686 2 19.9254 31.5738 24.2877
687 2 23.8194 31.5563 24.2303
688 2 27.8545 31.713 24.1706
689 2 31.8852 31.7386 24.023
690 2 35.7265 31.6104 24.1711
691 2 -0.054929 35.6477 24.1532
692 2 3.88253 35.5605 24.3247
693 2 7.87896 35.6036 24.1384
694 2 11.9354 35.5706 24.086
695 2 16.0138 35.7275 24.2423
696 2 19.9977 35.6382 24.1862
697 2 23.8625 35.4755 24.1747
698 2 27.7211 35.6427 24.0342
699 2 31.8627 35.6755 24.2501
700 2 35.5981 35.5756 24.0749
701 2 -0.0266701 39.5206 28.1194
702 2 3.97085 -0.111201 28.0671
703 2 7.8696 39.6348 28.1664
704 2 11.8899 39.5626 27.9809
705 2 15.8207 39.7368 28.1348
706 2 19.8625 39.6594 28.2455
707 2 23.6699 39.7029 28.1736
708 2 27.7563 39.7063 28.1875
709 2 31.7073 39.4568 28.1192
710 2 35.6969 39.8334 28.0677
711 2 0.0754414 4.01624 27.9903
712 2 3.77183 4.05937 28.2629
713 2 7.85801 4.14464 28.1686
714 2 12.1034 3.98781 28.0659
715 2 15.9815 4.13213 28.2275
716 2 19.6577 4.006 28.2384
717 2 23.7086 4.16807 28.1861
718 2 27.7288 3.96017 28.2375
719 2 31.7105 3.99769 28.0205
720 2 35.6328 4.22444 28.0445
721 2 0.00904983 8.07962 28.1027
722 2 3.76966 8.0612 28.1538
723 2 8.05188 8.17668 28.2083
724 2 11.8303 7.98231 27.9775
725 2 15.6933 8.04105 28.019
726 2 19.7511 8.07361 28.099
727 2 23.6609 7.86156 28.2283
728 2 27.5381 7.89147 28.1248
729 2 31.7848 7.942 28.2234
730 2 35.6458 8.19014 27.9911
731 2 0.0451352 11.7698 28.1475
732 2 4.12211 11.8849 28.4068
733 2 7.98178 12.1064 28.1284
734 2 12.0215 11.8594 27.9864
735 2 15.8544 12.0333 28.0717
736 2 19.4757 11.925 27.9862
737 2 23.6821 12.0055 28.1127
738 2 27.6882 11.9793 28.1554
739 2 31.648 12.0197 28.2329
740 2 35.5394 11.9127 28.2113
741 2 0.176575 15.8147 28.1818
742 2 4.2318 15.9208 28.0597
743 2 8.06192 15.9871 28.036
744 2 11.9792 15.9373 28.2047
745 2 15.9641 15.9515 28.0549
746 2 19.8318 15.9072 28.1725
747 2 23.6668 15.8245 28.2116
748 2 27.602 15.9548 28.0322
749 2 31.4929 15.9325 28.0673
750 2 35.5784 16.012 28.263
751 2 0.0193365 19.6893 28.0954
752 2 3.88511 19.822 28.0076
753 2 8.00692 19.832 28.1705
754 2 11.9807 19.8862 28.0594
755 2 15.8177 19.8529 28.0799
756 2 19.7925 20.0059 28.0124
757 2 23.8257 20.0657 27.8259
758 2 27.7419 20.0159 28.2316
759 2 31.8838 19.9758 28.1555
760 2 35.6702 20.0242 27.9955
761 2 -0.0912544 23.7517 28.2094
762 2 4.01477 23.8759 28.01
763 2 7.91352 24.0718 28.2241
764 2 12.0722 23.7914 28.1247
765 2 15.7632 23.9681 28.0426
766 2 19.8974 24.0522 28.2314
767 2 23.9066 23.8743 28.1464
768 2 27.6707 23.9075 28.0035
769 2 31.6343 23.6533 28.2523
770 2 35.8471 24.0674 28.0778
771 2 39.6027 27.705 28.192
772 2 3.85181 27.8386 28.2178
773 2 7.91011 27.6704 28.139
774 2 12.2473 27.6818 28.0475
775 2 15.94 27.812 27.9719
776 2 19.7338 27.8267 28.048
777 2 23.8248 27.7039 28.0312
778 2 27.6822 27.768 28.0386
779 2 31.6976 27.7388 27.9931
780 2 35.6476 27.8236 28.2565
781 2 0.128157 31.7781 28.1267
782 2 3.86391 31.5721 28.1979
783 2 7.87855 31.8076 28.249
784 2 11.999 31.7657 28.1499
785 2 15.835 31.8607 27.9654
786 2 19.9238 31.606 28.0905
787 2 23.8138 31.7399 28.1878
788 2 28.001 31.5962 28.0803
789 2 31.6429 31.7402 28.1454
790 2 35.5566 31.6867 28.0573
791 2 0.0354044 35.6042 28.0684
792 2 3.98614 35.6991 28.27
793 2 8.05807 35.5976 28.2756
794 2 12.0344 35.5049 28.2695
795 2 15.8045 35.6731 28.09
796 2 19.7113 35.6417 28.3497
797 2 24.0891 35.714 27.9041
798 2 27.7865 35.5946 28.1888
799 2 31.6172 35.5279 28.0748
800 2 35.7142 35.6295 28.1721
801 2 0.0982071 39.5734 32.0469
802 2 3.99168 0.186954 31.9842
803 2 7.73482 -0.0306607 32.0975
804 2 11.7361 39.7406 32.0961
805 2 15.8431 0.159364 32.054
806 2 19.5605 -0.0621149 32.2945
807 2 23.6816 39.7029 32.1713
808 2 27.7061 39.9151 32.0889
809 2 31.6214 39.5925 32.273
810 2 35.6958 39.6501 31.9933
811 2 -0.0722551 4.01533 32.156
812 2 3.79259 4.17778 32.0379
813 2 7.69343 4.1048 32.0362
814 2 11.6568 3.9624 31.9432
815 2 15.7433 4.09017 32.117
816 2 19.8165 4.04211 32.2263
817 2 23.6514 3.85685 32.0696
818 2 27.7046 4.08114 32.009
819 2 31.7734 4.07968 32.1184
820 2 35.6245 4.16782 32.1658
821 2 39.6433 8.04261 32.1411
822 2 3.91168 8.05716 32.2784
823 2 7.85695 7.99904 32.1746
824 2 12.0474 8.08385 32.0671
825 2 15.8446 7.94734 32.087
826 2 19.6602 7.99896 32.1855
827 2 23.6637 7.90085 31.9569
828 2 27.8378 8.14174 32.1483
829 2 31.8199 7.90425 32.0866
830 2 35.7597 8.02428 32.1011
831 2 0.1474 12.179 32.1396
832 2 4.00007 12.0126 32.1309
833 2 7.94923 12.066 32.1767
834 2 11.8357 11.804 32.0903
835 2 15.8482 11.9318 31.8907
836 2 19.8452 12.11 31.9776
837 2 23.7836 12.1546 32.1938
838 2 27.7366 11.9573 32.2302
839 2 31.782 12.1813 32.0058
840 2 35.4413 12.0237 31.9411
841 2 0.0545064 15.8804 32.1728
842 2 4.02131 16.1047 32.1177
843 2 8.08793 15.9527 32.0576
844 2 11.8551 16.0946 31.9964
845 2 15.6524 15.8757 32.0344
846 2 19.7442 15.9428 32.2679
847 2 23.7399 16.1112 32.2416
848 2 27.6564 16.0458 31.9407
849 2 31.5544 16.0601 31.929
850 2 35.6233 15.7515 32.1392
851 2 -0.22034 19.8386 32.0199
852 2 3.83909 19.9555 32.0968
853 2 7.67285 19.9129 32.0455
854 2 11.758 19.8629 32.0194
855 2 15.9886 20.0873 31.8554
856 2 19.6656 19.9768 32.101
857 2 23.6142 19.922 32.1301
858 2 27.7257 19.8335 32.2933
859 2 31.6826 19.9526 32.1922
860 2 35.6322 19.8852 32.1408
861 2 -0.0171771 23.7771 32.0534
862 2 4.05717 23.7498 31.915
863 2 7.99488 23.8244 32.2045
864 2 11.7768 23.761 32.3374
865 2 15.8425 23.9194 32.1266
866 2 19.7293 23.8376 32.1235
867 2 23.5707 23.6472 32.1707
868 2 27.738 23.8889 32.0773
869 2 31.5938 23.7849 32.0742
870 2 35.5629 23.6711 32.2983
871 2 -0.189998 27.8181 32.132
872 2 3.8619 27.8678 31.9386
873 2 8.03371 27.792 32.0412
874 2 12.0117 27.7359 32.1889
875 2 15.8502 27.752 32.1302
876 2 19.6693 27.8718 32.1323
877 2 23.8766 27.9373 32.0034
878 2 27.6608 27.7664 32.1974
879 2 31.7481 27.7734 32.2013
880 2 35.5966 27.8554 32.0351
881 2 -0.24572 31.8214 32.0405
882 2 3.90337 31.6393 32.2348
883 2 8.07197 31.7971 31.9631
884 2 11.8572 31.7579 31.982
885 2 15.9652 31.6892 32.0396
886 2 19.8473 31.7706 32.1765
887 2 23.6492 31.7249 32.0079
888 2 27.5841 31.6454 32.2112
889 2 31.6964 31.7045 32.2588
890 2 35.5007 31.7393 32.0529
891 2 -0.0318019 35.5985 32.1174
892 2 3.96091 35.6325 32.1695
893 2 8.02149 35.7599 32.1317
894 2 12.0624 35.6846 32.0133
895 2 15.8469 35.6069 32.1184
896 2 19.8708 35.7464 32.1906
897 2 23.7947 35.8303 32.1119
898 2 27.6432 35.7391 32.0959
899 2 31.8214 35.7227 32.08
900 2 35.7128 35.8286 31.7482
901 2 -0.0217308 0.270805 36.2103
902 2 4.00914 0.180733 36.0286
903 2 7.4785 -0.0868225 35.7147
904 2 11.5857 0.210422 36.1117
905 2 15.7092 0.166822 35.8283
906 2 19.6653 0.0194276 36.0617
907 2 23.7989 39.7079 36.172
908 2 27.8141 39.6438 36.1081
909 2 31.7534 0.274603 36.1152
910 2 35.7273 0.255741 36.1349
911 2 -0.142906 3.97368 36.1453
912 2 3.972 4.18684 36.0677
913 2 7.80277 4.26165 35.9419
914 2 11.7064 4.29635 35.9324
915 2 15.8204 4.18507 36.2317
916 2 19.7094 3.92474 36.2743
917 2 23.7731 4.09352 36.0218
918 2 27.6839 4.03648 36.1211
919 2 31.5927 4.01215 36.0719
920 2 35.6427 4.25986 36.1162
921 2 -0.190221 8.05601 36.092
922 2 3.78409 8.18083 35.9715
923 2 7.6828 7.94961 35.9752
924 2 11.8173 8.05078 35.9093
925 2 15.8075 8.10797 36.0312
926 2 19.7969 8.14294 35.9254
927 2 23.7117 8.23206 36.194
928 2 27.574 7.9174 36.1358
929 2 31.512 8.17932 35.9478
930 2 35.4342 8.20167 36.1546
931 2 0.0919986 11.9449 36.0861
932 2 4.08016 12.132 36.2366
933 2 7.95552 12.1035 36.1944
934 2 11.7409 11.8882 36.0581
935 2 15.7694 12.0643 36.0671
936 2 19.7297 12.0547 35.8298
937 2 23.8201 12.0725 36.1088
938 2 27.808 11.9465 35.9981
939 2 31.605 11.8806 36.1364
940 2 35.5571 11.8202 36.0089
941 2 -0.0423096 15.9706 36.1273
942 2 4.03439 15.971 36.1468
943 2 8.05783 15.9428 36.0967
944 2 11.8068 16.0793 36.0316
945 2 15.6768 16.0075 35.8943
946 2 19.7415 16.0325 36.1119
947 2 23.742 15.8886 36.2794
948 2 27.6893 15.9444 35.9757
949 2 31.7966 15.9614 36.1524
950 2 35.6518 15.9173 36.1724
951 2 -0.0530933 19.8933 36.1256
952 2 3.81989 19.8119 36.1016
953 2 7.7949 19.8994 36.1547
954 2 11.8058 20.1405 35.8834
955 2 15.5562 19.7932 35.905
956 2 19.6743 19.8936 36.0423
957 2 23.7407 19.8701 36.2784
958 2 27.5608 19.8413 36.0724
959 2 31.5688 19.8074 36.0651
960 2 35.6358 19.8828 36.1744
961 2 -0.0912268 23.9693 35.9252
962 2 3.86587 24.0341 35.8556
963 2 7.8214 23.8166 36.1406
964 2 11.6994 24 36.1704
965 2 15.6574 23.7513 36.0514
966 2 19.5684 23.8741 36.1457
967 2 23.5799 23.8926 36.0581
968 2 27.498 23.6361 36.1505
969 2 31.7011 23.9135 36.0622
970 2 35.5211 23.7527 36.2245
971 2 0.200274 27.5591 36.0338
972 2 4.10902 27.7497 35.8578
973 2 7.88266 27.8529 36.1485
974 2 11.8595 27.8182 36.131
975 2 15.874 27.8876 36.1077
976 2 19.8318 27.9103 36.177
977 2 23.7829 27.77 36.0101
978 2 27.6697 27.6859 36.1566
979 2 31.6756 27.6593 36.1015
980 2 35.5456 27.953 36.0126
981 2 -0.0486341 31.9932 36.1489
982 2 3.81624 31.7982 36.1444
983 2 7.99751 31.9116 36.1425
984 2 11.7182 31.6992 36.0769
985 2 15.7039 31.7721 36.0869
986 2 19.8884 31.8971 36.0552
987 2 23.7169 31.8707 35.9794
988 2 27.8669 31.8054 35.9731
989 2 31.7727 31.7166 36.1297
990 2 35.5942 31.6347 36.0481
991 2 -0.171892 35.8123 36.0687
992 2 3.68631 35.6118 36.2563
993 2 7.71273 35.7527 36.1184
994 2 11.7327 35.8165 35.9812