ITEM: TIMESTEP
35800
ITEM: NUMBER OF ATOMS
7500
ITEM: BOX BOUNDS xy xz yz pp pp pp
0.0000000000000000e+00 3.9579999999999998e+01 0.0000000000000000e+00
0.0000000000000000e+00 3.9579999999999998e+01 0.0000000000000000e+00
-2.1360244509342152e-02 5.9721360244509825e+01 0.0000000000000000e+00
ITEM: ATOMS id type x y z
1 2 39.5531 39.4522 0.241351
2 2 3.88618 -0.016043 0.317986
3 2 7.86736 -0.146739 0.308523
4 2 11.8022 -0.135039 0.280496
5 2 15.6683 39.5828 0.271068
6 2 19.6668 -0.073467 0.419852
7 2 23.6735 -0.341907 0.156548
8 2 27.6298 39.4499 0.240416
9 2 31.464 39.5962 0.127459
10 2 35.5371 39.3393 0.322814
11 2 39.6861 3.96487 0.194784
12 2 4.02409 3.92635 0.385212
13 2 7.83128 3.86158 0.311763
14 2 11.7967 3.79072 0.259291
15 2 15.829 4.02203 0.197495
16 2 19.7354 3.82426 0.114676
17 2 23.6396 3.92352 0.304928
18 2 27.5074 3.77131 0.380112
19 2 31.5852 3.83561 0.311898
20 2 35.6092 3.8759 0.245737
21 2 39.438 7.87673 0.178955
22 2 4.12162 7.834 0.0765929
23 2 7.75328 7.82262 0.105415
24 2 11.7553 7.56295 60.0125
25 2 15.5985 7.70757 0.208142
26 2 19.6031 7.98693 0.337994
27 2 23.5211 7.96008 0.115449
28 2 27.7852 7.72026 0.371742
29 2 31.7205 7.79425 0.307087
30 2 35.672 7.95969 0.256013
31 2 39.5401 11.761 0.394626
32 2 3.9227 11.8977 0.300684
33 2 7.99781 11.7263 0.198412
34 2 12.0629 11.6952 0.382431
35 2 15.6949 11.8275 0.154165
36 2 19.7577 11.9224 0.230954
37 2 23.7194 11.6616 0.188392
38 2 27.5111 11.6304 0.299425
39 2 31.5817 11.7673 0.264089
40 2 35.6134 11.7674 0.196836
41 2 39.4655 15.7674 0.193
42 2 3.91806 15.7224 0.165554
43 2 7.94128 15.7683 0.273137
44 2 11.9233 15.5882 0.234185
45 2 15.7922 15.7615 0.295135
46 2 19.5441 15.7572 0.36784
47 2 23.7895 15.7449 0.105763
48 2 27.7559 15.7705 0.34589
49 2 31.5584 15.844 0.387688
50 2 35.5443 15.8541 0.326018
51 2 39.3912 19.648 0.193699
52 2 4.05303 19.6614 0.189071
53 2 7.93415 19.5706 0.214032
54 2 11.7005 19.7865 0.260081
55 2 15.6656 19.6133 0.189085
56 2 19.7125 19.5659 0.365973
57 2 23.5468 19.7218 0.301848
58 2 27.6223 19.6473 0.254033
59 2 31.5299 19.9486 0.182165
60 2 35.4834 19.6962 0.335796
61 2 39.7639 23.6442 0.0960111
62 2 3.93323 23.7135 0.286874
63 2 7.90532 23.4234 0.252667
64 2 11.6245 23.667 0.244427
65 2 15.6515 23.731 0.404311
66 2 19.5846 23.5324 0.00072331
67 2 23.5219 23.5112 0.30617
68 2 27.6707 23.5879 0.153076
69 2 31.7849 23.6645 0.0923972
70 2 35.7443 23.5076 0.288597
71 2 39.5615 27.556 0.179829
72 2 3.83271 27.5229 0.18122
73 2 7.81265 27.5642 0.190703
74 2 11.9556 27.6944 0.217619
75 2 15.9679 27.618 0.270235
76 2 19.7777 27.4795 0.174616
77 2 23.751 27.5701 -0.00724359
78 2 27.5123 27.7128 0.230855
79 2 31.7805 27.6772 0.0142872
80 2 35.6082 27.6572 0.232273
81 2 39.6178 31.6272 0.22414
82 2 4.05805 31.5498 0.239944
83 2 7.96116 31.6188 0.132021
84 2 11.7886 31.4288 0.122901
85 2 15.7703 31.6728 0.315095
86 2 19.6785 31.5376 0.300797
87 2 23.5829 31.629 0.221821
88 2 27.6377 31.5639 0.124074
89 2 31.776 31.564 0.315131
90 2 35.6401 31.6793 0.346069
91 2 39.6303 35.6887 0.256098
92 2 4.04823 35.6934 0.449102
93 2 7.85877 35.5545 0.294996
94 2 11.8857 35.5402 0.147055
95 2 15.6635 35.3674 0.300287
96 2 19.4663 35.4307 0.0529861
97 2 23.623 35.3594 0.217697
98 2 27.5933 35.5524 0.33194
99 2 31.6292 35.4694 0.341293
100 2 35.4703 35.4273 0.223565
101 2 39.3348 -0.0287372 4.26082
102 2 3.95962 39.5811 4.49992
103 2 7.98714 -0.177579 4.35703
104 2 12.0401 -0.035221 4.12506
105 2 15.7595 -0.0854093 4.18094
106 2 19.5374 39.3639 4.25456
107 2 23.413 39.3504 4.09319
108 2 27.5136 39.45 4.06999
109 2 31.6153 -0.17232 4.26
110 2 35.6057 39.6891 4.40475
111 2 39.6235 3.85203 4.02541
112 2 3.98387 3.85183 4.18834
113 2 8.02469 3.70478 4.14049
114 2 11.9113 3.82127 4.28335
115 2 15.7775 3.75468 4.22536
116 2 19.7175 3.72847 4.10706
117 2 23.6434 3.88083 4.22378
118 2 27.4432 3.87933 4.2822
119 2 31.5237 3.97368 4.2026
120 2 35.4483 3.73153 3.92428
121 2 0.159715 7.82475 4.16294
122 2 4.061 7.85147 4.26055
123 2 8.06482 7.69801 4.19418
124 2 11.8571 8.07131 4.32743
125 2 15.6947 7.65243 4.16355
126 2 19.6948 7.78674 4.21155
127 2 23.5336 7.74629 4.01014
128 2 27.6438 7.59584 4.26004
129 2 31.726 7.83458 4.18074
130 2 35.7463 7.7976 4.25819
131 2 39.6576 11.8045 4.12917
132 2 4.00249 11.7537 4.20591
133 2 7.80298 11.8181 4.26131
134 2 11.7007 11.8563 4.13538
135 2 15.8283 11.7321 4.35952
136 2 19.7744 11.5787 4.1518
137 2 23.8082 11.7521 4.41806
138 2 27.5532 11.6606 4.23555
139 2 31.4979 11.9017 4.26395
140 2 35.6091 11.6542 4.48862
141 2 39.6782 15.7186 4.21415
142 2 4.0477 15.7677 4.25533
143 2 7.81274 15.6494 4.16573
144 2 11.8801 15.8437 4.18661
145 2 15.8489 15.8072 4.37536
146 2 19.8685 15.6971 4.13394
147 2 23.6704 15.5669 4.15467
148 2 27.7427 15.6214 4.10445
149 2 31.4393 15.7965 4.36571
150 2 35.5105 15.8142 4.34182
151 2 -0.113934 19.5219 4.30358
152 2 3.70326 19.5355 4.17737
153 2 7.74213 19.5872 4.33509
154 2 11.7709 19.5822 4.2444
155 2 15.727 19.8459 4.21872
156 2 19.7503 19.7977 4.14336
157 2 23.8832 19.5925 4.33218
158 2 27.7048 19.6688 3.95278
159 2 31.7153 19.8075 4.13134
160 2 35.5958 19.7013 4.32075
161 2 39.6399 23.4828 4.14665
162 2 3.87685 23.5317 4.23146
163 2 7.84969 23.5179 4.21743
164 2 11.8575 23.677 4.26463
165 2 15.4742 23.6862 4.35828
166 2 19.7534 23.5439 4.27703
167 2 23.8951 23.6753 4.27802
168 2 27.813 23.6357 4.25187
169 2 31.7073 23.8906 4.22544
170 2 35.7242 23.6403 4.29499
171 2 39.6103 27.6538 4.20878
172 2 4.02455 27.5646 4.12441
173 2 7.80871 27.5836 4.08885
174 2 11.7953 27.783 4.15697
175 2 15.869 27.5348 4.24623
176 2 19.9385 27.5562 4.29443
177 2 23.7914 27.5713 4.13381
178 2 27.7602 27.461 3.92343
179 2 31.6355 27.5487 4.17625
180 2 35.8837 27.6412 4.21129
181 2 0.00766684 31.7616 4.12885
182 2 3.95708 31.3554 4.26131
183 2 7.87984 31.6143 4.30835
184 2 11.9452 31.3237 4.00959
185 2 15.6015 31.5023 4.23822
186 2 19.7403 31.4003 4.16258
187 2 23.6322 31.3528 4.21623
188 2 27.6596 31.4867 4.23114
189 2 31.817 31.5442 4.26101
190 2 35.7016 31.6355 4.22241
191 2 0.0159373 35.5247 4.21223
192 2 3.92264 35.5879 4.41904
193 2 7.96706 35.5846 4.15157
194 2 12.1597 35.5367 4.23719
195 2 15.982 35.345 4.36945
196 2 19.5812 35.3815 4.15927
197 2 23.5998 35.4054 4.27111
198 2 27.728 35.5251 4.41824
199 2 31.6965 35.5428 4.36577
200 2 35.6745 35.504 4.26141
201 2 39.8037 39.6699 8.15272
202 2 3.96751 39.4436 8.1385
203 2 7.82222 39.3235 8.07277
204 2 11.8402 -0.256883 8.39344
205 2 15.8242 -0.0496192 8.27716
206 2 19.7417 39.3475 8.03719
207 2 23.7117 39.2619 8.04011
208 2 27.7478 -0.123771 8.25157
209 2 31.6726 39.3675 8.21325
210 2 35.5393 39.5992 8.13465
211 2 39.7456 3.90683 8.12655
212 2 4.00699 3.97813 8.05311
213 2 7.96703 3.76762 8.29973
214 2 11.8855 3.93176 8.3179
215 2 15.9606 3.92392 8.33188
216 2 19.8692 3.7193 8.21802
217 2 23.8384 3.82653 8.34551
218 2 27.7839 3.69813 8.17293
219 2 31.6231 3.77687 8.17996
220 2 35.6581 3.92432 8.09279
221 2 39.6634 7.71721 8.13553
222 2 4.02574 7.85976 8.22675
223 2 8.01984 7.97064 8.23827
224 2 11.8278 7.98742 8.14929
225 2 15.7395 7.71042 8.19155
226 2 20.0001 7.72209 8.21289
227 2 23.5731 7.7585 8.22356
228 2 27.7492 7.88455 8.26925
229 2 31.9065 7.74348 8.16697
230 2 35.6079 7.99318 8.15964
231 2 39.7937 11.6244 8.32106
232 2 4.08209 11.7924 8.16002
233 2 7.97432 11.9219 8.38316
234 2 12.1318 11.9347 8.10632
235 2 15.8816 11.6572 8.12142
236 2 19.8964 11.767 8.12388
237 2 23.8896 11.848 8.14943
238 2 27.6716 11.7033 8.20588
239 2 31.6309 11.6915 8.11898
240 2 35.7543 11.7344 8.26116
241 2 39.6931 15.6161 8.16131
242 2 3.90831 15.8093 8.23237
243 2 7.98235 15.7216 8.23529
244 2 11.9961 16.0805 8.06343
245 2 15.9843 15.8478 8.1797
246 2 19.7922 15.7911 7.95299
247 2 23.7941 15.7605 8.20371
248 2 27.9701 15.6709 8.24037
249 2 31.7646 15.7695 8.35993
250 2 35.7334 15.6916 8.28719
251 2 39.6159 19.6587 8.19422
252 2 4.16433 19.6595 8.35029
253 2 8.0421 19.7456 8.37705
254 2 11.9921 19.7926 8.15235
255 2 15.9601 19.7377 8.05764
256 2 19.8532 19.5907 8.28882
257 2 23.7301 19.5183 8.3148
258 2 27.7636 19.7593 8.25968
259 2 31.5375 19.834 8.1618
260 2 35.6388 19.6256 8.13712
261 2 39.5996 23.6052 8.1887
262 2 4.05435 23.8746 8.37523
263 2 7.93504 23.712 8.30395
264 2 11.8711 23.8593 8.13629
265 2 15.8629 23.6575 8.24914
266 2 19.9031 23.7455 8.21154
267 2 23.6726 23.8264 8.33669
268 2 27.7055 23.4963 8.13257
269 2 31.6892 23.6638 8.30931
270 2 35.5227 23.5534 8.16655
271 2 0.0504035 27.6172 8.22779
272 2 3.953 27.577 8.32501
273 2 7.81378 27.5547 8.14233
274 2 11.9678 27.6776 8.3336
275 2 16.0046 27.5351 8.17805
276 2 19.8046 27.6262 8.29967
277 2 23.7112 27.7071 8.22739
278 2 27.77 27.5611 8.0044
279 2 31.5575 27.5607 8.23608
280 2 35.9147 27.4299 7.93426
281 2 0.144364 31.5705 8.28952
282 2 3.95815 31.6221 7.98432
283 2 7.93739 31.48 8.21157
284 2 11.7479 31.545 8.16513
285 2 15.8051 31.525 8.43076
286 2 19.7264 31.5282 8.29767
287 2 23.7712 31.7288 8.15973
288 2 27.6155 31.385 8.30578
289 2 31.6649 31.3265 8.11246
290 2 35.629 31.7487 8.00554
291 2 39.5505 35.4291 8.23639
292 2 4.16536 35.4566 8.16665
293 2 8.01791 35.4059 8.21401
294 2 11.8263 35.3414 8.3126
295 2 15.6328 35.4546 8.42158
296 2 19.8477 35.5011 8.18009
297 2 23.733 35.4887 8.16882
298 2 27.6869 35.4098 8.17598
299 2 31.4527 35.3326 8.25898
300 2 35.4129 35.495 8.17926
301 2 39.937 39.5956 11.9655
302 2 4.13919 39.6313 12.0315
303 2 8.17248 39.6128 12.1807
304 2 11.9835 39.4177 12.1739
305 2 15.8325 39.5383 12.2213
306 2 19.8665 0.0158168 12.3332
307 2 23.6568 -0.219239 12.1074
308 2 27.9485 -0.154165 12.1818
309 2 31.8071 -0.203598 12.1633
310 2 35.7893 39.5352 12.165
311 2 39.514 4.09264 12.2233
312 2 4.14717 4.0052 12.0245
313 2 8.15016 4.01989 12.1265
314 2 11.9995 3.83076 12.1438
315 2 15.9623 4.14977 12.2593
316 2 19.7587 3.9912 12.4464
317 2 23.9241 3.713 12.2416
318 2 27.8193 3.75686 12.2099
319 2 31.9514 3.73028 12.2326
320 2 35.7205 3.97058 11.9965
321 2 39.533 7.81503 12.1613
322 2 4.11647 7.97903 12.2571
323 2 7.98656 7.9855 12.267
324 2 11.9863 7.97273 12.1203
325 2 15.9226 8.24129 12.1424
326 2 19.8711 7.84468 12.0792
327 2 23.9523 7.66092 12.2804
328 2 27.9079 7.61383 12.0131
329 2 31.8055 7.75136 12.1753
330 2 35.6101 8.03472 12.2233
331 2 39.5781 11.8648 12.3114
332 2 3.9225 11.9752 12.1665
333 2 7.98077 11.86 12.3132
334 2 12.0489 12.0339 11.9679
335 2 15.9844 11.9711 12.0802
336 2 19.8036 11.9107 12.0051
337 2 23.853 11.555 12.2465
338 2 27.7933 11.6661 12.1578
339 2 31.8757 11.6975 12.179
340 2 35.7142 11.9292 12.3149
341 2 39.6198 15.8264 12.1642
342 2 3.94583 15.9996 12.0797
343 2 7.90387 15.7949 12.173
344 2 11.7815 15.8941 12.327
345 2 15.9191 15.5906 12.0964
346 2 19.9866 15.7989 12.2846
347 2 23.8034 15.5568 12.1446
348 2 27.8323 15.8078 12.2075
349 2 31.8601 15.684 12.2834
350 2 35.6173 15.729 12.1022
351 2 0.068896 19.8139 12.2376
352 2 3.99858 19.8935 12.2948
353 2 7.9576 19.879 12.3341
354 2 12.0282 19.7938 12.1856
355 2 15.9093 19.5849 12.1957
356 2 19.7185 19.6344 12.2176
357 2 23.7992 19.609 12.1922
358 2 27.818 19.5685 12.2795
359 2 31.6565 19.6723 12.1632
360 2 35.5754 19.8978 11.9829
361 2 0.0777721 23.7038 12.2473
362 2 4.13106 23.7959 12.2624
363 2 7.89383 23.7615 12.2934
364 2 11.9581 23.712 12.2678
365 2 15.7526 23.5503 12.2107
366 2 19.7545 23.5522 12.2397
367 2 23.6953 23.5179 12.3158
368 2 27.9468 23.7338 12.2867
369 2 31.7885 23.7328 12.2569
370 2 35.5847 23.8783 12.1244
371 2 39.3954 27.5423 12.2446
372 2 4.00047 27.88 12.2535
373 2 8.05553 27.7474 12.1409
374 2 11.9785 27.645 12.0966
375 2 15.8003 27.6385 12.3073
376 2 19.9569 27.5836 12.2041
377 2 23.8874 27.5139 12.087
378 2 27.6102 27.6086 12.2147
379 2 31.6523 27.6503 12.2841
380 2 35.6288 27.7246 11.9191
381 2 0.142451 31.6049 12.3065
382 2 4.12263 31.6173 12.302
383 2 8.18033 31.6385 12.1625
384 2 12.0321 31.5025 12.3798
385 2 15.7847 31.6423 12.407
386 2 19.7942 31.6872 12.3205
387 2 23.7655 31.5016 12.2021
388 2 27.8421 31.578 12.3327
389 2 31.8624 31.5143 12.1218
390 2 35.6296 31.5832 12.0864
391 2 39.7385 35.6663 11.9383
392 2 4.15052 35.5807 12.0699
393 2 7.89371 35.6771 12.3644
394 2 11.8502 35.486 12.2748
395 2 15.8895 35.7006 12.2902
396 2 19.825 35.5246 12.1323
397 2 23.748 35.5116 12.2157
398 2 27.8732 35.6051 12.138
399 2 31.8395 35.416 12.2082
400 2 35.6272 35.5864 12.1374
401 2 0.291685 39.4647 15.8157
402 2 4.19295 39.6081 16.1945
403 2 7.94107 39.7102 16.0428
404 2 11.9433 -0.00714796 16.1088
405 2 15.9007 39.5726 16.0273
406 2 20.0153 39.5374 16.0912
407 2 23.8036 -0.0817371 16.1381
408 2 27.9969 39.5847 16.245
409 2 31.9171 39.5788 16.1948
410 2 35.8694 39.5264 16.1961
411 2 39.6888 3.88064 16.0448
412 2 3.96661 3.87413 16.1244
413 2 7.79931 4.13752 16.0394
414 2 12.0672 4.25476 15.889
415 2 15.9289 4.22561 16.2139
416 2 20.0332 3.87328 16.2222
417 2 23.9473 3.79114 16.0677
418 2 27.7549 3.84179 16.2646
419 2 31.8822 3.83235 16.2562
420 2 35.7746 3.97161 16.0373
421 2 0.239781 7.71587 16.1365
422 2 3.96791 7.80419 16.1535
423 2 7.97077 8.02126 16.1746
424 2 11.7437 7.98475 16.0674
425 2 15.9483 7.84819 16.2049
426 2 20.0497 7.88801 16.163
427 2 23.9425 7.95956 16.2466
428 2 27.822 7.6916 15.9877
429 2 31.6973 7.81449 16.2679
430 2 35.637 7.89565 16.4894
431 2 39.5042 11.8478 16.1632
432 2 3.85676 11.9958 16.0808
433 2 7.81719 12.0275 16.0748
434 2 11.7793 11.8281 16.1309
435 2 15.8867 11.8516 16.1603
436 2 20.0238 11.7583 16.1502
437 2 23.8808 11.7872 16.0219
438 2 27.9184 11.8259 16.2227
439 2 31.6475 11.8903 16.1992
440 2 35.7125 11.9051 16.3757
441 2 -0.0789917 15.7215 16.0969
442 2 4.13791 15.8536 16.2564
443 2 8.18331 16.0704 16.1319
444 2 12.1291 15.7842 16.1365
445 2 15.8342 15.7833 16.3846
446 2 19.8659 15.6032 16.1933
447 2 23.7238 15.9012 16.1826
448 2 27.8121 15.7058 16.2907
449 2 31.7425 15.8972 16.038
450 2 35.8706 15.9481 16.191
451 2 39.6645 19.8309 16.0668
452 2 3.98012 19.6698 16.2844
453 2 7.98419 19.796 16.2214
454 2 12.0093 19.8577 16.0687
455 2 15.6498 19.8057 16.4542
456 2 20.0421 19.6587 16.3835
457 2 23.8471 19.7029 16.0275
458 2 27.8624 19.7855 16.2238
459 2 31.7276 19.6425 16.217
460 2 35.8414 19.8518 16.0679
461 2 39.5944 23.6541 16.1827
462 2 3.9194 23.8486 16.2297
463 2 8.02435 23.717 16.2962
464 2 11.8352 23.8874 16.3045
465 2 15.9729 23.7175 16.2645
466 2 19.9965 23.4157 16.2878
467 2 23.9741 23.5964 16.2313
468 2 27.6711 23.7019 16.1372
469 2 31.5752 23.6054 16.0886
470 2 35.691 23.6098 16.3658
471 2 0.248699 27.6456 16.2961
472 2 4.22555 27.7598 16.172
473 2 7.988 27.5347 16.1512
474 2 11.982 27.643 16.2131
475 2 15.904 27.7353 16.1772
476 2 19.7026 27.4853 16.2417
477 2 23.7116 27.4714 16.0934
478 2 27.6935 27.5837 16.2281
479 2 31.7712 27.612 16.3555
480 2 35.8112 27.4742 16.1359
481 2 0.10762 31.6006 16.2485
482 2 4.21256 31.7114 16.3162
483 2 8.2341 31.7033 16.0126
484 2 12.0492 31.5339 16.3336
485 2 16.0896 31.6287 15.9931
486 2 19.8448 31.6412 16.3124
487 2 23.7877 31.8274 16.079
488 2 27.7363 31.8328 16.0854
489 2 31.6358 31.8932 16.028
490 2 35.7261 31.6446 16.322
491 2 0.370264 35.4107 16.0088
492 2 4.05591 35.6827 16.2584
493 2 8.08825 35.7889 16.2534
494 2 11.9447 35.5667 16.1406
495 2 15.9133 35.4971 16.0563
496 2 19.8906 35.8103 16.152
497 2 23.8659 35.4638 16.0875
498 2 27.8572 35.6497 15.9951
499 2 31.9625 35.6811 16.1466
500 2 35.9964 35.8309 16.097
501 2 -0.138309 39.6851 20.062
502 2 4.08495 39.744 20.1427
503 2 7.88482 39.6088 19.9918
504 2 11.9943 39.66 20.0406
505 2 15.983 39.785 20.039
506 2 19.7741 39.7963 19.9987
507 2 23.9193 39.3631 20.1566
508 2 27.9334 39.5413 20.0346
509 2 31.8772 39.4722 20.1386
510 2 35.7705 39.5148 20.0979
511 2 0.176276 3.93892 20.19
512 2 4.17096 3.99259 20.2152
513 2 8.21447 3.96026 20.0617
514 2 11.8989 3.82967 19.951
515 2 15.762 4.00224 20.3038
516 2 19.9618 3.96352 20.3046
517 2 23.9559 3.89789 20.0005
518 2 27.9258 3.77901 20.2023
519 2 31.8058 3.96691 20.1904
520 2 35.4691 4.08452 20.0598
521 2 0.09706 7.90162 20.2851
522 2 4.09818 7.79837 20.201
523 2 8.13472 7.91717 20.0983
524 2 11.9855 7.95555 19.9834
525 2 16.0896 8.024 19.831
526 2 20.0556 7.79091 20.2278
527 2 23.9459 7.75386 19.9135
528 2 27.887 7.90167 20.0832
529 2 31.8382 8.03874 20.0065
530 2 35.6504 7.80161 20.2248
531 2 0.120465 11.7332 20.2932
532 2 3.92404 11.7245 20.0525
533 2 7.98743 11.8283 20.3101
534 2 11.812 11.9849 20.0493
535 2 15.8607 11.9539 20.1492
536 2 20.0953 11.9183 20.0046
537 2 23.9791 11.6935 20.2308
538 2 28.0539 11.8359 20.2994
539 2 31.8425 11.9156 20.2732
540 2 35.6475 11.7536 20.2229
541 2 0.264616 15.862 19.9892
542 2 3.96751 15.675 20.1572
543 2 7.94983 15.81 20.1717
544 2 11.9155 15.9672 20.1682
545 2 16.019 15.8081 20.2957
546 2 19.907 15.6665 20.1015
547 2 23.7398 15.6179 20.1982
548 2 27.7652 15.7408 20.1076
549 2 31.7307 15.9069 20.0935
550 2 35.9649 15.831 20.1936
551 2 39.529 19.9055 20.2257
552 2 3.88542 19.7175 20.2193
553 2 8.08745 19.9441 20.1747
554 2 12.0033 19.7904 20.4735
555 2 15.9943 20.1204 20.2588
556 2 19.8135 19.816 20.2708
557 2 23.9424 19.7551 20.0423
558 2 27.8242 19.7105 20.1045
559 2 31.7542 19.7367 20.1141
560 2 35.7225 19.8787 19.9924
561 2 39.6151 23.7081 20.3974
562 2 4.18281 23.6239 20.1416
563 2 7.97697 23.7994 20.3527
564 2 11.9091 23.7378 20.2631
565 2 15.9534 23.8098 20.3664
566 2 19.8842 23.7534 20.2906
567 2 23.9962 23.8222 20.1105
568 2 27.7693 23.8748 20.0988
569 2 31.7008 23.9339 20.1426
570 2 35.6201 24.1305 20.0029
571 2 39.9299 27.4949 20.2852
572 2 4.11499 27.7891 20.0374
573 2 8.01832 27.8956 20.0697
574 2 12.006 27.8157 20.2636
575 2 15.977 27.7969 20.0444
576 2 20.0025 27.632 20.1884
577 2 23.843 27.7661 20.0545
578 2 27.8288 27.8509 20.0822
579 2 31.8496 27.7607 20.0832
580 2 35.6849 27.8194 20.1052
581 2 39.7437 31.5644 20.1936
582 2 4.38005 31.5463 20.1629
583 2 8.17058 31.9555 20.1321
584 2 11.8908 31.8324 20.1005
585 2 15.8671 31.739 20.2035
586 2 19.9624 31.6437 20.078
587 2 23.8327 31.5477 20.0649
588 2 27.7719 31.7394 20.1367
589 2 31.7065 31.6602 20.1767
590 2 35.7353 31.6088 20.2222
591 2 0.352404 35.6894 20.1393
592 2 4.14059 35.661 20.2556
593 2 8.0329 35.7808 20.1533
594 2 11.8971 36.0101 20.024
595 2 15.7229 35.7386 19.93
596 2 19.8205 35.5924 20.089
597 2 23.8882 35.6459 20.0878
598 2 27.5831 35.4438 20.2585
599 2 31.8542 35.6865 20.2806
600 2 35.7951 35.5015 19.9704
601 2 0.212788 39.5894 24.1171
602 2 4.06078 39.7117 24.2733
603 2 7.9772 39.6667 24.171
604 2 11.9882 0.173021 24.0224
605 2 15.7401 0.0617661 24.173
606 2 19.8293 39.5073 23.9245
607 2 23.874 39.6248 24.1418
608 2 27.8273 39.4463 23.99
609 2 31.7088 39.3867 24.0672
610 2 35.8149 39.5798 24.1733
611 2 39.7917 4.10406 24.0482
612 2 4.09152 4.01291 24.1537
613 2 7.94593 4.20318 24.0651
614 2 11.9581 4.01848 24.1886
615 2 15.9697 4.08035 24.1823
616 2 19.877 3.89415 24.1304
617 2 23.9737 3.84351 24.0621
618 2 27.8733 3.78555 24.0211
619 2 31.6271 3.73828 24.0906
620 2 35.8234 3.86998 24.0916
621 2 0.154269 8.06609 24.1386
622 2 4.04489 7.98258 24.2076
623 2 7.96326 7.9806 24.1275
624 2 12.0528 7.87369 23.9569
625 2 15.8861 8.1518 24.0788
626 2 19.9159 7.90608 24.0611
627 2 23.88 7.75198 24.0625
628 2 27.7954 7.79768 24.1851
629 2 31.7872 7.65814 24.1662
630 2 35.8924 7.88923 24.228
631 2 39.499 12.0599 24.1975
632 2 3.96887 12.1876 24.0914
633 2 7.94932 11.9427 24.377
634 2 11.9435 11.9256 24.0922
635 2 16.115 11.8856 24.2291
636 2 19.9551 11.8598 24.082
637 2 23.7778 11.7871 24.1717
638 2 27.65 11.8129 24.1115
639 2 31.6056 11.8336 24.4027
640 2 35.5926 11.6675 24.1012
641 2 39.4684 15.9646 24.1982
642 2 3.95038 15.9851 24.2016
643 2 8.12335 15.8579 24.1274
644 2 12.1423 15.9356 24.2504
645 2 16.0325 15.778 24.1569
646 2 19.759 15.844 24.0539
647 2 23.8664 15.8461 24.1982
648 2 27.633 15.8366 24.0365
649 2 31.766 15.9021 24.0025
650 2 35.5492 15.7608 24.1123
651 2 0.184351 19.6934 24.279
652 2 4.10471 19.7665 24.1547
653 2 8.00982 19.7975 24.233
654 2 11.8367 19.9063 24.3247
655 2 15.7837 19.8038 24.0816
656 2 19.6141 19.7086 24.1289
657 2 23.6987 19.7503 24.0233
658 2 27.732 19.8156 24.0828
659 2 31.6268 19.8474 24.1495
660 2 35.6795 19.7819 24.0138
661 2 0.0735676 23.791 24.1587
662 2 4.24732 23.6158 24.2726
663 2 8.14042 23.5987 24.2901
664 2 12.0512 23.8424 24.4813
665 2 15.9166 23.8106 24.1778
666 2 19.9237 23.7424 24.1716
667 2 24.0064 23.7936 24.1448
668 2 27.7111 23.7673 24.198
669 2 31.474 23.7258 24.0624
670 2 35.5962 23.6595 24.1967
671 2 39.7252 28.0809 23.9582
672 2 4.1518 27.5745 24.1837
673 2 7.90241 27.7553 24.093
674 2 12.0017 27.5574 24.1369
675 2 16.1664 27.808 23.9415
676 2 19.7618 27.6205 24.1166
677 2 23.7869 27.6608 24.1693
678 2 27.8882 27.8498 23.9648
679 2 31.7365 27.7692 24.1993
680 2 35.6842 27.6775 24.3246
681 2 0.204413 31.8903 24.2348
682 2 4.08883 31.7194 24.1871
683 2 8.13135 31.583 24.0623
684 2 12.0444 31.7125 24.189
685 2 15.8736 31.8946 24.0443
686 2 19.9303 31.8662 23.9904
687 2 23.7245 31.6575 24.1958
688 2 27.8076 31.7045 24.0568
689 2 31.9114 31.7113 24.0452
690 2 35.6375 31.7272 24.079
691 2 0.236198 35.6358 24.0243
692 2 4.0681 35.6431 24.0112
693 2 7.82157 35.527 24.2182
694 2 11.978 35.7732 24.0062
695 2 15.8987 35.8852 23.9986
696 2 19.8244 35.7857 24.1498
697 2 23.9976 35.5975 24.2723
698 2 27.6316 35.4212 24.0408
699 2 31.6004 35.552 24.1903
700 2 35.8094 35.6835 24.1791
701 2 0.0165818 39.7018 28.0664
702 2 3.96095 0.173263 28.2057
703 2 7.96525 39.7088 28.1795
704 2 11.9089 39.7954 28.1051
705 2 16.1127 39.6218 28.0248
706 2 19.9005 39.5979 28.0631
707 2 23.954 39.7112 28.055
708 2 27.7604 39.5321 27.9328
709 2 31.8556 39.5794 28.3464
710 2 35.7228 39.6405 28.0744
711 2 0.0646321 3.91352 28.1064
712 2 4.08332 4.07101 28.2973
713 2 8.12693 4.05286 28.1513
714 2 11.8619 4.02528 28.2833
715 2 15.8721 4.09348 28.0081
716 2 19.8877 3.81611 28.0557
717 2 24.0753 3.93201 28.0425
718 2 27.9794 3.96249 28.1333
719 2 31.7512 3.84578 28.1143
720 2 35.7514 3.9401 28.0726
721 2 0.0740351 7.897 28.0807
722 2 3.98846 8.13996 27.934
723 2 8.06217 8.17377 28.0818
724 2 11.9518 8.21653 28.1454
725 2 15.7535 7.927 28.1647
726 2 19.8974 7.91835 28.151
727 2 23.8631 7.86229 28.1301
728 2 27.8254 7.93502 28.2089
729 2 31.736 7.99152 28.1567
730 2 35.6038 7.91693 28.2749
731 2 0.0342917 11.9453 28.16
732 2 4.04304 12.0747 28.1982
733 2 7.71274 11.831 28.2494
734 2 12.1323 12.0356 28.1905
735 2 15.8665 11.8202 28.1625
736 2 19.8466 11.8342 28.2324
737 2 23.8359 11.9759 28.1331
738 2 27.825 11.7598 28.0332
739 2 31.7196 12.061 28.1281
740 2 35.442 11.7288 28.0889
741 2 0.0424957 16.0043 27.9915
742 2 4.17771 15.8641 28.1207
743 2 7.95052 15.7662 28.1976
744 2 11.9685 15.9497 28.2475
745 2 15.9273 15.7267 28.0884
746 2 19.5888 15.8702 28.0468
747 2 23.5955 15.9261 28.156
748 2 27.5607 15.8431 28.2091
749 2 31.7721 15.9312 28.0762
750 2 35.8156 15.8698 28.1905
751 2 0.18379 19.9887 28.1138
752 2 4.01504 19.8251 28.2095
753 2 8.22904 19.9384 28.1483
754 2 11.9527 19.9274 28.3411
755 2 15.8101 19.728 28.3538
756 2 19.8722 19.9299 27.9529
757 2 23.8452 19.6958 27.9682
758 2 27.7857 19.8258 28.1493
759 2 31.7363 19.9389 28.1546
760 2 35.6121 19.8998 28.1307
761 2 0.151489 23.8804 28.0426
762 2 3.98917 23.9466 28.032
763 2 7.88054 23.9101 28.1488
764 2 11.8511 23.9864 28.1334
765 2 15.8127 23.7407 27.9184
766 2 19.9943 23.683 28.2597
767 2 23.7538 23.9397 28.0202
768 2 27.8021 23.9385 28.1261
769 2 31.7188 23.8634 28.1856
770 2 35.8813 23.6851 28.0999
771 2 39.5555 27.8366 28.1805
772 2 4.05227 27.5352 28.1351
773 2 8.12611 27.9016 28.0285
774 2 12.1907 27.8626 28.0159
775 2 16.0989 27.6658 28.0338
776 2 19.8736 27.8198 28.2892
777 2 23.707 27.7517 28.0265
778 2 27.7656 27.9296 28.1833
779 2 31.7586 27.8514 28.2245
780 2 35.7291 27.5695 28.2266
781 2 0.0807093 31.6114 28.197
782 2 3.88389 31.5623 28.2079
783 2 8.13108 31.9078 28.075
784 2 12.1972 31.8236 28.1001
785 2 15.9676 31.8297 28.1211
786 2 19.8908 31.8666 28.0256
787 2 23.8259 31.7602 28.1535
788 2 27.7034 31.6431 28.0139
789 2 31.8011 31.8293 28.1569
790 2 35.7871 31.7107 28.2094
791 2 0.105558 35.7681 28.0335
792 2 4.0162 35.6269 28.1414
793 2 7.95466 35.6916 28.1834
794 2 11.873 35.7704 28.0102
795 2 15.7808 35.8689 28.2481
796 2 19.7667 35.7105 28.0164
797 2 23.7318 35.6876 28.1542
798 2 27.8315 35.7432 28.1415
799 2 31.7817 35.7107 28.2342
800 2 35.7967 35.6161 28.255
801 2 -0.135458 39.772 32.0393
802 2 3.89837 0.19217 32.1149
803 2 7.97334 0.00349116 32.1894
804 2 12.0367 39.7936 32.2148
805 2 16.0886 0.284973 32.0153
806 2 19.917 0.14711 32.235
807 2 23.6257 39.5914 31.985
808 2 27.6771 39.6677 32.2307
809 2 31.6964 39.4178 32.1599
810 2 35.6228 39.6932 32.1845
811 2 -0.0179654 4.17331 31.8565
812 2 4.07188 4.20867 32.0134
813 2 7.91992 4.17411 32.1693
814 2 11.7614 4.23939 32.1439
815 2 15.7599 4.09046 32.1604
816 2 19.9747 4.05659 32.1519
817 2 24.0105 4.02857 31.9831
818 2 27.7796 3.9803 32.2082
819 2 31.5583 4.18017 32.1297
820 2 35.6071 3.99514 32.1379
821 2 39.4724 7.9074 32.1838
822 2 4.06584 8.01178 32.0063
823 2 8.08046 7.98085 32.1815
824 2 11.9856 8.13726 32.0833
825 2 15.8125 8.00718 32.2291
826 2 19.7037 8.01589 32.1638
827 2 23.5384 7.84677 32.0925
828 2 27.6485 7.96763 31.9646
829 2 31.828 7.83758 31.9239
830 2 35.7317 8.00631 32.1861
831 2 -0.269337 11.8513 32.1005
832 2 3.7166 11.8968 32.1189
833 2 7.9129 11.8677 31.9758
834 2 11.8665 11.8626 32.2685
835 2 15.8637 11.9874 32.2069
836 2 19.6754 11.9764 32.0852
837 2 23.6102 11.9497 32.2022
838 2 27.8203 12.0566 32.0031
839 2 31.4943 12.0002 32.0644
840 2 35.5805 12.1032 32.2197
841 2 -0.0982131 15.9942 32.0849
842 2 3.70372 15.8244 31.9961
843 2 7.92512 15.8809 31.9661
844 2 11.6371 15.7694 32.2479
845 2 15.8856 15.9151 32.096
846 2 19.919 15.9182 32.1435
847 2 23.5568 15.8908 32.3797
848 2 27.7435 15.7668 32.2612
849 2 31.6045 15.995 32.0522
850 2 35.6946 16.0073 32.0848
851 2 -0.0769934 19.9313 32.0225
852 2 4.19442 19.8892 32.1278
853 2 7.83686 19.896 32.1652
854 2 11.7724 19.9887 32.1566
855 2 15.9509 19.9225 31.9502
856 2 19.8256 19.9157 32.14
857 2 23.633 19.8262 32.0422
858 2 27.5831 19.8776 31.9867
859 2 31.7032 19.8177 32.1344
860 2 35.5114 19.8967 32.1517
861 2 0.0668042 23.7014 32.2431
862 2 4.14387 23.9233 32.1325
863 2 8.10097 23.7736 32.0515
864 2 11.9404 23.8297 32.1337
865 2 15.9393 23.7677 32.1397
866 2 19.8032 23.91 32.081
867 2 23.7021 23.8667 32.1618
868 2 27.6964 23.9305 32.024
869 2 31.5877 23.9105 31.9624
870 2 35.8713 23.8134 32.2325
871 2 0.0943493 27.7543 32.1364
872 2 4.11084 27.7986 31.9851
873 2 7.96528 27.9623 32.1917
874 2 11.8932 27.7862 31.9974
875 2 15.7728 27.8515 32.1131
876 2 19.5941 27.8805 32.0464
877 2 23.6564 27.7524 32.2933
878 2 27.7474 27.543 31.9764
879 2 31.7174 27.9505 32.1293
880 2 35.5622 27.8316 32.0805
881 2 0.229017 32.026 32.0089
882 2 4.0358 31.8738 32.0947
883 2 7.9456 31.6762 32.0743
884 2 11.8837 31.8614 32.1255
885 2 15.8004 31.642 32.081
886 2 19.6319 31.8367 32.0958
887 2 23.7483 32.0382 31.9329
888 2 27.6755 31.7106 32.0509
889 2 31.6702 31.7148 32.1203
890 2 35.6091 31.6434 32.0442
891 2 0.0560986 35.8057 32.0782
892 2 4.08916 35.8042 32.0165
893 2 7.86688 35.6576 32.2102
894 2 11.9493 35.556 32.1431
895 2 15.8134 35.6782 32.1809
896 2 19.7749 35.7557 32.1137
897 2 23.8445 35.7817 32.2674
898 2 27.7242 35.7983 32.0759
899 2 31.7458 35.7057 31.992
900 2 35.7376 35.6161 32.149
901 2 0.274897 0.155509 36.0196
902 2 4.01782 0.143758 36.0479
903 2 7.93897 0.100674 36.0396
904 2 11.9265 0.0923259 36.1334
905 2 16.0093 -0.142456 36.0343
906 2 19.9328 0.106748 36.2486
907 2 23.9354 39.7157 36.1455
908 2 27.7905 39.6751 36.2553
909 2 31.7156 0.13061 36.1191
910 2 35.8378 -0.0289112 36.1312
911 2 0.0441028 3.96522 36.1462
912 2 3.93482 4.13229 36.1582
913 2 8.09679 4.08056 36.0728
914 2 11.8577 4.15399 36.1906
915 2 15.8521 4.03192 36.1612
916 2 19.931 4.11756 36.1171
917 2 23.7682 4.07046 36.2859
918 2 27.738 4.1652 36.0327
919 2 31.5561 4.14537 36.026
920 2 35.8803 4.15953 36.2007
921 2 -0.0763745 7.77538 36.0368
922 2 3.71208 8.0085 36.0573
923 2 7.8592 8.06447 36.1683
924 2 11.9883 7.97842 36.1144
925 2 15.9439 8.00427 36.2901
926 2 19.7409 7.9267 36.1393
927 2 23.7418 8.08279 36.0121
928 2 27.7323 8.18547 36.0958
929 2 31.5763 8.12106 36.0242
930 2 35.4326 8.12894 35.87
931 2 0.0794158 11.6716 36.1161
932 2 4.10771 11.915 36.2181
933 2 7.85846 11.9344 36.0762
934 2 11.9237 11.9046 36.2634
935 2 15.9144 12.0758 36.0743
936 2 19.6917 11.9233 36.2634
937 2 23.6387 11.9491 36.2254
938 2 27.7091 11.997 36.1265
939 2 31.688 12.1308 36.2221
940 2 35.5095 12.0074 36.2462
941 2 0.169571 15.9153 36.0576
942 2 3.92312 15.9455 35.7779
943 2 7.89975 15.7966 35.9217
944 2 11.7689 15.7632 35.9061
945 2 15.6783 15.969 35.8901
946 2 19.5627 15.8454 35.962
947 2 23.6373 15.9233 36.2207
948 2 27.7626 15.9725 35.8477
949 2 31.8053 15.9522 36.1925
950 2 35.6904 16.0575 36.2026
951 2 -0.0948042 19.9409 35.9221
952 2 3.90068 19.9898 35.9299
953 2 7.88877 19.781 36.0849
954 2 11.9092 19.8783 36.1826
955 2 15.7639 20.0016 36.0558
956 2 19.6094 20.0065 35.9807
957 2 23.8407 19.981 36.0524
958 2 27.7917 20.0858 35.9159
959 2 31.5338 19.9334 35.9053
960 2 35.4914 19.9732 36.0482
961 2 -0.0229725 23.8526 36.0151
962 2 3.82649 23.9229 36.0798
963 2 7.97227 23.807 36.099
964 2 11.8026 23.9136 36.2975
965 2 15.6696 23.7362 36.2027
966 2 19.7837 23.9704 36.0831
967 2 23.6518 23.8849 36.0293
968 2 27.7351 23.7863 36.0339
969 2 31.592 23.9624 36.187
970 2 35.6674 23.826 36.0946
971 2 0.00909876 27.8492 35.8959
972 2 3.69619 27.8992 36.0704
973 2 7.97067 27.9569 36.0798
974 2 11.9614 27.7957 36.1065
975 2 15.7804 27.6817 36.0988
976 2 19.7294 27.7701 36.2313
977 2 23.6042 27.9875 36
978 2 27.4891 27.8421 36.0581
979 2 31.456 27.7602 36.2289
980 2 35.7942 27.6179 36.1364
981 2 -0.108852 31.7983 35.9417
982 2 3.93111 31.866 36.0881
983 2 7.93223 31.7639 36.0855
984 2 11.9726 31.5957 36.227
985 2 15.7829 31.7313 36.2251
986 2 19.6501 31.8073 36.1982
987 2 23.558 31.7526 35.9412
988 2 27.5982 31.7259 36.0945
989 2 31.6445 31.8808 36.145
990 2 35.366 31.7129 36.2491
991 2 -0.0309133 35.6374 36.0086
992 2 3.89054 35.62 36.1609
993 2 8.07606 35.7144 36.0026
994 2 11.9262 35.7092 36.0461