ITEM: TIMESTEP
44200
ITEM: NUMBER OF ATOMS
7500
ITEM: BOX BOUNDS xy xz yz pp pp pp
0.0000000000000000e+00 3.9579999999999998e+01 0.0000000000000000e+00
0.0000000000000000e+00 3.9579999999999998e+01 0.0000000000000000e+00
-1.3247837475720559e-02 5.9713247837476302e+01 0.0000000000000000e+00
ITEM: ATOMS id type x y z
1 2 39.7817 39.4242 0.183388
2 2 4.23407 -0.226343 0.204585
3 2 8.00326 -0.129667 0.34418
4 2 11.9951 0.0508151 0.379647
5 2 16.0967 39.4763 0.221641
6 2 20.0942 -0.190022 0.0576919
7 2 23.8247 -0.173566 0.0784443
8 2 27.908 39.6092 0.0360536
9 2 31.7789 39.6018 0.260559
10 2 35.781 39.7083 0.323049
11 2 39.7251 4.11139 0.482072
12 2 3.99158 4.13255 0.240224
13 2 7.95344 3.93428 0.42743
14 2 11.8827 3.9512 0.121739
15 2 16.046 3.85185 0.127053
16 2 19.8433 3.82493 0.310874
17 2 23.9373 3.86155 0.389486
18 2 27.7447 4.00141 0.270305
19 2 31.6875 4.00353 0.387958
20 2 35.8362 3.96531 0.228506
21 2 39.6441 7.86786 0.340913
22 2 4.14765 8.25899 -0.0105567
23 2 7.86079 7.88613 0.401696
24 2 11.801 7.85463 60.2526
25 2 15.8635 7.97327 0.321435
26 2 20.0482 7.84275 0.302533
27 2 23.9727 7.76967 0.292191
28 2 27.8253 7.9617 0.371462
29 2 32.0152 8.14406 0.28867
30 2 35.7146 8.03032 0.26256
31 2 39.7839 12.0198 0.304708
32 2 4.04114 12.0587 0.184959
33 2 7.95145 11.7112 0.38585
34 2 11.9072 11.6793 0.158703
35 2 15.9052 11.8211 0.221973
36 2 19.8645 11.9252 0.251019
37 2 23.806 11.8131 0.321809
38 2 27.8038 11.8471 0.0935032
39 2 31.8296 11.9415 0.148284
40 2 35.8953 12.084 0.239122
41 2 39.564 15.9054 0.0905158
42 2 4.23753 15.9793 0.301559
43 2 7.99264 15.8881 0.344197
44 2 11.9502 15.8344 0.294796
45 2 15.9623 15.7754 0.25151
46 2 19.8732 15.8258 0.215942
47 2 23.8967 15.8128 0.223816
48 2 27.7378 15.9423 0.296145
49 2 31.7095 16.0846 -0.0247783
50 2 35.7128 16.0153 0.265538
51 2 39.8143 19.8998 0.241547
52 2 4.03595 19.8424 0.306648
53 2 8.07823 19.8459 0.148461
54 2 12.0668 19.8886 0.102877
55 2 16.0125 19.6022 0.0678603
56 2 20.1415 19.7556 0.158158
57 2 23.8988 20.0939 0.0675717
58 2 27.9285 19.7258 0.313516
59 2 31.7388 20.1027 0.0521704
60 2 35.8546 19.8489 0.0489818
61 2 39.8019 23.8121 0.413755
62 2 4.19432 23.6739 0.236844
63 2 7.93328 23.8451 0.317737
64 2 12.1281 23.8674 0.314632
65 2 15.9265 23.5488 0.233754
66 2 20.0272 23.6971 0.286739
67 2 23.8463 24.0144 0.287047
68 2 27.791 23.824 0.0896462
69 2 31.7774 23.7829 0.298392
70 2 35.8575 23.9343 0.237263
71 2 39.7873 27.6488 0.223419
72 2 3.94057 27.7363 0.422824
73 2 7.89062 27.8745 0.327922
74 2 11.9893 27.8058 0.356622
75 2 16.1836 27.5462 0.288824
76 2 19.8675 27.7489 0.23649
77 2 23.7904 27.8136 0.355818
78 2 27.8708 27.8475 0.102666
79 2 31.6632 27.834 0.383334
80 2 35.7834 27.8437 0.196989
81 2 39.7137 31.7402 0.198176
82 2 4.01919 31.8119 0.205381
83 2 8.03087 31.6371 0.125668
84 2 11.8285 31.6438 0.432022
85 2 15.9488 31.8286 0.158396
86 2 19.9644 31.6839 0.218389
87 2 23.8095 31.7738 0.198741
88 2 27.8123 31.9126 0.141979
89 2 31.6411 31.7273 0.172354
90 2 35.6589 31.6989 0.28204
91 2 39.61 35.5571 0.33321
92 2 4.25565 35.4904 0.255785
93 2 8.21226 35.5975 0.265361
94 2 12.0141 35.497 0.203371
95 2 15.9118 35.5529 0.322421
96 2 19.7125 35.3879 0.0339027
97 2 23.895 35.4409 0.181149
98 2 27.7288 35.6142 0.179733
99 2 31.7293 35.6972 0.330227
100 2 35.8818 35.7419 0.119777
101 2 39.8165 0.112734 4.18759
102 2 4.00348 39.7961 4.10733
103 2 8.17334 0.138314 4.14574
104 2 11.9903 -0.0108042 4.14112
105 2 15.8962 -0.0392732 4.33424
106 2 19.782 39.6811 4.08572
107 2 23.7876 39.5141 4.12267
108 2 27.7555 39.5496 4.41565
109 2 31.9411 0.178556 4.10267
110 2 35.722 39.4397 4.26592
111 2 39.638 4.10972 4.26444
112 2 3.83574 3.9435 4.333
113 2 7.94251 4.03539 4.29024
114 2 12.0398 4.05079 4.10151
115 2 15.9398 3.91685 4.27837
116 2 19.8958 3.87593 4.24275
117 2 23.973 3.86837 4.04207
118 2 27.9234 4.04939 4.27281
119 2 31.5584 4.05274 4.2643
120 2 35.4864 3.96254 4.01388
121 2 -0.00886798 7.82849 4.22546
122 2 3.95173 7.89324 4.25018
123 2 8.0785 7.84866 4.37045
124 2 12.1435 7.8494 4.28556
125 2 16.1176 7.8534 4.28793
126 2 19.929 7.92112 4.24856
127 2 23.8426 7.99538 4.05497
128 2 27.7772 8.02581 4.21289
129 2 31.792 8.15502 4.23097
130 2 35.8104 8.06435 4.18864
131 2 39.349 11.9791 4.18331
132 2 4.04629 11.7958 4.43364
133 2 8.10834 12.0367 4.1176
134 2 12.0525 11.8956 4.1951
135 2 15.8998 11.7913 4.28897
136 2 19.8183 11.7417 4.23653
137 2 23.8327 11.9676 4.09385
138 2 28.0382 12.0105 4.14242
139 2 31.7992 11.7895 4.1503
140 2 35.7415 12.007 4.10798
141 2 39.6738 15.7404 4.25346
142 2 4.22098 15.7074 4.2703
143 2 8.21097 15.8048 4.15332
144 2 12.171 15.7914 4.20958
145 2 16.0191 15.7028 4.2827
146 2 19.9303 15.9077 4.33801
147 2 24.0539 15.7705 4.17654
148 2 27.7497 15.8859 4.18546
149 2 31.7609 15.7189 3.93576
150 2 35.6695 15.9457 4.17631
151 2 0.257962 19.8155 4.24065
152 2 4.21987 19.8141 4.12735
153 2 8.21658 19.7772 4.10602
154 2 12.0562 19.7571 4.25833
155 2 16.1012 19.6938 4.20199
156 2 19.8872 19.8249 4.20436
157 2 23.9076 19.8772 4.2409
158 2 27.8256 19.7835 4.22708
159 2 31.8594 19.9029 4.17677
160 2 35.6526 19.9035 4.22028
161 2 39.5645 23.8089 4.17985
162 2 4.00731 23.5925 4.35138
163 2 8.07909 23.8872 4.29556
164 2 11.9845 23.6011 4.26688
165 2 15.9695 23.576 4.28743
166 2 19.8879 23.5321 4.31388
167 2 23.9022 23.8082 4.17472
168 2 27.7413 23.6461 4.15699
169 2 31.8212 23.7582 4.20832
170 2 35.6002 23.7548 4.09616
171 2 39.6319 27.5807 4.39542
172 2 4.04306 27.9313 4.34398
173 2 8.19696 27.7733 4.24827
174 2 11.9845 27.7932 4.37599
175 2 16.1046 27.8185 4.22778
176 2 20.2137 27.7047 4.14519
177 2 24.0123 27.4801 4.07578
178 2 27.9103 27.7108 4.11184
179 2 31.7083 27.8118 4.18822
180 2 35.8309 27.7111 4.16303
181 2 0.0254439 31.5919 4.07163
182 2 4.01757 31.5068 4.30289
183 2 7.95717 31.6797 4.27007
184 2 11.9659 31.6543 4.49946
185 2 15.8058 31.7054 4.36763
186 2 19.8774 31.5766 4.34923
187 2 23.8299 31.6053 4.32017
188 2 27.7782 31.7246 4.42164
189 2 31.6518 31.9413 4.28562
190 2 35.6453 31.843 4.24837
191 2 0.252767 35.5021 4.24477
192 2 4.1282 35.6203 4.30813
193 2 7.9255 35.7491 4.21038
194 2 11.8252 35.6906 4.25885
195 2 15.9405 35.7004 4.20306
196 2 19.8397 35.4891 4.26433
197 2 23.7616 35.7377 4.24149
198 2 27.7804 35.6532 4.25785
199 2 31.7179 35.8759 4.28977
200 2 35.8985 35.7214 4.22432
201 2 39.635 39.7323 8.25308
202 2 4.05067 39.6902 8.44588
203 2 7.92818 39.7466 8.04241
204 2 12.0959 -0.00828565 8.00644
205 2 15.8522 0.10346 8.23239
206 2 19.8284 39.7905 8.24753
207 2 23.8614 39.8131 8.2582
208 2 27.7871 -0.0362728 8.31373
209 2 31.6826 39.6783 8.02375
210 2 35.5609 39.6579 8.19196
211 2 39.662 3.99754 8.25911
212 2 3.96186 3.95643 8.38973
213 2 8.11664 4.02105 8.25953
214 2 11.9436 3.84367 8.21228
215 2 15.9997 4.00929 8.31753
216 2 19.9914 4.14877 8.21389
217 2 23.8904 3.95416 8.03479
218 2 27.9113 4.09782 8.17037
219 2 31.7311 4.17543 8.2764
220 2 35.7872 4.05206 8.07833
221 2 39.6615 8.06909 8.21735
222 2 4.12411 7.91629 8.32152
223 2 8.08053 8.08122 8.26906
224 2 11.9856 7.77024 8.17611
225 2 15.7115 8.13704 8.18238
226 2 19.9069 7.78506 8.34647
227 2 23.8114 8.09108 8.2138
228 2 27.8777 8.00958 8.26079
229 2 31.7793 8.16585 8.23704
230 2 35.8292 7.97016 8.23444
231 2 39.7832 12.1074 8.16173
232 2 4.12416 11.8999 8.24969
233 2 8.12968 12.0441 8.24704
234 2 11.908 11.9791 8.13836
235 2 15.8361 11.8619 8.18771
236 2 19.8613 11.9365 8.41844
237 2 23.5126 11.9723 8.21052
238 2 27.7167 12.0849 8.18606
239 2 31.6724 11.9243 8.24938
240 2 35.845 11.9674 8.34311
241 2 39.6627 15.7729 8.19959
242 2 4.08979 15.8714 8.25075
243 2 7.98822 16.0283 8.13048
244 2 11.8926 16.0299 8.21651
245 2 15.8861 15.7905 8.13827
246 2 19.7694 15.9517 8.29503
247 2 23.8946 15.9244 8.16772
248 2 27.7928 16.0855 8.05431
249 2 31.762 15.7723 8.1341
250 2 35.8075 16.0249 8.24986
251 2 39.4677 19.9355 8.20609
252 2 4.07156 19.8429 8.20288
253 2 8.0125 19.8372 8.26905
254 2 12.0138 19.8 8.09379
255 2 16.0035 19.9096 8.32862
256 2 19.9052 19.7917 8.17296
257 2 23.8821 19.8969 8.04461
258 2 27.8178 19.8555 8.14732
259 2 31.6574 19.7234 8.08492
260 2 35.6568 19.8368 8.1927
261 2 39.8518 23.6982 8.19389
262 2 4.02466 23.9141 8.35421
263 2 8.09527 23.8492 8.29337
264 2 11.9155 24.0038 8.13729
265 2 15.595 23.8305 8.15004
266 2 19.9861 24.0104 8.30634
267 2 23.7554 23.8772 8.20567
268 2 27.7183 23.8913 8.34825
269 2 31.73 23.824 8.09733
270 2 35.5701 23.8558 8.2483
271 2 -0.16092 27.7932 8.22229
272 2 3.86799 27.9388 8.05948
273 2 7.90419 27.7745 8.18215
274 2 11.9369 27.7352 8.21122
275 2 15.8726 27.7884 8.33287
276 2 19.8938 27.8791 8.12897
277 2 23.5561 27.7405 8.10353
278 2 27.8511 27.8864 8.31689
279 2 31.7303 27.9736 8.10495
280 2 35.5034 27.9246 8.21049
281 2 -0.0403005 31.9018 8.01632
282 2 4.1244 31.6702 8.19941
283 2 8.03515 31.7099 8.25194
284 2 11.9593 31.6849 8.02045
285 2 15.9888 31.6646 8.22287
286 2 19.9035 31.953 8.27411
287 2 23.9135 31.7035 8.14534
288 2 27.647 31.5501 8.3041
289 2 31.7645 31.8165 8.18175
290 2 35.6634 31.9019 8.1873
291 2 39.627 35.839 8.37618
292 2 3.86945 35.6637 8.2256
293 2 7.90232 35.7981 8.00548
294 2 11.7753 35.8335 8.11162
295 2 15.8816 35.7197 8.21069
296 2 19.8626 35.859 8.25569
297 2 23.7606 35.8031 7.97907
298 2 27.6952 35.6959 8.2185
299 2 31.6055 35.6154 8.19077
300 2 35.8872 35.8895 8.16715
301 2 39.3521 39.6043 12.2957
302 2 4.15382 39.7234 12.1052
303 2 8.0409 39.709 12.0798
304 2 11.7489 39.6994 12.1927
305 2 15.7666 39.8075 12.1688
306 2 19.7535 0.170837 12.1701
307 2 23.9363 0.0455788 12.236
308 2 27.7132 0.128842 12.1628
309 2 31.6643 -0.176976 12.0723
310 2 35.6327 39.6617 12.1325
311 2 39.5996 3.92399 12.2505
312 2 4.01546 4.1443 12.1025
313 2 8.12274 4.01033 12.2135
314 2 11.782 4.05205 12.145
315 2 15.9017 4.06293 12.402
316 2 19.83 4.10462 12.2085
317 2 23.9213 4.13752 12.2514
318 2 27.9053 4.04726 12.1534
319 2 31.8495 4.01694 12.3328
320 2 35.5945 4.01337 12.2661
321 2 39.5631 7.90288 12.4201
322 2 3.87932 7.9353 12.2038
323 2 7.91126 8.00789 12.1956
324 2 11.9178 8.0994 12.2997
325 2 15.8858 7.9297 12.4135
326 2 20.0245 7.94595 12.0468
327 2 23.6456 7.96964 12.299
328 2 27.6123 8.10065 12.2573
329 2 31.6982 8.04245 12.1176
330 2 35.4751 8.13489 12.0506
331 2 39.5782 11.8408 12.3846
332 2 4.08395 11.9109 12.2472
333 2 8.0514 12.0458 12.0168
334 2 11.7494 12.1599 12.1499
335 2 15.8346 11.9039 12.3385
336 2 19.8273 11.9421 12.3388
337 2 24.0109 11.9754 12.0596
338 2 27.8232 11.8946 12.1983
339 2 31.6866 12.0402 12.2328
340 2 35.7508 11.9934 12.2872
341 2 39.6894 15.8045 12.2386
342 2 3.95699 15.9224 12.2788
343 2 8.04016 16.1431 12.1158
344 2 11.9866 16.1007 12.2339
345 2 15.9146 15.934 12.0639
346 2 19.9694 15.8871 12.4122
347 2 23.8726 15.8662 12.2442
348 2 27.8072 16.0585 12.2254
349 2 31.7358 15.7657 12.1632
350 2 35.6004 16.0384 12.2053
351 2 0.0132947 19.9196 12.125
352 2 4.11148 19.7188 12.2201
353 2 8.0017 19.7208 12.0745
354 2 11.9195 19.8581 12.3541
355 2 15.7828 19.977 12.2922
356 2 19.7599 19.9489 12.1748
357 2 23.8618 19.6492 12.1185
358 2 27.6608 19.9115 12.1406
359 2 31.7581 19.8272 12.0245
360 2 35.6202 20.2072 12.3036
361 2 -0.024626 23.6196 11.883
362 2 3.83986 24.0382 12.2231
363 2 7.82706 23.8273 12.1197
364 2 11.8542 23.7058 12.218
365 2 15.9549 23.7743 12.1279
366 2 19.825 23.9287 12.3562
367 2 23.946 23.7558 12.2411
368 2 27.7439 23.936 12.2026
369 2 31.5025 24.0068 12.0225
370 2 35.6479 24.0903 12.2868
371 2 39.4757 27.6735 12.1852
372 2 4.01616 27.5735 12.4205
373 2 8.03131 27.9633 12.0919
374 2 11.9086 27.9229 12.224
375 2 15.824 27.7527 12.319
376 2 19.9152 27.9296 12.1343
377 2 23.7952 27.7759 12.2959
378 2 27.6951 27.7633 12.1011
379 2 31.5888 27.9446 12.2897
380 2 35.5919 27.9148 12.0548
381 2 0.184832 31.6886 12.1316
382 2 3.99065 31.6949 12.1535
383 2 7.82504 31.6947 12.0198
384 2 11.7425 31.8654 12.1077
385 2 15.6672 31.6826 12.0663
386 2 19.6624 31.7714 12.1483
387 2 23.6505 31.6629 12.2266
388 2 27.6028 31.8757 12.1242
389 2 31.663 31.5392 12.2847
390 2 35.718 31.9967 12.1557
391 2 39.6087 35.6929 12.3591
392 2 3.98927 35.8307 12.2448
393 2 7.85822 35.7737 12.0917
394 2 11.8733 35.9018 12.0497
395 2 15.7998 35.8027 12.2773
396 2 19.6537 35.6541 12.2508
397 2 23.6974 35.629 12.2323
398 2 27.588 35.6186 12.217
399 2 31.6484 35.5347 12.3366
400 2 35.5772 35.886 12.1761
401 2 0.00864344 39.7436 16.1673
402 2 3.93062 39.482 16.2075
403 2 7.94889 39.7064 16.3267
404 2 11.7486 0.200906 16.1837
405 2 15.622 39.566 16.3085
406 2 19.7299 39.7566 16.1197
407 2 23.7441 0.114085 16.1914
408 2 27.7484 39.6968 16.2133
409 2 31.4903 39.6097 16.1715
410 2 35.4105 39.4688 16.1426
411 2 39.3106 3.94624 16.254
412 2 3.9382 4.06946 16.2659
413 2 7.90969 4.15414 16.1835
414 2 11.8846 4.22171 16.2062
415 2 15.8002 4.19359 16.3493
416 2 19.5997 4.05572 16.1758
417 2 23.6287 3.93971 16.201
418 2 27.6699 4.13489 16.1686
419 2 31.6155 4.08217 15.933
420 2 35.4923 3.86065 16.0368
421 2 -0.276934 7.85703 16.1928
422 2 3.83327 8.10799 16.0165
423 2 7.93685 7.96929 16.0111
424 2 11.8792 8.09354 16.2827
425 2 15.8706 8.06857 16.2985
426 2 19.9526 8.09016 16.0545
427 2 23.9194 7.93893 16.1436
428 2 27.7504 8.03239 16.3261
429 2 31.6477 8.01604 16.1723
430 2 35.5507 8.07092 16.143
431 2 39.4288 11.9704 16.3022
432 2 4.02347 12.1411 16.2279
433 2 7.88044 11.859 16.2255
434 2 11.8477 12.0256 16.1987
435 2 15.9042 11.9083 16.2555
436 2 19.7378 12.0113 16.1985
437 2 23.7313 11.8026 16.4118
438 2 27.6175 11.8789 16.1456
439 2 31.6534 11.8978 16.245
440 2 35.5086 12.1199 16.1606
441 2 -0.179655 15.9484 16.403
442 2 4.01622 16.0038 16.2833
443 2 7.84797 15.9553 16.1811
444 2 11.8085 15.8494 16.2503
445 2 15.7808 15.8662 16.0963
446 2 19.8505 15.8369 16.0366
447 2 23.5715 15.8303 16.0679
448 2 27.617 15.8862 16.2617
449 2 31.5124 15.9264 16.1362
450 2 35.6561 16.0448 16.3098
451 2 39.7155 19.8963 16.1594
452 2 4.12757 20.0664 16.127
453 2 7.92032 19.8725 16.2447
454 2 12.0212 20.0082 16.1626
455 2 15.9733 19.9759 16.2801
456 2 19.8399 19.8088 16.1686
457 2 23.7972 19.9633 16.1179
458 2 27.5688 19.8465 16.1985
459 2 31.5624 19.8787 16.1782
460 2 35.6221 19.9744 16.0933
461 2 39.5467 23.9961 16.1297
462 2 3.89936 23.7588 16.4268
463 2 7.74954 23.8877 16.1108
464 2 11.6851 23.8397 16.0378
465 2 15.7289 23.9514 16.097
466 2 19.4815 23.8683 16.1508
467 2 23.6748 23.7467 16.0999
468 2 27.7528 23.8198 16.204
469 2 31.7494 24.0508 16.3214
470 2 35.4652 23.8247 16.2013
471 2 -0.301097 27.8594 15.9616
472 2 3.82226 27.6321 16.1725
473 2 7.80175 27.7635 16.1113
474 2 11.8003 27.9016 16.1674
475 2 15.797 27.7706 16.1885
476 2 19.6741 27.8764 16.1415
477 2 23.7364 27.6833 16.2739
478 2 27.5199 27.8421 16.2517
479 2 31.6014 27.9242 16.1836
480 2 35.6714 27.675 16.2851
481 2 0.114084 31.7351 16.1672
482 2 3.86734 31.7132 16.1288
483 2 7.78212 31.8133 16.01
484 2 11.7501 31.9598 16.0655
485 2 15.7059 32.0068 16.0535
486 2 19.7443 31.7913 16.2312
487 2 23.811 31.6435 16.2863
488 2 27.5783 31.7285 16.2112
489 2 31.515 31.8145 16.1873
490 2 35.552 31.8326 16.198
491 2 -0.0305355 35.7244 16.1696
492 2 4.04439 35.8593 16.2271
493 2 7.87967 35.734 16.2146
494 2 11.9208 35.7595 16.3402
495 2 15.7957 35.7494 16.3649
496 2 19.7927 35.6297 16.1294
497 2 23.6403 35.6583 16.0621
498 2 27.7721 35.7663 16.2455
499 2 31.3555 35.507 15.9348
500 2 35.5707 35.5207 16.2382
501 2 -0.185591 39.7217 20.1379
502 2 3.93025 39.6874 20.3309
503 2 7.81107 39.7227 20.0364
504 2 11.9276 39.4528 20.084
505 2 15.8377 39.5884 20.1933
506 2 19.7973 39.663 20.1542
507 2 23.6571 39.7418 20.1662
508 2 27.517 39.7724 20.1131
509 2 31.5467 39.6659 20.1657
510 2 35.5428 39.3883 20.1567
511 2 -0.131084 4.17258 20.1339
512 2 3.77832 4.05525 20.133
513 2 7.86816 4.20398 20.0101
514 2 11.8672 3.9783 20.1511
515 2 15.812 3.83417 20.2846
516 2 19.8333 4.09182 20.1907
517 2 23.4419 4.22517 20.2345
518 2 27.4708 4.01698 20.1508
519 2 31.5713 4.12894 19.9813
520 2 35.3275 3.94758 20.0655
521 2 0.00255343 7.82789 20.1475
522 2 3.85795 7.96284 19.9313
523 2 7.93911 7.83883 20.1301
524 2 11.8122 7.85166 20.3096
525 2 15.794 8.18208 20.2735
526 2 19.7532 8.01172 20.1827
527 2 23.617 8.01441 20.1305
528 2 27.7836 8.01037 20.1502
529 2 31.6269 8.01434 20.1468
530 2 35.5981 7.84896 20.1562
531 2 -0.0688138 11.8615 20.1183
532 2 3.85511 11.7248 20.0305
533 2 7.9626 11.6952 20.1402
534 2 11.9127 12.0346 20.1438
535 2 15.8848 11.9142 20.3112
536 2 19.8223 12.1348 20.1795
537 2 23.6993 11.9435 20.2181
538 2 27.7892 11.9683 20.1506
539 2 31.5995 11.9291 19.9927
540 2 35.4482 11.7986 20.0507
541 2 -0.0957034 15.9651 20.1397
542 2 3.88716 15.8881 20.3394
543 2 7.93153 15.9836 20.1789
544 2 11.6196 15.9431 20.1774
545 2 15.6992 15.8473 20.3156
546 2 19.7097 15.9735 20.1697
547 2 23.6901 16.1134 20.101
548 2 27.5486 15.8313 20.293
549 2 31.6142 15.7962 20.1395
550 2 35.4934 15.8747 19.8818
551 2 39.377 19.8524 20.2474
552 2 3.80455 19.7965 20.1886
553 2 7.91109 20.0745 20.3279
554 2 11.7314 19.8431 20.2121
555 2 15.8481 19.929 20.1263
556 2 19.7757 19.9985 20.0674
557 2 23.7419 19.9448 20.2626
558 2 27.7261 20.0522 20.1123
559 2 31.6895 19.8511 20.1743
560 2 35.4913 19.7631 20.1596
561 2 39.3201 23.6663 20.1085
562 2 3.65155 23.8368 20.1624
563 2 7.89083 23.8539 20.1789
564 2 11.8431 23.8347 20.0312
565 2 15.6362 23.8338 20.0539
566 2 19.7328 23.8774 20.3571
567 2 23.7305 23.9037 20.1301
568 2 27.6513 23.9333 20.1335
569 2 31.5268 23.9411 20.2111
570 2 35.4812 23.8612 20.218
571 2 39.3199 28.012 19.9254
572 2 3.75484 27.669 20.0353
573 2 7.76898 27.8385 20.1741
574 2 11.657 27.7047 20.1735
575 2 15.2923 27.7285 20.0448
576 2 19.5467 27.8161 20.0552
577 2 23.505 27.5888 20.2633
578 2 27.6317 27.9731 20.1201
579 2 31.6014 27.8032 20.3585
580 2 35.4888 27.6976 20.1213
581 2 39.4682 31.8222 20.25
582 2 3.74433 31.7253 19.885
583 2 7.72734 31.7693 20.243
584 2 11.8478 31.5916 20.0661
585 2 15.7046 31.6052 20.239
586 2 19.7219 31.5839 20.3642
587 2 23.6182 31.8303 20.2881
588 2 27.858 31.8055 20.1395
589 2 31.731 31.7336 20.1221
590 2 35.5423 31.7444 19.9621
591 2 0.150314 35.7837 20.1068
592 2 4.0626 35.8314 20.1842
593 2 7.89939 35.5938 20.1827
594 2 11.7532 35.7099 20.185
595 2 15.704 35.8359 20.2285
596 2 19.5483 35.5399 20.2611
597 2 23.6125 35.6757 20.2536
598 2 27.6876 35.7195 20.2367
599 2 31.5856 35.8476 20.2182
600 2 35.543 35.6231 20.0744
601 2 -0.198562 39.5374 23.8202
602 2 3.68277 39.6044 24.2517
603 2 7.81718 39.5678 24.1398
604 2 11.7123 0.0412112 24.0198
605 2 15.8216 0.13609 24.3014
606 2 19.7518 39.5469 24.151
607 2 23.6425 39.4191 24.1303
608 2 27.5055 39.6576 24.2514
609 2 31.5332 39.719 24.1583
610 2 35.3674 39.6959 24.109
611 2 39.3167 4.06908 24.1362
612 2 4.04621 3.96876 24.3693
613 2 7.72986 3.83098 24.23
614 2 11.6296 3.8822 24.1712
615 2 15.7284 3.97092 24.1651
616 2 19.6863 4.00795 24.0345
617 2 23.5229 3.90634 24.0936
618 2 27.3484 4.03677 24.2544
619 2 31.3973 3.92149 24.0573
620 2 35.4176 4.20358 24.1004
621 2 -0.294269 7.87058 24.059
622 2 3.73716 7.92332 24.0955
623 2 7.69191 7.92477 24.0393
624 2 11.7954 7.76391 24.1963
625 2 15.6151 8.06872 24.2166
626 2 19.8338 7.8931 24.2262
627 2 23.6418 7.78233 24.0956
628 2 27.6712 7.87266 24.1995
629 2 31.3172 7.86642 24.1451
630 2 35.3611 7.85717 24.1854
631 2 39.7028 11.8519 24.0951
632 2 3.75046 11.7836 24.1399
633 2 7.6662 11.8144 24.0109
634 2 11.6925 11.9421 24.0281
635 2 15.7274 11.9664 24.1859
636 2 19.693 11.8731 24.2324
637 2 23.6486 11.822 24.1869
638 2 27.4373 11.8386 24.1148
639 2 31.5174 11.8372 24.3341
640 2 35.6122 12.0278 24.2175
641 2 39.5188 15.746 24.1044
642 2 3.91269 15.6422 24.0556
643 2 7.46586 15.8946 24.1205
644 2 11.4981 16.102 24.1596
645 2 15.6976 15.7697 24.1653
646 2 19.6854 15.9665 24.2363
647 2 23.7468 15.8528 24.2032
648 2 27.705 15.8134 24.0033
649 2 31.4853 15.8714 24.1965
650 2 35.4325 15.9189 24.2078
651 2 -0.12495 19.7282 24.1522
652 2 3.78752 19.8255 23.9909
653 2 7.77416 19.829 24.3174
654 2 11.8061 19.8945 24.1356
655 2 15.6437 19.7944 24.1964
656 2 19.618 19.7814 24.1856
657 2 23.7373 19.5927 24.194
658 2 27.6588 19.8614 24.0651
659 2 31.5691 19.8339 24.1299
660 2 35.5342 19.8038 24.1019
661 2 -0.167433 23.7479 24.0103
662 2 3.76655 23.8874 24.1029
663 2 7.63539 23.7583 24.2637
664 2 11.5458 23.7843 24.1823
665 2 15.6388 23.7421 24.0569
666 2 19.6307 23.798 24.2557
667 2 23.5491 23.7913 24.2141
668 2 27.6464 23.957 24.2344
669 2 31.5337 23.7979 24.2443
670 2 35.5711 23.948 24.1078
671 2 39.3835 27.6861 24.0594
672 2 3.83126 27.6845 23.9395
673 2 7.62767 27.661 24.1702
674 2 11.5388 27.6381 24.1859
675 2 15.6234 27.6796 24.1541
676 2 19.5845 27.9009 24.0916
677 2 23.6 27.6814 24.1838
678 2 27.5587 27.826 24.0479
679 2 31.4989 27.839 24.2967
680 2 35.7268 27.5522 24.1111
681 2 -0.177308 31.7602 24.0916
682 2 3.69483 31.5573 23.9721
683 2 7.71506 31.7331 24.189
684 2 11.4677 31.6021 24.2193
685 2 15.831 31.6546 24.1522
686 2 19.6516 31.7227 24.188
687 2 23.6231 31.6481 24.255
688 2 27.3359 31.8737 24.0153
689 2 31.4508 31.5988 24.178
690 2 35.4529 31.7521 24.2094
691 2 -0.258761 35.5201 23.928
692 2 3.79721 35.6334 24.1086
693 2 7.9174 35.6695 23.962
694 2 11.7165 35.7008 23.9874
695 2 15.5265 35.6839 24.1314
696 2 19.7239 35.5814 24.0079
697 2 23.6289 35.6132 24.1455
698 2 27.2961 35.6077 24.1727
699 2 31.4111 35.7265 24.1917
700 2 35.4638 35.5727 24.0806
701 2 -0.00803352 39.6227 28.0324
702 2 3.65616 -0.162672 28.0506
703 2 7.67024 39.4764 28.2678
704 2 11.7041 39.8383 28.2746
705 2 15.6857 39.4302 28.2219
706 2 19.7013 39.5472 28.1874
707 2 23.4956 39.5495 28.1506
708 2 27.6648 39.7453 28.292
709 2 31.5876 39.5294 28.1764
710 2 35.6713 39.4808 28.018
711 2 -0.32007 3.96031 28.041
712 2 3.85475 3.95062 28.0948
713 2 7.87442 3.9226 28.1762
714 2 11.7197 4.08317 28.2085
715 2 15.6461 4.081 28.1576
716 2 19.6932 4.0313 28.1661
717 2 23.5551 3.75146 28.1444
718 2 27.3935 3.99108 28.1676
719 2 31.4319 3.77962 27.9031
720 2 35.4605 3.92434 28.0435
721 2 0.0241343 7.85395 28.0125
722 2 3.79336 7.88449 28.1578
723 2 7.83328 8.15758 27.8253
724 2 11.6037 8.20534 28.1712
725 2 15.4872 7.77457 28.2391
726 2 19.5923 7.89341 28.0777
727 2 23.8237 7.94618 28.2518
728 2 27.5253 7.80486 28.233
729 2 31.4746 7.97429 28.1137
730 2 35.4435 7.79542 28.1339
731 2 -0.282144 11.8106 27.9913
732 2 3.78341 11.8772 28.1233
733 2 7.7449 11.9305 28.2766
734 2 11.7734 11.9048 28.0547
735 2 15.7637 11.7485 28.1742
736 2 19.5943 11.8033 28.2166
737 2 23.6434 11.9055 28.3424
738 2 27.5344 11.7069 28.2171
739 2 31.5704 11.9041 28.2219
740 2 35.4838 11.7296 28.0305
741 2 -0.173238 15.9259 28.1279
742 2 3.9542 15.8697 28.1479
743 2 7.81587 15.7566 28.0675
744 2 11.6765 15.9005 28.215
745 2 15.4973 15.7941 28.2379
746 2 19.3805 15.729 28.1262
747 2 23.6395 15.9192 28.0976
748 2 27.4459 15.7717 27.8936
749 2 31.4085 15.8686 28.1905
750 2 35.5875 15.8003 28.0508
751 2 -0.050548 19.7523 28.1044
752 2 3.89078 19.7743 28.2116
753 2 7.70711 19.8275 28.1692
754 2 11.6163 19.847 28.1994
755 2 15.7273 19.8675 28.1612
756 2 19.7135 19.7545 28.3039
757 2 23.3907 19.7461 28.1664
758 2 27.5557 19.7103 28.2207
759 2 31.7446 19.9084 27.9666
760 2 35.5464 19.848 28.0546
761 2 -0.164128 23.7138 28.0752
762 2 3.71497 23.7998 27.9871
763 2 7.80967 23.7061 28.0649
764 2 11.7898 23.8885 28.2094
765 2 15.7729 23.7331 28.2664
766 2 19.7374 23.8475 28.1317
767 2 23.7272 23.532 28.1189
768 2 27.3292 23.7518 28.0681
769 2 31.3424 23.8881 28.124
770 2 35.4311 23.5839 28.2543
771 2 39.4064 27.6381 28.1579
772 2 3.7289 27.7297 28.0845
773 2 7.5759 27.7112 28.0451
774 2 11.8602 27.6538 27.9823
775 2 15.7236 27.7175 28.0821
776 2 19.7042 27.6164 28.1744
777 2 23.648 27.5615 28.2522
778 2 27.4852 27.9442 28.1293
779 2 31.4995 27.8374 28.1492
780 2 35.5041 27.6549 28.104
781 2 -0.204877 31.6395 28.0547
782 2 3.61785 31.6379 28.1938
783 2 7.99285 31.7255 28.1333
784 2 11.6349 31.6984 28.059
785 2 15.5758 31.5801 28.2373
786 2 19.6053 31.5692 28.0864
787 2 23.6705 31.747 28.0671
788 2 27.487 31.7644 28.2763
789 2 31.4524 31.6824 28.1358
790 2 35.4482 31.7467 28.1717
791 2 -0.224255 35.5311 28.0076
792 2 3.69308 35.7071 27.8031
793 2 7.78888 35.7201 28.1499
794 2 11.8085 35.846 28.1107
795 2 15.7986 35.618 28.2855
796 2 19.7214 35.419 28.1928
797 2 23.6354 35.6824 28.2029
798 2 27.4736 35.7708 28.1611
799 2 31.5095 35.5446 28.0238
800 2 35.4922 35.6228 27.9874
801 2 -0.0216436 39.4142 32.0523
802 2 3.55086 -0.197616 32.0468
803 2 7.77071 -0.00418706 31.9795
804 2 11.7055 39.4144 32.1379
805 2 15.6925 -0.0375688 32.2113
806 2 19.7913 0.161814 32.192
807 2 23.5984 39.4097 32.1243
808 2 27.614 39.4957 32.0522
809 2 31.7949 39.412 32.1516
810 2 35.5302 39.5259 32.0799
811 2 -0.125318 3.88956 32.0602
812 2 3.8948 4.11005 32.0482
813 2 7.65221 4.05828 32.2221
814 2 11.9289 3.92924 32.1811
815 2 15.6608 3.94685 32.1939
816 2 19.6073 3.87398 32.1232
817 2 23.5498 3.84114 32.1236
818 2 27.7086 3.98865 32.1139
819 2 31.477 3.85188 32.0845
820 2 35.5887 4.03086 32.1675
821 2 39.5884 7.7599 32.1549
822 2 3.90935 7.94066 31.9081
823 2 7.82472 8.08183 31.9478
824 2 11.6201 7.80806 32.2679
825 2 15.73 7.73391 32.2098
826 2 19.744 7.76427 32.0985
827 2 23.7062 7.90672 32.2834
828 2 27.6453 7.79159 32.1784
829 2 31.5411 7.83397 32.3025
830 2 35.6312 7.89055 32.2322
831 2 -0.127255 11.8281 32.0764
832 2 3.87597 11.829 32.0904
833 2 7.74448 11.9537 32.1331
834 2 11.8356 11.7766 32.0654
835 2 15.7654 11.8668 32.0492
836 2 19.6102 11.8308 32.1443
837 2 23.4259 11.7277 32.219
838 2 27.5962 11.7978 32.0182
839 2 31.721 11.6629 32.1214
840 2 35.6015 11.8202 32.0724
841 2 -0.179745 15.7318 31.9861
842 2 3.81844 15.8818 32.1825
843 2 7.91176 15.8497 32.2273
844 2 11.6933 15.9272 32.1366
845 2 15.5755 15.9096 32.1134
846 2 19.7423 15.8125 32.113
847 2 23.563 15.6861 32.1002
848 2 27.5619 15.6981 32.1766
849 2 31.5416 15.7257 32.1554
850 2 35.4595 15.6699 31.8312
851 2 -0.0721336 19.6482 32.223
852 2 3.8378 19.6266 32.0601
853 2 7.71567 19.8278 32.1897
854 2 11.5677 19.7743 32.1799
855 2 15.5841 19.9872 32.2139
856 2 19.7236 19.8212 32.1855
857 2 23.6855 19.7981 32.1931
858 2 27.6672 19.6942 32.0015
859 2 31.6865 19.6498 32.0793
860 2 35.4927 19.7026 31.9848
861 2 -0.104923 23.6442 32.0691
862 2 3.77846 23.8566 32.1503
863 2 7.643 23.8081 31.8976
864 2 11.7173 23.6656 32.1856
865 2 15.9623 23.5526 31.879
866 2 19.6395 23.5138 32.095
867 2 23.6326 23.764 32.1587
868 2 27.6082 23.8021 32.1158
869 2 31.5679 23.7921 32.019
870 2 35.4875 23.9015 32.1049
871 2 -0.0581298 27.8412 32.1314
872 2 3.91072 27.6791 32.2058
873 2 7.71326 27.6591 31.9654
874 2 11.7833 27.4804 32.0069
875 2 15.9236 27.5388 32.1708
876 2 19.7416 27.6435 32.0827
877 2 23.6784 27.694 32.1654
878 2 27.6744 27.8371 32.1674
879 2 31.3435 27.7777 32.0917
880 2 35.6603 27.6878 32.2205
881 2 -0.194429 31.7085 32.0043
882 2 3.76811 31.5359 32.3052
883 2 7.76628 31.8063 31.8933
884 2 11.5796 31.5302 31.9282
885 2 15.7332 31.7977 32.0901
886 2 19.542 31.5617 32.2116
887 2 23.3653 31.6433 32.1262
888 2 27.6453 31.8927 32.2023
889 2 31.5586 31.6253 32.1918
890 2 35.473 31.5049 32.1882
891 2 -0.26204 35.678 32.1766
892 2 3.70824 35.4897 32.1535
893 2 7.67952 35.3507 32.1645
894 2 11.8512 35.5166 32.2042
895 2 15.871 35.4462 32.0753
896 2 19.6708 35.609 32.2093
897 2 23.5711 35.5256 32.0342
898 2 27.5616 35.5172 32.0871
899 2 31.5707 35.6876 31.953
900 2 35.4247 35.3786 32.1787
901 2 -0.0994142 0.0862666 36.0656
902 2 4.033 -0.162397 35.9552
903 2 7.70281 -0.111227 35.924
904 2 11.6192 -0.075786 36.1028
905 2 15.9902 -0.12704 36.2284
906 2 19.9607 0.0324205 36.0509
907 2 23.5968 39.5378 36.15
908 2 27.5562 39.4349 36.0159
909 2 31.5713 -0.123817 36.2579
910 2 35.643 -0.0600519 36.0789
911 2 0.00308927 3.91797 36.1242
912 2 3.88637 3.88348 36.0855
913 2 7.87375 3.85348 36.1684
914 2 11.8645 3.82306 36.1483
915 2 15.6958 3.96664 36.1197
916 2 19.8782 3.95381 35.954
917 2 23.8951 3.69526 36.2174
918 2 27.7965 3.81014 36.0396
919 2 31.6445 3.83154 36.1817
920 2 35.4095 4.07987 36.0703
921 2 -0.167801 7.76268 36.0363
922 2 3.70951 7.93128 36.0516
923 2 7.79002 7.83746 36.1514
924 2 11.8783 7.86305 36.0878
925 2 15.7566 7.86288 36.2379
926 2 19.7122 7.87769 36.1934
927 2 23.7476 7.70866 36.1872
928 2 27.7342 7.80173 36.1751
929 2 31.5835 7.89377 36.138
930 2 35.5301 7.91129 36.0783
931 2 0.0640111 11.7465 35.99
932 2 3.9195 11.8274 36.0237
933 2 8.00997 11.8813 36.0876
934 2 11.9923 11.7374 36.0001
935 2 15.6908 11.6674 35.969
936 2 19.5635 11.8303 35.9708
937 2 23.5725 11.748 36.1878
938 2 27.5727 11.8701 36.2742
939 2 31.6762 11.8621 36.2007
940 2 35.8052 11.9825 36.1664
941 2 -0.096896 15.7696 36.1332
942 2 3.75378 15.7028 36.1069
943 2 7.77273 15.8697 36.0514
944 2 11.933 15.8188 36.1683
945 2 15.6877 15.8571 36.2792
946 2 19.7763 15.883 36.0724
947 2 23.9375 15.6962 36.1229
948 2 27.6764 15.5455 35.9332
949 2 31.5701 15.7724 35.9264
950 2 35.6152 15.8235 35.9925
951 2 -0.0892865 19.6061 36.1945
952 2 3.92186 19.8439 36.1302
953 2 7.81069 19.8014 36.2671
954 2 11.7025 19.7347 36.0054
955 2 15.865 19.6891 35.9176
956 2 19.7578 19.8083 36.0906
957 2 23.624 19.6936 36.1397
958 2 27.7178 19.7851 35.9787
959 2 31.5394 19.5881 36.2069
960 2 35.4027 19.8263 36.0296
961 2 -0.0426006 23.5641 36.0462
962 2 3.87535 23.8082 35.9458
963 2 7.80297 23.5668 35.9889
964 2 11.8318 23.5357 36.0887
965 2 15.7282 23.5803 36.0918
966 2 19.8428 23.7475 36.0986
967 2 23.7132 23.532 36.0814
968 2 27.6184 23.5538 36.2052
969 2 31.6048 23.419 35.8239
970 2 35.5676 23.7887 36.2885
971 2 -0.0721736 27.6718 35.9749
972 2 4.15449 27.7123 36.1539
973 2 7.83906 27.5642 36.1246
974 2 12.0132 27.5472 36.1098
975 2 15.7047 27.4694 36.0229
976 2 19.57 27.7366 35.9699
977 2 23.4894 27.456 36.0481
978 2 27.7625 27.5536 36.1427
979 2 31.5375 27.3572 36.1192
980 2 35.5078 27.5328 35.9058
981 2 -0.00419779 31.6996 36.1672
982 2 4.0407 31.7301 36.3342
983 2 7.77874 31.5686 36.1856
984 2 11.7171 31.3968 36.0299
985 2 15.5927 31.5667 36.0571
986 2 19.735 31.3835 36.2389
987 2 23.5927 31.445 36.0518
988 2 27.6789 31.7195 36.1708
989 2 31.6276 31.376 36.1139
990 2 35.537 31.573 36.1219
991 2 -0.086558 35.6683 36.1854
992 2 3.90537 35.5807 35.9081