ITEM: TIMESTEP
44400
ITEM: NUMBER OF ATOMS
7500
ITEM: BOX BOUNDS xy xz yz pp pp pp
0.0000000000000000e+00 3.9579999999999998e+01 0.0000000000000000e+00
0.0000000000000000e+00 3.9579999999999998e+01 0.0000000000000000e+00
-9.4927168404304041e-03 5.9709492716841012e+01 0.0000000000000000e+00
ITEM: ATOMS id type x y z
1 2 39.5665 39.625 0.219494
2 2 4.04089 0.0280754 0.311833
3 2 8.06928 0.0281244 0.197139
4 2 11.9511 0.0589586 0.270017
5 2 15.9656 39.7026 0.327572
6 2 19.7914 0.263668 0.487097
7 2 23.8739 0.0425741 0.295
8 2 27.6858 39.6871 0.27033
9 2 31.6512 39.7768 0.110382
10 2 35.6806 39.4873 0.206753
11 2 39.7013 4.09518 0.243003
12 2 3.91487 3.73549 0.270718
13 2 8.23977 3.91902 0.130158
14 2 12.0182 4.07512 0.26283
15 2 15.8017 4.07445 0.351356
16 2 20.0241 4.07662 0.312802
17 2 23.8435 4.30227 0.150094
18 2 27.7844 4.1243 0.0401826
19 2 31.942 3.89032 0.0322053
20 2 35.6082 4.02916 0.262829
21 2 39.6861 7.90446 0.110165
22 2 3.95176 7.7445 0.4389
23 2 8.15485 7.97111 0.11029
24 2 12.1024 8.00291 59.946
25 2 15.8874 7.94439 0.226698
26 2 19.9431 8.10482 0.284292
27 2 23.9573 8.08409 0.251219
28 2 27.8889 7.90355 0.323322
29 2 31.7392 7.76358 0.294054
30 2 35.7033 7.88716 0.189371
31 2 39.4948 11.8707 0.236784
32 2 4.13877 11.8707 0.0986748
33 2 8.13812 12.0762 0.289945
34 2 12.1474 11.9223 0.172942
35 2 16.0152 11.7713 0.198547
36 2 20.0606 11.6988 0.290541
37 2 24.107 11.8808 0.168361
38 2 27.8391 11.9589 0.14772
39 2 31.7442 11.6275 0.204984
40 2 35.6276 11.6738 0.321001
41 2 39.6692 15.8805 0.221497
42 2 4.12999 15.9436 0.215839
43 2 8.23236 15.8775 0.268192
44 2 12.0432 15.8443 0.303522
45 2 16.1336 15.8907 0.305807
46 2 19.9945 15.7652 0.269228
47 2 24.1123 15.7284 0.166199
48 2 28.0345 15.835 0.254432
49 2 31.889 15.7743 0.410306
50 2 35.7854 15.7233 0.274045
51 2 39.6717 19.8702 0.133985
52 2 4.24727 20.0575 0.308663
53 2 7.87381 19.7171 0.278071
54 2 12.0889 19.6463 0.289104
55 2 15.8954 20.0344 0.39106
56 2 19.8927 19.9466 0.305209
57 2 23.6757 19.6902 0.35288
58 2 27.9182 19.9508 0.260505
59 2 31.8585 19.7089 0.453298
60 2 35.7097 19.8284 0.215068
61 2 39.7024 23.7706 0.224125
62 2 4.00311 23.9395 0.112792
63 2 8.25276 23.792 0.301662
64 2 11.9588 23.5286 0.217587
65 2 16.0011 23.8852 0.167978
66 2 20.002 23.8052 0.256661
67 2 23.7365 23.6015 0.352385
68 2 27.6689 23.8436 0.443698
69 2 31.706 23.7395 0.132831
70 2 35.6951 23.8072 0.416143
71 2 39.4879 27.7392 0.097273
72 2 4.12801 27.5006 0.166116
73 2 8.29223 27.6321 0.145062
74 2 11.8249 27.6719 0.169661
75 2 15.8285 27.7568 0.03977
76 2 20.0363 27.5107 0.203694
77 2 23.8988 27.6498 0.361916
78 2 27.7282 27.5784 0.456764
79 2 31.9035 27.6301 0.120681
80 2 35.799 27.6939 0.201438
81 2 39.8307 31.7632 0.437557
82 2 4.15941 31.5705 0.323354
83 2 8.03315 31.47 0.195011
84 2 11.9474 31.7023 0.184471
85 2 16.0817 31.6366 0.262806
86 2 19.8037 31.6407 0.339857
87 2 23.908 31.6121 0.247701
88 2 27.8516 31.4485 0.231389
89 2 31.827 31.7203 0.152551
90 2 35.7521 31.5778 0.240697
91 2 39.7772 35.5955 0.180908
92 2 4.04526 35.7035 0.164783
93 2 7.98074 35.8209 0.294934
94 2 11.9485 35.7519 0.291256
95 2 15.8776 35.6613 0.19955
96 2 20.033 35.7467 0.381583
97 2 23.9973 35.8722 0.221171
98 2 27.885 35.6899 0.317626
99 2 31.8755 35.6346 0.164503
100 2 35.8309 35.6258 0.26635
101 2 39.6868 -0.0482904 4.34894
102 2 4.1312 39.8494 4.25891
103 2 8.05437 -0.124934 4.36679
104 2 11.7502 0.0894669 4.28221
105 2 15.8804 0.184887 4.33489
106 2 20.0481 39.7044 4.45084
107 2 23.9115 39.8019 4.29134
108 2 27.7696 39.5949 4.19753
109 2 31.7014 0.0361315 4.30705
110 2 35.663 39.7978 4.113
111 2 39.7802 4.09428 4.16444
112 2 4.16952 4.1922 4.25065
113 2 8.01588 4.18097 3.92807
114 2 11.8137 4.01006 4.33311
115 2 15.7847 4.10429 4.3368
116 2 19.6871 3.85346 4.1748
117 2 23.7694 4.19416 4.33378
118 2 27.7766 4.08421 4.2039
119 2 31.9229 3.94179 4.18441
120 2 35.871 4.0222 4.24738
121 2 0.0582722 8.0315 4.16459
122 2 4.09579 8.15404 4.09934
123 2 8.15073 8.18987 4.04234
124 2 12.0247 8.0592 4.3235
125 2 15.8501 8.0522 4.25796
126 2 19.8721 7.90816 4.2051
127 2 23.7726 7.91694 4.20164
128 2 28.0512 7.9354 4.12242
129 2 31.6854 7.94268 4.05944
130 2 35.9384 8.08896 4.23854
131 2 39.7262 12.1499 4.26364
132 2 4.30019 12.1304 4.12452
133 2 8.06996 12.0693 4.10473
134 2 12.0551 12.0052 4.32587
135 2 16.0651 11.987 4.1082
136 2 20.023 11.937 4.33967
137 2 24.009 12.0561 4.17986
138 2 27.8656 11.8812 4.38738
139 2 31.709 11.9085 4.08297
140 2 35.8632 11.933 4.05139
141 2 39.6505 15.9438 4.05436
142 2 3.92832 16.02 4.13591
143 2 8.02306 15.9927 4.22824
144 2 12.012 15.984 4.3291
145 2 15.9477 15.9726 4.25694
146 2 19.9799 15.808 4.22688
147 2 23.914 16.0428 4.15489
148 2 27.7097 16.0121 4.33545
149 2 31.6561 15.895 4.22345
150 2 35.9421 15.9256 4.22482
151 2 0.10055 19.9743 4.19986
152 2 4.04941 19.9962 4.14225
153 2 7.9526 19.799 4.29064
154 2 12.0917 19.9229 4.34725
155 2 15.9893 19.837 4.41514
156 2 19.8156 19.9034 4.30832
157 2 23.9676 19.7987 4.45938
158 2 27.8046 19.9153 4.40821
159 2 31.6997 19.9059 4.42271
160 2 35.6009 20.0021 4.24737
161 2 39.8091 23.9977 4.0958
162 2 4.01513 23.777 4.01566
163 2 8.06561 23.7392 4.28817
164 2 11.8345 23.7303 4.25308
165 2 15.8511 23.7365 4.31706
166 2 20.0561 23.8642 4.28372
167 2 23.6761 23.708 4.2211
168 2 27.7924 23.94 4.12921
169 2 31.6788 23.8793 4.21865
170 2 35.753 23.8773 4.34471
171 2 39.8404 28.0441 4.12292
172 2 4.11893 27.8698 4.13524
173 2 7.92592 27.8474 4.38762
174 2 11.856 27.8356 4.3674
175 2 15.5614 27.7234 4.21827
176 2 19.7265 27.8119 4.28161
177 2 23.5832 27.8012 4.33968
178 2 27.7526 27.7356 4.33388
179 2 31.7825 27.7589 4.19989
180 2 35.6954 27.7541 4.19715
181 2 0.112865 31.7377 4.31333
182 2 4.16326 31.7734 4.22421
183 2 8.04871 31.7586 4.17398
184 2 11.8063 31.9237 4.17123
185 2 16.0021 31.8045 4.0738
186 2 19.9548 31.7286 4.23791
187 2 23.6014 31.867 4.22394
188 2 27.7679 31.7173 4.2203
189 2 31.6683 31.5763 4.25888
190 2 35.9053 31.9464 4.28026
191 2 -0.0886038 35.8574 4.07308
192 2 4.17107 35.7297 4.04606
193 2 8.23641 35.6522 4.28828
194 2 12.0425 35.8614 4.27586
195 2 15.8585 35.8279 4.28733
196 2 19.8536 35.639 4.18512
197 2 23.8265 35.6469 4.32013
198 2 27.9133 35.6439 4.09125
199 2 31.7794 35.4845 4.11902
200 2 35.7043 35.5846 4.28106
201 2 39.8589 39.6496 8.16489
202 2 4.18862 39.8471 8.21002
203 2 7.88182 39.7299 8.397
204 2 11.8856 0.228098 8.20403
205 2 15.8672 0.106799 8.18369
206 2 19.8743 39.5484 8.29625
207 2 23.7856 39.6395 8.22899
208 2 27.9581 0.0694006 7.9898
209 2 31.9348 39.5741 8.1078
210 2 35.9061 39.5688 8.26729
211 2 39.7659 4.15614 8.07426
212 2 4.01311 4.08771 8.15888
213 2 7.98576 4.02584 8.23692
214 2 11.9626 4.26645 8.28159
215 2 15.9611 3.98152 8.12998
216 2 19.8627 4.04915 8.39314
217 2 23.7893 4.04696 8.30332
218 2 27.8025 3.75244 8.15428
219 2 31.8026 3.97007 8.08787
220 2 35.6548 4.00367 8.23904
221 2 39.6693 8.05613 8.18832
222 2 3.95165 8.08859 8.18561
223 2 7.92724 7.92146 8.36257
224 2 11.8333 8.3068 8.09295
225 2 15.9217 8.03696 8.13194
226 2 20.0634 8.00584 8.15802
227 2 23.7844 8.06234 8.29322
228 2 28.0788 7.97373 8.11653
229 2 31.72 7.919 8.39052
230 2 35.6021 8.11899 8.20465
231 2 39.5668 12.0914 8.23481
232 2 4.10433 12.1478 8.12391
233 2 8.05795 12.0647 8.37377
234 2 12.0423 11.9489 8.3392
235 2 16.0114 11.8866 8.02303
236 2 20.0303 11.9471 8.34014
237 2 24.1024 11.8863 8.191
238 2 28.0302 11.9029 8.35796
239 2 31.9836 12.0338 8.00288
240 2 35.6165 11.9631 7.94818
241 2 39.694 15.9358 8.12442
242 2 4.24291 15.9181 8.04813
243 2 8.19645 15.7177 8.29724
244 2 12.0633 15.7576 8.264
245 2 15.9937 15.8042 8.11691
246 2 19.9623 15.7686 8.14703
247 2 23.9798 15.8865 8.3191
248 2 27.83 15.7865 8.24958
249 2 31.6753 16.1414 8.18061
250 2 35.7581 15.7634 8.19732
251 2 39.841 20.0968 8.17947
252 2 4.21905 19.8436 8.48784
253 2 8.1143 19.7392 8.27308
254 2 11.9783 19.8438 8.36868
255 2 15.8538 19.6052 8.21959
256 2 19.9055 19.7714 8.30347
257 2 23.9583 19.717 8.2214
258 2 27.6693 19.9096 8.32092
259 2 31.8152 20.0497 8.28651
260 2 35.803 20.017 8.17587
261 2 39.5628 23.8864 8.27368
262 2 3.95769 23.8362 8.13899
263 2 7.93004 23.8478 8.27848
264 2 11.9869 23.7226 8.40088
265 2 16.0728 23.8677 8.31058
266 2 19.9496 23.514 8.26346
267 2 23.904 23.8784 8.12957
268 2 27.6966 23.7839 8.28147
269 2 31.8129 23.8648 8.19225
270 2 35.7292 23.8883 8.26914
271 2 0.32349 27.7948 8.24562
272 2 4.02077 27.5663 8.04709
273 2 7.96784 27.9255 8.2567
274 2 11.74 27.821 8.21785
275 2 15.6435 28.0062 8.10736
276 2 19.9267 27.6389 8.31555
277 2 23.8524 27.882 8.268
278 2 27.6491 27.804 8.20256
279 2 31.5496 27.9017 8.26024
280 2 35.7337 27.7843 8.13519
281 2 0.0638943 31.6007 8.21159
282 2 4.09609 31.9343 8.1031
283 2 7.7976 31.7895 8.18305
284 2 11.7663 31.6987 8.1082
285 2 15.8092 31.787 8.16092
286 2 19.6293 31.5393 8.19159
287 2 23.8262 31.7971 8.11245
288 2 27.7498 31.7997 8.05034
289 2 31.6113 31.6658 8.34762
290 2 35.7305 31.5662 8.18703
291 2 39.5541 35.6121 8.18035
292 2 3.96555 35.3782 7.98471
293 2 8.07272 35.6816 8.36242
294 2 11.9615 35.8342 8.35953
295 2 15.8478 35.6688 8.23287
296 2 19.7127 35.4915 8.13391
297 2 23.8276 35.5711 8.35082
298 2 27.6276 35.8197 8.11691
299 2 31.825 35.8301 8.04668
300 2 35.6703 35.689 8.2244
301 2 39.7052 39.6761 12.0033
302 2 3.86217 39.5862 12.0279
303 2 8.0014 39.7909 12.3209
304 2 11.9955 39.803 12.118
305 2 15.9786 39.6263 12.0557
306 2 19.8807 0.0532843 12.3099
307 2 23.7451 0.231589 12.109
308 2 27.7681 0.148503 12.2414
309 2 31.7931 0.231368 12.2883
310 2 35.791 39.6842 12.2921
311 2 39.6507 3.99111 12.1804
312 2 3.8922 4.04353 12.0325
313 2 7.96976 4.24233 12.059
314 2 11.9017 4.01186 12.1888
315 2 15.9523 3.93931 12.1498
316 2 19.957 4.25208 12.2236
317 2 23.7268 4.09125 12.1603
318 2 27.6065 4.24224 12.2702
319 2 31.7239 4.17458 12.1959
320 2 35.6886 4.20389 12.1275
321 2 39.6609 8.22441 12.1728
322 2 4.19123 8.14994 12.1673
323 2 7.98643 8.13438 12.2226
324 2 11.9708 7.83732 12.2503
325 2 15.919 8.09339 12.2306
326 2 19.6736 8.10935 12.3421
327 2 23.9809 8.0135 12.1667
328 2 27.9502 7.9816 12.1693
329 2 31.7198 8.01565 12.2246
330 2 35.6399 7.95186 12.3105
331 2 39.5733 12.0101 12.0614
332 2 3.88754 12.0386 12.1736
333 2 7.92405 11.852 12.3243
334 2 11.946 11.8168 12.295
335 2 15.8478 12.0097 12.4114
336 2 19.9385 11.8422 12.2511
337 2 23.582 11.994 12.2564
338 2 27.8658 12.034 12.2346
339 2 31.7451 11.9454 12.1587
340 2 35.6715 11.9891 12.0843
341 2 39.5195 16.0951 11.9741
342 2 4.10296 15.9491 12.1138
343 2 7.89542 15.8907 12.4015
344 2 11.7679 15.8471 12.1998
345 2 15.8989 15.7356 12.2988
346 2 19.6849 15.9418 12.2347
347 2 23.7098 16.0525 12.369
348 2 27.7203 16 12.3068
349 2 31.6717 16.0245 12.0666
350 2 35.5914 15.6966 12.3066
351 2 -0.00533296 20.0503 12.1302
352 2 3.93353 19.8077 12.2424
353 2 7.89075 19.8236 12.181
354 2 11.7987 19.9036 12.3617
355 2 15.8124 19.7918 12.2058
356 2 19.794 19.8268 12.4094
357 2 23.6982 19.9848 12.268
358 2 27.6547 19.6177 12.0935
359 2 31.7312 19.883 12.2984
360 2 35.6503 19.7008 12.1108
361 2 0.0648391 23.9102 12.3536
362 2 3.92217 23.8704 12.1731
363 2 7.93631 23.9064 12.3813
364 2 12.0322 23.8749 12.1492
365 2 15.633 23.833 12.349
366 2 19.5871 23.8637 12.166
367 2 23.5557 24.0125 12.1791
368 2 27.6321 23.8906 12.2369
369 2 31.7285 23.8289 12.2808
370 2 35.6741 23.6803 12.1992
371 2 39.5477 27.8732 12.3396
372 2 3.95038 27.8598 12.174
373 2 7.73794 27.7716 12.1811
374 2 11.7212 27.8327 12.1242
375 2 15.8174 27.8174 12.1117
376 2 19.7681 27.8004 12.0934
377 2 23.6921 27.8701 12.0298
378 2 27.5907 27.9663 12.0978
379 2 31.5703 27.6877 12.0926
380 2 35.5891 27.6882 12.2885
381 2 -0.228837 31.9009 12.2386
382 2 3.9261 31.7667 12.2521
383 2 7.94985 31.729 12.1175
384 2 11.9693 31.6768 12.4119
385 2 15.8625 31.8604 12.3264
386 2 19.8465 31.6732 12.0764
387 2 23.7045 31.8356 12.313
388 2 27.8622 31.7208 12.28
389 2 31.5525 32.0007 12.0655
390 2 35.5482 31.6599 12.275
391 2 39.647 35.8622 12.041
392 2 4.0359 35.7596 12.1888
393 2 7.92469 35.8349 12.3088
394 2 11.9686 35.5861 12.3141
395 2 15.9174 35.6292 12.2653
396 2 19.8185 35.7309 12.1033
397 2 23.933 35.6909 12.075
398 2 27.8802 35.7822 12.2214
399 2 31.6388 35.9008 12.1445
400 2 35.7969 35.6071 12.2412
401 2 -0.189588 39.5752 15.9941
402 2 3.97079 39.7443 16.248
403 2 8.00631 39.7757 16.0941
404 2 12.0693 0.14029 16.2266
405 2 15.9309 39.7835 16.1914
406 2 19.7565 39.7536 16.3332
407 2 23.7038 0.220672 16.2638
408 2 27.7529 39.6186 16.0531
409 2 31.7514 39.702 16.2983
410 2 35.8412 39.9238 16.0955
411 2 39.5897 4.12639 16.0574
412 2 3.89453 4.30983 16.2217
413 2 7.96927 4.04994 16.2342
414 2 11.7843 3.95819 16.2269
415 2 15.8041 4.08277 15.8995
416 2 19.8982 4.03984 16.0929
417 2 23.7971 4.00687 16.2061
418 2 27.5544 3.98838 16.2477
419 2 31.6761 3.9263 16.1907
420 2 35.7622 4.11884 16.1919
421 2 0.085453 8.1158 16.1863
422 2 4.03439 7.91233 16.3528
423 2 7.87086 7.96523 16.1895
424 2 11.7466 8.01896 16.1521
425 2 15.7582 7.84711 16.3388
426 2 19.8415 8.04967 16.3997
427 2 23.6549 8.02429 16.2022
428 2 27.6225 8.03794 16.1985
429 2 31.6196 8.10602 16.1016
430 2 35.4488 7.95272 16.3037
431 2 39.5271 11.9765 16.0061
432 2 3.81601 11.5764 16.1616
433 2 8.04415 12.1247 16.2678
434 2 11.7761 11.9722 16.2585
435 2 15.7528 11.8913 16.2096
436 2 19.8432 11.9731 16.2628
437 2 23.6197 12.1661 16.0435
438 2 27.7039 11.9318 16.1653
439 2 31.5639 12.047 16.1747
440 2 35.5143 11.788 16.2489
441 2 -0.116872 15.7851 16.1314
442 2 3.93522 15.7684 16.1559
443 2 7.83766 15.8077 16.0893
444 2 11.9663 15.8628 16.274
445 2 15.8183 15.9337 16.274
446 2 19.7898 15.8882 16.2935
447 2 23.7629 15.9399 16.2261
448 2 27.6637 15.9721 16.1324
449 2 31.6787 15.896 16.1826
450 2 35.4714 15.6427 16.1916
451 2 39.3796 19.8359 16.2231
452 2 3.66518 19.8954 16.2067
453 2 7.73813 19.8334 16.2039
454 2 11.5902 19.8498 16.1494
455 2 15.4852 19.9431 16.0295
456 2 19.6631 20.0073 16.1486
457 2 23.76 20.0511 16.1438
458 2 27.6582 20.1052 16.0964
459 2 31.6692 19.882 16.2452
460 2 35.744 19.6989 16.2518
461 2 39.4569 23.7135 16.2886
462 2 3.79213 23.9825 16.127
463 2 7.75426 23.9048 16.1411
464 2 12.0781 23.7263 16.3558
465 2 15.8738 23.6923 16.2645
466 2 19.711 23.9711 16.2155
467 2 23.7849 23.9649 16.2485
468 2 27.5158 23.9149 16.0443
469 2 31.564 23.7367 16.0778
470 2 35.5105 23.9627 16.1535
471 2 0.0206895 27.5985 16.3413
472 2 3.95478 28.0383 16.2152
473 2 7.92126 27.7234 16.1049
474 2 11.7829 27.7105 16.2496
475 2 15.7247 27.866 16.1207
476 2 19.6804 27.7551 16.1257
477 2 23.6831 27.8588 16.0541
478 2 27.6447 27.7915 16.1275
479 2 31.6511 27.7083 16.0996
480 2 35.4936 27.8599 16.1824
481 2 -0.0690045 31.6375 16.2072
482 2 3.89152 31.8148 16.1475
483 2 7.9408 31.6576 16.3449
484 2 11.9048 31.584 16.297
485 2 15.7551 31.6517 16.3139
486 2 19.7482 31.6843 16.0715
487 2 23.5548 31.8169 16.1124
488 2 27.7849 31.6581 15.9692
489 2 31.6319 31.8357 16.2357
490 2 35.4594 31.8154 16.0976
491 2 0.053543 35.4889 16.0938
492 2 3.98995 35.7115 16.2163
493 2 7.84408 35.9322 16.1281
494 2 11.8678 35.8216 16.3205
495 2 15.7014 35.7164 16.239
496 2 19.7335 35.6942 16.1673
497 2 23.7774 35.7142 16.135
498 2 27.6595 35.6438 15.9431
499 2 31.7468 35.6327 16.0931
500 2 35.6023 35.9596 16.2272
501 2 0.0252007 39.4078 20.3075
502 2 3.84408 39.6247 19.9858
503 2 7.98716 39.376 20.3243
504 2 11.8668 39.7653 20.1895
505 2 15.6798 39.5642 20.1657
506 2 19.7596 39.7117 20.2675
507 2 23.7035 39.6522 20.3669
508 2 27.7209 39.4757 20.1622
509 2 31.5209 39.4682 20.149
510 2 35.4809 39.7322 20.1963
511 2 -0.0225471 3.98363 20.0404
512 2 3.84359 3.78314 20.1668
513 2 7.8497 4.14025 20.2952
514 2 11.8269 4.22442 20.1983
515 2 15.5679 4.00709 20.1612
516 2 19.6578 3.8844 20.269
517 2 23.6533 3.9725 20.2586
518 2 27.5898 3.91056 20.1741
519 2 31.5628 4.06691 20.3007
520 2 35.6162 4.19213 20.357
521 2 -0.104836 7.90886 20.1648
522 2 4.00274 7.92723 20.3114
523 2 7.73996 8.0285 20.2074
524 2 11.767 8.06998 20.0764
525 2 15.9508 7.88867 20.0843
526 2 19.7398 7.95364 20.2274
527 2 23.5662 7.87672 20.2935
528 2 27.5023 7.9811 20.0877
529 2 31.3325 7.94277 20.0843
530 2 35.5721 8.00334 20.1792
531 2 -0.0852173 11.9783 20.245
532 2 3.79578 11.9503 20.3762
533 2 7.67822 12.1151 20.2427
534 2 11.8361 11.8423 20.1332
535 2 15.5997 11.9321 20.176
536 2 19.6214 11.7628 20.2906
537 2 23.7137 11.9328 20.0635
538 2 27.5223 11.9408 20.0751
539 2 31.4701 11.8648 20.2001
540 2 35.4845 11.9435 20.0408
541 2 -0.0445665 15.7565 20.1858
542 2 3.65408 15.7843 20.0834
543 2 7.74577 15.8871 20.1614
544 2 11.7232 15.8393 20.2546
545 2 15.7336 16.0037 20.2452
546 2 19.765 15.8393 20.1589
547 2 23.5973 15.7237 20.231
548 2 27.5839 15.8832 20.1809
549 2 31.6068 15.856 20.0794
550 2 35.7043 15.9926 19.9672
551 2 39.5933 19.8834 20.2363
552 2 3.84822 19.8905 20.1743
553 2 7.73294 19.7143 20.0051
554 2 11.6864 19.902 20.3199
555 2 15.7788 19.936 20.1298
556 2 19.6437 19.676 20.252
557 2 23.5617 19.7368 19.9774
558 2 27.4255 19.7542 20.1309
559 2 31.5502 19.8723 20.1725
560 2 35.5793 19.8638 20.161
561 2 39.5666 23.9015 20.2109
562 2 3.88073 23.8404 20.0874
563 2 7.68097 23.7899 20.1218
564 2 11.7156 23.9607 20.2434
565 2 15.6964 23.751 20.1121
566 2 19.6297 23.8632 20.0997
567 2 23.5014 23.8727 20.0616
568 2 27.4426 23.7015 20.0504
569 2 31.6455 23.6406 20.0142
570 2 35.4337 23.8193 20.1291
571 2 39.5068 27.7633 20.2204
572 2 3.91953 27.8723 20.2159
573 2 7.90782 27.9197 20.0003
574 2 11.9907 27.803 20.2349
575 2 15.9532 27.9117 20.2989
576 2 19.8994 27.794 20.1291
577 2 23.8343 27.9135 20.3321
578 2 27.6804 27.7864 20.0539
579 2 31.444 27.687 19.9595
580 2 35.4678 27.7054 19.9523
581 2 39.3599 31.688 20.0689
582 2 3.93961 31.8485 20.392
583 2 7.77991 31.9608 20.2172
584 2 11.8534 31.8943 20.2752
585 2 15.783 31.8094 20.1203
586 2 19.583 31.8664 20.0909
587 2 23.4964 31.7589 20.1819
588 2 27.6378 31.69 19.94
589 2 31.323 31.7526 20.0907
590 2 35.5507 31.6623 20.1343
591 2 -0.284283 35.6568 20.0634
592 2 3.69901 35.6107 20.1869
593 2 7.84706 35.7077 20.0385
594 2 11.7132 35.9279 20.028
595 2 15.7326 35.7119 20.1834
596 2 19.8149 35.7544 20.2956
597 2 23.612 35.4099 20.3769
598 2 27.3612 35.5979 20.1299
599 2 31.537 35.5975 20.0255
600 2 35.5843 35.7453 20.2092
601 2 -0.0888249 39.6438 24.1829
602 2 4.0631 39.6702 24.0756
603 2 7.70378 39.6915 24.1104
604 2 11.8119 0.151248 24.1369
605 2 15.6566 -0.0991386 24.0417
606 2 19.5858 39.6786 24.311
607 2 23.684 39.577 24.1915
608 2 27.5617 39.6924 24.2171
609 2 31.585 39.4605 24.2317
610 2 35.4754 39.5451 24.1458
611 2 39.4549 3.90216 24.2117
612 2 3.73 3.94209 24.0018
613 2 7.88006 4.28824 24.3661
614 2 11.7314 4.19635 24.2904
615 2 15.7581 4.00583 24.2949
616 2 19.76 3.90048 24.2515
617 2 23.6985 4.04372 24.2858
618 2 27.6873 3.96051 24.2902
619 2 31.8631 3.93738 24.1956
620 2 35.6581 3.90395 24.1033
621 2 -0.0550385 7.9556 24.3937
622 2 3.77258 7.95906 24.1753
623 2 8.00481 8.10929 24.2828
624 2 11.8577 8.23368 24.1046
625 2 15.614 8.01095 24.2162
626 2 19.5993 7.94666 24.0166
627 2 23.6554 7.86363 24.1861
628 2 27.6076 7.90837 24.2098
629 2 31.651 7.96175 24.1564
630 2 35.5321 7.84229 24.1284
631 2 39.4915 11.7986 24.2046
632 2 3.86395 11.8877 24.2249
633 2 7.90369 12.0096 24.2571
634 2 11.8228 11.756 24.0288
635 2 15.609 11.9531 24.1717
636 2 19.5297 11.9548 24.0855
637 2 23.6425 12.0088 24.1783
638 2 27.7564 11.9728 24.1691
639 2 31.4555 11.9396 24.2142
640 2 35.5013 12.0178 24.0785
641 2 39.4946 16.0119 24.3185
642 2 3.69272 15.9592 24.2175
643 2 7.85978 15.976 24.2075
644 2 11.7777 15.7238 24.1879
645 2 15.7639 15.9141 24.1528
646 2 19.6918 15.8775 24.0228
647 2 23.5369 16.0514 24.1391
648 2 27.4942 15.9866 24.0344
649 2 31.5623 15.8825 24.17
650 2 35.5048 15.8577 24.3092
651 2 -0.246843 19.9482 24.1422
652 2 3.81215 19.7641 23.954
653 2 7.72166 19.8256 23.9961
654 2 11.6538 19.814 23.9027
655 2 15.7364 20.0093 24.0868
656 2 19.6088 19.9266 24.0309
657 2 23.5808 20.0169 24.1389
658 2 27.6231 19.7205 24.0977
659 2 31.5434 19.682 24.1288
660 2 35.5922 19.7661 23.9534
661 2 -0.180854 23.7544 24.1083
662 2 4.06289 23.8848 24.0672
663 2 7.82552 23.8282 24.1138
664 2 11.7689 23.8913 24.1199
665 2 15.6025 23.9941 23.9736
666 2 19.8288 23.7899 24.2344
667 2 23.5241 23.8538 24.0506
668 2 27.5153 23.6593 24.0712
669 2 31.5335 23.7112 24.0748
670 2 35.5962 23.7634 23.9877
671 2 39.3576 27.75 24.1414
672 2 3.86824 27.7575 24.1909
673 2 8.00745 27.7575 24.0282
674 2 11.8646 27.9003 24.1912
675 2 15.7477 27.7856 24.1786
676 2 19.7379 27.8868 24.079
677 2 23.5336 27.7939 24.1005
678 2 27.5808 27.6069 24.189
679 2 31.3824 27.538 23.8509
680 2 35.4101 27.6738 23.8841
681 2 -0.234537 31.8638 24.0724
682 2 3.93881 31.7755 24.0541
683 2 7.89311 31.56 24.0446
684 2 11.7423 31.9022 24.1734
685 2 15.8313 31.6106 23.9374
686 2 19.7168 31.7323 24.2257
687 2 23.7906 31.779 24.1031
688 2 27.6195 31.6152 24.1622
689 2 31.633 31.7148 24.1272
690 2 35.4602 31.8709 24.0905
691 2 -0.0880461 35.7893 24.386
692 2 3.78656 35.7081 24.1783
693 2 7.83236 35.6869 24.1678
694 2 11.7583 35.6301 24.2141
695 2 15.8509 35.4716 24.1889
696 2 19.8784 35.8488 24.2234
697 2 23.7269 35.6895 24.1114
698 2 27.6705 35.6035 24.1894
699 2 31.499 35.7675 24.0798
700 2 35.5132 35.5593 24.0443
701 2 -0.199343 39.613 28.1067
702 2 3.97637 0.132232 28.2356
703 2 7.89667 39.7786 27.9542
704 2 11.8455 39.5023 28.07
705 2 15.5813 39.5025 28.3407
706 2 19.7899 39.6832 28.3205
707 2 23.7454 39.5607 28.1585
708 2 27.4753 39.5324 28.1035
709 2 31.2588 39.7785 28.1149
710 2 35.2837 39.581 28.2292
711 2 -0.157844 3.94789 28.3011
712 2 3.85876 4.0357 28.2158
713 2 7.92007 4.06726 28.1846
714 2 11.8683 3.79405 28.2751
715 2 15.8901 4.14438 28.2281
716 2 19.7508 4.04924 28.1917
717 2 23.7966 4.13115 28.1871
718 2 27.6753 3.92846 28.1238
719 2 31.4456 4.17316 28.1595
720 2 35.5345 3.93911 28.1599
721 2 -0.100878 7.91177 28.1236
722 2 3.7321 7.91762 28.2149
723 2 7.64594 7.73852 28.2112
724 2 11.836 8.01113 28.2149
725 2 15.8584 7.90293 28.2624
726 2 19.6197 8.16203 28.2111
727 2 23.5903 7.91417 28.078
728 2 27.4691 7.95795 27.9853
729 2 31.5725 7.94349 28.1774
730 2 35.5325 8.05514 28.1262
731 2 -0.130211 11.9451 28.2887
732 2 3.89742 11.7736 27.9639
733 2 7.65828 11.7917 28.3039
734 2 11.5858 11.9497 28.3797
735 2 15.6734 12.1536 28.0574
736 2 19.7101 11.9722 28.029
737 2 23.6127 11.745 28.1126
738 2 27.6309 11.9975 28.2358
739 2 31.612 11.8338 28.0701
740 2 35.5479 12.0368 28.0296
741 2 -0.216907 15.8307 28.1746
742 2 3.74988 15.6795 28.0647
743 2 7.64166 15.9589 28.1811
744 2 11.6119 15.866 28.1009
745 2 15.859 15.9022 28.1359
746 2 19.7681 15.8827 28.1516
747 2 23.7486 15.8211 27.9765
748 2 27.5153 15.8585 28.1503
749 2 31.7033 15.8616 28.2279
750 2 35.6154 15.851 28.2563
751 2 -0.185548 19.9449 28.0341
752 2 3.62518 19.8033 28.2118
753 2 7.64376 19.7981 27.9571
754 2 11.6655 19.7247 28.082
755 2 15.7072 19.7906 28.0456
756 2 19.6559 19.8723 28.0946
757 2 23.6198 19.7652 28.1213
758 2 27.4524 19.7535 28.0133
759 2 31.6761 19.7527 28.0744
760 2 35.4942 19.7606 28.1985
761 2 -0.171751 23.8756 28.0166
762 2 4.02755 23.834 28.0898
763 2 7.63454 23.7677 27.9364
764 2 11.5629 23.6774 27.9522
765 2 15.5842 23.7663 28.197
766 2 19.3818 23.7142 28.0517
767 2 23.4653 23.8865 28.0956
768 2 27.678 23.5124 28.1342
769 2 31.6805 23.5407 28.0163
770 2 35.578 23.8669 27.898
771 2 39.4818 27.7711 27.9873
772 2 3.82012 27.8327 28.0774
773 2 8.01982 27.5619 28.056
774 2 11.753 27.9277 28.0966
775 2 15.7067 27.6309 28.1462
776 2 19.458 27.7404 28.1248
777 2 23.4794 27.696 28.1307
778 2 27.6494 27.3981 28.0524
779 2 31.724 27.6327 28.034
780 2 35.4567 27.8769 28.0165
781 2 -0.251555 31.6004 28.0488
782 2 3.82396 31.709 28.1621
783 2 7.78955 31.5881 28.122
784 2 11.6355 31.6509 28.1914
785 2 15.7568 31.5865 28.2688
786 2 19.6208 31.7783 28.147
787 2 23.6052 31.858 28.2549
788 2 27.4333 31.5714 27.994
789 2 31.3899 31.6548 28.0805
790 2 35.4778 31.9348 28.2295
791 2 0.0350113 35.6328 28.2144
792 2 3.80214 35.8437 28.1436
793 2 7.85019 35.657 28.2502
794 2 11.6573 35.5925 28.2345
795 2 15.6167 35.6993 28.2759
796 2 19.7055 35.7074 28.1723
797 2 23.5681 35.622 28.1676
798 2 27.4959 35.5378 28.2163
799 2 31.5877 35.6932 28.2551
800 2 35.3386 35.6856 28.143
801 2 -0.0963958 39.478 32.1569
802 2 3.96449 0.0166409 32.3654
803 2 7.71702 -0.0259151 32.3346
804 2 11.5845 39.7426 32.0416
805 2 15.5961 0.108826 32.2007
806 2 19.742 -0.128213 32.0814
807 2 23.6561 39.7203 32.1909
808 2 27.5081 39.5997 32.0919
809 2 31.4141 39.5881 32.1204
810 2 35.5069 39.5883 32.2016
811 2 -0.0869056 4.12343 32.1772
812 2 3.739 3.784 32.1158
813 2 7.79191 3.87385 32.1998
814 2 11.8356 4.00948 32.1652
815 2 15.8248 4.12432 32.1819
816 2 19.9043 3.94905 32.19
817 2 23.7172 3.89038 32.0327
818 2 27.6235 4.00948 32.2323
819 2 31.4289 3.99366 32.1764
820 2 35.4941 3.87188 32.2311
821 2 39.2935 7.95602 32.1897
822 2 3.73186 7.90297 32.0838
823 2 7.90246 7.97829 32.1739
824 2 11.8993 7.90045 32.1409
825 2 15.5712 8.01857 32.1741
826 2 19.562 7.96896 32.2771
827 2 23.5604 7.81968 32.0257
828 2 27.5516 7.87533 32.0741
829 2 31.5677 7.90422 32.2221
830 2 35.3876 7.94956 32.159
831 2 -0.0483527 11.8896 32.2619
832 2 3.63911 11.6793 32.2451
833 2 7.73245 11.8103 31.8994
834 2 11.7801 11.9933 32.1091
835 2 15.4903 11.7913 32.1096
836 2 19.7713 11.7988 32.0189
837 2 23.819 11.8025 32.0173
838 2 27.6604 11.9436 32.022
839 2 31.4471 11.9186 32.1205
840 2 35.6262 12.0049 32.107
841 2 -0.218016 15.8554 32.1755
842 2 3.76938 15.8127 32.147
843 2 7.62755 15.7224 32.039
844 2 11.5323 15.8566 32.1276
845 2 15.614 15.6463 32.0028
846 2 19.6908 15.8333 32.1179
847 2 23.6136 15.7094 32.0502
848 2 27.6522 15.8539 32.3007
849 2 31.532 15.8431 32.207
850 2 35.5433 15.7769 32.2159
851 2 -0.0451126 19.8088 31.9094
852 2 3.81895 19.7899 32.0502
853 2 7.90466 19.6482 32.0442
854 2 11.7874 19.8564 32.0556
855 2 15.7131 19.6635 32.0312
856 2 19.6022 19.8962 31.9229
857 2 23.5409 19.6923 32.0665
858 2 27.4561 19.8178 31.9568
859 2 31.5416 19.6209 32.2354
860 2 35.4634 19.8338 32.1877
861 2 -0.133503 23.6523 32.0354
862 2 3.89732 23.6631 32.0691
863 2 7.88659 23.6615 32.1495
864 2 11.7509 23.5425 32.0868
865 2 15.6558 23.7052 32.1534
866 2 19.5996 23.7076 32.0833
867 2 23.436 23.439 32
868 2 27.5192 23.8095 32.0164
869 2 31.5341 23.6383 32.2628
870 2 35.4175 23.5026 31.9449
871 2 -0.228801 27.5779 32.1544
872 2 3.75025 27.4746 32.0798
873 2 7.64043 27.6572 32.1663
874 2 11.7562 27.7063 32.1651
875 2 15.5404 27.6638 32.0262
876 2 19.5065 27.7183 32.0968
877 2 23.3487 27.5747 32.0563
878 2 27.715 27.4934 31.867
879 2 31.5814 27.557 32.0133
880 2 35.4495 27.6162 32.0721
881 2 -0.213156 31.5658 31.9622
882 2 3.86788 31.7602 31.9394
883 2 7.73088 31.5594 32.2217
884 2 11.8326 31.742 32.3038
885 2 15.8226 31.7323 32.1002
886 2 19.6831 31.5462 32.1538
887 2 23.7363 31.6628 32.1197
888 2 27.7698 31.4194 31.7804
889 2 31.4951 31.546 32.0526
890 2 35.5261 31.6931 32.0948
891 2 0.0731681 35.6319 32.0686
892 2 3.92834 35.8779 32.1703
893 2 7.71015 35.7932 32.1816
894 2 11.5234 35.6033 32.0887
895 2 15.5876 35.6366 32.1259
896 2 19.6608 35.5496 32.2263
897 2 23.6958 35.6975 32.2513
898 2 27.4945 35.6775 32.1316
899 2 31.6422 35.6166 32.0919
900 2 35.5411 35.6559 32.2293
901 2 -0.0324228 -0.287078 36.1735
902 2 3.83909 0.0504719 36.1581
903 2 7.86319 -0.116794 36.2738
904 2 11.8036 -0.0786219 36.2928
905 2 15.6404 -0.168895 36.1713
906 2 19.6833 -0.232166 36.0218
907 2 23.6255 39.5966 36.033
908 2 27.7734 39.724 36.0342
909 2 31.7413 0.11673 36.1616
910 2 35.6491 -0.081386 36.2297
911 2 -0.0957749 3.96753 36.323
912 2 3.92846 3.97089 36.196
913 2 7.94962 3.81406 36.13
914 2 11.8806 3.82092 36.0196
915 2 15.753 3.79723 36.011
916 2 19.6522 3.90592 36.2189
917 2 23.5484 4.05644 36.0308
918 2 27.561 4.19545 36.1722
919 2 31.7273 3.92704 36.1682
920 2 35.7201 4.08655 36.0884
921 2 0.0294264 7.81348 36.1406
922 2 3.99785 7.80859 35.9964
923 2 7.84068 7.86581 36.138
924 2 11.9021 7.88354 36.0268
925 2 15.891 7.83307 35.8861
926 2 19.6829 7.87052 36.0122
927 2 23.7016 7.98309 36.074
928 2 27.6864 7.81685 35.9895
929 2 31.7014 7.87437 36.1315
930 2 35.6733 7.80173 36.2288
931 2 -0.241551 11.781 36.1958
932 2 3.91829 11.8244 36.2211
933 2 7.74676 11.8097 36.1052
934 2 11.6303 11.8753 36.0282
935 2 15.8176 11.7921 36.2816
936 2 19.8522 11.7286 36.057
937 2 23.8188 11.8132 35.9956
938 2 27.712 11.8524 35.9035
939 2 31.6281 11.7142 36.1262
940 2 35.2831 11.5703 35.9725
941 2 0.144836 15.6839 36.181
942 2 3.98971 15.7001 36.058
943 2 7.79845 15.969 36.0695
944 2 11.6812 15.7841 35.9097
945 2 15.8593 15.8154 35.9937
946 2 19.5119 15.6749 35.9317
947 2 23.5535 15.6947 36.0823
948 2 27.5884 15.8453 36.1765
949 2 31.515 15.8528 36.1629
950 2 35.5595 15.8025 36.1188
951 2 0.0154692 19.8221 36.0794
952 2 3.72828 19.6282 36.0125
953 2 7.8251 19.6118 35.998
954 2 11.9272 19.7923 36.1271
955 2 15.6765 19.7115 36.1709
956 2 19.7118 19.6359 35.935
957 2 23.6437 19.7122 35.8913
958 2 27.6889 19.7219 36.0671
959 2 31.5668 19.7953 36.0765
960 2 35.6299 19.5642 36.2037
961 2 -0.112869 23.8135 36.1011
962 2 3.95702 23.5378 36.1534
963 2 7.83345 23.6545 36.0719
964 2 11.7323 23.5697 36.051
965 2 15.6309 23.7796 36.0081
966 2 19.5338 23.4776 35.8759
967 2 23.5461 23.6448 35.9934
968 2 27.6386 23.6094 36.0903
969 2 31.4673 24.0241 36.0933
970 2 35.39 23.5197 35.9626
971 2 -0.107993 27.7149 36.2736
972 2 3.75874 27.5397 36.0145
973 2 7.6415 27.5657 36.0722
974 2 11.7668 27.8389 36.3274
975 2 15.8391 27.7444 36.0981
976 2 19.8607 27.6564 35.9203
977 2 23.8022 27.6058 36.0789
978 2 27.5132 27.564 35.7022
979 2 31.6219 27.6449 36.0746
980 2 35.6115 27.6634 36.0605
981 2 0.0272609 31.4603 35.9332
982 2 3.624 31.5167 35.9182
983 2 7.81997 31.5314 36.1463
984 2 11.874 31.8112 36.2561
985 2 15.7611 31.6857 36.0163
986 2 19.8455 31.6406 35.828
987 2 23.6145 31.7276 36.1324
988 2 27.7363 31.4294 35.8521
989 2 31.502 31.6799 35.9933
990 2 35.5791 31.5773 35.8958
991 2 -0.00220586 35.4523 35.9542
992 2 3.78174 35.424 36.1523
993 2 7.54855 35.5693 35.9639
994 2 11.6149 35.4611 35.9225
995 2 15.7547 35.5316 36.146