ITEM: TIMESTEP
15000
ITEM: NUMBER OF ATOMS
32000
ITEM: BOX BOUNDS xy xz yz pp pp pp
0.0000000000000000e+00 1.5831999999999999e+02 0.0000000000000000e+00
0.0000000000000000e+00 1.5831999999999999e+02 0.0000000000000000e+00
1.6518327001359800e-01 1.5932528729986156e+01 0.0000000000000000e+00
ITEM: ATOMS id type x y z
1 2 158.103 158.054 15.8533
2 2 3.82964 157.985 0.286857
3 2 7.74951 158.057 0.0645598
4 2 11.871 158.107 15.8737
5 2 15.9147 158.111 0.195927
6 2 19.8748 158.149 0.0806378
7 2 23.5703 158.062 15.7698
8 2 27.7454 158.041 0.227763
9 2 31.7653 158.083 15.9274
10 2 35.8973 158.245 0.19525
11 2 39.8346 158.301 0.257965
12 2 43.8892 158.275 15.8496
13 2 47.8871 -0.0406837 15.8111
14 2 51.9012 0.0177242 15.9157
15 2 55.8184 158.403 15.8505
16 2 59.717 0.135288 15.8078
17 2 63.6295 0.0701003 0.0689633
18 2 67.4348 0.02435 0.133291
19 2 71.4408 158.238 15.8783
20 2 75.4584 158.206 16.0391
21 2 79.3083 158.166 15.7412
22 2 83.1875 158.12 0.0968952
23 2 87.1396 158.069 0.175398
24 2 91.0935 158.124 0.0471926
25 2 95.0346 157.994 0.11404
26 2 98.9788 157.873 0.14366
27 2 102.828 157.89 0.0790291
28 2 106.82 157.908 15.6209
29 2 110.523 157.972 0.0281387
30 2 114.462 157.817 0.0209588
31 2 118.417 157.693 0.0620992
32 2 122.493 157.723 16.0164
33 2 126.301 157.806 15.9359
34 2 130.237 157.746 16.0957
35 2 134.098 157.569 16.0665
36 2 138.054 157.638 15.6996
37 2 142.058 157.715 15.7496
38 2 146.309 157.627 15.7675
39 2 150.071 157.905 16.0262
40 2 154.052 157.975 15.8596
41 2 157.767 3.60643 0.144349
42 2 3.7739 3.46026 15.895
43 2 7.7953 3.6399 0.173153
44 2 11.6653 3.5062 0.134443
45 2 15.6574 3.65268 0.210302
46 2 19.7911 3.69784 15.964
47 2 23.7199 3.76051 0.0542353
48 2 27.7388 3.81294 0.290592
49 2 31.7685 3.67118 0.0774958
50 2 35.7332 4.0121 0.188797
51 2 39.8735 3.80699 0.316213
52 2 43.9131 3.95467 0.273252
53 2 47.8312 3.98912 15.8342
54 2 51.7925 4.06402 0.114379
55 2 55.8184 4.16327 0.248941
56 2 59.7186 4.17798 0.125692
57 2 63.4952 3.95469 16.1093
58 2 67.4298 3.91363 0.207754
59 2 71.3035 4.04222 0.167356
60 2 75.3724 3.88787 0.228112
61 2 79.2626 4.01282 0.117889
62 2 83.4022 3.80378 0.191899
63 2 87.0185 3.78021 0.163816
64 2 90.9654 3.81729 0.0854502
65 2 95.1575 3.70109 15.7203
66 2 98.9438 3.75752 0.184734
67 2 102.763 3.62927 0.0322544
68 2 106.658 3.72616 15.8521
69 2 110.808 3.39638 15.8059
70 2 114.669 3.46516 15.7974
71 2 118.444 3.41839 15.918
72 2 122.304 3.47293 0.0786336
73 2 126.313 3.20439 15.8117
74 2 130.338 3.34938 0.190607
75 2 134.035 3.32719 15.8002
76 2 138.005 3.30122 0.146496
77 2 142.21 3.22027 16.0729
78 2 146.202 3.37392 0.105534
79 2 150.105 3.46761 15.9365
80 2 153.896 3.57278 15.7115
81 2 158.05 7.42713 0.318696
82 2 3.59419 7.40018 15.8564
83 2 7.60599 7.53791 15.9738
84 2 11.7191 7.53738 15.9717
85 2 15.8312 7.63378 0.163136
86 2 19.6638 7.69718 15.963
87 2 23.7313 7.60916 0.0814295
88 2 27.6342 7.79571 0.199701
89 2 31.6273 7.69038 15.7215
90 2 35.7608 7.77554 15.9815
91 2 39.6063 8.02833 15.7081
92 2 43.6105 7.97242 16.0595
93 2 47.7036 7.86118 0.154199
94 2 51.6228 7.92562 15.9927
95 2 55.5964 7.98935 0.407028
96 2 59.7932 8.02526 0.258778
97 2 63.8468 7.94674 0.143574
98 2 67.6506 7.89626 0.207901
99 2 71.7528 8.13341 0.105058
100 2 75.4293 7.8849 0.135741
101 2 79.2671 7.78801 16.0528
102 2 83.1716 7.86634 0.194453
103 2 87.0114 7.8437 15.7073
104 2 91.1523 7.54606 0.183684
105 2 94.9905 7.65691 -0.0133472
106 2 98.9202 7.66189 0.00163749
107 2 102.927 7.79539 0.315342
108 2 106.772 7.70697 -0.0298788
109 2 110.774 7.53973 0.139683
110 2 114.64 7.37382 -0.0737745
111 2 118.496 7.49318 0.326388
112 2 122.389 7.43475 0.0939362
113 2 126.279 7.41391 15.88
114 2 130.122 7.21059 0.111904
115 2 134.29 7.23535 0.168138
116 2 138.042 7.23507 15.8653
117 2 141.918 7.1348 15.8382
118 2 145.872 7.42362 0.0360138
119 2 150.087 7.38996 16.0623
120 2 153.925 7.46557 15.9907
121 2 158.076 11.3275 0.141178
122 2 3.69131 11.4963 0.304039
123 2 7.52966 11.545 15.9133
124 2 11.7323 11.3866 16.1278
125 2 15.6033 11.5222 16.0699
126 2 19.7601 11.5812 0.149684
127 2 23.7611 11.7034 0.125107
128 2 27.6634 11.5459 0.032267
129 2 31.5726 11.542 0.0211571
130 2 35.478 11.5842 0.286921
131 2 39.4941 11.9606 0.107736
132 2 43.6386 11.831 15.8959
133 2 47.5998 11.5465 15.8882
134 2 51.7427 11.8282 15.814
135 2 55.7309 11.802 0.191591
136 2 59.7026 11.8909 15.9612
137 2 63.7213 11.9465 0.208326
138 2 67.7072 11.8955 15.8214
139 2 71.5402 11.9624 0.232224
140 2 75.5037 11.9191 0.399942
141 2 79.2426 11.9678 0.241166
142 2 83.3611 11.9946 0.319175
143 2 87.3479 11.9109 0.0306626
144 2 91.0681 11.5928 0.176955
145 2 94.9911 11.6254 0.1646
146 2 98.9174 11.6572 0.0829115
147 2 102.745 11.8847 -0.0112545
148 2 106.717 11.7507 -0.0134502
149 2 110.741 11.678 0.0500683
150 2 114.752 11.5532 0.0398611
151 2 118.517 11.4012 0.19476
152 2 122.476 11.4832 -0.195281
153 2 126.329 11.3607 -0.0405593
154 2 130.382 11.1498 15.9406
155 2 134.155 11.3631 0.246207
156 2 138.098 11.2945 0.0418722
157 2 141.976 11.2302 15.8082
158 2 145.844 11.2455 15.8315
159 2 149.943 11.114 15.6448
160 2 153.814 11.1598 15.8238
161 2 157.763 15.2701 -0.134742
162 2 3.58697 15.2836 0.0706845
163 2 7.58853 15.3747 0.188292
164 2 11.8196 15.4525 15.8259
165 2 15.7378 15.3248 15.9844
166 2 19.619 15.5719 0.219672
167 2 23.6557 15.4856 0.212683
168 2 27.6709 15.5852 15.8266
169 2 31.6628 15.5588 15.7365
170 2 35.5521 15.6592 -0.0534268
171 2 39.478 15.6567 15.6872
172 2 43.5504 15.6939 0.0673458
173 2 47.5614 15.4978 0.00244322
174 2 51.5891 15.6742 -0.0202235
175 2 55.7035 15.9145 15.8975
176 2 59.6996 15.8698 0.277485
177 2 63.6629 15.8735 0.426706
178 2 67.4154 15.7023 0.299576
179 2 71.6414 15.8617 -0.0171647
180 2 75.5163 16.0058 15.8181
181 2 79.4975 15.9898 0.128032
182 2 83.3985 15.8757 0.268752
183 2 87.3375 15.6972 0.0394628
184 2 91.2928 15.6483 0.21344
185 2 95.0217 15.6675 0.0935483
186 2 98.9454 15.7599 0.186843
187 2 103.017 15.6411 -0.0259562
188 2 106.723 15.6434 -0.00891622
189 2 110.81 15.5259 0.0740712
190 2 114.751 15.4819 0.0971193
191 2 118.677 15.4817 0.0927196
192 2 122.692 15.4651 15.7199
193 2 126.519 15.3151 0.0624387
194 2 130.243 15.396 0.134241
195 2 134.321 15.1945 0.0753943
196 2 138.18 15.176 0.0915088
197 2 142.108 15.1999 0.244015
198 2 145.966 15.2682 0.132006
199 2 149.943 15.3018 15.7885
200 2 154.002 15.1817 -0.00489483
201 2 157.744 19.1698 15.7416
202 2 3.62924 19.2095 0.277532
203 2 7.61589 19.0937 15.7881
204 2 11.652 19.486 15.8619
205 2 15.501 19.2423 15.8399
206 2 19.7845 19.2445 0.0326692
207 2 23.7412 19.344 -0.00969263
208 2 27.5695 19.5997 0.0423555
209 2 31.5505 19.5229 15.88
210 2 35.6841 19.4949 15.9465
211 2 39.5378 19.4924 0.153102
212 2 43.6826 19.615 16.0798
213 2 47.7304 19.4901 15.955
214 2 51.5742 19.661 16.0676
215 2 55.5677 19.8699 15.9623
216 2 59.5477 19.6967 15.8659
217 2 63.5489 19.8151 15.9933
218 2 67.647 19.5085 15.8721
219 2 71.5989 19.6974 0.0703393
220 2 75.5322 19.8219 0.0539921
221 2 79.5814 19.9416 0.0954354
222 2 83.4357 19.9434 -0.0284543
223 2 87.3901 19.6194 15.7947
224 2 91.2703 19.8526 0.306452
225 2 95.1591 19.5016 -0.0316163
226 2 98.8764 19.734 15.8033
227 2 102.913 19.7454 15.8914
228 2 106.825 19.6336 15.7546
229 2 110.913 19.5481 -0.178125
230 2 114.939 19.5566 -0.0736203
231 2 118.61 19.387 15.6892
232 2 122.647 19.27 0.0423215
233 2 126.583 19.3815 0.0650552
234 2 130.579 19.3731 0.0968257
235 2 134.3 19.2138 15.8259
236 2 138.025 19.216 15.9433
237 2 142.171 19.1135 -0.101972
238 2 146.189 19.1908 0.11919
239 2 149.924 19.3119 0.34437
240 2 153.864 19.1366 15.8848
241 2 157.663 23.0383 15.9516
242 2 3.37911 23.086 15.5752
243 2 7.33599 23.021 0.0614288
244 2 11.4128 23.139 15.6659
245 2 15.3568 23.2907 15.8105
246 2 19.4673 23.1509 0.0105954
247 2 23.5756 23.1807 15.8034
248 2 27.3604 23.4562 15.9421
249 2 31.3166 23.4946 0.0307076
250 2 35.495 23.3191 16.0296
251 2 39.5204 23.5523 0.204172
252 2 43.6736 23.5241 16.0628
253 2 47.5813 23.4675 15.9696
254 2 51.4673 23.6837 0.12466
255 2 55.3697 23.6859 15.8849
256 2 59.5841 23.6189 16.0773
257 2 63.441 23.6822 15.9848
258 2 67.369 23.4683 0.168427
259 2 71.4453 23.8011 0.198467
260 2 75.5065 23.7316 -0.0166419
261 2 79.5436 23.8505 15.8484
262 2 83.4171 23.6169 15.8344
263 2 87.4777 24.042 0.193096
264 2 91.2679 23.7277 15.8777
265 2 95.2196 23.7483 15.8858
266 2 99.032 23.8087 0.145742
267 2 102.909 23.5696 0.112257
268 2 106.978 23.7006 0.0508668
269 2 110.897 23.522 0.145541
270 2 114.941 23.5667 15.7414
271 2 118.801 23.5408 15.7399
272 2 122.593 23.2411 0.1242
273 2 126.409 23.5828 0.172896
274 2 130.528 23.4432 15.7822
275 2 134.437 23.3198 0.170797
276 2 138.37 23.2953 15.8309
277 2 142.142 23.1591 -0.014823
278 2 146.071 23.0028 0.0619787
279 2 150.023 23.0388 0.0767553
280 2 153.97 23.0817 0.101366
281 2 157.97 27.1048 0.224437
282 2 3.60368 27.2124 16.1926
283 2 7.40702 26.8598 0.136664
284 2 11.578 27.1293 16.1786
285 2 15.466 26.9139 15.8703
286 2 19.53 27.306 0.350221
287 2 23.4039 27.0904 -0.154143
288 2 27.4903 27.2834 0.09794
289 2 31.5152 27.2226 15.7983
290 2 35.3852 27.243 0.180778
291 2 39.4548 27.2212 0.373443
292 2 43.5985 27.3149 16.0972
293 2 47.4565 27.3986 0.314811
294 2 51.5056 27.5491 0.297788
295 2 55.5449 27.7491 0.185814
296 2 59.4806 27.5396 0.176433
297 2 63.3657 27.6049 0.201195
298 2 67.2583 27.4471 0.24669
299 2 71.4654 27.6006 0.181229
300 2 75.3488 27.7665 15.9136
301 2 79.4297 27.6699 0.0615334
302 2 83.5094 27.7203 15.9996
303 2 87.4222 27.8317 0.219389
304 2 91.5239 27.8167 15.7958
305 2 95.332 27.4764 16.0277
306 2 99.2264 27.6833 0.269311
307 2 102.959 27.5249 0.0652273
308 2 107.009 27.7238 15.8498
309 2 110.804 27.5838 0.00227951
310 2 114.639 27.4085 15.8977
311 2 118.714 27.3879 15.8944
312 2 122.584 27.4145 0.0424444
313 2 126.461 27.3656 0.16226
314 2 130.409 27.3651 0.188143
315 2 134.407 27.4599 15.7992
316 2 138.463 27.2657 0.0297052
317 2 142.226 27.0266 0.26979
318 2 146.27 27.1584 -0.0516984
319 2 150.061 27.2196 0.0289006
320 2 153.921 27.2306 15.9583
321 2 157.97 31.147 16.0519
322 2 3.71562 30.9775 0.250317
323 2 7.59238 31.0955 0.284949
324 2 11.3197 31.0918 15.8304
325 2 15.2665 31.086 0.0307069
326 2 19.386 31.0143 15.8228
327 2 23.4437 31.0876 15.6693
328 2 27.3126 31.1037 0.0253466
329 2 31.3989 31.4194 0.149228
330 2 35.4716 31.1803 15.9307
331 2 39.4919 31.2397 16.1132
332 2 43.3734 31.3761 0.340541
333 2 47.2554 31.355 15.9554
334 2 51.2788 31.4185 16.2075
335 2 55.2785 31.4978 0.240997
336 2 59.3324 31.505 0.2507
337 2 63.2011 31.4799 15.938
338 2 67.3287 31.6461 -0.0598191
339 2 71.4485 31.6809 15.7651
340 2 75.3503 31.6838 0.13669
341 2 79.447 31.6462 0.255438
342 2 83.2977 31.798 15.8359
343 2 87.3072 31.7249 0.141812
344 2 91.3959 31.6814 0.225621
345 2 95.2909 31.7648 0.0947793
346 2 99.2612 31.7901 -0.0518248
347 2 103.043 31.7158 15.8669
348 2 106.808 31.6474 0.232884
349 2 110.899 31.5962 16.0962
350 2 114.89 31.6529 0.0870677
351 2 118.715 31.4041 15.814
352 2 122.598 31.4627 0.161772
353 2 126.7 31.4654 0.0274911
354 2 130.645 31.3079 0.117736
355 2 134.63 31.2053 0.0039945
356 2 138.485 31.2841 15.9053
357 2 142.228 31.1557 15.8991
358 2 146.264 31.2537 16.146
359 2 150.197 31.1488 15.8954
360 2 154.082 31.1274 16.0496
361 2 158.119 35.1061 15.795
362 2 3.59274 34.9728 0.149103
363 2 7.44568 34.981 0.0819231
364 2 11.4677 35.0544 15.9065
365 2 15.4106 35.067 0.0471916
366 2 19.3595 34.9715 15.8084
367 2 23.0878 35.0542 15.7166
368 2 27.5073 35.1905 0.208801
369 2 31.3796 34.9855 0.0447884
370 2 35.2163 34.9022 15.9932
371 2 39.4806 35.1179 0.157396
372 2 43.3052 35.2713 16.0072
373 2 47.3271 35.2171 15.8961
374 2 51.4108 35.3586 0.28418
375 2 55.3794 35.5671 15.9884
376 2 59.298 35.3792 0.402152
377 2 63.3263 35.3259 0.163273
378 2 67.0964 35.2462 0.0485212
379 2 71.3312 35.5049 0.296764
380 2 75.2398 35.648 15.9
381 2 79.3083 35.4997 15.8463
382 2 83.3553 35.5525 0.0770289
383 2 87.2574 35.7736 0.17896
384 2 91.355 35.669 15.8443
385 2 95.1577 35.6936 15.88
386 2 99.2681 35.6853 0.180646
387 2 103.216 35.7162 16.304
388 2 106.962 35.587 0.358476
389 2 111.007 35.4791 16.12
390 2 114.663 35.7158 0.0455569
391 2 118.872 35.6854 15.9496
392 2 122.737 35.6058 15.8667
393 2 126.867 35.2809 0.0908824
394 2 130.642 35.3818 0.210469
395 2 134.578 35.2339 15.8152
396 2 138.4 35.2214 16.1262
397 2 142.337 35.1349 15.8352
398 2 146.379 35.1599 15.8001
399 2 150.24 35.1316 -0.124993
400 2 154.032 35.2221 0.0223025
401 2 158.034 39.0997 0.20295
402 2 3.83084 38.9858 16.1565
403 2 7.61054 38.9546 16.1047
404 2 11.411 39.0733 0.193634
405 2 15.5537 39.0466 -0.105012
406 2 19.2026 38.9512 15.9215
407 2 23.3423 38.9161 15.9076
408 2 27.2436 38.9094 0.108201
409 2 31.3197 39.0368 16.0151
410 2 35.1844 39.1314 0.278958
411 2 39.1721 38.8756 0.185137
412 2 43.605 39.1699 0.156448
413 2 47.4007 39.2517 0.360892
414 2 51.395 39.271 0.343851
415 2 55.3231 39.362 0.242104
416 2 59.2679 39.2713 0.17867
417 2 63.1746 39.2703 15.9525
418 2 67.2134 39.3633 0.204372
419 2 71.0114 39.5413 8.25779e-05
420 2 75.1263 39.4685 0.180506
421 2 79.1679 39.5791 16.0489
422 2 83.2401 39.5768 16.0264
423 2 87.1475 39.7252 15.967
424 2 91.4053 39.6752 15.9125
425 2 95.3346 39.6313 15.8902
426 2 99.365 39.6088 0.167883
427 2 103.292 39.5827 0.233727
428 2 107.363 39.5553 16.0584
429 2 110.99 39.7275 16.0136
430 2 114.889 39.6345 16.1275
431 2 118.881 39.6273 16.0142
432 2 122.902 39.2513 0.273669
433 2 126.697 39.3435 15.88
434 2 130.442 39.2859 0.158153
435 2 134.489 39.3032 0.199928
436 2 138.506 39.0938 16.0016
437 2 142.22 39.1505 15.7989
438 2 146.422 39.2024 -0.062055
439 2 150.175 39.2016 15.8094
440 2 154.12 39.3855 -0.00180467
441 2 158.225 43.1065 0.185788
442 2 3.59372 42.9449 0.194247
443 2 7.73042 43.0189 0.0350889
444 2 11.5965 42.7989 0.177705
445 2 15.2898 43.0282 0.202587
446 2 19.5468 42.9939 15.8248
447 2 23.3809 42.9745 0.135758
448 2 27.2187 42.9079 0.289021
449 2 31.4024 42.8334 0.107705
450 2 35.0916 42.7585 0.174034
451 2 39.3145 42.8888 0.184889
452 2 43.2622 43.1112 0.195541
453 2 47.3049 42.9006 0.339925
454 2 51.2305 43.2123 0.373147
455 2 55.441 43.2811 0.187497
456 2 59.2766 43.2807 0.282191
457 2 63.1939 43.1546 0.411921
458 2 67.1429 43.2258 15.9974
459 2 71.1249 43.3082 16.0428
460 2 75.3206 43.2917 0.214729
461 2 79.3069 43.6001 0.391586
462 2 83.3127 43.4362 15.8904
463 2 87.1604 43.3903 15.8964
464 2 91.2781 43.4115 16.0464
465 2 95.3482 43.4993 0.19409
466 2 99.4179 43.6201 0.114569
467 2 103.217 43.502 0.332088
468 2 107.225 43.8864 0.336678
469 2 111.03 43.6968 15.983
470 2 115.156 43.6031 16.1055
471 2 119.099 43.4477 0.558319
472 2 122.971 43.4156 0.105433
473 2 126.885 43.3244 0.227792
474 2 130.535 43.1922 0.119312
475 2 134.399 43.2631 16.0801
476 2 138.541 43.3649 15.7415
477 2 142.511 43.214 15.8208
478 2 146.303 43.1175 15.9531
479 2 150.377 43.1019 0.238703
480 2 154.297 43.1472 15.9184
481 2 158.073 47.1376 15.9854
482 2 3.83282 47.0125 15.9453
483 2 7.75918 47.086 15.9524
484 2 11.5666 46.9589 16.0588
485 2 15.5366 46.9666 0.0808689
486 2 19.3978 46.7985 16.0092
487 2 23.5359 46.9477 0.269673
488 2 27.3836 46.8671 0.0570872
489 2 31.1933 46.8792 0.31885
490 2 35.2581 46.8471 0.322913
491 2 39.2828 46.8144 0.141724
492 2 43.3576 46.8901 0.23459
493 2 47.1727 46.9504 16.2306
494 2 51.2162 47.1368 16.1086
495 2 55.2668 47.2076 0.31539
496 2 59.2955 47.2368 16.1428
497 2 63.1899 47.1956 0.0937743
498 2 67.0923 47.2332 0.162096
499 2 71.2189 47.3599 0.301977
500 2 75.1941 47.2153 16.1245
501 2 79.1251 47.3498 15.9393
502 2 83.1574 47.3586 0.0278871
503 2 87.0134 47.5721 0.154534
504 2 91.3401 47.1356 15.8475
505 2 95.0899 47.3012 0.261738
506 2 99.2914 47.6156 0.368385
507 2 103.242 47.5294 15.865
508 2 107.129 47.7518 -0.0322988
509 2 110.981 47.6598 16.0017
510 2 115.049 47.763 16.2107
511 2 118.971 47.4585 0.203965
512 2 123.004 47.3816 0.309923
513 2 127.048 47.3258 0.190252
514 2 130.919 47.3608 0.274947
515 2 134.673 47.1708 16.0266
516 2 138.562 47.1449 0.185825
517 2 142.624 47.2681 16.0249
518 2 146.453 47.116 0.440081
519 2 150.43 47.0227 15.7917
520 2 154.257 47.3079 0.352428
521 2 158.207 50.9742 0.330532
522 2 3.85571 51.0426 0.0862411
523 2 7.73809 51.0393 0.127764
524 2 11.9051 50.9918 15.9191
525 2 15.749 50.8899 0.0619881
526 2 19.5153 50.8346 0.478314
527 2 23.5593 50.968 0.273193
528 2 27.3999 50.6732 15.9088
529 2 31.3323 50.7102 15.8768
530 2 35.4475 50.7155 0.21032
531 2 39.3678 50.7483 16.0648
532 2 43.2001 50.9988 0.273564
533 2 47.1063 51.0181 0.311744
534 2 51.2414 51.0335 16.0711
535 2 55.18 51.0715 15.9453
536 2 59.0465 51.3662 16.0471
537 2 63.0384 51.1537 0.184011
538 2 67.0572 51.1152 0.255209
539 2 71.1405 51.3405 16.029
540 2 74.9818 51.1241 0.232877
541 2 79.0885 51.2754 15.8226
542 2 83.2703 51.4384 15.8728
543 2 87.1742 51.2414 15.839
544 2 91.2201 51.2974 0.143372
545 2 95.0757 51.5782 -0.0304276
546 2 99.3896 51.4946 15.8643
547 2 103.163 51.4312 0.212437
548 2 107.255 51.6959 15.954
549 2 111.12 51.6036 0.268654
550 2 115.03 51.4983 0.238178
551 2 119.149 51.3894 0.171335
552 2 122.857 51.3894 0.145284
553 2 127.04 51.382 15.7255
554 2 130.74 51.2365 0.410936
555 2 134.671 51.3572 15.9475
556 2 138.707 51.1659 0.432467
557 2 142.437 51.1597 16.0638
558 2 146.396 51.1583 15.8746
559 2 150.464 51.1874 0.015754
560 2 154.229 51.0566 0.0914847
561 2 158.351 55.0507 0.270151
562 2 4.00042 55.0711 0.127628
563 2 7.91024 55.1843 0.160264
564 2 11.7395 54.8222 15.9449
565 2 15.6827 54.9127 16.0687
566 2 19.5916 54.9383 15.8342
567 2 23.6896 55.0439 15.9345
568 2 27.5491 54.7752 15.8434
569 2 31.5374 54.9172 0.0704982
570 2 35.3176 54.7507 16.0223
571 2 39.0897 54.7463 0.337882
572 2 43.0794 54.9283 16.1463
573 2 47.249 54.8507 15.942
574 2 51.1908 54.943 15.9995
575 2 55.0692 54.9533 0.192522
576 2 58.9814 55.1656 0.378825
577 2 62.8852 54.984 16.0083
578 2 67.1178 54.9541 0.205857
579 2 71.3096 55.277 16.1587
580 2 75.2655 55.3116 16.1313
581 2 79.0421 54.9192 15.9539
582 2 83.0759 55.2293 15.9059
583 2 87.1737 55.1172 0.128186
584 2 91.2618 55.1976 0.231418
585 2 95.1225 55.1926 0.267988
586 2 99.0089 55.3871 15.8729
587 2 103.165 55.5844 0.267479
588 2 107.106 55.5458 0.156701
589 2 111.239 55.5484 15.888
590 2 115.251 55.602 0.308635
591 2 119.206 55.3976 0.402451
592 2 123.089 55.5298 0.351459
593 2 127.145 55.4928 15.9663
594 2 131.034 55.1634 15.9309
595 2 134.863 55.3025 15.8071
596 2 138.84 55.2844 0.474159
597 2 142.732 55.2451 0.108247
598 2 146.518 55.1905 15.9961
599 2 150.354 55.086 15.861
600 2 154.377 55.1173 0.256234
601 2 0.078164 58.9007 0.157127
602 2 3.76434 58.9888 0.255543
603 2 7.9304 59.0081 0.276084
604 2 11.7691 58.9412 15.8202
605 2 15.9067 59.023 0.175231
606 2 19.8174 59.0119 16.1416
607 2 23.6474 58.8919 15.9332
608 2 27.3484 58.8651 0.142176
609 2 31.1419 58.7977 15.9754
610 2 35.1683 58.7415 0.261268
611 2 39.1507 58.7917 0.19607
612 2 43.1193 58.7655 16.0026
613 2 47.0248 58.8289 0.185804
614 2 51.0653 58.901 16.0538
615 2 55.0228 58.9589 16.09
616 2 59.0489 59.1184 16.2505
617 2 63.0982 58.9619 0.37476
618 2 67.1189 59.0227 15.9972
619 2 71.2021 58.9871 0.0836006
620 2 75.1514 59.1524 0.211185
621 2 79.1541 59.0779 15.9986
622 2 82.9727 59.2175 15.7932
623 2 87.0866 59.059 0.0360882
624 2 91.1346 59.144 0.167151
625 2 95.1542 59.0649 0.0594117
626 2 99.0424 59.2228 15.8226
627 2 103.182 59.2819 0.187054
628 2 107.286 59.2704 0.245657
629 2 111.182 59.387 0.386135
630 2 115.218 59.5134 0.0485942
631 2 119.207 59.4816 0.2761
632 2 123.052 59.4635 0.211761
633 2 127.431 59.3441 0.260899
634 2 131.052 59.2632 16.0307
635 2 134.924 59.2636 0.154553
636 2 138.669 59.2455 0.175808
637 2 142.767 59.1732 15.946
638 2 146.779 59.264 0.136735
639 2 150.652 59.2388 0.358931
640 2 154.401 58.9999 0.347144
641 2 0.336992 63.1238 16.04
642 2 3.97197 62.9589 15.8711
643 2 7.97376 63.0944 0.0522847
644 2 11.6252 63.0203 0.0583901
645 2 15.601 62.9332 15.7476
646 2 19.6854 62.8944 15.9762
647 2 23.5138 62.9733 15.9757
648 2 27.4376 62.9722 0.237588
649 2 31.4306 62.6917 15.857
650 2 35.3102 62.8086 15.9456
651 2 39.2385 62.7999 0.140465
652 2 43.042 62.7477 0.206734
653 2 47.2104 62.792 15.9715
654 2 50.9696 62.7393 0.298646
655 2 55.067 62.8908 0.316043
656 2 59.0245 62.8191 0.148298
657 2 63.116 62.8696 0.238838
658 2 67.1128 62.8656 0.31354
659 2 70.9098 62.8728 0.254267
660 2 74.9757 63.0801 15.9718
661 2 78.9484 62.9261 15.9582
662 2 83.099 63.1214 16.0733
663 2 86.9864 63.258 0.136267
664 2 91.1324 63.0909 15.9336
665 2 95.1554 63.1569 0.269677
666 2 98.9621 63.018 0.0761592
667 2 103.115 63.1725 -0.00568182
668 2 107.167 63.4057 0.247847
669 2 111.113 63.4274 0.170244
670 2 115.298 63.3065 0.349812
671 2 119.141 63.3361 16.1729
672 2 123.331 63.5419 16.076
673 2 127.13 63.4543 16.2638
674 2 131.176 63.2635 0.312716
675 2 135.008 63.2485 15.8893
676 2 138.962 63.3426 0.171937
677 2 142.943 63.2539 0.171095
678 2 146.477 63.3273 0.138674
679 2 150.614 63.0487 16.143
680 2 154.645 63.139 16.1154
681 2 0.211612 67.1325 0.0282276
682 2 4.27106 67.1243 0.125319
683 2 7.87149 66.8504 0.203811
684 2 11.9314 66.9599 15.8276
685 2 15.7651 66.9605 15.9045
686 2 19.5924 66.9191 15.8296
687 2 23.4709 66.9454 15.8805
688 2 27.4072 66.8994 16.0267
689 2 31.5273 66.7223 0.222422
690 2 35.2587 66.688 -0.0195705
691 2 39.4406 66.9315 0.137596
692 2 43.1408 66.7905 15.7912
693 2 47.0884 66.6931 0.15542
694 2 51.0671 66.5401 16.0324
695 2 54.987 66.7709 16.1092
696 2 59.0815 66.7058 16.0213
697 2 63.1005 66.8976 15.9641
698 2 66.9302 66.8763 15.9764
699 2 70.9772 67.0085 0.314413
700 2 75.1254 66.8878 0.246709
701 2 79.0582 66.9963 15.8222
702 2 82.8189 66.9403 15.9852
703 2 86.9733 67.1532 15.9729
704 2 91.1732 67.0399 0.169603
705 2 95.0611 67.0616 15.8688
706 2 99.146 67.0864 15.7428
707 2 102.919 67.16 0.046094
708 2 107.11 67.1046 15.8549
709 2 111.202 67.2276 0.142296
710 2 114.989 67.0335 0.235386
711 2 119.31 67.2763 0.0555241
712 2 123.232 67.3309 15.889
713 2 127.361 67.2985 15.8753
714 2 130.896 67.198 15.9861
715 2 134.996 67.1444 15.8411
716 2 138.871 66.9681 15.9211
717 2 142.834 66.9457 15.8001
718 2 146.757 67.2456 0.204525
719 2 150.653 66.979 15.8406
720 2 154.655 67.0247 15.7944
721 2 0.164582 71.0528 15.8968
722 2 4.0744 71.0479 16.0256
723 2 8.06479 70.9163 0.153464
724 2 11.7803 71.0803 16.0559
725 2 15.6804 70.9286 16.0836
726 2 19.5124 70.8565 0.206918
727 2 23.4574 70.9334 15.9098
728 2 27.2454 70.8933 15.9447
729 2 31.2654 70.9089 15.99
730 2 35.2235 70.9794 16.1518
731 2 39.148 70.8263 16.1357
732 2 43.1534 70.7954 0.0969952
733 2 47.0244 70.6642 16.0267
734 2 51.054 70.5142 15.9755
735 2 54.8838 70.4769 16.1533
736 2 59.1428 70.7428 0.184515
737 2 63.0017 70.6928 15.9248
738 2 66.9393 70.7552 0.00839175
739 2 71.0347 70.8073 16.037
740 2 75.0516 70.9657 15.9918
741 2 78.9821 71.0645 16.0456
742 2 83.006 70.9483 0.297045
743 2 87.1896 70.8081 16.0904
744 2 91.1054 70.9686 0.106934
745 2 95.1814 71.0776 0.246389
746 2 99.0814 70.922 15.9404
747 2 103.056 71.1823 0.411419
748 2 106.841 71.0026 0.092945
749 2 111.116 70.9609 15.7528
750 2 115.243 71.0289 0.101189
751 2 118.983 71.3192 15.8729
752 2 123.326 71.1567 0.0243623
753 2 127.086 71.0949 15.7719
754 2 131.095 71.4668 15.859
755 2 135.138 71.2896 15.7918
756 2 138.886 71.1657 15.8383
757 2 142.596 70.9641 15.9391
758 2 146.725 71.1829 16.0048
759 2 150.579 70.9352 15.8609
760 2 154.653 70.9335 15.7033
761 2 0.1366 75.067 15.9141
762 2 4.17273 75.1545 15.8217
763 2 7.95592 75.2267 16.0259
764 2 11.7896 74.9707 16.1739
765 2 15.7428 75.1502 16.028
766 2 19.6237 75.0231 15.8057
767 2 23.611 75.1294 16.0505
768 2 27.5011 75.1056 16.0744
769 2 31.4881 74.9457 0.272726
770 2 35.2018 74.9036 15.74
771 2 39.1962 74.6756 15.8727
772 2 43.0812 74.7246 0.41476
773 2 47.1703 74.7087 16.0393
774 2 51.1735 74.3682 0.259513
775 2 55.0168 74.5482 16.0637
776 2 59.017 74.6469 16.0771
777 2 63.0246 74.6888 15.9952
778 2 66.9545 74.8073 15.8604
779 2 70.8839 74.5249 15.9811
780 2 74.993 74.7898 0.154419
781 2 78.8771 74.8841 15.97
782 2 83.0539 74.739 16.0597
783 2 86.948 74.6765 16.0841
784 2 91.1362 74.8513 0.202456
785 2 95.1786 75.0784 15.8735
786 2 98.9391 74.9904 0.0515894
787 2 102.748 74.9935 15.8104
788 2 107.236 74.8725 0.0249453
789 2 111.242 75.0096 15.8545
790 2 115.035 75.0094 0.142937
791 2 119.178 75.0518 15.8147
792 2 123.119 74.9646 15.7499
793 2 127.092 75.0938 0.277799
794 2 131.294 75.4171 0.0184778
795 2 135.026 75.3383 15.8452
796 2 138.931 75.3663 15.7897
797 2 142.711 75.0911 0.202483
798 2 146.601 75.1947 15.7631
799 2 150.613 75.1412 15.7931
800 2 154.619 75.0112 0.362523
801 2 0.122402 79.0868 15.9905
802 2 3.96982 79.0969 15.8458
803 2 8.18391 79.1069 15.9501
804 2 12.0171 79.1367 15.9659
805 2 15.9025 79.1526 15.951
806 2 19.8389 79.05 16.0075
807 2 23.6963 79.047 15.9015
808 2 27.557 79.0269 15.6682
809 2 31.5753 78.8784 -0.0497275
810 2 35.3462 78.7947 15.725
811 2 39.2252 78.6364 0.163066
812 2 43.2133 78.7318 0.271753
813 2 46.9736 78.766 0.326213
814 2 50.8432 78.483 16.0028
815 2 54.9556 78.4714 15.898
816 2 58.807 78.558 16.1239
817 2 62.8326 78.7523 15.9184
818 2 67.0191 78.6537 15.9324
819 2 70.9721 78.5986 15.917
820 2 74.9858 78.653 16.1728
821 2 79.0693 78.7062 0.188358
822 2 82.9183 78.8438 0.376069
823 2 86.9549 78.7502 0.361342
824 2 91.0569 78.7646 0.214947
825 2 95.156 78.7637 0.160256
826 2 99.136 78.8711 15.9666
827 2 103.108 78.9565 0.136918
828 2 107.209 78.8168 15.9452
829 2 111.118 78.7812 0.157292
830 2 115.299 78.786 15.9966
831 2 119.064 78.9223 0.28482
832 2 122.958 78.9796 0.213534
833 2 127.059 79.0782 16.0323
834 2 131.277 79.1124 0.133505
835 2 135.113 79.3136 15.8676
836 2 139.024 79.2624 15.8326
837 2 143.062 79.2519 15.9584
838 2 146.863 79.1317 15.7577
839 2 150.645 78.9981 16.069
840 2 154.64 79.1184 15.9338
841 2 0.139207 83.076 15.7948
842 2 4.1033 83.0301 15.8954
843 2 8.00673 83.1221 16.0465
844 2 12.0153 83.2152 16.0968
845 2 15.9656 82.9968 16.0407
846 2 19.8673 83.0735 16.015
847 2 23.7668 83.2012 15.8323
848 2 27.8644 83.0687 15.9879
849 2 31.4598 82.9365 15.7551
850 2 35.2567 82.94 15.9573
851 2 39.2861 82.9147 0.150043
852 2 43.4326 82.6452 15.9634
853 2 47.3291 82.8865 15.95
854 2 51.1508 82.6165 15.9419
855 2 55.1411 82.5922 15.8763
856 2 59.1495 82.3965 15.8524
857 2 62.9862 82.3756 15.7933
858 2 67.0015 82.5941 0.202395
859 2 71.011 82.4235 0.336515
860 2 74.8805 82.7296 16.072
861 2 78.7705 82.5083 0.121689
862 2 82.9112 82.5733 16.0175
863 2 86.9723 82.6596 16.0326
864 2 90.9975 82.7188 0.236428
865 2 95.0543 82.6655 15.9878
866 2 99.0034 82.8143 15.8695
867 2 103.025 82.5897 0.0348258
868 2 107.167 82.528 0.0299315
869 2 111.111 82.762 15.9854
870 2 115.002 82.8655 16.1257
871 2 119.039 82.8647 0.296525
872 2 123.152 82.9936 15.8872
873 2 127.255 82.9767 0.241358
874 2 131.149 83.1328 15.8059
875 2 135.172 83.0488 0.00955888
876 2 139.115 83.2595 16.1816
877 2 142.961 83.3308 0.45454
878 2 147.007 83.1431 0.24368
879 2 150.776 83.1553 15.8907
880 2 154.639 83.0851 15.9476
881 2 0.219106 87.225 15.9752
882 2 4.17842 87.1259 0.373793
883 2 8.14809 87.2285 16.0541
884 2 12.0108 87.1186 15.8817
885 2 16.0565 87.076 0.0844431
886 2 20.0164 87.0931 16.139
887 2 23.8693 87.0073 16.0948
888 2 27.5927 86.8784 16.1147
889 2 31.7236 86.9011 16.1036
890 2 35.5663 86.892 16.0475
891 2 39.5075 86.8685 16.2105
892 2 43.3758 86.7858 16.0554
893 2 47.1685 86.745 0.0688208
894 2 51.1546 86.4673 0.0596416
895 2 55.0282 86.6429 0.351365
896 2 59.045 86.405 15.7912
897 2 62.8583 86.5678 15.784
898 2 66.8879 86.4641 0.0263973
899 2 70.9707 86.4479 0.192496
900 2 74.9343 86.4173 16.1339
901 2 78.8843 86.4586 0.350883
902 2 82.9664 86.4459 0.299073
903 2 87.0873 86.5933 15.9973
904 2 91.0512 86.4465 0.32429
905 2 95.0411 86.613 16.0003
906 2 99.0737 86.6508 15.9057
907 2 103.066 86.6322 0.0571807
908 2 106.924 86.5277 0.141601
909 2 110.941 86.6441 15.8649
910 2 114.909 86.9286 0.0525961
911 2 118.903 86.8125 0.0370997
912 2 123.005 86.8561 0.0219785
913 2 127.042 86.8783 15.9364
914 2 131.04 87.1336 0.0594977
915 2 134.921 87.1404 16.0143
916 2 138.885 87.2726 0.275248
917 2 143.145 87.4228 0.210913
918 2 146.846 87.383 0.010417
919 2 150.61 87.1493 15.9222
920 2 154.656 87.1956 15.8474
921 2 0.294566 91.1725 15.9694
922 2 4.16975 91.1648 0.117969
923 2 8.05371 91.3378 0.233872
924 2 12.0983 91.2895 0.126674
925 2 15.9993 91.0452 15.9389
926 2 20.0461 91.0629 16.0166
927 2 23.9084 90.9519 15.977
928 2 27.7979 91.0291 15.873
929 2 31.7558 90.861 15.8823
930 2 35.6355 90.9779 15.9236
931 2 39.578 90.8149 15.9088
932 2 43.3239 90.807 0.27242
933 2 47.3939 90.677 15.9723
934 2 51.3101 90.627 15.7633
935 2 55.292 90.514 15.8387
936 2 59.1454 90.5323 15.8811
937 2 62.941 90.5655 0.0675718
938 2 66.9255 90.3098 15.9003
939 2 71.0908 90.4073 15.9458
940 2 74.8286 90.4762 15.7371
941 2 78.8851 90.4135 0.223184
942 2 82.8666 90.5505 0.401444
943 2 86.9483 90.6075 15.7696
944 2 90.8535 90.3636 0.277086
945 2 94.9329 90.613 0.366292
946 2 98.8913 90.6956 0.0469401
947 2 103.04 90.5081 0.161092
948 2 107.125 90.6104 0.148505
949 2 110.83 90.6462 15.8393
950 2 115.008 90.7872 -0.0826232
951 2 119.067 90.8435 0.166355
952 2 123.059 90.7635 0.0585974
953 2 126.997 90.7744 0.0669486
954 2 131.096 90.9383 15.8759
955 2 135.022 91.1174 0.448512
956 2 139.096 90.9868 0.207672
957 2 142.852 91.2969 0.285612
958 2 147.117 91.2617 0.0755535
959 2 150.934 91.1798 15.8602
960 2 154.813 91.1986 0.0203249
961 2 0.132961 95.2939 16.1433
962 2 4.23859 95.1076 16.0446
963 2 8.13194 95.1236 0.345511
964 2 12.22 94.9516 15.9634
965 2 16.1282 95.2656 15.8996
966 2 19.9185 94.9796 15.923
967 2 23.9473 95.0469 15.9023
968 2 27.8858 94.7607 15.8478
969 2 31.8635 94.8683 16.0587
970 2 35.8742 94.9313 0.0723693
971 2 39.6798 94.7131 15.8354
972 2 43.5028 94.7235 15.8584
973 2 47.2471 94.7323 15.896
974 2 51.3065 94.6293 0.350456
975 2 55.1655 94.5445 15.9439
976 2 59.1254 94.4428 16.0567
977 2 63.0745 94.4392 15.9112
978 2 67.1299 94.4526 0.135692
979 2 71.0435 94.4094 0.201172