ITEM: TIMESTEP
15100
ITEM: NUMBER OF ATOMS
32000
ITEM: BOX BOUNDS xy xz yz pp pp pp
0.0000000000000000e+00 1.5831999999999999e+02 0.0000000000000000e+00
0.0000000000000000e+00 1.5831999999999999e+02 0.0000000000000000e+00
1.6606136473640554e-01 1.5931650635263349e+01 0.0000000000000000e+00
ITEM: ATOMS id type x y z
1 2 158.025 157.943 15.7991
2 2 3.79382 157.923 -0.12216
3 2 7.84705 157.988 0.261451
4 2 11.7101 157.94 16.0293
5 2 15.8662 158.064 0.0859741
6 2 19.8686 158.093 0.10838
7 2 24.031 158.013 15.8946
8 2 27.8767 158.099 -0.0452139
9 2 31.8776 158.326 15.8862
10 2 35.916 158.32 0.295021
11 2 39.9497 158.201 0.252708
12 2 43.8935 158.43 16.0811
13 2 47.6153 -0.123101 16.0916
14 2 51.6953 -0.0596302 15.8865
15 2 55.8184 158.437 15.9044
16 2 59.7017 0.0463505 15.9616
17 2 63.4302 -0.0499792 0.0135489
18 2 67.5761 -0.0856374 0.157473
19 2 71.5122 158.312 15.855
20 2 75.2797 158.162 15.9258
21 2 79.2726 158.119 16.0128
22 2 83.188 158.252 0.118228
23 2 87.183 158.099 0.175252
24 2 91.1982 158.139 0.133655
25 2 94.9822 158.115 -0.0685552
26 2 98.8716 157.989 0.0489848
27 2 102.683 157.933 0.13042
28 2 106.485 157.894 15.8982
29 2 110.488 157.856 -0.0148764
30 2 114.518 157.775 0.229689
31 2 118.371 157.818 0.255818
32 2 122.059 157.702 15.8526
33 2 126.286 157.741 16.1061
34 2 130.162 157.62 15.8813
35 2 134.055 157.542 15.9283
36 2 138.018 157.611 15.9235
37 2 141.904 157.649 16.0423
38 2 145.928 158.045 16.1055
39 2 150.006 157.985 16.0573
40 2 154.061 157.864 16.1633
41 2 158.09 3.44382 0.113805
42 2 3.73329 3.5532 15.9471
43 2 7.75055 3.59272 0.275892
44 2 11.9024 3.64478 0.149277
45 2 15.8703 3.78606 0.160876
46 2 19.8387 3.72631 15.9085
47 2 23.9662 3.68288 0.218527
48 2 27.8388 3.7792 0.141101
49 2 31.8643 3.93715 0.294317
50 2 35.8698 3.83132 0.0600191
51 2 39.8224 3.88403 0.195327
52 2 43.7591 3.85342 0.095446
53 2 47.838 3.7876 16.1636
54 2 51.8503 3.75955 0.279332
55 2 55.6995 4.05236 0.00246253
56 2 59.6349 4.03777 -0.0376169
57 2 63.5719 4.0006 15.7008
58 2 67.501 3.92562 -0.00949916
59 2 71.2682 3.83062 0.172971
60 2 75.3307 3.96532 0.277691
61 2 79.3281 3.80698 0.128056
62 2 83.2194 3.89718 0.0803312
63 2 87.3361 3.70866 0.131188
64 2 91.131 3.7916 0.200259
65 2 94.8918 3.77457 15.9069
66 2 98.8576 3.71539 0.244914
67 2 102.793 3.67765 0.196849
68 2 106.611 3.5573 15.9156
69 2 110.634 3.69654 15.7918
70 2 114.445 3.55005 15.8083
71 2 118.351 3.36176 15.8725
72 2 122.42 3.27807 -0.0183419
73 2 126.143 3.44987 16.0658
74 2 129.99 3.22368 0.12573
75 2 134.114 3.19825 16.1936
76 2 138.036 3.27372 0.382113
77 2 141.719 3.29077 15.9035
78 2 145.964 3.43952 0.173518
79 2 149.971 3.37413 15.9268
80 2 154.142 3.43347 16.0691
81 2 157.887 7.52869 0.126214
82 2 3.82834 7.44974 16.0539
83 2 7.8102 7.64771 15.9228
84 2 11.7062 7.53198 15.8065
85 2 15.6971 7.53864 0.125335
86 2 19.8623 7.6341 15.8624
87 2 23.741 7.79591 0.156573
88 2 27.9546 7.60408 0.128295
89 2 31.8988 7.70106 16.1069
90 2 35.7174 7.59859 16.0697
91 2 39.7794 7.53558 16.0868
92 2 43.7356 7.75368 16.0241
93 2 47.8216 7.72524 0.288113
94 2 51.7672 7.82681 15.7725
95 2 55.7022 7.94433 0.0370912
96 2 59.6635 7.95779 0.151496
97 2 63.5891 8.10018 0.282457
98 2 67.7115 7.94769 0.16936
99 2 71.4833 7.85296 0.126697
100 2 75.3469 8.0039 0.159449
101 2 79.322 8.01384 15.8434
102 2 83.2913 7.74357 0.254844
103 2 87.1265 7.77263 15.9749
104 2 91.0408 7.91095 0.0971147
105 2 95.0128 7.84678 -0.11691
106 2 99.0371 7.75829 0.0109745
107 2 102.913 7.63401 0.0977931
108 2 106.765 7.56324 0.253638
109 2 110.639 7.52498 0.157653
110 2 114.648 7.60066 0.217677
111 2 118.622 7.60953 0.0537973
112 2 122.447 7.34963 -0.0143182
113 2 126.357 7.18136 15.7875
114 2 130.264 7.34576 -0.00577292
115 2 134.031 7.38983 0.219621
116 2 138.18 7.33128 16.091
117 2 142.016 7.22875 16.0591
118 2 145.889 7.17126 0.19513
119 2 149.893 7.46429 15.5452
120 2 154.079 7.30113 15.9806
121 2 157.816 11.5083 -0.135941
122 2 3.59796 11.2727 0.145403
123 2 7.81908 11.5339 15.8988
124 2 11.6722 11.595 15.8873
125 2 15.8563 11.4731 15.8841
126 2 19.677 11.3676 0.0860745
127 2 23.6101 11.4558 0.230809
128 2 27.6114 11.6933 -0.00704245
129 2 31.7713 11.8405 0.269402
130 2 35.6176 11.8644 0.0404309
131 2 39.6571 11.7707 0.220961
132 2 43.5561 11.561 15.9179
133 2 47.7186 11.7912 16.0092
134 2 51.5772 11.7454 16.0494
135 2 55.6494 11.8474 0.300663
136 2 59.7124 11.789 15.992
137 2 63.4977 11.8955 0.025113
138 2 67.5689 11.8659 15.9672
139 2 71.6153 11.7975 0.0563772
140 2 75.5163 12.0644 -0.0512312
141 2 79.2612 11.907 0.0778338
142 2 83.1722 11.775 0.0340132
143 2 87.2433 11.5184 0.195533
144 2 91.293 11.8532 0.0822449
145 2 95.0953 11.6806 0.115399
146 2 98.9444 11.6632 0.161462
147 2 103.106 11.5192 0.062162
148 2 106.918 11.5496 0.00704858
149 2 110.717 11.4779 0.20401
150 2 114.386 11.4194 0.122793
151 2 118.395 11.6721 0.00799546
152 2 122.466 11.3059 0.250848
153 2 126.336 11.2427 0.102107
154 2 130.197 11.3628 15.6622
155 2 134.25 11.3224 -0.108176
156 2 138.097 11.2074 0.15411
157 2 142.09 11.1353 16.0547
158 2 145.933 11.3012 15.7843
159 2 149.783 11.4404 15.7876
160 2 153.885 11.291 15.7577
161 2 157.724 15.1699 0.0858152
162 2 3.6757 15.2214 0.237761
163 2 7.72594 15.2198 0.00442373
164 2 11.5738 15.3187 15.9351
165 2 15.7085 15.4203 15.8917
166 2 19.8017 15.165 0.230159
167 2 23.676 15.6411 0.0491002
168 2 27.6391 15.5262 15.7889
169 2 31.5508 15.6315 15.8931
170 2 35.6443 15.6693 0.115121
171 2 39.584 15.7782 16.1581
172 2 43.6629 15.6267 0.328959
173 2 47.4997 15.5944 0.203761
174 2 51.5616 15.6772 0.238238
175 2 55.5153 15.604 16.1285
176 2 59.4697 15.7731 0.276536
177 2 63.5325 15.7427 0.116324
178 2 67.8558 15.8629 0.188659
179 2 71.6003 15.8839 0.162259
180 2 75.523 15.8178 15.9632
181 2 79.4637 16.0152 0.192074
182 2 83.5342 15.7936 0.0165871
183 2 87.331 15.8155 0.0293959
184 2 91.0559 15.6742 0.0275732
185 2 95.0156 15.6717 0.108609
186 2 99.0834 15.563 0.00884681
187 2 102.843 15.6116 0.0519411
188 2 107.05 15.586 0.209669
189 2 110.757 15.6702 -0.046948
190 2 114.634 15.5263 0.247389
191 2 118.519 15.5607 0.111514
192 2 122.429 15.2838 15.934
193 2 126.351 15.2665 0.0871879
194 2 130.379 15.2803 0.112965
195 2 134.182 15.3758 -0.103211
196 2 138.245 15.3555 0.287625
197 2 142.008 15.2124 -0.0353504
198 2 146.142 15.266 -0.0200908
199 2 149.831 15.13 15.7357
200 2 153.682 15.1699 -0.0449584
201 2 158.006 19.0582 15.9152
202 2 3.63136 19.2419 -0.0205856
203 2 7.46221 19.1487 15.9233
204 2 11.4333 19.2531 15.877
205 2 15.7224 19.4372 16.0248
206 2 19.4586 19.3972 0.285776
207 2 23.4568 19.5821 0.24654
208 2 27.5722 19.4154 0.163048
209 2 31.5654 19.6305 15.7888
210 2 35.4081 19.6087 15.7835
211 2 39.5403 19.5784 0.184906
212 2 43.5634 19.5636 16.0284
213 2 47.6317 19.6541 15.9853
214 2 51.7069 19.6839 15.9345
215 2 55.6884 19.6537 16.0941
216 2 59.5255 19.7604 16.1057
217 2 63.5145 19.6616 16.0915
218 2 67.5058 19.8531 15.898
219 2 71.4738 19.7932 0.138132
220 2 75.652 19.9185 0.127513
221 2 79.4345 19.7318 0.00471346
222 2 83.5892 19.7798 0.227007
223 2 87.2882 19.8999 15.8613
224 2 91.2687 19.7187 -0.0732171
225 2 95.1091 19.8437 0.317414
226 2 99.0805 19.675 15.7026
227 2 103.051 19.5026 15.8209
228 2 106.84 19.5595 15.7893
229 2 110.815 19.7248 -0.0738178
230 2 114.729 19.4387 0.0576031
231 2 118.727 19.4222 15.9561
232 2 122.612 19.4278 0.0992419
233 2 126.446 19.3735 -0.0769913
234 2 130.246 19.3598 -0.104061
235 2 134.284 19.2496 15.8047
236 2 138.296 19.2716 15.6774
237 2 142.166 19.3148 0.220533
238 2 145.885 19.1652 0.0897972
239 2 149.951 19.059 0.0254465
240 2 153.681 19.2463 15.9636
241 2 158.003 23.1107 15.7875
242 2 3.57073 23.1402 16.1511
243 2 7.54585 22.9985 0.14988
244 2 11.4187 23.2749 16.0407
245 2 15.3949 23.3537 15.7599
246 2 19.4688 23.3021 0.255499
247 2 23.5223 23.4413 15.7348
248 2 27.5849 23.4044 15.7297
249 2 31.5635 23.5322 -0.0592861
250 2 35.5541 23.4908 15.9406
251 2 39.5901 23.2732 0.365417
252 2 43.4122 23.4028 16.1003
253 2 47.5439 23.4414 16.1646
254 2 51.5674 23.5447 0.261968
255 2 55.4425 23.6318 16.2731
256 2 59.3865 23.6377 15.9046
257 2 63.5563 23.6541 15.9517
258 2 67.5959 23.6252 0.0404646
259 2 71.6207 23.671 0.228331
260 2 75.5511 23.7373 0.144648
261 2 79.3956 23.821 15.8958
262 2 83.2057 23.8691 15.84
263 2 87.3047 23.7028 0.18437
264 2 91.3712 23.8649 16.0558
265 2 95.1673 23.6879 15.7292
266 2 99.1606 23.5999 0.0147924
267 2 103.193 23.6771 0.0670643
268 2 106.845 23.5801 -0.0659086
269 2 110.909 23.6745 -0.143641
270 2 114.855 23.418 15.7357
271 2 118.62 23.3577 15.8097
272 2 122.651 23.4967 0.0228859
273 2 126.57 23.2837 -0.0239735
274 2 130.512 23.3476 15.937
275 2 134.435 23.2706 0.0666345
276 2 138.309 23.3373 15.8725
277 2 142.264 23.1986 0.0494384
278 2 146.096 23.2741 0.10661
279 2 150 23.1526 0.0407879
280 2 153.875 23.0558 0.193826
281 2 157.961 27.0004 -0.0339642
282 2 3.44502 26.978 16.0035
283 2 7.39661 27.1496 0.210198
284 2 11.3898 27.026 15.783
285 2 15.5608 27.3314 15.8457
286 2 19.483 26.9457 0.0537849
287 2 23.4587 27.3538 0.103755
288 2 27.4504 27.3296 -0.00873507
289 2 31.4951 27.3319 15.8175
290 2 35.5506 27.4654 0.106262
291 2 39.5381 27.4293 0.200404
292 2 43.4098 27.327 16.0871
293 2 47.6138 27.3579 0.223237
294 2 51.4993 27.3983 0.308274
295 2 55.3923 27.3592 0.325288
296 2 59.3672 27.4138 0.205047
297 2 63.4437 27.7124 0.160735
298 2 67.3845 27.4139 0.00172507
299 2 71.4902 27.6017 0.205158
300 2 75.57 27.585 15.9014
301 2 79.4996 27.7846 0.168613
302 2 83.4105 27.7497 16.0277
303 2 87.3779 27.8118 -0.0718158
304 2 91.2217 27.8635 15.9823
305 2 95.1804 27.8693 15.8377
306 2 99.0708 27.589 -0.112303
307 2 102.962 27.8705 0.0912524
308 2 106.869 27.6025 15.8186
309 2 110.998 27.5562 0.162961
310 2 114.971 27.6054 15.8573
311 2 118.772 27.6446 15.7573
312 2 122.725 27.4247 0.170294
313 2 126.603 27.4616 -0.00698401
314 2 130.554 27.2466 0.126087
315 2 134.668 27.3105 15.8276
316 2 138.272 27.28 0.119926
317 2 142.232 27.3609 0.0616335
318 2 146.034 27.124 0.160262
319 2 150.022 26.9823 0.11863
320 2 153.946 27.1844 15.8141
321 2 158.045 31.0363 15.9845
322 2 3.4548 31.053 0.0664094
323 2 7.48688 31.0589 0.0146542
324 2 11.5314 31.095 15.7761
325 2 15.4041 30.8432 0.315179
326 2 19.2695 30.902 15.9963
327 2 23.2451 31.3083 15.8588
328 2 27.538 31.27 0.178704
329 2 31.3871 30.9796 0.123759
330 2 35.3503 31.2811 15.9758
331 2 39.3113 31.3503 15.9711
332 2 43.4228 31.2637 0.386963
333 2 47.4212 31.3071 16.2569
334 2 51.5634 31.4226 15.822
335 2 55.5527 31.4906 0.284914
336 2 59.5241 31.5791 0.379201
337 2 63.4745 31.5709 15.8484
338 2 67.2447 31.4344 0.0572088
339 2 71.1257 31.2357 15.9284
340 2 75.4334 31.5059 0.20803
341 2 79.4015 31.4676 0.131028
342 2 83.4781 31.6108 16.0428
343 2 87.4796 31.7192 -0.0365741
344 2 91.3839 31.7093 0.16742
345 2 95.2997 31.7479 -0.132955
346 2 99.1539 31.4847 0.30309
347 2 103.051 31.667 15.8095
348 2 107.128 31.571 0.108097
349 2 111.05 31.6234 15.8413
350 2 114.879 31.5546 0.196868
351 2 118.736 31.6463 15.9558
352 2 122.59 31.57 0.250466
353 2 126.609 31.4034 -0.021642
354 2 130.535 31.2303 0.140487
355 2 134.413 31.3318 0.0649592
356 2 138.453 31.2011 15.9993
357 2 142.474 31.2375 15.8535
358 2 146.213 30.9894 15.8018
359 2 150.115 31.0624 15.9144
360 2 154.116 31.1844 15.9144
361 2 158.008 35.0591 15.9112
362 2 3.67962 35.0276 0.16972
363 2 7.50624 35.0121 0.183825
364 2 11.4247 34.984 15.8793
365 2 15.4515 34.9008 0.119456
366 2 19.1718 34.9272 15.8518
367 2 23.3797 35.1916 15.9572
368 2 27.2095 35.0499 0.232079
369 2 31.4957 35.2972 0.328827
370 2 35.504 35.2309 15.9338
371 2 39.3537 35.159 0.272838
372 2 43.552 35.183 15.9751
373 2 47.4575 35.2591 16.0025
374 2 51.2547 35.2728 0.032567
375 2 55.2843 35.4713 16.0046
376 2 59.4105 35.2936 0.275665
377 2 63.205 35.4485 0.175476
378 2 67.3899 35.6227 0.174818
379 2 71.2889 35.5953 -0.00654436
380 2 75.3737 35.2903 15.8857
381 2 79.2752 35.5465 15.831
382 2 83.3731 35.7474 0.346267
383 2 87.4149 35.8 0.0843342
384 2 91.3291 35.6467 16.004
385 2 95.4721 35.5123 16.0038
386 2 99.5245 35.7377 0.18973
387 2 103.254 35.5837 15.7564
388 2 107.112 35.5998 0.330315
389 2 110.951 35.759 16.0566
390 2 115.249 35.7169 0.25977
391 2 118.841 35.4226 15.9421
392 2 122.805 35.311 16.0988
393 2 126.611 35.5187 -0.0603436
394 2 130.558 35.2263 0.146411
395 2 134.546 35.2298 15.8436
396 2 138.61 35.1666 15.8527
397 2 142.389 35.2554 16.0784
398 2 146.145 35.1544 15.8014
399 2 150.026 35.0855 0.214716
400 2 153.909 35.0996 0.190772
401 2 158.086 39.049 -0.00382322
402 2 3.69296 39.1346 15.7906
403 2 7.57806 39.0273 15.9685
404 2 11.6389 38.798 0.051647
405 2 15.2851 39.0045 0.207306
406 2 19.4533 38.909 15.881
407 2 23.3165 38.8753 15.804
408 2 27.3717 38.8671 0.400776
409 2 31.3691 39.0328 16.0816
410 2 35.4207 38.9727 0.254819
411 2 39.3746 39.0916 0.121185
412 2 43.0939 39.0714 0.343343
413 2 47.3888 39.2775 0.181167
414 2 51.2898 39.1512 0.208401
415 2 55.3815 39.4448 0.387357
416 2 59.3699 39.2114 0.183762
417 2 63.4463 39.3915 16.0922
418 2 67.1962 39.3793 0.349622
419 2 71.3369 39.5511 0.443872
420 2 75.3624 39.4586 0.215149
421 2 79.4061 39.3753 15.8982
422 2 83.2842 39.6835 15.8635
423 2 87.3008 39.5949 15.9015
424 2 91.1468 39.5914 15.8556
425 2 95.2249 39.5142 16.0574
426 2 99.3095 39.6902 0.171357
427 2 103.33 39.7486 0.374555
428 2 107.198 39.8131 15.946
429 2 111.213 39.8177 16.1177
430 2 114.986 39.5912 15.9404
431 2 118.791 39.3776 16.0807
432 2 122.791 39.5809 0.115882
433 2 126.749 39.3005 16.1154
434 2 130.732 39.3158 0.0643282
435 2 134.477 39.2433 0.129233
436 2 138.351 39.3759 15.8203
437 2 142.421 39.1731 16.0106
438 2 146.141 39.1533 0.00401685
439 2 150.146 39.1982 15.6894
440 2 154.116 38.8492 0.127797
441 2 158.217 43.0955 0.220995
442 2 3.89331 43.1159 0.0571502
443 2 7.4611 43.0025 0.265888
444 2 11.4444 43.1151 -0.0882989
445 2 15.4983 42.8188 -0.0495827
446 2 19.312 42.7006 15.877
447 2 23.3196 42.6591 0.165629
448 2 27.497 42.8181 0.00591736
449 2 31.3429 43.0982 0.492946
450 2 35.4957 43.0284 0.23164
451 2 39.4358 42.9327 0.231636
452 2 43.4426 43.1245 0.231591
453 2 47.3368 43.3596 0.349606
454 2 51.4238 43.1768 0.0915561
455 2 55.2331 43.2893 0.393631
456 2 59.3208 43.3716 0.304
457 2 63.2581 43.3111 0.293519
458 2 67.3463 43.5872 16.0222
459 2 71.2947 43.6209 16.1241
460 2 75.1851 43.4941 0.179237
461 2 79.1845 43.3316 0.165491
462 2 83.1326 43.5241 16.2225
463 2 87.2736 43.6116 16.0366
464 2 91.3444 43.5601 15.7019
465 2 95.3223 43.5418 0.146256
466 2 99.2222 43.4554 0.250777
467 2 103.395 43.633 0.205946
468 2 107.321 43.5665 0.313728
469 2 111.205 43.845 15.9828
470 2 115.147 43.7284 16.1439
471 2 119.055 43.652 0.234823
472 2 122.938 43.5306 0.246592
473 2 126.811 43.3264 0.0968355
474 2 130.844 43.3414 0.261344
475 2 134.751 43.2505 16.0348
476 2 138.533 43.2332 15.927
477 2 142.361 43.0857 16.0745
478 2 146.231 43.1163 15.8714
479 2 150.106 43.1341 -0.0710118
480 2 154.24 43.0496 15.8824
481 2 158.323 47.012 15.8305
482 2 3.67247 47.2446 15.8111
483 2 7.64074 46.9466 15.9592
484 2 11.7135 46.9128 15.7683
485 2 15.6228 46.7576 0.303534
486 2 19.5468 46.8741 15.8567
487 2 23.2165 46.8066 0.252901
488 2 27.2614 46.6833 0.109795
489 2 31.4263 47.016 0.332969
490 2 35.3416 46.8751 0.28636
491 2 39.4285 46.9467 0.362715
492 2 43.2522 47.0938 0.38545
493 2 47.4221 47.0458 15.9164
494 2 51.3343 47.2003 16.0268
495 2 55.2812 47.111 0.198063
496 2 59.2838 47.2259 15.92
497 2 63.2549 47.1661 0.201206
498 2 67.1602 47.4008 0.218916
499 2 71.1498 47.4307 0.228339
500 2 75.095 47.3146 15.8828
501 2 79.2619 47.3036 15.8507
502 2 83.1656 47.4467 0.251846
503 2 87.3778 47.2865 0.251248
504 2 91.0972 47.4942 15.8636
505 2 95.4075 47.579 0.0528849
506 2 99.1247 47.3705 -0.0286132
507 2 103.237 47.4262 16.1133
508 2 107.112 47.6024 0.024468
509 2 111.383 47.6709 16.0248
510 2 115.407 47.4539 15.9231
511 2 119.185 47.5027 0.28441
512 2 123.061 47.5345 0.172729
513 2 126.95 47.4212 0.159922
514 2 130.65 47.1548 0.166706
515 2 134.514 47.2457 16.0647
516 2 138.617 47.2651 0.343818
517 2 142.506 47.0907 15.9062
518 2 146.443 47.1231 0.147358
519 2 150.247 47.1474 15.9422
520 2 154.231 46.9222 0.0876241
521 2 158.143 51.1871 -0.119291
522 2 3.83062 51.2054 0.113764
523 2 7.95957 51.0226 0.234873
524 2 11.8109 50.97 16.0465
525 2 15.6379 50.9182 0.21392
526 2 19.5688 51.0235 0.190415
527 2 23.5521 50.8581 0.281381
528 2 27.3277 50.8397 15.9498
529 2 31.2883 50.8203 16.0527
530 2 35.3203 50.9005 0.208357
531 2 39.2848 50.7405 16.0742
532 2 43.3665 50.9158 0.306623
533 2 47.0872 51.0608 0.383074
534 2 51.1809 51.0597 15.8506
535 2 55.3039 51.0875 15.9726
536 2 59.3609 51.0338 15.9487
537 2 63.1671 51.2787 0.196206
538 2 67.2131 51.1503 0.278104
539 2 71.2248 51.2669 15.8845
540 2 75.0817 51.1422 0.423409
541 2 78.9344 51.1483 15.9386
542 2 83.0212 51.2325 15.9636
543 2 87.1842 51.3232 16.0283
544 2 91.1534 51.1515 0.141954
545 2 95.0541 51.4562 0.175617
546 2 99.0878 51.4523 15.8563
547 2 103.266 51.447 0.154463
548 2 107.191 51.4711 15.993
549 2 111.468 51.6741 0.27684
550 2 115.427 51.6469 0.250978
551 2 119.221 51.5657 0.289207
552 2 123.33 51.518 0.403211
553 2 126.989 51.3035 16.1734
554 2 130.9 51.3484 0.183868
555 2 134.797 51.0532 16.0051
556 2 138.638 51.2466 0.205434
557 2 142.825 51.1798 15.9691
558 2 146.504 50.9995 15.9513
559 2 150.352 51.0846 0.0977884
560 2 154.289 51.0699 0.287264
561 2 158.274 55.112 0.114122
562 2 3.89198 55.0146 0.0412131
563 2 7.78074 55.1254 -0.0228307
564 2 11.686 54.9783 15.9118
565 2 15.6984 55.0115 15.9188
566 2 19.6479 54.8867 16.0979
567 2 23.4624 54.7229 15.9394
568 2 27.4258 54.8522 15.9597
569 2 31.1198 54.6724 0.277489
570 2 35.2051 54.687 15.9337
571 2 39.2361 54.8054 0.155679
572 2 43.1162 54.796 15.8894
573 2 47.1815 55.1435 15.8739
574 2 51.1626 54.9471 16.023
575 2 55.1568 54.9362 0.42588
576 2 59.1507 55.0925 0.182965
577 2 63.1569 55.0175 16.0386
578 2 67.208 55.262 0.358811
579 2 71.0552 55.153 15.9299
580 2 74.8834 55.0551 15.9356
581 2 79.1756 55.3469 15.9825
582 2 83.0697 55.3035 16.0777
583 2 87.0011 55.0584 0.198795
584 2 91.007 55.3704 0.128212
585 2 95.1371 55.3836 0.16673
586 2 99.2414 55.5114 16.0228
587 2 103.015 55.2441 0.00652602
588 2 107.091 55.3841 0.0923823
589 2 111.124 55.6378 16.0486
590 2 115.399 55.5019 0.208175
591 2 119.335 55.6447 0.19824
592 2 123.231 55.348 0.29215
593 2 127.011 55.2918 15.9705
594 2 130.949 55.3408 15.9609
595 2 135.028 55.2416 16.0767
596 2 138.968 55.2108 0.120857
597 2 142.856 55.2787 0.172339
598 2 146.689 55.1045 15.94
599 2 150.535 55.142 16.0838
600 2 154.169 55.1184 0.137967
601 2 -0.0136478 59.1061 0.267903
602 2 4.08026 59.012 0.128499
603 2 7.91028 59.1302 0.130045
604 2 11.9996 58.8963 15.9825
605 2 15.7889 58.9808 0.218895
606 2 19.6322 58.9305 15.9133
607 2 23.5034 58.9956 15.8642
608 2 27.479 58.9488 0.377311
609 2 31.5191 58.6944 15.9913
610 2 35.3715 58.689 0.139965
611 2 39.1268 58.7872 0.0743131
612 2 43.161 58.771 15.9766
613 2 47.0504 58.9029 0.0383932
614 2 51.1101 58.839 15.7858
615 2 55.2186 58.8588 16.0994
616 2 59.1218 58.9663 16.0407
617 2 63.1519 58.8102 0.207957
618 2 67.0992 59.0164 16.057
619 2 71.1029 59.0794 0.30914
620 2 75.0686 58.8547 0.384175
621 2 78.9968 59.0014 16.0024
622 2 83.2229 59.1549 16.1164
623 2 87.1198 59.2187 0.245638
624 2 90.9565 59.1901 0.0841642
625 2 95.1369 59.3167 0.182112
626 2 99.0781 59.4861 15.966
627 2 102.921 59.35 0.0971139
628 2 106.993 59.4582 0.0513871
629 2 111.247 59.4284 0.0541885
630 2 115.249 59.4721 0.362843
631 2 119.325 59.3559 0.0135256
632 2 123.279 59.4113 0.543475
633 2 127.018 59.3603 0.146908
634 2 131.242 59.3254 15.941
635 2 135.024 59.2245 0.17989
636 2 139.022 59.3813 0.327571
637 2 142.676 59.164 15.9868
638 2 146.57 59.0345 0.254118
639 2 150.462 59.166 0.221945
640 2 154.403 59.1369 0.0653426
641 2 -0.0282167 62.94 15.9659
642 2 4.22731 63.0054 15.9522
643 2 7.88614 62.8065 0.147684
644 2 11.8503 62.9375 0.130807
645 2 15.8973 63.1304 15.9316
646 2 19.609 62.9652 15.9776
647 2 23.587 62.8683 15.8511
648 2 27.4741 62.8728 0.187148
649 2 31.256 62.9084 16.0025
650 2 35.2488 62.6707 16.0396
651 2 39.2243 62.7932 0.0980901
652 2 43.1491 62.7173 0.197775
653 2 46.7685 62.7104 15.8864
654 2 51.1062 62.6846 0.0812126
655 2 54.8364 62.8219 0.448495
656 2 59.1951 62.8986 0.319231
657 2 63.1136 62.8626 0.162911
658 2 66.9731 62.9125 0.287456
659 2 71.2462 63.0773 0.240541
660 2 75.1127 62.911 16.2489
661 2 79.0689 63.0411 16.0087
662 2 82.9878 63.0394 16.0502
663 2 87.1097 63.0527 0.212325
664 2 91.0091 63.0485 15.8994
665 2 94.9329 63.1254 -0.0376123
666 2 98.94 63.4882 0.17152
667 2 103.093 63.2524 0.200696
668 2 106.998 63.1794 0.24119
669 2 111.268 63.1737 0.247743
670 2 115.35 63.226 0.162666
671 2 119.448 63.3319 15.8927
672 2 123.297 63.372 15.9746
673 2 127.136 63.1612 15.7959
674 2 130.905 63.4315 0.223647
675 2 135.051 63.3609 15.9164
676 2 138.997 63.1214 0.131355
677 2 142.61 63.1539 0.326951
678 2 146.707 63.0278 0.347629
679 2 150.602 63.3424 15.8034
680 2 154.489 63.0049 15.7377
681 2 0.152222 66.9965 0.154284
682 2 3.84548 67.1654 0.212087
683 2 7.9215 67.1712 0.115941
684 2 11.764 67.0264 16.0495
685 2 15.7134 67.0013 15.8704
686 2 19.7642 66.9751 16.1338
687 2 23.7239 66.8958 16.0438
688 2 27.5513 66.7415 16.0527
689 2 31.4339 66.9825 0.378483
690 2 35.4667 66.7582 0.332063
691 2 39.0511 66.7115 0.0540745
692 2 43.2361 66.7335 16.0201
693 2 47.1735 66.674 0.235508
694 2 50.952 66.7057 16.1032
695 2 54.9175 66.6583 16.1587
696 2 58.8748 66.8007 16.2526
697 2 62.9237 66.8135 16.158
698 2 67.1351 66.7733 16.0062
699 2 71.1607 66.8548 0.322298
700 2 75.1135 67.0074 0.248507
701 2 79.0889 66.9068 15.97
702 2 83.2956 66.8839 15.958
703 2 87.1926 66.9047 16.0709
704 2 91.0349 66.9581 0.213123
705 2 95.1429 66.9971 16.0082
706 2 98.987 67.0166 16.1053
707 2 103.134 67.2623 0.418167
708 2 107.133 67.202 16.0017
709 2 111.188 67.1561 0.098789
710 2 115.337 67.173 0.225428
711 2 119.146 67.3768 0.229979
712 2 123.357 67.4026 15.8832
713 2 127.065 67.3311 15.8355
714 2 131.14 67.3616 15.7871
715 2 135.069 67.3865 15.8545
716 2 138.982 67.442 15.8675
717 2 142.925 67.537 16.0174
718 2 146.774 67.1408 0.245566
719 2 150.673 67.1872 15.9641
720 2 154.42 67.2129 15.8296
721 2 0.0731062 71.0802 15.891
722 2 4.02822 71.1105 15.9551
723 2 7.89789 71.1219 0.154892
724 2 11.8231 70.99 15.9579
725 2 15.7356 71.1924 15.924
726 2 19.608 71.2253 0.170072
727 2 23.603 70.8765 16.0864
728 2 27.8067 70.7296 15.9431
729 2 31.5043 70.7509 15.9551
730 2 35.3432 70.833 15.7335
731 2 39.1212 70.7979 15.8114
732 2 43.0712 70.717 0.138096
733 2 47.2713 70.6192 16.0776
734 2 51.1075 70.5312 15.9857
735 2 55.0325 70.6307 16.1247
736 2 58.8674 70.678 0.195713
737 2 62.956 70.7614 15.8218
738 2 67.0073 70.8009 0.111784
739 2 71.0333 70.7905 15.8767
740 2 75.0287 70.7981 15.9922
741 2 79.0495 70.7132 15.9522
742 2 83.0896 70.8546 0.251065
743 2 87.0466 70.8685 15.8821
744 2 91.1878 70.9641 0.169991
745 2 95.0673 70.9221 0.158132
746 2 99.079 70.9605 15.9561
747 2 103.038 71.003 0.10928
748 2 107.007 70.9323 0.312962
749 2 111.315 71.1791 15.8695
750 2 115.116 71.1294 0.144975
751 2 119.3 71.0205 15.9107
752 2 123.126 71.3788 0.35109
753 2 127.229 71.2175 16.0316
754 2 131.253 71.2833 15.7506
755 2 134.79 71.2249 15.9383
756 2 138.741 71.1976 15.8093
757 2 142.848 71.2942 15.8161
758 2 146.651 71.072 15.9549
759 2 150.805 71.1939 15.9688
760 2 154.509 71.1027 16.1167
761 2 0.0437784 75.1739 15.864
762 2 3.9917 74.9517 16.0552
763 2 7.96045 75.1092 15.9576
764 2 11.7539 75.2269 15.8661
765 2 15.7977 75.1464 16.0337
766 2 19.8279 75.0042 15.9651
767 2 23.6882 74.8401 15.8073
768 2 27.5218 74.7716 16.0242
769 2 31.314 74.8018 0.172592
770 2 35.4541 74.8748 15.8564
771 2 39.2147 74.8603 15.952
772 2 43.197 74.7962 0.0625334
773 2 47.0081 74.5111 16.0025
774 2 50.7206 74.77 0.122248
775 2 54.9108 74.4091 15.9659
776 2 58.8179 74.7034 15.9331
777 2 62.9933 74.6375 16.0124
778 2 66.9716 74.573 15.8611
779 2 71.1613 74.8594 15.7588
780 2 74.9911 74.7251 0.23309
781 2 79.0788 74.7192 15.8127
782 2 83.0114 74.7694 15.8855
783 2 87.2767 74.8454 16.0305
784 2 91.0559 74.787 0.280949
785 2 95.0016 74.7366 16.0413
786 2 99.1282 74.9001 0.335574
787 2 103.106 74.9749 15.9399
788 2 107.048 74.9855 0.139574
789 2 111.1 74.9676 15.8582
790 2 115.285 75.0887 0.0263457
791 2 119.192 75.1137 15.9707
792 2 123.311 75.2459 15.9081
793 2 127.214 75.1511 0.257585
794 2 131.036 75.1696 0.122142
795 2 135.171 75.2672 15.7435
796 2 139.011 75.1799 15.7614
797 2 142.777 75.3646 -0.139781
798 2 146.66 75.1733 16.0111
799 2 150.651 74.9965 16.0792
800 2 154.44 75.097 0.117135
801 2 0.321215 79.0809 16.0177
802 2 4.27811 79.1946 16.0416
803 2 7.87077 79.1343 15.983
804 2 11.8928 79.153 16.0453
805 2 15.8816 79.0744 16.0051
806 2 19.9208 79.116 15.9464
807 2 23.7196 79.1072 15.7067
808 2 27.609 78.8862 16.1175
809 2 31.4495 78.9362 0.228987
810 2 35.4284 78.8483 15.9207
811 2 39.2916 78.9336 0.212393
812 2 43.0329 78.7673 0.125277
813 2 47.1702 78.7562 0.25037
814 2 51.1588 78.7003 15.6426
815 2 54.8819 78.5695 15.9719
816 2 58.8934 78.4589 15.7405
817 2 62.7024 78.528 16.0763
818 2 66.9225 78.6599 16.0141
819 2 70.9859 78.6772 15.9043
820 2 74.9218 78.7488 15.9374
821 2 78.7573 78.673 0.228027
822 2 82.9281 78.7 0.12173
823 2 87.0002 78.6105 0.189086
824 2 91.0133 78.7396 0.0226469
825 2 94.9709 78.8312 0.123658
826 2 98.9653 78.8403 15.8735
827 2 102.955 78.6217 0.230337
828 2 106.988 78.9441 15.7276
829 2 111.14 79.0488 0.184629
830 2 114.853 78.9413 15.7785
831 2 119.11 78.9968 0.243918
832 2 123.097 78.9091 0.202211
833 2 127.226 79.0596 15.8777
834 2 131.113 79.2769 0.113766
835 2 135.212 79.2243 15.8009
836 2 139.24 79.2115 15.9485
837 2 142.881 79.352 15.6788
838 2 146.917 79.3288 15.8877
839 2 150.691 79.2176 15.9608
840 2 154.698 79.0798 16.0087
841 2 0.376078 83.2106 15.9768
842 2 4.17815 83.2268 15.9503
843 2 8.15762 83.0725 15.9434
844 2 11.9513 82.995 15.9657
845 2 16.0063 83.3645 15.9349
846 2 19.9047 83.1433 15.9832
847 2 23.9361 82.9368 15.8707
848 2 27.6169 82.7981 15.8526
849 2 31.7121 82.8471 16.028
850 2 35.6269 82.8035 15.8184
851 2 39.2975 82.7458 0.32151
852 2 43.1685 82.6794 15.9881
853 2 47.2922 82.7646 15.8192
854 2 51.1418 82.3805 15.9596
855 2 55.0779 82.4525 15.8874
856 2 58.8637 82.5839 15.7495
857 2 62.9441 82.6712 15.8541
858 2 66.996 82.3081 0.0875302
859 2 70.9999 82.7997 0.0769885
860 2 75.1462 82.47 16.0291
861 2 79.0685 82.6171 0.370172
862 2 82.8673 82.5621 16.1002
863 2 87.0739 82.4447 16.0302
864 2 91.0125 82.5737 0.188315
865 2 95.0283 82.5581 15.9557
866 2 99.1292 82.6641 15.928
867 2 103.046 82.8115 0.0362459
868 2 106.845 82.881 0.0542175
869 2 111.076 82.7995 15.91
870 2 115.017 82.712 16.0013
871 2 119.043 82.9288 0.100205
872 2 123.008 82.9805 15.9284
873 2 126.875 83.0958 0.230072
874 2 131.025 83.1021 15.758
875 2 135.096 83.3615 0.236478
876 2 139.07 83.1911 15.9804
877 2 142.974 83.2272 0.251244
878 2 147.012 83.3139 0.198908
879 2 150.893 83.2365 15.857
880 2 154.699 83.1299 16.0353
881 2 0.357487 86.9608 15.9666
882 2 4.25546 87.3478 0.188016
883 2 8.08236 87.0118 16.0054
884 2 12.2059 87.1561 15.9672
885 2 16.0648 87.2578 -0.0146168
886 2 19.9084 87.1008 15.9487
887 2 23.776 87.2401 16.0417
888 2 27.7118 87.0928 15.9288
889 2 31.534 86.8729 15.855
890 2 35.6691 86.7863 15.766
891 2 39.6314 86.7186 15.9105
892 2 43.426 86.4853 15.9605
893 2 47.5466 86.8102 0.0952281
894 2 51.4421 86.7404 0.281726
895 2 55.22 86.4277 0.0673848
896 2 59.06 86.4876 15.9037
897 2 63.2091 86.405 16.0103
898 2 66.8295 86.4802 -0.0414774
899 2 70.9977 86.5973 0.236639
900 2 75.0326 86.5694 15.7658
901 2 78.9316 86.4983 0.257353
902 2 82.8719 86.3728 0.215805
903 2 86.7681 86.2114 16.1251
904 2 90.8189 86.5825 0.15325
905 2 94.9198 86.531 15.9783
906 2 98.8654 86.6001 15.9452
907 2 103.119 86.615 0.113434
908 2 107.023 86.6874 0.072568
909 2 110.959 86.7306 16.0723
910 2 114.975 86.8077 0.128152
911 2 118.856 86.7779 0.0889741
912 2 122.982 86.9367 -0.0146145
913 2 127.131 87.0617 15.9237
914 2 131.112 86.9649 0.104823
915 2 135.254 87.0905 15.8252
916 2 139.262 87.1059 0.147524
917 2 143.014 87.1353 0.233427
918 2 146.994 87.049 0.227715
919 2 150.921 87.1309 15.8814
920 2 154.796 87.1181 15.9765
921 2 0.296951 91.1025 15.9384
922 2 4.04445 91.2692 0.278738
923 2 8.05529 90.9649 0.101405
924 2 11.9809 90.9399 0.0944296
925 2 16.0547 91.054 15.8721
926 2 19.8782 91.0358 15.8802
927 2 23.8443 91.0298 15.9577
928 2 27.7274 90.873 15.9673
929 2 31.6276 90.8707 15.9012
930 2 35.6131 90.7636 15.9042
931 2 39.4517 90.7224 15.7507
932 2 43.4783 90.5768 0.101334
933 2 47.4479 90.724 15.8213
934 2 51.3173 90.5566 15.931
935 2 55.3107 90.5245 15.8679
936 2 59.2051 90.4676 15.9016
937 2 63.1243 90.4958 -0.140563
938 2 67.1506 90.5073 15.7402
939 2 70.8812 90.3531 15.7718
940 2 74.9035 90.3277 16.1259
941 2 79.0449 90.3989 0.116704
942 2 82.8523 90.2122 0.159765
943 2 86.8225 90.3522 16.0819
944 2 90.8489 90.337 0.105071
945 2 94.8481 90.401 0.186491
946 2 98.9666 90.514 0.172857
947 2 102.915 90.5411 0.00490516
948 2 106.705 90.7192 0.0303741
949 2 110.958 90.5952 15.833
950 2 114.871 90.7514 0.0976235
951 2 118.998 90.6956 0.0598084
952 2 122.982 90.6652 0.181768
953 2 127.064 90.8169 0.198297
954 2 131.003 90.8873 15.7774
955 2 135.05 90.9078 0.05755
956 2 138.95 91.1678 0.289591
957 2 143.139 91.0862 0.0517786
958 2 146.839 91.2739 0.11329
959 2 150.916 91.418 15.7475
960 2 154.603 91.2411 0.265149
961 2 0.485956 95.1612 15.9378
962 2 4.22284 95.1374 15.9745
963 2 8.10536 95.0774 0.0813618
964 2 12.066 95.3114 15.9934
965 2 16.1719 95.0085 15.9463
966 2 20.0723 95.0278 15.7991
967 2 23.924 94.9031 16.0153
968 2 27.8012 95.0989 16.0353
969 2 31.6589 94.8967 15.8151
970 2 35.4974 94.8883 -0.115872
971 2 39.5145 94.8465 15.8672
972 2 43.4463 94.7272 16.1782
973 2 47.4574 94.575 15.9724
974 2 51.256 94.4849 -0.0227406
975 2 55.2297 94.4541 15.8292
976 2 59.102 94.5225 15.9756
977 2 63.2197 94.3374 15.8141
978 2 66.9743 94.3261 0.0370239
979 2 70.8139 94.0595 0.123611