ITEM: TIMESTEP
15400
ITEM: NUMBER OF ATOMS
32000
ITEM: BOX BOUNDS xy xz yz pp pp pp
0.0000000000000000e+00 1.5831999999999999e+02 0.0000000000000000e+00
0.0000000000000000e+00 1.5831999999999999e+02 0.0000000000000000e+00
1.6435690705621919e-01 1.5933355092943541e+01 0.0000000000000000e+00
ITEM: ATOMS id type x y z
1 2 158.074 158.126 16.0118
2 2 3.6981 157.815 -0.0467035
3 2 7.6995 158.182 0.187142
4 2 11.7186 158.141 16.1144
5 2 15.8752 158.219 0.219685
6 2 19.8021 157.96 0.113505
7 2 23.6333 158.022 15.9819
8 2 27.856 158.107 0.0851098
9 2 31.8477 158.235 15.958
10 2 35.8924 158.29 0.263254
11 2 39.9143 158.145 0.181459
12 2 43.832 158.36 15.9053
13 2 47.7576 -0.168779 15.7287
14 2 51.5907 -0.230222 15.7977
15 2 55.718 158.369 15.9247
16 2 59.8393 0.13416 15.9592
17 2 63.6995 0.0507772 0.0547148
18 2 67.7132 -0.0514622 0.101599
19 2 71.4038 158.317 15.7924
20 2 75.463 158.194 15.838
21 2 79.304 158.119 15.8366
22 2 83.1691 158.095 0.147373
23 2 87.0883 158.091 0.264234
24 2 91.1301 158.028 0.121076
25 2 95.0884 158.002 0.00221722
26 2 98.9148 157.929 0.161588
27 2 102.632 157.894 0.0794677
28 2 106.585 157.921 15.7781
29 2 110.672 157.819 0.125073
30 2 114.524 157.733 0.252368
31 2 118.488 157.649 0.255545
32 2 122.307 157.673 15.9043
33 2 126.441 157.692 16.0122
34 2 130.125 157.667 15.8076
35 2 133.994 157.765 15.9489
36 2 137.925 157.669 15.8337
37 2 142.242 157.624 15.9509
38 2 145.87 157.925 16.033
39 2 149.839 157.754 15.8947
40 2 153.942 158.03 15.8361
41 2 158.027 3.56868 0.132201
42 2 3.72821 3.48003 16.0556
43 2 7.63163 3.56084 0.103298
44 2 11.7072 3.5682 0.126336
45 2 15.9023 3.76846 0.178239
46 2 19.8212 3.79821 16.0078
47 2 23.6348 3.79617 0.304435
48 2 27.7647 3.85378 0.274982
49 2 31.8635 3.98338 0.144667
50 2 35.8511 3.89694 0.149059
51 2 39.8102 3.87419 0.209085
52 2 43.6136 3.85755 0.0331518
53 2 47.9282 3.88243 16.126
54 2 51.92 3.87502 0.299459
55 2 55.7917 4.12521 0.137166
56 2 59.8008 4.09751 0.0442878
57 2 63.7625 4.06606 15.7349
58 2 67.4056 3.96687 0.0223398
59 2 71.4228 3.87283 0.0333668
60 2 75.5581 4.04541 0.233155
61 2 79.3666 3.95268 -0.0302012
62 2 83.2127 3.77567 0.0625291
63 2 87.1667 3.78987 0.197627
64 2 90.986 3.64709 0.249225
65 2 94.9706 3.71404 15.8589
66 2 98.945 3.74381 0.260025
67 2 102.815 3.61043 0.211024
68 2 106.876 3.50147 15.9154
69 2 110.7 3.42825 15.8249
70 2 114.657 3.38206 15.7732
71 2 118.479 3.59611 15.9804
72 2 122.536 3.44301 -0.0257749
73 2 126.403 3.28974 16.0683
74 2 130.043 3.24898 0.111953
75 2 134.096 3.1907 16.1165
76 2 137.974 3.22939 0.232408
77 2 141.947 3.28733 15.8152
78 2 145.952 3.32773 0.339104
79 2 149.907 3.33752 16.0168
80 2 153.872 3.27638 15.9178
81 2 157.921 7.57265 0.227707
82 2 3.55727 7.43577 15.9081
83 2 7.6025 7.67011 15.8071
84 2 11.606 7.44488 15.7949
85 2 15.7134 7.48687 0.156036
86 2 19.8049 7.65084 15.8537
87 2 23.8091 7.86112 0.175194
88 2 27.821 7.68856 0.163548
89 2 31.7826 7.63859 16.078
90 2 35.8138 7.66824 16.0977
91 2 39.809 7.71881 16.2176
92 2 43.8106 7.90072 16.1514
93 2 47.8756 7.85291 0.399566
94 2 51.8703 7.91037 16.0409
95 2 55.6228 7.94289 0.178028
96 2 59.8024 7.86566 0.183899
97 2 63.6628 8.0016 0.305891
98 2 67.7012 7.96188 0.105905
99 2 71.7088 7.94254 0.205264
100 2 75.4898 7.97918 0.184304
101 2 79.3585 8.0231 15.7454
102 2 83.3063 7.83958 0.200735
103 2 87.0933 7.81738 15.8651
104 2 90.963 7.89974 0.159159
105 2 94.9632 7.75999 0.00806217
106 2 98.9147 7.71491 0.140327
107 2 102.965 7.61436 0.10549
108 2 106.812 7.48646 0.198503
109 2 110.873 7.5187 0.0995952
110 2 114.78 7.76563 0.197267
111 2 118.606 7.47011 0.0412173
112 2 122.464 7.53067 0.178334
113 2 126.244 7.26918 15.9681
114 2 130.376 7.29129 0.240448
115 2 134.076 7.2004 0.224822
116 2 138.113 7.32363 15.8227
117 2 141.911 7.36505 15.7551
118 2 145.897 7.26293 0.326221
119 2 149.882 7.39352 15.8105
120 2 153.919 7.28308 15.8639
121 2 157.735 11.3437 -0.0753739
122 2 3.51072 11.3973 0.0918509
123 2 7.58512 11.5846 15.9203
124 2 11.7426 11.4377 15.994
125 2 15.6926 11.5916 16.0039
126 2 19.6412 11.6563 0.325139
127 2 23.6677 11.5746 0.216337
128 2 27.6712 11.5948 0.0888806
129 2 31.7906 11.6187 0.303941
130 2 35.7778 11.5015 0.270224
131 2 39.6757 11.7353 0.15766
132 2 43.6339 11.8566 15.9688
133 2 47.6114 11.8302 16.0183
134 2 51.6518 11.7719 16.1803
135 2 55.6656 11.8346 0.370571
136 2 59.6109 11.9016 15.9089
137 2 63.6656 11.8285 0.0149909
138 2 67.5065 11.805 15.8992
139 2 71.6261 11.7867 0.24106
140 2 75.4735 12.0762 0.185847
141 2 79.1921 11.9244 0.341596
142 2 83.2496 11.824 0.0382522
143 2 87.1766 11.7495 0.084906
144 2 91.1706 11.7826 0.189263
145 2 95.0215 11.6953 0.283027
146 2 98.8889 11.5694 0.194282
147 2 102.903 11.5637 0.107424
148 2 106.712 11.5521 -0.186538
149 2 110.758 11.5072 0.0875764
150 2 114.399 11.6095 0.0136297
151 2 118.444 11.5987 0.0530358
152 2 122.422 11.3646 0.190489
153 2 126.326 11.2759 0.170449
154 2 130.168 11.4464 15.9999
155 2 134.059 11.3117 0.272212
156 2 138.094 11.1529 -0.00182464
157 2 141.978 11.163 15.9611
158 2 145.904 11.2166 15.8456
159 2 149.868 11.2527 16.0761
160 2 153.879 11.3298 15.869
161 2 157.776 15.3381 -0.0712096
162 2 3.48952 15.2413 0.19158
163 2 7.4992 15.2716 0.171564
164 2 11.4831 15.2403 15.9305
165 2 15.7974 15.362 15.8295
166 2 19.8178 15.4038 0.114623
167 2 23.7526 15.7759 0.110303
168 2 27.6819 15.4905 16.0914
169 2 31.657 15.4976 15.9852
170 2 35.7217 15.6184 0.115443
171 2 39.5546 15.6852 16.0862
172 2 43.6913 15.5895 0.284257
173 2 47.6729 15.5458 0.216914
174 2 51.6765 15.8339 0.247581
175 2 55.6098 15.7135 15.9159
176 2 59.6155 15.6935 -0.0404385
177 2 63.5752 15.7838 0.340545
178 2 67.8537 15.8202 0.195279
179 2 71.6102 15.8562 0.163406
180 2 75.4003 15.9732 16.0721
181 2 79.4844 16.1153 0.155533
182 2 83.3893 16.0281 0.119777
183 2 87.3485 15.9124 0.053704
184 2 91.1053 15.8978 0.107642
185 2 95.165 15.7577 0.120246
186 2 98.7967 15.6543 0.0897247
187 2 102.908 15.6723 0.0110149
188 2 106.761 15.7148 0.122501
189 2 110.731 15.6685 0.00239295
190 2 114.553 15.5754 0.184751
191 2 118.316 15.579 0.0885201
192 2 122.387 15.2551 15.7571
193 2 126.311 15.4316 0.0870932
194 2 130.337 15.2882 0.399413
195 2 134.237 15.3416 0.232462
196 2 138.315 15.3285 0.402871
197 2 142.089 15.217 -0.0708471
198 2 145.922 15.2878 0.161891
199 2 149.904 15.2458 15.9856
200 2 153.671 15.3328 -0.0562964
201 2 157.844 19.1033 16.011
202 2 3.70736 19.2406 0.129223
203 2 7.50645 19.0528 15.9506
204 2 11.6144 19.2696 15.7843
205 2 15.6284 19.2163 15.8432
206 2 19.61 19.2417 0.0282328
207 2 23.5653 19.4674 0.217636
208 2 27.6178 19.3969 0.475546
209 2 31.7219 19.4561 16.1703
210 2 35.4341 19.5564 16.0787
211 2 39.7011 19.5884 0.15874
212 2 43.612 19.6487 16.1245
213 2 47.5669 19.4947 16.0107
214 2 51.5257 19.7792 16.0158
215 2 55.9038 19.7355 15.9566
216 2 59.5768 19.7764 15.8988
217 2 63.5215 19.6042 16.0313
218 2 67.5812 19.6239 15.9895
219 2 71.5387 19.8009 0.185556
220 2 75.5783 19.8835 0.0931112
221 2 79.556 19.7454 -0.0363862
222 2 83.4795 19.9323 0.140558
223 2 87.3494 19.8751 15.8892
224 2 91.2031 19.7311 -0.0293741
225 2 95.0459 20.0107 0.0457323
226 2 98.9327 19.859 15.8249
227 2 102.877 19.4786 15.9941
228 2 106.793 19.6351 15.9145
229 2 110.73 19.7942 0.181948
230 2 114.755 19.5573 0.250572
231 2 118.67 19.5089 15.7957
232 2 122.671 19.5249 0.0889181
233 2 126.331 19.3609 0.192821
234 2 130.372 19.2618 0.124798
235 2 134.302 19.3376 16.0767
236 2 138.213 19.2815 15.9431
237 2 142.039 19.132 0.294717
238 2 145.954 19.2298 0.309988
239 2 149.884 19.1373 0.238425
240 2 153.86 19.2256 16.0345
241 2 157.9 22.9362 15.8285
242 2 3.552 22.9805 16.0073
243 2 7.45163 22.8697 -0.0387585
244 2 11.5197 23.0853 15.9586
245 2 15.2894 23.2332 15.8377
246 2 19.5118 23.1425 0.262612
247 2 23.6362 23.2008 15.9581
248 2 27.5888 23.2405 16.122
249 2 31.7373 23.5662 0.488021
250 2 35.6249 23.4254 16.2476
251 2 39.5971 23.3452 0.25349
252 2 43.5282 23.417 15.8519
253 2 47.5809 23.587 16.0709
254 2 51.4332 23.5313 0.303726
255 2 55.5959 23.7979 16.0786
256 2 59.5518 23.6792 15.8801
257 2 63.6793 23.63 16.0458
258 2 67.5942 23.5492 0.194774
259 2 71.5879 23.6921 0.424302
260 2 75.5593 23.9015 0.277588
261 2 79.4532 23.7452 15.9617
262 2 83.3554 23.8094 15.811
263 2 87.396 23.8605 0.0743919
264 2 91.2585 24.0856 15.7507
265 2 95.1802 23.8189 15.8089
266 2 99.0293 23.6004 -0.000390348
267 2 103.021 23.6503 0.176063
268 2 107.051 23.5631 0.246924
269 2 110.946 23.8829 0.193841
270 2 114.797 23.4326 15.8258
271 2 118.662 23.7133 15.792
272 2 122.528 23.5206 0.201178
273 2 126.427 23.2976 0.159615
274 2 130.437 23.4573 15.9929
275 2 134.436 23.3224 0.247595
276 2 138.318 23.219 16.0199
277 2 142.203 23.12 0.149991
278 2 146.121 23.1348 0.0476895
279 2 150.004 22.9919 -0.0157611
280 2 153.996 23.0484 0.13292
281 2 158.048 27.0816 0.0252071
282 2 3.5763 27.0399 16.0196
283 2 7.53099 27.082 0.18667
284 2 11.4817 27.0048 16.0063
285 2 15.6037 27.0141 15.9935
286 2 19.5675 26.8583 0.266175
287 2 23.5878 27.076 0.205751
288 2 27.5726 27.0534 0.417403
289 2 31.497 27.2061 16.162
290 2 35.7162 27.3672 0.201078
291 2 39.4687 27.4097 0.140981
292 2 43.5416 27.3873 15.9363
293 2 47.44 27.3355 0.309195
294 2 51.4237 27.5987 0.211502
295 2 55.3409 27.7346 0.189075
296 2 59.5951 27.6201 0.164918
297 2 63.4423 27.5666 0.456398
298 2 67.5749 27.4842 0.264067
299 2 71.4527 27.7929 0.329333
300 2 75.6825 27.6775 15.8388
301 2 79.4446 27.7455 0.108434
302 2 83.5964 27.7563 15.9451
303 2 87.3123 27.8656 0.163144
304 2 91.3991 27.7455 16.0891
305 2 95.3127 27.9107 15.9429
306 2 99.1177 27.5647 0.0904684
307 2 102.998 27.7833 0.209094
308 2 106.942 27.6278 16.0526
309 2 110.85 27.612 0.164151
310 2 114.833 27.6545 15.9341
311 2 118.662 27.5487 15.8947
312 2 122.669 27.368 0.333161
313 2 126.503 27.5226 0.308994
314 2 130.636 27.5388 0.191497
315 2 134.583 27.4597 15.9756
316 2 138.366 27.386 0.211175
317 2 142.155 27.2098 0.134145
318 2 145.908 26.9875 0.229829
319 2 150.103 27.1536 0.0181849
320 2 153.925 27.1216 15.8035
321 2 158.109 31.0097 16.0938
322 2 3.68226 30.9307 0.161212
323 2 7.65822 31.0746 -0.00107467
324 2 11.5994 30.9061 16.0139
325 2 15.4602 30.9173 0.386438
326 2 19.419 30.8498 16.0074
327 2 23.4815 31.054 15.9891
328 2 27.4511 31.3255 0.462324
329 2 31.5558 31.1116 0.180251
330 2 35.3734 31.2721 15.936
331 2 39.3278 31.2122 16.1015
332 2 43.369 31.3967 0.283929
333 2 47.4095 31.3907 16.1466
334 2 51.5859 31.4352 16.0254
335 2 55.5863 31.5979 0.309869
336 2 59.6066 31.4659 0.358197
337 2 63.6136 31.6371 16.001
338 2 67.1284 31.6448 0.0243268
339 2 71.4059 31.6324 15.9056
340 2 75.4063 31.5105 0.239972
341 2 79.4736 31.5127 5.41581e-05
342 2 83.4971 31.5822 16.0183
343 2 87.2682 31.7402 0.0657497
344 2 91.4644 31.7377 0.225193
345 2 95.4252 31.7724 0.0476782
346 2 99.2426 31.7688 0.244217
347 2 103.08 31.7893 15.9029
348 2 107.115 31.5809 0.0116992
349 2 110.926 31.5202 15.8276
350 2 114.791 31.4438 0.234786
351 2 118.751 31.6609 15.8941
352 2 122.635 31.5676 0.266714
353 2 126.721 31.5044 0.168028
354 2 130.567 31.2813 0.294599
355 2 134.621 31.2142 0.0130777
356 2 138.546 31.1365 15.9794
357 2 142.245 31.3769 16.0763
358 2 146.28 31.1343 15.9016
359 2 150.208 31.2206 16.0074
360 2 154.13 31.2157 16.094
361 2 158.135 35.0072 15.8779
362 2 3.82625 35.0449 -0.0789781
363 2 7.55158 34.8539 0.0273915
364 2 11.2427 35.0728 15.7779
365 2 15.5332 34.8987 0.180942
366 2 19.4463 34.9813 16.0072
367 2 23.3418 35.0835 16.1202
368 2 27.2824 34.8695 0.193593
369 2 31.4018 35.1976 0.23669
370 2 35.397 35.0961 15.9484
371 2 39.4655 35.0909 0.144367
372 2 43.4499 35.2845 15.8208
373 2 47.494 35.3105 15.8935
374 2 51.3138 35.2012 0.102158
375 2 55.3188 35.5226 16.0848
376 2 59.3377 35.3184 0.221318
377 2 63.3517 35.3069 0.393892
378 2 67.4567 35.5091 0.273269
379 2 71.2928 35.4833 0.0938647
380 2 75.3221 35.5163 15.9504
381 2 79.4703 35.4208 15.8356
382 2 83.4289 35.6866 0.324952
383 2 87.4117 35.7737 0.173558
384 2 91.3893 35.7194 16.0184
385 2 95.497 35.7778 15.8927
386 2 99.3897 35.8798 -0.00210634
387 2 103.265 35.5906 15.8399
388 2 107.253 35.504 0.220152
389 2 111.052 35.7323 15.9204
390 2 115.048 35.581 0.14721
391 2 118.919 35.4457 15.6846
392 2 123.003 35.4728 15.9243
393 2 126.786 35.6082 0.0769619
394 2 130.653 35.4674 0.220242
395 2 134.572 35.3028 16.018
396 2 138.545 35.2719 16.1506
397 2 142.29 35.2088 16.1394
398 2 146.249 35.1317 15.9287
399 2 150.045 35.1232 0.192098
400 2 154.157 34.9275 0.0929709
401 2 158.281 38.9908 -0.0190715
402 2 3.65347 38.9377 15.912
403 2 7.72847 38.9466 15.9567
404 2 11.656 38.7252 0.0969962
405 2 15.4179 38.9293 0.238109
406 2 19.436 38.8712 16.0872
407 2 23.3158 38.8133 16.1388
408 2 27.4142 38.7625 0.34513
409 2 31.2805 39.1043 15.9181
410 2 35.3243 39.0661 0.283556
411 2 39.4817 39.2583 0.10189
412 2 43.2 39.2773 0.273299
413 2 47.2344 39.2814 0.463947
414 2 51.1986 39.0754 0.340518
415 2 55.365 39.409 0.229858
416 2 59.5641 39.1431 0.164238
417 2 63.2813 39.3014 16.0491
418 2 67.3876 39.2386 0.221209
419 2 71.4525 39.405 0.249305
420 2 75.3955 39.4286 0.24994
421 2 79.6022 39.4496 16.0087
422 2 83.3468 39.6689 15.9026
423 2 87.3277 39.7646 16.1163
424 2 91.0283 39.7047 16.0671
425 2 95.2766 39.5009 15.9876
426 2 99.2943 39.7889 -0.10065
427 2 103.423 39.5777 0.264753
428 2 107.25 39.8091 15.7391
429 2 111.273 39.5639 15.7345
430 2 115.103 39.6283 15.7018
431 2 118.934 39.4686 15.9762
432 2 122.851 39.5427 0.0740442
433 2 126.751 39.4709 15.9902
434 2 130.694 39.2897 0.00401382
435 2 134.575 39.3194 0.351093
436 2 138.364 39.4276 15.9972
437 2 142.418 39.1676 15.987
438 2 146.29 39.1658 0.220227
439 2 150.274 39.1913 15.9024
440 2 154.041 38.9902 0.163148
441 2 158.353 43.021 0.410906
442 2 3.82505 43.0494 0.150159
443 2 7.54662 42.7174 0.313255
444 2 11.4038 42.7489 0.0564798
445 2 15.5266 42.7369 0.110398
446 2 19.1754 42.8172 16.1195
447 2 23.3265 42.8899 0.397913
448 2 27.5187 42.7971 0.159617
449 2 31.1842 42.9721 0.405047
450 2 35.306 43.0925 0.197475
451 2 39.3689 43.0263 0.273774
452 2 43.4604 43.1091 0.215842
453 2 47.3685 43.126 0.458439
454 2 51.4395 42.9562 0.0151154
455 2 55.3775 43.2218 0.284924
456 2 59.33 43.1855 0.324656
457 2 63.4153 43.2188 0.192567
458 2 67.3648 43.323 16.003
459 2 71.4145 43.4621 16.0253
460 2 75.2824 43.4512 0.249817
461 2 79.2285 43.4417 0.334423
462 2 83.2618 43.5577 16.189
463 2 87.4065 43.5214 16.006
464 2 91.3842 43.541 15.9882
465 2 95.1159 43.6094 0.214243
466 2 99.3037 43.6757 0.167406
467 2 103.291 43.6218 0.103686
468 2 107.34 43.5265 0.184912
469 2 111.241 43.8243 15.8395
470 2 115.163 43.6079 16.1186
471 2 119.002 43.5509 0.267294
472 2 122.985 43.7122 0.218407
473 2 126.745 43.4692 0.0597763
474 2 130.768 43.3461 0.136637
475 2 134.676 43.1862 15.9179
476 2 138.609 43.3282 15.835
477 2 142.505 43.2239 15.9489
478 2 146.278 43.1918 16.0261
479 2 150.217 43.1362 0.258595
480 2 154.395 43.0736 15.8893
481 2 158.325 47.0438 15.8347
482 2 3.65189 47.1213 15.7523
483 2 7.56502 46.8661 15.9128
484 2 11.6259 46.9518 15.7044
485 2 15.4151 46.6068 0.300326
486 2 19.2254 46.8674 16.1184
487 2 23.2397 46.8789 0.436947
488 2 27.1167 46.7121 0.184467
489 2 31.1909 46.9785 0.39393
490 2 35.1894 47.069 0.382667
491 2 39.3574 46.9847 0.162547
492 2 43.3164 46.9885 0.147569
493 2 47.2927 46.8585 15.98
494 2 51.3878 46.9252 16.1684
495 2 55.4086 46.968 0.190926
496 2 59.3236 47.2391 16.0037
497 2 63.2937 47.0391 0.230244
498 2 67.2292 47.1147 0.125883
499 2 71.3734 47.3488 0.291594
500 2 75.2375 47.1024 16.0474
501 2 79.356 47.3221 15.9457
502 2 83.2603 47.4926 0.133019
503 2 87.3492 47.4498 0.193419
504 2 91.3188 47.4197 16.1267
505 2 95.2112 47.7151 0.244168
506 2 99.3159 47.3869 0.209275
507 2 103.413 47.6194 16.0837
508 2 107.239 47.7226 -0.131739
509 2 111.071 47.581 15.8668
510 2 115.038 47.318 15.9422
511 2 118.978 47.3413 0.210035
512 2 122.86 47.5481 0.157817
513 2 126.918 47.4001 0.0803655
514 2 130.695 47.3641 0.245739
515 2 134.579 47.1982 15.9541
516 2 138.668 47.368 0.13588
517 2 142.473 47.2712 16.0311
518 2 146.478 47.2112 0.169787
519 2 150.465 47.2594 16.089
520 2 154.246 46.9548 0.220508
521 2 158.192 51.2654 -0.0204765
522 2 3.82394 51.0489 0.142109
523 2 7.92963 51.1968 0.128535
524 2 11.6223 51.1059 15.8944
525 2 15.3769 50.9339 0.0712986
526 2 19.2812 50.8993 0.108365
527 2 23.3674 50.7267 0.420146
528 2 27.2675 50.7019 15.9442
529 2 31.0641 50.8479 15.8934
530 2 35.2597 51.0123 0.162142
531 2 39.3137 50.8276 16.0749
532 2 43.3541 51.0118 0.318543
533 2 47.28 50.8114 0.26813
534 2 51.1896 50.8951 15.895
535 2 55.4217 50.9422 16.0075
536 2 59.2807 51.0557 16.0718
537 2 63.1715 51.1043 0.153745
538 2 67.2156 50.9649 0.0931484
539 2 71.433 51.1916 15.939
540 2 75.1122 51.2332 0.34973
541 2 79.1696 51.1227 16.0004
542 2 83.158 51.2118 15.8685
543 2 87.1303 51.3894 16.0156
544 2 91.3385 51.2015 0.134141
545 2 95.1796 51.4155 0.109214
546 2 99.1755 51.4352 15.95
547 2 103.157 51.5291 0.233999
548 2 107.291 51.4096 15.805
549 2 111.196 51.5934 0.123109
550 2 115.307 51.4903 0.168879
551 2 118.992 51.4926 0.222729
552 2 122.784 51.4968 0.143972
553 2 126.946 51.4865 15.9675
554 2 130.814 51.3758 0.136466
555 2 134.494 51.2928 15.9873
556 2 138.562 51.3314 0.273088
557 2 142.516 51.3363 16.0171
558 2 146.483 51.24 16.0421
559 2 150.408 51.2515 -0.0943675
560 2 154.35 51.1758 0.164373
561 2 158.268 55.2161 0.213984
562 2 3.88126 55.1964 0.199821
563 2 7.73049 55.2617 0.0715358
564 2 11.5932 55.0181 15.8591
565 2 15.4343 54.9559 15.885
566 2 19.4911 54.8447 16.0326
567 2 23.3935 54.761 15.9113
568 2 27.4252 54.8548 16.1012
569 2 31.0598 54.7621 0.235946
570 2 35.1422 54.8568 16.0779
571 2 39.2489 54.7649 0.428902
572 2 43.1811 54.7295 16.0434
573 2 47.1784 55.0231 15.8389
574 2 51.2486 54.8212 16.0466
575 2 55.2701 54.7875 0.364195
576 2 59.0298 55.0368 0.207323
577 2 63.3021 54.8001 16.0691
578 2 67.2446 54.9191 0.153321
579 2 71.1196 55.0455 15.9236
580 2 75.1067 55.0109 16.0092
581 2 79.2714 55.2198 15.9843
582 2 83.2577 55.3106 15.9942
583 2 87.2272 55.0209 0.202637
584 2 91.1908 55.153 0.283653
585 2 95.3069 55.2722 0.24488
586 2 99.3192 55.5056 15.9528
587 2 103.341 55.3119 0.00941132
588 2 107.02 55.4743 0.269519
589 2 111.343 55.666 16.0169
590 2 115.342 55.6769 0.0938918
591 2 118.986 55.5156 -0.0397084
592 2 123.075 55.4963 0.100755
593 2 127.005 55.594 15.7507
594 2 130.637 55.5562 15.8331
595 2 134.847 55.3645 15.8909
596 2 138.799 55.4111 0.134411
597 2 142.745 55.2532 0.225157
598 2 146.659 55.0342 15.7792
599 2 150.536 55.3051 15.8957
600 2 154.192 55.0888 0.0587625
601 2 0.0704129 59.0256 0.261904
602 2 3.87806 59.0296 0.191806
603 2 7.74634 59.0537 0.282437
604 2 11.9286 58.9966 16.015
605 2 15.7567 59.0316 0.402534
606 2 19.5839 58.9262 16.0689
607 2 23.4067 58.9878 16.0669
608 2 27.3875 58.9337 0.388106
609 2 31.4628 58.698 15.9108
610 2 35.1632 58.7031 0.171304
611 2 39.1556 58.607 0.192516
612 2 43.1759 58.673 16.1585
613 2 47.2207 58.8644 0.409441
614 2 51.2401 58.6694 15.9522
615 2 55.273 58.7621 16.138
616 2 59.1373 59.0373 16.02
617 2 63.2016 58.6643 0.125406
618 2 67.0623 58.8977 15.78
619 2 71.2395 58.9566 0.116789
620 2 75.058 58.8671 0.331196
621 2 79.1215 58.8576 15.9325
622 2 83.3321 59.2145 15.9899
623 2 87.1595 59.0957 0.169779
624 2 91.2874 59.0609 0.194586
625 2 95.3159 58.9927 0.299656
626 2 99.1197 59.3722 16.0385
627 2 103.103 59.2712 0.0412298
628 2 107.207 59.4541 0.141422
629 2 111.264 59.4054 0.167125
630 2 115.316 59.4556 0.327617
631 2 119.206 59.6393 -0.139014
632 2 123.125 59.6675 0.550663
633 2 127.268 59.5026 0.0490081
634 2 131.03 59.2661 15.9343
635 2 134.937 59.3776 0.0796695
636 2 138.67 59.3888 0.256619
637 2 142.667 59.338 15.8403
638 2 146.598 59.2533 0.0880288
639 2 150.517 59.1297 0.301997
640 2 154.297 58.9601 0.155161
641 2 0.115515 62.9453 16.069
642 2 4.01001 63.0597 15.9766
643 2 7.77973 63.0234 0.325536
644 2 11.6838 63.0299 0.174208
645 2 15.8826 62.986 16.0871
646 2 19.6265 63.0367 16.1377
647 2 23.3913 62.8567 15.9881
648 2 27.4374 62.8473 0.0589689
649 2 31.3029 62.8968 15.7389
650 2 35.1033 62.5335 15.9356
651 2 39.2781 62.6299 0.163458
652 2 43.0903 62.8292 0.332247
653 2 47.1125 62.6183 16.2199
654 2 51.0653 62.6741 0.1322
655 2 55.1306 62.8221 0.249086
656 2 59.3249 62.7475 0.0907924
657 2 63.2034 62.7262 0.0130648
658 2 67.1005 62.7188 0.227028
659 2 71.1988 63.0697 0.201265
660 2 75.1849 62.8705 15.9578
661 2 79.1795 62.9032 15.8651
662 2 82.8451 62.9457 16.0083
663 2 87.2912 63.0959 0.188566
664 2 91.0645 63.1752 15.9153
665 2 95.1026 63.0038 0.124552
666 2 99.0901 63.4221 0.0826636
667 2 103.174 63.3696 0.0122245
668 2 107.211 63.232 0.163173
669 2 111.264 63.2867 0.280006
670 2 115.288 63.3289 0.081599
671 2 119.251 63.4718 15.9237
672 2 123.277 63.6642 16.0257
673 2 127.143 63.3379 15.9769
674 2 130.983 63.5074 0.28189
675 2 134.965 63.3701 15.9409
676 2 138.892 63.3459 0.153158
677 2 142.715 63.5566 0.310139
678 2 146.58 63.16 0.161682
679 2 150.542 63.3345 16.0881
680 2 154.462 63.1788 15.8764
681 2 0.073296 67.0696 0.168632
682 2 4.03276 67.0933 0.225197
683 2 8.06302 67.0883 0.0608529
684 2 11.752 66.8687 16.0467
685 2 15.8847 66.9984 15.6615
686 2 19.805 66.9399 16.0499
687 2 23.5049 66.7587 16.0109
688 2 27.4018 66.6704 15.8866
689 2 31.4407 66.9853 0.410504
690 2 35.4407 66.709 0.230855
691 2 39.2459 66.6639 0.112666
692 2 43.1699 66.6187 15.862
693 2 47.1886 66.5424 0.157925
694 2 50.9911 66.6247 15.829
695 2 54.9966 66.7077 15.7606
696 2 59.0006 66.6914 16.0196
697 2 63.1867 66.7468 15.9444
698 2 67.153 66.7027 16.0018
699 2 71.087 66.7931 0.31685
700 2 75.2382 66.8535 0.139682
701 2 79.2186 66.8403 15.9176
702 2 83.1368 66.9276 15.9047
703 2 87.2265 66.8474 16.1058
704 2 91.1261 67.0325 0.245672
705 2 95.2369 67.0781 15.9902
706 2 99.037 67.0212 15.9688
707 2 103.382 67.2117 0.146675
708 2 107.052 67.1938 15.8968
709 2 111.253 67.311 -0.0118412
710 2 115.178 67.3356 0.133878
711 2 119.175 67.4076 0.0930925
712 2 123.292 67.571 15.7452
713 2 127.153 67.4621 15.9018
714 2 130.875 67.3986 15.882
715 2 134.89 67.3996 15.902
716 2 138.804 67.4236 15.9307
717 2 142.881 67.4306 15.9786
718 2 146.788 67.2365 0.237175
719 2 150.711 67.229 15.919
720 2 154.462 67.1855 15.7542
721 2 0.21707 71.153 15.8838
722 2 4.18189 71.1365 15.9684
723 2 8.07375 71.0884 0.23266
724 2 12.0884 70.8995 16.0539
725 2 15.728 71.0179 15.9375
726 2 19.7673 70.886 0.105849
727 2 23.6369 70.84 16.0372
728 2 27.5777 70.7011 15.9637
729 2 31.458 70.8367 16.0581
730 2 35.3094 70.8258 16.0422
731 2 39.1875 70.9458 16.2051
732 2 43.0985 70.6558 0.339884
733 2 47.1447 70.605 16.0566
734 2 51.2647 70.4666 15.8299
735 2 55.0023 70.508 15.9334
736 2 59.0135 70.5851 0.0352288
737 2 63.0923 70.5553 15.7573
738 2 67.0864 70.7007 0.164324
739 2 71.1023 70.8146 15.9702
740 2 75.1379 70.9076 15.9502
741 2 78.9885 70.7715 16.0903
742 2 83.0335 70.7536 0.269746
743 2 87.0177 70.7381 15.9133
744 2 91.1996 70.8823 0.087548
745 2 95.2034 70.9244 0.0787654
746 2 99.0247 71.0253 15.7859
747 2 102.916 71.2498 0.097504
748 2 107.077 70.9633 0.195588
749 2 111.208 71.1595 15.746
750 2 114.997 71.2973 0.176478
751 2 119.087 71.3206 15.7524
752 2 123.207 71.4167 0.0211106
753 2 127.235 71.2813 15.9542
754 2 131.112 71.4862 15.8431
755 2 134.933 71.4813 15.9411
756 2 138.64 71.2432 15.9728
757 2 142.628 71.3249 15.9446
758 2 146.786 71.1438 15.9822
759 2 150.841 71.2518 15.7826
760 2 154.688 71.2592 15.9364
761 2 0.278558 75.2305 15.9848
762 2 3.98411 75.1416 15.9304
763 2 8.10967 75.0577 15.9347
764 2 11.7884 75.1726 15.8991
765 2 15.7593 74.9146 15.8908
766 2 19.877 75.0024 15.9528
767 2 23.8097 74.8697 15.9816
768 2 27.685 74.8737 16.0254
769 2 31.4895 74.8672 0.199333
770 2 35.4832 74.8696 16.0277
771 2 39.3014 74.9453 16.2186
772 2 43.1509 74.7234 0.274653
773 2 47.1817 74.5215 16.1448
774 2 50.9618 74.5272 0.0652746
775 2 55.0728 74.4619 16.0037
776 2 59.0542 74.6237 15.9593
777 2 63.0544 74.4796 16.063
778 2 66.9804 74.5036 15.91
779 2 71.069 74.7072 15.8374
780 2 75.1005 74.655 0.36452
781 2 79.0526 74.8114 15.9252
782 2 83.1037 74.7678 16.0202
783 2 87.0347 74.7263 15.9745
784 2 91.1734 74.6642 0.153955
785 2 95.0488 74.84 15.9704
786 2 99.0077 74.8528 0.155504
787 2 103.059 74.8917 15.9832
788 2 107.107 75.199 0.0871565
789 2 111.096 75.196 15.8757
790 2 115.11 75.1254 0.0319257
791 2 119.156 75.1122 15.7459
792 2 123.076 75.2114 15.6458
793 2 127.234 75.1248 0.157426
794 2 131.115 75.6256 0.228162
795 2 135.136 75.5816 15.7983
796 2 139.022 75.1124 15.857
797 2 142.701 75.3563 0.0730091
798 2 146.696 75.3131 15.9224
799 2 150.727 75.105 15.9609
800 2 154.61 75.0334 0.0574649
801 2 0.422269 79.2728 15.8567
802 2 4.31568 79.0173 15.8711
803 2 7.98434 79.054 15.8922
804 2 11.82 78.9998 15.9344
805 2 15.8561 78.9343 15.974
806 2 19.7715 78.8623 15.743
807 2 23.6899 78.8702 15.8465
808 2 27.8271 78.9731 15.9257
809 2 31.5604 78.9213 0.00773342
810 2 35.5547 78.745 15.827
811 2 39.2677 78.7993 0.146386
812 2 43.1528 78.934 0.00899753
813 2 47.2197 78.6696 0.387466
814 2 51.1999 78.6011 15.8962
815 2 55.1926 78.4211 16.0379
816 2 59.0513 78.6698 15.9844
817 2 62.9265 78.4529 15.9323
818 2 66.8186 78.4654 16.0467
819 2 71.0449 78.3938 15.9841
820 2 74.9427 78.6583 15.9913
821 2 78.8978 78.568 0.113387
822 2 82.9668 78.7163 0.183051
823 2 87.0085 78.6706 0.0635695
824 2 91.064 78.6525 -0.0684949
825 2 95.048 78.5697 0.0536862
826 2 98.9569 78.9087 15.7911
827 2 103.044 78.8864 0.190889
828 2 107.078 78.9556 15.8731
829 2 111.214 78.9625 0.329704
830 2 114.854 78.8239 15.8929
831 2 119.042 79.0851 0.244201
832 2 123.106 78.9439 0.0935401
833 2 127.053 78.9718 15.9767
834 2 131.154 79.3278 0.171814
835 2 135.043 79.2516 15.7123
836 2 139.21 79.4087 15.8321
837 2 143.044 79.3287 15.7646
838 2 146.933 79.2862 15.7715
839 2 150.651 79.3051 15.8993
840 2 154.745 79.2472 16.0939
841 2 0.289516 83.1236 15.8675
842 2 4.24255 83.3457 15.808
843 2 8.05467 83.0454 15.9504
844 2 11.9338 82.9129 15.9134
845 2 15.9351 83.1538 15.776
846 2 19.9502 83.1142 15.9641
847 2 23.9362 82.8239 15.8496
848 2 27.653 82.5957 15.8863
849 2 31.7104 82.9192 15.9043
850 2 35.513 82.771 15.7639
851 2 39.3267 82.7067 0.397573
852 2 43.2763 82.6304 15.8723
853 2 47.189 82.6982 15.7762
854 2 51.2178 82.5568 16.1328
855 2 55.1872 82.3996 15.99
856 2 59.0413 82.4937 15.9252
857 2 63.1285 82.5212 15.7408
858 2 67.0395 82.1637 0.11283
859 2 71.0393 82.6122 0.137188
860 2 75.0378 82.248 16.0599
861 2 79.0928 82.5527 -0.0128454
862 2 83.0436 82.4684 15.887
863 2 87.0522 82.4268 15.9315
864 2 90.981 82.5706 0.050926
865 2 95.054 82.6409 15.8297
866 2 99.0358 82.7544 15.9097
867 2 103.118 82.8906 0.0386788
868 2 107.053 82.8592 0.134605
869 2 110.9 82.8161 16.0115
870 2 115.08 82.862 15.9813
871 2 118.843 82.968 0.237428
872 2 123.023 83.1002 16.1295
873 2 126.897 83.2373 0.35243
874 2 130.964 83.1522 15.7477
875 2 134.891 83.394 0.217489
876 2 139.035 83.2289 15.9921
877 2 142.902 83.2068 0.330575
878 2 146.997 83.3267 0.0923734
879 2 150.681 83.2903 15.8627
880 2 154.564 83.1835 15.8861
881 2 0.398036 86.9457 15.7336
882 2 4.3135 87.3645 0.0538731
883 2 8.12694 87.0347 15.9359
884 2 12.1135 86.8345 15.8439
885 2 16.1592 87.0139 -0.00886228
886 2 20.1338 87.1047 15.8918
887 2 23.7465 86.9084 15.9221
888 2 27.6218 86.8872 15.996
889 2 31.4788 86.7645 15.8536
890 2 35.5013 86.8034 16.0118
891 2 39.4425 86.6904 16.0265
892 2 43.4732 86.5684 15.9315
893 2 47.1293 86.6885 -0.0157949
894 2 51.2672 86.5731 0.186273
895 2 55.1661 86.3201 0.131008
896 2 59.0912 86.5109 16.0678
897 2 63.099 86.497 16.0924
898 2 66.9779 86.225 0.00642868
899 2 70.9317 86.2533 0.27474
900 2 74.9651 86.2821 15.6945
901 2 79.0187 86.2656 0.225655
902 2 82.9823 86.4181 0.10417
903 2 86.885 86.424 15.9251
904 2 90.8351 86.4682 0.188874
905 2 94.8144 86.4657 15.9581
906 2 98.897 86.6643 15.8885
907 2 103.051 86.7132 0.112613
908 2 107.176 86.8272 0.0584346
909 2 110.978 86.9132 16.0259
910 2 114.917 86.8624 0.0887464
911 2 119.01 87.011 0.232391
912 2 123.02 87.0182 0.0537534
913 2 127.09 87.0387 15.9406
914 2 131.064 86.9114 0.162505
915 2 135.152 87.2126 15.905
916 2 139.136 87.2683 -0.00413779
917 2 143.012 87.3869 0.187816
918 2 147.057 87.2694 0.0367681
919 2 150.892 87.1357 15.8844
920 2 154.646 87.2552 15.93
921 2 0.502254 91.2072 15.7449
922 2 4.28513 91.364 0.0854997
923 2 8.17524 90.8616 -0.0954663
924 2 12.0893 91.1121 -0.116054
925 2 16.1358 91.1048 15.8037
926 2 19.9914 90.757 15.6486
927 2 23.7913 91.0401 15.9011
928 2 27.5499 90.8613 15.7463
929 2 31.6648 90.7244 15.724
930 2 35.4694 90.8046 16.0132
931 2 39.3088 90.9303 15.8179
932 2 43.4227 90.6876 0.183193
933 2 47.1895 90.8566 15.7298
934 2 51.208 90.5959 15.9611
935 2 55.2766 90.6101 16.0222
936 2 59.1157 90.2842 16.009
937 2 62.9939 90.3608 -0.0226502
938 2 67.0409 90.3147 16.0132
939 2 71.117 90.25 15.988
940 2 75.0089 90.1574 16.1438
941 2 78.8895 90.4258 0.207876
942 2 82.9787 90.3791 0.1948
943 2 87.0177 90.4168 15.8907
944 2 90.9175 90.4515 0.161922
945 2 94.983 90.5383 0.22227
946 2 98.9474 90.5883 0.12574
947 2 102.9 90.4282 0.0614434
948 2 106.881 90.7829 0.083399
949 2 111.007 90.7458 16.0064
950 2 114.957 90.9535 0.0816139
951 2 118.977 90.8827 0.0877525
952 2 122.956 90.8677 0.244151
953 2 126.982 90.9336 0.280709
954 2 130.897 91.0322 15.9524
955 2 134.942 91.0804 0.0937226
956 2 138.97 91.0796 0.123748
957 2 143.096 91.2388 -0.0449946
958 2 147.031 91.1932 -0.0100825
959 2 151.087 91.525 15.6748
960 2 154.985 91.197 0.23248
961 2 0.667033 95.0922 15.8434
962 2 4.46504 95.14 15.8163
963 2 8.31314 94.9325 -0.0269998
964 2 12.2428 95.1768 15.7565
965 2 16.1553 94.9364 15.7782
966 2 20.0954 94.9867 15.7663
967 2 24.021 94.8074 15.8186
968 2 27.753 95.0334 15.683
969 2 31.6626 94.876 15.9751
970 2 35.6411 94.8083 0.0599871
971 2 39.5245 94.7764 15.9336
972 2 43.501 94.7154 15.9702
973 2 47.4677 94.5705 16.0567
974 2 51.2238 94.5767 0.0590628
975 2 55.2838 94.4496 15.9232
976 2 59.1696 94.2904 16.0544
977 2 63.1611 94.3849 15.9408
978 2 66.9678 94.2999 0.21046
979 2 71.0574 94.1972 0.320229
980 2 74.8189 94.1792 15.7871