ITEM: TIMESTEP
16200
ITEM: NUMBER OF ATOMS
32000
ITEM: BOX BOUNDS xy xz yz pp pp pp
0.0000000000000000e+00 1.5831999999999999e+02 0.0000000000000000e+00
0.0000000000000000e+00 1.5831999999999999e+02 0.0000000000000000e+00
1.6476396149331229e-01 1.5932948038506471e+01 0.0000000000000000e+00
ITEM: ATOMS id type x y z
1 2 158.181 157.541 16.1334
2 2 3.88059 157.759 0.238277
3 2 7.73285 157.986 0.234213
4 2 11.9213 157.934 16.0189
5 2 15.7891 157.911 0.268592
6 2 19.7588 157.991 0.30796
7 2 23.7489 158.039 16.0176
8 2 27.8206 158.228 0.210766
9 2 31.7086 158.361 15.7973
10 2 35.7991 158.19 0.0968667
11 2 39.9326 158.217 0.188943
12 2 43.8802 158.221 16.0012
13 2 47.7456 0.214737 15.9586
14 2 51.7251 0.137742 16.1459
15 2 55.9352 158.548 15.9042
16 2 59.9437 0.209041 15.6634
17 2 63.8128 0.237677 -0.0435344
18 2 67.7022 0.276631 0.0363574
19 2 71.491 158.532 16.0677
20 2 75.507 158.33 16.0245
21 2 79.2464 158.332 15.9565
22 2 83.4793 158.357 0.159625
23 2 87.2133 158.188 0.277934
24 2 91.2481 158.217 0.274755
25 2 95.2367 158.137 0.249194
26 2 98.9915 158.048 0.151783
27 2 102.962 158.059 0.198936
28 2 106.821 158.007 16.0235
29 2 110.607 157.854 0.234951
30 2 114.829 157.76 0.150159
31 2 118.704 157.721 0.153515
32 2 122.695 157.639 15.8793
33 2 126.348 157.71 15.9386
34 2 130.325 157.491 15.9925
35 2 134.219 157.432 15.8897
36 2 138.359 157.555 15.8833
37 2 142.123 157.479 16.0638
38 2 146.217 157.617 16.131
39 2 150.168 157.732 15.9413
40 2 154.133 157.743 16.1625
41 2 157.952 3.25055 0.108799
42 2 3.88718 3.36855 16.1219
43 2 7.92559 3.2611 0.113027
44 2 11.6767 3.84862 0.0258544
45 2 15.7532 3.55363 0.187644
46 2 19.7636 3.63211 15.9377
47 2 23.7316 3.41355 0.16635
48 2 27.8081 3.77688 0.126445
49 2 31.7407 3.79961 0.136192
50 2 35.5527 3.86176 0.383403
51 2 39.7952 3.77722 0.115104
52 2 43.8803 3.9233 0.341893
53 2 47.8467 4.09896 15.8897
54 2 51.818 4.16383 0.0255084
55 2 55.8617 4.27162 0.157595
56 2 59.96 4.39735 0.109925
57 2 63.8642 4.24465 15.9002
58 2 67.7144 4.37573 0.0430728
59 2 71.6134 4.06002 0.297757
60 2 75.4131 4.08065 0.157592
61 2 79.5925 4.03956 0.235117
62 2 83.258 4.20366 0.276478
63 2 87.3137 3.94273 0.27776
64 2 91.2425 3.88356 0.352735
65 2 95.2041 3.81216 16.0885
66 2 99.0856 3.83949 0.240896
67 2 103.109 3.80555 0.255623
68 2 107.032 3.65761 15.8869
69 2 110.858 3.47499 15.9994
70 2 114.883 3.45602 15.7937
71 2 118.957 3.39669 15.9547
72 2 122.619 3.43513 0.245428
73 2 126.55 3.30765 15.938
74 2 130.513 3.38858 0.311049
75 2 134.373 3.31139 15.8568
76 2 138.334 3.2237 -0.0516943
77 2 142.306 3.16198 15.8485
78 2 146.124 3.19864 0.254635
79 2 150.052 3.23902 15.7783
80 2 154.153 3.35531 16.1923
81 2 157.93 7.08959 0.221884
82 2 3.73239 7.25563 16.1924
83 2 7.71685 7.43083 16.0568
84 2 11.6026 7.6109 16.0658
85 2 15.5987 7.56087 0.284482
86 2 19.7151 7.56205 15.9939
87 2 23.758 7.36589 0.312756
88 2 27.5485 7.73397 0.0753989
89 2 31.5431 7.57124 16.0377
90 2 35.734 7.62225 15.6364
91 2 39.748 7.75335 16.0549
92 2 43.8294 7.98394 15.878
93 2 47.6636 7.97676 -0.0662659
94 2 51.6422 8.16297 16.1963
95 2 55.8152 8.24629 0.094122
96 2 59.9718 8.14309 0.124419
97 2 63.8218 8.32169 0.136433
98 2 67.8654 8.30767 0.15518
99 2 71.5623 8.11657 0.283007
100 2 75.5392 7.96186 0.146035
101 2 79.5694 8.06199 15.9778
102 2 83.4204 8.0361 0.296062
103 2 87.3063 7.93721 15.9643
104 2 91.1039 7.72635 0.168562
105 2 95.2108 7.78612 0.157853
106 2 99.0489 7.75215 0.15633
107 2 103.069 7.68146 0.22294
108 2 106.828 7.45738 0.330239
109 2 110.993 7.67864 -0.0204871
110 2 114.804 7.49336 0.0739458
111 2 118.752 7.52303 -0.070502
112 2 122.696 7.43475 0.0758515
113 2 126.584 7.39241 15.8795
114 2 130.514 7.37523 0.232279
115 2 134.277 7.36292 0.247649
116 2 138.326 7.20577 16.2496
117 2 142.282 7.15118 16.2311
118 2 146.12 7.41941 0.212476
119 2 149.956 7.21822 15.9852
120 2 153.828 7.06027 16.0484
121 2 157.831 11.1285 0.144286
122 2 3.5777 11.1576 0.328088
123 2 7.61613 11.1517 15.9199
124 2 11.472 11.2193 15.9854
125 2 15.4109 11.2757 16.1056
126 2 19.5733 11.3987 0.105652
127 2 23.5561 11.3838 0.244904
128 2 27.5138 11.6378 -0.0421242
129 2 31.7345 11.7544 0.0125182
130 2 35.6357 11.6436 -0.0177784
131 2 39.7645 11.6724 0.190447
132 2 43.7571 11.5891 15.9689
133 2 47.5684 11.8935 15.9891
134 2 51.6519 12.0898 15.8855
135 2 55.8583 12.0358 0.17093
136 2 59.7048 12.1497 16.0812
137 2 63.6394 12.1594 0.160275
138 2 67.7049 12.081 16.2037
139 2 71.7923 12.2699 0.119689
140 2 75.7174 12.2667 0.298779
141 2 79.4915 11.9681 0.220809
142 2 83.4778 11.9013 0.274753
143 2 87.479 11.7619 0.228194
144 2 91.3068 11.8423 0.0251948
145 2 95.2958 11.6788 0.16352
146 2 99.1868 11.7289 0.131956
147 2 103.09 11.6165 0.202256
148 2 107.101 11.475 0.162687
149 2 110.791 11.5776 0.087652
150 2 114.879 11.4457 0.116411
151 2 118.778 11.4268 0.291173
152 2 122.662 11.587 0.0786795
153 2 126.662 11.4518 0.284611
154 2 130.431 11.2268 15.8781
155 2 134.422 11.4267 0.268068
156 2 138.442 11.3497 0.0616137
157 2 142.157 11.2252 15.9007
158 2 146.152 11.2558 15.9487
159 2 149.896 11.0584 15.898
160 2 153.978 11.0464 16.0252
161 2 157.833 15.1167 0.230063
162 2 3.54265 15.0727 0.243784
163 2 7.44596 15.2737 0.427617
164 2 11.536 15.2311 15.937
165 2 15.6151 15.3845 16.0907
166 2 19.4493 15.3113 0.22322
167 2 23.2764 15.5026 0.113473
168 2 27.6117 15.5518 15.8754
169 2 31.7084 15.556 15.92
170 2 35.6739 15.6628 0.283509
171 2 39.5653 15.6378 16.0119
172 2 43.639 15.7001 0.274189
173 2 47.7882 15.904 0.292387
174 2 51.8189 15.9265 0.16515
175 2 55.7048 15.9159 15.8543
176 2 59.7841 15.9083 0.327839
177 2 63.7606 15.8572 0.117465
178 2 67.6431 16.0922 0.0969767
179 2 71.8035 16.0237 -0.0244222
180 2 75.7589 16.1263 16.027
181 2 79.6588 16.0624 0.523539
182 2 83.4904 16.0946 0.0846019
183 2 87.4386 15.848 -0.0393965
184 2 91.4187 15.6953 0.271593
185 2 95.1692 15.7587 0.303024
186 2 99.226 15.7189 0.46363
187 2 103.117 15.6984 0.279731
188 2 107.094 15.8141 0.352018
189 2 110.995 15.6284 -0.0179198
190 2 115.002 15.4815 0.131055
191 2 119.005 15.4746 0.0729967
192 2 122.888 15.5811 15.8914
193 2 126.572 15.3703 0.361419
194 2 130.516 15.4746 0.179452
195 2 134.447 15.2941 -0.038064
196 2 138.249 15.2706 0.157285
197 2 142.264 15.383 0.219564
198 2 146.159 15.1287 0.231048
199 2 150.028 14.975 15.8471
200 2 154.113 15.0965 0.168713
201 2 158.077 19.022 16.0507
202 2 3.44646 19.1496 0.404279
203 2 7.42 18.9894 16.0333
204 2 11.5065 18.9981 16.0568
205 2 15.6091 19.1817 15.8192
206 2 19.459 19.3262 0.415375
207 2 23.4694 19.2065 0.209383
208 2 27.4798 19.191 0.397838
209 2 31.456 19.5577 16.0461
210 2 35.5254 19.5091 15.9034
211 2 39.475 19.499 0.133843
212 2 43.5688 19.5397 15.9805
213 2 47.6582 19.6947 15.8536
214 2 51.7314 19.7118 15.9412
215 2 55.687 19.7876 16.1231
216 2 59.7113 19.7272 16.0849
217 2 63.6406 19.9277 16.0581
218 2 67.9992 19.8644 16.1185
219 2 71.8611 19.9042 0.169914
220 2 75.9558 20.0156 0.216694
221 2 79.8318 20.2031 0.0779832
222 2 83.4844 19.9506 -0.0326949
223 2 87.5415 19.8618 15.9985
224 2 91.6398 20.0354 0.31054
225 2 95.3043 19.888 0.241805
226 2 99.2419 19.8629 16.0064
227 2 103.056 19.6654 16.054
228 2 106.896 19.6372 16.0316
229 2 111.098 19.5187 0.206374
230 2 114.928 19.5014 0.209957
231 2 118.808 19.4609 16.0102
232 2 122.652 19.3793 0.308118
233 2 126.69 19.3619 0.0966077
234 2 130.499 19.2871 0.0619138
235 2 134.491 19.3672 16.0689
236 2 138.472 19.2213 16.056
237 2 142.428 19.1972 0.300663
238 2 146.152 19.1122 0.183673
239 2 150.039 19.0809 0.138835
240 2 154.103 19.112 16.094
241 2 158.003 23.0574 16.0091
242 2 3.52287 22.9011 16.0271
243 2 7.37842 22.8695 0.236548
244 2 11.6215 22.9151 16.1533
245 2 15.6569 23.2596 16.1706
246 2 19.3938 23.2109 0.22168
247 2 23.3551 23.1748 16.2672
248 2 27.6169 23.2028 16.139
249 2 31.5201 23.4149 0.283316
250 2 35.5262 23.3525 15.7488
251 2 39.4533 23.4375 0.137101
252 2 43.5688 23.5259 15.8603
253 2 47.6419 23.5854 16.0244
254 2 51.5859 23.5484 0.318884
255 2 55.5286 23.7002 15.8732
256 2 59.8159 23.6038 15.8428
257 2 63.7793 23.8105 15.7917
258 2 67.8448 23.8913 0.129671
259 2 71.9078 23.8381 0.0636334
260 2 75.8241 23.9396 0.100597
261 2 79.7148 23.908 15.9103
262 2 83.8673 23.9562 15.8849
263 2 87.6119 24.0309 0.168041
264 2 91.5603 23.7828 15.9754
265 2 95.3913 23.8537 15.897
266 2 99.4791 23.7941 0.149414
267 2 103.253 23.7632 -0.0168933
268 2 106.971 23.5836 0.0897726
269 2 110.975 23.7177 0.14479
270 2 114.796 23.5626 15.9265
271 2 118.676 23.6222 15.9637
272 2 122.898 23.4233 0.122077
273 2 126.796 23.3368 0.161648
274 2 130.561 23.2669 16.0432
275 2 134.497 23.1802 0.250839
276 2 138.286 23.1955 16.0908
277 2 142.3 23.1557 0.354966
278 2 146.074 23.154 0.270309
279 2 150.238 23.1024 0.313378
280 2 154.075 23.1401 0.341918
281 2 157.994 26.8969 0.277786
282 2 3.66051 26.8186 16.0279
283 2 7.62092 26.8697 0.197102
284 2 11.4257 27.1058 16.1038
285 2 15.4287 27.0771 16.2178
286 2 19.259 27.0541 0.300632
287 2 23.4517 27.0545 0.344855
288 2 27.2953 27.2448 -0.0575222
289 2 31.2454 27.2279 15.8511
290 2 35.3495 27.3383 0.191371
291 2 39.5067 27.2936 0.019075
292 2 43.4502 27.2518 16.0186
293 2 47.6396 27.4437 0.181256
294 2 51.6818 27.5195 0.30753
295 2 55.7233 27.4288 0.129766
296 2 59.6832 27.6364 0.24118
297 2 63.5085 27.7404 -0.179328
298 2 67.7942 27.7314 0.0593377
299 2 71.664 27.7368 0.059054
300 2 75.5099 27.6965 16.0384
301 2 79.9073 27.8256 0.174211
302 2 83.7746 28.0093 16.0038
303 2 87.7084 27.8401 0.0861514
304 2 91.6197 28.0496 15.9064
305 2 95.7066 27.7985 15.8751
306 2 99.4066 27.6659 0.48993
307 2 103.345 27.7435 0.15108
308 2 107.293 27.519 15.9554
309 2 110.92 27.627 0.0656224
310 2 114.995 27.516 15.9618
311 2 118.898 27.6653 15.9168
312 2 122.71 27.2971 0.124004
313 2 126.738 27.3451 0.207506
314 2 130.546 27.3416 0.130503
315 2 134.449 27.2618 15.8114
316 2 138.602 27.0798 0.3091
317 2 142.382 27.1645 0.221324
318 2 146.298 27.151 0.137337
319 2 150.131 27.1567 0.284276
320 2 154.097 27.106 15.9524
321 2 158.057 31.2219 16.1409
322 2 3.47309 30.9021 0.297686
323 2 7.4752 30.8086 0.178316
324 2 11.3848 30.7804 15.8573
325 2 15.2625 30.8476 0.22239
326 2 19.273 30.8708 16.037
327 2 23.3502 30.9911 16.1366
328 2 27.4265 31.1101 0.128659
329 2 31.2942 31.0695 0.0997019
330 2 35.3787 31.2171 15.8772
331 2 39.4299 31.2442 15.8608
332 2 43.4123 31.1091 0.209546
333 2 47.5871 31.3549 15.7574
334 2 51.5447 31.3807 15.7569
335 2 55.7881 31.4017 0.191741
336 2 59.4994 31.6631 0.193003
337 2 63.6365 31.4906 15.8243
338 2 67.6553 31.4312 0.218869
339 2 71.8109 31.6311 15.8296
340 2 75.7963 31.6766 0.0930141
341 2 79.7136 31.8238 0.032419
342 2 83.683 31.8874 15.9354
343 2 87.7909 31.9472 0.287102
344 2 91.8505 31.7885 0.15784
345 2 95.5497 31.7119 0.185187
346 2 99.4306 31.8419 0.257065
347 2 103.199 31.7538 16.1071
348 2 107.168 31.644 0.213682
349 2 111.041 31.5698 16.0018
350 2 114.994 31.6268 0.156088
351 2 119.182 31.3243 15.9951
352 2 122.93 31.4809 0.185705
353 2 126.71 31.4749 0.142635
354 2 130.763 31.2616 0.164295
355 2 134.487 31.27 0.203856
356 2 138.413 31.3837 15.9192
357 2 142.372 31.2541 16.0201
358 2 146.298 31.197 16.0098
359 2 149.996 31.2131 15.9605
360 2 154.119 31.1065 15.9756
361 2 157.953 35.0581 16.1783
362 2 3.74093 34.8984 0.236471
363 2 7.55157 34.9187 0.331936
364 2 11.4229 34.8378 15.9343
365 2 15.3718 34.9646 0.266243
366 2 19.325 34.767 16.0661
367 2 23.4221 34.8438 16.1058
368 2 27.4485 35.2517 0.188579
369 2 31.2557 34.8821 0.0575958
370 2 35.3798 35.04 15.8171
371 2 39.5618 35.1856 0.060274
372 2 43.6026 35.1272 15.9192
373 2 47.6608 35.2179 15.9239
374 2 51.5685 35.2347 0.0186028
375 2 55.5212 35.2913 16.1011
376 2 59.518 35.4735 0.264146
377 2 63.4978 35.4121 0.102417
378 2 67.7435 35.5561 -0.0706242
379 2 71.7552 35.4393 0.142136
380 2 75.6044 35.5726 15.6765
381 2 79.5558 35.6913 15.8502
382 2 83.6195 35.6242 0.00713955
383 2 87.7357 35.9373 0.152259
384 2 91.6651 35.7127 15.919
385 2 95.4741 35.7938 15.7613
386 2 99.3598 35.7523 0.0569936
387 2 103.393 35.9731 15.6406
388 2 107.298 35.7122 0.0991422
389 2 111.153 35.5871 15.9919
390 2 115.197 35.5101 0.267676
391 2 118.991 35.521 15.996
392 2 122.897 35.4108 15.9204
393 2 126.819 35.4023 0.261288
394 2 130.713 35.3656 0.120764
395 2 134.806 35.2941 15.9314
396 2 138.598 35.3265 16.159
397 2 142.446 35.3082 15.8891
398 2 146.345 35.253 16.178
399 2 150.229 35.2608 0.130676
400 2 154.138 35.1988 0.349721
401 2 158.02 38.9229 0.0267574
402 2 3.62739 39.0531 15.917
403 2 7.53151 38.9631 15.8071
404 2 11.3866 39.0241 0.380447
405 2 15.2431 38.8692 0.0342583
406 2 19.2636 38.8711 15.8241
407 2 23.2792 38.7386 16.1458
408 2 27.4119 39.0032 0.124122
409 2 31.5315 38.9589 15.9076
410 2 35.4282 38.8986 0.000691512
411 2 39.5564 38.9345 -0.00710464
412 2 43.4031 39.1172 0.0527948
413 2 47.5995 39.1726 0.135422
414 2 51.6772 39.2795 0.0758634
415 2 55.611 39.1755 0.0153871
416 2 59.6444 39.4213 0.199525
417 2 63.677 39.2691 16.0932
418 2 67.6255 39.2283 0.128624
419 2 71.6919 39.3816 0.0259246
420 2 75.5353 39.6024 0.232147
421 2 79.6197 39.75 15.9444
422 2 83.6498 39.6003 16.1149
423 2 87.4622 39.6418 15.9272
424 2 91.5068 39.5981 15.7786
425 2 95.5958 39.7318 15.8055
426 2 99.4501 39.898 -0.0101707
427 2 103.432 39.7034 0.143376
428 2 107.479 39.7743 16.0037
429 2 111.403 39.5579 15.9139
430 2 115.256 39.6707 15.9663
431 2 118.995 39.4817 15.8631
432 2 122.744 39.4689 0.120279
433 2 126.581 39.5268 15.9775
434 2 130.755 39.5706 0.438863
435 2 134.716 39.4135 0.317619
436 2 138.555 39.3372 16.1608
437 2 142.426 39.3794 15.8586
438 2 146.327 39.0857 0.268541
439 2 150.383 39.0647 15.7846
440 2 154.115 39.0712 0.196603
441 2 158.077 43.053 -0.0203733
442 2 3.74162 43.0627 0.0470198
443 2 7.71226 42.8902 0.175325
444 2 11.5066 42.9558 0.200982
445 2 15.545 42.9218 -0.0142988
446 2 19.3998 42.7873 16.1185
447 2 23.2556 42.7159 0.171179
448 2 27.1114 42.8949 0.204482
449 2 31.2434 42.8976 0.0589041
450 2 35.1182 42.9007 0.258336
451 2 39.2928 42.9275 0.415496
452 2 43.3247 42.9965 0.113617
453 2 47.3815 43.1606 0.290932
454 2 51.4547 43.2571 0.100834
455 2 55.5179 42.9862 0.436618
456 2 59.5959 43.1171 0.170027
457 2 63.4206 43.2001 0.175265
458 2 67.5955 43.2187 15.9484
459 2 71.5802 43.3133 15.9189
460 2 75.5742 43.5659 0.211966
461 2 79.5346 43.6766 0.0587025
462 2 83.4919 43.6693 16.0421
463 2 87.5496 43.6742 15.8172
464 2 91.6431 43.6452 15.9616
465 2 95.72 43.6825 0.315648
466 2 99.5781 43.644 0.399895
467 2 103.685 43.8689 0.238795
468 2 107.487 43.8767 -0.064161
469 2 111.412 43.491 15.9484
470 2 115.129 43.6131 15.9196
471 2 119.06 43.4565 0.167919
472 2 123.089 43.3845 0.161083
473 2 126.914 43.5996 -0.00100794
474 2 130.787 43.4069 0.336781
475 2 134.868 43.497 15.8248
476 2 138.704 43.5408 16.0296
477 2 142.563 43.1986 16.0702
478 2 146.527 43.2954 15.8099
479 2 150.228 43.2113 0.103838
480 2 154.143 43.1892 15.8916
481 2 158.189 47.0585 15.7507
482 2 3.93917 46.8809 15.9862
483 2 7.76286 46.9935 15.7441
484 2 11.6188 46.8857 15.7802
485 2 15.384 46.9505 -0.125699
486 2 19.3232 46.8222 15.8297
487 2 23.355 46.8997 0.183766
488 2 27.2414 46.5646 -0.0335935
489 2 31.1514 46.8015 0.252089
490 2 35.2026 46.9053 0.264348
491 2 39.2141 46.7748 0.0190715
492 2 43.3144 46.7769 0.213637
493 2 47.263 46.9878 16.1012
494 2 51.3307 47.1487 15.8883
495 2 55.3725 46.9003 0.025812
496 2 59.4669 47.0402 15.9353
497 2 63.3927 46.9515 0.224254
498 2 67.4267 47.1772 0.14399
499 2 71.3811 47.3804 0.0108963
500 2 75.4988 47.4228 15.878
501 2 79.7323 47.3715 15.8487
502 2 83.6623 47.5824 0.144502
503 2 87.6392 47.4519 0.116934
504 2 91.5701 47.6929 15.9533
505 2 95.4287 47.4007 0.130746
506 2 99.4533 47.7672 0.327258
507 2 103.583 47.5501 15.8856
508 2 107.574 47.8437 0.170092
509 2 111.333 47.6745 15.9124
510 2 115.159 47.6515 16.0543
511 2 119.105 47.3939 0.157784
512 2 123.177 47.4466 0.228656
513 2 126.947 47.3505 0.343064
514 2 131.008 47.349 0.337143
515 2 134.781 47.4059 15.9381
516 2 138.645 47.3692 0.043326
517 2 142.622 47.2296 16.027
518 2 146.317 47.1632 0.0516311
519 2 150.353 47.1461 15.8068
520 2 154.333 47.1145 0.158866
521 2 158.223 51.0552 0.140393
522 2 3.69392 50.889 0.058197
523 2 7.49631 50.9075 0.0816397
524 2 11.3691 50.771 15.8152
525 2 15.4148 51.0405 -0.0730479
526 2 19.2982 51.0212 0.072874
527 2 23.2578 50.7544 0.18379
528 2 27.3668 50.883 15.8731
529 2 31.2359 50.8416 16.0972
530 2 35.296 50.6927 0.18573
531 2 39.2467 50.6063 15.8897
532 2 43.2985 50.8486 0.420242
533 2 47.3303 50.8726 0.184983
534 2 51.4146 50.7823 15.8392
535 2 55.3546 50.8237 15.976
536 2 59.4269 50.7955 15.9264
537 2 63.457 50.937 0.155907
538 2 67.3929 51.1306 0.192747
539 2 71.3707 51.2203 15.9391
540 2 75.4961 51.2984 0.180026
541 2 79.3563 51.3704 15.8832
542 2 83.6173 51.4273 15.8729
543 2 87.4995 51.4328 16.0527
544 2 91.3463 51.4888 0.137857
545 2 95.6119 51.3231 0.143112
546 2 99.6116 51.6234 15.8152
547 2 103.392 51.7424 0.228757
548 2 107.384 51.8073 16.0755
549 2 111.471 51.8779 0.434923
550 2 115.231 51.763 0.277905
551 2 119.203 51.5617 -0.015892
552 2 122.93 51.5864 0.11732
553 2 126.971 51.3486 16.01
554 2 130.784 51.434 0.339285
555 2 134.99 51.3046 15.8182
556 2 138.836 51.3096 0.179599
557 2 142.692 51.4408 15.9477
558 2 146.531 51.4057 15.9153
559 2 150.441 51.2614 0.236055
560 2 154.219 50.9692 0.0469828
561 2 158.285 55.1663 0.132871
562 2 3.83123 55.2061 0.180636
563 2 7.64927 54.8554 0.194659
564 2 11.7686 55.0621 15.9447
565 2 15.69 54.9485 15.9308
566 2 19.5093 54.6481 15.9075
567 2 23.3676 54.6946 16.0077
568 2 27.2698 54.7267 15.9924
569 2 31.3552 54.6081 0.0590604
570 2 35.1604 54.582 16.0422
571 2 39.2701 54.6478 0.223688
572 2 43.3142 54.6397 15.9433
573 2 47.4275 54.7418 16.0862
574 2 51.1468 54.5137 15.8121
575 2 55.2223 54.8118 0.0664378
576 2 59.3351 54.8784 0.113767
577 2 63.2723 54.8937 15.7926
578 2 67.3515 54.98 0.125795
579 2 71.4413 55.1086 15.7817
580 2 75.2432 55.1163 16.05
581 2 79.1935 55.2654 15.9153
582 2 83.4949 55.2291 15.7626
583 2 87.4086 55.4408 0.142007
584 2 91.3854 55.5045 -0.104108
585 2 95.4047 55.4052 0.046849
586 2 99.414 55.5519 15.8351
587 2 103.388 55.6373 0.32255
588 2 107.242 55.7511 0.244565
589 2 111.362 55.6999 15.9483
590 2 115.231 55.6392 0.225882
591 2 119.247 55.6477 0.0747746
592 2 123.277 55.6208 0.118243
593 2 127.071 55.5596 16.0317
594 2 130.89 55.7588 15.7608
595 2 134.836 55.306 15.813
596 2 138.65 55.2103 0.183972
597 2 142.588 55.3581 0.322636
598 2 146.57 55.2346 16.0739
599 2 150.557 55.3547 15.9558
600 2 154.389 55.267 0.208899
601 2 0.0670707 59.1721 0.20354
602 2 4.07577 59.3282 0.319708
603 2 7.79293 59.0559 0.0232508
604 2 11.4392 59.0999 15.8725
605 2 15.7003 58.8975 0.0304022
606 2 19.5686 58.717 15.8751
607 2 23.4516 58.7612 16.0574
608 2 27.4379 58.8992 -0.0688381
609 2 31.2444 58.635 15.8958
610 2 35.2954 58.5885 0.216944
611 2 39.2081 58.6183 0.0410922
612 2 43.1299 58.4916 15.9707
613 2 47.0862 58.4718 0.0862526
614 2 51.2627 58.5216 15.6167
615 2 55.137 58.8445 15.727
616 2 59.2748 58.739 15.8338
617 2 63.3294 58.7248 0.0615066
618 2 67.2526 58.8626 16.0196
619 2 71.4203 59.0817 0.0893734
620 2 75.296 59.2176 0.184772
621 2 79.2764 59.1056 15.9063
622 2 83.3449 59.0598 15.9337
623 2 87.302 59.3728 -0.0428104
624 2 91.2459 59.2302 0.071772
625 2 95.4102 59.4425 0.235894
626 2 99.1935 59.4413 16.0173
627 2 103.33 59.6243 0.236227
628 2 107.284 59.5748 0.10655
629 2 111.11 59.401 0.195711
630 2 115.339 59.6462 0.219373
631 2 119.177 59.6507 0.149486
632 2 123.185 59.4677 -0.0321509
633 2 127.107 59.6188 8.10419e-05
634 2 131.066 59.5923 15.7016
635 2 134.808 59.3697 0.103821
636 2 139.021 59.3335 -0.00632788
637 2 142.845 59.3934 16.0056
638 2 146.585 59.2057 0.195807
639 2 150.536 59.4167 0.160537
640 2 154.575 59.1938 0.176574
641 2 0.00853363 63.0572 15.7173
642 2 4.0254 63.1457 16.1121
643 2 8.08576 63.1015 -0.0503152
644 2 11.9484 62.9492 0.196928
645 2 15.7151 62.8322 15.9269
646 2 19.7135 62.7815 15.8268
647 2 23.7003 62.8818 15.9102
648 2 27.5178 62.7151 0.260482
649 2 31.6235 62.6285 16.0514
650 2 35.4088 62.7014 15.9163
651 2 39.4375 62.4776 0.109786
652 2 43.2842 62.362 0.179483
653 2 47.2019 62.4706 16.006
654 2 51.1827 62.6952 -0.0946896
655 2 55.2285 62.6955 0.17839
656 2 59.341 62.6169 0.0462952
657 2 63.2101 62.5902 0.138664
658 2 67.2662 62.7098 -0.0492835
659 2 71.2286 62.8569 0.077506
660 2 75.1971 63.0157 15.8296
661 2 79.2518 63.0038 15.9255
662 2 83.1682 63.0581 16.0528
663 2 87.2135 63.3176 0.109667
664 2 91.1901 63.0791 15.7135
665 2 95.1092 63.4976 0.030169
666 2 99.2187 63.3981 0.106899
667 2 103.169 63.4099 0.244076
668 2 107.224 63.5344 0.241556
669 2 111.187 63.5066 0.0249721
670 2 115.223 63.632 0.0439922
671 2 119.061 63.7124 15.9936
672 2 123.195 63.4116 15.8612
673 2 127.229 63.4968 15.753
674 2 130.825 63.3666 0.133504
675 2 134.939 63.5154 15.9174
676 2 138.923 63.5266 0.23505
677 2 142.684 63.3389 0.178073
678 2 146.805 63.2021 0.122347
679 2 150.71 63.3191 15.8013
680 2 154.603 63.1537 15.9564
681 2 0.2502 67.2081 0.114551
682 2 3.85392 67.1212 0.277798
683 2 7.90002 66.966 0.101893
684 2 12.0112 67.0201 15.7034
685 2 15.644 66.8614 16.0458
686 2 19.6099 66.8219 16.1331
687 2 23.7097 66.7954 15.8445
688 2 27.5226 66.6265 15.8347
689 2 31.3903 66.5771 0.0159686
690 2 35.3777 66.3564 0.18446
691 2 39.3276 66.5156 0.240035
692 2 43.435 66.5899 15.9754
693 2 47.1768 66.3642 0.0265
694 2 51.3327 66.4732 15.8861
695 2 55.1957 66.5254 16.1014
696 2 59.3139 66.5933 15.9551
697 2 63.3684 66.6033 15.7434
698 2 67.1141 66.7223 15.9138
699 2 71.2291 66.8033 -0.0386824
700 2 75.3056 66.9012 0.186715
701 2 79.189 66.8761 15.987
702 2 83.1931 66.913 15.9699
703 2 87.239 67.1723 15.8808
704 2 91.1136 67.0723 0.032431
705 2 95.1415 67.1744 15.8847
706 2 99.2119 67.3777 15.9998
707 2 102.924 67.4063 0.200253
708 2 107.185 67.385 16.0281
709 2 111.257 67.5386 0.230221
710 2 115.122 67.5292 0.231258
711 2 119.253 67.5551 0.149016
712 2 123.063 67.479 15.7896
713 2 127.28 67.5849 15.6733
714 2 131.246 67.6284 15.8095
715 2 134.924 67.3705 15.8138
716 2 138.811 67.5815 15.8037
717 2 142.902 67.2774 15.7653
718 2 146.778 67.2541 0.0814814
719 2 150.489 67.5146 15.7264
720 2 154.768 67.1849 15.8682
721 2 0.226912 71.2016 15.9837
722 2 4.02195 71.0935 15.9664
723 2 7.80227 71.0683 0.101546
724 2 11.6221 70.9526 15.7947
725 2 15.9287 70.8046 16.0052
726 2 19.8301 70.6098 0.232724
727 2 23.8253 70.7886 15.7447
728 2 27.5505 70.6284 15.855
729 2 31.4103 70.5372 16.0007
730 2 35.3518 70.3144 15.9125
731 2 39.5245 70.2441 15.9317
732 2 43.2695 70.4012 0.24754
733 2 47.2373 70.264 15.9053
734 2 51.2082 70.6121 15.941
735 2 55.1758 70.5494 16.0037
736 2 59.1967 70.4928 0.108127
737 2 63.2967 70.7282 16.0065
738 2 67.2524 70.7411 0.0758535
739 2 71.0823 70.7705 15.8287
740 2 74.9752 70.7709 16.0665
741 2 79.2884 70.764 15.9329
742 2 83.1352 71.078 0.285668
743 2 87.0778 71.0662 16.0655
744 2 91.0024 70.9543 0.212409
745 2 94.9712 70.9374 0.101824
746 2 98.9519 71.1038 15.866
747 2 103.232 71.2798 0.110775
748 2 106.91 71.3196 0.255153
749 2 110.917 71.4557 15.8
750 2 115.179 71.4106 0.153758
751 2 119.099 71.3687 15.8335
752 2 123.204 71.4117 0.107664
753 2 127.189 71.4417 15.8274
754 2 131.255 71.5724 15.9548
755 2 135.068 71.635 15.8615
756 2 138.982 71.5435 15.6751
757 2 142.942 71.6412 15.8864
758 2 146.692 71.2494 15.8959
759 2 150.753 71.4747 16.0963
760 2 154.563 71.2305 15.702
761 2 0.175462 75.1546 15.9355
762 2 4.32651 75.0751 16.0363
763 2 7.95575 75.0116 16.0214
764 2 11.9337 74.761 15.8591
765 2 16.0082 74.8199 16.1761
766 2 20.0324 74.6055 16.1694
767 2 23.6646 74.8052 16.0267
768 2 27.7567 74.6628 16.0317
769 2 31.5629 74.3804 0.132072
770 2 35.3713 74.4398 15.9624
771 2 39.4047 74.5674 15.8748
772 2 43.3798 74.4352 0.382028
773 2 47.2947 74.4379 15.8619
774 2 51.0658 74.4512 0.296754
775 2 55.1079 74.3841 15.8244
776 2 59.2234 74.3534 16.0014
777 2 63.1952 74.3515 15.9097
778 2 67.2485 74.5924 15.7609
779 2 71.0844 74.8295 15.8385
780 2 75.0275 74.497 0.276539
781 2 79.0559 74.7702 15.9332
782 2 83.0843 74.9822 15.658
783 2 87.1087 74.952 15.9261
784 2 90.9504 75.118 0.0337881
785 2 95.0135 75.0737 15.705
786 2 99.042 75.2672 0.331347
787 2 103.021 75.1519 15.9001
788 2 106.98 75.3251 0.117661
789 2 111 75.1713 15.96
790 2 115.025 75.1716 0.123276
791 2 119.191 75.3014 15.9659
792 2 123.181 75.332 15.8918
793 2 127.146 75.4776 0.0467025
794 2 130.984 75.3859 -0.0829454
795 2 134.948 75.492 15.7384
796 2 138.895 75.5106 15.794
797 2 143.107 75.4706 0.0496239
798 2 146.804 75.2654 15.9474
799 2 150.746 75.4587 15.739
800 2 154.636 75.2606 -0.00132315
801 2 0.229675 78.9834 15.961
802 2 4.04637 79.1822 15.9162
803 2 8.12745 78.8452 15.7318
804 2 12.0931 78.9106 15.9057
805 2 15.9233 78.8863 15.8536
806 2 19.876 78.773 15.7986
807 2 23.7934 78.5063 15.906
808 2 27.7716 78.5928 16.0103
809 2 31.5919 78.5991 0.150802
810 2 35.4871 78.4767 15.9198
811 2 39.2851 78.3765 0.0775141
812 2 43.2632 78.4622 0.231284
813 2 47.1717 78.4154 0.0122288
814 2 51.0983 78.4361 16.0712
815 2 55.1889 78.2213 15.8165
816 2 58.9155 78.3595 15.8917
817 2 63.0367 78.3696 15.8963
818 2 67.0962 78.4964 15.9938
819 2 71.1026 78.7131 16.1228
820 2 74.9427 78.443 16.0402
821 2 78.7599 78.3006 0.0907165
822 2 82.8057 78.7905 0.0613475
823 2 86.9015 78.709 0.156505
824 2 90.9074 78.8657 0.282857
825 2 94.8528 79.1538 0.258222
826 2 98.8801 78.9748 15.7759
827 2 102.756 79.1836 0.101032
828 2 106.968 79.121 15.742
829 2 110.95 79.1246 0.0608299
830 2 115.15 79.2234 16.0433
831 2 118.98 79.2929 0.319737
832 2 123.248 79.3668 0.162886
833 2 127.136 79.4193 15.8909
834 2 131.189 79.3447 0.196792
835 2 135.201 79.6249 15.8334
836 2 139.044 79.498 15.9131
837 2 142.951 79.2841 15.887
838 2 146.827 79.3727 15.7472
839 2 150.524 79.2299 15.7282
840 2 154.64 79.1778 15.7975
841 2 0.275503 83.0008 15.8261
842 2 4.30686 82.8951 15.9471
843 2 8.29473 82.9426 15.8808
844 2 12.2132 82.858 15.8551
845 2 16.0228 82.8105 15.955
846 2 19.8822 82.747 15.8257
847 2 23.5865 82.8143 15.8744
848 2 27.6936 82.505 15.9076
849 2 31.7598 82.5 15.8535
850 2 35.5097 82.4734 15.9704
851 2 39.4078 82.5229 0.0741439
852 2 43.2545 82.4218 15.9285
853 2 47.2727 82.3208 15.7121
854 2 51.2147 82.3046 15.9374
855 2 55.0138 82.3821 15.9284
856 2 59.131 82.3597 15.7922
857 2 62.9735 82.298 15.9151
858 2 66.8154 82.455 0.0305279
859 2 70.8244 82.5685 0.336419
860 2 74.968 82.7124 15.9382
861 2 78.885 82.5144 0.430159
862 2 83.0278 82.6861 16.0478
863 2 87.0066 82.7731 15.9607
864 2 90.9257 82.8262 0.0176696
865 2 94.8661 82.9151 15.981
866 2 98.7345 83.0372 15.9324
867 2 102.861 83.0933 0.0656096
868 2 107.039 83.0038 0.0486124
869 2 111.076 82.9109 15.7972
870 2 115.21 83.1623 16.0397
871 2 119.034 83.1039 0.249409
872 2 123.001 83.2967 15.9304
873 2 127.041 83.086 0.170514
874 2 130.853 83.1299 16.1469
875 2 134.894 83.3199 0.213208
876 2 138.965 83.5937 16.0515
877 2 142.919 83.4376 0.0991487
878 2 146.874 83.4056 0.194508
879 2 150.697 83.2013 15.9117
880 2 154.731 83.2507 15.7938
881 2 0.264422 87.1288 15.8505
882 2 4.18065 87.0212 0.124276
883 2 8.22064 87.0943 15.9926
884 2 12.1188 86.8666 15.9797
885 2 16.04 86.896 0.0928205
886 2 20.0715 86.6773 15.7886
887 2 23.8249 86.6401 15.8653
888 2 27.7354 86.6773 15.9603
889 2 31.5751 86.4526 16.0595
890 2 35.4694 86.4386 16.0197
891 2 39.4274 86.3248 15.8861
892 2 43.4226 86.3477 15.6741
893 2 47.5207 86.6326 0.0857821
894 2 51.4064 86.3046 0.0110184
895 2 54.9743 86.2468 0.287781
896 2 58.903 86.3578 15.7703
897 2 62.8101 86.2715 15.9969
898 2 66.76 86.2496 0.188453
899 2 70.728 86.363 0.0380124
900 2 74.595 86.3889 15.9545
901 2 78.8909 86.4289 0.224666
902 2 82.9486 86.595 0.332168
903 2 86.7128 86.7575 15.8805
904 2 90.6343 86.857 -0.0092237
905 2 94.555 86.9001 15.9235
906 2 98.8372 86.8819 15.9536
907 2 102.907 86.9084 0.0871157
908 2 106.696 86.8293 0.126782
909 2 110.973 86.9371 16.0217
910 2 114.857 86.9631 0.377447
911 2 118.607 87.043 0.260881
912 2 122.794 87.0766 0.367132
913 2 127.021 87.1879 16.0268
914 2 130.841 87.2005 -0.0374556
915 2 134.838 87.1207 15.9007
916 2 138.998 87.2674 0.366277
917 2 142.933 87.2197 0.067946
918 2 146.85 87.2073 0.0816406
919 2 150.953 87.2102 15.6499
920 2 154.657 87.1416 15.8529
921 2 0.392663 91.0548 15.8866
922 2 4.35346 90.9147 0.104867
923 2 8.13411 90.8406 0.0379214
924 2 12.1266 90.8931 -0.0311579
925 2 15.8793 90.9372 15.8181
926 2 19.9047 90.8071 15.9226
927 2 23.7953 90.6907 15.9741
928 2 27.609 90.697 15.9875
929 2 31.5567 90.5453 15.8705
930 2 35.5057 90.4505 15.6905
931 2 39.5484 90.5023 15.8773
932 2 43.5142 90.3406 0.143876
933 2 47.2981 90.3748 15.747
934 2 51.1988 90.3328 15.6108
935 2 55.2183 90.3426 15.9717
936 2 58.9674 90.072 15.785
937 2 63.0072 90.2993 0.057615
938 2 66.8509 90.2224 15.9564
939 2 70.7844 90.3736 16.0513
940 2 74.6706 90.3585 15.9198
941 2 78.7812 90.3853 0.053823
942 2 82.7917 90.4981 0.35654
943 2 86.9253 90.4733 16.1561
944 2 90.7451 90.8044 0.152897
945 2 94.8985 90.6229 0.218207
946 2 98.6953 90.7275 0.226978
947 2 102.7 90.9935 0.109222
948 2 106.781 90.7511 0.0633141
949 2 110.812 90.8992 15.985
950 2 114.693 90.7955 0.239175
951 2 118.607 90.9245 0.237908
952 2 122.834 91.214 0.283288
953 2 126.849 91.0717 0.0826798
954 2 130.882 91.0058 15.9089
955 2 134.912 91.2414 0.0487966
956 2 139.022 91.3104 0.143423
957 2 142.959 91.3087 0.140115
958 2 147.006 91.2751 -0.00596949
959 2 150.926 91.2411 15.8827
960 2 154.75 91.4515 0.0489171
961 2 0.559451 95.1328 15.8203
962 2 4.24026 94.9584 15.8804
963 2 8.21156 94.9262 0.425835
964 2 12.1848 94.8216 15.9989
965 2 16.0112 94.8168 15.855
966 2 19.9557 94.948 15.9139
967 2 23.619 94.9015 15.9583
968 2 27.8198 94.6836 16.0312
969 2 31.7271 94.5789 15.7565
970 2 35.4922 94.4643 0.038189
971 2 39.5398 94.4191 15.7473
972 2 43.325 94.4189 15.6313
973 2 47.3192 94.3953 15.6875
974 2 51.0865 94.2491 0.320615
975 2 55.391 94.306 15.6148
976 2 59.2152 94.3109 15.725
977 2 63.0901 94.1825 15.9713
978 2 66.964 94.254 0.105902
979 2 70.7617 94.1992 0.174663
980 2 74.6616 94.3986 15.9214