ITEM: TIMESTEP
16300
ITEM: NUMBER OF ATOMS
32000
ITEM: BOX BOUNDS xy xz yz pp pp pp
0.0000000000000000e+00 1.5831999999999999e+02 0.0000000000000000e+00
0.0000000000000000e+00 1.5831999999999999e+02 0.0000000000000000e+00
1.6476470265270216e-01 1.5932947297347088e+01 0.0000000000000000e+00
ITEM: ATOMS id type x y z
1 2 158.038 157.715 16.0968
2 2 3.67752 157.89 0.399754
3 2 7.82428 157.79 0.258595
4 2 11.775 157.835 15.8855
5 2 15.7759 158.144 0.353796
6 2 19.7214 157.859 0.124188
7 2 23.8646 158.076 15.937
8 2 27.6392 158.068 0.208606
9 2 31.9139 158.184 16.0167
10 2 35.786 158.246 0.240886
11 2 39.7413 158.379 0.026248
12 2 43.8265 158.411 15.9383
13 2 48.0179 0.106361 15.9333
14 2 52.0232 0.282159 15.9835
15 2 55.8651 158.62 16.1441
16 2 59.9231 0.498159 16.2075
17 2 63.7644 0.28379 0.220274
18 2 67.5397 0.115487 0.194353
19 2 71.562 158.325 16.0079
20 2 75.2962 158.451 15.8848
21 2 79.5524 158.399 15.8865
22 2 83.4775 158.265 0.225029
23 2 87.563 158.374 0.520277
24 2 91.2958 158.241 0.508279
25 2 95.0747 158.267 0.298436
26 2 99.0837 158.091 0.18233
27 2 102.936 157.979 0.196557
28 2 106.794 157.919 15.9523
29 2 110.842 157.949 -0.0207577
30 2 114.509 158.013 0.192237
31 2 118.784 157.8 0.320212
32 2 122.608 157.625 15.9865
33 2 126.581 157.448 15.9837
34 2 130.524 157.672 16.0015
35 2 134.317 157.508 16.0262
36 2 137.893 157.43 16.0396
37 2 142.22 157.508 16.0408
38 2 146.104 157.436 16.0832
39 2 150.199 157.63 15.9346
40 2 154.096 157.419 15.9868
41 2 158.006 3.15387 0.433019
42 2 3.50608 3.39272 16.1335
43 2 7.60186 3.63498 0.26861
44 2 11.6502 3.39616 0.262712
45 2 15.6553 3.71193 0.184695
46 2 19.751 3.63435 16.2088
47 2 23.6175 3.71714 0.182234
48 2 27.7225 3.79745 0.207186
49 2 31.7632 3.80869 0.0206827
50 2 35.8529 3.86774 0.0495032
51 2 39.8006 3.92547 0.26543
52 2 43.7389 3.99955 -0.0716005
53 2 47.6421 3.94809 15.9391
54 2 51.7936 4.15362 0.23726
55 2 55.8658 4.14245 0.184641
56 2 59.8213 4.28636 0.281355
57 2 63.8212 4.32416 15.8852
58 2 67.7044 4.15843 0.153633
59 2 71.6262 4.21469 0.0766418
60 2 75.6645 4.08961 0.184183
61 2 79.2131 4.05472 0.293586
62 2 83.4584 3.6689 0.26184
63 2 87.3872 3.83394 0.194368
64 2 91.2969 3.69908 0.170937
65 2 95.1514 3.85972 15.7437
66 2 99.0158 3.65896 0.146274
67 2 102.969 3.59277 0.197378
68 2 106.88 3.5135 16.0668
69 2 111.122 3.50464 15.7892
70 2 114.986 3.68557 15.9998
71 2 118.665 3.41339 15.9881
72 2 122.845 3.51762 0.0724571
73 2 126.594 3.42312 15.8835
74 2 130.443 3.24738 0.168632
75 2 134.384 3.22794 15.8007
76 2 138.228 3.11862 0.261912
77 2 142.229 3.19914 16.0446
78 2 146.209 3.11753 0.207893
79 2 150.074 3.26288 15.9985
80 2 154.03 3.13351 15.9676
81 2 157.914 7.19111 0.230577
82 2 3.68544 7.25897 15.857
83 2 7.49782 7.35289 16.0386
84 2 11.6386 7.31532 15.8556
85 2 15.6616 7.42859 0.389191
86 2 19.6913 7.53386 16.1474
87 2 23.596 7.64077 0.101284
88 2 27.7348 7.59365 0.0463604
89 2 31.8241 7.73987 15.699
90 2 35.7197 7.93387 16.0013
91 2 39.7513 7.83863 15.8862
92 2 43.558 7.79397 15.8124
93 2 47.5074 7.84659 0.0667818
94 2 51.8757 8.01004 15.8199
95 2 55.8507 7.95255 0.245664
96 2 59.7117 8.18721 0.0615946
97 2 63.9397 8.16217 0.156125
98 2 67.8903 8.08532 0.275994
99 2 71.8231 8.07337 0.173381
100 2 75.5563 8.31388 0.199949
101 2 79.6298 8.04537 15.9824
102 2 83.637 7.92567 0.278522
103 2 87.413 7.96537 15.8304
104 2 91.322 7.88306 0.33634
105 2 94.9554 7.992 -0.00469131
106 2 99.1608 7.77025 0.177408
107 2 103.086 7.79488 0.163671
108 2 107.122 7.67788 0.109789
109 2 110.933 7.34959 0.335553
110 2 114.828 7.51011 -0.103395
111 2 118.713 7.427 0.131708
112 2 122.603 7.46575 0.0633273
113 2 126.509 7.40377 15.9769
114 2 130.455 7.2494 0.134699
115 2 134.624 7.14901 0.282197
116 2 138.444 7.24897 15.9534
117 2 142.208 7.40341 15.9865
118 2 145.979 7.1229 0.303652
119 2 149.936 7.10849 16.0741
120 2 154.05 7.19246 16.0127
121 2 158.103 11.1238 0.325677
122 2 3.69474 11.1307 0.166708
123 2 7.59191 11.2898 16.0042
124 2 11.5298 11.2121 15.9467
125 2 15.7349 11.503 16.1312
126 2 19.6798 11.3474 0.295093
127 2 23.6246 11.762 0.129876
128 2 27.6746 11.4872 0.192788
129 2 31.6077 11.4058 0.179779
130 2 35.7787 11.8671 0.354284
131 2 39.6114 11.6858 0.293876
132 2 43.5384 11.9556 15.7895
133 2 47.6296 11.7218 15.6835
134 2 51.5608 11.8501 15.7043
135 2 55.6661 11.938 0.159329
136 2 59.6675 12.1187 16.0624
137 2 63.9458 12.157 0.276898
138 2 67.8332 12.3036 15.9488
139 2 71.7709 12.1972 0.204616
140 2 75.8186 12.0854 0.375854
141 2 79.8399 12.1676 0.454853
142 2 83.6696 12.0644 0.238231
143 2 87.4764 11.9862 0.111854
144 2 91.3918 11.8057 0.308124
145 2 95.3934 11.8292 0.143569
146 2 99.15 11.6402 0.37508
147 2 103.136 11.6633 0.270072
148 2 106.927 11.5664 0.0423144
149 2 111.185 11.494 0.263948
150 2 114.943 11.7385 -0.00254539
151 2 118.744 11.4568 0.0381398
152 2 122.779 11.3353 0.204695
153 2 126.609 11.3253 0.212551
154 2 130.783 11.4465 16.0488
155 2 134.395 11.0928 0.0334434
156 2 138.234 11.0585 0.142617
157 2 142.165 11.1661 15.995
158 2 145.979 11.1906 15.8664
159 2 150.006 11.1189 15.9509
160 2 153.975 10.982 15.9101
161 2 157.977 14.9771 0.173598
162 2 3.64002 14.9982 0.116316
163 2 7.54913 14.9108 0.116128
164 2 11.6083 15.079 16.0955
165 2 15.5287 15.1533 16.0416
166 2 19.6657 15.3251 0.219729
167 2 23.7229 15.3888 0.10095
168 2 27.5875 15.3826 16.0127
169 2 31.4051 15.4567 15.8324
170 2 35.506 15.5907 0.165258
171 2 39.5681 15.6743 15.9978
172 2 43.6997 15.6173 0.0463777
173 2 47.5681 15.8061 -0.00899475
174 2 51.6206 15.9694 0.107608
175 2 55.7841 15.9967 16.0462
176 2 59.8321 16.0128 0.170525
177 2 63.9598 16.0753 0.147757
178 2 67.9678 16.0569 0.359677
179 2 71.8807 16.0643 0.246589
180 2 75.9348 16.1546 15.9792
181 2 79.7007 16.0192 0.17751
182 2 83.5497 15.9067 0.117846
183 2 87.5492 15.9589 0.172937
184 2 91.4658 16.0397 0.0991031
185 2 95.4177 15.7433 0.116418
186 2 99.3525 15.8598 0.112099
187 2 103.424 15.7065 0.160702
188 2 107.048 15.467 0.168444
189 2 110.943 15.5277 0.310656
190 2 114.811 15.6023 0.234068
191 2 118.746 15.5102 0.254199
192 2 122.644 15.3211 15.8782
193 2 126.689 15.3668 -0.0185471
194 2 130.525 15.1904 0.212218
195 2 134.454 15.435 0.18699
196 2 138.515 15.2247 0.14588
197 2 142.278 15.1058 -0.138719
198 2 146.054 15.1237 0.28452
199 2 150.12 15.1784 16.0665
200 2 154.066 15.1396 0.321062
201 2 157.894 19.0151 15.9471
202 2 3.6426 18.9235 0.162192
203 2 7.61965 19.0074 16.0424
204 2 11.6415 19.0574 15.9435
205 2 15.4105 19.0575 16.1357
206 2 19.4156 19.0467 0.140898
207 2 23.5114 19.2368 0.188058
208 2 27.5202 19.4536 0.121543
209 2 31.5654 19.3658 15.8004
210 2 35.5607 19.5725 15.9918
211 2 39.4656 19.6785 0.130477
212 2 43.6869 19.5502 15.9805
213 2 47.6801 19.7335 15.9855
214 2 51.6134 19.7449 16.0335
215 2 55.7218 19.7378 15.8944
216 2 59.8414 19.8679 15.8909
217 2 63.87 19.9425 15.8214
218 2 67.651 19.8844 15.8932
219 2 71.7 20.096 0.218134
220 2 75.7252 20.0068 0.200467
221 2 79.706 19.9374 0.29299
222 2 83.6309 20.0553 0.397801
223 2 87.6498 19.8508 15.9558
224 2 91.3741 19.8927 0.418381
225 2 95.2625 19.7869 0.152761
226 2 99.3071 19.6034 16.024
227 2 103.28 19.7371 15.7806
228 2 107.146 19.6062 15.93
229 2 110.843 19.7617 0.14718
230 2 114.943 19.6113 0.204844
231 2 118.779 19.5053 15.8132
232 2 122.858 19.4858 0.0294334
233 2 126.733 19.3845 0.144438
234 2 130.746 19.3787 0.187263
235 2 134.434 19.2627 16.1178
236 2 138.278 19.2839 16.0429
237 2 142.203 19.1904 0.111576
238 2 146.222 19.135 0.289777
239 2 150.153 19.1135 0.369263
240 2 154.035 19.1686 15.8043
241 2 158.003 22.9153 15.9226
242 2 3.67107 23.0036 15.981
243 2 7.66694 22.9913 0.0630641
244 2 11.4582 23.0043 15.8925
245 2 15.3151 22.9753 15.8196
246 2 19.5176 22.9354 0.0983985
247 2 23.3982 23.2384 15.9346
248 2 27.2797 23.4071 15.8858
249 2 31.5253 23.3125 0.0532759
250 2 35.5267 23.5155 16.0158
251 2 39.6457 23.425 0.0350366
252 2 43.5884 23.2899 16.0149
253 2 47.7042 23.5116 15.9064
254 2 51.7907 23.6871 0.00119414
255 2 55.8981 23.6584 15.8579
256 2 59.7198 23.7095 15.9938
257 2 63.8178 23.8038 15.944
258 2 67.8119 23.8733 0.160375
259 2 71.7287 23.9028 0.18044
260 2 75.7616 23.9335 0.0963767
261 2 79.6981 23.963 16.0397
262 2 83.7363 24.1397 15.9091
263 2 87.6106 23.6941 0.171954
264 2 91.5172 23.8154 15.9458
265 2 95.4558 23.7958 15.8336
266 2 99.2202 23.7899 0.188115
267 2 103.095 23.7738 0.25758
268 2 107.118 23.8002 0.146755
269 2 110.902 23.7168 0.0988623
270 2 114.861 23.6047 15.8756
271 2 118.995 23.4649 15.9662
272 2 122.734 23.4892 0.153056
273 2 126.583 23.3516 -0.00902709
274 2 130.633 23.3222 15.821
275 2 134.55 23.3873 0.222675
276 2 138.469 23.2186 15.8933
277 2 142.345 23.1709 0.164844
278 2 146.265 23.1772 0.304232
279 2 150.034 23.2573 0.162329
280 2 154.043 22.9579 0.169086
281 2 158.101 26.957 0.0731495
282 2 3.5567 26.9501 15.8592
283 2 7.48666 26.8852 0.213766
284 2 11.595 26.7208 15.9684
285 2 15.5478 27.0145 15.9173
286 2 19.5785 27.1241 0.329347
287 2 23.3793 27.0016 -0.0047443
288 2 27.3525 27.2018 0.309062
289 2 31.6467 27.053 16.0334
290 2 35.5237 27.2853 0.191004
291 2 39.5839 27.3391 0.25707
292 2 43.6931 27.3229 15.778
293 2 47.4678 27.5102 0.0439809
294 2 51.4029 27.4308 0.186891
295 2 55.6613 27.6817 0.316024
296 2 59.6687 27.4781 0.0470255
297 2 63.7417 27.5372 0.337681
298 2 67.7035 27.5681 0.296729
299 2 71.8728 27.6968 0.249497
300 2 75.9197 27.9194 15.9325
301 2 79.7587 27.9682 0.186053
302 2 83.8033 27.9811 15.716
303 2 87.785 28.0172 0.375485
304 2 91.6974 27.8359 15.9736
305 2 95.2739 28.015 16
306 2 99.3349 27.9204 -0.11128
307 2 103.21 27.7157 0.0858668
308 2 107.141 27.7883 15.8567
309 2 111.186 27.8758 0.145977
310 2 114.95 27.597 15.8688
311 2 118.946 27.3776 16.0666
312 2 122.946 27.5342 0.191114
313 2 126.737 27.345 0.189079
314 2 130.72 27.373 -0.0888774
315 2 134.364 27.3376 15.9957
316 2 138.156 27.3695 0.0602154
317 2 142.301 27.262 0.287264
318 2 146.238 27.1395 0.151243
319 2 150.199 27.0406 0.241727
320 2 154.034 26.8749 16.1079
321 2 158.002 30.8568 15.9986
322 2 3.63875 31.0158 0.0892753
323 2 7.37876 30.9486 0.272184
324 2 11.3449 30.896 16.0478
325 2 15.4219 30.9286 0.263202
326 2 19.3835 30.851 16.022
327 2 23.4189 31.0252 16.0658
328 2 27.4188 31.073 0.221431
329 2 31.4525 31.0503 0.00464072
330 2 35.4183 31.1046 15.8922
331 2 39.6855 31.1591 15.8224
332 2 43.6638 31.2277 -0.0395088
333 2 47.5582 31.2123 15.8924
334 2 51.6648 31.3416 15.971
335 2 55.4519 31.4255 0.257457
336 2 59.5285 31.3441 0.00848746
337 2 63.6749 31.5122 15.8821
338 2 67.7161 31.5933 -0.0168684
339 2 71.6497 31.6351 15.969
340 2 75.8055 31.6787 0.126311
341 2 79.7834 32.0062 0.240664
342 2 83.7937 31.9008 15.9239
343 2 87.6573 31.838 0.290719
344 2 91.4689 32.1555 0.12088
345 2 95.545 31.9841 0.328881
346 2 99.394 31.7357 0.246539
347 2 103.3 31.7414 15.9134
348 2 107.02 31.8774 0.220304
349 2 111.067 31.6836 16.0376
350 2 115.063 31.5484 0.35296
351 2 119.002 31.673 16.1203
352 2 122.95 31.361 0.275777
353 2 126.961 31.2427 0.274001
354 2 130.627 31.4772 0.153896
355 2 134.726 31.3938 0.152612
356 2 138.577 31.2061 16.136
357 2 142.355 31.2348 15.9657
358 2 146.313 31.1587 15.8588
359 2 150.248 31.251 15.9561
360 2 154.025 31.0408 16.0505
361 2 158.068 35.1381 15.8812
362 2 3.49822 34.9506 0.299584
363 2 7.67195 34.9985 0.242975
364 2 11.369 34.8602 16.104
365 2 15.1749 34.7908 0.28959
366 2 19.217 34.8497 15.9423
367 2 23.2495 34.9844 15.8601
368 2 27.3254 34.9972 0.224022
369 2 31.363 35.0154 0.394671
370 2 35.4614 35.0252 15.7772
371 2 39.2429 34.9902 0.0842006
372 2 43.423 35.0577 15.8622
373 2 47.4402 35.1997 15.9019
374 2 51.5678 35.2365 0.314239
375 2 55.5109 35.459 15.9747
376 2 59.6434 35.3422 0.122429
377 2 63.5873 35.4547 0.327073
378 2 67.5563 35.2934 0.337047
379 2 71.7039 35.5559 0.214921
380 2 75.7192 35.6505 15.8947
381 2 79.6906 35.8232 15.9215
382 2 83.9375 35.8903 0.33682
383 2 87.7819 35.7343 0.25896
384 2 91.6286 35.8507 15.6899
385 2 95.6607 35.8185 15.9792
386 2 99.6 35.8946 -0.115112
387 2 103.475 35.6611 16.0117
388 2 107.428 35.6341 0.28676
389 2 111.209 35.5839 15.9434
390 2 115.092 35.5849 0.142068
391 2 119.046 35.4769 15.967
392 2 122.987 35.6669 15.9185
393 2 126.795 35.4406 0.152903
394 2 130.668 35.3769 0.475753
395 2 134.539 35.3732 16.0006
396 2 138.58 35.3247 16.0527
397 2 142.369 35.189 15.835
398 2 146.218 35.1591 15.9027
399 2 150.27 35.1599 0.123486
400 2 154.085 35.0704 0.227102
401 2 158.093 39.081 0.186326
402 2 3.69581 38.9214 16.0484
403 2 7.67173 38.9172 15.9701
404 2 11.541 38.9293 0.108793
405 2 15.321 38.8763 0.172133
406 2 19.1564 38.7834 15.9929
407 2 23.1869 38.7894 15.799
408 2 27.1938 39.2104 0.19214
409 2 31.2848 39.1396 15.9124
410 2 35.4021 39.1335 0.0879435
411 2 39.2938 39.1904 0.0382074
412 2 43.4544 39.0722 0.159002
413 2 47.3337 39.0512 0.104699
414 2 51.2976 39.3821 0.186875
415 2 55.5289 39.1743 0.288361
416 2 59.5088 39.2118 0.138998
417 2 63.6237 39.4209 15.864
418 2 67.4857 39.5045 0.0677303
419 2 71.5195 39.519 -0.000576045
420 2 75.823 39.5012 0.0785942
421 2 79.7293 39.507 15.8394
422 2 83.4802 39.6655 16.0104
423 2 87.7624 39.8889 16.0087
424 2 91.6868 39.8031 15.9555
425 2 95.7329 39.8031 15.8449
426 2 99.7708 39.8491 0.230474
427 2 103.62 39.7836 0.100982
428 2 107.46 39.5925 15.9396
429 2 111.358 39.741 16.0476
430 2 115.123 39.4785 15.8713
431 2 119.01 39.4831 16.0105
432 2 123.066 39.576 0.119632
433 2 126.93 39.4872 16.1104
434 2 130.731 39.2762 0.165293
435 2 134.608 39.2641 0.292443
436 2 138.443 39.2496 15.8333
437 2 142.455 39.0708 15.9631
438 2 146.554 39.3683 0.0965298
439 2 150.185 39.3199 15.8764
440 2 154.154 39.2487 0.188354
441 2 157.969 43.1793 0.21722
442 2 3.61896 43.0688 0.0896514
443 2 7.62273 43.061 -0.0426744
444 2 11.5958 42.9282 0.201431
445 2 15.2827 42.9371 0.278639
446 2 19.3354 42.8039 15.8599
447 2 23.2628 42.8404 0.173088
448 2 27.1846 42.7549 0.243495
449 2 31.404 42.8719 0.0655341
450 2 35.5515 42.8905 0.0878627
451 2 39.317 42.7488 0.0631132
452 2 43.4469 42.9182 0.134783
453 2 47.424 43.1605 0.0638459
454 2 51.5006 43.0685 0.151462
455 2 55.4962 43.2074 -0.044427
456 2 59.507 43.1345 0.208937
457 2 63.8397 43.1823 0.046775
458 2 67.5073 43.4017 15.825
459 2 71.522 43.4679 15.8868
460 2 75.5985 43.4928 0.0587733
461 2 79.4858 43.4024 -0.105243
462 2 83.5314 43.4911 16.0303
463 2 87.7424 43.5228 16.0338
464 2 91.6888 43.6256 15.896
465 2 95.5682 43.7261 0.13553
466 2 99.5822 43.9147 0.22462
467 2 103.479 43.6583 0.0735275
468 2 107.395 43.5648 0.240002
469 2 111.219 43.8104 15.8428
470 2 115.234 43.6386 15.8943
471 2 119.121 43.7538 0.0278532
472 2 123.022 43.5824 0.198358
473 2 126.903 43.4489 0.398735
474 2 130.766 43.3876 0.181096
475 2 134.65 43.2813 16.0169
476 2 138.675 43.2321 15.8326
477 2 142.535 43.3095 15.7702
478 2 146.23 43.1357 15.9993
479 2 150.313 43.1817 0.289239
480 2 154.179 43.1407 15.8309
481 2 158.084 47.0888 15.9464
482 2 3.55098 47.1875 15.8362
483 2 7.54476 46.8527 15.9815
484 2 11.554 47.2213 15.7758
485 2 15.5485 46.8098 0.217151
486 2 19.4185 46.911 15.8083
487 2 23.4242 46.7733 -0.0120523
488 2 27.2344 46.9175 0.402118
489 2 31.2617 46.6161 -0.0651354
490 2 35.373 46.6319 0.188961
491 2 39.195 46.7322 0.192198
492 2 43.1723 47.1043 0.207274
493 2 47.4922 47.0002 15.8535
494 2 51.4189 46.9484 16.1346
495 2 55.38 47.1427 0.387385
496 2 59.5137 47.0234 15.8873
497 2 63.7642 47.2073 0.0514112
498 2 67.6169 47.1486 0.118625
499 2 71.6018 47.2997 0.196604
500 2 75.5784 47.4647 15.8919
501 2 79.4485 47.4641 15.7367
502 2 83.501 47.5231 0.250184
503 2 87.534 47.6079 0.228457
504 2 91.5236 47.3771 16.0697
505 2 95.6381 47.6934 0.278372
506 2 99.5432 47.5623 0.30337
507 2 103.411 47.8334 16.081
508 2 107.326 47.6456 0.127303
509 2 111.422 47.5811 15.9577
510 2 115.214 47.7219 15.7796
511 2 119.125 47.7227 0.165886
512 2 122.818 47.5484 0.264673
513 2 126.956 47.5376 0.312653
514 2 130.761 47.4933 0.206063
515 2 134.874 47.4325 15.9898
516 2 138.754 47.4341 0.402537
517 2 142.504 47.4267 15.9048
518 2 146.455 47.394 0.200172
519 2 150.367 47.1622 16.1653
520 2 154.149 47.197 0.00675563
521 2 158.253 51.0187 0.0504771
522 2 3.8107 51.2088 0.144133
523 2 7.7402 50.9624 0.0471146
524 2 11.5985 51.1182 15.8207
525 2 15.5705 50.7656 0.0699762
526 2 19.4311 50.7455 -0.101741
527 2 23.3829 50.7831 0.0725415
528 2 27.2107 50.623 15.9183
529 2 31.3456 50.5666 15.9311
530 2 35.2033 50.405 0.239688
531 2 39.1549 50.6554 16.0915
532 2 43.2808 50.7579 0.137212
533 2 47.3942 50.7481 0.116471
534 2 51.3402 51.0029 15.7655
535 2 55.4861 50.9832 15.8215
536 2 59.4566 50.9405 15.994
537 2 63.4896 50.9531 0.161684
538 2 67.5288 51.0674 0.256669
539 2 71.467 51.3708 15.7589
540 2 75.3132 51.3562 0.0205578
541 2 79.6181 51.3764 15.8797
542 2 83.5289 51.4028 15.874
543 2 87.5444 51.6106 15.7947
544 2 91.6951 51.4589 0.2142
545 2 95.2906 51.8075 -0.0233857
546 2 99.3364 51.5123 15.9516
547 2 103.509 51.5733 0.23292
548 2 107.365 51.6435 16.144
549 2 111.308 51.484 0.0841283
550 2 115.095 51.8112 0.0408664
551 2 119.023 51.6413 0.240975
552 2 123.11 51.5552 0.189567
553 2 126.815 51.5967 15.9516
554 2 130.991 51.5067 0.320176
555 2 134.769 51.5126 16.0889
556 2 138.696 51.5605 0.058988
557 2 142.496 51.2933 15.994
558 2 146.445 51.2533 16.2918
559 2 150.33 51.2845 0.144548
560 2 154.305 51.2427 0.243597
561 2 158.359 54.9518 0.117382
562 2 3.85961 54.8896 -0.0819446
563 2 7.96648 55.1205 0.140663
564 2 11.7135 54.7836 15.7709
565 2 15.5151 54.7926 15.7258
566 2 19.3872 54.9846 16.011
567 2 23.5144 54.7933 16.0475
568 2 27.3593 54.7289 15.8189
569 2 31.2026 54.6255 0.258599
570 2 35.2403 54.5058 15.8584
571 2 39.1049 54.4121 0.127806
572 2 43.1952 54.5463 16.023
573 2 47.2766 54.6437 15.8261
574 2 51.4119 54.8859 15.7609
575 2 55.3632 54.7766 -0.133605
576 2 59.3253 54.6339 -0.00642957
577 2 63.5536 54.8287 15.956
578 2 67.4356 55.0393 0.30153
579 2 71.2921 55.2117 16.1206
580 2 75.3296 55.4677 15.9053
581 2 79.2342 55.3115 15.8998
582 2 83.3766 55.342 15.9183
583 2 87.3986 55.3195 0.141656
584 2 91.4378 55.236 0.277195
585 2 95.438 55.5768 0.209579
586 2 99.4495 55.5148 16.0108
587 2 103.512 55.5694 0.267714
588 2 107.589 55.5891 0.347943
589 2 111.258 55.5385 16.1037
590 2 115.369 55.8058 0.0676661
591 2 119.195 55.548 0.171034
592 2 123.04 55.5576 0.126835
593 2 127.115 55.5542 16.011
594 2 131.067 55.3543 16.0747
595 2 134.875 55.5209 16.0207
596 2 138.74 55.4654 0.146625
597 2 142.643 55.3112 0.116264
598 2 146.551 55.311 15.9999
599 2 150.566 55.2346 15.9844
600 2 154.501 55.061 0.101077
601 2 -0.00527775 58.9981 0.154683
602 2 3.80125 59.0204 0.119352
603 2 7.84974 59.0797 0.114584
604 2 11.9306 59.0367 15.78
605 2 15.6038 58.8752 0.335138
606 2 19.5102 58.9215 15.9108
607 2 23.5 58.6799 15.8496
608 2 27.5249 58.6473 0.269141
609 2 31.4769 58.6044 16.0756
610 2 35.212 58.5229 0.242286
611 2 39.3122 58.3452 0.280099
612 2 43.3215 58.4593 15.919
613 2 47.3867 58.6651 0.236553
614 2 51.1906 58.7407 15.8902
615 2 55.3611 58.7438 15.9173
616 2 58.9481 58.7358 15.8827
617 2 63.0391 58.808 0.188223
618 2 67.3558 58.9876 15.791
619 2 71.2508 58.9683 0.0732305
620 2 75.3301 59.1458 0.0910419
621 2 79.2548 59.1283 15.9388
622 2 83.3973 59.2936 15.8678
623 2 87.4194 59.3375 0.244358
624 2 91.2813 59.3523 -0.0233987
625 2 95.1985 59.4007 -0.0586229
626 2 99.3482 59.3692 15.8405
627 2 103.388 59.4173 0.21547
628 2 107.337 59.7186 0.312782
629 2 111.293 59.6706 0.215066
630 2 115.255 59.6723 0.0738092
631 2 119.416 59.5573 -0.0273958
632 2 123.17 59.6428 0.0646903
633 2 127.059 59.3677 0.178473
634 2 130.866 59.3754 15.9104
635 2 135.017 59.3984 0.202527
636 2 138.66 59.4144 0.177363
637 2 142.662 59.3619 16.0027
638 2 146.799 59.283 0.238295
639 2 150.652 59.1472 0.148762
640 2 154.389 59.1033 0.244836
641 2 0.26939 63.2084 16.0548
642 2 3.95986 63.1713 15.8856
643 2 7.86343 63.0678 0.207118
644 2 11.735 63.0298 0.294229
645 2 15.7413 62.8341 16.1144
646 2 19.6085 62.9327 15.993
647 2 23.5225 62.698 15.8374
648 2 27.3095 62.6821 0.0851378
649 2 31.25 62.5769 16.0673
650 2 35.56 62.4375 16.1269
651 2 39.3089 62.5565 0.361723
652 2 43.2023 62.5011 0.311519
653 2 47.1717 62.3979 15.6428
654 2 51.2243 62.5596 0.112575
655 2 55.1446 62.628 -0.0777709
656 2 59.1979 62.592 0.0350466
657 2 63.2774 62.6065 -0.00824526
658 2 67.2003 62.823 0.264911
659 2 71.2354 62.9449 -0.0788195
660 2 75.1258 63.1757 15.8961
661 2 79.3419 63.0257 15.7887
662 2 83.1964 62.9396 15.6724
663 2 87.2338 63.2346 0.274401
664 2 91.326 63.4803 15.9377
665 2 95.3198 63.2293 0.195825
666 2 99.2939 63.3721 0.313377
667 2 103.302 63.7136 0.0260733
668 2 107.207 63.6084 0.115031
669 2 111.253 63.6527 0.127896
670 2 115.215 63.5211 0.162446
671 2 119.362 63.4839 15.8163
672 2 123.164 63.726 15.7657
673 2 126.925 63.6984 15.9804
674 2 131.212 63.5695 0.0516888
675 2 135.091 63.4747 15.8775
676 2 138.775 63.3478 -0.118904
677 2 142.924 63.2554 0.246635
678 2 146.555 63.1281 0.0180159
679 2 150.772 63.2384 16.0432
680 2 154.604 63.1517 15.8536
681 2 -0.0415601 66.9841 0.0986858
682 2 4.02231 67.0835 0.0454464
683 2 8.04398 66.9439 0.364868
684 2 11.7587 67.0422 16.0762
685 2 15.9245 66.8556 15.9354
686 2 19.7029 66.9127 16.0128
687 2 23.6541 66.741 15.8044
688 2 27.681 66.5963 15.9587
689 2 31.4549 66.6422 0.26785
690 2 35.2843 66.4901 0.143035
691 2 39.5262 66.6981 0.319192
692 2 43.143 66.3173 15.679
693 2 47.453 66.4808 0.0278866
694 2 51.1423 66.5761 15.8533
695 2 55.266 66.7169 15.8102
696 2 59.0994 66.6595 15.829
697 2 63.0132 66.7584 16.0123
698 2 67.2222 66.7387 15.9026
699 2 71.0872 66.7525 0.142752
700 2 75.1365 66.9736 0.0962494
701 2 79.2797 66.9599 15.8329
702 2 83.1605 67.1061 15.7656
703 2 86.9812 67.0675 15.9453
704 2 91.2288 67.1974 0.0613068
705 2 95.1679 67.2546 15.8722
706 2 99.0907 67.1215 15.8987
707 2 103.328 67.4091 0.045097
708 2 107.092 67.4078 15.7969
709 2 111.053 67.4329 0.0617786
710 2 115.218 67.4301 0.0830239
711 2 119.079 67.3545 -0.0265407
712 2 123.209 67.4678 15.7802
713 2 126.989 67.4783 15.8222
714 2 130.992 67.4072 15.8667
715 2 134.901 67.6016 15.7779
716 2 138.781 67.4401 16.1126
717 2 142.537 67.3804 15.986
718 2 146.663 67.1704 0.102888
719 2 150.72 67.251 15.7757
720 2 154.261 67.2508 15.9273
721 2 0.217062 71.0887 15.9339
722 2 4.06796 70.949 16.0514
723 2 8.0837 70.8749 0.25222
724 2 12.1124 70.9173 16.0152
725 2 15.7974 70.8166 16.0905
726 2 19.6759 70.9084 0.28749
727 2 23.5417 70.643 15.8372
728 2 27.4816 70.4948 15.9896
729 2 31.4963 70.5614 15.7951
730 2 35.4017 70.5705 15.9875
731 2 39.144 70.6376 16.1206
732 2 43.3874 70.3959 -0.0834094
733 2 47.2962 70.4246 15.9504
734 2 51.2002 70.2247 16.0844
735 2 55.1858 70.6277 15.9343
736 2 59.1507 70.5217 0.219124
737 2 62.9342 70.4106 15.8589
738 2 67.0943 70.6728 0.0930168
739 2 71.0569 70.7582 15.7933
740 2 75.1222 70.8164 15.7851
741 2 79.0696 70.9951 16.0249
742 2 83.1467 70.9989 0.134414
743 2 87.1866 70.9622 15.9755
744 2 91.1963 71.1428 0.119689
745 2 94.9734 71.3167 0.00473467
746 2 99.0096 71.3961 15.8202
747 2 102.782 71.2132 0.211464
748 2 107.039 71.2108 0.0977348
749 2 111.053 71.2235 15.9757
750 2 114.995 71.3508 0.207209
751 2 119.091 71.4407 16.0634
752 2 123.103 71.307 0.218472
753 2 127.145 71.3988 15.6973
754 2 131.075 71.3561 15.7308
755 2 135.035 71.4583 15.7868
756 2 138.959 71.3346 15.7907
757 2 142.923 71.2421 15.6392
758 2 146.681 71.3125 16.0529
759 2 150.388 71.2549 15.6891
760 2 154.539 71.0876 16.1532
761 2 0.187121 75.1037 15.8646
762 2 3.9801 75.0566 15.8924
763 2 8.00175 74.9098 15.7884
764 2 12.1546 74.8763 15.8457
765 2 16.0245 74.8263 15.7844
766 2 19.6375 74.8089 15.7846
767 2 23.8588 74.4567 15.9075
768 2 27.587 74.384 15.8562
769 2 31.5516 74.7201 0.211763
770 2 35.4885 74.3634 15.8702
771 2 39.3731 74.2352 15.7939
772 2 43.1591 74.3482 0.0824513
773 2 47.1101 74.3317 15.9773
774 2 51.1417 74.3193 0.188064
775 2 55.1109 74.4628 16.0325
776 2 59.0829 74.5374 15.8553
777 2 62.9546 74.7283 15.809
778 2 66.8944 74.6877 15.8671
779 2 70.9568 74.54 16.0774
780 2 74.9109 74.7782 0.274929
781 2 79.0156 74.7067 16.1271
782 2 83.0903 74.8464 16.0595
783 2 87.0245 74.9176 15.9297
784 2 91.0891 74.921 0.182895
785 2 94.9514 75.1386 15.8239
786 2 98.7951 75.2256 0.161028
787 2 102.903 75.2033 15.9433
788 2 106.881 75.1718 -0.0257135
789 2 111.024 75.3899 15.899
790 2 115.116 75.333 0.178644
791 2 119.005 75.4577 15.9133
792 2 123.117 75.2888 15.8852
793 2 127.166 75.2979 0.145416
794 2 131.061 75.537 0.124626
795 2 135.046 75.2667 15.8213
796 2 138.995 75.3616 15.8817
797 2 142.74 75.4125 0.17812
798 2 146.9 75.3803 15.8462
799 2 150.694 75.1897 15.9392
800 2 154.65 75.1792 0.0618137
801 2 0.371645 79.1061 15.8992
802 2 4.2135 79.0735 15.8454
803 2 8.24254 79.0445 15.973
804 2 12.1332 78.7122 16.0596
805 2 16.0597 78.6052 16.0095
806 2 19.9646 78.5882 15.9447
807 2 23.834 78.7103 15.8887
808 2 27.6174 78.5355 15.6344
809 2 31.5944 78.5519 0.206529
810 2 35.5453 78.4614 15.9141
811 2 39.4854 78.5029 0.196096
812 2 43.3107 78.3304 0.167733
813 2 47.199 78.3465 0.489125
814 2 51.0351 78.2487 16.1457
815 2 55.0112 78.3518 15.8706
816 2 59.0666 78.3287 15.8263
817 2 62.8056 78.4193 15.9192
818 2 66.9709 78.5928 15.8157
819 2 70.952 78.5991 15.9142
820 2 74.9757 78.6369 15.8695
821 2 79.0635 78.8278 0.386799
822 2 82.9625 78.8143 0.247358
823 2 87.0253 78.9525 0.284948
824 2 90.9317 78.9549 0.173257
825 2 95.0279 78.9775 0.0283338
826 2 98.917 79.2157 16.0967
827 2 103.039 79.0561 0.0560875
828 2 106.848 79.0218 15.7249
829 2 111.105 79.1469 0.181277
830 2 115.007 79.1289 15.9784
831 2 119.185 79.2747 0.227177
832 2 122.886 79.2499 0.399502
833 2 127.037 79.3296 15.7963
834 2 130.97 79.2543 0.148501
835 2 134.883 79.0408 15.9656
836 2 139.009 79.434 16.0048
837 2 143.009 79.4194 15.9411
838 2 146.906 79.2136 15.9192
839 2 150.877 79.1599 15.8948
840 2 154.59 79.1839 15.8512
841 2 0.21538 82.9502 15.9073
842 2 3.97665 83.2514 15.785
843 2 8.12515 82.8587 15.7998
844 2 12.0467 82.7301 16.1318
845 2 15.921 82.6128 15.8348
846 2 19.7722 82.7395 15.8164
847 2 23.8363 82.4958 15.9129
848 2 27.6258 82.6181 16.0054
849 2 31.3789 82.4943 15.9888
850 2 35.4926 82.4732 15.9888
851 2 39.5903 82.3753 0.104392
852 2 43.4175 82.441 15.6801
853 2 47.1258 82.3714 16.0178
854 2 51.1534 82.2774 15.9998
855 2 55.1549 82.0933 15.9166
856 2 58.9303 82.175 15.9925
857 2 62.9462 82.2301 15.8217
858 2 66.9958 82.2037 0.37515
859 2 71.0297 82.3453 0.158548
860 2 74.9059 82.4627 16.0655
861 2 78.8692 82.5696 0.138053
862 2 82.7845 82.6858 15.8562
863 2 86.8082 82.9006 16.0446
864 2 90.7526 82.8554 0.210503
865 2 94.7815 82.985 15.95
866 2 98.8016 83.0278 16.1037
867 2 102.921 82.8271 -0.0580194
868 2 106.751 83.0023 0.196985
869 2 110.778 83.1857 15.964
870 2 114.767 82.9104 16.0248
871 2 118.967 83.0502 0.044104
872 2 122.909 83.2256 15.8379
873 2 126.953 83.3825 0.171139
874 2 131.085 83.2603 15.7571
875 2 135.035 83.2958 0.0917151
876 2 138.971 83.2786 15.9377
877 2 142.898 83.1323 0.220422
878 2 147.008 83.2779 0.0771267
879 2 150.841 83.1917 15.7293
880 2 154.682 83.2441 15.7819
881 2 0.454769 86.825 16.1188
882 2 4.46587 87.0809 0.125723
883 2 8.2718 86.6773 15.8636
884 2 12.0889 86.7329 15.8366
885 2 15.9109 86.8934 0.227898
886 2 19.8524 86.9831 15.8996
887 2 23.9879 86.8061 15.6802
888 2 27.7224 86.6684 15.9692
889 2 31.6395 86.4837 15.7474
890 2 35.3984 86.6292 16.063
891 2 39.305 86.4935 15.9372
892 2 43.2178 86.4542 15.8062
893 2 46.988 86.1789 0.0495439
894 2 50.9155 86.3657 0.149761
895 2 55.0345 86.3027 -0.0238933
896 2 58.8866 86.2743 15.7505
897 2 62.8762 86.2572 15.9419
898 2 66.7825 86.3143 0.177748
899 2 70.7477 86.4127 0.404515
900 2 74.9902 86.5086 16.0735
901 2 78.8025 86.5226 0.224656
902 2 82.6697 86.433 0.025377
903 2 86.7784 86.7142 16.1646
904 2 90.8174 86.7582 0.263588
905 2 94.7652 86.8488 15.8187
906 2 98.7813 86.9952 15.8789
907 2 102.74 86.8358 0.0735889
908 2 106.887 86.9003 0.0443921
909 2 110.739 86.9203 15.9171
910 2 114.909 86.8818 0.115324
911 2 119.039 86.8411 0.246846
912 2 122.927 87.1354 0.140358
913 2 126.95 87.0943 15.9016
914 2 131.022 87.0758 0.233005
915 2 134.97 87.1306 15.9344
916 2 138.947 87.3759 -0.0414371
917 2 143.024 87.2279 0.150678
918 2 147.04 87.3035 0.151491
919 2 150.841 87.2499 16.1055
920 2 154.885 87.2431 15.7437
921 2 0.518787 90.9906 15.9988
922 2 4.2561 91.016 0.276704
923 2 8.18884 90.9609 0.340675
924 2 12.158 90.8163 0.121966
925 2 16.2582 90.7853 15.8984
926 2 20.0346 90.7077 15.6706
927 2 23.8224 90.6958 15.8376
928 2 27.8086 90.6088 15.9836
929 2 31.6652 90.4167 15.837
930 2 35.4002 90.5432 16.0155
931 2 39.3392 90.3766 15.9696
932 2 43.1953 90.3962 -0.0029447
933 2 47.2704 90.4067 15.8725
934 2 51.2734 90.4577 15.9768
935 2 54.976 90.4241 15.7674
936 2 58.9491 90.5795 15.9994
937 2 62.7536 90.298 0.0644227
938 2 66.79 90.2476 16.0104
939 2 70.7204 90.3649 15.733
940 2 74.8373 90.34 16.0611
941 2 78.6273 90.3353 0.262467
942 2 82.7641 90.4847 0.147725
943 2 86.5985 90.7506 15.8409
944 2 90.7356 90.6469 0.170388
945 2 94.5851 90.8924 0.0698003
946 2 98.8218 90.8349 0.17536
947 2 102.822 90.5501 0.311714
948 2 106.721 90.7273 0.276414
949 2 110.696 90.7799 16.0259
950 2 114.838 90.8137 0.216101
951 2 118.876 90.811 0.363276
952 2 122.707 90.856 0.134981
953 2 126.744 91.0394 0.463523
954 2 130.682 91.0402 15.823
955 2 134.905 90.9189 0.359647
956 2 138.769 91.0294 0.237041
957 2 142.931 91.0617 0.179007
958 2 146.921 91.0381 0.270469
959 2 151.012 91.3424 15.9058
960 2 154.846 90.9477 -0.0359804
961 2 0.494669 95.2251 16.0647
962 2 4.3625 95.1777 15.8637
963 2 8.09834 94.9455 -0.0101186
964 2 12.0846 94.9271 15.8225
965 2 15.9781 94.8149 16.1081
966 2 19.9351 94.5974 16.0122
967 2 24.0403 94.7063 16.0111
968 2 27.702 94.5134 15.9442
969 2 31.6567 94.3791 16.0025
970 2 35.6132 94.4247 0.208436
971 2 39.2246 94.4069 15.913
972 2 43.2464 94.5032 15.9698
973 2 47.2036 94.3567 15.9078
974 2 51.3517 94.5787 -0.0767287
975 2 55.1372 94.5618 15.8863
976 2 59.1622 94.3641 15.9554
977 2 62.9158 94.4053 15.9137
978 2 66.7645 94.3326 0.133593
979 2 70.6649 94.4709 0.00245617
980 2 74.7012 94.2061 15.9286