ITEM: TIMESTEP
16600
ITEM: NUMBER OF ATOMS
32000
ITEM: BOX BOUNDS xy xz yz pp pp pp
0.0000000000000000e+00 1.5831999999999999e+02 0.0000000000000000e+00
0.0000000000000000e+00 1.5831999999999999e+02 0.0000000000000000e+00
1.6347869894702693e-01 1.5934233301052767e+01 0.0000000000000000e+00
ITEM: ATOMS id type x y z
1 2 158.126 157.541 15.7936
2 2 3.88458 157.885 0.0645485
3 2 7.87427 157.79 0.138091
4 2 11.8597 157.883 15.8837
5 2 15.8357 158.066 0.277298
6 2 19.7055 158.011 -0.0943152
7 2 23.689 157.905 15.9057
8 2 27.9725 158.199 0.0124307
9 2 31.8199 158.097 15.8355
10 2 35.8328 158.088 0.147525
11 2 39.8264 158.254 0.1394
12 2 43.9016 158.392 16.1061
13 2 47.7937 -0.000423208 15.8285
14 2 51.9337 0.15909 15.8827
15 2 55.8982 158.479 15.8605
16 2 59.9065 0.298694 16.1565
17 2 63.8543 0.245647 0.138193
18 2 67.7378 0.348954 0.274294
19 2 71.5379 158.421 16.2759
20 2 75.4198 158.359 16.0369
21 2 79.3836 158.306 15.9947
22 2 83.5278 158.201 0.0269869
23 2 87.528 158.335 0.0315695
24 2 91.326 158.152 0.334001
25 2 95.0294 158.189 0.224155
26 2 99.1026 157.994 0.227974
27 2 102.891 158.101 0.310645
28 2 106.744 158.153 15.9095
29 2 110.594 158.022 -0.0166433
30 2 114.729 157.819 0.37721
31 2 118.718 157.877 0.340972
32 2 122.586 157.652 15.8976
33 2 126.467 157.547 15.9306
34 2 130.415 157.625 16.0853
35 2 134.299 157.434 16.0345
36 2 138.069 157.337 16.0199
37 2 142.019 157.534 15.857
38 2 145.907 157.444 16.0607
39 2 150.111 157.65 15.9202
40 2 154.141 157.601 16.0295
41 2 158.083 3.37623 0.302217
42 2 3.74548 3.51255 15.9108
43 2 7.72957 3.61202 0.051226
44 2 11.8193 3.39674 0.161352
45 2 15.8147 3.73536 0.0286993
46 2 19.7991 3.5106 15.8626
47 2 23.7004 3.64569 0.0313361
48 2 27.7708 3.74672 0.246136
49 2 31.8304 3.84797 0.0893987
50 2 35.9217 3.76577 0.106773
51 2 39.839 3.80476 0.366754
52 2 43.7116 3.91606 0.259821
53 2 47.73 4.03131 15.9517
54 2 51.7036 4.16629 0.0532141
55 2 55.8341 4.11472 -0.00163723
56 2 59.903 4.24325 0.117252
57 2 63.8035 4.30177 15.9153
58 2 67.8214 4.19126 0.335998
59 2 71.7744 4.10106 0.24708
60 2 75.6915 4.24988 0.149548
61 2 79.3703 4.19826 0.325592
62 2 83.5256 3.71748 0.0165926
63 2 87.268 3.89283 0.182076
64 2 91.4426 3.64732 0.153969
65 2 95.157 3.84243 15.7695
66 2 99.1694 3.60495 0.310502
67 2 103.094 3.73404 0.210815
68 2 106.968 3.68877 16.0574
69 2 111.06 3.65108 15.836
70 2 115.101 3.68972 15.9998
71 2 118.833 3.57955 16.0947
72 2 122.543 3.53258 0.249851
73 2 126.322 3.3054 15.959
74 2 130.359 3.28724 0.295937
75 2 134.267 3.27596 15.8768
76 2 138.203 3.12216 -0.0162227
77 2 142.208 3.26743 15.9475
78 2 146.027 3.05443 0.0877216
79 2 150.097 3.05102 16.0296
80 2 154.055 3.30775 16.0446
81 2 158.03 7.18259 0.225712
82 2 3.77807 7.3542 15.7532
83 2 7.84203 7.34613 15.9163
84 2 11.5974 7.53426 15.6933
85 2 15.5908 7.68028 0.0648119
86 2 19.7739 7.42772 15.898
87 2 23.6232 7.5457 0.110795
88 2 27.6747 7.37421 0.172967
89 2 31.8564 7.6064 15.8497
90 2 35.7102 7.79245 15.8919
91 2 39.8735 7.70807 15.8739
92 2 43.6502 7.97556 15.8859
93 2 47.5837 8.02942 0.110552
94 2 51.7233 8.02968 15.9971
95 2 55.9408 7.8533 0.263343
96 2 59.8581 7.97527 0.0321082
97 2 63.8681 8.02261 0.182652
98 2 67.8627 8.09676 0.27719
99 2 71.7421 8.13855 0.175213
100 2 75.4042 8.11085 0.0614505
101 2 79.6791 8.01166 15.702
102 2 83.8105 7.93451 0.182585
103 2 87.5485 7.9428 15.9216
104 2 91.2795 7.87069 0.275492
105 2 95.109 7.72516 0.153196
106 2 99.1183 7.80006 0.226483
107 2 103.148 7.6668 0.0409363
108 2 107.084 7.65851 0.119764
109 2 110.857 7.60481 0.374439
110 2 114.708 7.8016 0.12115
111 2 118.725 7.42031 0.298355
112 2 122.424 7.36255 0.346355
113 2 126.406 7.43646 16.0681
114 2 130.384 7.29816 0.166736
115 2 134.261 7.05593 0.269342
116 2 138.367 7.18558 16.2402
117 2 142.125 7.48817 15.9866
118 2 146.051 7.18519 0.288382
119 2 149.923 7.10304 16.1371
120 2 154.03 6.95241 16.0938
121 2 158.016 11.1551 0.012332
122 2 3.84206 11.2446 0.174411
123 2 7.58829 11.3094 15.9717
124 2 11.8445 11.1159 15.8561
125 2 15.8117 11.5249 15.8524
126 2 19.6306 11.4386 -0.0414156
127 2 23.657 11.5503 0.0391218
128 2 27.756 11.5278 0.327741
129 2 31.659 11.4262 0.21047
130 2 35.8628 11.7981 0.0689026
131 2 39.6125 11.5651 0.247627
132 2 43.8087 11.8121 16.0318
133 2 47.5686 11.6877 16.0446
134 2 51.729 11.8425 15.9462
135 2 55.6898 11.9526 0.0839949
136 2 60.0118 11.9705 16.0382
137 2 63.8826 12.0237 0.286518
138 2 67.6521 12.2222 15.779
139 2 71.668 12.0096 0.103325
140 2 75.7324 12.1602 0.150295
141 2 79.6528 12.1994 0.145778
142 2 83.6742 11.9493 0.0183779
143 2 87.5323 11.8876 0.158852
144 2 91.4609 11.7917 0.168145
145 2 95.2436 11.8608 0.103817
146 2 99.1874 11.6474 0.12881
147 2 103.02 11.7911 0.183352
148 2 107.01 11.705 0.105914
149 2 111.012 11.5445 0.378807
150 2 114.954 11.6376 0.0888849
151 2 118.783 11.6575 0.408102
152 2 122.793 11.3805 0.229456
153 2 126.481 11.1833 0.200439
154 2 130.585 11.4365 15.9843
155 2 134.376 11.3101 0.0311151
156 2 138.127 11.3224 0.32251
157 2 142.234 11.3121 16.1438
158 2 146.044 10.999 15.9872
159 2 149.799 11.1092 15.8087
160 2 153.934 10.9787 15.8269
161 2 157.985 14.9397 0.136647
162 2 3.58075 15.1042 0.178326
163 2 7.74211 15.1436 0.13299
164 2 11.7207 15.1683 15.8026
165 2 15.7128 15.1716 15.821
166 2 19.8212 15.3239 0.0293159
167 2 23.7207 15.4051 0.155637
168 2 27.8136 15.4234 16.019
169 2 31.6479 15.475 15.8325
170 2 35.4835 15.5996 -0.00371072
171 2 39.7633 15.4801 15.9114
172 2 43.7591 15.5047 0.214966
173 2 47.8238 15.8376 0.11243
174 2 51.611 15.7482 0.376274
175 2 55.8577 15.9904 15.8937
176 2 59.7965 15.8063 0.200951
177 2 63.7723 15.8934 0.345054
178 2 67.7939 15.9531 0.344378
179 2 71.8015 15.988 0.0835531
180 2 75.9122 16.0144 15.9887
181 2 79.7949 16.025 0.145275
182 2 83.5432 16.0341 0.0403365
183 2 87.5017 15.9129 0.296675
184 2 91.5114 16.0623 0.159896
185 2 95.172 15.9228 0.168504
186 2 99.3587 15.802 0.205895
187 2 103.167 15.8093 0.215624
188 2 107.085 15.5342 0.281879
189 2 110.97 15.6279 0.15305
190 2 115.168 15.7324 0.159777
191 2 119.081 15.4703 0.267629
192 2 122.739 15.2478 15.9525
193 2 126.616 15.4774 0.194956
194 2 130.362 15.3109 0.130194
195 2 134.393 15.4562 0.0661174
196 2 138.548 15.3103 0.184147
197 2 142.215 15.1057 -0.0456719
198 2 145.962 15.0728 0.231847
199 2 150.047 15.1439 15.9427
200 2 154.072 14.9602 0.0720725
201 2 158.041 19.0496 15.8468
202 2 3.43759 18.8381 0.144952
203 2 7.51804 18.9583 15.8658
204 2 11.6631 19.1065 15.7958
205 2 15.6098 19.2877 15.9279
206 2 19.514 19.1596 0.176559
207 2 23.5136 19.253 0.37196
208 2 27.7596 19.321 0.173273
209 2 31.7651 19.3227 15.9377
210 2 35.595 19.4833 15.956
211 2 39.6364 19.5085 0.08502
212 2 43.675 19.4737 15.9156
213 2 47.7715 19.8656 15.853
214 2 51.6515 20.0594 15.8096
215 2 55.6863 19.6281 15.8613
216 2 59.8614 19.7104 16.0203
217 2 63.8291 19.9079 15.9015
218 2 67.6111 19.8813 16.0477
219 2 71.7591 19.872 0.224045
220 2 75.7705 19.9355 0.056983
221 2 79.9162 19.9228 0.249885
222 2 83.7634 20.1018 0.288792
223 2 87.7242 20.092 15.9295
224 2 91.5232 19.8925 0.419494
225 2 95.2428 19.9292 0.16155
226 2 99.3122 19.7927 16.191
227 2 103.154 19.7897 15.7871
228 2 107.043 19.7189 15.8885
229 2 111.12 19.639 0.126076
230 2 114.957 19.6334 0.252891
231 2 118.856 19.5903 15.9285
232 2 122.947 19.7069 0.311017
233 2 126.785 19.4414 0.204856
234 2 130.694 19.4782 0.0756663
235 2 134.477 19.4369 15.8862
236 2 138.239 19.2305 16.0792
237 2 142.232 19.0906 0.0805538
238 2 146.079 19.1817 0.0293093
239 2 150.144 19.1879 0.00374354
240 2 154.031 19.0456 15.7442
241 2 157.958 23.0763 15.8357
242 2 3.61762 23.1162 15.9142
243 2 7.65649 23.1227 0.0200488
244 2 11.4884 23.0037 15.9379
245 2 15.4151 23.2485 16.0594
246 2 19.3826 23.1081 0.275491
247 2 23.5739 23.0959 15.9117
248 2 27.4399 23.3251 15.8956
249 2 31.3779 23.3452 0.0307721
250 2 35.6538 23.3869 15.899
251 2 39.6195 23.3196 -0.157855
252 2 43.6797 23.25 15.9283
253 2 47.7134 23.7199 15.8042
254 2 51.7694 23.6405 0.0283728
255 2 55.6678 23.6654 15.8534
256 2 59.6434 23.8184 15.9826
257 2 63.8165 23.9298 15.9081
258 2 67.7824 23.6832 0.117969
259 2 71.7098 23.6586 0.0241286
260 2 75.561 23.8213 0.0584608
261 2 79.7898 23.7763 16.0586
262 2 83.8323 24.0683 15.9237
263 2 87.7821 23.7751 0.151718
264 2 91.7588 23.9099 16.0427
265 2 95.6809 23.8563 15.7763
266 2 99.5716 23.7852 0.190715
267 2 103.319 23.7216 0.111595
268 2 107.225 23.7113 0.219376
269 2 110.95 23.7888 0.12392
270 2 114.991 23.5232 15.9685
271 2 118.94 23.5038 15.9611
272 2 122.747 23.6756 0.237843
273 2 126.771 23.4334 0.230926
274 2 130.726 23.4207 15.9687
275 2 134.711 23.1821 0.233188
276 2 138.545 23.2807 16.0593
277 2 142.448 23.2867 0.0997114
278 2 146.383 23.1108 -0.0691424
279 2 150.132 23.0491 0.101341
280 2 154.212 23.0214 -0.00641292
281 2 158.217 27.0846 0.0961483
282 2 3.58462 26.8408 15.8031
283 2 7.697 26.9283 0.0376199
284 2 11.5634 27.0656 15.9125
285 2 15.5596 27.055 16.0235
286 2 19.4742 27.1263 0.18387
287 2 23.2788 27.0942 -0.0395201
288 2 27.5478 27.2275 0.107573
289 2 31.464 27.1164 15.6977
290 2 35.7458 27.2081 0.0293594
291 2 39.5627 27.4318 0.309305
292 2 43.5485 27.3903 15.8152
293 2 47.6501 27.4177 0.204208
294 2 51.5149 27.4592 0.0767449
295 2 55.4531 27.7367 0.22307
296 2 59.7981 27.5073 0.00807205
297 2 63.6413 27.6674 0.0244312
298 2 67.7994 27.6285 0.200001
299 2 71.7335 27.5578 0.298117
300 2 75.767 27.6377 16.0387
301 2 79.72 27.8725 0.34144
302 2 83.8177 27.9453 15.9347
303 2 87.9618 27.9041 0.325006
304 2 91.8593 27.9769 15.8357
305 2 95.6105 28.0474 16.0105
306 2 99.7534 27.8446 0.0692611
307 2 103.642 27.7713 0.185129
308 2 107.393 27.9253 15.8258
309 2 111.385 27.803 0.228675
310 2 115.292 27.6888 15.8349
311 2 118.981 27.441 15.86
312 2 123.035 27.6125 0.0144418
313 2 126.825 27.5548 0.187319
314 2 130.825 27.4226 0.0339511
315 2 134.56 27.4562 16.0188
316 2 138.268 27.3687 0.141627
317 2 142.467 27.2994 0.261174
318 2 146.375 27.131 0.119664
319 2 150.269 27.2073 -0.0989611
320 2 154.084 27.0223 15.8318
321 2 158.217 30.9853 15.7305
322 2 3.79778 31.1214 -0.00275013
323 2 7.59438 30.962 0.0679346
324 2 11.5839 30.8316 15.676
325 2 15.4682 30.9547 -0.129635
326 2 19.4823 30.721 15.8077
327 2 23.5309 30.9892 15.8901
328 2 27.3685 31.1266 -0.079031
329 2 31.4641 31.0082 -0.0810838
330 2 35.508 31.1716 16.0258
331 2 39.6268 31.1099 16.0974
332 2 43.6206 31.2246 0.0838878
333 2 47.6171 31.4463 15.7119
334 2 51.6564 31.3277 15.801
335 2 55.4513 31.4921 0.0641494
336 2 59.5208 31.5221 0.131823
337 2 63.4135 31.5222 15.6745
338 2 67.6913 31.4155 0.0386803
339 2 71.7121 31.4726 16.1165
340 2 75.5588 31.5677 0.0334695
341 2 79.7344 31.9408 0.176508
342 2 83.6777 31.8621 16.0526
343 2 87.7253 31.7123 0.405879
344 2 91.6551 32.1109 0.154826
345 2 95.7647 32.0442 0.356498
346 2 99.5928 31.7961 0.412061
347 2 103.547 31.6762 15.872
348 2 107.189 31.6504 -0.100974
349 2 111.089 31.6775 15.9567
350 2 115.345 31.6469 0.198023
351 2 119.041 31.6673 16.0318
352 2 123.042 31.4834 0.0420956
353 2 127.044 31.2907 0.137718
354 2 130.852 31.3622 0.110833
355 2 134.82 31.4995 0.0484635
356 2 138.675 31.2762 15.9726
357 2 142.419 31.2168 15.9027
358 2 146.487 31.2597 15.8084
359 2 150.312 31.2486 15.7496
360 2 154.251 31.0274 15.8554
361 2 158.294 35.1611 15.8055
362 2 3.84608 35.0887 0.099243
363 2 7.77754 34.9777 0.0906534
364 2 11.6004 34.8489 15.8829
365 2 15.3806 34.9129 0.000611086
366 2 19.6076 34.8589 15.7747
367 2 23.4315 34.9802 15.7408
368 2 27.5066 35.0991 0.161525
369 2 31.4816 35.1702 0.273215
370 2 35.4338 35.1113 15.8829
371 2 39.3427 35.1748 0.372609
372 2 43.2838 35.3208 16.0803
373 2 47.6231 35.2477 15.8867
374 2 51.6371 35.3697 0.230785
375 2 55.8007 35.2702 15.8672
376 2 59.5709 35.5264 0.089457
377 2 63.5768 35.4754 0.207306
378 2 67.5629 35.444 0.238844
379 2 71.5938 35.5173 0.270711
380 2 75.6074 35.5869 15.9385
381 2 79.716 35.7702 15.9755
382 2 83.667 35.8055 0.167749
383 2 87.79 35.8341 0.425506
384 2 91.68 35.8758 15.7059
385 2 95.7473 35.7436 15.9489
386 2 99.5803 35.8834 -0.0937667
387 2 103.507 35.6322 15.8753
388 2 107.538 35.6864 0.164908
389 2 111.281 35.6114 15.7595
390 2 115.05 35.6234 -0.0608537
391 2 119.223 35.5522 16.0458
392 2 122.857 35.4143 15.8925
393 2 126.758 35.3926 0.0318583
394 2 130.868 35.2243 0.248436
395 2 134.762 35.3628 15.7327
396 2 138.71 35.3819 15.9232
397 2 142.471 35.3259 15.8338
398 2 146.359 35.2935 15.8175
399 2 150.489 35.2763 0.154649
400 2 154.324 35.2639 0.229316
401 2 158.196 39.2089 -0.00393705
402 2 3.97613 39.006 15.8221
403 2 7.80586 39.1134 15.7017
404 2 11.6737 38.912 0.000837183
405 2 15.5039 38.9679 -0.114863
406 2 19.4819 38.7196 15.7958
407 2 23.4324 38.6672 15.8386
408 2 27.4047 39.026 -0.0375611
409 2 31.5177 38.9643 15.7315
410 2 35.4357 39.1052 0.199043
411 2 39.2736 39.0661 0.182198
412 2 43.3721 39.055 0.186541
413 2 47.4795 39.2686 -0.0138323
414 2 51.5448 39.3038 0.0560306
415 2 55.6364 39.3104 0.157775
416 2 59.5469 39.3083 0.168798
417 2 63.5255 39.4266 15.9604
418 2 67.4573 39.3667 0.00689614
419 2 71.4708 39.4839 0.219042
420 2 75.5882 39.4171 0.399547
421 2 79.5773 39.4592 16.0643
422 2 83.6558 39.6129 16.0471
423 2 87.7511 39.7738 15.9108
424 2 91.6503 39.6933 15.9627
425 2 95.5562 39.9487 15.7869
426 2 99.6263 39.8026 0.255696
427 2 103.593 39.8653 0.118081
428 2 107.535 39.5895 15.8385
429 2 111.418 39.8796 16.049
430 2 115.161 39.5985 15.8661
431 2 118.887 39.6712 16.1202
432 2 122.816 39.542 0.0787203
433 2 126.958 39.432 15.8774
434 2 130.692 39.3705 0.024861
435 2 134.73 39.4617 0.134041
436 2 138.562 39.3323 15.9802
437 2 142.481 39.3503 16.1711
438 2 146.572 39.3063 0.133727
439 2 150.401 39.2331 15.8058
440 2 154.285 39.1131 0.207841
441 2 158.096 43.096 0.0956191
442 2 3.85007 43.0855 0.0282979
443 2 7.87881 42.9879 0.00188065
444 2 11.8294 42.9526 0.0546955
445 2 15.5747 42.8085 0.00545315
446 2 19.4469 42.7286 15.9099
447 2 23.449 42.7114 0.181088
448 2 27.2555 42.6468 0.0166785
449 2 31.4874 42.763 0.0965314
450 2 35.5162 42.8281 0.36612
451 2 39.5039 42.7896 0.159025
452 2 43.4491 43.0548 0.2073
453 2 47.4935 43.2771 -0.000896404
454 2 51.531 43.1224 -0.0521544
455 2 55.4302 42.9402 -0.0177217
456 2 59.5487 43.2458 0.198514
457 2 63.7493 43.3571 0.102057
458 2 67.5298 43.215 16.0021
459 2 71.3021 43.4747 15.993
460 2 75.634 43.468 0.402108
461 2 79.5593 43.2566 0.299278
462 2 83.5239 43.6187 15.9732
463 2 87.6353 43.636 15.9221
464 2 91.5904 43.8112 15.8212
465 2 95.4073 43.9045 0.259253
466 2 99.5852 43.8429 0.443392
467 2 103.48 43.6351 0.0870417
468 2 107.432 43.6018 0.0231257
469 2 111.323 43.5874 15.9341
470 2 115.204 43.6412 16.1586
471 2 119.139 43.6011 0.370694
472 2 123.112 43.5279 -0.00409522
473 2 126.922 43.4608 0.251119
474 2 130.725 43.5207 0.0337039
475 2 134.664 43.4332 15.8621
476 2 138.705 43.336 15.8087
477 2 142.639 43.268 15.9292
478 2 146.414 43.1697 15.7801
479 2 150.48 43.1872 0.179181
480 2 154.224 43.0641 15.8088
481 2 158.279 47.0473 15.9966
482 2 3.58204 47.0484 15.9002
483 2 7.7201 46.7462 15.9537
484 2 11.6595 46.9859 15.7852
485 2 15.5917 46.8431 0.153617
486 2 19.6275 46.8577 15.9939
487 2 23.6058 46.649 -0.00455767
488 2 27.4266 46.7699 0.291734
489 2 31.3799 46.6679 -0.107392
490 2 35.3513 46.7633 0.177696
491 2 39.3976 46.778 0.0971839
492 2 43.3954 46.9115 0.221685
493 2 47.4267 47.0156 15.7834
494 2 51.4636 47.1153 15.8438
495 2 55.2771 47.1215 0.264019
496 2 59.4707 46.9836 15.9638
497 2 63.644 47.1126 0.0512041
498 2 67.5275 47.4165 0.169538
499 2 71.5905 47.4244 0.179252
500 2 75.5305 47.4574 15.9792
501 2 79.457 47.2655 15.9054
502 2 83.6388 47.4112 0.33113
503 2 87.3798 47.5903 0.219446
504 2 91.4541 47.5545 15.9125
505 2 95.5644 47.7616 0.409916
506 2 99.4471 47.5284 0.302112
507 2 103.426 47.7016 15.8265
508 2 107.283 47.7565 -0.00141707
509 2 111.511 47.6081 16.126
510 2 115.303 47.6743 16.1796
511 2 119.158 47.7567 0.161545
512 2 123.112 47.4655 0.119725
513 2 126.987 47.481 0.282174
514 2 130.769 47.4546 0.243668
515 2 134.702 47.433 15.7787
516 2 138.609 47.3708 0.320603
517 2 142.558 47.4062 15.8302
518 2 146.489 47.3118 -0.0739206
519 2 150.336 47.1899 15.8737
520 2 154.228 47.1797 -0.0817288
521 2 158.106 50.9467 0.047641
522 2 3.96652 50.87 0.203822
523 2 7.6203 50.9438 0.0979114
524 2 11.6172 51.0255 15.8926
525 2 15.6036 50.8643 0.122953
526 2 19.4688 50.7204 0.121152
527 2 23.4758 50.7016 0.350808
528 2 27.3859 50.5604 15.9871
529 2 31.4634 50.5522 15.7871
530 2 35.3049 50.5374 0.186068
531 2 39.2712 50.8645 15.7041
532 2 43.3867 50.9176 0.131244
533 2 47.3471 50.8214 0.15057
534 2 51.3455 50.7562 15.818
535 2 55.2909 50.8844 15.8377
536 2 59.374 50.987 16.0055
537 2 63.5015 51.0322 0.153368
538 2 67.4713 51.0755 0.15612
539 2 71.4481 51.4045 15.7419
540 2 75.3267 51.3319 0.284519
541 2 79.5156 51.2748 15.9719
542 2 83.6107 51.3665 16.0013
543 2 87.5714 51.5702 15.9007
544 2 91.3217 51.6019 0.2946
545 2 95.4231 51.7537 -0.00661125
546 2 99.3057 51.572 15.8043
547 2 103.284 51.651 0.00388393
548 2 107.398 51.7314 15.834
549 2 111.405 51.6822 0.123399
550 2 115.299 51.7126 0.393558
551 2 119.072 51.6571 0.212453
552 2 123.06 51.5129 0.191117
553 2 126.871 51.4927 16.0631
554 2 130.879 51.3428 0.212443
555 2 134.777 51.4019 15.9644
556 2 138.645 51.3579 0.219884
557 2 142.369 51.3834 15.9419
558 2 146.484 51.3291 15.9211
559 2 150.233 51.1829 -0.0614409
560 2 154.166 51.0389 0.177036
561 2 158.213 54.8911 0.239211
562 2 3.9594 54.8449 0.13972
563 2 7.84725 54.9158 0.46597
564 2 11.6939 54.8392 16.0594
565 2 15.8215 54.7754 15.8592
566 2 19.5355 54.8971 16.1959
567 2 23.628 54.6438 16.2052
568 2 27.4438 54.5808 15.7498
569 2 31.1113 54.5618 0.137412
570 2 35.3602 54.7011 15.6587
571 2 39.3384 54.6834 -0.0658889
572 2 43.3053 54.7251 15.9153
573 2 47.2417 54.6377 15.9243
574 2 51.4067 54.7479 15.7951
575 2 55.2486 54.9007 0.101821
576 2 59.3809 54.9375 -0.0274617
577 2 63.3942 54.9842 15.8605
578 2 67.4194 55.0496 0.111702
579 2 71.3361 55.2564 16.0005
580 2 75.1317 55.2121 16.056
581 2 79.3479 55.2935 15.9326
582 2 83.3699 55.3659 15.8822
583 2 87.3209 55.4198 0.204481
584 2 91.2378 55.3418 0.377244
585 2 95.2776 55.8092 0.319943
586 2 99.2694 55.4478 15.9408
587 2 103.571 55.5063 0.0221965
588 2 107.325 55.5355 0.041042
589 2 111.34 55.402 15.8353
590 2 115.288 55.7689 0.0770062
591 2 119.047 55.4683 0.321759
592 2 122.938 55.6739 0.352842
593 2 126.93 55.6828 16.0466
594 2 130.986 55.4287 15.9121
595 2 134.723 55.3121 15.996
596 2 138.708 55.2722 0.122871
597 2 142.535 55.2122 0.152157
598 2 146.436 55.1979 15.8996
599 2 150.478 55.2268 15.6949
600 2 154.413 55.0905 0.0328229
601 2 0.0297985 59.0672 0.0844372
602 2 3.626 58.9561 0.0860378
603 2 7.75969 58.9259 0.183518
604 2 11.9053 58.9468 15.9341
605 2 15.6948 58.7464 0.128011
606 2 19.6802 58.7846 15.8551
607 2 23.6917 58.6066 15.9426
608 2 27.4826 58.6154 0.0498994
609 2 31.3627 58.7101 15.8231
610 2 35.1492 58.62 0.0715897
611 2 39.3624 58.525 0.0672778
612 2 43.3208 58.4621 15.6864
613 2 47.3791 58.6683 0.11985
614 2 51.1307 58.8514 15.743
615 2 55.2635 58.819 15.8834
616 2 59.1024 58.9232 15.9582
617 2 63.0262 58.8674 0.125461
618 2 67.3204 58.9561 15.7436
619 2 71.2881 58.8662 0.12064
620 2 75.1983 59.2463 0.0564863
621 2 79.3044 59.1517 16.12
622 2 83.3023 59.2291 15.9707
623 2 87.1907 59.3915 0.234736
624 2 91.1331 59.2159 0.152719
625 2 95.135 59.4289 0.145076
626 2 99.283 59.4027 15.9317
627 2 103.256 59.3701 0.143456
628 2 107.31 59.4806 0.154069
629 2 111.199 59.4633 -0.0641807
630 2 115.242 59.5207 0.128382
631 2 119.244 59.5369 0.362423
632 2 123.026 59.5217 0.251385
633 2 126.837 59.5073 0.186922
634 2 130.787 59.258 15.7383
635 2 134.732 59.2973 0.146184
636 2 138.659 59.2701 0.192788
637 2 142.604 59.146 15.9994
638 2 146.684 59.259 0.139607
639 2 150.41 59.1334 0.0921353
640 2 154.326 59.1921 0.162837
641 2 0.288528 63.0558 16.0257
642 2 3.9368 62.837 15.9002
643 2 7.91211 62.8851 0.151905
644 2 11.8104 62.87 -0.0452838
645 2 15.6344 62.5865 15.9584
646 2 19.6777 62.7897 15.8765
647 2 23.5664 62.8121 15.9625
648 2 27.4649 62.8192 0.19651
649 2 31.3043 62.7906 15.9415
650 2 35.4902 62.4888 15.9368
651 2 39.1744 62.4836 0.0797176
652 2 43.2693 62.3889 0.177856
653 2 47.0017 62.5093 15.613
654 2 51.0737 62.5427 0.157554
655 2 55.1562 62.6856 0.0469469
656 2 59.3064 62.7643 0.0591529
657 2 63.1894 62.822 0.0840165
658 2 67.2002 62.6882 0.33845
659 2 71.2257 62.864 -0.0265882
660 2 75.3419 63.0823 16.0172
661 2 79.19 63.1935 16.0599
662 2 83.11 63.0718 15.8699
663 2 87.1949 63.3262 0.183592
664 2 91.1838 63.4121 16.078
665 2 95.3387 63.2459 0.337334
666 2 99.2746 63.3265 0.479091
667 2 103.291 63.5657 0.294044
668 2 107.274 63.277 0.0319726
669 2 111.213 63.413 -0.0333691
670 2 115.396 63.522 0.325834
671 2 119.154 63.3996 16.1715
672 2 123.047 63.5745 16.0743
673 2 126.995 63.4532 16.0703
674 2 130.941 63.5011 0.15675
675 2 134.779 63.3757 16.179
676 2 138.655 63.1722 0.0880743
677 2 142.845 63.2195 0.326053
678 2 146.546 63.1343 0.057219
679 2 150.441 63.043 16.0217
680 2 154.605 62.9499 15.9274
681 2 -0.0565416 66.9906 0.171614
682 2 3.96515 66.8664 0.182692
683 2 8.01041 66.8215 0.0932038
684 2 11.7732 66.7804 15.8466
685 2 15.6841 66.6888 15.8246
686 2 19.5865 66.7868 16.0847
687 2 23.5656 66.7574 15.8373
688 2 27.6218 66.686 15.8115
689 2 31.4416 66.6298 -0.0173489
690 2 35.2446 66.5719 -0.109584
691 2 39.3895 66.6802 0.275443
692 2 43.0887 66.4914 15.9394
693 2 47.1829 66.4406 0.0809631
694 2 51.1034 66.5215 15.714
695 2 55.164 66.71 15.8344
696 2 59.058 66.6803 15.7271
697 2 62.9591 66.6336 16.0433
698 2 67.1967 66.9201 15.9221
699 2 71.1524 66.7278 0.149057
700 2 75.0608 66.8639 0.206657
701 2 79.2343 66.8896 16.0846
702 2 83.1175 67.0958 16.1226
703 2 87.0038 67.0465 15.9708
704 2 91.2055 67.1098 0.041206
705 2 95.2003 67.3227 15.9733
706 2 99.2169 67.276 15.9223
707 2 103.441 67.4102 0.226811
708 2 107.087 67.3965 16.0912
709 2 111.132 67.3405 0.162003
710 2 115.143 67.5712 0.151228
711 2 119.007 67.3631 0.22136
712 2 123.072 67.6173 16.038
713 2 126.994 67.5696 16.1697
714 2 130.907 67.3311 16.1118
715 2 134.841 67.6172 15.9492
716 2 138.58 67.4368 16.1148
717 2 142.422 67.2426 16.0724
718 2 146.571 67.2292 0.19955
719 2 150.484 67.0735 15.9279
720 2 154.441 67.0563 15.9943
721 2 0.0287758 70.9998 15.8151
722 2 3.91064 71.0205 16.0216
723 2 7.80821 70.7659 0.286003
724 2 11.7246 70.6798 15.7986
725 2 15.5405 70.7165 16.1041
726 2 19.4041 70.798 0.32384
727 2 23.417 70.569 15.8367
728 2 27.4284 70.5243 15.9283
729 2 31.1975 70.6955 15.7873
730 2 35.2184 70.5135 15.963
731 2 39.2617 70.507 16.0134
732 2 43.196 70.3862 0.0241214
733 2 46.9426 70.4918 15.8485
734 2 51.067 70.3197 15.8048
735 2 55.0174 70.6351 15.6506
736 2 58.977 70.7676 0.0870671
737 2 62.9989 70.6769 15.926
738 2 66.9275 70.8467 0.0651137
739 2 71.1841 70.7006 15.912
740 2 75.0966 70.8708 15.7911
741 2 78.9889 71.0846 16.0356
742 2 83.0274 71.0561 0.205464
743 2 87.1652 70.8956 15.9741
744 2 91.0921 70.9634 0.201643
745 2 95.0825 71.0596 0.0657293
746 2 99.1283 71.2974 15.9347
747 2 103.092 71.1563 0.380645
748 2 107.204 71.2616 0.23389
749 2 111.095 71.1856 16.0809
750 2 114.969 71.156 0.0869117
751 2 119.116 71.4762 15.9569
752 2 123.084 71.3483 0.291805
753 2 127.064 71.5445 15.9745
754 2 130.91 71.3484 16.1114
755 2 134.964 71.3752 16.0781
756 2 138.831 71.5754 15.814
757 2 142.926 71.2402 15.776
758 2 146.562 71.1101 16.2857
759 2 150.267 71.1826 15.9247
760 2 154.447 71.019 16.0674
761 2 0.112562 74.9737 16.0258
762 2 3.63052 75.0594 16.0074
763 2 7.70325 74.8427 15.784
764 2 11.7122 74.7141 15.9421
765 2 15.7052 74.5849 15.9816
766 2 19.4831 74.8324 15.9803
767 2 23.6043 74.4974 15.9475
768 2 27.3588 74.4849 16.081
769 2 31.3212 74.6057 0.33382
770 2 35.3057 74.5616 15.8469
771 2 39.3718 74.3942 15.8679
772 2 43.2321 74.5118 0.107495
773 2 46.9962 74.6411 15.7195
774 2 50.8472 74.4891 -0.0553848
775 2 54.8171 74.6525 15.7921
776 2 58.8008 74.4952 15.8801
777 2 62.9178 74.5736 15.8802
778 2 66.9183 74.5927 15.8807
779 2 70.8005 74.6622 16.0272
780 2 74.7992 74.6958 0.190447
781 2 78.9247 74.8323 15.8275
782 2 82.9393 74.9448 15.7112
783 2 86.8167 74.8394 15.6691
784 2 91.1249 74.9334 0.2593
785 2 94.8529 75.2553 15.9037
786 2 98.9169 75.2565 0.300558
787 2 103.075 75.1505 16.1656
788 2 106.803 75.0499 0.167873
789 2 111.069 75.2698 15.9339
790 2 115.121 75.3586 0.0618442
791 2 119.08 75.4185 15.7951
792 2 122.979 75.2968 15.8474
793 2 127.037 75.3821 0.234634
794 2 130.866 75.5419 0.253461
795 2 134.929 75.3072 15.9815
796 2 138.856 75.3948 15.9419
797 2 142.693 75.2961 0.16329
798 2 146.688 75.4173 16.0975
799 2 150.507 75.0785 16.0621
800 2 154.315 75.0475 0.149145
801 2 -0.011026 79.0387 16.158
802 2 3.97429 78.9583 16.0193
803 2 8.07469 78.9283 16.0599
804 2 11.8562 78.79 16.0419
805 2 15.731 78.6622 15.9735
806 2 19.7002 78.6673 15.8894
807 2 23.4285 78.6001 16.0725
808 2 27.4427 78.6852 15.8281
809 2 31.3714 78.5244 0.287642
810 2 35.4052 78.5302 15.9262
811 2 39.2279 78.5161 0.179864
812 2 43.2595 78.5597 0.278849
813 2 46.9825 78.4624 0.155208
814 2 51.0126 78.4089 15.888
815 2 54.8845 78.3158 15.831
816 2 58.9833 78.3277 15.9233
817 2 62.6717 78.4614 16.0007
818 2 66.8647 78.6345 15.9313
819 2 70.8295 78.7419 15.9555
820 2 74.7032 78.4478 15.7123
821 2 78.9075 78.6552 0.186106
822 2 82.9608 78.8594 -0.0544697
823 2 86.8528 78.7572 0.145755
824 2 90.9607 78.8161 0.232335
825 2 95.0987 78.9329 0.115813
826 2 98.9633 79.2215 16.0138
827 2 103.057 79.0303 0.192759
828 2 106.923 79.0139 15.9086
829 2 111.018 79.1998 0.179162
830 2 114.995 79.1831 15.9263
831 2 119.061 79.4714 0.177053
832 2 122.998 79.3939 0.290343
833 2 127.072 79.3983 15.9692
834 2 130.838 79.417 0.340641
835 2 134.85 79.214 15.9126
836 2 138.846 79.3567 15.9794
837 2 142.915 79.3897 15.9467
838 2 146.67 79.1098 15.9641
839 2 150.607 79.1152 15.9602
840 2 154.442 79.1779 16.0276
841 2 -0.0154575 83.0187 16.0035
842 2 3.82612 83.1499 15.8692
843 2 7.8722 82.7422 15.9415
844 2 11.9994 82.701 16.096
845 2 15.8917 82.7928 15.7708
846 2 19.6048 82.7592 15.7525
847 2 23.5776 82.7065 15.8686
848 2 27.5073 82.4993 15.9626
849 2 31.3933 82.5318 16.0286
850 2 35.3288 82.5016 15.8997
851 2 39.3283 82.608 0.0799244
852 2 43.238 82.4887 15.8264
853 2 47.1672 82.4961 15.8751
854 2 51.0746 82.3748 15.7642
855 2 55.2355 82.4398 15.826
856 2 58.9333 82.3331 15.9178
857 2 62.9515 82.2905 15.8239
858 2 66.8464 82.3077 0.255395
859 2 70.7251 82.4337 0.0271782
860 2 74.863 82.48 15.8982
861 2 78.7199 82.5378 0.271925
862 2 82.7277 82.7776 15.9048
863 2 86.7668 82.7193 15.9031
864 2 90.6145 82.6286 -0.0655837
865 2 94.8393 82.7373 15.8626
866 2 98.8541 82.9672 16.0979
867 2 102.937 82.827 0.141234
868 2 106.744 82.977 0.263299
869 2 110.726 83.0977 15.9713
870 2 114.883 83.1493 15.9341
871 2 118.921 83.1308 0.107596
872 2 122.926 83.3214 16.0104
873 2 126.909 83.3437 0.32512
874 2 130.908 83.2319 16.0454
875 2 135.034 83.2365 0.170839
876 2 138.813 83.3876 16.0126
877 2 142.863 83.1337 0.112296
878 2 146.762 83.0422 0.146155
879 2 150.673 83.1298 16.0313
880 2 154.55 83.2141 15.8701
881 2 0.258177 86.8572 16.0551
882 2 4.35137 86.9997 0.148022
883 2 8.11265 86.7206 15.9526
884 2 12.0977 86.7299 15.9235
885 2 15.8999 86.8091 0.174102
886 2 19.9311 86.9812 15.9906
887 2 23.8056 86.72 15.7939
888 2 27.6705 86.6572 15.9422
889 2 31.6379 86.5823 15.7947
890 2 35.382 86.6395 16.0709
891 2 39.3829 86.5046 16.0069
892 2 43.2067 86.6975 15.8542
893 2 47.1459 86.4986 0.127918
894 2 50.9886 86.3612 0.25006
895 2 55.0175 86.4026 0.161024
896 2 58.9298 86.3952 15.7761
897 2 62.9485 86.5186 15.9055
898 2 66.6402 86.2899 0.0866328
899 2 70.662 86.4361 0.103936
900 2 74.6456 86.6938 15.908
901 2 78.7207 86.6106 0.230705
902 2 82.7133 86.5619 0.222063
903 2 86.7749 86.7238 15.9631
904 2 90.678 86.5821 -0.0887767
905 2 94.8456 86.7206 15.8686
906 2 98.7028 86.9204 16.0291
907 2 102.931 86.9271 0.0909442
908 2 106.863 86.9387 0.322105
909 2 110.824 86.9587 15.9252
910 2 114.886 87.0211 0.116495
911 2 118.829 86.8793 0.350474
912 2 122.866 87.1801 0.170847
913 2 126.797 87.0689 16.0085
914 2 130.959 87.0559 0.314677
915 2 134.855 87.0203 15.9511
916 2 138.809 87.353 0.029897
917 2 142.681 87.1403 0.0469036
918 2 146.896 87.2068 0.0325411
919 2 150.637 87.1643 15.9009
920 2 154.655 87.3931 15.8569
921 2 0.316933 91.1582 15.8076
922 2 4.27008 91.0539 -0.102111
923 2 8.19357 90.9331 0.151762
924 2 12.1746 90.9004 0.0805254
925 2 16.0225 90.7651 15.8613
926 2 19.9592 90.8192 15.8178
927 2 23.7538 90.8363 15.8245
928 2 27.7223 90.6588 16.0884
929 2 31.7306 90.5349 15.6797
930 2 35.4993 90.6517 15.8877
931 2 39.4818 90.5331 16.0018
932 2 43.3295 90.6249 0.17205
933 2 47.3671 90.4005 15.9331
934 2 51.3147 90.376 16.061
935 2 55.0724 90.3648 15.7794
936 2 58.9367 90.6618 16.0237
937 2 62.8065 90.274 0.0593804
938 2 66.8251 90.3321 16.0497
939 2 70.7984 90.4344 15.8373
940 2 74.7112 90.44 15.8978
941 2 78.6409 90.4756 0.140571
942 2 82.7637 90.5183 0.202706
943 2 86.5806 90.4465 15.8761
944 2 90.7494 90.5035 0.0271195
945 2 94.5604 90.6427 0.185158
946 2 98.8789 90.8028 0.241442
947 2 102.843 90.7206 0.191156
948 2 106.646 90.9211 0.270819
949 2 110.73 90.8362 16.0202
950 2 114.743 90.8309 0.103933
951 2 118.707 90.7647 0.423335
952 2 122.927 91.0286 0.0960866
953 2 126.68 91.2623 0.179323
954 2 130.758 90.9466 15.7416
955 2 134.754 90.9939 0.174303
956 2 138.789 91.1652 0.167831
957 2 142.708 91.1847 0.0914655
958 2 146.799 91.1709 0.309757
959 2 150.891 91.2133 15.9613
960 2 154.904 91.0041 0.00961832
961 2 0.475606 95.1706 15.9442
962 2 4.20085 95.1368 15.7469
963 2 8.12979 94.9684 0.232415
964 2 12.1925 94.9795 15.8913
965 2 16.1321 94.9654 16.0074
966 2 19.9088 94.8416 15.9165
967 2 23.904 94.8085 15.934
968 2 27.6521 94.6725 15.9935
969 2 31.8156 94.5599 15.8872
970 2 35.5055 94.5521 0.0795216
971 2 39.391 94.5844 15.8185
972 2 43.2222 94.7736 15.8215
973 2 47.1461 94.5619 15.9774
974 2 51.3043 94.7027 0.147652
975 2 55.256 94.4485 15.9833
976 2 59.0517 94.2458 15.8944
977 2 62.9087 94.3682 15.8396