ITEM: TIMESTEP
17000
ITEM: NUMBER OF ATOMS
32000
ITEM: BOX BOUNDS xy xz yz pp pp pp
0.0000000000000000e+00 1.5831999999999999e+02 0.0000000000000000e+00
0.0000000000000000e+00 1.5831999999999999e+02 0.0000000000000000e+00
1.6665168186345714e-01 1.5931060318136335e+01 0.0000000000000000e+00
ITEM: ATOMS id type x y z
1 2 158.151 157.799 16.0249
2 2 3.76155 157.693 0.0343667
3 2 7.87346 157.992 -0.00155669
4 2 11.9422 157.872 16.0826
5 2 15.8426 158.109 -0.0356298
6 2 19.8282 158.089 0.219509
7 2 23.8355 158.102 15.8859
8 2 27.8604 158 0.237791
9 2 31.9568 158.119 16.0038
10 2 35.9288 158.178 0.2475
11 2 39.8685 158.241 0.22896
12 2 43.9719 158.497 15.9709
13 2 47.9559 0.071792 15.9634
14 2 51.879 0.197789 15.7995
15 2 56.0389 158.525 15.9826
16 2 60.0462 0.384351 16.0428
17 2 63.8173 0.284253 0.0839378
18 2 67.8093 0.00960025 0.11329
19 2 71.5953 158.337 15.8374
20 2 75.4395 158.232 16.0049
21 2 79.5838 158.23 15.8781
22 2 83.3464 158.137 0.187018
23 2 87.2231 158.172 0.257605
24 2 91.0695 158.346 0.148446
25 2 95.0183 158.067 0.177755
26 2 98.9863 158.074 0.289481
27 2 102.904 157.916 0.203401
28 2 106.792 157.938 15.7753
29 2 110.759 158.004 0.0436649
30 2 114.706 157.944 0.260176
31 2 118.74 157.769 0.295168
32 2 122.69 157.865 15.9298
33 2 126.616 157.823 15.9215
34 2 130.416 157.626 16.1507
35 2 134.044 157.577 16.1647
36 2 137.989 157.598 15.8101
37 2 142.045 157.643 15.9544
38 2 146.065 157.521 15.7125
39 2 150.255 157.69 15.8041
40 2 154.247 157.553 15.8347
41 2 158.288 3.28648 0.120524
42 2 3.78399 3.56366 15.835
43 2 7.7985 3.50372 0.150778
44 2 11.9512 3.44013 0.191408
45 2 15.7445 3.63935 0.0826674
46 2 19.7974 3.63328 15.9799
47 2 23.8808 3.60712 0.178464
48 2 28.0368 3.67105 0.175011
49 2 31.7415 3.88103 0.147239
50 2 35.6761 3.81443 -0.0827969
51 2 39.8435 3.6767 0.249568
52 2 43.9764 3.94592 0.1492
53 2 47.8912 3.94967 15.8545
54 2 52.1811 4.04317 0.321674
55 2 55.9703 4.01596 0.181106
56 2 59.9202 4.23761 0.232233
57 2 63.8184 4.27552 15.9511
58 2 67.8414 4.12461 -0.0159717
59 2 71.7659 4.16378 0.1264
60 2 75.6608 4.05447 0.15886
61 2 79.4934 3.87301 -0.0975471
62 2 83.4057 4.08032 0.443312
63 2 87.2971 3.73444 0.142332
64 2 91.2602 3.92901 0.0887524
65 2 95.1548 3.65551 15.9899
66 2 99.016 3.73163 0.139386
67 2 102.903 3.60876 0.202287
68 2 106.982 3.69864 15.7843
69 2 110.735 3.70424 15.7781
70 2 114.873 3.51948 15.818
71 2 118.874 3.30543 15.8849
72 2 122.634 3.31047 -0.0242757
73 2 126.597 3.41857 15.9976
74 2 130.466 3.33835 0.0230303
75 2 134.292 3.14931 15.9132
76 2 138.161 3.34807 0.358188
77 2 142.065 3.36516 15.8362
78 2 146.053 3.28909 -0.058113
79 2 150.103 3.13848 15.9128
80 2 154.117 3.43192 15.7885
81 2 158.184 7.05887 0.0134651
82 2 3.71486 7.37019 15.803
83 2 7.71158 7.40768 15.7863
84 2 11.8968 7.35493 15.7966
85 2 15.9075 7.68376 0.0241114
86 2 19.6788 7.59171 15.9462
87 2 23.9474 7.64073 0.10637
88 2 27.9107 7.54526 0.245678
89 2 31.7406 7.73508 15.7629
90 2 35.8892 7.71355 15.987
91 2 39.9456 7.55685 15.9203
92 2 43.8955 7.87811 15.927
93 2 47.8673 7.68439 0.177643
94 2 51.957 7.88056 15.8675
95 2 55.8149 8.03455 0.0933493
96 2 59.8548 8.14819 0.244296
97 2 63.8579 8.14243 0.0416025
98 2 67.7632 8.11572 0.0101533
99 2 71.7073 8.07747 -0.013961
100 2 75.4991 8.01716 0.100242
101 2 79.5193 8.06761 15.8134
102 2 83.5786 8.00403 0.188636
103 2 87.4395 7.86055 15.8744
104 2 91.5018 7.97945 0.270831
105 2 95.1131 7.89606 0.0874748
106 2 99.0381 7.62376 -0.0337897
107 2 103.141 7.67673 0.216612
108 2 107.114 7.75356 0.242955
109 2 111.08 7.71213 0.314007
110 2 114.97 7.56701 0.125202
111 2 118.779 7.37573 0.125115
112 2 122.655 7.43139 0.224302
113 2 126.432 7.22402 15.9576
114 2 130.606 7.22889 0.275436
115 2 134.383 7.28923 0.194768
116 2 138.402 7.3222 15.7688
117 2 142.318 7.24412 16.0679
118 2 146.181 7.28626 0.0806606
119 2 150.01 7.07515 15.857
120 2 154.04 7.03658 15.8633
121 2 158.102 11.2009 0.0558988
122 2 3.66195 11.2357 0.0225036
123 2 7.87956 11.2107 15.9885
124 2 11.637 11.4477 15.6589
125 2 15.7026 11.4602 15.7452
126 2 19.761 11.5651 0.0430331
127 2 23.6963 11.5747 -0.0938878
128 2 27.8715 11.4778 0.217122
129 2 31.7809 11.5695 0.0953935
130 2 35.7375 11.5727 0.0334976
131 2 40.0048 11.7364 0.0871265
132 2 43.8004 11.8763 15.8773
133 2 47.9938 11.8076 16.0378
134 2 51.8408 11.9256 16.1156
135 2 55.9475 11.8942 0.0887168
136 2 59.7886 11.8626 15.8859
137 2 63.6799 11.9216 0.0212656
138 2 67.9567 11.9348 15.9086
139 2 71.8228 12.192 0.266285
140 2 75.5981 12.0556 0.209382
141 2 79.5504 12.0702 0.0499391
142 2 83.7022 12.0574 0.324963
143 2 87.5083 11.8215 0.192712
144 2 91.4452 11.9581 0.328134
145 2 95.1442 12.0724 0.161786
146 2 99.3205 11.8616 0.229424
147 2 103.082 11.6452 0.157552
148 2 106.943 11.894 0.302973
149 2 110.844 11.9126 0.0612958
150 2 114.888 11.7128 0.173124
151 2 118.815 11.6604 0.111416
152 2 122.53 11.502 0.365639
153 2 126.539 11.4666 0.0724889
154 2 130.367 11.4056 15.9459
155 2 134.531 11.4152 0.261419
156 2 138.514 11.3357 0.385148
157 2 142.322 11.2195 16.0088
158 2 146.025 11.2334 15.8077
159 2 150.22 11.2119 15.8841
160 2 154.073 11.206 15.7013
161 2 158.261 15.0857 0.0336533
162 2 3.64411 15.0312 -0.118208
163 2 7.61248 15.0419 -0.0952916
164 2 11.5805 15.2614 15.8216
165 2 15.6489 15.335 15.6559
166 2 19.5215 15.3647 -0.106316
167 2 23.8154 15.3338 -0.00302253
168 2 27.6589 15.4897 16.0858
169 2 31.6652 15.5323 15.7442
170 2 35.9232 15.6226 0.118407
171 2 39.7293 15.4636 15.9387
172 2 43.8707 15.7076 0.230782
173 2 47.6718 15.6003 0.281598
174 2 51.865 15.7434 0.255707
175 2 55.7914 15.7279 16.0882
176 2 59.711 15.8656 0.258644
177 2 63.638 16.0338 0.104225
178 2 67.6753 15.9515 0.226091
179 2 71.6763 15.9565 0.356176
180 2 75.8269 15.9782 15.9344
181 2 79.7567 15.979 0.0453991
182 2 83.4491 15.8535 0.126769
183 2 87.4264 16.0915 0.144434
184 2 91.4938 15.7648 0.115363
185 2 95.442 15.799 0.0508005
186 2 99.3727 15.8102 -0.110727
187 2 103.02 15.7028 0.189259
188 2 106.987 15.8176 0.264098
189 2 110.953 15.6856 0.363036
190 2 114.708 15.6476 0.149621
191 2 118.788 15.5553 0.0544241
192 2 122.772 15.3583 15.9832
193 2 126.476 15.4805 0.0195289
194 2 130.506 15.4109 -0.050363
195 2 134.604 15.3033 -0.113804
196 2 138.452 15.336 0.106383
197 2 142.188 15.281 0.335661
198 2 145.988 15.2196 0.0238781
199 2 150.081 14.9847 15.8761
200 2 154.022 15.1679 0.0401895
201 2 157.929 18.9576 15.83
202 2 3.71662 18.94 0.0153068
203 2 7.68136 18.9466 15.8989
204 2 11.6432 19.1333 15.7121
205 2 15.5564 19.101 15.9929
206 2 19.6416 19.2232 -0.0725623
207 2 23.8108 19.2889 0.0405228
208 2 27.7859 19.5217 0.304584
209 2 31.5233 19.4089 15.7133
210 2 35.65 19.4542 15.74
211 2 39.6964 19.6328 0.104029
212 2 43.815 19.5129 15.9271
213 2 47.7979 19.8354 15.9959
214 2 51.8282 19.8375 16.1054
215 2 55.749 19.8399 15.8311
216 2 59.5824 19.6535 15.8045
217 2 63.6805 19.7235 16.0121
218 2 67.795 20.0381 15.8626
219 2 71.6901 19.9728 0.144573
220 2 75.6952 19.9226 0.228187
221 2 79.5475 19.8352 0.30974
222 2 83.6083 19.878 0.113677
223 2 87.4607 19.958 16.056
224 2 91.4434 19.9162 0.220887
225 2 95.2139 19.715 0.257917
226 2 99.3215 19.7525 15.8435
227 2 103.073 19.6787 16.1746
228 2 107.055 19.5834 15.898
229 2 110.945 19.6134 0.173294
230 2 115.062 19.6954 0.13979
231 2 119.039 19.6738 15.87
232 2 122.694 19.4346 -0.0375207
233 2 126.838 19.5349 0.280076
234 2 130.698 19.2251 -0.000806142
235 2 134.463 19.181 15.7981
236 2 138.359 19.199 15.8779
237 2 142.28 19.2091 0.00211245
238 2 146.475 19.1077 0.0703374
239 2 150.079 19.1852 0.149597
240 2 154.196 19.2566 15.7861
241 2 158.141 22.9449 15.8137
242 2 3.72611 23.041 15.874
243 2 7.89825 23.0437 0.00918817
244 2 11.642 23.1741 15.6702
245 2 15.7647 23.1214 15.8561
246 2 19.7346 23.1074 0.154091
247 2 23.5122 23.1056 15.7426
248 2 27.657 23.3176 15.9372
249 2 31.7364 23.1867 -0.182455
250 2 35.718 23.4596 15.803
251 2 39.6788 23.5094 0.243752
252 2 43.774 23.4356 15.9353
253 2 47.7527 23.6606 16.0978
254 2 51.6946 23.8042 0.0935725
255 2 55.6701 23.5499 15.9492
256 2 59.6685 23.7628 15.8797
257 2 63.6739 23.8096 15.8723
258 2 67.648 23.7486 0.0678126
259 2 71.5237 23.6914 0.285328
260 2 75.5658 23.714 0.0931806
261 2 79.6596 23.8471 15.9861
262 2 83.5439 23.7276 15.8768
263 2 87.5892 23.8758 0.213238
264 2 91.4257 23.8715 15.9041
265 2 95.3837 23.6656 15.993
266 2 99.3527 23.7081 0.16548
267 2 103.273 23.8462 0.375187
268 2 107.081 23.7309 0.298453
269 2 111.155 23.5188 0.341093
270 2 115.104 23.5369 15.9753
271 2 118.965 23.4813 15.8902
272 2 122.751 23.4613 0.0733511
273 2 126.671 23.6469 0.0390493
274 2 130.693 23.4971 15.6629
275 2 134.467 23.4873 0.219705
276 2 138.356 23.1945 15.9179
277 2 142.358 23.1914 -0.0138423
278 2 146.326 23.1678 0.275681
279 2 150.214 23.1203 -0.010082
280 2 154.053 23.1392 -0.0518054
281 2 158.121 27.0547 -0.0153648
282 2 3.573 27.0069 15.8708
283 2 7.606 26.8775 0.0227778
284 2 11.8371 26.7746 15.8982
285 2 15.6437 27.0834 15.8201
286 2 19.4931 26.9237 0.0435318
287 2 23.6458 27.2671 -0.144654
288 2 27.6116 27.2701 0.0865822
289 2 31.4526 27.1787 15.7003
290 2 35.7363 27.3741 0.0660227
291 2 39.6425 27.2671 0.0914277
292 2 43.7824 27.3464 15.7974
293 2 47.61 27.3775 -0.161499
294 2 51.7192 27.4558 0.186832
295 2 55.6127 27.4038 0.144311
296 2 59.5941 27.549 0.0882659
297 2 63.6171 27.6068 0.100535
298 2 67.5408 27.4928 0.246064
299 2 71.6154 27.6581 0.195412
300 2 75.5864 27.809 15.7724
301 2 79.5114 27.728 -0.0916414
302 2 83.3797 27.8794 15.7616
303 2 87.4435 27.7713 0.155684
304 2 91.3801 27.8772 15.8769
305 2 95.3412 27.8561 16.0963
306 2 99.3209 27.9052 0.240109
307 2 103.21 27.8033 0.362023
308 2 107.223 27.7753 15.9849
309 2 111.144 27.7403 0.232397
310 2 115.186 27.568 16.0981
311 2 118.892 27.6381 15.9734
312 2 123.05 27.3703 0.326054
313 2 126.881 27.5076 0.062373
314 2 130.645 27.326 0.160325
315 2 134.732 27.2981 15.748
316 2 138.492 27.2443 0.222056
317 2 142.421 27.0825 0.242508
318 2 146.291 27.0695 -0.0504933
319 2 150.334 26.9315 0.133131
320 2 154.311 27.1911 15.8522
321 2 158.189 31.0374 15.8583
322 2 3.83407 30.7643 -0.0593455
323 2 7.83445 30.7723 0.167958
324 2 11.7717 30.9098 15.875
325 2 15.5385 30.948 -0.0301856
326 2 19.6203 30.9513 15.8701
327 2 23.5832 31.1979 15.9746
328 2 27.5947 31.0743 0.124189
329 2 31.5401 31.1478 0.113105
330 2 35.6081 30.9856 15.6793
331 2 39.5107 31.1058 15.9807
332 2 43.4674 31.4358 0.212654
333 2 47.5798 31.2833 15.8748
334 2 51.6138 31.4918 16.1547
335 2 55.6248 31.4783 0.28868
336 2 59.7408 31.5389 0.0739207
337 2 63.4404 31.6521 15.8151
338 2 67.4633 31.3961 0.175902
339 2 71.4791 31.4027 15.8284
340 2 75.539 31.6117 0.170687
341 2 79.5065 31.6626 -0.0186981
342 2 83.5098 31.8834 15.7301
343 2 87.4127 31.8506 0.280592
344 2 91.63 31.832 0.302955
345 2 95.4903 31.9163 0.452718
346 2 99.3508 31.7732 0.196825
347 2 103.184 31.7853 16.0426
348 2 106.998 31.7246 0.232682
349 2 111.051 31.7042 15.8327
350 2 115.246 31.6435 0.245803
351 2 119.134 31.5107 15.959
352 2 122.977 31.4611 0.158904
353 2 126.776 31.4172 0.0475385
354 2 130.755 31.2886 0.208932
355 2 134.751 31.1607 0.0992658
356 2 138.669 31.005 15.9799
357 2 142.597 31.1997 15.8796
358 2 146.233 30.9656 15.9648
359 2 150.513 31.0631 15.8204
360 2 154.283 30.9987 15.9033
361 2 158.257 34.9848 15.7623
362 2 3.89239 34.8541 0.0679245
363 2 7.56623 34.7943 0.134526
364 2 11.5589 34.8923 15.785
365 2 15.6839 35.0002 -0.134956
366 2 19.6982 34.8659 15.8751
367 2 23.6047 35.1095 16.0614
368 2 27.4667 35.0297 -0.0579864
369 2 31.4959 35.0591 -0.038042
370 2 35.3783 35.2025 16.0463
371 2 39.623 35.1467 -0.0575258
372 2 43.5809 35.2527 15.8939
373 2 47.4772 35.298 15.8113
374 2 51.688 35.3122 0.211889
375 2 55.4374 35.4044 16.0129
376 2 59.4479 35.5227 0.348641
377 2 63.3225 35.5908 0.398454
378 2 67.4178 35.3686 0.246776
379 2 71.4278 35.434 0.122457
380 2 75.3405 35.5945 15.8704
381 2 79.3343 35.6069 15.6798
382 2 83.4727 35.9921 0.230015
383 2 87.2935 35.6828 0.230901
384 2 91.4245 35.7332 15.7473
385 2 95.4198 35.8243 15.8732
386 2 99.479 35.6708 0.120754
387 2 103.333 35.7154 15.995
388 2 107.106 35.6623 -0.0240951
389 2 111.145 35.5172 15.788
390 2 115.033 35.6519 -0.00278785
391 2 118.912 35.5615 15.9071
392 2 122.899 35.5172 15.8956
393 2 126.965 35.3047 0.075352
394 2 130.675 35.2691 0.139074
395 2 134.685 35.1974 15.88
396 2 138.457 35.2559 15.7933
397 2 142.423 35.2504 15.9534
398 2 146.478 35.0426 15.6954
399 2 150.362 34.9659 0.0207207
400 2 154.403 34.9427 0.0660367
401 2 158.322 38.9011 0.238514
402 2 4.01202 39.0027 15.9441
403 2 7.9115 38.946 15.9667
404 2 11.5707 38.8677 0.0370486
405 2 15.401 38.6847 0.0785556
406 2 19.5104 38.7809 16.0023
407 2 23.4434 38.9488 15.8328
408 2 27.5543 38.8323 0.159574
409 2 31.2986 39.085 15.764
410 2 35.3331 39.0267 0.233449
411 2 39.3151 38.9418 -0.0373794
412 2 43.3542 39.1976 0.13149
413 2 47.5011 39.289 0.0606595
414 2 51.5094 39.3893 0.14351
415 2 55.3617 39.1828 0.34498
416 2 59.4145 39.4253 0.378503
417 2 63.5819 39.5036 16.0722
418 2 67.5194 39.4381 0.309049
419 2 71.4211 39.4937 0.357852
420 2 75.38 39.5051 0.0367878
421 2 79.4805 39.5045 15.9068
422 2 83.2924 39.6523 15.677
423 2 87.3475 39.6148 15.9108
424 2 91.4227 39.7112 15.6889
425 2 95.3322 39.6407 16.0361
426 2 99.5663 39.7794 0.21261
427 2 103.432 39.7432 0.157374
428 2 107.373 39.7803 15.8286
429 2 111.332 39.5458 15.8309
430 2 114.971 39.6999 15.8147
431 2 119.124 39.7489 16.1479
432 2 122.911 39.5518 0.138619
433 2 126.811 39.378 15.8727
434 2 130.826 39.1993 -0.0123916
435 2 134.515 39.2058 0.0494355
436 2 138.692 39.2885 15.8405
437 2 142.584 39.0658 15.8549
438 2 146.399 39.1454 0.0848621
439 2 150.242 39.1072 16.0935
440 2 154.184 38.9297 0.113418
441 2 158.327 43.014 0.19437
442 2 3.57273 42.9506 0.192464
443 2 7.72753 43.0366 -0.0910989
444 2 11.5737 42.8786 -0.00125751
445 2 15.4376 42.7796 0.119591
446 2 19.471 42.7574 15.9218
447 2 23.2277 42.8027 0.309179
448 2 27.4087 42.7556 0.00671795
449 2 31.4786 42.7566 -0.0554733
450 2 35.3646 42.8902 -0.011637
451 2 39.1364 42.9596 -0.0768467
452 2 43.2746 43.1678 -0.0222415
453 2 47.1935 43.2204 0.00981278
454 2 51.4809 43.0775 0.145693
455 2 55.3897 43.3443 0.27708
456 2 59.3086 43.2232 0.347548
457 2 63.2156 43.2409 0.280762
458 2 67.3833 43.498 15.7763
459 2 71.5003 43.5695 16.1197
460 2 75.3982 43.3916 0.150492
461 2 79.4173 43.4978 0.301334
462 2 83.4282 43.4886 15.9344
463 2 87.3007 43.7255 15.7431
464 2 91.3311 43.4453 15.8787
465 2 95.2913 43.5858 -0.0968842
466 2 99.3031 43.5637 0.241993
467 2 103.447 43.5862 0.145909
468 2 107.377 43.5804 0.167659
469 2 111.292 43.6199 15.933
470 2 115.225 43.6801 15.7145
471 2 118.968 43.6584 -0.0381975
472 2 123.119 43.7051 -0.00781554
473 2 127.013 43.3999 0.0882334
474 2 130.855 43.3569 0.138097
475 2 134.727 43.2138 15.8632
476 2 138.642 43.1545 15.9951
477 2 142.468 43.1023 15.6984
478 2 146.575 43.1564 15.8079
479 2 150.517 43.0466 0.11934
480 2 154.305 43.0902 15.9796
481 2 158.3 47.0349 15.9191
482 2 4.01163 46.9219 16.0075
483 2 7.63579 46.9336 16.0236
484 2 11.5536 46.8651 15.838
485 2 15.4221 46.8556 0.193952
486 2 19.4727 46.7672 15.8
487 2 23.5285 46.8378 0.0681265
488 2 27.5064 46.8161 0.136851
489 2 31.1815 46.7438 -0.0233773
490 2 35.3861 46.643 0.307065
491 2 39.2914 46.8571 0.273917
492 2 43.2747 47.0591 0.162895
493 2 47.2891 47.0203 15.8366
494 2 51.2975 46.8754 15.9487
495 2 55.2785 47.1676 0.321957
496 2 59.3318 47.049 16.2102
497 2 63.3774 47.0646 0.464182
498 2 67.2652 47.2254 0.354847
499 2 71.1793 47.6043 0.190772
500 2 75.2002 47.3368 15.8098
501 2 79.2185 47.4851 15.9837
502 2 83.2427 47.4379 0.151337
503 2 87.2106 47.4673 0.0347094
504 2 91.3754 47.5239 15.8931
505 2 95.2787 47.5291 0.113276
506 2 99.2781 47.3967 0.408616
507 2 103.282 47.5392 16.1602
508 2 107.36 47.4592 -0.0633271
509 2 111.218 47.7985 16.0439
510 2 115.37 47.619 15.976
511 2 119.181 47.4961 0.0589946
512 2 123.09 47.6404 0.0236596
513 2 126.966 47.5161 0.0684266
514 2 130.692 47.3658 0.226316
515 2 134.661 47.3434 16.0162
516 2 138.611 47.2569 0.139482
517 2 142.546 47.1766 15.8285
518 2 146.488 47.1786 0.0478152
519 2 150.264 47.1155 15.6573
520 2 154.236 46.9805 0.153348
521 2 158.273 50.829 0.286645
522 2 3.90762 50.8351 0.0273134
523 2 7.67512 51.012 0.159061
524 2 11.7314 50.9784 15.5754
525 2 15.6111 50.9554 -0.0631554
526 2 19.5137 50.6656 0.100083
527 2 23.5457 50.7554 0.0101817
528 2 27.2179 50.5576 15.9073
529 2 31.2576 50.7486 15.8162
530 2 35.274 50.9165 0.184854
531 2 39.2988 50.8141 16.034
532 2 43.1889 50.8597 0.236358
533 2 47.1949 50.9395 0.0768526
534 2 51.2058 50.889 15.793
535 2 55.1022 50.9979 16.0479
536 2 59.1556 51.0706 16.2178
537 2 63.2157 51.024 0.23257
538 2 67.2983 51.0824 0.185911
539 2 71.2802 51.236 15.9563
540 2 75.1332 51.3296 0.212427
541 2 79.1324 51.189 16.0352
542 2 83.2467 51.3927 15.8634
543 2 87.0175 51.5215 15.8313
544 2 91.3649 51.3166 -0.0388566
545 2 95.1643 51.5698 0.361882
546 2 99.2792 51.2477 15.9785
547 2 103.473 51.5477 0.126495
548 2 107.322 51.6714 15.9824
549 2 111.209 51.6273 0.294129
550 2 115.025 51.5544 -0.131006
551 2 118.954 51.5075 0.196142
552 2 123.222 51.6569 0.177905
553 2 126.852 51.387 15.9784
554 2 130.82 51.4047 0.277821
555 2 134.647 51.41 16.0384
556 2 138.62 51.2972 0.206024
557 2 142.562 51.1382 15.9541
558 2 146.473 51.059 15.7943
559 2 150.277 51.0601 0.184313
560 2 154.228 50.8613 0.203776
561 2 158.192 55.034 -0.0412161
562 2 3.64233 54.9945 0.0850643
563 2 7.73595 54.8683 0.121692
564 2 11.7075 54.7184 15.8808
565 2 15.4001 54.815 15.873
566 2 19.5119 54.6475 15.8054
567 2 23.5064 54.7583 15.7776
568 2 27.3781 54.6173 15.8884
569 2 31.1557 54.8288 -0.0137678
570 2 35.0982 54.816 15.9906
571 2 39.1845 54.6568 0.0245654
572 2 42.9921 54.8897 15.9593
573 2 47.0798 54.8218 15.859
574 2 51.0651 54.8979 15.9556
575 2 55.2921 55.0368 0.0364656
576 2 59.196 54.9485 0.26602
577 2 63.0663 55.1051 15.9009
578 2 67.1074 55.1175 0.18912
579 2 70.9138 55.1422 16.0872
580 2 75.1812 55.3213 15.8627
581 2 78.9709 55.0465 15.9038
582 2 83.2686 55.2308 15.9839
583 2 87.2187 55.0879 0.0929529
584 2 91.1202 55.1795 0.262743
585 2 95.1753 55.2091 0.22638
586 2 99.2352 55.2323 15.9094
587 2 103.085 55.3411 0.113997
588 2 107.351 55.5542 0.406386
589 2 111.147 55.5674 15.9969
590 2 115.107 55.5743 0.341223
591 2 119.207 55.6338 0.20357
592 2 122.972 55.4419 0.0826923
593 2 127.086 55.5004 15.9134
594 2 131.069 55.5096 16.0043
595 2 134.925 55.3225 16.036
596 2 138.79 55.0878 0.251711
597 2 142.665 55.1529 0.306105
598 2 146.622 55.1592 15.8518
599 2 150.31 55.1637 15.7586
600 2 154.198 55.0369 0.132906
601 2 -0.107303 58.9708 0.275135
602 2 3.78487 58.9592 0.0385666
603 2 7.73638 58.8033 0.283384
604 2 11.7818 58.8247 15.8819
605 2 15.6662 58.9307 0.0799658
606 2 19.5887 58.6334 15.9031
607 2 23.39 58.8198 15.8736
608 2 27.2264 58.7275 0.351458
609 2 31.202 58.7496 15.7508
610 2 35.2038 58.7794 0.300984
611 2 39.1896 58.6814 0.0287676
612 2 43.1519 58.7015 15.9838
613 2 47.0975 58.7512 -0.0130667
614 2 50.9509 58.8945 15.8605
615 2 55.0656 58.9818 16.0833
616 2 59.3041 58.9522 15.8555
617 2 63.2213 58.9697 0.271782
618 2 67.017 58.952 15.8943
619 2 70.9889 58.956 -0.0170546
620 2 75.0142 59.1295 0.237244
621 2 79.0887 59.1492 15.9132
622 2 83.1502 59.2172 15.8061
623 2 87.1653 58.8918 0.216647
624 2 91.2519 59.2455 0.16033
625 2 95.2761 59.2621 0.154678
626 2 99.0943 59.3417 15.9046
627 2 103.2 59.4907 0.305019
628 2 107.075 59.5098 0.125026
629 2 111.372 59.4535 0.251305
630 2 115.249 59.4759 0.0971934
631 2 119.296 59.5057 0.21564
632 2 123.019 59.798 0.188357
633 2 126.975 59.5087 0.0930952
634 2 131.08 59.3974 15.9897
635 2 134.8 59.3042 0.200245
636 2 138.733 59.2194 0.187351
637 2 142.837 59.1951 15.865
638 2 146.621 59.2306 -0.0413437
639 2 150.472 59.1311 0.191957
640 2 154.354 59.0503 0.284525
641 2 0.134073 62.8495 16.025
642 2 3.92589 63.0714 15.7704
643 2 7.64344 62.9835 0.0592281
644 2 11.6087 62.9927 0.0999493
645 2 15.6656 62.9262 16.0022
646 2 19.4857 62.7548 16.1054
647 2 23.5142 62.7881 15.9284
648 2 27.3852 62.6338 0.239315
649 2 31.1341 62.6239 15.8401
650 2 35.1022 62.9489 16.0985
651 2 39.3072 62.7231 0.363082
652 2 43.1568 62.6768 0.0246198
653 2 47.0017 62.7358 15.6799
654 2 50.9336 62.6807 -0.0740253
655 2 54.9185 62.7743 0.154604
656 2 59.0658 63.0015 -0.0639601
657 2 63.0126 62.9084 0.199246
658 2 67.1329 63.0387 0.277226
659 2 71.1156 62.8191 0.219625
660 2 75.0699 63.0874 15.7669
661 2 79.0894 62.9451 15.9113
662 2 83.2083 63.031 15.9646
663 2 87.1385 63.009 0.130066
664 2 91.0561 63.1156 15.7511
665 2 95.0937 63.1081 0.240106
666 2 99.0612 63.2954 0.254041
667 2 103.165 63.3074 0.27703
668 2 106.96 63.4795 0.21261
669 2 111.21 63.3714 0.329716
670 2 115.166 63.3087 0.0775428
671 2 119.107 63.4322 16.0227
672 2 123.116 63.5062 15.9691
673 2 126.891 63.5572 15.8905
674 2 130.958 63.3338 0.0565197
675 2 134.87 63.3998 15.7254
676 2 138.769 63.1869 0.29684
677 2 142.672 63.181 0.224085
678 2 146.679 63.2964 0.121058
679 2 150.508 63.1113 15.9793
680 2 154.364 63.1355 16.0144
681 2 0.106581 67.0303 -0.017056
682 2 4.10437 67.0445 0.255425
683 2 8.06331 67.0008 0.25738
684 2 11.7676 66.897 15.8806
685 2 15.4944 67.0354 16.1033
686 2 19.6204 66.8643 15.8487
687 2 23.5286 66.708 15.9747
688 2 27.4788 66.7372 15.968
689 2 31.106 66.6794 0.147536
690 2 35.3066 66.9476 0.107852
691 2 39.0919 66.859 0.179885
692 2 43.1562 66.7581 15.8912
693 2 47.0746 66.7305 0.200492
694 2 51.0745 66.6859 15.8463
695 2 54.9234 66.8309 15.6644
696 2 59.1003 66.9033 15.9607
697 2 63.0935 66.8511 16.0467
698 2 67.0963 66.7112 16.1335
699 2 71.1064 66.9311 0.256099
700 2 75.1108 66.8239 0.298949
701 2 79.1467 67.0298 16.1006
702 2 83.048 66.9261 15.7571
703 2 87.0866 66.8546 16.0639
704 2 90.9833 67.2062 0.349708
705 2 95.0626 67.2239 15.8416
706 2 99.0135 67.2099 16.0752
707 2 103 67.1204 0.232155
708 2 107.063 67.1576 15.914
709 2 111.104 67.283 0.271519
710 2 115.145 67.1377 0.228587
711 2 119.145 67.427 0.257217
712 2 123.157 67.2505 16.0007
713 2 127.091 67.3047 15.9879
714 2 130.968 67.3963 16.0345
715 2 134.951 67.3934 16.0362
716 2 138.92 67.2784 15.9136
717 2 142.742 67.3445 16.1568
718 2 146.661 66.9725 0.403055
719 2 150.682 67.0407 15.9448
720 2 154.569 67.2212 15.9127
721 2 0.121988 71.1008 15.9454
722 2 3.95421 70.9104 16.089
723 2 7.90297 71.1052 0.129816
724 2 11.881 70.935 15.9768
725 2 15.5112 70.8711 15.9309
726 2 19.5804 70.7617 0.207224
727 2 23.52 70.7612 15.9219
728 2 27.2965 70.8148 15.9354
729 2 31.3761 70.584 15.9228
730 2 35.322 70.5421 15.7532
731 2 39.0576 70.6067 15.7785
732 2 43.1315 70.7656 0.134202
733 2 47.0483 70.5328 15.9361
734 2 50.7296 70.6816 15.8683
735 2 55.0963 70.8185 16.0976
736 2 58.8745 70.7367 0.0653089
737 2 62.9668 70.7245 15.8712
738 2 67.0301 70.6791 0.273518
739 2 70.9904 70.7402 15.7849
740 2 75.0593 70.6988 16.0994
741 2 78.9151 70.9839 16.1119
742 2 83.0454 70.6965 0.23681
743 2 87.1645 70.7448 15.9869
744 2 91.2317 70.9895 0.163663
745 2 95.0349 71.1088 0.125261
746 2 99.0521 70.9733 15.9196
747 2 102.807 71.3232 0.187735
748 2 106.966 71.0011 0.504138
749 2 111.053 71.0289 16.1979
750 2 114.972 71.3035 0.445982
751 2 118.984 71.1929 15.9182
752 2 122.95 71.3001 0.107733
753 2 127.024 71.2476 16.1466
754 2 130.883 71.2153 16.0131
755 2 134.853 71.2856 16.032
756 2 138.916 71.2342 15.9359
757 2 142.824 71.3367 15.9501
758 2 146.804 71.1675 16.079
759 2 150.637 70.9424 16.0961
760 2 154.565 71.0681 16.0032
761 2 0.15474 75.1692 15.8454
762 2 4.07435 74.9114 15.7034
763 2 8.07821 74.9347 15.9652
764 2 11.9809 74.89 15.8642
765 2 15.6986 74.9254 15.8716
766 2 19.599 74.8096 15.8459
767 2 23.5569 74.8808 15.9624
768 2 27.4571 74.7654 15.8558
769 2 31.3494 74.7002 0.272503
770 2 35.2415 74.6175 15.8856
771 2 39.1618 74.652 15.7991
772 2 43.0629 74.6162 0.0868611
773 2 46.8975 74.5561 15.7908
774 2 51.035 74.5005 0.098437
775 2 54.9773 74.5035 16.152
776 2 58.9571 74.7951 15.9913
777 2 62.8418 74.5962 15.7791
778 2 66.9085 74.7715 15.9014
779 2 70.9985 74.6053 15.9508
780 2 74.9152 74.9724 0.101475
781 2 79.0125 74.8744 15.9594
782 2 83.1454 74.6933 15.8168
783 2 87.1007 74.8048 16.1926
784 2 91.1044 74.8183 0.450859
785 2 95.0811 75.0088 16.2109
786 2 99.0948 75.1631 0.0783977
787 2 102.973 75.0997 15.8483
788 2 106.955 75.1929 0.10844
789 2 110.91 75.2631 15.9138
790 2 114.998 75.1758 0.261535
791 2 118.94 75.2561 15.8372
792 2 123.015 75.2224 16.0535
793 2 127.084 75.2171 0.169
794 2 130.963 75.2983 0.336932
795 2 134.953 75.1724 16.1666
796 2 138.93 75.0974 15.9804
797 2 142.869 75.203 0.318637
798 2 146.727 75.0814 16.1518
799 2 150.535 75.1695 15.9978
800 2 154.456 74.8409 0.138202
801 2 0.163162 79.0008 15.9298
802 2 4.09323 78.9923 16.0312
803 2 7.88037 79.0531 15.9399
804 2 12.0073 78.8898 16.0508
805 2 15.9725 78.8024 15.9325
806 2 19.7249 78.7893 15.8898
807 2 23.8078 78.9335 15.6822
808 2 27.4911 78.6489 16.0134
809 2 31.3384 78.8688 0.234885
810 2 35.3635 78.8229 15.7866
811 2 39.4153 78.8115 -0.0232659
812 2 43.0585 78.4514 0.0574959
813 2 47.0899 78.6942 0.238713
814 2 50.9553 78.4686 16.007
815 2 55.1822 78.5879 16.1887
816 2 58.9888 78.4662 15.9252
817 2 62.9495 78.5907 15.8324
818 2 66.9757 78.8286 15.8676
819 2 70.885 78.3891 15.9352
820 2 75.0013 78.6503 16.0267
821 2 78.8945 78.5658 0.273846
822 2 83.0473 78.6747 0.140471
823 2 86.7602 78.8489 0.292355
824 2 90.8909 78.7751 0.221259
825 2 94.7833 78.8165 0.17899
826 2 98.8926 78.9439 16.0916
827 2 103.032 79.0512 0.206025
828 2 106.789 79.0547 16.0105
829 2 110.888 79.08 0.164364
830 2 114.919 79.0237 15.9161
831 2 118.757 79.1467 0.080338
832 2 122.88 79.2003 0.276856
833 2 126.894 79.0037 16.0577
834 2 131.078 79.1781 0.20589
835 2 135.016 79.2267 16.1199
836 2 138.856 79.325 15.972
837 2 142.904 79.198 16.1227
838 2 146.64 79.1462 16.0648
839 2 150.617 79.2324 16.0726
840 2 154.531 78.8863 15.9829
841 2 0.133062 83.089 16.0203
842 2 4.16866 82.8964 15.9085
843 2 8.01319 82.9687 15.828
844 2 12.1278 82.8147 16.0433
845 2 15.8182 82.872 15.8092
846 2 19.7767 82.9615 15.9227
847 2 23.7996 82.8709 15.877
848 2 27.6202 82.8858 16.078
849 2 31.2613 82.7712 15.789
850 2 35.3249 82.8074 15.7643
851 2 39.3004 82.6702 0.198283
852 2 43.201 82.6814 15.7679
853 2 47.1856 82.6238 15.9863
854 2 51.0089 82.5569 16.0548
855 2 54.929 82.4857 15.7302
856 2 59.075 82.4309 15.9382
857 2 62.9041 82.4043 16.0116
858 2 66.9004 82.3256 0.0844355
859 2 70.6669 82.2808 0.0705207
860 2 74.5728 82.3169 15.895
861 2 79.0652 82.4149 0.117841
862 2 82.9409 82.393 16.1585
863 2 86.7856 82.8674 16.015
864 2 90.807 82.6769 0.2547
865 2 94.881 82.936 15.9681
866 2 99.1734 82.7859 16.0441
867 2 102.773 82.7921 0.130006
868 2 106.964 82.9448 0.231429
869 2 111.028 82.9202 15.9631
870 2 114.961 82.9403 15.8565
871 2 118.773 83.225 0.131653
872 2 122.797 82.9204 16.0029
873 2 126.684 83.1777 0.240081
874 2 130.99 83.2688 15.9657
875 2 134.895 83.2711 0.151278
876 2 138.906 83.2085 15.8292
877 2 142.791 83.314 0.314565
878 2 146.903 83.1069 0.323684
879 2 150.659 82.8849 15.8555
880 2 154.55 82.9286 15.919
881 2 0.296133 87.3297 15.8674
882 2 4.08474 86.8533 0.0050441
883 2 8.02495 86.8978 15.9437
884 2 11.9956 86.8447 16.0198
885 2 15.9291 86.8914 0.152459
886 2 19.8111 86.7943 15.8634
887 2 23.7905 86.8758 15.8844
888 2 27.8524 86.8562 15.9193
889 2 31.5066 86.7677 15.8808
890 2 35.5096 86.5321 15.9779
891 2 39.4086 86.7456 15.98
892 2 43.2508 86.5328 15.953
893 2 47.1235 86.5157 0.0532951
894 2 51.0734 86.3836 0.0337245
895 2 55.1322 86.636 -0.118786
896 2 58.946 86.3894 15.9467
897 2 62.8593 86.557 15.6518
898 2 66.8682 86.5685 0.140663
899 2 70.7717 86.3523 0.0526105
900 2 74.6456 86.3623 15.9176
901 2 78.957 86.4046 0.120345
902 2 82.8547 86.557 0.259765
903 2 86.8934 86.6139 16.0004
904 2 90.8917 86.5978 0.113552
905 2 94.787 86.6068 15.752
906 2 98.8474 86.8558 16.0107
907 2 102.762 86.6873 0.219934
908 2 106.937 86.8255 0.303212
909 2 110.81 86.8263 16.0364
910 2 114.736 86.8009 -0.0155663
911 2 118.758 86.8927 0.154115
912 2 122.927 86.975 0.0476608
913 2 126.877 87.0699 15.9639
914 2 130.969 86.9239 0.381414
915 2 134.79 87.1425 15.9708
916 2 138.851 87.1505 0.215268
917 2 142.889 87.1758 0.0655213
918 2 146.925 87.1675 0.308751
919 2 150.956 87.0852 16.1268
920 2 154.918 87.1739 15.6993
921 2 0.437446 91.1145 15.9316
922 2 4.23422 91.1244 0.208005
923 2 8.17904 90.9194 0.122836
924 2 12.1326 90.8376 0.243239
925 2 16.0987 90.9658 16.1005
926 2 19.9793 91.0006 16.0047
927 2 23.8157 90.8035 15.9834
928 2 27.8578 90.8418 15.8504
929 2 31.7086 90.9486 15.7724
930 2 35.5397 90.6998 16.1519
931 2 39.3586 90.6318 15.8994
932 2 43.466 90.6303 -0.0546161
933 2 47.4418 90.5532 15.8667
934 2 51.2342 90.3979 15.9593
935 2 55.0633 90.7248 16.0068
936 2 58.9578 90.4895 15.7143
937 2 62.8007 90.3753 0.0719943
938 2 66.8035 90.2593 15.9883
939 2 70.9322 90.1103 15.7965
940 2 74.8124 90.3224 16.0048
941 2 78.7706 90.3421 -0.0391487
942 2 82.6695 90.4371 0.182489
943 2 86.9254 90.5888 15.9047
944 2 90.9005 90.4864 0.177513
945 2 94.744 90.5461 0.118259
946 2 98.7846 90.9248 -0.0122621
947 2 102.97 90.7202 0.342254
948 2 106.857 90.8842 0.440401
949 2 110.839 90.8462 15.9908
950 2 114.776 90.7271 0.293999
951 2 118.931 90.6943 0.169704
952 2 122.914 90.8694 0.185598
953 2 127.062 90.876 0.174808
954 2 130.951 90.9433 15.9398
955 2 134.966 90.8912 0.253484
956 2 138.94 90.9815 0.252411
957 2 142.869 91.1111 0.286929
958 2 146.833 91.0808 0.335841
959 2 150.848 91.2556 15.9198
960 2 154.847 91.2016 0.310846
961 2 0.267241 95.2618 16.1257
962 2 4.37233 95.0279 15.9519
963 2 8.17022 94.9239 0.266635
964 2 12.1099 95.0206 16.1251
965 2 16.0488 94.9092 16.1325
966 2 19.9169 94.8651 15.8927
967 2 23.631 94.7389 16.0365
968 2 27.7124 94.7851 16.1221
969 2 31.6162 94.8228 15.9156
970 2 35.767 94.7531 0.0969506
971 2 39.3155 94.8057 15.9165
972 2 43.3608 94.686 16.056
973 2 47.4664 94.7237 16.0127
974 2 51.4029 94.5555 0.0683664
975 2 55.0766 94.6416 15.833
976 2 59.0804 94.4569 15.839
977 2 62.9753 94.4384 15.7459
978 2 66.9272 94.4408 0.235877