ITEM: TIMESTEP
17100
ITEM: NUMBER OF ATOMS
32000
ITEM: BOX BOUNDS xy xz yz pp pp pp
0.0000000000000000e+00 1.5831999999999999e+02 0.0000000000000000e+00
0.0000000000000000e+00 1.5831999999999999e+02 0.0000000000000000e+00
1.6586729133948719e-01 1.5931844708660311e+01 0.0000000000000000e+00
ITEM: ATOMS id type x y z
1 2 157.974 157.929 15.8167
2 2 3.84787 157.954 0.0582418
3 2 7.96235 157.763 -0.00692344
4 2 11.7009 158.015 15.9247
5 2 15.9613 157.924 0.229795
6 2 20.0377 158.058 0.105637
7 2 24.0445 158.127 15.9397
8 2 27.8384 158.168 0.219226
9 2 31.8829 158.28 15.9175
10 2 35.8541 158.117 0.0838063
11 2 39.9682 158.161 -0.0264962
12 2 44.0298 158.248 15.7853
13 2 48.0205 0.298486 15.8865
14 2 52.1427 0.116627 15.9708
15 2 55.9577 158.289 16.0472
16 2 59.9265 0.00902902 15.7768
17 2 63.974 0.138347 0.100937
18 2 67.7689 0.0572459 0.0627028
19 2 71.8007 158.468 15.8103
20 2 75.7022 158.37 15.8385
21 2 79.3519 158.233 15.9716
22 2 83.2453 158.419 0.244538
23 2 87.076 158.259 0.0725586
24 2 91.0383 158.024 0.178875
25 2 95.1601 158.134 0.0643541
26 2 99.0356 158.034 0.120813
27 2 102.881 158.069 0.241129
28 2 106.793 157.927 16.1683
29 2 110.826 158.186 0.417309
30 2 114.662 157.888 -0.0337173
31 2 118.463 157.759 0.268515
32 2 122.609 157.751 15.9633
33 2 126.396 157.794 16.0203
34 2 130.204 157.75 15.8368
35 2 134.295 157.721 15.8655
36 2 138.189 157.628 15.9781
37 2 142.162 157.488 15.7312
38 2 146.217 157.626 15.9015
39 2 150.188 157.703 16.0324
40 2 153.986 157.917 15.7983
41 2 158.044 3.59905 0.138273
42 2 3.80842 3.10453 15.8825
43 2 7.90589 3.45672 0.032773
44 2 11.8585 3.64604 0.142172
45 2 16.0042 3.58502 0.269992
46 2 19.8919 3.74628 15.6967
47 2 23.8627 3.76359 0.158716
48 2 27.7106 3.80192 0.0760902
49 2 31.99 3.78786 -0.0706527
50 2 36.0034 3.849 0.153748
51 2 39.9983 3.87931 0.0117851
52 2 43.8773 3.79599 0.143851
53 2 48.1027 3.90052 15.988
54 2 51.8487 4.02439 0.152737
55 2 55.986 4.11081 0.445878
56 2 59.9468 4.17913 0.145611
57 2 63.9558 4.09859 15.7243
58 2 67.751 3.96144 0.207941
59 2 71.4815 4.01975 -0.0712749
60 2 75.4742 3.87697 0.146263
61 2 79.6604 4.10279 0.290486
62 2 83.4886 3.97961 0.0945933
63 2 87.3964 4.03163 0.26818
64 2 91.2521 3.84173 0.120615
65 2 95.1202 3.92172 15.8135
66 2 98.9631 3.71866 0.0914468
67 2 102.889 3.68118 0.223442
68 2 106.875 3.60485 15.9835
69 2 110.724 3.51779 16.0936
70 2 114.632 3.4737 16.1018
71 2 118.455 3.48044 15.8948
72 2 122.532 3.63906 0.243522
73 2 126.628 3.49782 15.8927
74 2 130.375 3.42808 0.186981
75 2 134.255 3.32837 16.0897
76 2 138.271 3.2475 0.12751
77 2 142.142 2.98124 15.971
78 2 146.017 3.06299 0.189162
79 2 150.024 3.2164 15.8192
80 2 154.183 3.20952 15.931
81 2 158.066 7.56934 0.100275
82 2 3.99753 7.39094 15.803
83 2 7.81346 7.33688 15.829
84 2 11.7991 7.61948 15.8529
85 2 15.786 7.35247 0.180644
86 2 20.0415 7.65277 15.795
87 2 23.8415 7.55321 0.164292
88 2 27.8326 7.74253 0.125474
89 2 31.8385 7.71179 16.0464
90 2 35.7939 7.71946 15.8884
91 2 39.7969 7.86245 15.9638
92 2 43.8829 7.67392 15.9563
93 2 48.0073 7.94447 0.287872
94 2 51.9205 7.91265 15.9566
95 2 55.9471 8.06568 0.0706993
96 2 59.89 8.01102 0.273851
97 2 64.017 8.13287 0.146448
98 2 67.863 8.10235 0.252796
99 2 71.6711 8.02469 0.230194
100 2 75.4659 8.15233 -0.00669083
101 2 79.6026 7.85628 15.9527
102 2 83.168 8.0069 0.10601
103 2 87.4303 7.94333 16.142
104 2 91.1626 7.79165 0.113401
105 2 95.3298 7.71208 0.240832
106 2 99.1456 7.85343 0.224194
107 2 102.997 7.65441 0.228015
108 2 106.887 7.68446 0.259972
109 2 110.975 7.69106 0.0132112
110 2 114.844 7.50532 0.275096
111 2 118.739 7.5536 0.101782
112 2 122.632 7.41903 -0.0198127
113 2 126.528 7.45029 15.8939
114 2 130.342 7.26928 0.251656
115 2 134.546 7.40586 0.230791
116 2 138.247 7.27788 16.0266
117 2 142.19 7.19893 15.8035
118 2 145.962 7.16566 0.172992
119 2 149.949 7.18381 15.8612
120 2 154.032 7.41636 15.6496
121 2 158.124 11.1665 0.0727062
122 2 3.9553 11.1457 -0.0439583
123 2 7.69146 11.4138 15.7247
124 2 11.8275 11.4069 15.8125
125 2 15.9398 11.4453 15.7601
126 2 19.8356 11.5734 0.0313026
127 2 23.9762 11.4891 0.217417
128 2 27.7147 11.5775 -0.0051991
129 2 31.7622 11.6405 0.0976112
130 2 35.9494 11.6602 0.335183
131 2 39.7226 11.7612 0.151766
132 2 43.9041 11.8285 16.0182
133 2 47.8001 11.7529 15.935
134 2 51.9148 11.8403 15.9364
135 2 55.7096 11.907 0.457012
136 2 59.7914 12.0619 16.1161
137 2 63.7483 12.0413 0.274473
138 2 67.6827 12.1349 16.0785
139 2 71.7632 12.0486 0.107806
140 2 75.6375 11.9157 0.132459
141 2 79.6143 11.8844 0.268714
142 2 83.4182 11.8565 0.116371
143 2 87.2855 11.996 0.371088
144 2 91.2813 11.892 0.4196
145 2 95.4031 11.7959 0.250044
146 2 99.1018 11.7689 0.0734244
147 2 103.103 11.8169 0.128476
148 2 107.17 11.6035 0.16297
149 2 110.872 11.6451 0.22375
150 2 114.802 11.4806 0.225132
151 2 118.722 11.7844 0.104633
152 2 122.663 11.5288 0.00417814
153 2 126.47 11.2163 0.175235
154 2 130.367 11.2731 15.8663
155 2 134.273 11.2388 0.156629
156 2 138.209 11.2979 -0.0906935
157 2 142.101 11.2208 15.8465
158 2 146.254 11.1841 15.9501
159 2 150.021 10.9621 15.9
160 2 154.026 11.0771 15.8392
161 2 157.911 15.0554 -0.026465
162 2 3.70634 15.1558 -0.101949
163 2 7.6497 15.1146 0.124346
164 2 11.8144 15.3491 15.8107
165 2 15.7872 15.2797 15.8264
166 2 19.769 15.5227 0.0584822
167 2 23.8079 15.4408 0.136328
168 2 27.8364 15.4024 15.8519
169 2 31.7748 15.4221 16.1065
170 2 35.72 15.543 -0.0557897
171 2 39.8904 15.7976 15.8913
172 2 43.7439 15.7051 0.0345844
173 2 47.8861 15.6839 0.141869
174 2 51.7493 15.9263 0.078227
175 2 55.8394 15.7454 15.8115
176 2 59.7879 15.7766 0.181167
177 2 63.9212 15.9867 0.224322
178 2 67.8908 16.068 0.195102
179 2 71.7632 16.1688 0.151357
180 2 75.5902 15.9031 15.8747
181 2 79.631 16.0058 0.0931796
182 2 83.5893 15.9483 0.319845
183 2 87.3185 15.7941 0.186036
184 2 91.2567 15.9976 0.171352
185 2 95.0974 15.8009 0.217717
186 2 99.0702 15.7351 0.356137
187 2 103.061 15.7167 0.237167
188 2 107.065 15.486 0.218966
189 2 110.852 15.6573 0.249408
190 2 114.667 15.6048 0.294261
191 2 118.686 15.5562 0.0802289
192 2 122.722 15.5864 15.8976
193 2 126.753 15.5366 -0.0216151
194 2 130.57 15.3472 0.0288947
195 2 134.283 15.2681 0.300786
196 2 138.134 15.1594 0.0656759
197 2 142.185 15.2237 0.0217927
198 2 146.323 15.1535 0.044881
199 2 150.206 15.1711 15.985
200 2 154.123 14.9806 0.0132093
201 2 158.281 19.0224 15.8657
202 2 3.89835 19.1235 -0.00948769
203 2 7.81983 19.0074 15.8486
204 2 11.7128 19.0386 15.7553
205 2 15.8284 19.1199 15.8574
206 2 19.8663 19.3708 0.0783122
207 2 23.7416 19.4326 0.0774484
208 2 27.6046 19.4195 0.0615293
209 2 31.8369 19.3823 15.6782
210 2 35.7568 19.3777 15.7431
211 2 39.8591 19.5588 0.237556
212 2 43.7235 19.6534 16.0008
213 2 47.435 19.52 15.9327
214 2 51.6664 19.6044 15.7465
215 2 55.629 19.7248 15.9301
216 2 59.67 19.9127 15.9285
217 2 63.7625 20.0365 15.8938
218 2 67.7514 19.9309 15.8413
219 2 71.7561 19.9617 0.132138
220 2 75.6276 19.8757 0.110872
221 2 79.7607 20.0665 -0.081281
222 2 83.5124 20.0103 0.0853285
223 2 87.3218 19.8621 16.0044
224 2 91.2511 19.8413 0.3321
225 2 95.4255 19.8551 0.204207
226 2 99.1592 19.6939 15.9602
227 2 103.219 19.6584 15.9586
228 2 107.056 19.5955 16.0299
229 2 110.856 19.5165 0.299072
230 2 114.864 19.4363 0.0496428
231 2 118.682 19.3018 15.9428
232 2 122.891 19.5515 0.113856
233 2 126.58 19.4045 -0.0632126
234 2 130.42 19.5437 0.258576
235 2 134.519 19.4456 15.9102
236 2 138.48 19.2608 15.7667
237 2 142.453 19.212 0.221581
238 2 146.154 19.1782 0.0592474
239 2 150.335 19.0949 0.194858
240 2 153.976 19.0711 15.9136
241 2 157.992 22.969 15.7814
242 2 3.80341 22.8458 15.9369
243 2 7.57222 22.9187 0.0344913
244 2 11.7786 23.0146 15.7036
245 2 15.6397 22.9278 15.7356
246 2 19.7134 23.2132 -0.00189998
247 2 23.762 23.452 15.8533
248 2 27.8038 23.3243 15.8385
249 2 31.7268 23.472 0.09442
250 2 35.7111 23.397 15.8188
251 2 39.698 23.4026 0.026703
252 2 43.6253 23.7217 16.0071
253 2 47.4485 23.532 15.7052
254 2 51.5414 23.6415 0.173836
255 2 55.8438 23.6574 15.9532
256 2 59.7765 23.6776 15.8134
257 2 63.6377 23.6082 15.8263
258 2 67.7724 23.8589 0.240373
259 2 71.7935 23.8489 0.071768
260 2 75.7843 23.8378 0.0757114
261 2 79.5775 23.9199 15.7739
262 2 83.5732 23.988 15.8681
263 2 87.5236 24.0364 0.24641
264 2 91.46 24.0236 15.7284
265 2 95.3073 24.0752 16.005
266 2 99.1367 23.7649 0.273305
267 2 103.056 23.5098 0.2043
268 2 107.181 23.534 0.192775
269 2 111.006 23.6301 0.177684
270 2 114.885 23.6164 16.0377
271 2 118.8 23.5994 15.8933
272 2 122.753 23.4753 0.0542164
273 2 126.708 23.4157 -0.0831308
274 2 130.471 23.3707 15.967
275 2 134.411 23.1884 0.113618
276 2 138.348 23.2689 15.9724
277 2 142.303 23.1971 0.244482
278 2 146.223 23.1611 -0.00612613
279 2 150.135 23.1816 0.0423926
280 2 154.088 23.0725 0.0632345
281 2 158.042 26.8399 0.0632101
282 2 3.77847 26.9202 15.6662
283 2 7.81866 26.9586 0.168114
284 2 11.5176 27.1395 15.7144
285 2 15.5478 26.8965 15.6709
286 2 19.6582 27.0628 0.121615
287 2 23.6306 27.1466 0.309922
288 2 27.5948 27.3283 -0.0193636
289 2 31.7503 27.3804 15.64
290 2 35.6049 27.1609 0.024733
291 2 39.773 27.3763 0.193368
292 2 43.6064 27.509 15.9364
293 2 47.4639 27.4692 0.23001
294 2 51.633 27.5149 0.0906267
295 2 55.714 27.4748 0.263369
296 2 59.6388 27.633 0.282027
297 2 63.559 27.8145 0.218565
298 2 67.6319 27.7659 -0.0119556
299 2 71.4241 27.5991 0.173702
300 2 75.4544 27.6217 15.7866
301 2 79.496 27.8305 0.102056
302 2 83.6642 27.6979 15.839
303 2 87.5294 28.0118 0.00497448
304 2 91.5755 27.8274 16.0299
305 2 95.4921 27.8767 16.0219
306 2 99.2647 27.6626 0.168495
307 2 103.251 27.6609 0.116992
308 2 107.04 27.577 16.0279
309 2 110.924 27.514 0.195658
310 2 114.757 27.6489 15.8572
311 2 118.729 27.6562 16.0006
312 2 122.678 27.5155 0.043416
313 2 126.64 27.3967 0.0201114
314 2 130.763 27.4172 0.264015
315 2 134.448 27.206 15.9751
316 2 138.608 27.0762 0.185411
317 2 142.415 27.1455 0.10419
318 2 146.309 27.1669 0.21341
319 2 150.261 27.118 0.0435653
320 2 154.236 26.8875 15.8141
321 2 158.012 30.8446 15.9814
322 2 3.76507 31.0695 0.251445
323 2 7.64448 30.9584 -0.0683297
324 2 11.5222 30.8919 15.9604
325 2 15.6333 30.9453 0.235867
326 2 19.538 30.9541 15.9012
327 2 23.543 30.9863 15.7642
328 2 27.5994 31.2377 0.181804
329 2 31.6902 31.1187 0.126829
330 2 35.4966 31.3288 16.0993
331 2 39.7042 31.308 15.7983
332 2 43.6269 31.1826 0.192799
333 2 47.6254 31.4767 16.0442
334 2 51.6455 31.317 15.7972
335 2 55.4347 31.3003 0.378617
336 2 59.4456 31.4897 0.242485
337 2 63.6703 31.5193 16.0153
338 2 67.5515 31.758 0.174502
339 2 71.4069 31.7808 15.9033
340 2 75.3653 31.6725 0.107676
341 2 79.4447 31.6647 0.0673555
342 2 83.4449 31.7136 15.9363
343 2 87.5309 31.8032 0.18681
344 2 91.2394 31.7433 0.102023
345 2 95.4637 31.794 0.128197
346 2 99.3963 31.858 0.177472
347 2 103.25 31.7043 15.9942
348 2 107.439 31.6575 0.119003
349 2 111.169 31.6709 16.0449
350 2 114.809 31.5387 0.0461181
351 2 118.853 31.5544 15.9392
352 2 122.791 31.5557 0.245763
353 2 126.799 31.4784 0.0836839
354 2 130.752 31.5467 0.132406
355 2 134.493 31.3164 0.234174
356 2 138.426 31.3514 15.7736
357 2 142.39 31.1686 15.9938
358 2 146.552 31.1741 15.7541
359 2 150.254 31.1281 15.8052
360 2 154.283 30.9467 15.9246
361 2 158.086 34.8544 15.9814
362 2 3.6212 35.0271 0.093385
363 2 7.66392 34.9262 0.092657
364 2 11.7356 34.907 15.8966
365 2 15.497 34.7788 0.117507
366 2 19.4747 34.9792 15.867
367 2 23.4786 34.8143 15.7973
368 2 27.6058 34.9784 0.135615
369 2 31.5454 35.1362 0.220344
370 2 35.5578 34.9226 15.8051
371 2 39.4891 35.1384 0.264436
372 2 43.5736 35.3933 15.8278
373 2 47.5853 35.3639 15.8909
374 2 51.2606 35.2248 0.244149
375 2 55.4694 35.341 16.0945
376 2 59.4355 35.3696 0.257597
377 2 63.3901 35.4147 0.230816
378 2 67.384 35.7052 0.160243
379 2 71.4516 35.5666 0.133648
380 2 75.4966 35.5517 16.0186
381 2 79.4539 35.4229 15.9668
382 2 83.1877 35.476 -0.142267
383 2 87.4414 35.7969 -0.0395891
384 2 91.3478 35.772 15.9414
385 2 95.4597 35.9077 15.9412
386 2 99.3275 35.9333 0.252658
387 2 103.381 35.8646 15.8485
388 2 107.264 35.6437 0.0615364
389 2 111.11 35.7486 15.9783
390 2 114.973 35.6236 0.388234
391 2 118.959 35.5771 15.7857
392 2 122.838 35.5633 15.943
393 2 126.682 35.6131 -0.0038958
394 2 130.691 35.388 0.078151
395 2 134.416 35.3169 15.8167
396 2 138.534 35.2802 15.9197
397 2 142.636 35.1087 15.9097
398 2 146.312 35.249 16.0407
399 2 150.287 35.079 0.0372046
400 2 154.165 35.0248 0.0432837
401 2 158.022 39.0066 0.0819048
402 2 3.63735 38.8438 15.8455
403 2 7.48527 38.8118 16.0409
404 2 11.7038 38.751 0.156182
405 2 15.7782 38.9327 0.203616
406 2 19.4758 38.8581 15.8728
407 2 23.4266 38.8481 16.0757
408 2 27.3767 39.0143 0.0252075
409 2 31.5761 38.9761 15.8324
410 2 35.4676 38.854 0.0950007
411 2 39.5254 39.0856 0.146174
412 2 43.4856 39.2576 0.0874743
413 2 47.4621 39.206 0.170514
414 2 51.3603 39.2071 0.264476
415 2 55.2442 39.3524 0.278991
416 2 59.3541 39.417 0.168907
417 2 63.2482 39.3504 16.0356
418 2 67.2853 39.6072 0.425457
419 2 71.3412 39.417 0.0182691
420 2 75.4429 39.6063 0.211895
421 2 79.3095 39.7308 15.7851
422 2 83.3169 39.4765 15.8517
423 2 87.1888 39.6265 15.5611
424 2 91.2489 39.6499 15.917
425 2 95.4086 39.6675 15.9513
426 2 99.2965 39.855 0.13221
427 2 103.362 39.6692 0.0651955
428 2 107.323 39.6394 15.9126
429 2 111.024 39.6509 15.9501
430 2 115.081 39.5187 16.0979
431 2 118.973 39.3371 15.8065
432 2 123.003 39.4232 0.190984
433 2 126.81 39.3481 15.9171
434 2 130.542 39.4319 0.154062
435 2 134.648 39.2094 0.163881
436 2 138.535 39.1953 15.8544
437 2 142.425 39.2391 15.6892
438 2 146.502 39.0389 0.132692
439 2 150.492 39.0904 15.8015
440 2 154.339 39.0934 0.266156
441 2 158.217 42.9017 0.146884
442 2 4.04949 42.8142 0.0817553
443 2 7.57302 42.8254 0.272991
444 2 11.5732 43.0551 -0.0692266
445 2 15.5414 42.7929 0.195505
446 2 19.4208 42.7441 15.9328
447 2 23.6145 42.8244 -0.102143
448 2 27.4184 42.7979 0.128628
449 2 31.3323 43.0975 -0.112641
450 2 35.1291 42.9735 -0.121885
451 2 39.3345 43.0582 0.0111304
452 2 43.3907 43.1853 -0.0152116
453 2 47.4632 43.1506 0.148133
454 2 51.3507 43.1982 0.187426
455 2 55.3023 43.1222 0.218481
456 2 59.4064 43.334 0.129955
457 2 63.2161 43.4404 0.19398
458 2 67.2408 43.4123 16.0011
459 2 71.1759 43.2961 15.9138
460 2 75.2107 43.3933 0.138057
461 2 79.1582 43.6581 0.216849
462 2 83.1511 43.4629 15.9812
463 2 87.233 43.3804 15.9686
464 2 91.3615 43.7629 15.86
465 2 95.4191 43.5195 0.340499
466 2 99.4273 43.7729 0.186581
467 2 103.364 43.574 0.316777
468 2 107.205 43.6034 0.30706
469 2 111.442 43.6488 15.9165
470 2 115.24 43.5377 15.9678
471 2 119.07 43.4369 0.153879
472 2 122.805 43.3843 0.231379
473 2 126.719 43.392 0.0751104
474 2 130.874 43.2925 0.281576
475 2 134.634 43.2279 16.0329
476 2 138.511 43.2056 15.8267
477 2 142.6 43.1793 16.0848
478 2 146.185 43.1595 16.0536
479 2 150.237 43.0757 0.0539082
480 2 154.422 43.1446 16.0279
481 2 158.292 46.9017 15.7722
482 2 3.76716 46.9547 15.6923
483 2 7.84409 46.9675 15.7392
484 2 11.6796 47.0844 15.7216
485 2 15.5995 46.8764 0.011161
486 2 19.2096 46.7973 15.8618
487 2 23.1725 46.5392 0.112813
488 2 27.2544 46.7325 -0.140405
489 2 31.3155 46.7874 0.307822
490 2 35.1363 47.1894 0.110383
491 2 39.1341 46.9215 0.186071
492 2 43.0629 47.0425 0.10576
493 2 47.1822 47.0524 15.9046
494 2 51.2006 47.1764 16.0021
495 2 55.2575 47.248 0.254599
496 2 59.2689 47.2899 15.9573
497 2 62.9882 47.4352 0.242164
498 2 67.2106 47.3695 0.0277852
499 2 71.2505 47.2046 0.279215
500 2 75.1962 47.4558 15.9382
501 2 79.1888 47.5168 16.1583
502 2 83.3254 47.3641 0.0997667
503 2 87.2331 47.3738 0.154228
504 2 91.1707 47.3865 15.8982
505 2 95.2703 47.3845 0.0219117
506 2 99.2954 47.6658 0.100194
507 2 103.372 47.4913 15.9419
508 2 107.157 47.5554 0.303594
509 2 111.251 47.5777 15.8322
510 2 115.151 47.786 15.6886
511 2 119.121 47.5726 0.150108
512 2 122.835 47.4618 0.0442748
513 2 126.955 47.4218 0.204491
514 2 130.9 47.3326 -0.00113304
515 2 134.829 47.3244 16.0291
516 2 138.719 47.1779 0.109232
517 2 142.478 47.1838 15.8773
518 2 146.476 46.9989 0.283884
519 2 150.389 47.0878 16.0582
520 2 154.269 47.028 0.201952
521 2 158.226 51.2544 -0.00550844
522 2 3.78328 51.1978 0.226914
523 2 7.84695 51.0519 0.211765
524 2 11.6993 50.8889 15.9493
525 2 15.4279 50.7563 0.127126
526 2 19.4692 50.7716 0.0416969
527 2 23.1656 50.6991 -0.0701937
528 2 27.3282 50.8578 15.6048
529 2 31.1904 50.6884 15.8605
530 2 35.2514 50.725 -0.0616644
531 2 39.3084 50.9252 15.9238
532 2 43.2902 51.0015 0.0293478
533 2 47.0354 50.8556 0.0778007
534 2 51.2064 51.1522 16.1477
535 2 55.3392 51.1008 15.9779
536 2 59.1894 51.1457 15.7545
537 2 63.0398 51.2132 0.345714
538 2 67.0156 51.1978 0.0622989
539 2 71.0184 51.1049 16.0271
540 2 75.2171 51.2348 0.035765
541 2 79.1826 51.5069 15.9013
542 2 83.0865 51.3744 15.8207
543 2 87.3664 51.1847 15.9981
544 2 91.1633 51.4355 0.506313
545 2 95.3054 51.1251 0.197215
546 2 99.1515 51.5084 15.9669
547 2 103.072 51.303 0.12263
548 2 107.205 51.3171 15.8603
549 2 111.099 51.5466 0.219681
550 2 115.332 51.48 0.25956
551 2 119.142 51.496 0.0858508
552 2 122.919 51.3483 0.157209
553 2 127.128 51.547 15.9269
554 2 130.836 51.49 0.199443
555 2 134.806 51.2071 16.0306
556 2 138.588 51.2226 0.266008
557 2 142.771 51.047 15.8931
558 2 146.556 51.0094 16.0224
559 2 150.582 51.0641 0.156977
560 2 154.479 51.2839 0.20153
561 2 158.115 55.1988 0.143231
562 2 3.75048 55.1803 0.136783
563 2 7.6693 55.0136 0.105391
564 2 11.4801 55.1466 15.8625
565 2 15.713 54.7817 15.8555
566 2 19.518 54.7612 15.8568
567 2 23.2959 54.6686 15.8194
568 2 27.2284 54.684 15.8714
569 2 31.21 54.6697 -0.0108506
570 2 35.1363 54.5763 15.9154
571 2 39.1333 54.7266 0.128333
572 2 43.3712 54.9213 16.0332
573 2 47.1959 54.931 15.7775
574 2 51.2215 54.959 15.8014
575 2 54.9101 55.1031 0.166927
576 2 59.0489 55.0456 0.274745
577 2 63.2347 55.0196 16.138
578 2 67.2068 55.034 0.158659
579 2 71.2083 54.8887 15.771
580 2 75.1741 55.0381 16.032
581 2 79.216 55.2351 15.8745
582 2 82.9629 55.2715 15.7696
583 2 87.1595 55.4656 0.20436
584 2 91.3786 55.4888 0.146298
585 2 95.2008 55.3029 0.127055
586 2 99.1414 55.3406 15.7842
587 2 103.335 55.3549 0.204021
588 2 107.128 55.4306 0.18035
589 2 111.327 55.5715 16.1537
590 2 115.26 55.5013 0.0401485
591 2 119.188 55.6636 0.0422321
592 2 123.202 55.5696 0.149234
593 2 126.98 55.4478 15.836
594 2 131.079 55.4616 15.9631
595 2 134.889 55.2438 15.9511
596 2 138.82 55.3335 0.141556
597 2 142.797 55.095 0.0883542
598 2 146.623 55.0776 15.9098
599 2 150.472 55.1039 16.0752
600 2 154.34 55.1488 0.0643031
601 2 0.0427385 59.1554 0.108386
602 2 4.10965 58.9364 0.263969
603 2 7.89623 58.9911 0.0211336
604 2 11.623 58.8746 15.8755
605 2 15.5658 58.7526 0.197959
606 2 19.4903 58.8553 15.9271
607 2 23.3358 58.6419 15.9123
608 2 27.4024 58.8273 0.242394
609 2 31.3034 58.7173 16.2453
610 2 35.1257 58.6423 0.12974
611 2 39.0283 58.5896 0.305045
612 2 43.0331 58.7187 15.9012
613 2 47.1377 58.8533 0.144256
614 2 51.1593 58.632 15.8788
615 2 55.1199 58.9256 15.8423
616 2 58.8992 58.8724 16.1222
617 2 63.0389 58.9975 0.112607
618 2 67.0532 59.0693 15.9945
619 2 71.1396 59.2123 0.144255
620 2 75.1236 59.1432 -0.0935238
621 2 79.1996 59.0866 15.8285
622 2 83.2084 59.0848 15.9762
623 2 87.1445 59.3583 0.0394127
624 2 91.2412 59.2744 0.273182
625 2 95.0872 59.143 0.338625
626 2 99.1385 59.5055 16.0823
627 2 103.039 59.3408 0.254544
628 2 107.242 59.4118 0.260206
629 2 111.1 59.5188 0.233811
630 2 115.132 59.4006 0.178233
631 2 119.026 59.6474 0.261283
632 2 123.184 59.4131 0.209304
633 2 127.223 59.3599 0.0745031
634 2 131.152 59.5014 15.7906
635 2 135.133 59.2755 0.253092
636 2 138.984 59.2932 0.28586
637 2 142.654 59.0968 15.9203
638 2 146.673 59.0787 0.340054
639 2 150.646 59.2611 -0.0337384
640 2 154.516 59.1528 0.15409
641 2 -0.129549 63.2757 15.9032
642 2 3.9284 62.9444 15.9195
643 2 8.01302 62.8912 0.202764
644 2 11.8831 62.7902 0.408428
645 2 15.6098 62.9572 15.8476
646 2 19.5719 62.9487 15.8509
647 2 23.4874 62.778 15.7726
648 2 27.3792 62.8801 0.0778805
649 2 31.3564 62.7531 15.9733
650 2 35.2107 62.858 15.9223
651 2 38.9456 62.6718 0.180058
652 2 43.085 62.6308 0.156703
653 2 47.1449 62.613 15.8542
654 2 51.1583 62.8532 0.12257
655 2 55.0822 62.9172 0.0860211
656 2 58.991 63.0407 0.245417
657 2 63.1997 63.0352 0.137604
658 2 66.9995 62.7924 0.226983
659 2 71.0122 63.1292 0.234661
660 2 75.1293 62.917 16.0274
661 2 79.1735 63.0106 15.9372
662 2 83.1335 63.0627 15.9623
663 2 87.0597 62.9069 0.114025
664 2 91.1494 63.1522 15.8967
665 2 95.128 63.2073 0.063155
666 2 99.0002 63.3925 0.342196
667 2 102.984 63.2315 0.249654
668 2 107.193 63.2064 0.252122
669 2 111.193 63.272 0.161109
670 2 115.091 63.5277 0.282495
671 2 119.098 63.6313 15.9526
672 2 123.223 63.4646 16.0083
673 2 127.149 63.2969 15.7668
674 2 131.042 63.4221 0.196992
675 2 134.929 63.25 15.9239
676 2 138.675 63.2996 0.21976
677 2 142.69 63.3538 0.280545
678 2 146.697 63.0046 0.177911
679 2 150.63 63.2828 15.796
680 2 154.429 63.0075 15.9771
681 2 0.0337895 67.0062 0.368854
682 2 3.94501 67.0281 0.0745221
683 2 7.75938 66.8414 0.167149
684 2 11.8818 66.9534 16.1771
685 2 15.8726 66.7735 15.9655
686 2 19.6222 66.8101 16.0315
687 2 23.5311 66.9226 15.843
688 2 27.3028 66.7469 15.8095
689 2 31.3978 66.7527 0.199879
690 2 35.1623 66.8138 0.545194
691 2 39.2186 66.6322 0.116297
692 2 43.1213 66.7134 15.7316
693 2 46.9084 66.4698 0.14038
694 2 50.9157 66.6947 15.9709
695 2 54.9393 66.8414 15.8673
696 2 59.0329 66.8113 15.8739
697 2 63.137 66.8852 15.834
698 2 67.0184 66.8664 15.9778
699 2 70.958 66.7591 0.129387
700 2 75.0523 66.9688 0.115319
701 2 78.9664 66.7726 16.0801
702 2 83.1589 66.8409 16.0966
703 2 87.1808 67.011 15.8757
704 2 91.0654 66.9902 0.0519778
705 2 95.0545 67.1188 15.9618
706 2 99.0131 67.136 15.7662
707 2 103.024 67.309 0.270849
708 2 106.938 67.0296 15.901
709 2 111.158 67.141 0.326402
710 2 115.015 67.3022 0.30999
711 2 119.143 67.36 0.243854
712 2 123.047 67.4112 15.8638
713 2 127.197 67.3251 15.8496
714 2 131.147 67.2619 15.934
715 2 134.701 67.1556 15.9032
716 2 138.965 67.2198 15.9196
717 2 142.893 67.0847 16.0514
718 2 146.67 67.2751 0.238695
719 2 150.541 67.1438 16.0778
720 2 154.437 67.0619 15.8208
721 2 0.00939966 70.9777 16.1617
722 2 4.00392 71.0613 15.9848
723 2 7.81943 70.7514 0.126936
724 2 11.8705 70.9288 15.9839
725 2 15.8924 70.9879 15.735
726 2 19.6537 70.8552 0.0410886
727 2 23.5417 70.8548 15.9412
728 2 27.7243 70.7952 15.9054
729 2 31.4632 70.825 15.9875
730 2 35.2474 70.8544 16.0511
731 2 39.2979 70.7964 15.7703
732 2 43.1099 70.5644 0.132059
733 2 47.1323 70.7303 15.8341
734 2 51.0951 70.6372 15.9666
735 2 54.8475 70.585 15.8974
736 2 58.9565 70.6361 0.317718
737 2 63.1162 70.8692 15.8669
738 2 67.0365 70.857 0.0116589
739 2 70.9544 70.7396 16.0327
740 2 74.9293 70.7815 16.0276
741 2 79.2243 70.7154 15.9393
742 2 83.1466 70.9089 0.124801
743 2 86.9578 71.0991 15.9905
744 2 90.9805 70.972 0.186025
745 2 95.158 71.0344 0.24271
746 2 98.866 71.1027 15.6945
747 2 103.098 71.0933 0.13919
748 2 106.948 71.2252 0.0527049
749 2 110.899 71.2279 15.9782
750 2 115.036 71.2718 0.166729
751 2 119.179 71.3538 15.9288
752 2 123.195 71.2824 0.29523
753 2 127.042 71.1574 15.8613
754 2 131.083 71.3999 16.0823
755 2 135.083 71.2998 15.9095
756 2 138.953 71.2266 15.8774
757 2 142.811 71.2391 16.3431
758 2 146.602 71.0262 16.03
759 2 150.626 71.1492 15.9809
760 2 154.518 71.0244 16.0047
761 2 0.16782 74.9324 15.9346
762 2 4.1229 75.1273 16.0569
763 2 8.02509 74.9959 15.83
764 2 11.8427 74.9551 15.9744
765 2 15.7688 75.0371 15.6944
766 2 19.7902 74.9203 15.9071
767 2 23.5214 74.8722 15.9895
768 2 27.3846 74.7641 16.0372
769 2 31.2099 74.8741 0.0336572
770 2 35.2705 74.7521 15.818
771 2 39.2086 74.7509 15.9983
772 2 43.1418 74.6548 0.0772411
773 2 47.2508 74.5989 16.2247
774 2 51.1446 74.7056 0.300816
775 2 55.0239 74.6286 15.9178
776 2 59.0885 74.5347 15.8793
777 2 63.1032 74.7131 15.9355
778 2 66.9949 74.7186 15.837
779 2 71.062 74.6965 15.7853
780 2 75.13 74.6384 0.240312
781 2 79.0201 74.5783 15.8992
782 2 82.9696 74.9326 16.1052
783 2 87.0605 74.8408 16.0011
784 2 90.9124 74.782 0.0612048
785 2 95.0355 74.9276 15.801
786 2 98.9453 74.8176 0.202063
787 2 103.01 75.0301 15.9018
788 2 107.089 75.0087 0.132402
789 2 110.983 74.9165 15.9534
790 2 114.926 75.1903 0.0121616
791 2 119.007 74.9904 15.9279
792 2 123.144 75.1577 16.0092
793 2 126.987 75.0743 0.441618
794 2 131.074 75.1354 0.4348
795 2 135.125 75.2785 15.9192
796 2 138.833 75.163 15.9288
797 2 142.804 75.1541 0.275496
798 2 146.684 75.1788 15.946
799 2 150.706 74.9554 15.9542
800 2 154.629 75.2339 0.456273
801 2 0.169001 79.0619 15.8708
802 2 4.06708 78.9081 15.7984
803 2 7.95912 78.9471 15.8241
804 2 11.8811 79.0737 15.8057
805 2 15.8822 79.0959 15.9391
806 2 19.8359 79.0223 15.918
807 2 23.4793 78.9137 15.9616
808 2 27.4978 78.9321 15.957
809 2 31.349 78.7934 0.0136129
810 2 35.3578 78.6537 15.8458
811 2 39.2416 78.7172 0.0850144
812 2 43.3619 78.745 0.074427
813 2 47.1691 78.4087 0.146273
814 2 51.1159 78.5058 15.8382
815 2 55.0209 78.5704 15.8688
816 2 59.0553 78.5536 15.9645
817 2 62.9874 78.5973 16.0466
818 2 66.7791 78.3776 16.0637
819 2 70.7468 78.4787 15.8124
820 2 74.9967 78.6061 15.9748
821 2 79.0936 78.7784 0.0639595
822 2 82.8974 78.6099 0.324501
823 2 87.0697 78.8348 0.155543
824 2 90.8078 78.8486 0.0825319
825 2 94.7665 78.7839 0.358015
826 2 98.8492 78.8573 15.9867
827 2 102.874 78.9496 0.162062
828 2 107.085 78.9055 15.8534
829 2 111.08 79.0218 0.244729
830 2 114.982 78.9974 15.8867
831 2 119.103 79.1068 0.0799994
832 2 123.023 78.9794 0.209939
833 2 126.971 79.2197 16.2248
834 2 130.949 79.1045 0.405123
835 2 134.975 79.1182 16.1013
836 2 139.109 79.2119 16.0526
837 2 142.751 79.0311 16.1129
838 2 146.801 79.0398 16.0589
839 2 150.628 78.8447 15.9717
840 2 154.572 79.0756 15.9043
841 2 0.367644 83.0152 15.9048
842 2 4.10893 83.0557 15.9601
843 2 7.94941 83.0247 16.0037
844 2 11.9026 83.1115 15.8502
845 2 16.0362 82.9003 16.0298
846 2 19.7825 82.8828 15.8812
847 2 23.6547 82.9352 16.0898
848 2 27.5764 82.7116 15.8154
849 2 31.6302 82.874 16.0326
850 2 35.4655 82.7031 15.9841
851 2 39.3832 82.7031 0.204635
852 2 43.2453 82.5398 15.9659
853 2 47.09 82.5323 15.9094
854 2 51.1494 82.505 15.9213
855 2 55.1538 82.571 16.0633
856 2 58.9745 82.4995 15.9649
857 2 63.0859 82.6243 15.9422
858 2 66.8697 82.6261 0.362138
859 2 70.9535 82.4813 0.141492
860 2 74.8357 82.4981 16.1556
861 2 78.8667 82.7102 0.279807
862 2 82.8248 82.7714 16.0584
863 2 86.9198 82.5825 16.1191
864 2 90.9071 82.7638 0.0273788
865 2 94.9985 82.7381 15.867
866 2 98.5178 82.858 15.9564
867 2 102.932 82.9386 0.320284
868 2 106.993 82.9598 0.146636
869 2 110.845 82.9197 16.1166
870 2 114.823 82.8228 15.851
871 2 118.753 82.8662 0.0688135
872 2 122.982 82.9638 15.8914
873 2 127.129 83.0719 0.276307
874 2 131.008 82.9237 16.0363
875 2 135.043 83.0444 0.351621
876 2 138.937 83.1151 15.8218
877 2 143.03 83.1861 0.063753
878 2 146.627 83.145 0.180347
879 2 150.644 83.3455 15.981
880 2 154.589 82.9619 16.0536
881 2 0.263298 86.9683 15.7858
882 2 4.19517 87.1178 0.330832
883 2 8.11368 87.021 15.8593
884 2 12.0333 87.0031 15.9422
885 2 15.916 86.8725 0.278005
886 2 19.8006 86.9345 15.8484
887 2 23.6244 86.766 16.016
888 2 27.5159 86.7944 15.9539
889 2 31.6598 86.8687 15.9373
890 2 35.4085 87.0238 15.8666
891 2 39.2732 86.7475 15.9486
892 2 43.3004 86.688 15.8115
893 2 47.241 86.5678 0.178962
894 2 51.3019 86.7476 0.310524
895 2 55.04 86.4815 0.050733
896 2 59.0546 86.4934 15.7873
897 2 63.1399 86.4417 15.9195
898 2 66.9951 86.4196 0.134543
899 2 71.0048 86.35 0.130493
900 2 75.0802 86.4825 15.9348
901 2 78.8113 86.4309 0.258695
902 2 82.8715 86.4965 0.327137
903 2 86.8432 86.5848 16.1202
904 2 90.9013 86.7174 0.15968
905 2 95.013 86.8276 15.9684
906 2 98.7906 86.6603 15.737
907 2 102.807 86.8017 0.311675
908 2 106.891 86.8024 0.112826
909 2 110.963 86.9673 15.8644
910 2 114.879 86.7068 0.161308
911 2 118.976 86.8271 0.0609775
912 2 122.934 86.838 0.352299
913 2 126.964 86.9637 15.9783
914 2 130.987 87.1169 0.149534
915 2 135.115 86.9595 15.9418
916 2 139.082 87.0078 0.229894
917 2 143.058 87.17 0.199939
918 2 146.919 87.0557 0.296705
919 2 150.785 87.1835 15.9033
920 2 154.663 87.1587 16.134
921 2 0.427234 91.1906 15.8022
922 2 4.32936 90.9935 0.361702
923 2 8.22951 90.9453 0.360104
924 2 12.0659 90.985 0.308926
925 2 15.9534 90.8651 16.0336
926 2 19.8698 90.7855 16.133
927 2 23.7705 90.8358 16.079
928 2 27.823 90.9523 15.7719
929 2 31.5255 90.6509 16.0341
930 2 35.5754 90.8323 15.7735
931 2 39.5213 90.8541 16.1096
932 2 43.2235 90.6102 0.246299
933 2 47.12 90.6917 15.8776
934 2 51.0536 90.6533 15.8879
935 2 55.1709 90.6469 15.8322
936 2 59.1543 90.3543 15.8544
937 2 63.061 90.333 0.129297
938 2 67.0798 90.5444 15.679
939 2 70.9105 90.531 15.8946
940 2 74.9835 90.3266 16.001
941 2 78.8506 90.3424 0.251516
942 2 82.7158 90.1669 0.1901
943 2 86.8586 90.4559 15.9372
944 2 90.8886 90.6444 -0.00997211
945 2 94.904 90.7488 -0.0930095
946 2 98.7254 90.4783 0.0233283
947 2 102.714 90.7406 -0.000473807
948 2 106.81 90.7607 0.171212
949 2 110.926 90.7335 15.9457
950 2 114.805 90.6031 0.204513
951 2 118.719 90.8576 0.118722
952 2 122.641 90.8809 0.185526
953 2 126.758 90.7565 0.0534242
954 2 130.817 91.004 16.1305
955 2 134.653 91.1359 0.28779
956 2 138.869 90.9378 0.196929
957 2 142.931 91.1277 0.287037
958 2 146.795 91.0888 0.146943
959 2 150.799 90.853 16.0204
960 2 154.747 91.1033 -0.0661433
961 2 0.490882 94.8519 15.7799
962 2 4.42287 95.0861 15.9155
963 2 8.24227 94.9711 -0.0574533
964 2 12.1441 94.7951 15.9467
965 2 15.8976 94.8636 15.9481
966 2 19.782 94.7327 16.0487
967 2 23.8833 94.8211 16.0532
968 2 27.7219 94.7567 15.7904
969 2 31.7291 94.7608 15.8416
970 2 35.5265 94.7134 0.206081
971 2 39.7331 94.617 16.0005
972 2 43.5749 94.5123 15.884
973 2 47.2843 94.4359 15.922
974 2 51.1285 94.6365 0.375048
975 2 55.2456 94.5891 15.8184
976 2 59.0612 94.4843 15.864
977 2 63.0097 94.4059 15.997
978 2 66.9909 94.2723 0.22098
979 2 70.9059 94.2152 0.277399