ITEM: TIMESTEP
17200
ITEM: NUMBER OF ATOMS
32000
ITEM: BOX BOUNDS xy xz yz pp pp pp
0.0000000000000000e+00 1.5831999999999999e+02 0.0000000000000000e+00
0.0000000000000000e+00 1.5831999999999999e+02 0.0000000000000000e+00
1.6394458620764585e-01 1.5933767413792152e+01 0.0000000000000000e+00
ITEM: ATOMS id type x y z
1 2 158.258 157.934 15.6095
2 2 3.95214 157.874 0.106946
3 2 7.77136 157.969 0.324631
4 2 12.1267 157.97 15.817
5 2 15.869 158.083 0.30943
6 2 19.6996 158.029 -0.0299608
7 2 23.8311 158.064 15.864
8 2 28.004 158.275 0.0470549
9 2 31.9968 158.223 15.7514
10 2 36.0268 158.31 -0.0354904
11 2 39.945 158.316 0.0866428
12 2 43.8732 158.23 15.8443
13 2 48.0651 -0.146066 15.9714
14 2 51.9264 0.0275058 16.1013
15 2 55.8308 158.573 16.0291
16 2 59.8774 0.070156 15.9693
17 2 63.8887 0.0353544 0.0472705
18 2 67.8627 0.250125 -0.041309
19 2 71.6846 158.305 15.7637
20 2 75.6009 158.436 15.8177
21 2 79.4806 158.496 16.0659
22 2 83.2761 158.213 0.0594992
23 2 87.4666 158.26 0.148133
24 2 91.4527 158.368 0.02086
25 2 95.1185 158.32 0.198042
26 2 98.9464 158.104 0.0350713
27 2 102.897 157.949 0.132819
28 2 106.857 158.092 15.785
29 2 110.684 157.611 0.153211
30 2 114.623 157.762 0.231407
31 2 118.604 157.937 -0.0504198
32 2 122.259 157.827 15.9423
33 2 126.384 157.657 15.9971
34 2 130.481 157.85 15.913
35 2 134.418 157.696 15.8717
36 2 138.474 157.613 15.9548
37 2 142.316 157.656 15.9462
38 2 146.219 157.721 15.9549
39 2 150.002 157.727 15.8821
40 2 154.107 157.808 15.8859
41 2 158.091 3.50035 -0.0334154
42 2 3.91242 3.72079 15.8234
43 2 7.88159 3.45466 0.136528
44 2 11.8051 3.62269 -0.00565851
45 2 15.8108 3.53668 0.138868
46 2 19.964 3.60347 16.0575
47 2 23.9201 3.76849 0.130606
48 2 28.0147 3.89069 0.206953
49 2 31.8662 3.80746 0.318029
50 2 35.9258 3.82804 0.2091
51 2 39.8931 3.9692 0.109494
52 2 44.024 3.96278 0.094891
53 2 47.8298 4.22667 15.9873
54 2 52.0101 3.98503 0.0817774
55 2 55.8909 4.06347 0.0487198
56 2 60.004 3.82219 0.186158
57 2 63.9086 3.92594 16.0713
58 2 67.8503 4.15781 0.0358917
59 2 71.7038 4.05495 0.167141
60 2 75.633 4.25684 0.00197755
61 2 79.4662 4.04597 0.236276
62 2 83.403 3.83511 0.0449524
63 2 87.2923 3.93541 0.0975555
64 2 91.2477 3.7817 0.195988
65 2 95.2407 3.74067 15.9004
66 2 99.2555 3.85086 0.13475
67 2 103.179 3.84176 0.0761049
68 2 106.898 3.6688 15.9656
69 2 110.931 3.71573 15.9375
70 2 114.699 3.58576 16.0463
71 2 118.577 3.66426 16.1059
72 2 122.416 3.39955 0.259107
73 2 126.319 3.34999 15.8927
74 2 130.412 3.32293 0.316902
75 2 134.342 3.4665 15.9284
76 2 138.392 3.16172 0.00566962
77 2 142.199 3.44001 15.7497
78 2 146.162 3.31309 0.293737
79 2 150.12 3.37778 15.9923
80 2 154.02 3.52577 15.883
81 2 158.158 7.42103 0.0310449
82 2 3.74899 7.26489 15.8815
83 2 7.96195 7.42035 15.9156
84 2 11.8007 7.33938 15.8323
85 2 15.8175 7.42471 0.157355
86 2 19.7771 7.47156 15.9634
87 2 23.7595 7.67847 0.235702
88 2 27.9103 7.73604 0.115701
89 2 31.9389 7.71801 15.8983
90 2 35.8979 7.84176 15.8291
91 2 39.9505 7.89271 15.9181
92 2 43.8545 7.84462 15.9484
93 2 47.8321 7.96445 0.13752
94 2 51.9467 7.99488 16.0383
95 2 55.9544 7.94099 0.362753
96 2 60.0124 8.05406 0.0855614
97 2 63.7175 7.95862 0.353087
98 2 67.9057 7.9968 0.100303
99 2 71.8462 8.02491 0.00398209
100 2 75.8555 7.85846 0.137501
101 2 79.3774 8.12796 16.0677
102 2 83.6241 7.83707 0.227733
103 2 87.208 8.01514 15.915
104 2 91.3178 7.83271 0.0989301
105 2 95.2007 7.88555 0.173199
106 2 99.2224 7.81391 0.361769
107 2 103.004 7.86371 0.0892331
108 2 106.943 7.54585 0.0581798
109 2 110.511 7.51872 0.254354
110 2 114.607 7.53801 0.200677
111 2 118.452 7.62289 0.353948
112 2 122.564 7.52398 0.182954
113 2 126.508 7.34681 15.8244
114 2 130.344 7.42665 -0.0501466
115 2 134.194 7.23508 0.141668
116 2 138.308 7.2863 15.9406
117 2 141.993 7.22737 15.889
118 2 146.149 7.06445 0.189858
119 2 150.151 7.12092 15.9774
120 2 154.192 7.38108 15.8982
121 2 158.075 11.3358 -0.0694251
122 2 3.60944 11.3665 0.0548549
123 2 7.78066 11.2493 15.7357
124 2 11.9011 11.3345 15.9893
125 2 15.7884 11.2715 15.9883
126 2 19.9025 11.2657 0.160966
127 2 23.6916 11.5739 0.262704
128 2 27.9633 11.6151 0.177631
129 2 31.9705 11.5571 0.196255
130 2 35.7135 11.6421 0.000236377
131 2 39.7741 11.7067 0.278303
132 2 43.6447 11.4935 15.9684
133 2 47.7158 11.8997 15.9164
134 2 51.7979 11.8229 15.829
135 2 55.8854 11.9282 0.138792
136 2 59.8893 11.8261 15.8919
137 2 63.9552 11.9745 0.187884
138 2 67.8546 12.032 15.9778
139 2 71.6686 11.7719 0.0487351
140 2 75.8551 11.9997 -0.0508903
141 2 79.5961 11.9659 0.0793462
142 2 83.4935 11.8647 0.20126
143 2 87.4282 11.8885 0.163318
144 2 91.254 11.8508 -0.185463
145 2 95.094 11.7554 0.092131
146 2 99.127 11.799 0.0841974
147 2 103.059 11.6806 0.129289
148 2 106.887 11.6297 0.184568
149 2 110.93 11.4791 0.203695
150 2 114.771 11.6058 0.257965
151 2 118.663 11.2597 0.220913
152 2 122.735 11.4683 0.00422483
153 2 126.669 11.5435 0.0615339
154 2 130.564 11.3123 15.7989
155 2 134.377 11.2089 0.0289937
156 2 138.176 11.2783 0.139903
157 2 142.249 11.1979 15.8956
158 2 146.073 11.1072 15.9882
159 2 149.977 11.2913 15.9345
160 2 153.965 11.132 15.8468
161 2 157.994 15.1374 0.0144289
162 2 3.84911 15.2803 0.117559
163 2 7.893 15.4521 0.0696726
164 2 11.8279 15.2359 15.8434
165 2 15.9537 15.3734 16.0144
166 2 20.0041 15.266 0.186037
167 2 23.842 15.503 0.177545
168 2 27.7863 15.5791 15.8133
169 2 31.8521 15.5579 15.805
170 2 35.7912 15.4318 0.183875
171 2 39.6736 15.5568 15.6754
172 2 43.6647 15.7019 0.0392026
173 2 47.6239 15.8645 0.0882336
174 2 51.7066 15.5966 0.170804
175 2 55.6552 15.9949 16.021
176 2 59.8636 16.0499 0.182688
177 2 63.7009 15.8329 0.142122
178 2 67.7375 15.918 0.142237
179 2 71.7292 15.7848 -0.0347806
180 2 75.587 15.9249 15.8595
181 2 79.5252 15.8577 0.333453
182 2 83.5519 16.0185 0.236701
183 2 87.4417 15.9007 0.383273
184 2 91.1396 15.8057 0.481704
185 2 95.237 15.8683 0.372885
186 2 99.0197 15.8246 0.263628
187 2 103.17 15.661 0.0640187
188 2 107.009 15.7684 0.214733
189 2 110.919 15.4191 0.139604
190 2 115.123 15.5431 0.09521
191 2 118.766 15.4746 0.296294
192 2 122.641 15.4391 15.7625
193 2 126.618 15.2486 0.185624
194 2 130.397 15.3451 0.261153
195 2 134.24 15.5624 0.176296
196 2 138.26 15.3835 0.136222
197 2 142.336 15.1184 0.00292818
198 2 146.271 15.1887 0.213062
199 2 150.117 15.225 15.7522
200 2 154.036 15.0666 0.166722
201 2 157.966 19.1777 15.7279
202 2 3.63685 19.0909 -0.012898
203 2 7.67599 19.2147 15.6614
204 2 11.7647 19.1886 16.0593
205 2 15.7378 19.3583 15.7541
206 2 19.7025 19.2726 0.251124
207 2 23.7879 19.4064 0.0837336
208 2 27.7887 19.297 -0.0207397
209 2 31.7345 19.42 16.0272
210 2 35.8765 19.5196 15.8873
211 2 39.6008 19.4514 -0.16348
212 2 43.6602 19.6833 15.7836
213 2 47.8423 19.5788 15.8552
214 2 51.6673 19.7355 15.8757
215 2 55.8451 19.7288 15.9834
216 2 59.828 19.7418 15.9522
217 2 63.7212 19.7813 15.8675
218 2 67.5998 19.8389 16.0969
219 2 71.546 19.9453 0.254463
220 2 75.6835 19.9314 0.0462488
221 2 79.5323 19.8534 0.205797
222 2 83.6899 19.9597 0.3659
223 2 87.4839 19.922 16.0014
224 2 91.3381 19.8639 0.149426
225 2 95.1675 19.8646 0.098527
226 2 99.1452 19.7592 16.0306
227 2 103.059 19.7879 15.7315
228 2 107.049 19.7752 16.177
229 2 111.113 19.7444 0.294121
230 2 114.742 19.6039 0.410836
231 2 118.751 19.5953 15.8759
232 2 122.551 19.4286 0.176995
233 2 126.613 19.4447 0.00846983
234 2 130.518 19.4196 0.148181
235 2 134.314 19.2836 16.0523
236 2 138.273 19.338 16.0431
237 2 142.128 19.1093 0.0763852
238 2 146.16 19.0642 0.118286
239 2 149.962 19.1774 -0.0872844
240 2 154.167 18.93 15.8443
241 2 158.1 23.0238 15.9277
242 2 3.6366 23.0803 15.6925
243 2 7.66662 22.9359 0.177387
244 2 11.515 22.9653 15.9314
245 2 15.4747 23.1961 15.7063
246 2 19.5431 23.2577 0.0564608
247 2 23.7555 23.2144 15.9732
248 2 27.6313 23.3121 15.6385
249 2 31.6232 23.3041 0.0424581
250 2 35.7353 23.2796 15.7111
251 2 39.7301 23.4211 0.11167
252 2 43.6158 23.4733 15.8924
253 2 47.7947 23.5622 15.8736
254 2 51.7076 23.3972 0.0874062
255 2 55.4703 23.6163 15.8003
256 2 59.4852 23.6559 15.9664
257 2 63.6608 24.0122 16.092
258 2 67.4268 23.8591 0.152191
259 2 71.3964 23.7658 0.176798
260 2 75.3953 23.8814 0.171392
261 2 79.5979 23.8736 15.8721
262 2 83.6748 23.9423 15.9723
263 2 87.5445 23.8344 0.135635
264 2 91.4071 23.8574 16.3071
265 2 95.3351 23.8313 16.0597
266 2 99.2423 23.7646 0.167887
267 2 103.21 23.8479 0.0604018
268 2 106.957 23.6968 0.28441
269 2 110.964 23.6287 0.177452
270 2 114.711 23.5379 15.8482
271 2 118.675 23.4189 15.922
272 2 122.69 23.4578 0.0545046
273 2 126.536 23.2798 0.189994
274 2 130.531 23.2568 15.8757
275 2 134.574 23.2924 0.162454
276 2 138.479 23.2331 15.928
277 2 142.367 23.2264 0.205149
278 2 146.34 23.1071 -0.0275736
279 2 150.271 22.9823 0.127931
280 2 154.144 22.9128 0.130838
281 2 158.202 27.0703 0.180713
282 2 3.77941 26.937 16.0032
283 2 7.49636 26.9168 0.0493813
284 2 11.5961 26.9465 15.7813
285 2 15.5887 26.9264 15.9023
286 2 19.6311 27.1274 0.0766812
287 2 23.6897 27.1173 0.0700304
288 2 27.629 27.0995 0.0291239
289 2 31.581 27.2797 16.0389
290 2 35.6605 27.4807 0.04868
291 2 39.433 27.4734 0.21398
292 2 43.5656 27.3926 16.1619
293 2 47.6761 27.5525 0.336554
294 2 51.475 27.4637 0.182728
295 2 55.4446 27.5268 0.0691834
296 2 59.5551 27.6055 0.1342
297 2 63.5471 27.5884 0.212084
298 2 67.403 27.9681 0.367466
299 2 71.4428 27.9583 0.0488276
300 2 75.5165 27.8139 16.0801
301 2 79.602 27.8138 0.220895
302 2 83.4945 27.9891 15.9638
303 2 87.5676 27.8708 0.204256
304 2 91.4345 27.9217 15.9205
305 2 95.4581 27.8622 15.8346
306 2 99.4141 27.8429 0.283633
307 2 103.169 27.6695 0.210722
308 2 107.102 27.6039 15.9136
309 2 111.004 27.663 0.124167
310 2 114.81 27.5737 15.9642
311 2 118.792 27.3045 15.9176
312 2 122.503 27.6113 0.0813407
313 2 126.602 27.3922 0.175741
314 2 130.447 27.276 -0.0298835
315 2 134.562 27.3972 16.0271
316 2 138.307 27.4183 0.0592157
317 2 142.347 27.3907 0.0428369
318 2 146.245 27.1798 0.0753462
319 2 150.205 27.1092 0.017402
320 2 153.954 27.0884 15.8936
321 2 158.119 31.0495 15.7756
322 2 3.54047 30.9363 0.225082
323 2 7.51868 31.1254 0.226056
324 2 11.4929 31.0122 15.8761
325 2 15.4921 30.8487 0.0714163
326 2 19.6135 30.9824 15.8171
327 2 23.5648 31.0971 15.772
328 2 27.5507 31.1596 -0.117375
329 2 31.5576 31.4128 -0.00621301
330 2 35.7252 31.1861 15.86
331 2 39.532 31.3484 16.1137
332 2 43.6383 31.4422 0.258547
333 2 47.4676 31.4009 16.0012
334 2 51.321 31.4045 16.0375
335 2 55.4142 31.5532 0.117415
336 2 59.269 31.5093 0.427885
337 2 63.3016 31.7081 16.0653
338 2 67.3979 31.8611 0.264556
339 2 71.4682 31.7718 15.9874
340 2 75.489 31.6514 0.0722852
341 2 79.4417 31.6579 0.231728
342 2 83.4161 31.6336 15.8787
343 2 87.3439 31.7975 -0.11078
344 2 91.58 31.8303 -0.0213
345 2 95.2085 31.7771 -0.193581
346 2 99.3958 31.8089 0.108555
347 2 103.406 31.731 15.8224
348 2 107.061 31.7465 0.136605
349 2 110.96 31.5814 15.82
350 2 114.935 31.6104 0.242062
351 2 118.674 31.5781 15.9274
352 2 122.682 31.374 0.190497
353 2 126.673 31.4377 0.275554
354 2 130.484 31.2297 0.121888
355 2 134.517 31.3889 0.105907
356 2 138.434 31.348 15.9661
357 2 142.315 31.1957 15.776
358 2 146.172 31.3208 15.8421
359 2 150.167 31.0189 15.9396
360 2 153.956 31.1106 15.7727
361 2 158.02 35.0178 16.0059
362 2 3.71635 34.8671 0.365484
363 2 7.76906 35.0034 0.183959
364 2 11.4679 34.859 15.9752
365 2 15.4179 34.9605 0.353539
366 2 19.4588 34.9285 15.8427
367 2 23.452 35.0154 15.6438
368 2 27.4415 35.2558 0.0979223
369 2 31.5852 35.1126 0.0423954
370 2 35.5764 35.3212 15.9296
371 2 39.5074 35.2426 0.27861
372 2 43.4207 35.0646 16.0658
373 2 47.3646 35.3472 16.0989
374 2 51.5264 35.4241 0.186551
375 2 55.2814 35.3966 16.1064
376 2 59.3558 35.3633 0.215317
377 2 63.4378 35.5396 0.100324
378 2 67.3778 35.6735 0.415784
379 2 71.3383 35.8583 0.259739
380 2 75.4378 35.6589 15.799
381 2 79.2648 35.8309 15.9576
382 2 83.3528 35.5733 0.136819
383 2 87.2728 35.568 -0.0638034
384 2 91.4425 35.7823 15.8796
385 2 95.2283 35.5428 15.8495
386 2 99.4203 35.7525 0.246586
387 2 103.3 35.6452 15.7942
388 2 107.199 35.7625 0.282403
389 2 111.2 35.6705 16.0757
390 2 115.069 35.5457 0.09143
391 2 118.984 35.5208 15.988
392 2 122.78 35.3149 15.9162
393 2 126.636 35.2927 0.303118
394 2 130.576 35.4852 0.0482646
395 2 134.595 35.4159 15.9653
396 2 138.545 35.2235 15.9194
397 2 142.291 35.2318 15.8014
398 2 146.344 35.0823 15.9061
399 2 150.173 35.1414 0.203463
400 2 154.166 34.9432 0.234047
401 2 158.145 38.9004 0.151293
402 2 3.60131 39.0295 15.9988
403 2 7.62952 38.9914 15.6368
404 2 11.4962 39.0565 0.185514
405 2 15.353 38.9479 0.168245
406 2 19.4985 38.8305 15.7625
407 2 23.4501 38.7509 15.6385
408 2 27.4449 38.9433 0.0378785
409 2 31.4078 39.0483 15.9914
410 2 35.447 39.2081 0.047761
411 2 39.4889 39.1938 0.24626
412 2 43.4568 39.0951 0.0694122
413 2 47.3768 39.243 0.154742
414 2 51.3898 39.2514 0.131694
415 2 55.4957 39.3213 0.151227
416 2 59.2942 39.2625 0.35311
417 2 63.1285 39.538 16.0847
418 2 67.1374 39.4938 0.216505
419 2 71.2866 39.5224 0.361975
420 2 75.2216 39.3409 0.107844
421 2 79.2453 39.4239 15.9406
422 2 83.2186 39.5888 15.8845
423 2 87.3093 39.5787 15.836
424 2 91.2678 39.5898 15.881
425 2 95.303 39.7151 15.7355
426 2 99.335 39.6003 0.182152
427 2 103.274 39.7692 0.118247
428 2 107.178 39.7088 16.035
429 2 111.104 39.7123 15.9925
430 2 115.138 39.535 15.8624
431 2 118.938 39.5586 15.9057
432 2 122.73 39.371 0.161586
433 2 126.784 39.5738 15.8625
434 2 130.725 39.3862 0.264363
435 2 134.635 39.4566 0.152224
436 2 138.512 39.2902 15.7508
437 2 142.45 39.2305 15.9339
438 2 146.297 39.2307 0.213962
439 2 150.326 39.0451 15.8968
440 2 154.302 38.947 0.180741
441 2 158.15 43.0273 0.0696453
442 2 3.68576 43.0916 0.084173
443 2 7.85639 42.9411 0.0937371
444 2 11.5692 42.6632 0.254045
445 2 15.5892 42.9348 -0.0512603
446 2 19.4277 42.8851 15.7569
447 2 23.1211 42.7225 0.192966
448 2 27.3182 42.9121 -0.0167906
449 2 31.1529 42.9183 0.360737
450 2 35.5392 43.0568 0.120532
451 2 39.4507 43.0495 0.191383
452 2 43.3029 42.9885 0.268024
453 2 47.2644 43.1286 0.195293
454 2 51.2772 43.3003 0.278371
455 2 55.2686 43.3092 0.249248
456 2 59.1609 43.3409 0.378189
457 2 63.2808 43.4956 0.264131
458 2 67.1573 43.3626 16.2377
459 2 71.2228 43.331 15.772
460 2 75.2453 43.5972 0.256332
461 2 79.219 43.4811 -0.088054
462 2 83.1265 43.5257 15.615
463 2 87.2403 43.5189 15.7943
464 2 91.1146 43.2758 15.9472
465 2 95.2129 43.6361 0.182525
466 2 99.2231 43.4974 0.141949
467 2 103.088 43.7997 0.142173
468 2 107.383 43.739 0.218334
469 2 110.926 43.8152 16.0167
470 2 115.06 43.478 15.9834
471 2 118.997 43.454 0.271046
472 2 122.942 43.4101 0.209618
473 2 126.912 43.5491 0.194702
474 2 130.546 43.4698 0.020975
475 2 134.729 43.4986 15.9658
476 2 138.515 43.3505 15.9895
477 2 142.451 43.2024 15.9306
478 2 146.568 42.9773 15.9351
479 2 150.316 43.1098 0.370973
480 2 154.154 42.876 15.8736
481 2 158.02 47.1127 15.9142
482 2 3.72741 47.0114 15.9147
483 2 7.59829 46.9833 15.6878
484 2 11.5479 46.7319 15.712
485 2 15.4705 46.7757 -0.0218613
486 2 19.5595 46.7781 15.6574
487 2 23.3613 46.9301 -0.0702663
488 2 27.0711 46.7156 0.0741651
489 2 31.3499 46.9716 -0.0402854
490 2 35.3768 46.7888 0.0185578
491 2 39.2442 47.0948 -0.0365966
492 2 43.3563 46.9389 0.12301
493 2 47.3238 47.1439 15.9845
494 2 51.3539 47.2878 15.8761
495 2 55.2573 47.0933 0.185839
496 2 59.0675 47.356 15.8735
497 2 63.2119 47.3822 0.091427
498 2 67.1346 47.3379 0.137062
499 2 71.0919 47.0879 0.00699387
500 2 75.2108 47.3057 16.1448
501 2 79.2088 47.3254 15.7034
502 2 83.0466 47.5285 -0.00909771
503 2 87.313 47.3963 0.0902421
504 2 91.242 47.4478 15.969
505 2 95.3457 47.5633 0.438744
506 2 99.2033 47.5897 0.0777788
507 2 103.138 47.5546 15.896
508 2 107.312 47.6536 0.379648
509 2 111.278 47.5745 15.8568
510 2 115.13 47.4466 15.982
511 2 118.848 47.446 0.168695
512 2 123.078 47.4459 0.388144
513 2 126.86 47.3557 0.107316
514 2 130.898 47.398 0.233122
515 2 134.802 47.1741 15.9121
516 2 138.633 47.2454 0.19872
517 2 142.772 47.1207 16.0311
518 2 146.494 47.2207 0.0459435
519 2 150.452 46.9941 16.0433
520 2 154.423 47.1167 0.0599303
521 2 158.255 51.0645 0.00942019
522 2 3.75068 51.035 0.0677531
523 2 7.61971 50.9056 -0.0730391
524 2 11.4944 51.0399 15.8977
525 2 15.6571 50.9313 0.00246086
526 2 19.3124 50.9258 -0.0223287
527 2 23.3773 50.812 0.236617
528 2 27.2231 50.7603 15.9556
529 2 31.1927 50.7674 15.8951
530 2 35.0951 50.856 0.284936
531 2 38.9996 50.8982 15.7069
532 2 43.0695 51.0069 0.140511
533 2 47.3019 51.1084 0.149221
534 2 51.1382 51.0778 15.7142
535 2 55.0818 51.163 15.9336
536 2 59.1477 51.2636 16.0984
537 2 63.2214 51.3271 0.0873268
538 2 67.2157 51.2735 0.141408
539 2 71.0893 51.3198 15.8062
540 2 75.1425 51.2462 0.24324
541 2 79.2467 51.2772 15.8541
542 2 83.2986 51.2256 15.8617
543 2 87.1077 51.3887 15.7683
544 2 91.2231 51.4584 0.0962295
545 2 95.01 51.4678 0.152241
546 2 99.2867 51.5576 16.0335
547 2 103.204 51.4394 0.3376
548 2 107.145 51.4175 16.0677
549 2 111.363 51.4775 0.0334689
550 2 115.234 51.7083 0.328364
551 2 119.324 51.7762 0.230073
552 2 123.098 51.5362 0.0512561
553 2 126.941 51.3458 15.8669
554 2 131.065 51.1929 0.130092
555 2 135 51.3195 15.939
556 2 139.012 51.2556 0.0909849
557 2 142.629 51.3761 15.9854
558 2 146.679 51.2423 15.9093
559 2 150.432 51.0063 0.116127
560 2 154.437 51.0389 -0.0963672
561 2 158.423 55.0355 0.222214
562 2 4.05478 54.9826 0.241441
563 2 7.78885 55.0022 0.0853268
564 2 11.7545 54.8946 15.7701
565 2 15.6158 54.9594 15.8453
566 2 19.4812 54.9252 15.9101
567 2 23.4251 54.9321 15.9894
568 2 27.2774 54.9627 16.0004
569 2 31.2969 54.6579 0.368891
570 2 35.1475 54.7613 15.7361
571 2 39.171 54.9155 0.215931
572 2 43.0194 54.8151 15.7515
573 2 47.2316 54.9419 16.0496
574 2 51.0908 54.9556 15.8554
575 2 55.1904 54.9691 0.320559
576 2 59.1167 55.2593 0.206301
577 2 62.9304 55.1927 15.8932
578 2 66.9031 55.2553 0.0894766
579 2 71.0917 55.3741 15.9139
580 2 75.0435 55.1926 15.7143
581 2 79.1775 55.283 15.9747
582 2 83.3304 55.1568 15.8609
583 2 87.1959 55.243 0.0827953
584 2 90.9515 55.2924 0.109693
585 2 95.1959 55.3711 0.274103
586 2 99.2084 55.5312 16.2286
587 2 103.08 55.4486 0.356187
588 2 107.163 55.2005 0.09848
589 2 111.064 55.354 15.7662
590 2 115.276 55.4978 0.255623
591 2 119.133 55.4935 0.091453
592 2 123.2 55.4332 0.0557574
593 2 127.091 55.347 15.8925
594 2 130.752 55.2235 15.9583
595 2 134.73 55.3272 16.0637
596 2 138.727 55.1668 0.314791
597 2 142.626 55.2501 0.199948
598 2 146.498 55.1153 16.0015
599 2 150.656 55.1244 15.789
600 2 154.572 55.0163 0.122556
601 2 0.0635505 59.0469 0.107663
602 2 3.79054 59.2403 0.21385
603 2 7.78324 59.0019 0.121003
604 2 11.7928 58.9366 15.9383
605 2 15.6717 58.8335 0.11747
606 2 19.5875 58.9291 15.9653
607 2 23.5978 58.9792 15.9434
608 2 27.3887 58.7205 0.066758
609 2 31.2055 58.7419 15.8215
610 2 35.1734 58.6915 0.0636963
611 2 39.0817 58.7378 -0.00693105
612 2 43.0678 58.6854 15.79
613 2 47.1124 58.7363 0.2248
614 2 51.1443 59.1234 15.991
615 2 55.0148 58.9719 15.8199
616 2 58.9848 59.1703 15.9174
617 2 62.8673 59.0606 0.205241
618 2 67.1878 59.0623 15.9304
619 2 71.1842 59.0141 0.286302
620 2 75.1261 58.9696 0.278927
621 2 79.0484 59.078 15.9389
622 2 83.0049 59.1748 15.975
623 2 87.0279 59.2956 0.150202
624 2 90.9671 59.1642 0.0569811
625 2 95.16 59.4207 0.0911545
626 2 99.1223 59.204 16.0969
627 2 103.156 59.2565 0.0846881
628 2 107.002 59.0642 0.267977
629 2 110.974 59.2307 0.0818171
630 2 115.211 59.5427 0.266925
631 2 119.257 59.5106 0.0645071
632 2 123.199 59.3621 0.0814041
633 2 127.135 59.4356 0.342707
634 2 130.872 59.1973 15.9582
635 2 134.778 59.2539 0.0754945
636 2 138.787 59.0869 0.185624
637 2 142.817 59.2167 16.0087
638 2 146.545 59.1435 0.149336
639 2 150.412 58.9993 0.38203
640 2 154.597 59.1256 0.0418716
641 2 0.0962434 63.1046 15.7607
642 2 4.0099 62.9812 16.0415
643 2 7.97055 63.026 0.194649
644 2 11.7914 62.9754 -0.0928823
645 2 15.7655 62.6865 15.9478
646 2 19.5566 62.8446 15.7445
647 2 23.4193 62.861 16.0511
648 2 27.4737 62.7698 0.103584
649 2 31.3385 62.8678 16.165
650 2 35.213 62.4472 16.0924
651 2 39.1557 62.6215 0.0379557
652 2 42.8919 62.5696 0.205363
653 2 47.0392 62.6853 16.0525
654 2 51.0316 62.6413 0.252528
655 2 55.0778 62.9123 0.217439
656 2 59.0102 62.6896 0.387945
657 2 62.9202 62.8804 0.237389
658 2 67.1501 63.0601 0.00371698
659 2 71.1483 62.9827 0.144653
660 2 75.0636 63.0187 16.0422
661 2 79.1079 62.966 16.0421
662 2 82.9937 63.0158 15.8752
663 2 87.1764 63.3258 0.195039
664 2 91.1033 63.0806 16.0493
665 2 95.0842 63.0993 0.411108
666 2 99.2124 63.0073 0.18249
667 2 103.227 63.156 0.254703
668 2 107.063 63.0973 0.121661
669 2 110.97 63.2438 0.150123
670 2 115.083 63.3294 0.237628
671 2 119.21 63.2749 15.9397
672 2 123.173 63.2803 15.8088
673 2 127.169 63.3481 15.9858
674 2 131.112 63.2247 0.0662547
675 2 135.013 63.2019 15.9969
676 2 139.076 63.2882 0.152438
677 2 142.904 62.9647 0.260494
678 2 146.612 63.1879 0.416358
679 2 150.615 63.0065 15.9925
680 2 154.618 63.2719 15.8654
681 2 0.0553754 67.1821 0.207818
682 2 3.95297 66.9816 0.0716293
683 2 7.98232 67.0306 0.0501502
684 2 11.891 66.8699 15.8357
685 2 15.7547 66.9056 15.916
686 2 19.7068 66.9115 15.8291
687 2 23.5411 66.7822 15.8981
688 2 27.5985 66.8838 16.0025
689 2 31.4174 66.887 0.271205
690 2 35.3908 66.6318 0.0641028
691 2 39.1884 66.656 0.257815
692 2 43.0856 66.4389 16.0361
693 2 47.0978 66.6485 -0.0573604
694 2 50.913 66.5191 15.8463
695 2 55.1134 66.6057 16.1632
696 2 58.9849 66.796 16.0062
697 2 62.9702 66.9475 15.9698
698 2 67.0313 67.0665 15.7514
699 2 71.0301 66.9986 0.16134
700 2 75.0161 66.7571 0.268361
701 2 78.9847 67.015 15.8693
702 2 83.0244 67.1447 15.9763
703 2 86.9941 67.1479 15.913
704 2 91.1463 66.9753 0.089543
705 2 95.1562 66.9552 15.9538
706 2 99.1449 67.0778 16.1214
707 2 103.12 67.0882 0.0908873
708 2 107.043 67.31 16.0812
709 2 110.946 67.2723 0.157026
710 2 115.055 67.4321 0.193408
711 2 118.966 67.216 0.115409
712 2 123.232 67.328 15.9201
713 2 127.028 67.3419 15.7967
714 2 130.894 67.4454 15.7718
715 2 135.212 67.263 15.8483
716 2 138.705 67.2145 15.9914
717 2 142.733 67.1447 15.9684
718 2 146.724 67.2323 0.018527
719 2 150.351 67.2269 15.874
720 2 154.451 67.1014 16.1146
721 2 0.131941 71.0649 15.8786
722 2 4.04915 71.0385 15.7141
723 2 8.18411 71.091 0.143337
724 2 11.9348 70.8412 15.8528
725 2 15.9056 70.8604 16.1237
726 2 19.7645 70.9564 0.303671
727 2 23.707 70.9538 16.0217
728 2 27.4247 70.7975 15.9429
729 2 31.3087 70.7982 15.9022
730 2 35.3442 70.799 16.0375
731 2 39.3195 70.6619 16.1486
732 2 43.2145 70.5891 0.0667887
733 2 46.9522 70.5852 16.0096
734 2 51.0145 70.7061 16.0114
735 2 55.0599 70.5657 15.9703
736 2 59.137 70.794 0.233302
737 2 63.0437 70.729 16.1441
738 2 67.0541 70.7679 0.27063
739 2 71.0112 70.7686 15.9499
740 2 75.0171 70.8955 15.9061
741 2 78.9611 70.8538 15.9407
742 2 82.9036 71.1388 0.277747
743 2 87.0627 70.9099 15.9904
744 2 90.9413 70.7502 0.308977
745 2 94.9317 70.8638 0.214564
746 2 99.0717 71.0819 16.049
747 2 103.056 71.0486 0.156911
748 2 107.094 71.0373 0.051866
749 2 111.138 71.1233 15.8966
750 2 115.138 71.1463 0.0180179
751 2 119.025 71.1613 15.9106
752 2 123.073 71.2909 0.109415
753 2 127.262 71.4029 15.9314
754 2 131.243 71.2292 15.911
755 2 135.101 71.1696 15.9149
756 2 138.876 71.1267 16.1001
757 2 142.737 70.9652 15.8264
758 2 146.657 71.2766 15.9383
759 2 150.597 71.1803 15.8119
760 2 154.388 71.1217 15.9224
761 2 0.18778 75.0057 16.1148
762 2 4.09393 74.8686 16.0571
763 2 7.85269 74.9451 15.9236
764 2 11.932 74.952 15.9522
765 2 15.9647 74.86 16.0705
766 2 19.7412 74.9473 16.0848
767 2 23.7172 74.8784 16.0496
768 2 27.5813 75.0273 15.8842
769 2 31.5136 74.792 0.0394221
770 2 35.3534 74.8417 15.9465
771 2 39.4619 74.6421 15.6593
772 2 43.3253 74.598 0.130374
773 2 47.1227 74.8418 15.8659
774 2 51.0318 74.6105 0.269238
775 2 55.0827 74.6016 15.8726
776 2 58.8554 74.5535 16.0753
777 2 62.9174 74.726 16.103
778 2 67.0232 74.5154 15.9574
779 2 70.8322 74.7174 15.9496
780 2 74.8897 74.665 0.295798
781 2 78.9494 74.8955 16.1493
782 2 82.9811 74.9035 16.0839
783 2 86.8755 75.0702 15.7296
784 2 90.9414 75.0227 0.036132
785 2 94.7394 74.8149 15.8593
786 2 98.9784 75.0061 0.0844365
787 2 103.039 74.9397 16.0238
788 2 106.924 75.0185 0.300206
789 2 111.118 75.0882 15.9455
790 2 115.048 75.0713 0.15234
791 2 119.11 75.2302 15.9862
792 2 122.977 75.0417 15.8689
793 2 127.102 75.308 0.159646
794 2 131.001 75.209 0.148321
795 2 135.037 75.2504 15.9784
796 2 139.091 75.3242 16.0625
797 2 142.837 75.1278 0.206342
798 2 146.84 75.0672 16.0135
799 2 150.69 75.2559 16.1318
800 2 154.631 75.1246 0.204597
801 2 0.242006 79.038 15.9435
802 2 4.19665 79.1738 15.9557
803 2 8.19511 78.9872 15.951
804 2 11.9332 78.9375 15.8904
805 2 15.7055 78.9106 15.8203
806 2 19.6846 78.8847 15.8714
807 2 23.6927 78.8688 16.1306
808 2 27.5704 78.8865 15.7383
809 2 31.5822 78.742 0.157569
810 2 35.3244 78.8741 15.9096
811 2 39.4605 78.6547 0.197832
812 2 43.3297 78.6656 0.130305
813 2 47.2606 78.7256 0.0520213
814 2 51.1921 78.6883 15.9425
815 2 54.9214 78.5054 15.8392
816 2 59.0144 78.5509 16.0691
817 2 62.8867 78.53 16.0073
818 2 67.0082 78.6009 15.9339
819 2 71.0786 78.8935 15.89
820 2 74.8552 78.52 15.9271
821 2 78.8388 78.6126 0.427679
822 2 82.8792 78.9903 0.428465
823 2 86.9538 78.6771 0.273014
824 2 91.1775 78.8084 0.23704
825 2 95.2291 78.8725 0.174749
826 2 99.0939 78.9797 15.9067
827 2 103.022 78.831 0.234995
828 2 106.959 78.8931 15.9977
829 2 110.885 78.794 0.157159
830 2 114.979 78.9596 15.8362
831 2 119.019 78.9288 0.183754
832 2 123.103 79.1307 0.111638
833 2 127.111 79.1224 15.9575
834 2 130.91 79.0851 0.354429
835 2 135.028 79.2539 15.8319
836 2 138.906 79.1613 16.0735
837 2 143.024 79.2246 15.9143
838 2 146.878 79.2094 15.9847
839 2 150.887 79.3204 16.0187
840 2 154.682 79.2321 16.0208
841 2 0.0756819 83.1647 15.8973
842 2 4.07867 83.0981 16.0289
843 2 8.11125 82.9591 15.9518
844 2 11.8199 82.9754 15.9698
845 2 15.7373 82.9309 15.9754
846 2 19.893 82.8256 15.9397
847 2 23.693 82.7196 15.8078
848 2 27.6989 82.8939 15.928
849 2 31.6671 82.6681 15.7974
850 2 35.5557 82.6891 15.9463
851 2 39.3942 82.6621 0.188844
852 2 43.3771 82.7682 16.0629
853 2 47.3906 82.6877 15.8504
854 2 51.1456 82.6542 15.7751
855 2 55.0829 82.5765 16.0041
856 2 59.1395 82.6107 15.8732
857 2 62.9673 82.5722 15.8241
858 2 67.0338 82.5343 -0.00684886
859 2 70.9934 82.7556 0.226281
860 2 75.1732 82.7602 15.8045
861 2 78.8391 82.6261 0.454659
862 2 82.9303 82.722 16.0204
863 2 86.9874 82.7111 15.9386
864 2 90.9647 82.8553 0.173326
865 2 94.7477 82.6996 15.9765
866 2 98.8705 82.853 15.9229
867 2 103.012 82.8136 0.210726
868 2 106.908 82.6956 0.24251
869 2 110.882 82.9008 15.8933
870 2 114.877 82.9724 16.0759
871 2 119.187 82.7573 0.213457
872 2 123.02 83.0956 16.0066
873 2 126.98 82.8766 0.259604
874 2 130.952 83.0427 16.1419
875 2 134.917 83.0596 0.173089
876 2 139.031 83.1888 16.2384
877 2 142.906 83.1724 0.265691
878 2 146.928 83.1564 0.0341631
879 2 150.721 83.1706 16.026
880 2 154.718 83.3595 15.8824
881 2 0.170308 87.0816 16.094
882 2 4.26688 87.0619 0.219483
883 2 8.08186 86.9916 16.1234
884 2 12.0149 86.8728 16.0268
885 2 15.9151 86.9319 0.183977
886 2 19.9241 86.8552 16.168
887 2 23.8148 86.8742 16.002
888 2 27.671 86.9059 15.8044
889 2 31.5114 86.702 15.8702
890 2 35.4327 86.7493 15.8638
891 2 39.4954 86.5761 15.9035
892 2 43.3989 86.7107 16.0756
893 2 47.4224 86.707 0.10452
894 2 51.1229 86.5619 0.0782889
895 2 55.1162 86.4563 0.338278
896 2 59.1376 86.543 15.9085
897 2 63.0096 86.4006 15.9008
898 2 67.0223 86.4238 -0.0187967
899 2 71.0067 86.6955 0.0232803
900 2 74.8743 86.5038 15.8933
901 2 78.9219 86.5303 0.329091
902 2 82.8624 86.5684 0.277621
903 2 86.9635 86.6299 15.8751
904 2 90.8445 86.7827 0.110105
905 2 94.6862 86.8376 15.8116
906 2 98.891 86.6474 15.884
907 2 103.023 86.7721 0.11677
908 2 106.908 86.7416 0.270471
909 2 110.87 86.5932 15.9639
910 2 114.979 86.9403 0.412969
911 2 118.844 86.9802 0.234397
912 2 122.733 87.188 0.100346
913 2 126.98 86.7649 16.0627
914 2 130.813 86.9523 0.308105
915 2 134.913 87.0779 16.1435
916 2 138.904 87.0832 0.226558
917 2 142.862 87.1175 0.454397
918 2 146.714 87.2137 0.125645
919 2 150.642 87.1068 15.8601
920 2 154.495 86.9522 15.9873
921 2 0.293477 90.8972 15.9255
922 2 4.13249 90.9529 0.0616605
923 2 8.06971 91.0356 0.251011
924 2 12.0577 90.9215 0.373042
925 2 15.8985 90.9007 15.9952
926 2 19.8138 90.9457 15.8651
927 2 23.7789 90.8823 15.9503
928 2 27.5606 90.6942 16.0675
929 2 31.6425 90.9043 15.9438
930 2 35.5395 90.7891 15.8329
931 2 39.4684 90.5844 15.8314
932 2 43.4071 90.7159 0.388762
933 2 47.3137 90.5027 16.0329
934 2 51.2146 90.6895 16.01
935 2 55.1453 90.2226 15.7894
936 2 59.0782 90.5448 15.9644
937 2 63.115 90.4921 -0.034686
938 2 66.9057 90.3068 15.8517
939 2 70.9615 90.4687 15.8337
940 2 74.8401 90.5508 15.585
941 2 78.774 90.3751 0.359908
942 2 82.9263 90.6679 0.238418
943 2 86.8606 90.5023 16.0456
944 2 90.7829 90.7308 0.157874
945 2 94.804 90.5391 0.21931
946 2 98.7175 90.4924 0.364674
947 2 102.716 90.7668 0.282926
948 2 106.923 90.5536 0.0742076
949 2 110.913 90.6534 15.8693
950 2 114.88 90.9919 0.0189132
951 2 118.863 91.0155 0.0250677
952 2 122.989 90.8566 0.0796542
953 2 126.721 90.9745 0.263653
954 2 130.811 90.7907 15.9352
955 2 135 90.8979 0.198679
956 2 138.778 91.1122 0.228732
957 2 142.813 90.7944 0.0792618
958 2 146.97 91.0482 0.213056
959 2 150.753 91.2471 15.9098
960 2 154.646 91.1288 0.154586
961 2 0.477886 95.255 16.0459
962 2 4.32376 94.9338 16.0722
963 2 8.2315 95.1089 0.549437
964 2 12.0651 95.0365 16.088
965 2 16.061 94.9308 16.1161
966 2 20.0807 95.0635 16.1373
967 2 23.9327 95.0105 15.9494
968 2 27.8249 94.9436 15.8655
969 2 31.6153 94.799 15.9821
970 2 35.5223 94.7189 0.134862
971 2 39.4106 94.7434 15.9429
972 2 43.2785 94.7966 16.0867
973 2 47.2366 94.764 16.0137
974 2 51.2509 94.4948 0.175018
975 2 55.1372 94.3487 15.978
976 2 59.194 94.4687 15.9066
977 2 63.0673 94.3541 15.8411
978 2 66.9047 94.4748 -0.140248
979 2 70.8774 94.509 -0.0884815