ITEM: TIMESTEP
17300
ITEM: NUMBER OF ATOMS
32000
ITEM: BOX BOUNDS xy xz yz pp pp pp
0.0000000000000000e+00 1.5831999999999999e+02 0.0000000000000000e+00
0.0000000000000000e+00 1.5831999999999999e+02 0.0000000000000000e+00
1.6293086311422655e-01 1.5934781136885555e+01 0.0000000000000000e+00
ITEM: ATOMS id type x y z
1 2 158.28 157.812 16.0076
2 2 3.87348 157.871 0.128184
3 2 8.0485 158.069 0.155666
4 2 11.7162 157.978 15.9729
5 2 15.861 158.082 -0.00499359
6 2 19.8986 157.967 0.326256
7 2 23.8946 158.236 15.7932
8 2 27.9872 158.083 -0.0153307
9 2 31.9205 158.234 15.9249
10 2 35.8663 158.415 0.188394
11 2 39.9725 158.435 0.155769
12 2 44.0609 158.414 15.992
13 2 47.8008 -0.0271711 15.827
14 2 52.0313 0.129078 15.7896
15 2 56.1095 158.36 15.8531
16 2 60.0268 0.0470594 15.9352
17 2 63.8838 0.0682103 0.14475
18 2 67.7217 0.00150583 0.166273
19 2 71.6172 158.448 16.0488
20 2 75.4661 158.318 15.9302
21 2 79.6276 158.269 15.6945
22 2 83.7746 158.206 0.0346827
23 2 87.4008 158.019 0.145485
24 2 91.2336 158.077 0.209979
25 2 95.1359 157.898 0.123164
26 2 99.0757 158.147 0.186937
27 2 102.962 158.106 0.151353
28 2 106.894 157.819 16.012
29 2 110.79 158.142 0.071764
30 2 114.777 157.975 0.271721
31 2 118.6 157.793 0.217424
32 2 122.624 157.749 16.0006
33 2 126.377 157.737 15.8346
34 2 130.382 157.566 16.0142
35 2 134.23 157.555 15.9246
36 2 138.12 157.668 15.6957
37 2 142.054 157.881 16.1356
38 2 146.153 157.928 15.9744
39 2 150.37 158.02 15.938
40 2 154.422 157.879 15.8633
41 2 158.315 3.33984 0.103294
42 2 3.87306 3.58819 15.8848
43 2 7.93797 3.65079 0.0731282
44 2 11.958 3.39587 0.14369
45 2 15.786 3.67795 -0.0382687
46 2 19.9094 3.59646 15.8951
47 2 23.9899 3.64039 -0.0227514
48 2 28.0172 3.70597 0.0194248
49 2 31.9065 3.85061 0.122258
50 2 35.8251 3.93396 -0.0970308
51 2 39.9531 3.83275 0.270132
52 2 43.9265 3.98998 0.167724
53 2 48.0497 3.88628 15.7326
54 2 51.9413 4.04849 0.190603
55 2 56.0138 3.99657 0.0619251
56 2 59.841 4.04222 0.0534203
57 2 63.63 4.01004 16.0282
58 2 67.8666 4.0399 0.0292267
59 2 72.015 4.13936 0.107447
60 2 75.8401 3.9067 0.173376
61 2 79.4856 3.89284 -0.128828
62 2 83.4811 3.86498 0.235513
63 2 87.307 3.7082 0.117307
64 2 91.2204 4.00325 0.0803773
65 2 95.2659 3.92174 15.9446
66 2 99.1219 3.82 0.205667
67 2 102.965 3.71901 0.158576
68 2 106.975 3.65334 15.8932
69 2 110.836 3.60368 15.9781
70 2 114.735 3.59459 15.8477
71 2 118.666 3.4528 16.0334
72 2 122.585 3.40808 0.0789877
73 2 126.457 3.33299 16.0951
74 2 130.414 3.37862 0.0246678
75 2 134.467 3.25886 15.7759
76 2 137.976 3.525 0.152452
77 2 142.207 3.4115 16.013
78 2 146.27 3.42306 0.13369
79 2 150.257 3.45852 15.9775
80 2 154.158 3.57052 15.7791
81 2 158.063 7.05202 0.137224
82 2 3.85612 7.64114 15.9264
83 2 7.88719 7.52051 15.8162
84 2 11.9922 7.46574 15.944
85 2 15.9971 7.69271 0.180465
86 2 19.8207 7.41642 16.0034
87 2 24.1355 7.61303 0.0940219
88 2 28.0077 7.55549 0.160538
89 2 31.9939 7.70929 15.8577
90 2 35.987 7.61754 16.0457
91 2 39.8601 7.50878 15.8765
92 2 43.9607 7.92145 15.874
93 2 47.9489 7.83038 0.0333623
94 2 51.8659 7.86315 15.9412
95 2 55.8396 7.85063 0.247744
96 2 59.7888 7.80737 0.245191
97 2 63.9741 7.90555 0.0261288
98 2 67.6386 8.02306 0.0370154
99 2 71.7748 7.9825 0.177543
100 2 75.6964 8.18026 0.209438
101 2 79.8634 7.9291 15.9232
102 2 83.4389 7.95801 0.140611
103 2 87.4377 7.69509 15.7199
104 2 91.267 7.85773 0.264647
105 2 95.1657 7.81583 0.0669962
106 2 98.921 7.79895 -0.0248901
107 2 103.142 7.67412 0.151854
108 2 106.911 7.83092 0.104333
109 2 110.958 7.79484 0.318256
110 2 114.55 7.6632 0.0122588
111 2 118.649 7.30655 0.169494
112 2 122.406 7.48905 0.357864
113 2 126.376 7.5008 15.9927
114 2 130.496 7.42612 0.0707271
115 2 134.289 7.3759 -0.00502101
116 2 138.151 7.21419 15.7245
117 2 142.299 7.18524 15.963
118 2 146.286 7.53937 0.161362
119 2 150.137 7.47103 15.8625
120 2 154.14 7.28499 16.0486
121 2 157.986 11.3018 0.117849
122 2 3.8072 11.3408 0.151945
123 2 7.91923 11.3925 16.0622
124 2 11.6896 11.3352 15.9499
125 2 15.8036 11.5344 16.1213
126 2 19.7035 11.5836 0.310674
127 2 23.8293 11.5669 0.0645084
128 2 27.8908 11.559 0.124017
129 2 31.8496 11.7449 0.0329568
130 2 35.9784 11.6281 0.100878
131 2 39.9865 11.5352 0.00200705
132 2 43.9741 11.9095 15.7977
133 2 48.0001 11.7176 15.8031
134 2 51.7926 11.8296 16.0427
135 2 55.8554 11.8552 0.0184877
136 2 59.8642 12.0378 16.066
137 2 63.7269 11.7651 0.250019
138 2 67.7676 11.8447 15.8409
139 2 71.8161 12.0531 0.136181
140 2 75.6102 11.953 0.194366
141 2 79.7325 12.0152 0.140995
142 2 83.5638 12.0731 0.263109
143 2 87.3282 11.758 0.136616
144 2 91.281 11.7697 0.360099
145 2 95.0731 11.834 0.156582
146 2 99.0774 11.6067 0.428622
147 2 102.952 11.6186 0.282271
148 2 106.85 11.7199 0.20597
149 2 110.762 11.6474 0.137741
150 2 114.775 11.518 0.116762
151 2 118.687 11.5578 0.120023
152 2 122.5 11.4798 0.293247
153 2 126.438 11.3254 0.00980254
154 2 130.389 11.4967 15.9515
155 2 134.494 11.4528 0.099245
156 2 138.468 11.2178 0.108286
157 2 142.254 11.2164 15.7223
158 2 146.058 11.3189 15.7777
159 2 150.26 11.2588 15.9296
160 2 154.247 11.3552 16.0007
161 2 158.223 15.2947 0.109461
162 2 3.72154 15.123 0.10128
163 2 7.72068 15.0809 0.0299335
164 2 11.7421 15.2624 15.9802
165 2 15.6397 15.2565 15.8847
166 2 19.535 15.3934 0.271471
167 2 23.761 15.4164 0.135792
168 2 27.7289 15.5012 15.9585
169 2 31.8232 15.567 15.7586
170 2 35.7473 15.7671 0.176966
171 2 39.7814 15.4523 15.9862
172 2 43.8928 15.5931 0.0484949
173 2 47.7909 15.5394 0.136083
174 2 51.8036 15.7229 0.112854
175 2 55.7636 15.7643 15.9088
176 2 59.6359 15.649 0.292113
177 2 63.7185 15.7751 0.342453
178 2 67.5051 15.6237 0.208472
179 2 71.6593 15.8759 0.184237
180 2 75.7511 15.9556 15.6908
181 2 79.6984 15.9843 0.13273
182 2 83.4914 15.8648 0.249631
183 2 87.3546 16.063 0.193476
184 2 91.4985 15.8414 -0.0120831
185 2 95.2018 15.7291 0.141531
186 2 99.2519 15.6761 0.140692
187 2 102.871 15.676 0.26423
188 2 106.853 15.6405 0.256765
189 2 110.968 15.7403 0.140852
190 2 114.687 15.6024 0.218851
191 2 118.724 15.4172 -0.0306757
192 2 122.605 15.3627 15.8891
193 2 126.26 15.6571 0.0688701
194 2 130.489 15.4645 0.20256
195 2 134.53 15.1495 0.109651
196 2 138.506 15.2451 0.120726
197 2 142.084 15.3827 0.121265
198 2 145.894 15.1476 0.0975495
199 2 150.013 14.9645 15.8534
200 2 154.013 15.3627 0.101153
201 2 157.995 18.9799 15.7647
202 2 3.5871 19.0312 0.0548618
203 2 7.65803 19.2402 15.8423
204 2 11.704 19.2496 15.5875
205 2 15.6528 19.2563 15.956
206 2 19.7282 19.2284 0.138946
207 2 23.77 19.1932 0.315321
208 2 27.7346 19.4774 0.223476
209 2 31.7961 19.5516 15.776
210 2 35.5299 19.4633 15.985
211 2 39.6804 19.5393 0.127455
212 2 43.7257 19.4364 15.6864
213 2 47.7086 19.6915 15.7376
214 2 51.7096 19.5255 15.9831
215 2 55.4856 19.7518 15.8477
216 2 59.62 19.7219 15.9641
217 2 63.6228 19.5914 16.0816
218 2 67.5991 19.7053 15.9126
219 2 71.6926 19.7147 0.0222745
220 2 75.5248 19.8478 0.0425561
221 2 79.5299 19.8322 0.137993
222 2 83.348 19.8705 0.106242
223 2 87.6422 20.0562 15.9867
224 2 91.3714 19.7725 0.182701
225 2 95.1385 19.7111 0.326302
226 2 99.2168 19.9996 16.0265
227 2 102.957 19.7988 16.1736
228 2 106.888 19.5981 15.7603
229 2 110.703 19.4811 0.0731214
230 2 114.888 19.6222 0.196897
231 2 118.702 19.5869 16.0084
232 2 122.572 19.4712 0.0126348
233 2 126.589 19.5308 0.392226
234 2 130.514 19.2927 0.108035
235 2 134.423 19.3677 15.9458
236 2 138.23 19.139 16.0034
237 2 142.195 19.3337 -0.0253607
238 2 146.198 19.2288 0.0290984
239 2 150.055 18.9904 0.0569029
240 2 153.976 19.1812 15.8283
241 2 158.002 22.9886 15.7676
242 2 3.51263 23.0967 15.9285
243 2 7.64479 23.1173 0.0352353
244 2 11.6038 23.1015 15.8361
245 2 15.8402 23.2744 15.9738
246 2 19.871 23.1182 0.189554
247 2 23.6123 23.1243 15.8442
248 2 27.5884 23.3894 16.0918
249 2 31.6816 23.3695 0.206271
250 2 35.5093 23.7201 16.1214
251 2 39.4886 23.5316 0.116673
252 2 43.753 23.4316 15.8192
253 2 47.6274 23.5436 16.0679
254 2 51.5561 23.6534 0.1185
255 2 55.5328 23.6875 15.982
256 2 59.5801 23.817 16.0443
257 2 63.3663 23.5306 15.8359
258 2 67.5478 23.8838 0.127491
259 2 71.4962 24.0061 0.134545
260 2 75.3579 23.9505 0.110339
261 2 79.5314 23.7676 16.0085
262 2 83.3765 23.9023 16.0299
263 2 87.4471 23.9104 0.255599
264 2 91.3973 23.8642 15.799
265 2 95.3282 23.6418 15.9462
266 2 99.2394 23.7145 0.243212
267 2 103.119 23.758 0.136848
268 2 106.97 23.5131 0.0153486
269 2 110.798 23.59 0.112412
270 2 114.956 23.5435 15.8881
271 2 118.756 23.5359 15.9023
272 2 122.573 23.4099 0.163724
273 2 126.568 23.559 0.200368
274 2 130.6 23.4536 15.8411
275 2 134.448 23.4343 0.21504
276 2 138.428 23.244 15.8114
277 2 142.202 23.1361 -0.113431
278 2 146.123 23.039 0.29812
279 2 150.082 23.0377 0.0718926
280 2 154.033 23.0774 0.018371
281 2 157.885 27.063 0.172241
282 2 3.3936 26.9816 16.0537
283 2 7.54929 27.0861 0.0158943
284 2 11.4146 26.9119 15.9708
285 2 15.628 27.2504 15.9409
286 2 19.615 27.0434 0.0132707
287 2 23.5256 27.1664 -0.00322875
288 2 27.621 27.3378 0.158366
289 2 31.5305 27.3177 15.9728
290 2 35.5078 27.3852 0.285828
291 2 39.5799 27.4257 0.145948
292 2 43.4916 27.4852 15.8348
293 2 47.4757 27.4017 0.0191346
294 2 51.4943 27.5967 0.315743
295 2 55.4131 27.7281 0.255094
296 2 59.341 27.6779 0.325437
297 2 63.4506 27.8975 0.190054
298 2 67.4153 27.6374 0.241973
299 2 71.5209 27.6864 0.207328
300 2 75.4638 27.8469 15.9828
301 2 79.3676 27.6894 0.12976
302 2 83.3717 27.7884 16.0495
303 2 87.2515 27.7127 0.144181
304 2 91.3706 27.8929 15.6983
305 2 95.299 27.7435 15.8503
306 2 99.1867 27.7642 0.089426
307 2 103.14 27.6931 0.0925829
308 2 107.135 27.7129 15.8045
309 2 110.97 27.5176 0.182389
310 2 114.994 27.4519 15.8739
311 2 118.707 27.6297 15.7469
312 2 122.922 27.2594 0.0936362
313 2 126.622 27.3971 0.151873
314 2 130.57 27.3111 0.204002
315 2 134.512 27.3539 15.8238
316 2 138.361 27.2703 0.160234
317 2 142.209 27.0573 0.228623
318 2 146.224 27.0311 -0.0254832
319 2 150.024 26.9546 0.173668
320 2 154.141 27.092 15.9621
321 2 158.104 31.0444 15.9874
322 2 3.73996 30.9187 0.0843221
323 2 7.46676 30.8284 0.139831
324 2 11.501 30.7719 15.7507
325 2 15.4412 30.9116 0.0730793
326 2 19.4787 30.9382 15.8113
327 2 23.4679 31.1545 15.8669
328 2 27.4332 31.0678 0.0858262
329 2 31.3342 31.195 0.262227
330 2 35.2623 31.3745 15.8572
331 2 39.3504 31.3015 15.9387
332 2 43.2076 31.3421 0.291447
333 2 47.4136 31.3145 15.8804
334 2 51.401 31.5416 16.058
335 2 55.4807 31.5117 0.0809835
336 2 59.5617 31.5987 0.197541
337 2 63.333 31.6767 15.9348
338 2 67.4124 31.4759 0.174009
339 2 71.4501 31.5661 15.9167
340 2 75.4241 31.6823 0.331235
341 2 79.4253 31.8779 0.0624478
342 2 83.382 31.8923 15.85
343 2 87.4234 31.6759 0.135364
344 2 91.2711 31.8324 0.113871
345 2 95.6003 31.8214 0.213824
346 2 99.303 31.7274 0.188652
347 2 103.003 31.7882 15.6547
348 2 106.957 31.5729 0.167221
349 2 110.827 31.5886 15.9728
350 2 114.881 31.4411 0.186915
351 2 118.903 31.3608 15.9161
352 2 122.742 31.4071 -0.0384364
353 2 126.617 31.1992 0.0213504
354 2 130.595 31.3923 0.0993792
355 2 134.499 31.2689 0.186838
356 2 138.396 31.0907 15.9898
357 2 142.21 31.2255 15.8597
358 2 146.195 30.9619 16.1065
359 2 150.176 31.1137 15.9601
360 2 154.145 30.988 15.9673
361 2 158.317 35.0658 15.8975
362 2 3.73902 34.9261 0.0413149
363 2 7.43765 34.8471 0.191464
364 2 11.4261 34.8893 16.0052
365 2 15.4354 34.753 0.160329
366 2 19.4399 34.7205 15.9003
367 2 23.3674 35.154 16.0079
368 2 27.3854 35.0162 0.0756241
369 2 31.256 35.218 0.0118204
370 2 35.2836 35.2317 15.8905
371 2 39.3605 35.2327 0.0270799
372 2 43.3097 35.4101 16.0254
373 2 47.3203 35.1986 15.9291
374 2 51.3612 35.3563 0.256534
375 2 55.5088 35.4284 15.7214
376 2 59.2881 35.5976 0.328679
377 2 63.2051 35.7433 0.435971
378 2 67.2519 35.4997 0.0802526
379 2 71.2757 35.5092 0.229611
380 2 75.114 35.4796 16.0216
381 2 79.3274 35.557 15.7523
382 2 83.3661 35.9136 0.266466
383 2 87.353 35.6682 0.194475
384 2 91.2172 35.5351 15.6895
385 2 95.4015 35.7514 15.762
386 2 99.289 35.579 -0.171847
387 2 103.267 35.811 16.0953
388 2 107.255 35.8099 0.293815
389 2 110.925 35.4592 15.8888
390 2 114.918 35.5432 0.0766468
391 2 118.776 35.3264 15.9651
392 2 122.849 35.4175 15.9784
393 2 126.889 35.3938 0.11806
394 2 130.61 35.1719 0.300279
395 2 134.65 35.1739 16.0014
396 2 138.35 35.2491 15.885
397 2 142.252 35.2611 15.9873
398 2 146.293 35.0063 15.8234
399 2 150.373 34.9352 0.289717
400 2 154.283 35.0957 0.280859
401 2 158.237 39.0997 0.284945
402 2 3.94444 39.0262 15.8836
403 2 7.67857 39.1387 15.9755
404 2 11.4258 38.8726 0.143455
405 2 15.2826 38.7737 0.03683
406 2 19.2537 38.7883 15.8914
407 2 23.2743 39.0333 15.835
408 2 27.2972 38.9782 0.174574
409 2 31.1585 39.041 15.7957
410 2 35.4157 39.1136 0.136417
411 2 39.2116 39.0601 0.146966
412 2 43.1497 39.1646 0.538476
413 2 47.2264 39.2159 0.160858
414 2 51.2335 39.4345 0.224385
415 2 55.2241 39.308 0.305583
416 2 59.3095 39.4682 0.215142
417 2 63.4163 39.4696 15.9483
418 2 67.3399 39.4139 0.111493
419 2 71.1887 39.5672 0.18604
420 2 75.3379 39.6335 0.260706
421 2 79.254 39.5729 16.0371
422 2 83.2659 39.7493 15.7628
423 2 87.3316 39.6552 15.9901
424 2 91.4297 39.5534 15.957
425 2 95.2367 39.6106 16.0551
426 2 99.3108 39.5143 0.0970982
427 2 103.322 39.7363 0.29393
428 2 107.276 39.6484 16.0167
429 2 111.213 39.5963 16.077
430 2 114.918 39.5064 15.9625
431 2 118.972 39.6018 16.1559
432 2 122.857 39.5367 0.12139
433 2 126.759 39.3025 16.0483
434 2 130.831 39.2879 0.0770798
435 2 134.715 39.2384 0.252997
436 2 138.563 39.3535 16.2919
437 2 142.453 38.9868 16.133
438 2 146.311 38.9279 0.123002
439 2 150.097 39.0508 16.129
440 2 154.033 38.9748 0.138078
441 2 158.036 43.0127 0.0884897
442 2 3.41985 43.103 0.138623
443 2 7.52912 43.2033 -0.102527
444 2 11.6051 43.0542 0.0477104
445 2 15.3022 42.8367 0.0773525
446 2 19.3138 42.7863 15.7816
447 2 23.3425 42.8545 -0.0146372
448 2 27.0705 42.9089 0.100348
449 2 31.4488 42.9197 0.0877944
450 2 35.1808 43.0137 0.243554
451 2 39.0535 43.2122 0.341519
452 2 43.0879 43.0816 0.298656
453 2 47.1812 43.2417 0.165509
454 2 51.2869 43.2582 0.103074
455 2 55.25 43.2855 0.148431
456 2 59.1995 43.1966 0.101477
457 2 63.1662 43.3207 0.199736
458 2 67.2033 43.4164 15.7502
459 2 71.1577 43.5769 16.1893
460 2 75.2583 43.2711 0.0641436
461 2 79.2131 43.3647 0.173385
462 2 83.2768 43.5707 15.9364
463 2 87.1059 43.6937 15.6949
464 2 91.3202 43.6185 15.9289
465 2 95.1988 43.6516 -0.0449526
466 2 99.204 43.5795 0.201852
467 2 103.37 43.65 0.100229
468 2 107.14 43.6807 0.157954
469 2 111.177 43.5177 16.0167
470 2 114.859 43.6596 16.0348
471 2 118.992 43.5955 0.146262
472 2 123.172 43.6943 0.134709
473 2 126.861 43.292 0.22445
474 2 130.877 43.3078 0.162764
475 2 134.669 43.1147 15.8416
476 2 138.785 43.1469 15.942
477 2 142.492 43.0487 15.8639
478 2 146.465 43.233 15.8839
479 2 150.468 42.9408 0.0185542
480 2 154.233 43.0349 15.7717
481 2 158.269 46.9932 15.9236
482 2 3.71942 46.9439 15.8923
483 2 7.65242 46.8804 16.0269
484 2 11.5309 46.9669 16.0959
485 2 15.34 47.0023 0.226548
486 2 19.4497 47.0728 15.8991
487 2 23.3128 46.9297 0.0153761
488 2 27.3739 46.8714 0.272827
489 2 31.1019 46.9061 -0.0232911
490 2 35.1604 46.903 0.0513791
491 2 39.3152 46.9616 0.120717
492 2 43.1755 47.0325 0.206053
493 2 47.229 47.1216 15.7969
494 2 51.0235 47.0017 15.8979
495 2 55.0829 47.3038 -0.0113911
496 2 59.2094 47.1881 15.9197
497 2 63.256 47.1934 0.067409
498 2 67.1504 47.2286 0.292437
499 2 71.1584 47.6333 0.148725
500 2 75.1563 47.2726 15.5955
501 2 79.0634 47.3607 15.716
502 2 83.2265 47.3634 0.1259
503 2 87.041 47.5202 0.15066
504 2 91.2349 47.5166 15.9243
505 2 95.0151 47.5098 -0.00255313
506 2 99.2364 47.4396 0.209246
507 2 103.208 47.627 16.0441
508 2 107.238 47.6429 0.0653844
509 2 111.284 47.705 16.2535
510 2 115.135 47.5501 16.1547
511 2 119.249 47.5969 0.272391
512 2 122.889 47.4873 0.0693306
513 2 127.005 47.3659 0.165605
514 2 130.858 47.2519 0.20039
515 2 134.653 47.4426 15.8729
516 2 138.686 47.2421 0.323172
517 2 142.433 47.2137 16.0264
518 2 146.545 46.9926 0.274491
519 2 150.361 47.0506 15.7994
520 2 154.158 46.9342 0.123654
521 2 158.287 50.863 0.285858
522 2 3.83443 50.8245 0.0347412
523 2 7.60855 50.9645 0.137113
524 2 11.7082 50.7465 15.7469
525 2 15.3943 50.7804 0.186191
526 2 19.555 50.7066 0.207342
527 2 23.4771 50.9214 0.185613
528 2 27.2785 50.7448 16.0429
529 2 31.1187 50.7649 15.897
530 2 35.1015 50.8526 -0.0276013
531 2 38.9726 50.8711 15.7569
532 2 43.2517 50.8728 0.0470552
533 2 47.164 50.987 0.19233
534 2 51.1746 50.9668 15.8909
535 2 55.0637 51.0735 15.7915
536 2 59.1795 51.253 15.8882
537 2 63.182 51.1778 0.0721801
538 2 67.1697 51.3493 0.185209
539 2 71.2411 51.3363 15.7942
540 2 75.0429 51.2977 0.139216
541 2 79.113 51.2221 15.7475
542 2 83.1129 51.4061 15.9431
543 2 87.1541 51.4501 16.0393
544 2 91.0085 51.2263 -0.0359496
545 2 95.2298 51.6003 0.181986
546 2 99.1311 51.3685 15.8404
547 2 103.212 51.5979 0.135915
548 2 107.268 51.6532 16.0863
549 2 111.303 51.6602 0.377952
550 2 115.265 51.5636 0.0437091
551 2 119.092 51.4311 0.0321158
552 2 123.274 51.5807 0.189527
553 2 127.027 51.3664 15.8082
554 2 130.848 51.3959 0.116481
555 2 134.806 51.295 15.8608
556 2 138.662 51.2469 0.160773
557 2 142.687 51.0302 15.9673
558 2 146.466 51.1175 15.9681
559 2 150.368 51.2672 0.268105
560 2 154.208 51.0241 0.214079
561 2 158.346 54.9376 -0.0506162
562 2 3.80972 54.9912 -0.0332078
563 2 7.94843 54.8973 0.144917
564 2 11.7223 54.825 15.9724
565 2 15.4856 54.8297 15.9958
566 2 19.6243 54.8433 15.9373
567 2 23.4225 54.7877 16
568 2 27.3803 54.6939 15.844
569 2 31.0883 54.9595 0.119994
570 2 35.0318 54.8484 16.0267
571 2 38.8918 54.7396 -0.19371
572 2 43.0133 54.7193 15.794
573 2 47.0947 54.7895 15.9442
574 2 51.1887 54.9421 16.0604
575 2 55.2045 55.0461 0.076171
576 2 59.1807 55.0241 0.0513057
577 2 63.0901 55.3212 15.8314
578 2 67.2855 55.2765 0.221721
579 2 70.9743 55.1891 16.0428
580 2 75.164 55.2967 15.984
581 2 79.1077 55.0523 15.7953
582 2 83.0972 55.3513 15.9156
583 2 87.0342 55.2092 0.0923926
584 2 91.1076 55.1707 0.193399
585 2 94.9331 55.4238 0.277924
586 2 98.9862 55.1678 15.9937
587 2 103.212 55.276 0.105683
588 2 107.171 55.4577 0.267917
589 2 111.157 55.4483 15.7328
590 2 115.103 55.5959 0.262122
591 2 119.405 55.4991 0.182755
592 2 123.13 55.5968 0.277508
593 2 127.029 55.468 15.9872
594 2 131.047 55.3499 15.7385
595 2 134.83 55.1895 15.7366
596 2 138.838 55.2178 0.0629567
597 2 142.677 55.2858 0.371634
598 2 146.781 55.2735 15.983
599 2 150.435 55.086 15.9626
600 2 154.363 55.0611 0.0963377
601 2 -0.0720702 59.0925 0.103988
602 2 3.90068 58.8754 0.103901
603 2 7.83127 58.9331 0.229132
604 2 11.8516 59.0488 15.8855
605 2 15.725 59.0754 0.0887046
606 2 19.5767 58.7978 15.8542
607 2 23.4761 58.8847 15.8757
608 2 27.3502 58.8861 0.180145
609 2 31.304 58.8572 15.691
610 2 35.1354 58.7811 0.232857
611 2 39.0839 58.8396 0.0147856
612 2 43.097 58.6926 15.9895
613 2 47.0895 58.6934 0.129075
614 2 50.9337 58.7552 15.7935
615 2 55.1152 58.9412 16.0965
616 2 59.2853 58.9557 15.9889
617 2 63.2958 59.1532 0.397407
618 2 67.039 59.1019 15.8952
619 2 71.0488 59.0325 0.108827
620 2 75.1008 59.1523 0.320909
621 2 79.2087 59.1329 16.1148
622 2 83.2202 59.1853 15.8928
623 2 87.0554 58.9578 0.242217
624 2 91.1401 59.1975 0.142919
625 2 95.0911 59.1606 0.275541
626 2 99.1699 59.0963 15.8721
627 2 103.217 59.1669 0.35226
628 2 107.197 59.2504 0.0267735
629 2 111.3 59.2857 0.116012
630 2 115.225 59.2892 0.100559
631 2 119.258 59.2854 0.11795
632 2 123.238 59.6909 0.188349
633 2 126.912 59.3861 0.0630571
634 2 130.897 59.428 15.9702
635 2 134.912 59.4226 0.260474
636 2 138.73 59.3368 0.048852
637 2 142.666 59.1014 16.0451
638 2 146.764 59.1438 0.195291
639 2 150.637 59.198 0.11931
640 2 154.215 59.059 0.140725
641 2 0.18359 62.9459 16.132
642 2 4.0689 63.1609 15.8356
643 2 7.8323 62.9583 0.0795893
644 2 11.8774 63.034 0.0487975
645 2 15.7967 63.0424 15.8305
646 2 19.7205 62.8546 16.0042
647 2 23.624 62.9288 15.9284
648 2 27.4501 62.8343 0.287147
649 2 31.2789 62.6297 15.8851
650 2 35.2775 62.9179 15.8629
651 2 39.276 62.6367 0.311375
652 2 43.1917 62.7692 0.0801968
653 2 46.7945 62.6682 15.8893
654 2 50.9023 62.7937 0.288339
655 2 54.9363 62.6003 0.388426
656 2 59.0382 63.0156 0.0252716
657 2 63.1306 62.9061 0.312336
658 2 67.0112 63.0645 0.154711
659 2 71.1234 62.8763 0.0943668
660 2 75.1189 62.9583 15.7382
661 2 79.0299 63.155 15.9078
662 2 83.2047 63.2148 15.9889
663 2 86.9509 63.1614 0.147087
664 2 90.9641 63.148 15.9059
665 2 95.138 63.1998 0.0969077
666 2 99.0677 63.129 0.180082
667 2 103.075 63.1255 0.139476
668 2 107.102 63.3431 0.308223
669 2 111.041 63.3331 0.320014
670 2 115.223 63.2158 0.149879
671 2 119.16 63.353 15.8796
672 2 123.101 63.5009 15.7437
673 2 127.098 63.6237 15.9335
674 2 130.996 63.4494 0.211983
675 2 134.937 63.4024 15.8978
676 2 138.781 63.0508 0.197997
677 2 142.716 63.1901 0.0891745
678 2 146.777 63.091 -0.0105823
679 2 150.532 63.0572 15.9318
680 2 154.44 63.093 15.907
681 2 0.17506 66.8852 -0.0224625
682 2 4.26384 67.1414 0.387866
683 2 8.12515 67.1227 0.316293
684 2 11.8335 66.9706 15.7642
685 2 15.6947 66.9622 15.8256
686 2 19.7019 66.9167 15.878
687 2 23.667 66.9311 16.0685
688 2 27.5225 66.7604 16.0402
689 2 31.4774 66.6846 0.183135
690 2 35.3432 66.7589 0.149308
691 2 39.2951 66.5837 0.151722
692 2 43.0418 66.8468 15.9434
693 2 47.0624 66.686 0.382687
694 2 51.1654 66.7107 16.0042
695 2 54.7848 66.7277 15.8805
696 2 59.1611 66.7759 16.0335
697 2 62.9478 66.587 16.0166
698 2 67.0526 66.7838 15.8516
699 2 71.2102 66.9176 0.205847
700 2 75.1016 66.9732 0.224374
701 2 79.2303 67.0755 15.9622
702 2 82.9655 67.1863 15.9423
703 2 86.9444 67.0927 16.1554
704 2 90.9286 67.1566 0.468839
705 2 95.0057 67.0181 16.0477
706 2 99.0475 67.109 16.0033
707 2 103.172 66.9842 0.137518
708 2 107.15 67.0845 15.7543
709 2 111.154 67.2045 -0.0315774
710 2 115.171 66.9395 -0.0798303
711 2 119.2 67.344 0.0594916
712 2 122.992 67.3404 15.9614
713 2 127.235 67.3933 15.8876
714 2 131.256 67.3239 15.8839
715 2 134.964 67.3335 15.9216
716 2 139.069 67.0986 15.9188
717 2 142.759 67.2117 15.8507
718 2 146.562 66.9349 0.188246
719 2 150.847 67.0211 15.891
720 2 154.683 67.2022 15.9881
721 2 0.315127 71.0754 15.8294
722 2 4.19961 70.9166 16.1614
723 2 8.0405 71.0923 0.168929
724 2 11.8899 71.0955 15.9222
725 2 15.6315 70.9818 15.9053
726 2 19.7445 70.8679 0.127361
727 2 23.6592 70.7939 15.9594
728 2 27.4716 70.9349 16.0229
729 2 31.5348 70.8474 15.9808
730 2 35.5693 70.7135 15.9251
731 2 39.2678 70.7911 15.9171
732 2 43.1058 70.8013 0.258813
733 2 47.1284 70.6252 15.9605
734 2 50.7789 70.4949 15.9414
735 2 55.0241 70.6111 15.9308
736 2 58.92 70.6218 0.0380451
737 2 62.8959 70.8248 15.8807
738 2 67.0467 70.7506 0.224936
739 2 71.203 70.9118 15.898
740 2 75.0968 70.8447 15.9702
741 2 78.8685 71.2186 16.0354
742 2 82.931 70.8794 0.373922
743 2 87.0407 70.9857 15.8903
744 2 91.1808 71.0538 -0.0176084
745 2 95.0236 70.8744 0.0202312
746 2 99.1385 70.8051 16.1197
747 2 103.043 70.9686 0.297696
748 2 107.055 71.0423 0.284039
749 2 111.014 71.0691 15.6983
750 2 114.922 71.2108 0.0606399
751 2 119.034 71.2054 15.9763
752 2 123.053 71.1533 0.0927008
753 2 126.992 71.306 16.0009
754 2 131.043 71.377 15.7917
755 2 135.071 71.4438 16.1308
756 2 138.898 71.2357 16.0198
757 2 142.904 71.4331 15.8255
758 2 146.855 71.1057 15.7874
759 2 150.616 71.1235 16.051
760 2 154.74 71.0931 16.0215
761 2 0.256472 75.1631 16.0477
762 2 4.06224 75.0569 15.8756
763 2 8.21181 75.1081 16.0734
764 2 11.9523 75.0049 15.9111
765 2 15.8315 75.0232 16.0313
766 2 19.676 74.7829 15.948
767 2 23.6349 74.8231 15.9111
768 2 27.8486 74.66 15.8864
769 2 31.7326 74.759 0.240778
770 2 35.6131 74.7087 16.0465
771 2 39.2638 74.8974 16.0791
772 2 43.2268 74.7913 0.228297
773 2 47.1272 74.5632 15.7134
774 2 51.0124 74.5398 -0.00268006
775 2 54.8125 74.4141 15.9339
776 2 58.9898 74.5977 16.0549
777 2 62.9859 74.4783 16.0225
778 2 66.9372 74.7807 16.0824
779 2 70.9389 74.6797 16.2381
780 2 74.8734 74.9106 0.136363
781 2 78.9854 74.849 15.955
782 2 82.9392 74.7441 15.8829
783 2 86.9846 74.6651 15.9971
784 2 91.1103 74.8181 0.0785537
785 2 95.1986 74.7991 15.861
786 2 99.1444 74.9839 0.294802
787 2 103.052 74.928 16.0479
788 2 107.07 74.9132 0.161268
789 2 110.888 74.9683 15.7127
790 2 115.079 75.0229 0.175553
791 2 118.945 75.0565 15.9035
792 2 123.076 75.2933 15.8289
793 2 127.1 75.0867 0.0774515
794 2 131.162 75.3082 0.12833
795 2 135.14 75.3669 16.0985
796 2 139.017 75.3009 15.9811
797 2 143.004 75.2095 0.14938
798 2 146.837 75.1852 15.8408
799 2 150.739 75.1046 15.9396
800 2 154.575 75.0438 0.129954
801 2 0.321384 79.1615 16.1659
802 2 4.22574 79.0106 16.1336
803 2 8.01062 79.0669 15.9644
804 2 11.9193 79.0312 16.0343
805 2 15.9671 78.87 16.0214
806 2 19.7471 78.8243 16.0575
807 2 23.7813 78.829 15.791
808 2 27.7435 78.7577 16.0556
809 2 31.7309 78.858 0.198886
810 2 35.6741 78.659 16.0589
811 2 39.2916 78.7786 0.284921
812 2 43.2921 78.5755 0.284133
813 2 47.2969 78.7379 0.0841349
814 2 51.0669 78.52 15.8987
815 2 55.1528 78.562 15.9943
816 2 58.831 78.4976 15.8503
817 2 63.0577 78.4192 16.0379
818 2 67.1245 78.7661 15.951
819 2 70.9474 78.5758 16.0498
820 2 74.9438 78.9101 16.0071
821 2 78.7473 78.8044 0.352126
822 2 82.9979 78.6584 0.0596635
823 2 86.7308 78.8258 0.118503
824 2 90.8976 78.7946 0.0453676
825 2 94.8476 78.7136 -0.0814225
826 2 98.9836 78.707 15.9209
827 2 102.984 78.8481 0.226294
828 2 106.764 78.8165 16.1254
829 2 110.954 78.881 -0.0306052
830 2 114.983 79.0359 16.1306
831 2 118.96 79.03 0.261688
832 2 122.966 79.0916 0.258756
833 2 127.031 79.0003 15.8972
834 2 131.21 79.3117 0.167996
835 2 135.054 79.1997 16.1471
836 2 138.987 79.3051 15.9705
837 2 142.993 79.3195 15.9171
838 2 146.8 79.2073 15.8133
839 2 150.768 79.2198 16.039
840 2 154.823 79.0668 16.0662
841 2 0.228701 83.1768 16.1362
842 2 4.30803 83.0897 15.9376
843 2 8.0571 83.0892 15.9059
844 2 12.117 82.915 15.9869
845 2 15.9363 83.0067 15.7859
846 2 19.6799 83.0318 16.0259
847 2 23.8507 83.0793 15.9751
848 2 27.6265 82.8437 15.9697
849 2 31.4138 82.889 15.8742
850 2 35.4236 82.8009 15.8036
851 2 39.4431 82.7599 0.174495
852 2 43.5235 82.7421 15.8835
853 2 47.2832 82.7336 16.0223
854 2 51.2843 82.5696 15.9633
855 2 55.1271 82.5056 15.6907
856 2 58.9959 82.3002 15.9802
857 2 62.9269 82.173 15.9618
858 2 66.9143 82.5311 0.0669631
859 2 70.8784 82.8356 0.141883
860 2 74.584 82.5566 15.9891
861 2 78.9705 82.6172 0.237553
862 2 82.9333 82.6007 15.9602
863 2 86.9119 82.7337 15.7939
864 2 90.8177 82.4119 0.234489
865 2 95.0262 82.7562 15.8969
866 2 99.1708 82.6147 15.8459
867 2 102.917 82.6692 -0.0670311
868 2 106.893 82.9312 0.252508
869 2 111.053 82.6782 15.8707
870 2 115.14 82.9575 15.9847
871 2 118.803 83.2673 0.286295
872 2 122.849 82.9999 15.9972
873 2 126.689 83.0761 0.230075
874 2 130.979 83.0285 15.9649
875 2 135.128 83.24 0.295312
876 2 138.929 83.1862 16.0494
877 2 142.87 83.2069 0.240592
878 2 146.872 83.3326 0.24133
879 2 150.869 83.1123 15.7892
880 2 154.676 83.0373 15.909
881 2 0.26506 87.0968 16.1056
882 2 4.11899 87.0744 0.194992
883 2 8.13364 87.1392 16.0726
884 2 12.0244 87.0891 15.963
885 2 15.9229 86.9842 0.225868
886 2 19.8349 87.0172 16.0415
887 2 23.7863 86.883 15.9482
888 2 27.802 86.8707 16.1903
889 2 31.7103 86.7952 16.0052
890 2 35.6288 86.5394 16.0147
891 2 39.5532 86.8502 15.8353
892 2 43.5232 86.7526 15.9661
893 2 47.1879 86.5571 0.366853
894 2 51.3 86.5484 0.168616
895 2 55.3577 86.7451 0.112275
896 2 59.0626 86.402 16.0656
897 2 62.8989 86.5129 15.8352
898 2 66.8426 86.4284 0.118683
899 2 70.8502 86.5729 0.152121
900 2 74.7903 86.6577 15.8827
901 2 78.8771 86.5901 0.247799
902 2 82.944 86.5602 0.0677949
903 2 86.6658 86.5186 15.7498
904 2 90.8762 86.3935 0.152942
905 2 94.8679 86.2719 15.9173
906 2 98.8971 86.7448 16.1371
907 2 102.799 86.6543 0.050916
908 2 106.835 86.6567 0.12753
909 2 110.92 86.8417 16.0441
910 2 114.822 86.7929 -0.0259455
911 2 118.905 86.9416 0.304895
912 2 122.96 86.6958 0.122778
913 2 126.827 87.0316 15.9659
914 2 130.936 86.8382 0.334492
915 2 134.897 87.0646 15.9806
916 2 138.905 87.2619 0.348632
917 2 142.822 87.1019 -0.0723295
918 2 146.879 87.1245 -0.0245865
919 2 150.739 87.0957 16.0184
920 2 154.742 87.2556 15.7451
921 2 0.108502 91.2337 16.0482
922 2 4.22039 91.1904 0.208941
923 2 8.18555 91.1035 0.202489
924 2 12.0188 91.0285 0.0745269
925 2 15.9968 90.9602 16.0862
926 2 19.9627 90.9158 15.9891
927 2 23.814 90.8677 15.9639
928 2 27.7116 91.0126 16.051
929 2 31.7009 90.6539 15.8401
930 2 35.4962 90.6259 16.0192
931 2 39.4668 90.7068 15.9702
932 2 43.591 90.7889 0.1424
933 2 47.4269 90.8549 15.9632
934 2 51.3728 90.4309 15.9258
935 2 55.2452 90.9132 16.2819
936 2 59.1176 90.5979 15.9076
937 2 62.8119 90.389 0.279692
938 2 66.826 90.4307 15.9809
939 2 70.7739 90.3769 15.7874
940 2 74.8033 90.4567 16.0605
941 2 78.9713 90.4626 -0.00904493
942 2 82.9183 90.496 0.24412
943 2 86.768 90.5158 15.8441
944 2 90.6681 90.3177 0.152781
945 2 94.8565 90.528 0.358778
946 2 99.0203 90.8409 0.0376446
947 2 103.026 90.4034 0.0440187
948 2 106.802 90.6502 0.186096
949 2 110.848 90.712 15.9345
950 2 114.906 90.616 0.246318
951 2 118.966 90.677 0.315933
952 2 122.928 90.7896 0.260928
953 2 127.073 90.8698 0.332208
954 2 131.068 90.9826 15.9825
955 2 134.921 91.065 0.259594
956 2 139.084 91.0607 0.1994
957 2 142.913 91.3937 0.242896
958 2 146.787 91.3135 0.265061
959 2 150.965 91.2111 16.0029
960 2 154.707 91.0857 0.350917
961 2 0.269882 95.1799 16.0667
962 2 4.21965 95.1358 16.0113
963 2 8.02246 95.1594 0.302247
964 2 12.2005 95.1695 16.1322
965 2 16.0462 95.0567 16.164
966 2 19.9632 94.884 15.9153
967 2 23.8391 94.8164 15.9794
968 2 27.681 94.7925 16.2263
969 2 31.5757 94.876 15.9736
970 2 35.6177 94.7895 0.147981
971 2 39.4001 94.733 15.861
972 2 43.4336 94.6222 16.0274
973 2 47.3969 94.5321 16.0262
974 2 51.3088 94.6374 0.0588177
975 2 55.3362 94.6273 15.9857
976 2 59.0888 94.4234 16.0456
977 2 63.0414 94.4437 15.9194
978 2 66.9931 94.333 0.145623
979 2 70.8892 94.3649 0.063376
980 2 74.7456 94.3902 15.696