ITEM: TIMESTEP
17400
ITEM: NUMBER OF ATOMS
32000
ITEM: BOX BOUNDS xy xz yz pp pp pp
0.0000000000000000e+00 1.5831999999999999e+02 0.0000000000000000e+00
0.0000000000000000e+00 1.5831999999999999e+02 0.0000000000000000e+00
1.6436369794517613e-01 1.5933348302054624e+01 0.0000000000000000e+00
ITEM: ATOMS id type x y z
1 2 158.182 157.836 15.8727
2 2 4.01368 157.995 0.196931
3 2 7.72426 157.784 0.0475121
4 2 11.7523 158.074 16.0537
5 2 15.9701 158.056 0.11466
6 2 20.0539 158.143 0.16623
7 2 24.0402 157.995 16.0314
8 2 27.8752 158.141 0.305584
9 2 31.9738 158.268 16.0094
10 2 35.9728 158.137 0.137539
11 2 40.0753 158.195 0.126958
12 2 44.0295 158.337 15.8329
13 2 48.0246 0.205563 15.8598
14 2 51.9162 0.0351172 15.85
15 2 55.9153 158.468 15.8031
16 2 59.9394 0.183658 16.0279
17 2 63.816 0.0181999 0.231138
18 2 67.7976 -0.0607014 0.109705
19 2 71.6941 158.208 15.8284
20 2 75.6826 158.165 15.8565
21 2 79.5095 158.105 15.8436
22 2 83.1958 158.182 0.258359
23 2 87.2478 158.159 0.0628213
24 2 91.107 157.992 0.0935024
25 2 95.2386 158.204 0.233232
26 2 99.2374 157.991 0.251797
27 2 103.124 157.891 0.072457
28 2 106.873 158.109 15.7088
29 2 110.79 158.033 0.0309815
30 2 114.586 157.887 -0.0600914
31 2 118.637 157.865 0.315487
32 2 122.527 157.957 15.8464
33 2 126.453 157.9 15.9543
34 2 130.079 157.772 15.7289
35 2 134.021 157.757 15.8046
36 2 137.935 157.72 15.9822
37 2 142.17 157.667 15.8511
38 2 146.284 157.665 15.9178
39 2 150.243 157.746 15.7407
40 2 154.178 157.884 15.7995
41 2 158.167 3.54548 0.118452
42 2 3.83824 3.33051 15.8203
43 2 7.86629 3.66609 0.177067
44 2 11.881 3.76457 0.103719
45 2 16.0143 3.69308 0.269279
46 2 19.7833 3.67832 15.8413
47 2 23.8572 3.76576 0.208638
48 2 27.7765 3.62036 0.0328366
49 2 31.9058 3.83248 -0.149986
50 2 36.0022 3.80035 0.12939
51 2 40.018 3.87099 0.0103084
52 2 44.0324 3.80405 0.0999455
53 2 47.7918 3.8072 15.9381
54 2 51.9186 3.91429 -0.00430437
55 2 55.7861 4.06521 0.387671
56 2 59.758 4.20426 0.423886
57 2 63.966 4.05136 15.7353
58 2 67.6828 3.98415 0.127538
59 2 71.5069 4.00303 -0.0448661
60 2 75.4602 3.89901 0.109718
61 2 79.7627 3.84141 0.209085
62 2 83.5329 3.79324 -0.0138477
63 2 87.5103 3.88308 0.078993
64 2 91.3373 3.5808 0.108461
65 2 95.0176 3.57742 15.9502
66 2 98.8756 3.63986 0.144938
67 2 102.898 3.66639 0.129227
68 2 106.764 3.63332 15.8551
69 2 110.638 3.65855 15.7604
70 2 114.678 3.56715 15.8371
71 2 118.686 3.513 15.7658
72 2 122.529 3.56135 0.27468
73 2 126.515 3.65697 15.7919
74 2 130.32 3.385 -0.00927688
75 2 133.909 3.24667 15.8847
76 2 138.202 3.15103 0.142955
77 2 142.171 3.23233 16.0802
78 2 146.21 3.49196 0.0371584
79 2 150.223 3.44292 15.7625
80 2 154.382 3.30244 15.9525
81 2 158.208 7.56465 0.0906684
82 2 3.81655 7.38475 15.7661
83 2 7.74553 7.40374 15.9588
84 2 11.7749 7.51558 15.9724
85 2 15.769 7.43324 0.233807
86 2 19.9476 7.76445 15.9613
87 2 23.6898 7.54573 0.114775
88 2 27.8807 7.68101 0.062084
89 2 31.7319 7.74773 15.7563
90 2 35.7709 7.91675 15.6955
91 2 39.9818 7.9018 16.0197
92 2 43.9289 7.687 15.7958
93 2 47.9072 7.6863 0.154437
94 2 51.8773 7.772 15.6872
95 2 55.8094 7.9406 -0.139935
96 2 59.6351 8.06404 0.193928
97 2 63.6207 8.0479 0.183924
98 2 67.9065 7.97624 0.172132
99 2 71.7055 8.03578 0.211989
100 2 75.6438 8.07833 0.014276
101 2 79.3623 7.9335 15.7966
102 2 83.3911 7.88206 0.0299431
103 2 87.3016 7.93111 16.0816
104 2 91.0686 7.73987 -0.0846407
105 2 94.9254 7.69597 0.149713
106 2 98.9967 7.75124 0.123345
107 2 102.73 7.65758 0.228575
108 2 106.848 7.60161 0.339368
109 2 110.796 7.57098 -0.00337323
110 2 114.926 7.49912 0.218293
111 2 118.681 7.6681 0.143168
112 2 122.733 7.4154 0.203243
113 2 126.396 7.31344 15.9235
114 2 130.339 7.37755 0.13769
115 2 134.468 7.29962 0.157708
116 2 138.313 7.26983 15.9256
117 2 142.265 7.32046 15.8155
118 2 146.075 7.32102 0.0354509
119 2 150.156 7.39877 16.0254
120 2 154.028 7.36472 15.8561
121 2 158.28 11.18 0.277954
122 2 3.85043 11.2605 0.0651153
123 2 7.81614 11.3538 15.7776
124 2 11.8792 11.5462 15.8967
125 2 15.8279 11.5229 15.7854
126 2 19.9035 11.5396 0.212915
127 2 23.9453 11.4527 0.163119
128 2 27.8047 11.5557 0.0686225
129 2 31.7497 11.495 0.122944
130 2 35.7775 11.7604 0.198772
131 2 39.7825 11.8093 0.11283
132 2 43.8612 11.7293 15.9141
133 2 47.6902 11.7101 15.7918
134 2 51.9115 11.8533 15.8839
135 2 55.7228 11.7835 0.320002
136 2 59.6431 11.7202 15.7921
137 2 63.6794 11.8708 0.0249087
138 2 67.6268 11.7975 15.803
139 2 71.7037 12.0201 0.123368
140 2 75.6966 12.1231 0.267375
141 2 79.5613 12.0411 0.263447
142 2 83.388 11.8441 0.0588405
143 2 87.2979 12.0541 0.149029
144 2 91.2009 11.9562 0.163437
145 2 95.14 11.7467 0.186082
146 2 99.0854 11.9558 -0.0558122
147 2 102.878 11.8106 0.181354
148 2 106.923 11.6137 0.246979
149 2 110.753 11.6861 0.194403
150 2 114.776 11.5737 0.0325461
151 2 118.665 11.5091 0.19247
152 2 122.539 11.4315 0.229887
153 2 126.267 11.7129 0.329545
154 2 130.274 11.3952 15.8595
155 2 134.347 11.3167 0.169072
156 2 138.211 11.2752 0.159689
157 2 142.1 11.2176 15.9974
158 2 146.243 11.2477 15.7773
159 2 150.166 11.3098 15.8273
160 2 154.051 11.4854 15.9634
161 2 158.068 15.0904 0.176048
162 2 3.61807 15.1297 -0.027786
163 2 7.74296 15.2488 0.0925147
164 2 11.7314 15.3876 15.9752
165 2 15.6805 15.4415 15.9954
166 2 19.7183 15.4696 0.225381
167 2 23.8439 15.2842 0.249277
168 2 27.8964 15.4968 15.9238
169 2 31.6116 15.5697 16.2454
170 2 35.7976 15.557 -0.00835092
171 2 39.8702 15.6759 15.9217
172 2 43.8255 15.637 0.184404
173 2 47.8744 15.6643 -0.0248529
174 2 51.7068 15.8643 0.202982
175 2 55.8159 15.741 15.9681
176 2 59.698 15.83 0.166934
177 2 63.6163 15.8362 0.131927
178 2 67.7572 15.9747 0.127322
179 2 71.6118 15.9817 0.218006
180 2 75.5693 15.89 16.199
181 2 79.5329 15.9562 -0.000387366
182 2 83.471 15.9881 0.106715
183 2 87.5094 15.8611 0.0482695
184 2 91.1943 15.9682 0.082598
185 2 95.2201 15.8085 -0.0335944
186 2 98.8878 15.7277 0.125071
187 2 102.943 15.7295 0.234056
188 2 106.913 15.4791 0.0927276
189 2 110.64 15.4829 0.178623
190 2 114.632 15.5173 0.188294
191 2 118.638 15.5452 0.280437
192 2 122.482 15.6023 16.0607
193 2 126.587 15.436 0.0454156
194 2 130.354 15.3306 -0.0737095
195 2 134.298 15.4241 0.221722
196 2 138.1 15.2018 0.243489
197 2 142.156 15.1669 0.222254
198 2 146.244 15.2194 -0.105349
199 2 150.06 15.2016 15.903
200 2 154.177 15.2305 0.047486
201 2 158.066 19.0932 15.9799
202 2 3.74535 19.0972 0.112732
203 2 7.71461 18.9688 15.9608
204 2 11.6077 19.1697 15.9893
205 2 15.8443 19.2396 16.0474
206 2 19.7692 19.371 0.133699
207 2 23.6472 19.3363 0.0499002
208 2 27.7719 19.4085 0.234716
209 2 31.6005 19.4669 15.9599
210 2 35.7905 19.573 15.9975
211 2 39.7243 19.5454 0.273554
212 2 43.6866 19.5278 15.9818
213 2 47.4962 19.6623 16.0515
214 2 51.612 19.8528 15.8996
215 2 55.7048 19.8963 16.0914
216 2 59.3886 19.9108 16.1778
217 2 63.3906 19.8246 16.0774
218 2 67.6833 19.8109 15.9401
219 2 71.4787 19.8559 0.153706
220 2 75.5252 19.8488 0.246564
221 2 79.4619 20.0308 0.274893
222 2 83.5645 19.9188 0.226636
223 2 87.2851 19.9015 16.0054
224 2 91.3279 19.9762 0.343749
225 2 95.3325 19.8 0.106334
226 2 99.0942 19.4662 15.9488
227 2 103.048 19.5365 15.9486
228 2 106.827 19.6023 15.931
229 2 110.713 19.6132 0.0885657
230 2 114.692 19.5622 -0.090276
231 2 118.678 19.3701 15.8406
232 2 122.731 19.4602 0.253859
233 2 126.512 19.4143 0.0747007
234 2 130.403 19.4194 0.214433
235 2 134.452 19.1516 15.8026
236 2 138.405 19.306 15.7449
237 2 142.33 19.208 0.169233
238 2 146.094 19.1283 -0.0738663
239 2 150.134 19.095 0.144242
240 2 154.019 19.0169 15.7498
241 2 157.871 22.9913 15.9378
242 2 3.55417 22.8636 15.9176
243 2 7.4695 23.1296 0.129006
244 2 11.7027 23.2579 15.8176
245 2 15.5485 23.1133 15.978
246 2 19.5055 23.2512 0.139042
247 2 23.7251 23.31 15.8505
248 2 27.7114 23.201 16.0442
249 2 31.6291 23.4325 0.218229
250 2 35.5581 23.2052 16.0331
251 2 39.6191 23.4249 0.173569
252 2 43.3341 23.6016 15.8713
253 2 47.3801 23.5453 15.7905
254 2 51.4263 23.8278 0.301612
255 2 55.5844 23.7785 15.8908
256 2 59.5598 23.6452 15.8723
257 2 63.6201 23.6011 15.9964
258 2 67.6123 23.4904 0.186173
259 2 71.6221 23.6384 0.19105
260 2 75.6661 23.7405 0.251465
261 2 79.3275 24.0141 15.975
262 2 83.37 23.8592 15.9522
263 2 87.4512 23.8846 0.287461
264 2 91.3318 23.8922 15.7555
265 2 95.0698 23.9047 15.7541
266 2 99.0723 23.7673 0.0738672
267 2 103.009 23.478 0.263879
268 2 106.911 23.6918 0.125221
269 2 110.93 23.4411 0.0946781
270 2 114.837 23.5087 16.0581
271 2 118.815 23.4911 15.876
272 2 122.689 23.4313 0.216686
273 2 126.67 23.4025 0.134013
274 2 130.625 23.3923 15.9564
275 2 134.39 23.1903 0.00627816
276 2 138.111 23.3087 15.8356
277 2 142.167 23.3106 0.183911
278 2 146.025 23.1673 0.0153837
279 2 149.969 23.0904 0.174749
280 2 153.812 23.1338 0.237762
281 2 157.886 26.8299 0.0329136
282 2 3.49596 26.999 15.6889
283 2 7.46436 26.8283 0.205323
284 2 11.6282 27.0655 15.8862
285 2 15.525 26.9834 15.7511
286 2 19.5404 27.1884 0.0700817
287 2 23.5506 27.1349 0.220315
288 2 27.4624 27.1911 0.269076
289 2 31.5635 27.3302 15.8261
290 2 35.477 27.2346 0.267982
291 2 39.5309 27.2798 0.0814028
292 2 43.4168 27.2971 15.6854
293 2 47.3613 27.4566 0.173931
294 2 51.4385 27.5388 0.061936
295 2 55.5615 27.5096 0.137976
296 2 59.5643 27.6147 0.123584
297 2 63.4174 27.5134 0.178977
298 2 67.5342 27.4177 0.0955561
299 2 71.4456 27.7023 0.382542
300 2 75.5007 27.7974 15.9187
301 2 79.3981 27.9342 0.293907
302 2 83.4263 27.7013 15.7887
303 2 87.4482 27.7337 0.107191
304 2 91.3908 27.8513 15.9008
305 2 95.1908 27.9619 16.1415
306 2 99.1424 27.7033 -0.0294358
307 2 103.131 27.7489 -0.00307523
308 2 106.84 27.5367 15.8868
309 2 110.814 27.6073 -0.0603391
310 2 114.748 27.5327 15.9271
311 2 118.9 27.4572 15.9245
312 2 122.575 27.542 0.280174
313 2 126.716 27.3563 0.101229
314 2 130.657 27.4381 0.243135
315 2 134.456 27.1825 15.9083
316 2 138.419 27.0315 0.218544
317 2 142.332 27.1893 -0.0628733
318 2 146.146 27.1319 0.377348
319 2 150.198 27.0367 0.304624
320 2 153.94 26.8606 15.9275
321 2 157.894 30.8585 15.933
322 2 3.46844 30.9564 0.221892
323 2 7.61457 30.8552 0.13494
324 2 11.4465 30.9575 16.0806
325 2 15.5332 30.9876 0.107814
326 2 19.3955 31.0534 15.8081
327 2 23.4872 31.1228 15.8291
328 2 27.4382 31.2935 0.270687
329 2 31.5223 31.1582 0.10179
330 2 35.319 31.257 16.1062
331 2 39.3589 31.3093 15.8573
332 2 43.324 31.2888 0.0849679
333 2 47.3619 31.3725 16.0729
334 2 51.466 31.3817 15.823
335 2 55.4289 31.5719 0.290291
336 2 59.3794 31.6123 -0.0406731
337 2 63.4882 31.4459 15.956
338 2 67.3755 31.485 0.198081
339 2 71.3035 31.5555 16.1657
340 2 75.2762 31.7184 0.23401
341 2 79.3767 31.6063 0.2432
342 2 83.402 31.6971 16.0131
343 2 87.3148 31.794 0.258356
344 2 91.3175 31.7105 0.0215865
345 2 95.2124 31.8712 0.206511
346 2 99.2534 31.7869 -0.0698137
347 2 103.117 31.7218 16.1003
348 2 107.008 31.6111 0.109264
349 2 111.089 31.6337 16.0173
350 2 114.902 31.531 0.0300651
351 2 118.801 31.5109 15.9327
352 2 122.827 31.4185 0.225734
353 2 126.558 31.6053 0.0324147
354 2 130.56 31.3158 0.311899
355 2 134.514 31.204 0.310341
356 2 138.422 31.2416 15.9611
357 2 142.442 30.9717 16.1518
358 2 146.329 31.1063 15.7892
359 2 150.232 30.9279 16.0104
360 2 154.167 31.1089 16.1582
361 2 157.939 34.963 15.8737
362 2 3.55593 34.9719 0.14046
363 2 7.55149 34.9683 0.170229
364 2 11.4861 34.8274 15.8818
365 2 15.3708 34.8851 -0.0856129
366 2 19.3166 35.0507 15.7284
367 2 23.4304 34.9627 15.9002
368 2 27.3162 34.984 -0.0951438
369 2 31.4283 35.1958 0.0861909
370 2 35.2212 35.0837 15.9274
371 2 39.1993 35.1984 0.185832
372 2 43.323 35.2264 16.0749
373 2 47.3584 35.231 16.0302
374 2 51.2078 35.4036 0.199374
375 2 55.0939 35.5006 16.0573
376 2 59.4056 35.5136 0.120368
377 2 63.2398 35.2925 0.210801
378 2 67.3222 35.4391 0.31872
379 2 71.3012 35.4146 0.203896
380 2 75.3779 35.6858 16.0136
381 2 79.3816 35.7075 16.087
382 2 83.239 35.5865 0.0768725
383 2 87.2401 35.8413 0.219895
384 2 91.4049 35.6886 15.8757
385 2 95.3032 35.8849 15.812
386 2 99.2718 35.8921 0.151854
387 2 103.345 35.7246 15.9129
388 2 107.047 35.4216 0.0792525
389 2 111.104 35.7203 15.9266
390 2 114.885 35.4605 0.201865
391 2 118.875 35.6373 15.9045
392 2 122.813 35.5389 15.8726
393 2 126.587 35.3962 0.05876
394 2 130.685 35.3688 0.221772
395 2 134.378 35.2714 15.9985
396 2 138.543 35.0642 16.1201
397 2 142.605 35.0078 16.1066
398 2 146.355 35.1419 16.0487
399 2 150.143 35.1213 0.163517
400 2 154.151 35.0449 0.120591
401 2 157.973 39.0215 -0.0235758
402 2 3.60764 38.9537 15.8215
403 2 7.64166 38.8552 16.1211
404 2 11.6043 38.8194 0.0850348
405 2 15.5809 38.8494 0.0425672
406 2 19.2569 38.8884 15.8047
407 2 23.1618 38.9776 15.9261
408 2 27.2507 38.9679 -0.152275
409 2 31.3307 39.021 15.6639
410 2 35.1756 39.1231 0.402601
411 2 39.2503 39.2571 0.235385
412 2 43.1498 39.2394 0.119409
413 2 47.2313 39.128 0.431746
414 2 51.1975 39.1341 0.286669
415 2 55.0003 39.3938 0.168342
416 2 59.1332 39.541 0.0213533
417 2 63.2285 39.4037 15.9332
418 2 67.3306 39.6473 0.325832
419 2 71.3606 39.3927 0.0922305
420 2 75.1378 39.4552 0.135373
421 2 79.3264 39.4823 15.7708
422 2 83.33 39.5434 16.0841
423 2 87.3085 39.6017 15.9797
424 2 91.1661 39.655 15.8554
425 2 95.3471 39.6318 15.9002
426 2 99.2991 40.0596 0.154134
427 2 103.302 39.6014 0.14895
428 2 107.312 39.7676 16.0659
429 2 111.092 39.5432 15.8913
430 2 115.03 39.6059 16.0587
431 2 118.886 39.3979 16.008
432 2 123.014 39.3465 0.29396
433 2 126.825 39.2908 15.9407
434 2 130.623 39.2726 0.387392
435 2 134.588 39.1075 0.230862
436 2 138.622 39.09 15.9325
437 2 142.449 39.236 15.8665
438 2 146.429 39.1142 0.218559
439 2 150.369 39.039 15.9003
440 2 154.214 39.0816 0.2209
441 2 158.092 42.9649 0.164856
442 2 3.96722 42.7893 0.0446822
443 2 7.56216 42.7718 0.336106
444 2 11.4082 42.9253 -0.00180547
445 2 15.5294 42.8264 0.189412
446 2 19.3011 42.8396 15.9304
447 2 23.257 42.9244 -0.00714973
448 2 27.3915 42.6889 0.176802
449 2 31.0852 42.8332 -0.0374291
450 2 35.1534 42.8999 0.326221
451 2 39.2154 43.0436 0.142228
452 2 43.3729 43.1837 0.169391
453 2 47.3395 43.0312 0.207929
454 2 51.1402 42.9796 0.0584606
455 2 55.0938 43.2305 0.194431
456 2 59.2673 43.4099 0.134597
457 2 63.3119 43.323 0.138668
458 2 67.2992 43.4159 15.9106
459 2 71.2484 43.4119 15.8626
460 2 75.079 43.417 0.0257483
461 2 79.1496 43.537 0.176204
462 2 83.2179 43.4177 15.8694
463 2 87.3767 43.4503 16.1121
464 2 91.2064 43.6778 15.8347
465 2 95.318 43.37 0.153947
466 2 99.3674 43.6732 0.0130668
467 2 103.272 43.6202 0.280792
468 2 107.357 43.6575 0.39954
469 2 111.272 43.6789 16.14
470 2 115.346 43.6443 16.09
471 2 118.97 43.4274 0.255658
472 2 122.818 43.2924 0.263384
473 2 126.923 43.2756 0.217097
474 2 130.841 43.1866 0.333822
475 2 134.7 43.3256 16.1597
476 2 138.517 43.1571 16.1005
477 2 142.608 43.1709 16.0466
478 2 146.232 43.0332 16.0146
479 2 150.097 43.1732 0.177914
480 2 154.255 43.1802 16.1798
481 2 158.135 46.9335 15.9314
482 2 3.76629 46.8893 15.8607
483 2 7.7353 46.9669 15.9379
484 2 11.5309 46.9379 15.7906
485 2 15.5512 46.8192 0.221401
486 2 19.2864 46.8444 16.0575
487 2 23.3952 46.8035 0.409755
488 2 27.2781 46.8986 0.224382
489 2 31.1395 46.6589 0.383085
490 2 35.1306 46.8542 0.347395
491 2 39.1026 46.8462 0.224791
492 2 43.1931 47.104 0.113619
493 2 46.9934 46.975 15.8755
494 2 51.2349 47.0051 15.8072
495 2 55.1741 47.1433 0.243558
496 2 59.1477 47.1119 16.034
497 2 63.1039 47.2544 0.298515
498 2 67.3188 47.41 0.119415
499 2 71.2856 47.2582 0.286256
500 2 75.0744 47.3884 15.8198
501 2 79.201 47.4354 15.8997
502 2 83.2121 47.3832 -0.0104885
503 2 87.234 47.508 -0.0203831
504 2 91.0644 47.4598 15.8142
505 2 95.2496 47.5349 0.0123703
506 2 99.0522 47.4948 0.243342
507 2 103.375 47.5142 15.9173
508 2 107.22 47.5253 0.255449
509 2 111.158 47.6 15.9017
510 2 115.21 47.728 15.939
511 2 119.186 47.4873 0.210048
512 2 123.142 47.4271 0.0964661
513 2 126.925 47.3655 0.214672
514 2 130.777 47.3446 0.0922598
515 2 134.743 47.2012 16.0083
516 2 138.598 47.2096 0.0205997
517 2 142.524 47.221 15.8516
518 2 146.467 47.2883 0.15265
519 2 150.34 47.2365 15.8474
520 2 154.175 47.2436 0.298671
521 2 158.207 51.1415 -0.0132322
522 2 3.79753 51.0988 0.180903
523 2 7.97094 50.8805 0.20809
524 2 11.6085 50.9506 16.0079
525 2 15.5096 51.0091 0.218896
526 2 19.5067 51.0717 0.289923
527 2 23.3613 50.7135 0.213149
528 2 27.335 50.8883 16.0531
529 2 31.317 50.8324 15.9868
530 2 35.2736 50.7625 0.114881
531 2 39.3594 50.7213 15.8947
532 2 43.109 50.9246 0.109829
533 2 47.1998 50.9148 0.0427793
534 2 51.0511 51.0869 16.0652
535 2 55.2055 51.0477 16.0352
536 2 59.136 50.9349 15.7233
537 2 63.1242 51.1632 0.179412
538 2 67.1788 51.145 0.032758
539 2 71.0725 51.1116 16.1048
540 2 75.3236 51.2157 0.020088
541 2 79.1475 51.2602 15.8885
542 2 83.0721 51.3747 15.7505
543 2 87.1139 51.308 15.6976
544 2 91.2131 51.4481 0.316668
545 2 95.1242 51.2322 0.159631
546 2 99.0961 51.3526 16.2285
547 2 103.083 51.3673 0.297851
548 2 107.137 51.3996 15.8319
549 2 110.913 51.5035 0.162755
550 2 115.138 51.4244 0.243191
551 2 119.239 51.4543 0.371089
552 2 123.106 51.4188 0.256099
553 2 127.092 51.5733 15.9742
554 2 130.719 51.5595 0.25834
555 2 134.573 51.3178 15.9647
556 2 138.635 51.2416 0.286756
557 2 142.547 51.2821 15.9375
558 2 146.492 51.0967 15.9218
559 2 150.388 50.9854 0.115079
560 2 154.329 51.1614 0.385225
561 2 158.191 55.0666 0.198084
562 2 3.88026 54.9292 0.0372128
563 2 7.68194 54.8701 0.0546116
564 2 11.7153 54.9855 15.9325
565 2 15.6711 54.9238 15.798
566 2 19.3636 54.7987 15.8897
567 2 23.4251 54.7833 15.8491
568 2 27.314 54.8111 16.0575
569 2 31.3206 54.7861 -0.0117245
570 2 35.1801 54.6542 15.8793
571 2 39.2732 54.7074 0.229303
572 2 43.2413 54.7778 15.9769
573 2 47.1026 54.8682 15.8193
574 2 51.0983 54.9302 15.9723
575 2 55.097 54.9687 0.236172
576 2 59.1462 55.0241 0.155239
577 2 63.395 55.0371 15.9491
578 2 67.177 54.9709 0.0974842
579 2 71.4146 55.078 15.9288
580 2 75.1726 55.1088 16.0061
581 2 79.083 55.3098 15.9043
582 2 82.8707 55.2229 15.8729
583 2 87.1582 55.2676 0.102215
584 2 91.2138 55.2785 0.0168476
585 2 95.2547 55.0885 0.0765005
586 2 99.2599 55.3312 15.7995
587 2 103.134 55.3784 0.23638
588 2 107.263 55.5406 0.0711101
589 2 111.325 55.4583 16.2177
590 2 115.342 55.3802 0.0271299
591 2 119.104 55.6045 0.196981
592 2 123.256 55.4405 0.18814
593 2 127.126 55.367 15.8572
594 2 131.085 55.5323 16.0372
595 2 135.084 55.3845 16.024
596 2 138.801 55.3415 0.162056
597 2 142.65 55.1289 0.138718
598 2 146.522 55.0719 15.8686
599 2 150.484 55.116 15.9652
600 2 154.285 55.0488 0.236058
601 2 0.14198 58.9268 0.192082
602 2 4.13216 59.005 0.0164986
603 2 7.9641 59.025 0.0163773
604 2 11.7436 58.8806 15.8752
605 2 15.5546 58.8101 0.118632
606 2 19.5772 58.9734 15.9649
607 2 23.421 58.764 15.9289
608 2 27.402 58.8092 0.167122
609 2 31.3271 58.8266 16.0857
610 2 35.3451 58.7014 -0.0392561
611 2 39.2514 58.5034 0.116949
612 2 43.0766 58.625 15.8166
613 2 46.9679 58.8724 0.133744
614 2 51.0674 58.6866 16.2317
615 2 55.1765 58.8036 16.0382
616 2 59.0377 58.8032 15.9622
617 2 63.0481 58.8656 -0.119704
618 2 67.1683 59.0988 15.8486
619 2 71.1121 59.1818 0.0327687
620 2 75.0941 59.1612 -0.111106
621 2 79.0495 59.2742 15.6587
622 2 83.0826 59.1561 15.8838
623 2 87.2329 59.2849 0.0942922
624 2 91.1461 59.148 0.289287
625 2 95.0119 59.1101 0.16716
626 2 99.0035 59.3558 15.8535
627 2 102.967 59.3454 0.0504682
628 2 107.216 59.5683 0.183085
629 2 111.169 59.545 0.124356
630 2 115.203 59.2998 -0.0946797
631 2 119.186 59.5893 0.222991
632 2 123.12 59.4692 0.257096
633 2 127.156 59.4702 0.235042
634 2 131.165 59.4408 15.9619
635 2 134.865 59.098 0.227362
636 2 138.774 59.1794 0.239221
637 2 142.732 59.3695 15.7759
638 2 146.608 59.1882 0.189769
639 2 150.548 59.0433 0.0130167
640 2 154.662 59.0981 0.160169
641 2 0.032702 63.0763 15.7591
642 2 4.08773 62.9336 15.854
643 2 8.02133 63.0885 0.177798
644 2 11.8116 63.0071 0.273172
645 2 15.7806 63.1845 15.7885
646 2 19.7926 62.9853 15.9432
647 2 23.599 62.8669 15.8468
648 2 27.5187 62.8706 0.141735
649 2 31.4856 62.9109 15.8135
650 2 35.39 62.8225 15.7386
651 2 39.1583 62.8575 0.157026
652 2 43.1669 62.6405 0.281491
653 2 47.298 62.6724 16.0033
654 2 51.0388 62.9227 0.131514
655 2 55.045 62.8482 0.0912543
656 2 59.1106 62.9151 0.205439
657 2 63.1277 62.9415 0.0489525
658 2 67.1435 62.828 0.286304
659 2 71.0039 63.1207 0.236325
660 2 74.9661 63.1894 15.9389
661 2 79.2195 63.0694 15.7445
662 2 83.0281 63.1184 15.8395
663 2 87.0869 62.8688 0.269818
664 2 91.1471 63.1895 16.0456
665 2 94.9631 63.044 0.0914731
666 2 99.0838 63.2037 0.201313
667 2 103.186 63.172 0.162428
668 2 107.277 63.1624 0.00428908
669 2 111.434 63.2657 -0.0312915
670 2 115.207 63.3288 -0.107637
671 2 119.231 63.3965 15.7154
672 2 123.147 63.6041 16.0958
673 2 127.105 63.3914 15.8738
674 2 130.93 63.4419 0.22147
675 2 134.76 63.2462 15.8913
676 2 138.582 63.4522 0.0309855
677 2 142.538 63.4213 -0.0307894
678 2 146.559 63.1764 0.145001
679 2 150.475 63.3891 15.8397
680 2 154.498 62.9429 15.8875
681 2 0.268407 67.1536 0.274012
682 2 4.05339 66.933 0.119197
683 2 7.94087 66.8997 0.017573
684 2 11.9181 67.15 16.0798
685 2 15.8456 67.0254 15.8466
686 2 19.7638 66.9422 16.0572
687 2 23.7786 66.9053 15.9668
688 2 27.5914 66.9278 15.9826
689 2 31.371 66.8672 0.105194
690 2 35.2825 66.9106 0.235494
691 2 39.0933 66.9333 0.180213
692 2 43.2141 66.757 16.0402
693 2 47.0474 66.6287 0.267902
694 2 50.8056 66.6407 16.1593
695 2 55.0733 66.6429 15.9864
696 2 58.7703 66.7563 16.1491
697 2 63.1624 67.0239 16.1071
698 2 66.9851 66.8025 16.3293
699 2 70.9572 66.8484 0.200947
700 2 75.0196 67.0992 0.0334678
701 2 78.7987 67.0187 16.0236
702 2 83.1654 66.8771 15.9443
703 2 87.2089 66.9896 15.8679
704 2 90.9589 67.0765 0.203372
705 2 94.9353 67.1859 16.1134
706 2 99.1325 67.0041 16.0202
707 2 103.107 67.0924 0.264363
708 2 107.152 67.0536 15.9481
709 2 111.159 67.0691 0.102445
710 2 115.005 67.2991 0.00600742
711 2 119.089 67.1968 0.0453389
712 2 123.181 67.3143 15.6925
713 2 127.192 67.4659 15.9708
714 2 131.104 67.4836 16.0507
715 2 134.945 67.416 16.0658
716 2 138.896 67.6073 15.8912
717 2 142.863 67.1714 15.9434
718 2 146.861 67.2166 0.181798
719 2 150.822 67.2037 16.1206
720 2 154.578 66.9037 15.6919
721 2 0.269271 71.044 16.0184
722 2 4.10303 71.1567 15.8977
723 2 7.94493 70.8816 0.116183
724 2 11.7969 70.9681 15.9735
725 2 15.8168 71.016 15.882
726 2 19.6783 70.9786 0.160919
727 2 23.6166 70.9382 15.8727
728 2 27.8697 70.8151 15.8779
729 2 31.5945 70.7417 15.969
730 2 35.2567 70.7318 15.9182
731 2 39.2719 70.6682 15.8476
732 2 43.1942 70.6617 0.332315
733 2 47.1176 70.7023 15.7664
734 2 51.2384 70.5735 15.8836
735 2 54.8764 70.6171 16.1079
736 2 58.8292 70.6253 0.422952
737 2 62.9424 70.5502 15.9697
738 2 66.9916 70.7216 0.218185
739 2 70.8454 70.722 16.1063
740 2 74.9237 70.983 15.9954
741 2 79.1682 70.7237 15.9944
742 2 83.0493 70.8782 0.0187268
743 2 87.0177 70.8566 16.0605
744 2 90.9276 71.0292 0.24696
745 2 95.1741 71.0802 0.379217
746 2 98.9464 71.0373 15.9224
747 2 103.179 70.9199 0.152335
748 2 107.102 71.0016 0.108636
749 2 111.056 71.1436 16.0444
750 2 115.1 70.955 0.309138
751 2 119.148 71.175 15.8038
752 2 123.096 71.2664 0.147317
753 2 127.064 71.2129 15.7248
754 2 131.118 71.4023 15.9863
755 2 135.052 71.4707 15.873
756 2 139.251 71.4601 15.8371
757 2 143.067 71.3048 16.02
758 2 146.793 71.1845 15.9058
759 2 150.909 71.0381 15.8953
760 2 154.775 71.1422 15.767
761 2 0.163344 75.0731 15.7628
762 2 4.27854 75.1323 15.9311
763 2 7.96066 75.0331 15.8712
764 2 11.9259 75.0384 16.0424
765 2 15.6821 74.9914 15.9099
766 2 19.9136 75.0677 15.9291
767 2 23.7672 74.9838 15.7819
768 2 27.4206 74.97 16.0868
769 2 31.3571 74.9241 0.443734
770 2 35.4005 74.7409 15.9949
771 2 39.3728 74.6039 16.1932
772 2 43.2108 74.6624 0.173623
773 2 47.2114 74.6331 16.1694
774 2 51.0681 74.4792 0.133715
775 2 55.1429 74.5612 16.1377
776 2 58.9482 74.4764 15.9805
777 2 62.8878 74.6559 15.9282
778 2 67.0802 74.7347 15.9649
779 2 71.1123 74.7635 15.7631
780 2 75.1306 74.8734 0.314595
781 2 78.951 74.8938 15.9628
782 2 82.9225 74.7517 15.9757
783 2 87.0073 74.8561 16.0459
784 2 90.8466 74.7863 0.36072
785 2 95.0371 74.9116 16.0335
786 2 98.9397 74.6234 0.206138
787 2 102.985 74.9543 15.8151
788 2 107.057 74.9408 0.0673299
789 2 111.155 75.0401 16.0519
790 2 114.941 75.1342 0.177124
791 2 118.999 74.9715 15.9243
792 2 123.109 75.1409 16.0037
793 2 127.074 75.2534 -0.0392515
794 2 131.109 75.264 0.0292679
795 2 135.063 75.3021 16
796 2 139.108 75.3313 15.9846
797 2 142.834 75.3843 0.152408
798 2 146.739 75.2655 15.8084
799 2 150.757 75.0797 15.8431
800 2 154.683 75.1172 0.279837
801 2 0.154703 79.1359 15.9316
802 2 4.00162 79.1983 15.8528
803 2 7.96727 79.0446 16.0546
804 2 12.0796 79.0478 15.9377
805 2 15.9058 79.1406 16.0314
806 2 19.8949 79.0333 15.9403
807 2 23.7831 78.9735 15.9882
808 2 27.6469 78.8733 16.0118
809 2 31.4165 78.8519 0.187759
810 2 35.4786 78.8876 15.9025
811 2 39.5259 78.8326 0.171558
812 2 43.3789 78.8907 0.142613
813 2 47.2243 78.5838 0.307214
814 2 51.158 78.5381 15.8902
815 2 55.0295 78.4348 16.0317
816 2 59.0552 78.3119 15.9685
817 2 62.7761 78.5579 15.7576
818 2 66.7224 78.4567 15.9611
819 2 70.8492 78.5676 15.8679
820 2 74.9734 78.7002 16.0483
821 2 79.1362 78.7859 0.000905638
822 2 82.8345 78.5975 0.100865
823 2 87.0939 78.7065 0.0836641
824 2 90.8048 78.5291 0.0277049
825 2 94.8449 78.6835 0.0900466
826 2 99.0013 78.6939 15.9845
827 2 102.955 78.7369 -7.07199e-05
828 2 107.163 78.9344 15.8296
829 2 111.108 79.053 0.321996
830 2 115.109 78.8787 15.9213
831 2 119.024 79.121 0.240522
832 2 123.001 78.9621 0.122821
833 2 127.024 79.1532 15.9084
834 2 130.993 79.1359 0.129323
835 2 135.085 79.3047 16.016
836 2 139.156 79.2986 15.9811
837 2 142.961 79.2898 16.1114
838 2 147.001 79.2084 15.8889
839 2 150.672 79.1051 15.8498
840 2 154.507 79.1885 15.8463
841 2 0.49494 83.0514 15.9657
842 2 4.19286 83.1355 15.9225
843 2 8.08483 83.0973 15.9482
844 2 11.9043 83.209 15.8564
845 2 16.0382 82.9179 16.0843
846 2 19.9467 82.946 15.8041
847 2 23.7412 82.8001 15.9677
848 2 27.7292 82.7074 15.9688
849 2 31.6088 82.7981 16.0843
850 2 35.4668 82.7233 15.9564
851 2 39.4727 82.7891 0.244955
852 2 43.2605 82.6517 16.0095
853 2 47.279 82.531 16.0643
854 2 51.2866 82.6222 15.9845
855 2 55.1172 82.5783 16.013
856 2 58.9511 82.4833 15.8562
857 2 62.7757 82.6546 15.9471
858 2 66.8422 82.4365 0.26704
859 2 70.8016 82.2676 0.0285606
860 2 74.808 82.6047 16.0407
861 2 78.8457 82.7368 -0.0526262
862 2 82.8579 82.5921 15.7628
863 2 86.8334 82.4674 16.0431
864 2 90.9897 82.6534 0.055619
865 2 94.9918 82.4131 15.8432
866 2 98.7801 82.5927 15.9372
867 2 102.937 82.6424 0.186341
868 2 106.981 82.6368 0.00641967
869 2 110.949 82.9361 15.9806
870 2 114.863 82.7123 15.8169
871 2 118.84 82.8944 0.203149
872 2 122.955 82.7123 15.9722
873 2 127.23 83.1656 0.0540101
874 2 131.146 83.2873 15.9189
875 2 135.021 83.2765 0.237608
876 2 139.082 83.3319 15.8926
877 2 143.125 83.2779 0.230233
878 2 146.93 83.1167 0.220202
879 2 150.797 83.176 16.0023
880 2 154.613 83.1077 15.9629
881 2 0.400396 87.1154 15.8104
882 2 4.22724 87.2417 0.157219
883 2 8.17678 87.1726 15.694
884 2 11.9911 87.0629 15.9772
885 2 15.9804 86.9758 0.253352
886 2 19.8575 87.0291 15.6984
887 2 23.7929 86.9038 15.9461
888 2 27.7106 86.6939 15.9858
889 2 31.5891 86.8288 16.0234
890 2 35.5661 87.0248 15.9583
891 2 39.4649 86.7307 16.0597
892 2 43.3751 86.6077 16.0008
893 2 47.4537 86.6711 0.216373
894 2 51.2075 86.6382 0.31227
895 2 55.0591 86.6404 -0.0503713
896 2 59.0214 86.5481 15.831
897 2 62.981 86.3512 15.9121
898 2 66.6939 86.3944 0.245318
899 2 70.7839 86.3844 -0.0063975
900 2 74.9115 86.5387 15.9372
901 2 78.9474 86.6024 -0.049332
902 2 82.9354 86.5458 0.156867
903 2 87.0723 86.5247 16.0237
904 2 90.9131 86.3789 0.178229
905 2 95.0509 86.6976 16.0474
906 2 98.9626 86.4604 15.8254
907 2 102.889 86.3278 0.210228
908 2 106.993 86.6599 0.106421
909 2 110.98 86.7163 15.7451
910 2 115.063 86.6226 0.216754
911 2 119.092 86.713 0.127158
912 2 123.02 86.8858 0.347899
913 2 127.119 87.0403 16.1116
914 2 131.047 87.1939 0.22765
915 2 135.143 87.1522 16.0684
916 2 138.986 87.1729 0.275472
917 2 143.098 87.4083 0.243658
918 2 147.032 87.379 0.429333
919 2 150.996 87.2446 15.8859
920 2 154.822 87.134 16.0595
921 2 0.507667 91.2601 16.1613
922 2 4.34912 91.0251 0.447608
923 2 8.10934 91.1422 0.442792
924 2 12.1121 91.2786 0.38826
925 2 16.0666 91.0377 15.9914
926 2 19.9022 90.9315 16.1302
927 2 23.8377 90.8172 16.1168
928 2 27.8777 90.6576 16.0302
929 2 31.6162 90.9187 16.2571
930 2 35.8053 90.9686 15.9342
931 2 39.5835 90.8911 15.7911
932 2 43.2718 90.4806 0.147515
933 2 47.3953 90.5361 15.942
934 2 51.1692 90.7428 15.9298
935 2 55.0474 90.5652 15.9002
936 2 59.1086 90.317 16.1675
937 2 63.124 90.4463 0.241562
938 2 67.0123 90.3603 15.7828
939 2 70.7942 90.2934 15.9072
940 2 74.8758 90.3624 16.0577
941 2 78.7902 90.6518 0.256087
942 2 82.8511 90.2675 0.0578166
943 2 86.9475 90.3021 15.8
944 2 90.9803 90.1663 0.203723
945 2 94.924 90.4042 0.063799
946 2 98.7662 90.2442 0.269622
947 2 102.811 90.6375 0.127693
948 2 106.987 90.6208 0.195338
949 2 110.924 90.5915 15.9992
950 2 114.868 90.573 0.261465
951 2 118.888 90.5535 0.273112
952 2 122.918 90.7944 0.341914
953 2 126.897 90.8178 0.217188
954 2 130.804 90.8995 16.1621
955 2 134.802 91.0275 0.180645
956 2 138.844 91.1289 0.361707
957 2 142.852 91.2404 0.294433
958 2 146.91 91.0422 0.166728
959 2 150.84 91.2482 15.9939
960 2 154.724 91.2808 0.0716726
961 2 0.344122 95.1201 16.2456
962 2 4.09709 95.2608 16.2431
963 2 8.18555 95.0357 0.0941036
964 2 11.9776 94.9756 16.0546
965 2 16.0414 94.9645 15.8999
966 2 19.8717 94.8912 16.0589
967 2 23.7773 94.8678 16.0785
968 2 27.8233 94.9357 15.9539
969 2 31.8008 94.6867 16.0326
970 2 35.7088 94.8291 0.163099
971 2 39.7009 94.8076 16.0333
972 2 43.4254 94.6446 15.7305
973 2 47.4487 94.6502 15.9639
974 2 51.3793 94.6313 0.473134
975 2 55.1124 94.7213 16.1417
976 2 59.1399 94.5752 16.064
977 2 63.1119 94.494 15.9651
978 2 66.9559 94.3645 0.308559
979 2 70.782 94.1627 0.328252