ITEM: TIMESTEP
17800
ITEM: NUMBER OF ATOMS
32000
ITEM: BOX BOUNDS xy xz yz pp pp pp
0.0000000000000000e+00 1.5831999999999999e+02 0.0000000000000000e+00
0.0000000000000000e+00 1.5831999999999999e+02 0.0000000000000000e+00
1.6377073113104945e-01 1.5933941268868764e+01 0.0000000000000000e+00
ITEM: ATOMS id type x y z
1 2 157.947 157.912 15.8011
2 2 3.83983 157.896 0.0462975
3 2 7.93873 158.112 0.22042
4 2 11.8104 157.917 15.9153
5 2 15.8239 158.005 0.236383
6 2 19.8783 158.047 0.0727242
7 2 23.7649 158.189 15.9757
8 2 27.9758 158.04 0.177972
9 2 31.8291 158.073 15.7848
10 2 35.9457 158.221 0.112919
11 2 39.8493 158.216 0.0542602
12 2 43.8349 158.168 15.7769
13 2 47.7227 0.133753 16.0982
14 2 51.8062 0.0945117 15.7606
15 2 55.7572 158.539 16.054
16 2 59.5415 0.20572 15.806
17 2 63.7165 0.156079 0.0824235
18 2 67.398 -0.0214952 0.00898891
19 2 71.5091 158.342 15.7299
20 2 75.3497 158.28 15.9025
21 2 79.2693 158.202 16.145
22 2 83.1461 158.258 0.0759498
23 2 87.2668 158.042 0.157079
24 2 91.3088 158.191 -0.0317428
25 2 94.9754 157.933 0.28828
26 2 98.8605 157.98 0.0567678
27 2 102.822 158.101 0.00656635
28 2 106.731 157.764 15.8824
29 2 110.492 157.682 -0.0392326
30 2 114.372 157.652 -0.0186389
31 2 118.458 157.92 0.098364
32 2 122.339 157.765 16.0588
33 2 126.293 157.822 15.9284
34 2 130.238 157.848 15.9353
35 2 133.959 157.648 15.7367
36 2 138.031 157.627 15.9042
37 2 142.187 157.694 15.7891
38 2 146.201 157.718 15.792
39 2 150.047 157.814 15.7819
40 2 154.011 157.795 15.7107
41 2 158.015 3.52162 0.0265538
42 2 3.8036 3.45145 15.89
43 2 7.64049 3.37841 -0.05628
44 2 11.8434 3.58009 0.378663
45 2 15.6281 3.57244 0.155415
46 2 19.7128 3.78197 15.8594
47 2 23.7628 3.70693 0.108554
48 2 27.8171 3.83997 0.240096
49 2 31.7881 3.56637 0.0651749
50 2 35.7503 3.85252 0.0155076
51 2 39.7697 3.89696 0.245466
52 2 43.7568 3.8014 0.0750467
53 2 47.8813 3.97871 16.0199
54 2 51.6774 3.9674 -0.00194341
55 2 55.7155 4.15049 0.0717776
56 2 59.6614 4.15856 0.16212
57 2 63.6851 4.28992 16.1113
58 2 67.6065 3.89599 0.1223
59 2 71.316 3.82604 0.102622
60 2 75.5666 3.93516 0.240977
61 2 79.3994 4.00202 0.294725
62 2 83.4608 3.84888 0.126172
63 2 87.308 3.83621 0.157332
64 2 91.0902 3.78502 -0.0723836
65 2 94.9301 3.66875 15.8491
66 2 98.8658 3.64973 0.0336504
67 2 102.941 3.62374 0.236359
68 2 106.666 3.53515 15.7931
69 2 110.496 3.30891 15.7948
70 2 114.483 3.29493 15.9774
71 2 118.381 3.46344 16.0045
72 2 122.549 3.4284 0.225196
73 2 126.202 3.35277 15.7457
74 2 130.018 3.45356 -0.0136922
75 2 134.274 3.33717 15.8047
76 2 138.144 3.27682 0.130141
77 2 141.994 3.48231 15.8463
78 2 146.011 3.36446 0.300181
79 2 149.991 3.50264 16.0032
80 2 153.95 3.37074 15.7617
81 2 158.086 7.48926 0.31358
82 2 3.73403 7.29382 15.8937
83 2 7.82996 7.46308 16.0403
84 2 11.7021 7.55412 15.9187
85 2 15.6559 7.36164 0.140797
86 2 19.7686 7.52203 15.8634
87 2 23.5592 7.70077 0.101965
88 2 27.6815 7.76626 -0.0659214
89 2 31.5897 7.73942 15.8498
90 2 35.6278 7.8419 16.0428
91 2 39.6004 7.9541 15.8878
92 2 43.8199 7.61508 16.0508
93 2 47.7004 7.81189 0.176083
94 2 51.6202 8.00893 15.9279
95 2 55.6334 8.15073 0.182743
96 2 59.5369 8.06219 0.145574
97 2 63.7998 8.01507 0.0711004
98 2 67.6063 7.96862 0.162812
99 2 71.7402 8.11817 0.230766
100 2 75.5647 7.90606 0.281974
101 2 79.434 8.03409 16.0953
102 2 83.3179 7.98192 0.0735873
103 2 87.2614 7.79232 15.8154
104 2 91.076 7.82223 0.1811
105 2 95.052 7.58851 0.144366
106 2 98.8022 7.69087 0.0474273
107 2 102.966 7.69507 0.023199
108 2 106.643 7.66986 0.120884
109 2 110.689 7.46404 0.00405877
110 2 114.779 7.2065 0.0988716
111 2 118.611 7.32404 0.0595618
112 2 122.382 7.40743 0.0461272
113 2 126.529 7.53757 15.9885
114 2 130.389 7.28316 0.170744
115 2 134.162 7.45974 -0.0346136
116 2 138.187 7.3306 15.7551
117 2 142.228 7.26871 15.8295
118 2 146.22 7.42372 0.0555651
119 2 149.917 7.32312 15.9333
120 2 154.156 7.47522 16.1889
121 2 158.005 11.3671 0.303647
122 2 3.65748 11.3351 0.0746539
123 2 7.48095 11.3202 16.0057
124 2 11.5821 11.3676 15.9641
125 2 15.6351 11.4276 15.8593
126 2 19.6197 11.4262 0.120038
127 2 23.6295 11.4842 0.355381
128 2 27.6637 11.5902 0.197751
129 2 31.5161 11.6692 0.25366
130 2 35.5408 11.6124 0.247153
131 2 39.6243 11.8382 0.431127
132 2 43.6014 11.5558 16.0482
133 2 47.6938 11.9163 15.9494
134 2 51.6129 11.8218 15.8056
135 2 55.7193 11.9042 0.144839
136 2 59.5502 11.8263 15.8946
137 2 63.4978 11.741 0.106408
138 2 67.5939 12.0248 16.105
139 2 71.617 11.9633 0.256877
140 2 75.7161 12.0334 0.261096
141 2 79.5336 11.8806 0.252188
142 2 83.2737 11.9285 0.0423923
143 2 87.3563 11.8271 0.223398
144 2 91.1402 11.8927 -0.01761
145 2 95.1639 11.8723 -0.120896
146 2 98.9726 11.6165 -0.103715
147 2 102.914 11.6305 0.00372107
148 2 106.889 11.8151 0.0208127
149 2 110.684 11.5511 0.178271
150 2 114.733 11.4493 0.191703
151 2 118.417 11.3954 -0.00894109
152 2 122.404 11.3321 0.0834279
153 2 126.597 11.2773 0.0918958
154 2 130.237 11.396 15.7447
155 2 134.078 11.2303 0.22725
156 2 138.011 11.2587 0.144891
157 2 142.023 11.1275 15.9235
158 2 146.163 11.3271 15.87
159 2 149.962 11.2185 16.1346
160 2 154.009 11.0963 16.0577
161 2 157.833 15.0649 0.314031
162 2 3.67834 15.2192 0.226074
163 2 7.69725 15.206 0.175398
164 2 11.56 15.3294 15.8294
165 2 15.752 15.3728 15.9859
166 2 19.7613 15.2424 0.247775
167 2 23.7817 15.5755 0.0112521
168 2 27.7009 15.4938 15.9181
169 2 31.68 15.4331 15.927
170 2 35.5963 15.4312 0.209979
171 2 39.6494 15.9167 16.1252
172 2 43.3855 15.6945 0.145171
173 2 47.5392 15.6773 0.212004
174 2 51.5764 15.7749 -0.07849
175 2 55.4584 16.0551 15.9858
176 2 59.4961 15.6234 0.139728
177 2 63.689 15.8761 0.0869092
178 2 67.6168 15.9127 0.114168
179 2 71.5584 15.927 0.00393753
180 2 75.4593 16.1963 15.9177
181 2 79.4804 16.1242 0.286571
182 2 83.4022 15.9136 -0.0179117
183 2 87.3456 15.7753 0.0900885
184 2 91.2148 15.6318 0.192474
185 2 95.1649 15.8444 0.152751
186 2 99.0787 15.5332 0.100627
187 2 103.091 15.5886 -0.0544078
188 2 106.846 15.8381 -0.0189889
189 2 110.698 15.5755 0.0367911
190 2 114.797 15.6051 0.0817968
191 2 118.417 15.467 0.136509
192 2 122.387 15.3031 15.94
193 2 126.24 15.4124 0.0145242
194 2 130.253 15.2719 0.150572
195 2 134.089 15.368 0.347328
196 2 138.072 15.2337 0.319695
197 2 142.114 15.0301 0.225396
198 2 146.12 15.135 0.129638
199 2 150.191 15.4038 15.8164
200 2 154.044 15.0871 0.301167
201 2 157.835 19.1102 15.9545
202 2 3.55008 19.1453 0.157923
203 2 7.38392 19.2039 16
204 2 11.5125 19.1355 15.9869
205 2 15.4479 19.238 15.8727
206 2 19.6091 19.3832 0.299179
207 2 23.5615 19.3904 -0.0431344
208 2 27.5129 19.4344 -0.0268572
209 2 31.6793 19.5415 16.0492
210 2 35.6302 19.5911 15.8807
211 2 39.5845 19.4918 0.216216
212 2 43.5026 19.7236 16.254
213 2 47.5559 19.5417 15.8834
214 2 51.4994 19.8042 15.7279
215 2 55.5309 19.668 15.9565
216 2 59.7129 19.7612 15.8588
217 2 63.7255 19.8696 15.9984
218 2 67.5588 19.6993 15.7905
219 2 71.6064 19.8488 0.101482
220 2 75.5965 19.8898 0.110516
221 2 79.59 19.9897 -0.112877
222 2 83.5583 20.033 0.073714
223 2 87.5191 19.7316 16.0329
224 2 91.2772 19.7537 0.210817
225 2 95.2292 19.7679 0.114075
226 2 98.9486 19.823 15.996
227 2 103.019 19.6385 15.9749
228 2 106.762 19.7536 15.8974
229 2 110.891 19.6071 0.0815882
230 2 114.709 19.4398 0.201598
231 2 118.75 19.5163 15.8396
232 2 122.472 19.4359 0.13893
233 2 126.33 19.2288 0.0273808
234 2 130.296 19.3226 0.228246
235 2 134.261 19.4865 16.1571
236 2 138.197 19.3194 15.9151
237 2 142.054 19.1629 0.205829
238 2 145.902 19.1034 0.188483
239 2 149.958 19.1725 0.147321
240 2 154.04 19.2355 16.0981
241 2 157.697 23.2889 15.8228
242 2 3.53468 23.2463 15.8348
243 2 7.47532 23.0488 0.130527
244 2 11.4984 23.1812 15.8915
245 2 15.3197 23.011 15.8186
246 2 19.3578 23.3628 0.0150231
247 2 23.4029 23.3357 15.9069
248 2 27.2835 23.401 15.6072
249 2 31.5466 23.2632 0.110689
250 2 35.5785 23.3757 15.8927
251 2 39.3346 23.3805 0.106293
252 2 43.4639 23.4634 15.9269
253 2 47.3317 23.5452 15.9304
254 2 51.494 23.4418 -0.0322076
255 2 55.5634 23.6636 15.9443
256 2 59.4748 23.6226 15.8803
257 2 63.4082 23.7007 15.8606
258 2 67.5116 23.7339 0.0242
259 2 71.5292 23.5346 0.150688
260 2 75.6466 23.6536 -0.0325791
261 2 79.55 24.0319 15.8797
262 2 83.6768 23.8771 15.7734
263 2 87.3002 23.9471 -0.0590154
264 2 91.2853 24.0333 15.9685
265 2 95.1203 24.0043 16.0553
266 2 98.9095 23.5874 0.207352
267 2 102.875 23.6773 0.132609
268 2 106.795 23.489 0.308757
269 2 110.849 23.5765 0.220486
270 2 114.681 23.5673 15.7786
271 2 118.769 23.5474 15.9453
272 2 122.743 23.4633 0.139841
273 2 126.551 23.384 0.192299
274 2 130.477 23.1937 16.0056
275 2 134.374 23.3606 0.126618
276 2 138.298 23.3183 15.7738
277 2 142.177 23.2685 0.170104
278 2 146.064 23.1538 0.111293
279 2 149.962 23.2435 0.351876
280 2 153.835 23.0822 0.139725
281 2 157.864 27.2751 0.27649
282 2 3.50016 27.0172 15.8755
283 2 7.36253 27.0516 0.267954
284 2 11.5297 27.2042 15.9314
285 2 15.4403 26.9736 15.7823
286 2 19.3783 27.2482 0.218073
287 2 23.4454 27.2972 0.186668
288 2 27.4755 27.0409 0.119589
289 2 31.4866 27.3291 16.0102
290 2 35.3257 27.1453 0.0175659
291 2 39.3693 27.3089 0.143608
292 2 43.3199 27.2872 15.9614
293 2 47.4133 27.5762 0.282542
294 2 51.4373 27.4889 0.0482349
295 2 55.3892 27.537 0.178704
296 2 59.4061 27.375 -0.0901016
297 2 63.6319 27.4103 -0.0492508
298 2 67.3076 27.6686 0.0516805
299 2 71.5454 27.3978 0.118387
300 2 75.4726 27.6243 15.9563
301 2 79.5783 27.6948 0.0628852
302 2 83.4583 27.732 15.8164
303 2 87.4268 27.9155 -0.0582606
304 2 91.5022 27.8645 15.8225
305 2 95.2349 27.8597 15.8486
306 2 99.1082 27.6694 0.112728
307 2 103.073 27.7046 0.0955675
308 2 106.842 27.7657 15.8452
309 2 110.93 27.5444 0.276638
310 2 114.71 27.5157 15.9005
311 2 118.7 27.4963 16.1199
312 2 122.502 27.3861 0.180211
313 2 126.533 27.5049 0.155316
314 2 130.47 27.3895 0.28356
315 2 134.291 27.317 16.2231
316 2 138.319 27.3383 0.118484
317 2 142.325 27.2364 0.397432
318 2 146.185 27.3064 0.0125143
319 2 150.146 27.294 0.12938
320 2 154.007 27.1781 16.0745
321 2 157.962 31.2607 16.0661
322 2 3.62899 31.0964 0.303661
323 2 7.64036 31.1748 0.197655
324 2 11.537 31.1138 16.3409
325 2 15.1825 31.044 0.0921349
326 2 19.5466 31.2693 16.0401
327 2 23.4813 31.1279 16.1098
328 2 27.4616 31.1392 0.276489
329 2 31.6748 31.1761 0.28468
330 2 35.3084 31.2668 16.0132
331 2 39.4189 31.1445 16.0037
332 2 43.4936 31.1766 0.137083
333 2 47.3822 31.4093 15.865
334 2 51.2194 31.3248 15.8636
335 2 55.2736 31.2748 -0.0727995
336 2 59.3934 31.5306 0.329475
337 2 63.4455 31.3393 15.9477
338 2 67.407 31.5337 0.288647
339 2 71.3713 31.5418 15.9274
340 2 75.4839 31.4819 0.269923
341 2 79.4726 31.6431 0.28841
342 2 83.4216 31.675 15.7297
343 2 87.391 31.806 -0.120736
344 2 91.2552 31.7697 -0.0337273
345 2 95.2636 31.7621 0.204352
346 2 99.1325 31.8791 0.164492
347 2 103.304 31.5224 15.9265
348 2 107.247 31.6371 0.278794
349 2 111.026 31.6346 15.792
350 2 114.853 31.4859 0.159714
351 2 118.864 31.3438 15.858
352 2 122.622 31.6043 0.159477
353 2 126.574 31.46 0.294299
354 2 130.617 31.4702 0.280975
355 2 134.516 31.4198 0.211955
356 2 138.423 31.2901 15.8572
357 2 142.272 31.2339 15.7954
358 2 146.426 31.233 16.1332
359 2 150.156 31.2184 15.9039
360 2 153.941 31.1329 16.0126
361 2 158.01 35.0123 15.9756
362 2 3.55359 35.0429 0.110501
363 2 7.72449 34.9869 0.302791
364 2 11.564 35.0702 16.0442
365 2 15.4331 35.0907 0.335341
366 2 19.4529 35.0614 16.2569
367 2 23.42 35.025 16.0282
368 2 27.6065 35.2867 0.38597
369 2 31.4932 35.149 0.287905
370 2 35.5405 35.1354 16.1495
371 2 39.3824 35.124 0.292783
372 2 43.4478 35.0304 15.8231
373 2 47.2866 35.4696 16.2078
374 2 51.3914 35.2382 0.22811
375 2 55.3498 35.4349 16.0637
376 2 59.337 35.133 0.103822
377 2 63.5136 35.3026 0.270913
378 2 67.3872 35.4148 0.242504
379 2 71.2826 35.5114 0.263085
380 2 75.3882 35.6469 15.9859
381 2 79.4248 35.5178 16.0695
382 2 83.4417 35.6172 0.165621
383 2 87.3766 35.6372 0.182135
384 2 91.3333 35.8862 15.8293
385 2 95.4243 35.6664 15.9833
386 2 99.3611 35.8554 0.360747
387 2 103.173 35.588 15.8583
388 2 107.09 35.8883 0.115882
389 2 111.06 35.4533 15.8353
390 2 115.035 35.5605 0.335885
391 2 118.92 35.4926 15.9447
392 2 122.858 35.5391 15.8486
393 2 126.659 35.5634 0.204747
394 2 130.467 35.3647 0.138993
395 2 134.63 35.2815 15.9488
396 2 138.574 35.3266 15.9161
397 2 142.465 35.194 15.7592
398 2 146.222 35.095 16.0244
399 2 150.182 35.1431 -0.0190126
400 2 153.92 35.0503 0.232691
401 2 158.037 39.0986 0.0220872
402 2 3.45877 39.2013 16.0254
403 2 7.65396 39.0229 16.0974
404 2 11.4959 38.9426 0.471218
405 2 15.589 39.1343 0.276802
406 2 19.473 39.2032 16.0054
407 2 23.3058 38.9891 16.0989
408 2 27.4162 39.1255 0.107229
409 2 31.3875 39.0805 16.0216
410 2 35.4174 38.9783 0.125759
411 2 39.5319 39.2032 0.326052
412 2 43.4672 39.2211 0.304968
413 2 47.4172 39.1046 0.133942
414 2 51.4476 39.0207 0.235037
415 2 55.3403 39.2395 0.0502057
416 2 59.2941 39.2576 0.218558
417 2 63.3634 39.304 15.9725
418 2 67.3001 39.3357 0.21814
419 2 71.2345 39.4856 0.264513
420 2 75.2408 39.2751 0.0794052
421 2 79.4131 39.4552 16.006
422 2 83.3102 39.4501 16.0115
423 2 87.2037 39.7787 16.1193
424 2 91.468 39.6508 16.0283
425 2 95.3592 39.7054 15.7267
426 2 99.5068 39.6856 -0.086104
427 2 103.362 39.8104 -0.0759597
428 2 107.273 39.5172 15.7585
429 2 111.014 39.7812 15.8094
430 2 115.112 39.5143 15.8803
431 2 118.917 39.5211 15.7822
432 2 122.663 39.3592 0.241292
433 2 126.77 39.572 16.0282
434 2 130.713 39.6338 0.302573
435 2 134.661 39.427 0.225718
436 2 138.599 39.3367 15.8772
437 2 142.603 39.236 15.7479
438 2 146.374 39.2735 0.300022
439 2 150.413 39.1453 15.9719
440 2 154.369 39.1916 0.400911
441 2 158.128 43.1232 0.0341766
442 2 3.7872 43.0121 0.261763
443 2 7.70709 42.9419 0.333537
444 2 11.5488 42.8523 0.172169
445 2 15.6144 43.0002 0.139747
446 2 19.4273 43.1305 16.1359
447 2 23.4119 42.8815 0.336187
448 2 26.979 42.9824 0.137531
449 2 31.0705 42.8351 0.396088
450 2 35.3316 42.8982 0.227265
451 2 39.4226 43.0014 0.270612
452 2 43.1972 42.9674 -0.00452493
453 2 47.2059 42.83 0.0748564
454 2 51.1775 42.9778 0.165822
455 2 55.278 43.2669 0.07844
456 2 59.1882 43.2138 0.268471
457 2 63.2227 43.3129 0.223137
458 2 67.3875 43.4156 16.0407
459 2 71.2993 43.1931 15.802
460 2 75.2329 43.4855 0.182973
461 2 79.3783 43.5075 0.0975374
462 2 83.3531 43.357 16.094
463 2 87.2502 43.4463 16.1276
464 2 91.2239 43.4176 16.0914
465 2 95.4464 43.4893 0.26076
466 2 99.4699 43.6054 0.138539
467 2 103.293 43.6353 0.069825
468 2 107.228 43.6484 0.0364915
469 2 111.338 43.7633 15.8048
470 2 115.188 43.6223 15.8542
471 2 118.902 43.5338 0.149345
472 2 122.836 43.3029 0.244437
473 2 126.772 43.3957 0.299191
474 2 130.666 43.3869 0.200104
475 2 134.668 43.4898 16.0377
476 2 138.686 43.4005 15.883
477 2 142.363 43.2024 16.2794
478 2 146.25 43.1621 16.0708
479 2 150.109 43.2224 0.345663
480 2 154.138 43.147 16.031
481 2 158.08 47.343 16.0396
482 2 3.73615 47.1793 16.0786
483 2 7.62439 47.0421 15.9206
484 2 11.488 46.9765 16.1473
485 2 15.5028 47.0831 0.0747912
486 2 19.5675 46.8395 16.2031
487 2 23.2643 46.9293 0.209967
488 2 27.2789 46.8414 0.39026
489 2 31.3696 46.821 0.427448
490 2 35.1294 46.7453 0.397583
491 2 39.266 46.7851 0.340053
492 2 43.233 46.9287 -0.0177415
493 2 47.414 46.8809 15.8937
494 2 51.1205 47.0501 16.0545
495 2 55.146 46.917 0.14859
496 2 59.0981 47.1396 15.9639
497 2 63.1783 47.2106 0.20932
498 2 67.2363 47.2433 0.116192
499 2 71.2136 47.1651 0.0187767
500 2 75.3588 47.2772 16.0227
501 2 79.3441 47.2871 15.9117
502 2 83.163 47.2747 -0.00096327
503 2 87.2596 47.4502 0.284668
504 2 91.4088 47.46 16.05
505 2 95.2588 47.2994 0.299134
506 2 99.3397 47.6321 0.160412
507 2 103.401 47.4058 15.9453
508 2 107.345 47.4095 0.0359178
509 2 111.192 47.5798 15.8135
510 2 115.315 47.5883 16.0254
511 2 119.102 47.5518 0.0127819
512 2 122.767 47.2685 0.147894
513 2 126.684 47.3708 0.086765
514 2 130.743 47.4047 0.197562
515 2 134.778 47.3996 16.0048
516 2 138.642 47.2496 0.252456
517 2 142.48 47.2089 15.9753
518 2 146.327 47.0851 -0.101176
519 2 149.987 47.3062 16.1402
520 2 154.16 47.1817 0.436889
521 2 158.119 51.2246 0.254271
522 2 3.82547 51.0434 0.236458
523 2 7.60621 51.172 0.235303
524 2 11.5838 51.1402 16.0995
525 2 15.6647 50.9688 0.155894
526 2 19.2124 50.7523 0.144939
527 2 23.3563 50.8686 0.329339
528 2 27.5167 50.8716 16.1013
529 2 31.3606 50.7883 16.1875
530 2 35.222 50.6154 0.228924
531 2 39.1462 50.5776 15.9691
532 2 43.0277 50.6833 0.287821
533 2 46.9902 50.8891 0.227588
534 2 51.0915 50.969 16.1145
535 2 55.3128 50.9982 15.9389
536 2 59.114 51.1067 16.0824
537 2 63.2608 51.0151 0.319571
538 2 67.2713 51.2056 0.169058
539 2 71.3446 51.1587 16.0861
540 2 75.229 51.1385 0.139881
541 2 79.2961 51.3568 15.8136
542 2 82.9749 51.1408 15.7159
543 2 87.2751 51.2997 15.9173
544 2 91.2265 51.3942 0.183896
545 2 95.3 51.2726 0.214863
546 2 99.3377 51.3309 15.913
547 2 103.278 51.505 0.204045
548 2 107.412 51.3686 15.8391
549 2 111.366 51.5691 0.0989137
550 2 115.286 51.4461 0.13386
551 2 119.111 51.7068 0.361199
552 2 122.924 51.3683 0.178617
553 2 126.926 51.4034 16.0201
554 2 130.823 51.3858 0.0288938
555 2 134.789 51.33 16.077
556 2 138.746 51.3281 0.0837566
557 2 142.708 51.1766 15.9502
558 2 146.534 51.3064 15.924
559 2 150.438 51.1537 0.307537
560 2 154.301 51.0338 0.218765
561 2 158.189 55.1502 0.193936
562 2 3.74854 55.0323 0.169169
563 2 7.78827 55.2357 0.151707
564 2 11.4583 55.109 15.9371
565 2 15.5448 54.9441 16.014
566 2 19.4627 54.8066 15.8867
567 2 23.4497 54.8068 16.0773
568 2 27.3419 54.796 16.1072
569 2 31.3881 54.6397 0.234854
570 2 35.3772 54.6948 15.9899
571 2 39.2115 54.6997 0.391332
572 2 43.0626 54.7432 16.094
573 2 46.9954 54.7481 15.7796
574 2 51.1509 54.9138 15.8897
575 2 55.1372 54.8211 0.391981
576 2 59.1114 54.9319 0.17973
577 2 62.8929 54.7631 15.9665
578 2 67.1398 55.0431 0.14334
579 2 71.0951 55.0378 15.8981
580 2 75.1568 55.1029 15.9369
581 2 79.1656 55.2065 16.2003
582 2 83.1439 55.3449 15.7985
583 2 87.3071 55.2321 0.21634
584 2 91.3039 55.2791 0.211149
585 2 95.077 55.1593 0.149694
586 2 99.2687 55.3815 15.9607
587 2 103.147 55.3661 0.0617609
588 2 107.21 55.3128 0.186564
589 2 111.333 55.5742 15.8897
590 2 115.223 55.3522 -0.0104696
591 2 119.247 55.4339 0.374252
592 2 123.245 55.4459 0.138286
593 2 127.111 55.5035 15.8557
594 2 130.928 55.3371 15.9084
595 2 134.609 55.3673 16.0442
596 2 138.703 55.0892 0.322091
597 2 142.793 54.9985 0.0125007
598 2 146.6 55.2527 16.0381
599 2 150.549 55.2189 16.0451
600 2 154.393 55.1873 0.347493
601 2 0.0651131 59.0962 0.0850677
602 2 4.06911 59.1559 0.303067
603 2 7.77193 59.1395 0.108233
604 2 11.7815 59.0237 16.0977
605 2 15.7281 59.0393 0.267925
606 2 19.4892 58.7809 15.9268
607 2 23.3726 58.9026 15.9371
608 2 27.3349 58.6267 0.308213
609 2 31.3531 58.686 15.9726
610 2 35.3703 58.7439 0.434864
611 2 39.2842 58.6918 0.436005
612 2 43.0842 58.6083 16.0335
613 2 47.0068 58.7283 0.145269
614 2 50.9394 58.7853 15.8058
615 2 55.0144 58.6796 16.0586
616 2 59.087 58.8769 15.8852
617 2 62.9275 58.789 0.0616413
618 2 67.0264 58.8725 15.9715
619 2 71.1459 59.0965 0.197889
620 2 75.1432 59.1592 0.185601
621 2 79.0283 59.1814 15.8858
622 2 83.0172 59.144 15.7913
623 2 87.2251 59.1849 0.163171
624 2 91.354 59.2802 0.164504
625 2 95.1323 59.1315 -0.008013
626 2 99.381 59.2699 15.9352
627 2 103.26 59.2631 -0.0991817
628 2 107.227 59.3933 0.226641
629 2 111.352 59.3892 0.221839
630 2 115.313 59.4396 0.207145
631 2 119.247 59.5215 0.312299
632 2 123.239 59.4482 0.374878
633 2 127.228 59.5263 0.00408066
634 2 131.112 59.3113 15.9034
635 2 134.939 59.2508 0.0972315
636 2 138.758 59.2021 0.156975
637 2 142.768 59.1279 15.8787
638 2 146.501 59.426 0.238419
639 2 150.488 59.3214 0.341751
640 2 154.519 59.2172 0.337704
641 2 -0.0547471 63.2919 15.811
642 2 3.86985 63.159 15.9538
643 2 7.99652 62.97 0.324621
644 2 11.8078 62.9263 0.298067
645 2 15.6809 62.9598 15.9689
646 2 19.7051 62.9469 15.9369
647 2 23.5074 62.8762 15.9974
648 2 27.576 62.9453 0.131046
649 2 31.4177 62.7365 15.9063
650 2 35.3117 62.7546 15.8956
651 2 39.2784 62.7266 0.216838
652 2 43.1865 62.6768 0.370806
653 2 47.1766 62.8158 16.0544
654 2 51.0942 62.6398 0.228866
655 2 55.0593 62.6762 -0.0426511
656 2 59.0258 62.7625 0.0786697
657 2 63.0761 62.8319 0.10461
658 2 67.0488 62.6446 0.161726
659 2 71.068 62.7761 0.0831391
660 2 75.1373 62.9685 15.7303
661 2 78.9633 63.0072 15.9379
662 2 83.2214 62.8332 15.8581
663 2 87.3183 63.126 0.165918
664 2 91.2415 63.1431 15.8899
665 2 95.1205 63.1443 0.0592253
666 2 99.1709 63.1511 0.155528
667 2 103.185 63.1661 0.0939845
668 2 107.326 63.287 0.072462
669 2 110.991 63.1752 -0.0584726
670 2 115.331 63.3283 -0.0152715
671 2 119.193 63.4779 15.973
672 2 123.204 63.3823 15.9175
673 2 127.14 63.5031 15.9887
674 2 131.27 63.3081 0.0350176
675 2 134.913 63.3398 15.9026
676 2 138.843 63.388 0.0175691
677 2 142.698 63.2912 0.165002
678 2 146.556 63.5184 0.0877582
679 2 150.781 63.0014 15.9104
680 2 154.62 63.2815 15.9676
681 2 0.13978 67.0757 0.112869
682 2 4.01354 67.2272 0.0869758
683 2 7.88122 67.2339 0.255681
684 2 11.8861 66.956 15.9593
685 2 15.9399 67.0139 15.9593
686 2 19.6595 67.1007 16.0056
687 2 23.5828 67.0295 16.0136
688 2 27.3749 66.9715 15.9166
689 2 31.5219 66.8582 0.243349
690 2 35.1676 66.8114 0.24804
691 2 39.264 66.7731 0.219898
692 2 42.9665 66.7946 16.0987
693 2 47.0366 66.5984 0.0961852
694 2 50.9934 66.6284 15.7098
695 2 54.8773 66.6662 15.9894
696 2 58.8398 66.6972 15.8209
697 2 62.8734 66.7117 15.7916
698 2 67.0868 66.8195 15.947
699 2 70.9929 66.7284 -0.00500614
700 2 75.1146 66.9082 0.0384894
701 2 79.1263 66.8534 15.814
702 2 83.0285 66.8595 15.8984
703 2 87.0977 66.7839 15.8861
704 2 91.2179 66.9759 -0.238424
705 2 95.2117 67.0072 15.7614
706 2 99.2369 67.122 15.8015
707 2 103.322 67.2003 0.104611
708 2 107.186 67.1103 15.965
709 2 111.188 67.1445 0.28021
710 2 115.36 67.2518 0.28238
711 2 119.214 67.2526 0.0770341
712 2 123.107 67.5539 16.0629
713 2 127.213 67.3894 15.6763
714 2 131.079 67.3983 15.8681
715 2 134.938 67.4477 15.9858
716 2 138.963 67.3616 15.7236
717 2 142.92 67.3731 15.7697
718 2 146.754 67.4031 0.317739
719 2 150.618 67.2163 15.8769
720 2 154.533 67.4298 15.8783
721 2 0.289755 71.2746 16.0304
722 2 4.05428 71.0918 15.6865
723 2 7.82877 71.1452 0.117578
724 2 12.0537 70.9694 15.8968
725 2 15.937 70.917 16.0064
726 2 19.7631 71.1176 0.0979941
727 2 23.6782 70.9408 16.0311
728 2 27.4423 70.9375 15.9062
729 2 31.3092 70.7581 16.0368
730 2 35.0725 70.8496 16.1565
731 2 39.0756 70.7873 16.1196
732 2 42.9894 70.734 0.085513
733 2 47.0293 70.7603 16.0488
734 2 51.002 70.6847 15.8337
735 2 54.9318 70.4887 15.986
736 2 58.928 70.4473 0.2482
737 2 62.9211 70.7418 15.9405
738 2 66.9626 70.5298 0.227831
739 2 70.9932 70.5956 15.8186
740 2 75.0142 70.6968 15.892
741 2 78.9695 70.9241 15.8472
742 2 83.1309 70.8695 0.130332
743 2 87.0122 71.0471 15.8064
744 2 90.991 70.8657 0.321986
745 2 95.1249 71.2067 0.25285
746 2 99.0639 70.8624 15.9132
747 2 103.19 70.8825 0.214604
748 2 107.063 71.1417 0.131332
749 2 111.114 71.1698 15.8239
750 2 115.109 71.3296 -0.132848
751 2 119.185 71.1453 15.9865
752 2 123.372 71.3205 0.243044
753 2 127.145 71.4337 15.8399
754 2 131.227 71.4483 15.7963
755 2 135.306 71.2183 15.886
756 2 139.206 71.4401 15.9297
757 2 143 71.4272 16.0665
758 2 146.895 71.2733 16.1444
759 2 150.836 71.2372 15.9795
760 2 154.525 71.1408 16.0207
761 2 0.335898 75.2227 16.041
762 2 4.06054 75.0281 16.0193
763 2 7.82197 75.1175 15.9605
764 2 11.8104 74.9218 15.9902
765 2 15.8454 75.0638 15.9722
766 2 19.6493 74.8887 15.9581
767 2 23.4675 75.0652 16.1419
768 2 27.5357 74.8901 15.9018
769 2 31.3217 74.8961 0.134103
770 2 35.1391 74.8514 16.1681
771 2 39.0954 74.7996 15.9739
772 2 43.057 74.5476 0.25336
773 2 47.1183 74.6841 15.9602
774 2 51.2166 74.6426 0.312306
775 2 54.9951 74.411 16.0281
776 2 59.0217 74.487 16.0538
777 2 62.9421 74.7347 15.7313
778 2 66.9524 74.4395 15.8232
779 2 70.8947 74.7565 15.9002
780 2 74.8121 74.6949 0.104856
781 2 79.0182 74.5758 15.8725
782 2 83.0389 74.8207 16.0471
783 2 86.9446 74.8046 15.8626
784 2 90.9086 74.9354 -0.11296
785 2 95.0241 74.9383 16.0323
786 2 99.1481 74.7542 0.121965
787 2 103.135 74.8341 15.8032
788 2 107.133 75.0447 0.0476573
789 2 111.13 75.1289 15.8313
790 2 115.252 75.0013 0.255761
791 2 119.026 75.1682 16.0792
792 2 123.088 75.0791 15.8934
793 2 127.01 75.3235 0.244412
794 2 131.229 75.2173 0.200644
795 2 135.156 75.3548 15.9181
796 2 139.166 75.3993 15.9366
797 2 142.991 75.4506 0.124976
798 2 146.665 75.3465 15.793
799 2 150.559 75.2155 15.9369
800 2 154.524 75.1761 0.0772167
801 2 0.0977403 79.2591 15.8415
802 2 4.06651 79.0164 15.7997
803 2 8.23743 79.1159 15.7425
804 2 11.9564 79.0183 16.1654
805 2 15.8757 79.0095 16.0438
806 2 19.7501 79.0185 16.0431
807 2 23.5911 78.8886 15.9861
808 2 27.4212 78.9667 16.0391
809 2 31.4355 78.9078 0.184317
810 2 35.3256 78.8047 15.9207
811 2 39.4041 78.9028 0.205425
812 2 43.4372 78.6519 0.352215
813 2 47.1873 78.6188 0.203953
814 2 51.109 78.5726 15.9505
815 2 55.0384 78.4892 15.9276
816 2 58.8126 78.566 16.0119
817 2 62.8838 78.6535 15.8951
818 2 67.064 78.4574 15.8873
819 2 70.954 78.5091 15.9742
820 2 75.0474 78.6845 15.8762
821 2 78.7486 78.5547 0.058388
822 2 82.9391 78.6512 0.125392
823 2 86.9939 78.6755 0.284003
824 2 91.0167 78.7078 -0.077612
825 2 95.1694 78.7978 0.0113301
826 2 99.1359 78.7657 15.6919
827 2 103.012 78.6424 0.207999
828 2 107.087 78.8433 15.7227
829 2 111.057 79.1654 0.209358
830 2 115.032 78.9445 16.0483
831 2 119.1 78.8282 0.0760349
832 2 123.077 78.9041 0.258399
833 2 127.147 79.3587 15.7919
834 2 131.116 79.4294 0.157194
835 2 135.041 79.1963 16.0742
836 2 139.193 79.3052 15.8684
837 2 143.039 79.3879 15.8441
838 2 146.686 79.4031 15.9845
839 2 150.7 79.3151 15.9758
840 2 154.833 79.0823 15.9639
841 2 0.312029 83.3243 15.9122
842 2 4.18013 83.1145 15.9364
843 2 8.13061 83.0971 15.7517
844 2 12.1046 83.078 16.0119
845 2 15.9056 83.2784 16.0206
846 2 19.8665 82.9389 16.0421
847 2 23.7424 83.019 15.9393
848 2 27.4996 83.0123 15.9854
849 2 31.6645 82.7784 15.9612
850 2 35.4835 82.8883 15.9376
851 2 39.4525 82.6729 0.243307
852 2 43.3788 82.8105 16.2455
853 2 47.2673 82.809 16.1857
854 2 51.1649 82.6324 16.1136
855 2 55.2281 82.4863 16.0691
856 2 58.9651 82.5576 16.1319
857 2 62.8965 82.5796 16.1245
858 2 66.7499 82.4258 0.30904
859 2 70.7623 82.2696 0.0762378
860 2 74.9697 82.5683 15.8776
861 2 78.9125 82.5526 0.043283
862 2 82.855 82.5091 15.9125
863 2 87.0931 82.5521 15.9789
864 2 91.0702 82.5156 -0.0133964
865 2 94.8257 82.7196 15.7345
866 2 99.0063 82.7772 15.9075
867 2 102.965 82.6552 0.242947
868 2 107.214 82.8595 0.0917557
869 2 111.081 82.8113 16.0884
870 2 115.178 82.9554 15.8945
871 2 119.27 82.7829 -0.107598
872 2 123.036 83.2227 15.9786
873 2 127.219 82.9312 0.315236
874 2 131.077 83.154 15.9711
875 2 134.989 83.3026 0.212547
876 2 138.986 83.2038 15.8215
877 2 143.122 83.2851 0.060945
878 2 147.105 83.4412 0.14572
879 2 150.764 83.2535 16.0748
880 2 154.846 83.2412 16.0957
881 2 0.577149 87.2891 15.7583
882 2 4.33159 87.2293 0.0137423
883 2 8.18749 87.0406 15.9579
884 2 12.2817 87.1721 15.9836
885 2 16.0751 87.1698 0.1135
886 2 19.857 86.9289 16.002
887 2 23.7994 86.7901 15.9628
888 2 27.7587 87.0023 15.9163
889 2 31.5483 86.8802 16.1051
890 2 35.4482 86.9432 16.0176
891 2 39.4203 86.8081 16.0729
892 2 43.2049 86.6477 16.111
893 2 47.4107 86.6359 0.267112
894 2 51.38 86.7295 0.173089
895 2 55.1077 86.4176 0.273252
896 2 59.0534 86.4437 16.0174
897 2 62.8179 86.5686 16.1659
898 2 66.9165 86.3062 0.141794
899 2 70.7589 86.1136 0.186285
900 2 75.0827 86.1998 16.0932
901 2 78.7883 86.4675 0.196072
902 2 82.9451 86.3711 0.25021
903 2 86.9236 86.1727 15.8299
904 2 90.9914 86.7864 0.211008
905 2 95.0414 86.6393 15.9041
906 2 98.9581 86.7042 15.9253
907 2 102.858 86.7231 0.231224
908 2 106.957 86.6106 0.162023
909 2 110.869 86.7908 15.821
910 2 114.925 86.7999 0.0453689
911 2 119.134 86.6611 0.0183848
912 2 122.929 87.036 0.302965
913 2 127.018 86.8905 15.9009
914 2 130.949 87.1454 0.169617
915 2 135.069 87.1112 15.9524
916 2 138.838 87.1568 -0.0159722
917 2 143.179 87.24 0.355927
918 2 147.117 87.3412 0.243809
919 2 150.77 87.4513 16.0641
920 2 154.721 87.1316 15.8181
921 2 0.519837 91.3777 15.8861
922 2 4.41339 91.1404 0.330898
923 2 8.44185 91.2038 0.269748
924 2 12.2201 91.1459 0.286279
925 2 16.1683 91.1568 15.964
926 2 19.9223 91.0722 15.8254
927 2 23.9896 90.9244 16.1144
928 2 27.888 91.007 15.9883
929 2 31.6902 90.9491 16.0605
930 2 35.6619 90.8437 16.041
931 2 39.6583 90.7041 16.1783
932 2 43.186 90.8199 0.312809
933 2 47.331 90.7873 16.0054
934 2 51.1299 90.5736 16.246
935 2 55.1174 90.2929 15.9058
936 2 59.1365 90.5386 15.9773
937 2 63.0795 90.426 0.228834
938 2 66.9915 90.3284 15.951
939 2 70.9503 90.1739 15.9167
940 2 74.9977 90.2595 16.0172
941 2 78.9022 90.2952 0.254323
942 2 82.9168 90.3729 0.107511
943 2 86.8738 90.4719 15.9917
944 2 90.8977 90.6238 0.0756479
945 2 94.848 90.5017 0.235426
946 2 98.9173 90.4641 0.233328
947 2 102.915 90.4847 0.344858
948 2 106.821 90.4784 0.336604
949 2 110.852 90.508 15.8889
950 2 115.01 90.7605 0.104824
951 2 118.962 90.8014 0.0257259
952 2 122.961 90.7613 0.0501885
953 2 126.87 90.8868 -0.0099759
954 2 131.002 90.9422 15.9503
955 2 134.962 91.1186 0.0799997
956 2 138.945 90.9204 0.0412169
957 2 143.007 91.0699 0.241886
958 2 146.894 91.4551 0.107032
959 2 150.907 91.4092 15.86
960 2 154.881 91.3847 0.15442
961 2 0.34291 95.2692 15.818
962 2 4.28281 95.1766 15.9981
963 2 8.32978 95.2145 0.308918
964 2 12.2989 95.096 15.8641
965 2 16.2003 95.094 15.9415
966 2 20.1751 95.2566 15.9401
967 2 23.9866 95.0827 16.1045
968 2 27.9404 94.901 15.7885
969 2 32.0937 95.1213 16.0837
970 2 35.6768 94.6599 0.250376
971 2 39.4301 94.5965 15.9384
972 2 43.4319 94.8619 16.1808
973 2 47.4325 94.747 16.0814
974 2 51.1368 94.6056 0.287167
975 2 55.1819 94.3706 16.1861
976 2 59.2606 94.6057 16.0817
977 2 63.1161 94.5731 16.2192
978 2 67.0567 94.358 0.2652
979 2 70.9538 94.3193 0.0650573