ITEM: TIMESTEP
18000
ITEM: NUMBER OF ATOMS
32000
ITEM: BOX BOUNDS xy xz yz pp pp pp
0.0000000000000000e+00 1.5831999999999999e+02 0.0000000000000000e+00
0.0000000000000000e+00 1.5831999999999999e+02 0.0000000000000000e+00
1.6446074145880640e-01 1.5933251258541006e+01 0.0000000000000000e+00
ITEM: ATOMS id type x y z
1 2 157.964 157.997 15.9813
2 2 3.73152 157.891 0.122997
3 2 7.60407 158.017 15.7846
4 2 11.7934 158.004 15.9683
5 2 15.8314 158.05 15.8834
6 2 19.6578 158.058 16.167
7 2 23.6376 157.913 0.00152588
8 2 27.813 158.174 15.908
9 2 31.8614 158.393 16.1663
10 2 35.6843 158.274 15.9796
11 2 39.8786 158.353 0.293686
12 2 43.7849 -0.0593247 0.264872
13 2 47.6233 158.324 15.8661
14 2 51.632 0.0401343 0.178983
15 2 55.8765 158.349 15.7827
16 2 59.6582 0.0918596 0.310054
17 2 63.8875 -0.030171 16.0711
18 2 67.6877 0.0809623 0.21673
19 2 71.5087 158.217 0.271788
20 2 75.4794 158.253 0.116975
21 2 79.323 -0.208513 15.8425
22 2 83.0286 158.082 16.0733
23 2 86.9829 158.067 15.987
24 2 90.8654 157.955 0.108162
25 2 94.8007 158.201 15.9408
26 2 98.824 157.969 15.838
27 2 102.836 157.981 0.0480917
28 2 106.642 158.001 15.9245
29 2 110.702 157.956 -0.0467201
30 2 114.639 157.897 0.00727577
31 2 118.333 157.546 16.1947
32 2 122.235 157.643 15.6516
33 2 126.172 157.651 15.7658
34 2 130.163 157.664 15.8141
35 2 134.207 157.596 15.8613
36 2 137.807 157.637 15.9096
37 2 141.981 157.526 0.438389
38 2 145.916 157.665 0.201855
39 2 150.124 157.778 0.256027
40 2 154.077 158.008 0.269403
41 2 157.892 3.43378 0.316943
42 2 3.65314 3.69718 15.8986
43 2 7.73609 3.57986 0.153561
44 2 11.6313 3.69198 15.8917
45 2 15.7422 3.76446 0.232204
46 2 19.7754 3.58674 0.130105
47 2 23.6957 3.63203 15.9551
48 2 27.6236 3.75275 15.8142
49 2 31.737 4.05671 0.0462655
50 2 35.6298 4.03961 0.193832
51 2 39.6364 3.76574 16.082
52 2 43.6334 4.01153 0.216973
53 2 47.8306 3.81223 15.8146
54 2 51.7781 3.95313 0.332207
55 2 55.8837 3.88965 0.233226
56 2 59.7507 4.08016 16.0509
57 2 63.742 3.88126 15.8071
58 2 67.6691 4.10154 0.16446
59 2 71.4461 4.02329 0.173529
60 2 75.3695 3.81999 0.175103
61 2 79.3001 3.68186 0.0232799
62 2 83.1371 3.75007 16.0213
63 2 87.0546 3.63263 15.8892
64 2 91.0093 3.59004 0.183554
65 2 94.9651 3.63633 15.9586
66 2 98.9513 3.65322 15.8002
67 2 102.699 3.4962 15.8376
68 2 106.573 3.53797 15.8446
69 2 110.49 3.65746 15.8815
70 2 114.707 3.48541 15.7774
71 2 118.417 3.37175 15.6149
72 2 122.226 3.3846 16.0119
73 2 126.299 3.1642 0.15729
74 2 130.291 3.2922 0.0564835
75 2 133.961 3.28348 15.8121
76 2 137.899 3.317 16.0501
77 2 142.006 3.27239 16.0934
78 2 146.028 3.20164 0.0226652
79 2 150.033 3.28169 15.7468
80 2 154.16 3.5651 0.352438
81 2 157.895 7.2933 0.119693
82 2 3.66969 7.46004 0.133822
83 2 7.41483 7.61273 15.8495
84 2 11.4771 7.63283 0.131034
85 2 15.6092 7.56637 0.258762
86 2 19.7658 7.57742 0.212486
87 2 23.5545 7.58072 15.9284
88 2 27.6504 7.77279 0.297901
89 2 31.6817 7.83148 16.0093
90 2 35.719 7.734 15.8131
91 2 39.7482 7.60972 0.217622
92 2 43.782 7.89593 15.8337
93 2 47.6947 7.87525 15.9597
94 2 51.7295 8.07248 15.78
95 2 55.7782 7.79606 0.0657698
96 2 59.6231 7.96228 0.185537
97 2 63.5911 7.93593 0.115813
98 2 67.5529 7.95048 15.8956
99 2 71.574 7.9804 15.9277
100 2 75.379 7.73351 0.231154
101 2 79.3214 7.99678 0.0490623
102 2 83.1606 7.71868 0.142648
103 2 87.1586 7.75158 0.23137
104 2 91.0724 7.61196 15.8675
105 2 95.0341 7.70875 15.8211
106 2 98.7428 7.77115 0.112175
107 2 102.775 7.43069 -0.00168899
108 2 106.732 7.46864 15.8686
109 2 110.553 7.51286 0.276299
110 2 114.286 7.64669 15.8326
111 2 118.394 7.36783 0.189084
112 2 122.309 7.41163 0.015999
113 2 126.252 7.41524 15.8939
114 2 130.13 7.14542 15.8727
115 2 134.105 7.22591 0.227191
116 2 137.872 7.34687 0.0189243
117 2 141.816 7.33662 0.38589
118 2 146.029 7.12506 0.16782
119 2 149.801 7.26378 15.8736
120 2 153.898 7.27493 15.8759
121 2 157.861 11.2694 16.0273
122 2 3.49149 11.5627 0.0626424
123 2 7.66111 11.5107 15.9709
124 2 11.566 11.4285 16.0991
125 2 15.6322 11.6117 0.219477
126 2 19.4351 11.8008 0.260526
127 2 23.619 11.3622 15.7844
128 2 27.6952 11.6658 15.847
129 2 31.5703 11.7478 15.9106
130 2 35.6619 11.6293 0.0443907
131 2 39.5856 11.6007 15.78
132 2 43.5714 11.9232 -0.0207431
133 2 47.6657 11.9018 0.181346
134 2 51.7317 11.7586 16.0577
135 2 55.6943 11.6895 15.8677
136 2 59.6306 11.8812 0.109045
137 2 63.6368 11.9265 15.9882
138 2 67.6228 11.8086 15.7159
139 2 71.6974 11.9845 0.0415505
140 2 75.4317 11.9076 15.9618
141 2 79.4207 11.9182 0.244819
142 2 83.1969 11.761 0.203026
143 2 87.2081 11.813 15.8564
144 2 91.0754 11.7232 15.9659
145 2 95.1054 11.7139 0.293491
146 2 98.9972 11.6483 0.143314
147 2 102.718 11.5097 15.888
148 2 106.705 11.4384 15.9196
149 2 110.523 11.3529 15.6484
150 2 114.506 11.5014 15.941
151 2 118.63 11.4453 0.0478253
152 2 122.272 11.3404 0.135476
153 2 126.272 11.3345 15.9898
154 2 130.242 11.428 0.190532
155 2 134.276 11.2908 15.9508
156 2 138.111 11.337 15.9878
157 2 142.084 11.3017 0.115434
158 2 145.928 11.1717 0.278806
159 2 149.702 11.109 16.0922
160 2 153.897 11.3176 0.091514
161 2 157.852 15.2828 0.0536297
162 2 3.50742 15.268 15.8412
163 2 7.62783 15.2456 15.9283
164 2 11.6215 15.3754 0.318244
165 2 15.3667 15.5185 0.106954
166 2 19.3993 15.5391 15.7204
167 2 23.4104 15.4409 0.225403
168 2 27.6055 15.5746 15.9438
169 2 31.5495 15.4819 0.126815
170 2 35.4751 15.6689 0.221407
171 2 39.6581 15.4801 15.9478
172 2 43.5769 15.6702 0.06491
173 2 47.7386 15.673 0.0287618
174 2 51.5442 15.6552 0.247826
175 2 55.7416 15.8137 15.8776
176 2 59.717 15.8125 16.1603
177 2 63.7433 15.7666 15.8614
178 2 67.7546 15.9382 15.9157
179 2 71.6458 15.8208 15.9457
180 2 75.5896 16.0233 15.9175
181 2 79.6273 15.8053 15.7655
182 2 83.2953 15.6687 16.0988
183 2 87.3812 15.8086 0.0937756
184 2 91.087 15.7767 15.9428
185 2 94.8988 15.5969 -0.00207964
186 2 99.0477 15.6107 15.8059
187 2 102.879 15.5778 0.260582
188 2 106.789 15.4862 15.8484
189 2 110.728 15.3676 16.0128
190 2 114.616 15.4377 15.8028
191 2 118.569 15.4251 15.8217
192 2 122.643 15.485 15.792
193 2 126.458 15.4385 0.40126
194 2 130.373 15.3226 0.172842
195 2 134.441 15.1874 15.8498
196 2 138.225 15.3127 15.8755
197 2 142.133 15.4199 0.171291
198 2 145.876 15.303 0.264206
199 2 149.822 15.2713 0.406937
200 2 153.788 15.1453 0.283504
201 2 157.734 19.2019 15.8664
202 2 3.57311 19.097 15.6926
203 2 7.49225 19.28 15.8337
204 2 11.5582 19.2964 15.9725
205 2 15.6634 19.3984 15.9722
206 2 19.4926 19.4258 15.7383
207 2 23.5294 19.3999 0.234287
208 2 27.489 19.3963 0.333559
209 2 31.2862 19.5866 15.873
210 2 35.4225 19.5009 0.32737
211 2 39.6914 19.579 0.182701
212 2 43.4818 19.4916 15.6794
213 2 47.7139 19.4832 0.221801
214 2 51.6575 19.6701 15.9953
215 2 55.7443 19.6208 15.7946
216 2 59.5277 19.8967 15.9776
217 2 63.6191 19.7586 15.7678
218 2 67.6747 19.6455 15.8875
219 2 71.6347 19.8081 16.0747
220 2 75.4533 19.7342 15.8291
221 2 79.561 19.7563 15.9982
222 2 83.3857 19.9007 15.9024
223 2 87.2754 19.8076 15.7232
224 2 91.2584 19.815 15.6703
225 2 95.1282 19.6368 0.218096
226 2 99.0364 19.5372 0.127537
227 2 103.053 19.5583 15.953
228 2 106.798 19.6136 15.6527
229 2 110.647 19.3862 0.0773271
230 2 114.675 19.3866 15.8218
231 2 118.571 19.4988 0.0695677
232 2 122.642 19.3882 15.9422
233 2 126.462 19.2698 0.423411
234 2 130.468 19.3722 15.9909
235 2 134.217 19.2031 0.0399102
236 2 138.247 19.3725 0.0572019
237 2 142.239 19.3462 15.8847
238 2 146.223 19.3683 0.12721
239 2 150.119 19.1743 0.316686
240 2 153.854 19.1701 15.8509
241 2 157.978 23.0377 0.218085
242 2 3.48054 22.9393 16.0425
243 2 7.31178 23.0047 0.139527
244 2 11.2478 23.0684 0.228938
245 2 15.6842 23.2634 16.1418
246 2 19.4134 23.3114 0.184115
247 2 23.437 23.2609 15.9878
248 2 27.6546 23.2552 0.23726
249 2 31.5816 23.4571 15.9064
250 2 35.3913 23.3226 0.111876
251 2 39.4002 23.5131 0.184302
252 2 43.5749 23.489 15.9919
253 2 47.4563 23.3855 15.9019
254 2 51.5978 23.546 0.347759
255 2 55.5535 23.5117 15.9947
256 2 59.589 23.6659 15.9457
257 2 63.6544 23.6098 0.107196
258 2 67.6473 23.599 0.203411
259 2 71.5818 23.955 15.9044
260 2 75.5289 23.9184 0.0630372
261 2 79.3238 23.8706 15.806
262 2 83.4951 23.8852 15.7669
263 2 87.3789 23.6604 15.6974
264 2 91.3309 23.7413 15.837
265 2 95.2903 23.8617 15.9109
266 2 99.2726 23.6723 15.9695
267 2 103.11 23.5934 16.1491
268 2 106.968 23.3989 15.8969
269 2 111.071 23.5736 15.8832
270 2 114.817 23.4873 15.9211
271 2 118.717 23.3143 -0.0803151
272 2 122.523 23.5179 0.35456
273 2 126.314 23.5156 0.145601
274 2 130.528 23.4682 0.15324
275 2 134.326 23.4782 0.0659787
276 2 138.113 23.4223 0.375238
277 2 142.215 23.2786 15.8482
278 2 145.999 23.3796 0.0783465
279 2 149.985 23.2271 15.8548
280 2 154.018 23.2251 0.223519
281 2 158.011 26.9678 0.288297
282 2 3.64781 27.0582 0.19192
283 2 7.52742 26.9309 16.0667
284 2 11.3697 26.9417 0.169425
285 2 15.3734 27.2168 0.244353
286 2 19.4144 27.2034 15.91
287 2 23.5692 27.1252 0.145694
288 2 27.4303 27.2185 0.194801
289 2 31.4078 27.2682 15.9104
290 2 35.4727 27.4516 0.435726
291 2 39.5222 27.298 15.9417
292 2 43.5649 27.3541 15.844
293 2 47.3705 27.2261 15.8935
294 2 51.6389 27.4772 15.9001
295 2 55.545 27.5784 15.9222
296 2 59.6305 27.6265 0.262939
297 2 63.5254 27.7544 0.359501
298 2 67.4008 27.6137 0.179273
299 2 71.6854 27.8348 0.177658
300 2 75.6175 27.7571 15.8829
301 2 79.5636 27.7681 15.856
302 2 83.56 27.6253 15.8062
303 2 87.5966 27.7905 15.955
304 2 91.412 27.6492 15.7294
305 2 95.3263 27.6368 15.8526
306 2 99.3131 27.6534 15.8318
307 2 103.078 27.744 15.9242
308 2 107.071 27.5717 0.180878
309 2 110.926 27.348 0.0781345
310 2 114.926 27.4975 -0.0077339
311 2 118.776 27.3375 15.7446
312 2 122.662 27.4663 0.177081
313 2 126.619 27.4373 0.16768
314 2 130.685 27.4593 15.9434
315 2 134.494 27.4157 15.8029
316 2 138.369 27.3129 0.122409
317 2 142.304 27.2207 15.8718
318 2 146.146 27.1249 0.392415
319 2 150.091 27.07 0.240489
320 2 154.089 26.9991 0.205367
321 2 157.998 31.0548 0.287137
322 2 3.53204 30.9438 16.1801
323 2 7.57934 30.9992 0.0280582
324 2 11.4013 30.9951 16.0294
325 2 15.3932 31.0161 0.367066
326 2 19.5136 30.9061 0.260066
327 2 23.2522 31.0534 0.162391
328 2 27.2324 31.3949 0.288668
329 2 31.425 31.37 0.225829
330 2 35.2801 31.1928 15.9763
331 2 39.5007 31.3908 15.8954
332 2 43.4348 31.4732 15.8386
333 2 47.5226 31.1965 15.9022
334 2 51.5475 31.2425 0.306301
335 2 55.5615 31.4745 0.240028
336 2 59.6211 31.6245 15.7914
337 2 63.5283 31.5598 15.9563
338 2 67.3419 31.5502 15.9499
339 2 71.2365 31.5469 0.105362
340 2 75.6655 31.6504 0.192798
341 2 79.4618 31.828 15.8114
342 2 83.4335 31.6294 0.0670872
343 2 87.478 31.8061 0.199214
344 2 91.6771 31.6036 -0.011557
345 2 95.4638 31.7874 15.8362
346 2 99.296 31.7387 15.6454
347 2 103.074 31.7434 15.8145
348 2 106.926 31.5779 15.8384
349 2 110.992 31.5688 0.189915
350 2 114.888 31.4978 16.062
351 2 118.716 31.5593 15.8156
352 2 122.695 31.647 15.976
353 2 126.627 31.5007 15.7979
354 2 130.615 31.4407 15.8333
355 2 134.32 31.3322 16.0209
356 2 138.428 31.2422 0.272548
357 2 142.31 31.4332 0.240043
358 2 146.219 31.2985 15.6321
359 2 150.245 31.1772 0.246362
360 2 154.237 30.9934 0.234961
361 2 158.13 35.1839 0.336214
362 2 3.6568 35.0744 0.256023
363 2 7.51677 35.1721 0.363008
364 2 11.4858 35.0226 0.36609
365 2 15.3251 35.1298 0.260604
366 2 19.2517 34.9118 0.177469
367 2 23.2568 35.0975 0.297635
368 2 27.1881 34.9296 0.0383285
369 2 31.2445 34.9906 0.0681275
370 2 35.4303 35.1835 0.209557
371 2 39.314 35.2603 15.9412
372 2 43.4017 35.0026 0.153409
373 2 47.3884 35.1441 15.8263
374 2 51.2211 35.1754 0.0519469
375 2 55.4079 35.2141 16.0395
376 2 59.3362 35.3656 0.191794
377 2 63.4321 35.3397 15.9836
378 2 67.3735 35.4352 0.111341
379 2 71.5924 35.3452 0.173367
380 2 75.4143 35.554 0.0886524
381 2 79.5472 35.6368 15.8561
382 2 83.4314 35.7706 0.114878
383 2 87.5414 35.676 16.0551
384 2 91.4349 35.6372 0.167461
385 2 95.6323 35.7631 15.8565
386 2 99.3155 35.7002 15.6558
387 2 103.322 35.6062 15.7949
388 2 107.218 35.5606 15.8745
389 2 110.931 35.6541 0.298736
390 2 114.9 35.4653 15.8964
391 2 118.709 35.5431 15.7656
392 2 122.831 35.5871 0.0436292
393 2 126.765 35.5672 0.112139
394 2 130.681 35.2541 0.143286
395 2 134.462 35.1661 0.190439
396 2 138.24 35.2155 16.1036
397 2 142.347 35.1877 0.180579
398 2 146.391 35.2251 15.8658
399 2 150.191 35.2612 0.227093
400 2 154.317 35.3296 0.166245
401 2 158.01 39.261 0.269797
402 2 3.79518 39.2238 0.387474
403 2 7.62817 39.1243 0.32839
404 2 11.6379 38.979 15.9511
405 2 15.5636 38.7379 0.382557
406 2 19.1227 38.9416 0.403465
407 2 23.3882 39.0606 16.0952
408 2 27.0629 39.0183 0.330552
409 2 31.2503 38.979 15.9422
410 2 35.319 38.9867 0.228924
411 2 39.3568 39.1355 0.0765963
412 2 43.2552 39.1847 16.0198
413 2 47.388 38.9685 0.269819
414 2 51.2894 39.2434 16.007
415 2 55.2095 39.0946 0.237029
416 2 59.2262 39.3811 15.8225
417 2 63.4467 39.3124 0.211097
418 2 67.4943 39.3379 0.277086
419 2 71.3657 39.4729 15.9559
420 2 75.3974 39.3787 0.0311995
421 2 79.4613 39.6015 15.9282
422 2 83.2983 39.7326 15.7942
423 2 87.3942 39.473 0.0665238
424 2 91.3998 39.5967 15.9346
425 2 95.4347 39.5583 0.188505
426 2 99.3191 39.9128 0.172623
427 2 103.425 39.5817 16.0954
428 2 107.097 39.8134 0.238131
429 2 111.049 39.4664 15.9167
430 2 115.015 39.5079 0.098423
431 2 119.064 39.4163 0.15277
432 2 123.06 39.5631 15.8538
433 2 126.729 39.3494 15.983
434 2 130.579 39.2103 15.9828
435 2 134.496 39.3575 0.123598
436 2 138.41 39.2608 0.226213
437 2 142.301 39.3485 0.230359
438 2 146.12 39.3394 15.8775
439 2 150.207 39.1397 15.9343
440 2 154.161 39.2777 15.9446
441 2 158.161 43.1471 0.339584
442 2 3.73467 43.0441 0.141968
443 2 7.55593 43.21 0.299318
444 2 11.5229 43.051 0.322001
445 2 15.5399 43.1531 0.616756
446 2 19.3417 42.7782 0.239502
447 2 23.3568 42.9052 0.393782
448 2 27.3042 42.9048 0.438496
449 2 31.4385 42.8678 0.118685
450 2 35.4324 43.1248 0.386039
451 2 39.3689 42.8194 0.230407
452 2 43.3812 42.9935 0.302887
453 2 47.3446 43.0654 0.121531
454 2 51.3502 43.0283 0.121259
455 2 55.3534 43.209 16.0627
456 2 59.1916 43.1361 16.0174
457 2 63.3143 43.1854 -0.124552
458 2 67.3921 43.2502 15.9424
459 2 71.3854 43.1449 0.31632
460 2 75.4216 43.5334 15.8234
461 2 79.094 43.3676 15.7554
462 2 83.4029 43.5028 0.0922875
463 2 87.4629 43.4134 0.153289
464 2 91.3216 43.4857 0.142865
465 2 95.3424 43.7387 16.0306
466 2 99.4268 43.5949 15.9061
467 2 103.389 43.6353 16.0267
468 2 107.102 43.7322 15.9738
469 2 111.105 43.4721 15.8292
470 2 115.134 43.4947 15.7949
471 2 119.178 43.654 15.7967
472 2 123.073 43.634 15.9098
473 2 126.964 43.5476 15.9661
474 2 130.804 43.3079 0.00562566
475 2 134.658 43.3126 0.0436255
476 2 138.512 43.2754 0.120896
477 2 142.433 43.476 15.928
478 2 146.439 43.2343 15.9895
479 2 150.395 43.1241 16.0179
480 2 154.225 43.1771 0.0916406
481 2 158.304 47.1593 0.0413287
482 2 3.75762 47.2685 0.331731
483 2 7.62469 47.019 0.251951
484 2 11.6203 47.0326 15.9455
485 2 15.4725 47.1124 0.457318
486 2 19.4166 46.9567 15.9794
487 2 23.3573 46.8053 0.291587
488 2 27.3478 46.7968 0.327883
489 2 31.04 46.8454 0.2761
490 2 35.184 47.0543 0.362437
491 2 39.2025 46.9021 16.0229
492 2 43.1152 47.1178 0.201873
493 2 47.4095 46.9371 0.173807
494 2 51.1839 47.0932 0.194706
495 2 55.2792 47.0515 0.224016
496 2 59.2639 47.1011 15.9394
497 2 63.2369 47.0632 16.1306
498 2 67.1424 47.1221 0.322417
499 2 71.1397 47.2065 0.316036
500 2 75.3838 47.2721 0.0711707
501 2 79.3516 47.2204 15.8433
502 2 83.4233 47.4111 0.32966
503 2 87.4881 47.5007 0.277556
504 2 91.3402 47.5272 0.177077
505 2 95.3844 47.612 15.7221
506 2 99.288 47.5251 16.1075
507 2 103.397 47.6524 0.114822
508 2 107.374 47.6152 0.149499
509 2 111.426 47.8662 15.9861
510 2 115.055 47.6065 15.8022
511 2 119.295 47.4659 0.201236
512 2 123.14 47.6204 15.8395
513 2 127.099 47.4326 0.0265739
514 2 130.924 47.4537 15.7852
515 2 134.709 47.3447 0.103844
516 2 138.649 47.242 0.119538
517 2 142.651 47.2742 0.182136
518 2 146.556 47.3789 0.40188
519 2 150.521 47.2703 15.9968
520 2 154.569 47.1158 15.9049
521 2 158.299 51.1323 0.0374656
522 2 4.05413 51.0554 15.9424
523 2 7.9385 50.977 0.297133
524 2 11.685 50.8401 15.9478
525 2 15.4925 50.9087 0.315263
526 2 19.5451 50.999 0.370212
527 2 23.3938 50.8515 15.9973
528 2 27.2103 50.7386 0.339642
529 2 31.1984 50.8129 0.252408
530 2 35.2161 50.8356 0.368756
531 2 39.1427 50.8928 0.310599
532 2 43.3257 50.9388 15.9105
533 2 47.2448 50.7926 15.8346
534 2 51.1892 50.9288 15.9136
535 2 55.0528 50.9442 0.235226
536 2 59.1098 50.9534 15.8787
537 2 63.0874 51.2673 15.8617
538 2 67.191 51.0134 0.00358187
539 2 71.2285 51.1645 15.9132
540 2 75.0671 51.0746 0.00728777
541 2 79.2147 51.163 0.178848
542 2 83.313 51.2704 0.146846
543 2 87.4742 51.2659 0.201965
544 2 91.2728 51.5143 0.212543
545 2 95.3137 51.6238 15.997
546 2 99.2805 51.5752 16.016
547 2 103.308 51.5472 15.8754
548 2 107.22 51.784 0.300266
549 2 111.105 51.5389 0.166233
550 2 115.209 51.7053 -0.0187509
551 2 119.171 51.6864 15.6807
552 2 123.105 51.6474 0.0835887
553 2 127.038 51.5101 15.9
554 2 130.812 51.5526 0.147125
555 2 134.598 51.4471 15.9685
556 2 138.87 51.356 0.402938
557 2 142.596 51.6425 15.9735
558 2 146.545 51.1899 0.261826
559 2 150.577 51.1563 0.282223
560 2 154.295 51.1156 16.1228
561 2 0.051811 54.9773 0.347503
562 2 3.91156 55.022 0.180478
563 2 7.8174 54.9746 0.119025
564 2 11.8792 54.8196 0.066051
565 2 15.6972 55.0221 15.8696
566 2 19.5769 55.119 0.432772
567 2 23.4655 54.9946 0.180614
568 2 27.4411 54.611 16.1246
569 2 31.1481 54.8199 0.194488
570 2 35.0659 54.8872 0.48682
571 2 39.128 54.7314 0.225403
572 2 43.2346 54.7615 0.17884
573 2 47.2412 54.6776 0.345898
574 2 51.1529 54.6473 0.180498
575 2 55.148 55.0071 15.6542
576 2 59.1441 54.9579 15.9422
577 2 63.1832 55.146 16.0284
578 2 67.1652 55.1011 0.212005
579 2 71.1354 54.9736 0.121468
580 2 75.343 54.9334 15.9555
581 2 79.2434 55.0598 15.793
582 2 83.248 55.116 0.0581803
583 2 87.3066 55.275 15.9641
584 2 91.2289 55.2606 0.133804
585 2 95.1875 55.3926 0.266253
586 2 99.2523 55.4713 15.9066
587 2 103.183 55.4352 0.072325
588 2 107.3 55.566 0.165081
589 2 111.341 55.5003 16.0807
590 2 115.225 55.7312 0.219127
591 2 119.258 55.6587 15.6956
592 2 123.169 55.5704 0.190753
593 2 126.949 55.5954 0.348555
594 2 130.959 55.4908 15.8547
595 2 135.125 55.4021 15.9423
596 2 138.862 55.4708 15.9234
597 2 142.7 55.3699 0.316796
598 2 146.561 55.097 0.287288
599 2 150.49 55.1112 0.300535
600 2 154.304 55.0708 0.0688135
601 2 158.314 59.0384 0.352087
602 2 3.99268 59.2992 15.9482
603 2 8.01054 58.9302 0.214064
604 2 11.6949 58.9162 15.8748
605 2 15.5484 58.9159 15.899
606 2 19.5925 58.9208 0.305334
607 2 23.5145 59.0281 0.436692
608 2 27.6037 58.8283 0.329564
609 2 31.3263 58.7009 0.273644
610 2 35.2557 58.6595 15.8819
611 2 38.886 58.6459 0.204214
612 2 43.1798 58.7183 0.296234
613 2 47.1253 58.7581 0.429321
614 2 51.0107 58.7511 0.212019
615 2 55.0152 58.7985 15.9005
616 2 59.1641 58.6784 15.8942
617 2 63.1702 58.9029 16.0232
618 2 67.1047 59.0141 15.9051
619 2 71.0229 58.9901 15.7672
620 2 75.1427 58.8859 15.9351
621 2 79.2279 58.9375 0.0110263
622 2 83.1661 59.2392 0.349679
623 2 87.225 59.2598 0.0442214
624 2 91.102 59.1025 0.25426
625 2 95.1226 59.1142 0.259275
626 2 99.2912 59.3847 16.1398
627 2 103.081 59.3229 0.367229
628 2 107.175 59.3918 0.0722698
629 2 111.093 59.473 15.9002
630 2 115.133 59.5839 15.9737
631 2 119.339 59.4994 15.8598
632 2 123.162 59.5654 15.9887
633 2 126.967 59.3539 0.418309
634 2 131.036 59.6269 15.8448
635 2 134.883 59.3596 15.853
636 2 138.758 59.4391 15.8063
637 2 142.832 59.2906 0.161754
638 2 146.698 59.1382 0.262564
639 2 150.581 59.2726 0.352491
640 2 154.422 59.1096 0.249265
641 2 0.0613698 63.3117 0.29024
642 2 4.02524 63.0488 0.336467
643 2 8.05606 63.2113 15.8311
644 2 11.8541 63.0208 15.9292
645 2 15.6393 63.0434 0.234242
646 2 19.6823 62.9913 0.417368
647 2 23.5854 62.8847 0.143239
648 2 27.4323 62.9163 0.325162
649 2 31.399 62.7971 0.29442
650 2 35.2391 62.5008 0.248097
651 2 39.1204 62.6949 0.434895
652 2 43.0384 62.5723 15.8897
653 2 47.0157 62.7069 15.9888
654 2 50.8135 62.6768 0.0669208
655 2 55.0433 62.8273 0.256141
656 2 59.1088 62.7664 16.0437
657 2 63.1101 62.8436 0.0462738
658 2 67.1135 62.8624 16.0551
659 2 71.0628 62.7761 15.8602
660 2 75.0924 62.9197 0.0929943
661 2 79.1857 62.8341 15.9808
662 2 83.1804 63.0197 0.110723
663 2 87.0959 63.0456 16.0758
664 2 91.0942 63.1338 15.9592
665 2 95.1557 63.183 15.9605
666 2 99.134 63.2414 15.8085
667 2 103.122 63.2898 0.118798
668 2 107.339 63.4662 16.036
669 2 111.266 63.3909 16.0227
670 2 115.212 63.3862 -0.000823666
671 2 119.202 63.5242 0.0831399
672 2 123.36 63.5062 0.0850369
673 2 127.145 63.6095 16.011
674 2 131.039 63.6853 0.228981
675 2 134.956 63.4309 15.7961
676 2 138.814 63.3999 0.198588
677 2 142.645 63.2986 15.983
678 2 146.559 63.2895 0.235661
679 2 150.486 63.0181 0.238126
680 2 154.294 63.0706 0.303278
681 2 0.0426798 67.0897 0.251177
682 2 4.07642 67.0794 0.195798
683 2 7.88828 67.0996 16.0749
684 2 11.8417 67.1358 16.0663
685 2 15.6468 66.9832 0.182546
686 2 19.804 66.9173 0.294941
687 2 23.5404 66.8335 0.231775
688 2 27.4103 66.8002 0.248034
689 2 31.3777 66.6934 0.272703
690 2 35.1296 66.86 16.382
691 2 39.2716 66.9331 15.9993
692 2 43.013 66.6643 15.9546
693 2 47.0851 66.4943 16.0044
694 2 50.8595 66.7073 0.374877
695 2 54.7952 66.7553 16.0398
696 2 59.0594 66.756 16.1744
697 2 62.9191 66.7676 0.190621
698 2 66.8952 66.6056 15.9063
699 2 71.0293 66.83 0.228023
700 2 74.9402 66.9021 0.106865
701 2 79.1833 66.7656 15.8926
702 2 83.2687 67.0611 15.8664
703 2 87.1878 67.0576 15.9023
704 2 91.1311 66.9916 0.291244
705 2 95.1225 67.1106 15.9088
706 2 99.1493 67.0118 15.9859
707 2 103.07 67.2195 0.0930828
708 2 107.166 67.0878 0.115768
709 2 111.09 67.3353 15.8079
710 2 115.167 67.265 15.72
711 2 119.198 67.1845 0.263979
712 2 123.023 67.3873 15.8036
713 2 127.066 67.3406 0.427517
714 2 131.163 67.5367 -0.00366964
715 2 135.058 67.4337 16.0375
716 2 138.849 67.2069 0.226395
717 2 142.787 67.1463 15.8703
718 2 146.709 67.2179 15.9409
719 2 150.744 67.1228 0.497133
720 2 154.623 67.1569 0.111714
721 2 158.606 71.2784 16.0485
722 2 4.21653 71.0747 0.26984
723 2 7.89008 71.0186 0.26554
724 2 11.9249 71.1901 0.320594
725 2 15.7246 70.9148 15.9368
726 2 19.6052 70.9089 0.362974
727 2 23.6842 70.8496 0.303022
728 2 27.5653 70.9097 0.287134
729 2 31.6075 70.7702 0.290839
730 2 35.5106 70.7013 0.201693
731 2 39.3979 70.7633 0.156591
732 2 43.2919 70.6787 0.341159
733 2 47.2952 70.6904 16.0532
734 2 50.932 70.4065 0.232394
735 2 55.0728 70.4852 15.8934
736 2 58.9856 70.5807 15.8482
737 2 62.8292 70.4595 15.7376
738 2 66.9747 70.6482 15.9542
739 2 70.8815 70.6603 0.27753
740 2 75.0045 70.6621 15.8696
741 2 79.2113 70.6666 0.159617
742 2 82.9425 70.7571 0.163964
743 2 87.1417 70.7776 15.9131
744 2 91.0413 70.9094 15.7627
745 2 95.2006 70.9667 15.9735
746 2 99.1219 71.1586 16.0179
747 2 103.09 71.0154 15.9062
748 2 107.184 71.1402 0.0404037
749 2 111.181 71.2703 0.214237
750 2 115.131 71.2744 0.377241
751 2 119.142 71.32 0.183898
752 2 123.113 71.1638 16.0481
753 2 127.089 71.1801 0.192085
754 2 131.054 71.432 0.0844436
755 2 134.911 71.4817 0.079611
756 2 139.09 71.481 16.0311
757 2 142.814 71.2431 15.6956
758 2 146.749 71.1547 15.6958
759 2 150.635 71.4176 0.188384
760 2 154.59 71.0646 0.166338
761 2 0.231751 75.1748 15.8405
762 2 4.06991 75.2788 16.0733
763 2 8.24785 74.9922 0.172305
764 2 12.0917 74.9711 0.271058
765 2 15.9598 75.0772 15.9486
766 2 19.901 74.9768 0.272566
767 2 23.7316 74.8473 0.234581
768 2 27.627 74.8151 0.280647
769 2 31.5828 74.871 0.329305
770 2 35.6671 74.7827 0.133148
771 2 39.4194 74.5243 0.363483
772 2 43.2436 74.6339 0.132085
773 2 47.1762 74.8769 0.404094
774 2 51.0562 74.5055 15.8754
775 2 55.0567 74.5928 15.9855
776 2 58.9828 74.5145 15.8077
777 2 62.8846 74.2234 16.0731
778 2 67.0158 74.6178 16.0928
779 2 70.9434 74.6118 0.212407
780 2 75.0238 74.3425 0.170701
781 2 78.9764 74.6577 0.0699293
782 2 83.0774 74.4849 15.8386
783 2 87.2157 74.7951 16.0929
784 2 91.0119 74.7249 0.173334
785 2 94.8749 74.8125 15.895
786 2 99.0344 75.0439 15.9004
787 2 103.23 75.0368 15.8969
788 2 107.012 74.959 0.228761
789 2 110.964 75.0813 0.190786
790 2 115.04 75.0964 0.310735
791 2 119.158 75.4665 0.128886
792 2 123.081 75.117 0.0668822
793 2 126.948 75.0351 15.7288
794 2 131.192 75.2465 15.9187
795 2 135.092 75.4794 0.0767872
796 2 139.106 75.4054 16.1178
797 2 142.881 75.3815 15.9608
798 2 146.908 75.3314 16.0088
799 2 150.984 75.3235 15.8606
800 2 154.68 75.2398 15.9926
801 2 0.376726 79.1114 0.332066
802 2 4.11458 79.3205 0.240134
803 2 8.20744 79.2197 0.405929
804 2 11.9577 79.0404 15.8467
805 2 15.7813 78.9742 15.8887
806 2 19.7812 79.1342 0.185583
807 2 23.7836 78.8642 0.14569
808 2 27.7294 78.8539 0.107062
809 2 31.5717 78.7646 16.1297
810 2 35.4867 78.8321 0.137337
811 2 39.2701 78.7768 0.343324
812 2 43.2358 78.8628 0.0971341
813 2 47.059 78.6326 0.280991
814 2 51.1965 78.4591 0.252072
815 2 55.2055 78.4927 0.054742
816 2 59.0673 78.5324 0.152183
817 2 62.8632 78.388 0.149353
818 2 66.7324 78.3689 0.00963686
819 2 71.0309 78.4091 15.9548
820 2 74.8596 78.3461 0.202236
821 2 79.1413 78.6376 0.150943
822 2 82.9291 78.5273 15.9143
823 2 87.0412 78.6399 15.689
824 2 91.0813 78.8758 15.7889
825 2 95.0791 78.8379 0.0404203
826 2 98.9539 78.7821 0.117345
827 2 103.099 79.0878 15.7913
828 2 107.044 78.8907 0.159105
829 2 111.023 78.8505 16.0203
830 2 115.035 79.0909 0.0949979
831 2 118.979 79.2669 0.284691
832 2 123.094 78.9953 15.7014
833 2 127.004 79.2354 0.254532
834 2 131.077 79.0251 15.8741
835 2 135.211 79.3196 0.0403242
836 2 139.164 79.3247 0.276525
837 2 143.183 79.2533 15.9688
838 2 147.047 79.2719 15.9647
839 2 150.833 79.422 15.8624
840 2 154.586 79.3754 0.0319058
841 2 0.402357 83.1651 0.120994
842 2 4.38323 83.375 15.8552
843 2 8.07347 83.1558 0.254874
844 2 11.9782 83.1099 15.9345
845 2 15.8707 82.9239 15.8653
846 2 19.8293 82.9705 -0.0126286
847 2 23.7408 82.7875 0.0781146
848 2 27.7342 82.8841 0.277139
849 2 31.5248 82.8308 16.2711
850 2 35.5941 82.6782 0.363463
851 2 39.2592 82.6513 0.192894
852 2 43.2725 82.5682 0.134848
853 2 47.1803 82.5225 0.0937835
854 2 51.067 82.5206 0.187842
855 2 55.2061 82.4974 0.212435
856 2 58.994 82.4929 15.8395
857 2 62.9336 82.4363 15.971
858 2 66.8737 82.3459 16.037
859 2 71.101 82.467 0.139556
860 2 74.8964 82.3117 0.236035
861 2 78.8687 82.3114 0.221352
862 2 82.8107 82.4497 15.9254
863 2 86.8556 82.7351 15.8212
864 2 90.7399 82.5877 15.851
865 2 94.9222 82.7258 15.8561
866 2 98.9077 82.7315 16.0028
867 2 102.906 82.9264 15.7995
868 2 106.891 82.8815 0.118121
869 2 111.087 82.8435 15.831
870 2 115.032 82.8153 0.0491656
871 2 118.961 83.285 0.3164
872 2 122.965 83.0821 15.8692
873 2 127.036 83.0855 15.9207
874 2 131.163 83.0593 15.7775
875 2 135.209 83.1539 0.0261855
876 2 138.983 83.3059 0.0997693
877 2 143.023 83.1872 0.144111
878 2 146.955 83.1139 16.0511
879 2 150.795 83.4565 16.1372
880 2 154.815 83.2223 15.7545
881 2 0.316311 87.252 0.287113
882 2 4.38831 87.1598 0.267693
883 2 8.32313 87.1479 0.151921
884 2 12.0419 87.2207 15.7826
885 2 16.0273 86.9506 15.9654
886 2 19.9722 86.9937 -0.00108042
887 2 23.9091 86.991 0.155559
888 2 27.7222 86.8619 0.105777
889 2 31.5652 86.7527 15.9835
890 2 35.6471 86.8691 0.237367
891 2 39.5741 86.7543 0.271905
892 2 43.4457 86.6279 0.333709
893 2 47.4311 86.4553 0.269138
894 2 51.2798 86.6649 0.251168
895 2 55.1659 86.5549 0.159561
896 2 59.1245 86.2055 0.377802
897 2 62.9308 86.2019 15.9229
898 2 66.9077 86.2309 16.0529
899 2 70.8367 86.2871 0.159983
900 2 74.873 86.1721 15.9807
901 2 78.89 86.2882 0.0604322
902 2 82.796 86.5319 15.9005
903 2 86.9128 86.5791 0.085068
904 2 90.9425 86.4318 15.8065
905 2 94.8117 86.4829 15.9363
906 2 99.0126 86.5047 15.8153
907 2 103.048 86.6494 15.8093
908 2 107.092 86.688 15.9533
909 2 110.997 86.8454 0.0297062
910 2 114.992 86.8886 15.9843
911 2 118.928 86.9235 15.9117
912 2 122.86 86.9879 15.9933
913 2 127.023 87.029 15.8223
914 2 131.222 87.1709 15.9464
915 2 135.045 86.9597 0.157553
916 2 138.941 87.143 0.104184
917 2 142.883 87.1591 15.8277
918 2 147.016 87.2396 16.0278
919 2 151.145 87.1866 15.8184
920 2 154.867 87.3062 0.0343807
921 2 0.438981 91.2654 15.7981
922 2 4.37965 91.2234 15.8593
923 2 8.29985 91.1249 -0.0262413
924 2 12.0547 91.1353 15.8063
925 2 16.2945 91.2227 15.8298
926 2 19.9678 90.9868 0.169504
927 2 23.8697 91.0887 15.8911
928 2 27.7399 90.8742 0.13739
929 2 31.6666 90.8716 15.9859
930 2 35.5953 90.9651 0.274158
931 2 39.5287 90.9201 0.201447
932 2 43.5113 90.6818 0.275256
933 2 47.4779 90.6025 0.35324
934 2 51.2903 90.5215 15.9126
935 2 55.3713 90.6129 0.220339
936 2 59.0967 90.2989 16.161
937 2 63.0146 90.2592 0.222803
938 2 67.0167 90.1069 0.167729
939 2 70.814 90.3834 0.4061
940 2 74.7159 90.288 15.9503
941 2 78.5867 90.138 16.0388
942 2 82.6122 90.3727 15.9029
943 2 86.8871 90.3013 15.6911
944 2 90.8347 90.2832 -0.0243789
945 2 94.8568 90.3769 15.6582
946 2 98.8202 90.3814 15.8612
947 2 102.872 90.6265 15.8551
948 2 106.872 90.9212 15.7049
949 2 111.077 90.6638 15.9773
950 2 114.922 90.9125 15.7582
951 2 119.002 90.7297 0.0872329
952 2 123.042 90.9032 0.0744334
953 2 127.055 90.8029 0.218837
954 2 130.926 90.9846 15.8765
955 2 134.725 90.9785 0.0991543
956 2 138.872 91.0076 16.0785
957 2 142.824 91.3933 15.8189
958 2 146.86 91.0841 0.0694592
959 2 150.97 91.0889 15.8474
960 2 154.879 91.3457 15.8372
961 2 0.585402 95.2279 16.0132
962 2 4.56277 95.3771 15.7077
963 2 8.33189 95.2439 -0.0787932
964 2 12.3235 95.0803 15.9695
965 2 16.007 95.0224 15.7128
966 2 20.1066 94.989 15.9034
967 2 23.8854 95.0022 16.0271
968 2 27.7198 94.932 0.309326
969 2 31.8326 94.961 16.0124
970 2 35.6545 94.9173 0.34782
971 2 39.6279 94.9003 0.464037
972 2 43.4378 94.6528 0.367961
973 2 47.5174 94.5264 16.0194
974 2 51.5337 94.7671 16.0045
975 2 55.3038 94.6031 15.9937
976 2 59.266 94.3625 0.334149
977 2 62.9436 94.3599 15.8862
978 2 66.9409 94.4313 15.9763
979 2 70.8451 94.1498 0.205666
980 2 74.8573 94.2297 15.7556