ITEM: TIMESTEP
18200
ITEM: NUMBER OF ATOMS
32000
ITEM: BOX BOUNDS xy xz yz pp pp pp
0.0000000000000000e+00 1.5831999999999999e+02 0.0000000000000000e+00
0.0000000000000000e+00 1.5831999999999999e+02 0.0000000000000000e+00
1.6522895093868684e-01 1.5932483049061151e+01 0.0000000000000000e+00
ITEM: ATOMS id type x y z
1 2 158.181 157.906 15.7622
2 2 3.68728 157.9 0.257589
3 2 7.61964 157.991 16.1793
4 2 11.6226 158.134 16.0275
5 2 15.7713 157.929 16.0096
6 2 19.7205 158.274 15.7235
7 2 23.8356 158.281 0.297019
8 2 27.5392 158.339 15.8821
9 2 31.6258 158.072 15.8295
10 2 35.7633 158.13 15.9127
11 2 39.7502 158.308 0.0816988
12 2 43.6944 0.077974 0.294778
13 2 48.003 158.22 15.9868
14 2 51.9254 0.226078 0.371578
15 2 55.9841 158.418 16.0334
16 2 59.8835 0.183358 0.126856
17 2 63.6501 0.0957162 15.7413
18 2 67.5085 0.00968878 0.0140934
19 2 71.3895 158.264 -0.0864822
20 2 75.4238 158.201 0.0554333
21 2 79.203 0.0619475 16.1387
22 2 83.4457 158.149 15.8758
23 2 87.4618 158.225 15.8396
24 2 91.2444 157.978 0.314
25 2 94.9322 157.855 15.8701
26 2 98.8833 157.943 15.9177
27 2 102.644 157.953 0.223689
28 2 106.563 158.008 15.7116
29 2 110.521 157.844 0.118488
30 2 114.507 157.826 0.0781983
31 2 118.567 157.882 15.7971
32 2 122.483 157.824 15.895
33 2 126.259 157.674 15.9389
34 2 129.926 157.703 16.0096
35 2 134.046 157.542 16.098
36 2 138.075 157.57 16.0389
37 2 142.07 157.856 0.195188
38 2 145.885 157.794 0.274628
39 2 149.973 157.782 0.185301
40 2 154.016 157.755 0.133612
41 2 157.942 3.62976 0.138974
42 2 3.60922 3.65664 15.7632
43 2 7.69775 3.61135 0.327139
44 2 11.5286 3.45941 15.9344
45 2 15.6586 3.71061 0.291098
46 2 19.7827 3.855 0.141698
47 2 23.7587 3.97553 15.9483
48 2 27.6508 3.68789 16.0284
49 2 31.7257 3.65785 0.348597
50 2 35.7771 3.66574 0.264729
51 2 39.7754 3.89966 15.6574
52 2 43.6812 3.97901 0.110619
53 2 47.6981 3.99784 15.8309
54 2 51.7475 4.00656 0.0457206
55 2 55.793 4.24107 0.0361046
56 2 59.8807 4.10109 15.7656
57 2 63.9172 4.23849 15.9272
58 2 67.6678 3.89257 0.0623548
59 2 71.5988 3.96366 -0.0405127
60 2 75.5202 4.04367 -0.0475513
61 2 79.2546 3.86948 0.236134
62 2 83.2248 3.85758 15.8112
63 2 87.2341 3.8576 15.9895
64 2 91.1066 3.78688 0.284783
65 2 95.005 3.71002 16.0434
66 2 98.9001 3.43782 16.1265
67 2 102.794 3.48125 15.8001
68 2 106.813 3.506 15.9343
69 2 110.913 3.47549 15.7803
70 2 114.613 3.51947 15.8802
71 2 118.44 3.50128 15.8801
72 2 122.455 3.33982 15.7871
73 2 126.23 3.38553 0.0429712
74 2 130.234 3.44539 0.4402
75 2 134.043 3.38253 15.9269
76 2 137.825 3.20326 15.9044
77 2 142.088 3.17688 15.9916
78 2 145.972 3.3272 0.330401
79 2 149.855 3.39965 15.9599
80 2 153.892 3.44249 0.176801
81 2 157.828 7.38217 0.0975799
82 2 3.52978 7.3708 0.131635
83 2 7.70471 7.54852 15.9714
84 2 11.6165 7.38111 0.444836
85 2 15.7234 7.44024 0.121375
86 2 19.5521 7.55299 -0.000279722
87 2 23.7902 7.80864 15.9016
88 2 27.5915 7.76937 0.262251
89 2 31.8288 7.56527 15.8789
90 2 35.6693 7.75009 15.9763
91 2 39.4313 7.84579 0.119846
92 2 43.5273 7.78201 15.9268
93 2 47.7414 7.904 15.9116
94 2 51.9297 7.80508 15.9226
95 2 55.8209 7.82336 0.291858
96 2 59.8946 7.79917 0.0595361
97 2 63.7019 8.00617 0.288435
98 2 67.8522 8.136 16.0369
99 2 71.6888 7.84112 15.7358
100 2 75.7057 8.2077 0.17591
101 2 79.4725 7.76991 0.294217
102 2 83.357 7.65315 0.0940447
103 2 87.1692 7.88183 0.228956
104 2 91.1546 7.72354 16.1713
105 2 95.164 7.69891 15.9612
106 2 99.0606 7.59595 0.429007
107 2 102.906 7.6037 0.427771
108 2 106.78 7.46649 15.9368
109 2 110.839 7.53746 0.18808
110 2 114.73 7.50153 15.7756
111 2 118.546 7.42907 -0.0520395
112 2 122.513 7.4465 0.0448302
113 2 126.532 7.41889 15.9142
114 2 130.436 7.41957 15.9915
115 2 134.131 7.12463 0.15292
116 2 138.132 7.12478 0.251689
117 2 141.932 7.16424 0.0884416
118 2 145.909 7.19099 0.160018
119 2 149.87 7.30398 16.192
120 2 153.98 7.25476 15.8519
121 2 157.693 11.3718 15.6708
122 2 3.58258 11.2158 0.115305
123 2 7.60452 11.4404 15.7506
124 2 11.6227 11.512 15.75
125 2 15.7465 11.4238 0.0244087
126 2 19.7268 11.5163 0.212577
127 2 23.6322 11.6667 15.9591
128 2 27.6731 11.6026 15.866
129 2 31.6787 11.4822 16.0547
130 2 35.6696 11.5568 0.276376
131 2 39.6433 11.8044 15.9041
132 2 43.7026 11.7619 0.205055
133 2 47.6552 11.563 0.155217
134 2 51.7252 11.6459 15.7957
135 2 55.621 11.8474 15.9498
136 2 59.9651 11.8677 0.246722
137 2 63.7595 11.9795 15.943
138 2 67.7405 11.9324 16.1672
139 2 71.6504 12.011 0.418775
140 2 75.6411 11.9412 15.9145
141 2 79.5822 11.8561 0.131474
142 2 83.4316 11.8826 0.0886167
143 2 87.3538 11.7958 15.8226
144 2 91.1535 11.5779 15.8558
145 2 95.0222 11.567 0.0976583
146 2 98.904 11.6165 0.0711211
147 2 103.16 11.6363 15.7244
148 2 106.737 11.5507 16.017
149 2 110.929 11.6765 16.0193
150 2 114.84 11.6457 15.7849
151 2 118.645 11.5029 0.197583
152 2 122.591 11.4701 0.0937175
153 2 126.475 11.3688 15.8646
154 2 130.42 11.3648 0.442514
155 2 134.253 11.2884 15.946
156 2 138.016 11.1781 16.0646
157 2 142.117 11.3529 0.13416
158 2 145.967 11.1296 0.134095
159 2 149.923 11.094 15.8722
160 2 153.763 11.1388 0.23967
161 2 157.73 15.0248 0.143868
162 2 3.34872 15.1665 15.8651
163 2 7.25117 15.1593 16.0075
164 2 11.5556 15.2556 0.136985
165 2 15.5321 15.2317 0.209225
166 2 19.5968 15.4371 16.0602
167 2 23.5008 15.6605 0.288715
168 2 27.6024 15.3957 15.9219
169 2 31.636 15.4129 0.15743
170 2 35.4805 15.5644 0.285639
171 2 39.6724 15.5119 15.7265
172 2 43.7038 15.5927 0.268318
173 2 47.6872 15.6471 0.211546
174 2 51.5833 15.8156 0.222992
175 2 55.6922 15.7087 15.9272
176 2 59.7497 15.7852 15.8511
177 2 63.5473 15.7959 15.9938
178 2 67.6362 15.9256 16.0762
179 2 71.689 16.0799 16.0129
180 2 75.6175 15.856 15.8983
181 2 79.6072 15.8809 15.8607
182 2 83.4734 15.9699 15.681
183 2 87.4465 15.7604 0.238355
184 2 91.3874 15.8455 15.8462
185 2 95.0515 15.5632 0.14588
186 2 99.12 15.7454 15.8328
187 2 102.935 15.5938 0.0835955
188 2 106.903 15.4508 15.9132
189 2 110.804 15.8224 15.7502
190 2 114.755 15.3788 16.0122
191 2 118.652 15.3151 16.0648
192 2 122.565 15.4782 15.9649
193 2 126.583 15.4995 0.113635
194 2 130.237 15.5043 0.420022
195 2 134.138 15.2584 16.1015
196 2 138.047 15.3097 16.0997
197 2 141.971 15.3944 0.056424
198 2 145.936 15.1833 -0.0135661
199 2 149.988 15.0569 -0.0218534
200 2 153.93 15.2012 0.190054
201 2 157.914 19.0095 15.8696
202 2 3.45824 19.3144 16.0301
203 2 7.41787 19.3641 15.9961
204 2 11.3557 19.2523 16.1253
205 2 15.4121 19.1621 16.0427
206 2 19.2947 19.3334 15.9868
207 2 23.5991 19.6235 0.248502
208 2 27.4872 19.3552 0.202343
209 2 31.5037 19.3681 16.0075
210 2 35.4543 19.4026 0.0324662
211 2 39.7303 19.5697 0.147507
212 2 43.3958 19.5265 15.9685
213 2 47.5607 19.7672 0.233263
214 2 51.5973 19.5222 15.8548
215 2 55.4047 19.828 16.1168
216 2 59.4529 19.6586 16.0867
217 2 63.6017 19.8053 16.1157
218 2 67.6392 19.833 16.1125
219 2 71.6211 19.7165 15.9079
220 2 75.723 19.911 15.8908
221 2 79.5387 19.9553 15.7965
222 2 83.5025 19.9214 15.6767
223 2 87.3385 19.8828 15.7746
224 2 91.3395 19.5989 15.8627
225 2 95.1755 19.6716 0.123201
226 2 99.1499 19.697 0.275393
227 2 103.13 19.6839 15.9285
228 2 107.063 19.5439 15.9165
229 2 111.087 19.3238 0.203581
230 2 114.972 19.3898 15.8882
231 2 118.623 19.3195 0.320136
232 2 122.712 19.3504 15.9516
233 2 126.511 19.4014 -0.0324113
234 2 130.496 19.3171 15.8163
235 2 134.307 19.3626 0.280288
236 2 138.295 19.2946 0.188667
237 2 142.079 19.1796 15.8145
238 2 145.988 19.2134 0.161936
239 2 149.899 19.0204 0.109991
240 2 153.793 19.0237 15.8874
241 2 157.84 23.0563 0.174856
242 2 3.51948 23.0557 15.8163
243 2 7.64104 23.1083 0.345325
244 2 11.4704 23.1753 0.334835
245 2 15.5405 23.0039 15.8033
246 2 19.4596 23.0981 0.322963
247 2 23.4629 23.465 15.9014
248 2 27.503 23.4366 0.237469
249 2 31.3509 23.2286 16.1388
250 2 35.5552 23.4689 0.184531
251 2 39.6049 23.2612 0.147915
252 2 43.5807 23.3947 15.9602
253 2 47.5908 23.4606 16.0607
254 2 51.469 23.5919 0.305764
255 2 55.5286 23.5161 16.204
256 2 59.6513 23.527 16.0721
257 2 63.7323 23.7542 0.205702
258 2 67.6065 23.7253 0.224068
259 2 71.6465 23.7394 15.926
260 2 75.623 23.7658 0.313294
261 2 79.7652 23.7143 15.7634
262 2 83.6242 23.9614 15.9929
263 2 87.6698 24.0652 15.762
264 2 91.3797 23.8131 15.8959
265 2 95.4142 23.6386 15.7632
266 2 99.2154 23.6946 15.8729
267 2 103.126 23.5548 15.7081
268 2 106.888 23.5212 15.7203
269 2 110.787 23.7426 15.8197
270 2 114.741 23.4756 15.8364
271 2 118.748 23.4194 0.245276
272 2 122.641 23.3577 0.0941798
273 2 126.519 23.4096 -0.0552991
274 2 130.493 23.2861 0.103876
275 2 134.261 23.2487 0.30196
276 2 138.383 23.396 0.035167
277 2 142.327 23.3331 15.8095
278 2 146.268 23.4361 0.504679
279 2 150.138 23.1421 15.9283
280 2 153.933 23.0905 0.25656
281 2 157.723 27.0674 0.12436
282 2 3.41579 27.1774 0.22391
283 2 7.39294 27.0957 15.7533
284 2 11.4515 27.0858 0.26155
285 2 15.3627 27.2567 0.121053
286 2 19.2795 27.1202 15.7707
287 2 23.4363 27.2678 0.213412
288 2 27.3575 27.3449 0.251884
289 2 31.525 27.0601 15.9945
290 2 35.4382 27.3683 0.0814966
291 2 39.3871 27.2103 15.826
292 2 43.5811 27.2884 16.0172
293 2 47.4435 27.6275 15.9164
294 2 51.5269 27.599 16.0184
295 2 55.4562 27.4029 16.0948
296 2 59.6955 27.5529 0.187779
297 2 63.3979 27.6243 0.103173
298 2 67.7127 27.6877 0.227053
299 2 71.4517 27.5005 0.269633
300 2 75.5715 27.4853 15.8921
301 2 79.4327 27.6376 16.0355
302 2 83.5452 27.8927 15.7952
303 2 87.4825 27.8827 15.6372
304 2 91.5382 27.8909 15.7923
305 2 95.5186 27.5441 15.8872
306 2 99.2252 27.5309 15.815
307 2 103.049 27.576 15.6943
308 2 107.318 27.631 0.135201
309 2 110.985 27.5451 0.281133
310 2 114.856 27.5113 0.123555
311 2 118.737 27.43 15.8426
312 2 122.816 27.3114 -0.0207323
313 2 126.567 27.2403 0.189599
314 2 130.406 27.3274 15.7613
315 2 134.457 27.267 15.8036
316 2 138.238 27.212 0.289158
317 2 142.147 27.3269 16.0275
318 2 146.196 27.2649 0.230336
319 2 150.057 27.3455 0.098956
320 2 154.04 27.2863 0.163274
321 2 158.004 31.1365 0.186228
322 2 3.51107 31.1269 15.7674
323 2 7.36444 31.071 0.354312
324 2 11.3543 30.8766 15.6779
325 2 15.4072 31.0129 0.0883584
326 2 19.3358 30.9898 0.00464008
327 2 23.4005 31.2052 0.219452
328 2 27.5713 31.1933 0.226051
329 2 31.4561 31.2993 0.179246
330 2 35.4867 30.9885 15.9727
331 2 39.355 31.1073 15.8623
332 2 43.334 31.2583 15.9384
333 2 47.467 31.4317 16.0109
334 2 51.4265 31.4209 0.0711916
335 2 55.3857 31.4263 0.26496
336 2 59.4558 31.2724 16.0627
337 2 63.3455 31.4744 16.1138
338 2 67.567 31.5309 15.9044
339 2 71.6556 31.607 0.163472
340 2 75.4486 31.6345 0.255558
341 2 79.4433 31.581 16.0696
342 2 83.6349 31.8244 0.10562
343 2 87.5363 31.6588 -0.0397104
344 2 91.6306 31.7624 0.170111
345 2 95.4158 31.6992 15.784
346 2 99.332 31.5257 16.0652
347 2 103.279 31.6725 15.8912
348 2 107.29 31.5472 15.7667
349 2 111.021 31.6486 0.193861
350 2 115.134 31.7593 15.8949
351 2 118.83 31.5938 15.8447
352 2 122.788 31.2916 15.6031
353 2 126.796 31.168 15.8538
354 2 130.536 31.469 15.876
355 2 134.478 31.4505 15.9118
356 2 138.313 31.3602 0.166402
357 2 142.449 31.3284 0.233909
358 2 146.191 31.1965 16.0913
359 2 149.996 31.1918 0.0618979
360 2 153.96 31.1459 0.3302
361 2 157.936 35.0246 0.130463
362 2 3.60242 35.0383 0.316857
363 2 7.62081 34.9318 0.149096
364 2 11.6032 34.936 0.191283
365 2 15.1656 34.9448 0.236818
366 2 19.2881 34.9313 0.113526
367 2 23.4261 34.9493 0.209461
368 2 27.4905 35.0707 0.27848
369 2 31.3629 35.0587 0.310038
370 2 35.2294 35.1137 0.152668
371 2 39.3819 34.9332 15.8886
372 2 43.4308 35.259 0.192225
373 2 47.3825 35.2365 16.022
374 2 51.2822 35.3593 0.333866
375 2 55.5954 35.241 15.7133
376 2 59.2961 35.422 0.296701
377 2 63.4728 35.4136 16.0211
378 2 67.4251 35.493 0.245241
379 2 71.394 35.6976 -0.0188054
380 2 75.3238 35.4896 0.465589
381 2 79.6418 35.4725 15.8422
382 2 83.5074 35.5155 0.0513763
383 2 87.5434 35.5936 15.6596
384 2 91.4307 35.7191 0.208675
385 2 95.5146 35.6315 15.8487
386 2 99.5632 35.577 16.0983
387 2 103.386 36.0441 15.9833
388 2 107.209 35.4314 15.9401
389 2 111.072 35.733 0.203717
390 2 115.16 35.5963 15.9322
391 2 119.051 35.5155 15.826
392 2 122.737 35.323 0.153489
393 2 126.657 35.4732 0.143249
394 2 130.617 35.441 0.173717
395 2 134.663 35.3497 0.236996
396 2 138.523 35.328 15.6978
397 2 142.441 35.3039 0.0478128
398 2 146.407 35.269 15.7331
399 2 150.303 35.0829 0.371279
400 2 154.076 35.1616 0.329793
401 2 158.109 39.0502 0.129384
402 2 3.82073 38.9568 0.0533239
403 2 7.53875 38.804 0.140844
404 2 11.3984 39.0381 16.0177
405 2 15.3578 38.8395 0.188414
406 2 19.2795 38.8727 0.273673
407 2 23.5064 38.8486 15.9964
408 2 27.173 39.1296 0.165747
409 2 31.377 39.1103 15.8931
410 2 35.2521 38.9715 0.174917
411 2 39.3223 38.998 0.230778
412 2 43.3195 39.0719 15.8216
413 2 47.2177 39.139 0.159414
414 2 51.2686 39.1912 15.7799
415 2 55.346 39.3204 0.262987
416 2 59.3884 39.1432 15.9464
417 2 63.3767 39.3849 0.103888
418 2 67.4006 39.4867 0.0172115
419 2 71.2839 39.586 15.6891
420 2 75.6626 39.5253 0.137385
421 2 79.5935 39.3883 15.9489
422 2 83.5566 39.4094 15.9733
423 2 87.4925 39.6145 0.242082
424 2 91.4072 39.7962 15.9316
425 2 95.502 39.6159 0.107782
426 2 99.4193 39.5929 0.110373
427 2 103.505 39.9449 15.8192
428 2 107.199 39.6852 0.197775
429 2 111.311 39.482 15.9156
430 2 115.079 39.6013 0.181002
431 2 118.934 39.6769 0.0634475
432 2 123.039 39.4478 15.8337
433 2 126.8 39.3678 15.828
434 2 130.74 39.4088 15.7618
435 2 134.699 39.5777 0.130107
436 2 138.629 39.4293 0.0308617
437 2 142.674 39.2671 0.22808
438 2 146.536 39.2124 16.0019
439 2 150.461 39.1879 16.1861
440 2 154.121 39.0329 15.9488
441 2 158.136 43.1326 0.266692
442 2 3.70588 43.035 0.294464
443 2 7.63992 42.9206 0.254358
444 2 11.4505 42.8203 0.430621
445 2 15.4628 42.7685 0.301937
446 2 19.5109 42.7596 0.331951
447 2 23.2372 42.6663 0.399975
448 2 27.2606 42.7363 0.162337
449 2 31.0157 42.9793 0.513232
450 2 35.0274 42.7348 0.213984
451 2 39.1607 42.8557 0.194055
452 2 43.159 42.8135 -0.0178189
453 2 47.2093 43.0244 0.219524
454 2 51.1838 43.056 0.228507
455 2 55.3225 43.1328 15.8927
456 2 59.4113 43.3338 15.9839
457 2 63.3464 43.304 0.1867
458 2 67.1844 43.292 15.8275
459 2 71.2849 43.4139 0.128812
460 2 75.48 43.2667 15.8944
461 2 79.4031 43.3479 15.8189
462 2 83.4631 43.3772 0.0396894
463 2 87.23 43.6422 0.0781873
464 2 91.5303 43.5676 0.177211
465 2 95.4412 43.5869 15.7058
466 2 99.4875 43.6607 16
467 2 103.553 43.7897 15.8886
468 2 107.5 43.7142 15.8516
469 2 111.296 43.7823 15.8944
470 2 115.151 43.6127 15.9758
471 2 119.03 43.6026 15.8411
472 2 122.938 43.4538 15.9608
473 2 126.626 43.3347 15.8224
474 2 130.756 43.544 0.291309
475 2 134.614 43.4726 0.12692
476 2 138.792 43.3863 0.282789
477 2 142.623 43.3888 15.8808
478 2 146.4 43.3027 16.0914
479 2 150.302 43.3949 16.1724
480 2 154.309 43.0829 0.41496
481 2 157.963 47.008 0.327279
482 2 3.71061 47.1574 0.0756562
483 2 7.87924 46.9898 0.395901
484 2 11.642 47.0425 16.0987
485 2 15.5919 46.8551 0.239461
486 2 19.3981 46.9829 16.0858
487 2 23.2235 46.8744 0.427484
488 2 27.1011 46.8056 0.226581
489 2 31.2393 46.9484 0.359866
490 2 35.3923 46.6011 0.306499
491 2 39.2325 46.8054 15.811
492 2 43.1038 46.6253 0.256393
493 2 46.9689 46.9783 0.215132
494 2 51.1853 46.808 0.235772
495 2 55.3251 46.9433 0.272597
496 2 59.2613 47.0506 15.8394
497 2 63.3799 46.9706 15.8504
498 2 67.3441 47.2082 -0.0539521
499 2 71.4282 47.4563 0.0401019
500 2 75.3208 47.2718 0.227062
501 2 79.2057 47.3369 15.6683
502 2 83.2696 47.395 0.0726697
503 2 87.3358 47.3678 0.0672685
504 2 91.3043 47.3956 0.123624
505 2 95.3897 47.3876 16.1872
506 2 99.4612 47.4548 15.9851
507 2 103.276 47.4736 0.373355
508 2 107.33 47.6765 0.294296
509 2 111.249 47.7411 15.9046
510 2 115.292 47.8477 15.7612
511 2 118.927 47.485 -0.00672699
512 2 122.753 47.457 15.8669
513 2 126.874 47.406 0.230985
514 2 130.732 47.3096 15.9579
515 2 134.586 47.3402 0.226913
516 2 138.708 47.4929 0.214034
517 2 142.489 47.2947 0.230045
518 2 146.372 47.3174 0.345679
519 2 150.304 47.1362 16.0633
520 2 154.152 47.3049 16.0015
521 2 158.263 51.0861 0.380759
522 2 3.60207 51.1461 15.8535
523 2 7.6644 51.0712 0.196123
524 2 11.5112 51.0294 16.0363
525 2 15.5365 50.9558 0.248632
526 2 19.5955 50.7425 0.387235
527 2 23.426 50.8436 16.2954
528 2 27.2845 50.9852 0.215818
529 2 31.0468 50.9117 0.258139
530 2 35.1618 50.6774 0.302717
531 2 39.1616 50.8279 0.0647957
532 2 43.2276 50.71 16.0027
533 2 47.1895 50.9739 15.9771
534 2 51.2334 50.8443 15.9573
535 2 55.1131 50.8142 0.27204
536 2 59.2395 50.9654 15.9093
537 2 63.2672 50.9844 15.9976
538 2 67.2332 51.0305 0.307232
539 2 71.2461 51.2519 15.6162
540 2 75.1639 51.3451 0.355255
541 2 79.3297 51.1329 0.146543
542 2 83.4159 51.2016 0.0123592
543 2 87.4144 51.2108 0.11896
544 2 91.2469 51.3442 0.0778107
545 2 95.4017 51.2865 15.8667
546 2 99.3825 51.5153 15.8528
547 2 103.492 51.4832 15.9353
548 2 107.374 51.6005 0.254603
549 2 111.369 51.6352 0.277101
550 2 115.322 51.7022 0.170982
551 2 119.244 51.4505 15.6826
552 2 122.953 51.5465 0.247959
553 2 126.79 51.5212 15.6941
554 2 130.99 51.3281 0.172081
555 2 134.852 51.2928 15.883
556 2 138.699 51.1873 0.0664419
557 2 142.427 51.2404 15.7097
558 2 146.492 51.2533 0.124975
559 2 150.321 51.3709 0.105619
560 2 154.205 51.5401 15.7828
561 2 0.0208282 55.1085 0.166227
562 2 3.88945 55.0386 0.285842
563 2 7.85968 55.0741 0.158854
564 2 11.791 55.227 0.401856
565 2 15.608 55.0052 16.003
566 2 19.48 54.9921 0.321812
567 2 23.303 54.679 0.35566
568 2 27.5241 54.7967 16.0262
569 2 31.1119 54.807 0.477521
570 2 35.1371 54.7477 0.0472675
571 2 39.1743 54.7437 0.34162
572 2 42.9928 54.6437 0.213203
573 2 46.9935 54.7419 0.158701
574 2 50.9703 54.8347 0.263029
575 2 55.2585 54.7158 16.1063
576 2 59.1196 54.909 16.1657
577 2 63.1243 54.8784 15.9533
578 2 67.2519 54.9984 0.225741
579 2 71.125 55.1117 0.200684
580 2 75.28 55.2566 15.8573
581 2 79.1958 55.3666 15.9197
582 2 83.2799 55.0514 0.126758
583 2 87.2234 55.194 15.7253
584 2 91.2469 55.3435 0.308561
585 2 95.3395 55.3194 0.305026
586 2 99.443 55.2464 15.9591
587 2 103.461 55.5324 0.234601
588 2 107.333 55.4829 0.254586
589 2 111.421 55.5265 15.7164
590 2 115.235 55.5557 -0.0559366
591 2 119.22 55.533 15.8545
592 2 122.87 55.4949 0.278465
593 2 126.98 55.5206 0.157654
594 2 130.863 55.3061 16.0237
595 2 134.665 55.4415 15.9848
596 2 138.554 55.3193 16.1371
597 2 142.631 55.3579 0.268412
598 2 146.5 55.4683 0.219857
599 2 150.458 55.259 0.411043
600 2 154.446 55.2682 0.266083
601 2 158.212 59.182 0.162987
602 2 3.74017 59.097 15.9842
603 2 7.94193 58.9463 0.254859
604 2 11.6612 59.2236 16.1604
605 2 15.8919 58.8219 16.1082
606 2 19.6849 58.9622 0.0278732
607 2 23.3836 58.8188 0.256147
608 2 27.3709 58.842 0.199197
609 2 31.2912 58.7172 0.100179
610 2 35.3142 58.658 15.8659
611 2 39.0599 58.7083 0.528301
612 2 43.1209 58.6008 0.513929
613 2 46.901 58.6844 -0.0713754
614 2 51.0869 58.8629 0.154404
615 2 55.2165 58.5936 15.9146
616 2 59.0968 58.7642 15.9182
617 2 63.0075 58.808 15.8866
618 2 67.1004 58.8031 15.8959
619 2 71.3138 58.9293 15.9699
620 2 75.2648 59.0172 15.9598
621 2 79.1948 59.037 0.338142
622 2 83.2259 59.0579 0.267261
623 2 87.2052 59.059 0.19973
624 2 91.1205 59.2184 0.205889
625 2 95.3091 59.3847 0.367266
626 2 99.3157 59.3205 15.8418
627 2 103.352 59.3828 0.226573
628 2 107.323 59.3369 0.251035
629 2 111.354 59.5196 15.9492
630 2 115.279 59.3336 15.8459
631 2 119.204 59.7047 15.7147
632 2 123.118 59.716 15.6817
633 2 127.173 59.5621 0.0843943
634 2 130.85 59.378 16.0229
635 2 134.78 59.4208 16.0424
636 2 138.728 59.3917 16.0979
637 2 142.503 59.6836 0.214524
638 2 146.543 59.2373 0.108671
639 2 150.564 59.5032 0.0731301
640 2 154.273 59.1748 0.182854
641 2 0.0637898 63.1983 0.204683
642 2 3.98358 63.057 0.343436
643 2 7.75545 63.1347 16.2147
644 2 11.762 63.0445 16.2458
645 2 15.7821 62.9567 0.436765
646 2 19.4562 62.8935 0.0358699
647 2 23.6081 62.9354 0.228802
648 2 27.372 62.7794 0.116566
649 2 31.2914 62.897 0.278688
650 2 35.236 62.6659 0.392054
651 2 39.1935 62.4936 0.38769
652 2 43.1567 62.4525 16.1359
653 2 46.9303 62.4582 15.7656
654 2 51.1574 62.6681 0.078093
655 2 55.0639 62.5271 0.218837
656 2 58.8857 62.6316 15.902
657 2 62.9327 62.6405 0.246533
658 2 67.1154 62.6664 16.0175
659 2 71.1684 62.8831 15.8959
660 2 75.2392 62.7718 0.112016
661 2 79.1088 62.9761 15.8024
662 2 83.1235 62.7368 0.266649
663 2 87.1351 62.8231 15.8721
664 2 91.1897 63.0701 15.7877
665 2 95.0422 63.2883 16.068
666 2 99.2053 63.119 15.8176
667 2 103.251 63.3348 0.038103
668 2 106.924 63.5586 15.8702
669 2 111.117 63.3734 16.2031
670 2 115.194 63.4339 0.492598
671 2 119.028 63.5884 0.20305
672 2 122.982 63.5878 0.221677
673 2 127.264 63.4851 15.8819
674 2 130.952 63.4044 0.364442
675 2 135.001 63.4864 16.1543
676 2 138.846 63.5489 0.364877
677 2 142.775 63.4948 15.9386
678 2 146.68 63.1243 0.283124
679 2 150.738 63.4168 0.252507
680 2 154.53 63.4163 0.0825532
681 2 0.307802 67.2486 0.213463
682 2 4.11283 67.1273 0.197468
683 2 7.84643 66.9461 16.0344
684 2 11.9217 66.9231 15.9372
685 2 15.776 66.9635 0.335685
686 2 19.662 66.9536 0.108294
687 2 23.5538 66.936 0.225774
688 2 27.6624 66.8263 0.226411
689 2 31.5706 66.9014 0.250395
690 2 35.4001 66.7766 15.9669
691 2 39.4393 66.4771 15.9283
692 2 43.2556 66.2483 16.0658
693 2 47.1557 66.4935 15.997
694 2 51.2014 66.5726 0.348058
695 2 55.0095 66.4532 15.9039
696 2 59.0966 66.5366 15.7862
697 2 63.1031 66.5393 0.351295
698 2 67.011 66.6176 15.7461
699 2 71.107 66.685 0.213618
700 2 74.957 66.7529 0.131623
701 2 78.9397 66.9327 15.8604
702 2 83.1092 66.8517 16.0187
703 2 87.108 66.8708 15.9851
704 2 91.0337 66.8782 0.362848
705 2 95.1233 66.9802 15.9756
706 2 99.1077 67.0981 15.9783
707 2 103.076 67.187 0.202431
708 2 107.201 67.3281 0.321391
709 2 111.051 67.2486 16.0598
710 2 115.045 67.4437 15.7822
711 2 119.077 67.3218 0.168722
712 2 123.223 67.5046 15.9218
713 2 127.17 67.7394 -0.066798
714 2 131.221 67.5071 0.227796
715 2 135.132 67.4888 15.9021
716 2 138.962 67.5045 0.331854
717 2 142.77 67.5911 16.0915
718 2 146.711 67.3487 15.9451
719 2 150.521 67.4037 0.158728
720 2 154.56 67.2696 0.41171
721 2 158.361 71.1063 15.7305
722 2 4.08534 71.0761 0.388809
723 2 8.07955 71.0636 0.340369
724 2 12.0097 71.0453 0.226706
725 2 15.9817 71.0474 15.8741
726 2 19.9485 70.8247 0.290568
727 2 23.5906 70.9417 0.276292
728 2 27.3636 70.7827 0.181859
729 2 31.4284 70.9143 0.218291
730 2 35.4502 70.8896 0.481831
731 2 39.3122 70.6655 0.326087
732 2 42.9443 70.6815 0.219964
733 2 46.9691 70.4159 16.0502
734 2 51.1435 70.5686 0.338989
735 2 54.8453 70.4716 16.0692
736 2 59.02 70.5467 16.2143
737 2 62.9583 70.5685 16.1301
738 2 67.1143 70.6245 16.0594
739 2 71.0698 70.4785 0.319775
740 2 74.8696 70.5882 15.9514
741 2 79.069 70.7851 0.209419
742 2 83.0384 70.855 0.393713
743 2 87.0067 70.8541 15.995
744 2 90.9939 71.0175 16.0066
745 2 95.1231 70.8869 16.0346
746 2 99.2409 71.0208 16.0857
747 2 103.014 71.1675 15.9289
748 2 107.199 71.2522 0.166273
749 2 111.067 71.217 0.168547
750 2 115.181 71.3108 0.0928203
751 2 119.165 71.3453 0.0502693
752 2 122.961 71.4403 15.9753
753 2 127.214 71.6431 0.0721659
754 2 131.086 71.4783 0.181976
755 2 134.958 71.5933 0.203117
756 2 139.039 71.611 15.9683
757 2 142.933 71.5449 16.1181
758 2 146.863 71.4885 16.1967
759 2 150.738 71.3942 0.265962
760 2 154.706 71.2009 0.181218
761 2 0.366941 75.2342 16.1788
762 2 3.99894 75.1611 15.9033
763 2 8.25868 74.9651 0.333638
764 2 12.0094 75.2863 0.330973
765 2 15.8668 75.0643 16.0031
766 2 19.758 75.0984 0.109392
767 2 23.8135 74.7622 0.123695
768 2 27.5649 74.8137 0.163247
769 2 31.3836 74.7832 0.0551343
770 2 35.293 74.7974 0.323876
771 2 39.2094 74.7475 0.133015
772 2 43.2476 74.719 0.239727
773 2 47.1095 74.3614 0.0843559
774 2 51.0145 74.4614 16.0356
775 2 54.9294 74.602 15.884
776 2 58.7719 74.2752 16.0427
777 2 63.0387 74.4681 15.7514
778 2 66.989 74.3487 15.9665
779 2 70.888 74.3295 0.222085
780 2 75.1173 74.7086 0.0597682
781 2 78.9351 74.6059 0.154272
782 2 82.8543 74.6562 15.9446
783 2 86.9397 74.654 15.9022
784 2 91.094 74.7393 0.166679
785 2 95.1038 74.7312 15.9563
786 2 99.0643 74.9458 16.0839
787 2 102.991 74.9867 15.9955
788 2 107.013 75.0801 0.0335808
789 2 111.148 75.1176 0.00417051
790 2 115.033 75.2026 0.153416
791 2 119.227 75.0871 0.179207
792 2 123.056 75.5593 0.277254
793 2 127.2 75.4967 15.9422
794 2 131.182 75.5583 15.7968
795 2 134.927 75.4576 0.404012
796 2 139.14 75.4254 15.8187
797 2 142.925 75.4588 16.1685
798 2 146.817 75.2597 16.0368
799 2 150.752 75.1347 15.9471
800 2 154.738 75.1825 15.8031
801 2 0.441492 79.0726 0.18205
802 2 4.25767 79.2373 0.116651
803 2 8.12346 79.2027 0.161228
804 2 12.0981 79.1921 16.0158
805 2 16.1175 78.9687 15.9991
806 2 19.9524 78.9976 0.130874
807 2 23.7426 79.1765 0.32741
808 2 27.688 78.9885 0.136948
809 2 31.6997 78.8375 15.7961
810 2 35.4897 78.8361 0.311759
811 2 39.3533 78.7369 0.174444
812 2 43.3236 78.8256 0.27911
813 2 47.1211 78.5564 0.10458
814 2 51.0301 78.4964 0.178293
815 2 54.8558 78.6852 0.187677
816 2 58.8886 78.4913 0.306452
817 2 63.0028 78.3627 0.147986
818 2 66.8974 78.3308 0.332615
819 2 70.8982 78.3182 15.8245
820 2 74.8565 78.6566 -0.0951044
821 2 78.9864 78.5631 -0.0384514
822 2 82.9493 78.7905 16.044
823 2 87.0009 78.513 15.9773
824 2 90.8826 78.7473 15.9522
825 2 94.8794 78.6325 0.167543
826 2 98.8825 78.8594 0.228458
827 2 102.921 78.7146 15.7681
828 2 107.1 79.099 0.0435056
829 2 111.217 79.0031 15.9558
830 2 115.043 79.1853 0.395165
831 2 119.06 78.8836 0.080902
832 2 123.114 79.392 15.9151
833 2 127.077 79.2888 0.267341
834 2 131.119 79.403 15.8864
835 2 134.901 79.5626 0.0606213
836 2 139.036 79.4233 -0.046905
837 2 142.934 79.3365 16.0183
838 2 146.817 79.2989 16.0699
839 2 150.793 79.1069 16.0228
840 2 154.812 79.4393 0.386611
841 2 0.318645 83.1804 0.12356
842 2 4.19196 83.1704 15.8112
843 2 8.16978 83.0406 0.150495
844 2 12.2533 82.8927 15.9407
845 2 16.2853 83.0375 15.9202
846 2 19.9277 83.1326 0.110071
847 2 23.9179 82.9878 0.0670262
848 2 27.7441 82.9411 0.210436
849 2 31.5043 83.0236 15.7422
850 2 35.5952 82.7548 0.23432
851 2 39.5602 82.8041 0.238051
852 2 43.4317 82.7069 0.266392
853 2 47.3542 82.6149 0.271593
854 2 51.327 82.5555 0.198326
855 2 55.0164 82.4195 0.0154104
856 2 58.8313 82.3732 15.9401
857 2 62.9649 82.1427 16.0359
858 2 66.9048 82.1584 15.9051
859 2 70.7323 82.2094 0.296766
860 2 74.9002 82.6721 0.121546
861 2 78.9201 82.4771 0.227335
862 2 82.9923 82.5118 15.9554
863 2 87.0747 82.4285 15.9248
864 2 90.9651 82.6027 15.8544
865 2 94.9401 82.692 15.8199
866 2 99.0501 82.9103 15.7533
867 2 103.066 82.9123 15.813
868 2 106.92 82.9881 0.145481
869 2 110.877 83.1331 15.9
870 2 114.839 83.1162 0.41232
871 2 119.018 83.1968 0.164205
872 2 123.063 83.2105 15.8734
873 2 126.913 83.1944 15.9033
874 2 131.005 83.1918 15.9578
875 2 135.054 83.2484 0.0859737
876 2 139.077 83.2448 0.0927497
877 2 143.108 83.4427 0.11979
878 2 147.123 83.4376 15.9932
879 2 150.877 83.291 15.7814
880 2 154.867 83.331 15.8954
881 2 0.329865 87.2046 -0.00758413
882 2 4.27552 87.0685 -0.044438
883 2 8.33161 87.3213 0.13215
884 2 12.0516 87.0148 15.9507
885 2 16.1916 86.9599 15.6917
886 2 19.9459 87.1353 0.202939
887 2 23.9706 87.0072 0.125668
888 2 27.8621 86.8466 0.272942
889 2 31.805 86.8336 16.0213
890 2 35.6049 86.8319 0.345811
891 2 39.497 86.8437 0.188546
892 2 43.406 86.7068 0.0644795
893 2 47.2878 86.5842 0.0148527
894 2 51.1751 86.5122 0.0354091
895 2 55.17 86.4718 0.280759
896 2 59.0439 86.3967 0.0376095
897 2 62.9783 86.2007 16.0707
898 2 66.8926 86.2991 15.9131
899 2 70.8755 86.0893 0.191324
900 2 74.7697 86.2421 15.8051
901 2 78.9366 86.285 0.203318
902 2 82.805 86.233 15.7013
903 2 86.8679 86.4535 0.163858
904 2 90.9271 86.4208 15.8543
905 2 94.6889 86.6722 15.7635
906 2 98.974 86.685 15.9489
907 2 102.903 86.8805 15.7875
908 2 106.929 86.7666 15.6502
909 2 110.856 87.0308 0.293166
910 2 115.099 87.0986 15.9661
911 2 119.133 87.0691 15.9579
912 2 122.96 86.9379 15.8378
913 2 126.966 87.1893 15.9395
914 2 130.965 87.0945 15.9142
915 2 134.831 87.4218 0.0582955
916 2 139.067 87.2006 0.142427
917 2 142.976 87.1535 15.9781
918 2 147.099 87.3969 15.8419
919 2 150.891 87.2778 15.901
920 2 154.753 87.2715 0.249685
921 2 0.519946 91.2187 15.9136
922 2 4.49418 91.2882 15.7046
923 2 8.33874 91.211 0.0966662
924 2 12.1803 91.1316 15.8787
925 2 16.0918 91.056 15.7913
926 2 19.9205 90.9811 0.136714
927 2 24.0673 91.0326 15.8948
928 2 27.904 90.8265 0.281936
929 2 32.0341 91.0057 15.8011
930 2 35.7637 90.9886 0.246875
931 2 39.4131 90.8585 0.346611
932 2 43.431 90.6689 0.241471
933 2 47.4875 90.5452 0.143469
934 2 51.3964 90.4023 15.8624
935 2 55.2834 90.4999 0.293054
936 2 59.2424 90.4912 15.6562
937 2 62.969 90.3508 0.31247
938 2 66.9656 90.1916 0.231845
939 2 70.8577 90.1573 0.00501118
940 2 75.0426 90.0146 15.8924
941 2 78.9772 90.2188 15.8931
942 2 82.8177 90.1803 15.8027
943 2 86.9578 90.5323 16.0244
944 2 90.8683 90.4211 0.42126
945 2 94.8078 90.6028 16.0257
946 2 98.9984 90.6595 15.7945
947 2 102.861 90.5865 15.6453
948 2 106.975 90.762 15.9262
949 2 110.878 90.9264 15.7088
950 2 114.872 90.767 15.8918
951 2 119.025 90.9846 0.228314
952 2 122.857 90.8135 0.372135
953 2 126.961 91.0373 0.115818
954 2 130.868 91.0911 15.745
955 2 135.06 91.0034 0.161794
956 2 139.041 91.1829 15.7085
957 2 143.022 90.9925 15.955
958 2 147.189 91.175 0.221939
959 2 150.886 91.3954 15.7964
960 2 154.91 91.3268 15.9044
961 2 0.50933 95.3217 15.8668
962 2 4.49608 95.1008 15.7828
963 2 8.1916 95.1853 0.314153
964 2 12.3423 95.2232 15.7816
965 2 16.2534 95.1069 15.9734
966 2 20.0468 94.9929 15.8956
967 2 24.258 95.0459 15.764
968 2 28.0439 95.0174 0.300959
969 2 31.7815 94.9437 15.9093
970 2 35.8973 94.8816 0.174198
971 2 39.6973 94.6555 0.181007
972 2 43.6748 94.5665 0.0497425
973 2 47.5034 94.599 15.869
974 2 51.3581 94.4142 15.8969
975 2 55.2644 94.5058 15.7596
976 2 59.258 94.2697 0.0994487
977 2 63.145 94.2731 16.0628
978 2 67.3325 94.4168 15.9271
979 2 71.0126 94.2458 0.0500749
980 2 74.8958 94.0945 15.8477
981 2 78.8142 94.1464 15.8752
982 2 82.8593 94.1566 0.176349