ITEM: TIMESTEP
18400
ITEM: NUMBER OF ATOMS
32000
ITEM: BOX BOUNDS xy xz yz pp pp pp
0.0000000000000000e+00 1.5831999999999999e+02 0.0000000000000000e+00
0.0000000000000000e+00 1.5831999999999999e+02 0.0000000000000000e+00
1.6322475069769560e-01 1.5934487249302144e+01 0.0000000000000000e+00
ITEM: ATOMS id type x y z
1 2 157.919 157.945 16.1304
2 2 3.6707 157.835 0.0700694
3 2 7.7117 157.896 15.7585
4 2 11.6825 158.048 16.042
5 2 15.6099 157.952 15.9751
6 2 19.7257 157.91 15.9833
7 2 23.6268 158.099 0.203304
8 2 27.755 158.08 16.1203
9 2 31.9551 158.239 15.9161
10 2 35.8102 158.364 15.9058
11 2 39.7133 158.267 0.175901
12 2 43.8338 0.000989306 0.0813633
13 2 47.9525 158.529 15.8528
14 2 51.9582 -0.0471565 -0.00739796
15 2 55.8089 158.392 16.0043
16 2 59.822 0.117456 0.147416
17 2 63.791 0.17964 15.9404
18 2 67.7476 0.0677279 0.140354
19 2 71.6509 158.261 0.115707
20 2 75.6353 158.331 0.180595
21 2 79.4714 -0.145147 15.7717
22 2 83.2819 158.111 15.8495
23 2 87.1511 158.033 16.061
24 2 91.0724 157.945 0.202778
25 2 94.9723 157.972 16.1498
26 2 99.1489 158.077 16.0344
27 2 102.946 158.026 0.110649
28 2 106.898 157.858 15.9825
29 2 110.768 157.869 0.229749
30 2 114.665 157.987 0.205096
31 2 118.353 157.852 15.8498
32 2 122.283 157.662 16.2163
33 2 126.401 157.699 16.108
34 2 130.38 157.703 15.9104
35 2 134.299 157.688 15.9146
36 2 137.908 157.586 16.0374
37 2 141.943 157.678 0.133089
38 2 145.86 157.477 0.229331
39 2 149.968 157.758 0.362213
40 2 153.914 157.702 0.413915
41 2 157.953 3.39392 0.114769
42 2 3.5713 3.27896 15.8752
43 2 7.43396 3.45312 0.0403616
44 2 11.6906 3.59732 16.0528
45 2 15.5399 3.50951 0.0620316
46 2 19.5078 3.43326 0.279461
47 2 23.5311 3.57465 15.9283
48 2 27.6705 3.68106 15.8918
49 2 31.8171 3.81121 0.128597
50 2 35.8258 3.83777 0.191636
51 2 39.9266 3.83729 16.0597
52 2 43.9247 3.80044 0.0970713
53 2 47.8478 4.11402 16.0424
54 2 51.9181 3.89032 0.106611
55 2 55.7421 4.11454 0.467181
56 2 59.6574 4.11572 16.0322
57 2 63.5924 3.96281 15.8653
58 2 67.7189 4.02381 0.169628
59 2 71.7483 4.01616 0.189796
60 2 75.5579 3.82966 0.0579839
61 2 79.6785 3.93284 0.0241094
62 2 83.3103 3.89379 15.8289
63 2 87.222 3.71204 15.9487
64 2 91.2059 3.7187 0.0826356
65 2 95.1249 3.67634 15.9498
66 2 99.0093 3.81903 15.983
67 2 102.93 3.7302 16.1857
68 2 106.645 3.53639 16.0085
69 2 110.558 3.4846 16.0049
70 2 114.515 3.51415 15.8663
71 2 118.433 3.61275 16.0577
72 2 122.379 3.29022 16.0036
73 2 126.405 3.49359 0.196718
74 2 130.396 3.36425 0.192892
75 2 134.355 3.4132 15.9265
76 2 138.212 3.27818 15.9206
77 2 142.032 3.05569 16.0294
78 2 145.868 3.08562 0.0392031
79 2 149.931 3.24406 16.0465
80 2 153.893 3.17418 0.117997
81 2 157.937 7.17702 0.235605
82 2 3.41658 7.38624 0.0866306
83 2 7.62513 7.46829 15.8897
84 2 11.5655 7.50487 0.200067
85 2 15.5956 7.72062 0.358909
86 2 19.5194 7.39371 0.185853
87 2 23.7501 7.36343 15.9662
88 2 27.5029 7.48925 0.151608
89 2 31.7963 7.81056 15.9927
90 2 35.5867 7.89176 15.811
91 2 39.7209 7.76995 0.291466
92 2 43.8347 7.62609 16.1436
93 2 47.8841 7.97364 15.84
94 2 51.7045 8.07255 15.9571
95 2 55.7469 8.0058 -0.0947734
96 2 59.7337 8.14037 0.228551
97 2 63.668 8.12778 0.112258
98 2 67.7234 8.03344 15.7804
99 2 71.5407 8.10342 15.9813
100 2 75.4451 7.90764 0.134891
101 2 79.4886 7.91575 0.0438035
102 2 83.2618 7.8609 0.108195
103 2 87.2407 7.88639 -0.0560486
104 2 91.1401 7.98193 15.8026
105 2 95.1226 7.78613 16.0384
106 2 98.8924 7.54994 0.0748597
107 2 102.979 7.87515 -0.0361804
108 2 106.844 7.83433 16.0172
109 2 110.56 7.61914 0.0862089
110 2 114.766 7.42309 16.0909
111 2 118.504 7.56034 0.18604
112 2 122.386 7.40522 0.237512
113 2 126.313 7.33486 15.9852
114 2 130.332 7.30427 15.8828
115 2 134.222 7.48241 0.0424847
116 2 138.073 7.3597 0.0713737
117 2 142.195 7.25691 0.110341
118 2 146.055 7.19811 0.0815752
119 2 149.914 7.16454 15.8618
120 2 153.705 7.21036 15.9596
121 2 157.808 11.1657 16.0706
122 2 3.6404 11.3293 0.250391
123 2 7.42883 11.2039 16.18
124 2 11.399 11.5028 16.1349
125 2 15.1959 11.6802 0.314614
126 2 19.6453 11.495 0.271273
127 2 23.5432 11.4657 16.1745
128 2 27.6428 11.4843 16.0553
129 2 31.6402 11.6739 16.0256
130 2 35.6808 11.6045 0.185169
131 2 39.6796 11.6941 16.0073
132 2 43.8189 11.6969 0.178549
133 2 47.7813 11.8631 0.242682
134 2 51.7261 11.9291 15.8851
135 2 55.5328 11.9809 16.0753
136 2 59.5649 11.894 0.259294
137 2 63.7241 12.0402 16.1162
138 2 67.7243 12.1273 15.9691
139 2 71.6473 12.0574 0.0803903
140 2 75.6744 11.9421 15.8941
141 2 79.4928 11.9832 -0.0153276
142 2 83.2372 11.9483 0.125578
143 2 87.4309 11.8554 16.0455
144 2 91.1847 11.7941 15.9365
145 2 95.2598 11.7715 0.215696
146 2 98.9614 11.7597 0.163368
147 2 103.185 11.7091 15.8875
148 2 106.978 11.6123 15.812
149 2 110.822 11.5273 15.981
150 2 114.629 11.5263 15.8994
151 2 118.587 11.4964 0.168586
152 2 122.626 11.4712 0.0673464
153 2 126.409 11.2528 16.0041
154 2 130.31 11.2036 0.122278
155 2 134.245 11.3584 15.9676
156 2 138.182 11.2656 15.6811
157 2 141.981 11.0693 0.285813
158 2 145.982 11.1461 0.293241
159 2 149.974 11.045 15.9093
160 2 153.837 11.0916 0.260353
161 2 157.87 15.0514 0.141606
162 2 3.59668 15.1997 15.855
163 2 7.62042 15.3724 15.9427
164 2 11.5665 15.4054 0.230363
165 2 15.5037 15.4762 0.374049
166 2 19.4725 15.481 15.7543
167 2 23.655 15.4258 0.213656
168 2 27.5989 15.3876 16.0391
169 2 31.7376 15.6262 0.199958
170 2 35.6729 15.5418 0.240658
171 2 39.8185 15.5744 16.1333
172 2 43.5768 15.5751 0.0710632
173 2 47.6469 15.7255 0.160926
174 2 51.7105 15.7709 0.0521054
175 2 55.7027 15.7138 16.0735
176 2 59.5967 15.7546 15.9196
177 2 63.5956 15.8625 16.295
178 2 67.6631 15.975 15.8976
179 2 71.6902 15.995 16.0463
180 2 75.622 15.9531 16.0504
181 2 79.5645 15.8932 15.8338
182 2 83.3482 15.8787 16.0425
183 2 87.2202 15.7201 0.0363539
184 2 91.3327 15.7647 15.5691
185 2 95.2261 15.6489 0.0163943
186 2 99.147 15.7088 16.0017
187 2 103.18 15.5798 0.0381856
188 2 107.086 15.5756 15.7994
189 2 110.943 15.7265 15.8238
190 2 114.855 15.4606 15.8232
191 2 118.716 15.5885 15.7829
192 2 122.487 15.5858 16.0096
193 2 126.409 15.36 0.0815731
194 2 130.42 15.3272 0.221575
195 2 134.496 15.363 15.9105
196 2 138.196 15.1724 15.9003
197 2 142.288 15.1061 0.0930433
198 2 146.047 15.3301 0.0820618
199 2 149.968 15.2341 0.183207
200 2 153.831 15.2857 0.0638915
201 2 157.688 18.9819 15.7423
202 2 3.32643 19.0673 15.8367
203 2 7.35709 19.0207 16.0571
204 2 11.5489 19.1882 16.0349
205 2 15.6468 19.3051 15.9065
206 2 19.3917 19.3862 15.8261
207 2 23.5485 19.0413 0.0903273
208 2 27.612 19.4419 0.0368847
209 2 31.7689 19.4019 15.8193
210 2 35.5879 19.4283 0.24129
211 2 39.6781 19.3962 0.295972
212 2 43.6341 19.6895 16.18
213 2 47.5989 19.5662 0.15509
214 2 51.6471 19.4412 15.9584
215 2 55.6799 19.8398 15.9179
216 2 59.8504 19.8186 15.9593
217 2 63.6975 19.646 15.9221
218 2 67.5438 19.8675 15.9281
219 2 71.5384 19.8469 15.9569
220 2 75.6706 19.9817 16.0542
221 2 79.8415 19.9612 15.881
222 2 83.6422 19.7631 16.1618
223 2 87.5159 19.8198 16.0293
224 2 91.4114 19.7665 15.9635
225 2 95.1912 19.7218 0.10203
226 2 99.2975 19.552 0.112135
227 2 103.111 19.6874 15.694
228 2 106.884 19.6722 15.8283
229 2 110.708 19.551 -0.0718271
230 2 114.727 19.5913 15.9523
231 2 118.679 19.5289 -0.0314829
232 2 122.559 19.4605 16.047
233 2 126.524 19.3541 0.204892
234 2 130.423 19.2446 16.0373
235 2 134.292 19.3349 0.199234
236 2 138.275 19.0673 0.151153
237 2 142.153 19.2086 15.9154
238 2 145.953 19.1958 -0.022047
239 2 150.166 19.353 0.181947
240 2 153.845 19.1835 15.9058
241 2 157.726 23.1157 0.0394858
242 2 3.4484 23.0235 15.8892
243 2 7.2016 22.8042 0.198084
244 2 11.4134 23.1056 0.172207
245 2 15.3414 23.2915 16.1106
246 2 19.5982 23.2315 -0.0397307
247 2 23.4971 23.0116 15.9041
248 2 27.4297 23.1553 -0.0155025
249 2 31.5724 23.3767 15.7606
250 2 35.5956 23.3223 0.27288
251 2 39.6133 23.383 0.166961
252 2 43.4006 23.463 15.8507
253 2 47.483 23.462 16.0614
254 2 51.6914 23.5104 0.154837
255 2 55.7349 23.6699 15.7486
256 2 59.3684 23.765 16.0303
257 2 63.5912 23.7294 0.26726
258 2 67.4305 23.685 0.246398
259 2 71.6685 23.8215 16.1224
260 2 75.5367 24.0371 0.126973
261 2 79.5972 23.9526 16.02
262 2 83.5164 23.7952 15.786
263 2 87.4866 23.7541 16.0492
264 2 91.3534 23.9851 15.7384
265 2 95.2764 23.8231 15.9906
266 2 99.1336 23.8933 15.9249
267 2 103.143 23.5983 15.8894
268 2 106.991 23.5352 15.855
269 2 111.065 23.5726 15.9312
270 2 114.969 23.5668 15.9207
271 2 118.726 23.6987 0.0158068
272 2 122.814 23.5834 0.0398044
273 2 126.517 23.4562 0.228094
274 2 130.628 23.4922 0.155776
275 2 134.433 23.3042 0.0435967
276 2 138.378 23.4991 0.156519
277 2 141.976 23.2387 16.0253
278 2 146.035 22.9831 -0.0270359
279 2 149.909 23.2699 15.8832
280 2 153.907 23.0263 -0.0209878
281 2 157.858 26.9842 0.221485
282 2 3.51507 27.0671 0.278374
283 2 7.33072 26.9926 15.7966
284 2 11.1211 26.9614 0.201982
285 2 15.3675 26.9002 0.256755
286 2 19.5932 27.1523 15.9888
287 2 23.3965 26.985 0.05051
288 2 27.4289 26.9668 0.250858
289 2 31.6216 27.1893 15.9904
290 2 35.4743 27.0415 0.172581
291 2 39.4434 27.4684 16.1579
292 2 43.5598 27.2344 15.8237
293 2 47.3699 27.3996 16.1566
294 2 51.5563 27.3552 16.126
295 2 55.3896 27.6042 16.0187
296 2 59.6219 27.5992 0.335904
297 2 63.5375 27.5482 0.202775
298 2 67.551 27.7312 0.343278
299 2 71.401 27.5972 0.255101
300 2 75.645 27.8829 16.0104
301 2 79.5107 27.9476 15.9715
302 2 83.665 27.7454 15.937
303 2 87.6504 27.5606 15.9501
304 2 91.4034 27.7369 16.0044
305 2 95.4314 27.8851 15.7773
306 2 99.2379 27.8927 15.9071
307 2 103.223 27.5904 15.9823
308 2 107.01 27.773 0.094974
309 2 111.053 27.6185 0.103605
310 2 114.875 27.4408 0.118256
311 2 118.824 27.4664 15.821
312 2 122.494 27.6283 0.0936774
313 2 126.564 27.8314 0.0842304
314 2 130.621 27.4303 15.7704
315 2 134.453 27.4586 16.0745
316 2 138.395 27.2502 0.132671
317 2 142.35 27.2355 15.7792
318 2 146.203 27.225 0.0132196
319 2 150.046 27.2635 0.182057
320 2 154.191 27.1601 0.220565
321 2 157.944 31.1543 0.310844
322 2 3.5669 30.8191 16.028
323 2 7.59168 31.0871 0.0356837
324 2 11.4041 30.9726 16.1043
325 2 15.2534 30.9246 0.212515
326 2 19.3296 31.0367 0.0711689
327 2 23.3612 30.9047 0.161235
328 2 27.3319 30.9802 0.343473
329 2 31.2906 31.0072 0.254844
330 2 35.4868 31.2798 16.0467
331 2 39.4506 31.3132 16.2514
332 2 43.4627 31.2189 15.9253
333 2 47.357 31.197 15.8961
334 2 51.395 31.2781 0.173653
335 2 55.326 31.5637 0.118484
336 2 59.3893 31.3423 16.0421
337 2 63.6221 31.3424 16.0742
338 2 67.338 31.593 16.0864
339 2 71.5917 31.6213 0.301993
340 2 75.5481 31.7625 0.199979
341 2 79.6534 31.7408 15.8765
342 2 83.6787 31.6165 0.0641351
343 2 87.6089 31.6415 0.270375
344 2 91.3481 31.7531 0.0261179
345 2 95.6319 31.8543 15.9406
346 2 99.5049 31.8527 15.8269
347 2 103.219 31.6271 16.0253
348 2 107.226 31.5503 15.9493
349 2 110.985 31.543 0.173552
350 2 115.048 31.384 15.9455
351 2 118.813 31.5437 15.7855
352 2 122.681 31.5049 15.8203
353 2 126.881 31.5576 15.8623
354 2 130.603 31.4013 15.9792
355 2 134.588 31.3527 15.6693
356 2 138.344 31.3529 0.222889
357 2 142.136 31.252 0.132613
358 2 146.348 31.3094 15.9998
359 2 150.283 31.2424 0.270752
360 2 154.077 31.1204 0.201327
361 2 157.958 35.0821 0.169598
362 2 3.69039 35.1821 0.162387
363 2 7.5073 34.873 -0.0741569
364 2 11.292 34.9705 0.126946
365 2 15.346 34.9891 0.182461
366 2 19.3828 34.8602 0.34621
367 2 23.3911 34.8597 0.357665
368 2 27.2288 34.8522 0.28006
369 2 31.4107 34.7224 0.195781
370 2 35.1878 34.9938 0.0981723
371 2 39.446 35.3239 15.8351
372 2 43.2496 35.2666 0.0768925
373 2 47.5237 35.2005 15.9993
374 2 51.4615 35.1087 0.150517
375 2 55.3759 35.2683 16.2446
376 2 59.4748 35.379 0.131846
377 2 63.6303 35.2098 15.849
378 2 67.4509 35.3206 0.263607
379 2 71.399 35.3991 0.254934
380 2 75.5579 35.4025 0.124528
381 2 79.4202 35.5594 16.0763
382 2 83.3682 35.5135 0.208646
383 2 87.5597 35.5743 15.9586
384 2 91.5201 35.7001 -0.00496563
385 2 95.3995 35.75 15.7475
386 2 99.32 35.8307 15.8301
387 2 103.344 35.6083 15.8578
388 2 107.517 35.6267 15.9117
389 2 111.138 35.6163 0.241552
390 2 114.934 35.3687 16.0656
391 2 119.055 35.4619 15.8662
392 2 122.872 35.4831 0.0725212
393 2 126.921 35.4421 0.0434601
394 2 130.702 35.4469 -0.0331585
395 2 134.343 35.3394 0.060811
396 2 138.386 35.2908 15.9368
397 2 142.339 35.1401 0.181297
398 2 146.111 35.2137 15.9309
399 2 150.161 35.2472 0.134916
400 2 153.95 35.1421 0.0972028
401 2 157.981 39.1122 0.296929
402 2 3.4468 39.0735 0.0936227
403 2 7.61444 38.9822 0.00569618
404 2 11.405 38.9618 16.0154
405 2 15.3814 38.8285 0.23286
406 2 19.3523 38.8873 0.174042
407 2 23.2332 38.9863 15.8879
408 2 27.25 38.8108 0.237469
409 2 31.3762 38.7166 15.9639
410 2 35.4226 39.1062 0.217284
411 2 39.258 39.191 0.0870394
412 2 43.3999 39.1042 16.0388
413 2 47.3713 39.2605 0.187977
414 2 51.3661 39.1028 16.0761
415 2 55.5443 39.2155 0.117071
416 2 59.5109 39.1384 15.9653
417 2 63.3179 39.3315 0.0153612
418 2 67.4163 39.3349 -0.00597187
419 2 71.4362 39.1282 16.0573
420 2 75.4211 39.5705 0.0645901
421 2 79.2632 39.4417 15.6583
422 2 83.5783 39.6058 16.0444
423 2 87.5146 39.5804 0.143617
424 2 91.5552 39.4916 15.921
425 2 95.636 39.7674 0.388851
426 2 99.5841 39.7489 0.141982
427 2 103.396 39.5604 16.0092
428 2 107.44 39.619 0.17898
429 2 111.23 39.5112 15.8053
430 2 115.082 39.5846 0.0891957
431 2 118.972 39.4849 0.22606
432 2 122.895 39.5886 16.1747
433 2 126.729 39.5331 15.989
434 2 130.693 39.3536 15.9667
435 2 134.6 39.3546 0.272825
436 2 138.511 39.2668 0.160914
437 2 142.238 39.2614 0.0690783
438 2 146.112 39.2819 15.865
439 2 150.2 39.2893 15.7861
440 2 154.151 39.1575 16.1087
441 2 158.032 43.1521 0.0552786
442 2 3.68956 42.9597 0.314873
443 2 7.64282 43.1016 0.0204828
444 2 11.7263 43.0276 0.124827
445 2 15.4735 42.7971 0.133297
446 2 19.3429 42.9186 0.137468
447 2 23.2816 42.9976 0.0548448
448 2 27.1814 42.6477 0.203661
449 2 31.1286 42.8595 0.0238278
450 2 35.303 42.7807 -0.00255838
451 2 39.3375 43.0286 0.0905618
452 2 43.1862 43.0118 0.231634
453 2 47.3586 43.0785 0.192514
454 2 51.2692 43.0942 0.28287
455 2 55.3567 43.1048 15.9749
456 2 59.3065 43.0995 15.6805
457 2 63.4706 43.2997 0.191294
458 2 67.2126 43.1764 16.013
459 2 71.2638 43.2001 0.0775898
460 2 75.4094 43.1655 15.7647
461 2 79.4235 43.4068 15.8937
462 2 83.5488 43.3161 0.140359
463 2 87.5459 43.4973 0.248684
464 2 91.5351 43.5615 0.119728
465 2 95.3903 43.5025 15.9506
466 2 99.489 43.7658 15.9599
467 2 103.464 43.5814 16.084
468 2 107.272 43.4288 15.785
469 2 111.131 43.5015 15.8474
470 2 115.181 43.5568 15.8037
471 2 119.094 43.3156 16.1004
472 2 123.035 43.477 15.9454
473 2 127.086 43.5598 15.9869
474 2 130.892 43.6643 0.0861861
475 2 134.641 43.3438 0.0360832
476 2 138.523 43.3767 0.0491639
477 2 142.354 43.2603 16.0007
478 2 146.241 43.2712 15.9906
479 2 150.3 43.3473 15.8913
480 2 154.159 43.1979 0.271365
481 2 158.184 47.1274 0.251393
482 2 3.91615 46.9958 0.334306
483 2 7.61043 47.0308 0.166136
484 2 11.4616 47.0349 16.0904
485 2 15.5153 46.979 0.378643
486 2 19.4785 46.9502 16.0248
487 2 23.4965 46.8866 0.0920717
488 2 27.2659 46.7145 0.302763
489 2 31.213 46.6926 0.0706052
490 2 35.0263 46.7568 0.130756
491 2 39.2278 46.8145 15.9467
492 2 43.265 47.0784 0.10211
493 2 47.1929 47.0248 0.135176
494 2 51.3643 47.0334 0.158751
495 2 55.254 47.0405 0.265824
496 2 59.1563 46.8918 15.8826
497 2 63.2301 47.113 15.8766
498 2 67.3348 47.2598 0.23123
499 2 71.4483 47.0697 0.079458
500 2 75.3481 47.124 -0.105729
501 2 79.4119 47.3466 16.0737
502 2 83.4026 47.2475 0.0940657
503 2 87.3727 47.3808 0.0689387
504 2 91.415 47.5584 -0.0213144
505 2 95.2817 47.6486 15.8238
506 2 99.5362 47.5563 15.8316
507 2 103.496 47.656 0.121105
508 2 107.514 47.8301 0.127932
509 2 111.213 47.5497 15.793
510 2 115.338 47.4778 16.0312
511 2 119.257 47.7592 0.0720341
512 2 123.255 47.5157 15.9924
513 2 127.062 47.5476 0.171704
514 2 130.899 47.5757 15.7892
515 2 134.76 47.4018 0.161391
516 2 138.778 47.5396 0.0992933
517 2 142.557 47.3158 0.121032
518 2 146.437 47.3284 0.0874859
519 2 150.365 47.2801 15.9223
520 2 154.275 47.2837 16.0441
521 2 158.211 51.2061 0.158583
522 2 3.86714 51.1477 16.1737
523 2 7.76374 50.9209 0.326331
524 2 11.7338 50.923 16.0474
525 2 15.649 50.8785 0.198831
526 2 19.3645 50.798 0.133663
527 2 23.3169 50.7202 15.8219
528 2 27.5113 50.9022 0.155767
529 2 31.2922 50.6214 0.298575
530 2 35.0807 50.6322 0.331796
531 2 39.1269 50.5027 0.259
532 2 43.0778 50.8543 15.8538
533 2 46.9894 50.7392 16.1455
534 2 51.3532 50.9049 16.058
535 2 55.2938 50.9954 0.189343
536 2 59.2886 51.1766 15.8961
537 2 63.3966 50.9921 15.9324
538 2 67.2052 50.9733 0.185763
539 2 71.3175 50.9154 16.1873
540 2 75.5338 51.1911 0.0143738
541 2 79.4094 51.2011 0.042067
542 2 83.3877 51.1847 0.13902
543 2 87.3555 51.3387 0.0785031
544 2 91.3953 51.189 0.258256
545 2 95.2915 51.3477 16.0372
546 2 99.274 51.3413 15.9162
547 2 103.403 51.6581 16.024
548 2 107.339 51.3971 0.0798693
549 2 111.533 51.6799 0.111237
550 2 115.19 51.4757 0.175735
551 2 119.237 51.6815 16.0807
552 2 123.142 51.6653 0.183705
553 2 126.922 51.5539 15.7973
554 2 130.811 51.4735 -0.0117783
555 2 134.669 51.5005 16.1005
556 2 138.661 51.5206 0.292442
557 2 142.793 51.361 16.158
558 2 146.571 51.4184 0.284086
559 2 150.462 51.2823 0.308994
560 2 154.421 51.0911 15.9406
561 2 -0.18155 55.2913 0.139911
562 2 3.86522 54.9822 0.383488
563 2 7.7909 55.0425 0.344049
564 2 11.5617 54.8698 0.27523
565 2 15.4159 54.8236 16.0965
566 2 19.5663 54.7442 0.16106
567 2 23.5626 54.9122 0.273555
568 2 27.3906 54.8934 15.9405
569 2 31.3905 54.5741 0.218757
570 2 35.2486 54.7518 0.308041
571 2 39.0654 54.6339 0.199356
572 2 43.1906 54.6756 0.189568
573 2 47.183 54.5599 0.259621
574 2 51.1232 54.7322 0.244388
575 2 55.0756 54.7615 15.9788
576 2 59.2555 54.9698 16.0373
577 2 63.3363 54.9424 15.84
578 2 67.4544 55.0075 0.0165854
579 2 71.2552 54.8598 0.279659
580 2 75.3862 54.9638 16.0885
581 2 79.0904 55.0272 16.119
582 2 83.2472 55.2706 0.122066
583 2 87.3084 55.3413 15.7967
584 2 91.4446 55.2373 0.139118
585 2 95.2866 55.115 0.1861
586 2 99.3939 55.2902 15.8995
587 2 103.288 55.3862 0.242387
588 2 107.179 55.6154 0.0712569
589 2 111.244 55.7061 16.198
590 2 115.195 55.6467 0.210131
591 2 119.37 55.649 16.0894
592 2 123.263 55.6374 0.161484
593 2 126.985 55.5565 0.173709
594 2 130.939 55.6424 15.8576
595 2 134.906 55.8268 16.1318
596 2 138.822 55.4195 15.8746
597 2 142.711 55.2214 0.10824
598 2 146.66 55.3295 0.314338
599 2 150.499 55.2348 -0.0454638
600 2 154.319 55.292 0.244112
601 2 158.465 59.188 0.202276
602 2 4.14958 58.9868 16.1779
603 2 7.98488 59.0227 0.288125
604 2 11.5734 58.9816 15.969
605 2 15.7215 58.9518 16.185
606 2 19.5483 58.8018 0.502002
607 2 23.5471 58.8057 0.386478
608 2 27.442 58.8129 0.39415
609 2 31.3224 58.6899 0.150295
610 2 35.2132 58.6724 16.1294
611 2 39.256 58.5443 0.23702
612 2 43.0867 58.5804 0.094541
613 2 47.0609 58.5918 0.31663
614 2 51.1117 58.5809 0.202749
615 2 55.0416 58.7027 15.8244
616 2 59.0485 58.8297 15.9659
617 2 63.364 58.7789 16.0129
618 2 67.2927 58.9899 16.1043
619 2 71.1597 58.8914 16.0391
620 2 75.0594 59.0377 16.0053
621 2 79.119 58.9155 0.158543
622 2 83.2471 59.1409 0.0975586
623 2 87.329 59.2028 0.149335
624 2 91.2296 59.0684 0.0801513
625 2 95.2515 59.0575 0.0341833
626 2 99.159 59.3331 16.0048
627 2 103.273 59.2486 0.078869
628 2 107.3 59.4532 0.185978
629 2 111.249 59.4439 15.9469
630 2 115.247 59.8009 16.017
631 2 119.304 59.6799 16.1085
632 2 123.117 59.4215 16.1344
633 2 126.998 59.6786 0.456513
634 2 131.018 59.6257 15.9619
635 2 134.962 59.5884 15.9906
636 2 138.828 59.5137 16.0578
637 2 142.674 59.3594 0.319972
638 2 146.572 59.5536 0.265368
639 2 150.589 59.1778 0.119465
640 2 154.465 59.1767 0.0778757
641 2 0.0642678 62.9545 0.199864
642 2 4.15389 63.3143 0.0576897
643 2 8.0503 63.0822 16.0115
644 2 11.8099 62.9402 15.9029
645 2 15.8121 62.9412 0.15566
646 2 19.5643 62.8954 0.372465
647 2 23.635 62.9358 0.299037
648 2 27.5229 62.8493 0.0755233
649 2 31.4594 62.8039 0.0451121
650 2 35.2026 62.8269 0.190719
651 2 39.2125 62.6549 0.189679
652 2 43.192 62.7798 15.8799
653 2 47.048 62.5823 15.9973
654 2 51.0318 62.3251 0.129025
655 2 54.8787 62.7745 -0.0620156
656 2 59.3149 62.7132 16.0087
657 2 63.2428 62.6836 0.251157
658 2 67.0333 62.7813 15.8294
659 2 70.9498 62.8815 15.9949
660 2 75.2757 62.9221 0.296172
661 2 79.1766 62.9147 16.0347
662 2 83.124 63.0668 0.392899
663 2 87.2535 63.0898 16.0387
664 2 91.3299 63.0732 16.0307
665 2 95.0885 63.0858 15.89
666 2 99.3024 63.196 15.9891
667 2 103.218 63.2944 0.388794
668 2 107.22 63.284 15.9144
669 2 111.223 63.3674 15.7045
670 2 115.229 63.5915 -0.0236307
671 2 119.261 63.6211 0.024296
672 2 123.074 63.6659 0.25943
673 2 127.085 63.6588 16.1775
674 2 131.136 63.6581 -0.00177072
675 2 135.017 63.5988 16.05
676 2 138.775 63.4199 0.26888
677 2 142.894 63.2913 16.0618
678 2 146.565 63.4793 -0.00797049
679 2 150.571 63.4303 0.139804
680 2 154.574 63.2561 0.238581
681 2 0.0175483 67.2927 0.161519
682 2 4.17413 67.1983 0.140743
683 2 8.00857 67.1818 16.0153
684 2 11.9791 67.0001 15.9885
685 2 15.8161 67.1848 0.304438
686 2 19.6534 66.9554 0.301918
687 2 23.6573 66.8551 0.201343
688 2 27.4135 66.7653 0.254814
689 2 31.1957 66.6396 0.381221
690 2 35.2899 66.5809 16.0483
691 2 39.1945 66.8204 16.1273
692 2 43.1224 66.8924 15.9011
693 2 46.8564 66.6639 15.9738
694 2 50.9697 66.4476 0.0821446
695 2 55.0352 66.4626 16.0232
696 2 59.0774 66.5154 16.0749
697 2 63.1322 66.5997 0.123372
698 2 67.1283 66.6724 16.1331
699 2 71.1312 66.7707 -0.00643025
700 2 75.216 66.8022 -0.00358986
701 2 79.1938 66.8017 16.0846
702 2 83.0548 66.9658 15.9882
703 2 87.1685 66.9659 16.0193
704 2 91.3259 66.991 0.00442968
705 2 95.2523 67.079 16.0068
706 2 99.1687 67.2137 15.875
707 2 103.274 67.1639 0.163224
708 2 107.315 67.2849 0.233634
709 2 111.149 67.2265 15.8676
710 2 115.263 67.3561 15.8493
711 2 119.049 67.599 0.0601162
712 2 123.323 67.5587 16.0773
713 2 127.168 67.6081 0.226878
714 2 131.095 67.4954 0.143189
715 2 134.94 67.491 16.0382
716 2 138.953 67.461 0.249312
717 2 142.794 67.3936 15.9934
718 2 146.749 67.3586 16.0012
719 2 150.655 67.3086 0.132517
720 2 154.57 67.2613 0.246921
721 2 158.611 71.2473 16.0654
722 2 4.12252 71.1495 0.136568
723 2 8.16273 71.1347 0.185546
724 2 11.843 71.0425 0.147813
725 2 15.7543 71.0746 15.9197
726 2 19.7095 70.8285 0.159396
727 2 23.6358 70.9015 0.142488
728 2 27.8342 70.9577 0.171955
729 2 31.4156 70.786 0.245808
730 2 35.375 70.6646 0.0534315
731 2 39.2622 70.6288 0.218791
732 2 43.2293 70.5728 -0.0632477
733 2 47.101 70.4174 16.0152
734 2 51.2162 70.2841 0.0515236
735 2 54.948 70.489 16.0091
736 2 59.0394 70.3224 15.8696
737 2 62.9938 70.475 16
738 2 66.9617 70.5504 15.7946
739 2 71.1075 70.7324 -0.0429326
740 2 75.0758 70.6858 15.9627
741 2 79.0124 70.7396 0.225552
742 2 83.2801 70.8596 0.101285
743 2 87.2015 70.8129 15.9768
744 2 90.9939 70.7708 15.9649
745 2 94.9409 70.9691 16.0291
746 2 99.1075 70.9724 15.9357
747 2 102.955 71.2297 15.9559
748 2 107.085 71.2028 -0.0210901
749 2 111.014 71.2862 -0.0017179
750 2 115.128 71.2842 0.103375
751 2 119.116 71.4858 0.216083
752 2 123.128 71.5047 15.7846
753 2 127.114 71.277 0.211597
754 2 131.202 71.6085 0.221244
755 2 135.271 71.6623 0.245425
756 2 138.99 71.2574 16.0867
757 2 142.848 71.2852 15.9364
758 2 146.748 71.4125 15.797
759 2 150.728 71.1676 0.228592
760 2 154.641 71.3077 0.316819
761 2 0.514549 75.3345 16.0303
762 2 4.21963 75.1315 16.0674
763 2 8.06825 75.1121 0.209583
764 2 11.8417 75.1481 0.0022858
765 2 15.9408 74.9649 15.8933
766 2 19.7409 74.8421 0.291228
767 2 23.7489 75.0367 0.23727
768 2 27.718 74.931 0.0390751
769 2 31.6569 74.8493 0.117811
770 2 35.4708 74.6696 0.190949
771 2 39.451 74.6326 0.240638
772 2 43.444 74.4843 0.343861
773 2 47.2277 74.4812 0.22135
774 2 51.1474 74.4883 16.0669
775 2 55.0955 74.1572 15.9499
776 2 58.9869 74.303 15.9935
777 2 62.895 74.4894 16.1529
778 2 66.9099 74.4519 15.9402
779 2 70.998 74.7023 -0.0204694
780 2 74.9535 74.572 0.1066
781 2 79.0481 74.4819 0.172136
782 2 82.9971 74.5748 16.1007
783 2 86.8752 74.7938 16.0014
784 2 91.1092 74.7885 0.230873
785 2 95.0406 75.0381 15.9648
786 2 99.1083 74.988 15.9548
787 2 103.125 74.9216 15.8474
788 2 107.108 75.0611 0.124067
789 2 111.182 75.326 0.241467
790 2 114.956 75.4276 0.20518
791 2 118.945 75.3252 0.259307
792 2 122.933 75.2129 0.0287009
793 2 127.278 75.2856 15.8815
794 2 130.922 75.3866 16.0227
795 2 135.07 75.3786 0.143551
796 2 139.145 75.588 16.0179
797 2 142.986 75.4813 15.8222
798 2 146.944 75.6555 15.8998
799 2 150.615 75.4285 16.1273
800 2 154.67 75.2406 16.101
801 2 0.240607 79.3302 0.100763
802 2 4.23916 79.1356 0.0643995
803 2 8.34632 79.0899 0.123728
804 2 12.0696 79.0399 16.0427
805 2 15.9646 79.1481 16.0242
806 2 19.8287 78.9536 0.125832
807 2 23.7933 79.0589 0.12165
808 2 27.7779 78.8283 0.208484
809 2 31.6085 78.9514 15.9911
810 2 35.5613 78.6456 0.0365917
811 2 39.5582 78.5929 0.174621
812 2 43.4369 78.4992 0.0973268
813 2 47.3674 78.351 0.253093
814 2 51.2577 78.3996 0.0182696
815 2 55.047 78.3338 0.357932
816 2 58.8981 78.2942 0.0532993
817 2 62.9332 78.459 0.277298
818 2 66.9054 78.5013 0.291531
819 2 70.8241 78.5641 16.0157
820 2 74.9418 78.2518 0.314194
821 2 78.749 78.4456 0.292842
822 2 83.0291 78.5743 15.8696
823 2 86.9241 78.8486 16.026
824 2 90.8126 78.5791 16.0476
825 2 94.9686 78.9635 0.0344469
826 2 99.0832 78.804 0.157408
827 2 103.013 78.8871 15.9404
828 2 107.055 78.9696 0.111568
829 2 110.937 79.2788 15.7855
830 2 114.995 79.2244 0.0732569
831 2 118.901 79.3732 0.137965
832 2 122.905 79.0962 16.0185
833 2 127.091 79.2395 0.014969
834 2 131.005 79.5054 16.0041
835 2 135.109 79.278 0.0750569
836 2 139.039 79.4375 0.174015
837 2 143.042 79.5483 16.0781
838 2 147.089 79.5953 16.0212
839 2 150.898 79.395 16.0725
840 2 154.793 79.0621 0.183939
841 2 0.459913 83.3245 0.165693
842 2 4.61961 83.0503 16.0556
843 2 8.29871 83.109 0.19342
844 2 12.002 83.035 15.8735
845 2 15.8601 83.184 16.0143
846 2 19.9729 82.9434 0.121877
847 2 23.9306 83.0037 0.212745
848 2 27.7531 82.8443 0.196923
849 2 31.8329 82.9604 15.9735
850 2 35.7204 82.6094 0.0148977
851 2 39.4668 82.5822 0.294868
852 2 43.3369 82.3598 0.0877966
853 2 47.3181 82.4814 0.0331237
854 2 51.1987 82.48 0.153667
855 2 55.2232 82.4006 0.310152
856 2 59.1004 82.3833 16.099
857 2 62.8433 82.5382 15.9244
858 2 66.9336 82.3897 16.0435
859 2 70.7892 82.477 0.0646868
860 2 74.8608 82.2388 0.204978
861 2 78.9442 82.5743 0.280512
862 2 82.8511 82.5637 16.0605
863 2 86.9242 82.5801 15.922
864 2 91.0287 82.7421 15.9515
865 2 95.1302 82.7063 16.1397
866 2 98.9186 82.7579 15.9932
867 2 102.983 82.8581 15.9864
868 2 107.044 82.9787 0.178663
869 2 110.998 82.9712 15.8596
870 2 115.017 83.0923 0.00666939
871 2 118.932 83.2059 0.109947
872 2 123.02 83.1934 16.0534
873 2 126.953 83.1742 15.9019
874 2 131.068 83.3039 15.9111
875 2 135.035 83.0673 0.178036
876 2 139.081 83.2205 0.106238
877 2 143.073 83.4278 0.257886
878 2 147.004 83.4928 15.967
879 2 151.01 83.3816 15.9684
880 2 154.858 83.209 15.9299
881 2 0.548611 87.0833 0.0722385
882 2 4.31973 87.0343 0.316523
883 2 8.22267 87.1759 0.0282302
884 2 12.1996 87.0813 15.9024
885 2 16.1551 87.0364 15.9944
886 2 19.9415 86.8553 0.19958
887 2 23.8882 86.8684 0.189903
888 2 27.7343 86.9269 0.159537
889 2 31.6488 86.6795 15.933
890 2 35.5426 86.6818 -0.0257087
891 2 39.6317 86.4862 0.159181
892 2 43.6305 86.4485 0.16744
893 2 47.5979 86.7661 0.0776496
894 2 51.3216 86.4884 0.257496
895 2 55.2806 86.2454 0.000184691
896 2 59.0164 86.3794 0.123519
897 2 62.9446 86.2852 15.9034
898 2 66.9034 86.2987 16.0368
899 2 70.9671 86.2063 0.230684
900 2 74.8503 86.1822 16.0844
901 2 78.7812 86.2983 0.0814929
902 2 82.8383 86.511 16.1166
903 2 86.8182 86.4201 0.129644
904 2 90.9185 86.6098 16.0138
905 2 95.1125 86.4995 15.9902
906 2 98.8929 86.6637 16.1003
907 2 102.726 86.7673 16.0684
908 2 106.814 86.9221 15.9776
909 2 110.964 86.7445 0.0915535
910 2 115.005 86.9431 15.7473
911 2 118.855 86.9502 16.0097
912 2 122.92 87.2314 15.979
913 2 126.927 87.009 15.9824
914 2 130.915 87.0116 15.7041
915 2 135.044 87.2339 0.0180742
916 2 139.115 87.1238 0.101384
917 2 143.015 87.3076 15.7974
918 2 146.872 87.2289 16.0731
919 2 150.994 87.3448 16.0077
920 2 155.034 87.2358 0.0989868
921 2 0.401852 91.2289 15.9489
922 2 4.33922 91.1555 16.0884
923 2 8.33931 91.1485 0.190017
924 2 12.2495 90.8572 15.9938
925 2 16.1405 90.9752 16.0553
926 2 20.1461 91.0271 0.226128
927 2 23.9687 90.7479 15.9345
928 2 27.8368 90.873 0.00897754
929 2 31.7431 90.7748 15.8045
930 2 35.6683 90.5681 -0.104908
931 2 39.7232 90.7246 0.125236
932 2 43.6331 90.6605 0.151998
933 2 47.5512 90.6932 0.142998
934 2 51.3726 90.4619 15.8595
935 2 55.1458 90.3462 -0.0302462
936 2 59.2552 90.4211 16.0185
937 2 63.0334 90.3331 0.0559635
938 2 66.9731 90.3203 -0.028533
939 2 70.9582 90.19 0.122863
940 2 74.7495 90.2719 15.9061
941 2 78.8038 90.1416 15.8052
942 2 82.7567 90.3337 15.981
943 2 86.8782 90.2642 15.9258
944 2 90.9049 90.4355 0.0725415
945 2 94.897 90.3938 15.8363
946 2 98.9774 90.5636 15.8314
947 2 102.859 90.6101 15.9277
948 2 106.818 90.5885 15.9749
949 2 110.866 90.7998 15.8879
950 2 114.906 90.9311 16.0177
951 2 118.868 91.0417 -0.00487508
952 2 122.821 91.178 0.136875
953 2 126.872 90.943 0.0476682
954 2 131.024 90.9618 15.8654
955 2 134.947 90.955 0.0979735
956 2 138.97 91.254 16.0054
957 2 143.017 91.2448 15.818
958 2 147.067 91.2864 0.0159536
959 2 151.037 91.3908 16.0515
960 2 155.014 91.059 15.8885
961 2 0.510934 95.1632 15.8723
962 2 4.4912 95.1609 15.9293
963 2 8.3458 95.1211 -0.0973054
964 2 12.1942 94.9747 15.7305
965 2 16.3116 94.9638 16.0402
966 2 19.99 94.9887 15.9447
967 2 23.9519 94.872 15.7732
968 2 28.0198 94.8885 -0.059991
969 2 32.0295 94.8114 15.8981
970 2 35.7364 94.7108 -0.0447419
971 2 39.6 94.6722 0.160808
972 2 43.5371 94.6406 0.184398
973 2 47.5214 94.7594 15.8965
974 2 51.3286 94.5271 15.6649
975 2 55.2983 94.506 15.9552
976 2 59.2317 94.3877 0.23251
977 2 63.1003 94.4979 15.9482
978 2 66.9764 94.3378 15.8636