ITEM: TIMESTEP
19100
ITEM: NUMBER OF ATOMS
32000
ITEM: BOX BOUNDS xy xz yz pp pp pp
0.0000000000000000e+00 1.5831999999999999e+02 0.0000000000000000e+00
0.0000000000000000e+00 1.5831999999999999e+02 0.0000000000000000e+00
1.6513233354818180e-01 1.5932579666451645e+01 0.0000000000000000e+00
ITEM: ATOMS id type x y z
1 2 158.177 157.789 15.9434
2 2 3.74778 157.623 0.113824
3 2 7.83283 157.927 15.7608
4 2 11.7648 157.865 15.9446
5 2 15.581 157.887 16.0103
6 2 19.8913 157.774 16.0079
7 2 23.6728 158.19 0.259562
8 2 27.818 158.085 15.9851
9 2 31.6754 158.262 16.159
10 2 35.8335 158.3 15.855
11 2 39.8462 158.277 0.240284
12 2 43.9495 -0.0841371 0.0124998
13 2 47.9461 158.459 15.6864
14 2 51.7897 0.0513298 0.222308
15 2 55.8529 158.56 16.0544
16 2 59.6407 0.225134 0.16913
17 2 63.8603 0.40755 16.0326
18 2 67.5826 0.218914 0.32886
19 2 71.5253 158.586 0.175202
20 2 75.5807 158.458 0.319021
21 2 79.626 0.12813 15.9763
22 2 83.3492 158.296 15.9604
23 2 87.2376 158.3 16.0593
24 2 91.272 158.236 0.269525
25 2 95.1102 158.205 16.2634
26 2 99.0847 158.259 15.8439
27 2 103.074 158.196 0.0907804
28 2 106.962 157.972 16.0211
29 2 110.766 157.998 0.137707
30 2 114.568 157.841 0.0676472
31 2 118.666 157.999 15.832
32 2 122.654 157.884 15.983
33 2 126.498 157.721 15.8559
34 2 130.404 157.66 15.7202
35 2 134.285 157.563 15.7004
36 2 138.24 157.466 15.8992
37 2 142.246 157.635 0.150016
38 2 146.085 157.485 0.172326
39 2 150.104 157.604 0.348613
40 2 153.945 157.73 0.257836
41 2 158.059 3.3917 0.133062
42 2 3.78626 3.31988 15.9264
43 2 7.76814 3.48565 -0.0823163
44 2 11.6488 3.52447 16.0488
45 2 15.8008 3.56139 0.245851
46 2 19.7647 3.71562 0.313563
47 2 23.5612 3.6529 15.9194
48 2 27.8834 3.55511 16.0087
49 2 31.7019 3.77155 0.278104
50 2 35.5814 3.80588 0.0508981
51 2 39.786 3.74548 16.1023
52 2 43.7946 3.94411 0.132467
53 2 47.6669 3.92603 16.0929
54 2 51.7297 3.91498 0.31359
55 2 55.785 4.12327 0.167626
56 2 59.7785 4.2075 15.9997
57 2 63.8867 4.37118 15.9856
58 2 67.9408 4.26621 0.333895
59 2 71.8231 4.0645 0.262974
60 2 75.601 3.89804 0.296061
61 2 79.3242 4.18893 0.496947
62 2 83.3927 4.18018 15.8996
63 2 87.3372 4.05172 16.0998
64 2 91.3594 3.83397 0.206471
65 2 95.2767 3.92492 15.8642
66 2 99.0518 3.74065 16.0713
67 2 103.006 3.62079 15.9042
68 2 106.881 3.44645 16.0097
69 2 110.957 3.82584 15.7663
70 2 114.733 3.65689 15.9621
71 2 118.55 3.66891 15.9583
72 2 122.708 3.55067 15.9195
73 2 126.674 3.48748 0.115584
74 2 130.379 3.43583 0.0468949
75 2 134.404 3.20408 15.9819
76 2 138.192 3.19481 16.0161
77 2 142.339 3.09202 15.9621
78 2 146.065 3.22543 0.214426
79 2 150.111 3.37602 15.9801
80 2 154.043 3.2781 0.141811
81 2 158.105 7.03061 0.207895
82 2 3.61967 7.16122 0.0442049
83 2 7.70593 7.27701 15.9121
84 2 11.6384 7.51632 0.277314
85 2 15.6411 7.29123 0.172166
86 2 19.5534 7.41162 0.402368
87 2 23.6638 7.51337 15.658
88 2 27.5434 7.56053 0.0142904
89 2 31.5139 7.75108 15.9005
90 2 35.7813 7.86703 15.8806
91 2 39.5992 7.50318 0.20977
92 2 43.7 7.78229 15.942
93 2 47.7348 8.00508 15.9748
94 2 51.7847 7.89133 15.8186
95 2 55.696 8.06946 0.27153
96 2 59.5758 7.98167 -0.0229489
97 2 63.7126 8.30402 0.312293
98 2 67.868 8.19454 15.9048
99 2 71.7692 8.1899 16.0618
100 2 75.665 8.18063 0.193839
101 2 79.6097 8.16651 0.359657
102 2 83.5937 7.94572 0.212932
103 2 87.4575 8.08458 0.0619711
104 2 91.5303 7.97628 15.9267
105 2 95.3506 7.97123 16.0596
106 2 98.9992 7.95381 0.10744
107 2 103.04 7.65886 0.0391092
108 2 106.961 7.73417 15.9215
109 2 110.85 7.63151 0.119798
110 2 114.883 7.52372 15.9342
111 2 118.945 7.54196 0.157991
112 2 122.636 7.50424 0.0977898
113 2 126.77 7.43912 16.0243
114 2 130.571 7.51872 15.8806
115 2 134.437 7.3347 0.272849
116 2 138.23 7.26246 0.435022
117 2 142.285 6.97226 0.162314
118 2 146.124 7.23352 0.138823
119 2 150.064 7.23926 15.797
120 2 154.008 7.1439 15.8115
121 2 157.967 11.0001 15.97
122 2 3.70077 11.1976 0.00276098
123 2 7.53302 11.215 16.0377
124 2 11.6799 11.5361 15.997
125 2 15.7349 11.4751 0.31257
126 2 19.6682 11.3999 0.131779
127 2 23.6525 11.4262 15.7322
128 2 27.5908 11.465 16.0564
129 2 31.461 11.322 15.9725
130 2 35.5997 11.498 -0.0129407
131 2 39.7971 11.753 15.8915
132 2 43.5942 11.5881 0.0506918
133 2 47.5477 11.8159 0.0589462
134 2 51.6907 11.8728 15.8074
135 2 55.7042 12.0264 15.9454
136 2 59.8332 11.9694 0.154625
137 2 63.6761 12.1317 15.8184
138 2 67.7763 12.1724 15.7861
139 2 71.8005 12.175 0.178676
140 2 75.731 12.2745 16.0904
141 2 79.8674 12.2599 0.0845202
142 2 83.8585 12.039 0.264782
143 2 87.5286 11.9559 16.3068
144 2 91.5435 11.9196 16.0581
145 2 95.3909 11.9556 0.087734
146 2 99.284 11.9988 0.104288
147 2 103.184 11.9128 15.6858
148 2 106.954 11.8068 15.9179
149 2 110.946 11.6459 15.9268
150 2 115.048 11.624 15.9852
151 2 118.883 11.6601 0.0450512
152 2 122.899 11.5556 0.333188
153 2 126.615 11.4955 16.0313
154 2 130.447 11.3404 0.27558
155 2 134.325 11.2504 15.8492
156 2 138.461 11.333 16.0508
157 2 142.112 11.2762 0.17317
158 2 146.242 11.0957 0.150564
159 2 149.976 11.2655 16.1261
160 2 154.113 11.1516 0.185606
161 2 157.963 15.005 0.0859027
162 2 3.56599 15.1554 15.6845
163 2 7.43997 15.2393 16.0568
164 2 11.5492 15.1443 0.288944
165 2 15.5016 15.2907 0.0828491
166 2 19.5653 15.3143 15.9845
167 2 23.6771 15.4353 0.063084
168 2 27.731 15.1799 15.9111
169 2 31.5123 15.6589 0.0375447
170 2 35.4389 15.4157 0.108894
171 2 39.4563 15.6421 15.7436
172 2 43.6658 15.5778 -0.00390834
173 2 47.5236 15.7086 0.149043
174 2 51.5661 15.6061 0.257241
175 2 55.4738 15.8618 16.0019
176 2 59.7292 15.8681 15.9004
177 2 63.6314 15.902 15.8214
178 2 67.8687 16.1505 15.9405
179 2 71.8003 16.1456 15.9909
180 2 75.4775 16.0825 16.0418
181 2 79.8044 16.1992 15.9305
182 2 83.6713 16.3074 15.9351
183 2 87.4744 15.9374 0.176545
184 2 91.4041 15.9272 16.0847
185 2 95.3768 15.8174 0.182513
186 2 99.2995 15.784 15.996
187 2 103.364 15.6765 0.176963
188 2 107.249 15.9349 16.0322
189 2 110.971 15.5449 15.7643
190 2 115.002 15.5958 16.0066
191 2 119.112 15.6405 15.8594
192 2 122.78 15.4821 16.1134
193 2 126.937 15.483 0.10187
194 2 130.71 15.3794 0.140031
195 2 134.289 15.1684 16.1303
196 2 138.335 15.3091 15.8949
197 2 142.366 15.2998 0.158381
198 2 146.28 15.2953 0.094698
199 2 150.088 15.3092 0.0545588
200 2 154.21 15.1538 0.299189
201 2 157.943 19.171 15.8904
202 2 3.50884 19.1067 15.8818
203 2 7.3709 19.0371 15.8682
204 2 11.3573 19.2393 16.0592
205 2 15.5566 19.1273 16.1065
206 2 19.639 19.3561 15.8153
207 2 23.4686 19.2639 -0.118108
208 2 27.7178 19.1729 0.0709651
209 2 31.5584 19.3075 15.7409
210 2 35.5555 19.3942 0.258506
211 2 39.6599 19.4828 0.0896505
212 2 43.6349 19.6758 15.9266
213 2 47.5 19.7108 0.144981
214 2 51.6523 19.4217 15.831
215 2 55.6047 19.6895 15.8128
216 2 59.422 19.7068 15.9209
217 2 63.6939 19.8349 16.0349
218 2 67.7675 19.8607 15.9237
219 2 71.6107 19.8572 16.0948
220 2 75.5637 20.1126 16.0761
221 2 79.5905 20.2648 15.9042
222 2 83.8401 20.0662 15.9939
223 2 87.5145 20.0426 15.8273
224 2 91.6727 19.9221 15.8809
225 2 95.5042 19.9804 0.324936
226 2 99.3661 19.9214 0.288609
227 2 103.254 19.8222 15.965
228 2 107.202 19.7094 16.0255
229 2 111.17 19.7526 0.0600328
230 2 115.169 19.5816 15.7986
231 2 119.023 19.5877 -0.0869888
232 2 123.138 19.5475 15.9646
233 2 126.771 19.4871 0.156384
234 2 130.702 19.491 16.0864
235 2 134.649 19.3778 0.121941
236 2 138.514 19.3043 0.245942
237 2 142.29 19.0962 16.0351
238 2 146.29 19.3186 0.251932
239 2 150.067 19.0323 0.196592
240 2 154.019 19.0825 16.0456
241 2 158.067 23.0731 0.103176
242 2 3.65868 22.9438 15.9094
243 2 7.5109 23.0657 0.291616
244 2 11.4908 23.0281 0.153162
245 2 15.5505 22.9405 15.883
246 2 19.552 23.0673 0.148638
247 2 23.5879 23.1491 15.9338
248 2 27.6294 23.3073 -0.000273533
249 2 31.5239 23.1851 15.8291
250 2 35.5025 23.3213 0.14065
251 2 39.7539 23.3169 0.13559
252 2 43.4714 23.298 15.8051
253 2 47.6075 23.5762 15.9157
254 2 51.5812 23.5013 -0.000122281
255 2 55.6225 23.6575 15.7061
256 2 59.7397 23.7785 16.1184
257 2 63.7062 23.7315 0.349656
258 2 67.6162 23.903 0.0988091
259 2 71.7175 23.7091 15.9216
260 2 75.7908 23.9386 0.156831
261 2 79.8498 24.0198 16.0275
262 2 83.8317 24.0172 16.0787
263 2 87.5609 23.9465 15.6911
264 2 91.3397 23.9743 15.9319
265 2 95.3083 23.9933 15.9177
266 2 99.3957 23.8128 16.1407
267 2 103.202 23.6323 16.3203
268 2 106.992 23.6537 16.1865
269 2 110.997 23.7189 16.0622
270 2 115.104 23.6883 15.8157
271 2 119.075 23.6024 0.173457
272 2 122.86 23.5187 0.211155
273 2 126.731 23.5359 0.158789
274 2 130.817 23.5184 0.263106
275 2 134.579 23.5029 0.459291
276 2 138.485 23.3506 0.317021
277 2 142.376 23.372 15.8117
278 2 146.285 23.1184 0.114361
279 2 150.158 23.035 16.0747
280 2 154.208 23.0513 0.0888047
281 2 158.045 26.8309 0.137953
282 2 3.53062 27.0104 0.259661
283 2 7.50789 27.0882 15.8365
284 2 11.5541 26.7865 0.146668
285 2 15.5415 26.9924 0.0129973
286 2 19.3865 27.2397 16.0141
287 2 23.3112 26.9026 0.329185
288 2 27.6466 27.0559 0.00660938
289 2 31.4907 27.2043 15.7412
290 2 35.5338 27.4467 0.282676
291 2 39.4083 27.1946 16.0276
292 2 43.5514 27.3606 15.9591
293 2 47.5101 27.4327 15.9521
294 2 51.4902 27.4633 16.0091
295 2 55.4614 27.4759 15.7584
296 2 59.7291 27.5119 0.234893
297 2 63.5533 27.4699 0.233874
298 2 67.6396 27.8119 0.334011
299 2 71.6183 27.8066 0.351058
300 2 75.5836 27.8466 15.9391
301 2 79.5675 27.8586 16.0589
302 2 83.8296 28.0058 15.8851
303 2 87.6206 27.8946 16.1257
304 2 91.5312 27.8574 15.8143
305 2 95.3525 28.0101 15.8278
306 2 99.4567 27.6871 15.9824
307 2 103.513 27.8259 15.9784
308 2 107.342 27.5721 0.344425
309 2 111.105 27.6354 0.329321
310 2 114.875 27.6115 0.232193
311 2 118.958 27.5435 16.0633
312 2 122.802 27.4654 0.145978
313 2 126.688 27.4537 0.260985
314 2 130.415 27.6794 15.796
315 2 134.749 27.4596 15.7936
316 2 138.601 27.4193 0.208568
317 2 142.391 27.2872 15.8957
318 2 146.331 27.3026 0.0886813
319 2 150.248 27.0571 0.259064
320 2 154.114 26.9895 0.167735
321 2 158.098 30.9114 0.0658038
322 2 3.64151 30.8554 15.9218
323 2 7.57822 30.9012 0.165399
324 2 11.5039 30.9481 15.7535
325 2 15.3173 31.0411 -0.00915995
326 2 19.4701 30.9563 0.325989
327 2 23.496 30.9302 0.341574
328 2 27.6414 31.2977 0.0989034
329 2 31.728 31.1103 0.0901221
330 2 35.5528 31.2844 16.0738
331 2 39.5866 31.2912 15.9934
332 2 43.5762 31.172 16.0273
333 2 47.4024 31.2181 15.8134
334 2 51.4993 31.2153 -0.157108
335 2 55.6566 31.3742 0.120774
336 2 59.6109 31.5077 15.83
337 2 63.5017 31.398 16.033
338 2 67.6246 31.6754 16.0294
339 2 71.6365 31.5754 0.196581
340 2 75.5654 31.7116 0.145985
341 2 79.6209 31.6532 15.8171
342 2 83.5508 31.6193 0.039283
343 2 87.6776 31.7676 0.327677
344 2 91.4314 31.983 0.214093
345 2 95.7323 31.847 16.1659
346 2 99.4581 31.7917 15.9184
347 2 103.144 31.7106 16.0975
348 2 107.411 31.8034 15.9546
349 2 111.29 31.5593 0.313623
350 2 115.2 31.6465 16.1212
351 2 119.13 31.5101 16.065
352 2 122.784 31.4678 16.0475
353 2 126.955 31.3456 16.2042
354 2 130.889 31.3167 15.9308
355 2 134.663 31.3721 15.9701
356 2 138.484 31.5776 -0.0159678
357 2 142.465 31.3489 0.0722001
358 2 146.32 31.3349 16.1722
359 2 150.438 31.068 0.215954
360 2 154.288 31.0338 0.201385
361 2 158.093 35.0774 0.0444676
362 2 3.71866 35.1215 0.19942
363 2 7.59241 34.8528 0.0500856
364 2 11.4799 35.0045 0.126713
365 2 15.3831 34.8184 0.220868
366 2 19.444 34.9272 0.235146
367 2 23.3899 34.9011 0.204761
368 2 27.3395 34.9854 0.350804
369 2 31.5874 35.1293 0.15578
370 2 35.4427 35.2116 -0.0574088
371 2 39.4322 35.1726 15.9676
372 2 43.4859 35.0796 -0.00629685
373 2 47.3871 34.9577 15.9392
374 2 51.4029 35.1018 0.290568
375 2 55.4071 35.3826 15.7566
376 2 59.4588 35.2117 0.084863
377 2 63.5331 35.304 16.1501
378 2 67.4895 35.5627 0.233305
379 2 71.5525 35.5105 -0.0313109
380 2 75.674 35.548 0.105871
381 2 79.5814 35.6945 15.67
382 2 83.6612 35.7598 -0.00512594
383 2 87.6595 35.8243 15.8893
384 2 91.782 35.8258 0.148089
385 2 95.5708 35.8574 15.937
386 2 99.5875 35.7877 16.0801
387 2 103.537 35.961 16.0066
388 2 107.384 35.8046 16.1269
389 2 111.237 35.7477 0.329044
390 2 115.307 35.7187 16.3339
391 2 119.117 35.5826 15.9358
392 2 123.134 35.5641 0.126348
393 2 126.958 35.4277 0.169794
394 2 130.683 35.4165 0.0558101
395 2 134.629 35.2723 0.18644
396 2 138.454 35.3271 15.9625
397 2 142.444 35.2115 0.0664411
398 2 146.442 35.184 15.9314
399 2 150.301 35.0324 -0.038259
400 2 154.195 35.1328 0.26257
401 2 158.23 39.0794 0.214065
402 2 3.7589 38.9333 0.217712
403 2 7.73529 38.9912 0.141913
404 2 11.6157 38.8682 15.6795
405 2 15.6479 38.8238 0.153985
406 2 19.512 38.757 -0.0614814
407 2 23.4773 38.7518 16.0598
408 2 27.4088 39.0482 0.283703
409 2 31.3275 39.1698 15.9988
410 2 35.469 38.9471 0.171113
411 2 39.4308 39.0846 0.232843
412 2 43.4633 39.0075 15.7922
413 2 47.4816 39.2131 0.283208
414 2 51.4685 38.8497 15.8564
415 2 55.518 39.2344 0.293806
416 2 59.4512 39.0005 15.871
417 2 63.443 39.1575 0.034587
418 2 67.4446 39.259 0.188809
419 2 71.5475 39.3827 15.8406
420 2 75.4329 39.4787 0.122925
421 2 79.6848 39.5236 15.7115
422 2 83.6286 39.5692 16.0179
423 2 87.5725 39.7256 0.186817
424 2 91.5405 39.7362 16.1463
425 2 95.7289 39.881 0.366037
426 2 99.4703 39.8825 0.214992
427 2 103.533 39.969 16.1843
428 2 107.478 39.8779 0.390869
429 2 111.36 39.8475 16.031
430 2 115.246 39.5477 0.193837
431 2 119.288 39.3801 0.0734312
432 2 122.947 39.3759 15.9567
433 2 126.854 39.4024 15.9294
434 2 130.842 39.4315 15.8956
435 2 134.77 39.4138 0.256551
436 2 138.567 39.3925 0.398681
437 2 142.677 39.3731 0.0926742
438 2 146.475 39.0952 15.8669
439 2 150.342 39.011 16.0484
440 2 154.275 38.985 16.0832
441 2 158.178 43.099 0.00804093
442 2 3.65599 43.2238 -0.0386068
443 2 7.87071 42.8873 0.172192
444 2 11.5408 42.8754 -0.0999633
445 2 15.6431 42.9851 -0.0464419
446 2 19.5857 42.7323 0.0518592
447 2 23.5055 42.9681 0.207161
448 2 27.3309 42.943 0.322527
449 2 31.3113 42.7764 0.0346627
450 2 35.4125 42.9049 0.22856
451 2 39.449 43.1013 0.133228
452 2 43.4531 42.8735 0.152368
453 2 47.3719 43.0709 0.111012
454 2 51.4339 43.0873 -0.0713638
455 2 55.4112 43.0057 15.792
456 2 59.3777 43.2954 15.9603
457 2 63.4062 43.095 0.0920623
458 2 67.4371 43.2657 16.0846
459 2 71.4847 43.1874 0.0764863
460 2 75.3786 43.4501 15.875
461 2 79.6045 43.567 15.7227
462 2 83.5406 43.582 0.110909
463 2 87.6117 43.5615 -0.000733272
464 2 91.7105 43.5916 0.161412
465 2 95.6003 43.5839 16.2622
466 2 99.6631 43.8051 16.1074
467 2 103.7 43.9537 15.8602
468 2 107.353 43.8689 15.9624
469 2 111.347 43.6672 15.8977
470 2 115.371 43.7401 15.9051
471 2 119.084 43.5071 16.0472
472 2 123.045 43.5577 16.0632
473 2 126.87 43.557 15.8195
474 2 130.715 43.5094 0.166073
475 2 134.837 43.5389 -0.0776294
476 2 138.601 43.2951 0.0235914
477 2 142.602 43.3878 16.0509
478 2 146.5 43.3393 15.9984
479 2 150.475 43.1926 15.9376
480 2 154.312 43.1034 -0.0441511
481 2 158.087 47.0137 0.0942074
482 2 3.6675 47.1631 0.10308
483 2 7.80195 46.9968 0.0751484
484 2 11.6525 46.8679 15.6886
485 2 15.7264 46.624 0.139434
486 2 19.4801 46.8394 15.7444
487 2 23.4404 46.7148 -0.00948467
488 2 27.3711 46.8497 0.250185
489 2 31.656 46.7788 0.233614
490 2 35.3134 46.7842 0.120613
491 2 39.3957 46.8101 15.7935
492 2 43.3975 46.8234 0.267759
493 2 47.5443 46.9378 0.190307
494 2 51.3585 46.891 0.0963288
495 2 55.495 47.0316 0.0782929
496 2 59.5134 47.0317 15.9942
497 2 63.4406 47.0919 16.0164
498 2 67.5549 47.262 0.0555963
499 2 71.578 47.346 0.211157
500 2 75.5221 47.3269 0.0290549
501 2 79.5799 47.4899 15.9829
502 2 83.4891 47.391 0.206902
503 2 87.5059 47.4554 0.00633152
504 2 91.4577 47.504 0.148799
505 2 95.4506 47.5993 15.9889
506 2 99.3948 47.5978 15.9751
507 2 103.287 47.7752 0.249792
508 2 107.373 47.6332 0.331408
509 2 111.508 47.7724 15.9272
510 2 115.406 47.6209 16.039
511 2 119.021 47.6654 0.162288
512 2 122.97 47.5442 15.9786
513 2 126.915 47.5 0.229421
514 2 130.911 47.4615 15.9824
515 2 134.662 47.5609 0.0482054
516 2 138.759 47.2515 0.0841936
517 2 142.66 47.5052 0.260992
518 2 146.554 47.2 0.118648
519 2 150.371 47.1068 15.8457
520 2 154.327 47.0918 15.7947
521 2 158.15 51.0471 0.0936651
522 2 3.85772 51.0049 16.0138
523 2 7.80359 51.0749 0.0901182
524 2 11.6853 50.9633 15.9326
525 2 15.777 51.0396 0.229049
526 2 19.3626 50.8015 0.234334
527 2 23.5212 50.7567 15.8539
528 2 27.4487 50.7744 0.123945
529 2 31.4566 50.7649 0.120041
530 2 35.4184 50.6985 0.180306
531 2 39.3765 50.8585 0.0692755
532 2 43.2273 50.6886 16.0261
533 2 47.4773 50.9929 15.9168
534 2 51.4073 51.0048 15.7882
535 2 55.4253 50.8955 -0.00185895
536 2 59.3814 50.9591 15.9429
537 2 63.355 50.9946 16.0557
538 2 67.5142 51.1527 0.200285
539 2 71.6173 51.2605 15.9492
540 2 75.4952 51.2301 0.0998456
541 2 79.3008 51.525 0.204177
542 2 83.2832 51.1758 0.10425
543 2 87.2262 51.4519 0.0714012
544 2 91.5502 51.3785 0.193066
545 2 95.4296 51.5782 16.1061
546 2 99.1079 51.6668 16.0797
547 2 103.421 51.7274 15.9334
548 2 107.532 51.5522 0.304625
549 2 111.322 51.5233 0.258612
550 2 115.262 51.7363 0.00733063
551 2 119.102 51.6593 15.8845
552 2 123.059 51.5066 0.150685
553 2 126.743 51.6815 16.1574
554 2 130.692 51.4184 0.317501
555 2 134.796 51.5422 16.0827
556 2 138.757 51.3645 0.115616
557 2 142.691 51.4026 15.731
558 2 146.652 51.3467 0.256077
559 2 150.38 51.3217 0.139005
560 2 154.312 50.9812 15.9396
561 2 -0.151506 54.9524 0.0648849
562 2 3.85009 55.0639 0.185439
563 2 7.86398 55.0443 0.0875626
564 2 11.5305 54.8482 0.15131
565 2 15.4838 54.9574 15.8525
566 2 19.3986 54.931 0.0719633
567 2 23.4462 54.7917 0.175379
568 2 27.5908 54.5115 15.8295
569 2 31.3002 54.8268 0.0606055
570 2 35.5509 54.5701 0.185457
571 2 39.3114 54.6789 0.0887323
572 2 43.2588 54.787 0.0875333
573 2 47.0763 54.8748 0.383039
574 2 51.4568 54.7399 -0.0534345
575 2 55.2119 54.8725 15.969
576 2 59.36 54.9277 15.9025
577 2 63.3287 54.826 16.038
578 2 67.3604 55.0494 0.0851694
579 2 71.3571 55.0186 0.154571
580 2 75.2037 55.3177 15.9867
581 2 79.2187 55.2039 15.9679
582 2 83.3767 55.2137 0.0900688
583 2 87.4319 55.4115 15.6945
584 2 91.4035 55.3135 0.17022
585 2 95.1865 55.4469 0.238691
586 2 99.3282 55.3519 16.1857
587 2 103.304 55.5341 0.296786
588 2 107.223 55.4541 0.201061
589 2 111.243 55.6669 16.0321
590 2 115.033 55.6668 0.192702
591 2 119.211 55.6915 15.9487
592 2 123.207 55.4896 0.0380761
593 2 127.084 55.4893 0.206408
594 2 131.023 55.7558 16.1084
595 2 134.895 55.3042 15.8543
596 2 138.755 55.4587 15.9891
597 2 142.579 55.3819 0.163452
598 2 146.574 55.2866 0.29137
599 2 150.689 55.3116 0.148706
600 2 154.449 55.1618 0.198811
601 2 158.471 59.1613 0.0600103
602 2 3.97991 59.0052 15.8624
603 2 8.02843 58.8127 0.0410326
604 2 11.6661 58.9598 15.8442
605 2 15.647 58.972 15.973
606 2 19.5695 58.9153 0.385831
607 2 23.6543 58.6498 0.296395
608 2 27.5424 58.7623 0.106374
609 2 31.3999 58.6367 0.267234
610 2 35.4683 58.5514 15.9944
611 2 39.2734 58.5511 0.122285
612 2 43.2545 58.5862 0.217608
613 2 47.3858 58.508 0.125999
614 2 51.2318 58.6006 -0.0804572
615 2 55.3123 58.751 15.8237
616 2 59.3684 58.9021 16.0772
617 2 63.3858 58.8345 15.7748
618 2 67.1756 58.9111 15.9598
619 2 71.0989 58.9086 15.8807
620 2 75.1355 59.2404 15.9061
621 2 79.091 59.1899 0.0457953
622 2 83.0867 59.0144 0.0560089
623 2 87.2677 59.3673 0.1048
624 2 91.2695 59.3384 -0.0270312
625 2 95.3927 59.3114 0.0908795
626 2 99.2429 59.2786 15.8882
627 2 103.229 59.4162 0.087807
628 2 107.209 59.5619 0.0530603
629 2 110.981 59.4914 16.0797
630 2 115.203 59.6664 15.9385
631 2 119.096 59.7305 15.8366
632 2 123.192 59.4775 15.9473
633 2 127.159 59.5991 0.126795
634 2 131.314 59.6242 15.9975
635 2 134.966 59.4126 15.8728
636 2 138.8 59.4965 15.8134
637 2 142.652 59.3932 0.0355342
638 2 146.487 59.2657 0.19439
639 2 150.357 59.3033 0.149517
640 2 154.722 59.1475 0.110976
641 2 0.140047 62.9908 0.0186276
642 2 4.19251 63.0114 -0.087813
643 2 7.97416 62.922 15.9744
644 2 11.8312 62.8749 15.8071
645 2 15.7032 62.8608 0.136908
646 2 19.6891 62.6329 0.00771024
647 2 23.642 62.7349 0.00753358
648 2 27.4074 63.0406 0.0230398
649 2 31.32 62.6409 0.0498711
650 2 35.1646 62.6453 -0.118937
651 2 39.0723 62.5161 0.123265
652 2 43.2029 62.4284 15.9104
653 2 47.1391 62.5209 15.8268
654 2 51.2585 62.3995 0.101074
655 2 54.9623 62.5741 0.254042
656 2 59.2524 62.9305 15.9971
657 2 63.3473 62.8223 0.032772
658 2 67.2299 62.784 16.0965
659 2 71.0966 62.6849 15.909
660 2 75.0612 63.0657 0.194468
661 2 79.2401 63.0322 15.9068
662 2 83.1934 63.0799 0.116641
663 2 87.1624 63.0473 16.0597
664 2 91.1232 63.2848 15.9288
665 2 95.024 63.1311 16.0779
666 2 99.0395 63.2376 16.1412
667 2 103.244 63.2412 0.275485
668 2 107.038 63.3334 15.9543
669 2 111.339 63.4746 15.8805
670 2 115.023 63.4082 0.0753311
671 2 119.092 63.6483 0.0730854
672 2 123.038 63.5025 0.202691
673 2 126.964 63.7423 16.0933
674 2 131.064 63.3745 0.0154327
675 2 135.032 63.7071 16.0322
676 2 138.789 63.3652 -0.14575
677 2 142.743 63.2761 15.7362
678 2 146.511 63.2669 0.219302
679 2 150.757 63.3174 0.232937
680 2 154.582 62.9492 0.0779005
681 2 -0.00367385 67.0137 0.000383685
682 2 4.16721 67.1032 0.0335039
683 2 7.80561 66.9335 15.919
684 2 12.0342 66.933 15.9094
685 2 15.9389 66.8527 -0.0743353
686 2 19.6456 66.9244 0.167189
687 2 23.6364 66.6342 -0.068164
688 2 27.7004 66.8306 -0.0728766
689 2 31.5957 66.8511 0.176189
690 2 35.2282 66.6489 15.7696
691 2 39.4718 66.6957 16.0353
692 2 43.344 66.4394 15.6932
693 2 47.0227 66.6578 15.9305
694 2 50.9874 66.6969 0.0735518
695 2 55.0359 66.4037 15.9958
696 2 59.1782 66.5729 15.8048
697 2 63.1615 66.7144 0.0757165
698 2 67.2022 66.6864 15.975
699 2 71.0983 66.8313 0.285658
700 2 75.0498 67.033 0.348903
701 2 79.1463 66.9545 15.9077
702 2 83.1627 67.0904 15.8546
703 2 87.042 67.0955 15.8705
704 2 91.0624 67.0785 -0.102668
705 2 95.1277 67.0629 15.9225
706 2 98.8353 67.2819 15.8817
707 2 102.888 67.2435 -0.0307634
708 2 106.957 67.4176 0.178506
709 2 111.105 67.3096 15.9066
710 2 114.904 67.5288 15.9793
711 2 118.969 67.5452 0.223204
712 2 123.181 67.7984 15.99
713 2 126.831 67.4346 0.313805
714 2 130.864 67.514 0.22319
715 2 135.019 67.4602 16.089
716 2 138.874 67.4236 0.0552677
717 2 142.937 67.1862 15.9206
718 2 146.795 67.2261 15.8124
719 2 150.565 67.1698 0.272409
720 2 154.496 67.1724 0.180578
721 2 158.473 71.1475 15.7896
722 2 4.07475 71.0378 0.119295
723 2 8.09582 70.94 0.111628
724 2 12.0151 70.8594 -0.0857629
725 2 15.9805 70.755 15.8378
726 2 19.6934 70.8502 0.123672
727 2 23.7185 70.7267 0.151949
728 2 27.5693 70.6939 -0.0746478
729 2 31.5576 70.8383 -0.0136038
730 2 35.235 70.5879 -0.0200699
731 2 39.4163 70.424 0.0270863
732 2 43.1931 70.597 0.107429
733 2 47.0839 70.4938 15.7074
734 2 51.0845 70.4903 0.235819
735 2 55.2609 70.3648 16.0179
736 2 59.032 70.329 15.9376
737 2 63.0933 70.4822 16.0327
738 2 67.0482 70.8173 15.84
739 2 71.0106 70.6764 0.273194
740 2 75.0892 71.0478 15.8035
741 2 79.032 70.7818 0.17984
742 2 82.8878 70.957 -0.0563412
743 2 87.0141 71.0672 15.976
744 2 91.028 70.9957 15.9818
745 2 95.0061 71.2515 15.9549
746 2 98.9389 71.0824 16.0875
747 2 103.137 71.1579 15.9481
748 2 107.069 71.1842 0.223792
749 2 110.816 71.2728 0.0863474
750 2 114.978 71.6277 -0.0679623
751 2 119.168 71.2205 0.259219
752 2 122.965 71.5122 16.0239
753 2 127.075 71.181 0.125129
754 2 131.105 71.3092 0.309033
755 2 134.97 71.4956 0.135857
756 2 139.058 71.3093 15.9916
757 2 142.777 71.4294 15.7444
758 2 146.835 71.3592 15.8236
759 2 150.653 71.1349 0.110457
760 2 154.731 71.2005 0.209319
761 2 0.357021 75.1415 15.8525
762 2 4.21579 74.8831 15.7662
763 2 8.20216 75.0014 0.193933
764 2 12.0293 74.9373 0.198452
765 2 15.8014 74.9189 15.8459
766 2 19.8793 74.9181 0.0998056
767 2 23.6093 74.7631 0.148825
768 2 27.337 74.8912 0.301836
769 2 31.4622 74.7199 0.347616
770 2 35.2746 74.7127 0.24336
771 2 39.4558 74.4776 0.182183
772 2 43.2903 74.3894 0.202331
773 2 47.1797 74.2766 0.135038
774 2 51.0506 74.3247 15.9212
775 2 54.8871 74.3522 16.1884
776 2 58.7781 74.3957 15.9329
777 2 62.7249 74.3829 16.0419
778 2 67.1248 74.6059 15.8981
779 2 71.004 74.8164 0.198595
780 2 74.8693 74.7291 0.279893
781 2 78.9932 74.7792 0.16258
782 2 83.196 74.9227 15.9796
783 2 87.1276 74.7916 15.9773
784 2 90.7181 74.9022 0.0878746
785 2 94.8497 74.9909 15.9186
786 2 98.7708 75.1545 15.8335
787 2 102.829 75.046 15.9077
788 2 106.931 75.1788 0.280139
789 2 110.949 75.2021 0.171059
790 2 114.787 75.3046 0.309984
791 2 118.968 75.2763 0.0677324
792 2 122.85 75.1438 0.183416
793 2 127.021 75.2845 15.957
794 2 130.919 75.1186 15.9324
795 2 134.891 75.453 0.206305
796 2 139.006 75.4605 15.9061
797 2 142.907 75.4444 15.999
798 2 146.909 75.4601 16.0865
799 2 150.582 75.3665 16.0874
800 2 154.386 75.1948 15.6452
801 2 0.275174 78.909 -0.0138213
802 2 4.24548 79.2008 0.168602
803 2 8.07797 78.9043 0.0725226
804 2 12.045 78.9365 16.0433
805 2 16.0682 78.974 16.0951
806 2 19.957 78.9 0.225194
807 2 23.8178 78.7407 0.261101
808 2 27.6183 78.7861 0.200527
809 2 31.6619 78.7773 15.8948
810 2 35.3283 78.5893 0.176011
811 2 39.3718 78.4566 0.211298
812 2 43.2214 78.3235 0.23504
813 2 47.1702 78.3344 0.171538
814 2 51.1901 78.5294 -0.0124348
815 2 55.0559 78.3185 0.230956
816 2 59.0329 78.3573 0.189676
817 2 62.9879 78.4501 0.186654
818 2 66.7729 78.3953 0.31113
819 2 71.0253 78.7585 15.8207
820 2 75.0159 78.5894 0.00936028
821 2 78.8212 78.6386 0.112925
822 2 82.8841 78.9481 15.8017
823 2 86.8925 78.7202 15.9922
824 2 90.835 78.9338 15.8969
825 2 94.8377 79.1333 0.210613
826 2 98.7925 79.1199 0.103274
827 2 102.947 78.8249 15.9709
828 2 106.861 79.1418 0.148935
829 2 110.892 79.1871 15.965
830 2 114.899 79.1155 0.159919
831 2 118.972 79.0203 0.0979832
832 2 122.875 79.0996 16.2084
833 2 126.897 79.2057 0.152654
834 2 131.097 79.195 16.0405
835 2 135.003 79.2585 0.153388
836 2 138.908 79.3288 0.249245
837 2 142.929 79.4327 15.8588
838 2 146.931 79.2479 16.002
839 2 150.759 79.2438 15.9804
840 2 154.496 79.1934 0.101742
841 2 0.410522 83.1504 0.15402
842 2 4.28231 83.1409 15.9239
843 2 8.10206 82.8895 0.103224
844 2 11.9871 82.8503 16.105
845 2 15.9672 82.8357 16.0382
846 2 19.9895 82.8709 0.0128706
847 2 24.0313 82.8989 0.0990029
848 2 27.682 82.6902 0.126445
849 2 31.5308 82.5484 15.9025
850 2 35.558 82.5114 0.136752
851 2 39.493 82.4688 0.227308
852 2 43.2536 82.4013 0.251413
853 2 47.2013 82.4881 0.171973
854 2 51.2844 82.3158 0.291751
855 2 55.1558 82.4201 0.150744
856 2 59.0167 82.3218 16.0314
857 2 62.8501 82.4144 16.0355
858 2 66.7801 82.3234 15.9601
859 2 70.9117 82.5214 -0.0162982
860 2 74.8773 82.3901 0.00260167
861 2 78.9988 82.6057 0.0914732
862 2 82.7804 82.7369 16.0278
863 2 86.6947 82.8569 15.7374
864 2 90.7395 82.943 15.922
865 2 94.7904 82.9341 15.9004
866 2 98.6612 83.0128 15.9264
867 2 102.769 82.9614 15.8669
868 2 106.846 82.9201 0.180935
869 2 110.895 82.8642 15.7937
870 2 114.855 82.8731 0.234223
871 2 118.895 83.1361 0.108058
872 2 122.946 83.0821 16.2453
873 2 126.94 83.0992 15.9886
874 2 131.067 83.0395 16.0896
875 2 134.914 83.1323 0.0124458
876 2 139.012 83.1901 0.129877
877 2 142.818 83.1921 0.385728
878 2 146.812 83.1642 16.044
879 2 150.727 83.008 15.9414
880 2 154.79 83.043 15.8263
881 2 0.276315 87.1041 -0.150674
882 2 4.20954 87.0885 0.0959352
883 2 8.25425 86.9234 0.18196
884 2 11.9255 86.9056 15.8902
885 2 15.9693 86.7813 15.8694
886 2 19.9276 86.7282 0.239432
887 2 23.9561 86.5977 0.334813
888 2 27.7472 86.5892 0.111934
889 2 31.692 86.5907 16.0587
890 2 35.6499 86.7392 0.0413869
891 2 39.3828 86.4702 0.262579
892 2 43.217 86.4782 0.151192
893 2 47.3123 86.3851 0.336435
894 2 51.1293 86.2706 0.140368
895 2 55.0595 86.2985 0.136718
896 2 58.9305 86.3029 0.0309958
897 2 62.7725 86.2777 15.7738
898 2 66.5956 86.3435 15.8996
899 2 70.7479 86.3182 0.167333
900 2 74.8393 86.5066 15.9807
901 2 78.7318 86.6025 0.0792248
902 2 82.8449 86.7489 15.9993
903 2 86.6535 86.7417 0.0400382
904 2 90.7271 86.7129 15.9669
905 2 94.7092 86.7804 15.9695
906 2 98.7987 86.9599 15.9683
907 2 102.746 86.7267 15.9385
908 2 106.76 86.9255 15.8218
909 2 110.891 86.7565 -0.0113378
910 2 114.803 86.9292 15.952
911 2 118.947 87.0283 15.8842
912 2 122.664 87.1223 16.0887
913 2 126.807 86.839 15.8978
914 2 130.922 87.0114 15.8243
915 2 134.755 86.9534 0.101326
916 2 139.038 87.0382 0.262003
917 2 142.814 87.0345 15.9926
918 2 147.025 87.2527 15.9114
919 2 150.805 87.1059 15.9596
920 2 154.707 87.1709 0.0673182
921 2 0.500808 91.1324 16.1514
922 2 4.23385 91.0476 15.8851
923 2 8.01643 90.9124 -0.0208187
924 2 12.0757 90.8447 16.0463
925 2 16.0666 90.7422 16.0648
926 2 19.8845 90.617 0.248516
927 2 23.767 90.747 16.1208
928 2 27.6016 90.5844 0.378997
929 2 31.631 90.6189 16.1814
930 2 35.5588 90.6712 -0.0120413
931 2 39.4231 90.63 0.00898154
932 2 43.3592 90.5697 0.122098
933 2 47.4712 90.3253 0.29127
934 2 51.2367 90.4499 15.9413
935 2 54.9868 90.3841 0.0772922
936 2 59.1365 90.2286 15.9144
937 2 62.7678 90.4891 0.0371682
938 2 66.7781 90.4628 0.0768503
939 2 70.7526 90.2375 0.0184952
940 2 74.6998 90.503 15.9024
941 2 78.6333 90.5936 15.9167
942 2 82.6524 90.6679 15.9473
943 2 86.6032 90.6839 15.7792
944 2 90.6306 90.6525 0.121659
945 2 94.6478 90.5312 15.8318
946 2 98.7289 90.5639 15.9663
947 2 102.704 90.7143 15.9116
948 2 106.729 90.8925 16.0118
949 2 110.846 90.7957 16.0152
950 2 114.785 90.9027 15.8064
951 2 118.834 90.9385 0.117684
952 2 122.68 90.96 0.313871
953 2 126.655 90.9358 0.350005
954 2 130.615 90.74 16.1797
955 2 134.686 90.9205 0.0566143
956 2 138.635 91.1582 16.0645
957 2 142.756 90.9756 16.1091
958 2 146.866 91.1287 0.341365
959 2 150.758 91.1847 15.7909
960 2 154.792 91.1111 15.8486
961 2 0.308627 94.8456 15.9575
962 2 4.27155 95.1061 15.7458
963 2 8.12557 94.8515 0.112871
964 2 12.1409 94.8623 15.751
965 2 16.0874 94.7391 16.1307
966 2 20.0694 94.6522 16.1586
967 2 23.9609 94.5686 16.1077
968 2 27.8516 94.7355 0.351626
969 2 31.7827 94.5725 16.0058
970 2 35.6161 94.6691 0.335017
971 2 39.572 94.5119 0.258489
972 2 43.4906 94.5197 0.205678
973 2 47.3035 94.4155 15.9877
974 2 51.237 94.4515 15.8603
975 2 55.0619 94.3407 15.99
976 2 58.968 94.5177 0.224292
977 2 62.8294 94.4427 15.7903
978 2 66.9561 94.3867 15.6608