ITEM: TIMESTEP
19200
ITEM: NUMBER OF ATOMS
32000
ITEM: BOX BOUNDS xy xz yz pp pp pp
0.0000000000000000e+00 1.5831999999999999e+02 0.0000000000000000e+00
0.0000000000000000e+00 1.5831999999999999e+02 0.0000000000000000e+00
1.6756372345818082e-01 1.5930148276541642e+01 0.0000000000000000e+00
ITEM: ATOMS id type x y z
1 2 158.138 157.638 15.9293
2 2 3.955 157.786 0.282617
3 2 7.85477 157.929 15.9845
4 2 11.7684 158.096 16.1374
5 2 15.9682 158.02 16.1486
6 2 19.5291 158.057 16.0377
7 2 23.801 157.968 0.345346
8 2 27.7274 157.998 15.9184
9 2 31.809 157.973 15.7883
10 2 35.7244 158.178 15.8947
11 2 39.8395 158.259 0.174416
12 2 43.6764 0.0258013 0.143161
13 2 47.7627 158.265 16.2563
14 2 51.8246 0.263228 0.330893
15 2 55.7944 158.388 16.0938
16 2 59.9307 0.0919386 0.204432
17 2 63.597 0.256878 16.1369
18 2 67.7515 0.196212 0.324494
19 2 71.6321 158.407 0.205626
20 2 75.5429 158.302 0.0391299
21 2 79.2702 -0.0711162 16.0673
22 2 83.3739 158.324 16.1168
23 2 87.2721 158.322 16.0935
24 2 91.4525 158.375 0.273061
25 2 95.4398 158.262 15.9311
26 2 99.2133 158.03 16.0615
27 2 103.113 158.036 0.122152
28 2 106.942 158.211 16.181
29 2 111.034 158.03 0.101006
30 2 114.92 158.044 0.196552
31 2 118.683 157.868 16.0326
32 2 122.557 157.798 15.8912
33 2 126.448 157.729 15.7551
34 2 130.415 157.692 15.7604
35 2 134.48 157.614 15.9116
36 2 138.301 157.667 15.8962
37 2 141.992 157.444 0.134267
38 2 146.163 157.844 0.339573
39 2 150.145 157.642 0.21418
40 2 154.06 157.614 0.266925
41 2 158.077 3.04392 0.142381
42 2 3.80484 3.50865 15.7829
43 2 7.72654 3.58028 0.40909
44 2 11.8752 3.68584 15.8672
45 2 15.852 3.49089 0.320658
46 2 19.7519 3.51167 0.0895168
47 2 23.7541 3.5016 15.957
48 2 27.679 3.77936 16.0407
49 2 31.6882 3.61497 0.311601
50 2 35.7 3.72095 0.190597
51 2 39.7392 3.92885 15.7996
52 2 43.6788 3.83815 0.420108
53 2 47.7931 3.9035 15.9199
54 2 51.7045 4.14353 0.0226933
55 2 55.8127 3.98897 0.160693
56 2 59.7289 4.02643 15.8522
57 2 63.7403 4.15027 16.2012
58 2 67.8067 4.21276 0.206424
59 2 71.554 4.2751 0.467114
60 2 75.3954 4.27978 0.175126
61 2 79.439 4.01764 0.211117
62 2 83.4685 3.89704 16.1473
63 2 87.2748 3.86982 15.9669
64 2 91.2613 4.02714 0.291527
65 2 95.2766 3.81446 16.1249
66 2 99.2896 3.79202 15.9448
67 2 103.038 3.73733 15.803
68 2 106.971 3.8933 15.8987
69 2 110.953 3.57607 16.1229
70 2 114.838 3.69913 16.1629
71 2 118.741 3.53092 16.0541
72 2 122.612 3.51299 15.9336
73 2 126.38 3.56597 0.292021
74 2 130.539 3.27482 0.161763
75 2 134.228 3.34415 15.933
76 2 138.333 3.3087 16.0226
77 2 141.95 3.28788 15.8691
78 2 146.086 3.29065 0.31988
79 2 149.899 3.1436 16.1064
80 2 153.832 3.28593 0.108303
81 2 157.763 7.05998 0.177386
82 2 3.7167 7.16469 0.220632
83 2 7.72785 7.47824 16.0143
84 2 11.6353 7.49096 0.25486
85 2 15.8102 7.41607 0.219571
86 2 19.8439 7.67481 -0.0253709
87 2 23.541 7.42871 15.8833
88 2 27.7368 7.60055 0.194375
89 2 31.8249 7.55218 16.0146
90 2 35.6137 7.56918 15.9101
91 2 39.8744 7.95769 0.253318
92 2 43.6149 7.83624 16.0515
93 2 47.5546 7.74954 15.9736
94 2 51.7443 7.75784 15.9941
95 2 55.861 7.97337 0.273391
96 2 59.8132 8.01301 0.31885
97 2 63.8725 8.03728 0.262867
98 2 67.8335 8.16817 15.9394
99 2 71.786 8.22937 15.9067
100 2 75.8064 8.19382 0.390495
101 2 79.5838 8.13497 0.301911
102 2 83.4901 8.11398 0.422308
103 2 87.4845 7.93599 0.492122
104 2 91.2631 8.05538 15.9128
105 2 95.2515 7.90683 15.9823
106 2 99.2204 7.97066 0.382191
107 2 103.075 7.82036 0.245201
108 2 106.857 7.61407 15.7566
109 2 110.721 7.64123 0.348248
110 2 114.805 7.65404 15.7952
111 2 118.565 7.64373 0.0252115
112 2 122.508 7.60574 0.199382
113 2 126.5 7.44073 15.9548
114 2 130.469 7.3275 16.1461
115 2 134.324 7.16392 0.149082
116 2 138.273 7.12099 0.00460975
117 2 142.092 7.28713 0.222527
118 2 146.155 7.17767 0.170016
119 2 150.104 7.1218 15.972
120 2 153.994 7.03618 16.1292
121 2 158.075 11.1844 15.7954
122 2 3.48256 10.9162 0.150193
123 2 7.69719 11.4866 15.8685
124 2 11.4242 11.2442 16.03
125 2 15.5302 11.1951 0.184639
126 2 19.682 11.3961 0.121395
127 2 23.6068 11.4036 15.9397
128 2 27.6782 11.4859 15.6509
129 2 31.6122 11.5369 15.9513
130 2 35.6598 11.696 0.172178
131 2 39.5603 11.499 15.7709
132 2 43.7218 11.8818 0.101341
133 2 47.7199 11.6879 0.196636
134 2 51.7551 11.7345 15.9959
135 2 55.4648 11.8276 15.7254
136 2 59.5735 12.0465 0.157264
137 2 63.6558 11.8656 15.9036
138 2 67.7107 12.1471 16.089
139 2 71.6741 12.0885 0.270729
140 2 75.6973 12.2371 15.7988
141 2 79.6887 12.0603 0.213718
142 2 83.3254 12.0105 0.247214
143 2 87.4276 12.0256 15.7342
144 2 91.3912 12.0238 15.8767
145 2 95.1666 11.9811 0.0788578
146 2 99.1884 11.8447 0.256052
147 2 102.947 11.7583 16.0632
148 2 106.909 11.909 15.7661
149 2 110.964 11.6944 15.8992
150 2 114.892 11.6655 15.9681
151 2 118.871 11.4966 0.242053
152 2 122.676 11.3749 0.194152
153 2 126.573 11.3407 15.8275
154 2 130.744 11.3818 0.277491
155 2 134.521 11.3501 15.9175
156 2 138.309 11.1558 16.0324
157 2 142.437 11.0582 0.131963
158 2 146.09 11.1365 0.309049
159 2 150.128 10.9489 15.9495
160 2 153.889 10.8896 0.203893
161 2 157.969 15.3037 0.0222933
162 2 3.59069 15.0614 15.7415
163 2 7.50354 15.3439 15.9168
164 2 11.6438 15.2502 0.0938134
165 2 15.6638 15.3174 0.117204
166 2 19.5037 15.3174 15.8903
167 2 23.5335 15.4775 0.232336
168 2 27.5492 15.4387 15.8333
169 2 31.7302 15.1687 0.198756
170 2 35.6121 15.3884 -0.0184619
171 2 39.7309 15.4989 16.0307
172 2 43.6326 15.5942 0.236121
173 2 47.7079 15.5212 0.167871
174 2 51.5557 16.0332 0.164724
175 2 55.6323 15.6261 15.9465
176 2 59.5406 15.9494 15.931
177 2 63.739 15.8353 16.0015
178 2 67.6081 15.7299 15.7989
179 2 71.6751 15.9973 15.8721
180 2 75.8679 16.1318 16.1313
181 2 79.6402 16.1512 15.9614
182 2 83.7212 16.0967 15.9496
183 2 87.7009 16.0428 0.171524
184 2 91.5867 15.9199 15.8311
185 2 95.3787 15.9006 0.297236
186 2 99.2962 15.9023 16.1532
187 2 103.155 16.0343 0.341438
188 2 106.986 15.6721 16.0644
189 2 110.933 15.7491 16.0574
190 2 114.834 15.6397 15.8551
191 2 118.709 15.5882 16.1077
192 2 122.784 15.3375 15.9333
193 2 126.575 15.3562 0.323378
194 2 130.549 15.3815 0.324702
195 2 134.587 15.39 15.9543
196 2 138.575 15.2778 15.9448
197 2 142.252 15.1872 0.212241
198 2 146.178 14.9881 0.325254
199 2 150.079 14.9395 0.292355
200 2 153.797 14.9207 0.272648
201 2 158 19.0072 15.8467
202 2 3.52199 19.0821 15.6838
203 2 7.642 19.1554 15.7806
204 2 11.6013 19.1224 15.986
205 2 15.5949 19.2027 15.7198
206 2 19.5326 19.2509 15.7974
207 2 23.6134 19.4212 0.148169
208 2 27.4236 19.365 0.041576
209 2 31.695 19.3438 15.8157
210 2 35.629 19.4257 -0.0889259
211 2 39.6003 19.456 0.158871
212 2 43.6043 19.3084 15.7733
213 2 47.6106 19.5104 0.104219
214 2 51.601 19.8111 15.8497
215 2 55.5286 19.7559 15.8824
216 2 59.6544 19.7043 15.9988
217 2 63.6909 19.7329 15.9303
218 2 67.7078 19.8683 15.8263
219 2 71.5672 20.0899 15.9606
220 2 75.8319 19.8949 16.0439
221 2 79.8181 20.0477 16.0109
222 2 83.5959 20.1902 15.9368
223 2 87.7375 19.9368 16.0014
224 2 91.5405 19.9701 15.9937
225 2 95.5045 19.7162 0.175314
226 2 99.3883 19.7473 0.298472
227 2 103.277 19.8655 15.9499
228 2 107.312 19.7573 16.0352
229 2 111.002 19.4648 0.369259
230 2 114.96 19.5833 16.1099
231 2 118.959 19.6058 0.387046
232 2 122.621 19.4255 15.77
233 2 126.925 19.5966 -0.0246764
234 2 130.738 19.3544 15.6226
235 2 134.618 19.2326 0.360725
236 2 138.43 19.2612 0.265788
237 2 142.461 19.4196 15.8173
238 2 146.196 18.9526 0.144325
239 2 150.244 19.3607 0.131795
240 2 154.168 18.9167 15.9461
241 2 157.999 23.1808 -0.00727577
242 2 3.58939 23.0849 15.9972
243 2 7.50839 23.046 0.193427
244 2 11.4482 23.0521 0.32078
245 2 15.3319 22.9802 15.9436
246 2 19.5934 23.2646 0.187245
247 2 23.5006 23.1728 15.739
248 2 27.5354 23.0865 0.177966
249 2 31.5202 23.3541 15.7392
250 2 35.6114 23.3758 -0.0184347
251 2 39.3451 23.2989 0.108781
252 2 43.7135 23.4633 15.8729
253 2 47.5545 23.4225 15.871
254 2 51.4224 23.564 0.0764895
255 2 55.3832 23.625 15.9395
256 2 59.3576 23.5534 15.8071
257 2 63.56 23.6391 0.165177
258 2 67.6881 23.881 0.308947
259 2 71.6534 24.0374 15.8734
260 2 75.613 23.8691 0.214263
261 2 79.4901 24.1171 15.8463
262 2 83.6146 24.1629 15.8636
263 2 87.6455 24.0845 15.9807
264 2 91.6764 23.8715 15.9552
265 2 95.4603 23.7914 16.0462
266 2 99.2267 23.6995 15.8849
267 2 103.295 23.962 15.7589
268 2 107.383 23.861 16.0317
269 2 111.089 23.6387 16.0454
270 2 114.903 23.7726 16.0205
271 2 118.898 23.4975 0.26489
272 2 122.977 23.5345 0.0580416
273 2 126.899 23.4105 0.165798
274 2 130.761 23.5208 0.177608
275 2 134.742 23.225 0.0821559
276 2 138.506 23.1389 0.182726
277 2 142.357 23.0989 15.9544
278 2 146.416 23.2239 0.269717
279 2 150.324 23.2601 15.9488
280 2 154.133 23.0662 0.201264
281 2 158.091 27.2196 0.183458
282 2 3.75368 26.9253 0.0180586
283 2 7.69005 27.0018 15.8836
284 2 11.5261 27.1769 0.24399
285 2 15.4168 26.9718 0.283511
286 2 19.4844 27.0618 16.0574
287 2 23.7238 27.1523 0.264993
288 2 27.4181 27.098 0.208847
289 2 31.6282 27.1906 15.8732
290 2 35.5591 27.1253 -0.0214022
291 2 39.5218 27.3117 15.8072
292 2 43.4577 27.2768 16.0151
293 2 47.5671 27.3518 15.9877
294 2 51.5207 27.4244 15.7897
295 2 55.595 27.6221 15.9545
296 2 59.4059 27.6643 0.0954778
297 2 63.5297 27.7495 -0.00117861
298 2 67.4977 27.7465 -0.00822805
299 2 71.537 27.8742 0.117512
300 2 75.5552 27.8253 16.0859
301 2 79.6481 27.9161 15.7953
302 2 83.6646 27.9318 15.9721
303 2 87.817 28.0713 15.7485
304 2 91.6664 27.8945 15.8769
305 2 95.5046 27.796 15.9046
306 2 99.4562 27.8495 16.1162
307 2 103.217 27.6909 15.9615
308 2 107.341 28.0195 0.343981
309 2 111.22 27.6509 0.144443
310 2 115.279 27.8579 0.29871
311 2 119.146 27.6127 16.1365
312 2 122.995 27.5972 0.337436
313 2 126.838 27.4262 0.128611
314 2 130.823 27.2039 16.1028
315 2 134.609 27.4281 16.1134
316 2 138.544 27.1793 0.192787
317 2 142.441 27.3892 15.9625
318 2 146.364 27.1159 0.198693
319 2 150.218 27.2531 0.025147
320 2 154.072 27.1762 0.244459
321 2 158.159 31.0886 0.305528
322 2 3.71764 31.04 15.7464
323 2 7.44803 31.1302 -0.043889
324 2 11.5014 30.8801 15.9181
325 2 15.5273 30.8467 0.206236
326 2 19.615 31.1711 0.125488
327 2 23.5651 31.0963 0.141148
328 2 27.3922 30.8257 0.110673
329 2 31.4488 30.9995 0.0489536
330 2 35.6214 31.085 15.6758
331 2 39.4468 31.2073 15.7981
332 2 43.4653 31.373 15.8423
333 2 47.6403 31.2025 15.8758
334 2 51.5326 31.3791 0.123421
335 2 55.3688 31.4461 0.192954
336 2 59.5054 31.3681 16.1477
337 2 63.6083 31.5986 15.8423
338 2 67.471 31.7652 15.9883
339 2 71.5805 31.7623 0.185351
340 2 75.6687 31.8171 0.0830255
341 2 79.657 31.8223 15.9551
342 2 83.8053 32.0517 0.129013
343 2 87.3638 32.069 0.247076
344 2 91.6216 31.7448 0.214071
345 2 95.3706 31.8002 15.7876
346 2 99.4635 31.7178 16.1955
347 2 103.699 31.8708 15.9964
348 2 107.289 31.6979 15.9683
349 2 111.122 31.7794 0.212809
350 2 115.177 31.6523 16.0923
351 2 119.021 31.6996 16.1608
352 2 123.089 31.6152 15.9531
353 2 126.635 31.5757 15.7742
354 2 130.536 31.4937 16.0077
355 2 134.642 31.4395 15.8963
356 2 138.532 31.1954 -0.00852599
357 2 142.274 31.2117 0.339352
358 2 146.377 31.1298 15.9515
359 2 150.116 31.2941 0.201484
360 2 154.249 31.066 0.00524599
361 2 158.33 34.9924 0.22287
362 2 3.74426 34.9505 0.119412
363 2 7.66709 35.1358 0.111446
364 2 11.7171 34.8569 0.179121
365 2 15.6403 34.9173 0.141712
366 2 19.5585 34.9947 0.200125
367 2 23.4911 34.9125 0.151596
368 2 27.5344 35.0078 0.251491
369 2 31.416 34.9728 0.0923197
370 2 35.6401 35.1063 0.119762
371 2 39.5525 35.2566 15.961
372 2 43.5331 35.2763 0.164646
373 2 47.5311 35.1683 15.7966
374 2 51.3208 35.2505 0.0996961
375 2 55.5545 35.2557 15.8763
376 2 59.4949 35.2786 0.274007
377 2 63.5112 35.4684 15.6864
378 2 67.4193 35.7368 0.181407
379 2 71.6746 35.6392 0.183211
380 2 75.5322 35.6452 0.070713
381 2 79.621 35.7873 15.8705
382 2 83.5251 35.6783 0.14543
383 2 87.6369 35.8585 15.9927
384 2 91.6385 35.888 0.277692
385 2 95.8253 35.7003 16.1246
386 2 99.6525 35.6687 15.9975
387 2 103.514 35.8292 16.1026
388 2 107.324 35.8426 16.1006
389 2 111.329 35.6372 0.174062
390 2 115.155 35.5559 15.7603
391 2 119.003 35.6191 16.02
392 2 122.918 35.4956 0.113901
393 2 126.796 35.5819 0.160616
394 2 130.73 35.5392 0.259538
395 2 134.621 35.5969 0.0201608
396 2 138.615 35.3455 15.8233
397 2 142.4 35.3111 0.326081
398 2 146.147 35.3019 15.8019
399 2 150.314 35.0994 0.177192
400 2 154.424 35.0115 0.0543961
401 2 158.172 38.9477 0.216896
402 2 3.9053 39.1233 0.171523
403 2 7.7166 39.0045 0.248409
404 2 11.5712 38.9284 16.2271
405 2 15.5236 38.9551 0.019002
406 2 19.6444 38.8828 0.321554
407 2 23.5193 38.8813 15.8614
408 2 27.4911 38.7809 0.250647
409 2 31.4795 38.7776 16.0254
410 2 35.4701 39.0501 0.14065
411 2 39.5716 39.0162 0.253019
412 2 43.4981 39.1136 15.8635
413 2 47.3279 39.0312 0.05789
414 2 51.3702 39.1939 15.7878
415 2 55.4117 39.1261 0.0833409
416 2 59.4302 39.4572 16.0417
417 2 63.3923 39.3367 0.441895
418 2 67.6188 39.5687 0.303629
419 2 71.5082 39.4186 15.7841
420 2 75.6143 39.4519 -0.0413625
421 2 79.5807 39.685 16.0797
422 2 83.5116 39.7562 15.8143
423 2 87.555 39.7724 0.187505
424 2 91.5256 39.807 16.0116
425 2 95.5097 39.5789 0.0433678
426 2 99.7075 39.6361 0.349107
427 2 103.432 39.7483 16.0079
428 2 107.402 39.7023 0.182059
429 2 111.276 39.5157 15.9174
430 2 115.263 39.6148 0.358199
431 2 119.078 39.7597 0.361089
432 2 123.192 39.5745 15.9281
433 2 127.023 39.4488 15.9536
434 2 130.942 39.4987 16.0757
435 2 134.792 39.3383 0.135895
436 2 138.741 39.171 -0.0912887
437 2 142.389 39.498 0.157035
438 2 146.409 39.3831 15.8916
439 2 150.443 39.2612 15.7319
440 2 154.252 39.1293 15.8049
441 2 158.137 43.0226 0.322436
442 2 3.79825 42.9937 0.0585391
443 2 7.70164 43.0029 0.0460642
444 2 11.7411 42.8858 0.379318
445 2 15.4605 42.8543 0.138055
446 2 19.5079 42.8514 0.0811281
447 2 23.4061 42.5575 0.0182684
448 2 27.4459 42.7675 0.0538547
449 2 31.4356 42.8388 0.398832
450 2 35.5089 42.7852 0.0160061
451 2 39.5008 42.7575 0.234493
452 2 43.5127 43.0881 0.256333
453 2 47.4487 43.0764 0.149737
454 2 51.4616 42.9827 0.155402
455 2 55.412 43.0003 16.0247
456 2 59.4424 43.2642 15.9308
457 2 63.4404 43.1848 0.399752
458 2 67.539 43.2916 16.0237
459 2 71.6836 43.4892 0.153262
460 2 75.7468 43.3546 15.7747
461 2 79.4366 43.4449 15.9867
462 2 83.3516 43.5122 0.0435502
463 2 87.411 43.683 0.153382
464 2 91.4252 43.6676 0.200752
465 2 95.4612 43.7185 15.8278
466 2 99.5161 43.6584 15.9521
467 2 103.298 43.6412 16.045
468 2 107.572 43.6388 16.0637
469 2 111.403 43.7801 16.0399
470 2 115.185 43.5821 16.1034
471 2 119.286 43.6453 15.974
472 2 123.262 43.5617 15.86
473 2 126.983 43.4258 16.0122
474 2 130.798 43.3605 0.0415749
475 2 134.741 43.4033 0.357382
476 2 138.743 43.4272 0.169518
477 2 142.543 43.3254 15.8163
478 2 146.395 43.398 15.9492
479 2 150.393 43.1637 15.9047
480 2 154.226 43.1685 0.198273
481 2 158.35 47.0785 0.183734
482 2 3.83618 46.9683 -0.0448996
483 2 7.92033 47.0422 0.114879
484 2 11.7956 46.9299 15.928
485 2 15.4953 47.1104 0.102322
486 2 19.6713 46.8518 15.7875
487 2 23.3629 46.7904 0.246508
488 2 27.2511 46.7989 0.16696
489 2 31.2024 46.7424 0.00391726
490 2 35.3461 46.7864 0.000417122
491 2 39.5109 46.821 16.0176
492 2 43.475 46.8753 0.124889
493 2 47.3495 47.037 0.126492
494 2 51.4169 46.9009 0.167903
495 2 55.4574 46.9685 0.198985
496 2 59.3797 47.1714 15.8944
497 2 63.4913 47.0902 15.9651
498 2 67.4665 47.065 0.286021
499 2 71.4153 47.2378 0.133746
500 2 75.3538 47.3176 0.336474
501 2 79.4441 47.2358 15.7843
502 2 83.4586 47.3947 0.0262733
503 2 87.3547 47.5839 0.143516
504 2 91.5258 47.6148 0.285942
505 2 95.5382 47.5539 16.0306
506 2 99.7092 47.7762 16.0091
507 2 103.53 47.6705 0.163339
508 2 107.545 47.7034 0.256253
509 2 111.406 47.7646 15.9533
510 2 115.248 47.7264 15.8967
511 2 119.349 47.6003 0.15801
512 2 123.112 47.5642 15.9758
513 2 126.974 47.6361 -0.00543447
514 2 130.804 47.4764 15.909
515 2 134.896 47.3248 0.10438
516 2 138.771 47.528 0.224877
517 2 142.515 47.3827 -0.0751935
518 2 146.602 47.3724 0.0122765
519 2 150.555 47.1781 15.9605
520 2 154.29 47.37 15.8896
521 2 158.413 51.1648 0.24155
522 2 3.72794 50.9931 15.7255
523 2 8.01084 50.8812 0.0117001
524 2 11.8604 50.8914 15.8174
525 2 15.5352 50.8252 -0.114438
526 2 19.7333 50.8974 -0.0155734
527 2 23.613 50.7691 15.968
528 2 27.4288 50.5678 -0.0386342
529 2 31.3148 50.7173 0.0652837
530 2 35.3257 50.8741 0.110354
531 2 39.2121 50.638 0.176305
532 2 43.4701 50.805 15.7853
533 2 47.2832 50.9666 15.9511
534 2 51.4401 50.8465 15.8871
535 2 55.4225 50.8096 0.0981848
536 2 59.4883 51.1412 15.8904
537 2 63.3961 50.975 15.8637
538 2 67.2998 51.0424 0.184764
539 2 71.1666 51.1789 15.8066
540 2 75.3259 51.2723 0.26048
541 2 79.4858 51.1133 0.159182
542 2 83.4729 51.4378 0.0568705
543 2 87.3688 51.2662 0.0261607
544 2 91.2409 51.6805 0.375353
545 2 95.4405 51.399 15.9404
546 2 99.4717 51.5671 16.0627
547 2 103.326 51.4116 16.1465
548 2 107.357 51.6818 0.302513
549 2 111.4 51.7346 0.208262
550 2 115.313 51.6591 0.145318
551 2 119.169 51.8143 15.8629
552 2 123.09 51.6513 0.342409
553 2 127.015 51.4983 15.8522
554 2 130.99 51.5508 0.191921
555 2 134.851 51.3844 15.8792
556 2 138.616 51.4662 0.150861
557 2 142.85 51.3399 15.9624
558 2 146.596 51.184 0.173929
559 2 150.546 51.2232 0.286795
560 2 154.467 51.2874 15.6284
561 2 0.230083 55.2859 0.315528
562 2 4.00373 54.9217 -0.00756461
563 2 7.78647 54.8975 0.135697
564 2 11.7614 54.9977 0.00228091
565 2 15.6829 54.9128 15.9096
566 2 19.6184 54.6746 0.194049
567 2 23.471 54.61 0.0778949
568 2 27.3191 54.7143 15.9453
569 2 31.2956 54.613 0.134322
570 2 35.1305 54.7185 0.132242
571 2 39.3238 54.5819 0.115148
572 2 43.3002 54.4245 0.115486
573 2 47.5035 54.7127 0.0890711
574 2 51.077 54.8412 0.339254
575 2 55.3006 54.9402 15.7375
576 2 59.17 54.7818 15.8596
577 2 63.234 55.142 15.7542
578 2 67.2925 54.9496 0.174462
579 2 71.3578 55.2482 0.186529
580 2 75.2557 55.1469 15.8909
581 2 79.3323 55.4883 15.9306
582 2 83.1426 55.2223 0.170235
583 2 87.2215 55.3491 16.1199
584 2 91.2335 55.4231 0.354647
585 2 95.4801 55.3305 0.149311
586 2 99.2952 55.4892 16.0338
587 2 103.31 55.508 0.377456
588 2 107.308 55.5653 0.518237
589 2 111.253 55.5714 15.9401
590 2 115.333 55.6259 0.263817
591 2 119.255 55.815 15.9204
592 2 123.21 55.7161 0.229454
593 2 127.049 55.5331 -0.0592045
594 2 130.895 55.343 15.9208
595 2 134.643 55.5839 15.9373
596 2 138.656 55.4459 15.8472
597 2 142.589 55.2508 0.0876666
598 2 146.686 55.3738 -0.0344223
599 2 150.605 55.1679 0.344592
600 2 154.629 55.2758 0.284294
601 2 158.461 59.0466 0.0948351
602 2 3.95249 59.0734 15.8524
603 2 7.8103 59.2147 0.141379
604 2 11.9581 58.9538 15.7617
605 2 15.7338 58.8789 16.0105
606 2 19.656 58.7836 0.024888
607 2 23.4755 58.8103 0.159874
608 2 27.504 58.6447 0.21987
609 2 31.3187 58.6486 -0.100423
610 2 35.2256 58.5713 15.7726
611 2 39.252 58.6192 0.104482
612 2 43.2833 58.5129 0.0233374
613 2 47.1514 58.738 0.119862
614 2 51.1851 58.5717 0.145514
615 2 55.2159 58.7044 15.9527
616 2 59.1323 58.8545 15.929
617 2 63.2135 59.0405 16.0914
618 2 67.3034 58.8703 15.7364
619 2 71.3671 59.01 15.9633
620 2 75.1888 59.1081 15.8102
621 2 79.2972 59.264 0.290718
622 2 83.1763 59.2041 0.00796799
623 2 87.2146 59.1803 0.281436
624 2 91.1323 59.4948 0.260674
625 2 95.0805 59.1761 0.28231
626 2 99.302 59.3443 15.9442
627 2 103.265 59.4747 0.21827
628 2 107.238 59.3893 0.296982
629 2 111.193 59.4997 15.8491
630 2 115.119 59.4249 15.915
631 2 119.161 59.6132 15.8801
632 2 123.231 59.5626 15.8376
633 2 127.218 59.3982 0.200879
634 2 130.865 59.5 15.9161
635 2 134.867 59.497 15.8893
636 2 138.806 59.3743 15.661
637 2 142.768 59.2636 0.0219293
638 2 146.649 59.3982 -0.142384
639 2 150.567 59.1958 0.093908
640 2 154.306 59.1141 0.287911
641 2 0.0383858 63.1366 0.00570563
642 2 3.93402 63.0741 0.285236
643 2 7.94049 63.1373 15.7181
644 2 11.8386 62.9975 15.9456
645 2 15.7731 62.8928 0.227659
646 2 19.6599 63.0144 0.281471
647 2 23.5253 62.7871 0.27083
648 2 27.4698 62.6637 0.0952719
649 2 31.3607 62.6693 0.065693
650 2 35.3177 62.613 0.15049
651 2 39.3712 62.4902 0.120816
652 2 43.3187 62.6166 15.8606
653 2 47.1934 62.5162 16.0188
654 2 51.0311 62.6212 0.337103
655 2 55.231 62.5104 0.292942
656 2 58.8908 62.6693 15.7154
657 2 63.1801 62.8257 0.250325
658 2 67.2227 62.9601 15.8549
659 2 71.158 62.9933 16.1555
660 2 75.2145 63.0082 0.117404
661 2 79.0936 63.2295 15.8178
662 2 83.1946 63.1035 0.0814249
663 2 87.0504 63.1157 15.9484
664 2 91.1701 63.146 15.9668
665 2 95.0703 63.2284 15.9907
666 2 99.1885 63.3005 15.9874
667 2 103.008 63.5292 0.1989
668 2 107.179 63.4435 15.8918
669 2 110.956 63.3713 16.082
670 2 115.248 63.414 0.292368
671 2 119.12 63.3358 0.108405
672 2 123.11 63.4495 0.0612763
673 2 127.01 63.1318 15.7626
674 2 130.92 63.6113 0.126131
675 2 135.055 63.3869 15.8067
676 2 138.966 63.5204 0.209517
677 2 142.816 63.5045 15.888
678 2 146.732 63.3721 0.181624
679 2 150.544 63.2409 -0.0434721
680 2 154.551 63.3162 0.142405
681 2 0.3396 67.0411 0.0867719
682 2 4.07211 67.0617 -0.048253
683 2 8.06884 67.0916 15.8721
684 2 11.8234 66.9283 15.7087
685 2 15.6403 66.799 0.147333
686 2 19.7414 66.7736 0.067197
687 2 23.495 66.8284 0.109898
688 2 27.6355 66.7268 0.121771
689 2 31.5855 66.7656 0.172583
690 2 35.591 66.5781 15.7103
691 2 39.3806 66.3694 15.6027
692 2 43.1614 66.5151 16.0003
693 2 47.2467 66.419 15.6349
694 2 51.0327 66.4503 -0.0710042
695 2 55.1409 66.4954 15.8749
696 2 59.0332 66.6495 16.028
697 2 63.0255 66.5808 0.105518
698 2 67.0602 66.9164 16.0621
699 2 71.1063 66.7965 0.182933
700 2 74.9948 66.9003 0.155368
701 2 78.9941 67.0513 15.7715
702 2 82.9988 66.924 16.0087
703 2 87.1875 67.0452 15.9229
704 2 91.0856 66.986 0.474744
705 2 94.8631 67.2206 15.7881
706 2 98.9098 67.1589 15.8737
707 2 103.211 67.193 0.341276
708 2 107.083 67.2386 0.4009
709 2 110.965 67.376 15.9441
710 2 115.174 67.3608 15.9816
711 2 119.13 67.2442 0.0875452
712 2 122.843 67.1583 16.0753
713 2 126.932 67.3038 0.0816168
714 2 131.06 67.576 0.422422
715 2 135.006 67.4947 15.9973
716 2 138.951 67.4611 0.0179972
717 2 142.63 67.4701 15.6589
718 2 146.691 67.324 15.8952
719 2 150.46 67.2901 -0.109115
720 2 154.439 67.1404 0.12717
721 2 158.516 70.9853 15.786
722 2 4.17838 70.9153 0.115964
723 2 8.051 70.9932 0.140787
724 2 12.0397 70.9928 0.072769
725 2 15.7492 70.9175 15.7271
726 2 19.7715 70.7302 0.127531
727 2 23.6909 70.7203 0.0616447
728 2 27.5552 70.7165 0.413795
729 2 31.437 70.5932 0.167648
730 2 35.6096 70.7151 0.212086
731 2 39.1719 70.7205 -0.0383704
732 2 43.3146 70.3585 0.0409543
733 2 47.219 70.4929 15.8314
734 2 51.0464 70.4304 0.162435
735 2 54.9027 70.4265 15.9222
736 2 58.9666 70.6077 15.918
737 2 62.9647 70.4683 15.8166
738 2 67.1039 70.7483 16.1283
739 2 71.0361 70.6948 0.0971704
740 2 74.9546 70.7081 16.0196
741 2 79.1375 71.1057 0.213471
742 2 82.9899 71.1443 0.11357
743 2 87.074 70.7396 15.7715
744 2 91.0416 71.0203 15.9171
745 2 95.0787 71.1753 16.0781
746 2 99.0681 71.0276 15.9789
747 2 102.885 71.0859 15.7457
748 2 106.875 71.2299 0.106775
749 2 111.061 71.2263 0.286469
750 2 114.89 71.2361 0.299994
751 2 118.788 71.3569 0.0912016
752 2 123.032 71.0245 16.02
753 2 126.955 71.4556 0.400386
754 2 130.917 71.374 0.124428
755 2 135.002 71.2397 0.220165
756 2 138.731 71.3391 15.8876
757 2 142.884 71.1529 15.8871
758 2 146.672 71.0782 16.0601
759 2 150.708 71.2796 0.114553
760 2 154.54 71.1251 0.00887017
761 2 -0.0113466 75.042 15.9302
762 2 4.22808 75.0243 15.949
763 2 7.99061 74.9358 -0.0202959
764 2 11.9033 74.9151 0.0868744
765 2 15.8112 74.9139 15.8341
766 2 19.7304 74.8267 0.0927365
767 2 23.7709 74.7631 0.199445
768 2 27.7674 74.5411 0.0734989
769 2 31.6044 74.6929 0.117248
770 2 35.6543 74.6183 0.167893
771 2 39.3673 74.5289 0.0487708
772 2 43.2341 74.4742 0.112997
773 2 47.0259 74.5761 -0.00956234
774 2 51.0124 74.4649 15.9044
775 2 55.0071 74.3311 15.9265
776 2 59.1469 74.3584 16.0843
777 2 63.0565 74.2897 15.8897
778 2 66.85 74.6045 15.9624
779 2 71.0275 74.6856 0.106891
780 2 74.8559 74.7813 0.315317
781 2 78.7937 74.8935 0.349347
782 2 82.8078 74.8477 15.8294
783 2 86.8014 74.8823 15.7976
784 2 90.9457 74.9855 0.110275
785 2 95.0246 75.1006 16.0957
786 2 99.1717 74.8724 16.1038
787 2 102.999 74.9828 16.0806
788 2 106.923 75.2876 0.0471833
789 2 110.859 75.1522 0.161379
790 2 114.974 75.3104 0.141496
791 2 119.034 75.2277 0.204733
792 2 123.078 75.173 0.197731
793 2 126.768 75.2168 15.9545
794 2 130.947 75.2822 16.1329
795 2 134.888 75.4268 0.217562
796 2 138.947 75.1867 16.0931
797 2 142.945 75.061 15.9387
798 2 146.789 75.051 15.859
799 2 150.722 75.0048 15.8602
800 2 154.621 75.068 16.1629
801 2 0.411998 79.1317 0.192149
802 2 4.29583 78.9637 0.0290316
803 2 8.15301 79.0048 0.303726
804 2 11.9895 78.8881 15.8989
805 2 15.8254 78.8149 15.8035
806 2 19.7175 78.843 0.0879678
807 2 23.8052 78.7568 0.196432
808 2 27.8156 78.7054 0.357622
809 2 31.591 78.552 15.9072
810 2 35.6346 78.597 0.197195
811 2 39.4151 78.4934 0.0828773
812 2 43.3193 78.5021 0.0407142
813 2 47.2615 78.4513 0.016398
814 2 51.1156 78.3798 0.455823
815 2 55.0926 78.311 0.0737956
816 2 58.7801 78.222 0.155215
817 2 62.8041 78.4547 0.207849
818 2 66.9874 78.6133 0.24446
819 2 70.9585 78.5737 15.9328
820 2 74.8065 78.8824 0.165535
821 2 78.9872 78.8233 0.179227
822 2 82.8552 78.7041 15.8301
823 2 86.8978 78.8135 15.7288
824 2 90.8694 79.1134 15.9103
825 2 94.8715 78.7308 0.247391
826 2 98.8929 78.9733 0.330979
827 2 102.676 79.0595 15.847
828 2 106.916 79.0775 0.328702
829 2 110.785 79.1495 15.8925
830 2 114.687 79.1274 0.137244
831 2 118.889 79.0858 0.171547
832 2 122.992 79.1799 15.9395
833 2 126.9 79.2232 0.0513372
834 2 130.816 79.2112 15.9382
835 2 134.838 79.2768 0.362613
836 2 139.033 79.1483 0.143542
837 2 142.873 79.0416 16.0599
838 2 146.78 79.3334 15.677
839 2 150.67 79.0899 16.0256
840 2 154.746 78.9936 0.0329137
841 2 0.326668 82.9459 0.0774519
842 2 4.15069 82.9029 15.8303
843 2 8.20104 83.0154 0.231327
844 2 12.2673 82.9858 15.7392
845 2 16.1303 82.7645 15.7951
846 2 19.8554 82.7913 0.320672
847 2 23.7185 82.6007 0.132578
848 2 27.8786 82.7387 0.125711
849 2 31.7497 82.6947 15.9232
850 2 35.4476 82.6074 0.199646
851 2 39.3332 82.5712 0.123797
852 2 43.3746 82.5041 0.139907
853 2 47.1631 82.3445 0.202001
854 2 51.0126 82.4925 0.0531868
855 2 54.947 82.2232 0.200388
856 2 58.8371 82.2813 15.8719
857 2 62.7113 82.3283 15.8352
858 2 66.7398 82.2839 15.8787
859 2 70.7251 82.4707 0.126719
860 2 74.7203 82.8041 0.0931752
861 2 78.6752 82.7283 0.0681977
862 2 82.9096 82.7956 15.8275
863 2 86.9012 82.5817 15.9435
864 2 90.8389 82.8121 15.9604
865 2 94.8079 82.9982 15.9546
866 2 98.7837 82.8679 15.7747
867 2 102.906 82.8134 16.1096
868 2 106.846 83.0397 0.158146
869 2 110.87 83.2179 16.0444
870 2 114.798 83.0662 0.160953
871 2 118.85 82.9539 0.0560371
872 2 122.78 83.0896 15.8563
873 2 126.813 83.0556 15.8416
874 2 130.676 83.0728 15.9594
875 2 134.816 83.0521 0.339172
876 2 138.854 83.0518 0.218862
877 2 142.977 83.1716 -0.0342381
878 2 146.692 83.1693 15.7221
879 2 150.584 83.2073 15.8652
880 2 154.543 83.1876 15.8634
881 2 0.355623 87.0886 0.117151
882 2 4.30204 86.876 -0.0269894
883 2 8.01519 86.8772 0.0165112
884 2 11.9784 86.9785 15.7697
885 2 15.9647 86.7216 16.08
886 2 19.7995 86.789 0.234571
887 2 23.6885 86.8158 0.0724488
888 2 27.7672 86.8357 0.392051
889 2 31.7074 86.7181 15.8799
890 2 35.3764 86.6039 0.186275
891 2 39.279 86.6936 0.0722628
892 2 43.2441 86.5744 0.146403
893 2 47.1016 86.3797 0.0614474
894 2 51.2146 86.5151 0.0505259
895 2 54.9341 86.3976 0.0473451
896 2 58.8207 86.413 0.170256
897 2 62.8814 86.5171 16.0839
898 2 66.8093 86.3141 15.8482
899 2 70.5782 86.3414 -0.0102392
900 2 74.4936 86.5798 15.8146
901 2 78.7885 86.6765 0.0917515
902 2 82.717 86.6305 15.7957
903 2 86.8303 86.6056 0.212933
904 2 90.6265 86.5373 15.732
905 2 94.7662 86.836 15.9967
906 2 98.7795 86.6826 15.9578
907 2 102.846 86.8342 16.0406
908 2 106.753 86.828 15.924
909 2 110.73 86.9135 0.289036
910 2 114.863 86.9963 15.9605
911 2 118.76 86.9391 16.1167
912 2 122.817 87.1152 15.8995
913 2 126.808 87.1487 16.0896
914 2 130.785 87.0717 15.9688
915 2 134.986 86.9838 0.215496
916 2 138.688 87.0587 0.26258
917 2 143.002 87.2447 15.9697
918 2 146.789 87.1307 15.8134
919 2 150.69 87.0424 15.8958
920 2 154.502 86.9627 -0.00164227
921 2 0.361344 91.058 15.8551
922 2 4.10111 91.0115 15.8342
923 2 8.13426 91.0865 0.0130084
924 2 12.0792 90.9294 15.688
925 2 15.8401 90.8124 16.0282
926 2 19.7518 90.956 0.481606
927 2 23.6812 90.809 16.1615
928 2 27.752 90.8271 0.453875
929 2 31.5802 90.7013 15.9001
930 2 35.4564 90.5936 0.237139
931 2 39.3998 90.4879 0.253556
932 2 43.4258 90.5572 0.0833792
933 2 47.0818 90.5857 0.0651862
934 2 51.1927 90.6676 16.0313
935 2 55.1923 90.4961 0.215417
936 2 58.86 90.6206 15.6741
937 2 63.0095 90.412 0.00829759
938 2 66.8557 90.2696 -0.0725137
939 2 70.6433 90.3112 0.0562137
940 2 74.7562 90.2883 15.9021
941 2 78.6631 90.3546 15.6788
942 2 82.5907 90.4306 16.0871
943 2 86.7411 90.6022 15.9821
944 2 90.6239 90.6621 0.182394
945 2 94.7557 90.7818 16.0044
946 2 98.7172 90.8035 16.05
947 2 102.766 90.7923 15.9244
948 2 106.749 90.7176 15.8764
949 2 110.651 90.9043 16.014
950 2 114.756 90.6607 16.0683
951 2 118.688 91.0334 0.337832
952 2 122.688 90.7765 0.242196
953 2 126.714 90.9078 0.21249
954 2 130.78 91.0607 15.8252
955 2 134.805 90.903 0.381336
956 2 138.744 91.0706 15.7044
957 2 142.861 90.9623 15.8979
958 2 146.793 91.1567 0.122878
959 2 150.913 91.0887 16.0522
960 2 154.833 90.993 15.8403
961 2 0.522967 95.1421 15.7464
962 2 4.35429 94.9426 15.9525
963 2 8.2864 95.0143 0.249288
964 2 12.3279 94.8167 16.1684
965 2 16.1454 94.8846 16.1423
966 2 19.9545 94.7991 16.0579
967 2 23.7939 94.7145 15.8996
968 2 27.6877 94.734 0.365056
969 2 31.6184 94.6828 15.9784
970 2 35.598 94.6096 0.0582934
971 2 39.4616 94.546 -0.0785465
972 2 43.2933 94.474 0.151917
973 2 47.4231 94.4802 15.8231
974 2 51.2013 94.5235 16.0521
975 2 55.0847 94.5072 15.7091
976 2 58.999 94.3205 0.0383815
977 2 62.9091 94.4864 15.9511
978 2 66.5995 94.4354 15.9557
979 2 70.7822 94.3661 0.272129