ITEM: TIMESTEP
19400
ITEM: NUMBER OF ATOMS
32000
ITEM: BOX BOUNDS xy xz yz pp pp pp
0.0000000000000000e+00 1.5831999999999999e+02 0.0000000000000000e+00
0.0000000000000000e+00 1.5831999999999999e+02 0.0000000000000000e+00
1.6462019267878247e-01 1.5933091807321050e+01 0.0000000000000000e+00
ITEM: ATOMS id type x y z
1 2 158.164 157.824 15.8688
2 2 3.79846 157.604 0.152354
3 2 7.67674 157.787 15.8984
4 2 11.5987 157.772 16.0778
5 2 15.7246 157.952 15.7432
6 2 19.7078 157.822 15.7038
7 2 23.8212 158.259 0.0686033
8 2 27.7004 157.994 15.9768
9 2 31.8414 158.057 16.0733
10 2 35.7103 158.237 15.8498
11 2 39.8925 158.131 0.263135
12 2 43.8461 -0.00495212 0.0858932
13 2 47.8944 158.461 15.7814
14 2 51.8512 -0.0522645 0.0748714
15 2 55.784 158.517 15.8776
16 2 59.7625 0.190005 0.282056
17 2 63.7381 0.250994 15.9262
18 2 67.8219 0.177088 0.11328
19 2 71.7295 158.723 0.30289
20 2 75.6261 158.383 0.430673
21 2 79.5381 0.0508354 16.0116
22 2 83.4186 158.272 15.9205
23 2 87.1157 158.452 15.9683
24 2 91.2093 158.23 0.189176
25 2 95.0933 158.05 16.1357
26 2 99.0324 158.299 15.741
27 2 102.936 158.182 0.147773
28 2 106.771 158.068 15.9991
29 2 110.69 157.868 0.235834
30 2 114.614 157.744 0.121549
31 2 118.686 157.771 15.8509
32 2 122.614 157.83 15.9427
33 2 126.396 157.766 16.1003
34 2 130.356 157.727 15.9481
35 2 134.125 157.547 15.9802
36 2 138.267 157.459 16.0173
37 2 142.195 157.693 0.320145
38 2 146.036 157.301 0.186708
39 2 150.088 157.46 0.0738097
40 2 153.936 157.505 0.103625
41 2 158.122 3.28572 0.133698
42 2 3.70456 3.31115 16.1938
43 2 7.72844 3.30563 0.185148
44 2 11.6932 3.38603 16.0444
45 2 15.5586 3.51443 0.0290398
46 2 19.7728 3.6958 0.213722
47 2 23.6712 3.74376 15.8714
48 2 27.8982 3.52448 15.8899
49 2 31.7938 3.88962 0.123298
50 2 35.7202 3.77758 0.118893
51 2 39.7964 3.55592 16.0205
52 2 43.8667 3.83946 0.122726
53 2 47.7844 4.04479 16.166
54 2 51.7572 3.89464 0.200996
55 2 55.833 3.9604 0.216257
56 2 59.8706 4.05023 15.9857
57 2 63.7348 4.20685 15.7656
58 2 67.9174 4.26482 0.269525
59 2 72.0739 4.21539 0.20686
60 2 75.7612 4.15069 0.177778
61 2 79.5148 4.11797 0.397248
62 2 83.5078 4.00685 15.8526
63 2 87.4004 3.99745 16.0726
64 2 91.2638 4.02302 0.255752
65 2 95.2167 3.90792 15.7471
66 2 99.0823 3.80077 15.995
67 2 103.066 3.86193 16.1
68 2 106.777 3.78367 15.9876
69 2 110.967 3.8439 15.697
70 2 114.6 3.63611 15.9828
71 2 118.538 3.57225 15.9644
72 2 122.743 3.56155 15.9129
73 2 126.421 3.59518 0.26205
74 2 130.356 3.39642 0.177568
75 2 134.372 3.23222 15.9959
76 2 138.328 3.20127 15.846
77 2 142.137 2.96738 15.9016
78 2 146.08 2.98362 0.133771
79 2 150.1 3.13624 16.0532
80 2 154.109 3.33029 0.137012
81 2 158.057 7.46808 0.265487
82 2 3.60621 7.41264 0.24783
83 2 7.87137 7.17278 15.927
84 2 11.6191 7.37287 0.0817556
85 2 15.6505 7.55848 0.0232844
86 2 19.531 7.57404 0.190046
87 2 23.664 7.62669 15.767
88 2 27.6979 7.60185 0.396537
89 2 31.8406 7.631 15.8841
90 2 35.7737 7.69711 15.9766
91 2 39.849 7.62569 0.315534
92 2 43.7336 7.89516 15.9336
93 2 47.8064 8.01462 15.9293
94 2 51.8528 7.96182 16.042
95 2 55.6633 8.07445 0.264084
96 2 59.7681 7.93124 0.0755747
97 2 63.7874 8.2942 0.365715
98 2 67.754 8.1623 16.1083
99 2 71.5969 8.19264 16.0776
100 2 75.7125 7.97531 0.215611
101 2 79.7129 8.19173 0.048226
102 2 83.5211 8.02313 0.126697
103 2 87.3319 7.89411 0.0815878
104 2 91.3433 8.05311 15.9084
105 2 95.2928 8.0171 16.069
106 2 99.0376 7.97567 0.201134
107 2 103.162 7.69875 0.25753
108 2 107.167 7.76352 16.0385
109 2 110.755 7.64702 0.11915
110 2 114.839 7.47019 16.111
111 2 118.806 7.43632 0.27248
112 2 122.487 7.49632 0.13676
113 2 126.646 7.44448 15.9716
114 2 130.462 7.47832 15.7012
115 2 134.494 7.33184 0.152806
116 2 138.241 7.27134 0.132159
117 2 142.321 6.99967 0.14447
118 2 146.158 7.21227 0.239674
119 2 150.051 7.07444 15.8543
120 2 154.019 7.0344 15.8478
121 2 158.006 10.9959 15.9321
122 2 3.72438 11.551 0.116124
123 2 7.89063 11.0206 15.9565
124 2 11.7999 11.3426 15.762
125 2 15.7845 11.3124 0.0202271
126 2 19.75 11.2946 0.184496
127 2 23.7745 11.462 16.0021
128 2 27.7796 11.5272 16.0662
129 2 31.6469 11.4875 15.9062
130 2 35.8549 11.572 0.229495
131 2 39.6869 11.7374 16.0136
132 2 43.7529 11.6442 0.137934
133 2 47.6254 11.8994 0.320683
134 2 51.8312 11.8456 15.9726
135 2 55.7145 12.1755 16.0094
136 2 59.8392 11.8724 0.282957
137 2 63.7966 12.0505 16.0622
138 2 67.8277 12.1622 16.0324
139 2 71.691 11.9842 0.229018
140 2 75.5965 12.1109 16.1233
141 2 79.681 11.9907 0.379215
142 2 83.5916 11.8635 0.107494
143 2 87.3427 11.9448 16.1184
144 2 91.4782 11.9115 15.8925
145 2 95.3059 11.8749 0.0687181
146 2 99.3832 11.7335 0.223488
147 2 103.232 11.6962 16.067
148 2 107.082 11.8887 16.2567
149 2 110.921 11.6999 15.9625
150 2 114.918 11.5531 15.9989
151 2 118.774 11.5939 0.152619
152 2 122.842 11.5159 0.192624
153 2 126.362 11.6353 15.9474
154 2 130.444 11.2162 0.108123
155 2 134.255 11.2621 15.7641
156 2 138.361 11.2886 15.9026
157 2 142.285 11.2093 0.225228
158 2 146.095 11.1898 0.22955
159 2 150.133 11.0066 16.0839
160 2 154.086 11.2254 0.0650348
161 2 157.992 15.0772 0.0549982
162 2 3.49997 15.1898 15.934
163 2 7.77672 15.0732 16.0227
164 2 11.7686 15.147 0.0607851
165 2 15.7493 15.2753 -0.154564
166 2 19.7254 15.1184 15.8844
167 2 23.8386 15.4533 0.04736
168 2 27.8218 15.2748 15.9292
169 2 31.8183 15.6585 0.0780479
170 2 35.6159 15.3811 0.254262
171 2 39.4779 15.7745 15.8351
172 2 43.7424 15.594 0.0383017
173 2 47.6626 15.7331 -0.00342775
174 2 51.5534 15.6574 0.127583
175 2 55.6067 15.8615 15.8937
176 2 59.811 15.9198 15.8515
177 2 63.6428 15.8634 16.069
178 2 67.7987 15.9598 15.9215
179 2 71.7725 15.9106 15.8098
180 2 75.6295 16.0464 15.9668
181 2 79.5069 16.0798 15.9755
182 2 83.5709 16.0824 15.9565
183 2 87.2889 15.8969 0.168094
184 2 91.3375 15.9246 16.0933
185 2 95.3444 15.902 0.195135
186 2 99.1665 15.86 15.9287
187 2 103.467 15.7658 0.090565
188 2 107.212 15.8549 16.1221
189 2 111.071 15.6926 15.976
190 2 114.894 15.6593 16.1204
191 2 118.908 15.7185 15.9638
192 2 122.711 15.5584 16.0016
193 2 126.668 15.3519 -0.0447551
194 2 130.693 15.4807 0.0595345
195 2 134.272 15.066 15.9352
196 2 138.274 15.2705 15.8311
197 2 142.264 15.1798 0.319048
198 2 146.428 15.1109 0.139024
199 2 150.243 15.1922 -0.0149183
200 2 154.364 15.1595 0.100237
201 2 157.907 19.1319 15.8873
202 2 3.59487 18.9678 15.9366
203 2 7.75164 18.958 15.776
204 2 11.6723 19.2389 15.8059
205 2 15.6136 19.0268 15.9199
206 2 19.9222 19.214 15.9795
207 2 23.8661 19.1087 0.0914795
208 2 27.5184 19.3883 0.439702
209 2 31.686 19.3927 15.9076
210 2 35.8331 19.4595 0.363939
211 2 39.6885 19.5274 0.127327
212 2 43.5871 19.5975 15.8932
213 2 47.6455 19.7639 0.268137
214 2 51.7017 19.4442 16.0625
215 2 55.6879 19.8815 15.8356
216 2 59.7378 19.693 15.7998
217 2 63.6925 19.807 15.874
218 2 67.7402 19.9444 15.9086
219 2 71.5938 19.8809 15.971
220 2 75.733 19.9862 15.8369
221 2 79.5744 20.0003 15.9385
222 2 83.7096 19.9298 16.0712
223 2 87.647 19.9523 15.9921
224 2 91.6428 20.0176 16.0071
225 2 95.5492 20.0506 0.246809
226 2 99.121 20.0379 0.167306
227 2 103.078 19.7807 15.7403
228 2 107.265 19.8836 15.8538
229 2 111.044 19.7289 0.149021
230 2 115.069 19.5806 16.029
231 2 119.06 19.6872 0.227386
232 2 122.901 19.4916 16.0308
233 2 126.733 19.4065 0.278057
234 2 130.574 19.2867 16.0704
235 2 134.497 19.2856 -0.0240464
236 2 138.512 19.3246 0.0875627
237 2 142.419 19.2056 16.0994
238 2 146.408 19.1375 0.201948
239 2 150.172 19.293 0.0889879
240 2 154.05 19.2079 15.7918
241 2 158.13 23.1992 0.00689323
242 2 3.74388 23.0354 15.9442
243 2 7.70091 23.1072 0.0924277
244 2 11.6953 22.9924 -0.12585
245 2 15.5557 23.0962 15.9598
246 2 19.8797 23.0797 0.166287
247 2 23.6847 23.1505 15.9994
248 2 27.5351 23.3442 0.114721
249 2 31.5219 23.3372 15.7698
250 2 35.682 23.3552 0.115323
251 2 39.626 23.2465 -0.100462
252 2 43.6972 23.501 15.8671
253 2 47.6779 23.7084 16.0091
254 2 51.557 23.4702 0.0768297
255 2 55.6405 23.7192 15.6852
256 2 59.8147 23.8455 15.9203
257 2 63.6071 23.7659 0.0859874
258 2 67.6738 23.6501 0.16661
259 2 71.8746 23.7019 15.8764
260 2 75.8102 23.8612 0.105167
261 2 79.7601 23.8625 16.1449
262 2 83.6482 23.8263 16.0158
263 2 87.5988 23.7562 15.8614
264 2 91.5665 23.8222 16.1356
265 2 95.5857 24.155 15.8791
266 2 99.4654 24.0311 15.7527
267 2 103.134 23.8508 16.1344
268 2 106.967 23.6163 15.914
269 2 111.094 23.723 15.9576
270 2 115.233 23.7693 15.885
271 2 118.955 23.4893 0.215546
272 2 122.769 23.4394 0.1718
273 2 126.817 23.4292 0.182824
274 2 130.587 23.5232 0.278008
275 2 134.6 23.3487 0.288393
276 2 138.447 23.2532 0.255024
277 2 142.348 23.1661 15.7695
278 2 146.401 23.2186 0.150178
279 2 150.275 23.0506 16.0088
280 2 154.272 23.1544 -0.162747
281 2 158.062 26.9831 -0.0676547
282 2 3.767 26.9388 0.0886634
283 2 7.71267 27.051 15.8247
284 2 11.6062 26.8024 0.210926
285 2 15.5911 27.0286 0.102315
286 2 19.6262 27.0352 15.8743
287 2 23.4848 27.0449 -0.0601068
288 2 27.6249 27.1567 -0.0147211
289 2 31.5674 27.1761 15.7187
290 2 35.6112 27.3341 0.0718583
291 2 39.5321 27.2339 15.7931
292 2 43.7427 27.3619 15.6494
293 2 47.4949 27.4828 15.8827
294 2 51.5908 27.5785 16.0839
295 2 55.621 27.5149 15.929
296 2 59.602 27.6087 0.222033
297 2 63.6889 27.5408 0.150324
298 2 67.7592 27.6545 0.155017
299 2 71.5157 27.7497 0.0988916
300 2 75.5448 27.8387 15.7447
301 2 79.5478 27.6873 15.8634
302 2 83.6693 27.8041 15.832
303 2 87.6845 27.7319 16.062
304 2 91.5298 27.9635 15.9763
305 2 95.4969 28.2422 15.8342
306 2 99.671 27.8372 15.9106
307 2 103.464 27.8096 15.84
308 2 107.399 27.7412 0.0459382
309 2 111.123 27.5602 0.236535
310 2 115.026 27.6629 0.179669
311 2 118.874 27.581 15.9694
312 2 122.789 27.4138 0.0058373
313 2 126.713 27.5119 0.239045
314 2 130.686 27.5117 15.7562
315 2 134.609 27.4033 15.901
316 2 138.525 27.2887 0.254975
317 2 142.599 27.4383 15.8157
318 2 146.37 27.1393 0.0576235
319 2 150.366 27.1359 0.266233
320 2 154.273 27.1419 0.0402277
321 2 158.202 31.2161 0.227744
322 2 3.85866 31.0647 15.9558
323 2 7.77932 30.97 0.232379
324 2 11.8269 30.8343 16.0216
325 2 15.5463 31.0912 0.201134
326 2 19.4966 30.8893 0.141019
327 2 23.5635 30.9204 0.00661539
328 2 27.711 31.2836 0.00633907
329 2 31.5584 31.0255 0.202988
330 2 35.6628 31.1449 15.8976
331 2 39.65 31.1008 15.7563
332 2 43.5795 31.1589 15.8531
333 2 47.5822 31.422 15.8959
334 2 51.6106 31.3656 0.0887951
335 2 55.6267 31.4367 0.268179
336 2 59.669 31.6093 15.7325
337 2 63.5669 31.4291 15.8936
338 2 67.6206 31.5258 15.8608
339 2 71.5641 31.3953 0.171993
340 2 75.5328 31.6045 0.165336
341 2 79.3836 31.6349 15.8564
342 2 83.5884 31.6934 0.113135
343 2 87.4429 31.7172 0.430577
344 2 91.5343 31.9033 0.175028
345 2 95.7308 32.0488 16.0829
346 2 99.4696 31.8464 16.0628
347 2 103.239 31.7729 16.0668
348 2 107.253 31.7042 15.7651
349 2 111.415 31.6794 0.20991
350 2 115.393 31.6983 15.8609
351 2 119.161 31.5575 15.9976
352 2 122.937 31.4705 15.9741
353 2 126.936 31.2816 16.0291
354 2 130.96 31.2672 16.0514
355 2 134.729 31.3358 15.9995
356 2 138.752 31.4004 0.371321
357 2 142.543 31.1788 0.0906437
358 2 146.412 31.2831 16.1061
359 2 150.317 31.0324 0.202929
360 2 154.375 31.1668 0.138431
361 2 158.147 35.1214 0.073882
362 2 3.74852 35.1822 0.262797
363 2 7.6816 34.8357 0.192946
364 2 11.7033 35.0185 0.216774
365 2 15.5429 34.7634 0.178011
366 2 19.5323 34.7184 0.0683382
367 2 23.3191 34.831 -0.14819
368 2 27.5584 35.1164 -0.0396793
369 2 31.4322 35.1807 0.129255
370 2 35.4024 35.1233 -0.0916836
371 2 39.4628 35.1645 15.6926
372 2 43.5193 35.0986 -0.0241034
373 2 47.4564 35.3411 15.9066
374 2 51.3973 35.3546 0.411265
375 2 55.5086 35.5571 15.8827
376 2 59.5983 35.4686 -0.0778015
377 2 63.6674 35.4441 15.9801
378 2 67.3977 35.4425 0.329019
379 2 71.6637 35.557 0.238284
380 2 75.498 35.3577 0.487571
381 2 79.4725 35.6227 15.9812
382 2 83.4106 35.5535 0.198109
383 2 87.6402 35.7879 15.8539
384 2 91.5376 35.887 -0.0598374
385 2 95.2982 35.8559 15.7171
386 2 99.5854 35.9206 16.0485
387 2 103.45 35.8383 15.8686
388 2 107.164 35.7004 15.8098
389 2 111.4 35.6512 0.0933273
390 2 115.213 35.7595 16.025
391 2 119.122 35.6859 15.9363
392 2 123.219 35.6144 0.301544
393 2 126.978 35.5457 0.32928
394 2 130.846 35.36 0.0734014
395 2 134.64 35.3627 0.249911
396 2 138.725 35.5548 16.1428
397 2 142.575 35.3453 -0.0165224
398 2 146.48 35.3243 15.8267
399 2 150.322 35.1347 0.0793789
400 2 154.121 35.3925 0.235224
401 2 158.151 39.089 0.144041
402 2 3.76217 38.9778 0.0444336
403 2 7.84273 38.9052 0.0792939
404 2 11.7265 38.7482 15.8212
405 2 15.6198 38.8048 0.277153
406 2 19.4237 38.6119 0.0349843
407 2 23.587 38.8936 15.8763
408 2 27.5474 39.035 -0.128043
409 2 31.4083 39.0369 15.7381
410 2 35.4083 38.9301 0.14711
411 2 39.339 39.0009 0.199691
412 2 43.418 39.0798 15.7212
413 2 47.4626 39.3489 0.0342685
414 2 51.5993 39.1544 15.9497
415 2 55.4799 39.5208 0.304115
416 2 59.6453 39.3035 15.8916
417 2 63.5569 39.3946 0.0900568
418 2 67.4654 39.4023 0.110693
419 2 71.3256 39.403 16.1041
420 2 75.4499 39.6807 0.269586
421 2 79.5253 39.6017 15.9357
422 2 83.4313 39.5922 16.1357
423 2 87.5072 39.5292 0.0488805
424 2 91.3648 39.6032 15.9885
425 2 95.4824 39.7906 -0.0168807
426 2 99.5111 39.7687 -0.114638
427 2 103.295 39.7806 16.01
428 2 107.352 39.7307 0.457765
429 2 111.466 39.8122 16.0644
430 2 115.196 39.6317 0.162155
431 2 119.18 39.4642 0.0907658
432 2 122.951 39.599 16.1014
433 2 126.776 39.4461 16.1042
434 2 130.823 39.5052 15.902
435 2 134.705 39.4183 0.326648
436 2 138.696 39.4336 0.390464
437 2 142.664 39.3673 0.0666191
438 2 146.366 39.1587 15.9155
439 2 150.482 39.2274 16.0154
440 2 154.394 39.2767 15.998
441 2 158.3 43.1494 0.115019
442 2 3.92186 43.2042 0.272047
443 2 7.83836 42.8357 0.275095
444 2 11.6409 42.8139 0.244138
445 2 15.6081 42.9492 0.356254
446 2 19.6375 42.8504 0.258595
447 2 23.6333 42.777 0.323461
448 2 27.4886 42.8505 0.153062
449 2 31.3582 42.8396 0.00268199
450 2 35.5413 43.0079 0.23811
451 2 39.3852 43.141 0.0221554
452 2 43.3786 42.9068 0.0601706
453 2 47.3718 43.1703 0.185458
454 2 51.4456 43.2361 -0.00276811
455 2 55.3627 43.206 15.8117
456 2 59.4397 43.2907 15.9703
457 2 63.5192 43.317 -0.0567572
458 2 67.3305 43.3973 15.9245
459 2 71.2279 43.36 0.0651559
460 2 75.3602 43.5378 15.9269
461 2 79.4109 43.4438 15.8717
462 2 83.458 43.6326 0.164543
463 2 87.5022 43.4734 0.163284
464 2 91.5673 43.5569 0.0690141
465 2 95.3862 43.6625 16.0619
466 2 99.5332 43.4364 16.0757
467 2 103.454 43.7757 15.9022
468 2 107.355 43.7146 15.9542
469 2 111.24 43.6378 16.0469
470 2 115.396 43.762 15.8413
471 2 119.027 43.6171 15.8941
472 2 122.97 43.6793 15.9125
473 2 127.067 43.6222 15.9751
474 2 130.861 43.6442 0.171893
475 2 134.877 43.5947 0.0200153
476 2 138.86 43.2616 0.120163
477 2 142.65 43.2535 15.9215
478 2 146.52 43.2279 15.8932
479 2 150.59 43.2204 15.9199
480 2 154.389 43.2236 -0.00358673
481 2 158.288 46.9872 0.141813
482 2 3.73521 47.2719 0.204732
483 2 7.81479 46.8837 0.244999
484 2 11.6902 46.8273 15.8231
485 2 15.7177 46.7293 0.294216
486 2 19.4796 46.8391 15.9138
487 2 23.4077 46.6772 0.0513908
488 2 27.3974 46.798 0.333517
489 2 31.6619 46.5826 0.245895
490 2 35.3151 46.8491 0.220803
491 2 39.2976 47.0502 15.7773
492 2 43.3476 46.8794 0.236647
493 2 47.4335 46.9926 0.19245
494 2 51.3085 47.1973 0.264448
495 2 55.2973 47.2972 0.13854
496 2 59.3512 46.9757 15.9309
497 2 63.4231 47.2008 15.9144
498 2 67.3287 47.4852 -0.0157797
499 2 71.3717 47.3566 0.327111
500 2 75.2861 47.3349 0.0728079
501 2 79.521 47.4688 15.8017
502 2 83.4057 47.4564 0.25922
503 2 87.3865 47.4746 0.212432
504 2 91.416 47.3218 -0.0308483
505 2 95.2689 47.6459 15.9034
506 2 99.348 47.6608 15.9772
507 2 103.256 47.764 0.0946643
508 2 107.41 47.5989 0.322134
509 2 111.292 47.5806 16.1735
510 2 115.257 47.7944 16.2054
511 2 119.183 47.6553 0.0429685
512 2 122.979 47.6757 15.7257
513 2 127.184 47.6237 0.21202
514 2 131.083 47.5033 15.9985
515 2 134.834 47.449 0.0148395
516 2 138.795 47.3396 0.239336
517 2 142.68 47.4208 0.276785
518 2 146.74 47.2006 0.0546915
519 2 150.531 47.1164 15.9355
520 2 154.23 47.3181 16.0535
521 2 158.361 51.05 0.185842
522 2 3.94125 51.1206 16.086
523 2 7.95886 51.0082 0.111372
524 2 11.6937 50.7952 15.9497
525 2 15.7332 50.8572 0.244761
526 2 19.4066 50.7549 0.296669
527 2 23.4786 50.7892 15.8314
528 2 27.3615 50.6778 0.114541
529 2 31.3867 50.6805 0.123609
530 2 35.3648 50.6016 0.22723
531 2 39.3182 50.9385 0.031938
532 2 43.1187 50.7768 15.8232
533 2 47.2064 51.0198 15.9103
534 2 51.3396 50.9546 15.9504
535 2 55.1968 50.9696 0.142171
536 2 59.287 51.1143 15.8125
537 2 63.3029 51.0941 15.8899
538 2 67.2705 51.2163 0.20927
539 2 71.4979 51.3171 15.9518
540 2 75.3438 51.203 -0.000853817
541 2 79.2899 51.3904 0.0635155
542 2 83.3332 51.3556 0.192179
543 2 87.2487 51.4032 0.172413
544 2 91.4003 51.4516 0.176584
545 2 95.3002 51.5238 15.7456
546 2 99.0648 51.4157 15.828
547 2 103.382 51.5752 15.8315
548 2 107.403 51.4932 0.183971
549 2 111.314 51.5064 0.323717
550 2 115.087 51.5316 0.173055
551 2 119.068 51.6184 16.1049
552 2 123.352 51.5731 0.221592
553 2 127.088 51.6791 15.9521
554 2 130.851 51.4641 -0.0151605
555 2 134.949 51.4467 15.8571
556 2 138.724 51.3399 0.0409153
557 2 142.798 51.371 15.9457
558 2 146.637 51.2922 0.228305
559 2 150.311 51.2251 0.00239479
560 2 154.317 51.0532 15.9765
561 2 -0.0345509 54.9511 0.19174
562 2 4.09578 55.0058 0.338069
563 2 7.74891 55.0292 -0.0568576
564 2 11.7673 54.7934 0.166563
565 2 15.6722 54.988 15.8979
566 2 19.5949 54.8949 0.108173
567 2 23.4979 54.9359 0.114164
568 2 27.5484 54.5646 15.8436
569 2 31.3466 54.8393 -0.0628601
570 2 35.3351 54.6725 0.12023
571 2 39.2322 54.6693 -0.056014
572 2 43.0951 54.7935 0.033615
573 2 47.1402 54.7403 0.350039
574 2 51.1982 54.8099 0.229803
575 2 55.0179 55.015 16.1376
576 2 59.1228 54.7356 15.8632
577 2 63.2666 54.9389 15.8645
578 2 67.2263 55.1487 0.0332475
579 2 71.2795 55.1729 0.0835365
580 2 75.1071 55.2831 15.8855
581 2 79.3022 55.2807 15.9587
582 2 83.3506 55.1972 0.35518
583 2 87.3743 55.4241 15.8408
584 2 91.3507 55.0726 0.199308
585 2 95.2132 55.4342 0.0890749
586 2 99.1635 55.4242 15.8109
587 2 103.331 55.4849 0.284009
588 2 107.145 55.4184 0.12614
589 2 111.228 55.4716 15.9761
590 2 115.082 55.5173 0.0764955
591 2 119.172 55.4149 16.041
592 2 123.172 55.4859 0.0258748
593 2 126.948 55.4487 0.0529136
594 2 131.145 55.7098 15.8696
595 2 135.002 55.4015 15.6859
596 2 139.011 55.4516 16.1346
597 2 142.776 55.3608 0.156033
598 2 146.583 55.4115 0.0835742
599 2 150.493 55.1508 -0.137367
600 2 154.506 55.0306 0.11131
601 2 158.559 59.1461 0.301771
602 2 4.07363 59.0233 16.075
603 2 8.08072 58.8169 0.303719
604 2 11.8866 58.8823 15.9582
605 2 15.6834 58.8906 15.9788
606 2 19.5793 58.7473 0.149689
607 2 23.6714 58.7111 0.226814
608 2 27.5339 58.8552 0.171845
609 2 31.4481 58.7255 0.415535
610 2 35.5021 58.5286 15.9354
611 2 39.0691 58.5581 -0.0670372
612 2 43.1448 58.5926 0.157517
613 2 47.3097 58.7887 0.221989
614 2 51.1981 58.9633 0.195212
615 2 55.1042 58.9287 15.9408
616 2 59.0929 58.8541 15.945
617 2 63.2413 58.6529 15.8487
618 2 66.993 59.0378 15.935
619 2 71.1431 58.9468 15.8825
620 2 75.1228 59.1942 15.8893
621 2 79.0708 59.0952 0.140866
622 2 83.1535 59.0118 0.14546
623 2 87.3622 59.3992 0.19603
624 2 91.2056 59.3551 0.0934607
625 2 95.2129 59.3963 0.107568
626 2 99.3224 59.3496 15.9264
627 2 103.148 59.2124 0.269003
628 2 107.135 59.4355 0.279584
629 2 110.997 59.2799 16.0207
630 2 115.062 59.4574 15.9769
631 2 119.073 59.3739 15.9061
632 2 123.102 59.4033 15.8135
633 2 127.102 59.5785 0.00107165
634 2 131.033 59.609 15.8195
635 2 134.906 59.359 16.0212
636 2 138.799 59.3777 15.804
637 2 142.731 59.1363 0.129721
638 2 146.661 59.2382 0.309631
639 2 150.455 59.3494 -0.0313767
640 2 154.647 59.0135 -0.00847077
641 2 0.140515 62.8029 0.275142
642 2 4.25704 62.9249 0.0956908
643 2 8.13358 62.881 15.9676
644 2 11.8387 62.8866 15.7953
645 2 15.7899 63.0231 0.12634
646 2 19.6553 62.8258 0.0777222
647 2 23.5297 62.6517 0.0714806
648 2 27.3783 62.7253 0.191165
649 2 31.3402 62.6552 0.190842
650 2 35.1585 62.6694 0.0333069
651 2 38.9474 62.6684 0.221314
652 2 43.1033 62.5306 15.8092
653 2 47.0924 62.6559 15.9734
654 2 51.1935 62.6883 0.132221
655 2 55.0726 62.739 0.0703271
656 2 59.0119 62.7951 15.9888
657 2 63.222 62.7797 0.149712
658 2 67.1682 62.9264 16.0544
659 2 71.1631 62.8667 15.8027
660 2 75.2171 62.9096 0.141848
661 2 79.0996 62.9386 15.9314
662 2 83.2517 63.1881 0.0738452
663 2 87.0628 63.0851 15.9953
664 2 91.1272 63.3553 15.9759
665 2 94.8337 63.1131 16.1453
666 2 99.1943 63.2456 15.9861
667 2 103.243 63.2568 0.310883
668 2 107.103 63.2767 16.0673
669 2 111.279 63.4402 15.9404
670 2 115.12 63.2329 0.0294402
671 2 119.209 63.5823 0.167417
672 2 123.016 63.5927 0.126309
673 2 127.125 63.7148 15.8738
674 2 130.965 63.3843 0.0716942
675 2 134.919 63.3991 15.8941
676 2 138.579 63.2419 -0.0562149
677 2 142.708 63.2773 15.8841
678 2 146.627 63.2237 0.0928958
679 2 150.803 63.1918 0.0847416
680 2 154.672 62.9275 0.0451114
681 2 0.154692 66.8921 0.174404
682 2 3.99748 66.9399 0.121629
683 2 7.9391 66.8227 16.0116
684 2 11.8616 66.8311 15.9978
685 2 15.8061 66.8382 0.26481
686 2 19.7352 67.0102 0.494265
687 2 23.5307 66.7373 0.288781
688 2 27.57 66.8637 0.223676
689 2 31.4129 66.7319 0.35814
690 2 35.1341 66.5658 16.0572
691 2 39.3048 66.7289 16.2424
692 2 43.0826 66.5566 15.7852
693 2 47.0683 66.4969 16.2874
694 2 50.8868 66.5728 0.0379181
695 2 54.8924 66.4776 15.7845
696 2 59.036 66.5289 15.9636
697 2 63.0037 66.7977 0.263501
698 2 66.931 66.6381 15.9016
699 2 71.035 66.8517 0.173154
700 2 75.0471 66.9983 0.185713
701 2 79.0553 66.8297 15.9118
702 2 83.0858 67.07 15.9638
703 2 87.0354 67.1663 15.828
704 2 90.9253 67.1199 -0.0924711
705 2 94.9104 67.1038 16.0706
706 2 98.8556 67.4267 15.8736
707 2 103.007 67.3033 0.0525943
708 2 107.031 67.215 0.280585
709 2 111.106 67.2734 15.9053
710 2 114.863 67.5011 15.9061
711 2 119.084 67.3539 0.202327
712 2 123.092 67.7541 15.8868
713 2 126.988 67.7194 0.0738971
714 2 130.895 67.4372 0.262165
715 2 134.829 67.3143 15.9014
716 2 138.892 67.1332 0.0165317
717 2 142.92 67.1628 16.0591
718 2 146.894 67.2354 15.8158
719 2 150.584 67.0011 0.0356186
720 2 154.539 67.0902 0.0520331
721 2 158.509 71.1908 15.7712
722 2 3.86564 70.9582 0.23386
723 2 7.87692 70.9252 0.104094
724 2 11.8748 70.8883 0.189709
725 2 15.7776 70.912 16.0178
726 2 19.551 70.7697 0.247307
727 2 23.6335 70.7683 0.188234
728 2 27.596 70.7912 0.0963029
729 2 31.396 70.6825 0.0687352
730 2 35.1399 70.6565 0.0615182
731 2 39.0074 70.6331 0.275282
732 2 43.0553 70.5306 0.0328306
733 2 47.1113 70.5234 15.9157
734 2 51.1133 70.6257 0.136128
735 2 55.1085 70.4917 15.7213
736 2 58.9816 70.5676 15.8972
737 2 62.947 70.6063 16.121
738 2 66.9674 70.7202 15.7867
739 2 70.8632 70.5475 0.314754
740 2 74.9052 71.1046 15.8074
741 2 79.0196 70.7609 0.230735
742 2 82.6716 70.9855 0.0431311
743 2 87.0623 71.1325 15.9128
744 2 90.6917 70.9856 15.9184
745 2 95.0278 70.9637 15.888
746 2 98.9803 71.2524 16.0287
747 2 103.049 71.2703 16.0799
748 2 106.994 71.0689 0.263199
749 2 111.114 71.1865 0.14028
750 2 115.012 71.408 -0.0239072
751 2 119.095 71.3481 0.309293
752 2 123.01 71.6562 15.9029
753 2 127.122 71.4551 0.0547865
754 2 131.092 71.2569 0.126405
755 2 135.077 71.3381 0.091678
756 2 138.935 71.1586 16.0132
757 2 142.891 71.1758 15.7733
758 2 146.762 71.157 15.7796
759 2 150.518 71.1039 -0.0481624
760 2 154.68 71.2455 -0.0262682
761 2 0.016918 75.1435 15.9101
762 2 4.16861 74.912 15.8069
763 2 7.90319 74.9064 0.126592
764 2 11.7775 74.997 0.126285
765 2 15.7219 74.92 15.871
766 2 19.8608 75.0231 0.170263
767 2 23.5853 74.6787 0.081783
768 2 27.2623 74.749 0.164841
769 2 31.2739 74.7151 0.247902
770 2 35.1763 74.6895 0.124986
771 2 39.2305 74.6585 0.0674235
772 2 43.3682 74.3744 0.0782419
773 2 47.1509 74.4075 0.0380457
774 2 51.0574 74.5448 15.7589
775 2 54.7482 74.4415 15.9397
776 2 58.8602 74.6296 15.7407
777 2 62.7367 74.4323 16.0472
778 2 66.75 74.444 15.7957
779 2 70.7194 74.645 0.383446
780 2 74.7399 74.7194 0.1806
781 2 79.0142 74.723 0.182086
782 2 82.9571 74.9437 16.0609
783 2 86.8916 75.0336 15.9469
784 2 90.7049 74.8516 0.00387765
785 2 94.7209 74.7971 15.8597
786 2 98.8117 75.1774 15.8717
787 2 102.836 75.0736 15.869
788 2 106.949 75.1978 0.321992
789 2 111.093 75.1837 0.260851
790 2 114.999 75.1348 0.313239
791 2 118.76 75.3147 0.159676
792 2 122.948 75.363 0.107028
793 2 126.859 75.2077 15.9615
794 2 130.935 75.3126 15.8472
795 2 134.937 75.5212 0.0977731
796 2 138.93 75.3021 15.8438
797 2 142.647 75.2278 15.9099
798 2 146.72 75.1184 15.9326
799 2 150.698 75.1492 15.7721
800 2 154.465 75.0807 15.672
801 2 -0.0495762 78.9199 0.182802
802 2 3.85575 79.005 0.177836
803 2 7.90779 78.8462 -0.0440073
804 2 11.7778 78.8565 15.7913
805 2 15.8683 78.9381 15.8893
806 2 19.7325 78.8182 0.101892
807 2 23.4696 78.8116 0.0689596
808 2 27.5249 78.6629 0.213332
809 2 31.4247 78.7596 15.8855
810 2 35.2158 78.6935 0.102673
811 2 39.4071 78.6623 0.0664922
812 2 43.1885 78.5019 0.0624711
813 2 47.1909 78.4634 0.0670235
814 2 50.9467 78.61 -0.0609273
815 2 55.0229 78.5769 0.0950081
816 2 58.9364 78.4174 0.0864848
817 2 62.8492 78.7286 0.204572
818 2 66.5428 78.3068 0.225296
819 2 70.7504 78.5172 16.0675
820 2 74.7822 78.5062 0.38018
821 2 78.8385 78.7847 0.197178
822 2 82.7883 78.9215 15.9082
823 2 86.852 78.8805 16.0008
824 2 90.7415 79.0599 15.9362
825 2 94.8921 78.9462 0.139524
826 2 98.844 79.0795 0.282386
827 2 102.815 78.8243 15.9679
828 2 106.76 78.8441 0.210678
829 2 110.802 79.0824 15.9274
830 2 114.91 79.1162 0.147085
831 2 118.884 79.0433 0.134311
832 2 122.848 79.241 16.1397
833 2 126.781 79.3282 0.110087
834 2 131.079 79.3613 16.1512
835 2 134.829 79.2995 0.265155
836 2 138.877 79.2492 0.388187
837 2 142.787 79.493 15.6833
838 2 146.78 79.1792 15.7158
839 2 150.674 79.217 15.8267
840 2 154.633 78.907 0.184116
841 2 0.139373 82.9707 0.0903606
842 2 3.93769 83.0141 15.9055
843 2 7.85547 83.084 -0.0390052
844 2 11.7597 82.8594 15.8524
845 2 15.7887 82.8793 15.8743
846 2 19.7013 82.918 0.0164016
847 2 23.5435 82.7583 0.275666
848 2 27.3839 82.6443 0.201752
849 2 31.4323 82.6649 16.1051
850 2 35.5569 82.5698 0.114252
851 2 39.4653 82.4931 0.0942339
852 2 43.2979 82.4169 0.0453364
853 2 47.1456 82.558 0.0655651
854 2 51.1611 82.688 0.194129
855 2 55.0268 82.5489 -0.101632
856 2 59.0602 82.4633 15.957
857 2 62.764 82.4742 16.0589
858 2 66.8301 82.2793 15.9574
859 2 70.8726 82.4174 0.109702
860 2 74.8284 82.3447 0.045113
861 2 78.8003 82.6221 0.121394
862 2 82.8034 82.823 16.0116
863 2 86.6704 82.8392 16.065
864 2 90.6958 82.7095 15.9112
865 2 94.8108 82.9426 15.8979
866 2 98.6114 82.8358 16.0689
867 2 102.81 82.8446 16.1064
868 2 106.915 82.9497 0.411929
869 2 110.87 82.7653 15.9663
870 2 114.774 82.8833 0.334847
871 2 118.768 83.2468 0.093469
872 2 122.84 83.0885 15.9882
873 2 126.888 83.1677 15.8563
874 2 130.932 83.093 16.0976
875 2 134.761 83.2225 0.151961
876 2 138.834 83.2393 0.322771
877 2 142.926 83.0535 0.215324
878 2 146.825 83.0921 15.8857
879 2 150.845 83.0462 15.9167
880 2 154.59 83.0918 15.871
881 2 0.0543366 87.1862 0.198516
882 2 4.04742 86.9587 0.136159
883 2 8.09433 86.7965 0.163953
884 2 11.8305 86.9463 15.8595
885 2 15.875 86.8479 15.8755
886 2 19.8912 86.8324 0.340322
887 2 23.737 86.6861 0.32082
888 2 27.7486 86.7041 -0.0405651
889 2 31.6018 86.6477 16.014
890 2 35.5241 86.4866 0.160169
891 2 39.2727 86.5626 0.238441
892 2 43.2859 86.6224 0.00258327
893 2 47.2199 86.4827 0.0725955
894 2 51.2575 86.5665 0.137928
895 2 54.9924 86.5294 0.0941864
896 2 58.9523 86.51 0.135891
897 2 62.7974 86.3923 15.8622
898 2 66.6516 86.4178 15.9503
899 2 70.7778 86.2224 0.137243
900 2 74.8707 86.3017 16.0152
901 2 78.7219 86.4985 -0.0187925
902 2 82.9228 86.6628 16.0669
903 2 86.6359 86.6901 0.319633
904 2 90.815 86.6102 16.0701
905 2 94.9739 86.6708 15.938
906 2 98.78 86.9197 16.0489
907 2 102.896 86.7246 16.1113
908 2 106.719 86.9312 15.9279
909 2 110.778 86.6904 0.209951
910 2 114.773 87.1397 15.9824
911 2 118.729 86.976 15.8981
912 2 122.719 87.1082 15.8417
913 2 126.792 86.8539 15.9042
914 2 130.894 86.9536 15.9208
915 2 134.841 87.0246 0.209811
916 2 139.051 87.1389 0.166879
917 2 142.964 87.0137 15.759
918 2 146.782 87.0756 15.7351
919 2 150.769 87.131 15.8523
920 2 154.677 87.2041 0.0306311
921 2 0.415675 91.0213 16.159
922 2 4.06171 91.0336 16.0114
923 2 8.01154 90.7907 0.212592
924 2 12.0548 90.8065 16.0883
925 2 16.0246 90.7769 15.8277
926 2 19.9386 90.7929 0.0863488
927 2 23.6848 90.79 15.8194
928 2 27.7153 90.6474 0.0153253
929 2 31.6571 90.6324 16.0075
930 2 35.5373 90.719 0.0368868
931 2 39.2764 90.6166 -5.18061e-05
932 2 43.5543 90.7561 -0.121441
933 2 47.3065 90.5421 0.0627258
934 2 51.2928 90.6341 15.9226
935 2 55.0974 90.4282 0.139028
936 2 58.9437 90.1507 16.0227
937 2 62.8733 90.3873 0.271335
938 2 66.7202 90.5193 0.342986
939 2 70.7321 90.2989 0.177028
940 2 74.8131 90.5339 15.9305
941 2 78.5397 90.4499 16.0684
942 2 82.7021 90.5326 15.9035
943 2 86.8337 90.6881 15.7295
944 2 90.657 90.8064 0.328628
945 2 94.9316 90.5753 15.7864
946 2 98.8404 90.8378 15.9527
947 2 102.741 90.7721 15.9282
948 2 106.769 90.738 16.0373
949 2 110.767 90.7716 16.1034
950 2 114.766 90.8362 15.8984
951 2 118.685 90.9979 0.182781
952 2 122.774 90.8586 0.0896559
953 2 126.75 90.9387 -0.0446378
954 2 130.759 91.0421 16.1441
955 2 134.724 91.0022 0.36022
956 2 138.65 91.0676 16.0457
957 2 142.769 90.9226 15.9667
958 2 146.703 91.0696 0.305496
959 2 150.67 91.1404 15.6785
960 2 154.426 91.122 15.7645
961 2 0.401763 94.811 15.9765
962 2 4.17959 94.9777 16.0223
963 2 8.13354 94.7543 0.170579
964 2 12.0408 94.8659 15.8007
965 2 15.8289 94.9321 16.0224
966 2 20.0007 94.765 15.97
967 2 23.8912 94.6877 15.9757
968 2 27.8038 94.6796 0.141876
969 2 31.693 94.6101 15.813
970 2 35.5573 94.67 0.367704
971 2 39.5076 94.6325 0.164489
972 2 43.5385 94.6918 0.222306
973 2 47.3598 94.7646 16.0519
974 2 51.1466 94.5295 16.0134
975 2 55.2428 94.3845 15.9687
976 2 58.9798 94.3269 0.251059
977 2 63.0496 94.3441 15.973
978 2 66.9279 94.2415 15.8976