ITEM: TIMESTEP
19600
ITEM: NUMBER OF ATOMS
32000
ITEM: BOX BOUNDS xy xz yz pp pp pp
0.0000000000000000e+00 1.5831999999999999e+02 0.0000000000000000e+00
0.0000000000000000e+00 1.5831999999999999e+02 0.0000000000000000e+00
1.6322073152313532e-01 1.5934491268476695e+01 0.0000000000000000e+00
ITEM: ATOMS id type x y z
1 2 158.202 157.624 16.0038
2 2 3.80752 157.926 0.0867369
3 2 7.86778 157.856 15.9082
4 2 11.9781 158.013 15.7507
5 2 15.8629 157.954 15.9813
6 2 19.9664 158.069 16.0319
7 2 23.9976 157.869 0.0562455
8 2 27.8667 158.074 15.8532
9 2 31.8358 158.04 15.681
10 2 35.9444 158.122 15.7134
11 2 39.9187 158.311 0.038296
12 2 43.8264 -0.092729 0.492003
13 2 47.7708 158.426 15.7589
14 2 51.785 0.234409 0.294216
15 2 55.7662 158.318 15.734
16 2 59.9373 0.140821 0.0315123
17 2 63.9288 0.143782 15.9032
18 2 67.7136 0.0824645 -0.0357354
19 2 71.7285 158.296 0.0337533
20 2 75.6082 158.301 0.0174456
21 2 79.3889 0.0453758 15.7894
22 2 83.2625 158.401 15.8827
23 2 87.2584 158.475 15.7767
24 2 91.0754 158.213 0.153916
25 2 95.0226 158.179 15.8957
26 2 99.0279 158.325 16.002
27 2 102.682 158.108 0.274446
28 2 106.919 157.978 15.7522
29 2 110.722 157.961 0.172509
30 2 114.574 157.972 0.189476
31 2 118.541 157.731 16.0171
32 2 122.383 157.753 15.9943
33 2 126.256 157.776 15.9738
34 2 130.534 157.731 16.0539
35 2 134.341 157.946 16.0614
36 2 138.19 157.673 16.0673
37 2 142.034 157.664 0.222898
38 2 146.298 157.717 0.201062
39 2 150.143 157.731 0.161691
40 2 154.088 157.743 0.208098
41 2 157.907 3.32336 0.0262705
42 2 3.88066 3.47992 16.0335
43 2 7.86849 3.57879 0.113137
44 2 11.8158 3.55523 15.7837
45 2 15.7123 3.58981 -0.0632631
46 2 20.0412 3.59454 0.0981328
47 2 23.8402 3.45754 16.0443
48 2 27.854 3.65013 15.7721
49 2 31.8853 3.80609 0.0580532
50 2 35.836 3.89775 0.154282
51 2 39.8508 3.94178 16.0313
52 2 43.8847 3.9514 0.165026
53 2 47.8327 3.96367 15.981
54 2 51.8803 4.1647 0.241958
55 2 55.8063 4.21087 0.188146
56 2 59.9456 4.21419 15.9744
57 2 63.7225 4.06495 15.905
58 2 67.691 4.27669 0.205006
59 2 71.6664 4.0943 0.0799091
60 2 75.5307 4.19777 0.29615
61 2 79.5757 4.09763 -0.0239809
62 2 83.3931 4.24914 16.0343
63 2 87.3045 4.08185 15.9497
64 2 91.0189 3.91356 0.217812
65 2 95.0474 4.03381 15.7834
66 2 98.9779 3.85569 16.0148
67 2 102.99 3.72499 15.9318
68 2 106.85 3.69563 15.8518
69 2 110.917 3.79235 16.1358
70 2 114.795 3.6126 15.9041
71 2 118.746 3.67686 16.1132
72 2 122.547 3.46328 16.0948
73 2 126.474 3.24023 0.124823
74 2 130.418 3.34836 0.0847148
75 2 134.413 3.39917 15.8938
76 2 138.307 3.3854 15.9336
77 2 142.157 3.27919 16.0547
78 2 146.173 3.19552 0.338221
79 2 150.11 3.28935 15.8447
80 2 153.957 3.23621 0.17659
81 2 158.039 7.17421 0.135003
82 2 3.74043 7.21954 0.201395
83 2 7.97426 7.4803 15.8891
84 2 11.6641 7.39263 0.00693626
85 2 15.8782 7.57549 0.180239
86 2 19.7205 7.29139 0.0660878
87 2 23.8081 7.6632 16.0955
88 2 27.6604 7.71646 0.103945
89 2 31.8149 7.73042 16.069
90 2 35.6885 7.78469 16.0993
91 2 39.762 7.89471 0.090119
92 2 43.8786 7.78107 16.0129
93 2 47.9363 7.67997 15.859
94 2 51.6902 7.96374 15.9118
95 2 55.6906 8.04091 -0.0444412
96 2 59.6879 8.23594 0.345203
97 2 63.6898 7.96087 0.0485421
98 2 67.6508 8.07818 15.8779
99 2 71.7079 8.14212 16.0208
100 2 75.6011 8.38341 0.166941
101 2 79.6909 8.09019 0.30399
102 2 83.4748 8.18849 0.398664
103 2 87.5268 8.09928 0.179976
104 2 91.3637 7.84631 15.9595
105 2 95.221 7.86375 15.9141
106 2 99.2066 7.71819 0.160469
107 2 102.926 7.78944 0.135756
108 2 106.876 7.77636 15.8996
109 2 110.871 7.61476 0.140039
110 2 114.699 7.54463 15.9519
111 2 118.899 7.53767 0.136642
112 2 122.747 7.46867 0.139538
113 2 126.458 7.40141 15.8656
114 2 130.462 7.31139 15.992
115 2 134.525 7.47541 0.291447
116 2 138.272 7.27076 0.07917
117 2 142.093 7.29658 -0.00927521
118 2 146.16 7.28865 0.19565
119 2 150.004 7.29577 15.8843
120 2 154.136 7.31546 15.8521
121 2 158.063 11.1361 15.995
122 2 3.7101 11.1341 0.171661
123 2 7.49979 11.2901 15.9072
124 2 11.7632 11.2302 15.9633
125 2 15.9478 11.2914 0.153348
126 2 19.7255 11.4787 0.12673
127 2 23.7777 11.4294 15.8207
128 2 27.6807 11.5311 15.9531
129 2 31.7341 11.5209 15.9458
130 2 35.7942 11.5769 0.233945
131 2 39.8166 11.8207 15.9601
132 2 43.84 11.5836 0.188975
133 2 47.7646 11.7721 0.14832
134 2 51.6216 11.7827 15.7682
135 2 55.9109 11.75 15.9445
136 2 59.7316 11.8796 -0.0642176
137 2 63.9094 11.987 15.7878
138 2 67.7669 11.8409 15.7421
139 2 71.6919 12.1392 0.0263461
140 2 75.8712 12.1445 15.8037
141 2 79.8 12.2269 0.274425
142 2 83.6789 12.0377 0.243992
143 2 87.6918 12.1122 15.9646
144 2 91.524 11.9085 15.8602
145 2 95.1908 11.8646 0.179717
146 2 99.1609 11.8106 0.170068
147 2 102.983 11.8247 15.9569
148 2 107.042 11.5185 15.8103
149 2 110.842 11.6804 16.0457
150 2 114.81 11.7713 15.7714
151 2 118.531 11.6082 0.32075
152 2 122.648 11.6037 0.242669
153 2 126.612 11.5164 16.1741
154 2 130.696 11.342 0.169497
155 2 134.653 11.426 15.9623
156 2 138.444 11.4014 15.7049
157 2 142.152 11.4303 0.142197
158 2 146.136 11.1701 -0.0714833
159 2 150.02 11.2165 15.8204
160 2 154.017 11.2515 0.183339
161 2 158.124 14.9738 0.123746
162 2 3.71377 15.0787 15.7222
163 2 7.75686 15.3296 15.8132
164 2 11.6061 15.2399 0.196466
165 2 15.7486 15.2475 0.210322
166 2 19.6219 15.503 15.9889
167 2 23.7658 15.4319 0.310549
168 2 27.5325 15.4572 15.8977
169 2 31.5807 15.4211 0.310309
170 2 35.88 15.6436 0.132235
171 2 39.6944 15.5296 15.8755
172 2 43.7959 15.6735 -0.000572631
173 2 47.9415 15.828 0.232213
174 2 51.8609 15.8085 0.221886
175 2 55.7814 15.8975 15.7444
176 2 59.94 15.9415 15.9219
177 2 63.7311 15.8816 15.7146
178 2 67.7088 15.9056 15.8121
179 2 71.6636 15.8911 15.9767
180 2 75.7275 15.9513 15.7743
181 2 79.8687 16.0834 16.0408
182 2 83.7649 16.2202 16.1065
183 2 87.7468 16.2226 0.122294
184 2 91.5503 16.0446 15.9297
185 2 95.4631 16.1098 -0.00846114
186 2 99.3241 15.9068 16.0556
187 2 102.989 15.6959 0.392012
188 2 106.951 15.6085 15.9193
189 2 111.195 15.7597 15.9865
190 2 114.742 15.6214 15.9877
191 2 118.854 15.4717 16.0969
192 2 122.775 15.569 15.9018
193 2 126.498 15.4819 0.312825
194 2 130.631 15.4816 0.199802
195 2 134.659 15.2988 15.7655
196 2 138.542 15.2453 15.8715
197 2 142.437 15.1867 0.153253
198 2 145.969 15.2874 0.295744
199 2 149.858 15.1727 0.195856
200 2 153.952 15.1496 0.0428633
201 2 158.201 19.0105 15.8247
202 2 3.65813 18.8254 15.878
203 2 7.60996 18.9682 16.1003
204 2 11.6602 19.1137 15.8597
205 2 15.3774 19.1744 15.9025
206 2 19.5764 19.2737 15.8433
207 2 23.7041 19.4573 0.282149
208 2 27.7442 19.5525 0.170072
209 2 31.8266 19.4985 16.034
210 2 35.8342 19.413 0.085678
211 2 39.7149 19.4531 -0.00683014
212 2 43.7031 19.5569 15.8299
213 2 47.892 19.5725 -0.00111329
214 2 51.6981 19.9008 15.9656
215 2 55.7106 19.6582 15.8924
216 2 59.8698 19.7316 16.0626
217 2 63.7571 19.8428 15.9667
218 2 67.7222 19.9129 15.859
219 2 71.6299 19.8904 15.8756
220 2 75.6436 19.9712 15.9811
221 2 79.5123 20.0246 16.025
222 2 83.5974 19.8329 16.116
223 2 87.5656 20.1684 16.2375
224 2 91.441 19.9231 16.0489
225 2 95.2266 19.8692 0.206001
226 2 99.435 19.8798 0.344324
227 2 103.465 19.8609 16.0553
228 2 107.133 19.6551 15.9535
229 2 111.004 19.7766 0.222282
230 2 114.9 19.5849 15.854
231 2 118.735 19.4801 0.108652
232 2 122.659 19.6263 15.9954
233 2 126.639 19.5548 0.215986
234 2 130.599 19.3655 15.9527
235 2 134.437 19.4416 0.104502
236 2 138.693 19.3579 0.106854
237 2 142.25 19.2561 15.757
238 2 146.252 19.3106 0.0861774
239 2 150.142 18.9822 0.0786586
240 2 154.153 19.0794 15.9674
241 2 158.09 22.9689 0.269706
242 2 3.65802 23.1688 15.8394
243 2 7.62849 22.9088 0.174428
244 2 11.5474 22.7683 0.135729
245 2 15.5465 23.1624 15.8247
246 2 19.3868 23.0617 -0.110742
247 2 23.7407 23.3399 15.9989
248 2 27.7375 23.3581 0.158385
249 2 31.7728 23.338 15.9919
250 2 35.6863 23.3375 0.0919428
251 2 39.7098 23.5608 0.120693
252 2 43.7292 23.5411 15.9241
253 2 47.7449 23.5021 15.8644
254 2 51.7973 23.7321 0.0698549
255 2 55.8242 23.6037 16.103
256 2 59.6229 23.7247 15.8786
257 2 63.6321 23.865 0.294699
258 2 67.6383 23.7177 0.112131
259 2 71.4811 23.9299 16.1627
260 2 75.5265 23.9251 0.230509
261 2 79.6954 23.9272 15.8075
262 2 83.5176 23.8617 16.0241
263 2 87.6501 24.0601 16.1605
264 2 91.5432 23.9642 15.7374
265 2 95.5236 23.6001 15.8799
266 2 99.431 23.8814 15.8469
267 2 103.437 23.753 15.6809
268 2 107.433 23.6923 15.8007
269 2 111.204 23.784 15.8282
270 2 114.909 23.4456 15.8225
271 2 119.007 23.5204 0.114887
272 2 122.974 23.5053 0.267725
273 2 126.83 23.496 -0.0824674
274 2 130.88 23.2914 0.110966
275 2 134.711 23.3751 0.245383
276 2 138.541 23.3249 0.122485
277 2 142.449 23.3057 15.83
278 2 146.369 23.2817 0.0738049
279 2 150.192 23.344 15.8188
280 2 154.197 23.0687 0.335209
281 2 158.121 27.0392 0.300413
282 2 3.72656 27.213 0.315266
283 2 7.61722 26.9758 15.8941
284 2 11.598 27.1088 -0.0563693
285 2 15.5481 26.9612 0.15277
286 2 19.5608 27.0662 15.893
287 2 23.3616 27.1807 0.138778
288 2 27.7441 27.1624 0.255875
289 2 31.6485 27.1832 15.9584
290 2 35.5358 27.2701 0.0864683
291 2 39.4897 27.4648 15.9508
292 2 43.7457 27.3917 15.9924
293 2 47.5772 27.23 15.9052
294 2 51.76 27.5419 15.822
295 2 55.5168 27.5919 16.0979
296 2 59.4819 27.4315 0.187653
297 2 63.5294 27.6719 0.222069
298 2 67.6703 27.8524 0.256344
299 2 71.6575 27.7579 0.210045
300 2 75.706 27.7751 16.0418
301 2 79.7089 27.8043 16.1226
302 2 83.468 27.8816 16.1772
303 2 87.3895 27.9243 16.1918
304 2 91.4558 27.9474 16.0182
305 2 95.4581 27.7125 15.9496
306 2 99.2862 27.8309 15.7201
307 2 103.249 27.9768 15.7417
308 2 106.994 27.7846 0.141067
309 2 111.166 27.8897 0.0465745
310 2 115.252 27.4971 0.107299
311 2 119.132 27.7092 15.8098
312 2 123.109 27.5429 0.105558
313 2 127.028 27.4983 0.18022
314 2 130.922 27.409 16.0516
315 2 134.776 27.2875 15.9465
316 2 138.386 27.4222 -0.0650126
317 2 142.518 27.2408 16.024
318 2 146.468 27.244 0.283127
319 2 150.19 27.1101 0.119081
320 2 154.333 27.139 0.289531
321 2 158.035 31.0078 0.135127
322 2 3.6845 31.0337 15.8954
323 2 7.56732 30.9532 0.0833521
324 2 11.5107 31.0645 15.7225
325 2 15.4441 30.891 0.11269
326 2 19.5416 30.8886 0.0710996
327 2 23.6278 30.9952 0.138611
328 2 27.5212 30.9729 0.122871
329 2 31.3708 31.136 0.0492834
330 2 35.4573 31.2033 15.6224
331 2 39.5577 31.3816 15.8015
332 2 43.4431 31.3809 15.9544
333 2 47.4409 31.3134 16.0484
334 2 51.5689 31.247 0.473161
335 2 55.6531 31.4696 0.140097
336 2 59.5189 31.6533 15.9032
337 2 63.5516 31.8678 15.859
338 2 67.4662 31.6039 15.7571
339 2 71.5379 31.7698 0.111554
340 2 75.5414 31.6745 0.267283
341 2 79.5307 31.7922 16.0107
342 2 83.4571 31.7821 0.306375
343 2 87.6057 31.7586 0.107366
344 2 91.4992 31.769 0.10337
345 2 95.4471 31.5006 15.819
346 2 99.53 31.8787 15.6996
347 2 103.476 31.9093 15.793
348 2 107.354 31.8545 15.8899
349 2 111.16 31.7189 0.0427634
350 2 115.035 31.6116 15.8211
351 2 119.025 31.5376 15.8239
352 2 122.922 31.4828 15.7219
353 2 127.036 31.5249 15.9022
354 2 130.765 31.3341 16.0344
355 2 134.472 31.2693 15.7822
356 2 138.723 31.4069 0.0632689
357 2 142.577 31.17 0.183445
358 2 146.394 31.3117 15.7408
359 2 150.468 31.1625 0.228464
360 2 154.168 31.0166 0.47897
361 2 158.413 35.0513 0.218512
362 2 3.7344 35.123 -0.0112614
363 2 7.80216 34.8498 0.271403
364 2 11.5678 34.943 0.207291
365 2 15.4635 34.8082 0.0799621
366 2 19.4565 34.8832 0.162798
367 2 23.6057 34.937 0.087356
368 2 27.5239 34.6702 -0.0206482
369 2 31.561 35.0082 0.144625
370 2 35.3461 35.235 0.277473
371 2 39.6839 35.1888 16.0568
372 2 43.5543 35.2789 0.148624
373 2 47.5857 35.1631 15.7856
374 2 51.683 35.3047 -0.0206053
375 2 55.3995 35.2833 15.7891
376 2 59.4568 35.4461 0.0453279
377 2 63.4357 35.6979 15.8063
378 2 67.4617 35.5559 -0.0403631
379 2 71.338 35.5448 0.143693
380 2 75.4252 35.7331 -0.0037674
381 2 79.6365 35.5385 16.0617
382 2 83.4142 35.7286 0.141849
383 2 87.4152 35.581 16.1506
384 2 91.5152 35.6248 0.387726
385 2 95.1991 35.5366 15.812
386 2 99.4091 35.8675 15.8619
387 2 103.556 35.8078 15.8223
388 2 107.316 35.8026 15.9347
389 2 111.456 35.8016 0.161192
390 2 115.181 35.7099 16.0227
391 2 119.064 35.4961 15.975
392 2 122.938 35.5178 0.072768
393 2 126.85 35.6853 0.0975008
394 2 130.975 35.5426 0.447355
395 2 134.853 35.2761 0.238736
396 2 138.813 35.2088 15.8004
397 2 142.374 35.3556 0.109502
398 2 146.566 35.1852 16.1924
399 2 150.488 35.1784 0.26647
400 2 154.521 35.034 0.195382
401 2 158.375 39.0769 0.198063
402 2 3.84292 38.8197 0.115784
403 2 7.73148 39.0071 0.389445
404 2 11.8551 39.0186 15.95
405 2 15.4722 38.9043 0.269664
406 2 19.4866 38.95 0.087765
407 2 23.4227 38.7214 15.8812
408 2 27.3195 38.6228 0.202953
409 2 31.4161 38.6656 15.9705
410 2 35.5271 38.908 -0.00550955
411 2 39.3693 39.0091 -0.190156
412 2 43.5362 39.2149 15.9465
413 2 47.4672 39.025 0.196784
414 2 51.3348 39.3502 16.0284
415 2 55.5052 39.2277 0.112439
416 2 59.3811 39.2658 15.8885
417 2 63.2197 39.5478 0.171147
418 2 67.4219 39.4068 0.0820061
419 2 71.5498 39.5989 15.9259
420 2 75.3715 39.7447 0.101136
421 2 79.3463 39.5461 15.9032
422 2 83.4577 39.504 15.911
423 2 87.3782 39.6145 0.198017
424 2 91.319 39.5203 15.8804
425 2 95.4611 39.6678 0.172893
426 2 99.4078 39.7361 0.181235
427 2 103.362 39.5968 16.0467
428 2 107.322 39.7256 0.120953
429 2 111.34 39.7117 15.9008
430 2 115.09 39.5484 0.175123
431 2 119.274 39.5221 0.289046
432 2 123.176 39.5998 15.7743
433 2 127.069 39.4839 15.8476
434 2 131.039 39.336 15.9509
435 2 134.824 39.411 0.118059
436 2 138.607 39.3261 0.191928
437 2 142.591 39.1839 0.204737
438 2 146.556 39.045 16.035
439 2 150.467 39.1396 15.8058
440 2 154.367 39.0356 15.8603
441 2 158.353 42.9551 0.196933
442 2 4.07561 42.8509 0.287965
443 2 7.7715 43.0666 0.270565
444 2 11.7624 42.9857 0.291949
445 2 15.6363 42.9882 0.118136
446 2 19.4205 42.7462 0.167878
447 2 23.473 42.7853 0.123657
448 2 27.2409 42.6058 0.224581
449 2 31.2008 42.726 -0.0267446
450 2 35.2859 42.9159 -0.0711884
451 2 39.2183 42.826 0.078136
452 2 43.3585 43.0537 0.107737
453 2 47.3185 43.128 0.117359
454 2 51.3992 43.1187 0.21813
455 2 55.4083 43.0566 15.9711
456 2 59.2834 43.283 15.8845
457 2 63.3309 43.3681 0.1186
458 2 67.4485 43.2582 15.9244
459 2 71.3258 43.3746 0.165188
460 2 75.4302 43.4385 16.0648
461 2 79.3344 43.4473 16.0998
462 2 83.3038 43.4104 0.317852
463 2 87.3402 43.5865 0.152172
464 2 91.3284 43.6675 0.130514
465 2 95.3974 43.5284 15.8655
466 2 99.374 43.7221 15.7953
467 2 103.361 43.6405 16.0211
468 2 107.288 43.8156 15.9941
469 2 111.354 43.6893 16.0368
470 2 115.284 43.5251 16.0053
471 2 119.322 43.6558 16.0718
472 2 123.177 43.4098 15.8092
473 2 127.025 43.4113 15.8854
474 2 130.885 43.4593 0.344342
475 2 134.695 43.4294 0.241962
476 2 138.616 43.2963 0.234542
477 2 142.577 43.0707 15.9728
478 2 146.617 43.1728 15.9284
479 2 150.296 43.1481 15.9561
480 2 154.349 42.869 0.378147
481 2 158.441 47.0347 0.214103
482 2 4.01236 47.0439 0.351781
483 2 7.91519 46.8793 0.251857
484 2 11.9081 47.0348 16.2053
485 2 15.5963 46.8903 0.0641561
486 2 19.6187 46.884 16.0344
487 2 23.6388 46.8954 0.109135
488 2 27.425 46.7671 -0.0954467
489 2 31.2845 46.8445 0.080111
490 2 35.1797 46.6636 0.0154578
491 2 39.1651 46.611 15.8066
492 2 43.1951 47.1669 -0.0137255
493 2 47.3816 46.9465 0.0890812
494 2 51.3283 47.123 0.0255843
495 2 55.3647 47.1028 0.112406
496 2 59.3257 47.1205 15.895
497 2 63.3096 47.1222 15.8879
498 2 67.2715 47.1735 0.148998
499 2 71.3178 47.1828 0.0634767
500 2 75.2711 47.2996 0.237794
501 2 79.2329 47.3509 16.0976
502 2 83.2881 47.3154 0.0547877
503 2 87.2333 47.4439 0.29315
504 2 91.2248 47.6084 0.328273
505 2 95.3077 47.5952 15.8843
506 2 99.2665 47.6717 15.9715
507 2 103.177 47.6941 0.131933
508 2 107.164 47.751 -0.132437
509 2 111.295 47.6459 15.8136
510 2 115.31 47.5125 15.9483
511 2 119.101 47.4866 0.307856
512 2 123.145 47.4845 16.0651
513 2 127.025 47.4025 0.0518339
514 2 130.855 47.3662 15.7439
515 2 134.819 47.4086 0.244099
516 2 138.801 47.1962 0.202145
517 2 142.498 47.1633 0.22966
518 2 146.511 47.159 0.367876
519 2 150.523 47.1378 15.8639
520 2 154.408 46.9267 15.7512
521 2 158.344 51.1203 0.188881
522 2 4.14552 51.0084 15.8146
523 2 7.73716 50.9204 0.187015
524 2 11.7543 50.8913 15.8463
525 2 15.7173 50.7586 0.172794
526 2 19.5307 50.8208 0.207102
527 2 23.5732 50.808 15.8763
528 2 27.5577 50.8727 0.138838
529 2 31.2482 50.7606 0.207704
530 2 35.2551 50.6271 -0.0107688
531 2 39.2909 50.7435 0.170117
532 2 43.1422 50.8148 15.8552
533 2 47.2575 50.8887 15.8445
534 2 51.0787 51.0559 16.0837
535 2 55.1489 51.0375 0.192214
536 2 59.0816 51.1636 15.9723
537 2 63.3528 51.2068 15.9323
538 2 67.1023 50.9524 0.0914165
539 2 71.1985 50.9728 15.8288
540 2 75.3214 51.2901 0.370711
541 2 79.2285 51.2006 0.276533
542 2 83.106 51.2675 0.0405107
543 2 87.1864 51.3781 0.238261
544 2 91.2892 51.4439 0.180404
545 2 95.3079 51.516 15.83
546 2 99.231 51.4873 15.7745
547 2 103.291 51.5605 15.9106
548 2 107.128 51.6015 0.222706
549 2 111.263 51.5818 0.125031
550 2 115.335 51.8542 0.144749
551 2 119.13 51.4931 15.9876
552 2 122.981 51.3813 -0.0282127
553 2 126.976 51.448 15.9532
554 2 131.098 51.2971 0.145136
555 2 134.895 51.394 16.0602
556 2 138.875 51.3179 0.397041
557 2 142.65 51.121 15.9371
558 2 146.708 51.1445 0.0923143
559 2 150.786 51.1829 0.12868
560 2 154.561 51.1522 16.1447
561 2 0.0925677 55.0052 0.12936
562 2 4.05771 55.0977 0.135228
563 2 7.7731 55.0665 0.2673
564 2 12.1397 54.958 0.283752
565 2 15.7663 54.8776 15.9056
566 2 19.7337 54.9227 0.177321
567 2 23.5333 54.7783 0.466116
568 2 27.3478 54.7904 16.0264
569 2 31.3357 54.7711 0.239811
570 2 35.2346 54.7699 0.25728
571 2 39.0157 54.5893 0.244833
572 2 43.2675 54.7123 0.129641
573 2 47.0878 54.8008 0.0675844
574 2 51.1199 54.8026 0.0439401
575 2 55.2291 54.9326 15.7486
576 2 59.4154 55.2067 15.8869
577 2 63.0787 55.0384 16.0384
578 2 67.0575 55.0688 0.204326
579 2 71.171 55.0414 0.167895
580 2 75.2509 55.2254 15.9531
581 2 79.3934 55.0427 15.9953
582 2 83.3619 55.292 0.0917464
583 2 87.0804 55.1083 16.0365
584 2 90.9962 55.3099 0.189068
585 2 95.0776 55.3533 0.1556
586 2 99.3396 55.539 15.6033
587 2 103.161 55.4812 0.223043
588 2 107.024 55.5962 0.171359
589 2 111.297 55.53 15.8528
590 2 115.188 55.5797 0.277811
591 2 119.257 55.5135 15.9743
592 2 123.285 55.5547 0.280502
593 2 127.066 55.4493 0.251354
594 2 130.808 55.4022 15.8508
595 2 134.816 55.2342 15.889
596 2 138.704 55.2117 15.751
597 2 142.766 55.4197 0.0866913
598 2 146.625 55.074 0.167001
599 2 150.644 55.1922 0.1756
600 2 154.41 55.1152 0.149755
601 2 158.12 59.1596 0.223449
602 2 3.85735 59.0513 15.7802
603 2 7.73771 58.8886 0.136023
604 2 11.7552 59.0116 16.1507
605 2 15.7586 58.8523 15.7989
606 2 19.7029 58.7889 0.304876
607 2 23.4749 58.662 0.271334
608 2 27.2471 58.74 0.142782
609 2 31.192 58.6429 0.213843
610 2 35.1731 58.6792 15.9601
611 2 39.1456 58.7513 0.299788
612 2 43.1165 58.6663 0.331474
613 2 46.9901 58.4852 0.214283
614 2 50.765 58.846 0.204987
615 2 55.1713 58.8203 15.8239
616 2 59.0646 59.0845 15.8789
617 2 62.9843 59.0701 15.8186
618 2 66.9828 58.9195 16.0039
619 2 71.1258 59.0394 15.8323
620 2 75.228 59.0451 15.9623
621 2 79.0299 59.1074 0.0342869
622 2 83.183 59.2709 0.366777
623 2 86.9856 59.2357 0.267811
624 2 91.1347 59.1514 0.258783
625 2 95.3677 59.3464 0.00717423
626 2 99.072 59.2141 15.8819
627 2 102.967 59.4122 0.184818
628 2 107.21 59.5031 0.27919
629 2 111.129 59.3595 15.9941
630 2 115.316 59.4566 15.9741
631 2 119.127 59.5935 16.1325
632 2 123.113 59.5577 15.9561
633 2 126.933 59.4792 -0.0572979
634 2 130.926 59.3077 15.9573
635 2 134.854 59.3 15.7513
636 2 138.967 59.3532 16.0375
637 2 142.674 59.1716 0.124416
638 2 146.795 58.9994 -0.0113282
639 2 150.576 59.0453 0.107472
640 2 154.536 59.2087 0.146882
641 2 0.0683528 63.1176 0.212257
642 2 3.67989 63.1153 0.0679721
643 2 7.91072 63.105 16.0283
644 2 11.769 62.9945 16.1207
645 2 15.6623 62.7065 0.11304
646 2 19.6669 62.7419 0.359924
647 2 23.5455 62.7382 0.128046
648 2 27.4462 62.771 0.115123
649 2 31.4998 62.6288 0.320112
650 2 35.4292 62.8161 0.274214
651 2 39.1737 62.8149 0.244003
652 2 43.1851 62.869 16.0952
653 2 47.0276 62.7095 15.8059
654 2 51.0178 62.5832 0.125661
655 2 54.8419 62.8449 0.150938
656 2 59.0135 62.8734 15.8693
657 2 63.0548 62.9876 0.149396
658 2 66.9558 62.7797 15.9068
659 2 70.9352 62.8975 15.9322
660 2 75.1217 63.0574 0.115243
661 2 78.991 63.0577 15.7651
662 2 83.0587 63.1888 0.115003
663 2 87.0609 63.1047 15.9519
664 2 91.1668 63.1452 15.9233
665 2 95.0379 63.1624 15.6407
666 2 99.1388 63.1895 15.6986
667 2 103.134 63.2734 0.103486
668 2 107.122 63.3175 16.0638
669 2 111.091 63.4336 16.131
670 2 115.055 63.5017 0.215543
671 2 119.057 63.4806 0.107882
672 2 123.136 63.2547 0.0464278
673 2 127.165 63.4565 15.7128
674 2 130.957 63.3123 0.360081
675 2 134.999 63.468 16.0106
676 2 138.948 63.4325 0.187535
677 2 142.881 63.4629 15.9536
678 2 146.704 63.1712 0.162945
679 2 150.505 62.9245 0.17701
680 2 154.27 63.0125 0.133737
681 2 0.0758201 67.1384 0.067092
682 2 4.03641 67.0768 0.289856
683 2 7.90384 66.9053 16.0158
684 2 11.8383 66.7921 16.1197
685 2 15.8518 66.8515 0.058409
686 2 19.6263 66.7817 0.0151242
687 2 23.4855 66.824 0.113605
688 2 27.5075 66.8431 0.0805788
689 2 31.4011 66.7559 -0.117575
690 2 35.1726 66.7084 15.8712
691 2 39.0315 66.8052 15.861
692 2 43.081 66.6245 15.933
693 2 47.1918 66.5529 15.8937
694 2 51.04 66.5955 -0.00357292
695 2 54.9927 66.7454 15.8402
696 2 58.9755 66.7448 15.8062
697 2 63.0782 66.9384 0.05356
698 2 67.0538 66.8218 15.856
699 2 70.9491 66.9194 0.131208
700 2 74.9537 66.6477 0.139725
701 2 79.0518 67.099 15.8909
702 2 83.1515 67.0723 15.7276
703 2 86.9958 66.9612 16.0955
704 2 91.1442 67.2282 0.218362
705 2 95.2194 67.2334 15.8877
706 2 99.2209 67.1365 15.963
707 2 102.947 67.148 0.241493
708 2 107.089 67.1239 0.211072
709 2 111.141 67.2077 16.1547
710 2 115.127 67.3115 15.9877
711 2 118.884 67.2495 0.0921684
712 2 123.091 67.0835 15.8327
713 2 127.105 67.1791 0.184552
714 2 131.122 67.2861 -0.102536
715 2 135.023 67.4136 15.9005
716 2 138.593 67.4519 0.250573
717 2 142.738 67.3485 15.8136
718 2 146.589 67.4168 15.9562
719 2 150.503 67.2569 0.255053
720 2 154.463 67.0908 0.0738072
721 2 158.378 70.9132 16.0063
722 2 4.05033 71.0723 0.0682568
723 2 8.00299 70.9874 0.202926
724 2 11.7049 70.7727 0.145255
725 2 15.7459 70.6502 16.031
726 2 19.7016 70.7248 0.0347017
727 2 23.5257 70.8357 0.318797
728 2 27.3524 70.8118 0.263503
729 2 31.4342 70.7409 0.288019
730 2 35.5845 70.7803 0.00296853
731 2 39.3268 70.5474 0.125694
732 2 42.9693 70.9314 0.34489
733 2 46.9251 70.8631 15.8318
734 2 50.8362 70.5821 0.0417516
735 2 54.736 70.7204 15.9178
736 2 59.0579 70.6617 15.9439
737 2 62.8768 70.7751 15.7636
738 2 66.8073 70.6601 15.8556
739 2 71.137 70.7821 0.0717806
740 2 74.886 70.5117 16.0092
741 2 78.8357 70.8628 0.34336
742 2 83.0237 70.6144 0.22926
743 2 87.0118 70.9227 15.7384
744 2 90.9046 71.0747 15.956
745 2 95.1048 71.0809 15.7701
746 2 99.0219 71.0314 15.6421
747 2 103 71.0482 15.9262
748 2 107.02 71.0549 0.138947
749 2 110.953 71.148 0.38182
750 2 115.083 71.0964 0.385813
751 2 119.036 71.1345 -0.02284
752 2 123.041 71.147 16.0561
753 2 126.844 71.1027 0.208528
754 2 130.899 71.4387 0.242414
755 2 134.937 71.2892 -0.0299847
756 2 138.942 71.3553 15.6152
757 2 142.775 71.2822 16.0807
758 2 146.667 71.1837 15.9621
759 2 150.528 71.0361 0.251444
760 2 154.406 70.919 0.138164
761 2 0.167245 74.9748 15.8446
762 2 4.00212 74.9144 15.8652
763 2 7.93946 74.9578 0.289744
764 2 11.9664 74.7996 0.172233
765 2 15.7393 74.6942 15.8574
766 2 19.5157 74.9986 0.0638978
767 2 23.6244 74.7944 0.206377
768 2 27.6935 74.8116 0.29831
769 2 31.5289 74.6185 0.158434
770 2 35.3277 74.6582 0.12717
771 2 39.0222 74.7372 0.131486
772 2 43.0697 74.8548 0.168006
773 2 47.0304 74.855 0.221634
774 2 51.0525 74.7415 16.0951
775 2 55.0687 74.7021 15.8769
776 2 58.7526 74.5671 15.8284
777 2 62.9039 74.6175 15.7617
778 2 67.089 74.6115 16.1106
779 2 70.9016 74.5885 0.136299
780 2 74.8813 74.5979 0.209106
781 2 79.0651 74.6988 0.255447
782 2 83.0458 74.7783 15.9057
783 2 86.825 74.7647 15.7611
784 2 91.1362 74.9568 0.19534
785 2 94.9501 75.1009 16.0286
786 2 98.9932 75.0547 16.06
787 2 102.961 75.1146 15.8264
788 2 106.701 75.1203 -0.00883886
789 2 110.999 75.2932 0.199998
790 2 114.789 75.0347 0.213632
791 2 118.78 75.29 0.163695
792 2 123.078 75.1179 0.201855
793 2 127.133 75.2325 15.9272
794 2 130.949 75.2432 15.8363
795 2 135.002 75.147 0.101242
796 2 138.955 75.271 15.7087
797 2 142.937 75.2419 15.9629
798 2 146.656 75.1753 15.831
799 2 150.83 75.1936 16.0008
800 2 154.643 75.2075 15.7974
801 2 0.278113 79.1669 0.0477008
802 2 4.16021 78.9804 0.150055
803 2 8.08773 78.9555 0.219533
804 2 11.9699 78.778 15.9925
805 2 15.7794 78.8506 15.8661
806 2 19.6065 78.7589 0.049381
807 2 23.5139 78.912 0.100076
808 2 27.6314 78.7581 0.0312343
809 2 31.5918 78.853 15.9264
810 2 35.2754 78.8949 0.218467
811 2 39.3037 78.9423 0.206063
812 2 43.2117 78.8862 0.154962
813 2 46.9171 78.743 0.172579
814 2 50.8943 78.5448 0.0269481
815 2 54.8501 78.5217 0.354503
816 2 58.9722 78.3813 0.199309
817 2 62.8543 78.2776 0.0912628
818 2 66.8783 78.507 0.127451
819 2 70.9676 78.5409 15.875
820 2 74.8734 78.6333 0.354438
821 2 78.87 78.5021 0.414333
822 2 82.9191 78.5789 16.085
823 2 86.9473 78.726 16.1609
824 2 90.8099 78.623 16.1833
825 2 94.9931 78.956 0.264823
826 2 99.0869 78.7391 0.133567
827 2 103.044 78.9694 16.1682
828 2 107.001 78.992 0.243643
829 2 110.864 78.9305 15.9582
830 2 114.981 79.0662 0.0868017
831 2 119.058 79.094 0.227352
832 2 122.989 79.0925 15.6577
833 2 126.877 79.0409 0.135832
834 2 131.111 79.2465 15.6495
835 2 134.916 79.0704 0.119044
836 2 138.738 79.0641 0.0359981
837 2 142.975 79.3286 15.8068
838 2 146.714 79.1081 15.9444
839 2 150.47 79.2046 15.5894
840 2 154.664 79.1371 0.144618
841 2 0.176067 83.0528 0.0659932
842 2 4.27102 83.0372 15.8698
843 2 7.91157 82.8355 0.150004
844 2 11.9123 82.9062 15.9588
845 2 15.8198 82.8866 16.0658
846 2 19.8421 82.7411 0.203088
847 2 23.7052 82.8451 -0.0728617
848 2 27.6903 82.8415 0.0744329
849 2 31.541 82.8779 15.6639
850 2 35.3688 83.0345 0.00106327
851 2 39.2367 82.9005 0.0681792
852 2 42.9928 82.8569 0.133088
853 2 47.0305 82.7885 0.173829
854 2 51.0335 82.4933 0.137325
855 2 55.0773 82.5876 0.241594
856 2 58.8231 82.5651 15.9566
857 2 62.9431 82.3487 16.0095
858 2 66.834 82.7375 16.103
859 2 70.6649 82.522 0.375862
860 2 74.8157 82.56 0.293438
861 2 78.8192 82.3975 0.330337
862 2 82.7394 82.4877 15.9973
863 2 87.055 82.7737 16.0697
864 2 90.6892 82.6153 15.8992
865 2 94.8467 82.5128 16.1167
866 2 98.9933 82.6429 15.8754
867 2 102.834 82.9402 15.7659
868 2 106.822 82.916 0.250427
869 2 110.873 82.8966 15.9928
870 2 114.881 82.8778 -0.057647
871 2 118.882 83.0003 0.176279
872 2 123 82.9764 15.8434
873 2 126.98 83.0376 15.9295
874 2 130.916 83.2552 15.8009
875 2 134.918 83.1233 0.273941
876 2 138.866 83.1198 -0.0820066
877 2 142.952 83.2427 -0.0264898
878 2 146.661 83.3471 15.8064
879 2 150.459 83.0119 15.765
880 2 154.656 83.0279 15.7851
881 2 0.340577 86.9386 -0.0144035
882 2 4.17649 87.1228 0.327438
883 2 8.01439 86.9807 0.0212367
884 2 11.9349 86.9502 15.7689
885 2 15.7544 86.8956 15.8901
886 2 19.7201 86.731 0.0651121
887 2 23.4663 86.7735 0.0234305
888 2 27.5985 86.792 0.12778
889 2 31.4255 86.7687 15.7882
890 2 35.4885 86.8302 0.0230068
891 2 39.4028 86.6376 0.0517669
892 2 43.4102 86.7317 0.116361
893 2 47.1396 86.7023 0.0550889
894 2 50.9898 86.4108 0.223448
895 2 55.1205 86.5725 0.211197
896 2 59.2057 86.6522 0.225393
897 2 62.9882 86.4056 15.9818
898 2 66.9424 86.4959 16.0308
899 2 70.7921 86.5482 0.283301
900 2 74.7851 86.2913 15.8644
901 2 78.6171 86.4802 0.368905
902 2 82.6409 86.2843 15.8883
903 2 86.758 86.5356 0.140846
904 2 90.8155 86.7625 15.9111
905 2 94.7719 86.6101 16.0165
906 2 98.7097 86.5982 15.9545
907 2 102.726 86.8332 15.8371
908 2 106.805 86.6809 16.0662
909 2 110.802 87.0261 0.201583
910 2 114.987 86.7875 15.9807
911 2 118.894 86.7436 15.9548
912 2 122.913 86.9023 16.026
913 2 126.847 87.0699 15.9042
914 2 130.775 87.0881 15.9775
915 2 134.681 87.1211 0.370102
916 2 138.568 87.1182 0.182134
917 2 142.679 87.3507 15.7809
918 2 146.82 87.1487 16.1074
919 2 150.781 87.0768 15.7866
920 2 154.591 87.0724 0.0877714
921 2 0.412989 91.1615 15.6585
922 2 4.36471 91.0983 15.8946
923 2 8.12738 90.9395 0.0969116
924 2 12.0845 90.907 15.8309
925 2 15.7709 90.8998 16.0289
926 2 19.7839 90.7728 0.0447932
927 2 23.634 90.8985 15.8432
928 2 27.6811 90.777 0.0887829
929 2 31.45 90.7184 15.8353
930 2 35.4761 90.7402 0.103481
931 2 39.4257 90.6737 0.118216
932 2 43.2934 90.4885 0.17512
933 2 47.0751 90.5955 0.265796
934 2 51.1947 90.3931 16.0205
935 2 55.0677 90.6263 0.208854
936 2 58.9861 90.4788 15.8641
937 2 63.0971 90.361 0.168555
938 2 66.8072 90.5064 0.18167
939 2 70.7012 90.3948 0.253742
940 2 74.6775 90.1597 16.0069
941 2 78.7265 90.3672 16.0312
942 2 82.7847 90.3239 15.917
943 2 86.6015 90.3602 16.0786
944 2 90.7317 90.4789 0.0776265
945 2 94.7726 90.7204 16.1627
946 2 98.6748 90.5976 16.2155
947 2 102.565 90.5542 15.9514
948 2 106.775 90.6235 15.9063
949 2 110.98 90.7486 16.0066
950 2 114.867 90.8162 16.1355
951 2 118.712 90.7518 0.23509
952 2 122.868 90.9489 0.198493
953 2 126.924 90.9189 0.2031
954 2 130.823 90.9553 15.9228
955 2 134.971 90.9823 0.0579059
956 2 138.772 90.8337 16.0871
957 2 142.771 91.2409 15.9987
958 2 146.818 91.0859 0.111074
959 2 150.921 90.9572 15.8539
960 2 154.6 90.9754 15.9213
961 2 0.436576 95.2232 16.0806
962 2 4.3717 95.0627 15.9746
963 2 8.09413 95.0809 0.218429
964 2 11.9816 95.1048 16.0065
965 2 15.9166 94.8391 15.7856
966 2 19.796 94.8562 15.8129
967 2 23.6795 94.9338 16.0561
968 2 27.5804 94.9268 0.177557
969 2 31.5316 94.7387 15.9383
970 2 35.5291 94.7937 -0.0894205
971 2 39.3099 94.6821 0.202611
972 2 43.3086 94.5529 -0.0217256
973 2 47.2121 94.6008 15.8977
974 2 51.226 94.5476 15.8371
975 2 55.1698 94.4828 16.0577
976 2 59.0009 94.6636 0.00962003
977 2 63.1444 94.5043 15.9427
978 2 66.9113 94.3985 16.0408
979 2 70.7778 94.2963 0.142521
980 2 74.7622 94.387 15.8019