ITEM: TIMESTEP
19700
ITEM: NUMBER OF ATOMS
32000
ITEM: BOX BOUNDS xy xz yz pp pp pp
0.0000000000000000e+00 1.5831999999999999e+02 0.0000000000000000e+00
0.0000000000000000e+00 1.5831999999999999e+02 0.0000000000000000e+00
1.6564996977116220e-01 1.5932062030228675e+01 0.0000000000000000e+00
ITEM: ATOMS id type x y z
1 2 158.12 157.915 15.8655
2 2 3.86917 157.845 0.11641
3 2 7.86428 157.946 15.7289
4 2 11.8238 157.776 15.9289
5 2 15.9671 157.896 15.7707
6 2 19.8424 157.771 15.9866
7 2 23.7667 158.101 0.200274
8 2 27.9338 157.967 15.8396
9 2 31.9708 158.236 15.9843
10 2 35.8257 158.32 16.0244
11 2 39.8471 158.153 0.123692
12 2 44.0031 -0.0304192 0.0104169
13 2 47.9975 158.349 15.8275
14 2 51.9599 0.0238654 -0.0845163
15 2 55.8182 158.693 15.8081
16 2 59.661 0.422534 0.312303
17 2 63.7583 0.153893 15.9467
18 2 67.6826 0.0584593 0.133158
19 2 71.4321 158.534 0.131769
20 2 75.4205 158.442 0.114094
21 2 79.5221 0.121068 15.7379
22 2 83.4054 158.24 15.9665
23 2 87.1543 158.224 15.9001
24 2 91.1579 158.304 -0.0212922
25 2 95.0329 158.165 15.9231
26 2 98.9522 158.292 15.9025
27 2 103.088 158.097 0.307821
28 2 106.672 157.949 16.0142
29 2 110.684 157.849 0.334838
30 2 114.73 157.771 0.33949
31 2 118.665 157.842 16.1453
32 2 122.613 157.781 15.9188
33 2 126.45 157.561 16.0963
34 2 130.314 157.628 15.9458
35 2 134.249 157.592 16.1509
36 2 138.151 157.607 16.0339
37 2 142.357 157.747 0.375377
38 2 146.092 157.657 0.227314
39 2 150.082 157.839 0.0234184
40 2 154.021 157.436 0.109554
41 2 158.085 3.12952 0.0747756
42 2 3.55632 3.47019 16.0177
43 2 7.75303 3.41208 -0.00754849
44 2 11.8291 3.43456 15.9768
45 2 15.827 3.55528 0.100996
46 2 19.6726 3.40063 0.246002
47 2 23.8033 3.7165 15.8815
48 2 27.9081 3.56398 15.8017
49 2 31.8645 3.85528 -0.0148254
50 2 35.8131 3.85635 0.24163
51 2 39.9224 3.72236 15.7895
52 2 43.8754 3.75404 0.213135
53 2 47.8238 3.9361 16.0807
54 2 51.7573 3.95702 0.0521262
55 2 55.819 3.95955 -0.0202776
56 2 59.7874 4.076 15.886
57 2 63.711 4.17469 15.642
58 2 67.6827 4.05343 0.0972997
59 2 71.8549 4.2422 -0.035629
60 2 75.7685 4.31228 -0.0514002
61 2 79.408 4.04586 0.169526
62 2 83.4069 3.82517 15.889
63 2 87.4453 3.92948 15.9144
64 2 91.4042 4.06728 0.143542
65 2 95.213 3.85745 15.812
66 2 99.1338 3.8314 15.8405
67 2 103.24 3.84713 16.1211
68 2 107.08 3.61266 15.9688
69 2 110.851 3.51602 15.8525
70 2 114.757 3.53835 16.1315
71 2 118.605 3.42394 15.9516
72 2 122.692 3.47619 15.8792
73 2 126.337 3.49659 0.192393
74 2 130.308 3.23852 0.296401
75 2 134.289 3.3543 16.1073
76 2 138.323 3.36309 15.8998
77 2 142.287 3.28149 15.9382
78 2 146.084 3.23245 -0.00794254
79 2 150.102 3.28876 16.0092
80 2 154.113 3.15556 0.191721
81 2 158.044 7.19157 0.10561
82 2 3.62033 7.47173 0.0699081
83 2 7.51602 7.35429 15.8275
84 2 11.777 7.31509 0.0739893
85 2 15.6725 7.32327 0.181185
86 2 19.751 7.41422 0.0928455
87 2 23.6579 7.55874 15.7115
88 2 27.7309 7.40785 0.35058
89 2 31.7073 7.60539 15.8727
90 2 35.8786 7.74522 15.9626
91 2 39.9299 7.60812 0.115885
92 2 43.8569 7.82593 15.7704
93 2 47.7625 7.93476 15.8675
94 2 51.8902 8.03295 15.867
95 2 55.5839 7.94248 -0.0205287
96 2 59.795 7.76117 0.0852105
97 2 63.7741 8.15649 0.119905
98 2 67.5529 7.99298 15.9049
99 2 71.4753 8.2589 15.8698
100 2 75.9427 8.04364 0.0849166
101 2 79.7234 8.02129 0.0368888
102 2 83.452 7.87137 0.243446
103 2 87.3744 7.81285 0.162218
104 2 91.385 7.98516 15.9496
105 2 95.3753 7.85354 15.9681
106 2 99.0912 7.85628 0.0383704
107 2 103.253 7.60957 0.00312493
108 2 107.203 7.70283 15.9691
109 2 110.868 7.70211 0.123186
110 2 114.895 7.64992 16.1815
111 2 118.678 7.47675 0.384876
112 2 122.651 7.48422 0.241353
113 2 126.772 7.45978 16.2454
114 2 130.506 7.3079 15.9724
115 2 134.376 7.42079 0.434335
116 2 138.311 7.45564 0.308774
117 2 142.384 7.28712 0.338826
118 2 146.034 7.19032 0.150113
119 2 150.056 7.07474 15.7842
120 2 153.945 7.00654 15.9272
121 2 158.074 11.0567 15.8566
122 2 3.65099 11.5109 0.0461731
123 2 7.83419 11.1591 16.0409
124 2 11.7708 11.3008 15.8992
125 2 15.6284 11.3733 0.215619
126 2 19.8154 11.3538 0.174369
127 2 23.7813 11.576 15.908
128 2 27.7458 11.4146 15.9352
129 2 31.7394 11.5229 15.9132
130 2 35.881 11.7095 0.146394
131 2 39.6706 11.7172 15.9414
132 2 43.8508 11.7631 0.13617
133 2 47.8157 11.7738 0.355253
134 2 51.8878 11.7838 16.0732
135 2 55.7915 11.9804 15.8936
136 2 59.7867 11.8563 0.254883
137 2 63.4793 11.9659 15.7997
138 2 67.6585 12.0895 15.9808
139 2 71.9076 11.8797 0.233692
140 2 75.7105 12.0089 15.9739
141 2 79.6991 12.0203 0.301591
142 2 83.5457 12.1204 0.195008
143 2 87.4576 12.0652 16.0705
144 2 91.3155 12.0457 15.8298
145 2 95.4113 11.8575 0.266777
146 2 99.2899 11.7901 0.260078
147 2 103.192 11.6344 15.8564
148 2 107.039 11.8572 16.1642
149 2 110.969 11.6706 15.784
150 2 114.809 11.3541 15.9773
151 2 118.894 11.5329 0.190133
152 2 122.868 11.3618 0.223744
153 2 126.66 11.5888 16.1424
154 2 130.4 11.4478 0.378735
155 2 134.283 11.3027 16.0669
156 2 138.322 11.3319 15.9287
157 2 142.244 11.1566 0.100995
158 2 146.066 11.4236 0.00101604
159 2 150.064 11.1171 15.9436
160 2 153.925 11.2829 0.107838
161 2 157.862 15.034 0.243297
162 2 3.6643 15.1443 15.9642
163 2 7.74498 14.9907 15.9867
164 2 11.6986 15.0807 0.265751
165 2 15.6927 15.2597 0.139276
166 2 19.787 15.2047 15.7785
167 2 23.7145 15.3914 -0.0811739
168 2 27.9362 15.4219 15.9075
169 2 31.8798 15.6872 0.00521048
170 2 35.7525 15.4135 0.230523
171 2 39.772 15.8276 15.9277
172 2 43.7438 15.504 0.271071
173 2 47.6549 15.7398 0.143436
174 2 51.7384 15.6147 0.103284
175 2 55.7542 15.7606 15.9149
176 2 59.64 15.7656 15.8692
177 2 63.674 15.8183 16.0317
178 2 67.7515 15.9531 15.9811
179 2 71.6989 15.9288 15.7019
180 2 75.6066 15.992 15.9268
181 2 79.5443 16.022 15.9872
182 2 83.6021 15.9595 15.9689
183 2 87.3157 16.0273 0.124866
184 2 91.3516 15.8768 15.9533
185 2 95.436 15.8681 0.284445
186 2 99.1963 16.0054 16.1388
187 2 103.436 15.7567 -0.0338403
188 2 107.164 15.811 15.9592
189 2 110.925 15.5643 15.8604
190 2 114.994 15.552 15.9453
191 2 118.764 15.5514 15.6117
192 2 122.621 15.5237 15.8897
193 2 126.607 15.5106 0.027038
194 2 130.687 15.3928 0.241159
195 2 134.346 15.3876 15.9948
196 2 138.277 15.4361 15.9
197 2 142.089 15.326 0.155825
198 2 146.429 15.1713 -0.0801575
199 2 150.238 15.1862 -0.0179971
200 2 154.359 15.1882 0.0899205
201 2 157.824 19.0083 16.1155
202 2 3.62242 19.0136 15.9013
203 2 7.62612 18.9262 15.7096
204 2 11.574 18.9497 15.946
205 2 15.7645 18.9521 15.9362
206 2 19.8231 19.2202 15.9393
207 2 23.7332 19.1272 0.0357661
208 2 27.6458 19.3483 0.35507
209 2 31.6646 19.2839 15.8249
210 2 35.6833 19.5655 0.203574
211 2 39.7864 19.6354 0.260467
212 2 43.714 19.6403 16.0681
213 2 47.649 19.721 0.341384
214 2 51.7908 19.4328 16.1193
215 2 55.8908 19.814 15.9638
216 2 59.7641 19.7619 15.86
217 2 63.6505 19.7846 15.8218
218 2 67.6473 19.7962 15.9072
219 2 71.6843 19.7938 15.8205
220 2 75.5014 19.8478 15.7301
221 2 79.6915 19.9047 15.9333
222 2 83.4967 20.0344 15.9254
223 2 87.6253 20.0745 15.8622
224 2 91.3933 19.8853 15.9234
225 2 95.5686 20.029 0.269234
226 2 99.2704 19.9928 0.266825
227 2 103.076 19.7661 15.8366
228 2 107.209 19.8909 15.9401
229 2 111.084 19.6443 0.0483774
230 2 115.037 19.6079 15.9413
231 2 118.809 19.5942 0.0896361
232 2 122.745 19.5193 15.9658
233 2 126.515 19.3567 0.188836
234 2 130.502 19.4343 16.0654
235 2 134.641 19.328 -0.0439159
236 2 138.374 19.4387 0.037603
237 2 142.576 19.3032 15.9423
238 2 146.274 19.1601 0.00109182
239 2 150.131 19.2669 0.274261
240 2 154.009 19.1014 15.8976
241 2 158.177 23.0575 0.269184
242 2 3.70773 22.8012 16.0105
243 2 7.53006 22.9256 0.0177701
244 2 11.62 23.0392 0.0529262
245 2 15.6279 22.9892 15.9088
246 2 19.7115 23.1413 0.0829565
247 2 23.5851 23.1641 15.9731
248 2 27.7092 23.3418 0.258029
249 2 31.5579 23.2268 15.7915
250 2 35.6215 23.2346 0.134444
251 2 39.5848 23.3967 0.0398063
252 2 43.5871 23.4482 16.1156
253 2 47.6154 23.5086 16.0096
254 2 51.6739 23.4931 0.171268
255 2 55.6864 23.6545 15.7991
256 2 59.8228 23.6457 16.0045
257 2 63.704 23.7308 -0.0628476
258 2 67.5964 23.7311 0.182402
259 2 71.8025 23.6389 15.9089
260 2 75.7037 23.7286 0.18822
261 2 79.5862 23.7843 16.207
262 2 83.6671 23.8627 15.9213
263 2 87.459 23.8747 15.8717
264 2 91.6446 23.8684 16.1005
265 2 95.5249 24.0715 15.9492
266 2 99.568 24.0522 15.745
267 2 103.369 23.9989 16.0956
268 2 107.047 23.8232 15.8258
269 2 111.179 23.7062 15.8051
270 2 115.158 23.7544 15.9271
271 2 118.8 23.5568 0.101921
272 2 122.802 23.4793 0.0839267
273 2 126.819 23.5668 0.134624
274 2 130.602 23.6117 0.0415662
275 2 134.625 23.355 0.08063
276 2 138.461 23.3377 0.155661
277 2 142.361 23.4113 15.7904
278 2 146.23 23.1753 0.124532
279 2 150.274 22.9615 15.9516
280 2 154.234 23.0912 0.166487
281 2 158.03 26.8964 0.0848201
282 2 3.65262 26.8771 0.029211
283 2 7.68158 26.9956 15.7971
284 2 11.5315 26.7916 0.118654
285 2 15.5945 26.9849 0.0225427
286 2 19.5768 27.0268 15.6931
287 2 23.6284 27.0564 -0.0730187
288 2 27.6018 27.2033 0.163726
289 2 31.5344 27.1189 15.8644
290 2 35.5611 27.2552 0.138677
291 2 39.5367 27.2268 15.9854
292 2 43.5055 27.369 15.7892
293 2 47.5742 27.4519 15.8289
294 2 51.5732 27.5131 15.965
295 2 55.7417 27.4492 15.9911
296 2 59.542 27.8335 0.283042
297 2 63.7009 27.7119 0.145229
298 2 67.6279 27.5456 0.10196
299 2 71.5581 27.8079 0.285086
300 2 75.4273 27.7371 15.904
301 2 79.3861 27.71 16.0061
302 2 83.6453 27.8216 15.9349
303 2 87.5756 27.8486 15.8959
304 2 91.4461 27.9352 15.821
305 2 95.3868 27.8984 15.7825
306 2 99.6084 27.9489 15.8007
307 2 103.493 27.9022 15.7448
308 2 107.406 27.7319 0.0500955
309 2 111.05 27.646 0.35076
310 2 114.922 27.803 0.147647
311 2 118.871 27.4003 15.8193
312 2 122.782 27.3949 0.0735849
313 2 126.812 27.4456 0.184949
314 2 130.771 27.5115 15.7757
315 2 134.42 27.4969 15.9093
316 2 138.56 27.2667 0.215562
317 2 142.375 27.248 15.8794
318 2 146.175 27.1748 0.0771042
319 2 150.398 27.0278 0.209756
320 2 154.229 27.0126 0.148208
321 2 158.163 30.9747 0.291889
322 2 3.74065 30.9807 15.9346
323 2 7.64426 30.8374 0.111468
324 2 11.6015 30.7262 15.843
325 2 15.6102 30.9827 -0.0265211
326 2 19.4917 30.7866 0.102436
327 2 23.5334 30.9647 0.223984
328 2 27.6812 31.058 0.218686
329 2 31.5088 30.9549 0.363339
330 2 35.4691 31.2009 15.9887
331 2 39.458 30.9483 15.9002
332 2 43.529 31.0293 15.888
333 2 47.6711 31.3308 15.8899
334 2 51.5249 31.5533 -0.0562581
335 2 55.5037 31.4521 0.209895
336 2 59.5604 31.5945 15.7838
337 2 63.4194 31.5015 15.9991
338 2 67.6246 31.6064 15.8173
339 2 71.394 31.4997 0.14903
340 2 75.4727 31.641 0.198291
341 2 79.3719 31.5648 16.1494
342 2 83.5141 31.7229 0.184717
343 2 87.4636 31.7739 0.227964
344 2 91.5328 31.8292 0.154654
345 2 95.5535 31.8452 15.9321
346 2 99.3048 31.8115 15.7299
347 2 103.33 31.7805 15.8589
348 2 107.247 31.6804 15.853
349 2 111.18 31.6942 0.20054
350 2 115.052 31.5989 15.8025
351 2 119.025 31.5405 15.8647
352 2 122.981 31.5973 16.0105
353 2 126.732 31.4494 15.8585
354 2 130.885 31.4651 16.0394
355 2 134.886 31.4337 16.0635
356 2 138.579 31.1709 0.27299
357 2 142.632 31.3419 -0.000676187
358 2 146.539 31.1605 16.052
359 2 150.237 31.0397 0.0950456
360 2 154.313 31.0734 0.127877
361 2 157.976 35.0166 0.170178
362 2 3.93436 35.0046 0.368083
363 2 7.56435 35.007 0.321179
364 2 11.4609 34.8998 0.157609
365 2 15.5481 34.7942 0.207379
366 2 19.5217 34.7124 0.145531
367 2 23.4285 34.7162 0.189398
368 2 27.477 34.954 0.2182
369 2 31.2379 34.7476 0.188468
370 2 35.53 34.9441 -0.0799268
371 2 39.268 34.9594 15.8145
372 2 43.4518 35.075 0.330402
373 2 47.4557 35.2834 15.9777
374 2 51.3772 35.3832 0.173504
375 2 55.492 35.4517 15.7502
376 2 59.3787 35.5372 -0.0315873
377 2 63.4154 35.5452 16.0353
378 2 67.425 35.4743 0.155915
379 2 71.5487 35.6042 -0.006403
380 2 75.4189 35.3316 0.310493
381 2 79.1599 35.4935 15.9163
382 2 83.4766 35.5315 0.25287
383 2 87.5327 35.7188 15.9464
384 2 91.2934 35.6347 0.206628
385 2 95.3756 35.63 15.9783
386 2 99.2923 35.7217 15.8949
387 2 103.338 35.8098 15.901
388 2 107.256 35.6105 15.8091
389 2 111.011 35.626 0.125223
390 2 114.961 35.6438 15.9639
391 2 119.09 35.5801 15.8375
392 2 123.085 35.5862 0.123358
393 2 126.968 35.4844 0.0837377
394 2 130.931 35.2496 0.0179078
395 2 134.765 35.2945 0.0803992
396 2 138.645 35.5217 15.9078
397 2 142.798 35.2088 0.00487145
398 2 146.67 35.2892 16.0509
399 2 150.417 35.0972 0.343225
400 2 154.211 35.1442 0.247849
401 2 158.156 39.0448 0.212657
402 2 3.84319 39.1647 0.263195
403 2 7.90666 38.9381 0.182111
404 2 11.6225 38.8319 15.8849
405 2 15.7048 38.7332 0.102433
406 2 19.3517 38.5787 0.222211
407 2 23.4299 38.7651 16.0698
408 2 27.3051 38.6996 0.0931061
409 2 31.236 39.0054 15.6262
410 2 35.2876 39.0419 -0.00451455
411 2 39.3597 39.0684 0.246276
412 2 43.4216 39.1318 16.0191
413 2 47.4677 39.3591 0.0467242
414 2 51.5722 39.263 15.9558
415 2 55.3787 39.447 0.155803
416 2 59.4344 39.3596 15.862
417 2 63.4628 39.4277 0.217277
418 2 67.3383 39.4645 -0.0402845
419 2 71.2315 39.4755 15.8579
420 2 75.3167 39.4474 0.0429759
421 2 79.4323 39.3346 15.8932
422 2 83.2155 39.6713 16.033
423 2 87.348 39.5371 0.171402
424 2 91.3257 39.7253 16.245
425 2 95.3406 39.6759 0.23642
426 2 99.2931 39.6719 -0.0970901
427 2 103.349 39.7897 15.8775
428 2 107.326 39.7213 0.20568
429 2 111.18 39.7292 16.0413
430 2 115.177 39.7608 0.341825
431 2 119.119 39.5343 0.116117
432 2 122.995 39.4511 15.8488
433 2 126.946 39.3892 15.8582
434 2 130.935 39.4246 15.866
435 2 134.803 39.4078 0.270867
436 2 138.739 39.385 0.230311
437 2 142.704 39.3469 0.280306
438 2 146.525 39.1087 16.0692
439 2 150.517 39.0095 16.0532
440 2 154.394 39.1084 16.0766
441 2 158.469 43.0529 0.145773
442 2 3.91289 43.1722 0.346589
443 2 7.89135 42.9599 0.431973
444 2 11.7165 42.8996 0.221556
445 2 15.7288 42.7793 0.240764
446 2 19.5639 42.8031 0.121196
447 2 23.4074 42.6655 0.216241
448 2 27.3858 42.6823 0.0873082
449 2 31.2208 42.821 -0.0843866
450 2 35.386 42.9589 -0.0647414
451 2 39.416 43.1882 -0.055765
452 2 43.3602 43.0695 0.14123
453 2 47.4596 43.0808 0.26619
454 2 51.3288 43.3104 0.161693
455 2 55.294 43.3929 15.8563
456 2 59.338 43.1335 15.9171
457 2 63.2433 43.3989 0.0454542
458 2 67.1583 43.2943 15.9463
459 2 71.2563 43.3202 -0.0352957
460 2 75.2056 43.4037 15.9075
461 2 79.3162 43.319 15.926
462 2 83.3572 43.5356 0.188337
463 2 87.2955 43.4312 0.37482
464 2 91.432 43.6977 0.160742
465 2 95.3163 43.6603 15.7804
466 2 99.2719 43.4088 15.9354
467 2 103.407 43.7906 15.9075
468 2 107.356 43.7646 15.711
469 2 111.172 43.6071 15.8812
470 2 115.239 43.6559 15.9228
471 2 119.044 43.4458 15.9401
472 2 122.998 43.6864 15.8424
473 2 127.149 43.4692 15.8635
474 2 131.011 43.5054 0.109801
475 2 134.729 43.5355 0.239751
476 2 138.952 43.2579 0.23243
477 2 142.777 43.3691 15.9188
478 2 146.414 43.0047 15.8494
479 2 150.423 43.0696 15.9786
480 2 154.39 43.2193 0.216433
481 2 158.265 46.9141 -0.0104573
482 2 3.85094 47.1089 0.00383133
483 2 7.64839 46.9612 0.228536
484 2 11.69 46.8977 15.8476
485 2 15.9574 46.9454 0.219485
486 2 19.6008 46.7665 15.8621
487 2 23.3744 46.6802 -0.00487804
488 2 27.3793 46.9171 0.301306
489 2 31.3338 46.5371 0.0396717
490 2 35.2099 46.8192 -0.164776
491 2 39.1227 47.1257 15.9089
492 2 43.2865 46.7691 0.301474
493 2 47.2855 47.048 0.104453
494 2 51.3172 47.1309 0.232981
495 2 55.2893 47.2802 0.0744949
496 2 59.272 47.1173 15.9595
497 2 63.2471 47.2951 16.0679
498 2 67.2199 47.2582 0.132613
499 2 71.1814 47.1385 0.40468
500 2 75.2333 47.4662 0.269783
501 2 79.2929 47.3835 15.9663
502 2 83.2178 47.3879 0.307108
503 2 87.2205 47.42 0.261908
504 2 91.2716 47.3516 0.0204808
505 2 95.2116 47.5784 15.867
506 2 99.1253 47.3282 15.9291
507 2 103.35 47.6744 0.0673585
508 2 107.33 47.751 0.331703
509 2 111.3 47.6698 15.9351
510 2 115.255 47.8856 15.8479
511 2 119.22 47.5628 0.0526107
512 2 123.083 47.4203 15.6776
513 2 127.143 47.3962 0.269877
514 2 131.049 47.4372 16.0177
515 2 134.835 47.2623 0.236004
516 2 138.647 47.2176 0.189948
517 2 142.825 47.221 0.185846
518 2 146.622 47.116 0.0840914
519 2 150.512 47.0663 15.9856
520 2 154.343 47.2513 16.1828
521 2 158.343 50.9007 -0.0776307
522 2 3.84084 50.9767 16.0694
523 2 7.90712 50.9105 0.260397
524 2 11.6428 50.9244 16.1406
525 2 15.6751 51.074 0.302905
526 2 19.5882 50.9182 0.367488
527 2 23.4693 50.8519 16.0315
528 2 27.3355 50.7316 0.245074
529 2 31.3799 50.6017 -0.0226494
530 2 35.1677 50.6188 0.125792
531 2 39.2127 50.8667 0.204756
532 2 43.2648 50.7857 15.874
533 2 47.048 50.8352 15.7561
534 2 51.286 50.8687 15.6888
535 2 55.2765 51.2481 -0.00561276
536 2 59.2894 51.223 15.8237
537 2 63.1542 51.0955 16.066
538 2 67.2756 51.1602 0.200686
539 2 71.3167 51.2123 15.9639
540 2 75.1065 51.2358 0.0762165
541 2 79.0242 51.3149 0.132116
542 2 83.1847 51.2812 0.094715
543 2 87.1395 51.3684 0.128611
544 2 91.0974 51.2684 0.19462
545 2 95.1165 51.401 15.9574
546 2 99.095 51.2683 15.8954
547 2 103.155 51.5118 15.8822
548 2 107.306 51.6987 -0.0197035
549 2 111.312 51.7191 0.0733076
550 2 115.228 51.5044 0.0988966
551 2 119.35 51.615 15.9228
552 2 123.354 51.6002 0.146307
553 2 127.146 51.4413 15.8461
554 2 130.881 51.5135 0.114502
555 2 134.886 51.3457 16.0307
556 2 138.737 51.2206 -0.156236
557 2 142.771 51.2141 15.87
558 2 146.658 51.2079 0.228989
559 2 150.403 51.119 0.190876
560 2 154.451 51.0904 15.9961
561 2 0.00523783 55.0854 0.0452708
562 2 3.90193 55.0324 0.203018
563 2 7.899 54.9368 0.0552602
564 2 11.5692 54.955 0.300783
565 2 15.7847 54.8903 16.0066
566 2 19.62 54.8972 0.350809
567 2 23.4836 55.0864 0.258573
568 2 27.4881 54.7052 16.021
569 2 31.3002 54.724 0.0850065
570 2 35.1649 54.6126 0.297381
571 2 39.1884 54.791 0.284366
572 2 42.9967 54.8693 0.155683
573 2 47.0283 54.6578 0.00910261
574 2 51.0796 54.8689 0.0614188
575 2 55.0823 55.0656 15.9407
576 2 58.966 54.9431 15.8938
577 2 63.2039 55.1041 15.8983
578 2 67.202 55.107 0.122195
579 2 71.0388 55.0906 0.259039
580 2 75.0051 55.1938 16.1993
581 2 79.0494 55.2604 15.8094
582 2 83.0527 55.2424 0.146331
583 2 87.153 55.3599 15.8292
584 2 91.192 55.1196 0.340609
585 2 95.221 55.4156 0.208866
586 2 98.8388 55.2282 15.9637
587 2 103.191 55.3722 0.101317
588 2 107.215 55.5468 -0.0142415
589 2 111.142 55.5396 15.9903
590 2 115.289 55.6996 0.0750942
591 2 119.283 55.395 15.9024
592 2 123.166 55.5932 -0.0561796
593 2 126.954 55.3117 0.244052
594 2 130.979 55.4677 16.0928
595 2 134.799 55.5166 16.0119
596 2 138.97 55.3624 16.2587
597 2 142.765 55.0321 0.039997
598 2 146.604 55.2249 0.207053
599 2 150.362 55.0141 0.1322
600 2 154.465 54.96 0.343021
601 2 158.431 58.9827 0.175731
602 2 3.75075 59.2327 15.9149
603 2 7.90716 58.9766 0.50065
604 2 11.7508 58.8335 16.0163
605 2 15.699 58.856 16.0062
606 2 19.5267 58.8897 0.0993658
607 2 23.5675 58.8851 0.220865
608 2 27.4666 58.7836 0.187741
609 2 31.3774 58.8956 0.41275
610 2 35.3399 58.7376 16.1864
611 2 39.0814 58.6532 0.308244
612 2 42.9279 58.7183 0.357258
613 2 46.8607 58.7766 0.118466
614 2 51.1015 58.7957 0.194499
615 2 54.9629 58.9443 15.8319
616 2 59.1278 58.9707 15.7984
617 2 63.0616 58.8281 15.8113
618 2 66.7367 59.1474 15.9551
619 2 70.9051 59.0385 16.0423
620 2 74.9377 59.2244 16.0623
621 2 79.2655 59.1418 0.117794
622 2 83.0692 59.1455 0.0425373
623 2 87.2749 59.128 0.158224
624 2 91.0629 59.0547 0.317502
625 2 94.9605 59.328 0.183547
626 2 99.1946 59.4521 15.8558
627 2 103.029 59.1646 0.130059
628 2 106.865 59.3828 0.177387
629 2 111.088 59.3324 15.9366
630 2 115.064 59.6547 16.0938
631 2 119.27 59.1853 15.8265
632 2 123.169 59.44 15.7244
633 2 127.064 59.5863 0.187146
634 2 130.833 59.3709 15.8776
635 2 134.905 59.3245 16.2382
636 2 138.78 59.3023 16.0103
637 2 142.848 59.2691 0.0692215
638 2 146.583 59.2539 0.341986
639 2 150.6 59.3005 0.338723
640 2 154.319 58.8866 0.0902058
641 2 -0.031001 62.9861 0.316917
642 2 4.29698 63.074 0.0502992
643 2 7.97779 62.7738 16.0096
644 2 11.8177 62.754 15.9675
645 2 15.6526 63.0774 0.234633
646 2 19.562 62.826 0.0849446
647 2 23.5746 62.7437 0.163852
648 2 27.3912 62.7214 0.190698
649 2 31.3336 62.8028 0.0244495
650 2 35.1698 62.6478 0.126755
651 2 39.0154 62.8117 0.40295
652 2 42.9861 62.6523 15.7687
653 2 46.8986 62.5556 15.9225
654 2 50.7791 62.6915 0.0819927
655 2 55.031 62.8382 -0.053172
656 2 59.0756 62.9105 15.8893
657 2 63.0205 62.8761 0.0611485
658 2 67.0472 63.0829 15.9724
659 2 70.9782 63.0526 15.6697
660 2 75.1044 62.8822 0.234075
661 2 79.1925 63.0481 15.9411
662 2 83.0894 63.1609 0.0577819
663 2 87.0235 63.0101 15.9965
664 2 91.0664 63.1803 15.9321
665 2 95.0395 63.1392 15.7957
666 2 98.9894 63.2514 15.8556
667 2 103.025 63.2229 0.15091
668 2 107.13 63.1384 15.9953
669 2 111.279 63.3137 15.9686
670 2 115.195 63.3972 0.127988
671 2 119.24 63.3988 0.319383
672 2 123.035 63.3894 0.180767
673 2 127.144 63.4674 16.1055
674 2 131.044 63.3292 0.087841
675 2 134.944 63.2095 15.9151
676 2 138.86 63.1055 0.141835
677 2 142.732 63.1749 15.8956
678 2 146.54 63.1877 0.0167394
679 2 150.648 63.2668 0.23164
680 2 154.487 63.1991 0.073418
681 2 0.143192 67.0337 0.234982
682 2 4.01756 66.9871 0.181877
683 2 8.03886 66.869 15.9474
684 2 11.8937 66.9439 15.9362
685 2 15.7257 66.8241 0.161041
686 2 19.6893 66.9026 0.251793
687 2 23.5973 66.6714 0.273666
688 2 27.4899 66.8279 0.269093
689 2 31.3555 66.6087 0.25639
690 2 35.2523 66.7551 15.9777
691 2 39.2741 66.8194 16.1924
692 2 43.0941 66.9736 15.5748
693 2 46.901 66.7876 16.0957
694 2 50.751 66.7104 0.135157
695 2 54.7268 66.7792 15.7798
696 2 58.952 66.7136 15.8397
697 2 62.9233 66.8775 0.121095
698 2 66.8723 66.8583 15.9318
699 2 71.0086 66.8331 0.0856211
700 2 75.025 66.9752 0.217335
701 2 78.9872 66.8636 16.0658
702 2 83.026 66.8186 16.1819
703 2 87.24 66.9951 16.0202
704 2 90.95 67.0645 0.0536616
705 2 95.0118 66.9703 15.9684
706 2 98.9923 67.2493 15.8415
707 2 103.062 67.2035 0.0506658
708 2 106.99 67.0902 0.180665
709 2 111.068 67.2039 15.9541
710 2 114.818 67.3904 15.9958
711 2 119.137 67.3016 0.166653
712 2 122.929 67.3324 15.8503
713 2 127.075 67.3727 0.110517
714 2 130.9 67.345 0.259865
715 2 134.715 67.2868 15.6054
716 2 138.971 67.0843 -0.00953953
717 2 142.676 67.1809 16.076
718 2 146.768 67.0827 15.9379
719 2 150.683 66.9389 0.248878
720 2 154.466 67.1258 0.095016
721 2 158.454 71.0704 15.7534
722 2 3.81926 70.9414 0.214193
723 2 7.86041 70.8227 0.115317
724 2 11.9387 70.898 0.228603
725 2 15.8383 71.0818 15.7662
726 2 19.6257 70.9894 -0.0473179
727 2 23.5475 70.7757 0.12058
728 2 27.6658 70.7496 0.149877
729 2 31.5023 70.7307 0.135186
730 2 35.0805 70.7233 0.113793
731 2 39.0519 70.8779 0.345051
732 2 43.0928 70.7279 0.0210157
733 2 47.0326 70.5673 15.9582
734 2 50.9361 70.8579 0.249395
735 2 54.952 70.5643 15.7443
736 2 58.7587 70.664 15.7255
737 2 63.0257 70.7346 15.8209
738 2 67.1184 70.7691 15.8006
739 2 70.8839 70.6121 0.31346
740 2 75.0077 70.9608 15.8693
741 2 79.0672 70.7234 0.335349
742 2 82.9124 70.8339 0.283588
743 2 87.1253 70.9903 16.1623
744 2 91.0985 71.0836 15.96
745 2 95.0327 70.8942 15.92
746 2 99.1553 71.2808 16.1552
747 2 103.098 71.1049 16.2398
748 2 107.007 71.0839 0.266062
749 2 111.08 71.1897 0.0477573
750 2 115.08 71.2983 -0.0210289
751 2 119.145 71.2754 0.355963
752 2 123.005 71.4783 15.8255
753 2 127.228 71.2767 0.10655
754 2 131.114 71.2122 0.0638301
755 2 134.959 71.405 0.190938
756 2 138.838 71.2115 15.9425
757 2 142.858 71.1434 15.6686
758 2 146.751 71.2368 15.8877
759 2 150.575 71.1755 0.146877
760 2 154.567 71.1678 0.129369
761 2 0.279489 75.0847 15.9554
762 2 4.12534 75.0233 16.008
763 2 7.9021 74.8351 0.220803
764 2 11.7218 74.8787 0.177413
765 2 15.7617 74.9088 16.0045
766 2 19.9194 74.9099 0.244648
767 2 23.5474 74.7775 0.12583
768 2 27.3391 74.7492 0.146705
769 2 31.2946 74.8387 0.170058
770 2 35.1945 74.8303 0.190669
771 2 39.1746 74.9112 0.235954
772 2 43.1206 74.6827 0.0989452
773 2 47.1633 74.6331 0.158883
774 2 50.9646 74.5722 15.9356
775 2 54.5904 74.598 15.9752
776 2 58.7591 74.6897 15.8842
777 2 62.8554 74.6216 15.8645
778 2 66.8617 74.5866 15.6669
779 2 70.977 74.5962 0.249986
780 2 75.0142 74.725 0.0412279
781 2 79.0397 74.6901 0.224168
782 2 82.9634 74.6326 16.0264
783 2 87.0296 74.8528 15.8154
784 2 90.9602 74.8565 0.255179
785 2 95.009 74.793 15.9753
786 2 98.9278 75.1241 15.8257
787 2 102.959 74.9501 15.7837
788 2 107.141 75.014 0.250355
789 2 110.884 74.8917 0.181608
790 2 115.138 74.9983 0.141676
791 2 119.009 75.0612 0.15372
792 2 123.048 75.3016 0.128358
793 2 126.937 75.0713 15.9837
794 2 131.01 75.2072 15.7194
795 2 134.849 75.1851 0.176222
796 2 138.848 75.0877 15.8484
797 2 142.616 75.2819 15.9324
798 2 146.795 75.2357 16.0907
799 2 150.669 75.3861 15.819
800 2 154.701 75.1107 15.7998
801 2 0.0941835 79.0624 0.252365
802 2 4.04521 78.9876 0.258776
803 2 7.99172 78.8434 0.0170442
804 2 11.7551 78.9662 15.8429
805 2 15.7983 78.8142 16.0243
806 2 19.7879 78.8105 0.221247
807 2 23.574 78.7792 0.0280012
808 2 27.5458 78.8058 0.0769141
809 2 31.3345 78.8282 15.8336
810 2 35.1923 78.6924 0.158047
811 2 39.0866 78.7805 0.319398
812 2 42.9843 78.6237 0.211472
813 2 47.2494 78.6026 0.224034
814 2 50.9382 78.7322 0.187313
815 2 54.9751 78.5416 0.185885
816 2 58.823 78.5203 0.267288
817 2 62.8302 78.689 0.111771
818 2 66.8261 78.3818 0.0242722
819 2 70.8574 78.5118 15.9768
820 2 74.885 78.5223 0.334513
821 2 78.9698 78.6023 0.120709
822 2 82.9574 78.7099 15.8584
823 2 86.9646 78.6192 15.8627
824 2 90.9941 78.733 15.9679
825 2 94.9857 78.7615 0.0460292
826 2 98.9549 79.0238 0.214008
827 2 103.087 78.9196 15.7882
828 2 106.743 78.8308 -0.166286
829 2 110.738 79.0541 15.7314
830 2 114.978 78.9558 0.0291906
831 2 118.954 79.0167 0.0843271
832 2 123.062 79.1181 16.0464
833 2 127.072 79.2103 0.0059807
834 2 130.784 79.1537 15.9073
835 2 134.803 79.0584 -0.0559175
836 2 138.945 79.0191 0.221364
837 2 142.798 79.4314 15.7949
838 2 146.694 79.1138 15.8043
839 2 150.724 79.2157 15.9035
840 2 154.682 79.1195 0.0237703
841 2 0.188928 83.0707 -0.0111002
842 2 3.9983 82.9113 15.9217
843 2 8.08449 83.0506 0.0763403
844 2 11.8895 82.8424 16.0055
845 2 15.7962 82.9336 15.898
846 2 19.6682 82.823 -0.0385982
847 2 23.656 82.8092 0.279844
848 2 27.4618 82.7411 0.0408317
849 2 31.4137 82.9401 15.8734
850 2 35.4753 82.7638 -0.0679238
851 2 39.2675 82.7128 0.0235056
852 2 43.4368 82.6776 0.201988
853 2 47.243 82.4807 0.0252769
854 2 51.2173 82.5616 0.294601
855 2 55.0168 82.38 0.118331
856 2 59.1358 82.4508 16.052
857 2 62.9081 82.5293 16.005
858 2 66.959 82.3243 15.9624
859 2 70.9297 82.6081 0.381785
860 2 74.874 82.5613 0.451545
861 2 78.9432 82.5073 0.229832
862 2 82.9348 82.5191 15.8454
863 2 86.6107 82.6412 15.8675
864 2 91.0041 82.4855 15.9745
865 2 94.8816 82.8791 15.8255
866 2 98.7278 82.6923 16.0244
867 2 102.935 82.8213 15.8409
868 2 107.053 82.9777 0.225258
869 2 110.954 82.9292 15.8552
870 2 114.983 82.7969 0.351462
871 2 119.052 82.8628 0.228012
872 2 122.988 82.9402 15.9671
873 2 126.924 83.1319 15.967
874 2 130.878 83.2726 15.9105
875 2 134.868 83.1378 -0.0600632
876 2 138.796 83.1347 0.143989
877 2 142.743 83.2921 0.15061
878 2 146.95 83.3655 15.8782
879 2 150.867 83.1942 15.7604
880 2 154.507 83.2396 15.7711
881 2 0.175647 87.0288 0.349076
882 2 4.14929 86.8731 0.0266171
883 2 8.13153 86.8115 0.161496
884 2 11.9791 86.7649 15.9655
885 2 15.9507 86.8244 15.7725
886 2 19.8736 86.8625 0.117347
887 2 23.849 86.7408 0.19395
888 2 27.5676 86.7647 -0.0489146
889 2 31.4929 86.796 15.828
890 2 35.4256 86.6824 -0.00875056
891 2 39.4884 86.7687 0.247427
892 2 43.4219 86.5872 0.273972
893 2 47.4385 86.5994 0.127617
894 2 51.395 86.7049 0.262958
895 2 55.0759 86.5515 0.285013
896 2 59.002 86.4163 0.217452
897 2 62.9411 86.4665 15.8667
898 2 66.7681 86.4831 15.8702
899 2 70.7432 86.265 0.207679
900 2 74.7439 86.4223 16.2531
901 2 78.8848 86.3496 0.260156
902 2 82.8871 86.4214 16.0741
903 2 86.8431 86.5668 0.363118
904 2 90.9083 86.5291 16.0863
905 2 94.935 86.5362 15.9858
906 2 98.9274 86.7407 16.0506
907 2 102.913 86.6433 15.8267
908 2 106.776 87.061 15.8417
909 2 111.016 86.7394 0.143872
910 2 114.828 86.9318 15.9387
911 2 118.787 86.7419 15.9915
912 2 122.838 86.78 16.0163
913 2 126.752 86.8327 16.123
914 2 131.046 87.0584 15.8911
915 2 135.001 87.0881 -0.00356547
916 2 139.046 87.0952 0.0138702
917 2 142.907 86.974 15.9157
918 2 146.777 87.4027 15.9657
919 2 150.937 87.1599 16.0235
920 2 154.872 87.0502 0.132668
921 2 0.33875 91.0275 15.8554
922 2 4.26571 91.1614 15.6886
923 2 8.20254 90.8437 0.153372
924 2 12.0333 90.9323 16.0545
925 2 16.1204 90.9154 15.6121
926 2 19.9038 90.8816 0.0342382
927 2 23.6915 90.7998 15.7839
928 2 27.4646 90.8632 -0.0201408
929 2 31.6414 90.8272 15.8573
930 2 35.46 90.7308 -0.0881642
931 2 39.4006 90.5509 0.114275
932 2 43.4528 90.6157 0.121235
933 2 47.5572 90.4778 0.123648
934 2 51.2746 90.5743 15.9263
935 2 55.1339 90.4027 0.125992
936 2 59.0707 90.424 15.949
937 2 62.8515 90.5674 0.128842
938 2 66.8811 90.4698 0.420043
939 2 70.7667 90.3767 0.303055
940 2 74.6617 90.3099 15.8517
941 2 78.5372 90.2321 16.231
942 2 82.7182 90.2549 15.9482
943 2 86.7902 90.3544 15.7073
944 2 90.7062 90.48 0.286586
945 2 94.7479 90.336 15.8301
946 2 98.8491 90.6809 15.9162
947 2 102.839 90.6072 15.8209
948 2 106.901 90.7001 16.0388
949 2 110.822 90.7352 15.934
950 2 114.843 90.8139 15.7376
951 2 118.902 90.7105 0.180678
952 2 122.915 90.7607 0.249379
953 2 126.763 90.8232 0.0790475
954 2 130.976 90.8698 15.9601
955 2 134.71 91.0545 0.135545
956 2 138.792 90.9674 16.0014
957 2 142.792 90.9313 15.886
958 2 146.828 91.0946 0.475258
959 2 150.77 91.061 16.0192
960 2 154.673 91.0616 15.925
961 2 0.304388 94.7827 15.7442
962 2 4.41719 95.2304 15.9767
963 2 8.31339 94.9778 0.220941
964 2 11.8989 94.8751 15.8306
965 2 15.784 94.9204 15.9082
966 2 19.8493 94.8071 15.9507
967 2 23.8593 94.752 15.8774
968 2 27.8337 94.7148 0.103813
969 2 31.7394 94.7232 15.7365
970 2 35.5668 94.7648 0.114844
971 2 39.5828 94.6673 0.000417168
972 2 43.5515 94.6224 0.183347
973 2 47.3494 94.459 15.9061
974 2 51.1148 94.422 15.9918
975 2 55.2189 94.5541 15.9138
976 2 59.1201 94.4708 0.24283
977 2 62.9948 94.4033 15.9715
978 2 67.1084 94.5123 15.9896
979 2 70.9336 94.4797 0.122328