ITEM: TIMESTEP
20100
ITEM: NUMBER OF ATOMS
32000
ITEM: BOX BOUNDS xy xz yz pp pp pp
0.0000000000000000e+00 1.5831999999999999e+02 0.0000000000000000e+00
0.0000000000000000e+00 1.5831999999999999e+02 0.0000000000000000e+00
1.6226099467725774e-01 1.5935451005322568e+01 0.0000000000000000e+00
ITEM: ATOMS id type x y z
1 2 158.102 157.689 15.7918
2 2 3.8899 157.837 15.995
3 2 7.75092 157.881 0.0530296
4 2 11.6694 157.718 0.0851868
5 2 15.7651 157.932 0.19872
6 2 19.6922 157.922 16.0016
7 2 23.8673 158.067 16.0084
8 2 27.7433 158.117 15.9804
9 2 32.0159 158.161 0.25221
10 2 35.9284 158.154 16.1322
11 2 40.2211 -0.0391941 16.1227
12 2 43.9458 0.073032 0.082269
13 2 47.8208 0.0290791 16.0884
14 2 52.0122 0.151021 0.182211
15 2 56.0096 158.647 0.0763692
16 2 59.8589 158.235 15.7589
17 2 63.8451 -0.010377 15.9249
18 2 67.8034 0.0162884 16.0549
19 2 71.6649 0.0936116 15.9957
20 2 75.5893 158.391 15.8993
21 2 79.4629 -0.0272629 16.0645
22 2 83.4564 158.256 15.8694
23 2 87.5222 158.285 15.7823
24 2 91.2818 158.046 0.0454274
25 2 95.1774 158.116 15.9783
26 2 99.1375 157.904 16.1304
27 2 103.105 158.031 16.1387
28 2 107.051 157.991 16.1431
29 2 110.817 157.859 0.124931
30 2 114.729 158.029 0.274383
31 2 118.605 157.947 15.8955
32 2 122.471 157.962 0.200606
33 2 126.361 157.768 0.0711206
34 2 130.295 157.644 0.221013
35 2 134.08 157.757 16.0331
36 2 138.182 157.643 16.0089
37 2 142.026 157.626 16.0857
38 2 146.178 157.704 16.0143
39 2 150.19 157.694 0.0436056
40 2 154.253 157.763 -0.0294496
41 2 158.138 3.42047 16.0463
42 2 3.80246 3.52035 15.8842
43 2 7.62846 3.49004 0.0704747
44 2 11.775 3.3805 15.7005
45 2 15.6542 3.40273 15.9566
46 2 19.8371 3.64784 16.0138
47 2 23.6815 3.60791 -0.0101965
48 2 27.7941 3.6508 0.158298
49 2 31.6642 3.76316 0.213721
50 2 35.7643 3.8087 -0.0157888
51 2 39.8303 3.65415 0.145683
52 2 43.9166 3.84457 15.78
53 2 47.8038 3.96892 15.8748
54 2 51.8437 3.88371 15.8691
55 2 55.8454 3.88632 0.201262
56 2 59.9287 3.92637 15.9384
57 2 63.7734 4.05318 15.9019
58 2 67.801 4.08276 15.7464
59 2 71.7602 4.12953 16.06
60 2 75.7881 4.02621 15.6836
61 2 79.6974 3.93517 15.8537
62 2 83.5576 3.9699 15.8532
63 2 87.4419 3.98436 15.8076
64 2 91.3511 3.75555 -0.0896447
65 2 95.4551 3.9163 15.7548
66 2 99.2282 3.56458 0.207664
67 2 103.168 3.64021 15.8542
68 2 106.823 3.55094 16.0285
69 2 110.844 3.73533 0.0655256
70 2 114.623 3.64928 0.117789
71 2 118.48 3.72997 0.0491646
72 2 122.426 3.48548 -0.175775
73 2 126.348 3.48788 0.13014
74 2 130.274 3.52982 0.1528
75 2 134.242 3.24833 16.0107
76 2 138.172 3.28615 0.298082
77 2 142.208 3.24203 0.205076
78 2 146.15 3.20916 0.110611
79 2 150.228 3.24513 15.8731
80 2 154.038 3.19295 15.9814
81 2 158.077 7.43272 15.9009
82 2 3.65325 7.56692 15.8708
83 2 7.77683 7.35392 15.7656
84 2 11.6955 7.59486 0.164168
85 2 15.7004 7.49246 15.817
86 2 19.7685 7.32744 15.9372
87 2 23.9316 7.57016 0.035879
88 2 27.899 7.51947 15.817
89 2 31.8241 7.45584 15.8979
90 2 35.6932 7.60504 15.8398
91 2 39.8388 7.75987 0.108812
92 2 43.8195 7.84811 0.168086
93 2 47.8646 8.00361 16.1342
94 2 51.7348 7.93527 0.136693
95 2 55.8779 7.88565 16.0406
96 2 59.8404 7.98639 -0.00717304
97 2 63.8829 7.95498 15.8576
98 2 67.9128 7.96399 15.9483
99 2 71.9155 8.01747 16.0509
100 2 75.7554 7.98247 15.9325
101 2 79.6187 7.99811 -0.0486725
102 2 83.6257 8.03754 15.8072
103 2 87.3175 7.93574 15.8778
104 2 91.3463 7.90022 15.9059
105 2 95.2781 7.86801 15.7291
106 2 99.0628 7.86739 0.0574857
107 2 103.16 7.73366 0.24309
108 2 107.005 7.75139 15.8464
109 2 110.888 7.71444 -0.0191467
110 2 114.695 7.64523 16.0285
111 2 118.689 7.74348 15.9269
112 2 122.552 7.60076 15.8908
113 2 126.416 7.56607 15.9198
114 2 130.47 7.64478 0.230312
115 2 134.259 7.20441 -0.0690005
116 2 138.467 7.39895 16.098
117 2 142.334 7.30459 15.9255
118 2 146.1 7.20143 0.0673457
119 2 150.042 7.11595 0.362529
120 2 153.919 7.11562 16.1951
121 2 157.852 11.4088 16.0639
122 2 3.69774 11.3862 15.928
123 2 7.56788 11.4794 15.8346
124 2 11.6987 11.3725 0.190471
125 2 15.7301 11.2494 15.9674
126 2 19.7654 11.5453 15.8923
127 2 23.6386 11.5509 15.826
128 2 27.776 11.6806 15.9094
129 2 31.761 11.6704 15.8545
130 2 35.8844 11.7269 16.0023
131 2 39.9268 11.5026 15.9714
132 2 43.9182 11.6795 0.024836
133 2 47.5916 11.8673 0.240218
134 2 51.5917 11.9092 15.9402
135 2 55.5526 11.8484 0.1542
136 2 59.7511 11.8379 15.9611
137 2 63.8289 12.0144 0.23781
138 2 67.7287 11.8711 15.9438
139 2 71.524 11.9056 15.9528
140 2 75.7189 11.9003 16.0742
141 2 79.6366 11.8964 15.7889
142 2 83.6699 11.9931 15.7575
143 2 87.3787 11.821 -0.138526
144 2 91.3401 11.8048 0.0369233
145 2 95.2105 11.811 15.7519
146 2 99.2001 11.6742 15.778
147 2 103.061 11.8268 0.164551
148 2 106.9 11.726 15.8462
149 2 110.823 11.6892 0.218369
150 2 114.97 11.8268 16.0099
151 2 118.754 11.6157 -0.00327706
152 2 122.692 11.4826 0.115303
153 2 126.543 11.4412 15.8642
154 2 130.502 11.3425 16.0861
155 2 134.205 11.3829 -0.0482696
156 2 138.253 11.2986 0.353925
157 2 142.409 11.4002 0.443514
158 2 146.17 11.133 0.442018
159 2 150.221 11.0379 0.116187
160 2 154.072 11.0402 0.1679
161 2 158.021 15.2258 15.8072
162 2 3.54601 15.2428 15.8532
163 2 7.65715 15.2423 15.9104
164 2 11.6604 15.181 15.8848
165 2 15.5779 15.1842 15.8508
166 2 19.7605 15.2435 0.203399
167 2 23.4975 15.5879 0.117012
168 2 27.6143 15.3595 16.0808
169 2 31.705 15.4719 0.207659
170 2 35.6381 15.5405 15.8398
171 2 39.8557 15.479 0.209728
172 2 43.7227 15.8839 0.118239
173 2 47.6149 15.5454 0.329868
174 2 51.5804 15.7069 0.379456
175 2 55.6838 15.5973 15.9695
176 2 59.6231 15.7618 0.220148
177 2 63.6067 15.8614 16.0233
178 2 67.5356 15.7954 15.9877
179 2 71.7996 15.9864 -0.05518
180 2 75.7248 15.8838 -0.146808
181 2 79.5797 15.9367 15.663
182 2 83.4724 16.0548 -0.111997
183 2 87.6083 15.7612 15.6157
184 2 91.2514 15.8857 0.0641851
185 2 95.3473 15.8193 15.9787
186 2 99.0584 15.7676 15.8784
187 2 103.06 15.8187 15.8398
188 2 106.981 15.6489 16.0222
189 2 110.865 15.6004 15.8421
190 2 114.693 15.671 15.9225
191 2 118.683 15.6321 0.218292
192 2 122.525 15.547 16.0134
193 2 126.599 15.4101 15.8825
194 2 130.366 15.5769 0.104525
195 2 134.312 15.4864 0.242943
196 2 138.196 15.1907 0.137247
197 2 142.328 15.3341 15.941
198 2 146.336 15.1586 0.177524
199 2 150.252 15.0913 0.152805
200 2 154.019 14.9923 15.9861
201 2 157.873 18.901 15.947
202 2 3.46842 19.2256 0.101481
203 2 7.6971 19.1317 -0.0171059
204 2 11.6562 19.1649 15.9935
205 2 15.5283 19.2066 15.9059
206 2 19.5595 19.3498 15.7973
207 2 23.5926 19.4707 15.9511
208 2 27.5128 19.3514 16.0279
209 2 31.5311 19.3652 15.8915
210 2 35.5517 19.2611 15.9942
211 2 39.5864 19.3557 0.278043
212 2 43.486 19.5518 16.1809
213 2 47.3845 19.6711 16.076
214 2 51.6138 19.6883 -0.0386807
215 2 55.3902 19.6182 15.7814
216 2 59.2948 19.7026 15.8153
217 2 63.5192 19.6351 15.74
218 2 67.7427 19.7357 15.786
219 2 71.6434 19.7663 0.000613599
220 2 75.7275 20.0295 -0.106399
221 2 79.6259 20.0057 -0.00167648
222 2 83.6423 20.0666 15.7612
223 2 87.6037 19.8793 -0.031712
224 2 91.6199 19.947 0.0708234
225 2 95.4171 19.8535 15.9309
226 2 99.1581 19.5569 15.8652
227 2 103.124 19.74 16.0151
228 2 107.008 19.7048 15.8547
229 2 110.817 19.6161 0.124018
230 2 114.795 19.661 15.8258
231 2 118.673 19.6674 15.8321
232 2 122.528 19.5248 15.7534
233 2 126.753 19.3551 16.0457
234 2 130.62 19.2671 15.8269
235 2 134.544 19.4861 0.282487
236 2 138.447 19.1766 16.0034
237 2 142.277 19.2472 16.1247
238 2 146.394 19.2224 0.323015
239 2 150.229 19.1818 15.8746
240 2 154.218 18.9734 0.116378
241 2 157.774 22.8012 16.0147
242 2 3.56161 22.9544 15.9301
243 2 7.59281 22.9417 0.0712535
244 2 11.5208 23.2894 0.0768607
245 2 15.3668 23.2458 15.8592
246 2 19.6407 23.2157 15.9822
247 2 23.6418 23.2288 16.0389
248 2 27.4268 23.2278 15.8826
249 2 31.6184 23.221 0.0639675
250 2 35.5891 23.3499 15.9184
251 2 39.3663 23.2584 0.248885
252 2 43.4646 23.4863 15.7855
253 2 47.4939 23.7116 0.19108
254 2 51.4004 23.5096 0.125181
255 2 55.4251 23.6482 -0.0312125
256 2 59.4054 23.7423 15.9432
257 2 63.396 23.4521 0.0585324
258 2 67.4148 23.5765 15.8286
259 2 71.537 23.7785 15.8242
260 2 75.4161 23.8783 0.0574572
261 2 79.3266 23.733 15.9172
262 2 83.4754 23.9194 0.201601
263 2 87.3843 23.8859 15.656
264 2 91.3199 23.7912 16.0536
265 2 95.3155 24.0909 15.9161
266 2 99.2088 23.9286 0.23313
267 2 103.016 23.8831 15.9043
268 2 106.957 23.5601 15.8691
269 2 110.749 23.6585 0.131955
270 2 115.136 23.7418 15.763
271 2 118.856 23.5727 15.7516
272 2 122.602 23.621 0.0659674
273 2 126.746 23.416 15.9346
274 2 130.599 23.2917 16.0064
275 2 134.366 23.3255 15.8752
276 2 138.335 23.2076 16.0541
277 2 142.289 23.1189 16.0204
278 2 146.199 23.2423 0.111796
279 2 150.072 23.0608 0.400478
280 2 154.135 23.0178 -0.0190214
281 2 157.931 26.9741 0.229429
282 2 3.64416 26.7927 0.175875
283 2 7.41928 26.9103 0.00538295
284 2 11.3675 26.976 16.0436
285 2 15.5075 27.041 15.929
286 2 19.5171 27.0095 0.110072
287 2 23.5622 27.1363 15.7991
288 2 27.6235 27.1621 15.8567
289 2 31.5313 27.2053 0.104977
290 2 35.4915 27.2738 0.094399
291 2 39.2871 27.1679 -0.00715582
292 2 43.351 27.3289 0.0882913
293 2 47.4888 27.5181 0.0557781
294 2 51.4047 27.4911 16.0099
295 2 55.4992 27.5995 0.216333
296 2 59.4729 27.5572 16.0551
297 2 63.4827 27.518 16.0742
298 2 67.4156 27.7685 15.9149
299 2 71.2721 27.721 15.9256
300 2 75.3638 27.8388 0.346918
301 2 79.4725 27.6991 0.209405
302 2 83.4389 27.6679 15.8657
303 2 87.3633 27.7136 0.09646
304 2 91.5365 27.8158 0.121566
305 2 95.4156 27.797 0.0188499
306 2 99.503 27.7645 -0.0562265
307 2 103.37 27.7377 15.9386
308 2 107.278 27.8187 -0.0119023
309 2 110.949 27.7542 15.7437
310 2 114.839 27.5861 15.803
311 2 118.79 27.602 0.0356503
312 2 122.828 27.5271 0.13088
313 2 126.68 27.2346 15.8876
314 2 130.601 27.5117 15.7653
315 2 134.671 27.3501 16.0023
316 2 138.338 27.3836 16.0328
317 2 142.108 27.2275 -0.0083061
318 2 146.328 27.1237 0.236565
319 2 150.1 27.2196 0.330276
320 2 154.096 26.9387 0.124361
321 2 158.061 31.0556 16.0734
322 2 3.80688 30.9717 16.0072
323 2 7.56019 31.0023 16.1132
324 2 11.5586 30.9253 0.350089
325 2 15.3836 30.9735 0.470409
326 2 19.4888 31.0953 16.2469
327 2 23.2788 30.8146 15.8414
328 2 27.3871 31.0676 0.118263
329 2 31.3867 31.1937 16.0924
330 2 35.5205 31.1761 15.9953
331 2 39.2831 31.1413 16.0066
332 2 43.255 31.1815 0.196179
333 2 47.3922 31.4099 15.7663
334 2 51.3144 31.4456 0.0677615
335 2 55.4869 31.5145 16.0015
336 2 59.3299 31.4202 0.0950844
337 2 63.266 31.3158 16.0778
338 2 67.2896 31.6279 0.278922
339 2 71.4526 31.7077 0.111348
340 2 75.1724 31.439 0.23767
341 2 79.205 31.5926 15.8611
342 2 83.4467 31.792 0.184526
343 2 87.4227 31.7161 15.9868
344 2 91.3782 31.6072 15.9577
345 2 95.2938 31.9494 16.0452
346 2 99.3182 31.6062 0.222236
347 2 103.097 31.8868 15.8217
348 2 107.203 31.6901 15.8762
349 2 110.957 31.5818 15.7912
350 2 115.12 31.62 15.9014
351 2 118.818 31.5011 15.7697
352 2 122.866 31.327 15.9114
353 2 126.814 31.3775 16.0934
354 2 130.738 31.3485 15.8499
355 2 134.582 31.2581 16.0373
356 2 138.497 31.3728 15.8195
357 2 142.415 31.0094 -0.0103657
358 2 146.31 31.1355 15.9533
359 2 150.261 31.0705 0.191726
360 2 154.161 31.1307 0.0282433
361 2 -0.295553 34.9524 0.137346
362 2 3.6414 34.921 16.1054
363 2 7.62474 35.0768 15.9099
364 2 11.6235 35.0939 15.9611
365 2 15.6785 34.7051 0.122203
366 2 19.3704 34.687 0.342117
367 2 23.2747 34.9653 0.313227
368 2 27.1651 35.0478 0.16723
369 2 31.1732 35.0189 0.185858
370 2 34.9413 35.015 0.177212
371 2 39.2433 35.1778 0.132701
372 2 43.3117 35.0337 15.9021
373 2 47.3272 35.298 16.1051
374 2 51.3248 35.2351 15.993
375 2 55.3506 35.3956 0.255941
376 2 59.2618 35.5038 0.0953623
377 2 63.3146 35.4396 16.0712
378 2 67.2255 35.5617 0.242329
379 2 71.3607 35.5035 0.100541
380 2 75.1573 35.4841 16.0672
381 2 79.32 35.3619 0.141225
382 2 83.2209 35.5606 15.9013
383 2 87.3105 35.644 -0.082361
384 2 91.3662 35.7484 0.0174654
385 2 95.3911 35.7858 15.7726
386 2 99.1996 35.7254 -0.000306594
387 2 103.197 35.6317 15.9306
388 2 107.256 35.7041 15.8684
389 2 110.963 35.6336 15.6574
390 2 114.952 35.6266 15.9057
391 2 118.824 35.5173 15.7732
392 2 122.897 35.2918 15.756
393 2 126.731 35.1319 15.8358
394 2 130.513 35.3526 15.9437
395 2 134.539 35.2744 15.8636
396 2 138.492 35.2457 0.200512
397 2 142.529 35.3314 0.00787772
398 2 146.461 35.2626 -0.0606759
399 2 150.353 35.0961 15.7904
400 2 154.019 34.9972 0.201003
401 2 158.063 39.1375 -0.0210107
402 2 3.879 39.0328 0.256884
403 2 7.60979 39.086 0.102159
404 2 11.5123 38.9 16.0229
405 2 15.3935 38.9063 0.19082
406 2 19.3891 38.9512 16.0436
407 2 23.2672 38.8512 16.1081
408 2 27.2725 39.1697 15.9713
409 2 31.1733 38.9706 0.103999
410 2 35.1923 39.0342 0.216363
411 2 39.2832 39.1944 16.0883
412 2 43.2707 39.0756 0.182389
413 2 47.2282 39.2167 0.270127
414 2 51.3286 39.2452 15.8902
415 2 55.2221 39.3673 0.172808
416 2 59.1914 39.3063 0.0487137
417 2 63.1117 39.3732 -0.100616
418 2 67.0804 39.5048 0.240286
419 2 71.2257 39.4599 -0.0164476
420 2 75.2698 39.3081 0.430495
421 2 79.1538 39.619 0.233458
422 2 83.3459 39.5004 15.9365
423 2 87.4196 39.6125 16.0535
424 2 91.4 39.6311 16.0153
425 2 95.3485 39.5886 15.9957
426 2 99.2975 39.3896 0.0978899
427 2 103.345 39.8329 15.9453
428 2 107.363 39.662 16.0439
429 2 111.128 39.6256 15.837
430 2 115.073 39.6843 15.8943
431 2 118.957 39.4619 15.9311
432 2 122.966 39.4496 15.8837
433 2 126.796 39.3768 0.0561561
434 2 130.65 39.3653 15.8903
435 2 134.626 39.3153 15.8666
436 2 138.619 39.2738 16.014
437 2 142.45 39.3058 15.7968
438 2 146.219 39.177 -0.0296609
439 2 150.32 39.063 16.0497
440 2 154.266 39.1439 16.0917
441 2 158.064 43.0846 0.172067
442 2 3.6683 43.0707 16.0852
443 2 7.75865 43.0417 15.9825
444 2 11.6699 42.8231 0.151993
445 2 15.5962 42.8809 0.0544659
446 2 19.498 42.9195 0.212015
447 2 23.2508 42.859 16.1617
448 2 27.3547 42.9124 16.1994
449 2 31.0356 42.7951 0.114302
450 2 35.1372 42.9497 0.189661
451 2 39.1548 42.9312 0.126177
452 2 43.1471 42.9416 0.320929
453 2 47.1069 43.07 15.8322
454 2 51.2843 43.1291 16.0671
455 2 55.187 43.296 0.135978
456 2 59.2739 43.4146 15.8683
457 2 63.2684 43.0356 0.242649
458 2 67.2005 43.3043 0.0777494
459 2 71.1262 43.4056 0.116568
460 2 75.2968 43.3386 0.138977
461 2 79.1884 43.3745 0.0691323
462 2 83.1984 43.4924 15.9677
463 2 87.3362 43.5149 15.8719
464 2 91.3294 43.3293 0.0963619
465 2 95.1094 43.6273 0.381604
466 2 99.2798 43.4642 16.0755
467 2 103.154 43.4982 15.7918
468 2 107.285 43.6303 15.8912
469 2 110.934 43.5648 15.7929
470 2 115.22 43.6426 15.9015
471 2 119.027 43.492 15.8598
472 2 122.868 43.3793 15.892
473 2 126.982 43.6706 -0.0323356
474 2 130.92 43.4482 0.0303381
475 2 134.788 43.2853 15.9349
476 2 138.44 43.4305 15.9453
477 2 142.572 43.1923 16.015
478 2 146.335 43.2863 -0.00231202
479 2 150.344 42.9193 0.117669
480 2 154.184 42.9273 0.0840817
481 2 -0.202376 46.9338 0.0892956
482 2 3.76767 46.8624 0.297382
483 2 7.74839 46.9201 0.26547
484 2 11.5013 47.0511 0.172129
485 2 15.3509 46.9266 0.111838
486 2 19.5775 46.9577 0.0994722
487 2 23.1402 46.8632 0.42589
488 2 27.3228 46.9033 16.0972
489 2 31.0656 46.9081 0.0862586
490 2 35.001 47.0205 0.227119
491 2 39.2162 46.9319 16.0718
492 2 43.1205 46.8781 16.1115
493 2 47.1036 46.9236 0.313541
494 2 51.0658 46.9334 15.9832
495 2 55.1012 47.245 15.9098
496 2 59.1478 47.145 15.84
497 2 63.1532 47.1885 0.195457
498 2 67.1551 47.1154 0.142132
499 2 71.2282 47.4334 15.9575
500 2 75.2227 47.378 0.438136
501 2 79.2589 47.3288 16.0866
502 2 83.3879 47.3841 16.1122
503 2 87.3126 47.3473 0.12887
504 2 91.299 47.3699 0.0194265
505 2 95.3034 47.3697 0.0709193
506 2 99.325 47.6075 0.101147
507 2 103.193 47.4585 0.248139
508 2 107.349 47.5995 15.8395
509 2 111.36 47.5906 15.9011
510 2 115.157 47.4698 0.198554
511 2 119.083 47.6112 15.7271
512 2 123.114 47.4876 15.8473
513 2 126.942 47.5883 15.7092
514 2 130.925 47.5499 15.7448
515 2 134.644 47.5093 15.9279
516 2 138.664 47.4056 16.0394
517 2 142.674 47.2065 16.0097
518 2 146.642 47.2486 0.0487395
519 2 150.396 47.0318 0.265668
520 2 154.215 47.0209 16.0988
521 2 158.277 51.0425 0.183778
522 2 3.74407 51.0608 15.8748
523 2 7.56665 50.983 16.0063
524 2 11.8311 50.9743 16.0424
525 2 15.7123 51.0055 0.187001
526 2 19.5635 50.8211 15.9439
527 2 23.3714 50.7858 16.1047
528 2 27.2884 50.7314 15.9225
529 2 31.2023 50.9956 0.168739
530 2 35.2048 50.9281 0.209529
531 2 39.1036 50.7168 15.9053
532 2 42.9289 50.6705 15.8378
533 2 47.1468 50.7251 -0.0253673
534 2 51.1205 51.0687 0.0693483
535 2 55.0748 51.0751 0.0766654
536 2 58.9769 50.913 16.0185
537 2 63.086 51.1391 16.0638
538 2 67.1467 51.0608 0.153234
539 2 71.1076 51.1922 0.324047
540 2 75.2501 51.1522 0.324326
541 2 79.2003 51.2294 0.315939
542 2 83.1694 51.2982 0.200289
543 2 87.2605 51.1648 0.0846973
544 2 91.2611 51.3597 0.164328
545 2 95.2924 51.4441 0.223071
546 2 99.1179 51.3156 0.315387
547 2 103.28 51.4426 15.887
548 2 107.216 51.5591 0.211484
549 2 111.319 51.6527 0.0774814
550 2 115.313 51.3755 15.8608
551 2 119.383 51.5967 15.918
552 2 123.285 51.5568 15.8824
553 2 126.997 51.4838 15.9239
554 2 130.814 51.4303 0.00114197
555 2 134.747 51.3947 -0.131181
556 2 138.74 51.1434 0.215218
557 2 142.72 51.1235 0.200347
558 2 146.452 51.1139 16.0731
559 2 150.34 51.2207 0.284006
560 2 154.403 50.9229 0.0526231
561 2 158.273 55.0552 0.128836
562 2 3.96207 54.9175 0.190152
563 2 7.85154 54.9876 0.343839
564 2 11.7265 54.8229 0.15749
565 2 15.4953 54.8617 0.225641
566 2 19.4276 54.9231 15.763
567 2 23.4779 54.7583 15.8076
568 2 27.3258 54.7918 15.9018
569 2 31.4131 54.8691 0.23246
570 2 35.3364 54.7784 0.119598
571 2 39.2666 54.8495 16.0238
572 2 43.0158 54.8577 16.0792
573 2 46.8028 54.8349 0.0545764
574 2 51.1472 54.6988 15.7296
575 2 55.0512 54.8155 16.1418
576 2 59.1054 54.8317 15.9313
577 2 63.1895 54.8779 15.9095
578 2 67.1453 55.0164 -0.031617
579 2 71.1677 55.1158 0.172701
580 2 75.0457 55.2312 16.0648
581 2 78.9021 55.3682 0.351195
582 2 83.0331 55.1301 0.106833
583 2 87.2465 55.236 0.129992
584 2 91.0849 55.4628 15.9479
585 2 95.0354 55.4202 0.0742829
586 2 99.3118 55.2992 16.2112
587 2 103.172 55.4359 15.9395
588 2 107.25 55.4704 0.158888
589 2 111.316 55.6525 15.756
590 2 115.353 55.3615 15.9361
591 2 119.228 55.6438 16.0055
592 2 123.244 55.5943 0.0771842
593 2 126.949 55.3257 15.9198
594 2 130.855 55.3662 16.0311
595 2 135.044 55.4042 0.427246
596 2 138.84 55.2325 15.8266
597 2 142.755 55.367 0.383334
598 2 146.541 55.098 0.086325
599 2 150.616 55.003 0.136286
600 2 154.593 55.0192 15.749
601 2 158.49 59.0276 0.139319
602 2 3.99288 58.8705 16.0232
603 2 7.93545 58.9453 15.9456
604 2 11.716 58.9736 0.128252
605 2 15.6792 58.9232 16.0145
606 2 19.517 58.8071 0.117553
607 2 23.4052 59.0729 0.11053
608 2 27.3999 58.9666 0.169677
609 2 31.3575 58.6528 15.9519
610 2 35.198 58.9659 16.0983
611 2 39.0928 58.8737 16.1453
612 2 42.9399 58.8266 15.8363
613 2 47.1465 58.7934 15.8177
614 2 51.0762 58.6492 15.9947
615 2 55.1315 58.9277 16.0672
616 2 58.8903 58.8406 0.292992
617 2 63.0566 58.976 16.0964
618 2 67.1453 58.9796 0.145886
619 2 71.1862 59.002 15.8135
620 2 75.0444 59.2116 0.340287
621 2 79.1073 59.2753 0.242999
622 2 82.9542 59.0794 0.0645971
623 2 86.9171 59.1952 16.0392
624 2 91.1063 59.3571 15.9985
625 2 95.0516 59.2913 0.208786
626 2 99.1055 59.1813 0.133561
627 2 103.348 59.2404 15.9863
628 2 107.397 59.2491 0.301743
629 2 111.273 59.4317 15.9424
630 2 115.494 59.1345 15.8857
631 2 119.283 59.3846 15.9214
632 2 123.287 59.4802 0.0800999
633 2 127.112 59.6138 15.7335
634 2 131.093 59.3922 0.281678
635 2 134.884 59.3261 16.1714
636 2 138.829 59.3219 0.175752
637 2 142.693 59.243 0.0980409
638 2 146.656 59.2375 0.301814
639 2 150.489 59.0776 16.014
640 2 154.706 59.1876 0.223281
641 2 0.250543 63.0367 0.0425677
642 2 4.08624 63.0276 0.201375
643 2 8.02377 63.1508 16.0671
644 2 11.8091 63.0812 15.9167
645 2 15.7267 62.8341 15.8428
646 2 19.7197 62.8888 0.130496
647 2 23.4471 62.9022 0.305692
648 2 27.5086 62.8105 0.0464221
649 2 31.2063 62.6973 0.195603
650 2 35.0667 62.9554 0.0722152
651 2 39.162 62.7968 15.865
652 2 42.9084 62.7745 0.142639
653 2 46.6871 62.8419 15.8786
654 2 51.0332 62.5522 15.8741
655 2 55.1288 62.6825 0.152537
656 2 58.9714 62.8548 15.9522
657 2 62.9419 62.8582 0.34242
658 2 66.7634 63.1477 15.951
659 2 70.8066 62.9922 0.258311
660 2 74.9074 63.1504 0.0280767
661 2 79.0287 63.0742 0.212927
662 2 83.1782 62.9151 0.281403
663 2 87.215 63.1269 15.9625
664 2 91.2086 63.06 16.0286
665 2 94.9167 63.0026 0.372736
666 2 99.2731 63.1643 0.0733922
667 2 103.247 63.1499 16.0113
668 2 107.101 63.2749 15.8602
669 2 111.177 63.2256 15.7611
670 2 115.061 63.2369 0.349606
671 2 119.026 63.1613 15.777
672 2 123.248 63.3992 0.0666909
673 2 127.2 63.5599 15.8876
674 2 131.175 63.2786 0.00902608
675 2 134.841 63.2195 16.0835
676 2 138.678 63.2385 15.9693
677 2 142.739 63.1151 15.8776
678 2 146.745 63.0678 0.270473
679 2 150.642 62.9607 15.9043
680 2 154.65 63.1664 0.0672907
681 2 0.144207 67.0689 0.27371
682 2 4.10866 67.0766 0.246416
683 2 8.06706 67.2308 16.0235
684 2 11.873 67.1891 15.9718
685 2 15.7401 67.1374 0.0954146
686 2 19.712 66.9504 0.148578
687 2 23.6291 66.9742 0.205354
688 2 27.5716 66.7315 0.298099
689 2 31.3732 66.9377 0.189543
690 2 35.3235 66.7155 0.108948
691 2 39.3391 66.7301 15.7947
692 2 43.2745 66.6935 0.245703
693 2 47.0038 66.66 15.7756
694 2 51.0046 66.4747 16.0319
695 2 54.9497 66.4024 15.8822
696 2 58.964 66.917 15.885
697 2 63.0159 66.9291 16.1143
698 2 67.0723 66.9278 15.8858
699 2 70.8367 66.8465 0.201028
700 2 74.9463 66.8865 15.8579
701 2 78.9699 66.8995 16.056
702 2 82.9727 66.9714 0.362871
703 2 87.0305 67.0285 15.9567
704 2 91.171 66.9401 15.9789
705 2 95.0895 67.0463 -0.0241418
706 2 99.1343 66.9976 0.0158344
707 2 103.149 67.0474 0.093319
708 2 107.095 67.1563 15.9653
709 2 111.25 67.2213 15.8071
710 2 115.209 67.4281 15.8022
711 2 119.272 67.2452 0.216832
712 2 123.194 67.3068 0.131972
713 2 127.21 67.3624 0.292334
714 2 131.216 67.4065 16.0329
715 2 134.892 67.2956 0.208878
716 2 138.925 67.2531 0.243037
717 2 143.029 67.1153 15.8929
718 2 146.667 67.1197 16.0554
719 2 150.496 67.2497 15.8954
720 2 154.61 66.9679 0.127836
721 2 0.168301 71.1758 0.131806
722 2 4.16877 71.0556 15.9593
723 2 8.06145 71.1136 0.0983307
724 2 11.9646 71.0942 15.8511
725 2 15.9103 71.1374 0.0781061
726 2 19.884 70.9137 0.162137
727 2 23.6601 71.1386 0.196087
728 2 27.552 71.0018 16.0278
729 2 31.4763 70.8894 0.0288241
730 2 35.3555 70.7701 0.470938
731 2 39.3113 70.7401 15.9554
732 2 43.379 70.7266 0.070691
733 2 47.4491 70.6394 15.8919
734 2 51.1961 70.4127 15.9471
735 2 54.9905 70.5689 0.208221
736 2 58.8564 70.4885 0.19016
737 2 62.9555 70.5851 0.262773
738 2 66.8834 70.8443 16.1447
739 2 70.7792 70.7321 15.9536
740 2 75.0282 70.9311 15.9166
741 2 79.0502 70.9225 0.0886347
742 2 82.9746 70.8657 0.287011
743 2 87.0848 70.7996 15.9772
744 2 91.0548 70.8669 15.8814
745 2 95.02 70.9707 15.9636
746 2 98.8518 70.8617 15.8969
747 2 103.039 71.1027 15.7648
748 2 107.088 70.902 16.2408
749 2 111.19 71.003 15.9747
750 2 115.064 71.2083 -0.00471132
751 2 119.246 71.1866 15.8348
752 2 123.115 71.3872 0.299772
753 2 127.09 71.2347 16.0091
754 2 131.198 71.3219 16.0404
755 2 135.054 71.2599 15.8594
756 2 138.914 71.2036 15.8656
757 2 142.809 71.202 0.0675416
758 2 146.848 71.0216 0.210729
759 2 150.826 71.2693 0.13847
760 2 154.597 71.0913 15.7038
761 2 0.253144 75.0456 0.0823248
762 2 4.11955 75.1459 15.9987
763 2 8.11729 75.3464 15.7078
764 2 12.0583 75.1673 15.8509
765 2 15.941 75.1709 15.8671
766 2 19.753 75.0988 15.9876
767 2 23.7369 75.0199 16.0937
768 2 27.6263 74.8791 15.8894
769 2 31.4397 74.7605 0.2815
770 2 35.4051 74.8411 16.0215
771 2 39.4626 74.6044 16.1154
772 2 43.319 74.6924 0.230716
773 2 47.1778 74.4775 15.9195
774 2 51.0766 74.5136 0.175135
775 2 54.9865 74.4673 15.9621
776 2 58.9509 74.5288 15.9244
777 2 62.8716 74.5709 15.8878
778 2 67.0036 74.7313 -0.117379
779 2 70.7832 74.5971 0.20043
780 2 74.7933 74.6368 0.251121
781 2 78.867 74.7253 -0.002334
782 2 82.9927 74.6745 0.197496
783 2 86.8901 74.7394 0.186342
784 2 91.0959 74.7723 15.8186
785 2 94.8661 74.7929 15.9423
786 2 99.1529 74.7284 0.176675
787 2 103.052 74.8203 16.0234
788 2 107.031 74.9141 15.847
789 2 110.972 75.1018 15.7913
790 2 115.023 75.0669 15.8632
791 2 119.035 75.0288 0.158561
792 2 123.153 75.0881 16.0502
793 2 127.221 75.286 15.8779
794 2 130.972 75.2331 0.290341
795 2 135.065 75.1319 15.8853
796 2 139.017 75.291 16.1258
797 2 142.702 74.9525 15.9291
798 2 146.852 75.1574 16.0683
799 2 150.838 75.0643 0.176143
800 2 154.681 75.1319 0.116803
801 2 0.27446 79.184 0.0976389
802 2 4.0709 79.0305 15.9395
803 2 7.95786 79.1409 0.214279
804 2 12.0022 79.1532 0.142359
805 2 16.1146 79.3694 16.0562
806 2 19.8261 79.1051 15.9536
807 2 23.8025 78.9569 0.275564
808 2 27.4759 78.9733 0.0948784
809 2 31.4097 78.7412 0.171879
810 2 35.5991 78.7094 0.158949
811 2 39.3845 78.6638 15.9502
812 2 43.4403 78.6315 15.996
813 2 47.3329 78.6153 15.904
814 2 51.1044 78.5934 0.169213
815 2 54.9661 78.7486 0.221461
816 2 58.8966 78.7609 16.1154
817 2 62.9593 78.5863 15.8171
818 2 66.723 78.4992 0.110943
819 2 70.8902 78.6983 15.8262
820 2 74.9653 78.7051 0.040126
821 2 78.9923 78.7619 15.7904
822 2 82.9383 78.5777 15.7416
823 2 86.9454 78.7254 -0.00416568
824 2 90.9844 78.7608 -0.0570189
825 2 94.8468 78.7867 0.105219
826 2 98.7761 78.6441 15.8217
827 2 102.769 78.7574 15.5034
828 2 106.98 78.7715 0.170942
829 2 110.958 78.8698 0.180682
830 2 115.015 78.8453 0.146163
831 2 118.943 78.7792 0.0771797
832 2 123.08 79.1198 16.0306
833 2 127.046 79.1311 0.288518
834 2 131.107 79.0622 15.9626
835 2 135.104 79.1742 0.156466
836 2 139.046 79.3887 16.034
837 2 142.804 79.1574 15.9914
838 2 146.965 79.3321 15.7729
839 2 150.897 79.3804 15.9579
840 2 154.881 79.1468 0.270674
841 2 0.266844 83.1322 16.0835
842 2 4.28503 83.3522 15.7712
843 2 8.28426 83.0436 0.051775
844 2 11.9678 83.1919 15.8002
845 2 15.8604 83.0721 15.8503
846 2 19.8193 83.0721 0.00915494
847 2 23.6834 82.7836 15.9278
848 2 27.6734 82.9163 0.199167
849 2 31.733 82.7755 16.0028
850 2 35.6055 82.7253 0.0809864
851 2 39.4982 82.6713 0.179
852 2 43.4858 82.6384 15.9232
853 2 47.3577 82.7501 0.267453
854 2 51.0718 82.5993 -0.0302042
855 2 55.1095 82.7707 0.128284
856 2 59.026 82.63 16.081
857 2 63.028 82.461 15.9934
858 2 66.9165 82.4398 15.8671
859 2 70.7893 82.4244 15.9162
860 2 74.9111 82.589 15.9629
861 2 78.9289 82.5216 15.9178
862 2 82.8706 82.6475 0.190922
863 2 87.0251 82.5323 0.267349
864 2 90.8727 82.7395 16.0124
865 2 94.8389 82.6398 0.116962
866 2 98.8383 82.8338 15.7999
867 2 103.005 82.5238 0.354632
868 2 106.668 82.6962 15.8025
869 2 110.763 82.9282 16.0192
870 2 114.828 82.961 15.9636
871 2 118.854 82.9807 15.928
872 2 122.858 82.9119 16.1446
873 2 127.19 83.0634 15.9546
874 2 131.091 82.9873 15.9962
875 2 135.13 83.1394 -0.00829001
876 2 139.08 83.035 15.8034
877 2 142.985 83.2602 -0.0217366
878 2 146.86 83.3053 15.863
879 2 150.764 83.2224 0.199864
880 2 154.735 83.1772 0.143367
881 2 0.462402 87.3215 15.9465
882 2 4.22274 87.1785 0.126795
883 2 8.18418 87.2212 15.9128
884 2 12.097 87.2333 15.9192
885 2 16.1529 87.0395 15.9192
886 2 19.9657 87.0678 16.124
887 2 23.9833 87.0139 15.9561
888 2 27.8999 86.8385 0.166348
889 2 31.9467 86.8945 16.0357
890 2 35.6821 86.9919 0.316032
891 2 39.4475 86.7532 16.2253
892 2 43.4256 86.7739 16.0559
893 2 47.4238 86.6632 15.9569
894 2 51.2439 86.8262 15.8528
895 2 54.9592 86.5927 15.936
896 2 58.9618 86.6265 0.186721
897 2 62.8596 86.5551 0.288458
898 2 66.8314 86.3363 15.8934
899 2 70.8475 86.2896 0.139565
900 2 74.8538 86.4649 15.9209
901 2 78.6902 86.4582 0.158309
902 2 82.817 86.4973 0.0888871
903 2 86.7023 86.3767 16.0599
904 2 90.8309 86.5143 16.0436
905 2 94.6191 86.4419 15.8769
906 2 98.8925 86.508 15.8732
907 2 102.925 86.6733 0.174138
908 2 107.018 86.5253 0.124603
909 2 110.843 86.7663 16.0448
910 2 114.871 86.8617 0.166911
911 2 118.948 86.8631 0.271114
912 2 122.925 86.8773 0.153516
913 2 126.821 86.8604 15.9607
914 2 130.916 86.9386 15.8462
915 2 134.849 86.9932 15.7738
916 2 138.88 87.0284 15.9422
917 2 142.885 87.2564 15.8181
918 2 146.735 87.2074 0.339295
919 2 150.843 87.3137 16.0451
920 2 154.645 87.1063 16.0557
921 2 0.412229 90.9773 0.269068
922 2 4.46377 91.3624 0.123724
923 2 8.17192 91.3908 15.7945
924 2 12.0055 91.1502 15.8432
925 2 16.0467 90.9873 0.229324
926 2 20.1209 90.9457 0.180181
927 2 24.0498 90.8209 16.0632
928 2 27.8303 90.7264 16.133
929 2 31.7501 90.9395 15.9979
930 2 35.5959 91.051 0.406643
931 2 39.5287 90.9607 15.8273
932 2 43.5672 90.7665 15.9161
933 2 47.2909 90.78 0.127006
934 2 51.4496 90.7053 0.114896
935 2 55.1698 90.759 0.0219597
936 2 59.1407 90.5514 0.213758
937 2 63.0677 90.413 0.207905
938 2 66.8605 90.3815 15.9023
939 2 70.8619 90.3756 15.7739
940 2 74.5923 90.4198 0.0751134
941 2 78.9208 90.1262 -0.0670275
942 2 82.9093 90.3762 0.117707
943 2 86.779 90.5178 0.288747
944 2 90.8763 90.2259 0.141451
945 2 94.9021 90.4135 15.8756
946 2 98.8291 90.5085 15.8406
947 2 102.912 90.5622 0.208717
948 2 106.901 90.6594 15.8645
949 2 110.889 90.6096 15.8523
950 2 114.73 90.6382 -0.111882
951 2 118.823 90.6251 -0.131661
952 2 122.943 90.6749 15.8973
953 2 126.731 90.7621 0.210207
954 2 130.751 91.0084 0.188209
955 2 134.834 90.9911 15.89
956 2 138.9 91.0733 15.7738
957 2 142.881 90.9906 16.1175
958 2 146.812 91.2208 15.879
959 2 150.834 91.225 15.9449
960 2 154.925 91.0234 15.7514
961 2 0.365875 95.0182 0.0521907
962 2 4.38244 95.2446 15.8831
963 2 8.4608 95.4224 15.9364
964 2 12.2768 95.316 15.8441
965 2 16.1003 95.1495 15.9134
966 2 19.9134 94.9607 15.9824
967 2 23.9648 94.896 15.906
968 2 27.7888 94.7975 16.0312
969 2 31.8217 95.0147 15.8898
970 2 35.7815 94.9118 15.9638
971 2 39.6917 95.0448 16.1055
972 2 43.5664 94.7686 15.9994
973 2 47.3644 94.7131 0.295658
974 2 51.4456 94.8218 15.9014
975 2 55.2251 94.6168 0.0555001
976 2 59.1168 94.5896 15.8087
977 2 62.954 94.5797 0.165166
978 2 66.8126 94.4169 0.378088
979 2 70.8944 94.3136 0.118627
980 2 74.75 94.1687 0.208354