ITEM: TIMESTEP
20300
ITEM: NUMBER OF ATOMS
32000
ITEM: BOX BOUNDS xy xz yz pp pp pp
0.0000000000000000e+00 1.5831999999999999e+02 0.0000000000000000e+00
0.0000000000000000e+00 1.5831999999999999e+02 0.0000000000000000e+00
1.6559744960531653e-01 1.5932114550394520e+01 0.0000000000000000e+00
ITEM: ATOMS id type x y z
1 2 158.204 157.791 15.9498
2 2 3.71849 157.949 15.7991
3 2 7.77673 157.978 0.170181
4 2 12.0204 158.189 0.250194
5 2 15.8217 158.119 0.149644
6 2 19.7903 158.102 15.9218
7 2 23.7691 158.122 16.0379
8 2 27.6788 158.1 16.0175
9 2 31.6264 158.179 0.0560127
10 2 35.6594 158.115 16.0418
11 2 39.7661 -0.20538 15.8486
12 2 43.793 -0.00578637 0.300062
13 2 48.0501 0.0222587 15.8508
14 2 51.8919 0.0603252 0.158914
15 2 55.7406 158.417 0.402026
16 2 59.8271 158.451 16.0007
17 2 63.9506 0.251162 16.0546
18 2 67.9663 0.04078 16.0034
19 2 71.7249 0.0120545 15.9665
20 2 75.6506 158.236 15.9854
21 2 79.485 -0.0865229 15.7609
22 2 83.459 158.067 15.8376
23 2 87.2695 158.26 16.0457
24 2 91.1079 158.219 0.205776
25 2 95.0403 158.084 15.8082
26 2 98.9843 158.21 15.6342
27 2 102.743 158.168 15.9535
28 2 106.636 158.121 15.8262
29 2 110.746 157.93 0.0204908
30 2 114.718 157.859 0.0820287
31 2 118.658 157.795 15.6822
32 2 122.465 157.903 0.23781
33 2 126.303 157.69 0.067284
34 2 130.486 157.71 0.129219
35 2 134.361 157.703 15.9192
36 2 138.285 157.743 16.0476
37 2 142.046 157.686 16.0881
38 2 145.98 157.574 15.9153
39 2 150.077 157.718 0.287626
40 2 154.089 157.792 0.374172
41 2 158.065 3.43588 15.926
42 2 3.70664 3.43573 16.0508
43 2 7.74961 3.53596 0.222626
44 2 11.6629 3.65809 16.0587
45 2 15.9011 3.75991 16.0487
46 2 19.7889 3.66404 16.0476
47 2 23.5292 3.77161 0.328722
48 2 27.7128 3.65352 0.392658
49 2 31.7343 3.91764 0.00360719
50 2 35.7114 3.85144 0.295993
51 2 39.8328 3.83743 0.149574
52 2 43.9864 3.78312 16.1102
53 2 47.7571 3.84648 15.8106
54 2 51.9291 4.00814 16.0449
55 2 55.807 3.99747 0.0765128
56 2 59.892 4.13281 15.965
57 2 63.8654 4.31426 15.9749
58 2 67.7473 4.19486 16.101
59 2 71.699 4.09663 15.7148
60 2 75.4995 3.96289 16.1067
61 2 79.6104 3.87144 15.9423
62 2 83.2147 3.83036 15.8175
63 2 87.2719 3.60887 15.9041
64 2 91.2298 3.69819 0.192981
65 2 94.9819 3.74694 15.8369
66 2 98.8055 3.77949 0.0246876
67 2 102.936 3.74357 15.8937
68 2 106.858 3.62216 15.8914
69 2 110.678 3.64427 0.167024
70 2 114.689 3.51826 0.0530791
71 2 118.73 3.32167 0.0460135
72 2 122.558 3.45581 0.135292
73 2 126.43 3.59078 0.00452245
74 2 130.318 3.29283 0.0978854
75 2 134.337 3.56927 16.0313
76 2 138.065 3.3738 -0.13356
77 2 142.084 3.34686 0.231257
78 2 145.884 3.40932 0.416627
79 2 150.189 3.38085 16.0496
80 2 154.057 3.36261 15.8581
81 2 158.12 7.1935 15.8872
82 2 3.67462 7.37635 15.9935
83 2 7.66572 7.33476 15.8175
84 2 11.6429 7.54078 -0.0659461
85 2 15.7163 7.46333 15.9518
86 2 19.6015 7.63535 15.9857
87 2 23.6914 7.71067 0.363873
88 2 27.5184 7.40877 16.0059
89 2 31.7336 7.64334 16.0312
90 2 35.6505 7.67306 16.0677
91 2 39.7107 7.7184 0.0764639
92 2 43.8479 7.85631 0.295986
93 2 47.7025 7.65961 15.9383
94 2 51.684 7.86771 -0.0816352
95 2 55.6552 7.91376 15.9
96 2 59.9147 7.93437 0.253855
97 2 63.8754 8.05369 15.9532
98 2 67.7806 8.17538 16.0969
99 2 71.627 7.82713 15.7997
100 2 75.5507 8.11761 15.7595
101 2 79.6486 8.07052 0.00610923
102 2 83.4331 7.87656 15.9325
103 2 87.2372 7.8902 15.7591
104 2 91.2725 7.91166 15.7704
105 2 95.0096 7.61297 16.0081
106 2 99.0973 7.76804 0.0695034
107 2 102.978 7.59909 0.070796
108 2 106.776 7.66503 15.9908
109 2 110.691 7.51777 0.0455224
110 2 114.783 7.44662 15.8769
111 2 118.514 7.46313 15.9172
112 2 122.515 7.29867 15.8393
113 2 126.447 7.414 15.8921
114 2 130.484 7.3178 0.0376382
115 2 134.22 7.40896 0.418141
116 2 138.037 7.38076 15.7524
117 2 141.983 7.21398 16.0264
118 2 146.145 7.31892 0.408213
119 2 150.138 7.26921 0.264107
120 2 153.976 7.49984 15.9353
121 2 158.045 11.1185 15.8978
122 2 3.70592 11.2332 15.8282
123 2 7.7179 11.304 15.9797
124 2 11.6978 11.2334 0.105037
125 2 15.498 11.5951 15.9506
126 2 19.5015 11.4518 15.707
127 2 23.5672 11.5504 16.1649
128 2 27.6206 11.4631 16.0083
129 2 31.548 11.527 15.9602
130 2 35.6425 11.5312 15.9198
131 2 39.4828 11.5734 15.9095
132 2 43.6442 11.6611 0.387433
133 2 47.6274 11.5228 0.0272719
134 2 51.7288 11.734 15.937
135 2 55.7752 11.9351 0.11765
136 2 59.6912 11.8949 16.1009
137 2 63.5811 11.931 0.0430464
138 2 67.6876 12.0127 15.9794
139 2 71.8252 12.0872 15.8429
140 2 75.5599 12.1039 15.7169
141 2 79.6391 11.8675 15.6177
142 2 83.3595 11.9662 15.6202
143 2 87.3873 12.015 -0.031929
144 2 91.2233 11.881 -0.0672212
145 2 95.1359 11.658 15.8809
146 2 99.0986 11.7534 16.0494
147 2 103.067 11.6372 0.0560415
148 2 106.848 11.6768 16.0896
149 2 110.776 11.5747 0.0131288
150 2 114.612 11.4486 16.0853
151 2 118.716 11.4605 0.302013
152 2 122.615 11.353 0.1273
153 2 126.462 11.4266 15.9472
154 2 130.361 11.215 15.9901
155 2 134.387 11.3735 0.390726
156 2 138.361 11.2042 0.0128225
157 2 142.073 11.3437 0.179908
158 2 145.96 11.2169 -0.0694518
159 2 149.836 11.2676 0.228526
160 2 154.053 11.2539 0.393218
161 2 157.933 15.0136 16.0497
162 2 3.633 15.2083 16.0129
163 2 7.52984 15.159 15.9244
164 2 11.5676 15.5314 15.9439
165 2 15.4309 15.4982 16.1097
166 2 19.5774 15.3633 0.326497
167 2 23.6806 15.3256 0.25754
168 2 27.5979 15.3484 15.9996
169 2 31.7348 15.4118 0.10326
170 2 35.699 15.601 16.075
171 2 39.4531 15.7057 0.083208
172 2 43.6315 15.4402 0.1411
173 2 47.7196 15.6668 0.104976
174 2 51.4731 15.5126 0.0189968
175 2 55.6785 15.9394 15.8566
176 2 59.6996 15.9223 0.086913
177 2 63.6398 15.8145 15.8277
178 2 67.6247 15.9193 15.9448
179 2 71.4289 16.0033 0.192693
180 2 75.4437 15.8498 0.171024
181 2 79.6733 15.8298 15.9595
182 2 83.3186 15.7955 -0.111786
183 2 87.2099 16.0608 16.131
184 2 91.2976 15.8785 0.101864
185 2 95.419 15.9236 15.8734
186 2 99.2123 15.9116 15.9242
187 2 103.087 15.7275 15.7908
188 2 107.112 15.5579 15.8524
189 2 110.894 15.5999 16.0184
190 2 114.676 15.5562 16.017
191 2 118.674 15.3524 -0.00282928
192 2 122.724 15.4375 15.9015
193 2 126.671 15.3925 15.8042
194 2 130.614 15.3665 0.0826947
195 2 134.658 15.2451 0.204051
196 2 138.255 15.2539 0.168166
197 2 142.185 15.1301 16.0658
198 2 145.925 15.1199 0.157947
199 2 150.02 15.1698 0.183546
200 2 154.04 15.1596 16.1143
201 2 157.99 19.1659 15.9662
202 2 3.4896 19.0228 0.173941
203 2 7.42916 19.2742 0.324984
204 2 11.5345 19.2013 15.8127
205 2 15.6272 19.3021 15.8265
206 2 19.6381 19.2452 16.0046
207 2 23.6055 19.0213 16.0364
208 2 27.619 19.4211 15.9622
209 2 31.4251 19.394 15.937
210 2 35.6019 19.4441 15.9796
211 2 39.5208 19.6321 0.0255606
212 2 43.5632 19.3763 15.8355
213 2 47.6295 19.7159 15.9348
214 2 51.6843 19.5665 0.268906
215 2 55.6522 19.6673 16.1428
216 2 59.5935 19.5912 16.0203
217 2 63.5727 19.7854 15.9103
218 2 67.531 19.9699 15.9691
219 2 71.467 19.7669 0.253253
220 2 75.6045 19.8417 0.286786
221 2 79.5416 19.9166 0.0052711
222 2 83.2771 19.8653 15.8387
223 2 87.1832 19.9635 0.075395
224 2 91.1821 19.6864 0.0787693
225 2 95.2019 19.6459 16.0413
226 2 99.1179 19.8183 15.9802
227 2 103.056 19.6494 15.9062
228 2 106.996 19.8143 15.9228
229 2 110.965 19.4557 0.156816
230 2 115.042 19.5809 16.0087
231 2 118.914 19.4003 15.8628
232 2 122.652 19.3024 15.9017
233 2 126.457 19.4373 15.7906
234 2 130.484 19.4093 16.1147
235 2 134.453 19.2436 0.168975
236 2 138.276 19.3683 15.7922
237 2 142.161 19.1928 15.6842
238 2 146.187 19.1554 0.103539
239 2 149.851 19.0386 15.9654
240 2 153.811 19.2185 0.148886
241 2 158.06 23.3457 16.1778
242 2 3.63978 23.1944 16.0141
243 2 7.57833 23.0875 0.227984
244 2 11.3906 23.046 -0.0138155
245 2 15.4421 22.9326 15.8329
246 2 19.4694 23.1814 15.8609
247 2 23.4521 23.1467 15.7385
248 2 27.4064 23.2554 15.9116
249 2 31.5191 23.3155 0.180292
250 2 35.4056 23.2936 16.0887
251 2 39.5663 23.4367 0.114469
252 2 43.5822 23.2844 15.9775
253 2 47.4107 23.3122 0.0889132
254 2 51.3534 23.5678 0.148523
255 2 55.4053 23.532 0.143242
256 2 59.6636 23.5076 16.0286
257 2 63.477 23.7023 0.0851143
258 2 67.5657 23.69 16.0384
259 2 71.4968 23.6729 16.0294
260 2 75.5996 23.5572 0.13191
261 2 79.5848 23.8863 15.9451
262 2 83.4659 23.9295 -0.0755759
263 2 87.4452 24.0237 15.8338
264 2 91.4127 23.7059 15.702
265 2 95.3235 23.7237 15.8744
266 2 99.2577 23.6468 -0.0835153
267 2 103.153 23.8502 15.7587
268 2 107.243 23.7134 15.9203
269 2 110.932 23.5865 0.0561564
270 2 114.928 23.5871 15.8344
271 2 118.652 23.3791 15.9036
272 2 122.704 23.3589 0.245944
273 2 126.508 23.5903 15.9071
274 2 130.52 23.3496 15.9214
275 2 134.526 23.1889 16.0491
276 2 138.44 23.1144 15.9427
277 2 142.424 23.2391 15.8294
278 2 146.223 23.186 -0.00406318
279 2 150.101 23.1219 0.161286
280 2 154.307 23.2994 0.214817
281 2 157.9 27.1571 0.0396841
282 2 3.66057 27.2918 0.0796523
283 2 7.53468 27.0687 0.247628
284 2 11.5887 27.0191 15.8106
285 2 15.4263 27.0451 15.8666
286 2 19.4102 27.0792 0.316759
287 2 23.414 27.1601 16.0212
288 2 27.3132 27.1472 15.9172
289 2 31.1636 27.0904 0.255723
290 2 35.4874 27.3318 0.18054
291 2 39.3305 27.3597 0.201985
292 2 43.5436 27.4028 0.135628
293 2 47.3869 27.2022 0.199818
294 2 51.3798 27.4679 16.0567
295 2 55.3872 27.3385 0.177962
296 2 59.2809 27.4559 15.9851
297 2 63.4861 27.8559 15.9723
298 2 67.5237 27.6342 15.9697
299 2 71.5662 27.6962 16.0074
300 2 75.4985 27.6971 0.125301
301 2 79.3844 27.6822 0.078775
302 2 83.5301 27.6729 16.0642
303 2 87.3917 27.801 0.132737
304 2 91.3778 27.8941 -0.0366998
305 2 95.3315 27.8222 0.117964
306 2 99.0684 27.7725 0.22288
307 2 103.018 27.6297 15.747
308 2 106.957 27.5471 0.0403397
309 2 110.959 27.554 15.8744
310 2 114.846 27.6793 15.7472
311 2 118.727 27.4527 -0.00743129
312 2 122.565 27.3706 -0.0552464
313 2 126.74 27.5092 15.8786
314 2 130.631 27.377 16.0064
315 2 134.536 27.1849 16.0491
316 2 138.463 26.9761 15.8268
317 2 142.179 27.3464 0.216774
318 2 146.421 27.3426 0.140289
319 2 150.251 27.1265 0.101082
320 2 153.99 27.2274 0.23773
321 2 157.873 31.1461 16.0739
322 2 3.45417 31.0747 15.898
323 2 7.34237 31.0387 15.8848
324 2 11.3198 30.8399 -0.0211377
325 2 15.4142 31.0539 -0.0733057
326 2 19.2743 30.8975 15.8174
327 2 23.2894 31.2037 16.0137
328 2 27.3772 31.1437 0.194496
329 2 31.2306 31.2325 16.0745
330 2 35.4204 31.2077 15.7867
331 2 39.1784 31.2749 15.8281
332 2 43.4602 31.2874 0.276784
333 2 47.4889 31.2621 15.8944
334 2 51.3265 31.1712 0.108742
335 2 55.3561 31.2003 16.0137
336 2 59.3286 31.2985 0.158644
337 2 63.4285 31.5897 15.8227
338 2 67.4031 31.2336 0.142264
339 2 71.3455 31.503 0.200528
340 2 75.4612 31.6235 0.0796815
341 2 79.4297 31.7509 16.0025
342 2 83.4384 31.7407 0.19765
343 2 87.4298 31.6675 15.9939
344 2 91.4842 31.7471 15.774
345 2 95.3416 31.7216 15.9173
346 2 99.3141 31.9087 -0.0530817
347 2 103.219 31.6869 15.7829
348 2 107.119 31.656 15.6939
349 2 110.986 31.5207 15.7992
350 2 115.021 31.6334 15.8093
351 2 118.911 31.4581 15.8383
352 2 122.789 31.4582 15.8034
353 2 126.608 31.491 15.8299
354 2 130.625 31.4066 15.9347
355 2 134.559 31.3 15.7653
356 2 138.436 31.1512 16.0823
357 2 142.353 31.1898 0.183625
358 2 146.214 31.0555 15.8929
359 2 150.25 31.2847 0.189065
360 2 154.137 31.2063 0.210878
361 2 -0.267097 35.2263 0.428432
362 2 3.71284 35.0491 16.0091
363 2 7.44564 35.0098 16.0448
364 2 11.1495 35.0104 15.9659
365 2 15.282 34.9984 0.259873
366 2 19.2454 34.9227 0.0981691
367 2 23.2238 34.9248 0.197371
368 2 27.4435 35.0612 0.223839
369 2 31.4078 34.8966 0.147252
370 2 35.0811 35.1493 0.0739311
371 2 39.2518 35.0251 0.10532
372 2 43.0653 35.2322 15.865
373 2 47.2197 35.1281 15.7862
374 2 51.3009 35.2253 15.8332
375 2 55.35 35.2557 0.0919894
376 2 59.2585 35.3318 0.222742
377 2 63.2453 35.3631 15.9378
378 2 67.5206 35.4203 0.079281
379 2 71.353 35.3299 0.25379
380 2 75.3192 35.5571 15.8159
381 2 79.4455 35.5721 0.331894
382 2 83.3863 35.4503 15.8903
383 2 87.2288 35.5658 0.426982
384 2 91.3571 35.6299 0.307711
385 2 95.3712 35.6273 15.8687
386 2 99.4362 35.874 0.271804
387 2 103.394 35.8561 15.7924
388 2 107.248 35.5549 15.8019
389 2 111.163 35.538 16.0944
390 2 114.961 35.7187 15.8979
391 2 118.899 35.3554 15.9929
392 2 122.911 35.4242 15.8722
393 2 126.985 35.4115 15.8341
394 2 130.884 35.3759 15.8235
395 2 134.747 35.3959 15.8178
396 2 138.468 35.2886 0.103688
397 2 142.299 35.5537 0.227204
398 2 146.253 35.1418 0.140508
399 2 150.207 35.0937 15.9612
400 2 154.183 35.0185 0.231046
401 2 157.861 39.1018 0.38894
402 2 3.62869 38.8516 0.205373
403 2 7.66175 39.1524 0.0088918
404 2 11.5637 38.8632 15.9699
405 2 15.5315 39.0569 0.0804512
406 2 19.1507 38.9944 15.9974
407 2 23.2249 39.0352 16.1577
408 2 27.2445 38.7015 16.1075
409 2 31.1755 38.9244 0.285866
410 2 35.2917 38.9551 0.000625857
411 2 39.1216 38.9109 15.8982
412 2 43.204 39.0692 0.278039
413 2 47.2147 39.1496 0.149546
414 2 51.1066 39.2946 16.0873
415 2 55.1562 39.1783 0.209988
416 2 59.1711 39.1097 0.362364
417 2 63.2528 39.3362 0.184522
418 2 67.1963 39.3389 -0.00405052
419 2 71.455 39.3761 0.162882
420 2 75.2868 39.4393 -0.0150595
421 2 79.3673 39.5924 0.122337
422 2 83.3526 39.5171 15.8046
423 2 87.3396 39.5352 16.0475
424 2 91.1083 39.7756 15.8862
425 2 95.3208 39.6268 15.9288
426 2 99.3497 39.7999 0.0852121
427 2 103.354 39.7571 15.9771
428 2 107.307 39.5919 15.7245
429 2 111.071 39.5643 15.9433
430 2 115.087 39.6719 15.7752
431 2 119.14 39.5556 15.9673
432 2 122.79 39.5078 15.9058
433 2 126.627 39.4985 0.121584
434 2 130.891 39.3113 15.9656
435 2 134.727 39.3467 16.0047
436 2 138.473 39.3161 15.9573
437 2 142.541 39.0981 15.9928
438 2 146.315 39.1351 0.0936196
439 2 150.37 39.1578 15.7198
440 2 154.253 39.1992 15.9379
441 2 158.34 43.0311 0.234484
442 2 3.74763 43.0017 15.9975
443 2 7.67259 42.8705 15.9848
444 2 11.4291 43.0936 0.326795
445 2 15.4441 42.8114 0.311536
446 2 19.3778 42.7605 0.245958
447 2 23.1699 42.8758 15.9959
448 2 27.2321 42.5583 15.9089
449 2 31.4265 42.9036 0.101932
450 2 35.2233 42.8865 -0.139659
451 2 39.1949 42.9039 0.0865749
452 2 43.2662 43.0079 0.242749
453 2 47.0662 43.0205 16.0274
454 2 51.1133 43.1376 15.8941
455 2 55.2698 43.1048 0.175076
456 2 59.2433 43.0495 15.893
457 2 63.2021 43.3327 0.0922165
458 2 67.1307 43.2662 0.0474534
459 2 71.2776 43.2755 0.0745176
460 2 75.0929 43.5401 0.0722685
461 2 79.2437 43.0754 0.226938
462 2 83.3515 43.4338 16.0645
463 2 87.2367 43.3504 16.1018
464 2 91.1706 43.5776 0.0951792
465 2 95.1238 43.7315 -0.0699877
466 2 99.361 43.5723 16.0199
467 2 103.347 43.7005 15.9625
468 2 107.366 43.5661 15.7653
469 2 111.295 43.7767 15.9258
470 2 115.214 43.612 15.7977
471 2 119.1 43.5016 15.8983
472 2 122.851 43.5913 15.755
473 2 127.014 43.3526 0.273167
474 2 130.772 43.4634 0.0303067
475 2 134.71 43.2547 15.9228
476 2 138.568 43.2542 15.785
477 2 142.473 43.2043 15.923
478 2 146.365 43.2123 0.134153
479 2 150.3 43.1723 0.143417
480 2 154.163 43.1064 0.137549
481 2 -0.0234114 47.1097 -0.0714134
482 2 3.88474 47.0729 0.0830889
483 2 7.61799 46.9147 0.0822617
484 2 11.8181 47.0729 0.107872
485 2 15.6321 46.8921 0.341058
486 2 19.4051 47.0742 0.411764
487 2 23.2753 46.7745 0.130056
488 2 27.474 46.8149 15.8816
489 2 31.2212 46.7166 0.113758
490 2 35.0853 46.6698 0.0939705
491 2 38.9961 47.0701 15.7055
492 2 42.9815 46.7949 15.7371
493 2 47.1352 47.1081 0.190072
494 2 50.9787 47.0057 15.9501
495 2 55.1234 46.9693 16.059
496 2 59.0755 47.0721 15.8517
497 2 63.1794 47.1817 0.137747
498 2 67.178 47.2288 0.128942
499 2 71.2047 47.025 15.8343
500 2 75.2194 47.3995 0.0176012
501 2 79.2952 47.2579 16.0573
502 2 83.1266 47.2545 16.0355
503 2 87.0329 47.3995 0.0433448
504 2 90.9785 47.4379 0.390667
505 2 95.3062 47.4598 0.243614
506 2 99.2673 47.5077 0.314365
507 2 103.361 47.8117 0.0409853
508 2 107.306 47.6068 15.9154
509 2 111.293 47.6031 16.0999
510 2 115.326 47.7156 0.0549213
511 2 119.176 47.4111 15.9565
512 2 123.058 47.4884 15.7438
513 2 126.88 47.2589 15.8236
514 2 130.766 47.3921 16.0456
515 2 134.592 47.3904 16.1467
516 2 138.723 47.1637 15.7992
517 2 142.442 47.3276 15.8231
518 2 146.35 47.2459 -0.0812984
519 2 150.383 47.2439 0.0607469
520 2 154.287 47.2923 16.0013
521 2 158.276 51.0618 -0.0482152
522 2 3.88782 51.0967 16.141
523 2 7.81278 51.0815 16.0664
524 2 11.6207 50.7867 15.9545
525 2 15.4147 51.2146 0.285354
526 2 19.3106 50.8023 16.022
527 2 23.4146 50.9057 15.8259
528 2 27.4017 51.015 16.0383
529 2 31.3154 50.6425 0.367109
530 2 35.0121 50.5766 0.153496
531 2 39.112 50.7053 16.0978
532 2 43.3209 50.8339 15.9601
533 2 47.2066 50.953 0.360227
534 2 51.1084 50.7581 0.347523
535 2 55.0722 50.8864 0.0410479
536 2 59.1731 51.0866 15.7443
537 2 63.229 51.1728 15.9438
538 2 67.2539 51.1973 0.243821
539 2 71.1889 50.9109 0.104868
540 2 75.1338 51.0884 0.185939
541 2 79.2111 51.2031 0.0343315
542 2 83.245 51.2423 0.236656
543 2 87.0816 51.4822 0.381704
544 2 91.1329 51.1355 0.253017
545 2 95.0716 51.5093 0.227752
546 2 99.0037 51.3429 -0.138815
547 2 103.376 51.4421 16.0354
548 2 107.134 51.5598 0.0949349
549 2 111.462 51.5086 0.195356
550 2 115.23 51.5608 15.9857
551 2 119.051 51.2574 15.7611
552 2 122.982 51.4522 15.7197
553 2 126.957 51.4093 15.6496
554 2 130.876 51.2351 0.0120425
555 2 134.78 51.3881 0.0466295
556 2 138.607 51.3975 0.118631
557 2 142.606 51.2423 0.144078
558 2 146.671 51.1783 16.0164
559 2 150.512 51.2202 0.00886835
560 2 154.38 51.1015 0.173906
561 2 158.232 55.0569 0.150861
562 2 3.83991 55.0749 0.0111746
563 2 7.86521 54.9734 0.185192
564 2 11.701 54.9653 0.401488
565 2 15.627 55.016 0.299534
566 2 19.6273 54.8562 15.9524
567 2 23.5653 54.9642 15.962
568 2 27.3155 54.7761 15.9156
569 2 31.178 54.7766 0.141656
570 2 35.0255 54.7054 0.280138
571 2 39.064 54.7748 15.971
572 2 42.9602 54.6884 16.0609
573 2 47.0111 54.7988 0.351617
574 2 51.0356 54.7548 16.1125
575 2 55.1287 54.8373 15.8557
576 2 59.0893 55.0609 15.8782
577 2 63.0957 54.9837 16.0656
578 2 67.0071 55.1496 0.378384
579 2 71.2901 54.9685 0.11413
580 2 75.0877 55.0039 15.9949
581 2 79.0097 55.0172 0.251505
582 2 83.0312 55.2985 0.250934
583 2 87.084 55.2189 0.162098
584 2 91.1056 55.1762 16.0656
585 2 95.1973 55.3181 0.150521
586 2 99.126 55.24 15.532
587 2 103.251 55.406 15.9541
588 2 107.187 55.4032 0.314118
589 2 111.335 55.2506 16.0247
590 2 115.234 55.7354 15.7117
591 2 119.106 55.4743 15.9135
592 2 123.137 55.4146 -0.0213108
593 2 127.167 55.6117 15.7055
594 2 130.951 55.4245 15.7284
595 2 134.794 55.3545 0.0185335
596 2 138.746 55.3492 16.0186
597 2 142.798 55.2272 0.0797801
598 2 146.636 55.3206 0.194129
599 2 150.531 55.1319 0.1502
600 2 154.36 55.2308 16.0497
601 2 158.342 59.0984 0.12277
602 2 3.83082 59.2271 15.859
603 2 7.88082 59.0228 16.0626
604 2 11.9496 59.1018 0.411324
605 2 15.809 58.9863 15.964
606 2 19.7094 58.9468 0.22507
607 2 23.5233 59.0807 0.0496353
608 2 27.4286 58.8167 0.106281
609 2 31.3138 58.8083 16.0092
610 2 35.3124 58.6638 16.0151
611 2 39.0718 58.5807 15.9823
612 2 43.1342 58.588 16.0661
613 2 46.8329 58.5042 16.0203
614 2 51.0664 58.7831 15.9666
615 2 55.0539 58.7764 15.9826
616 2 58.8315 58.8259 0.0637949
617 2 63.0437 58.7683 15.9274
618 2 67.0266 58.8517 0.297421
619 2 70.9877 59.0296 15.9921
620 2 75.1488 58.9922 0.0967553
621 2 79.1447 58.9555 0.115776
622 2 83.1844 59.001 0.292369
623 2 87.1745 59.0929 15.7384
624 2 90.9915 59.0454 16.0012
625 2 95.1714 59.0246 0.320707
626 2 99.0605 59.1097 0.121575
627 2 103.071 59.2033 15.7402
628 2 107.09 59.257 -0.0159992
629 2 111.069 59.2753 16.0307
630 2 115.179 59.6454 15.873
631 2 119.298 59.3957 15.9235
632 2 123.081 59.4882 0.132228
633 2 127.238 59.4476 15.9121
634 2 131.186 59.5549 -0.0311843
635 2 135.007 59.3516 15.888
636 2 139.011 59.2839 0.238683
637 2 142.787 59.2211 0.160836
638 2 146.831 59.2516 0.15847
639 2 150.611 59.2137 15.9173
640 2 154.467 59.0911 -0.0417178
641 2 0.0353972 63.0869 0.310148
642 2 3.96765 63.022 -0.121159
643 2 8.12974 63.271 15.8074
644 2 11.8706 63.142 16.0358
645 2 15.7727 62.9872 15.9899
646 2 19.7405 62.895 0.05689
647 2 23.59 62.8444 0.210111
648 2 27.3608 62.7345 0.252693
649 2 31.5625 62.7442 0.166097
650 2 35.4447 62.7199 0.362137
651 2 39.248 62.5709 15.9682
652 2 43.1857 62.6163 0.174856
653 2 47.1572 62.7502 16.0202
654 2 50.9302 62.6617 16.0142
655 2 54.8571 62.5503 0.417987
656 2 58.9887 62.6095 16.0477
657 2 63.1161 62.5038 0.0511304
658 2 66.8547 62.8681 16.0641
659 2 71.1355 62.903 0.161711
660 2 75.0794 62.8024 0.165829
661 2 79.1001 62.8934 0.15151
662 2 82.9997 63.1348 0.238848
663 2 86.9468 63.1508 15.8995
664 2 91.0543 63.0009 15.8124
665 2 95.1613 63.106 0.167165
666 2 99.0679 63.0693 0.209277
667 2 103.013 63.1125 15.9714
668 2 107.111 63.1683 16.0279
669 2 111.23 63.2646 16.0631
670 2 115.253 63.5032 0.333427
671 2 119.309 63.4865 16.0711
672 2 123.266 63.5763 0.0272342
673 2 127.232 63.3538 15.9325
674 2 131.148 63.3999 0.219655
675 2 135.206 63.6385 15.9719
676 2 139.126 63.2926 15.8873
677 2 143.065 63.2149 16.0212
678 2 146.697 63.4541 0.0242187
679 2 150.627 63.4565 15.8177
680 2 154.576 63.1737 0.0873307
681 2 0.142927 67.1984 0.212432
682 2 4.12972 67.1816 0.0735904
683 2 8.182 67.0599 15.839
684 2 12.0063 67.0149 15.9892
685 2 15.7551 67.2827 0.132106
686 2 19.6605 66.9003 0.353765
687 2 23.5009 66.838 0.226561
688 2 27.6156 66.7513 0.115925
689 2 31.6259 66.7829 0.134454
690 2 35.3187 66.6211 0.216606
691 2 39.1661 66.8482 15.9965
692 2 43.1247 66.6567 0.16067
693 2 47.1046 66.5848 16.0305
694 2 50.9576 66.8174 15.828
695 2 54.8907 66.6737 16.1752
696 2 58.9381 66.436 16.1909
697 2 62.9524 66.5982 16.0398
698 2 67.0316 66.5774 16.0684
699 2 71.0466 66.7141 0.0209269
700 2 75.0016 66.6038 15.9585
701 2 78.8782 66.8838 15.9464
702 2 83.0494 66.8479 0.0361
703 2 86.9697 66.9841 15.9806
704 2 90.8994 66.8805 15.7715
705 2 94.9522 66.9754 0.238189
706 2 99.1101 67.089 0.0927288
707 2 103 66.9686 0.23133
708 2 107.02 67.0651 15.9904
709 2 111.086 67.155 16.074
710 2 115.063 67.1839 16.1525
711 2 119.108 67.3648 0.241077
712 2 123.1 67.2266 0.242345
713 2 127.114 67.1879 0.136808
714 2 130.968 67.413 15.9441
715 2 135.301 67.6034 0.0940953
716 2 139.066 67.1794 0.194527
717 2 142.808 67.1897 16.0597
718 2 146.802 67.3919 15.9274
719 2 150.786 67.2374 16.0098
720 2 154.507 67.3007 0.0924634
721 2 0.26823 71.2354 0.206848
722 2 4.21051 71.1483 16.0139
723 2 7.83009 71.1558 -0.0721004
724 2 11.7854 71.0258 15.8372
725 2 15.9036 71.017 0.199505
726 2 19.7204 70.9635 0.313871
727 2 23.6097 70.9488 0.164776
728 2 27.7823 70.8577 16.0259
729 2 31.6376 70.9207 0.378369
730 2 35.2808 70.8538 0.0592721
731 2 39.3888 70.7843 15.9776
732 2 42.9963 70.6392 0.194515
733 2 46.9831 70.5923 16.0619
734 2 50.926 70.6926 15.8851
735 2 54.9065 70.6746 0.059813
736 2 58.9504 70.5302 0.262081
737 2 62.9709 70.5131 0.178001
738 2 67.0214 70.4767 15.9928
739 2 70.8462 70.5724 15.8634
740 2 74.8991 70.766 15.8274
741 2 79.0224 70.668 0.312053
742 2 83.0068 70.9199 0.153178
743 2 87.0313 70.8868 15.9777
744 2 91.031 71.0102 15.9976
745 2 95.053 70.6808 15.7662
746 2 98.9795 71.1178 16.0775
747 2 103.12 70.9421 16.0649
748 2 107.172 70.9568 15.8473
749 2 111.086 70.9869 15.8827
750 2 115.098 71.0137 0.146169
751 2 119.033 71.3356 16.1423
752 2 123.077 71.3855 0.242039
753 2 127.253 71.3284 15.9843
754 2 131.235 71.3706 15.936
755 2 135.13 71.5379 15.9948
756 2 139.166 71.3407 16.1499
757 2 143.085 71.5789 0.491598
758 2 146.748 71.3201 0.271547
759 2 150.567 71.3278 0.224842
760 2 154.62 71.4168 16.143
761 2 0.32835 75.261 0.185484
762 2 4.13944 75.2766 16.0432
763 2 8.15488 75.1367 15.9863
764 2 11.785 74.9234 15.8778
765 2 15.7634 74.9931 15.9028
766 2 19.889 74.9255 15.9019
767 2 23.6769 74.8955 15.9935
768 2 27.6289 74.8015 15.9927
769 2 31.7108 74.7029 0.20951
770 2 35.6015 74.8512 16.0097
771 2 39.4691 74.8486 15.9708
772 2 43.0979 74.7149 0.105936
773 2 47.3366 74.7051 15.9238
774 2 51.0804 74.6713 0.0970889
775 2 54.8361 74.5278 15.8996
776 2 58.9103 74.5267 16.002
777 2 62.9612 74.5541 15.9547
778 2 66.774 74.356 0.353114
779 2 71.0231 74.6229 0.143374
780 2 74.9557 74.541 0.0833329
781 2 78.9152 74.6651 0.0518854
782 2 82.8291 74.8475 0.105284
783 2 86.7175 74.8042 0.0186055
784 2 91.0309 74.8728 16.0614
785 2 94.9428 74.7602 15.9094
786 2 99.1321 74.8928 0.142026
787 2 103.208 74.8585 15.9513
788 2 106.976 75.1447 15.8202
789 2 111.212 74.9592 15.9886
790 2 115.176 75.0618 16.0741
791 2 119.099 75.0022 0.109814
792 2 123.118 75.173 15.8063
793 2 127.192 75.254 16.1329
794 2 131.068 75.1111 0.131466
795 2 135.178 75.39 15.9863
796 2 139.054 75.2405 15.7845
797 2 143.112 75.5627 16.053
798 2 146.842 75.3809 16.0643
799 2 150.676 75.2165 0.141704
800 2 154.729 75.2355 0.135862
801 2 0.103445 79.2195 0.180429
802 2 4.28607 79.1185 15.911
803 2 8.17631 79.1184 0.276694
804 2 11.995 79.133 0.272672
805 2 15.9774 79.0082 15.9
806 2 19.9755 78.8866 15.9977
807 2 23.8155 78.8979 0.0841083
808 2 27.8348 78.9072 0.225894
809 2 31.7732 78.9825 0.169764
810 2 35.4458 78.8095 0.174718
811 2 39.2948 78.9239 16.026
812 2 43.1869 78.9361 15.9286
813 2 47.1481 78.5419 16.029
814 2 51.3496 78.5107 0.0950826
815 2 55.0321 78.4331 0.135781
816 2 58.8429 78.4998 15.9227
817 2 62.8776 78.537 15.9714
818 2 66.9795 78.5212 0.172744
819 2 70.917 78.4071 16.0781
820 2 74.757 78.5605 0.0189434
821 2 78.7308 78.395 15.8407
822 2 82.8462 78.6821 15.7934
823 2 86.9479 78.5701 0.219521
824 2 91.0141 78.5501 0.329684
825 2 94.8938 78.7683 0.256733
826 2 99.0888 78.7295 16.1187
827 2 102.969 78.7051 15.9886
828 2 107.005 78.8308 0.153061
829 2 110.89 78.811 0.159134
830 2 115.007 78.9277 0.342843
831 2 119.091 79.0972 0.205019
832 2 123.052 79.3024 15.8507
833 2 126.918 79.053 0.119353
834 2 130.79 79.2993 15.8552
835 2 135.078 79.0762 0.121807
836 2 139.098 79.1766 15.9523
837 2 143.063 79.4442 15.8477
838 2 146.907 79.2251 15.7407
839 2 150.699 79.1367 15.8684
840 2 154.743 79.3356 0.0187327
841 2 0.373372 83.2519 15.8061
842 2 4.19939 83.2603 15.9792
843 2 8.14012 83.2102 0.21301
844 2 12.0657 83.1908 16.1237
845 2 16.2467 82.8878 15.9919
846 2 20.0548 82.9942 0.288285
847 2 23.8052 83.007 16.0507
848 2 27.7269 82.9915 0.210988
849 2 31.5683 82.8355 15.9313
850 2 35.6061 82.8706 0.320381
851 2 39.4456 83.0393 0.230919
852 2 43.2962 82.6915 16.0124
853 2 47.404 82.512 0.145565
854 2 51.2854 82.6698 0.291413
855 2 55.2293 82.4703 0.168413
856 2 59.0238 82.3069 15.8681
857 2 62.9327 82.3805 15.8436
858 2 66.8893 82.4335 15.9906
859 2 70.8861 82.4133 16.0135
860 2 74.8825 82.5841 15.9329
861 2 78.6285 82.5486 15.7747
862 2 82.6915 82.5515 -0.1792
863 2 86.9079 82.6355 -0.0515371
864 2 90.9255 82.5875 15.9917
865 2 94.9686 82.6081 0.0711472
866 2 98.9224 82.5763 16.0124
867 2 103.098 82.6304 0.0623485
868 2 106.953 82.732 16.1313
869 2 111.119 82.6906 15.8206
870 2 115.031 82.8075 15.8338
871 2 119.073 82.9989 16.0075
872 2 123.145 82.9933 15.9428
873 2 126.734 83.1439 15.8491
874 2 130.907 83.3486 15.9253
875 2 134.898 83.2792 0.237462
876 2 138.772 83.3464 16.0793
877 2 142.94 83.1416 0.219432
878 2 147.056 83.2426 16.0971
879 2 151.006 83.4792 0.124524
880 2 154.881 83.44 0.146042
881 2 0.443664 87.4254 15.929
882 2 4.36478 87.2652 0.24524
883 2 8.19282 87.0553 15.942
884 2 12.075 86.9881 15.9138
885 2 16.0018 87.1463 15.9221
886 2 19.9924 87.229 15.9401
887 2 23.7965 87.0698 15.979
888 2 27.6899 87.1523 0.218234
889 2 31.6116 87.0081 16.042
890 2 35.5549 86.8418 0.101811
891 2 39.5523 86.972 15.8289
892 2 43.5273 86.7449 15.8222
893 2 47.3215 86.7344 16.0652
894 2 51.3246 86.8358 15.9913
895 2 55.1316 86.5881 15.96
896 2 59.2271 86.4124 0.0330502
897 2 63.1193 86.6483 -0.0122063
898 2 66.8779 86.4623 15.93
899 2 70.7176 86.452 -0.0433449
900 2 74.7298 86.3063 15.7537
901 2 78.8418 86.3865 0.0627949
902 2 82.9154 86.5637 0.230498
903 2 86.8893 86.6131 15.775
904 2 91.0727 86.6136 15.8016
905 2 94.7341 86.5481 15.8063
906 2 98.8812 86.5627 16.1122
907 2 102.947 86.5651 0.195017
908 2 106.843 86.7036 0.0294306
909 2 110.912 86.6219 15.7675
910 2 114.98 86.6806 0.206646
911 2 118.938 86.803 0.169
912 2 122.864 86.7714 0.0965197
913 2 126.894 86.967 16.0005
914 2 131.037 86.9173 15.9334
915 2 135.083 87.0665 15.9114
916 2 139.138 87.1917 15.7548
917 2 142.942 87.2193 16.006
918 2 146.919 87.3364 0.181084
919 2 151.15 87.1174 15.918
920 2 154.931 87.4742 15.7077
921 2 0.369232 91.4373 0.201289
922 2 4.25563 91.3315 0.358576
923 2 8.24286 91.1269 16.0996
924 2 12.4069 91.1131 16.086
925 2 16.1306 91.3116 -0.00313446
926 2 19.8847 91.2026 0.0705507
927 2 23.8746 91.0421 15.8378
928 2 27.7491 91.0816 15.9135
929 2 31.7564 90.9015 16.0477
930 2 35.7266 90.696 0.222174
931 2 39.6108 90.8309 15.9941
932 2 43.5173 90.8187 16.0526
933 2 47.2757 90.6111 0.156725
934 2 51.4571 90.7978 0.0603352
935 2 55.1374 90.6043 0.142048
936 2 59.1264 90.4572 0.100031
937 2 62.8817 90.5161 -0.08721
938 2 66.823 90.458 15.8089
939 2 70.9843 90.4192 16.0262
940 2 74.8792 90.1794 0.0155015
941 2 78.6915 90.5871 -0.00104985
942 2 82.754 90.3675 0.10878
943 2 86.8144 90.3325 0.11135
944 2 90.8504 90.4937 0.432308
945 2 94.8567 90.4008 16.0144
946 2 98.9133 90.5208 16.0011
947 2 102.813 90.2836 0.238409
948 2 106.745 90.3501 16.0177
949 2 110.839 90.4656 16.0801
950 2 114.727 90.6692 0.297257
951 2 119.03 90.5687 0.089457
952 2 123.033 91.0417 15.9679
953 2 127.044 91.0201 0.0769845
954 2 131.011 90.8476 0.303279
955 2 134.814 91.1832 15.9151
956 2 138.876 91.169 16.0283
957 2 143.002 91.0967 15.8854
958 2 146.862 91.3225 16.068
959 2 150.851 91.1042 15.8822
960 2 154.754 91.3418 15.9862
961 2 0.703069 95.3714 0.280802
962 2 4.39526 95.3075 16.0954
963 2 8.20109 95.1394 16.0984
964 2 12.105 95.1627 16.0531
965 2 16.1602 95.5408 16.0582
966 2 20.2142 95.1353 15.9855
967 2 23.9695 95.1006 15.8645
968 2 27.8411 94.9641 15.7831
969 2 31.8346 94.8851 16.0086
970 2 35.6592 94.6287 15.8699
971 2 39.5852 94.7215 15.937
972 2 43.5756 94.7115 15.983
973 2 47.4833 94.7228 0.163803
974 2 51.2534 94.5875 16.0817
975 2 55.4191 94.4766 0.0604948
976 2 59.1162 94.4323 15.8103
977 2 63.2218 94.508 0.00466355
978 2 67.1358 94.4407 -0.047422
979 2 71.022 94.4612 -0.0275885
980 2 74.9323 94.3169 0.00221281
981 2 78.6811 94.4444 15.8528