ITEM: TIMESTEP
20400
ITEM: NUMBER OF ATOMS
32000
ITEM: BOX BOUNDS xy xz yz pp pp pp
0.0000000000000000e+00 1.5831999999999999e+02 0.0000000000000000e+00
0.0000000000000000e+00 1.5831999999999999e+02 0.0000000000000000e+00
1.6649245498537368e-01 1.5931219545014471e+01 0.0000000000000000e+00
ITEM: ATOMS id type x y z
1 2 158.153 157.964 15.9143
2 2 3.74989 157.987 15.9728
3 2 7.70423 157.892 0.144758
4 2 11.6405 157.793 0.127225
5 2 15.9585 158.047 0.0658913
6 2 19.7141 157.891 15.975
7 2 23.7095 158.125 15.9584
8 2 27.6663 158.066 15.9343
9 2 31.9544 158.118 0.145298
10 2 35.8818 158.149 16.0305
11 2 40.0496 -0.0725828 16.0041
12 2 43.8704 -0.0203183 0.0225327
13 2 47.6241 0.0467663 15.9086
14 2 51.846 0.150649 0.160224
15 2 55.7762 158.577 0.10477
16 2 59.8809 158.453 15.8546
17 2 63.8271 0.061704 15.9378
18 2 67.7482 -0.0390373 16.0036
19 2 71.6601 0.0334644 16.2016
20 2 75.4411 158.405 16.0364
21 2 79.4554 -0.135663 16.0419
22 2 83.3645 158.319 15.9272
23 2 87.311 158.193 15.8867
24 2 91.1661 158.039 0.0504875
25 2 95.1075 158.126 15.9625
26 2 99.0806 157.923 15.8502
27 2 102.946 157.971 15.651
28 2 106.795 157.832 15.7571
29 2 110.552 157.895 -0.0233591
30 2 114.68 157.989 -0.0147447
31 2 118.594 157.884 16.0459
32 2 122.613 157.627 0.235631
33 2 126.435 157.695 0.0599235
34 2 130.164 157.736 -0.0819012
35 2 134.161 157.63 15.9915
36 2 138.097 157.528 15.8803
37 2 142.188 157.689 16.0327
38 2 146.135 157.628 16.049
39 2 150.231 158.082 0.219133
40 2 154.306 157.9 0.113458
41 2 158.049 3.59866 16.0083
42 2 3.70191 3.71824 16.0556
43 2 7.73296 3.58869 0.217415
44 2 11.9807 3.66567 15.7769
45 2 15.6364 3.48817 15.9533
46 2 19.6915 3.62677 16.0947
47 2 23.7645 3.65711 0.203857
48 2 27.647 3.51557 0.0813334
49 2 31.6453 3.79907 0.237895
50 2 35.7491 3.74607 0.0821506
51 2 39.6656 3.7567 0.0204733
52 2 43.6101 3.92903 15.8152
53 2 47.9003 3.91044 15.8443
54 2 51.5955 3.91839 15.7405
55 2 55.9019 4.03081 0.247963
56 2 59.8054 4.04912 16.1938
57 2 63.4573 4.05084 16.0368
58 2 67.5205 3.91843 15.7626
59 2 71.6782 3.89819 16.0635
60 2 75.7646 4.03951 15.8484
61 2 79.3219 3.96 15.9423
62 2 83.393 3.87822 15.9218
63 2 87.1387 4.08258 15.8813
64 2 91.0968 3.89579 -0.0669949
65 2 95.1272 3.88649 15.7608
66 2 99.1641 3.75008 0.10494
67 2 102.883 3.73413 15.7753
68 2 106.673 3.58635 15.9225
69 2 110.825 3.50175 -0.108363
70 2 114.617 3.49993 0.0181913
71 2 118.526 3.59317 0.100392
72 2 122.573 3.39613 0.0338346
73 2 126.293 3.21877 0.0712865
74 2 130.165 3.402 0.157773
75 2 134.272 3.14447 16.0357
76 2 138.306 3.24795 0.336466
77 2 142.177 3.26288 0.235232
78 2 146.165 3.08288 0.156591
79 2 150.147 3.50826 15.9569
80 2 154.236 3.57503 16.033
81 2 158.11 7.43899 15.7712
82 2 3.83854 7.50793 15.9015
83 2 7.7971 7.43514 15.8874
84 2 11.7589 7.53063 0.198374
85 2 15.5114 7.62279 16.0582
86 2 19.7067 7.38661 16.1274
87 2 23.7688 7.44522 0.144335
88 2 27.8025 7.55126 16.1478
89 2 31.7445 7.71074 16.0184
90 2 35.7393 7.79386 15.9072
91 2 39.6721 7.68186 0.164381
92 2 43.529 7.78019 0.116432
93 2 47.8187 7.91801 15.9793
94 2 51.8685 7.83642 0.150756
95 2 55.9594 7.81857 15.9778
96 2 59.7315 8.076 0.115951
97 2 63.7248 8.05211 16.0267
98 2 67.6901 7.95733 16.0117
99 2 71.8289 8.19136 15.9867
100 2 75.6241 7.96088 15.7184
101 2 79.3752 7.95969 -0.0814788
102 2 83.3704 7.91708 15.928
103 2 87.3078 7.81648 16.1226
104 2 91.1455 7.85484 16.0976
105 2 95.2433 8.00088 15.8918
106 2 98.8622 7.7987 0.109401
107 2 102.886 7.81717 0.193576
108 2 106.92 7.62798 15.9532
109 2 110.839 7.77478 0.0380599
110 2 114.516 7.64033 16.0861
111 2 118.694 7.55684 15.9639
112 2 122.601 7.48309 16.0133
113 2 126.603 7.44298 16.0241
114 2 130.336 7.44501 0.234841
115 2 134.234 7.25055 0.154762
116 2 138.424 7.23836 16.187
117 2 142.174 7.20796 15.9389
118 2 145.896 7.13332 0.1139
119 2 149.973 7.23795 0.215234
120 2 154.235 7.41046 15.9511
121 2 157.904 11.3553 15.9735
122 2 3.65133 11.3723 15.9959
123 2 7.63563 11.5202 16.0213
124 2 11.6201 11.5428 0.165493
125 2 15.6565 11.4026 16.0635
126 2 19.619 11.5365 16.1969
127 2 23.5473 11.3407 16.0341
128 2 27.5747 11.3993 16.056
129 2 31.6846 11.6082 15.9567
130 2 35.6394 11.8356 16.0912
131 2 39.6568 11.4845 16.0953
132 2 43.705 11.576 0.0044011
133 2 47.6534 11.6785 0.307824
134 2 51.5779 11.5385 15.7888
135 2 55.6407 11.88 0.0906405
136 2 59.7797 11.8629 15.8332
137 2 63.7588 11.9242 0.111891
138 2 67.6758 11.9397 15.9108
139 2 71.536 11.9026 16.0445
140 2 75.6563 11.9501 15.9304
141 2 79.5165 12.0343 15.8187
142 2 83.6412 12.1451 15.9603
143 2 87.3791 11.8025 0.194961
144 2 91.3553 11.9273 0.10112
145 2 95.2552 11.9216 15.9336
146 2 99.1034 11.6512 15.8576
147 2 102.809 11.6251 0.0917545
148 2 106.876 11.598 15.9067
149 2 110.766 11.4981 0.197676
150 2 114.795 11.6228 15.7817
151 2 118.598 11.4221 -0.0475941
152 2 122.643 11.4476 0.11544
153 2 126.537 11.4259 15.91
154 2 130.491 11.5631 15.9598
155 2 134.299 11.294 0.0101149
156 2 138.161 11.2374 0.122097
157 2 142.212 11.1827 0.18149
158 2 145.941 11.2011 0.306251
159 2 150.078 11.1822 0.0274654
160 2 154.047 11.3751 0.0248387
161 2 157.862 15.2037 15.8477
162 2 3.47141 15.0848 16.0591
163 2 7.5611 15.2833 16.0554
164 2 11.4953 15.2801 15.7355
165 2 15.4601 15.5115 15.8974
166 2 19.569 15.3547 0.199582
167 2 23.4844 15.4239 0.0404735
168 2 27.4659 15.2439 16.0447
169 2 31.432 15.4615 0.132384
170 2 35.4969 15.5749 15.8122
171 2 39.6354 15.5193 0.0737625
172 2 43.5429 15.6749 0.0459486
173 2 47.5918 15.4903 0.12229
174 2 51.6903 15.5386 0.311952
175 2 55.6367 15.5753 16.0027
176 2 59.6666 15.7445 0.206444
177 2 63.6012 15.872 16.0482
178 2 67.4986 15.7747 16.0313
179 2 71.7959 15.9314 0.14334
180 2 75.724 15.8923 0.0632919
181 2 79.4583 16.025 15.852
182 2 83.6516 16.014 0.29775
183 2 87.588 15.695 15.7659
184 2 91.2508 15.7395 0.129679
185 2 95.2643 15.8601 16.0377
186 2 99.0526 15.8465 15.8032
187 2 103.047 15.6707 15.7847
188 2 106.926 15.7119 15.9297
189 2 110.779 15.5042 15.7349
190 2 114.774 15.4985 15.8879
191 2 118.595 15.609 0.209249
192 2 122.528 15.4165 15.8965
193 2 126.511 15.3881 15.9248
194 2 130.328 15.3725 0.118986
195 2 134.216 15.4277 0.192706
196 2 138.19 15.2039 0.0237142
197 2 142.095 15.427 15.7961
198 2 146.291 15.2996 0.0328895
199 2 149.98 15.1277 0.28605
200 2 153.915 15.1476 15.95
201 2 157.747 19.0165 15.9766
202 2 3.4688 19.3141 0.308575
203 2 7.42482 18.9979 0.0498518
204 2 11.5212 19.3467 15.9262
205 2 15.5034 19.2722 16.0325
206 2 19.4563 19.2681 15.8479
207 2 23.4426 19.498 15.8066
208 2 27.3211 19.2403 16.0398
209 2 31.3299 19.1514 15.8421
210 2 35.3593 19.3719 16.1588
211 2 39.5361 19.5107 0.148896
212 2 43.5078 19.4398 15.9425
213 2 47.4534 19.4962 15.9897
214 2 51.5204 19.5897 0.182108
215 2 55.4055 19.6172 15.943
216 2 59.4784 19.8667 15.9154
217 2 63.5264 19.6535 15.923
218 2 67.6389 19.7661 16.034
219 2 71.6181 19.7823 0.286905
220 2 75.6294 19.8947 0.197308
221 2 79.6888 19.8991 0.153792
222 2 83.6972 19.8779 15.7182
223 2 87.5397 19.7319 0.0751307
224 2 91.3764 19.8894 0.0152616
225 2 95.1291 19.8928 15.8933
226 2 99.1795 19.6834 15.8341
227 2 103.184 19.8806 15.9906
228 2 107.012 19.6631 15.6834
229 2 110.914 19.6502 0.0777956
230 2 114.706 19.4015 15.8986
231 2 118.673 19.4815 15.9545
232 2 122.747 19.5229 15.8834
233 2 126.708 19.2527 16.1264
234 2 130.393 19.2178 15.839
235 2 134.562 19.4424 0.0963066
236 2 138.468 19.1254 15.8449
237 2 142.32 19.2548 16.0645
238 2 146.151 19.1239 0.215975
239 2 150.098 19.2766 15.9418
240 2 154.068 19.0437 0.213227
241 2 157.917 23.0049 16.0953
242 2 3.59827 23.1222 16.1338
243 2 7.38657 23.0395 0.23234
244 2 11.4661 23.1826 0.132193
245 2 15.4168 23.2291 15.9167
246 2 19.5064 23.1759 15.8915
247 2 23.4473 23.2385 16.0741
248 2 27.4029 23.3305 15.8983
249 2 31.4436 23.2902 0.116094
250 2 35.4103 23.3289 15.968
251 2 39.4756 23.3741 0.12273
252 2 43.4123 23.4025 15.8221
253 2 47.4664 23.6055 0.281164
254 2 51.5077 23.4022 0.301428
255 2 55.5475 23.5292 0.123558
256 2 59.296 23.7028 15.9236
257 2 63.5025 23.7211 0.26687
258 2 67.3554 23.6524 16.1644
259 2 71.549 23.757 16.0231
260 2 75.453 23.9129 0.198938
261 2 79.3238 23.7299 15.8022
262 2 83.5012 23.792 0.122568
263 2 87.3913 23.6989 15.731
264 2 91.1264 23.7708 16.0147
265 2 95.2564 23.8908 15.7683
266 2 99.1967 23.7242 0.108725
267 2 103.077 23.7977 15.7941
268 2 106.843 23.537 15.7136
269 2 111.146 23.5521 0.028001
270 2 115.008 23.569 15.9104
271 2 118.923 23.4819 15.9196
272 2 122.686 23.6022 0.149088
273 2 126.721 23.3036 15.9773
274 2 130.573 23.3586 16.0985
275 2 134.462 23.3191 15.7791
276 2 138.43 23.3041 15.8718
277 2 142.288 23.1959 15.8941
278 2 146.105 23.3589 -0.0496871
279 2 150.089 23.0829 0.119224
280 2 154.015 23.0493 0.0940994
281 2 157.999 27.039 0.151505
282 2 3.55084 26.8195 0.111491
283 2 7.41544 27.025 -0.0617004
284 2 11.3216 26.9664 15.8712
285 2 15.3907 26.9596 15.7994
286 2 19.4536 26.96 -0.039134
287 2 23.5408 27.1969 15.8188
288 2 27.557 27.2322 16.0995
289 2 31.483 27.2695 0.287406
290 2 35.2406 27.2866 0.201363
291 2 39.4369 27.0914 -0.0167316
292 2 43.3535 27.4426 0.205446
293 2 47.5475 27.4449 0.296372
294 2 51.5184 27.3272 16.0788
295 2 55.5723 27.446 0.165767
296 2 59.5387 27.4015 15.951
297 2 63.4531 27.4354 15.9912
298 2 67.566 27.497 15.8228
299 2 71.5585 27.6477 15.9277
300 2 75.6377 27.8599 0.177149
301 2 79.6827 27.9485 0.148165
302 2 83.4477 27.9121 15.8667
303 2 87.5604 27.8222 0.350781
304 2 91.5139 27.853 -0.0476268
305 2 95.3284 27.7638 -0.149656
306 2 99.5772 27.6937 0.04459
307 2 103.465 27.7904 16.0509
308 2 107.247 27.7893 0.197878
309 2 111.019 27.6283 15.8837
310 2 114.765 27.5182 15.9696
311 2 118.676 27.4747 0.124615
312 2 122.887 27.4993 0.150268
313 2 126.621 27.2639 15.9285
314 2 130.683 27.3625 15.8409
315 2 134.476 27.3244 15.8173
316 2 138.145 27.4326 15.9943
317 2 142.156 27.0932 0.179728
318 2 146.088 27.0613 0.197552
319 2 150.171 27.3767 0.0551162
320 2 154.084 27.1121 -0.00911795
321 2 157.963 31.0149 16.0616
322 2 3.54111 31.0349 15.9049
323 2 7.57542 31.0046 16.0275
324 2 11.4278 31.2224 0.0641157
325 2 15.1993 30.9195 0.12869
326 2 19.2964 31.0068 15.9541
327 2 23.4514 31.061 15.9536
328 2 27.3002 31.1679 0.23413
329 2 31.3502 30.8954 16.0848
330 2 35.2848 31.2179 16.1125
331 2 39.4206 31.2222 15.967
332 2 43.1864 31.2643 0.168503
333 2 47.4357 31.3063 16.0257
334 2 51.4838 31.3831 0.2794
335 2 55.568 31.4624 15.9388
336 2 59.4231 31.3527 -0.0651342
337 2 63.3665 31.3767 15.88
338 2 67.5132 31.7312 0.0072266
339 2 71.6559 31.634 0.112474
340 2 75.4136 31.6238 0.202764
341 2 79.5405 31.638 15.9493
342 2 83.5113 31.7589 0.25873
343 2 87.4381 31.7667 16.1325
344 2 91.327 31.7525 15.9612
345 2 95.4434 32.0224 15.8121
346 2 99.3462 31.7874 0.0956249
347 2 103.155 31.8167 15.767
348 2 107.133 31.5968 16.0399
349 2 111.071 31.6562 15.828
350 2 115.038 31.472 15.8749
351 2 118.94 31.4356 15.8723
352 2 122.936 31.3934 15.9514
353 2 126.883 31.3793 15.9764
354 2 130.668 31.3058 15.9016
355 2 134.404 31.2174 16.0726
356 2 138.329 31.2528 15.8281
357 2 142.324 31.0825 0.18443
358 2 146.209 31.3489 16.1051
359 2 150.036 31.0614 0.194617
360 2 154.087 31.1154 0.180862
361 2 -0.404427 35.0065 -0.0458712
362 2 3.47669 35.0146 16.0943
363 2 7.4531 35.1806 16.1084
364 2 11.5414 35.0894 16.0932
365 2 15.4956 34.7548 0.0304504
366 2 19.3634 34.8843 0.20677
367 2 23.3989 35.2114 0.280089
368 2 27.1497 35.0236 0.0913661
369 2 30.9844 34.9968 0.279461
370 2 35.1162 34.9523 0.0290746
371 2 38.9988 35.1671 -0.0175088
372 2 43.4185 34.9997 15.9145
373 2 47.3267 35.2875 16.0896
374 2 51.3489 35.1307 15.9365
375 2 55.3204 35.1695 0.141829
376 2 59.3711 35.291 0.0462315
377 2 63.5395 35.4338 16.0608
378 2 67.2635 35.4589 0.160407
379 2 71.4524 35.5444 0.042772
380 2 75.427 35.4379 15.9209
381 2 79.3284 35.5629 -0.0400092
382 2 83.3802 35.6789 15.9863
383 2 87.4542 35.5928 -0.0507391
384 2 91.1868 35.7297 0.0318749
385 2 95.4287 35.8588 15.8367
386 2 99.385 35.8519 -0.0255474
387 2 103.3 35.6547 15.8077
388 2 107.201 35.6786 15.8825
389 2 111.108 35.6266 15.6111
390 2 114.998 35.5574 15.9845
391 2 118.885 35.5172 15.8393
392 2 122.881 35.5046 15.8703
393 2 126.723 35.4313 15.9106
394 2 130.598 35.3732 16.0542
395 2 134.413 35.204 15.9182
396 2 138.472 35.315 0.269399
397 2 142.501 35.0955 0.0720413
398 2 146.418 35.4231 0.23756
399 2 150.301 35.3089 16.0929
400 2 154.003 35.1677 0.291863
401 2 158.137 39.2148 0.0210081
402 2 3.72402 39.2197 0.24076
403 2 7.44253 38.9445 0.283965
404 2 11.454 39.0643 16.1839
405 2 15.3311 38.7762 0.338287
406 2 19.4875 38.8413 15.9527
407 2 23.3056 38.9492 15.9733
408 2 27.1893 38.999 15.8487
409 2 31.3442 38.9804 0.134011
410 2 35.258 39.2309 0.280801
411 2 39.3263 39.0224 15.9785
412 2 43.284 39.1183 -0.00715815
413 2 47.2678 39.1635 0.00714294
414 2 51.4017 39.1082 15.8083
415 2 55.2573 39.1093 0.30331
416 2 59.2376 39.1194 0.159482
417 2 63.2843 39.1766 0.155913
418 2 67.3177 39.3707 0.175214
419 2 71.2017 39.4191 0.0864214
420 2 75.3416 39.228 0.315737
421 2 79.3354 39.4554 0.00250707
422 2 83.297 39.3668 16.0524
423 2 87.2957 39.4964 16.0612
424 2 91.4589 39.5525 16.0216
425 2 95.3438 39.7099 15.9883
426 2 99.4046 39.6396 -0.00824322
427 2 103.453 39.863 15.8598
428 2 107.225 39.664 15.9853
429 2 111.245 39.7396 15.7452
430 2 115.14 39.759 15.7948
431 2 118.931 39.3732 15.989
432 2 122.973 39.4182 15.851
433 2 126.824 39.5099 0.147848
434 2 130.44 39.4501 15.9433
435 2 134.463 39.22 15.8548
436 2 138.607 39.2257 15.9728
437 2 142.49 39.2911 15.9864
438 2 146.402 39.1321 0.202938
439 2 150.33 39.0988 16.0882
440 2 154.217 39.0736 16.0436
441 2 158.152 43.2473 0.186963
442 2 3.72138 43.0068 16.0241
443 2 7.57671 43.171 15.9485
444 2 11.5492 42.8112 0.171776
445 2 15.5485 42.9503 0.151831
446 2 19.494 42.9871 0.186461
447 2 23.4235 42.8069 15.8895
448 2 27.3293 43.0149 16.0271
449 2 31.0342 42.7836 0.214914
450 2 35.1694 43.0777 0.218604
451 2 39.1457 42.8648 0.0790577
452 2 43.2032 42.9232 0.0605903
453 2 47.2867 43.0951 15.6085
454 2 51.2238 43.1304 16.096
455 2 55.1387 43.0424 0.259615
456 2 59.3481 43.1459 15.9046
457 2 63.347 43.0364 0.226237
458 2 67.2726 43.2126 0.189324
459 2 71.1799 43.2828 0.0724292
460 2 75.4119 43.2705 0.0138326
461 2 79.1496 43.5746 -0.124341
462 2 83.1502 43.4679 15.9714
463 2 87.2265 43.3939 16.0078
464 2 91.2302 43.4274 0.143218
465 2 95.327 43.6422 0.366813
466 2 99.1506 43.6375 15.9477
467 2 103.29 43.6485 15.8688
468 2 107.244 43.706 15.7785
469 2 111.133 43.581 15.7144
470 2 115.221 43.6455 15.8755
471 2 118.993 43.4226 15.9944
472 2 122.853 43.4124 16.0576
473 2 126.672 43.5136 0.0959173
474 2 130.699 43.3515 0.221648
475 2 134.613 43.3455 15.8015
476 2 138.522 43.2312 15.8061
477 2 142.618 43.1405 15.9843
478 2 146.459 43.1235 0.134098
479 2 150.257 43.0957 0.214875
480 2 154.282 43.1338 0.144541
481 2 -0.177486 47.1142 0.152325
482 2 3.61579 46.9753 0.131055
483 2 7.72439 47.0581 0.183365
484 2 11.2951 47.0772 0.0881351
485 2 15.4378 46.9331 0.286887
486 2 19.4358 46.9499 0.198814
487 2 23.2972 46.9409 0.133092
488 2 27.1391 47.0122 15.928
489 2 31.1776 46.935 0.0995249
490 2 34.9217 47.0027 0.0152519
491 2 39.1103 46.7419 16.0438
492 2 43.2992 46.893 16.1836
493 2 47.1737 47.1231 0.168559
494 2 51.141 46.7295 15.9993
495 2 55.1865 47.0145 15.9502
496 2 59.2158 47.0152 15.8567
497 2 63.1701 47.2001 0.0474532
498 2 67.125 47.0671 0.0619877
499 2 71.0919 47.2667 15.7756
500 2 75.1897 47.3224 0.0958086
501 2 79.2006 47.2392 15.7419
502 2 83.2655 47.3904 16.0276
503 2 87.3467 47.4653 0.31764
504 2 91.2222 47.4948 0.129899
505 2 95.1926 47.5728 0.16715
506 2 99.2874 47.5026 -0.136961
507 2 103.295 47.3191 0.233074
508 2 107.444 47.6507 16.0164
509 2 111.412 47.6532 15.7877
510 2 115.087 47.4429 0.0786621
511 2 118.885 47.5614 15.7957
512 2 123.006 47.3504 16.0294
513 2 126.97 47.4573 16.0497
514 2 130.786 47.3089 15.9787
515 2 134.669 47.3802 15.8528
516 2 138.408 47.3135 15.8059
517 2 142.668 47.2105 15.8693
518 2 146.66 47.462 -0.0562311
519 2 150.372 47.295 0.0372983
520 2 154.365 47.1576 15.9967
521 2 158.397 51.139 0.234418
522 2 3.7612 51.0811 16.0559
523 2 7.64117 51.0055 16.0375
524 2 11.6388 51.1906 15.9647
525 2 15.7152 51.0162 0.263704
526 2 19.5717 51.1165 16.1577
527 2 23.3226 50.8932 16.146
528 2 27.236 50.6928 15.811
529 2 31.2013 50.951 0.0231706
530 2 35.1139 50.7959 0.279568
531 2 39.0154 50.6654 15.8548
532 2 43.1351 50.7716 16.0486
533 2 47.1558 50.9704 0.24986
534 2 51.1937 50.9405 0.151102
535 2 55.187 51.0139 0.188493
536 2 59.0843 50.8792 16.0689
537 2 62.9936 51.0155 16.1203
538 2 67.0925 51.0325 0.191217
539 2 71.1048 51.1972 0.151217
540 2 75.1706 51.1872 -0.205229
541 2 79.2346 51.1872 0.0327068
542 2 83.1864 51.2032 0.141196
543 2 87.1927 51.2247 0.089398
544 2 91.1837 51.3336 0.313531
545 2 95.2711 51.4124 0.102103
546 2 99.2338 51.4201 0.0259857
547 2 103.218 51.4845 15.7754
548 2 107.318 51.4273 0.253865
549 2 110.982 51.4945 0.186463
550 2 115.284 51.5175 15.7254
551 2 119.234 51.6893 15.7678
552 2 123.155 51.5643 15.6498
553 2 126.864 51.5222 15.9248
554 2 130.767 51.5726 0.15053
555 2 134.78 51.3845 -0.0351785
556 2 138.741 51.1756 0.0494701
557 2 142.606 51.3322 0.00068769
558 2 146.351 51.249 15.809
559 2 150.295 51.3751 0.116774
560 2 154.43 51.1416 0.0798309
561 2 158.234 55.1058 0.16073
562 2 3.91174 55.0009 0.211731
563 2 7.8617 55.1035 0.0386502
564 2 11.5919 55.0413 -0.0378155
565 2 15.6251 55.0654 0.256229
566 2 19.5092 54.9465 16.0911
567 2 23.4613 54.731 16.0117
568 2 27.3262 54.8486 16.0109
569 2 31.3824 54.7965 0.283941
570 2 35.2622 54.7146 0.020026
571 2 39.0723 54.5877 15.8059
572 2 43.1499 54.7251 16.0599
573 2 47.032 54.8871 0.47069
574 2 51.0854 54.7469 16.0278
575 2 55.0078 54.7745 16.2651
576 2 59.1277 54.7479 15.8543
577 2 63.1513 54.8271 16.0912
578 2 67.2026 54.8836 0.172985
579 2 71.0337 55.0368 0.377321
580 2 75.1086 55.087 15.9784
581 2 78.8775 54.9766 0.0812599
582 2 83.1375 54.9471 0.14241
583 2 87.2217 55.3117 0.205628
584 2 91.1184 55.1622 15.9889
585 2 95.071 55.3013 0.0399413
586 2 99.1761 55.2112 16.1199
587 2 103.125 55.4034 15.808
588 2 107.291 55.4114 -0.0110759
589 2 111.138 55.6731 15.8439
590 2 115.258 55.5022 16.0059
591 2 119.218 55.4814 16.002
592 2 123.173 55.645 -0.0270631
593 2 127.033 55.3651 15.8595
594 2 130.885 55.5063 15.7961
595 2 135.001 55.4153 0.249264
596 2 138.87 55.2853 15.8728
597 2 142.755 55.3374 0.0454866
598 2 146.529 55.1956 -0.172658
599 2 150.504 55.249 -0.0568168
600 2 154.478 54.9464 15.9046
601 2 158.311 59.06 0.153725
602 2 3.94213 58.9288 15.8615
603 2 7.85461 59.1428 15.8461
604 2 11.6661 59.102 0.0589519
605 2 15.8308 59.1144 16.1476
606 2 19.6411 58.9386 0.235214
607 2 23.6147 59.0272 0.345628
608 2 27.283 58.9968 0.288317
609 2 31.3447 58.7514 16.094
610 2 35.2352 58.8527 16.1151
611 2 39.2713 58.6816 16.06
612 2 42.9816 58.6751 15.8614
613 2 47.1811 58.7281 15.9425
614 2 50.9164 58.4688 16.1787
615 2 55.0134 58.6168 16.0527
616 2 59.0448 58.684 0.0843886
617 2 63.0246 58.8541 15.9097
618 2 67.0888 59.0003 0.25422
619 2 71.2961 58.8383 15.8652
620 2 75.139 59.0012 0.335675
621 2 79.144 58.9787 0.137545
622 2 82.8665 59.0398 -0.0389828
623 2 86.9408 59.2031 16.1643
624 2 91.1557 59.2596 15.8958
625 2 94.9878 59.2505 0.118768
626 2 99.1638 59.1426 0.145333
627 2 103.229 59.3063 15.8692
628 2 107.236 59.3426 0.245352
629 2 111.25 59.3322 15.9455
630 2 115.354 59.3388 16.0539
631 2 119.228 59.5112 16.1285
632 2 123.424 59.3729 0.0963019
633 2 127.223 59.5399 15.7243
634 2 131.126 59.4294 0.0143979
635 2 135.092 59.4905 15.8457
636 2 138.943 59.5485 0.226952
637 2 142.86 59.3111 0.0654123
638 2 146.726 59.3217 0.255832
639 2 150.679 59.2094 15.913
640 2 154.525 59.2464 0.277199
641 2 0.228241 63.1551 0.106006
642 2 4.10331 63.2875 0.145211
643 2 7.80547 63.0214 15.8819
644 2 11.8194 62.8898 15.9581
645 2 15.6273 62.8999 16.0009
646 2 19.6055 62.9255 0.350841
647 2 23.474 63.0754 0.379766
648 2 27.6152 62.972 0.046551
649 2 31.3194 62.7894 0.271469
650 2 35.2213 62.8622 0.0772265
651 2 39.2243 62.8713 16.2741
652 2 43.0562 62.6745 0.174646
653 2 46.8843 62.4949 16.0087
654 2 50.9011 62.445 16.0672
655 2 55.1314 62.6084 0.269506
656 2 58.9856 62.6155 15.8695
657 2 62.8689 62.7802 0.200742
658 2 66.9898 62.7346 15.9382
659 2 70.835 62.8877 0.025507
660 2 75.095 62.918 0.139522
661 2 79.05 63.0356 0.127546
662 2 83.0738 62.8074 0.0865913
663 2 87.1249 62.9658 15.8763
664 2 91.1006 63.0903 15.8671
665 2 94.9893 62.9322 0.225684
666 2 99.1732 63.061 0.198656
667 2 103.164 63.1525 16.0438
668 2 107.011 63.2851 15.8727
669 2 111.091 63.1286 15.8749
670 2 114.975 63.2598 0.38475
671 2 119.029 63.167 16.0295
672 2 123.05 63.2183 0.0884716
673 2 127.23 63.4803 16.0264
674 2 131.198 63.2804 0.0716194
675 2 135.051 63.3337 15.8678
676 2 138.897 63.3948 15.9168
677 2 142.737 63.3084 15.8871
678 2 146.884 63.2562 0.146674
679 2 150.731 63.1751 15.9872
680 2 154.59 63.3406 0.0993239
681 2 0.135624 67.2493 0.310231
682 2 4.05558 67.1072 0.161682
683 2 7.86196 67.2384 16.0025
684 2 11.8093 67.0725 16.1412
685 2 15.7054 66.8291 0.278235
686 2 19.63 66.9371 0.128979
687 2 23.7097 66.9655 0.226793
688 2 27.5815 67.0639 0.347803
689 2 31.433 66.8589 0.176588
690 2 35.4149 66.9244 0.134607
691 2 39.3121 66.7192 16.0578
692 2 43.1805 66.7321 0.321166
693 2 46.9658 66.5949 16.0593
694 2 50.9416 66.4477 16.343
695 2 54.9743 66.412 16.1313
696 2 59.0076 66.5689 15.9064
697 2 63.0199 66.5499 16.0189
698 2 66.993 66.6878 15.8985
699 2 71.0361 66.8111 0.384162
700 2 75.032 66.8874 15.8827
701 2 79.0775 66.7544 15.9574
702 2 82.9074 66.8584 0.193379
703 2 86.9872 66.8855 15.7868
704 2 91.0583 66.9476 15.8584
705 2 95.1627 66.8913 0.0540078
706 2 99.0451 66.9254 0.245531
707 2 103.034 67.1351 0.114806
708 2 107.052 67.1396 15.9023
709 2 111.114 67.1841 15.8202
710 2 115.202 67.2856 15.9287
711 2 119.266 67.2108 0.323806
712 2 123.248 67.4035 0.0239278
713 2 127.185 67.43 0.111738
714 2 131.258 67.2982 15.9079
715 2 134.896 67.366 0.224803
716 2 139.074 67.5279 0.280996
717 2 142.984 67.3861 15.964
718 2 146.71 67.294 16.1134
719 2 150.554 67.3202 16.0154
720 2 154.713 67.1414 0.293207
721 2 0.213974 71.3472 0.178033
722 2 4.11974 71.2799 15.908
723 2 8.0409 71.273 0.161193
724 2 11.9634 71.1509 16.1261
725 2 15.9381 71.1504 0.117929
726 2 19.8911 70.9894 0.14815
727 2 23.6821 71.0653 0.157601
728 2 27.6202 70.9587 15.9896
729 2 31.693 70.8711 -0.0669552
730 2 35.4872 70.7802 0.239797
731 2 39.1537 70.7258 16.0238
732 2 43.4591 70.7704 0.0393705
733 2 47.1702 70.5949 15.9907
734 2 50.9664 70.4483 16.0094
735 2 54.9418 70.4753 0.276276
736 2 58.8659 70.4684 0.205387
737 2 62.8555 70.3576 0.233862
738 2 66.7974 70.695 16.199
739 2 70.8944 70.6536 15.9802
740 2 75.025 70.7398 15.9223
741 2 78.9872 70.6792 0.0745692
742 2 82.929 70.6576 0.135068
743 2 86.9128 70.8339 15.9313
744 2 90.9366 70.9449 15.8452
745 2 94.9157 71.0177 16.0819
746 2 98.9821 70.9373 15.9711
747 2 103.029 71.1856 15.8552
748 2 106.911 70.9644 16.1847
749 2 111.17 71.0384 15.911
750 2 115.165 71.1233 0.229048
751 2 119.298 71.0314 15.9979
752 2 123.21 71.3248 0.1304
753 2 127.093 71.0485 15.7283
754 2 131.133 71.3759 15.9634
755 2 135.153 71.3216 16.0558
756 2 139.098 71.4578 16.0489
757 2 142.992 71.3466 0.0333622
758 2 146.951 71.1663 0.139794
759 2 150.779 71.2744 0.131071
760 2 154.597 71.1943 15.9723
761 2 0.403387 75.1352 0.165989
762 2 4.38617 75.142 15.9972
763 2 8.12801 75.3349 15.7659
764 2 12.1719 75.2268 15.9791
765 2 15.9957 75.0989 15.8689
766 2 19.7418 74.9679 16.0975
767 2 23.7719 74.9855 16.0047
768 2 27.706 74.981 15.9588
769 2 31.524 75.1397 0.137489
770 2 35.4927 75.046 15.8049
771 2 39.4656 74.755 16.0181
772 2 43.466 74.7841 0.144358
773 2 47.1407 74.5536 15.939
774 2 51.0922 74.5418 0.276178
775 2 54.8789 74.5139 15.978
776 2 58.8491 74.421 15.9849
777 2 62.81 74.4038 16.2119
778 2 66.8911 74.4566 0.220524
779 2 70.67 74.3589 0.13143
780 2 74.7452 74.5327 0.0821545
781 2 78.7807 74.5974 0.0639149
782 2 82.9608 74.6674 0.179738
783 2 87.0656 74.709 0.0796288
784 2 90.8336 74.7486 16.1121
785 2 94.9732 74.8155 16.0826
786 2 99.0496 74.8806 0.304769
787 2 103.057 74.9398 16.1397
788 2 107.104 74.7818 16.0166
789 2 110.746 74.8395 15.8484
790 2 115.047 74.9525 16.0083
791 2 119.084 75.2036 0.263586
792 2 123.144 75.198 16.0708
793 2 127.191 75.0273 15.8471
794 2 131.106 75.3208 0.188432
795 2 134.98 75.1839 15.8351
796 2 139.12 75.4214 16.0228
797 2 142.951 75.2683 15.7663
798 2 146.859 75.3073 16.0982
799 2 150.766 75.346 0.0375758
800 2 154.81 75.2167 0.166846
801 2 0.437569 79.1861 0.0447716
802 2 4.21686 79.2547 15.9315
803 2 8.25011 79.1842 0.122601
804 2 12.1994 79.1133 0.0991108
805 2 16.1206 79.142 16.0883
806 2 19.8802 79.1285 15.958
807 2 23.9511 79.0744 0.166637
808 2 27.5275 79.1626 0.172738
809 2 31.3535 78.9065 0.156781
810 2 35.4794 78.945 0.337602
811 2 39.4193 78.8521 16.0731
812 2 43.3315 78.6809 15.9312
813 2 47.3213 78.7543 15.8507
814 2 51.0069 78.6246 0.21855
815 2 55.0163 78.509 0.264869
816 2 58.9036 78.3854 16.0167
817 2 62.9042 78.3008 15.8811
818 2 66.6941 78.2817 0.383114
819 2 70.6609 78.4064 15.7878
820 2 74.8409 78.391 0.114572
821 2 78.7949 78.6313 15.9886
822 2 82.9462 78.723 15.9041
823 2 86.8713 78.7437 0.0210537
824 2 90.8874 78.7318 0.184908
825 2 95.0034 78.7453 0.179352
826 2 98.8292 78.616 16.0937
827 2 103.039 78.8437 15.8265
828 2 106.933 78.9181 0.250541
829 2 111.105 78.916 0.186416
830 2 115.067 78.9618 0.0676881
831 2 119.007 78.923 0.0495858
832 2 123.016 78.9542 15.8673
833 2 127.181 79.0489 0.158087
834 2 131.172 79.0895 15.9149
835 2 135.035 79.4044 0.163193
836 2 138.996 79.3275 16.1276
837 2 143.043 79.3187 16.1023
838 2 146.876 79.3911 16.0031
839 2 150.899 79.4874 16.1332
840 2 154.824 79.2009 0.194838
841 2 0.391611 83.2311 15.9765
842 2 4.39268 83.1993 15.8122
843 2 8.38778 83.1273 0.218254
844 2 12.2001 83.1843 15.9864
845 2 16.0253 83.444 16.0566
846 2 19.9045 83.1797 -0.0381056
847 2 23.7714 83.1176 15.9485
848 2 27.6625 83.0975 0.375975
849 2 31.8169 83.0507 16.1587
850 2 35.5626 82.7989 0.0246169
851 2 39.4519 82.6407 0.184321
852 2 43.4412 82.7135 15.9512
853 2 47.2724 82.7581 0.22579
854 2 51.183 82.4251 0.161853
855 2 55.1297 82.5806 0.13209
856 2 59.1571 82.6035 15.6631
857 2 63.0685 82.4869 15.8448
858 2 66.9927 82.5278 16.0115
859 2 70.9265 82.327 15.8977
860 2 74.7107 82.2678 15.857
861 2 78.8187 82.2787 15.8741
862 2 82.7379 82.6894 0.0786742
863 2 86.916 82.6536 0.236126
864 2 90.9024 82.5363 15.9931
865 2 94.9184 82.6894 0.0972093
866 2 98.9821 82.7238 15.9947
867 2 102.916 82.5904 0.457747
868 2 106.963 82.8059 15.8686
869 2 110.877 82.9477 15.8648
870 2 114.969 82.7968 15.9448
871 2 118.92 82.9104 15.8407
872 2 122.877 82.9004 15.9699
873 2 127.276 83.0575 16.0357
874 2 131.185 83.0141 16.0205
875 2 135.176 83.2518 0.15317
876 2 139.089 83.118 16.0152
877 2 142.956 83.4459 0.34685
878 2 146.934 83.5047 15.9663
879 2 150.845 83.1919 0.138253
880 2 154.889 83.4538 0.0238277
881 2 0.569776 87.2415 15.9544
882 2 4.37564 87.1367 0.0820342
883 2 8.34352 87.306 16.0933
884 2 12.2261 87.3975 16.1212
885 2 16.1269 87.2464 15.9531
886 2 19.8015 87.2534 16.0604
887 2 23.8296 87.173 16.0089
888 2 27.6787 86.8538 0.214411
889 2 31.8161 86.9332 16.0909
890 2 35.6932 86.8752 0.110667
891 2 39.5137 86.7138 16.0709
892 2 43.3594 86.7144 16.0978
893 2 47.3675 86.6216 15.9363
894 2 51.1292 86.6763 16.0062
895 2 55.0955 86.5215 16.0343
896 2 58.9679 86.5319 0.0248859
897 2 62.9848 86.3391 0.0390304
898 2 67.0606 86.4684 15.8224
899 2 70.9286 86.3259 0.111234
900 2 74.8324 86.2941 15.8213
901 2 78.738 86.4525 0.123476
902 2 82.6788 86.5659 -0.151723
903 2 86.7121 86.5487 15.8526
904 2 90.8467 86.4689 15.8796
905 2 94.8823 86.43 15.9487
906 2 98.9144 86.5505 15.8904
907 2 102.795 86.5344 0.0765967
908 2 106.986 86.573 0.167305
909 2 111.067 86.6668 16.0134
910 2 115.027 86.8191 0.123427
911 2 118.965 86.8489 0.229943
912 2 123.073 86.9874 0.260652
913 2 126.903 87.0277 16.0315
914 2 130.868 87.0393 15.8886
915 2 134.877 87.282 15.9623
916 2 138.768 87.1437 16.2171
917 2 142.924 87.1147 15.8767
918 2 146.911 87.3345 0.144363
919 2 150.787 87.52 15.8198
920 2 154.952 87.2301 16.1668
921 2 0.571161 91.2902 0.108144
922 2 4.53035 91.3859 0.0227829
923 2 8.37855 91.2818 15.9864
924 2 12.1012 91.2808 15.998
925 2 16.0893 91.224 0.220741
926 2 20.0805 91.1892 -0.0067045
927 2 23.8683 91.0274 15.912
928 2 27.7169 90.8192 15.9378
929 2 31.6404 90.9379 15.8782
930 2 35.5015 91.0292 0.031265
931 2 39.4375 90.786 15.7838
932 2 43.4182 90.7152 15.8462
933 2 47.4151 90.7716 0.116959
934 2 51.2245 90.522 0.196099
935 2 55.3829 90.4421 0.130356
936 2 59.1697 90.4567 0.136667
937 2 63.282 90.5849 -0.00569033
938 2 67.1167 90.3557 15.9526
939 2 70.9408 90.2668 15.7914
940 2 74.6871 90.3378 0.102696
941 2 78.9252 90.2159 0.0124391
942 2 82.9228 90.5439 -0.0386754
943 2 86.9131 90.4071 -0.0533949
944 2 90.9889 90.3826 -0.058086
945 2 94.9592 90.5639 15.9443
946 2 98.7838 90.5502 15.8858
947 2 102.865 90.5392 0.168674
948 2 106.866 90.5803 16.1156
949 2 110.929 90.4985 15.9724
950 2 114.944 90.7135 0.0268672
951 2 118.776 90.7959 0.0756098
952 2 122.945 90.6441 15.8802
953 2 126.854 90.7638 0.162689
954 2 130.899 90.978 0.0207426
955 2 134.909 91.102 15.7605
956 2 138.9 90.9401 15.9314
957 2 142.726 91.0158 16.1489
958 2 146.96 91.1959 15.8946
959 2 150.835 91.2992 16.0028
960 2 154.921 91.2301 15.7928
961 2 0.408027 95.2104 0.0528698
962 2 4.59866 95.4321 16.179
963 2 8.36543 95.3073 16.2296
964 2 12.2045 95.2142 16.0154
965 2 16.076 95.2066 16.1082
966 2 19.8882 95.185 16.0447
967 2 24.1366 95.1441 15.8357
968 2 28.0404 95.0248 15.937
969 2 31.8443 95.089 15.6549
970 2 35.7906 95.0791 15.8597
971 2 39.5374 94.9294 15.958
972 2 43.4275 94.6876 15.9186
973 2 47.4138 94.5191 0.260963
974 2 51.3583 94.6172 15.9075
975 2 55.1297 94.6769 0.153574
976 2 59.1445 94.5223 15.9122
977 2 62.9557 94.457 -0.00250539
978 2 67.1448 94.4101 0.253942
979 2 71.0209 94.4041 0.151859
980 2 74.7768 94.3226 0.218387
981 2 78.9018 94.2692 15.961