ITEM: TIMESTEP
20500
ITEM: NUMBER OF ATOMS
32000
ITEM: BOX BOUNDS xy xz yz pp pp pp
0.0000000000000000e+00 1.5831999999999999e+02 0.0000000000000000e+00
0.0000000000000000e+00 1.5831999999999999e+02 0.0000000000000000e+00
1.6496231295951880e-01 1.5932749687040312e+01 0.0000000000000000e+00
ITEM: ATOMS id type x y z
1 2 158 157.815 16.0262
2 2 3.91158 157.919 16.1026
3 2 7.91688 158.029 0.147126
4 2 11.6911 157.872 0.165836
5 2 15.4503 157.947 0.405553
6 2 19.9131 158.208 15.9175
7 2 23.8812 157.996 15.8155
8 2 28.0422 158.075 15.8642
9 2 31.7736 158.083 0.321591
10 2 35.8747 158.116 15.8284
11 2 39.6005 -0.0406684 15.8423
12 2 43.7596 0.0385073 8.00473e-05
13 2 47.8529 0.0243455 16.017
14 2 51.8214 -0.131598 0.189134
15 2 56.03 158.356 0.160644
16 2 59.9075 158.369 15.9853
17 2 63.6234 -0.112213 15.8291
18 2 67.4042 0.169729 16.0317
19 2 71.6578 0.0592256 15.8987
20 2 75.5578 158.177 15.9578
21 2 79.2913 -0.0370298 16.0099
22 2 83.2093 158.167 15.9163
23 2 87.2449 158.091 15.7855
24 2 91.242 158.149 0.0036289
25 2 95.1282 158.106 15.7825
26 2 98.8772 158.151 16.0099
27 2 102.934 158.059 15.8316
28 2 106.818 158.025 15.7891
29 2 110.766 157.872 0.0492918
30 2 114.491 157.721 0.090818
31 2 118.399 157.761 15.894
32 2 122.315 157.781 -0.147148
33 2 126.34 157.664 0.0713966
34 2 130.261 157.534 0.241653
35 2 134.075 157.541 15.7428
36 2 138.036 157.664 15.9596
37 2 142.004 157.494 15.8935
38 2 146.17 157.742 16.0155
39 2 150.049 157.766 0.290442
40 2 153.79 158.059 0.18757
41 2 158.113 3.5433 16.079
42 2 3.82795 3.37768 15.9403
43 2 7.7438 3.43231 0.13103
44 2 11.5053 3.33094 16.1029
45 2 15.7505 3.58204 15.9456
46 2 19.7632 3.64708 15.8917
47 2 23.8058 3.60951 0.159765
48 2 27.8586 3.8873 0.214549
49 2 31.844 3.5481 0.249918
50 2 35.748 3.66777 0.154413
51 2 39.6922 3.83038 0.27314
52 2 43.6216 3.9155 15.7165
53 2 47.6276 4.02242 16.0581
54 2 51.8981 3.88259 15.8833
55 2 55.707 3.89571 0.230544
56 2 59.7192 3.95604 15.7171
57 2 63.8534 3.85578 15.9293
58 2 67.8408 3.9798 16.0117
59 2 71.5798 4.06564 16.1347
60 2 75.365 3.91257 15.6981
61 2 79.5476 3.94629 15.8054
62 2 83.4704 3.97313 16.0141
63 2 87.3647 3.81235 15.9872
64 2 91.1598 3.82429 0.0963372
65 2 95.1162 3.7257 15.896
66 2 98.9665 3.8024 0.126943
67 2 102.953 3.6646 15.8792
68 2 106.958 3.74621 15.6676
69 2 110.667 3.66473 0.0919927
70 2 114.655 3.5394 0.137594
71 2 118.461 3.65418 0.298348
72 2 122.35 3.41815 0.170597
73 2 126.534 3.43036 0.303441
74 2 130.492 3.2213 0.116511
75 2 134.12 3.28527 15.7135
76 2 138.068 3.25102 0.253998
77 2 142.059 3.06471 0.106639
78 2 146.087 3.34159 0.221706
79 2 149.962 3.35479 16.149
80 2 154.01 3.39691 16.0904
81 2 157.835 7.55933 16.1528
82 2 3.64081 7.36235 16.0302
83 2 7.62751 7.61909 16.1633
84 2 11.7727 7.48381 0.371359
85 2 15.8416 7.47292 16.0207
86 2 19.6108 7.70129 15.8553
87 2 23.4978 7.49381 0.145959
88 2 27.5779 7.83955 15.7389
89 2 31.5321 7.54778 15.9641
90 2 35.5503 7.63247 16.0058
91 2 39.6121 7.7143 0.246339
92 2 43.7125 7.72064 0.0823607
93 2 47.5169 7.86395 15.7327
94 2 51.7 7.82626 0.143828
95 2 55.6218 7.97475 15.8659
96 2 59.7476 7.9211 0.0996079
97 2 63.6884 8.00258 15.8437
98 2 67.6796 7.88654 15.7307
99 2 71.6192 7.94216 16.093
100 2 75.553 7.93566 15.9731
101 2 79.4691 7.98513 0.211113
102 2 83.3627 7.83757 15.8236
103 2 87.3091 8.05027 16.0438
104 2 91.1813 7.83483 15.9342
105 2 95.04 7.83024 15.7904
106 2 99.0922 7.64241 0.101904
107 2 102.957 7.59778 0.0861232
108 2 106.899 7.56674 15.7292
109 2 110.754 7.33958 0.18899
110 2 114.857 7.45046 15.7643
111 2 118.629 7.34957 15.8164
112 2 122.636 7.5065 15.8669
113 2 126.348 7.34961 15.9809
114 2 130.244 7.40838 0.324091
115 2 134.421 7.45553 -0.0786399
116 2 138.17 7.27298 15.8109
117 2 142.169 7.24717 15.92
118 2 146.092 7.21987 0.0537112
119 2 150.035 7.29225 0.221289
120 2 153.9 7.29844 15.9417
121 2 157.955 11.5096 15.9339
122 2 3.63088 11.3742 16.0651
123 2 7.66795 11.2993 15.8665
124 2 11.6756 11.4073 0.134974
125 2 15.6297 11.4832 15.9165
126 2 19.5788 11.4756 16.0589
127 2 23.732 11.4887 15.8275
128 2 27.625 11.6311 16.0938
129 2 31.4976 11.5929 16.061
130 2 35.4798 11.5214 15.8898
131 2 39.6947 11.8877 15.8738
132 2 43.4513 11.8374 0.240707
133 2 47.6945 11.8604 0.17372
134 2 51.7857 11.9172 15.9359
135 2 55.6655 11.5348 0.114231
136 2 59.5948 11.9247 15.8744
137 2 63.7483 11.9691 0.392297
138 2 67.675 11.8738 15.9699
139 2 71.6462 11.9156 15.9947
140 2 75.6226 11.9276 15.9437
141 2 79.5485 12.0749 15.9315
142 2 83.3782 11.774 15.9901
143 2 87.29 11.8152 0.134116
144 2 91.2397 11.7274 0.330391
145 2 95.1978 11.7862 15.903
146 2 98.9554 11.9587 15.6958
147 2 103.101 11.8355 0.120501
148 2 106.851 11.594 15.7366
149 2 110.829 11.7344 0.245067
150 2 114.809 11.4893 15.9394
151 2 118.678 11.435 0.146397
152 2 122.378 11.4811 0.138812
153 2 126.488 11.2971 15.9192
154 2 130.378 11.3469 15.7662
155 2 134.247 11.3439 -0.0180626
156 2 138.166 11.3879 0.303136
157 2 142.05 11.2281 0.194511
158 2 146.145 11.1973 0.319878
159 2 149.908 11.1889 0.27511
160 2 153.905 11.129 0.135345
161 2 157.913 15.3495 15.9583
162 2 3.53067 15.3284 15.9636
163 2 7.64343 15.3386 15.8623
164 2 11.6239 15.2434 16.0315
165 2 15.6632 15.12 15.8975
166 2 19.571 15.4984 0.137525
167 2 23.5955 15.4333 0.410986
168 2 27.5206 15.5392 15.9228
169 2 31.4345 15.52 0.175525
170 2 35.4434 15.5257 15.9086
171 2 39.6148 15.5298 0.310382
172 2 43.592 15.6051 0.210677
173 2 47.3967 15.5044 0.332755
174 2 51.6394 15.7444 0.160802
175 2 55.6074 15.6336 16.0039
176 2 59.4192 15.6635 0.184925
177 2 63.6982 15.7821 15.9825
178 2 67.7608 15.9231 15.9118
179 2 71.5718 15.8719 0.265275
180 2 75.5975 16.1008 0.215096
181 2 79.6897 15.9858 15.8118
182 2 83.6123 15.9898 0.070866
183 2 87.3483 15.9362 15.7899
184 2 91.3243 15.9549 0.0194275
185 2 94.9582 15.8666 15.8222
186 2 99.1173 15.6382 15.8472
187 2 102.925 15.81 15.8564
188 2 106.688 15.7361 15.7696
189 2 110.905 15.5908 15.9663
190 2 114.79 15.4643 15.8183
191 2 118.743 15.462 0.309307
192 2 122.448 15.4481 15.9359
193 2 126.261 15.3791 16.0623
194 2 130.342 15.2975 0.195612
195 2 134.156 15.3524 -0.101016
196 2 138.247 15.36 0.11733
197 2 142.202 15.0908 15.8887
198 2 145.937 15.1894 0.410318
199 2 150.081 15.1903 -0.0456026
200 2 153.869 15.1468 15.6258
201 2 157.949 19.0894 15.8504
202 2 3.50309 19.0349 0.250915
203 2 7.5676 19.1944 0.196473
204 2 11.4028 19.1688 15.9885
205 2 15.406 19.236 15.8536
206 2 19.4842 19.3076 15.9991
207 2 23.5327 19.4675 16.0563
208 2 27.4938 19.3252 15.8405
209 2 31.5291 19.5633 16.0859
210 2 35.5378 19.4825 15.8052
211 2 39.3632 19.1893 0.287638
212 2 43.5333 19.6322 15.976
213 2 47.5871 19.3111 16.0607
214 2 51.3038 19.4692 0.0632719
215 2 55.5989 19.5889 15.7823
216 2 59.5325 19.6993 15.8412
217 2 63.6843 19.7844 15.9793
218 2 67.556 19.6051 15.9489
219 2 71.5904 20.0148 0.0637579
220 2 75.5003 19.9456 0.0356568
221 2 79.4426 19.8685 0.187764
222 2 83.4571 19.8878 16.0863
223 2 87.4997 19.9355 0.0133771
224 2 91.2671 19.8248 0.164514
225 2 95.314 19.8343 15.6503
226 2 99.1318 19.755 15.8606
227 2 102.962 19.5441 15.6334
228 2 106.994 19.5065 15.9415
229 2 110.731 19.6418 0.145311
230 2 114.714 19.6029 15.7956
231 2 118.621 19.5967 15.9736
232 2 122.491 19.3324 16.0375
233 2 126.472 19.4346 15.7709
234 2 130.546 19.3678 15.8418
235 2 134.23 19.2574 0.0301032
236 2 138.138 19.4773 15.9977
237 2 142.158 19.2557 15.8093
238 2 146.017 19.3762 0.0775543
239 2 150.171 19.2137 15.8258
240 2 154.037 19.1615 0.00675112
241 2 157.706 23.0379 15.6851
242 2 3.32919 22.9535 15.9448
243 2 7.53638 23.0724 0.14629
244 2 11.4422 23.1315 0.284926
245 2 15.463 23.2587 15.7406
246 2 19.4982 23.2189 16.0711
247 2 23.5737 23.4206 15.872
248 2 27.5415 23.2861 15.9317
249 2 31.3859 23.1884 0.298428
250 2 35.4632 23.3923 15.8848
251 2 39.3028 23.257 0.323427
252 2 43.4673 23.4485 15.9186
253 2 47.5043 23.3712 0.228204
254 2 51.561 23.4885 0.193902
255 2 55.491 23.5937 0.293285
256 2 59.569 23.6385 15.9165
257 2 63.5899 23.4862 0.150301
258 2 67.7359 23.6849 15.795
259 2 71.5823 23.8042 15.9378
260 2 75.7083 23.9129 0.277112
261 2 79.7293 23.7926 15.8887
262 2 83.5108 23.8109 0.311626
263 2 87.4971 23.8845 16.0482
264 2 91.5324 23.9833 15.7482
265 2 95.182 23.8172 15.8041
266 2 99.1504 23.9382 0.299498
267 2 103.107 23.5258 15.9945
268 2 107.029 23.7363 16.0315
269 2 110.795 23.6274 0.256049
270 2 114.845 23.423 16.0041
271 2 118.762 23.5741 15.8549
272 2 122.677 23.3437 -0.0114813
273 2 126.561 23.3209 15.9267
274 2 130.474 23.2553 15.7356
275 2 134.293 23.3906 15.8195
276 2 138.211 23.3781 15.7521
277 2 142.045 23.2414 15.8816
278 2 146.163 23.0654 0.254115
279 2 149.985 23.3169 -0.0348291
280 2 153.804 23.0604 0.0740615
281 2 157.93 27.0727 0.267095
282 2 3.45999 27.1665 0.292808
283 2 7.37229 26.9537 0.240275
284 2 11.3031 27.0042 15.8651
285 2 15.2969 27.1173 15.8502
286 2 19.3809 27.297 0.0560856
287 2 23.2833 27.1673 15.9163
288 2 27.3128 27.2065 15.7756
289 2 31.4001 27.1896 0.152001
290 2 35.3806 27.0892 0.173814
291 2 39.2082 27.3838 0.297066
292 2 43.4757 27.1194 0.120604
293 2 47.2568 27.4735 0.106398
294 2 51.3787 27.4703 15.8481
295 2 55.311 27.6394 0.289488
296 2 59.4952 27.696 15.8223
297 2 63.4452 27.4175 15.7709
298 2 67.2319 27.8698 16.0359
299 2 71.4216 27.7472 15.8778
300 2 75.4433 27.7296 0.211251
301 2 79.4617 27.5975 0.332996
302 2 83.6702 27.7328 15.8961
303 2 87.5248 27.7321 -0.000871149
304 2 91.336 27.7039 0.304613
305 2 95.4207 27.9245 0.0883824
306 2 99.1738 27.9384 -0.0316225
307 2 103.104 27.7065 15.7474
308 2 107.137 27.6002 0.126341
309 2 110.915 27.6079 15.8319
310 2 115.155 27.4244 15.8438
311 2 119.111 27.4824 0.211437
312 2 122.821 27.4373 0.364409
313 2 126.675 27.4988 15.9645
314 2 130.318 27.301 15.8463
315 2 134.286 27.3909 15.7797
316 2 138.446 27.3706 15.8945
317 2 142.368 27.2889 0.0303121
318 2 146.119 27.2788 0.120595
319 2 149.96 27.0217 0.365546
320 2 153.983 27.0538 0.196207
321 2 157.953 31.1156 15.6658
322 2 3.7653 30.9462 16.1226
323 2 7.56119 30.9927 15.9907
324 2 11.6145 31.0072 0.323677
325 2 15.4111 30.933 0.194634
326 2 19.6155 31.1146 15.9822
327 2 23.3903 30.9963 15.8557
328 2 27.4364 30.962 0.121509
329 2 31.3114 31.2521 15.8047
330 2 35.257 30.9871 15.938
331 2 39.2533 31.0416 15.9122
332 2 43.5038 31.2744 -0.0202796
333 2 47.2733 31.2977 15.8694
334 2 51.3545 31.259 0.184296
335 2 55.291 31.299 15.8442
336 2 59.4449 31.699 0.330939
337 2 63.45 31.3844 16.0389
338 2 67.3649 31.5204 0.35379
339 2 71.3754 31.584 0.115827
340 2 75.4995 31.6794 0.227174
341 2 79.4571 31.7582 15.9131
342 2 83.3657 31.6684 0.0587595
343 2 87.5569 31.8153 15.7978
344 2 91.5544 31.8588 15.9538
345 2 95.4225 31.7056 15.7659
346 2 99.421 31.6717 0.116296
347 2 103.423 31.631 15.9243
348 2 107.245 31.6958 15.802
349 2 111.114 31.6365 15.855
350 2 114.907 31.4821 15.998
351 2 118.834 31.4966 15.926
352 2 122.742 31.6153 15.9508
353 2 126.676 31.4126 16.0125
354 2 130.51 31.3543 15.918
355 2 134.509 31.421 15.8629
356 2 138.425 31.4214 15.8548
357 2 142.179 31.4348 0.179375
358 2 146.215 31.2029 16.0008
359 2 150.191 31.2144 0.216161
360 2 153.933 31.0535 0.164202
361 2 -0.294449 35.1521 0.377516
362 2 3.69722 35.1273 15.91
363 2 7.57995 34.8321 15.9266
364 2 11.543 34.8789 15.8948
365 2 15.3231 35.0456 0.195038
366 2 19.332 34.9147 0.226577
367 2 23.2661 34.771 0.0155873
368 2 27.3989 34.9693 0.0645457
369 2 31.4224 35.0826 0.126175
370 2 35.399 35.0859 0.223633
371 2 39.5587 35.1682 0.108096
372 2 43.3704 35.2548 15.8355
373 2 47.4706 35.1016 15.7987
374 2 51.3954 35.2853 16.0154
375 2 55.4125 35.5218 0.325745
376 2 59.4777 35.3951 0.154635
377 2 63.2352 35.3675 15.7861
378 2 67.5023 35.458 0.168492
379 2 71.4166 35.5428 0.10937
380 2 75.3706 35.4283 16.0339
381 2 79.4758 35.5972 0.102662
382 2 83.4098 35.6795 15.8965
383 2 87.3774 35.8307 0.133948
384 2 91.6667 35.7676 -0.032834
385 2 95.3667 35.7768 15.7923
386 2 99.3309 35.6291 0.0373867
387 2 103.318 35.7366 15.9368
388 2 107.334 35.7576 15.7237
389 2 111.044 35.8063 15.6973
390 2 115.065 35.4829 15.7066
391 2 119.007 35.5309 15.9591
392 2 122.824 35.3692 15.9123
393 2 126.532 35.4267 16.0048
394 2 130.536 35.3138 15.8983
395 2 134.475 35.4237 16.0288
396 2 138.502 35.2128 0.226431
397 2 142.3 35.3092 0.305039
398 2 146.32 35.166 0.261544
399 2 150.224 35.1414 15.9446
400 2 154.105 35.2519 0.0889506
401 2 158.162 39.1107 0.129494
402 2 3.60849 39.0821 0.171143
403 2 7.59264 39.0739 0.228411
404 2 11.3372 38.97 15.8778
405 2 15.374 38.9866 -0.0285393
406 2 19.2139 38.9198 15.836
407 2 23.3255 38.8321 15.778
408 2 27.431 39.0239 15.7553
409 2 31.217 38.9496 0.0859391
410 2 35.1643 38.8368 0.154091
411 2 39.3578 39.1509 15.749
412 2 43.3179 38.9687 0.0560291
413 2 47.3504 39.0581 0.116173
414 2 51.3063 39.0856 15.9257
415 2 55.481 39.2042 0.181093
416 2 59.4862 39.3985 0.0682618
417 2 63.4923 39.3335 0.19478
418 2 67.3846 39.2275 0.298505
419 2 71.4534 39.3495 0.0847529
420 2 75.2294 39.5759 0.0690373
421 2 79.2725 39.4225 0.214222
422 2 83.2933 39.7631 15.9568
423 2 87.3433 39.7008 15.8183
424 2 91.4177 39.4949 15.8517
425 2 95.3804 39.6686 15.8365
426 2 99.2835 39.7126 0.302341
427 2 103.258 39.5411 15.7432
428 2 107.414 39.7379 15.8569
429 2 111.152 39.6639 15.6828
430 2 115.067 39.3759 16.0095
431 2 118.913 39.6395 15.9163
432 2 122.857 39.4507 16.0966
433 2 126.795 39.2239 0.201763
434 2 130.763 39.419 15.9995
435 2 134.615 39.4262 15.8898
436 2 138.446 39.3054 15.8971
437 2 142.264 39.2264 15.7753
438 2 146.366 39.466 0.166851
439 2 150.107 39.4389 16.0017
440 2 154.027 39.2883 16.0407
441 2 157.864 43.1207 0.1164
442 2 3.65879 43.3316 15.9028
443 2 7.52614 42.9864 15.9586
444 2 11.5768 43.1763 0.0708171
445 2 15.3499 42.9219 0.182336
446 2 19.2543 42.8448 0.0823994
447 2 23.2086 42.9482 16.1137
448 2 27.15 43.1903 15.7436
449 2 31.0747 42.9331 0.0645284
450 2 35.0911 42.8296 0.29215
451 2 39.3128 43.0342 0.261968
452 2 43.2772 42.9771 0.152962
453 2 47.2064 42.9938 16.1709
454 2 51.3522 42.84 15.9294
455 2 55.3277 43.0596 0.242646
456 2 59.142 43.186 16.0637
457 2 63.2579 43.1931 0.0733166
458 2 67.2549 43.2013 0.189051
459 2 71.3836 43.2977 0.171108
460 2 75.2074 43.2972 0.174029
461 2 79.3482 43.4495 0.151096
462 2 83.3513 43.4241 15.9032
463 2 87.3742 43.6098 15.8186
464 2 91.4158 43.4708 0.417195
465 2 95.2028 43.3693 0.323935
466 2 99.4082 43.6333 15.7876
467 2 103.345 43.5005 15.7224
468 2 107.353 43.754 16.0634
469 2 111.263 43.5365 15.8567
470 2 115.042 43.5216 16.0572
471 2 118.878 43.6637 15.9077
472 2 123.013 43.5237 15.9498
473 2 126.804 43.5203 0.230388
474 2 130.707 43.3182 0.202591
475 2 134.7 43.2646 15.8936
476 2 138.645 43.315 15.8938
477 2 142.374 43.4332 15.6605
478 2 146.363 43.3082 0.117768
479 2 150.452 43.3167 -0.0230476
480 2 154.136 43.2137 0.23722
481 2 -0.165833 47.2605 0.446905
482 2 3.92544 47.2466 0.477875
483 2 7.53936 47.1558 0.292836
484 2 11.6769 46.9366 0.218014
485 2 15.3277 47.0478 0.139152
486 2 19.4365 46.8143 0.199916
487 2 23.2368 46.8691 0.41851
488 2 27.1119 46.7354 15.8907
489 2 31.0869 46.8618 0.0499948
490 2 35.2142 46.7942 0.218975
491 2 39.2746 46.693 15.9614
492 2 43.0951 46.9308 15.9836
493 2 47.2803 46.7258 0.426632
494 2 51.319 47.1808 16.0922
495 2 55.2073 47.0007 15.8632
496 2 59.253 47.0584 16.0375
497 2 63.2527 46.949 0.229649
498 2 67.2755 47.1019 0.185837
499 2 71.2791 47.3217 15.9903
500 2 75.2165 47.0704 0.0623805
501 2 79.0914 47.4613 15.7222
502 2 83.2274 47.3373 15.8128
503 2 87.1671 47.2356 0.149241
504 2 91.4128 47.3586 0.235624
505 2 95.3191 47.4267 0.149058
506 2 99.235 47.6084 0.219679
507 2 103.264 47.6391 0.114392
508 2 107.186 47.4287 15.8326
509 2 111.165 47.4684 15.8792
510 2 115.227 47.5643 0.102174
511 2 119.083 47.6819 15.8367
512 2 122.874 47.5936 15.8828
513 2 127.051 47.5388 15.9138
514 2 130.885 47.4154 15.7331
515 2 134.769 47.2949 15.6225
516 2 138.745 47.3081 15.9987
517 2 142.582 47.2738 15.7849
518 2 146.431 47.1501 0.136601
519 2 150.374 47.2417 0.0471776
520 2 154.193 47.1617 15.7652
521 2 158.205 51.1478 0.231791
522 2 4.00287 51.1032 15.7019
523 2 7.76949 51.1509 15.7594
524 2 11.7895 51.1148 15.9271
525 2 15.5282 50.8392 0.28136
526 2 19.4956 50.9112 15.9992
527 2 23.3526 50.8613 15.9394
528 2 27.2906 50.9235 15.981
529 2 31.1512 50.741 0.0114074
530 2 35.2883 50.9196 0.0287358
531 2 39.1484 50.7222 15.7952
532 2 42.8747 50.7429 16.0798
533 2 47.1452 50.7496 0.302873
534 2 51.0659 50.9785 0.278059
535 2 55.1271 50.8213 0.327215
536 2 59.2067 50.912 15.8758
537 2 63.2532 50.9284 15.8918
538 2 67.108 50.9209 0.0678124
539 2 71.1022 51.2615 0.12003
540 2 75.1389 51.1857 0.468294
541 2 79.0552 51.1571 0.215172
542 2 83.2127 51.2537 0.0897123
543 2 87.2428 51.2261 0.164419
544 2 91.1806 51.4242 0.128789
545 2 95.1864 51.2016 0.137715
546 2 99.3884 51.4658 0.428289
547 2 103.199 51.3992 15.8558
548 2 107.265 51.5812 0.0349191
549 2 111.265 51.6507 0.064329
550 2 115.24 51.6639 15.9333
551 2 119.368 51.7711 15.8682
552 2 123.17 51.5539 15.9693
553 2 127.162 51.3376 15.8941
554 2 130.894 51.3845 0.012926
555 2 134.789 51.301 0.19643
556 2 138.726 51.3839 0.111529
557 2 142.626 51.2855 0.0920097
558 2 146.446 51.4716 15.7184
559 2 150.437 51.2648 0.031815
560 2 154.366 51.2375 0.0526474
561 2 158.469 55.1684 0.0758729
562 2 3.92892 55.1801 0.168249
563 2 7.72362 55.0765 0.328532
564 2 11.959 55.1432 0.156073
565 2 15.6858 54.9532 0.192967
566 2 19.4727 55.1256 16.0818
567 2 23.2939 55.07 16.012
568 2 27.4604 54.8851 15.7955
569 2 31.2757 54.7906 0.123107
570 2 35.2703 54.7994 0.222964
571 2 39.303 54.698 16.0688
572 2 43.1047 54.7294 16.0446
573 2 47.1049 54.6413 0.166688
574 2 51.089 54.6957 16.122
575 2 55.0706 54.7342 15.9075
576 2 58.9132 54.6625 16.0952
577 2 63.0532 54.9439 15.883
578 2 66.9831 54.8572 0.165238
579 2 71.0847 55.1389 0.0615973
580 2 75.1453 55.091 15.805
581 2 79.4107 55.2348 0.147542
582 2 83.1622 55.1843 0.0813489
583 2 87.1185 55.0937 0.185202
584 2 91.2321 55.4024 15.8023
585 2 95.1919 55.2949 0.307298
586 2 99.1009 55.5462 16.0423
587 2 103.223 55.2446 15.9749
588 2 107.175 55.4106 0.193526
589 2 111.148 55.5149 15.9113
590 2 115.158 55.2969 16.0665
591 2 119.361 55.7862 15.8525
592 2 123.332 55.5571 0.149028
593 2 127.114 55.4377 15.7781
594 2 131.082 55.3709 15.8948
595 2 134.95 55.3554 0.125082
596 2 138.832 55.5447 15.7044
597 2 142.555 55.4403 0.044224
598 2 146.657 55.4 0.270515
599 2 150.464 55.2926 0.176194
600 2 154.425 55.4489 15.7363
601 2 158.475 59.3349 0.167859
602 2 4.02133 59.2825 16.0962
603 2 7.88734 59.0198 15.7833
604 2 11.8365 58.9162 0.133033
605 2 15.5425 58.9751 15.9438
606 2 19.5977 59.1204 0.359744
607 2 23.3705 58.898 0.340436
608 2 27.4651 58.8499 0.332117
609 2 31.3044 58.8915 16.0171
610 2 35.226 58.7262 16.0003
611 2 39.1445 58.8973 16.0202
612 2 43.1078 58.7061 15.9991
613 2 47.0117 58.6397 16.133
614 2 51.1599 58.7515 15.9065
615 2 54.9236 58.654 16.1263
616 2 59.1499 58.6594 0.393882
617 2 63.1335 58.8146 16.1676
618 2 67.0943 58.6981 0.0958117
619 2 70.823 58.9646 15.9908
620 2 75.0375 58.9511 0.0367948
621 2 78.9317 59.1187 0.320499
622 2 83.1685 59.0596 0.152337
623 2 87.1725 59.0529 15.9126
624 2 91.1911 59.0812 16.0078
625 2 95.0846 59.2735 0.0476192
626 2 99.1733 59.3194 0.238331
627 2 103.178 59.2282 16.2003
628 2 107.143 59.3505 0.193345
629 2 111.144 59.4873 15.8679
630 2 114.969 59.163 15.9657
631 2 119.006 59.3234 15.9959
632 2 123.143 59.6228 0.186016
633 2 127.113 59.5537 15.896
634 2 131.081 59.4516 0.153746
635 2 134.95 59.4168 15.9106
636 2 138.835 59.2177 0.0814368
637 2 142.826 59.4547 0.152817
638 2 146.552 59.3486 -0.0763311
639 2 150.478 59.298 15.9385
640 2 154.562 59.2248 0.276348
641 2 0.0592467 63.3432 0.0892728
642 2 3.95537 63.1496 0.438969
643 2 7.95465 63.1111 16.0147
644 2 11.7047 63.1289 15.9112
645 2 15.8921 63.0548 16.118
646 2 19.7053 63.1178 0.351999
647 2 23.6457 62.9531 0.244154
648 2 27.5123 62.9675 0.322038
649 2 31.3897 62.8695 0.227017
650 2 35.2233 62.7606 0.371116
651 2 39.1916 62.7516 15.8892
652 2 43.1257 62.5725 0.223383
653 2 47.0182 62.6659 15.9781
654 2 51.1884 62.6859 16.0939
655 2 54.9454 62.598 0.112343
656 2 58.923 62.651 15.9963
657 2 62.997 62.898 0.251248
658 2 67.128 62.7497 15.8713
659 2 71.2137 62.7511 0.251831
660 2 74.9843 62.9288 0.206391
661 2 79.0033 62.7879 0.318944
662 2 83.0578 63.0378 0.135889
663 2 87.0614 62.9499 15.9291
664 2 91.0907 63.134 15.9741
665 2 94.9861 63.1703 0.129474
666 2 99.0298 63.164 0.208824
667 2 103.11 63.2069 15.8637
668 2 107.197 63.2253 15.9036
669 2 111.111 63.2856 15.8944
670 2 115.299 63.1307 0.151755
671 2 119.173 63.2801 16.0642
672 2 123.252 63.2897 0.357719
673 2 127.207 63.5029 15.6535
674 2 131.107 63.581 0.0239502
675 2 134.938 63.2955 15.9713
676 2 138.836 63.5696 16.1928
677 2 142.794 63.5251 15.8112
678 2 146.709 63.2908 0.299367
679 2 150.64 63.3244 16.0451
680 2 154.571 63.116 0.193493
681 2 0.291477 67.221 0.141552
682 2 4.01162 67.3573 0.448632
683 2 7.89915 67.136 16.0064
684 2 11.7614 67.1078 15.8196
685 2 15.9334 67.0999 0.182275
686 2 19.8812 67.1009 0.26777
687 2 23.624 67.1168 0.364936
688 2 27.4423 66.9905 0.26175
689 2 31.4436 66.8731 0.244529
690 2 35.4255 66.718 0.211364
691 2 39.3208 66.7071 15.9517
692 2 43.1936 66.6148 0.219193
693 2 47.1048 66.588 15.9538
694 2 51.008 66.5712 15.8564
695 2 54.8703 66.5666 15.8321
696 2 58.8731 66.6172 15.9066
697 2 62.8436 66.6792 15.867
698 2 66.924 66.848 16.0047
699 2 70.8568 66.6372 0.185437
700 2 75.0277 66.8507 15.9853
701 2 78.9734 66.9471 15.9637
702 2 82.9945 66.8833 0.370036
703 2 87.0485 66.8833 15.8874
704 2 91.1152 67.0427 15.899
705 2 94.8333 67.1636 0.121965
706 2 99.0132 67.0633 0.200588
707 2 103.093 67.1463 0.167773
708 2 107.165 67.1871 15.9294
709 2 111.137 67.0451 15.9569
710 2 115.13 67.1601 15.9623
711 2 119.111 67.17 0.180257
712 2 123.205 67.1478 0.243671
713 2 127.219 67.3298 0.175247
714 2 131.171 67.5045 15.9439
715 2 135.114 67.1906 0.204467
716 2 138.976 67.6842 0.20354
717 2 143.118 67.5915 15.899
718 2 146.951 67.2639 15.8686
719 2 150.875 67.2816 15.8027
720 2 154.667 67.3736 0.177759
721 2 0.252453 71.2049 0.303594
722 2 4.14606 71.1519 16.0249
723 2 8.46121 71.1417 0.289734
724 2 12.1747 71.0308 15.9738
725 2 15.7722 70.9056 0.294078
726 2 19.6016 71.0412 0.191763
727 2 23.7219 70.9499 0.362933
728 2 27.6019 71.1171 15.7667
729 2 31.2638 70.9788 0.188054
730 2 35.5641 71.0404 0.328501
731 2 39.4398 70.9091 16.0517
732 2 43.1653 70.7538 0.37133
733 2 47.2857 70.7078 15.851
734 2 51.2315 70.6189 16.1364
735 2 54.9444 70.4717 0.318701
736 2 58.8585 70.3719 0.207199
737 2 62.8215 70.5266 0.39453
738 2 66.9153 70.5707 16.0274
739 2 70.8431 70.6099 16.1313
740 2 74.7979 70.6318 16.115
741 2 78.8394 71.0051 0.261915
742 2 82.93 70.8322 0.242871
743 2 86.997 70.7023 15.6626
744 2 90.9541 70.7379 15.8153
745 2 94.9817 70.997 16.0395
746 2 99.0607 70.8541 15.9905
747 2 102.832 70.8598 15.9244
748 2 107.111 71.1033 15.8843
749 2 111.02 71.1247 16.024
750 2 115.084 71.0905 0.226953
751 2 119.06 71.1894 15.8227
752 2 123.119 71.0117 0.224261
753 2 127.097 71.4527 16.0724
754 2 131.092 71.2741 15.8161
755 2 135.015 71.2591 15.7913
756 2 139.018 71.4349 15.7722
757 2 142.929 71.3557 0.123073
758 2 146.935 71.5459 0.170867
759 2 150.948 71.3166 0.155858
760 2 154.805 71.3567 15.8089
761 2 0.366734 75.4188 0.0911015
762 2 4.2497 75.2756 15.826
763 2 8.27006 74.9798 15.9079
764 2 12.1698 75.1301 15.9274
765 2 16.0795 75.1315 16.0981
766 2 20.0344 75.2394 15.965
767 2 23.8178 75.0706 15.9646
768 2 27.5813 75.0443 15.8133
769 2 31.4642 75.0094 0.0549272
770 2 35.3411 74.7681 16.0422
771 2 39.124 74.8259 15.8898
772 2 43.3029 74.7205 0.338392
773 2 47.2214 74.6812 15.9589
774 2 50.9903 74.5556 0.246846
775 2 55.1521 74.4157 16.0057
776 2 58.8971 74.2981 15.8743
777 2 62.8138 74.2132 15.8368
778 2 66.7422 74.3939 0.323545
779 2 70.7886 74.4518 0.320615
780 2 74.914 74.5842 0.199627
781 2 79.0872 74.7154 0.30487
782 2 82.9313 74.5795 0.0602431
783 2 86.8989 74.7363 0.378986
784 2 91.0492 74.7585 15.6194
785 2 94.9561 74.8603 15.9821
786 2 98.7505 74.6982 0.407652
787 2 102.791 74.9999 15.9246
788 2 106.885 74.8851 16.1222
789 2 111.179 75.0566 15.8679
790 2 115.017 74.9993 15.7367
791 2 119.175 74.9451 0.14465
792 2 123.094 75.0055 15.8738
793 2 126.784 75.3668 15.671
794 2 131.153 75.2755 0.0221829
795 2 135.079 75.3288 15.8677
796 2 139.022 75.4675 16.2038
797 2 142.97 75.2993 16.1067
798 2 147.031 75.4186 15.724
799 2 150.988 75.3672 0.300649
800 2 154.72 75.451 0.184127
801 2 0.53236 79.3494 0.256535
802 2 4.46262 79.2411 16.1168
803 2 8.22303 79.2493 0.115828
804 2 12.2097 79.2025 0.259551
805 2 15.9592 79.1813 16.0066
806 2 19.8145 79.1582 15.9918
807 2 23.5354 79.2221 0.249196
808 2 27.5599 78.9763 0.145308
809 2 31.5491 79.0138 0.163609
810 2 35.5149 78.874 -0.0534297
811 2 39.4346 78.5725 15.8842
812 2 43.4607 78.7438 16.1451
813 2 47.2436 78.6616 15.9378
814 2 51.1041 78.645 0.247874
815 2 55.1182 78.6018 0.0942883
816 2 59.0878 78.6046 15.7706
817 2 62.9046 78.4639 15.9959
818 2 66.8211 78.4129 0.102312
819 2 70.6847 78.4889 16.0532
820 2 74.8004 78.4455 0.207026
821 2 78.9956 78.6079 15.8106
822 2 82.8961 78.4938 15.9661
823 2 86.8996 78.695 0.208055
824 2 90.8773 78.8422 -0.00649812
825 2 94.9146 78.6466 0.225433
826 2 99.0274 78.8583 15.8455
827 2 102.892 78.7543 16.0736
828 2 107.214 78.7977 0.237824
829 2 111.065 78.8593 0.217483
830 2 114.982 78.7983 0.118933
831 2 119.064 79.0248 0.169412
832 2 123.155 78.9715 16.1481
833 2 127.053 79.2237 0.177679
834 2 131.133 79.2449 16.0149
835 2 135.042 79.2135 0.31651
836 2 138.93 79.346 15.9562
837 2 142.868 79.352 15.9634
838 2 147.078 79.5295 16.0312
839 2 151.027 79.5181 16.0806
840 2 154.909 79.3987 0.364035
841 2 0.354057 83.2976 16.0671
842 2 4.42895 83.1964 15.9399
843 2 8.25277 83.2749 0.155537
844 2 12.1391 83.1708 15.9323
845 2 15.8657 83.0937 15.9987
846 2 19.7576 83.1625 0.307761
847 2 23.6921 83.0973 15.838
848 2 27.7331 82.967 0.137808
849 2 31.5283 82.9877 15.8572
850 2 35.434 82.9219 0.218102
851 2 39.4286 82.7749 0.0809466
852 2 43.3942 82.6923 15.8989
853 2 47.2547 82.803 0.200597
854 2 51.1592 82.7878 -0.0133691
855 2 55.0976 82.4958 0.167145
856 2 59.0105 82.6324 16.1304
857 2 63.0293 82.4553 15.8571
858 2 66.8326 82.2334 15.8042
859 2 70.7569 82.2871 15.9264
860 2 74.8036 82.2022 15.8402
861 2 78.8586 82.5536 15.9157
862 2 82.9757 82.4556 0.244714
863 2 86.7462 82.5496 0.0399516
864 2 90.8376 82.6364 15.6591
865 2 94.7781 82.6014 0.313182
866 2 98.9038 82.6138 15.9276
867 2 102.93 82.7796 0.127807
868 2 107.049 82.6985 15.9466
869 2 110.955 82.807 16.1535
870 2 115.059 82.9596 15.991
871 2 119.073 82.8671 15.9225
872 2 123.136 82.9659 15.9443
873 2 126.866 82.9152 15.8709
874 2 130.919 83.0345 15.9299
875 2 134.878 83.0425 0.242774
876 2 139.038 83.252 16.0564
877 2 143.076 83.2301 -0.0165276
878 2 146.891 83.2218 15.8051
879 2 150.983 83.5433 0.3013
880 2 154.835 83.2017 0.240791
881 2 0.553367 87.2843 15.9588
882 2 4.42431 87.3671 0.246369
883 2 8.26585 87.3341 16.012
884 2 12.2198 87.3012 16.1007
885 2 16.017 87.2335 16.2918
886 2 19.9668 87.0426 15.9481
887 2 23.7729 86.9576 15.9776
888 2 27.8575 87.0647 0.208341
889 2 31.6402 86.9857 15.806
890 2 35.5652 86.8326 0.212627
891 2 39.4184 86.7864 15.7533
892 2 43.3462 86.8292 15.9608
893 2 47.229 86.6838 15.9659
894 2 51.3308 86.4428 15.9227
895 2 55.3467 86.4787 15.7948
896 2 59.1396 86.527 0.127052
897 2 63.0088 86.4646 0.105087
898 2 66.9358 86.227 15.7385
899 2 71.0085 86.2318 0.227339
900 2 74.8712 86.2674 15.8914
901 2 78.7829 86.1484 -0.0552599
902 2 82.7396 86.3152 0.0984477
903 2 86.9071 86.286 15.8416
904 2 90.6966 86.24 15.8834
905 2 94.9776 86.6274 15.9071
906 2 98.8916 86.6485 15.833
907 2 103.033 86.565 0.34894
908 2 106.854 86.5757 0.41907
909 2 110.91 86.7639 16.0817
910 2 114.909 86.7564 0.116906
911 2 118.992 86.8023 0.0377146
912 2 122.912 86.7803 0.131139
913 2 127.086 86.7799 15.9016
914 2 131.002 87.165 16.117
915 2 134.923 86.9767 15.9757
916 2 138.984 86.9899 15.9457
917 2 142.935 87.3344 15.9649
918 2 147.009 87.287 0.224862
919 2 150.954 87.3818 16.0308
920 2 154.845 87.3801 15.8729
921 2 0.675516 91.2387 0.233586
922 2 4.47251 91.2021 0.289761
923 2 8.21394 91.2566 15.9965
924 2 12.0553 91.3565 15.9716
925 2 16.1197 91.0876 0.357063
926 2 19.9896 91.0571 0.371595
927 2 23.8538 91.1154 15.922
928 2 27.9183 91.1177 15.8963
929 2 31.7373 90.8939 15.7789
930 2 35.4651 91.0038 -0.0437768
931 2 39.5043 90.8449 15.889
932 2 43.4539 90.6873 15.8945
933 2 47.376 90.6281 0.25749
934 2 51.3795 90.5899 0.251661
935 2 55.1272 90.6034 0.223627
936 2 59.2388 90.5279 0.0059885
937 2 63.0199 90.1401 0.230073
938 2 66.9937 90.4013 15.7305
939 2 70.9129 90.3513 15.8712
940 2 74.9 90.3594 -0.0104299
941 2 78.7083 90.2402 0.234809
942 2 82.6948 90.132 0.120645
943 2 86.8078 90.3318 0.170675
944 2 90.6828 90.2442 -0.0124702
945 2 94.701 90.2498 15.8544
946 2 98.9531 90.4823 15.9491
947 2 102.865 90.6864 0.162706
948 2 106.985 90.482 15.8745
949 2 110.962 90.6308 16.0098
950 2 114.854 90.5306 0.0908961
951 2 118.883 90.8318 0.209759
952 2 122.681 90.691 16.0192
953 2 126.788 90.8007 0.241454
954 2 130.797 90.9459 0.1196
955 2 135.081 90.8286 16.0608
956 2 138.941 91.1097 15.9209
957 2 143.063 91.1322 15.945
958 2 146.759 91.0964 15.9469
959 2 151.135 91.3863 15.8761
960 2 155.006 91.3553 16.0513
961 2 0.505527 95.3808 0.392204
962 2 4.43906 95.2018 15.8986
963 2 8.48487 95.3566 15.8716
964 2 12.3858 95.2622 16.1094
965 2 16.1404 94.943 15.9355
966 2 19.928 95.1335 15.764
967 2 23.8523 95.0208 15.9922
968 2 27.7858 95.0774 15.788
969 2 31.6873 94.9073 15.8392
970 2 35.5507 94.8941 15.8727
971 2 39.5914 94.6454 15.7693
972 2 43.5822 94.6989 15.9114
973 2 47.2381 94.9626 0.263962
974 2 51.305 94.5888 15.9058
975 2 55.1702 94.4307 0.162659
976 2 59.17 94.4301 15.8595
977 2 63.1171 94.3796 0.247033
978 2 66.7964 94.3203 -0.0101715
979 2 70.7398 94.2264 0.222157
980 2 74.8836 94.2334 0.0301164
981 2 78.9562 94.1785 15.825
982 2 82.7145 94.2801 -0.0216419
983 2 86.7015 94.312 -0.232222