ITEM: TIMESTEP
20700
ITEM: NUMBER OF ATOMS
32000
ITEM: BOX BOUNDS xy xz yz pp pp pp
0.0000000000000000e+00 1.5831999999999999e+02 0.0000000000000000e+00
0.0000000000000000e+00 1.5831999999999999e+02 0.0000000000000000e+00
1.6220446482697959e-01 1.5935507535172869e+01 0.0000000000000000e+00
ITEM: ATOMS id type x y z
1 2 157.926 157.887 16.0863
2 2 3.61598 157.941 15.9999
3 2 7.63101 158.011 0.291693
4 2 11.6695 157.895 0.417761
5 2 15.6706 158.035 0.128859
6 2 19.7509 158.082 15.9167
7 2 23.6444 158.311 16.1109
8 2 27.703 158.068 16.1186
9 2 31.8417 158.125 0.228851
10 2 35.7916 158.191 16.0543
11 2 39.9275 -0.0536127 16.0059
12 2 43.873 -0.0585102 0.159367
13 2 47.6646 -0.0499516 15.9547
14 2 51.6971 0.211881 0.30181
15 2 55.6641 158.342 0.217135
16 2 59.5542 158.328 16.049
17 2 63.7484 0.154325 16.0018
18 2 67.6064 0.1266 15.8077
19 2 71.5629 -0.107984 15.7545
20 2 75.3656 158.262 15.834
21 2 79.3499 -0.129062 15.9627
22 2 83.3283 158.432 15.9201
23 2 87.1233 158.233 15.9504
24 2 90.9481 158.12 0.211983
25 2 94.8799 158.244 15.9754
26 2 98.8709 157.903 15.9772
27 2 103.002 157.946 15.8475
28 2 106.74 157.747 15.9599
29 2 110.681 157.841 0.2302
30 2 114.585 157.811 -0.0243628
31 2 118.541 157.758 15.9158
32 2 122.46 157.685 0.157368
33 2 126.256 157.805 0.186127
34 2 130.096 157.768 0.0382878
35 2 134.12 157.662 16.0703
36 2 138.042 157.56 15.7967
37 2 142.072 157.603 15.965
38 2 145.943 157.44 16.1295
39 2 149.997 157.731 0.310031
40 2 154.033 157.595 0.286648
41 2 157.833 3.7198 15.9862
42 2 3.5325 3.76695 16.169
43 2 7.60369 3.44532 0.39087
44 2 11.79 3.59048 16.0796
45 2 15.703 3.498 15.9628
46 2 19.4827 3.57593 15.9969
47 2 23.7499 3.86398 0.185801
48 2 27.6682 3.62919 0.013761
49 2 31.7491 3.85897 0.174286
50 2 35.6845 3.87259 0.108644
51 2 39.7379 3.75647 0.0635781
52 2 43.7419 3.85542 16.0851
53 2 47.7709 3.88473 15.8893
54 2 51.629 3.96477 15.9619
55 2 55.7111 3.90428 0.243575
56 2 59.5849 4.08176 15.9734
57 2 63.5426 4.24817 15.8969
58 2 67.5344 4.095 15.7538
59 2 71.4894 3.93494 15.853
60 2 75.6311 4.00011 15.9047
61 2 79.2799 3.91359 16.1457
62 2 83.1867 3.83211 15.9939
63 2 86.9981 3.88664 15.8053
64 2 91.0586 3.76976 0.0359572
65 2 95.0687 3.74301 15.8899
66 2 99.1304 3.71142 0.138279
67 2 102.757 3.60578 15.9389
68 2 106.662 3.48859 16.1123
69 2 110.602 3.57427 -0.0926481
70 2 114.628 3.45386 0.0708071
71 2 118.411 3.60617 -0.00175946
72 2 122.326 3.39313 -0.0674283
73 2 126.008 3.25454 -0.103286
74 2 130.096 3.30133 0.0728897
75 2 134.156 3.21456 15.9494
76 2 138.158 3.2286 -0.0375832
77 2 141.882 3.34322 0.115772
78 2 145.938 3.18951 0.256016
79 2 149.913 3.22543 15.9753
80 2 154 3.22097 16.0658
81 2 157.773 7.21594 15.8226
82 2 3.71669 7.39394 15.8766
83 2 7.59087 7.3577 16.0896
84 2 11.6913 7.41255 0.235692
85 2 15.6041 7.45331 15.8349
86 2 19.5433 7.51775 15.8046
87 2 23.5392 7.58475 -0.00588429
88 2 27.8009 7.52242 16.0021
89 2 31.8656 7.6388 15.946
90 2 35.7797 7.77966 15.9493
91 2 39.7109 7.60048 0.210649
92 2 43.6734 7.75997 0.164657
93 2 47.7179 7.90986 15.9822
94 2 51.6086 7.90105 0.233077
95 2 55.8345 8.06545 16.1257
96 2 59.7005 8.1213 0.202486
97 2 63.5415 8.12631 16.0386
98 2 67.5935 7.96748 16.0502
99 2 71.6974 8.18721 15.9184
100 2 75.451 8.03231 16.0957
101 2 79.2761 7.95616 0.354058
102 2 83.3246 7.89856 16.0251
103 2 87.2165 7.86185 16.0213
104 2 91.1038 7.788 15.9287
105 2 95.0795 7.75735 15.8005
106 2 98.8565 7.49153 0.0215299
107 2 102.819 7.72447 -0.0517264
108 2 106.82 7.52948 15.954
109 2 110.602 7.52976 0.0925632
110 2 114.557 7.46691 16.0115
111 2 118.467 7.51295 15.9812
112 2 122.49 7.48268 15.9684
113 2 126.326 7.36147 15.7485
114 2 130.157 7.39739 0.0982915
115 2 134.288 7.26127 -0.0313846
116 2 137.954 7.24573 15.8322
117 2 141.776 7.26913 15.7702
118 2 145.759 7.21276 0.158327
119 2 149.738 7.18423 0.170967
120 2 154.017 7.36424 16.1118
121 2 157.734 11.1312 15.9907
122 2 3.52082 11.3023 15.8896
123 2 7.64153 11.3324 16.1136
124 2 11.5465 11.4803 0.178007
125 2 15.5089 11.4193 16.0179
126 2 19.5851 11.349 15.8946
127 2 23.7726 11.5203 15.8147
128 2 27.5278 11.448 15.9088
129 2 31.6808 11.5948 15.8512
130 2 35.6923 11.5857 15.9727
131 2 39.797 11.5033 16.0008
132 2 43.6023 11.7344 0.0579386
133 2 47.696 11.6338 0.160245
134 2 51.479 11.6706 15.838
135 2 55.5694 11.916 0.108678
136 2 59.6602 11.8995 15.9051
137 2 63.6286 11.816 0.0128422
138 2 67.6913 12.0547 15.844
139 2 71.631 11.9142 16.0238
140 2 75.6208 11.8778 16.124
141 2 79.3844 12.0391 15.9645
142 2 83.4658 12.1307 16.0968
143 2 87.1092 11.6485 0.110482
144 2 91.1524 11.7443 -0.0980385
145 2 95.1799 11.7212 15.8051
146 2 98.9498 11.6933 15.9335
147 2 102.94 11.517 -0.0598916
148 2 106.91 11.5164 15.7379
149 2 110.743 11.7119 0.105157
150 2 114.71 11.8316 15.8184
151 2 118.605 11.4526 0.0539851
152 2 122.588 11.5304 0.00648646
153 2 126.43 11.3373 15.8366
154 2 130.355 11.4726 15.9448
155 2 134.334 11.1139 0.0365151
156 2 138.131 11.2944 -0.0549505
157 2 142.136 11.319 0.0945941
158 2 145.968 11.1564 0.205422
159 2 149.883 11.0485 0.0665783
160 2 153.921 11.1788 0.240523
161 2 157.816 14.9967 15.7334
162 2 3.23378 15.2173 15.9427
163 2 7.38838 15.3813 16.1753
164 2 11.5855 15.296 16.0061
165 2 15.4502 15.4498 16.0235
166 2 19.5633 15.4089 0.183443
167 2 23.6213 15.4801 0.0188802
168 2 27.4094 15.3415 15.9759
169 2 31.5135 15.3354 0.181664
170 2 35.5566 15.5383 15.8942
171 2 39.5436 15.683 0.0925571
172 2 43.4735 15.5144 0.139924
173 2 47.503 15.468 -0.0386382
174 2 51.6683 15.7033 0.139585
175 2 55.6165 15.8408 16.0375
176 2 59.6318 15.8018 0.14106
177 2 63.7372 15.6852 15.8792
178 2 67.6486 15.6458 15.8795
179 2 71.7558 15.8795 0.161086
180 2 75.6824 15.8831 0.269222
181 2 79.5083 15.923 15.9521
182 2 83.337 16.0305 0.390404
183 2 87.2932 15.8894 16.1213
184 2 91.3555 15.7614 0.233825
185 2 95.2319 15.7873 16.0492
186 2 99.0523 15.6702 15.7424
187 2 103.056 15.6668 15.8114
188 2 106.889 15.7355 15.9107
189 2 110.809 15.5071 15.7866
190 2 114.816 15.4077 15.8634
191 2 118.748 15.6582 0.139926
192 2 122.576 15.5504 15.6024
193 2 126.419 15.3992 15.7454
194 2 130.504 15.2753 -0.0986673
195 2 134.262 15.3647 0.13746
196 2 138.203 15.2264 0.0754211
197 2 142.019 15.4096 16.017
198 2 146.01 15.1648 -0.0261175
199 2 149.861 15.092 0.378897
200 2 153.854 15.1666 15.9941
201 2 157.77 19.0479 15.7634
202 2 3.53147 19.2325 0.0509066
203 2 7.38133 19.004 0.18157
204 2 11.4354 19.345 16.033
205 2 15.4776 19.2765 16.2215
206 2 19.4886 19.0878 15.939
207 2 23.4025 19.3928 15.728
208 2 27.4177 19.3599 15.994
209 2 31.4369 19.1456 15.9227
210 2 35.4976 19.2962 16.0791
211 2 39.3698 19.4127 0.0929951
212 2 43.5523 19.4926 15.9871
213 2 47.5816 19.6777 15.8671
214 2 51.5443 19.6733 0.242668
215 2 55.5926 19.5493 16.0139
216 2 59.6098 19.7286 16.0618
217 2 63.6363 19.7443 15.8224
218 2 67.7193 19.7137 15.8215
219 2 71.5977 19.8004 0.157359
220 2 75.5902 19.6844 0.28828
221 2 79.7368 19.9987 0.252892
222 2 83.524 20.0685 15.9662
223 2 87.4969 19.7314 0.436195
224 2 91.4865 19.7017 0.19089
225 2 95.215 19.7161 15.974
226 2 99.3013 19.5471 15.7943
227 2 103.097 19.6748 15.9203
228 2 106.988 19.5568 15.9117
229 2 110.874 19.685 0.313775
230 2 114.785 19.3846 15.9478
231 2 118.825 19.4386 15.7908
232 2 122.758 19.4249 15.8107
233 2 126.597 19.3507 15.9329
234 2 130.321 19.422 15.8258
235 2 134.427 19.3577 0.137367
236 2 138.323 19.1653 15.8858
237 2 142.215 19.2747 16.0396
238 2 145.853 19.2236 -2.86719e-05
239 2 149.889 19.3962 16.0858
240 2 153.96 19.1193 0.166209
241 2 157.879 22.9964 15.9702
242 2 3.6695 23.1444 15.9172
243 2 7.41027 23.0256 0.170075
244 2 11.435 23.0485 0.0934906
245 2 15.4864 23.0975 15.7709
246 2 19.4187 23.2303 15.9262
247 2 23.3677 23.1005 15.9483
248 2 27.4284 23.3783 15.8907
249 2 31.5804 23.257 0.0740626
250 2 35.4881 23.276 15.9811
251 2 39.5476 23.2807 0.0884746
252 2 43.4323 23.3546 15.9725
253 2 47.5079 23.5997 0.185462
254 2 51.6463 23.4637 0.138014
255 2 55.5356 23.4381 -0.0298012
256 2 59.3856 23.5212 16.0389
257 2 63.499 23.7132 0.237705
258 2 67.5684 23.5995 16.0833
259 2 71.4573 23.4409 16.0066
260 2 75.5546 23.8293 0.249131
261 2 79.4521 23.8584 15.8775
262 2 83.3757 23.9923 0.16478
263 2 87.4105 23.8542 15.7375
264 2 91.3642 23.8263 15.947
265 2 95.4006 23.716 15.7948
266 2 99.3153 23.6398 0.235792
267 2 103.048 23.7912 15.717
268 2 106.895 23.766 15.7364
269 2 111.046 23.6171 0.0843991
270 2 114.978 23.3756 16.0271
271 2 118.743 23.4704 15.972
272 2 122.53 23.6845 0.0556792
273 2 126.631 23.2963 15.9287
274 2 130.467 23.3666 15.9559
275 2 134.51 23.3733 15.9472
276 2 138.378 23.2887 15.8925
277 2 142.042 23.216 15.9642
278 2 146.121 23.1639 0.0994785
279 2 149.911 23.2381 0.150384
280 2 153.878 23.0964 0.298523
281 2 157.943 27.0411 0.21074
282 2 3.48762 26.9972 0.108402
283 2 7.4635 27.0174 0.0319283
284 2 11.5279 26.9906 15.8741
285 2 15.3648 27.1009 15.9582
286 2 19.3544 27.0089 0.00987593
287 2 23.4986 27.1969 15.8076
288 2 27.4988 27.109 15.9002
289 2 31.5176 27.3016 0.185837
290 2 35.5875 27.3074 0.275296
291 2 39.4644 27.2189 0.126481
292 2 43.703 27.3152 0.185172
293 2 47.5774 27.4944 0.242189
294 2 51.5824 27.4891 15.8869
295 2 55.588 27.426 0.0788326
296 2 59.6077 27.2765 15.9386
297 2 63.4833 27.6242 16.0031
298 2 67.4732 27.7404 15.8183
299 2 71.7341 27.6507 15.9141
300 2 75.5899 27.7222 -0.0278358
301 2 79.5505 27.7073 0.229562
302 2 83.5593 27.8712 15.8854
303 2 87.6548 27.7879 0.217041
304 2 91.5103 27.8487 -0.148476
305 2 95.4895 27.7275 0.253034
306 2 99.5874 27.7628 0.211205
307 2 103.314 27.8451 16.0998
308 2 107.205 27.6175 0.02861
309 2 110.874 27.6685 16.0403
310 2 114.765 27.6389 15.9787
311 2 118.492 27.5794 0.096215
312 2 122.522 27.5385 0.112933
313 2 126.441 27.5775 15.8792
314 2 130.684 27.5023 15.9824
315 2 134.635 27.4243 15.8384
316 2 138.142 27.5394 16.0984
317 2 142.19 27.2729 0.325467
318 2 146.068 27.29 0.211281
319 2 150.125 27.2329 0.132667
320 2 154.11 27.1543 0.100395
321 2 157.918 31.0697 16.0771
322 2 3.59577 30.9978 15.8614
323 2 7.23677 31.2118 16.0611
324 2 11.2776 31.2801 -0.0200218
325 2 15.0745 30.9762 0.0329051
326 2 19.2354 30.9805 15.8366
327 2 23.3964 31.0026 15.7931
328 2 27.4424 31.0656 -0.0708829
329 2 31.3827 30.9906 15.7892
330 2 35.4229 31.2539 16.1241
331 2 39.3253 31.1828 16.0593
332 2 43.343 31.3335 -0.0138291
333 2 47.4734 31.2071 15.8889
334 2 51.493 31.1978 0.12233
335 2 55.4945 31.1234 15.9661
336 2 59.3758 31.3851 0.102705
337 2 63.489 31.3069 15.9838
338 2 67.5873 31.5925 0.0034416
339 2 71.5729 31.5013 0.197354
340 2 75.3841 31.6497 0.256976
341 2 79.5262 31.6973 15.9859
342 2 83.3315 31.8279 0.0541103
343 2 87.4465 31.7236 15.9591
344 2 91.5009 31.6698 15.8986
345 2 95.5341 31.7899 15.8715
346 2 99.2631 31.6785 0.290199
347 2 103.238 31.7409 15.6532
348 2 107.055 31.6286 15.8864
349 2 111.007 31.8351 15.7429
350 2 114.859 31.5439 16.0001
351 2 118.897 31.4392 15.897
352 2 122.856 31.631 15.8935
353 2 126.755 31.4821 15.8709
354 2 130.55 31.473 15.7591
355 2 134.472 31.2939 15.9192
356 2 138.451 31.3925 15.8456
357 2 142.306 31.2594 0.102446
358 2 146.295 31.4202 15.9617
359 2 150.188 31.2234 0.0179956
360 2 154.08 31.1107 0.304034
361 2 -0.268053 35.0989 0.0827383
362 2 3.55403 35.1108 15.9255
363 2 7.35209 35.0834 15.8661
364 2 11.4041 35.0824 15.9314
365 2 15.3873 34.9406 -0.150713
366 2 19.3828 34.9402 -0.0117392
367 2 23.2978 35.1417 0.0202613
368 2 27.2769 34.9665 0.0161992
369 2 31.2751 35.0643 0.186864
370 2 35.1234 35.0296 0.0592265
371 2 39.0412 35.1582 0.113551
372 2 43.3248 35.0073 16.1717
373 2 47.3116 35.0879 15.9078
374 2 51.3335 35.1757 15.8084
375 2 55.4244 35.2669 0.135653
376 2 59.2885 35.1271 0.152444
377 2 63.4461 35.3919 16.0926
378 2 67.2715 35.2802 0.186667
379 2 71.4594 35.4893 0.227137
380 2 75.3579 35.2142 16.0456
381 2 79.4893 35.5046 -0.0731314
382 2 83.4294 35.5497 15.8713
383 2 87.4739 35.5409 -0.0971477
384 2 91.3947 35.6909 0.0615075
385 2 95.4647 35.7062 15.914
386 2 99.5974 35.6384 0.131071
387 2 103.313 35.6937 15.8634
388 2 107.112 35.6817 15.8565
389 2 111.031 35.8239 15.9225
390 2 115.152 35.5087 16.1813
391 2 118.886 35.5938 16.0207
392 2 122.842 35.5147 15.9465
393 2 126.612 35.6414 15.7954
394 2 130.733 35.3304 15.8789
395 2 134.518 35.3156 15.9093
396 2 138.542 35.4403 0.195238
397 2 142.281 35.3437 -0.0314161
398 2 146.34 35.4884 0.00115766
399 2 150.371 35.2108 15.8266
400 2 153.957 35.1775 0.22265
401 2 158.208 39.1355 0.283659
402 2 3.63326 39.1726 0.0390236
403 2 7.61729 39.044 0.0866094
404 2 11.4441 39.1874 15.7967
405 2 15.5948 38.8771 0.155726
406 2 19.3461 38.9199 15.7896
407 2 23.2814 38.9666 15.7814
408 2 27.212 38.7658 15.9079
409 2 31.3787 38.9293 0.271476
410 2 35.1926 39.0806 0.194407
411 2 39.3842 38.8967 16.108
412 2 43.3041 38.9893 0.300349
413 2 47.2061 39.0633 0.183243
414 2 51.4122 39.1625 15.9346
415 2 55.4723 38.9903 0.351756
416 2 59.1752 39.0431 0.269566
417 2 63.1782 39.1527 0.20065
418 2 67.2413 39.3981 0.173388
419 2 71.3051 39.4049 0.247287
420 2 75.3934 39.4625 0.352985
421 2 79.5457 39.4732 0.083949
422 2 83.3661 39.4106 15.9676
423 2 87.3212 39.5596 15.8343
424 2 91.4985 39.6129 15.7996
425 2 95.4676 39.5826 15.8415
426 2 99.554 39.7 0.0088349
427 2 103.447 39.7539 15.9815
428 2 107.265 39.6995 16.1149
429 2 111.118 39.7677 16.1064
430 2 115.235 39.7582 15.8699
431 2 118.993 39.3712 15.8444
432 2 122.926 39.5723 15.8204
433 2 126.75 39.5262 0.146797
434 2 130.654 39.57 15.9508
435 2 134.517 39.3673 15.8758
436 2 138.692 39.4333 16.0338
437 2 142.368 39.254 16.1809
438 2 146.393 39.2442 0.0970855
439 2 150.391 39.2183 15.8326
440 2 154.085 39.1638 15.9761
441 2 158.098 43.1445 0.187196
442 2 3.81559 43.1256 15.9554
443 2 7.57599 43.2009 15.8187
444 2 11.7977 43.0272 0.0935812
445 2 15.5658 42.9369 0.156921
446 2 19.4438 42.9116 0.136729
447 2 23.4001 42.7118 15.8861
448 2 27.5086 42.9395 16.1671
449 2 31.2273 42.6611 0.0991197
450 2 35.2781 43.0472 0.0647543
451 2 39.0489 42.7112 0.0563936
452 2 43.2057 42.8995 0.249314
453 2 47.232 43.125 15.9378
454 2 51.2833 42.9293 16.1965
455 2 55.2483 42.8967 0.30238
456 2 59.2199 42.9341 16.0274
457 2 63.3836 43.0324 0.302842
458 2 67.0529 43.2497 0.148253
459 2 71.4354 43.3275 0.141838
460 2 75.4445 43.3233 0.181189
461 2 79.2841 43.5728 0.242417
462 2 83.423 43.357 15.8922
463 2 87.3446 43.5304 15.6994
464 2 91.2685 43.6006 -0.145094
465 2 95.4569 43.6591 0.174126
466 2 99.3692 43.5929 15.9194
467 2 103.319 43.6339 15.998
468 2 107.236 43.7281 15.7302
469 2 111.339 43.7755 15.9419
470 2 115.318 43.8481 15.8518
471 2 119.192 43.6336 15.8304
472 2 122.919 43.565 15.9262
473 2 126.76 43.8459 -0.0407519
474 2 130.747 43.5946 0.128103
475 2 134.658 43.4464 15.9948
476 2 138.626 43.2976 15.9257
477 2 142.712 43.4338 16.0968
478 2 146.385 43.1463 0.270089
479 2 150.33 43.1816 0.217994
480 2 154.423 43.0719 0.202057
481 2 -0.200927 47.2049 0.0456198
482 2 3.61059 47.1012 0.175953
483 2 7.70273 47.204 0.135737
484 2 11.5668 46.9693 0.0620979
485 2 15.4854 47.1368 0.274619
486 2 19.5911 46.9571 0.0855117
487 2 23.3401 46.8662 0.102213
488 2 27.4695 46.7764 16.0524
489 2 31.494 46.8516 0.254159
490 2 35.0861 46.9329 -0.0936286
491 2 39.1817 46.7634 15.7927
492 2 43.2052 46.7913 15.9036
493 2 47.1524 46.9198 0.0407591
494 2 51.2239 46.8604 16.0224
495 2 55.2017 47.1177 15.9975
496 2 59.3141 46.913 15.9704
497 2 63.1555 47.193 0.0684165
498 2 67.345 47.1252 0.207066
499 2 71.0966 47.1856 15.9326
500 2 75.3129 47.2384 0.298903
501 2 79.3298 47.2092 16.1931
502 2 83.4045 47.3183 16.0488
503 2 87.3786 47.3139 0.161178
504 2 91.3242 47.4702 0.113697
505 2 95.2856 47.6738 0.280099
506 2 99.3452 47.5874 -0.0523589
507 2 103.417 47.5409 0.28984
508 2 107.413 47.7438 15.9304
509 2 111.434 47.8268 15.8708
510 2 115.208 47.6196 0.266332
511 2 119.041 47.6254 15.9369
512 2 123.058 47.4283 15.933
513 2 127.221 47.6297 15.9743
514 2 130.867 47.5499 15.9019
515 2 134.666 47.5366 15.984
516 2 138.437 47.3823 15.8493
517 2 142.645 47.2255 15.9601
518 2 146.609 47.3896 -0.0020507
519 2 150.449 47.1994 0.144636
520 2 154.311 47.1376 15.9094
521 2 158.295 51.345 0.0588844
522 2 3.71611 51.2212 16.1723
523 2 7.63704 51.024 15.9895
524 2 11.6207 51.265 15.8676
525 2 15.5818 50.9037 0.0951248
526 2 19.6279 51.1778 15.8679
527 2 23.4087 50.8023 15.9515
528 2 27.4645 50.6435 15.963
529 2 31.2862 50.7782 0.302465
530 2 35.1813 50.7177 0.583831
531 2 39.1557 50.8205 15.7403
532 2 43.1838 50.8441 15.9174
533 2 47.1147 50.8605 0.17639
534 2 51.0475 50.8014 0.0235753
535 2 55.2336 50.9604 0.137346
536 2 59.1359 50.9755 15.9897
537 2 63.0905 51.0679 15.9872
538 2 67.1241 51.1514 0.115994
539 2 71.0553 51.0982 0.208085
540 2 75.208 51.0909 0.0563429
541 2 79.3548 51.1742 0.214051
542 2 83.3607 51.1906 0.10263
543 2 87.1812 51.1996 0.00933823
544 2 91.1849 51.3375 0.353094
545 2 95.2793 51.3917 0.121084
546 2 99.3314 51.4141 0.134
547 2 103.245 51.6367 15.873
548 2 107.286 51.6079 0.266044
549 2 111.078 51.595 0.295436
550 2 115.241 51.5833 15.9635
551 2 119.228 51.4492 15.9339
552 2 123.075 51.6237 15.8578
553 2 127.118 51.5215 15.9086
554 2 130.765 51.6128 0.214587
555 2 134.822 51.5579 0.0460822
556 2 138.706 51.4696 0.0947569
557 2 142.677 51.4291 0.177821
558 2 146.525 51.311 15.9967
559 2 150.328 51.3467 0.333567
560 2 154.261 51.2806 0.104931
561 2 158.264 55.2688 0.251407
562 2 3.8209 55.0462 0.312023
563 2 7.75002 55.0151 0.203862
564 2 11.559 55.1896 0.149384
565 2 15.4728 55.206 0.215077
566 2 19.4873 55.0434 15.9296
567 2 23.6246 54.7367 15.8059
568 2 27.488 54.816 15.9616
569 2 31.3942 54.7676 0.343971
570 2 35.2498 54.8427 0.14979
571 2 39.0682 54.5651 15.9556
572 2 43.1746 54.7129 15.9515
573 2 47.0845 54.6706 0.285558
574 2 51.0254 54.6407 15.9564
575 2 55.1266 54.9656 16.0531
576 2 59.0801 54.8885 15.7793
577 2 63.2732 54.8005 16.0229
578 2 67.042 54.9552 0.0437027
579 2 71.0524 54.9432 0.215344
580 2 75.1103 55.1629 16.1528
581 2 79.0707 55.1129 0.22638
582 2 83.1631 54.9704 0.256739
583 2 87.1903 55.2096 0.246642
584 2 91.2139 55.0474 16.0291
585 2 95.223 55.3668 0.0350856
586 2 99.2675 55.3174 16.1709
587 2 103.22 55.5328 15.9479
588 2 107.298 55.365 0.0567168
589 2 111.294 55.5586 15.911
590 2 115.226 55.4977 15.9334
591 2 119.09 55.4068 16.022
592 2 123.181 55.7048 0.246189
593 2 127.248 55.6221 16.0897
594 2 130.99 55.7854 15.6775
595 2 134.829 55.5122 0.171597
596 2 138.713 55.5164 15.9627
597 2 142.743 55.4622 0.0469706
598 2 146.643 55.2025 0.0407257
599 2 150.383 55.2917 0.122978
600 2 154.322 55.2569 16.0646
601 2 158.27 59.228 0.205575
602 2 3.87423 59.0802 15.9689
603 2 7.92263 59.3887 16.2033
604 2 11.7926 59.0714 0.445743
605 2 15.7652 59.0553 16.0314
606 2 19.9297 58.9242 0.0126331
607 2 23.7302 59.0257 0.158528
608 2 27.3801 58.8741 0.139529
609 2 31.3195 58.865 15.8949
610 2 35.2461 58.7253 16.122
611 2 39.4714 58.7744 16.054
612 2 43.0737 58.6331 15.7974
613 2 47.0057 58.6684 15.862
614 2 50.9956 58.4418 16.0037
615 2 54.9312 58.7678 15.8217
616 2 59.1457 58.7447 0.0140095
617 2 63.0299 58.645 15.8948
618 2 66.9477 58.9187 0.225239
619 2 71.1968 58.8659 15.8279
620 2 75.1977 58.9592 0.172046
621 2 79.0737 58.8663 0.239687
622 2 83.0162 59.0887 -0.000447679
623 2 87.0296 59.1517 15.9741
624 2 91.1898 59.1501 15.846
625 2 95.001 59.2724 0.172211
626 2 99.3146 59.1661 0.0143721
627 2 103.339 59.3166 15.9294
628 2 107.232 59.3745 0.142376
629 2 111.354 59.325 15.9296
630 2 115.394 59.5526 15.8939
631 2 119.181 59.5468 15.8385
632 2 123.359 59.4681 0.144875
633 2 127.181 59.7435 15.796
634 2 131.07 59.7482 0.220148
635 2 134.844 59.6358 16.0882
636 2 138.834 59.363 0.245661
637 2 142.802 59.3819 0.212194
638 2 146.635 59.3741 0.234181
639 2 150.47 59.4065 15.9245
640 2 154.5 59.4408 0.229111
641 2 0.10512 63.2246 0.123799
642 2 4.06324 63.3212 0.1382
643 2 8.05445 63.1674 16.1003
644 2 11.9396 63.1774 15.9796
645 2 15.8909 62.8633 15.9826
646 2 19.5669 62.7826 0.0866087
647 2 23.3729 62.7858 0.14221
648 2 27.5211 62.8202 0.127752
649 2 31.4447 62.6998 0.259661
650 2 35.3154 62.9726 0.108114
651 2 39.1865 62.8163 16.0802
652 2 43.2201 62.7478 -0.0403587
653 2 46.8992 62.6076 15.9281
654 2 50.8813 62.5672 15.7895
655 2 54.9103 62.5059 0.135836
656 2 58.8866 62.576 15.9705
657 2 62.66 62.6275 0.186851
658 2 66.8942 62.5791 16.0109
659 2 71.0184 62.8799 0.0801722
660 2 74.9871 62.8611 0.191157
661 2 79.0098 62.9539 0.088532
662 2 83.1342 62.829 0.124716
663 2 87.1458 62.9551 15.7853
664 2 90.9884 63.1418 15.988
665 2 95.1468 63.0423 0.276463
666 2 99.2133 63.0378 0.123242
667 2 103.152 63.2329 15.9614
668 2 107.248 63.3226 15.9648
669 2 111.029 63.2759 15.8966
670 2 114.95 63.4409 0.143027
671 2 119.103 63.4011 15.8313
672 2 123.128 63.3643 0.202721
673 2 127.109 63.6089 16.0983
674 2 131.03 63.5176 0.354473
675 2 134.961 63.6909 15.8901
676 2 139.078 63.6283 15.7407
677 2 142.828 63.2853 15.9213
678 2 146.731 63.4947 -0.0981964
679 2 150.463 63.5795 15.7888
680 2 154.498 63.314 -0.0924214
681 2 0.00377609 67.3008 0.275393
682 2 4.07381 67.2466 0.103932
683 2 8.0699 67.2783 15.9156
684 2 11.9183 67.3222 16.0838
685 2 15.673 67.1019 0.379823
686 2 19.6921 66.8593 0.123353
687 2 23.5823 66.9089 0.154069
688 2 27.5246 66.9333 0.360358
689 2 31.3426 66.826 0.374766
690 2 35.2862 66.7932 0.176809
691 2 39.2037 66.6602 15.9845
692 2 43.2277 66.6462 0.099409
693 2 47.0382 66.547 15.9152
694 2 50.9875 66.3719 16.075
695 2 54.8511 66.4868 15.9683
696 2 58.9955 66.529 15.955
697 2 62.8508 66.5078 15.9479
698 2 66.9087 66.6434 15.9325
699 2 70.8953 66.7272 0.28979
700 2 74.9725 66.6727 15.8891
701 2 79.1226 66.6419 15.9944
702 2 83.0807 66.7888 0.240791
703 2 87.0711 66.9154 15.9659
704 2 91.0482 66.9773 16.077
705 2 95.0277 66.9011 -0.00991951
706 2 99.1127 66.9612 0.278592
707 2 103.105 67.2888 0.109819
708 2 107.143 67.0075 15.9614
709 2 111.024 67.1903 16.0555
710 2 115.15 67.3013 15.8926
711 2 119.18 67.189 0.170206
712 2 123.312 67.4302 0.115859
713 2 127.143 67.3302 0.221771
714 2 131.101 67.343 15.9034
715 2 135.007 67.5759 -0.0637806
716 2 138.953 67.582 0.0626002
717 2 142.937 67.5289 15.8723
718 2 146.681 67.4697 15.8495
719 2 150.449 67.4683 15.9742
720 2 154.483 67.4261 0.27236
721 2 0.187023 71.3305 0.323789
722 2 4.09109 71.2828 16.0676
723 2 8.0182 71.3329 0.176643
724 2 11.9095 71.1207 16.0824
725 2 15.8742 71.0133 0.037149
726 2 19.8933 71.0498 0.0859023
727 2 23.7682 70.8615 0.190309
728 2 27.6797 70.9322 16.1637
729 2 31.6337 70.87 0.0580365
730 2 35.5835 70.8613 0.294356
731 2 39.1112 70.6471 16.1442
732 2 43.3356 70.6199 0.103829
733 2 47.1831 70.6547 15.9172
734 2 50.9427 70.5081 15.8583
735 2 54.9676 70.5862 0.139613
736 2 58.9209 70.585 0.255263
737 2 62.859 70.4606 0.0849289
738 2 66.8981 70.5629 15.8617
739 2 70.8124 70.7146 15.8756
740 2 74.9088 70.5993 16.0886
741 2 78.9904 70.4471 0.180867
742 2 82.9052 70.5911 0.221223
743 2 86.9559 70.8806 15.9433
744 2 91.0257 70.8397 15.8502
745 2 95.0732 70.8857 15.975
746 2 99.0997 71.0299 15.8532
747 2 102.98 71.0568 15.8479
748 2 107.025 71.0116 16.0065
749 2 110.936 71.1498 15.8725
750 2 115.138 71.1526 0.185937
751 2 119.087 71.1663 15.9884
752 2 123.106 71.4781 0.218939
753 2 127.058 71.1198 15.9103
754 2 131.245 71.4644 15.9846
755 2 135.113 71.5102 15.9819
756 2 139.284 71.6179 15.9733
757 2 143.213 71.5642 0.115039
758 2 146.993 71.5205 0.178725
759 2 150.782 71.4415 0.116688
760 2 154.502 71.2031 16.0673
761 2 0.409176 75.1448 0.360156
762 2 4.28066 75.1827 16.2133
763 2 7.91029 75.1473 16.0127
764 2 11.899 75.2534 16.0693
765 2 15.8154 75.1298 15.8672
766 2 19.7357 75.1096 16.0828
767 2 23.69 74.9764 15.9965
768 2 27.7589 74.7562 16.1136
769 2 31.6574 74.8341 0.283711
770 2 35.5644 74.8293 15.8041
771 2 39.3352 74.7668 15.9986
772 2 43.3802 74.7138 0.180805
773 2 47.3301 74.565 16.1367
774 2 51.1366 74.6484 0.0545903
775 2 54.9366 74.5625 15.7646
776 2 58.8722 74.5325 15.8556
777 2 63.0991 74.3623 16.0401
778 2 66.9774 74.3003 0.072441
779 2 70.8729 74.1913 0.115874
780 2 74.8 74.5072 0.0842241
781 2 78.8733 74.4415 0.091987
782 2 82.8455 74.5979 0.160165
783 2 87.0486 74.78 0.151243
784 2 90.9346 74.8144 16.121
785 2 95.0396 74.7267 15.8243
786 2 98.9544 74.8534 0.125438
787 2 103.015 75.0057 15.9209
788 2 106.856 74.9254 15.8396
789 2 110.918 75.0636 15.8688
790 2 114.882 75.2577 16.1311
791 2 118.98 75.1349 0.289505
792 2 123.141 75.2543 15.9648
793 2 127.045 75.0299 15.9367
794 2 131.3 75.3522 0.239805
795 2 135.077 75.3056 15.8489
796 2 139.24 75.5201 15.9661
797 2 143.162 75.4947 15.8441
798 2 147.06 75.4305 16.1008
799 2 150.725 75.3936 0.0673968
800 2 154.761 75.0813 0.310047
801 2 0.267794 79.1849 0.209597
802 2 4.24779 79.2203 16.1386
803 2 8.10694 79.2793 0.304287
804 2 12.095 79.1658 0.163146
805 2 16.0699 79.2444 16.1089
806 2 19.9161 79.0157 15.9259
807 2 23.9103 78.9338 0.164594
808 2 27.7035 79.0539 0.0795206
809 2 31.6537 78.7528 0.106361
810 2 35.5065 78.7543 0.260548
811 2 39.5199 78.859 16.1312
812 2 43.2711 78.5589 16.0208
813 2 47.2794 78.6388 15.9213
814 2 51.079 78.5001 0.190332
815 2 54.993 78.4822 0.298519
816 2 58.8667 78.4578 16.06
817 2 62.9962 78.4817 15.6974
818 2 66.843 78.4119 0.293378
819 2 70.828 78.423 15.8164
820 2 74.877 78.4338 0.345811
821 2 78.881 78.381 15.9315
822 2 82.8225 78.5727 15.9753
823 2 86.9078 78.6479 -0.0319476
824 2 90.966 78.6905 0.327487
825 2 94.9875 78.7266 0.183306
826 2 98.9526 78.6592 16.0349
827 2 102.934 78.8443 15.8863
828 2 106.928 78.9201 0.326166
829 2 111.005 78.9544 0.274124
830 2 114.879 78.863 0.344638
831 2 118.813 79.0906 0.15724
832 2 123.039 78.9666 15.7336
833 2 127.128 79.113 0.043357
834 2 131.072 78.9833 15.9012
835 2 135.179 79.3929 0.0681743
836 2 139.097 79.2319 15.9408
837 2 143.292 79.4635 15.871
838 2 147.008 79.4113 15.9325
839 2 150.872 79.2597 16.0932
840 2 154.936 79.2796 0.268589
841 2 0.352578 83.5428 15.9665
842 2 4.62318 83.2124 15.9788
843 2 8.29138 83.271 0.393343
844 2 12.1514 83.0069 16.0147
845 2 16.0287 83.146 16.1491
846 2 20.1078 82.9472 0.106761
847 2 23.7818 82.9225 15.9
848 2 27.8086 82.8752 0.220989
849 2 32.057 82.9422 16.0206
850 2 35.7381 82.814 -0.0407517
851 2 39.5828 82.6905 0.00984811
852 2 43.2903 82.5958 15.9732
853 2 47.2743 82.7184 0.133682
854 2 51.3921 82.4852 0.155905
855 2 55.1607 82.4018 0.247805
856 2 59.0373 82.4611 15.8444
857 2 63.0508 82.3496 15.9294
858 2 66.805 82.3525 16.1895
859 2 70.969 82.3358 15.9419
860 2 74.7429 82.1959 16.0662
861 2 78.7289 82.3317 16.0145
862 2 82.8889 82.5464 0.102463
863 2 86.8795 82.6425 0.250438
864 2 90.8484 82.5853 16.0165
865 2 94.8312 82.7467 0.00243764
866 2 99.0088 82.5924 15.9116
867 2 102.855 82.7245 0.333686
868 2 106.92 82.8424 15.9373
869 2 110.688 82.8431 15.868
870 2 114.886 82.855 16.097
871 2 118.829 82.8295 16.0678
872 2 122.984 82.9783 15.7634
873 2 127.041 83.0219 16.0875
874 2 131.131 82.9986 15.9889
875 2 135.231 83.376 0.027352
876 2 139.246 83.2815 15.8431
877 2 143.126 83.4008 0.153516
878 2 147.137 83.4107 16.0298
879 2 150.998 83.31 0.188084
880 2 155.022 83.6009 0.09408
881 2 0.550407 87.3839 16.1897
882 2 4.30742 87.3398 0.332852
883 2 8.3225 87.2496 16.0458
884 2 12.19 87.1638 15.9694
885 2 16.1872 87.0788 15.9368
886 2 19.945 87.1408 16.2377
887 2 23.9097 87.0444 16.0711
888 2 27.832 86.7425 -0.0333564
889 2 31.8723 86.9998 15.9711
890 2 35.9044 86.8648 0.0127469
891 2 39.6021 86.6178 15.9324
892 2 43.4855 86.7669 15.8894
893 2 47.4034 86.6917 15.8491
894 2 51.1206 86.6135 15.9698
895 2 55.1792 86.4848 16.1228
896 2 58.9765 86.5174 0.21278
897 2 62.9351 86.2666 0.197069
898 2 66.8715 86.3316 16.0503
899 2 70.8676 86.1137 0.0722496
900 2 74.7325 86.2081 15.9476
901 2 78.7965 86.2045 0.289448
902 2 82.5308 86.4121 0.0269457
903 2 86.8143 86.4677 16.0437
904 2 90.8432 86.4268 15.9401
905 2 94.8195 86.5546 15.9188
906 2 98.8297 86.6376 15.8206
907 2 102.88 86.4578 0.00294699
908 2 106.853 86.6242 0.0455708
909 2 111.119 86.7125 15.943
910 2 114.835 86.8243 0.191333
911 2 119.034 86.7053 0.379777
912 2 123.04 86.872 0.219308
913 2 126.987 86.8857 16.0052
914 2 130.848 87.0829 16.0326
915 2 134.861 87.2223 16.0017
916 2 138.899 87.172 15.8937
917 2 143.043 87.2644 15.798
918 2 147.021 87.5176 0.185547
919 2 150.997 87.4398 15.8998
920 2 154.848 87.3444 16.1669
921 2 0.501095 91.2708 0.407715
922 2 4.37931 91.3218 0.270261
923 2 8.4557 91.1283 16.0257
924 2 12.271 91.1747 15.8291
925 2 16.2001 91.0614 0.0976797
926 2 20.2315 90.9946 0.0720885
927 2 23.8342 91.0069 15.946
928 2 27.9528 90.8404 15.9201
929 2 31.9501 90.8726 15.9635
930 2 35.7191 90.9356 0.177133
931 2 39.6174 90.6575 15.8242
932 2 43.4923 90.6754 15.8897
933 2 47.4158 90.5624 0.104642
934 2 51.2462 90.5122 0.1347
935 2 55.3934 90.3948 0.172731
936 2 59.3985 90.6327 0.346827
937 2 63.207 90.4997 0.147808
938 2 66.9958 90.3278 16.1521
939 2 70.9422 90.1769 15.8277
940 2 74.8097 90.1833 0.155596
941 2 78.6402 90.1601 0.103442
942 2 82.7806 90.3838 0.170259
943 2 86.8992 90.271 0.232761
944 2 90.9532 90.5318 0.0146115
945 2 94.7389 90.425 16.0167
946 2 98.7439 90.5577 15.9297
947 2 102.78 90.6513 0.109643
948 2 107.06 90.6837 16.0442
949 2 110.919 90.5317 15.9293
950 2 114.957 90.7532 0.239575
951 2 118.903 90.6832 0.232611
952 2 122.814 90.6482 15.7262
953 2 126.919 90.8419 0.161992
954 2 130.833 90.868 0.242978
955 2 135.01 91.1668 16.0333
956 2 138.869 91.0471 16.0122
957 2 142.99 91.1597 16.0552
958 2 146.904 91.3014 15.9712
959 2 150.868 91.2352 16.1441
960 2 154.608 91.1283 16.0974
961 2 0.515149 95.2172 0.215747
962 2 4.58016 95.3882 16.1922
963 2 8.35713 95.3093 16.1933
964 2 12.314 95.268 15.8386
965 2 16.2526 95.0084 15.8883
966 2 20.0911 95.0662 16.0318
967 2 24.2444 94.9685 15.9095
968 2 28.1356 94.9113 15.9569
969 2 32.155 94.9918 15.6941
970 2 35.9801 94.907 15.9918
971 2 39.5732 94.8072 15.8727
972 2 43.7709 94.6393 15.8307
973 2 47.4228 94.6817 0.347964
974 2 51.6142 94.4134 15.8546
975 2 55.3306 94.4259 0.0943076
976 2 59.3138 94.4201 16.0289
977 2 63.1623 94.2795 0.0591106
978 2 67.1981 94.3834 0.15693
979 2 71.185 94.282 0.165918
980 2 74.7635 94.3004 0.173164
981 2 78.8628 94.1413 15.7724