ITEM: TIMESTEP
21300
ITEM: NUMBER OF ATOMS
32000
ITEM: BOX BOUNDS xy xz yz pp pp pp
0.0000000000000000e+00 1.5831999999999999e+02 0.0000000000000000e+00
0.0000000000000000e+00 1.5831999999999999e+02 0.0000000000000000e+00
1.6290340815260240e-01 1.5934808591847242e+01 0.0000000000000000e+00
ITEM: ATOMS id type x y z
1 2 157.924 157.875 15.8409
2 2 3.60619 157.878 15.8888
3 2 7.87042 157.832 0.219484
4 2 11.8645 157.836 0.133565
5 2 15.6925 158.017 0.0827942
6 2 19.7948 157.897 15.7724
7 2 23.8437 158.164 15.7812
8 2 27.653 158.004 15.8716
9 2 31.7068 158.122 0.222694
10 2 35.639 158.054 16.0124
11 2 39.84 -0.0856829 16.118
12 2 43.8999 0.053264 0.410483
13 2 47.7692 -0.0186677 15.8555
14 2 51.7288 0.27863 0.0617797
15 2 55.9256 158.509 0.130406
16 2 59.774 158.459 16.0768
17 2 63.8828 0.254029 15.9177
18 2 67.826 0.169768 16.0109
19 2 71.4882 -0.0252379 15.71
20 2 75.5106 158.339 15.9267
21 2 79.594 -0.016697 15.8985
22 2 83.3314 158.167 16.065
23 2 87.4863 158.186 15.9027
24 2 91.3967 158.177 0.342801
25 2 95.0391 158.162 15.9567
26 2 99.0235 158.101 15.9042
27 2 102.899 158.005 15.8513
28 2 106.914 157.964 15.8181
29 2 110.769 157.844 0.338594
30 2 114.737 157.827 0.219337
31 2 118.659 157.858 16.0037
32 2 122.553 157.899 0.232423
33 2 126.243 157.903 0.210436
34 2 130.407 157.762 0.188214
35 2 134.225 157.563 16.0319
36 2 138.127 157.695 16.0563
37 2 142.099 157.835 16.0806
38 2 146.052 157.567 15.8138
39 2 149.976 157.681 0.0881063
40 2 154.061 157.675 0.128106
41 2 157.819 3.31046 15.7973
42 2 3.57931 3.44147 15.8787
43 2 7.59583 3.5984 0.15495
44 2 11.6991 3.52379 16.0163
45 2 15.707 3.38405 16.0206
46 2 19.5838 3.51868 15.8986
47 2 23.7423 3.66087 -0.00320542
48 2 27.5882 3.56535 0.0797967
49 2 31.5522 3.87001 0.0950237
50 2 35.5387 3.6937 0.233024
51 2 39.5747 3.7664 0.140396
52 2 43.77 3.98473 16.1313
53 2 47.7952 4.08376 15.9515
54 2 51.7306 4.07716 15.8285
55 2 55.6718 3.90062 -0.00875514
56 2 59.7839 4.23792 16.0039
57 2 63.7432 4.37774 16.1179
58 2 67.712 4.03605 15.9833
59 2 71.736 3.94895 15.8666
60 2 75.676 3.95011 16.0184
61 2 79.4512 3.93288 15.9966
62 2 83.3325 3.81808 15.9565
63 2 87.1724 3.75593 15.9606
64 2 91.2083 3.93605 0.0491016
65 2 95.1304 3.78259 15.93
66 2 99.0341 3.66797 0.195148
67 2 102.968 3.75068 15.966
68 2 106.954 3.50923 15.9431
69 2 110.918 3.59034 0.230951
70 2 114.75 3.54198 0.361982
71 2 118.637 3.59682 0.291654
72 2 122.529 3.51613 0.318978
73 2 126.626 3.67536 0.329203
74 2 130.303 3.45062 0.128295
75 2 134.362 3.42343 16.0084
76 2 138.089 3.39798 0.241995
77 2 142.377 3.39519 0.31054
78 2 146.305 3.27691 0.205116
79 2 150.042 3.21673 15.8839
80 2 153.853 3.36827 15.8081
81 2 157.896 7.42793 16.102
82 2 3.46746 7.26523 15.9242
83 2 7.69257 7.28597 15.9028
84 2 11.6509 7.33799 0.262781
85 2 15.5467 7.22871 15.8925
86 2 19.5598 7.47474 15.9903
87 2 23.6003 7.7013 0.212102
88 2 27.5093 7.73382 15.9071
89 2 31.6818 7.74188 16.0333
90 2 35.6855 7.61472 16.1212
91 2 39.5636 7.65017 0.295048
92 2 43.6796 7.87621 0.167862
93 2 47.686 7.99056 15.9323
94 2 51.7426 8.02752 0.113413
95 2 55.6278 8.09279 15.8969
96 2 59.6594 7.85851 0.304927
97 2 63.7303 7.94507 15.8853
98 2 67.7362 7.89288 15.9383
99 2 71.7814 8.13652 15.8572
100 2 75.7295 8.02112 16.038
101 2 79.5068 7.85957 0.214168
102 2 83.5136 7.92927 15.9439
103 2 87.426 7.85079 15.9115
104 2 91.3332 7.82041 15.8625
105 2 95.2367 7.74025 16.0202
106 2 99.3123 7.80032 0.295884
107 2 103.161 7.7471 0.144964
108 2 107.029 7.62274 16.1106
109 2 110.736 7.79138 0.302861
110 2 114.735 7.623 15.8995
111 2 118.585 7.61487 16.0891
112 2 122.585 7.53281 16.0617
113 2 126.47 7.40649 15.9561
114 2 130.601 7.4795 0.103472
115 2 134.281 7.36693 0.252032
116 2 138.281 7.29811 15.9254
117 2 142.092 7.36908 15.9369
118 2 146.142 7.40206 0.10094
119 2 149.923 7.3604 0.331691
120 2 153.911 7.34377 16.0229
121 2 157.869 11.2412 15.951
122 2 3.61853 11.4075 15.7411
123 2 7.58186 11.2424 15.9984
124 2 11.3854 11.2022 0.247373
125 2 15.403 11.3071 16.0526
126 2 19.5011 11.3072 15.8145
127 2 23.7355 11.4834 16.1129
128 2 27.5029 11.5428 16.0972
129 2 31.6867 11.6272 15.9342
130 2 35.6146 11.4509 16.0033
131 2 39.4163 11.4952 16.0222
132 2 43.6478 11.7126 0.214448
133 2 47.7933 11.7969 0.201975
134 2 51.6692 12.0144 16.0485
135 2 55.6768 11.736 0.21662
136 2 59.7954 11.8742 16.0291
137 2 63.5998 11.7044 0.146953
138 2 67.8272 11.809 15.8113
139 2 71.784 12.0402 15.851
140 2 75.7678 12.1163 16.0175
141 2 79.7923 12.0118 15.9884
142 2 83.646 11.8899 15.9937
143 2 87.203 11.9215 0.270157
144 2 91.3751 11.9139 0.223814
145 2 95.3336 11.7354 15.8131
146 2 99.2562 11.7493 16.0056
147 2 103.223 11.8251 0.122982
148 2 107.088 11.7432 15.9406
149 2 110.687 11.6618 0.295938
150 2 114.753 11.6628 16.0696
151 2 118.791 11.5584 0.112533
152 2 122.822 11.5865 0.256737
153 2 126.589 11.492 15.8627
154 2 130.298 11.5215 16.0913
155 2 134.338 11.3554 0.283877
156 2 138.297 11.2957 -0.0895578
157 2 142.358 11.4722 0.105321
158 2 146.219 11.248 0.25236
159 2 150.123 11.2324 0.00578307
160 2 153.817 11.379 -0.083678
161 2 157.904 15.2529 15.9054
162 2 3.64892 15.2475 15.8944
163 2 7.49882 15.1454 15.6879
164 2 11.4397 15.055 15.981
165 2 15.5359 15.2358 15.8463
166 2 19.4911 15.0684 0.145452
167 2 23.5169 15.2202 0.236454
168 2 27.6171 15.4701 15.9355
169 2 31.5097 15.4842 0.257779
170 2 35.404 15.5923 15.9669
171 2 39.5349 15.7759 0.25625
172 2 43.4277 15.8029 0.281903
173 2 47.5747 15.7352 0.162099
174 2 51.4861 15.9126 0.0941333
175 2 55.6512 15.8172 16.0181
176 2 59.5816 15.7614 0.298288
177 2 63.7267 15.6955 15.8808
178 2 67.7842 15.9689 15.8872
179 2 71.7521 15.9244 0.140761
180 2 75.649 16.0142 0.357162
181 2 79.509 15.9549 16.164
182 2 83.4232 15.9827 0.160293
183 2 87.399 15.8082 16.0239
184 2 91.5024 15.7169 0.0768428
185 2 95.3389 15.8473 15.9584
186 2 99.2938 15.8734 15.7872
187 2 103.129 15.6401 16.0424
188 2 107.061 15.6983 15.9836
189 2 110.93 15.5447 16.0542
190 2 114.856 15.5954 15.9713
191 2 118.91 15.527 0.321653
192 2 122.858 15.5993 15.9513
193 2 126.751 15.5019 15.9185
194 2 130.647 15.6453 0.222473
195 2 134.547 15.2748 0.364357
196 2 138.242 15.5278 0.00977564
197 2 142.233 15.468 16.1144
198 2 146.317 15.3002 0.201139
199 2 149.804 15.2192 0.202969
200 2 153.953 15.3091 15.7796
201 2 157.972 19.0411 15.8358
202 2 3.73324 19.3104 0.0670495
203 2 7.53226 18.9897 0.218075
204 2 11.4738 19.0255 15.9864
205 2 15.1905 19.1198 16.0006
206 2 19.3057 19.0929 15.959
207 2 23.5302 19.1415 15.9127
208 2 27.3501 19.5103 16.1258
209 2 31.6065 19.2467 15.8408
210 2 35.3994 19.3506 16.0272
211 2 39.6136 19.7219 0.160274
212 2 43.3345 19.5957 16.0061
213 2 47.4036 19.6279 15.7931
214 2 51.6617 19.7461 0.102296
215 2 55.6797 19.7436 16.118
216 2 59.6297 19.5836 15.8927
217 2 63.7287 19.7857 15.7465
218 2 67.6681 19.6277 15.8081
219 2 71.5426 20.0109 0.0812049
220 2 75.5798 19.9189 0.169696
221 2 79.424 20.0389 0.272693
222 2 83.4446 19.9273 16.0012
223 2 87.6322 20.0048 0.219192
224 2 91.3989 19.8907 0.169012
225 2 95.0116 19.9338 16.0123
226 2 99.0377 19.8836 15.9432
227 2 103.102 19.591 15.9437
228 2 107.145 19.7498 15.9316
229 2 110.934 19.7208 0.245821
230 2 114.935 19.4233 15.9903
231 2 118.813 19.6976 15.7812
232 2 122.842 19.5951 15.7792
233 2 126.638 19.4395 15.9438
234 2 130.384 19.463 15.934
235 2 134.366 19.3849 0.124183
236 2 138.494 19.3945 15.8996
237 2 142.39 19.1734 16.031
238 2 146.242 19.186 0.099074
239 2 150.103 19.1681 16.0539
240 2 153.956 19.2127 0.0178725
241 2 157.816 22.99 16.0327
242 2 3.58403 23.1764 15.8911
243 2 7.3458 23.0933 0.0479345
244 2 11.2986 22.9587 0.17693
245 2 15.4345 23.0305 15.9968
246 2 19.4212 23.145 16.0162
247 2 23.2086 23.2018 16.0321
248 2 27.4385 23.3406 16.0846
249 2 31.5698 23.2013 0.0817853
250 2 35.3221 23.3332 16.0246
251 2 39.295 23.4119 0.184417
252 2 43.4928 23.4932 15.9455
253 2 47.4098 23.5091 0.0041509
254 2 51.5619 23.4277 0.0297836
255 2 55.4386 23.3076 0.0582668
256 2 59.5824 23.5601 15.8866
257 2 63.638 23.8684 0.0759389
258 2 67.4739 23.6041 15.9886
259 2 71.7202 23.6811 15.9236
260 2 75.3827 23.775 0.145362
261 2 79.756 23.7017 15.9223
262 2 83.3185 23.73 0.172262
263 2 87.6339 23.8604 16.1072
264 2 91.6618 24.0573 16.0163
265 2 95.2569 23.785 16.0439
266 2 99.3459 23.7226 0.132247
267 2 103.112 23.8121 15.9484
268 2 106.852 23.8038 15.9141
269 2 111.012 23.7035 0.171107
270 2 115.003 23.5493 16.0271
271 2 118.784 23.6059 16.0093
272 2 122.938 23.5 0.314298
273 2 126.768 23.4459 15.9579
274 2 130.333 23.4369 15.8735
275 2 134.456 23.4456 15.8627
276 2 138.271 23.3788 15.7521
277 2 142.419 23.2287 16.0284
278 2 146.321 23.2359 0.193256
279 2 150.26 23.1815 0.111078
280 2 154.017 23.1168 0.17791
281 2 157.932 27.2251 0.13511
282 2 3.48128 27.1 0.235394
283 2 7.31727 27.1028 0.108079
284 2 11.3879 27.111 15.913
285 2 15.3937 27.0282 16.1956
286 2 19.2026 26.9353 0.356041
287 2 23.3603 27.2111 15.8727
288 2 27.2927 27.2629 16.0318
289 2 31.3968 27.0985 0.341264
290 2 35.289 27.2598 0.164466
291 2 39.514 27.262 0.0894844
292 2 43.4898 27.2731 0.300497
293 2 47.4591 27.3379 0.128252
294 2 51.458 27.3755 15.7772
295 2 55.3681 27.5802 0.114085
296 2 59.401 27.5871 15.7865
297 2 63.6627 27.6381 15.8885
298 2 67.4918 27.6355 15.8254
299 2 71.4878 27.4546 15.8731
300 2 75.6248 27.7343 -0.0785596
301 2 79.5718 27.4787 0.112127
302 2 83.5539 27.6844 15.7501
303 2 87.6287 27.6955 0.292826
304 2 91.636 28.005 0.334697
305 2 95.6261 27.8403 0.257325
306 2 99.2477 27.7314 0.215134
307 2 103.13 27.7447 16.0274
308 2 107.188 27.7349 0.312424
309 2 111.199 27.7649 16.0514
310 2 114.89 27.5566 15.9482
311 2 118.829 27.6544 0.309722
312 2 122.818 27.565 0.211381
313 2 126.626 27.4031 15.9309
314 2 130.666 27.5345 15.9755
315 2 134.555 27.5242 15.9865
316 2 138.346 27.5155 15.8675
317 2 142.311 27.2924 -0.119257
318 2 146.044 27.2355 0.118485
319 2 150.122 27.211 0.129009
320 2 153.986 27.2595 -0.0181579
321 2 157.798 31.071 15.9235
322 2 3.43762 31.0432 15.8199
323 2 7.34845 30.8949 16.1841
324 2 11.5188 30.9811 0.086109
325 2 15.5333 31.096 0.209801
326 2 19.2692 30.9316 15.859
327 2 23.1182 30.9777 15.9027
328 2 27.3591 31.0776 0.289471
329 2 31.5342 31.0457 15.7579
330 2 35.3383 31.2359 16.0539
331 2 39.2992 31.0791 15.7704
332 2 43.2662 31.1003 0.113952
333 2 47.4264 31.3246 15.8665
334 2 51.3749 31.3276 0.125895
335 2 55.3559 31.4116 15.9353
336 2 59.379 31.3905 0.197315
337 2 63.5937 31.5009 15.8987
338 2 67.4721 31.3422 0.0319514
339 2 71.5629 31.3735 0.246911
340 2 75.575 31.4104 0.113165
341 2 79.3874 31.4874 16.0951
342 2 83.3361 31.5256 0.0728332
343 2 87.6011 31.5215 15.9789
344 2 91.4537 31.7245 16.0248
345 2 95.6064 31.8866 15.8549
346 2 99.3015 31.729 0.0882338
347 2 103.446 32.0469 15.908
348 2 107.2 31.5739 16.0232
349 2 111.067 31.7406 15.9587
350 2 115.152 31.5622 16.1155
351 2 118.993 31.603 15.9942
352 2 122.944 31.5313 16.1749
353 2 126.714 31.6766 15.9516
354 2 130.635 31.3902 15.7678
355 2 134.578 31.4636 15.8591
356 2 138.301 31.3945 15.9407
357 2 142.282 31.5149 0.0898096
358 2 146.361 31.1758 15.9096
359 2 150.148 31.1178 0.0432689
360 2 153.877 31.1679 0.100766
361 2 -0.181635 35.0687 0.230388
362 2 3.71317 35.011 16.009
363 2 7.53647 35.1399 15.924
364 2 11.4382 35.0261 16.2309
365 2 15.5094 34.8551 0.404559
366 2 19.4847 34.8981 0.270886
367 2 23.3593 35.0871 0.483833
368 2 27.3039 34.9854 0.434787
369 2 31.3252 34.9617 0.0856416
370 2 35.4267 34.9007 0.153345
371 2 39.335 35.0279 0.1195
372 2 43.3862 35.1297 16.047
373 2 47.3255 35.1216 15.9207
374 2 51.3198 35.3411 15.811
375 2 55.3756 35.2439 -0.0844301
376 2 59.2911 35.1738 0.158119
377 2 63.4732 35.4279 15.9761
378 2 67.3621 35.0963 0.0596735
379 2 71.3218 35.2772 0.243648
380 2 75.329 35.3844 15.9229
381 2 79.5594 35.5986 0.381154
382 2 83.481 35.5677 16.1075
383 2 87.4452 35.5509 0.133871
384 2 91.5669 35.5283 0.221226
385 2 95.5444 35.7613 16.0137
386 2 99.61 35.8214 0.122086
387 2 103.44 35.9276 15.8947
388 2 107.357 35.5991 15.7498
389 2 111.252 35.7794 15.958
390 2 115.096 35.6473 15.974
391 2 119.13 35.5182 16.0246
392 2 123.024 35.6822 16.0394
393 2 126.831 35.706 15.9719
394 2 130.947 35.5514 15.8417
395 2 134.647 35.2712 15.9296
396 2 138.474 35.2724 0.146083
397 2 142.44 35.2678 0.0246912
398 2 146.287 35.1124 0.224729
399 2 150.258 35.2361 16.0199
400 2 154.132 35.2257 0.0973868
401 2 158.264 39.1463 0.232728
402 2 3.75337 39.0633 0.19337
403 2 7.56731 39.1326 0.109941
404 2 11.6194 39.0995 16.0916
405 2 15.7476 38.9115 0.166599
406 2 19.58 38.9371 16.1756
407 2 23.4258 38.9058 15.9342
408 2 27.2802 38.7747 15.9175
409 2 31.3577 39.0005 0.200153
410 2 35.3323 38.8254 0.158718
411 2 39.442 38.8811 15.8965
412 2 43.3597 39.0049 0.0527415
413 2 47.1169 39.0441 0.124686
414 2 51.3948 39.3163 15.9408
415 2 55.5034 39.0952 0.212557
416 2 59.3528 39.1298 -0.0496508
417 2 63.346 39.2864 0.0922199
418 2 67.3707 39.2203 0.0468137
419 2 71.3857 39.23 0.175548
420 2 75.4266 39.5057 0.290223
421 2 79.5201 39.4825 0.408781
422 2 83.3927 39.3522 15.7719
423 2 87.4442 39.4864 15.9782
424 2 91.2311 39.5236 15.9352
425 2 95.5314 39.6431 15.8656
426 2 99.567 39.8866 -0.0133213
427 2 103.526 39.8095 15.8083
428 2 107.218 39.9436 15.7788
429 2 111.1 39.6917 15.7701
430 2 114.969 39.6926 15.8583
431 2 119.207 39.492 15.8527
432 2 122.862 39.5811 16.0495
433 2 126.81 39.5798 0.0915757
434 2 130.856 39.4695 15.918
435 2 134.765 39.3514 15.8612
436 2 138.723 39.3413 15.7485
437 2 142.534 39.3752 15.9053
438 2 146.404 39.0841 0.192211
439 2 150.489 39.1398 15.8571
440 2 154.212 39.0956 15.9413
441 2 158.359 43.2769 0.418204
442 2 3.70074 43.1547 15.7571
443 2 7.68678 43.1141 15.9692
444 2 11.6002 43.1078 0.16098
445 2 15.5274 43.0038 0.272902
446 2 19.3422 43.0283 0.327607
447 2 23.312 43.0392 16.0288
448 2 27.3683 42.7669 15.9998
449 2 31.4074 42.7194 0.19058
450 2 35.3059 42.8672 0.265329
451 2 39.2079 42.6313 0.171804
452 2 43.3516 43.115 0.0643163
453 2 47.32 43.1179 15.9185
454 2 51.3445 43.1683 16.045
455 2 55.366 43.1358 -0.0668844
456 2 59.3163 43.0974 15.9648
457 2 63.2243 43.0684 0.238345
458 2 67.5059 43.1414 0.0645349
459 2 71.2989 43.1955 0.17355
460 2 75.321 43.3733 0.146557
461 2 79.4222 43.3445 0.285702
462 2 83.3442 43.2027 15.7042
463 2 87.4764 43.6216 15.8566
464 2 91.2542 43.2953 0.114839
465 2 95.2087 43.3416 0.232579
466 2 99.3015 43.6345 16.0149
467 2 103.441 43.7742 15.9548
468 2 107.227 43.7259 15.7762
469 2 111.181 43.711 15.9871
470 2 115.106 43.6113 16.0489
471 2 118.955 43.8156 16.0503
472 2 122.879 43.5718 15.9518
473 2 126.697 43.6755 0.0941551
474 2 130.936 43.5205 0.176262
475 2 134.675 43.4809 16.1922
476 2 138.585 43.4715 15.7557
477 2 142.599 43.2294 15.8533
478 2 146.373 43.2876 0.0698381
479 2 150.495 43.13 0.0349685
480 2 154.33 43.178 0.138922
481 2 -0.149891 47.4501 0.258874
482 2 3.82242 47.1109 0.103898
483 2 7.85588 47.2431 0.0293645
484 2 11.7396 47.0238 0.175002
485 2 15.5859 46.9511 0.272207
486 2 19.3282 46.9197 0.173647
487 2 23.4676 46.7258 0.178215
488 2 27.4672 46.9542 16.0728
489 2 31.4483 46.6577 0.232078
490 2 35.3468 46.6737 0.114243
491 2 39.2436 46.8995 15.8494
492 2 43.327 46.879 15.6794
493 2 47.3935 47.1085 0.0715159
494 2 51.4169 46.8046 15.906
495 2 55.5034 46.9564 15.8539
496 2 59.2669 47.0716 15.9208
497 2 63.3699 47.0425 0.0138099
498 2 67.2543 46.9991 0.135605
499 2 71.2745 47.0553 15.8353
500 2 75.3732 47.1672 0.282091
501 2 79.258 47.2599 16.2028
502 2 83.2013 47.3658 16.0329
503 2 87.3127 47.3748 0.345828
504 2 91.3841 47.3539 0.233859
505 2 95.2631 47.4162 0.426656
506 2 99.3305 47.4022 0.0650651
507 2 103.483 47.6194 0.239221
508 2 107.508 47.7436 15.9025
509 2 111.274 47.8585 16.0536
510 2 115.136 47.692 0.0559594
511 2 119.132 47.6481 15.9116
512 2 123.046 47.5429 16.0837
513 2 126.938 47.5918 16.1029
514 2 130.882 47.45 15.9462
515 2 134.637 47.4768 15.886
516 2 138.659 47.4724 15.8077
517 2 142.629 47.3144 15.9203
518 2 146.512 47.2892 -0.0543502
519 2 150.53 47.3373 0.0416092
520 2 154.362 47.1697 16.0937
521 2 158.231 51.4417 0.237688
522 2 3.94779 51.1986 16.06
523 2 7.82815 51.0539 15.8679
524 2 11.6365 51.2215 15.8817
525 2 15.5734 51.1262 0.00571287
526 2 19.6917 51.0462 15.8849
527 2 23.4479 50.818 15.8083
528 2 27.2714 50.8124 15.9339
529 2 31.3358 50.6009 0.161815
530 2 35.1061 50.5392 0.105401
531 2 39.2407 50.8733 15.6396
532 2 43.2024 50.7347 15.7708
533 2 47.138 50.803 0.308393
534 2 51.2562 50.9175 0.226911
535 2 55.4158 50.88 0.0286778
536 2 59.2478 50.7765 15.9627
537 2 63.3869 50.9946 15.7912
538 2 67.3682 50.9885 0.0778523
539 2 71.0763 50.899 -0.00959163
540 2 75.1704 51.0909 -0.038104
541 2 79.4377 51.1462 0.132623
542 2 83.4539 51.1505 0.133907
543 2 87.2909 51.3351 0.236228
544 2 91.4093 51.3808 -0.0109429
545 2 95.1346 51.4257 0.0389524
546 2 99.2309 51.3648 0.157597
547 2 103.257 51.7578 15.7908
548 2 107.218 51.739 0.132107
549 2 111.195 51.6349 0.218258
550 2 115.051 51.4602 16.0832
551 2 119.092 51.5786 16.1643
552 2 122.818 51.7456 16.1219
553 2 126.908 51.4884 16.0575
554 2 131.006 51.4359 0.263293
555 2 134.924 51.2342 0.0806695
556 2 138.843 51.3934 0.155697
557 2 142.696 51.4867 0.261442
558 2 146.691 51.2896 15.9341
559 2 150.553 51.362 0.192205
560 2 154.33 51.259 0.277078
561 2 158.39 55.245 0.319275
562 2 3.92217 55.1812 0.125729
563 2 7.82582 55.0681 0.129358
564 2 11.5902 54.9907 0.190376
565 2 15.5292 54.9957 0.241365
566 2 19.5115 55.0928 15.7682
567 2 23.5007 54.7323 15.8591
568 2 27.3937 54.7084 15.9964
569 2 31.4438 54.6956 0.177214
570 2 35.2303 54.6904 0.25946
571 2 39.0681 54.5212 15.6574
572 2 43.0761 54.684 15.6739
573 2 47.1918 54.8672 -0.00724621
574 2 51.2748 54.787 15.8705
575 2 55.2159 54.6846 15.8628
576 2 59.203 54.6278 15.9649
577 2 63.0508 54.7506 16.0061
578 2 67.2668 55.0497 -0.0083623
579 2 71.3483 54.8655 0.0561384
580 2 75.4271 55.1675 15.8348
581 2 79.0701 55.1426 0.187702
582 2 83.4202 55.0355 0.211423
583 2 87.2827 55.2052 0.0539588
584 2 91.2759 55.2024 15.9936
585 2 95.2308 55.3088 0.169556
586 2 99.1312 55.2191 15.9366
587 2 103.119 55.5608 15.9175
588 2 107.163 55.629 0.250627
589 2 111.193 55.4244 16.0021
590 2 115.379 55.6241 15.9557
591 2 119.178 55.506 15.9714
592 2 123.085 55.6428 0.310367
593 2 127.12 55.3533 16.0515
594 2 131.097 55.5296 15.7652
595 2 134.782 55.4747 0.126949
596 2 138.895 55.5422 15.9605
597 2 142.739 55.4861 0.256832
598 2 146.558 55.4254 0.106692
599 2 150.545 55.3125 0.0544213
600 2 154.404 55.322 15.9023
601 2 158.414 59.2227 0.27478
602 2 4.04401 59.2384 16.1629
603 2 7.81279 59.1071 16.1369
604 2 11.7234 59.2056 0.171374
605 2 15.6756 59.1631 15.857
606 2 19.8004 58.93 0.138858
607 2 23.7572 58.7967 0.0573787
608 2 27.4375 58.8158 0.11561
609 2 31.1682 58.6863 15.7911
610 2 35.1277 58.801 15.9658
611 2 39.3157 58.5497 16.1066
612 2 43.1329 58.7867 15.7833
613 2 47.4131 58.6273 15.8765
614 2 51.3883 58.6563 15.9846
615 2 55.1609 58.6449 15.9699
616 2 59.2289 58.6394 0.0803958
617 2 63.1993 58.7977 15.9554
618 2 67.2258 58.9779 0.0673865
619 2 71.2558 58.9424 15.6959
620 2 75.2454 58.9483 0.12047
621 2 79.1741 58.8252 0.234282
622 2 83.0355 59.0461 0.116256
623 2 87.1158 59.0135 16.0214
624 2 91.1005 59.2107 16.0319
625 2 95.217 59.2049 0.150715
626 2 99.1949 59.2118 -0.00764881
627 2 103.033 59.3036 15.9113
628 2 107.258 59.5106 0.141521
629 2 111.364 59.4001 16.0782
630 2 115.435 59.6493 15.8593
631 2 119.294 59.641 15.943
632 2 123.283 59.6267 0.241454
633 2 127.303 59.2964 16.0033
634 2 131.072 59.3875 0.149065
635 2 135.199 59.4063 15.9544
636 2 138.941 59.6526 0.0511077
637 2 142.606 59.3354 0.28868
638 2 146.606 59.4659 0.21756
639 2 150.574 59.4105 15.8069
640 2 154.46 59.2656 0.150056
641 2 0.158539 63.1917 0.329985
642 2 4.05811 63.17 0.154862
643 2 8.09166 62.8473 16.0848
644 2 12.0027 62.9855 15.8759
645 2 15.8441 62.8301 15.9578
646 2 19.6541 62.8887 0.060039
647 2 23.6875 62.9078 0.156947
648 2 27.5344 62.7013 -0.0843652
649 2 31.5272 62.7961 0.155305
650 2 35.276 62.6109 0.174676
651 2 39.2947 62.6369 16.0443
652 2 43.2705 62.6597 0.177066
653 2 47.3938 62.7248 16.0806
654 2 51.1996 62.7751 15.9722
655 2 55.0087 62.5472 0.215034
656 2 58.9807 62.6092 15.9859
657 2 63.0113 62.7218 0.219855
658 2 67.2329 62.7633 15.9687
659 2 71.2595 62.9174 -0.0660492
660 2 75.0594 62.7368 0.134769
661 2 79.09 62.9159 0.272144
662 2 83.115 62.862 0.280452
663 2 87.0383 62.9357 15.8823
664 2 91.1389 63.1288 15.7753
665 2 95.0911 63.164 0.0462047
666 2 99.0197 63.2666 0.188767
667 2 103.013 63.1882 16.1167
668 2 107.078 63.2398 16.0822
669 2 111.211 63.407 15.7189
670 2 115.047 63.4794 0.0394897
671 2 119.003 63.5978 15.745
672 2 123.314 63.4715 0.305675
673 2 127.116 63.4937 16.135
674 2 130.983 63.4966 0.343996
675 2 135.163 63.639 16.0298
676 2 138.998 63.6265 16.0143
677 2 142.837 63.4848 16.1953
678 2 146.782 63.4879 0.0787675
679 2 150.654 63.2625 15.9542
680 2 154.698 63.2946 0.082924
681 2 0.24715 67.1466 0.0569183
682 2 4.29469 67.0718 0.167709
683 2 8.11376 67.0254 16.1204
684 2 11.9818 66.9334 15.884
685 2 15.8444 66.9297 0.0968814
686 2 19.9571 66.8675 0.254385
687 2 23.7579 66.8963 0.16637
688 2 27.6319 66.7487 -0.0285294
689 2 31.4778 66.6882 0.158144
690 2 35.5066 66.7748 0.117931
691 2 39.2319 66.6437 15.8178
692 2 43.3877 66.5255 0.0654273
693 2 47.2555 66.6219 16.0369
694 2 51.1028 66.4091 15.8966
695 2 55 66.2975 15.9168
696 2 59.0584 66.5813 15.8451
697 2 63.0208 66.5686 15.7981
698 2 67.0767 66.6 15.9951
699 2 71.15 66.7091 0.169907
700 2 75.1703 66.7594 15.8334
701 2 79.1496 66.9697 16.0476
702 2 83.1754 66.7414 -0.0366665
703 2 87.1583 66.9715 16.0001
704 2 91.0525 66.7208 15.9555
705 2 95.1479 67.0353 0.112437
706 2 99.07 67.0964 0.295362
707 2 103.173 67.2106 0.222009
708 2 107.004 67.0535 15.9618
709 2 110.882 67.3316 15.9213
710 2 115.221 67.3189 15.828
711 2 119.058 67.4102 0.0628593
712 2 123.083 67.6086 0.0991575
713 2 127.143 67.3625 0.0585878
714 2 131.073 67.3524 16.07
715 2 134.913 67.6828 0.193244
716 2 138.748 67.5034 0.417106
717 2 142.596 67.3486 16.0473
718 2 146.752 67.4699 15.955
719 2 150.75 67.4922 15.9036
720 2 154.693 67.1715 -0.00907826
721 2 0.40982 71.1789 0.218057
722 2 4.20424 71.2522 16.0601
723 2 8.01949 70.9876 0.173895
724 2 11.9928 71.0173 15.7007
725 2 16.0025 71.0127 0.00222138
726 2 19.8686 70.9773 0.259871
727 2 23.7279 70.6977 0.125
728 2 27.5162 70.6588 15.9321
729 2 31.6234 70.6124 0.363714
730 2 35.6757 70.737 0.161462
731 2 39.3221 70.5719 15.9606
732 2 43.3048 70.6886 0.180265
733 2 47.2129 70.4934 16.0303
734 2 50.9451 70.419 15.9456
735 2 54.9686 70.603 0.375904
736 2 58.9845 70.3478 0.353527
737 2 62.9395 70.4179 0.0772574
738 2 66.9321 70.5601 15.9358
739 2 71.0245 70.7978 16.0979
740 2 75.0367 70.7341 15.9776
741 2 79.0912 70.6343 0.119501
742 2 83.0647 70.9226 0.1066
743 2 87.0837 70.893 15.8258
744 2 90.9913 70.8949 15.9147
745 2 94.8674 70.8736 16.1854
746 2 99.1017 71.0548 15.9017
747 2 103.219 70.9746 15.9383
748 2 106.975 71.118 15.8705
749 2 111.025 71.0749 16.0803
750 2 114.997 71.2382 0.00355234
751 2 119.175 71.3179 15.9342
752 2 123.173 71.4284 -0.00845178
753 2 127.088 71.4284 15.8517
754 2 131.078 71.4499 15.9486
755 2 135.005 71.4674 16.2057
756 2 139.045 71.4742 16.0237
757 2 142.915 71.411 0.0436603
758 2 146.824 71.298 0.136421
759 2 150.831 71.2844 0.0406225
760 2 154.708 71.2082 16.1158
761 2 0.32827 74.9553 0.18863
762 2 4.2893 74.9758 16.1313
763 2 8.05165 74.9474 16.0129
764 2 12.0673 74.864 15.8088
765 2 15.9727 74.8205 15.991
766 2 19.9213 74.8333 16.0708
767 2 23.6943 74.6697 15.8257
768 2 27.7203 74.8272 15.8555
769 2 31.6148 74.707 0.370125
770 2 35.4869 74.8 15.8684
771 2 39.4188 74.859 15.9616
772 2 43.4327 74.4829 0.141413
773 2 47.3902 74.6225 16.1254
774 2 51.5857 74.5613 0.0493157
775 2 55.2491 74.5815 15.757
776 2 59.0775 74.5065 15.7793
777 2 62.8944 74.4549 15.9213
778 2 67.0385 74.3413 0.143078
779 2 71.0235 74.5331 0.280982
780 2 75.0725 74.8099 0.235986
781 2 79.0241 74.5759 0.057258
782 2 83.0908 74.7994 0.163776
783 2 86.9568 74.7072 0.320742
784 2 90.9326 74.9174 16.04
785 2 94.9552 74.857 15.8165
786 2 98.9707 74.8365 0.0768867
787 2 102.935 74.8835 15.7258
788 2 107.005 75.1632 15.7433
789 2 111.05 75.0266 16.1648
790 2 114.998 75.338 15.9834
791 2 118.89 75.2801 0.0704053
792 2 123.081 75.3048 15.7951
793 2 127.087 75.2805 16.0469
794 2 131.076 75.4159 0.0436204
795 2 135.059 75.2611 15.9338
796 2 138.854 75.2931 15.7798
797 2 142.751 75.4585 16.0199
798 2 146.949 75.3395 16.1316
799 2 150.958 75.5384 0.278863
800 2 154.844 75.1938 0.301993
801 2 0.292339 79.2934 -0.0415259
802 2 4.42278 78.879 15.9012
803 2 8.20503 79.0632 0.0076236
804 2 12.1775 78.8984 0.00216522
805 2 16.0126 79.0064 16.0084
806 2 19.9166 78.6161 15.8798
807 2 24.0587 78.9111 0.210317
808 2 27.8686 78.7063 0.15114
809 2 31.6834 78.8991 0.0891545
810 2 35.6054 78.8116 0.328259
811 2 39.638 78.8723 15.9038
812 2 43.4389 78.6506 15.9214
813 2 47.2987 78.5452 15.7818
814 2 51.2832 78.6319 0.0295978
815 2 55.2216 78.3547 -0.0324177
816 2 59.138 78.3956 15.9028
817 2 63.1396 78.3894 15.8685
818 2 67.0127 78.4935 0.00339979
819 2 70.919 78.458 15.8881
820 2 74.8491 78.5509 0.212934
821 2 78.9184 78.6698 15.8587
822 2 82.8853 78.8273 16.1882
823 2 87.0088 78.5931 0.0928312
824 2 90.9922 78.8258 0.0307804
825 2 95.1332 78.7566 0.241047
826 2 98.911 78.7624 16.0374
827 2 102.736 78.849 15.8821
828 2 106.983 78.9618 0.0939471
829 2 110.932 78.9609 0.27951
830 2 115.043 79.041 0.129035
831 2 118.949 79.0834 0.00531856
832 2 122.97 79.1726 15.8567
833 2 126.746 79.3281 0.125198
834 2 131.049 79.3328 15.8844
835 2 134.982 79.5022 0.0923777
836 2 138.897 79.2885 16.0183
837 2 142.813 79.1785 15.958
838 2 146.931 79.0852 16.0858
839 2 150.983 79.2833 15.9462
840 2 154.801 79.2813 0.0174733
841 2 0.502572 83.1818 15.8903
842 2 4.39346 83.238 15.6057
843 2 8.3881 83.1214 0.162817
844 2 12.1216 82.904 16.1283
845 2 16.0761 82.7965 15.9805
846 2 20.2275 82.6945 0.160447
847 2 23.7431 82.8262 16.0888
848 2 27.6697 82.6518 0.152425
849 2 31.8404 82.8946 15.9397
850 2 35.7524 82.8042 0.211546
851 2 39.6593 82.9231 0.16481
852 2 43.3539 82.636 16.031
853 2 47.3966 82.7787 0.202705
854 2 51.4396 82.5047 0.150047
855 2 55.4325 82.4951 -0.0197784
856 2 59.0496 82.394 15.9059
857 2 63.114 82.326 15.9011
858 2 66.8394 82.388 15.9591
859 2 70.8156 82.3802 15.7346
860 2 74.898 82.3645 15.8541
861 2 78.9359 82.312 15.8513
862 2 82.7941 82.5972 0.133775
863 2 86.9444 82.6132 -0.00964562
864 2 90.6824 82.5368 16.0465
865 2 94.894 82.8809 0.136732
866 2 98.9856 82.7837 15.8208
867 2 102.922 82.7468 0.0769776
868 2 106.798 82.7947 15.9868
869 2 110.974 83.0511 16.0159
870 2 114.819 82.8079 15.7162
871 2 118.727 82.7903 15.8662
872 2 122.866 83.1956 15.6944
873 2 127.029 83.2947 15.9413
874 2 130.95 82.9346 15.7961
875 2 134.901 83.3223 0.31081
876 2 139.067 83.3664 15.8699
877 2 143.013 83.2235 0.187948
878 2 146.979 83.1691 15.937
879 2 150.846 83.215 0.157611
880 2 154.737 83.2102 0.225062
881 2 0.331452 87.1092 15.6893
882 2 4.35951 87.213 -0.0665631
883 2 8.40619 87.0352 15.8251
884 2 12.2395 86.9384 16.0574
885 2 16.0679 87.0287 15.9385
886 2 20.1137 86.9669 16.0371
887 2 24.0904 86.8219 16.1569
888 2 27.7851 86.5952 0.091516
889 2 31.7772 86.7706 15.9516
890 2 35.711 86.7669 0.270997
891 2 39.7597 86.6713 15.8949
892 2 43.6065 86.7101 15.6884
893 2 47.3756 86.7128 15.8334
894 2 51.3929 86.4459 15.9876
895 2 55.3964 86.2755 15.984
896 2 59.14 86.4062 0.142393
897 2 63.0612 86.2836 0.0370678
898 2 66.967 86.3388 15.9537
899 2 70.7394 86.4519 0.18758
900 2 74.7012 86.3742 15.9927
901 2 78.7196 86.4186 0.102399
902 2 82.8562 86.4367 0.19782
903 2 86.6233 86.6043 15.9597
904 2 90.8793 86.4995 15.8828
905 2 94.9395 86.5819 15.989
906 2 98.8639 86.657 16.0682
907 2 102.772 86.7434 0.0880327
908 2 106.935 86.8559 0.209981
909 2 110.675 86.9876 15.8867
910 2 115.043 87.0725 0.160426
911 2 118.911 86.7483 -0.0255499
912 2 122.884 86.9946 0.115014
913 2 126.807 86.9384 15.9449
914 2 130.954 86.8852 15.8176
915 2 134.913 87.1603 16.0736
916 2 138.893 87.317 15.7632
917 2 142.923 87.1683 15.8318
918 2 146.914 87.1457 0.182481
919 2 150.905 87.2124 16.0492
920 2 154.987 87.2628 15.8899
921 2 0.40502 91.2867 0.150912
922 2 4.57802 91.1926 0.0848936
923 2 8.28704 90.8609 15.8808
924 2 12.1873 91.049 15.9946
925 2 16.1559 90.9674 0.385771
926 2 20.3115 91.0035 0.313542
927 2 23.9935 90.9218 16.0462
928 2 27.7759 90.8472 15.993
929 2 31.924 90.8793 16.1952
930 2 35.8702 90.6794 0.166151
931 2 39.7013 90.611 15.8986
932 2 43.6752 90.5599 16.1132
933 2 47.4642 90.632 0.0538236
934 2 51.3124 90.3503 0.190948
935 2 55.3066 90.5551 0.103133
936 2 59.3275 90.5572 0.181809
937 2 63.0236 90.4472 0.036166
938 2 67.0292 90.2109 15.8644
939 2 71.0542 90.3261 15.7466
940 2 74.9564 90.4381 0.0926133
941 2 78.8341 90.3518 0.189229
942 2 82.6573 90.3682 0.0325562
943 2 86.8637 90.471 0.0698635
944 2 90.786 90.473 0.102413
945 2 94.8563 90.4686 16.0386
946 2 98.7393 90.7259 15.9785
947 2 102.841 90.7434 0.243612
948 2 106.822 90.8942 15.8174
949 2 110.708 90.7737 15.7397
950 2 114.889 90.9439 0.233116
951 2 118.74 90.8981 -0.0569218
952 2 122.894 90.9439 15.9747
953 2 126.669 90.8334 0.172791
954 2 130.807 90.9353 0.140264
955 2 134.928 91.0381 15.909
956 2 138.83 91.1431 15.9941
957 2 142.8 91.1733 15.6973
958 2 146.935 91.0196 16.0843
959 2 150.818 91.034 16.1171
960 2 154.734 91.0486 15.9241
961 2 0.666563 94.9451 0.344831
962 2 4.43295 95.0446 15.7474
963 2 8.47857 95.1156 16.017
964 2 12.1828 94.8632 16.0548
965 2 16.2622 94.9449 16.0782
966 2 20.1926 94.9001 16.1539
967 2 24.1108 94.8383 16.1417
968 2 27.9263 94.7781 16.0578
969 2 31.8679 94.6951 16.003
970 2 35.8664 94.7194 15.9788
971 2 39.636 94.761 16.1203
972 2 43.6122 94.577 15.8588
973 2 47.5865 94.5071 0.321482
974 2 51.4962 94.4642 15.9959
975 2 55.3239 94.3836 0.070345
976 2 59.1991 94.4262 16.1149
977 2 63.2866 94.4313 0.166955
978 2 67.291 94.3261 0.192465
979 2 71.0785 94.4265 0.114146
980 2 74.8767 94.5039 0.0348382
981 2 78.7212 94.2454 15.8242
982 2 82.843 94.218 0.187378