ITEM: TIMESTEP
21600
ITEM: NUMBER OF ATOMS
32000
ITEM: BOX BOUNDS xy xz yz pp pp pp
0.0000000000000000e+00 1.5831999999999999e+02 0.0000000000000000e+00
0.0000000000000000e+00 1.5831999999999999e+02 0.0000000000000000e+00
1.6768912974815997e-01 1.5930022870251667e+01 0.0000000000000000e+00
ITEM: ATOMS id type x y z
1 2 157.96 157.51 16.0472
2 2 3.69357 157.668 16.0053
3 2 7.87165 157.641 0.304585
4 2 11.7396 157.92 0.0954548
5 2 15.8091 158.083 0.225282
6 2 19.8507 157.825 15.9512
7 2 23.8282 157.898 15.8744
8 2 27.6824 157.98 15.7608
9 2 31.7493 158.113 0.114169
10 2 35.5893 157.988 15.7998
11 2 39.9312 -0.14461 15.9047
12 2 43.7843 0.0215159 0.190505
13 2 47.6551 -0.00878327 15.7756
14 2 51.8723 0.171749 0.107453
15 2 55.8211 158.326 0.262502
16 2 59.8462 158.379 15.9114
17 2 63.8056 0.250961 15.8099
18 2 67.8475 0.283826 16.0798
19 2 71.7316 0.170637 15.7942
20 2 75.6284 158.626 15.949
21 2 79.6416 0.168779 15.7904
22 2 83.4455 158.099 16.0617
23 2 87.3714 158.181 15.7693
24 2 91.302 158.375 0.3027
25 2 95.1399 158.182 16.0053
26 2 98.9075 158.289 15.93
27 2 102.911 158.189 15.7545
28 2 106.793 158.107 15.7843
29 2 110.638 158.02 0.332447
30 2 114.655 157.854 0.160321
31 2 118.611 157.917 15.9336
32 2 122.644 157.896 0.180812
33 2 126.489 157.701 0.282004
34 2 130.52 157.729 0.236119
35 2 134.467 157.779 16.1288
36 2 138.245 157.761 15.8868
37 2 141.966 157.616 15.8714
38 2 146.016 157.412 15.7498
39 2 150.021 157.584 0.295012
40 2 154.078 157.515 0.451649
41 2 157.872 3.18 15.9261
42 2 3.77266 3.19509 15.8376
43 2 7.74014 3.42659 0.093102
44 2 11.6637 3.61317 15.8992
45 2 15.6362 3.59004 15.8922
46 2 19.8258 3.43457 15.8071
47 2 23.6416 3.62561 0.172665
48 2 27.7073 3.47728 0.201491
49 2 31.6015 3.8563 0.124864
50 2 35.5373 4.0132 0.196086
51 2 39.6265 3.92928 0.0592128
52 2 43.7401 3.93771 16.0196
53 2 47.6678 3.93477 15.9794
54 2 51.6809 3.86209 16.054
55 2 55.6207 3.895 0.0598463
56 2 59.8129 4.09414 15.9739
57 2 63.6234 4.10497 15.7456
58 2 67.8096 4.18659 15.8604
59 2 71.7175 3.99813 15.8423
60 2 75.6391 3.98634 15.9144
61 2 79.7035 4.13932 16.0383
62 2 83.4073 3.93856 16.0756
63 2 87.2964 3.86841 16.0564
64 2 91.4558 4.00728 0.00325736
65 2 95.2148 3.7974 15.7934
66 2 99.0014 3.73749 0.247853
67 2 103.052 3.81851 16.0408
68 2 106.98 3.65799 15.9128
69 2 110.89 3.63519 0.226703
70 2 114.803 3.57069 0.346913
71 2 118.649 3.54002 0.325026
72 2 122.788 3.49322 0.328964
73 2 126.645 3.64726 0.195476
74 2 130.537 3.39345 0.133957
75 2 134.345 3.45488 15.8462
76 2 138.14 3.37463 0.142024
77 2 142.439 3.43795 0.113416
78 2 146.265 3.17958 0.0631149
79 2 150.021 2.94775 15.9732
80 2 153.93 3.2168 15.9304
81 2 158.03 7.13585 16.1815
82 2 3.52787 7.17204 15.9566
83 2 7.6025 7.26047 15.8581
84 2 11.7559 7.39792 0.185664
85 2 15.6591 7.35831 15.8799
86 2 19.7345 7.42734 15.9207
87 2 23.6802 7.42768 0.0958658
88 2 27.5959 7.37198 15.8643
89 2 31.7481 7.69072 15.8056
90 2 35.5944 7.68757 15.8108
91 2 39.5715 7.66539 0.174647
92 2 43.5516 7.89152 0.106826
93 2 47.863 7.90356 15.8303
94 2 51.7558 7.96664 0.212325
95 2 55.5961 7.80416 15.7479
96 2 59.5371 7.96392 -0.00522392
97 2 63.7863 7.85387 15.7808
98 2 67.8027 7.96345 16.0743
99 2 71.6582 8.05528 16.0759
100 2 75.5635 7.8961 15.8846
101 2 79.6294 7.90059 0.0334608
102 2 83.4115 8.07992 16.1593
103 2 87.6039 8.00679 15.9234
104 2 91.4634 7.90678 15.8471
105 2 95.3178 7.78393 15.995
106 2 99.3902 7.81748 0.255313
107 2 103.312 7.76985 0.180419
108 2 107.071 7.75881 15.9283
109 2 110.833 7.74669 0.147903
110 2 114.922 7.69053 15.7303
111 2 118.844 7.58946 16.0116
112 2 122.557 7.50097 15.9863
113 2 126.552 7.55682 16.0203
114 2 130.612 7.54685 0.0386759
115 2 134.543 7.29847 0.336725
116 2 138.455 7.38885 16.0043
117 2 142.312 7.27695 15.9529
118 2 146.197 7.24676 0.0681883
119 2 149.931 7.236 0.216448
120 2 154.024 7.04721 16.0006
121 2 157.819 11.0218 16.0171
122 2 3.44811 11.0016 15.9182
123 2 7.53016 11.335 16.1885
124 2 11.569 11.4226 0.309124
125 2 15.5684 11.349 16.0758
126 2 19.6135 11.3929 15.8125
127 2 23.6933 11.2922 16.1091
128 2 27.5352 11.3489 15.9295
129 2 31.8029 11.5578 15.8237
130 2 35.4955 11.5004 15.7901
131 2 39.4523 11.5212 15.8225
132 2 43.7275 11.5956 0.200292
133 2 47.7771 11.6559 0.17088
134 2 51.8073 11.7165 15.9111
135 2 55.7532 11.7554 0.0271842
136 2 59.7327 11.8054 15.8171
137 2 63.5982 11.722 0.174615
138 2 67.7137 11.9083 16.0474
139 2 71.7889 12.0739 16.0458
140 2 75.7901 12.1357 15.7612
141 2 79.8572 11.9851 15.971
142 2 83.5813 11.9985 15.8855
143 2 87.4686 11.9681 0.382472
144 2 91.3789 11.9037 0.286628
145 2 95.3152 11.7299 15.8836
146 2 99.1012 11.8736 16.047
147 2 103.311 11.8603 0.0358921
148 2 106.922 11.7306 15.7137
149 2 110.708 11.7938 0.205555
150 2 114.786 11.7707 15.9971
151 2 118.748 11.5905 0.153836
152 2 122.705 11.5427 0.323178
153 2 126.621 11.2831 15.9562
154 2 130.398 11.399 16.051
155 2 134.491 11.4315 0.326853
156 2 138.338 11.4017 -0.00234865
157 2 142.283 11.4813 0.317025
158 2 146.358 11.2586 0.211705
159 2 150.452 11.2178 0.157744
160 2 153.99 11.2047 0.0157604
161 2 158.041 15.0064 15.9697
162 2 3.46993 15.1762 15.8211
163 2 7.39898 15.1146 15.7205
164 2 11.6506 15.2469 15.9225
165 2 15.6143 15.3909 15.9379
166 2 19.7089 15.2433 0.349049
167 2 23.6592 15.2399 0.291718
168 2 27.6227 15.4116 15.7993
169 2 31.604 15.4708 0.314973
170 2 35.5395 15.759 15.9253
171 2 39.5965 15.685 0.1077
172 2 43.4096 15.5628 0.386616
173 2 47.6801 15.3906 0.224468
174 2 51.6437 15.7622 0.115272
175 2 55.5742 15.6621 15.7974
176 2 59.5569 15.7061 0.202508
177 2 63.698 15.725 15.984
178 2 67.6551 15.8422 16.1022
179 2 71.6766 16.0794 0.287847
180 2 75.7676 15.9754 0.253231
181 2 79.799 15.915 15.9543
182 2 83.6095 15.9653 0.0975832
183 2 87.6662 16.0026 15.7221
184 2 91.5222 15.8019 0.0630619
185 2 95.5442 15.8213 15.9541
186 2 99.3838 15.9059 16.0196
187 2 103.294 15.6718 15.9714
188 2 107.119 15.7106 15.7971
189 2 110.889 15.5411 16.0116
190 2 115.001 15.5548 15.9206
191 2 118.966 15.5868 0.314658
192 2 122.751 15.5421 16.2124
193 2 126.776 15.5338 16.0347
194 2 130.711 15.521 0.118723
195 2 134.471 15.2297 0.428293
196 2 138.283 15.416 0.159812
197 2 142.336 15.2676 16.165
198 2 146.281 15.1551 0.0508415
199 2 150.17 15.1874 0.269364
200 2 154.011 15.3725 15.9123
201 2 158.054 19.0679 15.8247
202 2 3.60377 19.3004 0.126908
203 2 7.64919 18.9976 0.447927
204 2 11.5435 19.1665 15.9994
205 2 15.298 19.0706 15.8276
206 2 19.5239 19.1314 16.0067
207 2 23.6569 19.1932 15.8694
208 2 27.4456 19.48 16.1342
209 2 31.6538 19.4276 15.9105
210 2 35.517 19.5525 15.9691
211 2 39.5274 19.5755 0.0961086
212 2 43.4764 19.5077 15.899
213 2 47.5336 19.5328 16.0189
214 2 51.7182 19.4788 0.207847
215 2 55.579 19.6189 15.9231
216 2 59.6809 19.6016 15.8011
217 2 63.6003 19.6962 15.7414
218 2 67.6485 19.735 15.8451
219 2 71.6399 19.9776 0.205349
220 2 75.71 19.9156 0.0684487
221 2 79.6155 19.8823 0.06923
222 2 83.7129 19.9512 15.9196
223 2 87.7224 19.9403 0.203599
224 2 91.5772 19.6571 0.0944458
225 2 95.4305 19.8918 15.8941
226 2 99.27 19.8177 16.0127
227 2 103.236 19.5901 15.8613
228 2 107.106 19.8421 15.8747
229 2 111.109 19.7347 0.228106
230 2 114.936 19.4612 16.0031
231 2 118.793 19.5425 15.9921
232 2 122.897 19.5462 16.0013
233 2 126.653 19.513 16.0163
234 2 130.613 19.6853 16.0028
235 2 134.395 19.4166 0.295888
236 2 138.55 19.3916 16.0775
237 2 142.292 19.1761 15.8606
238 2 146.378 19.1945 0.0457213
239 2 150.266 19.2296 15.9632
240 2 153.974 19.2765 0.0700199
241 2 157.826 23.0538 15.9267
242 2 3.66383 23.1852 15.8639
243 2 7.58374 23.0329 0.225363
244 2 11.3565 23.041 0.223371
245 2 15.3438 23.0858 16.0117
246 2 19.3658 23.0314 15.8817
247 2 23.2388 23.2344 16.0316
248 2 27.5001 23.3099 15.9344
249 2 31.6173 23.1687 0.190335
250 2 35.5342 23.357 16.0324
251 2 39.3528 23.4115 0.162656
252 2 43.4907 23.4782 15.8955
253 2 47.4942 23.4465 0.137167
254 2 51.4704 23.4347 0.216448
255 2 55.587 23.4135 0.0706657
256 2 59.5474 23.4593 15.8627
257 2 63.7701 23.7162 0.126061
258 2 67.6836 23.5405 15.9579
259 2 71.674 23.7167 16.038
260 2 75.6235 23.7513 0.30229
261 2 79.7659 23.6821 15.97
262 2 83.7632 23.7961 0.131336
263 2 87.6806 23.7662 15.9596
264 2 91.5638 24.0098 15.781
265 2 95.6082 23.7509 15.8322
266 2 99.4347 23.7242 0.144299
267 2 103.429 23.8698 15.9374
268 2 107.017 23.7764 15.906
269 2 110.893 23.6893 0.224852
270 2 114.949 23.5684 16.0373
271 2 118.814 23.6901 15.9611
272 2 122.875 23.4821 0.510155
273 2 126.848 23.4724 15.8932
274 2 130.616 23.4718 15.9568
275 2 134.607 23.4368 16.0253
276 2 138.416 23.3731 16.0652
277 2 142.459 23.0519 16.0389
278 2 146.633 23.2129 0.206365
279 2 150.388 23.2303 0.184015
280 2 154.335 23.3195 0.0731684
281 2 158.241 27.1463 0.239221
282 2 3.78983 27.098 0.112924
283 2 7.50136 27.0568 0.234707
284 2 11.6181 27.0142 16.0703
285 2 15.2366 27.0093 15.9995
286 2 19.183 26.837 0.419662
287 2 23.3264 27.0552 15.9783
288 2 27.2945 27.0616 15.9827
289 2 31.3463 27.0382 0.239905
290 2 35.367 27.3586 0.0839396
291 2 39.5543 27.2161 0.199007
292 2 43.4243 27.1707 0.186968
293 2 47.5808 27.4161 0.0916349
294 2 51.5847 27.3727 15.8424
295 2 55.3916 27.4383 0.231116
296 2 59.4266 27.5804 15.9587
297 2 63.691 27.6412 15.909
298 2 67.698 27.6887 15.9069
299 2 71.4763 27.5723 15.8548
300 2 75.6175 27.6358 0.0540342
301 2 79.7113 27.5489 0.319002
302 2 83.5245 27.6733 15.9246
303 2 87.5946 27.735 0.164039
304 2 91.6158 27.7636 0.0479795
305 2 95.4956 27.792 0.0758116
306 2 99.1927 27.7179 0.113754
307 2 103.19 27.7978 15.8018
308 2 107.316 27.6971 0.205275
309 2 111.25 27.6382 15.7585
310 2 115.093 27.4247 15.9636
311 2 118.956 27.7561 0.313737
312 2 122.889 27.5597 0.199089
313 2 126.671 27.6386 15.9942
314 2 130.749 27.5395 16.0628
315 2 134.852 27.4218 16.0857
316 2 138.697 27.3036 15.8811
317 2 142.587 27.3527 0.0821656
318 2 146.32 27.1456 0.151995
319 2 150.129 27.1835 0.243459
320 2 154.2 27.261 0.137335
321 2 158.087 31.2899 15.9842
322 2 3.76685 31.1693 15.8475
323 2 7.58922 31.1208 16.0693
324 2 11.5304 31.1707 -0.0470086
325 2 15.4232 31.0369 0.163143
326 2 19.3114 30.8893 15.8861
327 2 23.129 30.9481 15.9215
328 2 27.2034 30.8154 0.267566
329 2 31.511 30.9038 15.7489
330 2 35.3244 31.1842 15.9343
331 2 39.4473 31.1842 15.8903
332 2 43.4237 31.0979 0.193576
333 2 47.2949 31.3108 15.7581
334 2 51.4035 31.1198 0.195995
335 2 55.597 31.4787 15.9886
336 2 59.5373 31.209 0.244744
337 2 63.5914 31.4618 16.1182
338 2 67.5754 31.4113 0.127756
339 2 71.6727 31.5062 0.288731
340 2 75.4753 31.7502 0.196179
341 2 79.6285 31.6671 16.0381
342 2 83.4476 31.9325 0.185711
343 2 87.5188 31.6956 15.7892
344 2 91.4849 31.76 15.7952
345 2 95.5585 31.861 15.8857
346 2 99.184 31.6189 0.0177611
347 2 103.26 31.7363 15.974
348 2 107.138 31.5532 15.8924
349 2 111.185 31.6731 15.8408
350 2 115.218 31.5213 15.914
351 2 118.922 31.5771 16.0092
352 2 122.842 31.5385 15.9667
353 2 126.876 31.5131 15.9345
354 2 130.712 31.3155 15.8846
355 2 134.643 31.4435 15.9484
356 2 138.566 31.2914 16.0028
357 2 142.696 31.3554 0.258472
358 2 146.453 31.1147 15.916
359 2 150.352 31.1912 0.24224
360 2 154.097 31.2559 0.205557
361 2 -0.000158962 35.0714 0.10638
362 2 3.90608 35.0734 15.9555
363 2 7.67341 35.1846 15.7849
364 2 11.4915 35.0749 16.0365
365 2 15.4103 34.9286 0.296797
366 2 19.2737 35.0219 0.237506
367 2 23.3514 34.8716 0.299307
368 2 27.2493 34.8043 0.406768
369 2 31.279 34.9041 0.311595
370 2 35.3708 35.1734 0.311055
371 2 39.3545 35.0302 0.3271
372 2 43.4441 34.8928 16.179
373 2 47.2989 34.988 15.9281
374 2 51.5043 35.3774 15.7928
375 2 55.4292 35.2306 -0.0882529
376 2 59.4088 35.1753 0.191456
377 2 63.5709 35.3213 15.9593
378 2 67.3975 35.2721 0.105427
379 2 71.3959 35.4531 0.235589
380 2 75.477 35.5981 15.7068
381 2 79.4057 35.6708 0.299047
382 2 83.4924 35.6482 15.9933
383 2 87.6529 35.7884 0.221399
384 2 91.607 35.6962 0.123932
385 2 95.5498 35.746 15.8726
386 2 99.4182 35.61 0.0503439
387 2 103.316 35.6401 16.0337
388 2 107.242 35.5434 16.0702
389 2 111.11 35.6797 16.1456
390 2 115.146 35.7732 15.9106
391 2 119.09 35.517 15.9221
392 2 123.029 35.4921 16.0884
393 2 126.987 35.5506 15.959
394 2 130.753 35.4094 16.0259
395 2 134.505 35.4031 16.0045
396 2 138.396 35.3856 0.346625
397 2 142.467 35.1928 0.14789
398 2 146.217 35.0594 0.178418
399 2 150.303 35.247 15.9422
400 2 154.221 35.2353 0.00911835
401 2 158.238 39.2169 0.176751
402 2 3.71453 39.0136 0.162552
403 2 7.65102 38.9821 0.154729
404 2 11.6335 39.0944 15.9614
405 2 15.67 39.0221 0.0758013
406 2 19.6117 39.0011 15.9069
407 2 23.3567 38.9848 15.7496
408 2 27.2079 38.8848 16.0377
409 2 31.1337 39.1023 0.404368
410 2 35.3702 39.1115 0.0579659
411 2 39.271 39.0102 15.9461
412 2 43.1767 39.0304 0.197617
413 2 47.3022 38.9487 0.0816705
414 2 51.4494 39.2397 15.9864
415 2 55.4304 39.1502 0.19202
416 2 59.304 39.2446 0.0355012
417 2 63.3876 39.3205 0.133348
418 2 67.384 39.2489 0.124509
419 2 71.513 39.3373 0.159604
420 2 75.4555 39.6386 -0.0141668
421 2 79.3106 39.5099 0.151694
422 2 83.5473 39.516 15.6829
423 2 87.5027 39.7624 16.022
424 2 91.3409 39.556 15.7732
425 2 95.3799 39.607 15.7892
426 2 99.6236 39.8558 0.110788
427 2 103.431 39.6944 15.9482
428 2 107.424 39.9006 16.0825
429 2 111.308 39.6915 16.0178
430 2 115.169 39.6382 16.0308
431 2 118.964 39.5189 15.851
432 2 123.067 39.5676 15.938
433 2 126.876 39.4868 0.150219
434 2 130.891 39.5048 16.0021
435 2 134.708 39.267 16.0116
436 2 138.587 39.3472 15.7849
437 2 142.388 39.5526 15.8893
438 2 146.309 39.1839 0.168056
439 2 150.423 39.2433 15.908
440 2 154.322 39.2007 15.8894
441 2 158.244 43.3525 0.239728
442 2 3.73672 43.0381 15.9144
443 2 7.86027 43.1227 16.0066
444 2 11.4553 42.997 0.184628
445 2 15.5937 42.9411 0.190605
446 2 19.5109 42.9823 0.160081
447 2 23.4448 43.2689 16.0549
448 2 27.3672 42.8395 15.8664
449 2 31.2063 42.8737 0.228078
450 2 35.2507 43.1013 0.0142446
451 2 39.1916 42.7654 0.179361
452 2 43.2448 42.8157 0.256204
453 2 47.3328 42.822 15.8896
454 2 51.3556 43.1768 15.8441
455 2 55.3325 43.154 0.0219593
456 2 59.2341 43.2302 15.9937
457 2 63.2788 43.2228 0.294155
458 2 67.3833 43.1198 0.225202
459 2 71.4846 43.3439 0.213813
460 2 75.219 43.3714 -0.00176368
461 2 79.4198 43.3349 0.0616125
462 2 83.3942 43.245 15.6885
463 2 87.3594 43.6353 15.9581
464 2 91.4169 43.5976 0.0228386
465 2 95.2927 43.6817 0.0540415
466 2 99.2779 43.8007 16.057
467 2 103.422 43.7392 15.9896
468 2 107.518 43.6792 16.041
469 2 111.363 43.8519 15.9599
470 2 115.252 43.5953 15.9498
471 2 119.137 43.6158 16.0688
472 2 122.983 43.5205 15.8643
473 2 126.799 43.5847 0.198009
474 2 130.826 43.4095 0.259201
475 2 134.672 43.4676 16.2407
476 2 138.513 43.4995 15.8275
477 2 142.484 43.3234 16.1109
478 2 146.472 43.4095 0.0252951
479 2 150.429 43.3282 0.156528
480 2 154.217 43.3479 0.189037
481 2 -0.133443 47.4365 0.240126
482 2 3.95974 47.1033 0.179021
483 2 7.81735 47.0196 0.310956
484 2 11.6586 47.0509 0.29224
485 2 15.5366 47.0325 0.30053
486 2 19.3748 46.9403 0.218094
487 2 23.7161 46.7262 0.141607
488 2 27.6008 46.8806 15.9966
489 2 31.247 46.8041 0.0474723
490 2 35.2563 46.7857 -0.0122519
491 2 39.423 46.8117 15.8415
492 2 43.2188 46.6642 15.8669
493 2 47.4322 46.9216 0.0490527
494 2 51.3753 46.9808 15.6588
495 2 55.5608 47.0332 15.8976
496 2 59.2848 47.2061 16.0465
497 2 63.2692 47.0352 0.34833
498 2 67.325 47.1328 0.309985
499 2 71.4214 47.2854 15.9611
500 2 75.2319 47.1829 0.272868
501 2 79.2434 47.2583 15.9632
502 2 83.0641 47.2841 15.973
503 2 87.2502 47.3398 0.388147
504 2 91.3747 47.3929 0.245317
505 2 95.4175 47.7079 0.360836
506 2 99.3811 47.7574 0.191235
507 2 103.463 47.5704 0.0938823
508 2 107.509 47.651 15.9003
509 2 111.322 47.759 15.9119
510 2 115.333 47.659 0.0821688
511 2 119.275 47.6856 15.7952
512 2 123.09 47.5935 15.8634
513 2 127.05 47.5616 15.9535
514 2 130.617 47.4958 15.9014
515 2 134.697 47.3984 16.0825
516 2 138.566 47.3967 15.9969
517 2 142.682 47.316 16.0051
518 2 146.516 47.3615 0.123038
519 2 150.6 47.4159 0.0637063
520 2 154.325 47.2554 15.9848
521 2 158.438 51.3254 0.0674722
522 2 3.90683 51.0881 15.9634
523 2 7.73708 51.0939 15.9811
524 2 11.6711 50.945 15.8136
525 2 15.5066 50.8314 0.193484
526 2 19.6819 51.0924 16.2321
527 2 23.4859 50.7799 15.8214
528 2 27.3394 50.9161 15.8275
529 2 31.2976 50.6703 0.167036
530 2 35.1198 50.5854 0.162176
531 2 39.2812 50.7753 16.036
532 2 43.1844 50.5259 16.1201
533 2 47.1737 50.6796 0.338138
534 2 51.3 50.8987 0.0484088
535 2 55.3596 50.9457 -0.0285643
536 2 59.2672 50.9126 16.0085
537 2 63.3629 50.902 15.9919
538 2 67.1921 50.9976 0.386061
539 2 71.306 51.0522 0.229373
540 2 75.2171 51.1674 0.220912
541 2 79.3786 51.2361 0.16358
542 2 83.2031 51.4934 -0.0409494
543 2 87.4273 51.4631 0.192498
544 2 91.4508 51.5273 -0.0452462
545 2 95.2986 51.6784 0.126065
546 2 99.2877 51.5653 0.231502
547 2 103.267 51.559 15.8026
548 2 107.305 51.5048 0.0164874
549 2 111.183 51.6229 0.0505895
550 2 115.351 51.4805 15.9409
551 2 119.137 51.6129 16.0148
552 2 123.093 51.5895 15.8786
553 2 127.029 51.3845 15.9841
554 2 130.97 51.3685 0.345758
555 2 134.915 51.343 0.197287
556 2 138.633 51.4619 0.2451
557 2 142.622 51.5324 0.214993
558 2 146.528 51.2615 15.9161
559 2 150.673 51.4111 0.201307
560 2 154.237 51.3064 0.178153
561 2 158.309 55.1515 0.15045
562 2 3.95893 55.071 0.0462571
563 2 7.88971 54.8197 0.297571
564 2 11.7256 54.9669 0.183634
565 2 15.7123 54.9349 0.238452
566 2 19.5769 54.9333 16.0099
567 2 23.5615 54.8485 15.9383
568 2 27.4755 54.8537 15.9924
569 2 31.5799 54.6707 0.0451579
570 2 35.3569 54.9283 0.335244
571 2 39.1381 54.5523 15.8214
572 2 43.0573 54.5861 15.8229
573 2 47.1607 54.624 0.269537
574 2 51.2227 54.9027 15.9219
575 2 55.2799 54.8256 15.8889
576 2 59.2578 54.8217 15.898
577 2 63.0757 54.8842 16.0473
578 2 67.2774 54.8539 0.249496
579 2 71.3998 54.9543 0.244048
580 2 75.3747 55.2566 16.0242
581 2 79.2264 55.1843 0.268386
582 2 83.2982 55.2508 0.157331
583 2 87.3053 55.2901 0.0648491
584 2 91.3199 55.4004 15.9593
585 2 95.1948 55.5331 0.193178
586 2 99.2032 55.3439 15.9655
587 2 103.244 55.527 15.9505
588 2 107.245 55.5347 0.121371
589 2 111.13 55.3558 15.8202
590 2 115.387 55.7775 15.9184
591 2 119.257 55.6095 15.7416
592 2 123.116 55.7864 0.124404
593 2 127.069 55.3732 16.076
594 2 130.953 55.5498 15.9578
595 2 134.785 55.3556 0.237462
596 2 138.768 55.4501 15.9252
597 2 142.657 55.3991 0.222838
598 2 146.694 55.377 0.170993
599 2 150.54 55.3231 0.230973
600 2 154.471 55.1391 16.1311
601 2 158.361 59.2983 0.129425
602 2 3.92087 59.1333 15.9785
603 2 7.8146 58.9204 16.0015
604 2 11.6459 59.0034 -0.112485
605 2 15.7848 58.9281 15.7902
606 2 19.7068 59.0151 0.235229
607 2 23.7569 58.7709 0.246893
608 2 27.4804 58.7199 0.25971
609 2 31.5359 58.7823 15.8328
610 2 35.3348 58.9243 15.9088
611 2 39.3277 58.4914 15.8585
612 2 43.3412 58.6033 15.9355
613 2 47.1703 58.4039 15.9863
614 2 51.2116 58.5773 15.9785
615 2 55.1817 58.9672 16.0232
616 2 59.0171 58.8559 0.208667
617 2 63.2162 58.7943 16.0506
618 2 67.1859 58.7902 0.182683
619 2 71.2646 58.8806 15.8799
620 2 75.2355 58.989 0.245812
621 2 79.145 58.8647 0.172723
622 2 83.1003 59.0591 0.0596677
623 2 87.192 59.1307 16.0479
624 2 91.1881 59.378 16.0235
625 2 95.153 59.1947 0.25715
626 2 99.1645 59.2643 0.0814994
627 2 103.061 59.3933 15.7281
628 2 107.224 59.5375 0.129602
629 2 111.295 59.2655 15.9769
630 2 115.224 59.5934 15.9305
631 2 119.382 59.6826 16.0071
632 2 123.238 59.6201 0.097028
633 2 127.163 59.5372 16.0453
634 2 131.047 59.4259 0.313491
635 2 134.98 59.2743 16.1002
636 2 139.087 59.5019 0.0091603
637 2 142.755 59.3404 0.219547
638 2 146.803 59.4384 0.192796
639 2 150.63 59.2882 15.8703
640 2 154.54 59.2754 0.0206432
641 2 0.0989053 63.085 0.415558
642 2 3.85251 63.1349 0.0727188
643 2 7.68494 62.8837 15.8605
644 2 11.8177 62.8911 15.9394
645 2 15.7466 62.9353 15.9961
646 2 19.5176 62.8873 0.188027
647 2 23.4923 62.8164 0.347835
648 2 27.4677 62.5978 0.0884174
649 2 31.6352 62.756 0.18846
650 2 35.4026 62.6174 0.0807985
651 2 39.4808 62.7717 15.9673
652 2 43.2934 62.5631 0.176809
653 2 47.0746 62.6783 15.9106
654 2 51.1182 62.7029 15.7964
655 2 54.9053 62.7526 0.215767
656 2 58.9765 62.7319 16.005
657 2 63.0136 62.765 0.145219
658 2 67.1386 62.8845 15.9756
659 2 71.1081 63.0386 0.11237
660 2 75.2848 62.8649 0.116616
661 2 79.0377 62.9546 0.126583
662 2 83.1901 62.8874 0.210476
663 2 87.1657 63.1261 15.9863
664 2 91.1731 63.128 16.0207
665 2 95.0553 63.2814 0.114019
666 2 99.0981 63.3343 0.158168
667 2 103.164 63.3264 15.8359
668 2 107.122 63.2814 15.8609
669 2 111.084 63.3943 15.8056
670 2 115.088 63.3981 0.219262
671 2 118.88 63.4905 15.8977
672 2 123.201 63.5958 0.209082
673 2 127.194 63.3727 15.9351
674 2 130.997 63.4862 0.222363
675 2 135.113 63.4477 15.8
676 2 139.126 63.4838 15.8407
677 2 143.117 63.3748 15.94
678 2 146.944 63.4029 0.0206779
679 2 150.711 63.2215 16.0311
680 2 154.504 63.3199 0.0750376
681 2 0.0814429 67.2308 0.0763707
682 2 4.08525 67.0139 0.0130017
683 2 7.9961 66.9096 15.9087
684 2 11.7346 67.0181 15.9986
685 2 15.8391 66.9292 0.102522
686 2 19.7818 66.8544 0.139725
687 2 23.7313 66.7267 0.291248
688 2 27.7711 66.6277 0.189054
689 2 31.6313 66.6332 0.165376
690 2 35.4933 66.7276 0.341792
691 2 39.2245 66.4874 15.8506
692 2 43.3392 66.515 -0.0265417
693 2 47.1203 66.6405 15.7958
694 2 51.0372 66.6272 15.7716
695 2 54.987 66.6419 15.8641
696 2 59.067 66.6558 15.7601
697 2 63.0637 66.6051 15.7392
698 2 67.0631 66.7111 15.8558
699 2 70.969 66.7996 0.110374
700 2 75.1392 66.5485 15.8016
701 2 79.1517 66.8207 16.0861
702 2 83.0248 66.8719 -0.096426
703 2 87.1043 67.0996 15.986
704 2 91.118 67.0953 16.0805
705 2 95.0858 67.3524 0.284165
706 2 99.1523 67.1109 0.21912
707 2 102.977 67.1752 0.0247012
708 2 106.977 67.2096 15.835
709 2 110.877 67.3106 16.034
710 2 115.088 67.1915 16.1484
711 2 119.01 67.4494 0.175472
712 2 122.969 67.4403 0.189548
713 2 126.91 67.4866 0.100839
714 2 131.129 67.3808 16.0016
715 2 134.943 67.4451 -0.0846111
716 2 138.935 67.3846 0.16936
717 2 142.773 67.3728 15.9571
718 2 146.876 67.2826 16.0901
719 2 150.814 67.3546 15.787
720 2 154.489 67.1786 0.0329602
721 2 0.203108 71.1805 -0.0033395
722 2 4.17543 71.1949 15.7946
723 2 8.11045 71.1166 0.239498
724 2 11.8213 70.9426 16.0121
725 2 16.022 70.8986 -0.0199613
726 2 19.8214 70.8479 -0.00252767
727 2 23.7322 70.7059 0.120052
728 2 27.6819 70.6178 15.7941
729 2 31.7245 70.5358 0.169517
730 2 35.6439 70.7628 -0.0342133
731 2 39.4735 70.7785 15.9319
732 2 43.375 70.7751 0.14094
733 2 47.1271 70.6676 15.7263
734 2 51.006 70.4941 15.676
735 2 54.9037 70.4822 0.151066
736 2 58.8761 70.305 0.203323
737 2 63.0736 70.4247 0.21198
738 2 67.0113 70.5425 16.0206
739 2 71.0923 70.7188 16.0523
740 2 75.0779 70.6964 15.8684
741 2 79.1196 70.8628 0.157691
742 2 83.0319 70.9888 0.253945
743 2 86.9594 70.955 15.8823
744 2 90.9997 71.1103 15.8568
745 2 95.0067 71.2029 15.8647
746 2 99.0636 71.246 15.9476
747 2 103.163 71.036 15.9777
748 2 107.021 71.2622 15.8857
749 2 111.035 71.0661 16.0448
750 2 114.988 71.2025 -0.00121569
751 2 118.949 71.2299 16.0001
752 2 123.068 71.304 -0.000163039
753 2 127.105 71.5112 15.9873
754 2 130.908 71.4544 15.8374
755 2 135.065 71.48 15.7956
756 2 139.043 71.3318 15.9095
757 2 142.922 71.4175 0.158904
758 2 146.625 71.2696 0.0924099
759 2 150.674 71.4036 0.0333336
760 2 154.602 71.2247 16.1581
761 2 0.0205369 75.1654 0.0648628
762 2 4.08625 75.075 15.8476
763 2 8.09177 75.0688 15.8478
764 2 12.0814 74.9651 15.887
765 2 15.9485 74.9595 16.0286
766 2 19.8793 74.7923 15.9101
767 2 23.7502 74.7269 15.9827
768 2 27.7795 74.7425 15.6709
769 2 31.7561 74.687 0.085053
770 2 35.5938 74.6526 15.6572
771 2 39.6809 74.7643 15.8884
772 2 43.4898 74.7523 0.0751592
773 2 47.2939 74.6592 15.8153
774 2 51.4219 74.591 0.0773201
775 2 55.1232 74.6352 15.8448
776 2 58.9824 74.5054 15.7892
777 2 62.9029 74.4071 15.8924
778 2 67.1317 74.3337 0.227281
779 2 70.9784 74.5417 -0.00740453
780 2 75.0945 74.6653 0.0888333
781 2 79.0081 74.588 0.0154183
782 2 82.9377 75.0196 0.102865
783 2 86.887 74.7806 0.120238
784 2 90.9402 75.0629 16.0951
785 2 94.9697 75.1152 15.7905
786 2 98.9086 75.0868 -0.0071968
787 2 102.869 74.9179 16.0387
788 2 107.111 75.3694 15.9673
789 2 111.076 74.9073 15.9431
790 2 114.958 75.1537 15.7245
791 2 118.782 75.1715 0.190553
792 2 123.039 75.235 15.836
793 2 127.069 75.3327 16.0221
794 2 131.024 75.4301 0.0429905
795 2 135.026 75.3133 15.9622
796 2 138.809 75.2707 15.6448
797 2 142.645 75.4467 16.0616
798 2 146.748 75.1752 15.8984
799 2 150.738 75.2993 0.246213
800 2 154.557 75.343 0.130765
801 2 0.257876 79.2054 0.230643
802 2 4.39051 78.9585 16.0102
803 2 8.09725 79.0672 -0.103019
804 2 12.1428 78.9507 0.066898
805 2 16.029 78.9066 15.932
806 2 19.881 78.7337 15.8476
807 2 24.0062 78.7925 0.235952
808 2 27.9526 78.7612 0.05087
809 2 31.7977 78.8816 -0.0309915
810 2 35.5988 78.6896 0.273227
811 2 39.5743 78.7387 15.7697
812 2 43.3836 78.5392 15.8031
813 2 47.3271 78.6824 15.8325
814 2 51.2783 78.6073 0.137403
815 2 55.2042 78.577 0.132462
816 2 59.0168 78.4387 15.9885
817 2 63.1917 78.3475 15.966
818 2 66.8543 78.4912 -0.0432584
819 2 70.978 78.4217 15.6947
820 2 74.8183 78.374 0.0646006
821 2 78.7437 78.5759 15.678
822 2 83.1064 78.8164 15.9127
823 2 86.8107 78.664 0.0060792
824 2 91.0638 78.8481 -0.00266257
825 2 95.0667 78.9688 0.248389
826 2 98.8523 78.9339 16.158
827 2 102.743 78.963 16.1939
828 2 106.988 79.199 0.129906
829 2 110.988 79.0364 0.151061
830 2 115.142 78.9987 0.0921127
831 2 119 79.0386 0.342619
832 2 122.902 79.2055 15.9902
833 2 126.909 79.3417 0.13359
834 2 130.928 79.2084 15.8356
835 2 134.866 79.3463 0.137092
836 2 138.977 79.4197 15.8853
837 2 142.957 79.2496 15.9062
838 2 146.982 79.2647 15.9514
839 2 150.876 79.2733 15.7039
840 2 154.758 79.2111 -0.121036
841 2 0.349664 83.1673 16.1881
842 2 4.35109 83.032 16.0385
843 2 8.16847 82.8979 0.244869
844 2 12.2466 82.822 16.0357
845 2 16.1024 82.7205 15.857
846 2 20.0622 82.6816 0.08403
847 2 23.8757 82.8511 15.985
848 2 27.7856 82.6061 0.0869861
849 2 31.8238 82.7912 15.8012
850 2 35.4353 82.7538 0.146263
851 2 39.5117 82.7857 0.218876
852 2 43.285 82.6469 15.9225
853 2 47.1841 82.6709 0.164846
854 2 51.4095 82.6135 0.156222
855 2 55.2719 82.4249 0.0197186
856 2 59.19 82.3405 15.9732
857 2 63.0936 82.5279 15.9516
858 2 66.815 82.3892 15.8365
859 2 70.8972 82.3016 15.8789
860 2 74.9847 82.4106 15.9614
861 2 78.9252 82.4993 15.7721
862 2 82.6836 82.8567 0.0644383
863 2 86.8667 82.7199 -0.0782168
864 2 90.8751 82.6096 16.0089
865 2 94.7189 82.7456 0.103846
866 2 98.8931 83.0007 15.8598
867 2 103.062 82.8399 0.165998
868 2 106.866 82.8731 15.9593
869 2 110.849 83.0567 16.0692
870 2 114.943 82.8815 16.0418
871 2 118.786 82.8688 16.0874
872 2 122.899 83.1912 15.7465
873 2 126.882 83.1621 15.7572
874 2 130.973 83.0836 15.7628
875 2 134.719 83.2749 0.368371
876 2 138.984 83.387 15.7986
877 2 142.982 83.1941 0.216304
878 2 146.988 83.1693 15.8615
879 2 150.911 83.2557 0.0711357
880 2 154.607 83.1774 0.308248
881 2 0.351586 87.0271 15.8665
882 2 4.29935 87.2389 0.0809621
883 2 8.3748 86.9605 15.8945
884 2 12.1872 86.8727 15.9518
885 2 16.0606 86.7961 15.699
886 2 19.9462 86.8115 15.8053
887 2 24.1172 86.7518 15.9309
888 2 27.9637 86.6828 0.142553
889 2 31.7894 86.7537 15.824
890 2 35.7771 86.7217 0.184115
891 2 39.6786 86.6639 15.8225
892 2 43.5042 86.6401 15.7191
893 2 47.3095 86.5522 15.8329
894 2 51.3192 86.5063 15.9412
895 2 55.2267 86.4813 15.9234
896 2 59.1192 86.6122 0.320747
897 2 63.052 86.4285 0.0721551
898 2 67.0995 86.3064 15.8733
899 2 70.719 86.5368 0.191167
900 2 74.6562 86.2859 15.9282
901 2 78.6492 86.4214 0.0211134
902 2 82.7797 86.4459 0.219641
903 2 86.6771 86.6768 15.8565
904 2 90.8837 86.6317 15.8594
905 2 94.8327 86.6899 15.8437
906 2 98.7376 86.7552 15.9458
907 2 102.72 86.8535 0.0400498
908 2 106.803 86.8151 0.105024
909 2 110.683 86.8865 15.9961
910 2 114.949 87.0476 0.310591
911 2 118.993 86.802 0.228714
912 2 122.867 86.9202 0.0471451
913 2 126.727 86.9639 15.6644
914 2 130.909 86.9769 15.6994
915 2 135.012 87.0881 15.9825
916 2 138.872 87.1931 15.7916
917 2 142.959 87.1613 15.9427
918 2 146.942 87.3294 0.219879
919 2 151.103 87.2526 15.9326
920 2 154.911 87.0716 15.9961
921 2 0.511211 91.1366 0.0752223
922 2 4.35979 91.1551 0.285077
923 2 8.24071 90.8063 15.9248
924 2 12.0635 90.833 15.9797
925 2 16.1695 90.7555 0.173674
926 2 20.0112 90.9538 0.0974544
927 2 23.9631 90.7071 16.0014
928 2 27.9866 90.586 15.8871
929 2 31.931 90.7186 16.0477
930 2 35.8976 90.6695 0.229572
931 2 39.6414 90.6887 16.0541
932 2 43.4976 90.5506 16.2022
933 2 47.5157 90.5778 0.180455
934 2 51.4585 90.3626 0.168843
935 2 55.3293 90.5574 0.0366969
936 2 59.3271 90.6486 0.314904
937 2 63.0768 90.3519 0.0948159
938 2 66.957 90.3462 15.8225
939 2 70.9996 90.4028 15.8261
940 2 74.7205 90.3079 0.0972602
941 2 78.6559 90.3652 0.113771
942 2 82.6267 90.3381 0.152844
943 2 86.7208 90.4784 0.0155337
944 2 90.6768 90.4316 0.0946597
945 2 94.5453 90.7098 15.7573
946 2 98.6933 90.9315 15.7426
947 2 102.669 90.5393 0.209482
948 2 106.774 90.8784 15.8509
949 2 110.612 90.6166 15.8134
950 2 114.733 90.7 0.26439
951 2 118.79 90.7792 0.157109
952 2 122.773 90.9527 15.962
953 2 126.762 90.7451 0.0557647
954 2 130.86 90.8341 0.0879354
955 2 134.873 91.0722 15.7571
956 2 138.815 90.9603 15.9162
957 2 142.843 91.1864 15.8052
958 2 147.018 91.1014 15.9726
959 2 151.021 91.3587 15.8186
960 2 154.955 91.2577 15.7021
961 2 0.601028 94.9548 0.317129
962 2 4.34334 94.9461 15.9123
963 2 8.40394 94.9043 16.0636
964 2 12.2888 94.7863 16.0194
965 2 16.1094 94.8734 15.8684
966 2 19.9991 94.98 15.8102
967 2 23.9025 94.7868 15.8872
968 2 27.756 94.5988 15.7367
969 2 31.8326 94.6559 15.9165
970 2 35.679 94.7047 16.1251
971 2 39.5272 94.7646 16.1586
972 2 43.4117 94.7007 16.1241
973 2 47.7244 94.7427 0.323371
974 2 51.5442 94.3687 15.8946
975 2 55.1795 94.3938 -0.142318
976 2 59.2228 94.3924 15.9836
977 2 63.3273 94.5282 0.0889813
978 2 67.2093 94.2611 0.175518
979 2 70.9259 94.3121 0.221422
980 2 74.6613 94.2692 0.130053
981 2 78.6442 94.2571 15.905