ITEM: TIMESTEP
21800
ITEM: NUMBER OF ATOMS
32000
ITEM: BOX BOUNDS xy xz yz pp pp pp
0.0000000000000000e+00 1.5831999999999999e+02 0.0000000000000000e+00
0.0000000000000000e+00 1.5831999999999999e+02 0.0000000000000000e+00
1.6421150750560987e-01 1.5933500492494208e+01 0.0000000000000000e+00
ITEM: ATOMS id type x y z
1 2 158.311 157.698 15.9587
2 2 3.82515 157.787 16.0665
3 2 7.70061 157.772 0.156558
4 2 11.6783 157.628 0.486568
5 2 15.8893 157.883 0.173623
6 2 19.704 158.028 15.9775
7 2 23.703 157.944 15.9616
8 2 27.7606 158.006 15.849
9 2 31.7883 158.028 -0.0285671
10 2 35.7607 158.237 15.9311
11 2 39.7269 -0.116296 15.8401
12 2 43.7838 -0.0187702 0.173026
13 2 47.8266 0.00925987 15.9182
14 2 51.7314 -0.0964089 0.311938
15 2 55.8536 158.323 0.0983115
16 2 59.8012 158.416 15.9355
17 2 63.7917 0.162652 15.8645
18 2 67.7072 0.0973689 15.8994
19 2 71.7699 0.323551 16.1378
20 2 75.6656 158.394 15.9897
21 2 79.4837 -0.0342994 16.0642
22 2 83.1964 158.623 15.7465
23 2 87.299 158.36 16.0568
24 2 91.0139 158.264 0.158979
25 2 95.0384 158.356 15.8462
26 2 99.064 158.194 16.0893
27 2 103.116 158.05 16.1793
28 2 107.002 158.043 15.9292
29 2 110.947 158.127 0.0489632
30 2 114.873 157.949 0.157704
31 2 118.665 157.865 16.0264
32 2 122.587 157.96 0.254336
33 2 126.469 157.695 0.177597
34 2 130.261 157.719 0.146212
35 2 134.258 157.611 15.8882
36 2 138.323 157.496 15.8733
37 2 142.253 157.553 16.0248
38 2 146.301 157.615 16.0602
39 2 150.116 157.462 0.265558
40 2 154.146 157.607 0.145517
41 2 158.016 3.25658 16.1116
42 2 3.72724 3.2339 16.0692
43 2 7.67688 3.32592 0.231506
44 2 11.6103 3.16212 16.07
45 2 15.8064 3.32396 16.0697
46 2 19.8021 3.64068 15.9654
47 2 23.7162 3.70915 -0.0135616
48 2 27.8152 3.83997 0.158393
49 2 31.6157 3.65639 0.115106
50 2 35.6619 3.69614 -0.00995568
51 2 39.6534 3.81378 -0.0130347
52 2 43.6677 3.77436 15.6349
53 2 47.7628 3.92331 15.9611
54 2 51.7269 3.98605 15.888
55 2 55.7502 3.96324 0.184969
56 2 59.7359 4.10054 15.8494
57 2 63.5563 4.01276 16.0065
58 2 67.8224 4.33064 15.9185
59 2 71.8572 4.23563 15.9581
60 2 75.6616 4.33641 15.87
61 2 79.5689 4.20074 15.9601
62 2 83.5988 4.22269 15.7118
63 2 87.3041 4.10507 15.7627
64 2 91.1617 3.96958 0.214123
65 2 95.0988 3.90807 16.0464
66 2 99.0736 3.82087 0.125711
67 2 103.087 3.8731 16.0189
68 2 106.939 3.69275 15.8577
69 2 110.874 3.77114 0.094264
70 2 114.901 3.76729 -0.0303786
71 2 118.607 3.50819 0.0274723
72 2 122.553 3.5191 0.127391
73 2 126.518 3.49636 0.0545199
74 2 130.345 3.42623 0.0890798
75 2 134.367 3.41427 15.7679
76 2 138.099 3.32631 0.393598
77 2 142.202 3.08841 0.0675352
78 2 146.011 3.23922 0.167792
79 2 150.057 3.31844 15.9206
80 2 154.125 3.18325 16.0617
81 2 157.916 7.12196 15.87
82 2 3.75579 7.13664 16.0686
83 2 7.88139 7.18093 16.0975
84 2 11.7441 7.20423 0.257384
85 2 15.6139 7.49229 15.9113
86 2 19.6855 7.54299 15.901
87 2 23.6397 7.64157 -0.0804156
88 2 27.7573 7.6946 15.835
89 2 31.8477 7.64386 15.8234
90 2 35.7671 7.76634 15.7711
91 2 39.8159 7.73981 -0.0607039
92 2 43.6521 7.68109 -0.0154102
93 2 47.6174 7.89446 15.8003
94 2 51.6595 7.75043 -0.0320762
95 2 55.7123 8.16791 15.7792
96 2 59.8176 7.93543 0.205805
97 2 63.5596 8.10527 15.829
98 2 67.8121 8.15665 15.5922
99 2 71.8477 8.14735 15.9858
100 2 75.837 8.26704 15.8254
101 2 79.8386 8.31353 0.243965
102 2 83.6126 8.32606 15.8119
103 2 87.4114 7.98601 15.9856
104 2 91.342 7.94735 16.0589
105 2 95.1888 7.8769 15.8713
106 2 98.9934 7.89818 0.154586
107 2 102.942 7.79009 0.229522
108 2 106.954 7.68689 15.8331
109 2 110.97 7.80534 0.182535
110 2 114.868 7.69322 16.1018
111 2 118.787 7.66584 16.0244
112 2 122.753 7.52701 15.7231
113 2 126.609 7.66084 16.0532
114 2 130.581 7.49496 0.339665
115 2 134.285 7.3556 -0.055366
116 2 138.446 7.39098 15.8369
117 2 142.186 7.20531 15.819
118 2 146.228 7.10804 0.11999
119 2 150.169 7.15079 0.290095
120 2 154.107 7.12568 15.9732
121 2 158.066 10.9615 15.9215
122 2 3.62475 11.1209 16.0185
123 2 7.70543 11.0711 15.8594
124 2 11.3606 11.2605 0.248507
125 2 15.5222 11.2033 15.7221
126 2 19.3827 11.2557 15.9272
127 2 23.742 11.4273 15.8063
128 2 27.7042 11.6059 15.9552
129 2 31.6626 11.4797 15.9701
130 2 35.644 11.6131 15.95
131 2 39.7358 11.7209 15.8895
132 2 43.6126 11.8069 0.0411242
133 2 47.5349 11.8018 -0.0407332
134 2 51.544 11.7883 15.8309
135 2 55.6723 11.8328 0.281516
136 2 59.7447 11.8388 15.7099
137 2 63.7456 12.0467 0.0805819
138 2 67.7088 11.9611 15.9017
139 2 71.4622 11.967 15.817
140 2 75.63 12.0989 15.9843
141 2 79.7731 12.1965 15.8615
142 2 83.5898 11.9913 15.8973
143 2 87.6368 12.0642 0.0130066
144 2 91.5315 11.8703 0.18431
145 2 95.369 11.8611 15.9595
146 2 99.1914 11.8455 15.8525
147 2 103.259 11.7125 0.0576042
148 2 107.209 11.6868 16.1139
149 2 111.044 11.6693 0.189655
150 2 115.084 11.6287 16.0808
151 2 118.981 11.6084 0.406512
152 2 122.594 11.6319 0.0902443
153 2 126.796 11.5156 15.9758
154 2 130.695 11.6036 15.9557
155 2 134.611 11.5757 0.0341993
156 2 138.34 11.3017 0.398703
157 2 142.159 11.3249 0.270926
158 2 145.935 11.3718 0.190394
159 2 150.18 11.1932 0.195252
160 2 154.078 11.1806 0.331728
161 2 158.147 15.2736 16.0634
162 2 3.67346 15.1548 15.9535
163 2 7.63938 15.0125 15.9782
164 2 11.5315 14.9718 16.0113
165 2 15.3604 15.1004 15.9695
166 2 19.3751 15.2753 -0.0316919
167 2 23.583 15.4038 0.0508071
168 2 27.7069 15.3762 15.9255
169 2 31.6751 15.4375 0.176606
170 2 35.5831 15.4355 15.8967
171 2 39.6659 15.5213 0.100269
172 2 43.7317 15.5856 -0.0553955
173 2 47.6495 15.6729 0.0371124
174 2 51.6363 15.6901 0.175978
175 2 55.5992 15.751 16.0601
176 2 59.667 15.8892 0.269578
177 2 63.562 15.7952 15.6407
178 2 67.7997 15.9248 15.8035
179 2 71.6418 15.6636 0.085916
180 2 75.8269 16.1243 0.181333
181 2 79.6426 16.2442 15.8182
182 2 83.6553 16.0419 0.0879248
183 2 87.6392 16.3069 15.9968
184 2 91.4126 16.0071 0.364041
185 2 95.2873 16.0571 16.0712
186 2 99.1995 15.8005 16.0378
187 2 103.111 15.9086 16.0444
188 2 107.006 15.8615 16.0465
189 2 111.176 15.6283 15.9036
190 2 114.885 15.7127 15.9032
191 2 118.752 15.6829 0.165306
192 2 122.638 15.7262 15.7643
193 2 126.551 15.457 15.9523
194 2 130.508 15.6152 0.41273
195 2 134.568 15.3672 0.111241
196 2 138.476 15.3217 0.15503
197 2 142.274 15.2427 15.935
198 2 146.212 15.342 0.174579
199 2 150.062 15.2638 0.106357
200 2 154.086 15.1138 16.1439
201 2 157.955 19.0608 16.1959
202 2 3.59381 19.1788 0.263609
203 2 7.56811 19.1515 0.132123
204 2 11.4304 18.9114 15.8534
205 2 15.6477 19.0857 16.0366
206 2 19.5718 19.2913 15.8831
207 2 23.5256 19.3642 15.9268
208 2 27.7898 19.2494 15.8581
209 2 31.5602 19.3674 16.0677
210 2 35.6683 19.3277 15.9024
211 2 39.5861 19.3452 0.00403696
212 2 43.5555 19.4879 15.9354
213 2 47.671 19.6632 15.901
214 2 51.747 19.6295 0.173216
215 2 55.7718 19.76 15.9215
216 2 59.6117 19.7284 16.0251
217 2 63.7322 19.7098 15.9312
218 2 67.7925 19.9391 15.7875
219 2 71.6654 19.7314 0.202046
220 2 75.6676 19.8073 0.288762
221 2 79.625 19.9301 0.136343
222 2 83.8874 20.1123 15.9862
223 2 87.4978 20.0173 0.0197772
224 2 91.5996 20.2388 0.201244
225 2 95.412 19.7773 15.9381
226 2 99.264 19.665 15.8854
227 2 103.131 19.668 15.8288
228 2 107.201 19.8013 15.9576
229 2 110.995 19.7037 0.086023
230 2 115.116 19.6152 15.9336
231 2 118.927 19.7412 15.9108
232 2 122.781 19.5526 16.0071
233 2 126.633 19.4686 16.0685
234 2 130.88 19.3625 16.043
235 2 134.562 19.4959 0.435893
236 2 138.464 19.1799 16.0233
237 2 142.382 19.3814 16.1063
238 2 146.228 19.283 0.470071
239 2 150.218 19.1302 16.0422
240 2 154.135 19.0643 0.36548
241 2 158.148 23.1158 15.9766
242 2 3.79399 23.0549 16.0322
243 2 7.62067 23.1571 -0.0127884
244 2 11.5817 22.968 0.122456
245 2 15.4446 22.9736 16.1308
246 2 19.6043 23.1414 15.9054
247 2 23.4794 22.9424 15.9753
248 2 27.4939 23.216 15.9134
249 2 31.2614 23.4178 0.271377
250 2 35.6163 23.2397 15.7955
251 2 39.3189 23.4193 0.209728
252 2 43.5584 23.4062 15.8769
253 2 47.5912 23.5128 0.145801
254 2 51.4937 23.5693 0.11001
255 2 55.5359 23.735 0.149854
256 2 59.6915 23.6701 15.9444
257 2 63.3368 23.5175 0.355859
258 2 67.4502 23.7089 15.9952
259 2 71.6742 23.7228 15.7906
260 2 75.3268 23.8288 -0.0273
261 2 79.4946 24.0526 16.0302
262 2 83.5393 24.0226 0.0367932
263 2 87.4758 23.9687 15.9329
264 2 91.4603 23.9887 15.8085
265 2 95.3616 23.8719 15.8945
266 2 99.3356 23.785 0.208171
267 2 103.211 23.7136 15.7283
268 2 107.192 23.6379 15.8442
269 2 111.186 23.6842 0.169605
270 2 114.954 23.7286 15.9968
271 2 119.006 23.4911 15.8633
272 2 122.792 23.4355 0.170106
273 2 126.891 23.4178 15.8665
274 2 130.616 23.3873 15.9822
275 2 134.575 23.4089 16.029
276 2 138.548 23.3162 16.0917
277 2 142.311 23.4389 15.9098
278 2 146.306 23.3524 0.152428
279 2 149.921 23.1115 0.137864
280 2 154.229 23.0043 0.157755
281 2 157.926 27.2333 0.150723
282 2 3.64946 26.9783 0.241638
283 2 7.64187 27.0422 0.0458795
284 2 11.547 26.9703 15.7961
285 2 15.543 27.135 15.9867
286 2 19.5759 27.0079 -0.00953628
287 2 23.6083 27.0401 15.8738
288 2 27.4211 27.1548 15.7456
289 2 31.4026 27.3151 0.105626
290 2 35.5767 27.175 0.260197
291 2 39.6684 27.3639 0.220755
292 2 43.4705 27.42 -0.0504208
293 2 47.4459 27.4368 0.0299919
294 2 51.5926 27.3843 15.9442
295 2 55.639 27.5622 0.112659
296 2 59.5158 27.6438 15.8127
297 2 63.219 27.6892 16.1087
298 2 67.4571 27.6028 15.9168
299 2 71.4227 27.5696 15.9617
300 2 75.5748 27.8144 0.341471
301 2 79.5644 27.8386 0.0649675
302 2 83.643 27.9181 15.8585
303 2 87.5855 27.8781 0.0198818
304 2 91.4414 27.9366 0.136301
305 2 95.4503 27.9006 0.0978274
306 2 99.4939 28.1665 0.0409909
307 2 103.416 27.6009 15.8515
308 2 107.078 27.6056 0.107084
309 2 110.946 27.7348 15.9924
310 2 114.969 27.6522 15.9436
311 2 119.018 27.5716 0.216785
312 2 122.881 27.5095 0.0800254
313 2 126.856 27.4348 15.8778
314 2 130.759 27.4451 15.8589
315 2 134.562 27.3538 16.1237
316 2 138.565 27.3259 16.1329
317 2 142.347 27.4204 0.178403
318 2 146.404 27.3714 0.13437
319 2 150.472 27.1573 0.0125861
320 2 154.194 27.1716 0.160742
321 2 158.226 31.2076 15.8508
322 2 3.76481 31.2884 15.8991
323 2 7.78225 31.0285 16.0586
324 2 11.6674 30.9101 0.245727
325 2 15.4743 30.9225 0.0748872
326 2 19.4395 30.9993 15.9421
327 2 23.6265 30.8975 16.112
328 2 27.4644 31.1212 0.196783
329 2 31.4447 31.2851 16.0884
330 2 35.3821 31.2499 15.8313
331 2 39.5228 31.1553 16.1322
332 2 43.6113 31.3498 0.228943
333 2 47.5965 31.3962 16.0774
334 2 51.5294 31.1026 0.0370207
335 2 55.41 31.2544 15.8389
336 2 59.251 31.4532 0.101273
337 2 63.2785 31.7139 15.893
338 2 67.5107 31.6237 0.265245
339 2 71.6815 31.592 0.044865
340 2 75.4655 31.4657 0.107014
341 2 79.6407 31.7855 15.7899
342 2 83.4586 31.7071 0.187173
343 2 87.5961 31.9546 15.8934
344 2 91.498 32.0076 15.8039
345 2 95.6682 31.8444 15.8634
346 2 99.4582 31.8773 0.30977
347 2 103.348 31.837 15.8253
348 2 107.311 31.8667 15.943
349 2 111.19 31.6801 16.0686
350 2 115.257 31.5285 15.9721
351 2 119.01 31.6301 15.8952
352 2 122.921 31.4403 16.0157
353 2 126.868 31.2865 15.9838
354 2 130.791 31.3708 16.129
355 2 134.797 31.38 16.0989
356 2 138.793 31.4138 16.069
357 2 142.523 31.3151 0.259786
358 2 146.435 31.3281 15.8302
359 2 150.291 31.1935 0.133784
360 2 154.181 31.112 0.131489
361 2 -0.264205 35.1205 0.439418
362 2 3.66999 35.148 16.0837
363 2 7.68012 35.1767 16.0035
364 2 11.6503 34.9039 15.8647
365 2 15.6863 34.9465 0.0757663
366 2 19.6199 34.8719 0.148442
367 2 23.4635 34.8754 0.136631
368 2 27.2713 34.9574 0.0056307
369 2 31.3288 35.1923 -0.124419
370 2 35.4186 35.0389 0.148028
371 2 39.2519 35.1506 0.206962
372 2 43.5443 35.2412 15.8045
373 2 47.3572 35.2274 15.8956
374 2 51.4836 35.2276 16.0787
375 2 55.3813 35.3497 0.320474
376 2 59.3773 35.4647 0.241549
377 2 63.4109 35.5071 15.9341
378 2 67.4582 35.4986 0.321301
379 2 71.6254 35.6353 0.0487028
380 2 75.5837 35.5395 16.0916
381 2 79.5095 35.4686 0.0891705
382 2 83.5633 35.6019 15.856
383 2 87.5535 35.6625 -0.0480086
384 2 91.5102 35.8492 0.0518572
385 2 95.5598 35.6344 15.901
386 2 99.4684 35.8434 0.247679
387 2 103.393 35.8129 15.9571
388 2 107.463 35.7711 15.9054
389 2 111.203 35.6723 15.93
390 2 115.112 35.5222 15.9611
391 2 118.748 35.641 16.0595
392 2 123.025 35.4311 15.9077
393 2 126.775 35.4255 16.082
394 2 130.776 35.4986 15.8628
395 2 134.845 35.4852 15.9514
396 2 138.691 35.5036 0.225083
397 2 142.755 35.244 0.287519
398 2 146.46 35.5006 0.0706913
399 2 150.466 35.336 16.0437
400 2 154.302 35.1975 0.299701
401 2 158.162 39.1145 0.273799
402 2 3.83561 39.2679 0.361914
403 2 7.78348 39.0436 0.109222
404 2 11.6669 39.0282 15.9401
405 2 15.4551 38.9619 0.18724
406 2 19.4132 38.7996 15.9971
407 2 23.3923 38.7457 15.9729
408 2 27.3313 38.8058 15.8423
409 2 31.3293 38.7848 0.194725
410 2 35.3117 38.7513 0.288545
411 2 39.4012 39.1415 16.0041
412 2 43.4845 39.1994 0.150178
413 2 47.3496 39.2527 0.181239
414 2 51.5203 39.0351 15.9463
415 2 55.3215 39.1492 0.29947
416 2 59.352 39.3622 0.114052
417 2 63.5008 39.2242 0.399041
418 2 67.5517 39.4069 0.278043
419 2 71.4777 39.2733 0.0170244
420 2 75.4704 39.4085 0.40156
421 2 79.5125 39.4417 0.167744
422 2 83.4177 39.6149 16.1627
423 2 87.3977 39.561 15.913
424 2 91.4572 39.6109 15.7448
425 2 95.5051 39.718 15.9508
426 2 99.3884 39.5569 0.229781
427 2 103.333 39.786 16.0785
428 2 107.279 39.5604 15.9581
429 2 111.383 39.6955 16.0341
430 2 115.15 39.5087 15.9855
431 2 119.145 39.607 15.9176
432 2 122.899 39.3201 16.0381
433 2 126.945 39.4868 0.331913
434 2 130.843 39.2636 16.0143
435 2 134.694 39.3568 16.0532
436 2 138.609 39.2545 16.247
437 2 142.493 39.2937 16.1797
438 2 146.686 39.6657 0.385303
439 2 150.338 39.1636 16.1219
440 2 154.223 39.1527 16.1138
441 2 158.216 43.1016 0.147052
442 2 3.86249 43.2011 15.8428
443 2 7.58752 42.9917 15.8953
444 2 11.9524 43.0808 0.0930887
445 2 15.7214 42.9232 0.251434
446 2 19.6072 42.8913 0.194942
447 2 23.4083 42.8036 15.8601
448 2 27.3505 42.8256 16.173
449 2 31.2547 42.6795 0.271654
450 2 35.2837 42.7263 0.0414967
451 2 39.4558 42.8961 0.29084
452 2 43.3919 42.9957 0.188905
453 2 47.3489 42.991 15.9857
454 2 51.4749 42.9555 16.0437
455 2 55.3657 43.0209 0.225215
456 2 59.4209 43.1978 16.0903
457 2 63.3109 43.2054 0.101188
458 2 67.4657 43.4733 0.0919382
459 2 71.4943 43.2556 0.182516
460 2 75.2907 43.3388 0.299831
461 2 79.2994 43.4512 0.172219
462 2 83.4846 43.726 16.1534
463 2 87.3668 43.4678 15.8948
464 2 91.4694 43.6337 0.128943
465 2 95.3794 43.7425 -0.137226
466 2 99.3317 43.6373 15.8551
467 2 103.414 43.6662 15.9507
468 2 107.191 43.7392 15.9186
469 2 111.311 43.4576 15.9136
470 2 115.297 43.6838 15.9205
471 2 118.926 43.4996 15.8787
472 2 123.066 43.7046 15.8769
473 2 126.968 43.5301 0.354469
474 2 130.896 43.4286 0.288674
475 2 134.767 43.3664 15.9954
476 2 138.809 43.4395 16.2936
477 2 142.525 43.2066 15.9668
478 2 146.547 43.4703 0.356319
479 2 150.376 43.2015 0.139184
480 2 154.249 43.2129 0.114827
481 2 0.0773597 47.2237 0.0260821
482 2 3.87626 47.1506 0.290503
483 2 7.73666 47.0516 0.0276647
484 2 11.8874 47.1107 0.272107
485 2 15.7615 47.0101 0.334928
486 2 19.5911 46.7784 0.181353
487 2 23.353 46.8394 0.325537
488 2 27.3556 47.0016 16.0196
489 2 31.216 46.9422 0.155156
490 2 35.2656 46.8052 0.403438
491 2 39.0682 46.7501 16.0112
492 2 43.1858 47.0692 15.9893
493 2 47.208 46.8675 0.270684
494 2 51.2094 47.0061 16.0998
495 2 55.2794 47.0117 16.0372
496 2 59.3586 47.0337 15.9867
497 2 63.3527 47.1075 0.128169
498 2 67.1696 46.9746 0.223341
499 2 71.3291 47.2293 15.8729
500 2 75.408 47.4331 0.149881
501 2 79.3087 47.514 15.9037
502 2 83.3987 47.5417 15.9271
503 2 87.5462 47.3725 0.110658
504 2 91.2756 47.4142 0.10301
505 2 95.371 47.5638 0.070091
506 2 99.3992 47.5354 0.00274776
507 2 103.343 47.7644 0.124337
508 2 107.374 47.6547 16.0267
509 2 111.252 47.4911 15.9248
510 2 115.119 47.587 0.0870232
511 2 119.017 47.5139 15.8621
512 2 122.971 47.4773 16.0412
513 2 127.053 47.6041 15.9115
514 2 130.809 47.5731 15.9693
515 2 134.986 47.5012 15.9397
516 2 138.707 47.5196 16.2368
517 2 142.504 47.3287 16.1933
518 2 146.525 47.1947 0.376684
519 2 150.504 47.37 0.0979396
520 2 154.348 47.1182 15.7192
521 2 158.327 51.1804 -0.0134911
522 2 3.94162 51.1514 15.9348
523 2 7.76634 51.1639 15.9474
524 2 11.8686 51.201 16.0071
525 2 15.6164 50.8817 0.380885
526 2 19.5644 51.019 15.979
527 2 23.4454 50.9943 16.0069
528 2 27.4697 50.8697 15.9835
529 2 31.3919 50.8858 0.323001
530 2 35.3975 50.8074 0.228666
531 2 39.2956 50.81 15.9969
532 2 43.3028 50.6468 15.8138
533 2 47.1468 50.8377 -0.143912
534 2 51.1811 50.9144 0.176336
535 2 55.266 50.9357 0.453955
536 2 59.2584 50.9859 15.9677
537 2 63.3554 51.1444 15.8841
538 2 67.3058 51.1715 0.229273
539 2 71.3914 51.1578 0.243909
540 2 75.1287 51.1358 0.524659
541 2 79.2987 51.1766 0.104386
542 2 83.2557 51.1917 0.201454
543 2 87.2427 51.3496 0.0222174
544 2 91.4128 51.406 0.310982
545 2 95.3919 51.2633 0.115362
546 2 99.2636 51.5338 0.261518
547 2 103.252 51.477 16.0142
548 2 107.346 51.562 0.145254
549 2 111.176 51.5808 0.0693086
550 2 115.206 51.5253 15.7587
551 2 119.106 51.7659 15.8498
552 2 123.182 51.4775 15.8631
553 2 126.983 51.4657 15.939
554 2 130.793 51.4726 -0.081579
555 2 134.887 51.4999 0.0649374
556 2 138.701 51.1578 0.305513
557 2 142.774 51.3662 0.0162411
558 2 146.58 51.2044 16.0039
559 2 150.479 51.0606 0.217827
560 2 154.443 51.1698 0.288219
561 2 158.561 55.1874 0.186426
562 2 3.82632 55.1061 0.171031
563 2 7.92485 55.0505 0.163584
564 2 11.9805 55.0359 0.287841
565 2 15.8917 54.906 0.362669
566 2 19.6185 54.8051 16.0087
567 2 23.5327 54.8222 15.8854
568 2 27.4049 54.8156 15.817
569 2 31.2848 55.0275 0.260398
570 2 35.3668 54.7632 0.202898
571 2 39.2107 54.637 15.938
572 2 43.3895 54.6989 16.2147
573 2 47.2634 54.7256 0.21987
574 2 51.1197 54.643 16.0423
575 2 55.2003 54.9443 16.0452
576 2 59.2452 54.934 15.8964
577 2 63.2142 55.0983 15.827
578 2 67.3028 54.9608 0.209679
579 2 71.1778 55.0459 0.304358
580 2 75.1903 55.0038 15.8623
581 2 79.1548 55.289 0.182166
582 2 83.2084 55.3097 0.0895736
583 2 87.3111 55.3003 0.229503
584 2 91.3332 55.3845 15.9845
585 2 95.4727 55.3233 0.139625
586 2 99.3106 55.4986 15.9026
587 2 103.21 55.3537 16.0443
588 2 107.205 55.3634 0.116763
589 2 111.34 55.5294 15.8549
590 2 115.068 55.4039 15.7579
591 2 119.19 55.5924 16.1188
592 2 122.937 55.4351 0.249199
593 2 127.028 55.6197 15.8214
594 2 131.149 55.6014 15.8352
595 2 134.96 55.4027 0.0813411
596 2 138.78 55.2048 15.9982
597 2 142.773 55.295 0.280204
598 2 146.662 55.2605 0.295147
599 2 150.555 55.1985 0.324372
600 2 154.462 55.1247 15.8544
601 2 158.512 59.0226 0.0219513
602 2 4.12647 59.2518 15.7668
603 2 8.07241 59.0409 15.8193
604 2 11.8825 59.1084 0.311702
605 2 15.8973 58.9445 16.0889
606 2 19.7068 58.7533 0.211004
607 2 23.5168 58.9448 0.0514732
608 2 27.3627 58.8019 0.241418
609 2 31.5492 58.8308 16.112
610 2 35.2028 58.7666 15.9761
611 2 39.1029 58.7298 15.7513
612 2 43.012 58.5358 15.7466
613 2 47.1821 58.6853 16.0137
614 2 51.1497 58.5801 15.9269
615 2 55.3201 58.5709 15.6839
616 2 59.1448 58.7967 0.135203
617 2 63.2056 58.6652 16.0077
618 2 67.1068 58.9757 0.166672
619 2 71.1328 59.019 16.0828
620 2 75.1686 58.8976 0.0588327
621 2 79.2893 59.1474 0.0672608
622 2 83.288 59.221 0.212006
623 2 87.2839 59.3402 15.8175
624 2 91.3638 59.1698 15.9354
625 2 95.2378 59.3622 0.0069798
626 2 99.2674 59.3245 0.184833
627 2 103.352 59.5042 15.9458
628 2 107.269 59.4255 -0.0171236
629 2 111.095 59.4674 15.8014
630 2 115.164 59.4923 16.0645
631 2 118.978 59.4533 15.8979
632 2 123.073 59.4631 0.0704198
633 2 127.081 59.7494 15.8373
634 2 131.163 59.5804 -0.098794
635 2 134.866 59.5067 15.8843
636 2 138.663 59.5202 0.339812
637 2 142.825 59.3008 0.0525884
638 2 146.677 59.0949 0.266654
639 2 150.543 59.3228 16.1178
640 2 154.404 59.1347 0.200717
641 2 0.408849 63.1743 -0.0961627
642 2 4.26733 63.1927 0.273693
643 2 8.01617 63.232 16.005
644 2 12.1238 63.1183 15.9318
645 2 16.0173 62.9196 16.0638
646 2 19.8682 62.878 0.337222
647 2 23.8017 62.7927 0.189435
648 2 27.5182 62.9346 0.299832
649 2 31.539 62.7991 0.0818287
650 2 35.3354 62.6497 0.190775
651 2 39.4668 62.782 15.782
652 2 43.2811 62.7646 -0.175109
653 2 47.1284 62.4907 15.823
654 2 51.2279 62.4781 15.8917
655 2 55.2345 62.4243 -0.049864
656 2 59.1644 62.7278 15.7529
657 2 63.0445 62.7955 0.28123
658 2 67.0495 62.7488 15.7475
659 2 71.0849 62.9527 0.381058
660 2 75.1726 63.0177 0.277439
661 2 79.1087 63.1618 0.11732
662 2 83.0334 63.2094 0.0599055
663 2 87.0589 63.0443 15.7617
664 2 91.2695 63.287 15.9358
665 2 95.0977 63.2249 0.186012
666 2 99.1303 63.4011 0.124432
667 2 102.998 63.1777 15.8304
668 2 106.973 63.4298 15.7805
669 2 111.186 63.39 15.9825
670 2 115.158 63.4864 0.13583
671 2 119.004 63.5489 15.9184
672 2 123.147 63.3099 0.195724
673 2 127.011 63.6663 15.8667
674 2 131.061 63.4771 -0.0832698
675 2 134.754 63.5704 16.0686
676 2 138.594 63.4502 15.85
677 2 142.637 63.3488 15.9855
678 2 146.494 63.1699 0.140674
679 2 150.467 63.2163 15.7844
680 2 154.612 63.1503 0.00981197
681 2 0.222621 67.1663 0.246798
682 2 4.2447 67.0394 0.171077
683 2 8.04695 67.2482 15.8513
684 2 12.1791 66.9135 15.8736
685 2 16.0565 66.9518 0.152518
686 2 19.6944 66.8316 0.280709
687 2 23.6402 66.8025 0.184704
688 2 27.8202 67.0899 0.146979
689 2 31.4802 66.8731 0.0799521
690 2 35.523 66.7331 0.14412
691 2 39.3013 66.561 15.8372
692 2 43.2689 66.548 0.250823
693 2 47.4183 66.5155 15.6833
694 2 51.3155 66.3933 15.9106
695 2 55.2266 66.502 16.0099
696 2 59.1305 66.4967 15.9477
697 2 63.1977 66.7555 15.8724
698 2 67.0016 66.7177 15.8219
699 2 71.0269 66.8808 0.204553
700 2 75.1755 66.8964 15.8149
701 2 79.1675 67.0457 15.8757
702 2 83.1807 66.9988 0.358612
703 2 87.1894 67.1767 15.7979
704 2 91.0202 67.1824 15.8904
705 2 95.0773 67.1471 0.0127488
706 2 99.104 67.2492 0.0359741
707 2 103.189 67.1917 0.147862
708 2 107.263 67.2542 15.9508
709 2 111.173 67.3125 15.9612
710 2 115.267 67.4854 15.8686
711 2 119.016 67.4058 0.224929
712 2 123.31 67.5351 0.0793976
713 2 127.133 67.28 0.250244
714 2 131.138 67.3802 15.8013
715 2 135.082 67.3967 0.086101
716 2 138.967 67.2922 0.0214912
717 2 142.859 67.3909 15.8522
718 2 146.785 67.4159 15.7843
719 2 150.675 67.1202 15.8874
720 2 154.78 67.1665 0.371185
721 2 0.178753 70.9925 0.0536154
722 2 4.16985 70.9733 16.0391
723 2 8.19863 70.869 0.0711761
724 2 11.8736 70.8775 15.9188
725 2 15.8967 70.6625 0.19559
726 2 19.8794 71.0609 -0.000634247
727 2 23.8054 70.8931 0.210534
728 2 27.6263 70.8778 15.9882
729 2 31.4598 70.7883 -0.0269743
730 2 35.4494 70.6789 0.158784
731 2 39.3729 70.6576 15.903
732 2 43.3606 70.6789 0.031403
733 2 47.3024 70.5022 15.8219
734 2 51.3161 70.427 15.8295
735 2 55.3772 70.6228 0.111379
736 2 59.0669 70.4132 0.0833995
737 2 63.1734 70.6083 -0.0329364
738 2 67.2198 70.7174 15.773
739 2 71.0438 70.7078 15.8817
740 2 74.954 70.7336 15.8789
741 2 78.9961 70.8141 0.0982408
742 2 82.9872 70.7697 0.108266
743 2 87.1386 70.9228 15.9941
744 2 90.9809 70.9977 15.7963
745 2 94.9332 71.0771 15.7206
746 2 98.9752 71.0629 15.846
747 2 103.034 71.1855 15.918
748 2 106.884 71.096 15.8177
749 2 111.019 71.2738 15.9789
750 2 114.959 71.32 0.236561
751 2 119.208 71.301 15.8372
752 2 123.095 71.3747 0.314509
753 2 127.029 71.4494 15.8138
754 2 130.979 71.3401 15.9023
755 2 135.109 71.3461 15.8233
756 2 138.877 71.3485 15.7964
757 2 142.854 71.3528 0.03171
758 2 146.766 71.2738 0.133212
759 2 150.755 71.0697 0.153553
760 2 154.605 71.1137 15.7357
761 2 0.402418 75.0408 0.0701713
762 2 4.23123 75.0599 15.7825
763 2 8.15655 75.1677 16.0575
764 2 11.8697 74.9204 15.949
765 2 15.8446 74.9493 15.8226
766 2 19.937 74.9909 15.8808
767 2 23.7826 74.9248 16.0641
768 2 27.7264 74.8433 15.8554
769 2 31.5761 74.538 -0.0338514
770 2 35.4997 74.5965 15.8988
771 2 39.3072 74.5288 15.9464
772 2 43.2473 74.3873 0.253579
773 2 47.2039 74.5724 15.887
774 2 51.1648 74.4083 0.161169
775 2 54.9912 74.4749 16.1793
776 2 59.231 74.5571 16.0059
777 2 63.1269 74.7251 15.8202
778 2 66.9458 74.4458 0.0728449
779 2 70.7765 74.4906 0.101429
780 2 74.9815 74.7235 0.0609879
781 2 78.9353 74.7127 0.29859
782 2 83.0748 74.6728 0.0841118
783 2 86.8648 75.0844 0.137263
784 2 90.9363 74.8336 15.9285
785 2 95.0557 74.9288 15.9593
786 2 99.0678 75.0933 0.315216
787 2 102.941 75.1521 15.8174
788 2 106.901 75.0466 15.9644
789 2 110.847 75.0808 16.0129
790 2 115.058 75.1236 15.9522
791 2 118.938 75.0787 0.235629
792 2 123.015 75.2261 15.9773
793 2 127.084 75.187 15.8731
794 2 131.111 75.2551 0.0533045
795 2 135.044 75.2708 15.882
796 2 139.195 75.348 15.9198
797 2 143.252 75.1955 15.701
798 2 146.962 75.3769 15.5938
799 2 150.708 75.1421 0.191356
800 2 154.765 75.1174 0.193612
801 2 0.148637 79.1519 0.153686
802 2 4.20384 79.03 16.0203
803 2 8.1015 79.0491 0.416282
804 2 12.018 78.7799 0.297796
805 2 15.8098 79.0382 15.9602
806 2 19.704 79.0033 15.9369
807 2 23.7155 78.8632 0.0583766
808 2 27.651 78.7872 0.0723864
809 2 31.6638 78.6929 0.087427
810 2 35.4927 78.6659 0.12551
811 2 39.4779 78.5419 16.0295
812 2 43.4045 78.4629 16.13
813 2 47.3698 78.5629 15.9332
814 2 51.1677 78.5607 0.165682
815 2 55.2182 78.4341 0.222803
816 2 59.1933 78.4146 15.7427
817 2 62.8143 78.4587 15.9218
818 2 66.8128 78.4582 0.205508
819 2 70.8037 78.497 15.9425
820 2 74.9425 78.6619 0.0962702
821 2 79.02 78.6526 15.8643
822 2 82.8317 78.5347 15.8205
823 2 86.6709 78.7341 0.0264655
824 2 90.9968 79.0333 0.133242
825 2 94.8732 78.688 0.0654392
826 2 98.8781 79.0526 15.5563
827 2 102.894 78.9262 15.8482
828 2 106.874 78.9001 0.234189
829 2 110.875 79.008 0.150404
830 2 114.829 79.0261 0.230816
831 2 118.879 79.1929 -0.0218158
832 2 122.9 79.2054 16.06
833 2 126.967 79.0205 0.0683328
834 2 131.041 79.2652 16.0624
835 2 135.001 79.0839 -0.0643529
836 2 138.889 79.2676 16.0318
837 2 142.792 79.3991 15.6352
838 2 146.934 79.4311 15.9292
839 2 150.768 79.2312 15.9322
840 2 154.698 79.0627 -0.0963079
841 2 0.633326 83.0923 15.7824
842 2 4.05077 82.9639 15.8931
843 2 7.9528 83.0257 0.2627
844 2 11.8727 83.0053 15.8133
845 2 15.8279 82.92 15.9031
846 2 19.752 82.7554 0.204465
847 2 23.5871 82.8954 15.8357
848 2 27.7212 82.6924 0.0133082
849 2 31.7097 82.5636 15.8399
850 2 35.4824 82.7025 0.0207301
851 2 39.6089 82.6101 0.11323
852 2 43.5833 82.6379 15.8657
853 2 47.4255 82.4858 0.396568
854 2 51.1417 82.3197 0.274103
855 2 55.0879 82.5148 0.236826
856 2 58.9461 82.5167 15.9052
857 2 62.9734 82.346 15.756
858 2 66.9448 82.4879 15.9337
859 2 70.8695 82.4266 15.7273
860 2 74.7505 82.523 15.7743
861 2 78.8298 82.5001 15.9312
862 2 82.8241 82.6609 0.189503
863 2 86.8603 82.5926 0.240526
864 2 90.6664 82.943 15.8838
865 2 94.7163 82.7488 0.194657
866 2 98.4716 82.844 15.7348
867 2 102.718 82.9606 0.255497
868 2 106.689 82.9761 15.9648
869 2 110.783 82.8633 16.0296
870 2 114.843 82.9961 15.7634
871 2 118.913 83.1248 15.9628
872 2 122.784 82.917 15.8404
873 2 126.963 82.9668 15.9736
874 2 130.993 83.2795 16.0316
875 2 134.987 83.1414 0.119459
876 2 139.069 83.0907 15.9737
877 2 142.916 83.292 0.259922
878 2 146.939 83.2372 15.7451
879 2 150.784 83.3083 0.106473
880 2 154.611 83.1203 -0.100357
881 2 0.34583 87.1515 15.7065
882 2 4.30259 86.8851 0.0817983
883 2 8.12711 87.011 15.9769
884 2 11.9871 86.9515 15.7392
885 2 16.0611 86.7392 16.1682
886 2 19.8022 86.7007 15.9668
887 2 23.6832 86.7422 15.7094
888 2 27.6242 86.6415 0.261497
889 2 31.42 86.6474 15.6192
890 2 35.481 86.5788 0.0127349
891 2 39.438 86.6547 15.8806
892 2 43.5558 86.5462 15.8911
893 2 47.4127 86.5843 16.1424
894 2 51.1822 86.7024 15.832
895 2 55.0966 86.4226 15.8734
896 2 59.1047 86.5468 0.266703
897 2 62.9067 86.3218 0.135222
898 2 66.8921 86.5627 15.8985
899 2 70.9216 86.3358 0.19574
900 2 74.9572 86.4888 15.8979
901 2 78.7202 86.3079 0.146661
902 2 82.7974 86.516 -0.0198195
903 2 86.6953 86.6819 15.871
904 2 90.6899 86.869 15.7866
905 2 94.5288 86.6761 15.8083
906 2 98.7963 86.7864 15.8405
907 2 102.758 86.7527 0.267758
908 2 106.928 86.7482 0.276263
909 2 110.806 86.6508 15.9079
910 2 114.763 86.9198 0.105584
911 2 118.955 86.9648 0.0871395
912 2 122.853 86.819 0.28203
913 2 126.944 86.8957 16.0612
914 2 130.822 87.1016 16.0707
915 2 134.751 86.9296 15.8735
916 2 138.986 86.9853 15.9763
917 2 142.84 87.2525 15.9539
918 2 146.697 87.3429 -0.0546031
919 2 150.626 87.1789 15.9025
920 2 154.825 87.2282 15.9153
921 2 0.270903 91.2324 0.285692
922 2 4.20133 90.9701 0.0846849
923 2 8.21846 90.9042 15.8287
924 2 12.3293 90.842 15.7956
925 2 15.9289 90.8072 0.0884356
926 2 19.9588 90.5971 0.0586547
927 2 23.9055 90.7532 15.7782
928 2 27.7416 90.7521 15.9001
929 2 31.4783 90.4966 15.7715
930 2 35.5573 90.4057 0.190826
931 2 39.4197 90.5757 15.6173
932 2 43.3561 90.5688 15.8166
933 2 47.3541 90.5471 0.199432
934 2 51.4037 90.6487 0.237951
935 2 55.0305 90.5467 0.310222
936 2 58.992 90.3748 0.151502
937 2 62.8689 90.585 0.244802
938 2 66.9048 90.4493 16.0317
939 2 70.9345 90.3115 15.8731
940 2 74.6901 90.3882 0.171036
941 2 78.6597 90.2785 0.203316
942 2 82.6177 90.4259 0.0674056
943 2 86.8197 90.5282 0.114067
944 2 90.5993 90.6365 -0.0129475
945 2 94.7314 90.6902 16.0493
946 2 98.6923 90.57 15.7103
947 2 102.794 90.6767 0.081927
948 2 106.576 90.5427 16.0153
949 2 110.743 90.7046 16.0384
950 2 114.7 90.512 0.11604
951 2 118.719 90.8862 0.153071
952 2 122.745 90.7723 15.9742
953 2 126.796 90.9668 0.262926
954 2 130.632 91.055 0.344547
955 2 134.846 90.8968 15.9204
956 2 138.852 91.0292 15.8917
957 2 142.759 91.0913 15.9053
958 2 146.696 91.1776 15.8887
959 2 150.622 91.0502 15.9297
960 2 154.692 90.9393 16.0843
961 2 0.472836 95.1656 0.212937
962 2 4.30075 95.1054 15.9648
963 2 8.17512 95.065 15.6348
964 2 12.1413 94.888 15.9484
965 2 16.0812 94.9068 15.6686
966 2 20.0391 94.8477 15.8136
967 2 23.7863 94.5316 15.8756
968 2 27.9136 94.8403 15.9609
969 2 31.8667 94.5765 15.9776
970 2 35.5767 94.4658 15.7729
971 2 39.6125 94.5175 15.8308
972 2 43.4883 94.5459 15.8796
973 2 47.2804 94.638 -0.0148628
974 2 50.9882 94.5852 15.8924
975 2 55.2346 94.4778 0.256123
976 2 59.1967 94.3803 15.6756
977 2 62.9984 94.3491 0.124343
978 2 66.8141 94.3489 0.062792
979 2 70.6545 94.4455 0.236045
980 2 74.86 94.4659 0.29321