ITEM: TIMESTEP
22000
ITEM: NUMBER OF ATOMS
32000
ITEM: BOX BOUNDS xy xz yz pp pp pp
0.0000000000000000e+00 1.5831999999999999e+02 0.0000000000000000e+00
0.0000000000000000e+00 1.5831999999999999e+02 0.0000000000000000e+00
1.6480261357632653e-01 1.5932909386423493e+01 0.0000000000000000e+00
ITEM: ATOMS id type x y z
1 2 157.972 157.578 16.1095
2 2 3.73856 157.579 16.0711
3 2 7.75048 157.729 0.163368
4 2 11.8048 157.9 0.125843
5 2 15.7495 157.843 0.203905
6 2 19.7516 157.992 15.7909
7 2 23.6502 157.983 15.6815
8 2 27.7825 158.019 15.9698
9 2 31.6339 158.137 0.138004
10 2 35.7451 158.134 15.9811
11 2 39.6227 -0.208664 15.9833
12 2 43.7001 -0.0219224 0.0210964
13 2 47.7568 -0.172672 15.8744
14 2 51.7027 -0.0335066 0.175501
15 2 55.7467 158.401 0.211125
16 2 59.6758 158.544 16.0828
17 2 63.8118 0.253705 16.0512
18 2 67.8487 0.271816 16.0038
19 2 71.5862 0.268867 15.7876
20 2 75.5144 158.534 15.8096
21 2 79.475 0.278713 15.9893
22 2 83.5612 158.577 16.0462
23 2 87.4936 158.282 15.862
24 2 91.5202 158.317 0.229644
25 2 95.3105 158.428 16.0505
26 2 99.1158 158.104 15.8249
27 2 102.942 158.068 15.7319
28 2 106.875 158.123 15.8779
29 2 110.746 157.89 0.156263
30 2 114.618 158.126 0.137392
31 2 118.64 157.934 15.86
32 2 122.761 157.891 0.0983376
33 2 126.642 157.819 0.0760456
34 2 130.381 157.72 0.296439
35 2 134.308 157.707 15.8948
36 2 138.227 157.632 16.1001
37 2 142.165 157.547 15.9869
38 2 145.902 157.603 16.0748
39 2 150.099 157.531 0.318245
40 2 153.944 157.68 0.297392
41 2 158.083 3.08713 16.0115
42 2 3.74182 3.21485 16.1121
43 2 7.65857 3.37325 0.357058
44 2 11.8506 3.48348 15.887
45 2 15.8093 3.38906 15.9969
46 2 19.8211 3.39912 15.9033
47 2 23.682 3.41942 0.11053
48 2 27.652 3.61146 -0.142257
49 2 31.69 3.76154 0.0479181
50 2 35.8723 3.55798 0.142969
51 2 39.9048 3.81843 0.168036
52 2 43.765 3.86689 15.9004
53 2 47.6919 3.72562 15.6864
54 2 51.7424 4.05348 15.8714
55 2 55.6299 3.8554 0.204021
56 2 59.8275 3.93215 15.8496
57 2 63.8623 4.17763 15.9387
58 2 67.7108 4.05673 15.9073
59 2 71.824 4.30082 15.8909
60 2 75.6074 4.00106 15.9509
61 2 79.5171 4.04632 15.7468
62 2 83.4959 4.05352 16.0822
63 2 87.5401 3.94594 15.9673
64 2 91.4556 3.87905 0.198822
65 2 95.5534 3.99365 15.9731
66 2 99.2867 3.7455 0.240049
67 2 103.114 3.77892 15.7924
68 2 107.012 3.82713 15.9671
69 2 110.954 3.64519 0.404665
70 2 114.858 3.54442 0.310623
71 2 118.748 3.47915 0.234698
72 2 122.708 3.56764 0.243515
73 2 126.539 3.44322 0.289429
74 2 130.573 3.51023 0.0221911
75 2 134.682 3.38164 16.0675
76 2 138.358 3.46158 0.135433
77 2 142.184 3.33017 0.207376
78 2 146.266 3.34955 0.268216
79 2 149.953 3.31872 15.9108
80 2 154.026 3.15214 16.0853
81 2 157.866 7.42404 16.0605
82 2 3.59508 7.16908 15.8865
83 2 7.58335 7.22086 16.0175
84 2 11.6042 7.21958 0.228999
85 2 15.7169 7.47397 15.967
86 2 19.606 7.39228 15.7424
87 2 23.4993 7.30633 0.356223
88 2 27.6543 7.48976 15.8707
89 2 31.7328 7.59474 15.8659
90 2 35.6735 7.6377 16.0359
91 2 39.8321 7.66055 0.233986
92 2 43.8186 7.63024 0.126254
93 2 47.7445 7.83526 15.855
94 2 51.704 8.04319 0.199981
95 2 55.6685 7.95037 16.104
96 2 59.8369 7.93303 0.125501
97 2 63.6806 8.13658 15.8768
98 2 67.6664 8.1723 15.9638
99 2 71.6977 8.11486 15.7062
100 2 75.6836 8.12918 15.8096
101 2 79.5054 8.07307 0.0643325
102 2 83.5286 8.13497 15.9857
103 2 87.2707 8.04827 15.9961
104 2 91.4638 8.05472 15.7804
105 2 95.4507 8.05822 15.9812
106 2 99.1591 7.836 0.269652
107 2 103.268 7.66356 0.010463
108 2 107.094 7.72744 16.0919
109 2 110.892 7.61101 0.189965
110 2 114.799 7.63043 15.8631
111 2 118.708 7.63732 15.7727
112 2 122.821 7.46958 16.0356
113 2 126.456 7.32743 15.6261
114 2 130.613 7.43671 0.0138378
115 2 134.376 7.33859 0.233086
116 2 138.286 7.25803 16.0079
117 2 142.214 7.3658 16.2463
118 2 146.168 7.15211 0.324661
119 2 150.196 7.20718 0.0464043
120 2 154.115 7.37273 16.1402
121 2 157.945 11.1131 16.0248
122 2 3.78302 11.1812 15.7994
123 2 7.70362 11.0171 16.0792
124 2 11.801 11.2693 0.187592
125 2 15.8805 11.2795 16.1175
126 2 19.6845 11.2856 15.948
127 2 23.5805 11.432 15.8126
128 2 27.5547 11.3749 15.8539
129 2 31.6254 11.4297 15.7406
130 2 35.6124 11.5054 15.7801
131 2 39.7108 11.4646 15.9112
132 2 43.6293 11.6899 0.0968541
133 2 47.7443 11.6755 0.00731449
134 2 51.5616 11.8689 15.865
135 2 55.5498 11.7305 0.0942966
136 2 59.6823 12.0424 16.053
137 2 63.8046 12.0024 0.0575612
138 2 67.6964 12.0396 16.0592
139 2 71.5484 12.1657 15.9414
140 2 75.6455 12.2415 15.8552
141 2 79.6704 12.0687 15.8503
142 2 83.4134 12.1997 16.0847
143 2 87.4296 11.9769 0.181036
144 2 91.2494 12.0178 -0.00816746
145 2 95.1724 12.0298 16.0056
146 2 99.1839 11.7856 15.9863
147 2 103.083 11.7602 0.228816
148 2 107.146 11.8752 15.7947
149 2 110.888 11.5421 0.030223
150 2 114.835 11.5484 15.7683
151 2 118.983 11.8032 -0.0715116
152 2 122.723 11.4955 0.144159
153 2 126.762 11.3922 15.826
154 2 130.584 11.1729 15.879
155 2 134.441 11.3524 0.192864
156 2 138.549 11.2414 0.0613839
157 2 142.405 11.1354 0.292738
158 2 146.328 11.2943 0.379322
159 2 150.211 11.2414 0.125926
160 2 153.897 11.1849 0.271783
161 2 157.846 15.1312 15.8077
162 2 3.68283 14.9138 16.0461
163 2 7.81649 15.2281 15.961
164 2 11.4877 15.0991 15.8872
165 2 15.6469 15.1836 15.8723
166 2 19.5913 15.2319 0.169927
167 2 23.7178 15.2057 0.194068
168 2 27.5104 15.1594 15.9174
169 2 31.6299 15.4241 -0.0339296
170 2 35.6471 15.4458 15.7272
171 2 39.5968 15.387 0.00983827
172 2 43.6465 15.3867 0.0323237
173 2 47.6506 15.5594 0.0802058
174 2 51.7199 15.4906 0.0149489
175 2 55.7331 15.8338 15.9191
176 2 59.8216 15.8103 0.105738
177 2 63.6839 15.8473 16.0734
178 2 67.6609 15.8876 16.0715
179 2 71.6482 16.1144 0.145663
180 2 75.4937 16.1018 -0.00347623
181 2 79.4481 16.02 15.8829
182 2 83.6535 16.2355 -0.0098887
183 2 87.4416 15.9146 16.0439
184 2 91.5315 15.9752 -0.102974
185 2 95.4099 16.0526 15.6686
186 2 99.1487 15.9522 15.8449
187 2 103.261 15.872 15.858
188 2 107.126 15.5533 15.7837
189 2 111.23 15.5746 15.9065
190 2 115.09 15.5966 15.9355
191 2 118.959 15.5001 0.113779
192 2 122.919 15.44 15.9225
193 2 126.889 15.4631 15.7779
194 2 130.811 15.2025 0.108053
195 2 134.519 15.3811 0.298861
196 2 138.386 15.3624 0.155105
197 2 142.49 15.3255 16.1399
198 2 146.423 15.1604 0.520029
199 2 150.437 15.1709 0.267099
200 2 154.065 14.9872 15.9548
201 2 158.154 19.2041 15.895
202 2 3.73211 18.783 0.21143
203 2 7.61211 19.0671 0.00107748
204 2 11.6472 19.0515 15.8682
205 2 15.4762 18.9103 15.9088
206 2 19.5043 19.0689 15.7805
207 2 23.3379 19.2852 15.8727
208 2 27.4006 19.3246 15.6339
209 2 31.3866 19.1163 15.8542
210 2 35.6303 19.3186 15.8715
211 2 39.6748 19.525 0.00366573
212 2 43.5451 19.389 15.9846
213 2 47.6295 19.4776 15.8313
214 2 51.5748 19.6083 0.0365475
215 2 55.4184 19.4732 15.9563
216 2 59.4571 19.6879 15.8688
217 2 63.5324 19.9342 15.9125
218 2 67.5429 19.7923 16.0804
219 2 71.5002 20.1878 0.0642082
220 2 75.6255 20.0732 0.124349
221 2 79.4867 19.9723 0.319483
222 2 83.5244 19.9297 15.853
223 2 87.5727 19.9966 0.206153
224 2 91.5294 20.1105 0.0679062
225 2 95.3989 19.8853 15.9533
226 2 99.4456 19.8109 15.9447
227 2 103.361 19.8991 15.9753
228 2 107.216 19.6145 15.8928
229 2 111.022 19.7417 0.183919
230 2 115.098 19.7534 15.7705
231 2 118.961 19.4171 15.9348
232 2 122.824 19.5391 15.9069
233 2 126.925 19.5232 15.7065
234 2 130.8 19.3343 15.865
235 2 134.556 19.4981 0.28416
236 2 138.572 19.5172 16.1495
237 2 142.522 19.338 16.0577
238 2 146.443 19.2087 0.11432
239 2 150.212 19.2614 15.8776
240 2 154.144 19.1589 0.239244
241 2 158.129 23.2389 15.974
242 2 3.79138 23.0927 15.9148
243 2 7.48755 23.0124 0.307841
244 2 11.5521 23.0326 0.23108
245 2 15.4713 22.8993 15.6371
246 2 19.422 22.9351 15.8807
247 2 23.5491 23.2342 15.7637
248 2 27.5874 23.1221 15.8455
249 2 31.5636 23.1352 -0.0333255
250 2 35.7173 23.2134 16.0095
251 2 39.6038 23.2911 0.0663177
252 2 43.6852 23.3528 15.8661
253 2 47.6948 23.3376 0.031876
254 2 51.6293 23.5521 0.112794
255 2 55.3535 23.4427 0.0482779
256 2 59.5141 23.7027 16.039
257 2 63.487 23.6434 -0.091414
258 2 67.5957 23.7876 15.9437
259 2 71.6652 23.9084 15.95
260 2 75.6197 23.8682 0.143055
261 2 79.7822 23.9405 15.8185
262 2 83.5162 23.9372 0.238459
263 2 87.5499 24.0848 15.8707
264 2 91.7906 23.887 16.0681
265 2 95.4561 24.0414 15.8436
266 2 99.5487 23.9744 0.176151
267 2 103.331 23.9878 16.0505
268 2 107.316 23.7952 16.0282
269 2 111.237 23.5961 0.342079
270 2 115.096 23.7647 15.9841
271 2 119.058 23.5357 16.1237
272 2 123.014 23.5839 0.147819
273 2 126.882 23.3723 15.9199
274 2 130.802 23.4409 15.8803
275 2 134.777 23.2504 16.0624
276 2 138.727 23.3186 15.933
277 2 142.529 23.3393 16.0556
278 2 146.382 23.2934 0.146606
279 2 150.357 23.4184 0.0991936
280 2 154.111 23.2564 0.217211
281 2 158.224 27.0837 0.102675
282 2 3.84794 27.0276 0.264366
283 2 7.77405 26.8785 0.229547
284 2 11.5149 27.0474 15.7446
285 2 15.522 27.0234 15.9892
286 2 19.3036 26.9287 0.079733
287 2 23.3111 27.1143 15.7711
288 2 27.6361 27.0622 15.9438
289 2 31.59 27.0689 0.0232751
290 2 35.5759 27.1245 0.219493
291 2 39.5756 27.0495 0.0554259
292 2 43.4652 27.3397 0.257601
293 2 47.4392 27.2221 0.131081
294 2 51.5414 27.5538 15.9972
295 2 55.6381 27.5032 0.242318
296 2 59.6076 27.5497 16.068
297 2 63.61 27.6881 16.1129
298 2 67.8126 27.8046 15.8137
299 2 71.687 27.8621 15.7098
300 2 75.5329 27.8041 -0.0396058
301 2 79.6593 27.8534 0.121786
302 2 83.596 27.825 15.8133
303 2 87.6194 27.7769 0.163033
304 2 91.7711 27.9245 0.165402
305 2 95.7302 27.9658 0.182085
306 2 99.4129 27.9346 0.252252
307 2 103.506 27.8572 16.144
308 2 107.419 27.7946 0.166369
309 2 111.293 27.6075 16.0795
310 2 115.123 27.7542 15.9038
311 2 118.907 27.4757 0.310435
312 2 122.849 27.5868 0.269318
313 2 126.971 27.4673 15.8295
314 2 130.817 27.5249 15.9412
315 2 134.725 27.3856 15.9047
316 2 138.672 27.3604 16.0792
317 2 142.438 27.2415 0.187566
318 2 146.614 27.2727 0.3533
319 2 150.262 27.2652 0.191344
320 2 154.231 27.1809 0.0775611
321 2 158.265 31.0144 16.0939
322 2 3.6895 31.1692 16.2397
323 2 7.55702 31.0046 15.8559
324 2 11.6223 30.9838 0.270676
325 2 15.5168 30.8773 0.0661788
326 2 19.2532 31.1179 15.9435
327 2 23.3178 30.8962 15.7234
328 2 27.3926 30.8558 -0.146343
329 2 31.3743 30.8339 15.7
330 2 35.5687 31.1469 15.8981
331 2 39.4858 31.1199 15.9408
332 2 43.4671 31.0847 0.115058
333 2 47.4152 31.0148 15.7058
334 2 51.5333 31.5862 0.214864
335 2 55.5476 31.2401 16.048
336 2 59.6152 31.5114 0.328363
337 2 63.7141 31.3984 16.0005
338 2 67.5067 31.6119 0.203756
339 2 71.4635 31.6964 0.0112353
340 2 75.4996 31.8182 0.0923654
341 2 79.5608 31.8529 16.039
342 2 83.5021 31.7208 0.0732476
343 2 87.6128 31.9261 15.8548
344 2 91.5425 31.8923 15.7626
345 2 95.595 31.9026 15.7523
346 2 99.6116 31.7712 0.14981
347 2 103.334 31.8441 16.0208
348 2 107.359 31.7559 16.1003
349 2 111.113 31.5173 15.8004
350 2 115.015 31.6403 15.9356
351 2 118.89 31.4522 15.8713
352 2 123.088 31.598 16.0001
353 2 126.834 31.6758 15.917
354 2 130.705 31.6388 16.0336
355 2 134.499 31.351 15.9908
356 2 138.469 31.4227 16.0801
357 2 142.383 31.3606 0.234626
358 2 146.456 31.3959 16.1373
359 2 150.454 31.0939 0.256284
360 2 154.323 31.1434 0.164606
361 2 0.104083 35.1425 0.149724
362 2 3.878 34.9307 15.9976
363 2 7.74739 35.0699 16.1483
364 2 11.5544 35.11 15.989
365 2 15.5247 34.9872 0.210352
366 2 19.3798 34.8262 0.0892864
367 2 23.3359 34.9968 0.0588265
368 2 27.3985 34.8741 0.21135
369 2 31.3758 34.9009 0.255484
370 2 35.4895 34.8976 0.0391861
371 2 39.3071 35.1002 0.0879442
372 2 43.3459 34.9634 16.0126
373 2 47.3779 34.9703 15.8605
374 2 51.5619 35.2756 15.9453
375 2 55.6222 35.503 0.308678
376 2 59.6136 35.2245 0.0705621
377 2 63.5254 35.4218 16.0101
378 2 67.5223 35.5084 0.14071
379 2 71.4293 35.5642 0.152617
380 2 75.1935 35.6065 15.8673
381 2 79.5209 35.7047 0.121886
382 2 83.4999 35.7936 16.1944
383 2 87.4907 35.8553 0.249755
384 2 91.4505 35.7673 0.00987667
385 2 95.5644 35.8935 15.8656
386 2 99.3491 35.7912 0.246776
387 2 103.332 35.764 15.8801
388 2 107.335 35.5504 16.0496
389 2 111.248 35.6861 15.9627
390 2 115.289 35.6436 15.9539
391 2 119.067 35.5823 16.0561
392 2 123.173 35.6551 16.045
393 2 126.864 35.473 16.0561
394 2 130.854 35.477 16.0506
395 2 134.615 35.4396 16.0609
396 2 138.533 35.3686 -0.00356961
397 2 142.476 35.3624 0.211674
398 2 146.471 35.2531 0.336114
399 2 150.407 35.0877 16.1008
400 2 154.412 35.1993 0.18029
401 2 158.319 39.0265 0.237717
402 2 4.06057 39.0362 0.196025
403 2 7.89497 39.1413 0.0326776
404 2 11.6931 38.9985 15.9607
405 2 15.6268 38.9895 0.150044
406 2 19.6506 38.9957 15.9444
407 2 23.5279 38.9117 15.8631
408 2 27.5652 38.9256 16.0427
409 2 31.4155 38.8189 0.31825
410 2 35.3817 38.9317 0.180221
411 2 39.31 38.8242 15.9447
412 2 43.3245 38.9575 0.399415
413 2 47.3285 39.1454 0.480234
414 2 51.2799 39.2544 16.1878
415 2 55.3665 39.4084 0.26747
416 2 59.4287 39.3075 0.167014
417 2 63.3096 39.2238 -0.000938455
418 2 67.3429 39.2734 -0.00903465
419 2 71.323 39.6608 0.298755
420 2 75.3722 39.4735 0.180094
421 2 79.4016 39.7449 0.0523697
422 2 83.5464 39.6955 15.7689
423 2 87.4149 39.6551 15.7692
424 2 91.5429 39.7919 15.9715
425 2 95.5184 39.7111 15.8577
426 2 99.5462 39.7521 0.0928143
427 2 103.488 39.715 15.8505
428 2 107.347 39.9375 15.936
429 2 111.216 39.6863 15.8958
430 2 115.191 39.6852 15.6855
431 2 119.233 39.6238 15.9377
432 2 123.057 39.443 16.1442
433 2 126.905 39.4352 0.184168
434 2 130.773 39.4116 16.0043
435 2 134.663 39.6795 16.0695
436 2 138.813 39.3347 15.8938
437 2 142.728 39.1998 15.9251
438 2 146.506 39.1961 0.180475
439 2 150.604 39.4527 16.0857
440 2 154.483 39.275 16.0702
441 2 158.313 42.9521 0.360324
442 2 4.02522 43.1595 15.9503
443 2 7.66891 43.0131 16.0006
444 2 11.7215 43.0099 0.17175
445 2 15.6998 43.0587 0.0754271
446 2 19.5807 43.07 0.216886
447 2 23.4662 42.7085 16.0018
448 2 27.4644 42.6398 15.9836
449 2 31.438 42.7802 0.226996
450 2 35.4307 42.8517 0.187301
451 2 39.2432 42.7397 0.197628
452 2 43.0575 42.8675 0.344101
453 2 47.1434 43.1587 16.0299
454 2 51.3647 43.1133 16.1456
455 2 55.2791 43.1325 0.325454
456 2 59.4609 43.1706 15.9311
457 2 63.335 43.2726 0.226406
458 2 67.4905 43.3851 0.137751
459 2 71.3077 43.4302 0.137953
460 2 75.4589 43.4581 0.124914
461 2 79.5136 43.5285 0.201533
462 2 83.5307 43.4969 15.8694
463 2 87.3623 43.696 16.0742
464 2 91.2448 43.6936 0.229096
465 2 95.3022 43.619 0.35786
466 2 99.4815 43.7825 15.8942
467 2 103.593 43.6263 15.9891
468 2 107.44 43.8336 15.9945
469 2 111.336 43.9834 16.155
470 2 115.077 43.5787 16.0152
471 2 119.199 43.7006 15.8819
472 2 123.135 43.6165 16.0646
473 2 127.009 43.4787 0.0399745
474 2 130.885 43.5046 0.288091
475 2 134.667 43.4499 15.975
476 2 138.752 43.3573 15.9487
477 2 142.783 43.398 16.1155
478 2 146.533 42.9672 0.379951
479 2 150.57 43.2793 0.306504
480 2 154.621 43.2661 0.281837
481 2 -0.120813 47.1576 0.306653
482 2 3.92645 47.0945 0.30212
483 2 7.84172 46.9928 0.280226
484 2 11.8538 46.8701 0.00226886
485 2 15.4819 46.9833 0.118501
486 2 19.6156 46.8002 0.288378
487 2 23.4669 46.8684 0.246298
488 2 27.5382 46.6956 15.9219
489 2 31.474 46.663 0.287257
490 2 35.3691 46.596 -0.139543
491 2 39.3303 46.8029 15.9384
492 2 43.3622 46.87 16.0744
493 2 47.2217 46.9902 0.109506
494 2 51.2193 46.8912 15.9458
495 2 55.1262 47.1435 15.8542
496 2 59.225 47.0708 16.0822
497 2 63.3683 47.2675 0.276689
498 2 67.4478 47.362 0.210931
499 2 71.2966 47.3048 16.1091
500 2 75.4473 47.3499 0.11949
501 2 79.4737 47.3578 15.9823
502 2 83.3231 47.2192 16.0678
503 2 87.2149 47.4604 0.249745
504 2 91.3736 47.5705 0.190678
505 2 95.2537 47.6004 0.169256
506 2 99.1047 47.6405 0.329418
507 2 103.343 47.6895 0.355104
508 2 107.466 47.6618 15.8509
509 2 111.417 47.8111 16.0733
510 2 115.382 47.6531 0.16808
511 2 119.199 47.4834 16.1111
512 2 123.237 47.4539 15.9066
513 2 126.969 47.4764 15.9211
514 2 131.022 47.3758 15.9268
515 2 134.767 47.3051 15.9575
516 2 138.639 47.2389 15.9581
517 2 142.897 47.4131 16.1614
518 2 146.788 47.3249 -0.0641393
519 2 150.553 47.1918 0.193873
520 2 154.429 47.122 16.0951
521 2 158.294 50.9727 0.211823
522 2 4.13804 51.0647 15.8879
523 2 7.98494 50.9896 15.7889
524 2 11.8713 50.8946 16.003
525 2 15.744 51.1347 0.110895
526 2 19.5944 50.8511 15.7461
527 2 23.5794 51.0444 16.0897
528 2 27.5971 50.5137 16.0559
529 2 31.3427 50.4822 0.0325186
530 2 35.2778 50.577 0.279826
531 2 39.3607 50.729 15.8769
532 2 43.209 50.6462 16.0468
533 2 47.1733 50.8819 0.346991
534 2 51.2347 50.8543 0.224354
535 2 55.229 50.8034 0.144723
536 2 59.3535 50.8463 15.8946
537 2 63.1066 50.9193 16.121
538 2 67.4741 51.2717 0.0717668
539 2 71.3708 51.2289 0.214222
540 2 75.4155 51.2823 -0.00513611
541 2 79.349 51.2921 0.168197
542 2 83.3077 51.3636 0.318232
543 2 87.2132 51.4862 0.14864
544 2 91.1375 51.5088 0.0891111
545 2 95.347 51.5704 0.145388
546 2 99.4261 51.578 0.156341
547 2 103.303 51.6261 15.8774
548 2 107.37 51.6374 0.208569
549 2 111.49 51.7162 0.19101
550 2 115.28 51.7396 16.1145
551 2 119.333 51.4289 15.8836
552 2 123.057 51.3668 15.9606
553 2 127.016 51.4177 15.858
554 2 130.987 51.4763 0.0679066
555 2 134.749 51.391 0.171233
556 2 138.778 51.3485 0.0772896
557 2 142.705 51.2923 0.315985
558 2 146.831 51.3492 16.0284
559 2 150.548 51.1562 0.230302
560 2 154.548 51.2605 0.0665344
561 2 158.437 55.0637 0.202682
562 2 4.02452 55.0883 0.236785
563 2 7.81264 55.1339 0.0505858
564 2 11.6469 54.9133 0.00334696
565 2 15.5937 54.9766 0.0395331
566 2 19.9203 55.0966 15.8219
567 2 23.5004 54.8266 15.999
568 2 27.5789 54.7198 16.0239
569 2 31.4617 54.8279 0.354324
570 2 35.3375 54.5196 0.130872
571 2 39.2841 54.5665 15.9273
572 2 43.043 54.7729 15.8117
573 2 47.1093 54.7935 0.0359065
574 2 51.1982 54.7665 15.8104
575 2 55.1961 54.7679 15.8507
576 2 59.2868 54.8577 16.0435
577 2 63.2039 54.7411 16.0442
578 2 67.2495 54.9772 0.216628
579 2 71.2083 55.076 0.0420954
580 2 75.1841 55.2431 15.9886
581 2 79.3394 55.3122 0.0373638
582 2 83.2462 55.1846 0.102104
583 2 87.206 55.3432 0.0510671
584 2 91.2023 55.4247 15.7963
585 2 95.3018 55.3963 0.138014
586 2 99.1467 55.4443 15.9566
587 2 103.23 55.4557 15.7641
588 2 107.429 55.5204 0.138421
589 2 111.356 55.4365 15.9419
590 2 115.184 55.4895 16.0231
591 2 119.319 55.5688 15.8253
592 2 123.1 55.7337 0.00664868
593 2 127.208 55.3875 15.8803
594 2 130.868 55.2906 15.9531
595 2 134.768 55.3244 0.1916
596 2 138.756 55.3051 15.7617
597 2 142.757 55.2066 0.100693
598 2 146.62 55.2213 0.284913
599 2 150.534 55.2441 0.34399
600 2 154.4 55.2791 15.907
601 2 158.404 59.0209 0.263241
602 2 3.9406 58.9012 16.0885
603 2 7.79328 59.0358 16.033
604 2 11.7867 59.0088 0.35393
605 2 15.5482 59.0958 15.8225
606 2 19.6732 58.8365 0.187001
607 2 23.5324 58.806 0.0394512
608 2 27.528 58.6707 0.0551772
609 2 31.5467 58.6237 15.8689
610 2 35.4615 58.6061 15.9938
611 2 39.5143 58.6092 16.0563
612 2 43.3345 58.6673 15.9041
613 2 47.1272 58.6733 15.9127
614 2 51.1398 58.7339 16.0841
615 2 54.9939 58.6399 16.1038
616 2 59.1455 58.5891 0.216729
617 2 63.1418 58.8591 15.9743
618 2 67.1862 58.9841 0.165802
619 2 71.4063 58.9181 15.7494
620 2 75.249 59.0774 0.154749
621 2 79.2727 59.1791 0.327418
622 2 83.1271 59.1633 0.0304038
623 2 87.1428 59.2307 15.9919
624 2 91.2274 59.1959 15.9401
625 2 95.088 59.3387 -0.00837969
626 2 99.1911 59.4107 0.0380633
627 2 103.029 59.4567 16.1051
628 2 107.217 59.2638 -0.00335795
629 2 111.214 59.614 15.9228
630 2 115.376 59.5073 15.845
631 2 119.243 59.3911 15.8066
632 2 123.027 59.7209 0.1723
633 2 127.014 59.3076 15.8124
634 2 130.827 59.2888 0.201572
635 2 134.879 59.4356 15.615
636 2 138.688 59.137 0.18722
637 2 142.831 59.206 0.148524
638 2 146.623 59.2635 0.114617
639 2 150.627 58.9881 15.682
640 2 154.441 59.2095 0.420053
641 2 -0.0834074 63.3437 0.253387
642 2 3.94471 62.8839 0.124893
643 2 7.90656 62.8608 15.8769
644 2 11.7368 62.8602 15.9351
645 2 15.5941 62.9164 15.9883
646 2 19.7503 63.0356 0.149899
647 2 23.5714 62.7275 0.180656
648 2 27.5442 62.701 0.212625
649 2 31.518 62.6407 0.165355
650 2 35.3814 62.6782 0.254745
651 2 39.3527 62.6212 15.9563
652 2 43.1166 62.6235 0.103582
653 2 47.2917 62.6078 15.9435
654 2 51.1192 62.6509 15.8207
655 2 55.1545 62.7266 0.25579
656 2 59.0785 62.5769 16.0253
657 2 63.0025 62.9562 0.063861
658 2 67.2486 62.8725 15.87
659 2 71.3068 62.7115 -0.0930394
660 2 75.0165 62.9555 -0.0294677
661 2 79.2047 62.8547 0.283006
662 2 83.0552 63.0081 0.110486
663 2 87.1123 63.0048 15.971
664 2 91.3548 63.1787 15.874
665 2 95.1226 63.1853 0.102623
666 2 99.2008 63.1558 -0.0406324
667 2 103.167 63.3944 15.9414
668 2 107.219 63.378 15.8627
669 2 111.165 63.4852 15.9283
670 2 115.273 63.311 0.206537
671 2 119.332 63.1955 15.8468
672 2 123.32 63.297 0.105621
673 2 126.913 63.3343 15.8598
674 2 131.064 63.2677 0.094669
675 2 135.048 63.399 15.6841
676 2 139.048 63.1992 15.7626
677 2 142.825 63.3113 15.8925
678 2 146.822 63.2399 0.171013
679 2 150.684 63.1324 15.7152
680 2 154.383 63.0784 0.366634
681 2 -0.0206263 66.9664 0.061722
682 2 3.98 66.9244 0.116515
683 2 7.82009 66.9665 16.1464
684 2 11.7462 66.792 16.0897
685 2 15.8743 66.9044 0.204169
686 2 19.7863 66.8256 0.0757298
687 2 23.7136 66.7909 0.281479
688 2 27.5151 66.8434 0.173579
689 2 31.3856 66.7776 0.200396
690 2 35.386 66.708 0.0565325
691 2 39.4748 66.6232 15.9937
692 2 43.2955 66.6253 0.0906615
693 2 47.2207 66.5127 15.8138
694 2 51.0816 66.5725 15.7087
695 2 54.8875 66.4023 15.8607
696 2 58.9419 66.58 15.9322
697 2 63.0255 66.5808 15.7295
698 2 67.0205 66.8669 15.8936
699 2 71.2021 66.9027 -0.0415605
700 2 75.1222 66.9429 16.0405
701 2 78.9125 66.9315 15.7381
702 2 82.9758 66.9965 0.146504
703 2 87.1656 67.0704 15.8301
704 2 90.9772 67.0419 15.71
705 2 95.2089 67.0692 0.0433145
706 2 99.0058 67.1585 0.173165
707 2 103.053 67.2597 0.0812967
708 2 107.004 67.3239 15.9117
709 2 111.047 67.2611 15.9128
710 2 115.114 67.155 15.9318
711 2 118.96 67.2073 0.226296
712 2 123.138 67.221 0.0328938
713 2 127.03 67.2861 0.0592175
714 2 131.002 67.3516 15.6763
715 2 135.129 67.3105 -0.0146645
716 2 138.983 67.3459 0.177625
717 2 142.851 67.2234 16.29
718 2 146.651 67.1671 15.8858
719 2 150.483 67.1706 15.7937
720 2 154.476 67.0508 0.0778444
721 2 0.164456 71.2071 0.387946
722 2 3.86027 71.1983 15.9852
723 2 8.03502 70.8953 0.28702
724 2 11.8963 71.0107 15.9815
725 2 15.9549 70.7902 0.120055
726 2 19.707 70.7782 0.292106
727 2 23.7622 70.7403 0.147066
728 2 27.7611 70.8175 15.993
729 2 31.8139 70.8257 -0.0272231
730 2 35.4983 70.6657 0.00709917
731 2 39.2773 70.5691 15.9774
732 2 43.4685 70.5671 0.111625
733 2 47.2031 70.5351 15.9542
734 2 50.9943 70.6194 16.2138
735 2 54.8902 70.3913 0.268272
736 2 58.9491 70.5408 0.231929
737 2 62.7887 70.4382 0.0434596
738 2 66.959 70.6967 15.8116
739 2 70.9496 70.7592 15.8703
740 2 74.9225 70.7786 15.9257
741 2 79.0041 70.824 0.31172
742 2 82.9262 70.999 0.120531
743 2 87.0175 70.8519 15.7449
744 2 91.0671 71.0519 15.881
745 2 94.9789 71.1707 15.8562
746 2 99.0894 70.991 15.7334
747 2 102.964 71.1608 15.8067
748 2 106.945 71.1608 16.0214
749 2 111.056 71.107 15.7884
750 2 114.964 71.2027 0.164919
751 2 119.075 71.3036 16.0072
752 2 122.915 71.256 0.185037
753 2 126.921 71.2046 15.9114
754 2 131.181 71.3555 15.8513
755 2 134.93 71.3492 15.9181
756 2 139.058 71.3813 15.8916
757 2 142.921 71.2188 0.152347
758 2 146.835 71.1422 -0.0437113
759 2 150.664 71.3101 0.153193
760 2 154.467 71.0957 15.9753
761 2 0.0600308 74.9672 0.132377
762 2 4.09474 75.0819 16.0559
763 2 8.07688 74.9081 15.8643
764 2 11.8337 74.9983 16.0905
765 2 15.8494 75.0171 15.9811
766 2 19.8653 74.7778 16.0388
767 2 23.7029 74.7269 15.7363
768 2 27.533 74.7685 16.0175
769 2 31.6638 74.7041 0.217843
770 2 35.7138 74.7089 15.7988
771 2 39.4504 74.751 15.9139
772 2 43.4644 74.6167 0.0934075
773 2 47.196 74.522 16.0297
774 2 51.1332 74.4987 0.0763838
775 2 55.0198 74.3715 15.7231
776 2 58.8368 74.4321 15.9477
777 2 62.8377 74.4173 16.0998
778 2 66.8373 74.4629 0.182386
779 2 70.9091 74.6429 0.30948
780 2 74.7601 74.5507 0.2857
781 2 78.9271 74.8324 0.0349481
782 2 82.9786 74.9186 0.130754
783 2 86.9014 74.7692 0.0999516
784 2 90.9295 74.9789 15.6611
785 2 94.864 75.0181 15.5815
786 2 98.8099 74.9636 -0.0841847
787 2 102.817 75.2046 16.1084
788 2 106.771 74.9949 15.8459
789 2 110.943 75.261 15.8167
790 2 115.126 75.2453 16.0093
791 2 119.103 75.2677 0.176044
792 2 122.979 75.1637 16.1252
793 2 127.029 75.2769 16.0978
794 2 130.824 75.2638 0.324642
795 2 134.874 75.3271 15.7787
796 2 138.895 75.1572 15.8643
797 2 142.59 75.1499 15.9733
798 2 146.688 75.2557 16.128
799 2 150.745 75.2743 -0.106164
800 2 154.513 75.0752 0.0013936
801 2 0.255947 79.0019 0.0695348
802 2 4.22729 79.1367 15.7497
803 2 8.02146 78.8096 0.130461
804 2 12.0149 78.8387 0.139778
805 2 15.8579 78.8775 15.9486
806 2 19.7812 78.8286 16.0625
807 2 23.7152 78.7502 0.286261
808 2 27.4535 78.8105 0.185968
809 2 31.522 78.7387 0.149113
810 2 35.4965 78.5736 0.151051
811 2 39.4828 78.4301 16.0363
812 2 43.3598 78.6461 16.0034
813 2 47.1278 78.4658 16.0266
814 2 51.189 78.6242 0.180466
815 2 54.9485 78.5453 0.0603424
816 2 58.9249 78.493 16.0119
817 2 62.9314 78.5426 15.9265
818 2 67.0213 78.5534 0.25527
819 2 70.7821 78.5209 15.8106
820 2 74.7609 78.5759 0.201787
821 2 78.8458 78.6933 15.9134
822 2 82.7737 78.8956 16.0983
823 2 86.9979 78.8799 0.240784
824 2 90.8414 78.695 0.0947378
825 2 94.7139 78.9103 -0.0601603
826 2 98.7181 78.6848 15.8683
827 2 102.898 78.9896 15.8933
828 2 106.804 79.0065 0.2861
829 2 110.884 79.0603 0.154491
830 2 115.007 79.0479 0.082527
831 2 118.861 79.0268 0.322538
832 2 123.122 79.1047 15.927
833 2 126.902 79.2412 0.180554
834 2 130.931 79.0473 15.8965
835 2 134.925 79.3189 0.232348
836 2 138.944 79.0591 15.815
837 2 142.984 79.328 15.8849
838 2 146.628 79.0707 15.7936
839 2 150.701 79.1565 15.6783
840 2 154.665 79.041 0.290969
841 2 0.110016 82.9806 15.9681
842 2 4.21815 83.0645 15.7643
843 2 8.3029 82.9488 -0.100837
844 2 12.1262 82.8505 15.8732
845 2 15.9641 82.6626 15.8455
846 2 19.7144 82.7045 0.0514084
847 2 23.6562 82.7644 15.9468
848 2 27.5338 82.6786 0.24969
849 2 31.4291 82.5517 15.8883
850 2 35.5422 82.6244 0.345864
851 2 39.3605 82.5743 0.0787544
852 2 43.1888 82.6338 15.7993
853 2 47.1805 82.5457 -0.0262574
854 2 51.2071 82.4216 0.115669
855 2 55.1551 82.4288 0.0254939
856 2 58.9739 82.398 15.8887
857 2 62.9688 82.3859 15.8917
858 2 66.7281 82.4966 15.8306
859 2 70.7197 82.4769 15.9587
860 2 74.6836 82.466 16.1136
861 2 78.6892 82.7989 15.9336
862 2 82.7761 82.6688 0.213373
863 2 86.8501 82.9491 0.185844
864 2 90.867 82.6251 15.9296
865 2 94.962 83.0315 0.0590971
866 2 98.8631 82.71 16.0669
867 2 102.828 82.7428 0.0865299
868 2 106.794 82.8543 15.909
869 2 110.935 83.0518 16.0113
870 2 114.837 82.9225 16.0097
871 2 118.963 82.9118 16.06
872 2 122.945 83.1058 15.989
873 2 126.957 83.1133 15.8276
874 2 130.872 83.0397 16.0148
875 2 135.008 83.2414 0.133999
876 2 138.78 83.1773 15.9612
877 2 142.775 83.1988 -0.07012
878 2 146.8 83.148 15.9914
879 2 150.743 82.9774 0.0807369
880 2 154.703 83.2169 0.247649
881 2 0.238726 87.1736 15.8594
882 2 4.09895 87.0109 0.139726
883 2 8.02494 87.0629 15.8371
884 2 11.955 86.928 15.8604
885 2 15.923 86.9223 15.6744
886 2 19.8575 86.8729 15.8843
887 2 23.7551 86.6735 16.0081
888 2 27.6283 86.7799 -0.144673
889 2 31.7444 86.686 15.8671
890 2 35.5184 86.6064 0.112314
891 2 39.3591 86.6466 15.8175
892 2 43.2154 86.4284 15.7559
893 2 47.0901 86.5092 15.7458
894 2 51.2247 86.6221 15.7147
895 2 55.1077 86.6018 15.8743
896 2 59.0127 86.4799 0.0232966
897 2 63.0479 86.4522 0.177473
898 2 66.6957 86.4645 15.8381
899 2 70.9018 86.5016 -0.0389194
900 2 74.5903 86.5736 15.9694
901 2 78.6719 86.6588 0.235223
902 2 82.764 86.4999 0.274925
903 2 86.6916 86.6027 16.0315
904 2 90.9088 86.5583 16.0505
905 2 94.825 86.7027 15.9314
906 2 98.9091 86.7846 15.7131
907 2 102.889 86.7235 -0.137023
908 2 106.821 86.7916 0.0375145
909 2 110.727 86.9027 15.9786
910 2 114.733 86.9358 0.313759
911 2 118.846 86.9654 0.237903
912 2 122.716 87.112 0.181537
913 2 126.926 86.9851 16.0622
914 2 130.842 86.8421 15.8393
915 2 134.821 87.1768 16.0793
916 2 138.826 87.178 15.7861
917 2 142.833 86.992 15.7461
918 2 146.953 87.1104 0.107753
919 2 150.821 87.1025 15.8226
920 2 154.556 87.3264 15.7758
921 2 0.327516 90.9938 0.151254
922 2 4.43405 91.0355 -0.0788024
923 2 8.09352 91.0794 15.9182
924 2 11.7692 91.0737 15.828
925 2 15.7488 91.1467 -0.0892464
926 2 20.0534 90.8931 0.195044
927 2 23.851 90.8304 15.8787
928 2 27.5737 90.6971 15.7545
929 2 31.6962 90.7216 15.831
930 2 35.4571 90.7532 0.0740012
931 2 39.4356 90.4978 15.9501
932 2 43.1919 90.6393 15.8
933 2 47.128 90.4186 0.167628
934 2 51.0734 90.4979 -0.0521689
935 2 55.0068 90.5768 0.201423
936 2 59.1614 90.5207 0.25607
937 2 62.996 90.6569 0.352029
938 2 66.754 90.4913 15.9089
939 2 70.7529 90.256 16.0082
940 2 74.7711 90.337 0.181942
941 2 78.7511 90.4297 0.0777981
942 2 82.6323 90.4994 -0.0971468
943 2 86.7085 90.4936 0.00662684
944 2 90.7821 90.5451 0.105528
945 2 94.8635 90.752 15.761
946 2 98.72 90.7324 16.1883
947 2 102.832 90.7769 0.0861708
948 2 106.708 90.644 15.7945
949 2 110.949 90.8934 15.8549
950 2 114.693 90.9381 0.276435
951 2 118.824 90.7084 0.0727145
952 2 122.803 90.8126 15.9817
953 2 126.75 90.8604 0.355326
954 2 130.944 90.7803 0.0939152
955 2 134.939 90.8303 16.0625
956 2 138.928 91.1693 15.9565
957 2 143.031 90.9092 15.8451
958 2 146.868 90.9692 15.8394
959 2 150.899 90.9933 15.8461
960 2 154.885 91.0587 15.8387
961 2 0.35885 94.8531 0.133423
962 2 4.2425 94.9674 15.9644
963 2 8.18326 94.9445 16.0021
964 2 11.973 95.1262 15.6157
965 2 15.9368 94.9446 15.8378
966 2 19.9566 94.7754 15.8836
967 2 23.925 94.6844 15.7678
968 2 27.5954 94.8982 15.8048
969 2 31.5456 94.7645 15.6288
970 2 35.5681 94.7467 15.9039
971 2 39.4152 94.5717 15.6998
972 2 43.3875 94.703 15.6963
973 2 47.2727 94.4204 0.305601
974 2 51.2021 94.5211 16.0026
975 2 55.1251 94.4463 0.132169
976 2 58.9871 94.617 16.0291
977 2 62.8924 94.5087 0.169749
978 2 66.8492 94.4645 0.223361
979 2 70.9415 94.4698 0.0430135
980 2 74.7838 94.3487 -0.0107642
981 2 78.5158 94.4085 15.8646