ITEM: TIMESTEP
22100
ITEM: NUMBER OF ATOMS
32000
ITEM: BOX BOUNDS xy xz yz pp pp pp
0.0000000000000000e+00 1.5831999999999999e+02 0.0000000000000000e+00
0.0000000000000000e+00 1.5831999999999999e+02 0.0000000000000000e+00
1.6667596570362164e-01 1.5931036034296204e+01 0.0000000000000000e+00
ITEM: ATOMS id type x y z
1 2 158.187 157.689 15.7307
2 2 3.76953 157.627 15.9348
3 2 7.6892 157.831 0.0340341
4 2 11.6776 157.835 0.355368
5 2 15.8608 157.858 0.132546
6 2 19.7538 157.906 16.0105
7 2 23.9326 157.893 16.0083
8 2 27.9251 158.042 15.8967
9 2 32.0246 157.979 0.100676
10 2 35.7669 158.191 16.0027
11 2 39.7901 0.0572593 15.88
12 2 43.6171 0.0321512 0.314795
13 2 47.9057 0.129127 15.8279
14 2 51.8308 0.062267 0.148989
15 2 55.8981 158.358 0.0714228
16 2 59.9604 158.467 16.0034
17 2 63.8073 0.423783 15.9929
18 2 67.6726 0.292226 15.8573
19 2 71.598 0.351421 15.8836
20 2 75.858 158.406 15.9036
21 2 79.7343 -0.00390767 16.0079
22 2 83.5457 158.526 15.9196
23 2 87.393 158.408 16.1802
24 2 91.1446 158.231 0.0872703
25 2 95.1337 158.302 15.6231
26 2 99.0855 158.27 15.8248
27 2 103.122 158.171 15.9799
28 2 106.968 157.976 15.9684
29 2 110.782 158.063 0.317725
30 2 114.654 157.82 0.271743
31 2 118.596 157.816 15.9616
32 2 122.598 157.953 0.14545
33 2 126.517 157.719 0.203275
34 2 130.467 157.629 -0.0567765
35 2 134.276 157.535 15.8334
36 2 138.263 157.511 15.9467
37 2 142.105 157.685 16.0677
38 2 146.244 157.599 15.9476
39 2 149.922 157.585 0.207316
40 2 154.094 157.693 0.160943
41 2 158.014 3.24976 15.9236
42 2 3.65843 3.2266 15.9544
43 2 7.51425 3.1892 0.0859969
44 2 11.5741 3.25507 15.8726
45 2 15.7353 3.46342 15.8633
46 2 19.791 3.78719 15.8988
47 2 23.8204 3.66182 0.00334659
48 2 27.7783 3.69289 0.214657
49 2 31.704 3.54695 0.0345771
50 2 35.7595 3.72475 0.0433359
51 2 39.6993 3.78132 0.212228
52 2 43.6904 3.8341 15.7705
53 2 47.9321 3.95316 15.9619
54 2 51.7995 3.93365 15.7763
55 2 55.7524 3.96251 0.326831
56 2 59.7268 4.12049 15.8626
57 2 63.7718 4.23793 16.1267
58 2 67.8415 4.306 16.0275
59 2 71.6896 4.17723 15.9257
60 2 75.7003 4.19189 15.8128
61 2 79.5497 4.21723 16.0145
62 2 83.6195 4.25582 15.8187
63 2 87.3906 4.16977 16.0077
64 2 91.2927 4.04132 0.12244
65 2 95.1593 3.99054 15.9649
66 2 99.1732 3.97247 0.0480511
67 2 103.199 3.79667 15.89
68 2 107.065 3.69362 15.9792
69 2 110.82 3.7989 0.162509
70 2 114.785 3.77099 0.0186353
71 2 118.665 3.54359 0.0891019
72 2 122.566 3.5843 0.232768
73 2 126.616 3.44329 0.144356
74 2 130.547 3.40365 0.35274
75 2 134.389 3.42145 16.0541
76 2 138.425 3.33753 0.571627
77 2 142.239 3.23546 0.261835
78 2 145.987 3.24427 0.4411
79 2 150.07 3.21513 16.0967
80 2 153.972 3.22271 16.0467
81 2 157.949 7.13064 16.1516
82 2 3.74019 7.14923 16.139
83 2 7.73923 7.10019 15.8198
84 2 11.8098 7.20991 0.21755
85 2 15.6717 7.36805 15.9152
86 2 19.6445 7.43511 15.8494
87 2 23.7945 7.51972 -0.122339
88 2 27.7962 7.61141 15.8346
89 2 31.7366 7.69377 15.7389
90 2 35.8263 7.7429 15.7821
91 2 39.7205 7.77141 -0.0218076
92 2 43.8282 7.77173 0.154604
93 2 47.885 7.68347 15.9995
94 2 51.6822 7.62869 0.0991139
95 2 55.6364 7.85986 16.0471
96 2 59.546 7.9665 0.344368
97 2 63.7385 8.24511 16.147
98 2 67.6956 8.017 15.8023
99 2 71.8109 8.12221 16.0877
100 2 75.8725 8.27536 15.9739
101 2 79.5727 8.00055 0.152176
102 2 83.4348 8.14649 15.9982
103 2 87.5559 7.99751 15.9434
104 2 91.3724 8.08437 15.9221
105 2 95.3342 7.95175 15.8002
106 2 99.2682 7.90863 0.146378
107 2 103.002 7.83897 0.276671
108 2 107.08 7.81391 15.9096
109 2 110.98 7.72411 0.0976264
110 2 114.704 7.68447 15.9723
111 2 118.771 7.63175 15.9649
112 2 122.568 7.53651 15.8058
113 2 126.666 7.61324 16.1069
114 2 130.397 7.34887 0.340508
115 2 134.412 7.39226 0.221167
116 2 138.497 7.40125 15.9993
117 2 142.486 7.16067 15.8862
118 2 146.352 7.28374 0.330269
119 2 150.158 7.1867 0.503821
120 2 153.987 7.03447 15.9764
121 2 158.152 11.1428 16.1665
122 2 3.71241 11.1071 16.1692
123 2 7.67077 11.1165 15.8545
124 2 11.6692 11.234 0.32817
125 2 15.4852 11.3288 15.8457
126 2 19.5262 11.4067 16.0984
127 2 23.7503 11.2755 15.8533
128 2 27.7931 11.5129 15.91
129 2 31.5502 11.5347 15.8209
130 2 35.6858 11.6374 15.8732
131 2 39.6213 11.7289 15.9264
132 2 43.779 11.5712 0.153028
133 2 47.6335 11.8409 0.263296
134 2 51.7022 11.8662 15.8428
135 2 55.745 11.9027 0.291724
136 2 59.6587 11.7173 15.8378
137 2 63.6855 12.0392 0.449915
138 2 67.5423 12.0457 16.2236
139 2 71.6606 12.0349 15.958
140 2 75.7778 12.1652 15.9836
141 2 79.5335 12.1542 15.84
142 2 83.4142 12.0679 15.9049
143 2 87.3509 12.1657 -0.0491644
144 2 91.492 12.0191 0.00385093
145 2 95.505 11.8474 15.7881
146 2 99.4765 11.7702 15.8865
147 2 103.28 11.7069 0.130342
148 2 107.168 11.6793 16.0611
149 2 111.143 11.759 0.1388
150 2 114.972 11.675 15.8163
151 2 118.814 11.4358 0.115698
152 2 122.83 11.5503 0.0335018
153 2 126.648 11.4589 15.8488
154 2 130.583 11.5029 15.8439
155 2 134.563 11.2988 0.244967
156 2 138.381 11.2465 0.551527
157 2 142.462 11.2849 0.100167
158 2 146.311 11.2274 0.246062
159 2 150.054 11.097 0.257083
160 2 153.995 11.1594 0.330343
161 2 158.135 15.0426 15.9693
162 2 3.75639 15.122 15.9483
163 2 7.63297 15.0183 15.9187
164 2 11.7058 15.0899 15.9496
165 2 15.5506 15.2915 15.8067
166 2 19.5861 15.2451 0.0467858
167 2 23.404 15.4447 0.0872682
168 2 27.5779 15.3371 15.8857
169 2 31.5643 15.1907 -0.00667832
170 2 35.6051 15.3444 15.8362
171 2 39.5626 15.4718 0.0621436
172 2 43.7157 15.5303 0.0841719
173 2 47.7446 15.8302 0.123189
174 2 51.6495 15.9779 0.133562
175 2 55.5109 15.5792 15.8328
176 2 59.5391 15.8007 0.126111
177 2 63.4671 15.9501 15.8137
178 2 67.6058 16.0221 16.0237
179 2 71.623 15.7796 0.0768199
180 2 75.7675 16.2633 0.102967
181 2 79.6756 16.1998 15.7383
182 2 83.4073 15.9133 0.147182
183 2 87.4827 16.0697 15.8984
184 2 91.3479 16.03 0.302161
185 2 95.3293 15.8275 15.9893
186 2 99.283 15.6734 16.0685
187 2 102.93 15.8342 15.9247
188 2 106.964 15.9407 15.9283
189 2 111.161 15.7854 15.88
190 2 114.907 15.5766 15.93
191 2 118.812 15.6039 0.14004
192 2 122.922 15.6476 15.7319
193 2 126.711 15.4071 15.8011
194 2 130.44 15.4844 0.216802
195 2 134.481 15.4559 -0.0886859
196 2 138.546 15.353 0.223602
197 2 142.432 15.342 15.8135
198 2 146.292 15.4594 0.153924
199 2 150.141 15.2685 0.128107
200 2 154.217 15.1691 15.9502
201 2 158.122 19.0638 15.8745
202 2 3.61925 19.1657 0.0555888
203 2 7.63194 19.0831 0.00998561
204 2 11.4376 18.9341 15.7721
205 2 15.6658 19.1685 15.853
206 2 19.5735 19.1235 15.92
207 2 23.5572 19.1055 15.8414
208 2 27.6339 19.0477 15.9724
209 2 31.5027 19.4051 15.8475
210 2 35.5323 19.3551 15.9808
211 2 39.5839 19.3301 0.174991
212 2 43.6348 19.4275 16.0234
213 2 47.7007 19.6564 16.151
214 2 51.6711 19.703 0.178374
215 2 55.7227 19.7561 15.7256
216 2 59.6371 19.7749 15.9006
217 2 63.6906 19.7731 15.8191
218 2 67.6534 20.0556 15.9909
219 2 71.6885 19.8572 0.204502
220 2 75.5666 20.0445 0.183898
221 2 79.6432 20.0823 -0.0772921
222 2 83.6765 20.1935 15.9374
223 2 87.4295 20.0271 -0.02935
224 2 91.5475 20.1024 0.146946
225 2 95.5115 20.1226 15.8694
226 2 99.4136 20.0013 15.9601
227 2 103.179 19.7594 15.9228
228 2 107.188 19.7351 15.9375
229 2 111.01 19.5591 0.167999
230 2 114.977 19.7873 15.9929
231 2 119.081 19.8206 16.0506
232 2 122.934 19.4292 15.9033
233 2 126.588 19.3586 15.8916
234 2 130.578 19.4215 15.8546
235 2 134.526 19.4582 0.320026
236 2 138.476 19.2219 16.0358
237 2 142.485 19.3741 15.9656
238 2 146.441 19.3809 0.34105
239 2 150.335 19.1285 15.8667
240 2 154.188 19.1357 0.0846813
241 2 158.33 23.1959 15.8164
242 2 3.7881 23.0513 16.0739
243 2 7.77215 22.9039 0.167283
244 2 11.5927 22.8575 0.221676
245 2 15.5028 23.1253 16.0869
246 2 19.5055 23.0683 15.8044
247 2 23.4627 22.9628 16.0512
248 2 27.3289 23.2623 15.944
249 2 31.4377 23.2905 0.0830259
250 2 35.4603 23.2223 15.6857
251 2 39.5373 23.3523 0.175323
252 2 43.5992 23.3427 15.8918
253 2 47.4863 23.3928 0.162875
254 2 51.342 23.5522 0.0975455
255 2 55.6195 23.7018 0.367654
256 2 59.5504 23.611 16.0119
257 2 63.4881 23.8205 0.0932358
258 2 67.4514 23.9491 15.8358
259 2 71.5489 24.0009 15.8631
260 2 75.4499 23.9623 -0.0511898
261 2 79.3319 24.065 15.8763
262 2 83.5813 24.0365 0.0256662
263 2 87.6071 23.9968 15.8506
264 2 91.4595 24.1672 15.7404
265 2 95.6466 24.0139 16.0074
266 2 99.4131 24.0267 0.305377
267 2 103.198 23.7707 16.0851
268 2 107.273 23.6021 15.9265
269 2 111.276 23.7611 0.20377
270 2 115.219 23.5934 15.9874
271 2 119.145 23.5808 15.8988
272 2 122.831 23.6262 0.323107
273 2 126.723 23.5592 15.9577
274 2 130.62 23.4158 16.0135
275 2 134.481 23.463 15.8164
276 2 138.449 23.2893 15.865
277 2 142.464 23.2698 15.8606
278 2 146.225 23.3054 0.16337
279 2 149.979 23.1219 0.189133
280 2 154.182 23.1359 0.153292
281 2 158.019 27.18 0.289713
282 2 3.74653 27.0721 0.1387
283 2 7.68739 27.0815 0.163958
284 2 11.6756 26.8914 16.0069
285 2 15.6138 26.9597 15.9462
286 2 19.5146 26.9893 -0.0428484
287 2 23.271 26.9235 15.6482
288 2 27.3438 27.0392 15.7033
289 2 31.4844 27.1393 0.0276797
290 2 35.5179 27.0983 0.0714622
291 2 39.5094 27.4505 0.188226
292 2 43.5629 27.3733 -0.0607297
293 2 47.5597 27.2171 0.204584
294 2 51.5259 27.3488 15.9773
295 2 55.4177 27.3837 0.267632
296 2 59.5928 27.572 15.9697
297 2 63.5048 27.5409 15.8339
298 2 67.2074 27.7009 15.8928
299 2 71.3591 27.7859 16.0363
300 2 75.5977 27.8318 0.220748
301 2 79.4997 27.8248 0.0556697
302 2 83.5822 28.0108 16.0562
303 2 87.5416 28.1095 0.200011
304 2 91.3917 28.0669 0.16938
305 2 95.3683 27.9598 0.372473
306 2 99.6782 28.1236 0.338436
307 2 103.345 27.9151 16.1006
308 2 107.16 27.8409 0.52271
309 2 110.968 27.8144 15.8464
310 2 115.085 27.5636 15.8776
311 2 119.159 27.5719 0.144514
312 2 122.975 27.517 0.244793
313 2 126.633 27.5327 16.0218
314 2 130.703 27.4344 15.9079
315 2 134.543 27.4168 15.8929
316 2 138.436 27.3466 15.9261
317 2 142.455 27.3353 0.441076
318 2 146.32 27.4387 0.396354
319 2 150.552 27.1606 0.297223
320 2 154.175 27.1696 0.573329
321 2 158.172 31.0381 15.8786
322 2 3.82877 30.9494 15.9701
323 2 7.88018 31.0808 16.0653
324 2 11.6859 31.017 0.209616
325 2 15.5346 31.0744 0.158381
326 2 19.3653 30.9541 15.8021
327 2 23.3263 30.8017 15.9979
328 2 27.3799 30.9135 0.228614
329 2 31.4147 31.0897 16.0849
330 2 35.3982 30.994 15.8747
331 2 39.4524 31.1707 15.9771
332 2 43.4915 31.3818 0.207485
333 2 47.5228 31.3231 16.0703
334 2 51.4862 31.253 0.0386624
335 2 55.4019 31.4507 15.9495
336 2 59.5211 31.3879 0.132479
337 2 63.3671 31.7348 15.8492
338 2 67.5531 31.7449 -0.0174378
339 2 71.4988 31.5671 -0.0139687
340 2 75.5027 31.4092 0.151104
341 2 79.5712 31.7696 15.8147
342 2 83.534 31.848 0.397089
343 2 87.451 31.8061 16.1673
344 2 91.4614 31.8929 15.9885
345 2 95.6136 31.8749 15.9836
346 2 99.566 32.013 0.20987
347 2 103.517 31.879 16.036
348 2 107.38 31.9034 16.0198
349 2 111.439 31.7925 16.0414
350 2 115.294 31.6488 15.9154
351 2 119.28 31.7605 16.0023
352 2 122.991 31.5251 16.0173
353 2 126.922 31.2402 15.9895
354 2 130.745 31.3566 15.9181
355 2 134.718 31.4754 15.7795
356 2 138.63 31.4415 15.8967
357 2 142.57 31.3592 0.394953
358 2 146.423 31.2609 16.0315
359 2 150.439 31.3715 0.274184
360 2 154.311 31.0955 0.385736
361 2 -0.247293 34.9748 0.233485
362 2 3.73875 35.1507 15.8188
363 2 7.66581 35.0797 15.8482
364 2 11.7624 34.8108 15.946
365 2 15.7195 34.9213 0.159079
366 2 19.5305 35.049 0.1257
367 2 23.3336 34.7316 0.123302
368 2 27.3376 34.726 0.0854258
369 2 31.4286 34.9301 0.0329755
370 2 35.3879 35.1521 0.242931
371 2 39.5125 35.1245 0.258517
372 2 43.2946 35.1066 15.7994
373 2 47.3076 35.1453 16.0656
374 2 51.3835 35.4157 16.1066
375 2 55.4154 35.2449 0.223927
376 2 59.4173 35.5473 0.336028
377 2 63.5418 35.4869 15.7935
378 2 67.5022 35.493 0.109166
379 2 71.3781 35.7451 -0.0247541
380 2 75.5657 35.5842 15.9851
381 2 79.4519 35.7246 -0.0176654
382 2 83.5878 35.6827 15.6469
383 2 87.5987 35.6431 0.0848367
384 2 91.5654 35.9629 0.462563
385 2 95.5131 35.6776 16.0032
386 2 99.6159 35.8618 0.140913
387 2 103.601 35.8974 15.9942
388 2 107.579 35.9387 16.0038
389 2 111.458 35.7712 15.9187
390 2 115.225 35.6617 16.0795
391 2 119.024 35.6036 16.0617
392 2 123.032 35.485 15.8449
393 2 126.983 35.4555 15.8326
394 2 130.781 35.4485 15.9546
395 2 134.936 35.3981 15.9324
396 2 138.619 35.4829 0.120928
397 2 142.702 35.2817 0.19197
398 2 146.474 35.5081 0.00658508
399 2 150.438 35.3274 15.9306
400 2 154.452 35.119 0.263215
401 2 158.208 39.119 0.081463
402 2 3.9347 39.1242 0.245824
403 2 7.9373 38.8788 0.258175
404 2 11.9609 39.0999 15.9846
405 2 15.6564 38.8959 0.199809
406 2 19.5176 38.7605 15.9172
407 2 23.5957 38.7193 15.8875
408 2 27.4664 38.7068 15.8838
409 2 31.4667 38.8183 0.330468
410 2 35.3117 38.8453 0.50424
411 2 39.3776 39.0961 16.0674
412 2 43.3913 38.9451 0.132555
413 2 47.2248 39.1384 0.283008
414 2 51.3845 39.1923 15.9384
415 2 55.527 39.1468 0.158028
416 2 59.3964 39.1807 0.0951033
417 2 63.5182 39.3486 0.351211
418 2 67.566 39.6312 0.178428
419 2 71.4141 39.4341 -0.0412724
420 2 75.3696 39.5789 0.259106
421 2 79.4008 39.4467 -0.0288318
422 2 83.4071 39.754 16.0592
423 2 87.5567 39.5771 15.956
424 2 91.4857 39.6825 16.0302
425 2 95.5279 39.7558 16.0233
426 2 99.3639 39.6357 0.205849
427 2 103.447 39.7679 16.0452
428 2 107.463 39.5958 16.0496
429 2 111.426 39.8656 16.1588
430 2 115.267 39.7028 16.038
431 2 119.163 39.7895 15.7892
432 2 123.038 39.6037 15.8412
433 2 126.954 39.5605 0.13167
434 2 130.744 39.4214 16.0309
435 2 134.711 39.317 16.0178
436 2 138.451 39.3893 16.0342
437 2 142.447 39.2724 15.8066
438 2 146.665 39.4246 0.0992236
439 2 150.478 39.0087 15.954
440 2 154.39 39.1798 16.0737
441 2 158.446 43.1261 0.221657
442 2 3.90914 43.0986 15.8817
443 2 7.89444 43.0185 16.0415
444 2 11.9096 42.947 0.29656
445 2 15.767 42.7841 0.210361
446 2 19.7844 42.6581 0.0367441
447 2 23.6768 42.7613 15.8534
448 2 27.4978 42.9513 16.0596
449 2 31.4373 42.6719 0.194051
450 2 35.2993 42.7082 0.126833
451 2 39.4455 43.0051 0.308445
452 2 43.4339 43.0503 0.0895737
453 2 47.4445 43.081 15.9665
454 2 51.3671 43.0514 15.9602
455 2 55.4334 43.2045 0.211327
456 2 59.322 43.1177 16.1269
457 2 63.4766 43.1377 0.0894841
458 2 67.2768 43.4584 0.132803
459 2 71.5012 43.3396 0.162736
460 2 75.4369 43.4451 0.198711
461 2 79.3424 43.3717 -0.0447425
462 2 83.3696 43.5805 15.9522
463 2 87.3955 43.3812 15.765
464 2 91.5519 43.651 0.190353
465 2 95.4602 43.6813 0.214359
466 2 99.2748 43.5377 15.8879
467 2 103.292 43.6466 15.8231
468 2 107.337 43.8583 15.8822
469 2 111.446 43.6204 15.9988
470 2 115.424 43.9028 16.0244
471 2 119.125 43.5022 15.881
472 2 123.195 43.6812 15.8842
473 2 126.933 43.5317 0.166103
474 2 130.829 43.2942 0.159663
475 2 134.754 43.4218 15.7652
476 2 138.845 43.319 16.0157
477 2 142.666 43.2166 15.6448
478 2 146.706 43.5213 0.0434582
479 2 150.433 43.118 0.285368
480 2 154.45 43.1217 0.385892
481 2 0.219334 46.9929 0.281883
482 2 4.06388 47.1734 0.243029
483 2 7.97515 47.0354 0.0467219
484 2 11.7574 47.0517 0.351552
485 2 15.9056 46.9035 0.191204
486 2 19.6461 46.7797 -0.0147426
487 2 23.492 46.6932 0.245442
488 2 27.251 46.7325 16.0655
489 2 31.2917 46.7098 -0.0109505
490 2 35.1828 46.8503 0.511207
491 2 39.0723 46.7448 16.1387
492 2 43.147 46.8218 16.0112
493 2 47.3114 46.8477 0.26277
494 2 51.2313 47.1163 16.0151
495 2 55.2607 47.0346 15.9364
496 2 59.371 46.8305 15.8592
497 2 63.3525 46.9829 0.0851676
498 2 67.1946 47.1047 0.152222
499 2 71.4079 47.2031 15.9247
500 2 75.3774 47.3412 0.0786296
501 2 79.3366 47.4185 15.7852
502 2 83.4188 47.3984 15.8384
503 2 87.4856 47.5277 0.0583614
504 2 91.1398 47.6078 0.010836
505 2 95.4492 47.4568 0.245521
506 2 99.5071 47.398 0.117002
507 2 103.38 47.691 0.0726787
508 2 107.245 47.6839 15.9794
509 2 111.393 47.7816 15.9892
510 2 115.207 47.7206 0.189768
511 2 119.18 47.5559 15.8126
512 2 122.809 47.4722 16.0424
513 2 127.237 47.525 15.8634
514 2 131.031 47.4174 16.0434
515 2 134.992 47.3652 15.844
516 2 138.91 47.4684 15.9159
517 2 142.647 47.3127 15.8165
518 2 146.629 47.173 0.279787
519 2 150.429 47.1513 0.192439
520 2 154.503 47.0518 15.9823
521 2 158.57 51.1047 0.319983
522 2 4.09406 51.0309 15.9429
523 2 8.10004 51.1824 15.9492
524 2 11.8743 51.0045 15.946
525 2 15.7163 50.7757 0.0467328
526 2 19.6513 50.8595 15.7481
527 2 23.522 50.8072 16.0534
528 2 27.4151 50.9473 15.8612
529 2 31.3831 50.9213 0.26647
530 2 35.2818 50.7416 -0.0566084
531 2 39.302 50.7442 16.0739
532 2 43.266 50.7543 15.9899
533 2 47.179 50.9344 0.136573
534 2 51.2818 50.8518 0.122952
535 2 55.2776 51.0995 0.229076
536 2 59.1611 50.8887 16.0156
537 2 63.3235 51.068 15.9636
538 2 67.2118 51.1227 0.226779
539 2 71.3794 51.2062 0.009463
540 2 75.2411 51.3073 0.274288
541 2 79.3567 51.3554 0.0127729
542 2 83.2489 51.152 0.167175
543 2 87.1 51.3441 -0.0394982
544 2 91.297 51.4165 0.370166
545 2 95.2256 51.2042 0.14186
546 2 99.2457 51.4053 0.193318
547 2 103.371 51.5218 15.9857
548 2 107.355 51.5428 0.127552
549 2 111.224 51.7924 0.316744
550 2 115.326 51.4353 16.0036
551 2 119.082 51.6219 15.8211
552 2 123.047 51.4196 15.7755
553 2 126.902 51.5169 16.0275
554 2 130.833 51.3615 0.309474
555 2 134.772 51.3453 0.0854363
556 2 138.762 51.202 0.158281
557 2 142.852 51.3257 0.0318744
558 2 146.566 51.1635 15.9016
559 2 150.566 51.0891 0.210703
560 2 154.522 51.0699 0.271259
561 2 158.519 55.0876 0.308027
562 2 3.94644 54.9238 0.246592
563 2 8.00659 55.0169 0.12644
564 2 11.9611 55.0983 0.162275
565 2 15.7976 55.0051 -0.0156281
566 2 19.4401 54.6492 15.8653
567 2 23.5686 54.7733 16.0507
568 2 27.4788 54.7342 15.7966
569 2 31.4051 54.8348 0.117955
570 2 35.313 54.7065 0.16409
571 2 39.2386 54.7518 16.0327
572 2 43.3799 54.6036 16.0167
573 2 47.1437 54.6954 0.0696718
574 2 51.1248 54.7049 15.953
575 2 55.2416 54.8435 16.041
576 2 59.1992 54.8562 16.0097
577 2 63.1353 55.0761 16.0284
578 2 67.251 55.1217 0.166792
579 2 71.1688 55.1189 0.180641
580 2 75.1605 55.0513 15.7202
581 2 79.1864 55.179 0.209761
582 2 83.203 55.2182 0.16353
583 2 87.1972 55.3262 0.214055
584 2 91.1416 55.2682 15.9165
585 2 95.1693 55.3152 -0.00259918
586 2 99.3195 55.6034 15.8855
587 2 103.359 55.4837 16.0505
588 2 107.223 55.3773 0.170979
589 2 111.33 55.7263 16.0387
590 2 115.364 55.4414 15.9664
591 2 119.221 55.4448 16.0126
592 2 123.173 55.4577 0.00416365
593 2 126.952 55.4183 15.7957
594 2 131.027 55.4511 16.0358
595 2 134.801 55.3954 0.0198233
596 2 138.632 55.3547 15.9734
597 2 142.508 55.2301 0.24268
598 2 146.62 55.0903 -0.00944586
599 2 150.562 55.1166 -0.0189277
600 2 154.629 55.0485 15.8679
601 2 158.354 58.9717 0.210456
602 2 4.04799 59.121 15.8795
603 2 7.97294 58.878 15.9292
604 2 11.7176 58.8833 0.147216
605 2 15.7363 58.7357 15.9873
606 2 19.733 58.8861 0.00888554
607 2 23.6192 58.9031 0.0756227
608 2 27.4931 58.7755 0.200996
609 2 31.4884 58.8077 15.9621
610 2 35.2528 58.7108 15.856
611 2 39.1234 58.7612 15.8852
612 2 43.0652 58.6619 15.8339
613 2 47.161 58.5755 16.0251
614 2 51.2205 58.6734 15.8967
615 2 55.3435 58.6437 15.8771
616 2 59.0948 58.8066 0.485289
617 2 63.0401 58.7685 15.9881
618 2 67.1128 59.0074 0.00726098
619 2 70.9896 59.0113 15.8872
620 2 75.0234 59.107 0.0256284
621 2 79.0663 59.1825 0.080653
622 2 83.2869 59.1267 0.276928
623 2 87.105 59.2524 15.9146
624 2 91.1069 59.2298 15.9801
625 2 95.1025 59.3903 0.100608
626 2 99.1655 59.355 0.0788975
627 2 103.375 59.4433 15.9124
628 2 107.285 59.5185 0.174345
629 2 111.235 59.3535 15.8625
630 2 115.108 59.3343 15.9259
631 2 119.201 59.5504 15.8419
632 2 123.351 59.392 -0.0484729
633 2 126.921 59.3784 15.8069
634 2 130.907 59.3881 -0.115328
635 2 134.782 59.4009 15.8083
636 2 138.731 59.5071 0.177773
637 2 142.698 59.1863 0.0638492
638 2 146.658 58.9174 0.0858038
639 2 150.444 59.0875 16.0668
640 2 154.508 59.0108 0.298176
641 2 0.110531 62.9788 -0.076409
642 2 3.99544 63.0711 0.15918
643 2 7.917 63.0211 15.99
644 2 11.8652 62.8946 15.7897
645 2 15.8686 62.7824 15.8167
646 2 19.8971 62.7186 0.23514
647 2 23.7923 62.8685 0.0306871
648 2 27.572 62.8715 0.0891404
649 2 31.3791 62.7623 0.00527119
650 2 35.2812 62.7237 0.215632
651 2 39.4323 62.8094 15.974
652 2 43.4892 62.7589 0.310232
653 2 47.1022 62.5459 16.1723
654 2 51.1341 62.4664 16.1303
655 2 55.064 62.4294 0.206044
656 2 59.0827 62.6984 15.9938
657 2 63.0589 62.7633 0.188154
658 2 66.9693 62.7185 15.7266
659 2 70.9145 63.0382 0.109244
660 2 75.093 63.0765 0.193832
661 2 78.8725 63.1034 0.216268
662 2 83.1348 63.1353 0.049876
663 2 87.0256 63.0969 15.7963
664 2 90.924 63.2124 16.0614
665 2 95.1701 63.1077 0.297933
666 2 99.0634 63.3729 0.207102
667 2 103.004 63.1314 15.907
668 2 106.927 63.2653 15.7413
669 2 111.145 63.318 15.9655
670 2 115.16 63.4158 -0.0220512
671 2 119.127 63.4664 16.0157
672 2 123.007 63.4045 0.181907
673 2 127.058 63.276 15.8582
674 2 130.846 63.2569 0.0623594
675 2 134.866 63.5151 15.9668
676 2 138.714 63.4107 15.9095
677 2 142.716 63.177 15.8279
678 2 146.583 63.0191 0.0244807
679 2 150.469 63.1583 15.8696
680 2 154.543 63.0965 0.171063
681 2 0.126776 67.3427 0.109184
682 2 4.03299 67.1656 0.159078
683 2 7.97694 67.0011 16.048
684 2 11.9378 66.9118 15.925
685 2 15.6507 66.7746 0.183724
686 2 19.5249 66.8016 0.207637
687 2 23.5403 66.804 -0.0382902
688 2 27.5917 66.9435 0.151188
689 2 31.3482 66.7668 0.14344
690 2 35.3676 66.6067 0.164588
691 2 39.2307 66.6012 15.8769
692 2 43.1636 66.6358 0.486889
693 2 47.155 66.5515 16.0304
694 2 50.9362 66.5245 15.9456
695 2 54.9183 66.5777 15.9186
696 2 59.0127 66.5632 16.1119
697 2 62.9715 66.8566 16.0628
698 2 66.9208 66.6333 15.8788
699 2 70.892 66.6374 0.21141
700 2 74.9633 66.93 15.8844
701 2 79.1119 66.9504 15.9842
702 2 83.0986 66.9809 0.297242
703 2 86.8541 67.014 15.8446
704 2 90.9884 66.9802 16.1477
705 2 94.9781 66.965 0.248598
706 2 99.2317 67.1363 0.121955
707 2 103.13 67.2031 0.173642
708 2 107.102 67.1902 15.8954
709 2 111.109 67.2481 15.8682
710 2 115.182 67.4065 15.8663
711 2 119.164 67.2558 0.216663
712 2 123.099 67.3441 0.0295215
713 2 127.15 67.1417 0.117054
714 2 131.168 67.3428 15.9332
715 2 134.981 67.4689 0.0896939
716 2 138.872 67.1796 -0.0286836
717 2 142.762 67.1095 15.7148
718 2 146.744 67.1021 15.8367
719 2 150.587 67.1205 15.9945
720 2 154.536 67.2254 0.423702
721 2 -0.0676517 70.9312 -0.00947815
722 2 4.14888 70.9801 16.1197
723 2 7.9463 71.0812 0.200908
724 2 11.9228 70.8208 16.0083
725 2 15.6708 70.9081 0.286843
726 2 19.6428 71.0732 0.169889
727 2 23.5528 70.796 0.249585
728 2 27.517 70.8704 16.0138
729 2 31.2914 70.8244 0.317574
730 2 35.3168 70.6431 0.373849
731 2 39.3887 70.6111 15.9334
732 2 43.1261 70.5806 0.243426
733 2 47.1077 70.4625 16.0805
734 2 51.0268 70.4345 15.866
735 2 55.1177 70.5079 0.110357
736 2 58.8294 70.4183 0.302061
737 2 62.9737 70.6532 0.0630313
738 2 67.0092 70.6682 15.9442
739 2 71.0017 70.5829 15.921
740 2 74.8321 70.7778 15.799
741 2 78.8158 71.0784 0.0253522
742 2 82.9817 70.8478 0.0985753
743 2 87.0598 71 15.9449
744 2 90.9343 70.854 15.9765
745 2 95.0835 70.8271 15.7947
746 2 98.9339 70.9587 15.8977
747 2 102.956 71.2893 15.8875
748 2 106.741 71.0784 15.8403
749 2 110.871 71.2735 15.9571
750 2 114.989 71.3274 0.281223
751 2 119.117 71.1874 15.8833
752 2 123.099 71.1505 0.273634
753 2 127.132 71.238 16.0299
754 2 130.918 71.2389 16.1642
755 2 135.132 71.2949 15.8189
756 2 138.765 71.1054 15.8368
757 2 142.734 71.1406 0.14126
758 2 146.562 71.3093 0.360235
759 2 150.515 71.0029 0.223023
760 2 154.411 71.1132 15.6638
761 2 0.252253 74.9879 0.0694554
762 2 4.06698 74.9419 15.7649
763 2 8.02312 75.0483 15.9083
764 2 11.9987 74.7632 15.7865
765 2 15.8956 74.7385 15.9066
766 2 19.8103 74.9959 16.0522
767 2 23.684 74.9989 16.0274
768 2 27.5547 74.7606 16.0142
769 2 31.4239 74.6657 0.238161
770 2 35.2993 74.7138 16.1002
771 2 39.2176 74.5022 15.7322
772 2 43.0192 74.5302 0.266257
773 2 47.2178 74.5629 15.9767
774 2 51.0479 74.4419 0.242936
775 2 54.9373 74.4831 15.9929
776 2 58.9807 74.4784 16.0493
777 2 62.9707 74.6919 15.8728
778 2 66.8239 74.6046 0.243045
779 2 70.8388 74.7109 0.157542
780 2 74.969 74.8635 -0.0681594
781 2 78.8878 74.8377 0.446275
782 2 82.9531 74.8605 0.214607
783 2 86.9435 74.9721 0.0860525
784 2 90.8771 74.7109 15.7868
785 2 95.0436 74.7878 16.0762
786 2 99.0452 74.8118 0.316492
787 2 102.874 75.1271 15.8163
788 2 106.941 74.9386 15.9355
789 2 110.767 75.0895 15.7973
790 2 114.919 75.0379 15.8217
791 2 119.025 75.1693 0.231642
792 2 123.057 75.3766 15.8986
793 2 127.023 75.0488 15.8687
794 2 131.092 75.2245 0.302516
795 2 134.957 75.1544 16.0001
796 2 138.97 75.3855 15.9194
797 2 143.011 75.1898 15.821
798 2 146.78 75.1602 15.8483
799 2 150.644 75.1392 0.202769
800 2 154.559 74.9715 0.194792
801 2 0.071892 79.0139 0.225625
802 2 4.00793 78.8914 15.7316
803 2 8.16292 79.0495 -0.0358006
804 2 11.9686 78.9003 0.00561903
805 2 15.9406 78.9295 15.8077
806 2 19.8622 79.043 16.0173
807 2 23.6736 78.945 -0.00870167
808 2 27.5127 78.786 0.148368
809 2 31.3962 78.661 0.249289
810 2 35.4635 78.7615 0.12025
811 2 39.3214 78.7664 15.6607
812 2 43.2385 78.4309 15.8733
813 2 47.2566 78.5946 15.781
814 2 51.0072 78.4842 -0.0165465
815 2 55.1896 78.5129 0.169278
816 2 58.9056 78.434 15.7053
817 2 62.7758 78.4051 15.8137
818 2 66.7641 78.5625 0.0201387
819 2 70.7483 78.4891 15.9762
820 2 74.9405 78.7123 0.215385
821 2 78.9641 78.8363 16.0961
822 2 82.9822 78.6933 16.0148
823 2 86.6677 78.7422 0.172537
824 2 90.8796 78.9936 -0.000846109
825 2 94.9855 78.7868 0.0199609
826 2 98.9699 78.9772 15.7501
827 2 102.77 78.9767 15.7199
828 2 106.879 78.8313 -0.0038648
829 2 110.902 79.0389 -0.0447744
830 2 114.742 78.9574 0.246709
831 2 119.079 79.161 0.168224
832 2 122.905 79.0981 16.1421
833 2 127.063 79.0555 0.193793
834 2 130.909 79.1514 16.1276
835 2 134.921 78.99 0.125333
836 2 138.619 79.1197 16.1515
837 2 142.539 79.3932 15.7301
838 2 146.8 79.2392 15.9337
839 2 150.685 79.1566 15.8509
840 2 154.622 79.0819 0.109229
841 2 0.465684 83.1385 15.9081
842 2 4.16814 82.988 15.7619
843 2 8.10315 83.0658 0.108368
844 2 11.9886 83.0695 15.6359
845 2 15.8378 83.0653 15.7604
846 2 19.8635 82.9618 0.0787399
847 2 23.6322 82.8141 15.6919
848 2 27.4867 82.7784 0.0656875
849 2 31.71 82.7621 16.0428
850 2 35.5467 82.7303 0.115649
851 2 39.3802 82.5637 0.117541
852 2 43.2965 82.5166 15.6928
853 2 47.1954 82.5001 0.00109585
854 2 51.0526 82.5291 0.0528309
855 2 54.8345 82.5698 0.313745
856 2 58.7725 82.548 15.9539
857 2 62.6218 82.3829 15.9467
858 2 66.8044 82.4614 16.0762
859 2 70.6985 82.3471 15.858
860 2 74.5748 82.4131 16.0377
861 2 78.7928 82.6102 15.7928
862 2 82.7984 82.5776 0.172065
863 2 86.7636 82.472 0.223302
864 2 90.7725 82.7343 15.7871
865 2 94.7825 82.7252 0.187931
866 2 98.6271 82.9368 16.0507
867 2 102.689 82.9998 0.244513
868 2 106.759 82.948 15.8007
869 2 110.871 82.8675 15.9479
870 2 114.858 82.982 15.9584
871 2 118.788 83.0868 16.2086
872 2 122.924 82.9054 16.138
873 2 126.946 83.1205 16.058
874 2 130.941 83.0962 15.9778
875 2 134.888 83.0522 0.249515
876 2 138.884 82.8742 15.9237
877 2 142.816 83.2214 0.328779
878 2 146.876 83.316 15.8514
879 2 150.693 83.2201 0.0811188
880 2 154.581 83.0817 0.075291
881 2 0.0691504 86.9395 15.8765
882 2 4.29549 86.8855 0.0119525
883 2 8.12722 87.1025 15.899
884 2 11.9664 87.1232 15.653
885 2 15.9711 86.8965 15.8937
886 2 19.8204 86.8052 15.7961
887 2 23.7074 86.8402 15.6848
888 2 27.6937 86.6321 0.316791
889 2 31.3794 86.6645 15.87
890 2 35.4507 86.7216 0.311058
891 2 39.2085 86.753 16.013
892 2 43.2317 86.7432 16.0183
893 2 47.2327 86.5813 15.8443
894 2 51.062 86.6033 15.7693
895 2 54.9698 86.4161 15.9087
896 2 59.0706 86.5531 0.263173
897 2 62.7482 86.4203 0.171518
898 2 66.7717 86.4932 15.9295
899 2 70.6784 86.2951 0.248703
900 2 74.7136 86.4381 16.0591
901 2 78.5263 86.5462 0.213054
902 2 82.7362 86.8142 -0.0632418
903 2 86.8005 86.6618 15.9772
904 2 90.6567 86.6192 15.8443
905 2 94.7751 86.9091 15.8747
906 2 98.8185 86.8908 16.0592
907 2 102.729 86.8121 0.417125
908 2 106.81 86.7812 0.156396
909 2 111.007 86.8909 15.9944
910 2 114.764 86.9004 0.310584
911 2 118.714 86.7988 0.266342
912 2 122.963 86.8751 0.28386
913 2 126.819 87.0841 15.8309
914 2 130.845 87.0763 16.0521
915 2 134.871 86.8283 15.9271
916 2 138.785 87.0336 16.035
917 2 142.754 87.0292 15.9253
918 2 146.689 87.2465 0.265333
919 2 150.806 87.1141 15.8562
920 2 154.84 86.9544 15.9095
921 2 0.291137 91.0152 0.0110669
922 2 4.11822 91.0201 0.0432832
923 2 8.17688 90.9821 15.7823
924 2 12.1953 90.9663 15.7531
925 2 15.9797 90.9238 0.165834
926 2 19.8629 90.7854 0.0820916
927 2 23.7157 90.712 15.7978
928 2 27.6934 90.8024 15.86
929 2 31.4146 90.7495 15.7655
930 2 35.5099 90.562 0.206496
931 2 39.2578 90.8045 15.7434
932 2 43.2208 90.6229 15.8229
933 2 47.1691 90.7269 0.0790325
934 2 51.1447 90.6913 0.092182
935 2 54.9949 90.4845 0.236999
936 2 58.8522 90.4138 0.123236
937 2 62.8596 90.5331 0.257703
938 2 66.893 90.437 15.9466
939 2 70.6973 90.4944 15.7208
940 2 74.5852 90.4098 0.0829592
941 2 78.5757 90.3574 0.203008
942 2 82.646 90.6341 0.152072
943 2 86.7202 90.5947 0.345789
944 2 90.704 90.5709 0.093662
945 2 94.6732 90.597 16.1501
946 2 98.8886 90.5838 15.765
947 2 102.785 90.6857 0.161191
948 2 106.668 90.7199 16.0186
949 2 110.606 90.8996 16.0673
950 2 114.684 90.8082 0.330383
951 2 118.605 90.9459 0.386902
952 2 122.713 91.0589 15.9058
953 2 126.804 91.0309 -0.0586314
954 2 130.632 90.9642 0.138571
955 2 134.7 90.9069 15.9004
956 2 138.68 90.9157 15.9068
957 2 142.617 91.0413 16.0312
958 2 146.747 91.0879 15.9256
959 2 150.725 91.006 15.8968
960 2 154.551 91.0732 15.761
961 2 0.387776 95.0081 -0.0927951
962 2 4.38001 95.0499 16.0404
963 2 8.14876 95.1336 15.888
964 2 11.8835 94.9951 16.0654
965 2 15.8579 94.9418 15.9256
966 2 19.9167 94.8324 15.9056
967 2 23.6237 94.847 15.8291
968 2 27.7262 94.9708 15.773
969 2 31.6619 94.7075 15.7623
970 2 35.3697 94.5742 15.7171
971 2 39.4279 94.6957 15.9427
972 2 43.253 94.5336 15.869
973 2 47.1597 94.5718 0.140992
974 2 51.0518 94.5527 15.8884
975 2 55.1591 94.5484 0.292783
976 2 59.0284 94.4558 15.8708
977 2 62.8853 94.5584 0.266825
978 2 66.8635 94.5013 0.0183191
979 2 70.7838 94.422 0.0261721
980 2 74.7085 94.4428 0.277592
981 2 78.7794 94.2555 15.985