ITEM: TIMESTEP
22200
ITEM: NUMBER OF ATOMS
32000
ITEM: BOX BOUNDS xy xz yz pp pp pp
0.0000000000000000e+00 1.5831999999999999e+02 0.0000000000000000e+00
0.0000000000000000e+00 1.5831999999999999e+02 0.0000000000000000e+00
1.6695420728669941e-01 1.5930757792713131e+01 0.0000000000000000e+00
ITEM: ATOMS id type x y z
1 2 158.049 157.754 16.1447
2 2 3.78665 157.729 15.8051
3 2 7.75925 157.569 0.374394
4 2 11.8006 157.729 0.0803597
5 2 15.6353 158.006 0.214616
6 2 19.9556 157.955 15.8724
7 2 23.7505 158.013 16.022
8 2 27.8495 157.859 15.842
9 2 31.7367 158.059 0.154493
10 2 35.9569 158.243 15.7498
11 2 39.8371 -0.0653336 15.8345
12 2 43.9529 -0.00249809 0.207157
13 2 47.7736 0.107442 16.0104
14 2 51.9241 -0.0313447 0.0926632
15 2 55.8943 158.441 0.223575
16 2 59.8135 158.478 15.7524
17 2 63.8558 0.0974724 15.8441
18 2 67.8652 0.239017 15.8208
19 2 71.9991 0.0762594 16.0151
20 2 75.6266 158.579 15.9991
21 2 79.5293 0.170636 15.8371
22 2 83.4731 158.196 15.9443
23 2 87.3318 158.359 15.9953
24 2 91.2548 158.325 0.208724
25 2 95.1239 158.152 16.0676
26 2 99.2043 158.313 16.1695
27 2 103.016 158.107 16.1238
28 2 106.953 158.121 15.9636
29 2 110.893 158.074 0.0619764
30 2 114.936 158.077 0.114376
31 2 118.73 157.996 15.8331
32 2 122.437 157.682 0.19734
33 2 126.387 157.777 0.110634
34 2 130.36 157.837 0.227359
35 2 134.419 157.774 16.1817
36 2 138.106 157.687 16.0427
37 2 142.099 157.437 15.9264
38 2 146.078 157.518 15.9429
39 2 150.152 157.72 -0.0430716
40 2 154.142 157.588 0.266936
41 2 158.092 3.29635 16.0729
42 2 3.778 3.24201 15.9209
43 2 7.90713 3.3341 0.161602
44 2 11.633 3.36062 16.071
45 2 15.6295 3.47011 15.9171
46 2 19.5247 3.2355 15.9702
47 2 23.7047 3.60124 0.195045
48 2 27.9158 3.4876 0.147819
49 2 31.8312 3.72366 0.305221
50 2 35.6635 3.99876 0.202354
51 2 39.7175 3.92818 0.0635173
52 2 43.8191 3.95937 16.0239
53 2 47.6336 4.02283 15.9674
54 2 51.8639 3.8139 16.01
55 2 55.9332 4.10055 -0.0087343
56 2 59.8182 4.18558 16.188
57 2 63.7687 4.13128 15.9594
58 2 67.8405 4.22165 15.8069
59 2 71.8972 4.18839 15.9
60 2 75.8136 4.3242 15.8531
61 2 79.7027 4.00921 15.9101
62 2 83.5594 4.02883 15.899
63 2 87.4501 4.05349 15.9183
64 2 91.2238 4.02442 0.0960128
65 2 95.0537 3.91648 15.7081
66 2 99.0908 3.97446 0.0440522
67 2 102.936 3.93351 16.0251
68 2 106.775 3.98109 15.9084
69 2 110.959 3.62464 0.0508506
70 2 114.837 3.5679 0.173707
71 2 118.731 3.53131 0.197612
72 2 122.607 3.32042 0.105534
73 2 126.505 3.46227 0.124802
74 2 130.442 3.34223 0.161619
75 2 134.266 3.39085 15.9688
76 2 138.128 3.28988 0.0429226
77 2 142.225 3.15812 0.321345
78 2 146.216 3.11828 0.0424527
79 2 149.987 3.0976 16.0561
80 2 153.986 3.19861 16.0966
81 2 158.024 6.95066 15.9447
82 2 3.70681 7.26594 15.8726
83 2 7.65635 7.41153 16.0306
84 2 11.5325 7.49476 0.203335
85 2 15.6916 7.31253 15.8805
86 2 19.8204 7.49847 15.9333
87 2 23.6539 7.45694 0.119643
88 2 27.6771 7.55709 15.8934
89 2 31.7377 7.52638 16.0173
90 2 35.5867 7.66973 15.7926
91 2 39.6284 7.76964 0.0686384
92 2 43.5104 7.96635 0.0270044
93 2 47.5175 8.02761 15.8841
94 2 51.8322 8.00359 0.0710874
95 2 55.8219 7.97644 15.7504
96 2 59.8091 8.06255 0.154807
97 2 63.7357 7.8944 15.9925
98 2 67.8595 8.26772 16.2108
99 2 71.7246 8.27977 16.0719
100 2 75.5488 8.07058 16.0654
101 2 79.8909 8.37841 0.219218
102 2 83.6991 8.02085 15.8129
103 2 87.5491 8.27202 15.9545
104 2 91.3902 7.88824 15.995
105 2 95.2029 7.84515 15.7987
106 2 99.1675 7.95287 -0.113136
107 2 103.238 7.90704 0.0564952
108 2 107.045 7.70614 15.7888
109 2 110.956 7.72634 0.191106
110 2 115.072 7.58064 15.9094
111 2 118.807 7.42875 16.0211
112 2 122.779 7.49308 16.0508
113 2 126.717 7.3833 16.05
114 2 130.696 7.39082 0.221015
115 2 134.589 7.31537 0.245863
116 2 138.492 7.43446 16.069
117 2 142.159 7.35391 16.1168
118 2 146.204 7.15164 0.260461
119 2 150.041 7.14559 0.310766
120 2 153.986 7.11605 16.1648
121 2 157.898 11.0577 15.8428
122 2 3.41304 11.1648 16.0612
123 2 7.67417 11.3226 15.8587
124 2 11.4235 11.1106 0.124896
125 2 15.5256 11.26 15.7234
126 2 19.654 11.1919 15.6735
127 2 23.656 11.4471 15.9448
128 2 27.5802 11.4735 15.819
129 2 31.8314 11.5858 15.8688
130 2 35.7737 11.5637 15.9869
131 2 39.8279 11.6251 15.8675
132 2 43.7084 11.7964 0.0475014
133 2 47.8272 11.7585 0.132403
134 2 51.7929 11.7148 16.0043
135 2 55.6396 11.8027 0.210244
136 2 59.691 12.0422 16.0925
137 2 63.4795 12.0454 0.2165
138 2 67.8137 12.0912 15.7421
139 2 71.8516 12.0675 15.9783
140 2 75.6873 12.0646 15.8862
141 2 79.789 12.1693 15.7287
142 2 83.8056 12.0273 15.7247
143 2 87.6878 12.018 0.180602
144 2 91.5941 12.0371 0.190886
145 2 95.3876 12.0429 15.83
146 2 99.2161 12.113 15.7873
147 2 103.239 11.959 0.0459503
148 2 107.152 11.819 15.8304
149 2 111.149 11.8552 0.169948
150 2 114.904 11.5993 16.036
151 2 118.763 11.6184 0.308443
152 2 122.743 11.5041 0.0398544
153 2 126.645 11.5135 15.9149
154 2 130.689 11.4928 16.034
155 2 134.494 11.4589 0.155982
156 2 138.363 11.5986 0.0897572
157 2 142.113 11.5721 0.404678
158 2 146.145 11.2371 0.196587
159 2 150.363 11.2596 0.380509
160 2 154.308 11.1074 0.266257
161 2 158.13 15.1821 16.0262
162 2 3.58804 15.1077 15.9373
163 2 7.49329 14.9582 15.8715
164 2 11.6456 15.1528 15.7609
165 2 15.628 15.1156 15.9186
166 2 19.4665 15.2098 0.0385866
167 2 23.7195 15.161 -0.005023
168 2 27.6916 15.4474 15.8822
169 2 31.6136 15.6451 0.188231
170 2 35.6124 15.6348 15.9683
171 2 39.837 15.6397 0.220747
172 2 43.6888 15.6566 0.251376
173 2 47.5217 15.5527 0.192234
174 2 51.5225 15.6465 0.256355
175 2 55.6254 15.9161 16.0557
176 2 59.4951 15.8573 0.212968
177 2 63.7661 15.907 15.836
178 2 67.6589 16.0055 15.7984
179 2 71.6906 16.0584 0.206056
180 2 75.7454 15.8771 0.117639
181 2 79.7175 16.1159 15.9488
182 2 83.7428 16.1288 0.294041
183 2 87.6947 16.2147 15.8106
184 2 91.5424 16.1268 0.122423
185 2 95.3734 16.1317 15.984
186 2 99.3641 16.1549 15.78
187 2 103.458 15.8871 15.9175
188 2 107.292 15.7851 16.0694
189 2 110.8 15.7418 15.9397
190 2 115.03 15.8243 15.7884
191 2 119.023 15.6123 0.158267
192 2 122.658 15.417 15.7598
193 2 126.547 15.5485 15.8933
194 2 130.661 15.5659 0.0704102
195 2 134.614 15.2592 0.265945
196 2 138.376 15.2691 0.172812
197 2 142.185 15.317 16.0274
198 2 146.199 15.2922 0.0563475
199 2 150.068 15.2267 0.158306
200 2 154.129 15.3078 15.805
201 2 158.018 19.0593 15.944
202 2 3.77588 19.2758 0.198988
203 2 7.50289 18.861 0.286946
204 2 11.5574 18.9705 16.0221
205 2 15.6183 19.2105 15.9968
206 2 19.591 19.2229 15.9856
207 2 23.7098 19.2388 15.9531
208 2 27.5637 19.4218 16.0033
209 2 31.6371 19.3407 15.8151
210 2 35.6192 19.3862 15.631
211 2 39.5469 19.4346 0.142683
212 2 43.5873 19.6004 15.646
213 2 47.3744 19.4753 15.6889
214 2 51.4865 19.6761 0.264687
215 2 55.5767 19.8568 16.033
216 2 59.6882 19.7532 15.9424
217 2 63.5133 19.7556 15.9965
218 2 67.6676 19.8393 15.7138
219 2 71.6037 19.7514 0.105386
220 2 75.7259 19.8515 0.0623312
221 2 79.7812 20.0224 0.204377
222 2 83.7136 20.0081 15.9838
223 2 87.6714 20.11 0.014103
224 2 91.7087 20.0049 0.0750057
225 2 95.5463 19.8709 15.9018
226 2 99.2121 19.8722 15.9893
227 2 103.16 19.9613 15.9946
228 2 107.086 20.0511 16.0094
229 2 111.326 19.8242 0.134988
230 2 115.152 19.4113 15.9926
231 2 119.003 19.4885 15.9306
232 2 122.819 19.5773 15.8568
233 2 126.806 19.6716 15.9635
234 2 130.558 19.5598 15.9531
235 2 134.548 19.2673 -0.000422346
236 2 138.42 19.4725 15.7345
237 2 142.29 19.2787 15.9968
238 2 146.057 19.2048 0.178157
239 2 150.262 19.3181 16.0111
240 2 154.243 19.2537 0.114653
241 2 158.037 23.0466 16.0663
242 2 3.64385 23.1253 15.8452
243 2 7.60443 23.1123 0.046184
244 2 11.4641 22.9699 0.0218524
245 2 15.6228 22.9821 16.0964
246 2 19.7271 23.165 15.9883
247 2 23.5882 22.924 15.6835
248 2 27.5836 23.1128 15.6967
249 2 31.4632 23.1902 0.164203
250 2 35.36 23.4365 15.7503
251 2 39.5676 23.3804 0.0512071
252 2 43.3185 23.5683 15.8287
253 2 47.4469 23.6321 0.331544
254 2 51.5947 23.5194 0.190744
255 2 55.611 23.6568 0.06623
256 2 59.7214 23.7164 15.8178
257 2 63.5857 23.6058 0.457628
258 2 67.6649 23.6584 15.9308
259 2 71.5019 23.5563 15.7223
260 2 75.6098 23.938 0.165874
261 2 79.7127 23.8966 15.9806
262 2 83.7556 24.038 0.297225
263 2 87.6909 23.8633 15.9974
264 2 91.6447 23.9108 15.8286
265 2 95.4685 24.0121 16.0092
266 2 99.4367 23.8161 0.275886
267 2 103.572 23.8858 15.8134
268 2 107.184 23.9687 15.9809
269 2 111.013 23.7398 -0.00408756
270 2 114.964 23.5799 15.9214
271 2 118.816 23.5742 15.9506
272 2 122.85 23.3926 0.0691255
273 2 126.73 23.4794 15.8198
274 2 130.628 23.4579 15.7352
275 2 134.499 23.5394 15.806
276 2 138.421 23.5001 16.0465
277 2 142.224 23.3899 16.0071
278 2 146.407 23.2153 0.272983
279 2 150.475 23.1954 0.285215
280 2 154.332 23.0497 0.182988
281 2 158.148 27.0891 0.316267
282 2 3.7077 26.9915 0.285937
283 2 7.64058 27.0199 0.227509
284 2 11.5717 26.963 15.9816
285 2 15.4587 26.8175 15.8085
286 2 19.5764 26.8913 0.175338
287 2 23.6639 26.8553 15.9578
288 2 27.2728 26.9614 15.6666
289 2 31.3468 27.0799 0.131753
290 2 35.3776 27.2576 -0.108376
291 2 39.3807 27.2639 0.169157
292 2 43.3628 27.263 0.155018
293 2 47.4681 27.6286 0.00722483
294 2 51.3993 27.4263 15.748
295 2 55.5321 27.7106 0.0609493
296 2 59.2871 27.586 15.8805
297 2 63.3509 27.7484 15.9564
298 2 67.4751 27.633 16.0305
299 2 71.6195 27.592 15.8777
300 2 75.4882 27.7241 0.200834
301 2 79.5627 27.9329 0.236804
302 2 83.452 27.7948 15.9892
303 2 87.5527 27.8555 0.230615
304 2 91.4321 27.8627 0.184758
305 2 95.5111 27.9293 0.202089
306 2 99.3517 27.7882 0.214895
307 2 103.427 27.78 15.9363
308 2 107.333 27.7387 0.0351647
309 2 111.35 27.7494 16.0066
310 2 115.211 27.6819 15.9435
311 2 119.069 27.8011 0.109732
312 2 122.826 27.6278 0.257324
313 2 126.942 27.4286 15.9999
314 2 130.611 27.4544 15.8891
315 2 134.652 27.5263 16.1198
316 2 138.554 27.4751 15.9959
317 2 142.417 27.3901 0.0465396
318 2 146.341 27.1495 0.00483619
319 2 150.073 27.3606 0.169992
320 2 154.271 27.1606 0.0520528
321 2 158.125 31.311 15.9398
322 2 3.88274 31.1528 15.8121
323 2 7.83487 31.0198 16.0527
324 2 11.6839 30.8468 0.167835
325 2 15.5505 30.7995 0.207413
326 2 19.6549 30.767 16.01
327 2 23.5871 30.8414 15.8664
328 2 27.405 30.8741 0.117
329 2 31.5358 31.0937 15.7245
330 2 35.5138 31.1812 15.9151
331 2 39.4876 31.2464 15.858
332 2 43.3875 31.1708 0.110452
333 2 47.3382 31.4766 15.8833
334 2 51.3202 31.207 0.245999
335 2 55.5015 31.472 15.9556
336 2 59.2314 31.5877 0.155646
337 2 63.3887 31.6358 15.9638
338 2 67.3701 31.5109 0.137383
339 2 71.4715 31.7466 0.14749
340 2 75.4433 31.823 0.0713858
341 2 79.437 31.5416 15.9357
342 2 83.512 31.8219 0.0661612
343 2 87.6266 31.8842 15.9196
344 2 91.6022 31.8569 16.0286
345 2 95.4909 31.7933 16.1104
346 2 99.4667 31.9496 0.371319
347 2 103.572 31.9739 16.0016
348 2 107.486 31.8516 16.0437
349 2 111.327 31.9468 16.0839
350 2 115.276 31.6635 15.9178
351 2 119.053 31.6926 16.0781
352 2 122.978 31.491 15.8964
353 2 126.89 31.7314 15.8905
354 2 130.911 31.4202 15.9161
355 2 134.999 31.4598 16.0573
356 2 138.842 31.2921 15.9137
357 2 142.658 31.3021 0.0403246
358 2 146.471 31.2225 15.9828
359 2 150.223 31.2586 0.236832
360 2 154.171 31.2631 0.197908
361 2 -0.0749342 35.2188 0.287573
362 2 3.8491 35.0521 15.9552
363 2 7.88865 34.8966 15.955
364 2 11.8141 35.0975 15.9539
365 2 15.6604 34.9146 0.132368
366 2 19.6355 34.6828 0.266324
367 2 23.5885 34.7955 0.286617
368 2 27.3415 35.0006 -0.00844028
369 2 31.502 34.9091 0.150928
370 2 35.5033 35.0359 0.304282
371 2 39.3663 35.1153 0.235224
372 2 43.5516 35.3515 16.0917
373 2 47.4613 35.3858 15.9829
374 2 51.2694 35.1855 15.9356
375 2 55.2857 35.2201 0.16141
376 2 59.2685 35.3665 0.241075
377 2 63.3632 35.5622 16.0742
378 2 67.3551 35.7292 0.0995427
379 2 71.5921 35.4219 0.0989007
380 2 75.461 35.5958 15.8265
381 2 79.4008 35.3721 0.205578
382 2 83.358 35.642 15.8752
383 2 87.4239 35.6903 0.0984463
384 2 91.4729 35.5826 -0.0671263
385 2 95.5186 35.8197 15.9287
386 2 99.5366 35.8339 0.178415
387 2 103.492 35.8277 16.0072
388 2 107.407 35.8748 16.0197
389 2 111.252 35.7754 16.0826
390 2 115.133 35.6935 15.8965
391 2 119.23 35.6853 15.6537
392 2 122.851 35.6228 15.8822
393 2 126.908 35.5136 15.8679
394 2 130.934 35.3353 15.8522
395 2 134.642 35.3447 15.8749
396 2 138.91 35.2504 0.315415
397 2 142.592 35.381 0.177133
398 2 146.533 35.2638 0.130592
399 2 150.445 35.1703 15.9813
400 2 154.175 35.1016 0.33816
401 2 158.394 39.0753 0.418284
402 2 3.75974 38.9779 0.0802309
403 2 7.62291 39.0982 0.253658
404 2 11.6683 38.7528 15.9362
405 2 15.7707 38.8529 0.184719
406 2 19.6505 38.8685 15.8733
407 2 23.2825 38.8749 16.0284
408 2 27.2963 38.8186 15.954
409 2 31.2545 38.6799 -0.00335262
410 2 35.3808 38.9854 0.130729
411 2 39.396 39.1076 16.0559
412 2 43.3819 39.2997 0.195588
413 2 47.4382 39.0855 0.117113
414 2 51.4049 39.1735 15.984
415 2 55.2613 39.1548 0.200802
416 2 59.3919 39.3958 0.347528
417 2 63.4558 39.4533 0.150528
418 2 67.2862 39.3896 0.175705
419 2 71.4455 39.3961 0.129494
420 2 75.4807 39.4095 -0.00569749
421 2 79.4633 39.4631 0.144287
422 2 83.3535 39.3028 15.7392
423 2 87.3864 39.5527 15.9659
424 2 91.4147 39.5954 15.8996
425 2 95.3984 39.6094 16.0253
426 2 99.4823 39.6747 0.202969
427 2 103.46 39.7835 16.0134
428 2 107.452 39.9206 16.106
429 2 111.39 39.731 16.0866
430 2 115.199 39.6708 16.2168
431 2 119.03 39.3444 16.0496
432 2 122.992 39.5958 15.6353
433 2 127.036 39.2933 0.131355
434 2 131.085 39.3292 15.8634
435 2 134.846 39.2353 15.8384
436 2 138.771 39.3174 15.9316
437 2 142.685 39.4655 15.9828
438 2 146.575 39.2373 0.170336
439 2 150.418 39.3397 15.9303
440 2 154.298 39.0135 16.005
441 2 158.348 43.198 0.195031
442 2 4.10233 42.8873 16.0671
443 2 8.02922 42.9833 15.7274
444 2 11.88 43.0107 0.0967423
445 2 15.8074 42.9823 0.298118
446 2 19.4624 42.9043 0.212798
447 2 23.4129 43.0099 15.8877
448 2 27.4339 42.6731 15.8569
449 2 31.2795 42.819 0.139041
450 2 35.2348 42.8225 0.477766
451 2 39.052 42.9493 0.261388
452 2 43.3835 42.9012 0.222893
453 2 47.3412 42.8479 16.0231
454 2 51.437 43.0777 15.8864
455 2 55.3831 43.0655 0.134429
456 2 59.374 43.2088 15.8666
457 2 63.2501 43.4329 0.329855
458 2 67.4753 43.1998 0.254998
459 2 71.3582 43.4745 0.0796753
460 2 75.3257 43.3791 0.0800783
461 2 79.2524 43.4856 0.0259561
462 2 83.4214 43.4695 15.8506
463 2 87.4993 43.5235 15.8866
464 2 91.3672 43.5347 0.152703
465 2 95.4514 43.7229 0.0482946
466 2 99.6504 43.6706 15.9506
467 2 103.39 43.69 15.9902
468 2 107.417 43.5577 16.0948
469 2 111.298 43.7071 15.9362
470 2 115.298 43.6625 15.9491
471 2 119.248 43.5846 16.0009
472 2 122.934 43.319 15.9147
473 2 127.109 43.3755 0.33258
474 2 130.924 43.4645 0.168493
475 2 135 43.1928 16.041
476 2 138.661 43.2846 15.836
477 2 142.69 43.3599 15.957
478 2 146.603 43.3066 0.0935483
479 2 150.59 43.1724 0.119135
480 2 154.266 43.1004 0.132947
481 2 0.171644 47.2321 0.220191
482 2 4.01081 46.9361 0.243506
483 2 7.85635 47.1609 0.208879
484 2 12.0058 46.9664 0.145484
485 2 15.7493 46.8122 0.162781
486 2 19.7033 46.9609 0.161485
487 2 23.5417 46.9442 0.0607578
488 2 27.4547 46.9697 15.8188
489 2 31.3153 46.8876 0.29224
490 2 35.2449 46.9236 0.142974
491 2 39.2529 46.7887 15.9324
492 2 43.2592 46.7766 15.8146
493 2 47.2711 47.0471 0.197409
494 2 51.4256 46.9254 15.9347
495 2 55.4553 47.0199 16.0525
496 2 59.2682 47.371 16.0856
497 2 63.1646 47.1917 0.325212
498 2 67.4467 47.2541 0.177091
499 2 71.2782 47.4295 15.7917
500 2 75.2456 47.3977 0.282139
501 2 79.3027 47.2897 15.7943
502 2 83.3633 47.4487 15.7993
503 2 87.3063 47.245 0.137807
504 2 91.5142 47.4447 0.202765
505 2 95.3569 47.5864 0.0158626
506 2 99.4444 47.7338 0.147888
507 2 103.328 47.4912 0.12832
508 2 107.352 47.6944 16.0298
509 2 111.274 47.5762 15.8528
510 2 115.246 47.6297 0.466635
511 2 119.1 47.6931 15.8281
512 2 123.32 47.624 15.773
513 2 126.845 47.3561 16.0129
514 2 130.78 47.4684 15.7753
515 2 134.931 47.4543 15.8664
516 2 138.828 47.2985 15.8203
517 2 142.692 47.262 15.6289
518 2 146.437 47.402 0.157656
519 2 150.755 47.1918 0.212402
520 2 154.493 47.1416 15.9313
521 2 158.364 51.1985 0.183644
522 2 3.8275 51.0761 16.0639
523 2 7.8291 50.8783 15.9444
524 2 11.8501 50.9858 15.8056
525 2 15.7358 50.9406 0.254332
526 2 19.4823 50.896 16.1008
527 2 23.4979 50.7288 15.691
528 2 27.3768 51.0535 15.9886
529 2 31.4763 50.9128 0.246126
530 2 35.309 50.9741 0.246356
531 2 39.0627 50.6449 15.8953
532 2 43.2137 50.7934 15.8286
533 2 47.3934 50.6444 0.0498709
534 2 51.3103 50.9837 0.0842917
535 2 55.2366 50.9065 0.170418
536 2 59.3178 51.1258 15.9977
537 2 63.2265 51.2491 15.8772
538 2 67.1949 51.0064 0.283602
539 2 71.1519 51.2479 0.309284
540 2 75.274 51.2315 0.065214
541 2 79.2473 51.1199 0.203004
542 2 83.2893 51.2598 -0.0189764
543 2 87.392 51.2013 0.306635
544 2 91.3272 51.3546 -0.104116
545 2 95.3304 51.5613 0.0863069
546 2 99.341 51.4363 0.156361
547 2 103.313 51.5544 15.9214
548 2 107.28 51.5787 0.192566
549 2 111.139 51.4037 0.227868
550 2 115.178 51.6474 15.8614
551 2 119.314 51.5673 16.0894
552 2 123.238 51.7482 16.0919
553 2 127.05 51.3135 15.9684
554 2 130.934 51.3017 0.0852254
555 2 135.091 51.3021 0.148482
556 2 138.738 51.2829 0.124237
557 2 142.536 51.1608 0.00186448
558 2 146.525 51.2298 15.6597
559 2 150.589 51.1984 0.0200202
560 2 154.473 51.027 0.273172
561 2 158.383 55.1307 0.401006
562 2 4.03604 55.0727 0.253099
563 2 7.93458 54.8866 0.198113
564 2 11.863 54.8129 0.169927
565 2 15.7585 54.7087 0.218509
566 2 19.7502 54.9658 15.7622
567 2 23.5711 54.8598 15.5952
568 2 27.2855 54.9419 15.8942
569 2 31.3869 54.6448 0.00717692
570 2 35.3143 54.9097 0.154313
571 2 39.2453 54.6556 15.8973
572 2 43.187 54.605 16.0403
573 2 47.3891 54.6061 0.430738
574 2 51.3502 54.7894 16.0031
575 2 55.2311 54.9912 15.9364
576 2 59.1085 54.9843 15.9571
577 2 63.2804 55.0432 15.923
578 2 67.1631 55.0457 0.0483374
579 2 71.2646 55.151 0.0675602
580 2 75.2475 55.3618 15.8876
581 2 79.163 55.2013 0.145722
582 2 83.2503 55.2738 0.182832
583 2 87.2245 55.1733 0.123854
584 2 91.2832 55.3131 15.977
585 2 95.1922 55.449 0.128702
586 2 99.2457 55.1956 15.8723
587 2 103.173 55.4453 15.8887
588 2 107.215 55.6292 0.13839
589 2 111.211 55.3858 15.9433
590 2 115.197 55.647 15.9481
591 2 119.221 55.6124 15.968
592 2 123.01 55.3698 0.225224
593 2 126.94 55.4908 15.9199
594 2 130.873 55.383 15.7062
595 2 134.918 55.2097 0.118031
596 2 138.735 55.242 15.8556
597 2 142.725 55.2157 -0.1055
598 2 146.619 55.196 0.0188749
599 2 150.545 54.9974 0.157481
600 2 154.394 54.9733 16.1948
601 2 158.563 59.1505 0.349068
602 2 3.99408 59.029 15.9864
603 2 7.87966 59.0215 15.8127
604 2 12.0613 59.0053 0.0790728
605 2 16.0192 58.9505 15.941
606 2 19.7765 58.7358 0.0602058
607 2 23.73 58.6932 0.114091
608 2 27.4757 58.7657 0.0396373
609 2 31.2296 58.6432 15.9264
610 2 35.2993 58.6309 15.9393
611 2 39.0977 58.6358 15.8275
612 2 43.2032 58.5367 16.0307
613 2 47.1734 58.5125 16.0223
614 2 51.1377 58.5153 15.9861
615 2 55.0359 58.8885 15.9548
616 2 59.1314 58.867 0.0655973
617 2 63.2326 58.8798 16.0391
618 2 67.1007 58.8583 0.190897
619 2 71.0162 59.1807 15.883
620 2 75.1683 59.0799 0.101141
621 2 79.1656 59.0613 0.0783034
622 2 82.9441 59.2688 0.0203818
623 2 87.1368 59.1474 15.7463
624 2 91.1347 59.2749 15.8523
625 2 95.2148 59.1184 0.253245
626 2 99.2094 59.3078 0.230608
627 2 102.984 59.24 15.846
628 2 107.089 59.4109 0.266087
629 2 111.137 59.5032 16.0774
630 2 115.262 59.4857 16.0342
631 2 119.192 59.5041 16.077
632 2 122.936 59.5025 0.137964
633 2 127.253 59.5984 15.8238
634 2 131.139 59.4622 0.094383
635 2 134.821 59.2151 15.9805
636 2 138.81 59.2881 -0.0404103
637 2 142.69 59.1909 0.016214
638 2 146.56 59.2331 0.0563431
639 2 150.557 59.2295 15.9723
640 2 154.342 59.068 -0.0820557
641 2 0.186788 63.011 0.400269
642 2 4.1773 63.1151 0.294749
643 2 7.98315 62.9401 16.0116
644 2 11.9996 63.0178 16.162
645 2 15.8875 62.8625 16.0313
646 2 19.5577 62.8427 0.00672352
647 2 23.5448 62.9555 0.050348
648 2 27.5292 62.7579 0.0598792
649 2 31.4743 62.7795 0.386423
650 2 35.4187 62.5922 0.186911
651 2 39.1569 62.5342 15.9473
652 2 43.007 62.5302 0.16744
653 2 47.0341 62.6004 15.8823
654 2 50.9212 62.7431 16.083
655 2 54.9087 62.8106 0.203718
656 2 59.0219 62.8144 15.9504
657 2 63.0503 62.6649 0.319237
658 2 66.8929 62.8964 16.024
659 2 70.9851 63.0045 0.262827
660 2 75.0642 63.0478 0.251592
661 2 79.1936 63.2091 0.0809535
662 2 83.0263 63.1541 0.221618
663 2 87.03 63.2609 15.9123
664 2 90.9822 63.0384 15.9489
665 2 94.9755 63.2886 0.0492742
666 2 99.1172 63.1484 0.133669
667 2 103.186 63.321 15.851
668 2 107.215 63.3854 15.9659
669 2 111.114 63.2992 15.8632
670 2 115.063 63.4508 0.241442
671 2 118.901 63.5221 15.805
672 2 123.094 63.5467 -0.0124398
673 2 127.167 63.4754 15.8439
674 2 131.146 63.5922 0.00941159
675 2 134.824 63.2239 15.761
676 2 138.574 63.4552 15.9181
677 2 142.785 63.1112 15.8369
678 2 146.613 63.1426 0.103298
679 2 150.513 63.0417 16.1366
680 2 154.57 63.083 0.0429066
681 2 0.141126 66.8917 0.306807
682 2 3.96598 66.8747 0.385985
683 2 8.02103 67.018 15.8432
684 2 11.8837 66.9747 15.981
685 2 15.826 66.8853 0.181649
686 2 19.6578 66.9818 0.143523
687 2 23.4666 66.9079 0.123291
688 2 27.5162 66.6096 0.102919
689 2 31.6316 66.6894 0.127864
690 2 35.3844 66.741 0.408843
691 2 39.1795 66.7247 16.186
692 2 43.1277 66.5517 0.13722
693 2 46.9889 66.5866 16.0304
694 2 51.0415 66.4831 16.1248
695 2 55.1497 66.6765 16.1313
696 2 58.8324 66.6266 16.0576
697 2 62.9613 66.5943 16.0084
698 2 66.9887 66.7981 15.8692
699 2 70.9955 66.9501 0.143233
700 2 75.0023 66.9203 15.7595
701 2 78.9048 67.0605 15.9357
702 2 82.9332 67.0388 -0.0683621
703 2 87.1472 67.0045 15.9663
704 2 91.0363 67.1421 15.8644
705 2 94.9565 67.1699 0.163517
706 2 98.8323 67.1356 0.105865
707 2 102.969 67.0935 0.148382
708 2 107.101 67.186 15.909
709 2 111.043 67.2949 15.8999
710 2 114.902 67.3015 15.8346
711 2 118.969 67.5668 -0.0529144
712 2 123.086 67.3884 0.417596
713 2 127.016 67.5072 0.251581
714 2 130.854 67.2956 16.046
715 2 134.873 67.2797 0.178945
716 2 138.724 67.3042 0.146901
717 2 142.629 67.3096 15.751
718 2 146.666 67.2151 16.0676
719 2 150.676 67.113 16.1275
720 2 154.592 67.1201 0.0576909
721 2 0.261816 71.1835 0.0657328
722 2 4.05599 70.9397 15.7117
723 2 7.99032 70.8567 0.1892
724 2 11.8094 70.9448 15.9021
725 2 15.7971 70.8944 0.168683
726 2 19.7634 70.6591 0.205907
727 2 23.5215 70.9091 0.109092
728 2 27.3493 70.6472 15.9518
729 2 31.2543 70.5707 0.2898
730 2 35.3363 70.6934 0.209259
731 2 39.1362 70.6681 16.0379
732 2 43.1521 70.7393 0.318364
733 2 47.0222 70.7379 15.7988
734 2 51.0963 70.5898 15.7439
735 2 54.8822 70.5566 0.16863
736 2 59.0021 70.5548 0.17632
737 2 62.9689 70.7238 0.31829
738 2 66.8937 70.6035 15.983
739 2 70.7551 70.8817 15.9145
740 2 75.0647 70.8886 15.8664
741 2 79.0558 70.7038 0.0652598
742 2 82.9537 70.8889 0.103919
743 2 86.772 70.9632 15.9267
744 2 90.9939 70.906 15.7722
745 2 94.7616 71.0038 16.0168
746 2 98.9967 71.1985 16.0126
747 2 103.085 70.9112 15.9568
748 2 107.166 71.1406 15.8725
749 2 111.106 71.1873 15.917
750 2 115.092 71.119 0.120305
751 2 118.948 71.3123 15.9901
752 2 123.047 71.4148 0.235145
753 2 127.061 71.3519 16.0056
754 2 131.065 71.3222 15.8526
755 2 134.835 71.2212 16.055
756 2 138.769 71.2363 16.0319
757 2 142.652 71.1782 0.0927621
758 2 146.701 71.0532 0.159891
759 2 150.581 71.1045 0.147462
760 2 154.591 71.0525 16.0863
761 2 0.161294 75.0388 0.212362
762 2 4.16394 75.1019 15.8397
763 2 8.01443 74.9736 15.9091
764 2 11.9015 75.0965 15.8553
765 2 15.7385 75.0155 15.7932
766 2 19.5636 74.9077 15.8208
767 2 23.5357 74.791 16.0839
768 2 27.487 74.7348 15.8604
769 2 31.3106 74.8218 0.0164161
770 2 35.2917 74.6133 15.9662
771 2 39.2819 74.6993 16.1341
772 2 43.1702 74.6138 0.118104
773 2 47.0026 74.5468 15.8416
774 2 50.9804 74.6519 0.0886178
775 2 55.0468 74.6349 16.1042
776 2 58.9947 74.538 15.8856
777 2 62.9383 74.4728 15.8035
778 2 66.9974 74.6393 -0.0661592
779 2 70.8989 74.5283 0.0133258
780 2 74.7604 74.7707 0.370701
781 2 78.8787 74.7801 0.124049
782 2 82.7399 74.7064 0.227111
783 2 86.9268 74.8636 0.200202
784 2 90.9867 74.9692 16.0888
785 2 94.8765 75.0559 15.8745
786 2 98.9013 75.2556 0.185924
787 2 103.099 74.9217 15.8251
788 2 107.064 75.0702 15.8676
789 2 111.154 74.9302 15.9697
790 2 115.041 75.1957 15.9678
791 2 118.903 75.0947 0.179617
792 2 122.93 74.9744 16.1197
793 2 126.893 75.2217 16.1199
794 2 130.972 75.1591 0.0469025
795 2 135.007 75.1413 15.9945
796 2 138.76 75.1106 16.0407
797 2 142.772 75.4525 15.8576
798 2 146.761 75.1089 15.7834
799 2 150.641 75.0591 0.325117
800 2 154.607 75.1593 0.263863
801 2 0.203092 79.043 0.101799
802 2 4.13645 78.963 16.0788
803 2 7.97817 79.024 0.0993754
804 2 11.8657 79.0037 0.153742
805 2 15.825 78.9304 15.9256
806 2 19.6529 78.9338 15.834
807 2 23.6006 78.7627 0.21701
808 2 27.6766 78.732 0.182585
809 2 31.5753 78.7958 0.0656393
810 2 35.2593 78.6777 0.089989
811 2 39.2673 78.6969 15.8926
812 2 43.202 78.7688 15.7193
813 2 47.0834 78.5962 15.7764
814 2 51.064 78.5769 0.163824
815 2 54.8638 78.4541 0.0337204
816 2 58.9972 78.5228 15.9588
817 2 62.7753 78.5327 15.9346
818 2 66.6294 78.2893 0.146916
819 2 70.7973 78.6371 16.064
820 2 74.8126 78.6575 0.174512
821 2 78.7465 78.6198 15.8598
822 2 82.6672 78.6708 15.7382
823 2 86.9557 78.7249 0.0426265
824 2 90.9236 78.7335 0.175241
825 2 94.8829 78.7768 0.190437
826 2 98.9209 79.0421 15.9959
827 2 103.005 78.9244 15.9523
828 2 106.901 79.1526 0.0323158
829 2 110.911 78.88 0.127206
830 2 115.08 79.0606 0.166688
831 2 118.825 79.0818 0.218058
832 2 122.901 79.1652 15.9274
833 2 126.835 79.1262 0.33462
834 2 130.964 79.183 15.9055
835 2 134.77 79.1375 0.246742
836 2 138.936 79.2592 15.9182
837 2 142.852 79.0042 16.1771
838 2 146.868 79.1432 15.8624
839 2 150.686 79.005 16.0303
840 2 154.478 79.1061 -0.0152342
841 2 0.157082 83.0017 15.7628
842 2 4.03184 82.9262 15.9846
843 2 7.77307 82.9606 0.211442
844 2 11.8749 82.9603 15.8
845 2 15.881 83.0156 15.7602
846 2 19.7839 82.9106 0.206184
847 2 23.741 82.8864 16.0599
848 2 27.8668 82.9061 0.167894
849 2 31.4495 82.8423 15.7202
850 2 35.1499 82.8753 -0.0735908
851 2 39.3316 82.7542 0.0039203
852 2 43.3298 82.7715 15.9989
853 2 47.1675 82.6143 0.134165
854 2 50.9403 82.5866 0.00157646
855 2 55.0454 82.4814 -0.0142589
856 2 58.923 82.5286 15.9043
857 2 62.9707 82.7483 16.0541
858 2 66.7691 82.3057 15.9805
859 2 70.7594 82.4724 16.0909
860 2 74.8448 82.6141 15.7234
861 2 78.7904 82.5021 16.045
862 2 82.7602 82.871 0.131209
863 2 86.7904 82.6297 0.0273103
864 2 90.8404 82.8323 15.9613
865 2 94.8415 82.6052 0.127311
866 2 98.9487 82.8002 15.6741
867 2 102.944 82.9397 0.0658319
868 2 107.011 82.9037 15.9249
869 2 110.853 82.8888 15.7133
870 2 114.921 83.0012 15.9397
871 2 118.875 83.0548 15.7963
872 2 122.853 83.1323 15.9033
873 2 126.72 82.9412 16.0141
874 2 130.757 83.0982 15.9087
875 2 134.601 82.8934 0.277371
876 2 138.727 83.1939 16.0408
877 2 142.859 82.9969 0.17524
878 2 146.822 83.0037 15.8284
879 2 150.805 83.1868 -0.0456162
880 2 154.619 82.9554 0.00182014
881 2 0.483365 86.9575 15.8099
882 2 4.07386 87.19 0.160844
883 2 8.15826 86.7854 15.8273
884 2 11.9878 86.8877 15.9013
885 2 15.8751 87.0287 15.8723
886 2 19.9541 86.9442 15.83
887 2 23.6549 86.893 15.8486
888 2 27.5084 86.9634 0.117481
889 2 31.5646 86.8973 16.0519
890 2 35.3727 86.8448 -0.0264676
891 2 39.4378 86.665 15.8138
892 2 43.3555 86.682 15.6915
893 2 47.2226 86.697 15.7238
894 2 51.0115 86.567 15.9142
895 2 55.089 86.5777 15.7127
896 2 58.8161 86.4044 0.141918
897 2 62.8127 86.5794 0.275964
898 2 66.7705 86.3387 16.055
899 2 70.5949 86.4097 0.278765
900 2 74.6702 86.2183 15.9389
901 2 78.8011 86.3117 0.093154
902 2 82.5295 86.5274 0.157663
903 2 86.7887 86.5058 15.8704
904 2 90.795 86.768 15.8526
905 2 94.7119 86.4958 15.9245
906 2 98.6739 86.5805 16.0456
907 2 102.731 86.9105 0.132748
908 2 106.767 86.8738 0.25481
909 2 110.608 86.7532 15.8699
910 2 114.917 86.857 0.150643
911 2 118.913 86.9477 0.267274
912 2 122.693 86.8596 0.118392
913 2 126.811 87.0377 15.8643
914 2 130.683 87.048 15.8706
915 2 134.705 86.932 15.9635
916 2 138.783 86.8687 16.1287
917 2 142.786 87.2104 16.2483
918 2 146.853 87.0377 0.0439197
919 2 150.667 87.1726 15.8625
920 2 154.551 87.108 15.8251
921 2 0.25012 91.008 -0.163296
922 2 4.02793 90.9192 0.252937
923 2 8.18261 90.928 15.8826
924 2 12.0824 90.978 15.9163
925 2 15.9487 90.8028 0.0339159
926 2 19.7702 90.9355 -0.0145571
927 2 23.7871 91.001 15.8469
928 2 27.7148 90.8264 15.8694
929 2 31.6097 90.7843 15.8928
930 2 35.4857 90.8631 -0.00463791
931 2 39.4609 90.76 15.9069
932 2 43.4901 90.7163 15.839
933 2 47.3819 90.6485 -0.0276782
934 2 51.1651 90.473 0.340287
935 2 55.1839 90.4807 -0.0364108
936 2 58.9611 90.5842 0.118721
937 2 62.8811 90.2969 0.0280402
938 2 66.7913 90.438 15.9355
939 2 70.7884 90.4696 15.8861
940 2 74.6515 90.1987 0.245209
941 2 78.5143 90.4137 0.15279
942 2 82.768 90.3616 0.463414
943 2 86.8465 90.4591 0.201468
944 2 90.7277 90.5044 0.373512
945 2 94.6583 90.5632 15.9607
946 2 98.5358 90.8104 15.9511
947 2 102.733 90.6719 0.151423
948 2 106.819 90.7584 15.9309
949 2 110.742 90.571 16.1139
950 2 114.905 90.6812 0.143721
951 2 118.803 90.8725 0.297891
952 2 122.661 90.7799 15.8141
953 2 126.677 90.942 0.0882082
954 2 130.783 91.0579 0.237065
955 2 134.629 90.9887 15.9724
956 2 138.639 90.7136 16.0867
957 2 142.653 90.9517 15.9752
958 2 146.655 90.9791 15.9245
959 2 150.686 91.0041 15.8564
960 2 154.827 90.9923 15.8168
961 2 0.2802 95.2191 0.0317082
962 2 4.2592 95.129 15.5951
963 2 8.27753 94.9612 15.7223
964 2 12.1844 94.9479 15.8458
965 2 16.1278 94.8771 15.7694
966 2 19.7646 94.979 15.7282
967 2 23.8957 94.971 15.8083
968 2 27.7386 94.6315 15.8176
969 2 31.5647 94.8381 16.0826
970 2 35.6507 94.9007 16.0101
971 2 39.4169 94.6738 15.9644
972 2 43.4934 94.7154 16.0607
973 2 47.3244 94.8552 -0.0520794
974 2 51.2899 94.6184 15.8093
975 2 55.129 94.6578 0.0754568
976 2 59.1636 94.491 15.8598
977 2 63.0834 94.333 0.0415824
978 2 66.8806 94.3998 0.145133
979 2 70.6274 94.4556 0.209961
980 2 74.8533 94.2658 -0.0289966
981 2 78.7444 94.3772 15.9089
982 2 82.7641 94.3144 0.0108077