ITEM: TIMESTEP
22400
ITEM: NUMBER OF ATOMS
32000
ITEM: BOX BOUNDS xy xz yz pp pp pp
0.0000000000000000e+00 1.5831999999999999e+02 0.0000000000000000e+00
0.0000000000000000e+00 1.5831999999999999e+02 0.0000000000000000e+00
1.6404059513652847e-01 1.5933671404863318e+01 0.0000000000000000e+00
ITEM: ATOMS id type x y z
1 2 158.133 157.649 16.079
2 2 3.69735 157.716 16.0352
3 2 7.65229 157.992 0.0685263
4 2 11.8121 158.015 0.150474
5 2 15.8186 157.894 0.147453
6 2 19.9425 158.003 15.9959
7 2 23.8618 157.956 15.9254
8 2 27.9789 158.013 15.9147
9 2 31.7073 157.982 0.340871
10 2 35.9429 158.087 16.1297
11 2 39.8371 -0.152743 15.9585
12 2 43.6809 -0.0798955 0.150385
13 2 48.0082 -0.0346899 16.0017
14 2 51.9281 0.139297 0.38038
15 2 55.9017 158.4 0.161432
16 2 59.8782 158.469 16.0072
17 2 63.761 0.184367 16.0344
18 2 67.4872 0.167607 16.0264
19 2 71.7154 0.238374 16.0604
20 2 75.6295 158.385 16.1676
21 2 79.4358 0.0122936 16.0899
22 2 83.3302 158.533 15.8853
23 2 87.3379 158.406 16.117
24 2 91.1657 158.16 0.215536
25 2 95.1776 158.2 15.9546
26 2 99.2008 158.254 15.8841
27 2 102.86 158.218 15.8554
28 2 106.888 157.812 15.8247
29 2 110.624 158.107 0.212373
30 2 114.594 158.002 0.125182
31 2 118.463 157.941 15.8119
32 2 122.575 158.012 0.0918384
33 2 126.518 157.708 0.318989
34 2 130.365 157.686 0.0504579
35 2 134.407 157.709 15.7382
36 2 138.237 157.645 15.79
37 2 142.179 157.792 16.0147
38 2 146.14 157.681 16.0135
39 2 149.873 157.622 0.0969582
40 2 153.937 157.519 0.296878
41 2 157.884 3.12173 15.9937
42 2 3.50892 3.40855 16.1931
43 2 7.64619 3.40021 0.0987668
44 2 11.7058 3.58411 15.8102
45 2 15.9205 3.43469 15.8845
46 2 19.786 3.54756 15.9375
47 2 23.7095 3.61396 0.0659979
48 2 27.8126 3.70472 0.225638
49 2 31.8796 3.47694 0.197361
50 2 35.7868 3.55536 0.17691
51 2 39.7432 3.60373 0.269944
52 2 43.8217 3.85173 15.7807
53 2 47.854 3.94563 15.9006
54 2 51.8694 4.03635 15.7945
55 2 55.9725 3.93379 0.347664
56 2 59.7914 4.07342 15.6927
57 2 63.7197 4.11773 15.8239
58 2 67.6399 4.09798 15.9393
59 2 71.7638 4.15136 16.0895
60 2 75.5841 4.1732 15.9718
61 2 79.5219 3.96898 16.012
62 2 83.4647 4.11928 15.7463
63 2 87.2354 4.10197 15.8996
64 2 91.4556 3.97064 0.244778
65 2 95.3965 3.85463 16.3424
66 2 99.3598 3.87751 0.336089
67 2 103.089 3.69187 15.6932
68 2 107.074 3.73553 16.0463
69 2 110.949 3.65151 0.203676
70 2 114.659 3.58274 0.0824691
71 2 118.544 3.5123 0.139828
72 2 122.679 3.60225 0.255413
73 2 126.423 3.43217 0.15329
74 2 130.37 3.30659 0.316222
75 2 134.284 3.46359 15.8895
76 2 138.266 3.32306 0.23819
77 2 142.107 3.32178 0.274673
78 2 145.955 3.42524 0.219527
79 2 150.155 3.23134 15.9171
80 2 153.986 3.1925 15.9651
81 2 157.785 7.28637 15.9874
82 2 3.69433 7.04819 15.9213
83 2 7.73288 7.15923 15.7009
84 2 11.7202 7.35608 0.117325
85 2 15.9052 7.38762 15.9009
86 2 19.773 7.53076 15.865
87 2 23.8539 7.62446 -0.061881
88 2 27.7438 7.5028 15.8976
89 2 31.7872 7.53885 15.8489
90 2 35.8309 7.59814 16.1502
91 2 39.8016 7.65641 0.144056
92 2 43.7801 7.77303 0.274267
93 2 47.872 7.71527 15.9957
94 2 51.7672 7.97465 0.164752
95 2 55.6334 8.04059 16.1347
96 2 59.6523 8.00599 0.134575
97 2 63.7445 8.04302 15.8197
98 2 67.7792 7.98921 15.6076
99 2 71.8232 8.21209 16.0544
100 2 75.8787 8.17209 15.9954
101 2 79.6949 7.95313 0.223599
102 2 83.5942 8.14337 16.027
103 2 87.3795 8.06691 16.0356
104 2 91.5008 8.11603 15.8834
105 2 95.4253 7.82516 15.9939
106 2 99.2386 7.81448 0.281869
107 2 103.14 7.75584 0.107243
108 2 107.004 7.71374 15.8654
109 2 110.795 7.67208 0.142259
110 2 114.729 7.68792 15.9605
111 2 118.717 7.57062 15.93
112 2 122.603 7.65881 15.9625
113 2 126.499 7.53543 16.0046
114 2 130.315 7.44431 0.101853
115 2 134.188 7.41479 0.00888581
116 2 138.13 7.41132 15.8303
117 2 142.053 7.16426 15.8081
118 2 146.158 7.21213 0.153336
119 2 150.022 7.14742 0.137819
120 2 153.997 7.19864 15.7445
121 2 157.889 11.1289 15.9111
122 2 3.70834 11.205 15.8661
123 2 7.63307 11.0229 15.8327
124 2 11.5554 11.1593 0.243698
125 2 15.7199 11.3418 15.8767
126 2 19.6811 11.3293 16.1187
127 2 23.768 11.239 15.9672
128 2 27.7604 11.4279 16.0512
129 2 31.7437 11.4074 15.9802
130 2 35.7285 11.4109 16.0065
131 2 39.6022 11.7992 15.9164
132 2 43.6303 11.6587 0.158547
133 2 47.6645 11.8924 0.331141
134 2 51.6812 11.8911 15.9359
135 2 55.7845 11.8751 0.350529
136 2 59.8934 11.7702 15.8444
137 2 63.7303 12.0817 0.225972
138 2 67.7079 12.1157 15.9654
139 2 71.7577 11.9574 15.8812
140 2 75.7806 12.0747 16.1293
141 2 79.6863 12.0097 16.0853
142 2 83.7697 11.967 16.0348
143 2 87.386 11.9928 0.152418
144 2 91.3647 12.0107 -0.0320282
145 2 95.4222 11.791 15.7623
146 2 99.338 11.6555 16.0849
147 2 103.284 11.7133 0.0516587
148 2 107.102 11.7522 16.0093
149 2 110.906 11.7986 0.0986908
150 2 114.839 11.6152 15.7717
151 2 118.808 11.5239 0.187694
152 2 122.779 11.6792 0.257681
153 2 126.499 11.641 15.9062
154 2 130.624 11.5416 15.8125
155 2 134.368 11.2291 0.224221
156 2 138.207 11.1573 0.315132
157 2 142.209 11.3118 0.0111909
158 2 146.268 11.2423 0.256345
159 2 149.91 11.1095 -0.00334012
160 2 153.888 10.9974 0.129739
161 2 157.823 15.0595 15.9
162 2 3.79205 15.0983 15.8999
163 2 7.68067 15.0758 16.0644
164 2 11.5991 15.006 16.0058
165 2 15.6382 15.1201 15.932
166 2 19.5616 15.334 0.173188
167 2 23.6968 15.2246 0.154338
168 2 27.6244 15.2356 15.9737
169 2 31.6241 15.1677 0.0176423
170 2 35.5106 15.3621 15.7502
171 2 39.5105 15.4999 0.0023559
172 2 43.6095 15.3956 0.0563296
173 2 47.6434 15.731 -0.0207106
174 2 51.6125 15.7479 0.0578305
175 2 55.744 15.5485 16.0585
176 2 59.565 15.769 0.180156
177 2 63.7682 15.933 15.8489
178 2 67.5867 15.7827 16.0024
179 2 71.5701 15.8675 0.000728275
180 2 75.7398 16.203 0.228379
181 2 79.7327 16.0357 16.042
182 2 83.5939 16.001 0.266962
183 2 87.5221 15.9314 15.9874
184 2 91.5767 15.9453 0.193189
185 2 95.3961 15.7799 15.9755
186 2 99.3124 15.8124 16.0552
187 2 102.912 15.7706 15.9632
188 2 107.249 15.7516 15.9317
189 2 110.993 15.8085 15.9615
190 2 114.866 15.7235 15.9843
191 2 118.736 15.7446 0.358491
192 2 122.593 15.5228 15.9275
193 2 126.697 15.4131 15.9536
194 2 130.7 15.5311 0.341869
195 2 134.391 15.5672 0.163281
196 2 138.384 15.2089 0.168654
197 2 142.358 15.2012 15.7546
198 2 146.328 15.3376 0.223584
199 2 150.114 15.101 0.140341
200 2 154.098 15.2051 15.9898
201 2 157.925 18.9928 16.0186
202 2 3.73126 19.0945 0.234723
203 2 7.60299 19.0618 0.147246
204 2 11.661 18.9049 15.9172
205 2 15.5378 18.8712 15.9307
206 2 19.5773 18.9929 15.8923
207 2 23.7609 19.1775 15.7518
208 2 27.7074 19.0026 16.027
209 2 31.5695 19.2873 15.8967
210 2 35.5529 19.3527 16.0009
211 2 39.3834 19.4699 0.260018
212 2 43.6737 19.4173 16.0802
213 2 47.6312 19.5441 16.0477
214 2 51.8048 19.7175 0.239762
215 2 55.7614 19.5722 15.9054
216 2 59.7745 19.7534 15.928
217 2 63.6615 19.7756 15.9413
218 2 67.6937 19.9782 16.0439
219 2 71.6688 19.8967 0.187543
220 2 75.6238 19.8886 0.314514
221 2 79.7518 19.8587 0.267909
222 2 83.5872 19.9794 16.0357
223 2 87.5298 19.9774 0.149043
224 2 91.7225 20.0336 0.270487
225 2 95.6512 19.977 15.894
226 2 99.4508 19.9544 15.9059
227 2 103.356 19.7487 15.9613
228 2 107.186 19.7104 15.9385
229 2 111.019 19.637 0.11435
230 2 114.867 19.7012 15.8458
231 2 118.939 19.8861 15.9471
232 2 122.745 19.7547 15.9718
233 2 126.624 19.5377 15.8668
234 2 130.6 19.4116 16.0513
235 2 134.501 19.4007 0.399062
236 2 138.482 19.2802 15.9535
237 2 142.69 19.2763 16.0537
238 2 146.453 19.2654 0.269888
239 2 150.334 19.1094 15.9069
240 2 154.063 19.2691 0.335471
241 2 158.27 23.1093 15.6973
242 2 3.66743 23.0162 16.1833
243 2 7.65438 22.8877 0.286989
244 2 11.5648 22.965 0.14653
245 2 15.5124 23.085 15.971
246 2 19.4809 22.8855 15.9822
247 2 23.5723 23.1346 15.9784
248 2 27.544 23.3446 15.9779
249 2 31.4405 23.3423 0.187729
250 2 35.4714 23.3862 15.8876
251 2 39.7627 23.5338 0.0761075
252 2 43.4973 23.3251 15.9479
253 2 47.5137 23.4488 0.135859
254 2 51.547 23.5151 0.079129
255 2 55.5786 23.3742 0.224999
256 2 59.5683 23.4643 15.8849
257 2 63.5535 23.6606 0.273716
258 2 67.7784 23.7603 15.9274
259 2 71.5027 23.8848 15.9236
260 2 75.4556 23.7565 0.0900976
261 2 79.4439 23.9011 16.065
262 2 83.5221 23.8571 0.0830132
263 2 87.63 23.8807 15.8815
264 2 91.6226 24.0923 15.9353
265 2 95.6161 24.0944 16.0782
266 2 99.3439 23.9839 0.0912538
267 2 103.299 23.7605 16.0481
268 2 107.285 23.7132 15.9714
269 2 111.27 23.98 0.227312
270 2 115.209 23.7152 15.9448
271 2 119.265 23.7911 15.8541
272 2 122.916 23.431 0.0848457
273 2 126.798 23.512 15.847
274 2 130.801 23.3121 16.093
275 2 134.593 23.2848 15.9287
276 2 138.703 23.1176 15.8273
277 2 142.4 23.1208 15.8283
278 2 146.347 23.2946 -0.0118253
279 2 150.13 23.0443 0.0304659
280 2 154.263 23.1655 0.138234
281 2 158.085 27.0295 -0.0226561
282 2 3.78951 26.9778 -0.0100086
283 2 7.67313 27.0277 0.122749
284 2 11.5865 27.0598 15.8524
285 2 15.6952 26.9685 15.9595
286 2 19.375 26.8947 0.2302
287 2 23.2909 27.109 15.8355
288 2 27.441 27.1079 15.8272
289 2 31.589 27.1942 0.136359
290 2 35.4972 27.1084 0.211431
291 2 39.4617 27.3699 0.293304
292 2 43.6201 27.3512 0.106514
293 2 47.6613 27.2474 0.0998363
294 2 51.5545 27.4073 15.9147
295 2 55.4521 27.4585 0.14172
296 2 59.4596 27.6154 15.9964
297 2 63.6513 27.5158 15.8781
298 2 67.2974 27.8669 15.912
299 2 71.5528 27.8376 15.8351
300 2 75.5614 27.7484 0.0755964
301 2 79.5058 27.7178 0.00214787
302 2 83.3229 27.6399 15.8767
303 2 87.5548 27.8644 0.165737
304 2 91.4263 27.9866 0.16804
305 2 95.5106 27.9121 0.356881
306 2 99.5628 28.1646 0.166234
307 2 103.479 27.8941 15.888
308 2 107.243 27.8632 0.377163
309 2 111.067 27.7957 15.8623
310 2 114.942 27.7091 16.022
311 2 119.076 27.7146 0.0684312
312 2 123.008 27.6796 0.167594
313 2 126.966 27.4185 15.788
314 2 130.827 27.4055 15.8451
315 2 134.715 27.3352 15.957
316 2 138.592 27.3947 15.9089
317 2 142.516 27.1995 0.278092
318 2 146.72 27.3234 0.133381
319 2 150.453 27.1968 -0.0681346
320 2 154.248 27.1307 0.0414234
321 2 158.274 31.0578 15.577
322 2 3.81238 30.8384 16.0494
323 2 7.69544 30.9818 16.0318
324 2 11.5253 30.7989 -0.00231854
325 2 15.517 31.0682 0.289054
326 2 19.4077 30.892 16.0759
327 2 23.3042 30.9192 15.8902
328 2 27.3196 31.0594 0.10477
329 2 31.3325 31.2046 16.127
330 2 35.3821 31.1687 15.916
331 2 39.4236 31.0623 15.9893
332 2 43.3396 31.3328 0.23045
333 2 47.618 31.2496 15.8127
334 2 51.6339 31.3308 -0.149604
335 2 55.5234 31.4139 15.8379
336 2 59.567 31.3292 0.0373004
337 2 63.5456 31.6037 16.1034
338 2 67.529 31.5734 0.199011
339 2 71.5475 31.581 0.101827
340 2 75.6104 31.5832 0.137513
341 2 79.6169 31.6734 15.8272
342 2 83.4247 31.7188 0.241206
343 2 87.5052 31.8444 15.895
344 2 91.5257 31.8587 15.7725
345 2 95.6728 31.7394 15.8742
346 2 99.4665 31.9674 0.183474
347 2 103.343 31.8416 15.9209
348 2 107.496 31.8954 15.9101
349 2 111.32 31.8335 16.0404
350 2 115.123 31.4925 15.9176
351 2 119.11 31.6291 15.9945
352 2 123.169 31.4983 15.8827
353 2 126.885 31.4292 15.8816
354 2 130.673 31.3096 15.7803
355 2 134.712 31.4302 15.877
356 2 138.574 31.3086 15.8293
357 2 142.502 31.1273 0.158724
358 2 146.572 31.1164 15.8939
359 2 150.607 31.2395 -0.0594463
360 2 154.368 31.0365 0.00870155
361 2 -0.0582312 35.0088 0.258577
362 2 3.77879 35.1239 15.7943
363 2 7.61309 34.9176 15.8648
364 2 11.514 34.9021 16.087
365 2 15.4468 34.8338 0.213932
366 2 19.4014 34.8528 0.127691
367 2 23.2232 34.6556 0.0904131
368 2 27.3353 34.9436 0.0832451
369 2 31.2282 34.978 0.0804931
370 2 35.2183 35.0892 0.0513999
371 2 39.3222 35.1166 0.0784589
372 2 43.3874 35.1288 15.6905
373 2 47.3368 35.0357 15.8719
374 2 51.3583 35.5427 15.9681
375 2 55.4803 35.2897 0.0985589
376 2 59.4274 35.5267 0.148039
377 2 63.5306 35.4744 15.7327
378 2 67.3928 35.5055 0.26903
379 2 71.4868 35.5023 0.235593
380 2 75.476 35.5409 16.1244
381 2 79.4814 35.805 0.241713
382 2 83.5842 35.7444 15.7503
383 2 87.6194 35.5813 -0.118263
384 2 91.3774 35.8246 0.107152
385 2 95.5404 35.8051 15.9696
386 2 99.676 35.8518 0.235085
387 2 103.522 35.8347 16.1471
388 2 107.439 35.732 15.9802
389 2 111.428 35.5656 15.9479
390 2 115.215 35.6616 16.0601
391 2 119.277 35.6537 15.9274
392 2 123.195 35.5805 15.9249
393 2 126.926 35.3869 15.7721
394 2 130.823 35.4826 15.961
395 2 134.793 35.3153 15.8118
396 2 138.878 35.2438 -0.02209
397 2 142.552 35.2185 0.131906
398 2 146.418 35.3109 0.202172
399 2 150.508 35.1377 15.8244
400 2 154.555 35.0829 0.166395
401 2 158.22 39.0264 0.0243567
402 2 3.96722 39.0749 0.121957
403 2 7.84302 38.9698 0.176449
404 2 11.7713 39.0184 15.9617
405 2 15.5508 38.7121 0.195215
406 2 19.313 38.9228 16.008
407 2 23.4891 38.8422 15.9119
408 2 27.4579 38.7229 15.9661
409 2 31.3229 38.9008 0.272903
410 2 35.2664 38.7134 0.180468
411 2 39.1162 38.8474 15.9674
412 2 43.27 38.8434 0.191805
413 2 47.1439 39.1376 0.255897
414 2 51.4859 39.1971 15.8459
415 2 55.4994 39.338 0.0752078
416 2 59.3949 39.3933 0.0066298
417 2 63.4311 39.3913 -0.000549444
418 2 67.3537 39.4139 0.144842
419 2 71.2583 39.3859 0.141718
420 2 75.3065 39.5673 0.199201
421 2 79.4397 39.6135 0.0505036
422 2 83.5224 39.8002 16.0049
423 2 87.4512 39.7773 15.8752
424 2 91.3627 39.6748 15.9967
425 2 95.4742 39.6449 15.9104
426 2 99.3495 39.6401 0.157815
427 2 103.434 39.8487 16.041
428 2 107.466 39.6441 16.017
429 2 111.373 39.7263 16.0005
430 2 115.345 39.7528 15.8022
431 2 119.459 39.7068 15.8598
432 2 123.2 39.5809 16.0352
433 2 126.937 39.5675 0.176817
434 2 130.812 39.4924 16.0123
435 2 134.695 39.3806 15.8735
436 2 138.515 39.3956 15.8777
437 2 142.574 39.105 15.8699
438 2 146.545 39.1433 0.261089
439 2 150.441 38.9463 15.7808
440 2 154.439 39.1605 15.8068
441 2 158.203 43.1564 0.0953859
442 2 3.77861 42.9555 15.9102
443 2 7.57877 42.9207 15.7311
444 2 11.6423 42.9152 0.237434
445 2 15.5303 42.9712 0.186613
446 2 19.6727 42.6411 0.238463
447 2 23.4488 42.8184 15.8728
448 2 27.4332 42.7972 15.8822
449 2 31.2637 42.796 0.0375024
450 2 35.3808 42.6405 -0.0455428
451 2 39.4065 42.7485 0.0521944
452 2 43.3919 42.8708 0.0950713
453 2 47.2906 42.9909 15.989
454 2 51.2859 43.0163 16.0371
455 2 55.3049 43.2737 0.237432
456 2 59.0264 43.2536 16.0851
457 2 63.2737 43.1697 0.00753602
458 2 67.1504 43.43 0.122218
459 2 71.1436 43.2597 0.263639
460 2 75.4994 43.4386 0.197309
461 2 79.2853 43.5368 0.00899833
462 2 83.2403 43.7221 15.9463
463 2 87.3103 43.5798 15.7707
464 2 91.3831 43.5771 0.220242
465 2 95.3338 43.6279 0.24393
466 2 99.2247 43.5756 15.9835
467 2 103.31 43.6484 15.9305
468 2 107.389 43.6443 15.9123
469 2 111.482 43.6438 16.0138
470 2 115.368 43.8565 15.8757
471 2 119.292 43.6206 15.9318
472 2 123.186 43.8412 16.0812
473 2 126.939 43.9995 0.0351413
474 2 130.707 43.4795 0.0930435
475 2 134.847 43.454 15.6869
476 2 138.743 43.274 15.9329
477 2 142.713 43.122 15.807
478 2 146.573 43.2367 0.236672
479 2 150.493 42.9854 0.0874538
480 2 154.296 43.0589 0.213068
481 2 -0.0379933 47.0176 0.183966
482 2 3.93479 47.0702 0.123479
483 2 7.67275 47.0187 0.0705676
484 2 11.5915 46.9256 0.281485
485 2 15.5823 46.71 0.273742
486 2 19.5605 46.7661 0.0779195
487 2 23.4064 46.7119 0.346524
488 2 27.2636 46.7474 15.9465
489 2 31.398 46.6222 -0.0612717
490 2 35.2092 46.8342 0.357433
491 2 39.0747 46.7432 15.876
492 2 43.1045 46.7531 15.8122
493 2 47.0671 46.9884 0.0167876
494 2 51.2866 47.0215 15.9018
495 2 55.1009 47.0757 15.8777
496 2 59.2461 47.1619 15.9569
497 2 63.1652 47.1604 0.11517
498 2 67.3174 47.3039 0.197262
499 2 71.0289 47.0636 15.9009
500 2 75.0828 47.1764 0.0502964
501 2 79.2849 47.4908 15.9197
502 2 83.3865 47.4851 15.9941
503 2 87.1125 47.509 0.218784
504 2 91.0157 47.5509 0.0841626
505 2 95.3317 47.5082 0.0857863
506 2 99.5556 47.5473 0.166587
507 2 103.316 47.532 0.421994
508 2 107.204 47.6416 16.0434
509 2 111.485 47.9037 15.9392
510 2 115.107 47.7085 0.128541
511 2 119.066 47.5645 15.8678
512 2 123.141 47.5333 16.0487
513 2 127.224 47.6818 15.7333
514 2 131.053 47.4764 15.9829
515 2 134.845 47.5404 15.7972
516 2 138.77 47.501 15.9552
517 2 142.592 47.1435 15.8394
518 2 146.558 47.122 0.154539
519 2 150.47 47.0015 -0.0962265
520 2 154.327 47.0918 15.6753
521 2 158.386 50.9795 0.070339
522 2 4.02261 50.8641 15.8547
523 2 7.8948 50.9517 15.8827
524 2 11.8389 50.9414 16.1073
525 2 15.7916 50.8965 0.176825
526 2 19.6554 50.9171 15.6682
527 2 23.6372 50.6803 15.9226
528 2 27.4801 50.9484 15.9749
529 2 31.36 50.7253 0.340963
530 2 35.2148 50.6813 -0.156491
531 2 39.2089 50.6724 15.9235
532 2 43.2218 50.8625 15.9808
533 2 46.9537 50.9744 0.249519
534 2 51.1778 50.9575 0.0953565
535 2 55.1755 51.113 0.0480078
536 2 59.0984 50.9549 16.0462
537 2 63.0885 51.1709 16.0655
538 2 67.0782 51.2338 0.291091
539 2 71.1764 51.1887 -0.0214879
540 2 75.0547 51.1775 0.124606
541 2 79.1863 51.3389 0.0893671
542 2 83.2657 51.2336 0.242511
543 2 87.0827 51.4261 -0.0696988
544 2 91.0335 51.3806 0.249084
545 2 95.2514 51.3615 0.056476
546 2 99.0555 51.5941 0.105576
547 2 103.253 51.6146 16.0838
548 2 107.339 51.4657 0.118705
549 2 111.214 51.836 0.381886
550 2 115.194 51.5139 16.0245
551 2 119.227 51.5355 15.9821
552 2 123.035 51.6305 15.8912
553 2 127.033 51.5522 15.7419
554 2 130.753 51.5216 0.111846
555 2 134.951 51.4049 -0.0343973
556 2 138.799 51.391 0.027084
557 2 142.925 51.2166 0.131202
558 2 146.694 51.1587 15.9203
559 2 150.48 51.2202 -0.0175405
560 2 154.555 50.8745 -0.11063
561 2 158.482 55.0354 0.0833924
562 2 3.95199 54.9279 0.210092
563 2 7.98352 54.9635 0.231817
564 2 11.7582 54.8954 0.282886
565 2 15.6908 54.7915 0.0763067
566 2 19.5384 54.7648 15.8912
567 2 23.6938 54.9475 15.9744
568 2 27.4197 54.807 15.9057
569 2 31.4215 54.6506 0.0865056
570 2 35.2577 54.6709 0.214217
571 2 39.2042 54.7843 16.116
572 2 43.1104 54.6569 15.8461
573 2 46.8434 54.7274 0.125708
574 2 51.0283 54.8157 16.2047
575 2 54.9641 54.9705 16.0178
576 2 58.9973 54.87 15.9487
577 2 63.0651 54.9935 15.945
578 2 67.0447 55.3394 0.317302
579 2 71.1177 54.9281 0.285378
580 2 75.0262 54.9668 15.9338
581 2 78.9412 55.3237 0.187319
582 2 83.223 55.3923 -0.117464
583 2 87.2369 55.3861 0.102716
584 2 91.2318 55.2269 15.8941
585 2 95.0814 55.4455 0.0354344
586 2 99.3014 55.53 15.9636
587 2 103.192 55.4155 16.0092
588 2 107.09 55.3679 0.094247
589 2 111.283 55.6311 15.9623
590 2 115.374 55.5337 16.0096
591 2 119.397 55.5851 16.0044
592 2 123.147 55.4892 0.166274
593 2 127.118 55.5389 15.9885
594 2 131.325 55.5446 16.1252
595 2 134.971 55.3601 0.0772945
596 2 138.782 55.4934 15.9325
597 2 142.775 55.1957 0.243601
598 2 146.803 55.1155 0.204856
599 2 150.691 55.1807 0.056691
600 2 154.675 55.2063 15.9269
601 2 158.437 58.9462 0.142842
602 2 4.03875 59.1079 15.9625
603 2 7.73795 58.9233 16.0195
604 2 11.5665 58.9778 0.363276
605 2 15.4651 59.0339 16.2093
606 2 19.6193 58.8263 0.0946326
607 2 23.5404 58.7761 0.0749718
608 2 27.3747 58.6839 0.055292
609 2 31.4843 58.6538 15.7866
610 2 35.3213 58.6564 15.8527
611 2 39.0578 59.0192 15.9919
612 2 42.9206 58.7933 15.9757
613 2 46.9311 58.6495 16.0544
614 2 51.0513 58.7831 16.1586
615 2 55.0588 58.7506 16.1311
616 2 58.933 59.0027 0.340183
617 2 62.9301 59.0727 15.9286
618 2 67.0685 59.0449 0.104741
619 2 71.0383 58.9138 16.0448
620 2 74.9646 58.8971 0.148672
621 2 79.1093 59.077 -0.0622431
622 2 83.2079 59.0762 0.215232
623 2 87.2251 59.2781 15.9345
624 2 91.1922 59.3387 15.9374
625 2 95.2147 59.3942 0.105804
626 2 99.0883 59.4032 0.0962786
627 2 103.227 59.3242 15.7971
628 2 107.29 59.3837 0.293915
629 2 111.161 59.3167 15.8121
630 2 115.093 59.3822 15.8871
631 2 119.286 59.5896 15.7703
632 2 123.37 59.6005 0.14441
633 2 127.145 59.4573 16.1221
634 2 131.031 59.2689 0.137989
635 2 134.691 59.4274 15.904
636 2 138.82 59.422 0.0909173
637 2 143.048 59.2655 0.297966
638 2 146.776 59.1268 0.0483302
639 2 150.64 59.2381 15.9784
640 2 154.507 59.0911 0.380111
641 2 -0.0395617 63.0241 -0.0635614
642 2 3.98319 63.0205 0.0990634
643 2 7.85675 62.8011 15.8842
644 2 11.7253 62.8775 15.9114
645 2 15.5485 62.9216 15.7971
646 2 19.7402 62.8347 0.392272
647 2 23.5024 62.8933 0.244923
648 2 27.339 62.7521 0.135953
649 2 31.3479 62.7502 0.134098
650 2 35.3449 62.7573 0.416464
651 2 39.414 62.7912 15.9902
652 2 43.3596 62.8174 0.205632
653 2 47.1745 62.8096 15.9999
654 2 50.8869 62.7339 16.0222
655 2 54.8744 62.7982 0.245705
656 2 58.9817 63.1228 15.8668
657 2 63.0401 63.0842 0.16517
658 2 66.8756 62.8896 15.8526
659 2 71.0421 62.9427 0.0486806
660 2 75.0412 62.9357 0.116145
661 2 78.9883 62.8701 0.180267
662 2 83.1249 62.9 0.0421545
663 2 87.0661 63.1157 15.9345
664 2 90.9948 63.1059 15.8494
665 2 95.2773 63.222 0.111809
666 2 99.0783 63.4185 0.218136
667 2 102.983 63.1723 16.1351
668 2 106.936 63.1836 15.9826
669 2 111.123 63.2888 16.0755
670 2 115.194 63.4994 0.195178
671 2 119.037 63.1873 16.155
672 2 123.123 63.3766 0.278129
673 2 127.04 63.3046 16.1347
674 2 130.771 63.2593 0.138784
675 2 134.92 63.3263 15.878
676 2 138.739 63.4143 16.2901
677 2 142.853 63.1582 16.1535
678 2 146.636 63.1569 0.0463012
679 2 150.633 63.2535 15.6042
680 2 154.504 63.1283 0.243838
681 2 0.1675 67.1615 0.0872558
682 2 3.99021 67.0786 0.0974465
683 2 7.91594 66.8474 15.7997
684 2 11.9355 66.9258 15.7768
685 2 15.7043 66.7766 0.0752693
686 2 19.5771 67.0008 0.116572
687 2 23.4754 66.7982 0.0976594
688 2 27.3467 66.8341 0.391476
689 2 31.3302 66.967 0.129203
690 2 35.1951 66.7699 0.0728494
691 2 39.1635 66.8487 15.6773
692 2 43.099 66.6807 0.127305
693 2 47.0728 66.5909 15.8218
694 2 50.8499 66.6068 15.9614
695 2 54.9231 66.6873 15.891
696 2 58.9373 66.8842 15.8274
697 2 62.9098 67.0771 16.0662
698 2 66.7928 66.9759 15.9148
699 2 71.0194 66.7324 0.148162
700 2 75.0274 66.8146 16.05
701 2 79.1147 67.031 15.9908
702 2 82.9601 66.9872 0.238443
703 2 86.9401 66.9885 15.9669
704 2 91.0232 67.0652 16.0243
705 2 95.0069 67.0427 0.206821
706 2 99.2666 67.0584 0.081119
707 2 103.152 67.2783 0.258099
708 2 107.079 67.0916 16.017
709 2 111.098 67.1976 16.0531
710 2 115.219 67.2716 15.9316
711 2 119.026 67.1437 0.249591
712 2 123.178 67.2498 -0.0109784
713 2 127.088 67.2936 0.0321566
714 2 131.136 67.4048 15.9917
715 2 135.021 67.3931 0.138693
716 2 138.967 67.274 0.26109
717 2 142.819 67.1466 16.0654
718 2 146.733 67.0883 15.8897
719 2 150.666 67.1806 15.9225
720 2 154.538 67.19 0.333435
721 2 -0.14836 71.0017 0.223048
722 2 4.11306 70.914 16.1148
723 2 7.94579 71.1905 0.175992
724 2 11.906 70.784 15.8775
725 2 15.7962 70.8771 0.0546248
726 2 19.7161 70.9034 -0.0874768
727 2 23.6794 70.9294 0.243885
728 2 27.5016 70.9219 15.8874
729 2 31.4151 70.8568 0.0936451
730 2 35.4311 70.8061 0.270772
731 2 39.265 70.7286 15.8047
732 2 43.1574 70.7422 0.198723
733 2 46.9525 70.6319 16.0312
734 2 50.9197 70.5975 15.7921
735 2 54.9582 70.5297 0.147201
736 2 58.8288 70.6344 0.232663
737 2 62.9886 70.722 0.121355
738 2 66.9371 70.6718 16.0316
739 2 70.9079 70.8241 15.9847
740 2 75.0368 70.6273 15.9951
741 2 78.9468 70.8862 -0.0658196
742 2 82.8798 70.8036 0.110371
743 2 86.9228 70.8168 15.9548
744 2 91.0598 70.9596 16.0208
745 2 95.0032 70.8908 15.8021
746 2 98.99 70.953 15.8643
747 2 102.941 71.1692 15.9837
748 2 106.831 71.0603 15.9144
749 2 110.998 71.0584 15.9418
750 2 115.004 71.236 0.290382
751 2 119.046 71.3137 15.9691
752 2 123.073 71.3346 0.230769
753 2 127.016 71.251 15.9431
754 2 131.037 71.3642 16.1602
755 2 134.993 71.3986 15.9141
756 2 138.822 71.104 15.9925
757 2 142.785 71.0687 0.238557
758 2 146.676 71.2814 0.259051
759 2 150.507 70.93 0.088863
760 2 154.466 71.1197 15.6652
761 2 0.149575 75.0458 0.356493
762 2 3.92687 74.9364 16.0724
763 2 7.92178 75.0371 16.0845
764 2 11.9522 74.9966 15.9366
765 2 15.7811 74.9055 15.9183
766 2 19.9003 74.9998 15.9803
767 2 23.8418 74.9804 15.944
768 2 27.5387 74.7208 15.8937
769 2 31.5503 74.8933 -0.0752441
770 2 35.3899 74.9086 16.1081
771 2 39.1703 74.5699 15.7717
772 2 43.1763 74.5776 0.172862
773 2 46.9988 74.5705 16.0204
774 2 50.8521 74.4704 0.147508
775 2 54.7764 74.6201 15.8528
776 2 58.9019 74.5167 16.0877
777 2 62.6303 74.7191 16.0039
778 2 66.8302 74.7089 0.392679
779 2 71.0522 74.5793 0.236001
780 2 74.8638 74.7094 -0.101287
781 2 78.9755 74.8567 0.101993
782 2 82.8859 74.767 0.104287
783 2 86.9608 74.7856 0.173184
784 2 90.9739 74.8328 15.9036
785 2 95.124 74.9445 16.0633
786 2 98.9363 74.7162 0.314483
787 2 102.991 75.0086 16.0005
788 2 106.923 74.8125 16.156
789 2 110.746 75.1406 16.0404
790 2 115.002 75.1535 15.9733
791 2 118.926 75.211 0.258651
792 2 122.928 75.2429 15.8817
793 2 126.941 75.1817 15.873
794 2 131.114 75.3185 0.32095
795 2 135.039 75.1867 15.9841
796 2 139.044 75.388 16.1855
797 2 143.035 75.4722 16.0865
798 2 146.624 75.0799 15.9739
799 2 150.735 75.3265 0.176781
800 2 154.468 75.1025 0.206696
801 2 0.0316202 79.1228 0.116662
802 2 3.9312 78.9107 15.7813
803 2 8.08047 78.9934 0.104477
804 2 11.9512 78.7273 0.266401
805 2 15.9992 78.8343 16.0093
806 2 19.8026 79.1097 16.0168
807 2 23.6566 78.9727 0.010094
808 2 27.5569 78.923 0.101534
809 2 31.4669 78.848 0.198393
810 2 35.4386 78.8838 0.0579542
811 2 39.3171 78.7327 15.8635
812 2 43.2336 78.639 16.0688
813 2 47.0616 78.742 16.1066
814 2 50.9203 78.5913 0.111173
815 2 55.092 78.5995 0.176539
816 2 58.8399 78.4781 15.9803
817 2 62.7595 78.5489 15.9912
818 2 66.8146 78.6834 0.0655121
819 2 70.8732 78.6543 15.8731
820 2 74.821 78.7362 0.141079
821 2 78.9584 78.6517 15.9254
822 2 82.9889 78.6973 15.9183
823 2 86.9161 78.7252 0.240885
824 2 90.9036 78.9264 0.214476
825 2 94.9489 78.8095 0.165462
826 2 98.9625 78.8402 15.9991
827 2 102.832 78.774 16.1441
828 2 106.801 78.8279 0.196685
829 2 110.895 79.0813 0.309388
830 2 114.833 78.9035 0.230448
831 2 118.959 78.9852 -0.00165923
832 2 122.85 78.9849 15.7943
833 2 126.958 79.1728 0.145024
834 2 131.019 79.2257 16.0774
835 2 134.919 79.0898 -0.00350369
836 2 138.81 79.205 15.9732
837 2 142.77 79.1541 15.8348
838 2 146.669 79.1871 15.9004
839 2 150.676 79.066 15.7443
840 2 154.709 79.1073 0.16284
841 2 0.406727 83.1346 15.9245
842 2 4.28855 83.003 15.8157
843 2 8.22008 83.0766 0.113126
844 2 12.0506 83.1215 15.9118
845 2 16.0033 82.8676 16.0317
846 2 19.8078 82.908 0.2941
847 2 23.5242 82.7853 15.8089
848 2 27.5547 82.837 -0.00663235
849 2 31.7115 82.8163 15.8361
850 2 35.5302 82.8249 0.086777
851 2 39.379 82.7939 0.137776
852 2 43.2906 82.5766 15.8746
853 2 47.1462 82.6267 0.349347
854 2 50.9587 82.6325 0.0341287
855 2 54.9324 82.5696 0.228624
856 2 58.7268 82.5986 15.8289
857 2 62.6995 82.3497 15.8851
858 2 66.8443 82.5382 15.8596
859 2 70.8278 82.3594 15.726
860 2 74.5357 82.4674 16.0127
861 2 78.8442 82.6039 15.7321
862 2 82.8459 82.6144 0.195201
863 2 86.9156 82.5291 0.409526
864 2 90.6861 82.5835 16.0632
865 2 94.9718 82.708 0.341464
866 2 98.6732 82.7666 16.1539
867 2 102.66 82.6463 0.279894
868 2 106.849 82.7927 16.007
869 2 110.797 82.9074 16.126
870 2 114.894 82.9383 15.8725
871 2 118.862 83.0034 15.7281
872 2 122.973 82.9514 15.8257
873 2 126.836 83.0756 15.8256
874 2 130.913 82.9755 15.8636
875 2 135.044 83.1292 0.340568
876 2 138.836 83.0087 15.8806
877 2 142.832 83.14 0.155701
878 2 146.935 83.4874 16.0023
879 2 150.647 83.1416 0.111436
880 2 154.6 82.9653 0.018124
881 2 0.054388 87.1467 15.9353
882 2 4.14511 87.1119 -0.0570064
883 2 8.05403 87.0746 16.0056
884 2 11.9854 87.1225 15.9072
885 2 15.8149 86.8496 15.9429
886 2 19.9538 86.7473 15.978
887 2 23.7365 86.8612 15.9572
888 2 27.7313 86.7119 0.112248
889 2 31.6888 86.8347 15.6683
890 2 35.5808 86.8266 0.104388
891 2 39.2421 86.8768 15.8523
892 2 43.1835 86.7908 15.9313
893 2 47.2972 86.8201 16.0115
894 2 51.0261 86.837 15.8685
895 2 55.1683 86.6244 15.7322
896 2 59.2279 86.4755 -0.086406
897 2 62.9613 86.41 0.00535327
898 2 66.9184 86.3302 15.8422
899 2 70.8599 86.301 0.125514
900 2 74.673 86.4762 16.0118
901 2 78.8214 86.4496 0.289241
902 2 82.7116 86.458 0.0049569
903 2 86.9514 86.4931 16.0872
904 2 90.718 86.3946 16.0101
905 2 94.7594 86.7696 15.7989
906 2 98.8366 86.618 15.9188
907 2 102.85 86.5989 0.320167
908 2 106.722 86.5777 0.0583462
909 2 111.09 86.8726 15.9626
910 2 114.838 86.8532 0.013379
911 2 118.766 86.8696 -0.143078
912 2 122.819 86.872 0.0355164
913 2 126.861 86.9883 15.7953
914 2 130.887 86.9226 16.2495
915 2 134.86 86.9755 15.8318
916 2 138.876 87.1463 16.0893
917 2 142.794 87.1871 15.812
918 2 146.822 87.1833 0.120349
919 2 150.697 87.1867 15.7812
920 2 154.735 87.1732 15.8183
921 2 0.379973 91.1802 0.124201
922 2 4.30802 91.1479 -0.0446709
923 2 8.22496 91.0944 15.7028
924 2 12.0697 91.1269 15.6489
925 2 15.9587 90.9152 0.103543
926 2 19.9488 90.8451 0.225351
927 2 23.8237 90.9478 16.0464
928 2 27.5947 91.0615 15.9677
929 2 31.6523 90.9323 15.7865
930 2 35.6364 90.669 0.335657
931 2 39.3528 90.8949 15.7867
932 2 43.2978 90.7066 15.8
933 2 47.0481 90.7437 0.185574
934 2 51.205 90.8294 0.0104773
935 2 55.041 90.6187 0.0387866
936 2 59.0568 90.5971 0.0398863
937 2 63.033 90.4773 0.139888
938 2 66.8499 90.3803 16.0444
939 2 70.8264 90.4017 15.8173
940 2 74.8652 90.2974 0.174463
941 2 78.7532 90.3272 0.172319
942 2 82.5669 90.354 0.00790966
943 2 86.5965 90.3397 0.185414
944 2 90.7219 90.4098 0.039972
945 2 94.686 90.6149 15.9922
946 2 98.7564 90.5312 15.8646
947 2 102.838 90.3929 0.229776
948 2 106.77 90.512 15.8189
949 2 110.546 90.6616 15.9453
950 2 114.744 90.7543 -0.0114279
951 2 118.694 90.723 0.0256606
952 2 122.752 91.014 15.8685
953 2 126.79 90.8367 0.222511
954 2 130.769 90.8213 0.0962822
955 2 134.675 91.1073 15.8914
956 2 138.627 91.1097 15.7913
957 2 142.643 91.0408 15.7812
958 2 146.685 91.0005 15.8592
959 2 150.663 90.8582 15.9191
960 2 154.651 91.1455 15.7747
961 2 0.368082 95.0082 0.052451
962 2 4.30459 94.8992 16.0152
963 2 8.23628 94.9353 15.9575
964 2 11.8658 94.9462 15.7351
965 2 15.8814 95.0105 15.6714
966 2 19.8441 94.9703 15.8969
967 2 23.8291 94.8348 16.007
968 2 27.7626 94.8585 15.9384
969 2 31.6647 94.9022 15.9114
970 2 35.5772 94.7941 15.8423
971 2 39.4484 94.7964 15.8621
972 2 43.4218 94.6767 15.7983
973 2 47.3141 94.6085 0.143109
974 2 51.2843 94.4965 15.7985
975 2 55.2725 94.5792 0.233639
976 2 59.0961 94.387 15.7479
977 2 62.8758 94.3434 0.0664312
978 2 66.9181 94.5291 0.0430487
979 2 70.7469 94.4749 0.234187
980 2 74.8201 94.5932 0.396162