ITEM: TIMESTEP
22500
ITEM: NUMBER OF ATOMS
32000
ITEM: BOX BOUNDS xy xz yz pp pp pp
0.0000000000000000e+00 1.5831999999999999e+02 0.0000000000000000e+00
0.0000000000000000e+00 1.5831999999999999e+02 0.0000000000000000e+00
1.6335392403815430e-01 1.5934358075961708e+01 0.0000000000000000e+00
ITEM: ATOMS id type x y z
1 2 157.945 157.843 15.6733
2 2 3.77333 157.735 15.7599
3 2 7.73521 157.731 0.305294
4 2 11.7848 157.839 0.0554549
5 2 15.8435 158.059 0.206624
6 2 19.8325 157.883 15.9554
7 2 23.7194 157.917 16.1471
8 2 27.6027 157.941 16.0068
9 2 31.9314 158.052 0.137042
10 2 35.8901 158.183 15.9303
11 2 39.9428 -0.16371 15.989
12 2 44.1161 0.0361737 0.322558
13 2 47.7872 0.26305 15.9236
14 2 51.9449 0.120458 0.0405692
15 2 55.9928 158.482 0.368761
16 2 59.9195 158.486 15.9119
17 2 63.7921 0.164166 15.872
18 2 67.8246 0.290065 15.9405
19 2 71.6612 0.113193 16.2627
20 2 75.562 158.48 16.0627
21 2 79.6053 0.0903136 15.9438
22 2 83.537 158.151 16.0088
23 2 87.2982 158.243 15.8803
24 2 91.2283 158.202 0.0894644
25 2 95.1089 158.038 15.8147
26 2 99.0434 158.11 15.882
27 2 103.11 157.895 15.8461
28 2 106.936 158.205 15.9043
29 2 110.849 158.026 0.200492
30 2 114.721 157.927 0.400804
31 2 118.703 157.908 15.9236
32 2 122.457 157.624 0.284367
33 2 126.506 157.726 0.111901
34 2 130.508 157.68 0.0722108
35 2 134.231 157.746 16.0343
36 2 138.127 157.621 15.8899
37 2 142.078 157.489 15.9239
38 2 146.051 157.572 16.016
39 2 150.042 157.628 0.0304345
40 2 153.991 157.631 0.168418
41 2 157.973 3.43607 15.8745
42 2 3.72281 3.18578 15.8713
43 2 7.75639 3.29403 0.125383
44 2 11.6773 3.41615 15.7747
45 2 15.6393 3.57197 15.785
46 2 19.6295 3.59093 15.801
47 2 23.7546 3.68286 0.122627
48 2 27.7775 3.35368 0.165276
49 2 31.6793 3.65377 0.363401
50 2 35.8283 3.78375 0.319467
51 2 39.8815 3.81198 0.205904
52 2 43.9225 3.83794 15.9859
53 2 47.8775 4.03512 15.9043
54 2 51.8974 3.95554 16.1024
55 2 55.7641 4.25635 0.17648
56 2 59.9091 4.15505 16.2336
57 2 63.8163 4.0444 15.904
58 2 67.8822 4.25759 15.6843
59 2 71.6773 4.16239 15.9791
60 2 75.7068 4.19138 15.9179
61 2 79.6153 4.05499 15.9517
62 2 83.5404 3.93517 16.1425
63 2 87.5756 3.99012 16.066
64 2 91.1797 3.89267 0.275454
65 2 95.0188 3.9308 15.7403
66 2 99.1166 3.95437 -0.0588966
67 2 103.129 3.90646 15.9711
68 2 106.772 3.75306 15.7801
69 2 110.751 3.67311 0.0627367
70 2 114.738 3.69872 0.0966785
71 2 118.66 3.57075 0.140853
72 2 122.399 3.33259 0.100774
73 2 126.426 3.4165 0.298116
74 2 130.356 3.44517 0.1529
75 2 134.235 3.40201 16.0103
76 2 138.142 3.32626 0.0996471
77 2 142.17 3.17514 0.106095
78 2 146.147 3.11493 0.0735004
79 2 149.964 3.14454 15.8952
80 2 154.049 3.31091 15.8842
81 2 157.999 7.0568 15.7917
82 2 3.55555 7.29458 15.9172
83 2 7.49448 7.22682 16.1401
84 2 11.681 7.37909 0.264526
85 2 15.6833 7.45837 15.9167
86 2 19.8861 7.46649 16.0092
87 2 23.6517 7.33212 0.0495153
88 2 27.6134 7.61906 15.8554
89 2 31.7055 7.41808 16.1097
90 2 35.6641 7.49184 15.8842
91 2 39.698 7.67188 0.176411
92 2 43.5206 7.76518 0.0449457
93 2 47.7174 7.94474 16.0501
94 2 51.8979 7.95554 0.162721
95 2 55.9821 7.87723 15.9883
96 2 59.9651 7.90616 0.0935059
97 2 63.8835 7.89781 15.9099
98 2 67.7832 8.17325 16.0279
99 2 71.7591 8.04238 15.982
100 2 75.6582 8.01286 16.0758
101 2 79.7367 8.24671 0.386264
102 2 83.5522 7.85917 15.9981
103 2 87.4333 8.06384 15.9972
104 2 91.3688 7.84733 16.198
105 2 95.2234 7.89051 16.0737
106 2 99.1974 7.85332 0.136642
107 2 103.189 7.86129 0.262127
108 2 107.024 7.69367 15.985
109 2 110.893 7.72625 0.285666
110 2 114.834 7.56023 15.8277
111 2 118.658 7.44659 15.9895
112 2 122.657 7.50896 16.0466
113 2 126.454 7.47287 16.1281
114 2 130.363 7.38893 0.255598
115 2 134.313 7.21147 0.215683
116 2 138.44 7.21786 16.0093
117 2 142.228 7.16049 15.9206
118 2 146.089 7.11887 0.137528
119 2 150.097 7.11893 0.124259
120 2 153.878 7.12464 15.9333
121 2 157.881 11.0445 15.9773
122 2 3.53189 11.3136 16.1336
123 2 7.64031 11.2436 15.8693
124 2 11.7023 11.1409 0.222451
125 2 15.6553 11.2349 15.9108
126 2 19.7152 11.305 15.973
127 2 23.7199 11.5014 16.0787
128 2 27.7061 11.4401 15.9359
129 2 31.6845 11.464 15.8421
130 2 35.7809 11.6478 16.0343
131 2 39.8051 11.445 15.8844
132 2 43.8645 11.5823 0.146176
133 2 47.8097 11.7029 0.0443925
134 2 51.8067 11.8713 15.8711
135 2 55.7145 11.8021 0.199611
136 2 59.7048 11.8586 15.8988
137 2 63.7473 11.9566 0.216786
138 2 67.8295 11.724 15.7884
139 2 71.8262 11.9714 15.9646
140 2 75.8248 12.1673 15.9818
141 2 79.7281 12.1134 15.9023
142 2 83.3922 11.9991 15.9772
143 2 87.5092 11.9987 0.182132
144 2 91.5423 11.8721 0.18002
145 2 95.4525 11.9107 16.0416
146 2 99.3362 11.9333 16.0721
147 2 103.133 11.8663 0.23466
148 2 107.108 11.7065 15.998
149 2 111.132 11.7668 0.145346
150 2 114.817 11.6202 16.0678
151 2 118.639 11.6727 0.332525
152 2 122.465 11.5428 0.0347598
153 2 126.542 11.6404 15.9795
154 2 130.391 11.4576 15.9946
155 2 134.25 11.3765 0.0594457
156 2 138.275 11.3219 0.0998
157 2 142.319 11.0914 0.0528816
158 2 146.041 11.0775 -0.00453854
159 2 150.226 11.0543 0.261096
160 2 154.02 11.1047 0.24885
161 2 158.045 15.1101 16.1935
162 2 3.37722 15.1723 16.0104
163 2 7.64393 14.9389 15.916
164 2 11.7691 15.0646 15.8568
165 2 15.5992 15.1182 16.0412
166 2 19.5998 15.2918 0.258904
167 2 23.6862 15.2778 0.140479
168 2 27.8131 15.2833 15.9039
169 2 31.61 15.4705 0.134725
170 2 35.4278 15.3806 16.0383
171 2 39.7985 15.5301 0.224404
172 2 43.6615 15.6392 0.292487
173 2 47.578 15.6212 0.303037
174 2 51.6548 15.8404 0.041345
175 2 55.6291 15.9719 15.7946
176 2 59.8407 15.6883 0.00341994
177 2 63.7153 15.7552 15.868
178 2 67.7252 15.9755 16.0309
179 2 71.681 15.9125 0.277209
180 2 75.7871 15.9089 0.178424
181 2 79.7218 16.2191 15.8603
182 2 83.6995 15.9916 0.334357
183 2 87.6242 16.2543 16.01
184 2 91.44 16.1779 0.378493
185 2 95.3653 16.0549 16.2017
186 2 99.1914 15.9146 16.0912
187 2 103.412 15.7936 15.8947
188 2 107.029 15.8243 16.0016
189 2 110.881 15.7238 15.9602
190 2 114.788 15.8076 15.9041
191 2 118.841 15.7115 0.218554
192 2 122.681 15.694 15.9061
193 2 126.461 15.7218 15.9536
194 2 130.552 15.6067 0.248005
195 2 134.569 15.1403 0.236496
196 2 138.455 15.2394 0.232546
197 2 142.233 15.2469 15.912
198 2 146.355 15.1181 0.0617608
199 2 150.042 15.1685 0.0272929
200 2 153.907 15.0396 15.8453
201 2 158.096 19.0911 15.9642
202 2 3.58074 19.0384 0.184218
203 2 7.42658 18.7099 0.161135
204 2 11.4648 18.8938 15.9068
205 2 15.5796 19.4138 15.8826
206 2 19.5123 19.3217 16.0024
207 2 23.5532 19.2047 16.0812
208 2 27.6045 19.3616 15.9483
209 2 31.652 19.3246 16.016
210 2 35.6165 19.3361 15.9474
211 2 39.5444 19.3656 0.300407
212 2 43.4324 19.4017 15.8865
213 2 47.4452 19.3902 15.9396
214 2 51.4074 19.7059 0.174229
215 2 55.6498 19.7187 15.8128
216 2 59.6363 19.6249 15.7633
217 2 63.6886 19.6433 15.8813
218 2 67.6826 19.8238 15.812
219 2 71.6013 19.6827 0.269864
220 2 75.7162 19.9382 0.131696
221 2 79.6509 20.03 0.00239396
222 2 83.7934 19.981 15.9415
223 2 87.7097 19.9987 0.141053
224 2 91.6767 20.1448 0.21895
225 2 95.4764 19.8713 16.0184
226 2 99.366 19.8077 16.0435
227 2 103.119 19.931 15.8046
228 2 107.071 20.0161 15.9931
229 2 111.079 19.9019 0.121033
230 2 115.098 19.6337 16.0455
231 2 118.969 19.6023 16.0309
232 2 122.894 19.4561 16.014
233 2 126.702 19.5965 16.151
234 2 130.632 19.4519 16.1657
235 2 134.668 19.3325 0.228312
236 2 138.577 19.2231 15.9315
237 2 142.375 19.178 15.7887
238 2 146.382 19.0861 0.0912471
239 2 150.199 19.2764 15.8566
240 2 154.25 19.0797 0.0356899
241 2 158.014 23.0404 16.0535
242 2 3.78256 23.002 15.8324
243 2 7.60767 23.0427 0.0816568
244 2 11.4657 22.8272 0.139045
245 2 15.5362 22.8633 16.1088
246 2 19.6379 23.1521 15.9749
247 2 23.4964 22.8861 15.8466
248 2 27.5594 23.122 16.0474
249 2 31.5502 23.1447 0.455014
250 2 35.5757 23.1973 15.9476
251 2 39.4326 23.3459 0.316034
252 2 43.5687 23.3083 15.9671
253 2 47.5622 23.4294 0.377571
254 2 51.5891 23.4672 0.2247
255 2 55.7165 23.6595 0.280436
256 2 59.7732 23.6586 15.7933
257 2 63.6469 23.6582 0.229899
258 2 67.391 23.8182 16.0074
259 2 71.779 23.8033 15.9208
260 2 75.6775 23.9399 0.160558
261 2 79.6219 23.7706 15.7167
262 2 83.6698 23.9898 0.113596
263 2 87.601 23.9787 15.9173
264 2 91.4266 23.9605 15.7683
265 2 95.4814 24.0734 16.0643
266 2 99.5102 23.9 0.22711
267 2 103.272 23.8967 15.7665
268 2 107.216 23.9089 15.9854
269 2 111.074 23.5713 0.112368
270 2 114.955 23.6393 15.9574
271 2 118.792 23.605 15.9974
272 2 122.814 23.7095 0.133038
273 2 126.719 23.4761 15.9547
274 2 130.592 23.4588 15.883
275 2 134.575 23.3804 15.873
276 2 138.324 23.4087 15.8849
277 2 142.524 23.3007 15.8149
278 2 146.505 23.1782 0.0191992
279 2 150.344 23.174 0.0602149
280 2 154.249 23.0044 -0.0618605
281 2 158.086 27.1587 0.284028
282 2 3.72056 26.9331 0.32891
283 2 7.69956 26.8914 0.165663
284 2 11.7349 26.7192 16.0324
285 2 15.4749 26.8751 15.8362
286 2 19.497 26.9269 0.0185443
287 2 23.4013 26.6779 15.9406
288 2 27.2806 27.0354 15.9317
289 2 31.3437 27.1004 0.345487
290 2 35.4526 27.2644 0.124357
291 2 39.4159 27.2696 0.320236
292 2 43.4956 27.2806 0.0961467
293 2 47.4625 27.5044 2.32214e-05
294 2 51.5429 27.2879 15.8632
295 2 55.6148 27.4859 0.257167
296 2 59.4541 27.2452 15.7703
297 2 63.4011 27.591 15.7547
298 2 67.6403 27.5009 15.9382
299 2 71.5711 27.4861 16.0998
300 2 75.4968 27.8152 0.336678
301 2 79.401 27.8076 0.0449445
302 2 83.5111 27.8632 15.7756
303 2 87.3651 27.945 0.0274415
304 2 91.3088 27.9358 0.0426558
305 2 95.3582 28.1516 -0.0450835
306 2 99.4745 28.0131 0.153178
307 2 103.28 27.8539 16.1722
308 2 107.113 27.8025 0.161588
309 2 111.062 27.7626 16.0286
310 2 115.2 27.7453 15.7924
311 2 119.196 27.8403 0.100527
312 2 122.881 27.6533 0.194966
313 2 126.756 27.4403 16.0257
314 2 130.648 27.4218 15.8023
315 2 134.506 27.4334 15.8982
316 2 138.463 27.2485 15.7805
317 2 142.487 27.2477 -0.082923
318 2 146.234 27.1011 0.0281429
319 2 150.258 27.386 0.0238746
320 2 154.306 27.1135 -0.0209888
321 2 158.095 31.0527 15.7968
322 2 3.76409 30.9859 15.561
323 2 7.75693 30.835 16.0418
324 2 11.6838 30.9253 0.290101
325 2 15.4922 30.8025 0.167725
326 2 19.2787 30.8896 15.9964
327 2 23.3841 30.7362 15.8758
328 2 27.3491 30.6689 0.301331
329 2 31.4356 30.9891 15.8374
330 2 35.4077 31.1666 15.8996
331 2 39.4743 31.2682 15.9769
332 2 43.5962 31.257 0.0446409
333 2 47.4362 31.3875 15.9061
334 2 51.4082 31.2892 0.229873
335 2 55.5633 31.5255 15.9113
336 2 59.3893 31.5418 0.046022
337 2 63.4391 31.5319 15.6969
338 2 67.4895 31.5578 0.00854364
339 2 71.3869 31.6249 0.0290703
340 2 75.3654 31.5488 0.189102
341 2 79.425 31.5559 15.9031
342 2 83.4883 31.7305 -0.0314263
343 2 87.4564 31.7215 15.9875
344 2 91.4849 31.8169 15.999
345 2 95.3972 31.9478 16.008
346 2 99.464 32.0658 0.234843
347 2 103.501 31.9608 16.0402
348 2 107.311 32.0266 16.2047
349 2 111.372 31.881 15.9255
350 2 115.256 31.815 15.933
351 2 119.129 31.7772 15.9656
352 2 122.922 31.5632 15.8517
353 2 126.976 31.3943 15.7829
354 2 130.854 31.5051 15.8289
355 2 134.825 31.3229 15.8304
356 2 138.754 31.2833 15.7036
357 2 142.589 31.2545 0.0349414
358 2 146.339 31.2931 15.8457
359 2 150.226 31.3151 -0.050337
360 2 154.505 31.2083 -0.0323148
361 2 -0.149879 34.9476 -0.156364
362 2 3.77966 34.8185 15.9126
363 2 7.7113 34.8695 15.9776
364 2 11.5954 34.96 15.7464
365 2 15.5328 34.8655 0.051884
366 2 19.3994 34.7663 0.202487
367 2 23.4786 34.8772 0.0960682
368 2 27.1701 34.8748 -0.0775316
369 2 31.3435 34.7756 0.0492541
370 2 35.4529 34.9355 0.123618
371 2 39.3969 34.8919 0.0147269
372 2 43.4072 35.1321 15.9996
373 2 47.3886 35.2894 16.0234
374 2 51.4742 35.2908 15.8779
375 2 55.4921 35.2835 0.175422
376 2 59.3195 35.311 -0.00537506
377 2 63.3785 35.3726 15.972
378 2 67.3768 35.6791 0.114791
379 2 71.3779 35.4398 0.143979
380 2 75.4771 35.6076 15.8906
381 2 79.3307 35.3437 0.0190692
382 2 83.2586 35.6202 15.8239
383 2 87.1861 35.8032 0.200715
384 2 91.4483 35.6486 -0.0661962
385 2 95.3862 35.7544 15.883
386 2 99.2865 35.8454 0.0223143
387 2 103.389 35.8708 15.9165
388 2 107.476 35.9201 15.9067
389 2 111.313 35.9618 15.7795
390 2 115.31 35.7747 15.9563
391 2 119.182 35.8298 15.928
392 2 122.885 35.5045 15.8858
393 2 126.969 35.5586 15.918
394 2 130.86 35.3748 15.7993
395 2 134.735 35.3886 15.8222
396 2 138.563 35.3136 0.237767
397 2 142.567 35.168 0.0218273
398 2 146.503 35.1298 -0.148546
399 2 150.431 35.1847 15.6169
400 2 154.182 35.0002 -0.0166557
401 2 158.458 39.0942 0.146775
402 2 3.69632 38.9005 0.160792
403 2 7.646 38.9306 0.270108
404 2 11.6043 38.7051 15.97
405 2 15.6537 38.9552 0.18513
406 2 19.5911 38.7241 15.7692
407 2 23.2295 38.7809 15.9437
408 2 27.2223 38.8605 15.9123
409 2 31.3214 38.6272 0.0867049
410 2 35.1601 38.8266 0.176635
411 2 39.5047 39.0022 15.7109
412 2 43.342 39.1164 -0.202758
413 2 47.5155 39.0931 0.0160201
414 2 51.3394 39.3025 15.9621
415 2 55.3411 39.1443 0.100694
416 2 59.377 39.3247 0.17801
417 2 63.3591 39.3398 0.144695
418 2 67.2562 39.4897 0.254234
419 2 71.2811 39.3439 0.269406
420 2 75.41 39.3586 0.373607
421 2 79.3791 39.5236 0.155341
422 2 83.1177 39.3963 15.8652
423 2 87.3146 39.5878 16.101
424 2 91.4387 39.6703 15.9561
425 2 95.2374 39.7348 16.0059
426 2 99.3816 39.7524 0.202739
427 2 103.382 39.6782 15.9494
428 2 107.36 39.8096 16.0193
429 2 111.466 39.7927 15.9567
430 2 115.239 39.7963 16.1781
431 2 118.995 39.5962 16.0969
432 2 123.214 39.8208 15.7338
433 2 127.072 39.4476 0.171075
434 2 130.922 39.3696 15.8416
435 2 134.728 39.3198 15.8712
436 2 138.597 39.2132 15.8825
437 2 142.437 39.4278 15.7528
438 2 146.494 39.2855 0.0670004
439 2 150.36 39.2793 15.7675
440 2 154.284 38.8718 15.7171
441 2 158.294 43.1248 -0.119421
442 2 4.02551 42.9897 15.9575
443 2 8.02285 42.9723 15.8417
444 2 11.8295 42.8725 0.155613
445 2 15.8433 42.7819 0.328384
446 2 19.3484 42.9854 -0.0678146
447 2 23.2922 42.9117 15.8966
448 2 27.2865 42.7003 16.0939
449 2 31.3796 42.7542 0.110099
450 2 35.1435 42.8446 0.205001
451 2 39.0706 42.9149 -0.0164595
452 2 43.1202 42.935 -0.0817747
453 2 47.193 43.0313 15.9493
454 2 51.328 43.1877 15.8682
455 2 55.2648 43.1606 0.0717916
456 2 59.405 43.1127 15.7493
457 2 63.221 43.4383 0.0999446
458 2 67.3097 43.2284 0.0856763
459 2 71.3457 43.2451 0.0772223
460 2 75.103 43.2739 0.239155
461 2 79.1865 43.4808 0.0160081
462 2 83.2741 43.5188 16.0428
463 2 87.3921 43.4488 15.9389
464 2 91.3386 43.6428 0.166684
465 2 95.3236 43.7439 -0.0136867
466 2 99.3912 43.5176 15.8862
467 2 103.298 43.6376 15.9219
468 2 107.409 43.72 16.0345
469 2 111.26 43.9133 15.6969
470 2 115.316 43.7444 15.8046
471 2 119.256 43.6069 15.9053
472 2 123.13 43.4867 15.95
473 2 127.178 43.4391 0.268829
474 2 130.898 43.5742 0.0915361
475 2 134.825 43.3363 15.941
476 2 138.724 43.385 15.8228
477 2 142.636 43.3241 15.8888
478 2 146.621 43.1303 0.0870522
479 2 150.388 43.0699 0.151916
480 2 154.269 43.0367 0.00687896
481 2 0.220554 47.1185 0.00356286
482 2 3.93007 46.8492 0.12793
483 2 7.8691 46.9797 0.0878327
484 2 11.8709 46.9014 0.247824
485 2 15.6772 46.9607 0.00783095
486 2 19.5456 46.8983 0.0762485
487 2 23.4048 46.9555 0.306609
488 2 27.2129 46.8201 16.1134
489 2 30.9659 46.9256 0.19446
490 2 35.1697 46.7096 -0.0542583
491 2 39.2072 46.7959 16.0799
492 2 43.1098 46.8909 16.0008
493 2 47.2366 47.1161 0.270438
494 2 51.1096 47.0609 15.9897
495 2 55.3049 47.183 16.0347
496 2 59.0881 47.0597 15.8823
497 2 63.2151 47.1186 0.022861
498 2 67.1446 47.0752 0.0244102
499 2 71.2687 47.2027 15.7797
500 2 75.3347 47.3327 0.208866
501 2 79.1319 47.3363 15.7664
502 2 83.2223 47.4572 15.867
503 2 87.4025 47.3841 0.0669831
504 2 91.392 47.5405 0.142882
505 2 95.269 47.5233 0.131202
506 2 99.102 47.527 0.193529
507 2 103.112 47.5385 0.0938954
508 2 107.323 47.7485 15.9963
509 2 110.966 47.7328 15.8897
510 2 115.235 47.6877 0.399815
511 2 119.1 47.493 15.8665
512 2 123.138 47.6835 15.7477
513 2 127.015 47.5541 16.0043
514 2 130.95 47.6104 15.7033
515 2 135.097 47.5563 15.7727
516 2 138.881 47.2511 15.7983
517 2 142.791 47.3186 15.8853
518 2 146.582 47.1977 0.325965
519 2 150.443 47.2159 0.199605
520 2 154.406 46.976 15.8188
521 2 158.347 51.1331 -0.160504
522 2 3.7562 51.0286 15.8724
523 2 7.83826 50.7822 15.9821
524 2 11.696 50.9884 15.9038
525 2 15.5466 50.885 0.304316
526 2 19.3019 50.926 16.1901
527 2 23.2988 50.8863 16.0462
528 2 27.31 50.7328 16.0746
529 2 31.2974 50.8575 0.0364483
530 2 35.3019 51.0499 0.203274
531 2 39.0152 50.8308 15.9884
532 2 43.0246 50.7091 15.9524
533 2 47.1819 50.6998 0.0843621
534 2 51.0052 51.0674 0.108381
535 2 55.0026 50.8857 0.332137
536 2 59.0866 51.0928 15.9503
537 2 63.2103 51.1819 15.7853
538 2 67.13 51.2128 0.226533
539 2 71.0771 51.1536 0.334676
540 2 75.2431 51.0686 0.0716623
541 2 79.2442 51.1751 0.0985988
542 2 83.2384 51.2787 0.103552
543 2 87.2927 51.2874 0.32369
544 2 91.2699 51.3608 0.0252989
545 2 95.0861 51.4278 0.202079
546 2 99.4138 51.3197 0.361601
547 2 103.324 51.3763 16.0661
548 2 107.168 51.63 0.233376
549 2 111.055 51.5423 0.265847
550 2 115.146 51.6633 15.8445
551 2 119.062 51.4324 15.8568
552 2 123.127 51.619 15.949
553 2 126.903 51.4652 15.9637
554 2 131.15 51.4121 0.0128603
555 2 135.087 51.5279 0.156433
556 2 138.78 51.3871 0.187521
557 2 142.664 51.2602 0.251921
558 2 146.542 51.1852 15.9645
559 2 150.571 51.0276 0.134142
560 2 154.377 51.1962 0.176608
561 2 158.413 55.0463 0.13371
562 2 3.99116 54.9761 0.0905825
563 2 7.70153 54.9376 0.221892
564 2 11.7206 54.926 0.3101
565 2 15.5547 54.8676 0.283608
566 2 19.4288 54.9035 15.8775
567 2 23.2728 54.7034 15.8687
568 2 27.1689 54.8234 15.9212
569 2 31.2766 54.756 0.0846578
570 2 35.3181 54.9451 0.134289
571 2 39.1342 54.7947 15.8803
572 2 43.0104 54.756 16.025
573 2 47.0782 54.788 0.240169
574 2 50.9634 54.9039 15.8645
575 2 55.189 54.9873 16.0459
576 2 59.0189 55 16.2512
577 2 63.1227 55.2572 16.0286
578 2 67.1568 55.0828 0.0612765
579 2 71.0323 55.2355 0.0852095
580 2 75.1595 55.2002 15.8574
581 2 79.1793 55.0993 0.0491063
582 2 83.1986 55.1624 0.350395
583 2 87.1368 55.3089 0.286084
584 2 90.9976 55.326 15.9284
585 2 95.2821 55.3147 0.139424
586 2 99.08 55.2607 15.8299
587 2 103.28 55.4489 16.122
588 2 107.273 55.5413 0.211299
589 2 111.164 55.4525 16.0384
590 2 115.091 55.4388 15.9152
591 2 119.059 55.5049 15.8878
592 2 123.066 55.4368 -0.0267607
593 2 126.917 55.5868 15.9164
594 2 130.798 55.3003 15.7923
595 2 135.032 55.3935 0.146797
596 2 138.751 55.5609 15.9914
597 2 142.79 55.3147 0.225837
598 2 146.698 55.2917 0.160863
599 2 150.599 55.0664 0.131877
600 2 154.478 54.9293 15.8629
601 2 158.443 59.1248 0.114288
602 2 3.74088 58.8942 15.681
603 2 7.78778 59.0356 15.7182
604 2 11.9615 58.9301 0.212083
605 2 16.0545 58.8652 15.8961
606 2 19.6621 58.8167 0.227282
607 2 23.5438 58.9117 0.334542
608 2 27.2886 58.9175 0.297263
609 2 31.0642 58.7504 15.9849
610 2 35.1252 58.7881 15.9158
611 2 38.9524 58.6805 15.8102
612 2 43.0394 58.7328 15.8722
613 2 46.9196 58.8673 15.8864
614 2 51.0119 58.7566 15.881
615 2 54.9733 58.8782 15.9117
616 2 58.9664 58.8674 0.287533
617 2 63.0389 58.9717 16.1743
618 2 66.9822 59.0596 0.125817
619 2 71.0443 59.1496 15.9389
620 2 75.0198 58.93 0.175466
621 2 79.0472 58.9783 0.248994
622 2 83.0946 59.2056 0.136711
623 2 87.1124 59.198 15.8481
624 2 91.1037 59.1761 15.9043
625 2 95.1213 59.1096 0.182279
626 2 99.2591 59.2741 0.276985
627 2 103.068 59.3928 16.1517
628 2 106.939 59.4187 0.250645
629 2 111.138 59.5022 15.9709
630 2 115.272 59.3977 15.9631
631 2 119.181 59.3574 16.0351
632 2 123.158 59.2979 0.0470454
633 2 127.065 59.4948 15.9955
634 2 130.964 59.4861 0.165203
635 2 134.93 59.3547 16.0455
636 2 138.937 59.5037 0.261408
637 2 142.703 59.2615 0.273556
638 2 146.778 59.2166 0.419011
639 2 150.633 59.1909 16.0242
640 2 154.595 58.9778 -0.0487518
641 2 0.233152 62.9937 0.159994
642 2 3.93129 62.9599 -0.094386
643 2 7.87048 63.0046 15.8381
644 2 11.9309 63.0004 15.8416
645 2 15.8578 62.8408 15.9443
646 2 19.4676 62.9399 0.0137797
647 2 23.6208 62.9471 0.226593
648 2 27.4328 62.798 0.278445
649 2 31.3018 62.782 0.265008
650 2 35.1748 62.6941 -0.073683
651 2 39.1147 62.8319 15.9208
652 2 43.0796 62.8378 0.255009
653 2 46.8649 62.6284 16.0213
654 2 51.0568 62.7827 16.0251
655 2 54.9914 62.572 0.135059
656 2 58.8431 62.7461 16.1656
657 2 62.6611 62.8153 0.244198
658 2 66.9313 62.9848 15.7586
659 2 70.8978 62.9888 0.218413
660 2 75.005 62.89 0.436172
661 2 79.1213 63.1185 0.183561
662 2 83.0717 63.1628 0.255663
663 2 87.083 63.0907 15.872
664 2 91.2175 63.1256 16.0933
665 2 94.9641 63.159 0.313665
666 2 99.1796 63.0637 0.270749
667 2 103.111 63.3136 15.9605
668 2 107.234 63.3395 16.0212
669 2 111.141 63.1003 15.8257
670 2 115.106 63.2896 0.178326
671 2 119.112 63.5193 16.0091
672 2 123.047 63.3757 0.167508
673 2 126.984 63.3571 15.9382
674 2 131.046 63.5892 0.178929
675 2 134.774 63.3041 16.0064
676 2 138.787 63.3096 15.9669
677 2 142.835 63.2359 15.9706
678 2 146.871 63.1444 0.168056
679 2 150.656 63.1168 16.1123
680 2 154.596 63.0316 0.0969483
681 2 0.103988 66.9368 0.124203
682 2 4.00418 66.9304 0.293591
683 2 7.94639 67.2643 15.9699
684 2 11.7524 66.9997 15.8772
685 2 15.6806 67.0091 0.0737691
686 2 19.6403 66.7862 0.0969981
687 2 23.4726 67.0822 0.125864
688 2 27.5465 66.8518 -0.0534147
689 2 31.3427 66.6026 0.017927
690 2 35.2553 66.6312 0.0234303
691 2 39.1227 66.7256 15.8766
692 2 43.1102 66.7585 0.0975147
693 2 46.8126 66.8569 15.9198
694 2 51.0273 66.6317 15.9213
695 2 54.9849 66.699 15.9212
696 2 58.8074 66.727 16.1919
697 2 62.8863 66.8318 15.8532
698 2 67.0453 66.689 15.7836
699 2 70.8281 66.8841 0.252469
700 2 74.9361 66.7843 15.7607
701 2 78.8869 66.7927 16.0568
702 2 82.9911 66.9002 0.29564
703 2 87.1656 66.8676 15.9568
704 2 91.1451 66.9816 15.9889
705 2 95.1199 67.0481 0.31343
706 2 98.8544 67.2236 0.29517
707 2 102.949 67.0262 0.380568
708 2 106.938 67.0804 15.986
709 2 110.959 67.12 15.924
710 2 114.873 67.2509 16.0768
711 2 119.077 67.3425 0.168258
712 2 122.852 67.2707 0.310707
713 2 126.993 67.2978 0.235893
714 2 131.004 67.415 16.0573
715 2 135.083 67.4125 0.23044
716 2 138.85 67.2051 0.218992
717 2 142.839 67.2702 15.7818
718 2 146.686 67.2994 15.9188
719 2 150.798 67.1673 15.8918
720 2 154.642 67.14 0.0357056
721 2 0.267308 71.1318 -0.0889022
722 2 3.95347 71.0712 15.8959
723 2 8.00251 70.8333 0.390786
724 2 11.7667 71.1662 16.0051
725 2 15.7517 70.9223 0.191148
726 2 19.7052 70.8898 0.280311
727 2 23.5894 71.0742 0.039622
728 2 27.4748 70.8282 15.9857
729 2 31.2787 70.7208 0.160813
730 2 35.1773 70.6544 -0.0598447
731 2 39.0918 70.6863 15.7709
732 2 43.0062 70.663 0.0851416
733 2 47.036 70.7162 15.7451
734 2 50.9585 70.5602 15.8672
735 2 54.8769 70.65 0.0136084
736 2 58.8954 70.5788 0.147295
737 2 62.8047 70.8363 0.381161
738 2 66.836 70.7688 16.0479
739 2 70.8463 70.5641 16.0756
740 2 74.9137 70.8806 15.7365
741 2 78.9864 70.712 0.16262
742 2 83 70.8393 0.3341
743 2 86.9388 70.9016 15.9228
744 2 90.9492 70.7805 15.8825
745 2 94.9688 70.8123 16.1577
746 2 99.0513 71.0425 16.092
747 2 103.051 70.9433 16.023
748 2 107.063 70.8981 16.1026
749 2 111.026 71.2389 16.2019
750 2 115.142 71.0979 0.299008
751 2 119.017 70.9889 15.9396
752 2 122.943 71.1639 0.157523
753 2 127.043 71.3478 15.8789
754 2 131.014 71.3598 15.9602
755 2 135.243 71.3243 16.0198
756 2 138.938 71.453 15.9925
757 2 142.667 71.2858 0.169795
758 2 146.656 71.1382 0.249008
759 2 150.583 71.3098 0.0753547
760 2 154.499 71.2271 16.0098
761 2 0.105255 74.9588 0.059984
762 2 4.09407 75.0468 15.791
763 2 7.91006 74.9415 15.9673
764 2 11.9027 74.9788 15.9249
765 2 15.9106 74.8522 15.949
766 2 19.6108 74.9066 16.0592
767 2 23.5505 74.9323 16.058
768 2 27.6517 74.9495 15.8991
769 2 31.3786 74.8179 0.144168
770 2 35.3372 74.7593 15.8061
771 2 39.3796 74.934 15.8223
772 2 43.0392 74.768 0.0375437
773 2 47.0466 74.7097 15.8777
774 2 50.936 74.8045 0.121577
775 2 54.9599 74.5697 16.21
776 2 58.9139 74.653 16.0514
777 2 63.0685 74.6248 16.1237
778 2 67.0343 74.7007 0.137298
779 2 70.7824 74.7264 0.146199
780 2 74.7807 74.6913 0.130793
781 2 78.8763 74.7366 0.233558
782 2 82.8927 74.7643 0.276984
783 2 86.884 74.9534 0.203388
784 2 90.951 74.8186 15.9238
785 2 94.7828 74.7303 15.8799
786 2 98.9987 75.0171 0.33899
787 2 102.946 74.7721 15.839
788 2 107.037 74.9183 16.0606
789 2 111.228 74.8541 16.0431
790 2 115.092 74.9685 15.9969
791 2 119.09 75.1237 0.00880077
792 2 123.001 75.022 16.0833
793 2 126.869 75.2035 15.9226
794 2 130.889 75.2763 0.0877468
795 2 135.041 75.251 15.9976
796 2 138.846 75.3209 15.9098
797 2 142.774 75.1954 15.8266
798 2 146.952 75.1897 15.8835
799 2 150.61 75.0808 0.185921
800 2 154.626 75.1241 0.0711356
801 2 0.149523 79.1275 0.156522
802 2 4.16269 79.0682 15.9708
803 2 7.98321 78.929 0.077169
804 2 11.9102 79.1564 0.156767
805 2 15.7272 78.9731 16.0274
806 2 19.6833 78.9318 15.9623
807 2 23.591 78.8308 0.0322458
808 2 27.5303 78.7917 0.0169219
809 2 31.6595 78.8812 0.109499
810 2 35.4678 78.8566 0.194713
811 2 39.3994 78.7674 15.8503
812 2 43.2862 78.796 15.8117
813 2 47.1938 78.624 15.8875
814 2 51.0714 78.673 0.318391
815 2 54.8647 78.4954 0.132649
816 2 58.9333 78.5859 15.906
817 2 62.5894 78.7489 16.0091
818 2 66.6835 78.4369 0.0262109
819 2 70.7605 78.4815 15.9182
820 2 74.878 78.4349 0.110381
821 2 78.7375 78.7754 15.982
822 2 82.5399 78.6071 15.9578
823 2 86.8505 78.6479 0.206525
824 2 90.9568 78.5882 0.0959999
825 2 94.9202 78.7584 0.151428
826 2 98.8553 78.8923 16.0642
827 2 102.927 78.7394 16.0477
828 2 107.023 78.9022 0.104163
829 2 110.828 78.7399 -0.0113657
830 2 115.113 79.0504 0.09032
831 2 118.886 79.3324 0.0992295
832 2 123.085 79.2168 15.8886
833 2 126.901 79.0097 0.0278574
834 2 130.952 79.1777 15.8724
835 2 135.017 79.1246 0.250287
836 2 138.924 79.1598 16.0181
837 2 142.726 79.186 16.1112
838 2 146.846 79.1914 15.8785
839 2 150.705 79.2047 16.0441
840 2 154.545 79.2222 0.00470025
841 2 0.396514 83.1744 15.8746
842 2 4.1524 83.142 15.8332
843 2 7.92793 83.01 0.0508971
844 2 11.9988 82.8036 15.8192
845 2 15.7583 82.9946 15.7556
846 2 19.7331 83.0234 0.17093
847 2 23.7289 82.9778 15.869
848 2 27.731 82.9965 -0.105527
849 2 31.4944 82.9601 15.8096
850 2 35.435 82.9324 0.301533
851 2 39.3995 82.7144 0.236192
852 2 43.349 82.9243 16.084
853 2 47.2696 82.799 0.17916
854 2 51.0412 82.7349 0.2923
855 2 54.9179 82.6737 0.0922804
856 2 58.9085 82.5593 15.9613
857 2 62.896 82.7236 15.8939
858 2 66.8146 82.3481 15.8417
859 2 70.6621 82.5624 15.8355
860 2 74.8467 82.5247 15.7078
861 2 78.6494 82.397 16.0475
862 2 82.7845 82.6613 0.147702
863 2 86.7266 82.5071 0.210132
864 2 90.9144 82.7409 16.0469
865 2 94.7086 82.6717 0.117854
866 2 99.0325 82.7671 15.8729
867 2 102.885 82.6693 0.332936
868 2 106.924 82.7376 16.0668
869 2 111.04 82.7796 15.9185
870 2 114.94 82.9908 15.961
871 2 118.912 82.9881 15.9207
872 2 122.963 83.0434 15.9492
873 2 126.911 82.9856 15.8601
874 2 130.905 83.0735 16.0717
875 2 134.794 82.93 0.204926
876 2 138.871 83.1789 16.0063
877 2 142.684 83.097 0.141842
878 2 146.839 83.0041 15.7817
879 2 150.896 83.1383 0.104838
880 2 154.803 83.2702 0.342421
881 2 0.491001 86.9847 15.8597
882 2 4.40285 87.2508 0.136542
883 2 8.25405 86.9504 15.7795
884 2 11.9564 86.9273 15.9028
885 2 15.9378 87.0696 16.0149
886 2 19.7474 87.0284 15.9117
887 2 23.6583 86.8089 15.7834
888 2 27.533 86.9029 0.19043
889 2 31.4929 86.9218 16.1187
890 2 35.4424 86.7998 0.148571
891 2 39.3576 86.8027 15.9932
892 2 43.3675 86.7582 15.9639
893 2 47.2198 86.6883 15.8436
894 2 51.1948 86.4738 15.9021
895 2 55.0793 86.6344 15.8158
896 2 58.8364 86.5685 0.197823
897 2 62.8432 86.495 -0.0102514
898 2 66.7914 86.4109 15.8329
899 2 70.6427 86.3898 0.0996101
900 2 74.8696 86.272 16.0338
901 2 78.6572 86.2295 0.0478901
902 2 82.6364 86.5596 0.0125774
903 2 86.7056 86.4769 15.9998
904 2 90.8538 86.7289 15.8079
905 2 94.704 86.5484 15.9934
906 2 98.8593 86.652 16.0763
907 2 102.727 86.6566 0.255181
908 2 106.889 86.6161 0.468014
909 2 110.531 86.7024 15.898
910 2 114.809 86.9235 0.0902004
911 2 118.809 86.8802 0.363744
912 2 122.844 86.9627 0.181426
913 2 126.885 87.0549 15.9074
914 2 130.749 86.9119 15.9004
915 2 134.936 86.992 16.0261
916 2 138.896 86.8833 15.8116
917 2 142.854 87.2208 16.0826
918 2 146.84 87.1722 0.161783
919 2 150.859 87.2358 16.0244
920 2 154.625 87.0596 15.9878
921 2 0.184888 90.95 -0.0826695
922 2 4.19629 90.9091 0.144156
923 2 8.2497 91.0999 15.7849
924 2 12.2209 91.0764 15.8586
925 2 16.0396 90.9557 0.0962438
926 2 19.8399 90.9071 0.134411
927 2 23.7595 90.8203 15.9435
928 2 27.8264 90.6613 15.8858
929 2 31.6042 90.7597 15.7743
930 2 35.4498 90.9477 -0.194855
931 2 39.5646 90.8751 15.79
932 2 43.4421 90.8494 15.9658
933 2 47.5119 90.7205 -0.00760255
934 2 51.1993 90.4953 0.343416
935 2 55.2705 90.451 0.119331
936 2 59.0411 90.4401 0.166095
937 2 62.9614 90.3943 0.0515874
938 2 67.1107 90.4895 15.8161
939 2 70.8625 90.4387 15.7839
940 2 74.6707 90.2358 0.259487
941 2 78.6714 90.4487 0.173996
942 2 82.7591 90.197 0.285699
943 2 86.8893 90.2915 0.26214
944 2 90.6975 90.499 0.303791
945 2 94.7452 90.5121 16.0498
946 2 98.7611 90.5993 16.0752
947 2 102.877 90.6595 0.317116
948 2 106.836 90.5874 15.9441
949 2 110.834 90.756 16.1067
950 2 114.739 90.7242 0.0198754
951 2 118.662 90.989 0.108954
952 2 122.661 90.7127 15.7893
953 2 126.755 90.8944 0.0644363
954 2 130.828 91.015 0.313617
955 2 134.789 90.8164 15.6793
956 2 138.709 90.8568 15.7595
957 2 142.683 91.0046 15.7965
958 2 146.737 91.1051 16.0655
959 2 150.736 91.2946 15.9741
960 2 154.82 91.045 16.0168
961 2 0.405657 95.2524 0.314322
962 2 4.35863 95.2113 15.9825
963 2 8.11895 95.118 15.6639
964 2 12.168 95.2385 15.8072
965 2 16.0812 94.8551 15.931
966 2 19.9423 95.0479 15.9222
967 2 23.8625 95.0481 15.955
968 2 27.7913 94.8713 15.7146
969 2 31.5422 94.8503 15.9497
970 2 35.5794 94.8407 15.9142
971 2 39.5028 94.7474 15.7883
972 2 43.5749 94.8743 15.962
973 2 47.4474 94.9615 -0.0114974
974 2 51.3394 94.893 16.0892
975 2 55.1803 94.5853 0.222301
976 2 59.0597 94.6218 16.0402
977 2 63.0972 94.4639 0.214583
978 2 66.8201 94.3271 0.222938
979 2 70.7628 94.4017 0.259997
980 2 74.8218 93.9637 0.315999
981 2 78.8828 94.326 16.2051
982 2 82.7617 94.1178 0.146424