ITEM: TIMESTEP
22600
ITEM: NUMBER OF ATOMS
32000
ITEM: BOX BOUNDS xy xz yz pp pp pp
0.0000000000000000e+00 1.5831999999999999e+02 0.0000000000000000e+00
0.0000000000000000e+00 1.5831999999999999e+02 0.0000000000000000e+00
1.6446541927369740e-01 1.5933246580726175e+01 0.0000000000000000e+00
ITEM: ATOMS id type x y z
1 2 158.093 157.724 15.8009
2 2 3.69313 157.844 15.9627
3 2 7.85458 157.777 0.185357
4 2 11.7397 157.791 0.26796
5 2 15.7362 157.773 0.126787
6 2 19.525 157.908 15.907
7 2 23.7256 157.914 15.8857
8 2 27.8245 157.938 15.9922
9 2 31.8547 158.198 0.363626
10 2 35.8078 158.27 16.0538
11 2 39.879 -0.0400972 16.1363
12 2 43.7483 -0.133866 0.146761
13 2 48.0028 -0.0987907 15.8857
14 2 51.8531 0.0706101 0.132737
15 2 55.805 158.525 0.176962
16 2 59.9994 158.538 16.0033
17 2 64.0648 0.225818 15.9541
18 2 67.9209 0.0945015 15.8392
19 2 71.8205 0.193044 15.7211
20 2 75.6998 158.443 15.8501
21 2 79.5816 0.203649 15.8992
22 2 83.4744 158.482 15.9688
23 2 87.3986 158.153 15.8951
24 2 91.2841 158.146 0.143871
25 2 95.157 158.227 15.9897
26 2 99.0656 158.032 16.0469
27 2 102.884 158.081 15.9727
28 2 107.018 158.029 16.0747
29 2 110.97 157.772 0.131201
30 2 114.956 157.966 -0.0204518
31 2 118.688 157.878 16.2022
32 2 122.657 158.021 0.0614875
33 2 126.347 158.031 0.0143737
34 2 130.191 157.987 0.283323
35 2 134.204 157.727 15.9938
36 2 138.014 157.623 16.1369
37 2 141.998 157.485 16.0079
38 2 145.915 157.546 15.5903
39 2 150.141 157.708 0.113501
40 2 154.212 157.879 -0.0711742
41 2 158.142 3.37283 15.708
42 2 3.73362 3.41054 15.7226
43 2 7.70858 3.47997 0.329447
44 2 11.8149 3.38937 16.1253
45 2 15.771 3.44935 15.9903
46 2 19.9541 3.37672 15.9855
47 2 23.8207 3.34928 0.277505
48 2 27.7324 3.67418 0.172337
49 2 31.8837 3.78766 0.329906
50 2 35.7951 3.84728 0.466838
51 2 39.8548 3.84353 0.311361
52 2 43.8303 3.86354 16.1782
53 2 47.8055 3.86936 16.1178
54 2 51.8475 4.05231 15.9522
55 2 55.8845 4.00808 0.0432511
56 2 59.8589 4.05384 15.9768
57 2 63.9226 4.15266 15.9919
58 2 67.8307 4.12345 16.105
59 2 71.9676 3.97623 15.9127
60 2 75.7894 3.92053 16.0867
61 2 79.7604 4.22244 16.1611
62 2 83.4771 4.05072 16.0213
63 2 87.3085 3.81208 16.0788
64 2 91.3214 3.84164 0.208479
65 2 95.2055 3.92924 15.8103
66 2 98.9466 3.69137 0.170507
67 2 102.857 3.72413 16.115
68 2 107.039 3.71373 15.8824
69 2 110.881 3.70863 0.166412
70 2 114.883 3.57968 0.330606
71 2 118.73 3.60865 0.276078
72 2 122.611 3.75232 0.130939
73 2 126.526 3.54607 0.00579392
74 2 130.409 3.59278 -0.0416763
75 2 134.252 3.22933 15.8462
76 2 138.123 3.2266 0.106446
77 2 141.986 3.36443 -0.00542496
78 2 145.987 3.12438 0.0693866
79 2 149.94 3.15591 15.7019
80 2 153.974 3.23796 15.6181
81 2 158.025 7.24692 15.808
82 2 3.78976 7.34423 15.8183
83 2 7.81947 7.43567 16.0276
84 2 11.7271 7.20004 0.197848
85 2 15.6632 7.33155 15.9593
86 2 19.4645 7.37618 16.0363
87 2 23.8405 7.56038 0.480966
88 2 27.8331 7.44018 16.045
89 2 31.7175 7.80391 16.0978
90 2 35.8526 7.81022 16.0648
91 2 39.8066 7.71234 0.312259
92 2 44.0077 7.76953 0.147428
93 2 47.7496 7.88142 15.8074
94 2 51.7986 7.85778 0.184431
95 2 55.7999 8.00607 15.7786
96 2 59.7547 7.95572 0.412976
97 2 63.7169 8.09274 16.0463
98 2 67.9257 7.93935 16.0213
99 2 71.8507 8.06874 15.9585
100 2 75.6344 8.1533 16.079
101 2 79.4418 8.13202 0.157374
102 2 83.5957 8.17252 16.0841
103 2 87.5013 7.80649 16.1052
104 2 91.2544 7.88232 15.9914
105 2 95.1812 7.87172 15.9558
106 2 99.0654 7.64845 0.147386
107 2 103.031 7.65205 0.173454
108 2 106.938 7.7608 16.0067
109 2 111.042 7.63895 0.113198
110 2 114.837 7.57484 16.0487
111 2 118.813 7.82559 15.9808
112 2 122.454 7.49028 15.844
113 2 126.464 7.48766 15.8749
114 2 130.48 7.4289 0.166636
115 2 134.459 7.48542 0.108579
116 2 138.083 7.4376 15.7769
117 2 142.278 7.34065 15.8471
118 2 146.112 7.18453 0.153119
119 2 149.894 7.11925 0.109253
120 2 153.981 7.02513 15.9281
121 2 157.947 11.0707 15.8817
122 2 3.62525 11.0015 15.8665
123 2 7.72579 11.2086 16.1836
124 2 11.7716 11.347 0.0697975
125 2 15.6927 11.2913 16.1151
126 2 19.6703 11.3599 15.8747
127 2 23.6648 11.365 15.8645
128 2 27.6336 11.4332 15.838
129 2 31.7543 11.5282 16.0727
130 2 35.6528 11.5288 15.8314
131 2 39.8084 11.688 16.0999
132 2 43.6495 11.8542 0.229124
133 2 47.5695 11.6657 0.294032
134 2 51.7638 11.7478 15.9899
135 2 55.8332 11.8324 -0.0578662
136 2 59.7274 11.9189 16.1239
137 2 63.7786 11.7229 0.0908522
138 2 67.7831 12.1588 16.0225
139 2 71.8051 11.9884 15.9568
140 2 75.7453 11.9332 15.8157
141 2 79.6887 12.1931 15.9719
142 2 83.6819 12.1647 15.9708
143 2 87.5586 12.0561 0.374354
144 2 91.414 12.0565 0.507601
145 2 95.2233 11.9894 16.1491
146 2 99.1032 12.0233 15.8113
147 2 103.102 11.8346 0.354115
148 2 106.996 11.7349 15.8918
149 2 110.874 11.6653 0.28255
150 2 115.044 11.856 16.0223
151 2 118.782 11.643 0.0513828
152 2 122.641 11.5946 0.355662
153 2 126.438 11.3216 15.9417
154 2 130.323 11.3545 15.9087
155 2 134.481 11.449 0.102796
156 2 138.384 11.3652 -0.0239858
157 2 142.095 11.3822 0.324951
158 2 146.266 11.1958 0.154738
159 2 149.93 11.235 0.193873
160 2 154.016 11.1143 0.032145
161 2 157.919 15.0359 15.7607
162 2 3.6578 14.9759 16.178
163 2 7.48804 15.0047 15.8109
164 2 11.5142 15.1482 16.0345
165 2 15.7365 15.248 15.9616
166 2 19.6945 15.1289 0.147189
167 2 23.6026 15.3657 0.311984
168 2 27.449 15.5736 15.8957
169 2 31.5921 15.5205 0.343138
170 2 35.9612 15.546 16.0508
171 2 39.7321 15.4098 0.393285
172 2 43.8061 15.6106 0.174556
173 2 47.7351 15.5979 0.216713
174 2 51.7745 15.6037 0.410129
175 2 55.7341 15.8598 15.8842
176 2 59.6452 15.9734 0.261014
177 2 63.6966 15.8683 16.1222
178 2 67.855 15.8388 15.7708
179 2 71.8565 15.8885 0.225326
180 2 75.5228 15.8124 0.164208
181 2 79.8035 15.9235 16.0111
182 2 83.7389 16.1611 0.162542
183 2 87.6492 16.0211 16.0798
184 2 91.5871 15.9275 0.339333
185 2 95.4347 15.9651 15.975
186 2 99.3185 15.855 15.8778
187 2 103.138 16 15.9995
188 2 107.073 15.71 15.9588
189 2 111.029 15.6879 15.8617
190 2 115.072 15.6274 16.0051
191 2 118.833 15.6154 0.00216434
192 2 122.796 15.6345 15.9076
193 2 126.657 15.4876 15.8474
194 2 130.408 15.2649 0.0565969
195 2 134.434 15.4175 0.111591
196 2 138.308 15.2641 0.149614
197 2 142.354 15.0486 16.0592
198 2 145.912 15.1166 -0.012169
199 2 150.142 15.1631 0.277709
200 2 154.156 15.1536 15.9925
201 2 158.056 19.1947 15.8577
202 2 3.64819 18.8987 0.183532
203 2 7.70432 19.0699 0.217354
204 2 11.5271 18.9578 15.9664
205 2 15.5756 18.878 16.0934
206 2 19.6504 19.2044 16.023
207 2 23.5024 19.184 16.0262
208 2 27.5314 19.3432 15.9306
209 2 31.6305 19.3224 16.022
210 2 35.6482 19.2593 16.0654
211 2 39.8018 19.3654 0.197648
212 2 43.6476 19.6108 15.7378
213 2 47.6295 19.5876 15.7384
214 2 51.5917 19.5069 0.0280418
215 2 55.5843 19.8206 15.9249
216 2 59.6581 19.7155 15.895
217 2 63.6547 19.7086 15.8305
218 2 67.6611 19.6006 15.9038
219 2 71.8101 19.9756 0.138632
220 2 75.576 19.8213 0.0386612
221 2 79.7039 19.9942 0.175491
222 2 83.6207 20.1189 15.9143
223 2 87.6533 20.0956 0.420022
224 2 91.4965 19.84 0.255257
225 2 95.3675 20.0564 16.1145
226 2 99.1344 19.9291 15.8639
227 2 103.135 19.8344 16.0316
228 2 107.154 19.7623 15.9531
229 2 111.083 19.5795 0.225241
230 2 114.964 19.8556 16.0217
231 2 118.82 19.5219 15.9446
232 2 122.763 19.7594 15.7245
233 2 126.843 19.5446 15.9262
234 2 130.671 19.6311 15.7537
235 2 134.531 19.3527 -0.121478
236 2 138.413 19.3481 15.8032
237 2 142.138 19.3192 15.7949
238 2 145.998 19.2067 0.032842
239 2 150.105 18.9787 15.9094
240 2 154.091 18.9544 0.0605823
241 2 157.966 23.0032 15.9408
242 2 3.55514 22.8807 15.8237
243 2 7.63547 22.7973 0.098486
244 2 11.6459 22.8606 0.020729
245 2 15.5642 23.0713 15.9003
246 2 19.441 23.1737 15.8843
247 2 23.4776 23.1634 16.1323
248 2 27.5131 22.9829 15.8519
249 2 31.5098 23.1969 0.154004
250 2 35.6348 23.2505 16.1171
251 2 39.5725 23.134 0.318352
252 2 43.577 23.5184 15.9314
253 2 47.5866 23.5471 -0.0167408
254 2 51.6217 23.6172 0.160715
255 2 55.6025 23.6736 -0.0147233
256 2 59.3477 23.6084 15.9461
257 2 63.6312 23.5624 0.0214836
258 2 67.6822 23.5769 16.1205
259 2 71.513 23.5409 16.0029
260 2 75.7107 23.7483 0.172939
261 2 79.7331 23.9717 16.0448
262 2 83.6576 23.9068 0.291368
263 2 87.6123 24.0109 16.0311
264 2 91.735 23.987 15.9764
265 2 95.5369 23.8056 15.7243
266 2 99.3525 23.8048 0.258805
267 2 103.42 23.955 16.1251
268 2 107.082 23.807 16.0355
269 2 111.022 23.8648 0.180477
270 2 114.871 23.7626 15.8485
271 2 118.833 23.6413 15.919
272 2 122.868 23.5514 0.229362
273 2 126.703 23.5268 16.0206
274 2 130.548 23.6026 15.8653
275 2 134.592 23.4352 16.0435
276 2 138.503 23.2483 15.9247
277 2 142.465 23.2372 15.8244
278 2 146.207 23.0844 0.270049
279 2 150.295 23.1305 0.154169
280 2 154.08 22.9897 0.19247
281 2 158.112 26.7902 0.0792926
282 2 3.69389 27.0855 0.179392
283 2 7.61167 26.8454 0.181131
284 2 11.3344 26.9652 15.6805
285 2 15.3672 26.7276 16.0063
286 2 19.5246 26.8819 0.268115
287 2 23.538 27.0723 15.963
288 2 27.5523 26.84 16.1364
289 2 31.4617 26.966 0.271762
290 2 35.5949 27.1373 0.288146
291 2 39.6501 27.1122 0.0511322
292 2 43.3667 27.1807 0.290421
293 2 47.4911 27.3794 0.230829
294 2 51.5883 27.6165 15.8764
295 2 55.5893 27.524 0.0623859
296 2 59.7233 27.7139 15.8816
297 2 63.5114 27.6988 15.9193
298 2 67.5569 27.5656 15.8921
299 2 71.4497 27.6954 15.8949
300 2 75.5337 27.5139 0.0536644
301 2 79.7457 27.6542 0.260476
302 2 83.6644 27.912 15.9869
303 2 87.635 27.8471 0.116185
304 2 91.6838 27.9143 0.018471
305 2 95.5879 27.8813 0.188027
306 2 99.3119 27.6861 0.344577
307 2 103.325 27.8773 15.9831
308 2 107.374 27.8309 0.321488
309 2 111.319 27.7413 15.9784
310 2 115.202 27.8055 15.8911
311 2 118.856 27.4699 0.261532
312 2 122.833 27.416 0.145027
313 2 126.723 27.5879 15.9498
314 2 130.675 27.4453 16.1056
315 2 134.7 27.2534 15.9612
316 2 138.575 27.213 15.968
317 2 142.365 27.307 -0.0895124
318 2 146.275 27.2349 -0.0332093
319 2 150.253 26.9286 -0.00595559
320 2 154.152 26.9262 0.0828462
321 2 158.178 30.892 16.0303
322 2 3.71448 31.031 15.9191
323 2 7.64788 30.9434 15.6985
324 2 11.5668 30.8907 0.149526
325 2 15.5224 30.7984 0.137913
326 2 19.5574 30.6726 15.8752
327 2 23.2448 30.8905 16.0275
328 2 27.2279 31.1394 0.143872
329 2 31.4456 30.9032 15.8869
330 2 35.5082 31.0398 15.8897
331 2 39.4866 31.0868 15.663
332 2 43.4666 31.1598 0.0831962
333 2 47.4858 31.2793 16.0265
334 2 51.4971 31.4143 0.246413
335 2 55.3928 31.2638 15.8259
336 2 59.4117 31.4649 0.0991071
337 2 63.3607 31.4769 15.7885
338 2 67.4714 31.5282 0.100261
339 2 71.5012 31.528 0.334205
340 2 75.4567 31.7292 0.216228
341 2 79.4242 31.6698 15.8734
342 2 83.4859 31.7312 0.177801
343 2 87.4374 31.9163 15.6791
344 2 91.3539 31.8168 15.7844
345 2 95.3592 32.0211 15.7991
346 2 99.382 31.7799 0.194922
347 2 103.324 31.998 16.0877
348 2 107.315 31.7017 15.9334
349 2 111.161 31.6677 15.8897
350 2 115.091 31.814 15.8477
351 2 118.936 31.5657 15.7458
352 2 122.801 31.6406 15.8574
353 2 126.76 31.7508 16.0321
354 2 130.945 31.5046 16.0138
355 2 134.642 31.3866 15.9338
356 2 138.516 31.2599 15.9936
357 2 142.453 31.2827 -0.0499654
358 2 146.277 31.1378 15.8198
359 2 150.16 30.9725 0.0468122
360 2 153.921 31.0342 -0.0360378
361 2 -0.191763 35.0874 0.0401559
362 2 3.77336 34.9372 15.795
363 2 7.75287 34.973 15.8755
364 2 11.7726 34.8187 15.9472
365 2 15.623 34.9092 0.224254
366 2 19.5662 34.9717 0.217365
367 2 23.303 34.8564 0.208485
368 2 27.4267 34.7593 0.411007
369 2 31.3719 34.9498 0.11838
370 2 35.4088 35.0609 0.0709872
371 2 39.4722 35.1994 0.154868
372 2 43.4437 35.3273 15.8271
373 2 47.5483 35.3807 15.8668
374 2 51.4265 35.0573 15.8312
375 2 55.2309 35.4613 -0.0276857
376 2 59.4203 35.3436 0.0849007
377 2 63.3556 35.4845 15.7396
378 2 67.411 35.3729 0.0665418
379 2 71.319 35.5843 0.280069
380 2 75.2633 35.3593 15.9262
381 2 79.2269 35.5298 0.221287
382 2 83.2916 35.5272 15.9022
383 2 87.314 35.708 0.313861
384 2 91.3245 35.7309 0.259284
385 2 95.288 35.8041 15.7417
386 2 99.3233 35.9096 0.0973189
387 2 103.434 35.8398 15.8016
388 2 107.27 35.9585 15.9321
389 2 111.262 35.8951 15.899
390 2 115.113 35.7234 15.6901
391 2 119.076 35.5452 15.8441
392 2 122.994 35.7541 15.7329
393 2 126.865 35.5042 15.8672
394 2 130.896 35.5383 15.8718
395 2 134.665 35.3731 15.8938
396 2 138.53 35.2652 -0.0278835
397 2 142.47 35.3481 0.0702701
398 2 146.43 35.2798 0.10276
399 2 150.239 35.1621 15.846
400 2 154.25 35.1065 -0.116794
401 2 158.041 38.9348 0.0246826
402 2 3.89438 38.9581 -0.0269052
403 2 7.66634 38.9415 -0.143763
404 2 11.6036 39.1077 15.9874
405 2 15.568 38.8761 0.230891
406 2 19.388 38.9019 16.0892
407 2 23.4729 38.7972 15.9502
408 2 27.3157 38.7727 15.8248
409 2 31.1532 38.99 -0.0298365
410 2 35.3832 39.0113 -0.133664
411 2 39.2435 39.0149 15.8258
412 2 43.3277 39.1692 0.193804
413 2 47.2491 39.2431 0.204675
414 2 51.2781 39.2818 16.0469
415 2 55.1596 39.284 0.256689
416 2 59.2125 39.1928 0.12381
417 2 63.2782 39.3028 0.0941577
418 2 67.3191 39.416 0.168031
419 2 71.2784 39.54 0.240571
420 2 75.2207 39.4991 0.114908
421 2 79.0877 39.2846 0.217943
422 2 83.3215 39.5569 15.8733
423 2 87.2282 39.523 15.7196
424 2 91.2453 39.6136 15.9126
425 2 95.3593 39.6736 15.8415
426 2 99.3898 39.7046 0.0539177
427 2 103.386 39.7731 15.8945
428 2 107.317 39.879 15.8591
429 2 111.282 39.8512 15.8789
430 2 115.18 39.6865 15.9495
431 2 119.103 39.7155 15.7979
432 2 122.821 39.4306 15.9028
433 2 126.949 39.5929 0.111706
434 2 130.922 39.5322 15.7491
435 2 134.971 39.4102 15.8343
436 2 138.864 39.4278 15.7675
437 2 142.725 39.1734 15.945
438 2 146.393 39.1035 -0.108631
439 2 150.525 39.1367 15.9471
440 2 154.342 39.2318 15.9444
441 2 158.324 42.9469 0.219753
442 2 3.83765 43.0186 15.6819
443 2 7.78717 43.0156 16.0155
444 2 11.611 42.9549 0.173878
445 2 15.3153 42.9007 0.0551534
446 2 19.4794 42.9109 0.290768
447 2 23.3381 42.7027 16.1208
448 2 27.1239 42.9402 15.8013
449 2 31.0741 42.8358 0.279681
450 2 35.0956 42.7631 0.101492
451 2 39.1089 42.9767 -0.0228398
452 2 43.0782 43.0449 0.146779
453 2 47.2562 43.0628 15.8486
454 2 51.1309 43.2639 15.9729
455 2 55.2355 43.1199 0.16784
456 2 59.2474 43.3004 15.8437
457 2 63.3399 43.153 0.176989
458 2 67.229 43.3208 0.187947
459 2 71.1977 43.5726 0.259705
460 2 75.2083 43.4189 0.285754
461 2 79.2766 43.407 0.32764
462 2 83.3199 43.3196 15.7903
463 2 87.1326 43.6791 16.0743
464 2 91.2166 43.5267 0.230174
465 2 95.2582 43.4975 0.367192
466 2 99.2832 43.74 15.9987
467 2 103.344 43.7197 15.9782
468 2 107.254 43.7319 15.8011
469 2 111.26 43.5864 15.9634
470 2 115.141 43.6402 16.0262
471 2 119.13 43.6493 15.9031
472 2 123.053 43.5228 15.755
473 2 126.943 43.4293 0.164105
474 2 131.219 43.4478 0.140111
475 2 134.88 43.43 15.8416
476 2 138.693 43.2192 15.7581
477 2 142.592 43.2721 16.0393
478 2 146.382 43.1511 0.0388657
479 2 150.541 43.3045 0.201017
480 2 154.343 43.0464 0.044013
481 2 -0.206714 47.0224 0.0405171
482 2 3.8009 47.0968 0.0312314
483 2 7.78909 46.8878 0.15286
484 2 11.6147 46.9184 0.0415548
485 2 15.682 47.037 0.361926
486 2 19.3762 46.9745 0.456315
487 2 23.3693 46.7503 0.10664
488 2 27.3813 46.762 15.9782
489 2 31.4026 46.8043 0.244651
490 2 35.0829 46.7865 0.0569421
491 2 39.1172 46.7188 15.6662
492 2 43.227 46.908 15.8699
493 2 47.1812 46.8697 0.284583
494 2 51.2442 47.2014 15.9664
495 2 55.0712 46.9642 15.9184
496 2 59.3116 47.215 15.8444
497 2 63.087 47.4544 0.184649
498 2 67.1155 47.274 0.111545
499 2 71.2723 47.4317 16.1074
500 2 75.1425 47.2312 0.25757
501 2 79.2402 47.2236 15.9689
502 2 83.192 47.373 15.8283
503 2 87.1794 47.4856 0.241624
504 2 91.2256 47.4611 0.194049
505 2 95.1454 47.5238 0.191496
506 2 99.2329 47.5494 0.224869
507 2 103.339 47.5885 0.115527
508 2 107.269 47.5551 15.8896
509 2 111.431 47.3864 15.9375
510 2 115.31 47.5625 -0.00984565
511 2 119.448 47.7829 15.9607
512 2 123.169 47.465 15.9051
513 2 126.906 47.4064 15.977
514 2 131.004 47.3931 15.7899
515 2 134.846 47.2411 15.9935
516 2 138.871 47.3307 15.874
517 2 142.739 47.2806 15.945
518 2 146.625 47.2234 0.0344661
519 2 150.546 47.0557 0.26023
520 2 154.373 47.2842 15.8944
521 2 158.251 50.9321 0.171417
522 2 3.86005 50.9571 15.7273
523 2 7.58819 51.1748 15.8033
524 2 11.5287 50.8901 15.8368
525 2 15.4651 50.8727 0.137339
526 2 19.5616 50.8154 16.0293
527 2 23.2704 50.883 15.939
528 2 27.1684 50.8281 15.9138
529 2 31.3157 50.8174 0.0693364
530 2 35.1562 50.5815 0.331343
531 2 39.0785 50.6771 15.8112
532 2 42.9236 50.7832 15.8893
533 2 47.1149 51.1196 0.158372
534 2 51.1067 50.8996 0.27028
535 2 55.103 51.0396 0.15514
536 2 59.1728 51.1169 15.9354
537 2 63.0819 51.0842 15.9717
538 2 67.1643 51.0273 -0.0261531
539 2 71.2005 51.1705 0.162294
540 2 75.1511 51.3878 0.280616
541 2 78.996 51.1917 0.217901
542 2 83.0858 51.3116 0.154476
543 2 87.2096 51.2797 0.154562
544 2 91.2496 51.3741 0.0757404
545 2 95.3748 51.3885 0.111422
546 2 99.1406 51.4336 -0.00498267
547 2 103.043 51.5162 15.9164
548 2 107.267 51.602 0.24762
549 2 111.427 51.4231 0.119838
550 2 115.29 51.4546 16.185
551 2 119.291 51.7132 15.9355
552 2 123.253 51.4039 15.8422
553 2 127.229 51.4549 16.0188
554 2 131.013 51.4589 0.305734
555 2 134.815 51.3087 0.314342
556 2 138.926 51.3017 0.229709
557 2 142.529 51.5033 0.0938579
558 2 146.665 51.2578 15.8429
559 2 150.517 51.2723 0.0980346
560 2 154.319 51.0861 0.149675
561 2 158.192 54.9602 0.146057
562 2 3.84481 54.9943 -0.018166
563 2 7.79774 54.9968 -0.078901
564 2 11.672 54.9703 0.0123693
565 2 15.7149 54.9923 0.188153
566 2 19.517 54.8041 16.0602
567 2 23.4635 54.9033 16.0527
568 2 27.4038 54.6969 16.0097
569 2 31.1117 54.9536 0.345766
570 2 35.0395 54.7753 -0.019773
571 2 39.0662 54.6873 15.8078
572 2 43.0853 54.8525 16.0493
573 2 47.1251 54.9463 0.178737
574 2 51.1331 54.9138 15.7971
575 2 54.9319 54.7933 15.9349
576 2 59.1125 54.9591 15.8421
577 2 62.9923 54.9844 16.008
578 2 66.9297 54.9279 0.0837767
579 2 71.0726 55.2333 -0.00467042
580 2 75.1281 55.1951 15.8862
581 2 79.1792 55.1206 0.292179
582 2 83.0352 55.1096 0.217863
583 2 87.0814 55.0684 -0.00805089
584 2 91.3745 55.3092 15.9304
585 2 95.112 55.1865 0.224479
586 2 99.324 55.2158 16.0301
587 2 103.129 55.3251 15.8136
588 2 107.122 55.4341 0.257811
589 2 111.179 55.4725 16.0841
590 2 115.207 55.4745 16.0944
591 2 119.156 55.4012 15.9429
592 2 123.17 55.5021 0.310066
593 2 127.085 55.256 15.9924
594 2 130.904 55.6058 15.954
595 2 134.801 55.6171 0.268974
596 2 138.903 55.1435 15.9187
597 2 142.714 55.3862 0.102337
598 2 146.515 55.1784 0.0653293
599 2 150.346 55.1667 0.206183
600 2 154.243 55.1748 15.936
601 2 158.334 58.8973 0.0982278
602 2 4.23036 59.0911 15.9453
603 2 8.09785 59.088 15.8237
604 2 11.8572 58.9256 -0.0749623
605 2 15.5735 58.9305 15.8189
606 2 19.6603 58.9894 0.329261
607 2 23.4351 58.6954 0.176964
608 2 27.4142 58.6803 0.115372
609 2 31.3105 58.9363 15.9851
610 2 35.1848 58.8067 16.0281
611 2 39.2955 58.6908 15.8853
612 2 43.0528 58.7311 15.9715
613 2 47.2176 58.8437 15.9249
614 2 50.887 58.796 15.9001
615 2 55.044 58.7522 15.9764
616 2 59.0747 58.8535 0.241853
617 2 63.0085 58.8813 15.9134
618 2 67.0496 58.9483 0.115277
619 2 71.011 59.0189 15.7752
620 2 75.1924 59.2482 0.185228
621 2 79.0018 59.1021 0.351491
622 2 83.0256 59.1109 0.0909037
623 2 87.0562 59.0298 15.9078
624 2 91.1335 59.1712 15.9113
625 2 95.1883 59.1471 0.229108
626 2 99.1183 59.0226 0.148847
627 2 103.205 59.2158 15.9463
628 2 107.244 59.3837 0.141755
629 2 111.137 59.3177 16.1552
630 2 115.123 59.4597 16.0294
631 2 119.088 59.4072 16.0385
632 2 122.788 59.466 0.253687
633 2 127.126 59.5122 15.8437
634 2 131.081 59.5267 0.394294
635 2 135.075 59.4641 15.9521
636 2 138.819 59.2762 0.264307
637 2 142.769 59.3836 0.163995
638 2 146.508 59.4149 0.0853621
639 2 150.735 59.0569 15.8568
640 2 154.501 59.3108 0.104118
641 2 0.265253 63.1666 0.263317
642 2 4.25899 63.0532 0.247457
643 2 8.01914 63.2551 15.9179
644 2 11.8477 62.8285 15.9993
645 2 15.7214 62.9994 15.9971
646 2 19.7456 62.9089 0.0221365
647 2 23.5069 62.8019 0.10246
648 2 27.4763 62.9738 0.0693227
649 2 31.2665 62.8038 0.0674493
650 2 35.2683 62.84 0.084516
651 2 39.0091 62.6349 15.8236
652 2 42.8056 62.6439 0.0211188
653 2 46.9016 62.8217 15.7971
654 2 50.9745 62.6754 15.9346
655 2 54.9545 62.8869 0.314812
656 2 59.0186 62.7035 16.1173
657 2 63.0856 62.6874 0.282497
658 2 67.0243 62.8204 16.0158
659 2 71.0271 62.8412 0.21025
660 2 75.0321 62.9977 -0.0111776
661 2 78.9786 62.9014 0.295639
662 2 83.0628 62.9531 0.153465
663 2 87.1441 63.0073 15.9166
664 2 91.0801 63.0919 15.9329
665 2 95.234 63.0116 0.198792
666 2 99.0683 63.083 0.107596
667 2 103.21 63.1796 15.9548
668 2 107.108 63.2109 16.019
669 2 111.059 63.4519 16.0271
670 2 115.131 63.1847 0.218892
671 2 119.12 63.3147 15.7456
672 2 123.21 63.3504 0.133358
673 2 127.198 63.5733 15.8724
674 2 131.221 63.4024 0.211409
675 2 135.135 63.4754 16.1071
676 2 139.003 63.3008 15.8809
677 2 142.825 63.4139 15.7904
678 2 146.7 63.3672 0.301227
679 2 150.742 63.1489 16.0496
680 2 154.578 63.1177 0.0113908
681 2 0.248186 67.1389 0.107668
682 2 4.13693 67.0244 0.0070393
683 2 8.02808 66.8047 16.0159
684 2 11.8939 66.9533 16.0797
685 2 15.7701 66.8911 0.192055
686 2 19.6999 67.0857 0.195386
687 2 23.7501 66.8636 0.0874728
688 2 27.4755 66.9776 -0.00534538
689 2 31.4312 66.9064 0.176849
690 2 35.2924 66.8832 0.236887
691 2 39.1692 66.6676 15.9654
692 2 43.0254 66.7537 0.070016
693 2 47.1578 66.6411 16.0021
694 2 50.9933 66.7122 15.9395
695 2 54.889 66.5872 16.0775
696 2 58.9727 66.5441 15.9715
697 2 63.0064 66.4898 16.0718
698 2 66.7967 66.7342 16.0826
699 2 70.9891 66.8519 0.0984741
700 2 74.8979 66.8946 15.9848
701 2 79.0946 66.8991 15.8986
702 2 83.1555 66.8763 0.0644297
703 2 86.9966 67.0285 15.847
704 2 91.0861 66.9874 15.9284
705 2 94.9929 66.9605 0.0452324
706 2 99.0945 66.9766 0.319054
707 2 103.047 67.1151 0.194567
708 2 107.24 67.2268 16.1347
709 2 111.183 67.2142 16.1913
710 2 115.01 67.13 16.1825
711 2 119.069 67.2354 0.270911
712 2 123.071 67.3576 0.433667
713 2 127.044 67.3926 0.304805
714 2 131.155 67.345 15.8856
715 2 134.956 67.283 0.387024
716 2 138.914 67.4573 0.266085
717 2 142.807 67.2848 15.9252
718 2 146.909 67.1599 16.0163
719 2 150.574 67.2031 15.9036
720 2 154.544 67.0313 0.000626123
721 2 0.232573 71.0245 0.208051
722 2 4.18261 71.052 15.9241
723 2 7.91798 71.1466 0.0559924
724 2 11.978 70.8758 16.056
725 2 15.7816 71.0038 0.175188
726 2 19.6982 70.9276 0.175563
727 2 23.605 70.7756 0.0812091
728 2 27.4415 70.9084 15.6624
729 2 31.5245 70.8945 0.00581621
730 2 35.3164 71.0071 0.0163686
731 2 39.2667 70.8471 15.9101
732 2 43.1329 70.8065 0.0370598
733 2 47.1519 70.7699 15.9471
734 2 51.0645 70.7609 15.9136
735 2 54.915 70.5954 0.263829
736 2 58.9027 70.7356 0.271872
737 2 62.8283 70.6106 0.310842
738 2 66.9427 70.7126 15.9673
739 2 70.8868 70.8067 15.861
740 2 74.8129 70.7568 16.057
741 2 78.9376 70.6823 0.374233
742 2 83.0697 70.7854 0.132588
743 2 87.1085 70.8939 16.0059
744 2 90.9857 70.9948 15.9921
745 2 95.0261 71.1071 15.9058
746 2 98.9471 70.9544 16.1362
747 2 103.093 70.9733 16.0956
748 2 107.06 71.1948 16.0526
749 2 111.023 70.8745 16.0231
750 2 114.928 71.1655 0.107582
751 2 119.073 71.2829 16.0185
752 2 123.081 71.1324 0.284317
753 2 126.927 71.2632 16.1647
754 2 131.08 71.2374 15.7451
755 2 134.84 71.2996 16.0593
756 2 138.983 71.2901 16.039
757 2 143.014 71.318 0.249299
758 2 146.902 71.2787 0.151167
759 2 150.842 71.252 0.284943
760 2 154.681 71.0344 15.8631
761 2 0.295732 75.3246 0.00821052
762 2 4.13198 75.109 15.9301
763 2 8.06404 75.0027 15.8725
764 2 11.8663 74.9677 15.9869
765 2 15.7699 75.0543 15.9451
766 2 19.6731 74.922 15.8042
767 2 23.5071 74.9168 15.8238
768 2 27.4483 75.0351 15.7291
769 2 31.5199 74.8715 0.0917896
770 2 35.372 74.817 15.7841
771 2 39.1604 74.798 16.0796
772 2 43.3938 74.8097 0.239985
773 2 47.1257 74.7263 15.8724
774 2 51.1726 74.7489 0.239319
775 2 55.0174 74.639 15.8632
776 2 58.876 74.5558 15.9772
777 2 62.7385 74.5535 15.9065
778 2 66.6693 74.4326 0.0133822
779 2 70.7003 74.6307 0.0334187
780 2 75.0245 74.6503 0.32644
781 2 78.901 74.476 0.275422
782 2 83.0068 74.6165 0.288829
783 2 87.0073 74.6796 0.254125
784 2 91.0044 74.795 16.0044
785 2 94.9126 74.8306 15.9339
786 2 98.8152 75.0202 0.11265
787 2 103.011 75.0056 16.3047
788 2 107.021 75.0439 15.8796
789 2 110.908 75.0914 15.9042
790 2 115.071 75.1291 15.9144
791 2 119.057 74.9716 0.218336
792 2 122.924 75.2539 16.0342
793 2 127.092 75.1972 16.1009
794 2 131.084 75.0016 0.107626
795 2 134.814 75.3083 15.9196
796 2 138.856 75.1237 15.848
797 2 142.796 75.1505 16.0497
798 2 146.685 75.4669 15.7819
799 2 150.821 75.1577 0.169139
800 2 154.612 75.0905 0.161196
801 2 0.378388 79.0737 0.176496
802 2 4.21936 79.1521 15.8804
803 2 8.02204 79.1295 0.184881
804 2 11.8761 79.0555 0.000631781
805 2 15.8121 79.0371 15.8097
806 2 19.7467 78.8286 15.9414
807 2 23.6839 79.0184 0.330536
808 2 27.6758 79.0839 0.0948099
809 2 31.3831 78.91 -0.00351954
810 2 35.2768 78.7681 0.148866
811 2 39.1775 78.8992 16.0828
812 2 43.2947 78.8302 16.0151
813 2 47.1866 78.8523 15.9836
814 2 51.0888 78.7303 0.0675886
815 2 54.9039 78.8316 0.329215
816 2 58.816 78.634 16.0203
817 2 63.1153 78.3387 15.8634
818 2 66.8961 78.4285 0.196578
819 2 70.9959 78.5815 15.8939
820 2 74.8343 78.6113 0.184971
821 2 78.8972 78.4398 15.9559
822 2 82.9639 78.6189 16.1079
823 2 86.822 78.7707 0.310264
824 2 90.8089 78.6753 0.34533
825 2 94.796 78.668 0.301535
826 2 98.9335 78.6965 16.0248
827 2 102.986 78.9954 15.9279
828 2 106.908 78.8769 0.3621
829 2 111.156 78.8784 0.245944
830 2 114.92 78.9455 0.136578
831 2 119.036 78.8751 0.186138
832 2 122.824 79.0604 16.0921
833 2 127.015 79.1542 0.273499
834 2 130.902 78.9755 15.8388
835 2 134.843 79.3146 0.195732
836 2 139 79.2486 15.8566
837 2 143.024 79.1818 15.8431
838 2 146.873 79.174 15.923
839 2 150.808 79.3076 16.0822
840 2 154.632 79.1257 0.252172
841 2 0.0646286 83.0552 15.8947
842 2 4.00804 83.1407 15.9171
843 2 8.08713 83.0057 0.139679
844 2 11.8467 83.1887 15.9661
845 2 15.8515 82.9961 15.9936
846 2 19.6958 82.8361 0.0811555
847 2 23.7554 82.9906 15.9867
848 2 27.6716 82.9039 0.394364
849 2 31.516 82.8348 15.9889
850 2 35.2857 82.8023 0.0467342
851 2 39.3613 83.0355 0.197027
852 2 43.3296 82.9384 16.0716
853 2 47.1938 82.6336 0.0345053
854 2 51.2771 82.5541 0.089919
855 2 55.2916 82.5488 0.0184947
856 2 59.1737 82.5247 15.9518
857 2 62.9682 82.4403 15.9157
858 2 66.8189 82.3836 15.9003
859 2 70.9598 82.3666 15.9288
860 2 74.8353 82.351 15.9588
861 2 78.96 82.566 16.0095
862 2 82.7683 82.5086 0.198678
863 2 86.8555 82.677 0.133941
864 2 90.85 82.5034 15.912
865 2 94.8703 82.6287 0.0653953
866 2 98.756 82.5433 16.0169
867 2 102.944 82.8298 0.155976
868 2 106.923 82.6825 15.8218
869 2 110.802 82.7999 15.8103
870 2 114.759 82.8335 15.8321
871 2 118.834 83.0915 15.9594
872 2 122.799 82.9335 15.9442
873 2 127.037 82.9504 16.0488
874 2 130.874 83.1791 15.8666
875 2 134.817 83.1469 -0.027472
876 2 139.026 83.072 15.8871
877 2 143.092 83.2305 0.269241
878 2 146.712 83.1052 15.9036
879 2 150.744 83.2822 0.110926
880 2 154.619 83.2243 0.119486
881 2 0.35445 87.2675 15.869
882 2 4.28308 86.9602 0.228272
883 2 8.09263 87.2213 15.9436
884 2 12.2238 87.0814 15.9429
885 2 15.9067 86.9584 15.6827
886 2 19.7093 87.0068 15.9644
887 2 23.7352 87.1528 16.1521
888 2 27.6847 86.9957 0.228709
889 2 31.5786 86.8519 15.8154
890 2 35.4771 87.0117 0.164524
891 2 39.7092 86.9295 15.7855
892 2 43.5048 86.8422 15.8333
893 2 47.3125 86.647 15.8418
894 2 51.1003 86.7121 15.8853
895 2 55.029 86.4785 16.015
896 2 58.9684 86.5802 0.201597
897 2 62.8902 86.4735 0.203117
898 2 66.7391 86.4189 15.9526
899 2 70.8959 86.31 0.113318
900 2 74.7489 86.3652 15.721
901 2 78.7685 86.5237 0.0901416
902 2 82.9229 86.3096 0.313866
903 2 86.7181 86.4443 15.763
904 2 90.6984 86.5296 16.2048
905 2 94.9501 86.5558 16.2265
906 2 98.7444 86.6263 16.1326
907 2 102.979 86.6955 0.287933
908 2 106.738 86.8514 0.102052
909 2 110.712 86.5949 15.8933
910 2 114.821 86.713 0.296609
911 2 118.839 86.8473 0.0432751
912 2 122.865 86.8002 0.153342
913 2 126.829 86.7834 16.0425
914 2 130.885 87.1925 15.673
915 2 134.777 86.9321 15.8685
916 2 138.616 87.1493 15.8355
917 2 142.896 87.0326 15.7961
918 2 146.886 87.1328 0.169557
919 2 150.834 87.0813 15.9606
920 2 154.802 87.1406 15.9417
921 2 0.362575 91.0844 0.238997
922 2 4.13618 91.1658 0.261637
923 2 8.08957 91.0503 16.1292
924 2 12.0609 91.0177 16.0023
925 2 15.9187 91.1303 0.0976928
926 2 19.8175 91.1312 0.195405
927 2 23.849 90.9399 15.9374
928 2 27.7335 91.1016 15.8979
929 2 31.6188 90.9385 16.0061
930 2 35.6339 91.0014 0.0328705
931 2 39.5 90.7746 15.862
932 2 43.5662 90.7859 15.8005
933 2 47.4178 90.6873 0.199497
934 2 51.3763 90.6457 -0.000817783
935 2 55.1613 90.7378 0.172671
936 2 59.0855 90.5486 0.109776
937 2 62.9556 90.4589 0.11457
938 2 66.8069 90.3308 15.7859
939 2 70.7665 90.1756 16.1678
940 2 74.8371 90.3529 0.201122
941 2 78.7547 90.1806 0.24642
942 2 82.9352 90.4793 0.231397
943 2 86.8176 90.5755 0.230626
944 2 90.8793 90.5661 0.37685
945 2 94.6635 90.3624 16.1616
946 2 98.8542 90.6008 16.1179
947 2 102.69 90.7809 0.211123
948 2 106.708 90.668 16.2024
949 2 110.857 90.464 15.7669
950 2 114.776 90.7605 0.39117
951 2 118.862 90.5712 0.169003
952 2 122.786 90.6432 15.9258
953 2 126.859 90.8398 0.150912
954 2 130.919 90.8492 0.0744102
955 2 134.91 90.9986 16.0798
956 2 139.079 90.9557 15.981
957 2 143.011 91.0091 16.0317
958 2 146.904 91.1022 15.8887
959 2 151.003 91.1132 16.0427
960 2 154.799 91.1219 15.8803
961 2 0.502431 95.0778 0.00926541
962 2 4.27195 95.0417 15.5489
963 2 8.35814 95.1683 15.9247
964 2 12.2766 94.9034 15.9013
965 2 16.1548 95.1445 15.8602
966 2 20.0041 94.7791 15.9445
967 2 23.844 94.7778 15.8672
968 2 27.7688 94.9743 16.1695
969 2 31.8155 94.9337 15.7398
970 2 35.655 94.9194 15.7885
971 2 39.6732 94.9077 15.9434
972 2 43.4359 94.6943 15.8646
973 2 47.3424 94.6804 0.073088
974 2 51.2627 94.7338 15.9566
975 2 55.2566 94.6612 0.116451
976 2 59.2118 94.5869 16.0778
977 2 63.0745 94.4907 0.277818
978 2 67.186 94.3817 0.155231
979 2 70.996 94.1316 0.155676
980 2 74.8233 94.3767 0.0276409
981 2 78.6843 94.2382 15.831