ITEM: TIMESTEP
22800
ITEM: NUMBER OF ATOMS
32000
ITEM: BOX BOUNDS xy xz yz pp pp pp
0.0000000000000000e+00 1.5831999999999999e+02 0.0000000000000000e+00
0.0000000000000000e+00 1.5831999999999999e+02 0.0000000000000000e+00
1.6629801538374878e-01 1.5931413984616100e+01 0.0000000000000000e+00
ITEM: ATOMS id type x y z
1 2 158.037 157.665 15.6221
2 2 3.73089 157.676 16.0703
3 2 7.83412 157.791 0.217959
4 2 11.6907 157.932 0.0806454
5 2 15.8717 158.066 0.276907
6 2 19.7465 157.964 16.0098
7 2 23.7124 158.151 16.1127
8 2 27.8296 158.139 15.8758
9 2 31.9983 158.083 0.0967114
10 2 35.8273 158.279 15.9414
11 2 39.9479 0.0317856 15.9716
12 2 44.0412 -0.08045 0.384967
13 2 47.867 0.10371 15.9921
14 2 51.9029 -0.0380597 -0.0969566
15 2 55.7439 158.435 0.0718787
16 2 60.0343 158.469 15.7458
17 2 63.9508 0.018632 15.9758
18 2 67.8415 0.317393 16.0209
19 2 71.6224 0.0363882 16.104
20 2 75.7172 158.374 15.9081
21 2 79.6287 0.0268245 15.8408
22 2 83.4701 158.235 15.9236
23 2 87.4214 158.387 15.9599
24 2 91.3939 158.137 0.286074
25 2 95.2525 158.065 16.0675
26 2 99.279 158.137 15.8965
27 2 102.964 157.858 16.0183
28 2 106.981 158.068 16.2579
29 2 110.661 157.954 0.258656
30 2 114.39 158.116 0.239635
31 2 118.426 158.031 15.6431
32 2 122.51 157.662 0.170101
33 2 126.421 157.686 0.293013
34 2 130.292 157.576 0.00532622
35 2 134.119 157.754 16.0097
36 2 138.051 157.777 15.9921
37 2 142.088 157.563 15.9974
38 2 146.125 157.639 15.9754
39 2 149.992 157.623 -0.161625
40 2 153.979 157.618 0.146711
41 2 157.976 3.38183 16.172
42 2 3.84436 3.10407 15.9871
43 2 7.80455 3.3343 0.0196403
44 2 11.7771 3.55424 15.8315
45 2 15.4138 3.49427 16.1336
46 2 19.6362 3.6908 15.9939
47 2 23.7718 3.83914 0.187094
48 2 27.7612 3.7481 0.171072
49 2 31.6749 3.68054 0.147735
50 2 35.8697 3.61953 0.260888
51 2 39.841 3.78337 0.0735654
52 2 43.9881 3.89152 15.8192
53 2 47.9548 3.84128 15.8989
54 2 51.8556 3.89172 15.9211
55 2 55.8022 4.10858 -0.0118318
56 2 59.9543 4.18339 15.8726
57 2 63.9498 4.03156 16.0566
58 2 67.7856 4.20324 15.8977
59 2 71.7604 4.17416 16.0423
60 2 75.6348 4.04859 15.8302
61 2 79.58 3.8318 15.7616
62 2 83.4455 3.77476 15.9018
63 2 87.5846 3.9031 16.0387
64 2 91.4499 3.91627 0.372911
65 2 95.1927 3.99431 16.0641
66 2 99.2787 3.94863 0.254934
67 2 103.084 4.03554 16.1208
68 2 106.853 3.7284 15.8295
69 2 110.708 3.81977 0.215566
70 2 114.697 3.66903 0.161479
71 2 118.383 3.587 0.0808454
72 2 122.252 3.40115 0.0452994
73 2 126.433 3.29243 0.305996
74 2 130.404 3.46502 0.223002
75 2 134.397 3.32203 15.9668
76 2 138.212 3.08757 0.223089
77 2 142.236 3.20625 0.204506
78 2 146.197 3.09853 0.347833
79 2 150.173 3.13266 15.8214
80 2 154.029 3.31454 15.9868
81 2 157.996 7.09298 15.8134
82 2 3.51645 7.29948 15.9379
83 2 7.59137 7.21458 15.7779
84 2 11.5802 7.36496 0.203727
85 2 15.5477 7.45278 15.9493
86 2 19.6454 7.6303 16.0077
87 2 23.6864 7.66741 -0.0271349
88 2 27.6627 7.80834 16.0753
89 2 31.6393 7.60385 16.1456
90 2 35.8552 7.50744 15.9628
91 2 39.4972 7.62585 0.26905
92 2 43.7612 7.77507 0.134519
93 2 47.793 7.89426 16.0918
94 2 51.8541 7.91681 0.186038
95 2 56.0691 7.86778 15.9702
96 2 59.9997 7.95881 0.0684052
97 2 63.8455 8.05191 15.8939
98 2 67.8686 8.06043 15.9992
99 2 71.8955 8.03613 16.0131
100 2 75.6852 8.11444 16.1279
101 2 79.7307 8.0631 0.291722
102 2 83.6458 7.83237 15.8796
103 2 87.4434 7.90668 15.9827
104 2 91.4314 7.85659 16.0255
105 2 95.3663 7.98108 16.0579
106 2 99.2553 7.71816 0.259421
107 2 103.025 7.87849 0.260275
108 2 106.845 7.72881 15.9591
109 2 110.928 7.60632 0.309653
110 2 114.68 7.49146 16.0523
111 2 118.782 7.50953 16.0553
112 2 122.756 7.4512 15.89
113 2 126.587 7.57957 15.9242
114 2 130.502 7.32602 0.0271883
115 2 134.377 7.23095 0.06911
116 2 138.301 7.37638 16.0621
117 2 142.188 7.07129 15.8432
118 2 146.136 7.24553 0.248313
119 2 150.086 7.18157 -0.0546904
120 2 154.006 7.22918 15.5839
121 2 157.822 11.091 15.7089
122 2 3.72164 11.275 15.9467
123 2 7.52253 11.1107 15.6868
124 2 11.5638 11.2953 0.228851
125 2 15.7201 11.3645 16.0318
126 2 19.6092 11.3174 16.0205
127 2 23.5895 11.3022 15.9853
128 2 27.6076 11.4588 16.1766
129 2 31.7864 11.4358 16.0441
130 2 35.6258 11.5779 16.1953
131 2 39.7826 11.6627 16.072
132 2 43.9256 11.7332 0.205765
133 2 47.785 11.6979 0.0626081
134 2 51.8196 11.7997 15.8165
135 2 55.744 11.9038 0.359711
136 2 59.7709 11.8552 15.9538
137 2 63.7918 11.8774 0.38434
138 2 67.7174 11.8934 15.7469
139 2 71.8313 11.9448 15.7819
140 2 75.5992 12.0761 16.0887
141 2 79.4426 12.1593 16.1567
142 2 83.4325 11.8353 16.111
143 2 87.4478 12.0378 0.165418
144 2 91.3961 11.7792 0.0538328
145 2 95.3617 11.8261 15.7733
146 2 99.2666 11.8828 15.8586
147 2 103.107 11.9303 0.207616
148 2 107.012 11.7732 16.0042
149 2 110.894 11.8043 0.140797
150 2 114.748 11.5254 15.9896
151 2 118.58 11.4612 0.235237
152 2 122.679 11.5498 -0.0123283
153 2 126.721 11.6148 15.7878
154 2 130.561 11.4088 15.6578
155 2 134.405 11.3426 0.0594147
156 2 138.185 11.2755 0.123749
157 2 142.145 11.1635 -0.0682843
158 2 146.18 11.0312 0.0727941
159 2 149.948 11.0505 0.139509
160 2 154.118 11.1297 0.0172581
161 2 157.919 14.9647 15.87
162 2 3.44854 14.992 15.836
163 2 7.71356 15.1769 15.9435
164 2 11.6546 15.1236 16.0476
165 2 15.5789 15.3215 16.1561
166 2 19.4974 15.1467 0.275759
167 2 23.7679 15.3461 0.281025
168 2 27.6871 15.2897 16.1377
169 2 31.575 15.5478 0.306884
170 2 35.5575 15.4563 16.1533
171 2 39.7502 15.5221 0.15302
172 2 43.7263 15.5187 0.13652
173 2 47.5857 15.572 0.120477
174 2 51.8147 15.8115 0.101277
175 2 55.7398 15.7392 15.9469
176 2 59.8154 15.778 0.237142
177 2 63.7548 16.0948 16.1069
178 2 67.6217 16.0201 16.046
179 2 71.6938 15.9168 -0.0266256
180 2 75.5895 16.0349 0.135199
181 2 79.6978 16.1654 16.0416
182 2 83.4841 15.892 0.380848
183 2 87.4645 16.0412 16.0811
184 2 91.2648 15.9717 0.32638
185 2 95.2306 15.9463 15.9951
186 2 99.1278 15.848 16.2016
187 2 103.297 15.8355 15.9723
188 2 107.077 15.7658 16.0674
189 2 110.896 15.581 15.9949
190 2 114.714 15.6313 15.9291
191 2 118.573 15.623 0.0993168
192 2 122.671 15.5961 15.8053
193 2 126.573 15.6129 15.8394
194 2 130.6 15.584 -0.0484633
195 2 134.539 15.28 -0.0414786
196 2 138.367 15.3238 -0.00359423
197 2 142.28 15.2615 15.7688
198 2 146.244 15.2025 0.110208
199 2 149.865 15.236 0.128985
200 2 153.752 14.958 15.8466
201 2 157.852 19.1726 15.7323
202 2 3.43491 19.0386 0.0319827
203 2 7.43126 18.9582 0.354662
204 2 11.4044 19.317 16.0103
205 2 15.5944 19.2335 15.7825
206 2 19.439 19.2017 16.0292
207 2 23.5168 19.0873 16.0556
208 2 27.5997 19.3495 16.0554
209 2 31.6559 19.2916 16.0297
210 2 35.5383 19.3887 15.8965
211 2 39.6941 19.543 0.181437
212 2 43.4556 19.3933 15.889
213 2 47.5013 19.4391 15.888
214 2 51.3582 19.7108 0.183719
215 2 55.5082 19.6785 15.9936
216 2 59.5967 19.716 15.8843
217 2 63.4 19.836 16.0444
218 2 67.5249 20.007 15.8458
219 2 71.5307 19.8315 0.129556
220 2 75.4757 19.9892 0.287553
221 2 79.6167 20.0359 0.219137
222 2 83.6277 19.9628 16.0464
223 2 87.4549 19.8463 0.158118
224 2 91.469 20.0234 0.199173
225 2 95.3774 19.9693 15.8823
226 2 99.1925 19.9061 16.0802
227 2 103.069 19.8454 16.1638
228 2 107.113 19.8852 16.1759
229 2 110.999 19.6233 0.210346
230 2 114.886 19.6801 15.9876
231 2 118.881 19.4604 15.9408
232 2 122.687 19.3357 15.7482
233 2 126.5 19.5303 15.869
234 2 130.432 19.47 15.9842
235 2 134.467 19.2656 0.0744482
236 2 138.391 19.4163 15.9162
237 2 142.383 19.3 15.8841
238 2 146.383 19.0735 0.265899
239 2 150.063 19.1063 15.9394
240 2 154.043 19.0481 0.169303
241 2 157.938 23.0518 15.7876
242 2 3.59127 22.9845 15.8354
243 2 7.49866 23.0565 0.208008
244 2 11.2944 22.9173 0.363089
245 2 15.5751 23.0201 16.1499
246 2 19.3429 23.1699 15.9961
247 2 23.5283 23.0829 16.0147
248 2 27.6002 23.2652 15.8911
249 2 31.4777 23.4691 0.306445
250 2 35.6521 23.3389 15.7371
251 2 39.547 23.479 0.164492
252 2 43.6623 23.4354 15.9643
253 2 47.6894 23.4438 0.258535
254 2 51.5162 23.4603 0.0287959
255 2 55.593 23.5934 0.154748
256 2 59.428 23.5911 15.8633
257 2 63.4991 23.6953 0.207679
258 2 67.4596 23.9464 16.0005
259 2 71.5032 23.6778 15.8243
260 2 75.5695 23.9318 -0.0405231
261 2 79.425 23.7879 15.8651
262 2 83.337 23.7616 0.295899
263 2 87.2374 23.9297 15.8953
264 2 91.2991 23.9042 15.8674
265 2 95.3799 23.9599 16.1289
266 2 99.1665 23.8585 0.286023
267 2 103.172 23.8658 15.8753
268 2 106.992 23.9155 16.0711
269 2 111.088 23.6915 0.150876
270 2 114.894 23.7613 15.9806
271 2 118.806 23.5926 15.792
272 2 122.815 23.5919 0.0381436
273 2 126.659 23.3828 15.7439
274 2 130.421 23.4557 15.8381
275 2 134.349 23.5031 15.7104
276 2 138.13 23.3755 15.8476
277 2 142.444 23.156 15.9387
278 2 146.32 23.0514 0.0799163
279 2 150.19 23.1945 0.147651
280 2 154.14 22.9975 -0.0166725
281 2 157.919 27.0662 0.0802239
282 2 3.52159 27.1186 0.104194
283 2 7.63118 27.0196 -0.071848
284 2 11.521 26.8963 15.7989
285 2 15.5142 26.9502 15.9512
286 2 19.5744 27.2062 0.309288
287 2 23.2907 27.1231 16.0315
288 2 27.5537 27.2135 15.983
289 2 31.5042 27.1813 0.232451
290 2 35.4525 27.3755 0.118839
291 2 39.5755 27.3556 0.213616
292 2 43.3969 27.2973 0.0249343
293 2 47.4346 27.4545 0.0972392
294 2 51.4877 27.4082 15.7443
295 2 55.2849 27.4485 0.154336
296 2 59.4645 27.4524 15.8214
297 2 63.3793 27.7933 15.9275
298 2 67.574 27.5722 15.8913
299 2 71.3088 27.6879 16.0108
300 2 75.4975 27.9172 0.0988938
301 2 79.3703 27.8744 0.142021
302 2 83.3016 27.8168 16.0191
303 2 87.2324 27.7699 -0.0458897
304 2 91.2812 27.7004 0.149984
305 2 95.3046 27.988 0.119297
306 2 99.4436 27.8447 0.117649
307 2 103.328 27.7563 15.9615
308 2 107.043 27.718 -0.000996029
309 2 110.884 27.791 16.0752
310 2 115.037 27.844 15.7892
311 2 119.039 27.6856 0.263359
312 2 122.84 27.5636 0.329087
313 2 126.75 27.3708 15.9353
314 2 130.56 27.4154 15.8682
315 2 134.49 27.3752 15.883
316 2 138.31 27.367 15.755
317 2 142.361 27.3659 0.216049
318 2 146.218 27.2264 0.339174
319 2 150.254 27.3276 0.159673
320 2 154.227 27.0546 0.114857
321 2 158.111 31.109 15.9391
322 2 3.70501 31.0561 15.5043
323 2 7.57106 30.8391 15.8207
324 2 11.4012 30.8001 0.055819
325 2 15.2992 30.8375 0.204646
326 2 19.4228 30.9242 16.0828
327 2 23.4956 30.9717 15.9355
328 2 27.3379 31.0266 0.25063
329 2 31.5738 31.1453 16.0557
330 2 35.3016 31.1873 16.0759
331 2 39.3677 31.2456 16.0685
332 2 43.4495 31.1974 0.109739
333 2 47.4782 31.3633 15.8381
334 2 51.342 31.4245 0.0717419
335 2 55.2991 31.4456 15.8229
336 2 59.3362 31.5187 0.255128
337 2 63.4336 31.5722 15.8621
338 2 67.3951 31.6266 0.165834
339 2 71.4281 31.6501 -0.0508215
340 2 75.3231 31.6973 0.220503
341 2 79.3933 31.7209 16.105
342 2 83.2855 31.6043 0.182069
343 2 87.364 31.7215 16.025
344 2 91.4139 31.7565 15.9797
345 2 95.3112 31.6399 16.0642
346 2 99.4078 31.8415 0.0610942
347 2 103.465 31.6826 15.751
348 2 107.407 31.8634 15.9066
349 2 111.283 31.6226 15.8406
350 2 114.886 31.7148 16.0059
351 2 118.95 31.6542 15.9968
352 2 122.937 31.5893 15.9373
353 2 126.817 31.3346 15.7721
354 2 130.705 31.5362 15.9454
355 2 134.588 31.4349 15.8082
356 2 138.668 31.3923 15.7257
357 2 142.433 31.1776 0.169702
358 2 146.268 31.1565 15.9426
359 2 150.295 31.2157 0.160112
360 2 154.304 31.3101 0.231026
361 2 -0.333734 35.0664 0.0727325
362 2 3.71663 34.9543 15.9327
363 2 7.46136 34.918 15.8323
364 2 11.5477 34.7545 15.6288
365 2 15.3291 34.8378 0.141824
366 2 19.2191 34.8386 0.250559
367 2 23.4841 34.789 0.0626025
368 2 27.5214 34.8453 0.0900611
369 2 31.3882 34.8603 0.21972
370 2 35.3346 34.9483 0.209699
371 2 39.1586 34.8976 0.256789
372 2 43.2174 35.1834 16.1619
373 2 47.2382 35.2952 15.9737
374 2 51.3354 35.2805 15.7483
375 2 55.43 35.3988 0.228217
376 2 59.2992 35.4652 0.0264885
377 2 63.3853 35.5856 16.0321
378 2 67.303 35.5532 0.185051
379 2 71.3205 35.4878 0.193561
380 2 75.4635 35.5867 15.9629
381 2 79.4287 35.7063 0.121031
382 2 83.1957 35.7017 15.8033
383 2 87.2038 35.8172 0.154394
384 2 91.3744 35.6584 -0.0627289
385 2 95.3567 35.6895 15.9101
386 2 99.2255 35.8553 -0.0194397
387 2 103.256 35.6326 15.8034
388 2 107.307 35.7457 15.8209
389 2 111.162 35.7162 15.771
390 2 114.95 35.6288 15.8228
391 2 119.147 35.8493 15.8211
392 2 122.799 35.4742 15.7916
393 2 126.783 35.3254 15.922
394 2 130.707 35.3919 15.9372
395 2 134.651 35.3161 15.7809
396 2 138.43 35.2123 0.259668
397 2 142.486 35.1327 0.0912241
398 2 146.585 35.2117 0.112022
399 2 150.446 35.1482 15.9361
400 2 154.191 35.0131 0.285032
401 2 158.141 39.053 0.237632
402 2 3.54298 38.9122 0.135465
403 2 7.52439 38.7951 0.088467
404 2 11.5694 38.8157 15.8479
405 2 15.5321 38.9001 0.149023
406 2 19.3609 38.5918 15.8384
407 2 23.2296 38.755 16.0449
408 2 27.2681 38.8637 15.7779
409 2 31.3005 38.7237 0.168804
410 2 35.2276 38.8385 0.393245
411 2 39.2658 39.0999 15.9932
412 2 43.423 39.1562 0.183516
413 2 47.1384 39.0453 0.061017
414 2 51.2305 39.3241 15.8402
415 2 55.3338 39.2017 0.215498
416 2 58.9885 39.5054 0.171063
417 2 63.3501 39.4191 0.186175
418 2 67.1805 39.5457 0.106289
419 2 71.2394 39.2686 0.181687
420 2 75.5437 39.5453 0.324711
421 2 79.3232 39.5012 0.201461
422 2 83.2099 39.5694 16.0163
423 2 87.2728 39.5173 15.9756
424 2 91.3088 39.5611 15.8874
425 2 95.3603 39.7882 15.9463
426 2 99.4127 39.5858 0.251539
427 2 103.307 39.5599 15.9566
428 2 107.184 39.4974 15.9044
429 2 111.205 39.6033 15.9201
430 2 114.994 39.675 15.851
431 2 119.109 39.7618 15.8455
432 2 123.078 39.6213 15.748
433 2 126.931 39.4311 0.125463
434 2 130.737 39.3436 15.845
435 2 134.691 39.3759 15.9218
436 2 138.442 39.3497 16.0002
437 2 142.414 39.3569 15.8048
438 2 146.398 39.2254 0.303851
439 2 150.324 39.2795 15.8628
440 2 154.236 39.1037 15.9049
441 2 158.286 43.0002 0.0921956
442 2 3.75777 42.9915 15.8178
443 2 7.74931 42.9698 15.5999
444 2 11.7184 42.8335 0.0327046
445 2 15.6729 42.8113 0.404917
446 2 19.4354 42.9026 0.0220016
447 2 23.2763 42.7889 15.8697
448 2 27.2752 42.7131 15.9182
449 2 31.4002 42.6229 -0.0519814
450 2 35.3665 42.9149 0.185591
451 2 38.998 42.9374 0.214348
452 2 43.1168 43.0232 0.268041
453 2 46.9601 43.0044 15.9619
454 2 51.0802 42.9394 15.8328
455 2 55.1697 43.2587 0.120561
456 2 59.2212 43.2288 15.9851
457 2 63.3395 43.2955 0.212103
458 2 67.189 43.2297 0.173103
459 2 71.2435 43.3465 0.134541
460 2 75.1279 43.3753 0.11769
461 2 79.2235 43.6261 0.0779076
462 2 83.2851 43.5432 16.0954
463 2 87.1275 43.3376 15.9793
464 2 91.3229 43.6679 0.229713
465 2 95.3426 43.5555 0.12696
466 2 99.3916 43.6753 15.8597
467 2 103.215 43.548 15.9439
468 2 107.311 43.6811 15.8914
469 2 111.3 43.796 15.6551
470 2 115.172 43.7746 15.7517
471 2 119.198 43.5719 15.789
472 2 123.137 43.6195 15.7814
473 2 127.035 43.4001 0.53182
474 2 130.761 43.4048 0.188807
475 2 134.565 43.3229 15.9362
476 2 138.605 43.2164 15.8946
477 2 142.718 43.3496 15.7814
478 2 146.558 43.1912 -0.0420276
479 2 150.311 43.2111 0.157946
480 2 154.222 42.981 0.10125
481 2 0.107362 47.0571 0.144024
482 2 3.75348 46.8665 0.186382
483 2 7.67881 46.7866 -0.128054
484 2 11.628 46.7761 0.252053
485 2 15.7911 47.0307 -0.00264737
486 2 19.5329 46.9694 0.0560659
487 2 23.4682 46.9259 0.110373
488 2 27.0959 46.5078 15.9691
489 2 31.1572 46.654 0.128219
490 2 34.9742 46.9648 0.0284862
491 2 39.1788 46.9308 16.0873
492 2 43.0586 47.0331 16.0321
493 2 47.1652 47.1049 0.12392
494 2 51.2227 46.906 15.8001
495 2 55.1842 47.1957 15.9631
496 2 59.0775 46.925 15.9251
497 2 63.0537 47.1341 0.318185
498 2 67.0217 47.149 0.232403
499 2 71.2737 47.1149 15.7817
500 2 75.1208 47.2672 0.193389
501 2 79.1778 47.4026 15.8897
502 2 83.15 47.4412 16.0181
503 2 87.3154 47.3899 0.0093438
504 2 91.1705 47.3917 0.274064
505 2 95.1755 47.4209 0.0725792
506 2 99.1828 47.4988 0.126465
507 2 103.113 47.4628 0.0636729
508 2 107.105 47.588 15.8917
509 2 111.216 47.7275 15.8473
510 2 115.09 47.627 0.228117
511 2 119.077 47.3186 15.8696
512 2 123.074 47.7386 15.861
513 2 126.94 47.4997 16.0119
514 2 130.799 47.5112 15.9801
515 2 134.786 47.3526 16.0343
516 2 138.639 47.3694 15.7371
517 2 142.562 47.3294 15.7472
518 2 146.474 47.3298 0.267093
519 2 150.497 47.1215 0.0467409
520 2 154.424 47.1778 15.8333
521 2 158.27 51.2104 -0.00221143
522 2 3.87912 50.9524 16.0251
523 2 7.86381 50.8358 15.9288
524 2 11.6959 50.9064 15.8362
525 2 15.5667 50.7929 0.0506536
526 2 19.5044 50.8287 15.7686
527 2 23.5511 51.082 15.8924
528 2 27.2753 50.8099 15.9655
529 2 31.2942 50.8342 0.077213
530 2 35.0667 50.7466 0.169973
531 2 39.0485 50.9231 15.9859
532 2 43.1474 50.8339 15.9336
533 2 47.1323 50.8517 0.218157
534 2 51.1638 51.0574 0.137535
535 2 55.0256 50.9719 0.133652
536 2 59.0742 51.1028 15.8014
537 2 63.0735 50.9442 15.8716
538 2 67.1645 51.1786 0.280136
539 2 71.0621 51.0307 0.234474
540 2 75.1242 51.1208 0.216054
541 2 79.2051 51.2461 0.270787
542 2 83.1955 51.2283 0.215307
543 2 87.1783 51.12 0.270394
544 2 91.0997 51.086 0.217093
545 2 95.1348 51.3694 0.11002
546 2 99.3916 51.4363 0.206607
547 2 103.134 51.3327 16.0354
548 2 107.132 51.5353 0.190926
549 2 111.202 51.5333 0.225096
550 2 115.135 51.669 15.8794
551 2 119.04 51.5456 15.9288
552 2 123.252 51.7443 15.8534
553 2 126.983 51.6044 16.033
554 2 131.017 51.5114 0.288629
555 2 134.824 51.3537 0.235756
556 2 138.864 51.2422 0.228213
557 2 142.555 51.1841 0.155867
558 2 146.689 51.2417 15.9355
559 2 150.616 51.2372 -0.0728025
560 2 154.4 51.1173 0.163537
561 2 158.454 55.2667 0.412486
562 2 4.07505 55.1405 0.163822
563 2 7.79784 54.9006 0.0603197
564 2 11.7308 55.0217 0.227454
565 2 15.5117 54.9227 -0.0491697
566 2 19.5267 54.7544 15.776
567 2 23.4202 54.7457 15.7597
568 2 27.1366 55.0328 15.7294
569 2 31.3595 54.9244 0.0837337
570 2 35.1753 54.9568 0.144084
571 2 39.1309 54.6999 15.8676
572 2 42.9851 54.6398 15.9791
573 2 46.9561 54.6549 0.243401
574 2 51.0384 54.8394 16.0355
575 2 55.247 54.8766 15.8467
576 2 59.0057 54.7302 16.0783
577 2 63.1297 55.1467 15.9193
578 2 67.0919 55.0973 0.195642
579 2 71.0428 55.2046 0.285565
580 2 75.0093 55.0906 15.9687
581 2 79.1628 55.207 0.0157729
582 2 83.1978 55.1964 0.420231
583 2 86.8975 55.2602 0.241352
584 2 91.0179 55.1725 16.038
585 2 95.0846 55.3435 0.113603
586 2 99.1351 55.2455 15.622
587 2 103.317 55.3383 15.9277
588 2 107.238 55.3572 0.163658
589 2 111.139 55.5329 16.0134
590 2 115.047 55.4406 15.8786
591 2 119.134 55.5756 16.049
592 2 123.179 55.4919 0.126028
593 2 127.225 55.8146 16.0541
594 2 131.068 55.4252 15.9762
595 2 135.099 55.599 0.196606
596 2 138.709 55.3462 16.0208
597 2 142.839 55.2005 0.172778
598 2 146.839 55.2493 0.108958
599 2 150.593 55.1416 0.0309437
600 2 154.579 55.1567 15.9749
601 2 158.394 59.2495 0.166197
602 2 3.82674 59.1187 15.7919
603 2 7.76265 59.2056 15.9514
604 2 11.8429 59.0311 0.198893
605 2 15.7913 58.9101 15.8708
606 2 19.5713 58.9412 0.15454
607 2 23.4645 58.9566 0.0843333
608 2 27.4287 58.6909 0.056596
609 2 31.1357 58.8103 15.7554
610 2 35.109 58.9291 15.9341
611 2 39.1057 58.6955 15.9337
612 2 42.8355 58.8034 15.7654
613 2 46.7982 58.6616 15.8655
614 2 50.9324 58.7991 16.0662
615 2 54.821 58.9681 15.9565
616 2 59.0383 58.851 0.0541761
617 2 63.0382 58.9314 15.8841
618 2 67.0308 59.0176 0.208519
619 2 70.9357 58.9429 16.0453
620 2 75.1314 58.8574 0.132868
621 2 78.9385 59.0486 0.122705
622 2 82.9628 59.127 0.0258901
623 2 87.0237 59.1322 15.9103
624 2 91.0397 59.0016 15.9378
625 2 95.0457 59.3045 0.0329098
626 2 99.0895 59.4077 0.0238963
627 2 103.183 59.272 16.0379
628 2 107.096 59.1993 0.067569
629 2 111.264 59.4138 16.0649
630 2 115.17 59.4599 15.9815
631 2 119.245 59.3772 15.9949
632 2 123.241 59.5104 0.0842855
633 2 127.204 59.6558 16.1348
634 2 131.219 59.4875 0.132381
635 2 135.039 59.1963 15.8938
636 2 138.872 59.4987 0.227255
637 2 142.861 59.2901 0.0985987
638 2 146.61 59.3174 0.0920041
639 2 150.502 59.2433 15.9337
640 2 154.501 59.2105 0.339443
641 2 0.216314 63.1274 0.122568
642 2 3.98316 62.9005 0.0772295
643 2 7.70071 63.2709 15.8913
644 2 11.7992 63.0267 15.7914
645 2 15.5935 63.0508 15.9224
646 2 19.3523 63.0304 0.108839
647 2 23.6999 62.9222 0.21233
648 2 27.5423 63.0225 0.163602
649 2 31.2848 62.9294 0.239734
650 2 35.3536 62.8272 -0.0478844
651 2 39.251 62.8231 15.9391
652 2 43.2189 62.7153 0.17565
653 2 46.9627 62.5478 15.8916
654 2 50.8878 62.6707 15.9612
655 2 54.9494 62.7434 0.161791
656 2 58.8204 62.9578 15.8833
657 2 62.7436 63.026 0.11374
658 2 66.8356 62.8976 15.8388
659 2 71.0071 62.9291 0.17111
660 2 75.0327 62.8383 0.388307
661 2 78.9159 62.9805 0.145828
662 2 83.0717 63.0654 0.16805
663 2 87.0005 62.9205 16.0313
664 2 91.1088 63.0413 16.1682
665 2 95.0406 63.0698 0.137925
666 2 99.015 63.2333 0.140779
667 2 103.116 63.1712 15.9611
668 2 107.144 63.1084 16.0407
669 2 111.255 63.0446 15.9491
670 2 115.101 63.2282 0.190274
671 2 119.078 63.5136 16.0429
672 2 123.1 63.3475 0.22445
673 2 127.12 63.2642 15.803
674 2 131.233 63.4172 0.271977
675 2 134.847 63.5321 15.9202
676 2 139.046 63.4604 15.8164
677 2 142.996 63.2845 16.0023
678 2 146.713 63.2021 -0.0666211
679 2 150.659 63.1922 15.8672
680 2 154.419 63.1564 0.157721
681 2 0.109061 67.2116 0.199157
682 2 3.95403 66.9837 0.122759
683 2 7.88481 67.0496 15.9504
684 2 11.7702 67.2678 15.7741
685 2 15.6665 67.0899 0.0738775
686 2 19.6112 66.9183 0.0750231
687 2 23.6864 66.9963 0.194915
688 2 27.3534 67.0452 0.0811862
689 2 31.3602 66.8157 0.219007
690 2 35.4674 66.823 0.222721
691 2 39.3288 66.8339 15.7276
692 2 43.2937 66.8779 0.147259
693 2 46.9692 66.5687 15.9035
694 2 50.9234 66.6561 15.9053
695 2 54.831 66.7031 15.9587
696 2 58.8995 66.861 16.1564
697 2 62.9698 66.9292 15.9195
698 2 66.9421 66.6705 16.0383
699 2 70.9778 66.8161 0.23387
700 2 74.918 66.9004 15.712
701 2 78.8992 66.9198 16.0465
702 2 82.8685 67.0648 0.376793
703 2 86.8753 66.7019 16.0603
704 2 91.1585 66.8477 15.9537
705 2 95.0947 67.0371 0.0949148
706 2 98.9774 67.2158 0.0476529
707 2 102.82 66.9544 0.367108
708 2 106.854 67.0708 15.9464
709 2 111.174 67.1958 15.8276
710 2 114.893 67.3364 16.07
711 2 119.182 67.17 0.135849
712 2 122.93 67.2671 0.214593
713 2 127.1 67.1984 0.0826672
714 2 131.072 67.3361 16.0759
715 2 135.186 67.5058 0.129318
716 2 139.119 67.4184 0.298005
717 2 142.868 67.4199 15.9202
718 2 146.799 67.3445 15.8711
719 2 150.683 67.3237 15.8242
720 2 154.618 67.2104 0.295926
721 2 0.296142 71.009 0.138537
722 2 4.05018 71.2904 15.9758
723 2 8.0262 71.1545 0.286568
724 2 11.9138 71.2375 15.8121
725 2 15.7833 70.96 0.0371317
726 2 19.6792 70.8644 0.234531
727 2 23.7566 71.0054 -0.0440533
728 2 27.4344 70.8973 16.0069
729 2 31.4553 70.8938 0.29052
730 2 35.4181 70.7602 0.250182
731 2 39.3499 70.9117 16.0548
732 2 43.0533 70.7065 0.189063
733 2 47.1079 70.7778 16.0367
734 2 50.9146 70.5366 15.9523
735 2 54.9408 70.6678 0.071583
736 2 59.0186 70.562 -0.0304934
737 2 62.7255 70.6097 0.276694
738 2 66.8868 70.6086 15.9984
739 2 70.9775 70.4669 16.0137
740 2 74.8725 70.8347 15.747
741 2 78.9238 70.8469 0.199027
742 2 82.8371 70.8739 0.344793
743 2 86.9755 70.781 16.0131
744 2 90.7263 70.6135 16.0455
745 2 95.0414 70.8125 16.012
746 2 99.0384 70.9527 15.8466
747 2 103.153 71.067 15.9192
748 2 107.025 71.0203 15.9108
749 2 110.885 71.1414 15.9541
750 2 115.145 71.0827 0.250356
751 2 119.035 71.123 15.9042
752 2 123.058 71.1497 0.175764
753 2 127.2 71.3629 15.9117
754 2 131.076 71.4751 16.1706
755 2 135.319 71.307 15.8681
756 2 139.164 71.38 16.0096
757 2 142.952 71.4377 0.224569
758 2 146.815 71.2532 0.240234
759 2 150.821 71.3811 0.0243833
760 2 154.632 71.258 15.9801
761 2 0.270733 75.0752 0.250158
762 2 4.20981 75.307 15.9441
763 2 8.08845 75.0961 15.9488
764 2 12.0928 75.0442 15.8992
765 2 15.9642 75.1038 15.9357
766 2 19.7308 75.1143 15.976
767 2 23.6621 75.0315 15.9404
768 2 27.6926 75.0221 15.9696
769 2 31.5274 74.948 0.0974106
770 2 35.5214 74.8806 16.0389
771 2 39.3366 74.8455 15.8635
772 2 43.1954 74.7068 0.336291
773 2 47.0733 74.6624 15.9978
774 2 51.003 74.6796 0.00647642
775 2 55.0818 74.4442 16.0774
776 2 59.1392 74.5084 15.9814
777 2 63.0609 74.4702 15.935
778 2 66.9993 74.4475 0.171379
779 2 70.8673 74.6064 0.15099
780 2 75.0114 74.6275 0.0848488
781 2 78.7476 74.8359 0.278548
782 2 82.9202 74.7982 0.16727
783 2 86.8572 74.8226 0.249493
784 2 90.9999 74.7371 16.056
785 2 94.7845 74.6398 16.1169
786 2 98.9526 74.9934 0.203883
787 2 103.025 74.8086 15.8008
788 2 106.979 74.9606 15.93
789 2 111.058 75.0165 15.9344
790 2 115.118 75.0219 16.1885
791 2 119.2 75.0848 0.155497
792 2 122.944 75.1216 16.0568
793 2 127.028 75.1624 15.836
794 2 131.168 75.3519 0.205852
795 2 135.01 75.3236 15.9794
796 2 139.07 75.5563 15.9135
797 2 143.097 75.3325 15.8873
798 2 147.055 75.4659 15.9299
799 2 150.87 75.0659 -0.00462705
800 2 154.784 75.1094 0.0109655
801 2 0.340892 79.0849 0.245815
802 2 4.11662 79.099 15.861
803 2 8.20483 79.0768 0.0819566
804 2 12.1209 79.2253 0.189494
805 2 16.0801 79.1974 16.0195
806 2 19.8783 79.0633 15.9345
807 2 23.515 78.9265 0.0776263
808 2 27.5949 78.8938 0.250827
809 2 31.6665 78.9216 0.237347
810 2 35.5543 78.8342 0.264891
811 2 39.3912 78.6643 15.7361
812 2 43.5716 78.7061 15.8709
813 2 47.3452 78.6366 15.8898
814 2 51.1407 78.7123 -0.02712
815 2 55.1229 78.488 0.036621
816 2 58.9788 78.5262 15.8995
817 2 62.6851 78.5894 16.1038
818 2 66.6988 78.5635 0.0372177
819 2 70.8321 78.5966 15.8976
820 2 74.7277 78.4957 0.329649
821 2 78.7553 78.7299 15.9747
822 2 82.7928 78.5292 15.8544
823 2 86.9725 78.6224 0.194186
824 2 90.9252 78.6765 0.128561
825 2 95.0378 78.866 0.314336
826 2 99.0098 78.8344 16.132
827 2 102.935 78.7686 16.0625
828 2 106.993 78.8801 0.0384127
829 2 110.765 78.775 0.11333
830 2 114.971 78.8457 0.356296
831 2 118.911 78.9886 0.271117
832 2 123.127 79.0966 15.9739
833 2 126.918 79.0944 0.0698092
834 2 131.122 79.2753 15.912
835 2 135.226 79.1379 0.0513977
836 2 138.941 79.311 15.9396
837 2 143.056 79.3281 16.0031
838 2 146.941 79.2143 15.8365
839 2 150.795 79.4131 15.7815
840 2 154.808 79.1936 0.0384425
841 2 0.467908 83.1195 15.9277
842 2 4.34553 83.2261 15.8291
843 2 8.14629 83.0364 0.140758
844 2 12.2508 83.0447 15.9267
845 2 16.1513 83.2766 15.9429
846 2 20.0367 83.1316 0.253488
847 2 23.762 82.9502 15.8439
848 2 27.7103 82.872 -0.0572653
849 2 31.563 82.8216 15.8128
850 2 35.3768 82.7777 -0.059789
851 2 39.4508 82.7116 0.00182128
852 2 43.462 82.9692 15.8868
853 2 47.2719 82.7337 0.108912
854 2 51.0363 82.5681 0.317488
855 2 54.9754 82.6328 0.170445
856 2 58.9072 82.4586 16.1022
857 2 63.0277 82.7568 15.9445
858 2 66.9976 82.4842 16.0024
859 2 70.8801 82.5207 15.8888
860 2 74.6451 82.5044 15.9878
861 2 78.8512 82.4152 16.1302
862 2 82.8564 82.5909 0.246372
863 2 86.9593 82.4861 0.460205
864 2 91.0044 82.5783 16.1713
865 2 94.7532 82.6602 0.340255
866 2 99.0728 82.7686 15.9027
867 2 102.952 82.6238 0.31499
868 2 106.868 82.8104 15.9343
869 2 111.018 82.7735 16.1322
870 2 114.99 83.0657 16.1074
871 2 118.92 82.8892 15.9789
872 2 122.982 82.8974 15.9666
873 2 126.91 82.9575 15.9455
874 2 131.085 83.0615 16.1204
875 2 135.019 83.1325 -0.0479821
876 2 138.878 83.1274 15.768
877 2 142.686 83.2452 -0.0394685
878 2 146.992 83.2343 15.6111
879 2 151.036 83.2605 0.0874713
880 2 154.985 83.3624 0.409252
881 2 0.373328 87.3214 15.8964
882 2 4.36281 87.2944 0.325538
883 2 8.19624 87.1329 15.8857
884 2 12.0704 87.0487 15.9731
885 2 16.0597 87.0637 16.1767
886 2 19.9315 87.0037 15.952
887 2 23.7475 86.9851 15.7847
888 2 27.6781 87.0083 0.289844
889 2 31.6674 86.6939 15.9271
890 2 35.5336 86.7912 0.0747364
891 2 39.3482 86.6358 15.9286
892 2 43.2148 86.7096 16.0053
893 2 47.3351 86.7614 15.9727
894 2 51.2342 86.856 15.9169
895 2 55.4663 86.6369 15.8455
896 2 59.0878 86.6128 0.237099
897 2 62.9821 86.4646 0.036823
898 2 66.8711 86.3481 16.0202
899 2 70.7457 86.2735 0.442486
900 2 74.9164 86.2838 16.1776
901 2 78.7116 86.2264 0.0508922
902 2 82.802 86.3937 0.183197
903 2 86.902 86.3891 16.1618
904 2 90.7794 86.5794 15.9036
905 2 94.8464 86.5425 15.9256
906 2 98.7985 86.5322 15.9093
907 2 102.78 86.4878 0.0740589
908 2 106.921 86.618 0.351145
909 2 110.558 86.8871 16.0265
910 2 114.935 86.764 0.221173
911 2 118.956 86.6895 0.390133
912 2 123.005 86.9236 0.35087
913 2 126.858 86.9599 16.0583
914 2 130.882 86.8794 15.8728
915 2 134.935 87.0807 16.0328
916 2 138.926 87.0388 15.7924
917 2 142.993 87.2564 16.0008
918 2 146.906 87.2738 0.124932
919 2 150.915 87.3066 15.8486
920 2 154.781 87.2497 15.9668
921 2 0.598573 91.2317 0.123905
922 2 4.33538 91.2154 0.106708
923 2 8.31061 91.1862 15.7516
924 2 12.2531 91.1396 15.808
925 2 16.0202 91.1613 0.100893
926 2 19.8926 91.1437 0.132823
927 2 23.7811 91.0069 16.1693
928 2 27.9153 90.8757 16.0459
929 2 31.7301 90.7636 15.92
930 2 35.7328 90.8058 0.0632246
931 2 39.4891 90.7283 15.8897
932 2 43.2385 90.7965 15.9349
933 2 47.4569 90.7538 0.0235449
934 2 51.1153 90.5013 0.26877
935 2 55.3508 90.5416 0.115302
936 2 59.2671 90.5238 0.205149
937 2 63.0492 90.4262 0.254435
938 2 67.1632 90.4541 15.9673
939 2 70.8861 90.6803 15.9069
940 2 74.7548 90.2712 0.137208
941 2 78.8242 90.3507 -0.0632335
942 2 82.6584 90.2151 0.141393
943 2 86.872 90.1763 0.266691
944 2 90.8908 90.3438 0.229212
945 2 94.7067 90.5644 15.8957
946 2 98.944 90.432 15.9272
947 2 102.844 90.655 0.161443
948 2 106.945 90.626 15.963
949 2 110.987 90.8 16.1321
950 2 114.91 90.5414 0.0803556
951 2 118.736 90.8762 0.149623
952 2 122.738 90.8224 15.9553
953 2 126.895 90.804 0.165021
954 2 130.804 90.8614 0.401375
955 2 134.548 90.9132 15.7038
956 2 138.937 91.0578 15.8894
957 2 142.946 91.1808 15.9532
958 2 146.791 91.1156 16.1087
959 2 150.874 91.3689 15.8772
960 2 154.876 91.2733 16.1251
961 2 0.564731 95.196 0.488259
962 2 4.41891 95.1903 16.2412
963 2 8.36715 95.2418 15.8352
964 2 12.0856 95.0782 15.9558
965 2 15.9849 94.8839 16.0399
966 2 19.9522 95.113 16.0082
967 2 23.9418 94.9846 15.9579
968 2 27.9519 94.9285 15.8557
969 2 31.6614 94.8856 15.9481
970 2 35.6612 94.6572 16.0393
971 2 39.5229 94.7169 15.8647
972 2 43.5302 94.658 15.9438
973 2 47.271 94.8769 -0.0553069
974 2 51.3183 94.7005 15.9553
975 2 55.1984 94.5281 0.221262
976 2 59.1184 94.5975 16.0682
977 2 62.9426 94.4898 0.107436
978 2 67.0195 94.4657 0.0837823
979 2 70.7731 94.6088 0.0171012
980 2 74.8742 94.0702 0.10985
981 2 78.8508 94.4853 15.8968