ITEM: TIMESTEP
22900
ITEM: NUMBER OF ATOMS
32000
ITEM: BOX BOUNDS xy xz yz pp pp pp
0.0000000000000000e+00 1.5831999999999999e+02 0.0000000000000000e+00
0.0000000000000000e+00 1.5831999999999999e+02 0.0000000000000000e+00
1.6487582489967512e-01 1.5932836175100164e+01 0.0000000000000000e+00
ITEM: ATOMS id type x y z
1 2 158.067 157.652 16.0492
2 2 3.78372 157.733 15.8356
3 2 7.75459 157.763 0.130602
4 2 11.8023 157.835 0.0348083
5 2 15.7466 157.964 0.0811987
6 2 19.8677 158.059 16.1014
7 2 23.8456 158.081 16.1019
8 2 27.8373 157.996 16.1086
9 2 31.7577 158.189 0.357265
10 2 35.9501 158.229 15.88
11 2 39.9081 -0.112219 15.9288
12 2 43.9159 0.0864982 -0.0560408
13 2 48.0416 -0.0337576 15.8489
14 2 51.925 0.102394 0.276286
15 2 55.9945 158.46 0.227305
16 2 59.7906 158.54 15.9781
17 2 63.9001 0.325195 15.9962
18 2 67.935 -0.00383628 15.8714
19 2 71.9375 0.115483 15.9648
20 2 75.5296 158.285 16.0318
21 2 79.4893 0.0748567 15.8759
22 2 83.5029 158.353 16.0013
23 2 87.3921 157.976 15.9679
24 2 91.2736 158.172 0.201501
25 2 95.2053 158.195 16.0979
26 2 99.077 158.091 16.1797
27 2 103.082 158.121 15.8751
28 2 106.773 158.044 15.7718
29 2 110.834 157.918 0.224511
30 2 114.837 157.997 0.0927402
31 2 118.623 157.909 16.1453
32 2 122.351 157.979 0.0617233
33 2 126.332 157.891 0.11533
34 2 130.324 157.998 0.318348
35 2 134.245 157.576 15.8745
36 2 138.038 157.493 15.9728
37 2 142.11 157.486 15.9236
38 2 146.09 157.583 15.8614
39 2 149.943 157.453 0.237619
40 2 154.076 157.545 0.165818
41 2 158.064 3.15789 15.8786
42 2 3.5031 3.38903 15.7313
43 2 7.65096 3.37885 0.233432
44 2 11.7041 3.26846 15.9267
45 2 15.8534 3.64055 15.7799
46 2 19.9631 3.57048 16.0278
47 2 23.7503 3.46028 0.227674
48 2 27.7879 3.66666 0.160016
49 2 32.0085 3.78562 0.310018
50 2 35.8333 3.97556 0.276201
51 2 39.9595 3.909 0.0675915
52 2 43.9245 3.92068 16.0576
53 2 47.8027 4.01749 16.0828
54 2 51.8796 4.0678 16.0884
55 2 55.9495 3.96492 0.125343
56 2 59.85 3.91751 15.9663
57 2 63.8603 4.081 15.7087
58 2 67.9478 4.13392 15.9177
59 2 71.9259 4.06569 16.0121
60 2 75.7959 3.96612 16.0427
61 2 79.6778 4.20998 15.9338
62 2 83.5655 4.03069 15.845
63 2 87.3954 3.83508 15.9331
64 2 91.2071 3.84374 0.307049
65 2 95.1852 3.83465 15.9366
66 2 98.9165 3.76447 0.14994
67 2 103.029 3.66226 15.9845
68 2 106.794 3.80232 15.9654
69 2 110.661 3.64363 0.199417
70 2 114.736 3.61192 0.16537
71 2 118.766 3.63114 0.112537
72 2 122.668 3.58928 0.186488
73 2 126.451 3.55341 0.211437
74 2 130.34 3.42563 0.148309
75 2 134.144 3.29393 15.9676
76 2 138.233 3.4994 0.221445
77 2 142.128 3.22499 0.107569
78 2 146.209 3.32749 0.0379908
79 2 150.054 3.25118 15.9435
80 2 154.006 3.14125 16.0222
81 2 157.934 7.09653 16.0124
82 2 3.67179 7.21209 15.7943
83 2 7.7543 7.41223 16.0632
84 2 11.7214 7.3319 0.169738
85 2 15.6764 7.41 15.8545
86 2 19.4733 7.55436 16.09
87 2 23.7289 7.56826 0.480139
88 2 27.8194 7.4666 15.9687
89 2 31.8367 7.65536 16.1133
90 2 35.7946 7.78582 16.0647
91 2 40.0221 7.66657 0.119135
92 2 43.9807 7.77955 0.0577845
93 2 47.8491 7.98836 15.8325
94 2 51.9401 7.85473 0.249783
95 2 55.8154 7.95668 15.916
96 2 59.788 7.74109 0.292252
97 2 63.8232 7.8416 15.8548
98 2 67.8554 7.93896 15.9217
99 2 71.765 8.18161 15.9911
100 2 75.7143 8.04935 16.0251
101 2 79.5534 8.14578 0.202102
102 2 83.473 7.99475 16.0376
103 2 87.4096 7.80605 15.9279
104 2 91.1675 7.84713 15.9131
105 2 95.255 7.95418 16.0284
106 2 99.0987 7.89801 0.064074
107 2 103.088 7.77481 0.213008
108 2 107.014 7.81558 16.0548
109 2 110.752 7.73646 0.105073
110 2 114.746 7.5542 15.7879
111 2 118.734 7.59832 15.8036
112 2 122.458 7.48788 15.8632
113 2 126.575 7.40674 16.0197
114 2 130.421 7.47894 0.271573
115 2 134.394 7.41793 0.217323
116 2 138.193 7.2137 15.9427
117 2 142.302 7.38812 15.8666
118 2 146.204 7.0389 0.0875974
119 2 150.135 7.07999 0.11056
120 2 153.989 7.01443 16.1795
121 2 157.956 11.0544 15.9146
122 2 3.56707 11.2307 15.8132
123 2 7.77299 11.4844 16.0876
124 2 11.689 11.2385 -0.0180709
125 2 15.4776 11.2664 16.0265
126 2 19.5956 11.449 15.9785
127 2 23.6037 11.7399 16.1657
128 2 27.6304 11.539 15.9555
129 2 31.6587 11.5735 16.1303
130 2 35.7436 11.4298 15.9095
131 2 39.7899 11.6803 15.9055
132 2 43.5308 11.8376 0.0607314
133 2 47.749 11.7888 0.236318
134 2 51.7231 11.8415 15.9496
135 2 55.8649 11.5894 -0.0684989
136 2 59.961 11.7577 16.0245
137 2 63.7222 11.6125 -0.0709503
138 2 67.7907 12.1338 15.958
139 2 71.7456 12.0572 16.0837
140 2 75.8156 12.0625 15.8842
141 2 79.5527 12.1488 16.0442
142 2 83.3454 12.0527 15.9959
143 2 87.3722 11.7474 0.227012
144 2 91.4279 12.0099 0.180473
145 2 95.289 12.182 16.14
146 2 99.0875 11.9995 15.9332
147 2 103.131 11.8376 0.323956
148 2 106.985 11.6583 15.8489
149 2 110.909 11.5604 0.192447
150 2 114.796 11.6486 15.9765
151 2 118.688 11.5536 0.178833
152 2 122.493 11.626 0.181411
153 2 126.459 11.4372 15.7589
154 2 130.342 11.4953 15.9721
155 2 134.386 11.4635 0.0209008
156 2 138.392 11.4253 -0.194299
157 2 142.139 11.3405 0.165729
158 2 146.02 11.2719 0.0246921
159 2 150.078 11.2613 0.178896
160 2 153.878 10.9971 0.102039
161 2 157.768 15.1268 15.7517
162 2 3.55338 15.1215 16.0388
163 2 7.37453 15.1695 15.6259
164 2 11.4871 15.354 15.9452
165 2 15.5179 15.2493 15.9542
166 2 19.5235 15.3891 0.322692
167 2 23.5326 15.4206 0.318521
168 2 27.6477 15.4898 15.9218
169 2 31.5979 15.4598 0.329643
170 2 35.8559 15.6033 16.0233
171 2 39.7123 15.6384 0.361123
172 2 43.6614 15.6364 0.168779
173 2 47.7334 15.5947 0.144144
174 2 51.558 15.5945 0.344902
175 2 55.6935 15.8487 15.8294
176 2 59.7342 15.8077 0.197933
177 2 63.6362 15.8225 16.026
178 2 67.7162 15.9664 15.7613
179 2 71.6143 16.0465 0.315084
180 2 75.537 15.9506 0.183852
181 2 79.6226 15.978 16.0761
182 2 83.4916 15.9418 0.335434
183 2 87.3414 15.928 15.9711
184 2 91.4555 15.9105 0.193058
185 2 95.3291 15.8789 16.015
186 2 99.3025 15.9079 15.9463
187 2 103.214 15.9506 15.9474
188 2 106.962 15.824 16.1638
189 2 110.917 15.6976 15.8526
190 2 115.022 15.6488 15.9234
191 2 118.783 15.4355 0.0530643
192 2 122.513 15.5485 15.8783
193 2 126.537 15.6321 15.8422
194 2 130.403 15.3982 0.0509523
195 2 134.369 15.4968 0.208754
196 2 138.411 15.244 0.103384
197 2 142.339 15.1406 15.8428
198 2 145.989 15.1007 -0.121077
199 2 150.1 14.988 0.119429
200 2 153.937 15.1667 15.6784
201 2 158.051 19.0051 15.8585
202 2 3.45403 18.883 0.272261
203 2 7.28326 19.1061 0.0925234
204 2 11.5428 19.1429 16.0774
205 2 15.4773 19.1613 16.2122
206 2 19.6652 19.402 16.1081
207 2 23.6342 19.3061 16.0406
208 2 27.687 19.3329 16.0134
209 2 31.5999 19.4877 16.0709
210 2 35.652 19.3752 15.9226
211 2 39.6283 19.4181 0.1096
212 2 43.566 19.6145 15.7319
213 2 47.3441 19.3487 15.8893
214 2 51.4517 19.4033 0.225196
215 2 55.4727 19.7994 15.9785
216 2 59.598 19.6526 15.9749
217 2 63.4003 19.8193 15.8388
218 2 67.5224 19.8753 15.8487
219 2 71.6086 20.0512 0.134723
220 2 75.49 19.8675 0.0524126
221 2 79.4698 19.8933 0.166399
222 2 83.399 19.9967 15.8185
223 2 87.4411 20.0554 0.25187
224 2 91.2641 19.9036 0.0947368
225 2 95.2685 19.9978 16.1544
226 2 99.0028 19.7744 15.9026
227 2 103.024 19.8542 15.86
228 2 106.971 19.8446 15.9403
229 2 111.068 19.689 0.201138
230 2 114.911 19.6474 16.1358
231 2 118.741 19.5573 15.8933
232 2 122.745 19.6318 15.8183
233 2 126.719 19.4309 16.0398
234 2 130.481 19.6552 16.0835
235 2 134.558 19.4676 0.00198692
236 2 138.39 19.1972 15.6887
237 2 142.208 19.2423 15.7334
238 2 145.978 19.2652 0.00116637
239 2 150.129 19.0839 15.8856
240 2 154.025 19.0326 -0.0738177
241 2 157.916 22.9924 15.9937
242 2 3.44827 22.9681 15.7609
243 2 7.35338 22.8847 0.203122
244 2 11.5578 23.158 0.148805
245 2 15.4696 23.2189 16.0712
246 2 19.5969 23.2159 15.9284
247 2 23.5583 23.056 15.907
248 2 27.406 23.0299 15.8628
249 2 31.4679 23.0847 0.286684
250 2 35.5039 23.3134 16.0031
251 2 39.6515 23.2524 0.181692
252 2 43.4805 23.3563 16.0485
253 2 47.3469 23.3566 0.288444
254 2 51.4638 23.4954 0.416392
255 2 55.3837 23.7054 0.279866
256 2 59.4308 23.7007 16.0646
257 2 63.4247 23.7879 0.213987
258 2 67.388 23.7435 16.1643
259 2 71.3296 23.7727 16.0657
260 2 75.4018 23.8348 0.25503
261 2 79.5337 23.8131 15.9534
262 2 83.5044 23.99 0.0596549
263 2 87.5058 23.8841 15.9136
264 2 91.3594 23.8351 15.9352
265 2 95.2659 23.951 15.8248
266 2 99.3634 23.9 0.19315
267 2 103.256 23.8799 15.9045
268 2 107.009 23.7177 15.9312
269 2 110.861 23.7107 0.0121112
270 2 114.827 23.6237 15.8392
271 2 118.616 23.4937 15.8835
272 2 122.637 23.3772 0.0708161
273 2 126.492 23.5246 15.8107
274 2 130.39 23.4839 15.6963
275 2 134.283 23.3633 15.8185
276 2 138.441 23.2461 15.76
277 2 142.272 23.4356 15.6989
278 2 146.242 23.198 0.28999
279 2 150.188 23.0579 0.116943
280 2 153.981 23.0722 0.224581
281 2 157.986 26.9705 0.136903
282 2 3.65377 26.95 0.168789
283 2 7.37604 26.8292 0.245549
284 2 11.4071 26.8497 15.9354
285 2 15.3792 26.9051 15.9822
286 2 19.5271 26.9437 0.256531
287 2 23.6659 26.8052 15.9897
288 2 27.4104 26.9262 16.0656
289 2 31.3727 27.1599 0.204695
290 2 35.6362 27.2103 0.144092
291 2 39.5704 27.3208 0.225425
292 2 43.5393 27.2861 0.140402
293 2 47.531 27.3655 -0.0113814
294 2 51.4019 27.4636 15.7594
295 2 55.5614 27.5012 0.179155
296 2 59.3861 27.6099 15.9436
297 2 63.3472 27.6906 15.8074
298 2 67.3193 27.722 15.9757
299 2 71.6062 27.7845 15.992
300 2 75.272 27.5152 0.0671906
301 2 79.5081 27.6176 0.101626
302 2 83.5751 27.7727 15.8211
303 2 87.4545 27.8256 0.226179
304 2 91.3653 27.8704 0.101503
305 2 95.3879 27.9614 0.372109
306 2 99.1594 27.7637 0.182722
307 2 103.034 27.8019 15.5731
308 2 107.095 27.7009 0.17941
309 2 111.129 27.5248 15.786
310 2 115.106 27.6432 16.0007
311 2 118.874 27.4913 0.211313
312 2 122.7 27.3866 0.0369987
313 2 126.554 27.5372 15.8045
314 2 130.446 27.3707 15.8977
315 2 134.41 27.2821 15.7459
316 2 138.38 27.1396 15.8882
317 2 142.19 27.1318 0.036273
318 2 146.164 27.0818 -0.120801
319 2 150.083 27.0432 0.0766241
320 2 154.029 27.1571 0.12881
321 2 158.037 30.9801 15.92
322 2 3.52486 31.0731 16.008
323 2 7.48433 31.0642 15.667
324 2 11.4817 30.9369 0.16657
325 2 15.4363 30.8306 0.19181
326 2 19.3404 30.7844 15.9301
327 2 23.1259 30.814 15.9247
328 2 27.3009 30.8331 0.055907
329 2 31.3046 30.946 15.6962
330 2 35.5065 31.1457 15.9669
331 2 39.3788 31.1428 15.9979
332 2 43.3857 31.3527 0.117437
333 2 47.3328 31.3151 15.9823
334 2 51.4202 31.4 0.0474426
335 2 55.3999 31.3165 15.926
336 2 59.1463 31.4718 0.172125
337 2 63.2271 31.5788 15.8616
338 2 67.3475 31.5308 0.0970105
339 2 71.4322 31.5832 0.282157
340 2 75.5531 31.6139 0.102639
341 2 79.3557 31.6684 15.7013
342 2 83.5917 31.7956 0.228796
343 2 87.3778 31.8857 15.8456
344 2 91.3135 31.6343 16.0139
345 2 95.3312 32.0193 15.9603
346 2 99.39 31.8397 0.27736
347 2 103.235 31.8594 15.9971
348 2 107.161 31.7168 15.7648
349 2 110.98 31.7836 15.9039
350 2 115.149 31.6534 15.9764
351 2 118.963 31.4979 15.9813
352 2 122.748 31.3828 15.8121
353 2 126.701 31.7128 15.8237
354 2 130.806 31.3231 15.8637
355 2 134.692 31.2758 15.8221
356 2 138.419 31.1976 16.0316
357 2 142.366 31.3054 0.0981026
358 2 146.098 31.2558 16.0378
359 2 150.077 31.1028 0.121114
360 2 153.872 31.0528 0.00368314
361 2 -0.180427 35.0799 0.0977962
362 2 3.44136 35.002 15.8176
363 2 7.64785 34.9739 15.9611
364 2 11.5091 34.9188 15.9999
365 2 15.4519 34.7638 0.0282445
366 2 19.438 34.7743 0.212221
367 2 23.1792 34.893 0.138498
368 2 27.2682 34.9434 0.316423
369 2 31.2861 34.9104 0.199032
370 2 35.1596 35.0255 0.421146
371 2 39.3698 35.209 0.426522
372 2 43.3481 35.1663 15.9521
373 2 47.4169 35.2946 16.0476
374 2 51.3594 35.177 15.8862
375 2 55.1659 35.3326 0.048865
376 2 59.2911 35.2452 0.342496
377 2 63.1805 35.4502 15.9842
378 2 67.388 35.517 0.154412
379 2 71.4406 35.4723 0.0719026
380 2 75.3337 35.3897 15.9305
381 2 79.3071 35.4006 0.177339
382 2 83.4041 35.6434 15.9498
383 2 87.284 35.5987 0.354114
384 2 91.2435 35.5022 0.392638
385 2 95.3078 35.6191 15.8235
386 2 99.3298 35.6809 0.163967
387 2 103.427 35.6461 15.9028
388 2 107.302 35.7735 15.8714
389 2 111.207 35.7556 15.7807
390 2 115.179 35.5869 15.912
391 2 118.937 35.527 16.0129
392 2 122.861 35.6554 15.895
393 2 126.789 35.5646 15.7543
394 2 130.783 35.5262 15.9695
395 2 134.409 35.4541 16.0525
396 2 138.5 35.2849 0.139619
397 2 142.273 35.3788 0.352813
398 2 146.261 35.2145 0.203686
399 2 150.184 35.1697 15.9756
400 2 154.103 35.2279 0.0315817
401 2 158.099 39.0792 0.130569
402 2 3.80089 39.1006 0.17045
403 2 7.54129 39.097 0.143801
404 2 11.388 38.9796 15.8809
405 2 15.4338 38.677 -0.00667068
406 2 19.3692 38.8891 15.8189
407 2 23.315 38.8033 15.7558
408 2 27.2821 38.8837 15.9331
409 2 31.2007 39.0474 0.0892424
410 2 35.1898 38.9144 0.0946738
411 2 39.2576 38.8122 16.0902
412 2 43.0109 39.0047 0.203259
413 2 47.226 39.1207 0.268025
414 2 51.1892 39.1512 15.9616
415 2 55.0594 39.2654 0.108865
416 2 59.3729 39.217 0.210463
417 2 63.1467 39.1932 0.286677
418 2 67.2599 39.3824 0.30012
419 2 71.3715 39.378 0.213156
420 2 75.1516 39.4804 0.209605
421 2 79.2992 39.4921 0.17403
422 2 83.3879 39.5579 15.9406
423 2 87.3333 39.5485 16.0081
424 2 91.2447 39.5405 15.9841
425 2 95.23 39.5835 15.9
426 2 99.2836 39.645 -0.0440766
427 2 103.363 39.654 15.9397
428 2 107.342 39.8754 15.9082
429 2 111.226 39.7553 15.7341
430 2 115.089 39.5697 15.8272
431 2 118.874 39.6841 15.7672
432 2 122.787 39.5922 15.9289
433 2 126.835 39.4012 0.253882
434 2 130.865 39.4419 16.0126
435 2 134.609 39.2125 16.0049
436 2 138.687 39.306 15.9887
437 2 142.546 39.1486 16.0805
438 2 146.301 39.2337 -0.121119
439 2 150.387 39.2833 15.9682
440 2 154.178 39.4747 16.0184
441 2 158.222 43.0925 0.232113
442 2 3.91717 43.0199 15.934
443 2 7.88902 42.9746 15.9036
444 2 11.8103 43.0122 0.0682798
445 2 15.5244 42.9277 -0.248488
446 2 19.4188 42.7519 -0.0281591
447 2 23.2726 42.7826 15.8954
448 2 27.2413 42.7871 15.912
449 2 31.0446 42.9891 0.448459
450 2 34.9194 42.7859 0.373376
451 2 39.3064 42.9513 0.21729
452 2 43.1104 42.9696 0.152888
453 2 47.2232 42.9519 15.7957
454 2 51.0209 43.3416 15.7689
455 2 55.0983 43.1674 0.0274298
456 2 59.1698 43.1271 15.7985
457 2 63.1415 43.0941 0.281424
458 2 67.2038 43.2591 0.122875
459 2 71.1087 43.12 0.0768731
460 2 75.2086 43.3948 0.195074
461 2 79.1428 43.6011 0.226461
462 2 83.192 43.4072 16.0297
463 2 87.3372 43.6426 16.1438
464 2 91.118 43.4806 0.117154
465 2 95.2073 43.6134 0.135503
466 2 99.2047 43.6299 15.9508
467 2 103.228 43.5812 16.0058
468 2 107.286 43.796 15.8369
469 2 111.104 43.6566 15.6902
470 2 115.198 43.7329 15.6578
471 2 119.037 43.5735 15.8714
472 2 123.117 43.4885 16.0026
473 2 126.959 43.5826 0.156503
474 2 131.032 43.475 0.284593
475 2 134.729 43.2873 15.9722
476 2 138.553 43.3175 15.8225
477 2 142.539 43.1823 15.9905
478 2 146.391 43.2141 0.129379
479 2 150.343 43.2548 0.101166
480 2 154.207 43.3494 0.00121744
481 2 -0.188524 47.0937 0.0810848
482 2 3.9528 47.0852 0.0540708
483 2 7.87606 47.0433 0.272819
484 2 11.8666 46.9712 -0.22009
485 2 15.7392 46.8741 0.0340087
486 2 19.5775 47.0846 0.0269567
487 2 23.339 46.8877 -0.0237798
488 2 27.3978 47.018 15.8921
489 2 31.2306 46.8643 0.079949
490 2 35.2681 46.7008 0.0845055
491 2 39.1571 46.7451 16.086
492 2 43.2387 46.7878 15.9774
493 2 47.1366 46.8155 0.194385
494 2 51.1307 47.2078 15.9216
495 2 55.1342 47.0314 15.9782
496 2 59.1319 47.1869 16.1008
497 2 62.9891 47.235 0.253174
498 2 67.1998 47.0108 0.078624
499 2 71.1448 47.2381 16.0702
500 2 75.1785 47.2154 0.0504035
501 2 79.2274 47.3463 15.8257
502 2 83.2442 47.373 15.9657
503 2 87.1163 47.2478 0.377431
504 2 91.3045 47.3731 0.0214749
505 2 95.145 47.4658 0.042464
506 2 99.2084 47.5971 0.248446
507 2 103.248 47.5329 0.0676027
508 2 107.428 47.7227 15.9073
509 2 111.275 47.556 15.7845
510 2 115.304 47.6755 -0.035237
511 2 119.33 47.9135 15.8509
512 2 123.126 47.6101 15.8558
513 2 126.752 47.636 16.1242
514 2 130.966 47.5736 15.6211
515 2 134.9 47.2893 15.7842
516 2 138.81 47.1344 15.8812
517 2 142.744 47.1921 15.953
518 2 146.657 47.3008 0.0763684
519 2 150.443 47.3248 0.268635
520 2 154.296 47.2328 15.7705
521 2 158.391 51.0661 0.13426
522 2 3.84879 51.131 15.7985
523 2 7.57398 51.1052 16.1019
524 2 11.5935 50.8604 15.9616
525 2 15.4334 51.0927 -0.0538719
526 2 19.5744 51.0046 15.7575
527 2 23.3682 50.7099 15.7171
528 2 27.384 50.9508 15.8239
529 2 31.2458 50.8323 -0.0717804
530 2 35.3035 50.8172 0.240845
531 2 39.0622 50.6202 16.0173
532 2 42.96 50.6326 16.0181
533 2 47.1218 50.8194 -0.0205766
534 2 51.0822 50.8219 0.0620306
535 2 55.0205 50.9439 0.21428
536 2 59.1439 50.8994 16.0973
537 2 63.2454 51.1562 16.0108
538 2 67.1363 50.9148 0.165633
539 2 71.1077 51.0681 0.369835
540 2 75.1644 51.2504 0.124382
541 2 78.9873 51.1903 -0.0470946
542 2 83.0751 51.3308 0.325912
543 2 87.1758 51.3417 0.380399
544 2 91.2115 51.4402 0.069464
545 2 95.2637 51.271 0.198415
546 2 99.0469 51.3806 0.234563
547 2 103.149 51.5253 15.937
548 2 107.365 51.5624 0.0982951
549 2 111.308 51.5857 -0.00842035
550 2 115.241 51.5945 16.0417
551 2 119.218 51.6737 16.0074
552 2 123.15 51.5822 15.8822
553 2 127.097 51.5912 15.9958
554 2 130.888 51.3679 0.216198
555 2 134.945 51.3211 0.196189
556 2 138.787 51.2767 0.178255
557 2 142.827 51.4225 0.145091
558 2 146.613 51.3392 15.8423
559 2 150.491 51.4145 0.0237029
560 2 154.409 51.3611 -0.0734038
561 2 158.485 55.0804 0.0236637
562 2 3.84684 54.9521 0.109471
563 2 7.76737 55.0675 0.28595
564 2 11.5715 54.947 0.258416
565 2 15.6857 54.9246 0.166651
566 2 19.4234 54.9634 15.7678
567 2 23.3516 55.1137 15.5911
568 2 27.4341 54.7785 15.6774
569 2 31.2237 54.8866 0.095475
570 2 35.2434 54.8148 -0.19489
571 2 39.0238 54.7685 15.788
572 2 43.0393 54.8156 16.0291
573 2 47.0378 54.6404 0.270257
574 2 51.1156 54.9719 15.7953
575 2 54.8708 54.8324 16.096
576 2 59.179 54.9964 15.8588
577 2 63.0483 54.9738 16.0387
578 2 67.029 54.9908 0.228574
579 2 71.0376 55.1004 0.356203
580 2 75.1393 55.074 15.982
581 2 79.1036 55.0015 0.254252
582 2 82.9276 55.0978 0.302585
583 2 87.1337 55.0547 0.316041
584 2 91.1894 55.1881 16.0589
585 2 95.0793 55.22 0.153937
586 2 99.2319 55.289 16.1603
587 2 103.007 55.3715 16.0757
588 2 107.218 55.4226 0.167662
589 2 111.262 55.4484 15.9249
590 2 115.309 55.567 15.8514
591 2 119.219 55.5551 15.9884
592 2 123.249 55.5685 0.221475
593 2 126.976 55.5286 16.1358
594 2 130.969 55.4619 15.7957
595 2 134.876 55.2922 0.132991
596 2 138.987 55.1826 15.8157
597 2 142.81 55.4178 0.0754227
598 2 146.65 55.2744 0.190149
599 2 150.625 55.3374 0.168827
600 2 154.349 55.384 15.8941
601 2 158.441 58.9652 0.185365
602 2 4.08232 58.9702 15.9941
603 2 7.88196 59.0302 15.8426
604 2 11.8283 58.9341 0.124063
605 2 15.7407 59.0095 15.8797
606 2 19.6726 59.0065 0.0496818
607 2 23.4767 58.7672 0.0786475
608 2 27.2996 58.9937 0.07187
609 2 31.3091 58.9672 16.0126
610 2 35.2766 58.8448 15.9326
611 2 39.1734 58.849 15.7307
612 2 43.1317 58.6173 15.9714
613 2 47.022 58.6986 16.0033
614 2 50.7597 58.6099 15.9299
615 2 55.271 58.6467 15.8366
616 2 59.1056 58.7653 0.211459
617 2 62.9148 59.0497 16.1097
618 2 67.0423 59.0157 0.145736
619 2 71.1226 59.0586 16.0921
620 2 74.8963 59.2044 0.374366
621 2 79.034 59.0172 0.26377
622 2 82.9565 59.2857 0.168588
623 2 87.1449 59.0658 16.0207
624 2 91.1039 59.2573 15.917
625 2 95.0657 59.103 0.133728
626 2 99.1794 59.0458 0.315504
627 2 103.021 59.3103 16.1033
628 2 107.105 59.4656 0.195766
629 2 110.942 59.259 15.9233
630 2 115.217 59.3653 15.7883
631 2 119.171 59.6458 16.063
632 2 122.923 59.349 0.174895
633 2 127.144 59.5355 16.0146
634 2 131.144 59.6772 0.395865
635 2 134.928 59.6737 15.7303
636 2 138.948 59.2595 0.175045
637 2 142.853 59.3726 0.239462
638 2 146.898 59.3381 0.117644
639 2 150.776 59.1429 15.9531
640 2 154.5 59.259 0.102341
641 2 0.113183 63.2786 0.461902
642 2 3.95602 63.2831 0.182139
643 2 7.81599 63.1656 15.9088
644 2 11.7272 62.9755 15.9975
645 2 15.8282 63.0012 15.9109
646 2 19.6928 62.9983 -0.0415816
647 2 23.3894 62.8615 0.156947
648 2 27.3984 62.8618 0.284322
649 2 31.3457 62.7937 0.0936202
650 2 35.2885 62.8748 0.0168292
651 2 39.1706 62.7346 15.9498
652 2 42.9006 62.7038 0.221294
653 2 46.9762 62.7269 15.9609
654 2 50.9247 62.5666 15.9485
655 2 54.9605 62.6401 0.0657219
656 2 59.0476 62.7459 16.0613
657 2 63.0542 62.7447 0.144391
658 2 67.0433 62.8072 15.8887
659 2 70.9985 62.9018 0.400844
660 2 74.9877 63.0605 0.0720858
661 2 79.1025 62.9577 0.265674
662 2 82.9503 63.049 0.21748
663 2 87.1705 63.0936 16.0262
664 2 91.1351 63.1418 16.0363
665 2 95.176 63.1872 0.270811
666 2 99.0957 63.0586 0.200718
667 2 103.171 63.2297 15.9698
668 2 107.04 63.2438 15.7206
669 2 110.988 63.4044 15.6788
670 2 115.117 63.3031 0.130818
671 2 119.192 63.3702 15.8736
672 2 123.341 63.4095 0.114095
673 2 127.333 63.6217 16.0432
674 2 131.249 63.535 0.0551981
675 2 135.279 63.3671 15.817
676 2 138.882 63.2545 16.0383
677 2 142.954 63.4572 15.7374
678 2 146.914 63.4027 0.217067
679 2 150.641 63.2377 16.1183
680 2 154.63 63.2085 0.216724
681 2 0.0805806 67.0854 0.227789
682 2 4.01915 67.2375 0.119292
683 2 7.94934 67.1507 15.9756
684 2 11.7525 67.1623 15.8928
685 2 15.6952 66.966 0.0095659
686 2 19.6906 67.1927 0.0707288
687 2 23.6181 66.9054 0.0954275
688 2 27.691 66.9248 0.205158
689 2 31.6235 66.8911 0.217313
690 2 35.3634 66.7732 0.140438
691 2 39.2889 66.6328 16.143
692 2 43.3057 66.6777 0.177385
693 2 47.2138 66.7503 16.043
694 2 51.0334 66.5892 15.8939
695 2 54.9368 66.3842 15.9209
696 2 58.7281 66.5588 15.749
697 2 62.9029 66.5023 15.8713
698 2 66.9424 66.7582 15.7805
699 2 70.943 66.7534 0.227409
700 2 74.8886 66.7252 15.9509
701 2 79.0862 66.7414 15.8812
702 2 83.1183 66.7296 0.270258
703 2 87.0568 67.0256 15.9483
704 2 90.9679 66.9583 16.2124
705 2 94.9419 67.0051 0.325283
706 2 99.087 66.9466 0.250903
707 2 103.109 67.0982 0.0140871
708 2 107.289 67.0314 15.9217
709 2 110.995 66.9737 15.8749
710 2 115.069 67.2416 16.0607
711 2 118.847 67.4252 0.192153
712 2 123.212 67.2868 0.36878
713 2 127.038 67.2932 0.154535
714 2 131.2 67.4874 15.9749
715 2 135.212 67.4975 0.263804
716 2 138.985 67.4819 0.105258
717 2 142.83 67.3692 15.6429
718 2 146.779 67.3594 15.792
719 2 150.577 67.2564 15.8858
720 2 154.405 67.1439 0.0288459
721 2 0.229983 71.3073 0.3117
722 2 4.18851 71.0755 16.0851
723 2 7.93315 71.2297 0.148153
724 2 11.9735 71.0788 15.8595
725 2 15.9096 71.178 0.0369521
726 2 19.9001 71.1282 0.0422724
727 2 23.6546 70.9542 0.302562
728 2 27.6908 71.0059 15.9889
729 2 31.4453 70.7749 0.290157
730 2 35.3942 70.8937 0.0382194
731 2 39.3328 70.7081 15.6442
732 2 43.2538 70.7737 0.048353
733 2 46.9866 70.7708 15.7718
734 2 51.1482 70.7611 15.6137
735 2 55.0158 70.4255 0.0447048
736 2 58.8484 70.5576 0.174122
737 2 62.8983 70.5628 0.192191
738 2 66.911 70.5815 16.1038
739 2 70.7714 70.6989 16.132
740 2 74.9126 70.6672 15.8624
741 2 78.9751 70.7427 0.168912
742 2 83.0998 70.8359 0.182985
743 2 86.9569 70.8312 16.1358
744 2 91.1506 70.8364 16.0175
745 2 94.9987 70.942 16.0668
746 2 99.0486 71.0579 16.1532
747 2 102.999 70.8119 15.8383
748 2 106.978 70.8921 15.8881
749 2 111.108 70.9131 15.9238
750 2 114.779 71.2348 0.29161
751 2 119.021 71.0204 16.0026
752 2 123.097 71.1539 0.165355
753 2 126.912 71.2801 16.0948
754 2 131.238 71.2654 15.7795
755 2 135.105 71.6254 16.0052
756 2 139.203 71.5866 15.8526
757 2 143.073 71.2875 0.235577
758 2 146.8 71.4312 0.156541
759 2 150.817 71.2576 0.150842
760 2 154.691 71.1094 15.9322
761 2 0.305782 75.2419 -0.00262021
762 2 4.19281 75.1253 15.8023
763 2 8.08113 75.2175 15.8469
764 2 11.9176 75.213 15.8929
765 2 15.964 75.1134 15.9191
766 2 19.8499 74.8361 15.8655
767 2 23.6188 74.8426 15.988
768 2 27.5471 74.8979 15.8859
769 2 31.6183 74.833 0.329168
770 2 35.4141 74.7061 15.8256
771 2 39.3872 74.8316 15.9173
772 2 43.3613 74.8605 -0.0615389
773 2 47.2378 74.6951 15.726
774 2 51.278 74.6372 0.209152
775 2 55.084 74.6082 15.843
776 2 58.89 74.5319 15.9415
777 2 62.7493 74.5168 16.1811
778 2 66.7349 74.4976 0.226486
779 2 70.7457 74.378 0.278991
780 2 74.8036 74.6643 0.272201
781 2 79.0196 74.679 0.146747
782 2 82.8934 74.6063 0.239832
783 2 87.0798 74.7058 0.106071
784 2 90.9594 74.6761 15.9035
785 2 94.9381 74.8209 15.9314
786 2 98.8909 74.936 0.0922305
787 2 102.979 75.0263 16.1134
788 2 106.962 74.866 15.7803
789 2 110.904 74.8458 16.0181
790 2 114.967 75.1047 15.9345
791 2 118.928 74.8901 0.224354
792 2 123.051 75.0392 16.0621
793 2 127.135 75.2758 16.1435
794 2 131 75.1536 0.249448
795 2 135.187 75.4445 15.8355
796 2 139.056 75.253 15.7689
797 2 142.826 75.2019 15.9685
798 2 146.98 75.4617 15.7807
799 2 150.926 75.4333 0.182271
800 2 154.72 75.2549 0.226887
801 2 0.393685 79.3574 0.209737
802 2 4.48231 79.4021 16.0169
803 2 8.17165 79.3298 0.211862
804 2 12.1351 79.1246 0.229124
805 2 15.8782 79.0376 15.9221
806 2 19.8825 78.9026 15.9222
807 2 23.9612 79.0248 0.245271
808 2 27.6982 79.0275 -0.0686269
809 2 31.4971 78.8178 0.013236
810 2 35.5395 78.7213 -0.030057
811 2 39.6167 78.9978 15.7516
812 2 43.2505 78.7455 15.6961
813 2 47.3344 78.7809 15.9433
814 2 51.1384 78.5332 0.137036
815 2 54.8332 78.7576 0.173442
816 2 58.7721 78.6074 15.9013
817 2 62.9838 78.2842 15.7765
818 2 66.8059 78.3486 0.16995
819 2 70.8273 78.4827 16.157
820 2 74.8547 78.5066 0.19382
821 2 78.917 78.6214 15.9071
822 2 82.8753 78.7402 15.9375
823 2 86.7775 78.681 0.253024
824 2 90.999 78.5344 0.262258
825 2 94.7847 78.5712 0.240399
826 2 98.8839 78.7476 15.9182
827 2 103.002 78.8859 15.7891
828 2 106.82 78.8842 0.128013
829 2 111.138 78.7987 0.214535
830 2 115.014 79.0428 0.264859
831 2 119.132 79.0562 0.204016
832 2 122.814 79.0391 15.9968
833 2 127.132 79.0723 0.12139
834 2 130.995 79.0927 16.0046
835 2 134.832 79.4146 0.285469
836 2 139.128 79.3226 15.8481
837 2 142.926 79.2658 15.9273
838 2 146.984 79.3385 15.9126
839 2 151.125 79.4267 16.046
840 2 154.795 79.3051 0.239907
841 2 0.44665 83.4391 15.998
842 2 4.32393 83.2558 16.014
843 2 8.25003 83.22 0.155239
844 2 12.0973 83.1726 15.9858
845 2 16.0787 83.0236 16.0851
846 2 19.8347 82.9525 0.111695
847 2 23.9719 83.2279 15.6637
848 2 27.8338 83.0643 0.211585
849 2 31.6775 82.8209 15.8922
850 2 35.6176 82.8444 0.105398
851 2 39.4336 82.8363 0.0790649
852 2 43.3272 82.5869 15.9099
853 2 47.3134 82.582 -0.0339964
854 2 51.414 82.6864 0.0840423
855 2 55.3161 82.4676 0.0354777
856 2 59.2331 82.6274 15.7965
857 2 62.852 82.2511 15.9406
858 2 66.7776 82.3024 15.985
859 2 70.9387 82.5356 16.1103
860 2 74.9102 82.245 16.0058
861 2 78.7527 82.478 16.0021
862 2 82.7296 82.5253 0.0950706
863 2 86.7466 82.6337 0.179251
864 2 90.8881 82.5783 15.9651
865 2 95.033 82.6572 0.146392
866 2 98.7742 82.4601 15.8518
867 2 102.871 82.6995 0.162357
868 2 107.006 82.6799 15.9741
869 2 110.798 82.7565 15.9679
870 2 114.785 82.7628 16.1216
871 2 118.883 82.9749 15.9916
872 2 122.914 83.1164 15.9761
873 2 127.16 82.9665 16.0131
874 2 130.964 83.1944 15.9563
875 2 134.977 83.0967 0.420158
876 2 139.141 83.1283 16.0518
877 2 143.17 83.2444 0.142174
878 2 146.867 83.2291 15.8379
879 2 150.906 83.4519 -0.0557351
880 2 154.82 83.3626 0.0593748
881 2 0.738634 87.3778 16.0792
882 2 4.48165 87.117 0.22769
883 2 8.47897 87.1759 15.9542
884 2 12.3712 87.1771 16.0678
885 2 16.006 87.1421 15.7488
886 2 20.0371 87.1812 16.0665
887 2 23.8703 87.1365 16.1215
888 2 27.7393 86.948 0.0606427
889 2 31.7232 87.0043 15.8647
890 2 35.5792 86.8954 0.196786
891 2 39.6774 86.7912 15.9145
892 2 43.5179 86.7511 15.8146
893 2 47.2652 86.5642 15.8383
894 2 51.1168 86.4304 15.9682
895 2 54.9807 86.5283 15.9616
896 2 59.008 86.5296 0.293731
897 2 62.8883 86.5249 0.200502
898 2 66.772 86.4684 15.8149
899 2 70.7906 86.5164 -0.0353509
900 2 74.7112 86.4039 15.9446
901 2 78.6689 86.2051 0.172658
902 2 82.7913 86.3724 0.291994
903 2 86.7744 86.4324 15.9338
904 2 90.9917 86.4581 16.0972
905 2 94.946 86.5227 16.0702
906 2 98.8404 86.6214 15.9509
907 2 102.944 86.5866 0.318577
908 2 106.691 86.6779 0.301081
909 2 110.816 86.6318 16.2528
910 2 114.807 86.7049 0.301561
911 2 118.881 86.9492 0.167656
912 2 122.889 86.87 0.216038
913 2 126.978 86.9329 16.0335
914 2 130.927 87.1627 15.9523
915 2 134.947 86.9309 16.0732
916 2 138.891 87.0451 15.9001
917 2 142.764 87.1266 15.8956
918 2 147.002 87.2299 0.158498
919 2 150.931 87.4789 16.0026
920 2 154.892 87.3871 16.1282
921 2 0.329739 91.144 0.329744
922 2 4.425 91.1265 0.408162
923 2 8.35412 91.1057 15.9962
924 2 12.2281 91.0733 16.0387
925 2 16.1464 91.1175 0.232835
926 2 19.9582 91.1921 0.265903
927 2 24.053 91.033 15.8167
928 2 27.85 91.1059 15.7442
929 2 31.7028 90.9512 15.7929
930 2 35.5706 90.9007 -0.0432732
931 2 39.5282 90.8444 15.8093
932 2 43.642 90.634 15.8636
933 2 47.2874 90.5385 0.103359
934 2 51.4571 90.6071 0.0978656
935 2 55.1981 90.5613 0.0951829
936 2 58.9704 90.4985 -0.00271991
937 2 63.0441 90.5707 0.0435841
938 2 66.8321 90.4971 15.6702
939 2 70.7507 90.1374 15.9645
940 2 74.7757 90.3261 0.27494
941 2 78.5703 90.1538 0.366111
942 2 82.8597 90.117 0.219704
943 2 86.7934 90.4695 0.0401755
944 2 90.8283 90.612 0.0404811
945 2 94.8871 90.2765 15.8955
946 2 98.811 90.679 15.9896
947 2 102.885 90.4657 0.181048
948 2 106.822 90.6092 16.1828
949 2 110.719 90.459 15.8908
950 2 114.877 90.8099 0.285238
951 2 118.948 90.5001 0.263937
952 2 122.816 90.5852 16.0632
953 2 126.722 90.9187 0.167293
954 2 130.885 90.8409 0.14368
955 2 135.085 91.0511 16.1834
956 2 138.853 90.8598 15.8899
957 2 142.869 90.9238 16.0812
958 2 146.992 91.2931 15.8801
959 2 150.938 91.3342 16.0472
960 2 154.839 91.255 15.7935
961 2 0.375916 95.2854 0.238035
962 2 4.29117 95.3039 15.9237
963 2 8.26189 95.3146 15.9693
964 2 12.3237 95.1486 15.9767
965 2 16.1543 95.34 15.8517
966 2 20.0532 94.9299 16.0418
967 2 23.7952 95.054 15.9576
968 2 27.7782 95.0871 16.1197
969 2 31.8225 94.92 15.9858
970 2 35.6437 94.9698 16.0806
971 2 39.6751 94.8904 16.1096
972 2 43.4277 94.7983 15.9368
973 2 47.3982 94.7065 -0.0472553
974 2 51.2509 94.5632 15.9274
975 2 55.2126 94.5999 0.0887574
976 2 59.0747 94.5798 15.7759
977 2 62.9885 94.5356 0.11327
978 2 66.9453 94.5595 0.0011693
979 2 70.9657 94.1667 0.00693014
980 2 74.7868 94.3122 0.0315714
981 2 78.7037 94.0779 15.9308
982 2 82.7931 94.0281 0.0261231