ITEM: TIMESTEP
23000
ITEM: NUMBER OF ATOMS
32000
ITEM: BOX BOUNDS xy xz yz pp pp pp
0.0000000000000000e+00 1.5831999999999999e+02 0.0000000000000000e+00
0.0000000000000000e+00 1.5831999999999999e+02 0.0000000000000000e+00
1.6244694501546153e-01 1.5935265054984381e+01 0.0000000000000000e+00
ITEM: ATOMS id type x y z
1 2 158.033 157.688 16.0546
2 2 3.73493 157.939 15.8506
3 2 7.80825 157.933 0.0139712
4 2 11.9016 157.95 0.118054
5 2 15.9531 158.008 0.206564
6 2 19.8923 158.109 15.8724
7 2 23.9974 157.929 15.8516
8 2 27.8891 158.182 16.0325
9 2 32.0159 158.295 0.199685
10 2 35.8742 158.083 16.0674
11 2 39.9673 -0.177666 15.907
12 2 43.8374 -0.137011 0.0541402
13 2 47.7592 0.0484561 15.8709
14 2 51.9528 0.0632021 0.194016
15 2 55.9532 158.347 0.0873737
16 2 59.9803 158.246 15.9681
17 2 63.9704 0.102895 15.6068
18 2 67.914 0.187985 15.8459
19 2 71.7457 0.17754 16.0268
20 2 75.8134 158.511 16.0749
21 2 79.6826 -0.164476 16.1427
22 2 83.5146 158.057 15.8917
23 2 87.2447 158.348 15.9049
24 2 91.1259 158.162 0.29723
25 2 95.178 158.06 16.0167
26 2 99.0013 158.078 15.888
27 2 102.839 158.168 16.0025
28 2 106.941 157.999 15.9084
29 2 110.746 158.033 0.0584117
30 2 114.647 157.853 0.0165583
31 2 118.505 157.805 15.9588
32 2 122.629 157.82 0.226152
33 2 126.444 157.723 -0.00812954
34 2 130.397 157.512 0.255247
35 2 134.244 157.734 16.0264
36 2 138.335 157.724 15.9195
37 2 142.149 157.797 15.8216
38 2 146.066 157.597 15.7084
39 2 150.06 157.696 0.169157
40 2 154.007 157.657 -0.0122764
41 2 157.887 3.25847 15.8285
42 2 3.71201 3.49629 15.9238
43 2 7.68477 3.53625 0.285886
44 2 11.6825 3.62076 15.8813
45 2 15.8466 3.53837 15.9953
46 2 19.5787 3.56371 16.0142
47 2 23.9534 3.7529 0.203433
48 2 27.8056 3.63505 0.329171
49 2 31.6781 3.8215 0.332788
50 2 35.8955 3.75773 0.181389
51 2 39.7568 3.69227 0.397198
52 2 43.6117 3.81123 15.8326
53 2 47.8709 4.03972 15.8759
54 2 51.9096 3.95215 15.9395
55 2 55.8862 4.02775 0.221858
56 2 59.9066 3.99457 15.8848
57 2 63.8238 4.0636 15.8252
58 2 67.8382 4.03584 15.9331
59 2 71.7091 4.05278 15.9635
60 2 75.7049 4.20342 16.1897
61 2 79.7051 3.975 16.1225
62 2 83.5456 3.99512 16.0207
63 2 87.2042 3.99099 15.8222
64 2 91.2376 3.81758 0.0586039
65 2 95.2423 3.74163 16.0838
66 2 99.09 3.74174 0.313092
67 2 102.806 3.80364 15.9159
68 2 107.019 3.71009 16.1815
69 2 110.984 3.60517 0.134886
70 2 114.727 3.42879 0.141057
71 2 118.787 3.458 0.255536
72 2 122.746 3.61913 0.206863
73 2 126.522 3.44187 -0.117991
74 2 130.405 3.33876 0.147523
75 2 134.328 3.41507 15.9193
76 2 138.067 3.26001 0.0595764
77 2 142.11 3.37832 0.0842582
78 2 145.925 3.25903 0.0298056
79 2 149.999 3.2155 15.999
80 2 153.859 3.06891 15.7622
81 2 157.98 7.31812 15.8998
82 2 3.73295 7.30498 16.1324
83 2 7.6232 7.35705 15.9041
84 2 11.6523 7.41267 0.10547
85 2 15.7885 7.58214 16.0642
86 2 20.0272 7.55064 15.9684
87 2 23.7282 7.5486 0.282278
88 2 27.6882 7.56423 16.0254
89 2 31.7848 7.70208 15.8403
90 2 35.7198 7.8538 15.8233
91 2 39.6902 7.96213 0.109496
92 2 43.5643 7.74575 0.109472
93 2 47.7743 7.74141 15.8703
94 2 51.6831 7.94436 0.277769
95 2 55.6834 7.7888 15.8847
96 2 59.6748 8.14241 0.145576
97 2 63.7868 7.95573 15.9023
98 2 67.7851 8.10509 15.8468
99 2 71.8186 7.97193 15.8601
100 2 75.7593 7.98733 15.9692
101 2 79.5754 7.90288 0.289511
102 2 83.3657 7.96548 15.7833
103 2 87.2544 7.98126 15.8024
104 2 91.343 7.91912 15.9628
105 2 95.1054 7.6986 15.9441
106 2 99.1242 7.78984 0.290142
107 2 103.032 7.65021 0.219472
108 2 106.933 7.59071 15.8489
109 2 110.891 7.63099 0.0451845
110 2 114.937 7.7139 15.9561
111 2 118.521 7.53208 15.8633
112 2 122.511 7.58283 15.9868
113 2 126.305 7.43951 15.7278
114 2 130.34 7.44786 0.200779
115 2 134.233 7.46196 0.19616
116 2 138.312 7.48906 15.6037
117 2 142.127 7.43505 15.9392
118 2 146.021 7.45888 -0.0773451
119 2 149.897 7.17572 0.290642
120 2 153.974 7.13171 15.7852
121 2 157.989 11.2152 15.9798
122 2 3.5326 10.9564 15.9801
123 2 7.4085 11.0926 15.8082
124 2 11.5229 11.3987 0.254914
125 2 15.5949 11.3917 15.8727
126 2 19.6807 11.5702 16.1077
127 2 23.7631 11.3994 15.9919
128 2 27.7328 11.5194 15.9674
129 2 31.6147 11.5319 15.923
130 2 35.7822 11.8494 15.8152
131 2 39.6469 11.696 15.7268
132 2 43.7785 11.7144 0.112493
133 2 47.6402 11.7004 0.106858
134 2 51.8199 11.7371 16.1078
135 2 55.7112 12.1467 0.29588
136 2 59.3663 11.8632 15.8996
137 2 63.7358 12.1294 0.167745
138 2 67.7089 11.8392 15.943
139 2 71.6293 12.1414 15.9405
140 2 75.5796 11.9966 16.0581
141 2 79.7705 11.8034 15.9803
142 2 83.6107 12.0699 15.8067
143 2 87.4523 12.0096 -0.0322232
144 2 91.2314 11.896 0.321697
145 2 95.1463 11.7023 16.0861
146 2 99.1087 11.7589 16.0569
147 2 103.057 11.6537 0.114194
148 2 106.972 11.7832 16.0801
149 2 110.819 11.6741 0.113499
150 2 114.839 11.6551 15.9321
151 2 118.808 11.598 0.0444618
152 2 122.655 11.3375 0.245733
153 2 126.392 11.3889 16.0951
154 2 130.35 11.4728 15.9981
155 2 134.353 11.2955 0.11421
156 2 138.352 11.2341 0.14766
157 2 142.331 11.2065 0.0783591
158 2 146.162 11.3091 0.0774437
159 2 150.056 11.07 -0.0797376
160 2 153.885 11.2305 0.18639
161 2 158 15.0658 15.9547
162 2 3.55804 15.2237 15.7983
163 2 7.61474 15.1904 16.1197
164 2 11.5508 15.2193 15.7819
165 2 15.6073 15.2025 15.9589
166 2 19.6016 15.4469 0.186794
167 2 23.5253 15.4549 0.246683
168 2 27.6306 15.4883 15.9384
169 2 31.7828 15.4237 0.174177
170 2 35.5093 15.4843 15.8288
171 2 39.5806 15.6061 -0.0163007
172 2 43.6366 15.7652 0.141922
173 2 47.6024 15.7033 0.327647
174 2 51.6296 15.6105 0.276026
175 2 55.7074 15.6842 16.0228
176 2 59.4961 15.7214 0.235085
177 2 63.5784 15.6246 15.8525
178 2 67.5663 15.8142 15.9272
179 2 71.5839 15.8595 0.218012
180 2 75.6073 15.8576 0.239071
181 2 79.4015 15.812 15.8921
182 2 83.597 16.1528 -0.00909009
183 2 87.5317 15.8057 15.8077
184 2 91.2786 15.8066 0.0773554
185 2 95.2567 15.8555 15.9683
186 2 99.0686 15.7749 15.7296
187 2 102.906 15.61 16.1178
188 2 107.033 15.7197 15.7073
189 2 110.939 15.819 15.9508
190 2 114.714 15.4774 16.077
191 2 118.745 15.5757 0.296747
192 2 122.732 15.413 15.9399
193 2 126.56 15.2463 15.9335
194 2 130.395 15.395 0.223573
195 2 134.26 15.2555 0.0894063
196 2 138.191 15.2764 0.0517538
197 2 141.971 15.3176 15.7929
198 2 146.192 15.2589 0.128335
199 2 150.148 15.3036 -0.0337913
200 2 154.173 15.1442 15.9342
201 2 157.787 19.0317 15.9236
202 2 3.47248 19.2622 0.0746634
203 2 7.71251 19.1054 0.0269284
204 2 11.5782 19.0378 15.9569
205 2 15.5674 19.2314 16.0609
206 2 19.4036 19.1019 15.9261
207 2 23.5612 19.3339 16.0577
208 2 27.5479 19.2144 15.9176
209 2 31.6314 19.272 15.9116
210 2 35.6125 19.5048 16.1024
211 2 39.5909 19.5057 0.182646
212 2 43.6382 19.5286 15.9454
213 2 47.8045 19.7202 15.9138
214 2 51.7772 19.6159 0.232342
215 2 55.7886 19.543 15.9939
216 2 59.4575 19.7348 16.0557
217 2 63.8098 19.7049 16.0341
218 2 67.6583 19.7277 16.0074
219 2 71.529 19.771 0.133744
220 2 75.4992 19.7695 0.119707
221 2 79.4569 19.8809 0.148978
222 2 83.4902 19.9082 16.1349
223 2 87.5163 19.8832 0.261095
224 2 91.5151 19.7214 0.325809
225 2 95.1914 19.7039 16.0155
226 2 99.2775 19.8762 16.0655
227 2 103.089 19.78 15.8249
228 2 106.927 19.5647 15.8906
229 2 110.833 19.5735 0.18604
230 2 114.747 19.4293 15.7933
231 2 118.611 19.4863 15.7724
232 2 122.581 19.4804 15.9691
233 2 126.48 19.5384 15.7359
234 2 130.512 19.2184 15.8088
235 2 134.21 19.3942 0.240575
236 2 138.173 19.3855 15.9179
237 2 142.15 19.2413 15.7939
238 2 146.089 19.2138 -0.0800695
239 2 150.033 19.0961 15.9007
240 2 153.947 19.1433 0.215454
241 2 157.797 23.0101 15.7966
242 2 3.4315 22.9853 16.0466
243 2 7.54826 22.9764 0.0375169
244 2 11.5908 23.0782 0.0903094
245 2 15.3514 23.0039 15.8806
246 2 19.4862 23.0827 16.1011
247 2 23.5491 23.263 16.0782
248 2 27.5924 23.1843 16.1802
249 2 31.6409 23.357 0.0247747
250 2 35.4842 23.3855 16.1332
251 2 39.3319 23.4813 0.316545
252 2 43.5115 23.4837 15.7981
253 2 47.5663 23.4342 0.0206982
254 2 51.5182 23.5269 0.195084
255 2 55.5335 23.473 0.342839
256 2 59.5374 23.5614 16.033
257 2 63.6084 23.6723 0.100334
258 2 67.5044 23.6034 15.6988
259 2 71.5004 23.9308 15.9764
260 2 75.4049 23.5585 0.287588
261 2 79.5155 23.8681 15.9415
262 2 83.6069 23.8399 0.309838
263 2 87.532 23.8896 16.0783
264 2 91.6466 24.0114 15.9077
265 2 95.4425 23.7879 15.9072
266 2 99.1766 23.7433 0.110353
267 2 102.994 23.6743 15.8751
268 2 107.155 23.7016 15.7466
269 2 111.004 23.5662 0.158459
270 2 114.93 23.4343 15.8544
271 2 118.946 23.5973 15.811
272 2 122.601 23.5727 0.141024
273 2 126.526 23.4167 16.0727
274 2 130.575 23.3283 16.049
275 2 134.59 23.2946 15.9314
276 2 138.326 23.2633 15.834
277 2 142.137 23.0818 15.8849
278 2 145.927 23.3235 -0.0446799
279 2 150.041 23.1989 0.18611
280 2 153.885 23.3553 0.298391
281 2 157.89 27.0878 0.231574
282 2 3.32766 26.9734 0.0989674
283 2 7.58766 27.0001 0.130865
284 2 11.3849 27.0935 16.0909
285 2 15.3573 26.9836 16.0374
286 2 19.1763 26.7901 0.185548
287 2 23.133 27.2112 15.949
288 2 27.3663 26.9948 15.9569
289 2 31.5132 27.0662 0.177982
290 2 35.1029 27.2161 0.417677
291 2 39.302 27.2015 0.267525
292 2 43.3461 27.3995 0.354339
293 2 47.4082 27.245 0.275751
294 2 51.5415 27.4356 16.0761
295 2 55.374 27.517 0.261428
296 2 59.41 27.583 16.0715
297 2 63.4862 27.5326 16.0315
298 2 67.4851 27.7875 15.989
299 2 71.3349 27.6886 15.8114
300 2 75.5345 27.7065 0.225274
301 2 79.3636 27.826 0.14667
302 2 83.4378 27.8672 16.0037
303 2 87.4696 27.8738 0.309529
304 2 91.5944 27.8789 0.261027
305 2 95.3765 27.7671 0.108648
306 2 99.1888 27.851 0.356056
307 2 103.04 27.8039 16.094
308 2 107.092 27.7061 0.00190054
309 2 111.056 27.779 15.8874
310 2 114.834 27.4099 15.8843
311 2 118.683 27.5513 -0.140278
312 2 122.806 27.6019 -0.0852165
313 2 126.6 27.4113 15.8462
314 2 130.579 27.3861 15.892
315 2 134.463 27.3056 15.9276
316 2 138.369 27.3051 15.8915
317 2 142.318 27.3804 0.0648902
318 2 146.273 27.3674 0.330483
319 2 150.154 27.1382 0.133933
320 2 153.898 27.0654 0.0814332
321 2 157.821 31.1807 15.8622
322 2 3.63056 30.9221 15.9432
323 2 7.45374 30.8878 15.9609
324 2 11.5274 30.9084 0.22078
325 2 15.3967 30.8614 0.191373
326 2 19.3 30.8378 15.9369
327 2 23.3165 30.8677 15.9899
328 2 27.2938 31.1118 0.359685
329 2 31.1483 31.1599 16.178
330 2 35.2837 31.071 16.113
331 2 39.3848 31.2153 16.0235
332 2 43.3328 31.2096 0.475337
333 2 47.3582 31.1635 15.9891
334 2 51.4158 31.2144 0.206336
335 2 55.3389 31.4761 15.8712
336 2 59.4831 31.4342 0.055213
337 2 63.3434 31.4142 15.95
338 2 67.3886 31.6619 0.148386
339 2 71.3648 31.5862 0.318351
340 2 75.3235 31.6372 0.181165
341 2 79.4288 31.6234 15.9044
342 2 83.2313 31.7422 -0.035435
343 2 87.4058 31.6387 16.0737
344 2 91.414 31.9462 16.0681
345 2 95.4483 31.747 15.9211
346 2 99.2047 31.7667 0.181875
347 2 103.197 31.7719 15.8972
348 2 106.869 31.661 15.8299
349 2 110.906 31.5338 15.8347
350 2 115.015 31.5164 15.8441
351 2 118.831 31.5405 15.7118
352 2 122.709 31.6191 15.8959
353 2 126.597 31.3842 15.8863
354 2 130.462 31.3487 15.8833
355 2 134.255 31.3037 15.9956
356 2 138.322 31.2762 15.9241
357 2 142.198 31.1691 0.270399
358 2 146.371 31.1745 15.8405
359 2 150.179 31.2216 0.00782036
360 2 154.103 31.1442 0.135615
361 2 -0.295362 35.0885 0.17774
362 2 3.91981 35.092 15.9246
363 2 7.51576 34.9701 15.7835
364 2 11.3183 35.0514 15.9912
365 2 15.4306 34.9865 0.294272
366 2 19.2229 34.872 0.0354458
367 2 23.1647 34.8699 0.335904
368 2 27.0149 34.8259 0.153515
369 2 31.1871 35.1139 0.405095
370 2 35.3779 35.2462 0.270235
371 2 39.2712 35.2667 0.157054
372 2 43.3893 35.2246 16.0023
373 2 47.3575 35.1015 15.7279
374 2 51.3402 35.2976 15.968
375 2 55.2769 35.2877 0.0357597
376 2 59.2209 35.48 0.136663
377 2 63.2353 35.2433 15.8945
378 2 67.2656 35.3702 0.121688
379 2 71.3541 35.5004 0.325937
380 2 75.3722 35.7111 15.9266
381 2 79.411 35.6422 0.0976752
382 2 83.4784 35.549 15.989
383 2 87.465 35.5998 0.211828
384 2 91.426 35.8575 0.243325
385 2 95.3992 35.8467 15.9846
386 2 99.4168 35.7442 0.177327
387 2 103.234 36.1129 15.9605
388 2 107.363 35.7943 15.7497
389 2 111.166 35.6073 15.9722
390 2 115.039 35.6184 16.0124
391 2 118.858 35.4428 15.8493
392 2 122.892 35.4779 15.9407
393 2 126.758 35.6815 16.0826
394 2 130.591 35.2435 15.8691
395 2 134.756 35.2364 15.9628
396 2 138.462 35.3457 0.197923
397 2 142.482 35.2377 0.289824
398 2 146.198 35.1894 0.285983
399 2 150.103 35.2076 15.8528
400 2 154.137 35.2315 -0.0748256
401 2 158.065 39.1664 0.00688641
402 2 3.71269 39.0385 0.122761
403 2 7.80867 39.075 0.0796135
404 2 11.6061 38.974 15.9206
405 2 15.3653 39.0321 0.172297
406 2 19.3694 38.9329 15.9251
407 2 23.2205 38.8364 15.7562
408 2 27.2438 38.8019 16.0283
409 2 31.1371 38.8328 0.460159
410 2 35.2885 39.1724 0.390266
411 2 39.047 39.2812 16.0364
412 2 43.1436 38.9903 0.353124
413 2 47.4284 39.1456 0.182493
414 2 51.3387 39.1028 15.9013
415 2 55.2974 39.1755 0.0921261
416 2 59.1744 39.1927 0.215689
417 2 63.2708 39.3909 0.224269
418 2 67.2531 39.2242 0.124229
419 2 71.1682 39.5528 0.179263
420 2 75.2841 39.2701 0.130561
421 2 79.3148 39.4436 0.26291
422 2 83.3357 39.5338 15.8608
423 2 87.3313 39.6402 16.0438
424 2 91.4189 39.5653 16.0407
425 2 95.3618 39.5198 15.8837
426 2 99.2373 39.7236 0.219959
427 2 103.375 39.7567 15.8508
428 2 107.359 39.7671 15.7996
429 2 111.334 39.7645 15.7428
430 2 115.261 39.6663 15.8903
431 2 119.012 39.3258 15.9188
432 2 122.823 39.4022 16.0848
433 2 126.668 39.6532 0.269983
434 2 130.639 39.4123 16.0816
435 2 134.683 39.5409 15.8748
436 2 138.57 39.2284 15.9322
437 2 142.481 39.3331 15.9207
438 2 146.441 39.1093 0.318683
439 2 150.267 38.9662 15.9231
440 2 154.303 38.903 15.8482
441 2 158.023 43.2462 -0.00367526
442 2 3.69473 43.2635 15.8415
443 2 7.64873 43.1911 16.1104
444 2 11.4688 42.9102 0.00123591
445 2 15.4442 42.9057 -0.0435352
446 2 19.3858 42.9683 0.0952537
447 2 23.4201 42.8337 15.7057
448 2 27.2123 42.9352 15.9628
449 2 31.0942 42.9749 0.310187
450 2 35.118 42.94 0.230936
451 2 39.1164 42.8632 0.347657
452 2 43.1849 42.74 0.143453
453 2 47.2911 43.006 15.9631
454 2 51.3809 43.049 16.0123
455 2 55.2471 42.9671 0.178787
456 2 59.1109 43.1736 16.0752
457 2 62.9328 43.2463 0.138719
458 2 67.1753 43.2269 0.294396
459 2 71.3249 43.39 0.323247
460 2 75.2122 43.3147 0.151373
461 2 79.3573 43.0758 0.267235
462 2 83.3592 43.413 15.8141
463 2 87.2698 43.3613 15.8866
464 2 91.4031 43.366 0.205729
465 2 95.2921 43.495 0.216755
466 2 99.3181 43.4719 16.1121
467 2 103.456 43.7319 15.8982
468 2 107.187 43.5419 15.8748
469 2 111.398 43.5898 15.9178
470 2 115.126 43.5772 15.9005
471 2 119.022 43.6953 15.8094
472 2 122.76 43.5436 16.0508
473 2 126.887 43.4902 0.0168788
474 2 130.764 43.4779 0.0903361
475 2 134.819 43.4651 15.8886
476 2 138.745 43.3953 16.0255
477 2 142.384 43.2566 15.9442
478 2 146.413 43.2178 0.415758
479 2 150.406 43.0901 0.163735
480 2 154.381 43.0669 0.211704
481 2 -0.163525 47.1796 0.0567847
482 2 3.80698 47.297 0.201243
483 2 7.74836 47.257 0.255702
484 2 11.6403 47.164 0.158714
485 2 15.3515 46.9658 0.0473891
486 2 19.405 46.6853 0.00801803
487 2 23.4032 46.8255 0.0253778
488 2 27.3625 47.0099 15.6126
489 2 31.2391 46.9024 0.253306
490 2 35.1146 46.8174 0.308215
491 2 38.993 46.7456 15.9142
492 2 42.9635 46.7654 15.841
493 2 47.0394 46.7951 0.0444914
494 2 51.0388 46.9415 15.9581
495 2 55.0575 46.9767 15.8047
496 2 59.1292 47.1717 15.8842
497 2 63.2127 47.1215 0.0479162
498 2 67.1125 47.2658 0.240279
499 2 71.1074 47.2415 16.0414
500 2 75.1843 47.3058 0.134006
501 2 79.1206 47.2451 16.0275
502 2 83.2236 47.2601 15.9302
503 2 87.2683 47.5942 0.266017
504 2 91.083 47.6606 0.252342
505 2 95.3638 47.5168 0.248004
506 2 99.2728 47.3589 0.153222
507 2 103.303 47.6404 0.325192
508 2 107.116 47.412 15.7829
509 2 111.285 47.624 15.7958
510 2 115.295 47.6971 0.0520024
511 2 119.113 47.7479 15.8909
512 2 123.004 47.3847 16.0309
513 2 127.265 47.4434 15.8078
514 2 130.929 47.3321 16.1458
515 2 134.681 47.4615 15.8401
516 2 138.77 47.4722 15.9348
517 2 142.606 47.265 15.9773
518 2 146.429 47.1572 0.177112
519 2 150.331 47.3817 0.0801569
520 2 154.198 47.2353 15.9008
521 2 158.254 51.1232 0.191384
522 2 3.9975 51.0778 15.902
523 2 7.87923 51.108 15.7562
524 2 11.7393 51.1336 15.8625
525 2 15.817 50.9884 0.0930606
526 2 19.4723 50.8871 15.7545
527 2 23.3459 50.9945 15.7232
528 2 27.2778 50.8121 15.4948
529 2 31.3355 50.7525 0.118755
530 2 35.1207 50.7202 -0.0837511
531 2 39.0566 50.7168 15.8627
532 2 42.9409 50.8528 15.8537
533 2 46.8808 50.8675 0.245294
534 2 50.9779 50.9602 0.111349
535 2 55.1066 50.9084 0.143293
536 2 59.0811 51.1561 15.8463
537 2 62.9105 51.0446 15.998
538 2 66.9657 51.0719 0.238599
539 2 71.1652 51.1712 0.0494335
540 2 75.0612 51.1402 0.0982356
541 2 79.2422 51.1665 0.249887
542 2 83.2662 51.2112 0.144466
543 2 87.1139 51.3222 0.102162
544 2 91.0693 51.4247 0.311371
545 2 95.0267 51.3164 0.0497821
546 2 99.2138 51.3676 0.0600374
547 2 103.22 51.4881 15.8848
548 2 106.968 51.5833 0.152593
549 2 111.196 51.4487 0.241837
550 2 115.343 51.511 15.8574
551 2 119.416 51.769 15.8536
552 2 123.162 51.4423 15.9958
553 2 126.966 51.3782 15.9375
554 2 130.97 51.4766 -0.0306559
555 2 134.856 51.3879 0.0126821
556 2 138.874 51.3779 0.0252772
557 2 142.627 51.2823 0.036136
558 2 146.543 51.2333 15.7643
559 2 150.428 51.1991 0.22902
560 2 154.298 51.1883 0.0297508
561 2 158.169 55.0387 0.193266
562 2 3.95097 55.0723 0.306247
563 2 7.91164 55.1034 0.322184
564 2 11.9554 55.0686 -0.0609926
565 2 15.5938 55.0975 0.0514119
566 2 19.7567 55.2154 15.8033
567 2 23.4995 54.7858 15.846
568 2 27.3661 54.8438 15.8929
569 2 31.3212 54.6525 -0.0999422
570 2 35.1376 54.6503 0.215098
571 2 39.1387 54.7858 15.9341
572 2 42.9418 54.6755 15.8973
573 2 47.0217 54.9148 0.00765743
574 2 50.8794 54.6459 15.8679
575 2 54.9509 54.8123 15.7896
576 2 58.9054 54.9286 15.8986
577 2 63.0482 54.8789 15.9291
578 2 67.1481 54.9622 0.218783
579 2 71.0906 54.8123 0.0764731
580 2 75.0748 55.1722 16.0092
581 2 79.0123 55.2186 0.388872
582 2 83.0999 55.2946 0.0883381
583 2 87.1801 55.33 0.175017
584 2 91.1087 55.4145 15.6885
585 2 95.188 55.1249 0.128887
586 2 98.9298 55.3247 16.0545
587 2 103.158 55.2762 15.917
588 2 107.093 55.5519 0.226523
589 2 111.154 55.329 15.9231
590 2 115.256 55.4237 16.0755
591 2 119.296 55.5029 15.7903
592 2 123.089 55.6151 0.287723
593 2 127.165 55.3688 15.961
594 2 130.929 55.4504 16.0398
595 2 134.861 55.3526 0.130098
596 2 138.979 55.7096 15.9851
597 2 142.704 55.2164 0.0791581
598 2 146.501 55.3666 0.0526984
599 2 150.432 55.1598 0.145118
600 2 154.498 55.0069 15.8177
601 2 158.398 59.3471 0.339384
602 2 3.97868 59.2317 16.0201
603 2 7.99085 59.0024 15.9655
604 2 11.6382 59.1007 0.0526034
605 2 15.4835 59.0014 15.9214
606 2 19.5399 58.9637 0.0417805
607 2 23.5339 59.1311 -0.034048
608 2 27.496 59.0243 0.0354538
609 2 31.3677 58.7098 15.7843
610 2 35.229 58.6102 15.695
611 2 39.1756 58.7204 15.8872
612 2 43.1611 58.8162 15.9537
613 2 47.0515 58.6451 15.9906
614 2 51.1287 58.6627 15.8842
615 2 54.8124 58.8458 16.155
616 2 58.934 58.8669 0.358659
617 2 63.0713 58.755 15.9567
618 2 66.9973 58.8683 0.220929
619 2 70.9414 58.9527 15.9512
620 2 75.136 59.0335 0.205588
621 2 79.1094 59.155 0.341247
622 2 83.2091 58.9651 0.343331
623 2 87.0184 59.229 16.0795
624 2 91.0984 59.2393 16.141
625 2 95.144 59.1841 0.317681
626 2 98.9388 59.1946 0.0494585
627 2 103.157 59.2649 15.6945
628 2 107.032 59.3357 0.194795
629 2 111.226 59.4134 15.6952
630 2 115.122 59.4246 15.9933
631 2 119.155 59.3642 15.7897
632 2 123.35 59.57 0.332038
633 2 127.3 59.5084 15.9344
634 2 131.07 59.353 0.157881
635 2 135.007 59.3713 16.009
636 2 138.885 59.3659 0.0705636
637 2 142.753 59.3275 0.0195913
638 2 146.682 59.2545 0.229179
639 2 150.649 59.3809 15.9961
640 2 154.611 59.1114 0.215496
641 2 0.123379 63.2209 0.0223106
642 2 4.23358 63.2898 0.267222
643 2 8.10591 62.9229 15.9463
644 2 11.8139 63.0874 15.9091
645 2 15.7024 63.0172 15.7798
646 2 19.8561 63.0004 0.19595
647 2 23.5769 63.1486 -0.107536
648 2 27.4391 62.9007 -0.059441
649 2 31.412 62.7409 0.151649
650 2 35.1593 62.6308 0.377851
651 2 39.1568 62.6201 15.7895
652 2 43.1158 62.6654 0.198221
653 2 47.1527 62.732 16.1557
654 2 51.0094 62.5707 15.9768
655 2 54.989 62.5251 0.354722
656 2 58.9336 62.5669 15.9886
657 2 63.0551 62.7424 0.268399
658 2 67.0821 62.8288 16.0225
659 2 70.9039 62.787 0.0631914
660 2 75.0671 62.7452 0.240997
661 2 78.9093 62.8194 0.22071
662 2 83.0832 62.9171 0.296912
663 2 86.9591 63.1139 16.0178
664 2 91.0491 63.0713 15.9641
665 2 94.9873 62.9929 0.225354
666 2 99.1006 63.1255 0.0833541
667 2 102.952 63.1333 15.7839
668 2 107.133 63.3196 15.8716
669 2 110.991 63.0697 15.8906
670 2 115.131 63.3384 -0.00778414
671 2 119.121 63.2854 15.8478
672 2 123.107 63.4091 0.298223
673 2 127.099 63.3978 15.9594
674 2 131.211 63.6486 0.118718
675 2 135.059 63.5483 15.9684
676 2 138.999 63.4349 15.8677
677 2 142.726 63.363 15.7477
678 2 146.755 63.3696 0.160685
679 2 150.724 63.4762 15.9815
680 2 154.55 63.3507 0.208585
681 2 0.284029 67.3425 0.152862
682 2 4.32056 67.2028 0.345024
683 2 8.05765 67.0732 15.8308
684 2 12.1039 66.8661 15.8441
685 2 15.9062 67.0868 0.0143863
686 2 19.7929 66.9786 0.0348111
687 2 23.6612 67.0514 0.178625
688 2 27.496 66.7809 0.236161
689 2 31.3209 66.7275 0.254892
690 2 35.3155 66.6983 0.241191
691 2 39.1387 66.8183 15.8378
692 2 42.8735 66.6243 0.185262
693 2 47.2482 66.7227 15.9138
694 2 51.0748 66.5835 15.9037
695 2 54.9884 66.68 15.761
696 2 59.0662 66.4064 15.8759
697 2 62.7537 66.5355 15.9673
698 2 66.9751 66.7386 16.0161
699 2 70.9093 66.815 0.223321
700 2 75.0652 66.903 16.0674
701 2 78.8593 66.9951 15.9416
702 2 82.981 67.0046 0.0913858
703 2 87.076 67.0728 16.1861
704 2 90.9991 67.0315 16.1092
705 2 95.1039 66.949 0.166734
706 2 98.9714 66.8812 0.132962
707 2 103.109 67.0604 0.13394
708 2 106.892 67.2019 15.8583
709 2 111.127 67.3043 16.0016
710 2 115.163 67.1067 15.8027
711 2 119.254 67.2158 0.292575
712 2 123.112 67.3795 0.0778797
713 2 127.288 67.58 0.303836
714 2 131.257 67.4191 15.7635
715 2 135.15 67.4051 0.112684
716 2 139.068 67.3963 -0.0749768
717 2 142.969 67.369 15.9692
718 2 146.752 67.3804 15.7676
719 2 150.89 67.3393 15.9148
720 2 154.809 67.4372 0.0485529
721 2 0.219798 71.1686 0.208304
722 2 4.14663 71.1596 15.7725
723 2 8.14362 70.9423 0.0509386
724 2 12.0549 70.9714 15.8692
725 2 15.9486 71.0074 0.0869819
726 2 19.8262 71.0892 -0.0153734
727 2 23.7636 70.8568 0.11933
728 2 27.5893 70.6741 15.9493
729 2 31.605 70.9892 0.0645458
730 2 35.4354 70.6724 0.192505
731 2 39.2695 70.7204 16.0267
732 2 43.2798 70.6921 0.0650781
733 2 47.3722 70.5359 15.7868
734 2 51.112 70.5216 16.0168
735 2 54.9278 70.5585 0.102797
736 2 58.8925 70.4418 0.0988229
737 2 62.9356 70.5017 0.233451
738 2 66.6931 70.6391 16.0036
739 2 71.0032 70.7234 15.891
740 2 74.9072 70.7043 16.2223
741 2 78.9721 70.7037 0.179589
742 2 82.9037 70.6403 0.233755
743 2 87.0108 70.951 16.004
744 2 90.9047 71.1124 16.0719
745 2 94.9929 70.9442 15.9712
746 2 98.8646 70.7611 15.8111
747 2 102.823 71.1091 16.1457
748 2 107.176 71.0318 15.8932
749 2 110.98 71.0964 16.019
750 2 115.114 71.0946 0.261417
751 2 119.101 71.4009 16.0943
752 2 123.041 71.318 0.285635
753 2 127.213 71.1724 15.9784
754 2 130.976 71.2728 15.9676
755 2 134.986 71.356 15.8854
756 2 138.915 71.2485 15.8372
757 2 143.002 71.4133 -0.014679
758 2 147.03 71.3195 -0.0792297
759 2 150.638 71.2507 0.150402
760 2 154.649 71.4012 15.8585
761 2 0.366385 75.504 0.287388
762 2 4.26425 75.2262 16.0629
763 2 8.2077 75.0955 15.8746
764 2 12.0538 74.9839 15.8016
765 2 15.9916 74.9557 15.856
766 2 20.0013 75.2208 15.9205
767 2 24.0032 75.0802 15.854
768 2 27.7287 74.8427 15.9988
769 2 31.504 74.789 0.0626762
770 2 35.4413 74.9294 15.8379
771 2 39.407 74.6241 15.881
772 2 43.3214 74.6607 0.0192126
773 2 47.2365 74.8233 15.8326
774 2 51.0271 74.4837 0.034866
775 2 54.8608 74.5936 15.6911
776 2 58.7725 74.5825 15.6938
777 2 62.7804 74.5557 15.8896
778 2 66.7456 74.5594 0.287409
779 2 70.9061 74.7141 0.249209
780 2 74.8695 74.5701 0.229981
781 2 78.8969 74.5016 0.165869
782 2 82.9789 74.8041 0.235132
783 2 86.6737 74.7172 0.470784
784 2 90.8455 74.8871 16.0717
785 2 95.057 74.7922 15.9451
786 2 99.0509 74.6457 0.274696
787 2 103 74.8003 15.8586
788 2 106.987 74.9472 15.9712
789 2 111.018 75.0191 15.9845
790 2 114.874 74.9708 15.8598
791 2 118.906 75.191 0.303173
792 2 123.017 75.1573 15.7697
793 2 126.974 75.1051 15.9368
794 2 131.204 75.1263 0.142614
795 2 135.04 75.3187 16.0418
796 2 139.089 75.3517 15.9478
797 2 143.168 75.4725 15.8566
798 2 146.906 75.2691 15.9977
799 2 150.804 75.543 0.313714
800 2 154.738 75.3917 0.20291
801 2 0.554456 79.5059 0.0776137
802 2 4.28027 79.1663 15.9491
803 2 8.18469 79.1211 0.0589203
804 2 11.9656 79.0131 0.0328888
805 2 16.0729 78.9193 15.9912
806 2 19.9377 79.0598 15.9658
807 2 23.8857 79.0095 0.114209
808 2 27.8787 78.892 0.166736
809 2 31.7178 78.9538 0.0319316
810 2 35.4113 78.9432 0.0441432
811 2 39.1981 78.6029 16.0388
812 2 43.3448 78.6994 16.0104
813 2 47.1304 78.5953 15.799
814 2 51.099 78.731 0.324162
815 2 55.1188 78.4806 0.236809
816 2 59.0976 78.4016 15.9433
817 2 62.9108 78.5399 15.9771
818 2 66.9342 78.4939 0.339974
819 2 70.8016 78.3843 15.9805
820 2 74.8947 78.5204 0.170002
821 2 78.924 78.4919 15.9907
822 2 82.9292 78.6569 16.1376
823 2 86.9696 78.7485 0.248046
824 2 90.7815 78.9065 0.313477
825 2 94.9041 78.6999 0.135016
826 2 98.8589 78.6103 15.8115
827 2 102.924 78.7977 16.0418
828 2 107.119 78.6894 0.312715
829 2 110.907 79.0227 0.330198
830 2 114.93 78.8201 0.132081
831 2 118.812 78.8654 0.265961
832 2 123.056 78.9441 15.8537
833 2 126.947 79.1189 0.431892
834 2 130.919 79.095 15.9781
835 2 134.966 79.1591 0.310583
836 2 139.091 79.2813 16.052
837 2 143.238 79.3199 15.8518
838 2 147.081 79.5628 15.7994
839 2 150.806 79.3588 15.8363
840 2 154.86 79.4318 0.286082
841 2 0.46009 83.3815 15.9201
842 2 4.31968 83.261 15.9987
843 2 8.36928 83.3324 0.205389
844 2 12.1444 83.0798 16.114
845 2 15.895 82.9625 15.9325
846 2 19.9159 83.0468 0.207665
847 2 23.8592 82.8048 16.2235
848 2 27.8246 82.842 0.197522
849 2 31.7321 82.9784 15.7677
850 2 35.6407 82.7936 0.157138
851 2 39.5326 82.6974 0.146216
852 2 43.4225 82.669 15.9767
853 2 47.3031 82.7025 0.369436
854 2 51.2581 82.5421 0.0417409
855 2 55.117 82.6681 0.324865
856 2 59.0086 82.5256 15.8647
857 2 62.9511 82.4958 15.8995
858 2 66.6739 82.4368 15.8784
859 2 70.6426 82.2684 16.0654
860 2 74.7516 82.5478 15.9854
861 2 78.701 82.5121 15.7989
862 2 82.9671 82.5401 0.294158
863 2 86.8545 82.6036 0.0506156
864 2 90.872 82.6452 15.8077
865 2 94.8386 82.5786 0.137668
866 2 98.9022 82.7485 16.1005
867 2 103.054 82.7317 0.0994682
868 2 106.929 82.655 15.9494
869 2 110.946 82.7269 15.975
870 2 115.043 82.7317 15.9995
871 2 119.063 82.8269 16.092
872 2 122.906 82.8447 16.0595
873 2 126.826 83.0035 16.0731
874 2 130.919 83.012 15.8942
875 2 134.891 83.1716 0.201796
876 2 138.897 83.3453 15.9816
877 2 143.058 83.2717 0.246658
878 2 147.164 83.5063 16.0378
879 2 150.923 83.4906 0.118976
880 2 154.829 83.4989 -0.148422
881 2 0.396877 87.3131 15.9459
882 2 4.38921 87.3021 0.161529
883 2 8.19324 87.317 16.0625
884 2 12.1914 87.3011 15.6545
885 2 16.3048 87.1705 15.8055
886 2 19.8648 86.9418 15.8809
887 2 24.0225 86.8717 15.9605
888 2 27.9826 86.8807 0.155325
889 2 31.659 86.8593 15.887
890 2 35.625 86.8381 -0.0402515
891 2 39.5847 86.9839 15.731
892 2 43.478 86.6291 15.9485
893 2 47.338 86.6575 15.8605
894 2 51.3662 86.6277 15.8521
895 2 55.1118 86.5747 15.986
896 2 59.0665 86.4479 -0.11292
897 2 63.1012 86.4886 0.115528
898 2 66.9074 86.3943 15.9262
899 2 70.7886 86.2398 0.288332
900 2 74.5702 86.3274 15.8927
901 2 78.7455 86.5063 0.397477
902 2 82.7866 86.3764 0.172864
903 2 86.8594 86.5047 15.8203
904 2 90.7594 86.5243 15.8799
905 2 94.9196 86.499 15.8897
906 2 99.068 86.4632 15.9774
907 2 102.925 86.6356 0.174243
908 2 107.083 86.6108 0.185303
909 2 111.026 86.5829 15.9076
910 2 114.996 86.732 0.340979
911 2 118.923 86.6471 0.15734
912 2 122.826 86.6941 0.103363
913 2 126.964 86.9394 15.9826
914 2 131.025 86.963 16.0979
915 2 134.905 87.1649 15.9114
916 2 138.993 87.1142 16.1115
917 2 143.196 87.1764 15.8949
918 2 146.933 87.3117 0.208901
919 2 151.112 87.3175 15.8943
920 2 155.078 87.2675 15.7111
921 2 0.57184 91.4404 0.26815
922 2 4.4407 91.3849 0.184125
923 2 8.30386 91.379 16.2809
924 2 12.2756 91.28 16.0239
925 2 16.2262 91.0654 0.160927
926 2 20.2012 90.8947 0.258403
927 2 23.9545 90.9802 15.9455
928 2 27.8017 90.9209 16.0348
929 2 31.7662 91.0162 15.9813
930 2 35.5821 90.972 0.23341
931 2 39.6275 90.7949 15.9858
932 2 43.4493 90.7843 16.0018
933 2 47.448 90.7053 0.232377
934 2 51.2232 90.7192 -0.0552671
935 2 55.0445 90.5949 0.115187
936 2 59.1823 90.5351 0.0369943
937 2 62.9296 90.427 -0.139018
938 2 66.7719 90.4246 15.8768
939 2 70.8729 90.5786 15.9569
940 2 74.736 90.3538 0.261842
941 2 78.8478 90.2837 0.232634
942 2 82.678 90.4594 0.136212
943 2 86.8058 90.3795 0.058833
944 2 90.6606 90.3408 0.0894704
945 2 94.8587 90.5282 15.805
946 2 98.8496 90.2948 15.7808
947 2 102.886 90.4842 0.253999
948 2 106.766 90.5113 16.0217
949 2 110.876 90.5202 16.089
950 2 114.798 90.5456 0.39445
951 2 118.842 90.7749 0.278492
952 2 122.887 90.7707 16.0005
953 2 127.012 90.8293 0.485124
954 2 130.989 90.994 0.251395
955 2 134.773 90.7844 15.929
956 2 138.78 91.1865 16.1187
957 2 142.823 91.1885 15.9217
958 2 146.832 91.1228 16.1449
959 2 150.966 91.1038 16.0152
960 2 154.97 91.2204 16.0076
961 2 0.498048 95.2198 -0.00454535
962 2 4.39324 95.0885 15.8576
963 2 8.34001 95.0756 15.9831
964 2 12.3776 95.4121 15.9246
965 2 16.2755 95.0772 16.0041
966 2 20.2249 95.1836 15.9291
967 2 24.1446 94.9531 16.0668
968 2 27.89 95.0223 15.9488
969 2 31.7525 94.9759 16.0107
970 2 35.7107 94.878 15.7681
971 2 39.5694 94.7222 15.8657
972 2 43.5929 94.6677 15.9382
973 2 47.5249 94.5504 0.363872
974 2 51.3833 94.6099 15.8568
975 2 55.2367 94.6165 -0.00912115
976 2 59.166 94.5236 15.8201
977 2 63.1968 94.4759 -0.0891064
978 2 66.9949 94.2756 0.024399
979 2 70.9013 94.3736 0.219498
980 2 74.8144 94.3379 0.136573
981 2 78.7539 94.2562 15.7879