ITEM: TIMESTEP
23400
ITEM: NUMBER OF ATOMS
32000
ITEM: BOX BOUNDS xy xz yz pp pp pp
0.0000000000000000e+00 1.5831999999999999e+02 0.0000000000000000e+00
0.0000000000000000e+00 1.5831999999999999e+02 0.0000000000000000e+00
1.6648728256893097e-01 1.5931224717430894e+01 0.0000000000000000e+00
ITEM: ATOMS id type x y z
1 2 157.907 157.918 15.6859
2 2 3.61909 157.816 16.1013
3 2 7.59849 157.923 0.043727
4 2 11.6843 158.104 0.0540656
5 2 15.5131 157.869 0.15627
6 2 19.5904 157.955 15.9089
7 2 23.4897 158.256 15.8004
8 2 27.887 158.317 15.7081
9 2 31.7926 158.27 0.097809
10 2 35.8048 158.311 15.981
11 2 39.6369 -0.215841 16.2168
12 2 43.6665 -0.113322 0.356474
13 2 47.619 0.149026 16.02
14 2 51.7416 0.0538864 0.0179886
15 2 55.7445 158.264 0.361818
16 2 59.8824 158.385 15.7933
17 2 63.7967 0.0806587 15.9814
18 2 67.5011 0.296234 15.9286
19 2 71.4636 0.0670265 15.9768
20 2 75.5295 158.133 15.9435
21 2 79.3656 0.0147475 15.7629
22 2 83.2947 158.169 15.8282
23 2 87.2715 158.003 15.9763
24 2 91.0842 158.145 0.12986
25 2 94.9379 158.089 15.9658
26 2 98.9608 157.97 15.8078
27 2 102.858 157.795 15.8722
28 2 106.728 157.893 15.8949
29 2 110.6 157.962 -0.12721
30 2 114.307 157.922 0.267035
31 2 118.548 157.913 15.8112
32 2 122.506 157.76 -0.0443344
33 2 126.239 157.541 -0.17973
34 2 130.072 157.82 0.0076187
35 2 134.073 157.477 16.0661
36 2 138.097 157.732 15.7923
37 2 142.145 157.838 16.0111
38 2 146.034 157.576 16.044
39 2 150.079 157.765 0.00329637
40 2 153.932 157.567 0.209232
41 2 157.775 3.3549 15.8754
42 2 3.63737 3.42709 16.0864
43 2 7.69477 3.44189 0.0424588
44 2 11.7013 3.50354 15.926
45 2 15.7229 3.53848 15.815
46 2 19.6342 3.77779 15.7814
47 2 23.5906 3.69901 -0.104863
48 2 27.669 3.66157 0.0534768
49 2 31.7058 3.81975 0.125955
50 2 35.5573 3.87978 0.172963
51 2 39.6666 3.89026 0.296245
52 2 43.7256 3.70399 16.0387
53 2 47.6602 3.87951 16.0557
54 2 51.7321 3.9424 15.8256
55 2 55.4821 3.87494 -0.0832778
56 2 59.7485 4.14614 16.0205
57 2 63.6827 3.95018 15.9653
58 2 67.8142 4.12001 15.9136
59 2 71.5079 4.24468 15.9092
60 2 75.3818 4.1397 15.8669
61 2 79.3238 3.9089 15.9854
62 2 83.2788 3.90195 15.7845
63 2 87.159 3.83271 15.9376
64 2 91.2826 3.66634 0.102647
65 2 94.9561 3.74153 16.0433
66 2 99.104 3.64788 0.141027
67 2 102.862 3.58136 15.9239
68 2 106.699 3.59221 15.7928
69 2 110.77 3.55948 0.141613
70 2 114.598 3.79109 -0.053701
71 2 118.289 3.46912 0.104204
72 2 122.401 3.38705 0.141996
73 2 126.445 3.64542 -0.088176
74 2 130.347 3.22737 0.247377
75 2 134.111 3.27406 16.0753
76 2 138.209 3.49667 0.170056
77 2 142.077 3.14425 0.13912
78 2 145.84 3.31499 0.156978
79 2 149.793 3.15607 16.1496
80 2 154.007 3.31067 15.83
81 2 157.862 7.42541 15.7449
82 2 3.55674 7.38044 15.8621
83 2 7.4689 7.30163 15.9468
84 2 11.6017 7.63143 0.0772407
85 2 15.5324 7.62355 15.886
86 2 19.508 7.45729 15.9737
87 2 23.6547 7.5686 -0.0763824
88 2 27.4877 7.70118 15.898
89 2 31.5005 7.74022 15.8733
90 2 35.7123 7.78683 16.044
91 2 39.6019 7.93022 0.217526
92 2 43.6677 7.9093 0.324978
93 2 47.7212 7.72186 16.1451
94 2 51.6799 7.82012 0.0582645
95 2 55.7509 7.94095 15.9698
96 2 59.4926 7.85677 0.270195
97 2 63.7498 8.22829 16.0953
98 2 67.73 7.97486 15.9279
99 2 71.5997 7.93416 15.8181
100 2 75.7075 8.15871 15.7948
101 2 79.5765 7.84816 -0.0038004
102 2 83.4124 7.7225 15.7995
103 2 87.2401 7.77465 15.7466
104 2 91.2177 7.7477 15.8648
105 2 95.1955 7.77125 15.8562
106 2 99.0188 7.76415 0.113011
107 2 102.648 7.62552 0.0167603
108 2 106.705 7.65126 15.9177
109 2 110.832 7.64655 0.24251
110 2 114.745 7.49956 15.8721
111 2 118.761 7.43953 15.9341
112 2 122.524 7.35206 15.8767
113 2 126.402 7.52736 15.8689
114 2 130.216 7.47219 0.06534
115 2 134.183 7.35501 -0.0125842
116 2 138.102 7.35036 15.9692
117 2 142.091 7.48162 15.8209
118 2 145.798 7.16026 0.286772
119 2 149.97 7.20066 0.238763
120 2 153.846 7.29837 15.6751
121 2 158.014 11.2899 16.0062
122 2 3.55655 11.3028 16.0007
123 2 7.4053 11.2043 15.9576
124 2 11.5863 11.3814 0.16756
125 2 15.5747 11.5374 15.9499
126 2 19.619 11.4143 15.9884
127 2 23.4977 11.4546 15.8976
128 2 27.4906 11.527 16.0062
129 2 31.5518 11.7073 15.9145
130 2 35.6207 11.7079 16.123
131 2 39.5447 11.7817 15.9794
132 2 43.5461 11.6159 0.195878
133 2 47.6435 11.7352 0.433693
134 2 51.5124 11.7697 15.9365
135 2 55.5128 11.7848 0.134454
136 2 59.5061 12.1054 15.9054
137 2 63.4619 11.9537 0.300454
138 2 67.676 11.9025 16.0996
139 2 71.6292 11.9864 15.8068
140 2 75.4859 11.9098 16.0333
141 2 79.733 12.1429 16.053
142 2 83.4128 11.9326 15.8956
143 2 87.4939 11.9417 0.0656897
144 2 91.0551 11.6487 0.047748
145 2 95.1366 11.7219 15.7782
146 2 99.0944 11.5093 15.72
147 2 102.841 11.779 0.0445441
148 2 106.921 11.6563 15.6726
149 2 110.935 11.6587 -0.00915545
150 2 114.796 11.5207 15.7887
151 2 118.818 11.486 0.108119
152 2 122.594 11.4719 0.0302322
153 2 126.468 11.4406 15.8873
154 2 130.264 11.3904 15.8848
155 2 134.153 11.4472 0.234276
156 2 138.137 11.44 0.283161
157 2 142.221 11.1698 0.227295
158 2 146.034 11.0821 0.225103
159 2 150.066 11.2803 0.111398
160 2 154.024 11.3239 0.122739
161 2 158.046 15.314 16.0022
162 2 3.66681 15.262 16.0028
163 2 7.50274 15.2561 15.9867
164 2 11.6318 15.1662 15.9372
165 2 15.6778 15.5024 16.0005
166 2 19.4863 15.3929 0.133571
167 2 23.5078 15.3583 0.0703915
168 2 27.5296 15.3308 15.9964
169 2 31.586 15.3297 0.0274041
170 2 35.6808 15.4361 15.9114
171 2 39.5874 15.5568 0.262472
172 2 43.6137 15.581 0.337222
173 2 47.5067 15.7195 0.29937
174 2 51.6117 15.6454 -0.00745294
175 2 55.6488 15.7659 16.0575
176 2 59.5476 15.744 0.161307
177 2 63.6292 15.7624 15.948
178 2 67.5379 15.7904 16.27
179 2 71.677 15.836 0.145306
180 2 75.4462 15.8741 0.155697
181 2 79.5318 15.9712 16.0014
182 2 83.6504 15.9238 0.115803
183 2 87.4549 15.9731 15.8044
184 2 91.2097 15.7739 0.224711
185 2 95.0697 15.8014 15.7654
186 2 98.9747 15.7607 16.0047
187 2 102.986 15.6082 15.6135
188 2 106.89 15.4293 15.912
189 2 110.911 15.3525 15.9413
190 2 114.734 15.5281 15.8087
191 2 118.709 15.5095 0.10074
192 2 122.644 15.5303 15.8573
193 2 126.476 15.4879 16.154
194 2 130.41 15.3191 0.203923
195 2 134.355 15.4648 0.193465
196 2 138.162 15.4547 0.148412
197 2 142.076 15.4251 15.805
198 2 145.973 15.2831 0.31083
199 2 149.903 15.1585 0.321186
200 2 153.941 15.1953 15.9466
201 2 157.816 19.2618 16.0466
202 2 3.68005 19.3018 0.128905
203 2 7.46456 19.37 0.142131
204 2 11.5496 19.1268 15.7057
205 2 15.4823 19.3199 15.7358
206 2 19.5288 19.3334 15.8663
207 2 23.4043 19.2738 15.7157
208 2 27.5084 19.3553 15.9352
209 2 31.5429 19.2055 15.7632
210 2 35.4417 19.376 16.1435
211 2 39.1948 19.5578 0.437981
212 2 43.5157 19.5275 16.1611
213 2 47.5299 19.5229 15.9827
214 2 51.4142 19.5968 0.238375
215 2 55.5053 19.5731 15.9731
216 2 59.3837 19.6909 15.9733
217 2 63.4825 19.6384 16.1732
218 2 67.3381 19.7213 16.029
219 2 71.3747 19.586 0.149729
220 2 75.5876 19.813 0.108411
221 2 79.621 19.8355 0.129859
222 2 83.6346 19.8664 16.1196
223 2 87.6403 19.9756 0.0484691
224 2 91.3473 19.9333 0.0778419
225 2 95.4193 19.7811 15.6844
226 2 99.2896 19.6722 15.9177
227 2 103.007 19.7383 16.0775
228 2 107.084 19.5909 15.8303
229 2 110.832 19.5524 0.110401
230 2 114.617 19.5577 15.7224
231 2 118.632 19.4699 15.8971
232 2 122.501 19.3965 15.9702
233 2 126.322 19.2355 15.9759
234 2 130.356 19.4825 15.8605
235 2 134.389 19.3695 0.179105
236 2 138.026 19.4022 15.877
237 2 142.296 19.505 15.9052
238 2 146.063 19.2983 0.23264
239 2 149.925 19.298 15.8649
240 2 153.781 19.1802 0.435629
241 2 157.967 23.1784 16.0364
242 2 3.55616 23.1386 15.8811
243 2 7.57501 23.173 0.105174
244 2 11.3467 22.9364 0.174988
245 2 15.4844 23.045 15.8428
246 2 19.3835 23.2088 15.8724
247 2 23.1945 23.403 16.0365
248 2 27.2848 23.2787 16.0401
249 2 31.4291 23.1114 0.0560904
250 2 35.2073 23.2608 15.8752
251 2 39.3707 23.3512 0.0332753
252 2 43.5326 23.4174 15.8584
253 2 47.6649 23.5618 0.0649595
254 2 51.5725 23.4803 -0.0344322
255 2 55.5448 23.3656 0.150301
256 2 59.465 23.5908 15.9498
257 2 63.5094 23.6891 0.394265
258 2 67.422 23.8727 15.7989
259 2 71.4962 23.6278 15.7341
260 2 75.3867 23.7383 0.0711237
261 2 79.463 23.8732 15.9395
262 2 83.5717 23.8292 0.110051
263 2 87.5608 23.9332 15.8448
264 2 91.7052 23.9899 15.9944
265 2 95.2893 23.805 15.8215
266 2 99.2884 23.6265 0.412647
267 2 103.044 23.7192 15.9505
268 2 107.076 23.6325 15.8671
269 2 110.954 23.5104 0.18601
270 2 114.765 23.5776 16.0086
271 2 118.702 23.4321 15.8634
272 2 122.717 23.3767 0.228007
273 2 126.547 23.6043 16.0968
274 2 130.481 23.4583 16.3194
275 2 134.339 23.3568 16.0532
276 2 138.144 23.3658 16.0152
277 2 142.221 23.3088 15.8173
278 2 146.166 23.3241 0.221514
279 2 149.877 23.418 0.222667
280 2 153.935 23.111 0.3052
281 2 157.855 27.08 0.0269421
282 2 3.60646 27.1024 0.174763
283 2 7.3954 27.138 0.12818
284 2 11.6574 26.9811 15.819
285 2 15.3856 27.1993 15.8907
286 2 19.3341 27.0727 0.0641085
287 2 23.3465 27.0885 15.9364
288 2 27.3637 27.02 15.7541
289 2 31.2756 27.0448 -0.0534006
290 2 35.3163 27.246 0.0519334
291 2 39.2001 27.1177 0.187135
292 2 43.3334 27.3636 0.251928
293 2 47.4024 27.3644 0.259776
294 2 51.2745 27.3027 16.2186
295 2 55.511 27.4261 0.344187
296 2 59.4773 27.4602 16.0533
297 2 63.4637 27.5117 15.9284
298 2 67.3704 27.6606 15.6626
299 2 71.4202 27.6189 15.9856
300 2 75.3736 27.7101 0.309746
301 2 79.6159 27.8724 0.121996
302 2 83.5833 27.6973 15.812
303 2 87.4924 27.6554 0.104542
304 2 91.3558 28.1379 0.198492
305 2 95.3356 27.9611 -0.172731
306 2 99.2898 27.6396 0.107016
307 2 103.253 27.6997 15.985
308 2 106.946 27.6852 0.220502
309 2 110.989 27.4591 16.0287
310 2 114.862 27.6863 15.8651
311 2 118.963 27.5568 0.152273
312 2 122.651 27.5688 0.189105
313 2 126.732 27.4104 15.9351
314 2 130.495 27.3853 15.9789
315 2 134.373 27.4302 16.0337
316 2 138.295 27.4463 15.8482
317 2 142.182 27.3377 0.350999
318 2 146.145 27.2342 0.217523
319 2 150.158 27.3169 0.328839
320 2 154.221 27.1044 0.426572
321 2 158.05 31.098 16.0024
322 2 3.63021 31.1865 15.9325
323 2 7.59084 31.023 15.9203
324 2 11.4045 30.8771 0.0812758
325 2 15.4827 31.1251 0.313603
326 2 19.2181 30.9314 15.9471
327 2 23.2306 31.1564 16.0276
328 2 27.3129 30.7335 0.187475
329 2 31.2409 31.0073 15.8839
330 2 35.1583 31.2938 15.8416
331 2 39.2622 31.1572 16.0767
332 2 43.1831 31.2309 0.408619
333 2 47.4507 31.0778 15.8919
334 2 51.4077 31.2658 0.402641
335 2 55.4107 31.3858 15.9582
336 2 59.3465 31.4518 0.19202
337 2 63.5317 31.4007 15.963
338 2 67.4232 31.4131 0.165805
339 2 71.3797 31.5987 0.117147
340 2 75.5426 31.5608 0.254104
341 2 79.6134 31.6371 16.0425
342 2 83.4223 31.3404 0.25277
343 2 87.4829 31.6758 16.1033
344 2 91.5062 31.7076 15.9079
345 2 95.2738 31.8241 15.8006
346 2 99.216 31.8763 0.0624387
347 2 103.215 31.6877 15.8466
348 2 107.238 31.7624 15.9131
349 2 110.961 31.6199 16.0962
350 2 114.941 31.489 15.9337
351 2 118.898 31.6348 15.9616
352 2 122.877 31.6053 15.7739
353 2 126.735 31.5985 16.0822
354 2 130.387 31.5048 15.9078
355 2 134.498 31.3513 15.7971
356 2 138.31 31.4273 16.0097
357 2 142.479 31.3737 0.238736
358 2 146.272 31.3998 16.0347
359 2 150.121 31.3507 0.260394
360 2 154.146 31.1183 0.254312
361 2 -0.312433 35.1333 0.205723
362 2 3.76823 35.1549 15.8399
363 2 7.7537 35.0339 15.9154
364 2 11.5922 34.9363 15.9997
365 2 15.3058 35.0267 0.295757
366 2 19.4148 35.0305 0.30385
367 2 23.4071 34.9069 0.251327
368 2 27.1173 34.917 0.117811
369 2 31.2967 34.9705 0.0842197
370 2 35.4403 35.1369 -0.000304359
371 2 39.2446 35.2923 0.0875053
372 2 43.2848 34.9564 16.1004
373 2 47.3823 35.1543 16.0614
374 2 51.4168 35.2604 15.798
375 2 55.5124 35.3277 0.299167
376 2 59.3417 35.1836 0.144845
377 2 63.3805 35.3351 15.9472
378 2 67.5525 35.1185 0.109322
379 2 71.2434 35.5417 0.284071
380 2 75.4431 35.4861 15.9889
381 2 79.1681 35.4692 0.247562
382 2 83.4568 35.6897 15.8961
383 2 87.1827 35.6758 0.131593
384 2 91.3999 35.9239 0.2638
385 2 95.3472 35.6867 16.0345
386 2 99.4711 35.9195 0.232389
387 2 103.236 35.7142 15.9237
388 2 107.225 35.7926 15.9726
389 2 111.101 35.6069 15.9998
390 2 114.884 35.572 16.0535
391 2 119.045 35.6514 15.8802
392 2 122.865 35.472 15.9375
393 2 126.713 35.306 16.0151
394 2 130.639 35.5169 16.1112
395 2 134.722 35.408 15.719
396 2 138.52 35.3213 0.155283
397 2 142.426 35.3548 0.0125529
398 2 146.461 35.4334 0.0444082
399 2 150.258 35.2651 15.8087
400 2 154.161 35.1605 0.290336
401 2 158.162 39.15 0.347829
402 2 3.7208 39.3819 0.0942722
403 2 7.69873 39.0998 0.221747
404 2 11.5077 39.0188 15.7988
405 2 15.4948 39.0753 0.241137
406 2 19.367 39.047 15.8912
407 2 23.3112 38.9177 16.1833
408 2 27.0594 38.7108 15.8671
409 2 31.3597 38.7626 0.293794
410 2 35.2075 39.124 0.136446
411 2 39.3806 39.1307 15.9408
412 2 43.2977 39.0967 0.0261054
413 2 47.3722 38.945 0.134721
414 2 51.358 39.0716 15.9699
415 2 55.3388 39.1919 0.187283
416 2 59.153 39.2091 0.304217
417 2 63.2763 39.1082 0.184816
418 2 67.4358 39.1983 -0.0229851
419 2 71.4085 39.2663 0.25055
420 2 75.2994 39.5736 0.110624
421 2 79.4816 39.3228 0.190915
422 2 83.2348 39.3429 16.1712
423 2 87.2502 39.3415 16.0117
424 2 91.4614 39.7222 15.7329
425 2 95.5166 39.7185 15.9134
426 2 99.5282 39.6697 0.24679
427 2 103.387 39.9212 16.0256
428 2 107.054 39.6479 15.6624
429 2 111.349 39.5808 15.981
430 2 115.122 39.5123 15.9685
431 2 119.068 39.6161 15.9122
432 2 122.967 39.6202 15.994
433 2 126.873 39.4009 0.139228
434 2 130.545 39.7425 15.8058
435 2 134.697 39.3503 15.9483
436 2 138.438 39.2511 15.8111
437 2 142.362 39.3283 15.7373
438 2 146.334 39.4539 0.228562
439 2 150.393 39.2888 15.7787
440 2 154.153 39.2153 15.8435
441 2 158.139 43.3249 0.101284
442 2 3.54328 43.3321 16.1763
443 2 7.66786 43.1196 16.0408
444 2 11.4787 43.1101 0.163419
445 2 15.6594 43.0354 0.256537
446 2 19.5338 42.9451 0.232359
447 2 23.4758 43.037 16.105
448 2 27.2711 42.8331 15.926
449 2 31.2997 42.6208 0.175074
450 2 35.2591 42.9673 0.206202
451 2 39.1535 42.7294 -0.118794
452 2 43.1218 42.8141 0.0926359
453 2 47.1281 42.9631 15.8437
454 2 51.1483 42.8633 15.9958
455 2 55.1262 42.9706 0.456855
456 2 59.4244 43.0617 16.1442
457 2 63.4774 43.2803 0.328619
458 2 67.3164 43.1257 0.189656
459 2 71.2142 43.1777 0.158134
460 2 75.3399 43.1719 0.195481
461 2 79.2579 43.2435 0.224256
462 2 83.1735 43.1728 16.0501
463 2 87.3397 43.3885 15.8979
464 2 91.2412 43.5697 0.125331
465 2 95.3932 43.4024 0.0871586
466 2 99.417 43.7512 15.8081
467 2 103.311 43.7291 16.0387
468 2 107.258 43.6278 15.8584
469 2 111.177 43.5012 15.7726
470 2 115.123 43.5791 15.8046
471 2 118.838 43.5632 15.7999
472 2 122.903 43.532 15.675
473 2 126.772 43.5626 0.195909
474 2 130.584 43.5014 0.0520556
475 2 134.7 43.392 15.806
476 2 138.793 43.4068 15.7519
477 2 142.698 43.3551 15.7171
478 2 146.407 43.4011 0.344342
479 2 150.283 43.1727 0.323301
480 2 154.092 43.3295 0.0873308
481 2 -0.138537 47.3464 0.0313019
482 2 3.64267 47.1145 0.0336713
483 2 7.77784 47.1618 0.242839
484 2 11.3836 47.151 0.17269
485 2 15.4422 46.8983 0.11305
486 2 19.2807 46.9613 0.119329
487 2 23.5449 46.9334 0.396252
488 2 27.3657 46.8838 15.9756
489 2 31.1034 46.7057 0.295394
490 2 35.0052 46.7043 0.157823
491 2 39.1816 46.9376 15.845
492 2 43.0866 46.7239 15.8951
493 2 47.2469 46.9831 0.122089
494 2 50.9579 46.7639 15.976
495 2 55.3165 46.8344 16.0973
496 2 59.2307 46.899 15.7543
497 2 63.3187 46.9764 0.221868
498 2 67.2714 47.1439 0.177369
499 2 71.2755 47.1456 15.9139
500 2 75.1572 47.2862 0.259166
501 2 79.327 47.2072 16.1857
502 2 83.2813 47.3823 16.0493
503 2 87.1828 47.4547 0.215864
504 2 91.2216 47.4797 0.362794
505 2 95.025 47.4998 0.178596
506 2 99.2821 47.5405 0.141896
507 2 103.234 47.4134 0.235642
508 2 107.286 47.6501 15.9199
509 2 111.036 47.4798 15.7573
510 2 115.173 47.5403 0.15163
511 2 119.229 47.4912 15.8915
512 2 122.936 47.5619 15.9615
513 2 126.771 47.3904 15.9025
514 2 130.939 47.3739 15.9287
515 2 134.972 47.4792 15.9574
516 2 138.598 47.3917 16.0357
517 2 142.358 47.3118 15.9952
518 2 146.307 47.3157 0.195416
519 2 150.213 47.2187 0.0656927
520 2 154.354 47.2818 15.912
521 2 158.146 51.2088 0.0452336
522 2 3.88057 51.0504 16.0915
523 2 7.9561 51.0274 15.9146
524 2 11.7058 50.9737 15.8437
525 2 15.5726 51.0194 0.308087
526 2 19.5387 51.0738 15.9837
527 2 23.4867 50.7597 15.9197
528 2 27.3092 50.8147 16.055
529 2 31.3318 50.7851 0.138155
530 2 35.1738 50.8472 0.168422
531 2 39.1335 50.7583 15.8975
532 2 43.3242 50.7024 16.0739
533 2 47.1782 50.9258 0.425618
534 2 51.0098 50.7703 0.429696
535 2 55.1222 50.894 0.278321
536 2 59.2227 50.8426 15.8464
537 2 63.1845 51.0428 15.718
538 2 67.1458 51.1367 0.161247
539 2 71.1358 51.0664 0.0579468
540 2 75.0847 50.9447 0.150551
541 2 79.1871 51.252 0.26523
542 2 83.2155 51.068 0.295464
543 2 87.237 51.3091 0.0456762
544 2 91.2976 51.321 0.116442
545 2 95.1246 51.4369 0.0961781
546 2 99.0762 51.2976 0.0788777
547 2 103.251 51.6326 15.9059
548 2 107.209 51.6231 0.260834
549 2 111.369 51.5304 0.292411
550 2 115.33 51.615 15.9577
551 2 119.325 51.4985 15.9522
552 2 122.956 51.6394 15.9753
553 2 127.058 51.3636 15.7416
554 2 130.782 51.3541 0.21613
555 2 134.783 51.6341 -0.12374
556 2 138.761 51.3518 0.0897024
557 2 142.738 51.4318 0.169605
558 2 146.35 51.3152 15.9517
559 2 150.332 51.2376 0.176369
560 2 154.387 51.088 0.286755
561 2 158.369 55.2394 0.2116
562 2 3.91576 55.3773 0.247111
563 2 7.86312 55.279 -0.0808705
564 2 11.6294 55.0752 0.2513
565 2 15.6667 54.9808 0.237803
566 2 19.5339 54.7758 16.0685
567 2 23.6848 55.1934 16.2017
568 2 27.3905 54.6908 15.9887
569 2 31.4152 54.7035 0.302551
570 2 35.3192 54.663 0.124663
571 2 39.0752 54.6063 16.1918
572 2 43.1602 54.6754 15.8993
573 2 47.1526 54.6768 0.0606535
574 2 51.1692 54.6896 16.0923
575 2 55.1241 54.7483 15.7436
576 2 59.0267 54.8461 16.0344
577 2 63.0021 54.8412 15.9412
578 2 67.0837 55.0526 0.350145
579 2 71.0629 55.0684 0.25642
580 2 75.1352 54.9076 16.0521
581 2 79.1475 55.2453 0.153753
582 2 83.3154 55.1103 0.166205
583 2 87.1227 55.2984 0.0261082
584 2 91.0714 55.1126 16.0445
585 2 95.1508 55.4361 0.231375
586 2 99.2568 55.1816 15.7995
587 2 103.369 55.4222 16.0357
588 2 107.294 55.3495 0.287611
589 2 111.261 55.6116 16.1577
590 2 115.173 55.5037 15.8254
591 2 119.161 55.5674 15.8436
592 2 123.263 55.7614 0.215624
593 2 126.838 55.5532 15.8668
594 2 130.887 55.3408 15.9889
595 2 134.923 55.483 0.188862
596 2 138.864 55.4451 15.8741
597 2 142.619 55.5734 0.0550106
598 2 146.614 55.3699 0.172579
599 2 150.56 55.3626 0.126109
600 2 154.252 55.3712 15.8538
601 2 158.293 59.2391 0.000790052
602 2 3.91373 59.2767 15.8772
603 2 7.83768 59.3116 15.9723
604 2 11.7882 59.0578 0.246803
605 2 15.6239 59.0772 15.9185
606 2 19.5681 58.8695 0.194976
607 2 23.601 58.777 0.224312
608 2 27.5606 59.0099 0.185079
609 2 31.2865 58.8281 16.0121
610 2 35.2971 58.7572 15.934
611 2 39.153 58.72 15.809
612 2 43.1831 58.5644 15.8565
613 2 47.0536 58.7153 15.9817
614 2 51.2796 58.6841 16.0976
615 2 54.8941 58.6909 15.8377
616 2 58.9917 58.7186 0.244432
617 2 63.06 58.6051 16.1694
618 2 67.1169 58.7791 0.180227
619 2 71.152 58.832 15.9108
620 2 75.0382 58.8276 0.309164
621 2 78.8856 58.8836 0.284329
622 2 83.0997 58.9226 0.220076
623 2 87.0272 59.0897 15.9916
624 2 91.0208 58.9926 15.9817
625 2 95.0775 59.2356 0.184143
626 2 99.1887 59.3594 0.183339
627 2 103.262 59.3131 16.0167
628 2 107.3 59.4941 0.248853
629 2 111.32 59.5423 16.0582
630 2 115.063 59.33 15.9311
631 2 119.18 59.3291 15.9057
632 2 123.229 59.5109 0.276578
633 2 127.076 59.4872 15.8571
634 2 131.106 59.3886 -0.0934608
635 2 134.872 59.3717 16.1673
636 2 138.999 59.465 0.180076
637 2 142.529 59.3711 0.249018
638 2 146.445 59.3628 0.226816
639 2 150.234 59.3276 16.0963
640 2 154.55 59.3471 0.215862
641 2 0.0276489 63.5308 0.17355
642 2 4.07236 63.2315 0.231514
643 2 8.17946 63.1575 15.9137
644 2 12.0305 63.0683 15.702
645 2 15.9416 63.0733 15.928
646 2 19.5854 62.9604 0.197746
647 2 23.8515 62.9713 0.237053
648 2 27.6669 62.9416 0.0619041
649 2 31.4331 62.7567 0.225898
650 2 35.3389 62.7376 0.0799344
651 2 39.3217 62.6489 15.8369
652 2 43.3458 62.7461 0.169698
653 2 47.1052 62.5247 15.974
654 2 50.9761 62.5406 15.969
655 2 55.0305 62.6782 0.201741
656 2 59.1124 62.5302 16.049
657 2 62.9329 62.7278 0.398402
658 2 66.9861 62.7165 15.9081
659 2 71.066 62.8169 0.183919
660 2 75.0081 62.7392 0.343142
661 2 79.0379 62.9726 0.174416
662 2 83.0609 62.949 0.150784
663 2 87.0202 62.8335 16.0913
664 2 90.9977 62.8857 16.1044
665 2 95.0951 62.9924 0.150116
666 2 99.0992 63.1209 0.215583
667 2 103.158 63.2602 15.9657
668 2 107.018 63.206 16.0796
669 2 111.327 63.4721 15.9848
670 2 115.154 63.4545 0.0358169
671 2 119.119 63.3786 16.0765
672 2 123.214 63.4455 0.0923711
673 2 127.252 63.6092 15.9072
674 2 131.124 63.4256 0.171237
675 2 135.269 63.5877 16.0697
676 2 139.104 63.432 15.6171
677 2 142.743 63.1807 16.0345
678 2 146.676 63.2431 0.163961
679 2 150.482 63.2566 15.7059
680 2 154.605 63.2836 0.0500879
681 2 0.379714 67.297 0.024092
682 2 4.13803 67.2053 0.0974302
683 2 8.0864 67.1283 15.9821
684 2 12.1071 66.9645 15.863
685 2 16.0423 66.778 0.235358
686 2 19.8723 66.885 0.324847
687 2 23.6524 66.7938 0.118273
688 2 27.3949 66.9466 0.200313
689 2 31.4262 66.8462 0.0875275
690 2 35.3787 66.879 0.171564
691 2 39.2535 66.6719 15.8711
692 2 43.1398 66.6692 0.0861816
693 2 46.9437 66.4461 16.0658
694 2 51.0272 66.6348 15.9966
695 2 55.0223 66.4661 16.036
696 2 59.021 66.6323 16.2441
697 2 62.9493 66.5118 16.0463
698 2 67.0142 66.5099 15.9783
699 2 71.0584 66.7902 0.0813497
700 2 75.0332 66.9171 15.9227
701 2 79.0526 66.8746 15.7822
702 2 82.9722 66.9258 0.111437
703 2 87.0681 66.925 15.8421
704 2 90.9196 66.9429 15.8818
705 2 95.1323 66.8614 0.310137
706 2 99.1318 67.1105 0.0528373
707 2 103.012 67.0522 0.0744378
708 2 107.063 67.4416 16.0482
709 2 110.922 67.1781 16.0703
710 2 115.072 67.2805 15.8955
711 2 119.033 67.2937 0.142165
712 2 123.192 67.4637 0.175548
713 2 127.095 67.3624 0.0376104
714 2 131.143 67.5488 16.0507
715 2 135.214 67.5015 0.074271
716 2 139.174 67.4238 0.149668
717 2 142.956 67.4407 15.8616
718 2 146.851 67.2607 15.8811
719 2 150.711 67.3461 15.7016
720 2 154.737 67.3143 0.146263
721 2 0.19916 71.4134 -0.156605
722 2 4.17269 71.1816 15.9217
723 2 8.19877 71.0974 0.147503
724 2 12.0411 71.0466 15.7465
725 2 15.7067 71.0467 0.0240629
726 2 19.773 71.044 0.200394
727 2 23.7178 70.9336 0.277168
728 2 27.6448 70.9529 15.9627
729 2 31.4485 70.8039 0.128222
730 2 35.5876 70.7865 0.196738
731 2 39.4096 70.6562 15.9415
732 2 43.2302 70.7415 0.0135976
733 2 47.3117 70.6042 15.9733
734 2 51.2368 70.4755 15.8979
735 2 54.9508 70.4585 0.269544
736 2 58.7911 70.5182 0.266916
737 2 62.7535 70.5077 0.1777
738 2 66.9297 70.5744 15.8875
739 2 71.0736 70.6061 15.99
740 2 75.0079 70.7237 16.0323
741 2 78.8429 70.7153 0.0795486
742 2 82.9306 70.9593 -0.0662096
743 2 86.9979 70.8117 15.9279
744 2 90.9976 70.7994 15.8463
745 2 95.0099 70.7433 15.567
746 2 99.0611 70.9289 15.917
747 2 103.107 70.9929 15.8426
748 2 106.951 71.2962 15.8745
749 2 111.045 71.3074 15.9569
750 2 115.032 71.257 0.136693
751 2 119.286 71.2511 15.9124
752 2 123.149 71.4022 0.204807
753 2 127.248 71.2799 16.0058
754 2 131.161 71.2663 15.9481
755 2 134.937 71.135 16.0549
756 2 139.011 71.3283 15.9747
757 2 142.932 71.3001 0.0482247
758 2 146.734 71.2737 0.112438
759 2 150.683 71.4679 0.206709
760 2 154.679 71.3158 15.8041
761 2 0.497476 75.0123 0.299513
762 2 4.36423 75.2268 15.9476
763 2 8.1996 75.0049 15.9082
764 2 12.0151 75.015 15.9511
765 2 15.948 75.2981 15.9259
766 2 20.0021 75.0678 15.92
767 2 23.9601 75.1049 15.9698
768 2 27.8355 74.9347 15.9618
769 2 31.4936 74.8849 -0.0219135
770 2 35.4769 74.7428 15.8872
771 2 39.3613 74.7024 15.6693
772 2 43.1738 74.6889 -0.0645343
773 2 47.2726 74.6048 15.7529
774 2 51.1089 74.6888 0.20371
775 2 55.0743 74.5385 15.9377
776 2 59.144 74.4867 15.9216
777 2 62.8924 74.4729 15.788
778 2 66.965 74.3978 0.326626
779 2 71.0123 74.6916 0.0473755
780 2 75.0007 74.6301 -0.0289235
781 2 78.9375 74.6929 0.078904
782 2 82.8427 74.5357 0.130538
783 2 86.984 74.7228 0.098806
784 2 90.7887 74.814 15.866
785 2 94.9135 74.693 15.8658
786 2 98.854 74.7815 0.0277679
787 2 102.799 74.9932 15.9058
788 2 107.052 75.0279 16.0602
789 2 111.033 75.1036 15.9697
790 2 115.06 75.1687 16.1411
791 2 119.192 75.2052 0.236286
792 2 123.063 75.347 15.8563
793 2 127.219 75.0886 15.832
794 2 130.975 75.3686 0.238302
795 2 134.924 75.187 16.1059
796 2 139.071 75.447 16.2594
797 2 143.083 75.3588 15.9749
798 2 147.108 75.2862 15.9396
799 2 150.975 75.3224 0.342338
800 2 154.779 75.3344 0.290531
801 2 0.400849 79.2433 0.195425
802 2 4.27394 79.2563 15.7515
803 2 8.09646 79.1022 0.212524
804 2 11.9171 79.1572 0.210941
805 2 15.8566 79.3148 15.9071
806 2 19.8101 79.1969 16.0027
807 2 23.7696 78.974 0.0997482
808 2 27.6915 79.0394 0.13119
809 2 31.6037 78.7845 0.107972
810 2 35.4666 78.5017 0.170192
811 2 39.3463 78.6974 15.977
812 2 43.2582 78.5573 15.9556
813 2 47.4006 78.5411 15.8973
814 2 51.2863 78.4878 0.188277
815 2 55.3721 78.5322 0.281727
816 2 59.2411 78.487 15.8818
817 2 62.8776 78.3906 15.9711
818 2 66.8875 78.3338 0.102961
819 2 71.0212 78.3283 15.8441
820 2 74.9047 78.5126 0.068547
821 2 78.7283 78.5196 15.6761
822 2 82.8606 78.4434 15.7106
823 2 86.8512 78.519 0.218129
824 2 90.9471 78.795 0.157719
825 2 94.8585 78.5845 0.122116
826 2 98.8323 78.837 15.9524
827 2 102.868 78.6685 15.8708
828 2 106.874 78.9693 0.0176946
829 2 110.837 78.9296 0.0477353
830 2 114.827 78.9304 0.1779
831 2 119.108 78.9701 0.100993
832 2 122.974 79.0633 15.9296
833 2 126.89 79.0557 0.263129
834 2 131.164 79.1532 15.9642
835 2 135.127 79.0869 0.210983
836 2 138.896 79.2127 15.9013
837 2 143.112 79.4121 15.9287
838 2 147.042 79.223 16.0108
839 2 150.818 79.3801 16.0111
840 2 155.043 79.5379 0.0339643
841 2 0.459969 83.2955 15.8316
842 2 4.49144 83.3371 15.9451
843 2 8.27308 83.1543 0.221396
844 2 12.0272 83.2006 15.6688
845 2 15.9586 83.1896 15.87
846 2 19.8867 83.1008 0.410454
847 2 23.7635 82.9112 15.9309
848 2 27.7774 82.8691 0.214603
849 2 31.7677 82.7312 15.9715
850 2 35.5374 82.8432 0.00344218
851 2 39.5642 82.6985 0.185207
852 2 43.482 82.8656 16.0307
853 2 47.2245 82.5399 0.105081
854 2 51.1078 82.4527 0.269879
855 2 55.0505 82.4377 0.279626
856 2 58.9775 82.44 16.0536
857 2 63.043 82.505 16.0107
858 2 66.9726 82.4144 15.9601
859 2 70.6632 82.1542 15.828
860 2 74.8326 82.3279 15.7025
861 2 78.8131 82.4163 15.8833
862 2 82.8488 82.3204 0.144398
863 2 86.9378 82.445 0.0902131
864 2 90.8272 82.4087 15.9544
865 2 94.7786 82.7574 0.268093
866 2 98.9477 82.7227 16.0249
867 2 102.731 82.7914 0.153443
868 2 106.971 82.8962 15.8105
869 2 110.875 82.9518 15.888
870 2 114.943 82.7724 15.873
871 2 118.653 82.8302 15.9156
872 2 122.977 82.8763 15.8138
873 2 127.084 83.1456 15.9468
874 2 131.067 83.1108 15.9346
875 2 135.069 83.2101 0.208836
876 2 138.937 83.2087 16.0098
877 2 143.036 83.2712 0.219525
878 2 147.052 83.3565 16.0108
879 2 151.105 83.4107 0.195876
880 2 154.989 83.4274 0.0383365
881 2 0.620416 87.1475 15.9192
882 2 4.29503 87.2692 0.292502
883 2 8.19503 87.1941 15.9288
884 2 12.165 87.2938 15.8989
885 2 16.0937 87.1554 16.0068
886 2 20.1014 86.9336 16.0358
887 2 23.8879 87.0231 15.845
888 2 27.8643 86.8206 0.235169
889 2 31.7868 86.8372 15.8764
890 2 35.6569 86.807 0.101764
891 2 39.579 86.6763 15.9476
892 2 43.4339 86.673 15.9138
893 2 47.5733 86.5723 15.9556
894 2 51.3905 86.4896 15.8686
895 2 55.3275 86.5207 16.0111
896 2 59.1601 86.4805 0.353466
897 2 63.0168 86.3356 0.170585
898 2 66.902 86.1785 16.0319
899 2 70.6825 86.2509 0.323641
900 2 74.8952 86.259 15.899
901 2 78.885 86.2925 0.0979855
902 2 82.7912 86.3704 0.00207766
903 2 86.7396 86.4856 15.907
904 2 90.7031 86.4322 15.8059
905 2 94.7109 86.5177 15.7715
906 2 98.7683 86.5484 15.9455
907 2 102.756 86.5804 0.177527
908 2 106.768 86.6109 0.0957417
909 2 110.72 86.7924 15.9314
910 2 114.898 86.6197 0.206133
911 2 118.727 86.7404 0.220881
912 2 122.827 86.7583 0.0869238
913 2 126.984 86.9721 16.0086
914 2 130.955 87.1766 15.9187
915 2 134.867 87.0852 15.9048
916 2 138.902 87.0533 15.8973
917 2 142.78 87.1728 16.2123
918 2 147.016 87.1632 0.145989
919 2 150.929 87.1334 15.8103
920 2 154.772 87.4156 15.9172
921 2 0.577217 91.2663 0.0310019
922 2 4.53363 91.1876 0.17269
923 2 8.36662 91.2995 15.8659
924 2 12.1894 91.2581 15.8162
925 2 16.2322 91.1898 0.179272
926 2 20.1118 91.0504 0.201288
927 2 24.121 90.9062 16.0892
928 2 28.1172 90.9578 16.0998
929 2 31.7639 90.7452 16.1464
930 2 35.7092 90.6828 0.457104
931 2 39.6405 90.7837 15.8824
932 2 43.716 90.6227 15.8985
933 2 47.4734 90.5794 0.175154
934 2 51.5579 90.6353 0.262772
935 2 55.474 90.4679 0.297025
936 2 59.0865 90.4261 0.477638
937 2 63.1566 90.4544 0.223874
938 2 67.0964 90.4849 15.959
939 2 70.8939 90.2552 15.9028
940 2 74.8779 90.2221 0.0988099
941 2 78.7676 90.2559 0.160134
942 2 82.8331 90.4727 0.232199
943 2 86.8184 90.2916 0.306289
944 2 90.8569 90.3047 0.192686
945 2 94.8067 90.3616 15.8525
946 2 98.8407 90.5835 15.8378
947 2 102.829 90.5387 0.192944
948 2 106.829 90.4585 15.8057
949 2 110.669 90.5536 16.027
950 2 114.938 90.6441 0.179367
951 2 118.87 90.6445 -0.0779029
952 2 122.918 90.8991 15.9841
953 2 126.958 90.9597 0.248552
954 2 130.821 90.8776 0.350291
955 2 134.98 91.0407 16.001
956 2 139.046 90.9234 15.7976
957 2 143.138 91.0288 15.9805
958 2 147.044 91.0434 16.1047
959 2 150.809 91.1547 15.8825
960 2 154.976 91.3287 16.1124
961 2 0.536113 95.3328 0.0267171
962 2 4.59835 95.3561 15.7711
963 2 8.44747 95.1917 15.7916
964 2 12.4325 94.9997 15.9218
965 2 16.2003 95.151 15.9048
966 2 20.203 95.0673 16.0504
967 2 24.1462 95.0139 16.1228
968 2 28.2183 94.8251 15.9698
969 2 31.9341 94.915 15.8234
970 2 35.9215 94.7354 15.9685
971 2 39.7643 94.726 15.8048
972 2 43.6724 94.7231 16.0216
973 2 47.6481 94.5326 0.284217
974 2 51.4336 94.5211 15.784
975 2 55.4687 94.7016 0.224057
976 2 59.3325 94.5251 16.0027
977 2 63.1927 94.3214 0.21121
978 2 67.2404 94.4465 0.160017
979 2 71.0225 94.3631 0.165849
980 2 74.8841 94.1687 0.0278941
981 2 78.9023 94.0797 15.8212
982 2 82.6856 94.2221 0.0738355