ITEM: TIMESTEP
23600
ITEM: NUMBER OF ATOMS
32000
ITEM: BOX BOUNDS xy xz yz pp pp pp
0.0000000000000000e+00 1.5831999999999999e+02 0.0000000000000000e+00
0.0000000000000000e+00 1.5831999999999999e+02 0.0000000000000000e+00
1.6301798640002740e-01 1.5934694013599810e+01 0.0000000000000000e+00
ITEM: ATOMS id type x y z
1 2 158.065 158.021 16.015
2 2 3.70876 157.958 15.7685
3 2 7.82481 157.742 0.194674
4 2 11.573 158.01 -0.0147093
5 2 15.8008 157.973 0.0610717
6 2 19.6393 157.884 15.9178
7 2 23.5925 157.985 15.8538
8 2 27.6603 158.114 15.857
9 2 31.5169 158.214 0.285312
10 2 35.7618 158.018 15.892
11 2 39.7462 -0.0968757 15.7889
12 2 43.7884 -0.193238 0.155385
13 2 47.6574 0.00131319 15.8181
14 2 51.7225 0.0819077 0.31885
15 2 55.6977 158.537 0.124788
16 2 59.7324 158.38 16.0943
17 2 63.7392 0.0328434 15.8389
18 2 67.5998 0.0838398 15.8252
19 2 71.5265 0.0419623 15.8171
20 2 75.3708 158.382 15.7433
21 2 79.2737 -0.240249 15.8964
22 2 83.4027 158.064 15.8409
23 2 87.1263 158.181 15.8189
24 2 91.1362 158.081 0.0552658
25 2 94.8953 158.171 15.7892
26 2 99.0375 157.97 15.9708
27 2 102.7 158.231 15.7777
28 2 106.842 157.97 15.6397
29 2 110.844 157.782 -0.0155183
30 2 114.564 157.85 -0.0908559
31 2 118.36 157.83 15.7826
32 2 122.451 157.676 0.130809
33 2 126.559 157.81 0.130738
34 2 130.501 157.598 0.268066
35 2 134.195 157.786 15.7704
36 2 138.017 157.626 16.0592
37 2 142.039 157.733 15.991
38 2 145.834 157.595 15.882
39 2 149.863 157.766 0.173885
40 2 154.194 158.006 0.0893092
41 2 157.992 3.54886 15.9324
42 2 3.69303 3.61211 15.7321
43 2 7.61703 3.56949 0.0943765
44 2 11.603 3.45411 15.6489
45 2 15.439 3.61123 15.9267
46 2 19.608 3.64052 15.9192
47 2 23.5634 3.59376 0.129826
48 2 27.4383 3.62627 0.0817332
49 2 31.4559 3.68292 0.231501
50 2 35.5926 3.7147 0.0984743
51 2 39.6681 3.8684 0.254765
52 2 43.721 3.78817 16.1418
53 2 47.5634 4.00597 15.9518
54 2 51.6667 3.92891 15.9912
55 2 55.7224 4.18055 0.35849
56 2 59.6731 4.04264 16.1073
57 2 63.6052 4.02475 15.7975
58 2 67.7253 4.0548 15.8509
59 2 71.3914 3.96717 15.8758
60 2 75.6658 4.11351 15.8913
61 2 79.5394 4.03315 16.0393
62 2 83.4666 3.96932 15.8375
63 2 87.109 3.86845 15.7714
64 2 91.1627 3.8622 0.00437543
65 2 95.0957 3.6554 15.6893
66 2 98.8179 3.75675 0.13633
67 2 102.812 3.70405 15.8247
68 2 106.884 3.61829 15.8333
69 2 110.747 3.44479 0.0308056
70 2 114.653 3.36466 -0.0202584
71 2 118.618 3.57022 -0.218792
72 2 122.544 3.46837 0.197344
73 2 126.355 3.41391 0.104757
74 2 130.333 3.36378 -0.0463261
75 2 134.19 3.43819 15.9693
76 2 138.034 3.32398 0.239523
77 2 141.857 3.30426 0.23986
78 2 146.178 3.42108 0.158489
79 2 149.935 3.63237 15.858
80 2 153.947 3.57673 15.901
81 2 158.042 7.43264 15.8846
82 2 3.59609 7.28276 15.9504
83 2 7.47499 7.67396 15.8324
84 2 11.4595 7.46998 0.00104201
85 2 15.4322 7.45654 15.7461
86 2 19.3571 7.5167 15.6417
87 2 23.6462 7.63246 0.309096
88 2 27.5374 7.52097 15.8996
89 2 31.6123 7.51574 16.0479
90 2 35.4366 7.59041 15.8455
91 2 39.4806 7.60444 0.0388
92 2 43.4213 7.76161 0.220992
93 2 47.514 7.83799 15.8715
94 2 51.6438 7.87551 0.429941
95 2 55.686 7.97818 15.923
96 2 59.6843 7.82687 0.284617
97 2 63.6922 7.94673 15.8888
98 2 67.7666 8.00148 15.8852
99 2 71.7222 7.97616 15.9028
100 2 75.4242 7.85125 16.1516
101 2 79.4348 7.95792 0.012519
102 2 83.4094 7.85423 15.8569
103 2 87.2161 7.78632 15.7778
104 2 91.1 7.806 15.7564
105 2 95.1254 7.78047 15.7611
106 2 99.116 7.72899 0.130991
107 2 103.011 7.71613 0.194898
108 2 106.91 7.6009 15.9169
109 2 110.867 7.58334 -0.123325
110 2 114.577 7.52862 15.937
111 2 118.342 7.58388 15.5739
112 2 122.401 7.52357 15.8522
113 2 126.221 7.37818 15.8694
114 2 130.251 7.47231 0.193561
115 2 134.333 7.40333 0.381382
116 2 138.345 7.19507 16.0299
117 2 142.282 7.50044 16.1969
118 2 145.962 7.51592 0.00861909
119 2 149.989 7.34484 0.204046
120 2 153.856 7.38543 16.0438
121 2 157.825 11.2289 15.8248
122 2 3.41601 11.2744 15.7475
123 2 7.49236 11.2119 15.7954
124 2 11.4812 11.4436 0.172438
125 2 15.2843 11.3292 15.7058
126 2 19.4094 11.6959 15.8595
127 2 23.4754 11.3937 16.0438
128 2 27.5788 11.4638 16.0309
129 2 31.5302 11.587 16.0014
130 2 35.5093 11.5002 16.0739
131 2 39.5205 11.4372 15.9791
132 2 43.4532 11.6698 0.0892646
133 2 47.6045 11.723 -0.0460922
134 2 51.6295 11.7894 16.1176
135 2 55.6751 11.8525 -0.0283154
136 2 59.7207 11.8404 15.9057
137 2 63.7866 11.7747 0.178169
138 2 67.587 12.036 15.8768
139 2 71.5596 12.09 16.1274
140 2 75.6585 12.1321 15.8085
141 2 79.4157 11.8399 15.7264
142 2 83.4219 11.8331 15.9892
143 2 87.3387 11.8904 0.0264713
144 2 91.2178 12.0162 0.15632
145 2 95.2157 11.8124 16.1377
146 2 99.1137 11.6694 16.0516
147 2 103.13 11.662 0.272272
148 2 106.843 11.6253 15.9144
149 2 110.604 11.755 0.103032
150 2 114.584 11.4981 15.9547
151 2 118.517 11.552 0.0616456
152 2 122.464 11.3626 0.151502
153 2 126.49 11.4865 15.866
154 2 130.251 11.4839 15.7662
155 2 134.363 11.3262 0.149187
156 2 138.415 11.3292 0.0976501
157 2 142.076 11.3781 0.285948
158 2 146.109 11.4003 0.242176
159 2 149.879 11.451 0.1931
160 2 153.639 11.0912 0.302335
161 2 157.8 15.0891 15.9478
162 2 3.46249 15.1249 15.9033
163 2 7.44042 15.2989 15.67
164 2 11.3042 15.3295 15.7281
165 2 15.2877 15.2377 15.7616
166 2 19.4717 15.3791 0.0753657
167 2 23.5156 15.6239 0.310144
168 2 27.4195 15.3998 15.8325
169 2 31.3056 15.5038 0.306418
170 2 35.4473 15.6524 16.0289
171 2 39.3193 15.4336 0.26977
172 2 43.4401 15.6347 0.331806
173 2 47.3529 15.6507 0.216066
174 2 51.5292 15.6009 0.19559
175 2 55.6591 15.6648 15.847
176 2 59.4291 15.6329 0.209096
177 2 63.5068 15.8121 15.8084
178 2 67.5886 15.8728 15.6984
179 2 71.639 16 0.283735
180 2 75.7473 16.0618 0.163989
181 2 79.4895 15.745 15.949
182 2 83.3751 15.8019 -0.128985
183 2 87.4055 15.9157 15.8042
184 2 91.3093 15.7822 -0.0739042
185 2 95.3001 15.7168 15.984
186 2 99.2636 15.8654 15.9443
187 2 103.041 15.6654 15.9627
188 2 107.061 15.6914 15.7585
189 2 110.858 15.7787 15.6493
190 2 114.684 15.585 15.956
191 2 118.616 15.5419 0.169067
192 2 122.665 15.4927 16.0316
193 2 126.463 15.5663 15.9657
194 2 130.457 15.4788 0.287114
195 2 134.272 15.2818 0.0869599
196 2 138.361 15.4485 0.148854
197 2 142.145 15.3802 16.0981
198 2 146.041 15.526 0.0478041
199 2 150.057 15.3875 0.105324
200 2 153.963 15.1661 15.833
201 2 157.858 19.1602 15.9271
202 2 3.49131 19.1232 0.102863
203 2 7.21506 19.1308 -0.00789967
204 2 11.3172 19.3379 15.8055
205 2 15.3522 19.1233 16.0725
206 2 19.4827 19.1892 15.7485
207 2 23.3594 19.2574 15.9659
208 2 27.3847 19.4574 15.8381
209 2 31.1999 19.4953 15.938
210 2 35.4152 19.4823 15.8912
211 2 39.4972 19.3717 0.00550531
212 2 43.6778 19.428 15.7847
213 2 47.4238 19.5523 15.8611
214 2 51.4768 19.574 0.0733046
215 2 55.5782 19.6287 15.8785
216 2 59.5699 19.7498 15.94
217 2 63.7278 19.8678 15.9345
218 2 67.678 19.7413 15.8304
219 2 71.585 19.9928 0.215707
220 2 75.6124 19.6389 0.204148
221 2 79.5196 19.806 0.16206
222 2 83.5319 19.9732 15.7592
223 2 87.257 19.7599 -0.109736
224 2 91.3667 19.7253 0.159604
225 2 95.2077 19.6915 16.1264
226 2 99.1893 19.7457 15.9053
227 2 102.977 19.7026 15.9823
228 2 107.042 19.588 15.9897
229 2 111.042 19.6672 0.130151
230 2 114.971 19.6354 15.9891
231 2 118.734 19.4282 15.9049
232 2 122.748 19.5822 16.0556
233 2 126.734 19.4109 15.988
234 2 130.393 19.4933 15.9165
235 2 134.451 19.3888 0.0989116
236 2 138.387 19.3782 15.9773
237 2 142.298 19.3473 15.9971
238 2 145.945 19.2186 0.131434
239 2 150.226 19.3709 15.8634
240 2 154.014 19.1911 0.0473269
241 2 157.985 23.1807 15.8497
242 2 3.28476 23.0905 15.9441
243 2 7.22318 23.0143 0.0155857
244 2 11.4564 23.2786 0.0346773
245 2 15.2862 23.235 15.7974
246 2 19.4797 23.1631 15.8329
247 2 23.4543 23.1796 15.7308
248 2 27.4989 23.34 15.9036
249 2 31.5549 23.414 0.218391
250 2 35.4195 23.3772 16.0391
251 2 39.5324 23.439 0.253037
252 2 43.344 23.3796 16.0328
253 2 47.3263 23.3878 0.225492
254 2 51.4157 23.4719 0.417466
255 2 55.5243 23.5288 0.197955
256 2 59.3931 23.659 15.948
257 2 63.4633 23.7106 0.0296669
258 2 67.6256 23.5895 16.0266
259 2 71.6936 23.8565 15.9948
260 2 75.6581 23.6088 0.271633
261 2 79.5506 23.7162 15.8644
262 2 83.633 23.8709 0.159174
263 2 87.4079 23.6799 15.8329
264 2 91.3732 23.7684 15.8647
265 2 95.4351 23.9529 15.9248
266 2 99.2085 23.8701 -0.119052
267 2 103.237 23.6459 15.9467
268 2 107.108 23.739 16.0242
269 2 110.951 23.5666 0.228271
270 2 114.982 23.584 15.9193
271 2 118.914 23.5805 16.0328
272 2 122.791 23.5968 0.0754955
273 2 126.562 23.5422 15.836
274 2 130.603 23.5397 15.9293
275 2 134.514 23.3333 15.7457
276 2 138.491 23.4919 16.1191
277 2 142.128 23.3592 16.1311
278 2 146.136 23.4157 0.179976
279 2 150.162 23.2137 0.281911
280 2 153.898 23.3006 0.289986
281 2 157.836 27.399 0.400547
282 2 3.5639 27.0771 0.0643557
283 2 7.27331 27.1699 0.23457
284 2 11.409 27.2139 16.0682
285 2 15.2771 27.1233 15.9261
286 2 19.3835 27.2224 -0.0493247
287 2 23.326 27.019 15.71
288 2 27.4086 27.1354 16.0644
289 2 31.4872 27.3343 0.19662
290 2 35.5556 27.1953 0.111396
291 2 39.178 27.3842 0.0287704
292 2 43.5151 27.4005 0.242874
293 2 47.2245 27.0858 0.201507
294 2 51.3759 27.3625 15.8919
295 2 55.4475 27.3882 0.116058
296 2 59.4737 27.3807 15.8931
297 2 63.5715 27.5086 15.9092
298 2 67.358 27.4837 16.0958
299 2 71.5925 27.5934 16.0061
300 2 75.5002 27.6736 0.117357
301 2 79.717 27.5936 0.157071
302 2 83.5991 27.8828 15.9682
303 2 87.5829 27.8235 0.155794
304 2 91.3645 27.8119 0.0112068
305 2 95.6298 27.7201 0.188183
306 2 99.3211 27.8258 -0.0883159
307 2 103.157 27.8183 15.9197
308 2 107.147 27.7421 0.182403
309 2 111.052 27.7122 16.0635
310 2 114.945 27.5045 15.9133
311 2 118.774 27.622 0.0706886
312 2 122.786 27.6277 0.312417
313 2 126.574 27.5147 15.8991
314 2 130.632 27.5132 15.9618
315 2 134.645 27.683 15.9327
316 2 138.327 27.4724 16.0494
317 2 142.463 27.3012 0.209658
318 2 146.316 27.2841 0.331065
319 2 150.133 27.2896 0.323611
320 2 154.124 27.2288 0.174891
321 2 158.061 31.2982 16.0038
322 2 3.59581 31.2385 15.9367
323 2 7.3616 31.0999 15.9643
324 2 11.3848 31.1462 0.31616
325 2 15.511 31.1021 0.0490512
326 2 19.4743 31.0282 15.7878
327 2 23.4011 30.9947 15.7846
328 2 27.5015 31.2815 -0.00127267
329 2 31.4391 31.2685 15.8385
330 2 35.4046 31.1493 16.0668
331 2 39.572 31.2865 15.8338
332 2 43.4541 31.1437 0.226176
333 2 47.503 31.2905 15.9128
334 2 51.2878 31.0638 0.0432907
335 2 55.445 31.246 16.0853
336 2 59.403 31.3423 0.0825966
337 2 63.4587 31.3534 15.7123
338 2 67.5354 31.6666 0.0496502
339 2 71.4857 31.3409 0.215766
340 2 75.5081 31.5712 0.00839576
341 2 79.4284 31.4632 15.8113
342 2 83.4762 31.7051 0.221651
343 2 87.4703 31.7833 16.0364
344 2 91.5988 31.7649 15.8242
345 2 95.6848 31.6551 15.9454
346 2 99.4241 31.6651 0.138258
347 2 103.243 31.8475 15.9499
348 2 107.06 31.7451 15.9875
349 2 110.898 31.6854 15.8343
350 2 115.234 31.6823 15.9441
351 2 118.83 31.6842 16.0656
352 2 122.686 31.5434 16.0495
353 2 126.83 31.521 15.983
354 2 130.614 31.5417 15.9005
355 2 134.441 31.4853 16.0539
356 2 138.297 31.4958 15.8954
357 2 142.316 31.4218 0.360811
358 2 146.314 31.2658 15.7771
359 2 150.424 31.362 0.125698
360 2 154.177 31.2207 0.106027
361 2 -0.229196 35.25 0.0917561
362 2 3.6606 35.051 16.0724
363 2 7.49687 35.1161 15.7277
364 2 11.4203 35.129 15.8781
365 2 15.3862 35.0094 0.173112
366 2 19.3667 34.8428 0.0581343
367 2 23.2388 34.9294 0.105219
368 2 27.254 35.3348 0.107706
369 2 31.4886 35.2386 0.154929
370 2 35.2834 35.085 0.225302
371 2 39.2767 35.1193 0.0247186
372 2 43.3748 35.1165 15.7749
373 2 47.2519 35.2508 15.8692
374 2 51.265 35.1444 15.9662
375 2 55.2897 35.1058 0.104305
376 2 59.4197 35.2676 0.249062
377 2 63.4644 35.2993 15.9976
378 2 67.3452 35.5731 0.171944
379 2 71.2101 35.4487 0.385541
380 2 75.2958 35.3332 15.734
381 2 79.5621 35.6284 0.132055
382 2 83.5823 35.5572 16.0478
383 2 87.5506 35.5908 0.368751
384 2 91.56 35.5853 0.214825
385 2 95.5174 35.8491 15.8641
386 2 99.2342 35.6956 -0.050329
387 2 103.408 35.7376 15.9713
388 2 107.196 35.5295 16.0353
389 2 111.061 35.6332 15.6696
390 2 115.118 35.7484 16.0475
391 2 118.965 35.546 15.9939
392 2 122.924 35.5368 15.8637
393 2 126.792 35.528 15.8963
394 2 130.807 35.557 15.8289
395 2 134.537 35.5612 15.8985
396 2 138.37 35.3645 0.259776
397 2 142.399 35.3611 0.236011
398 2 146.332 35.2314 0.279938
399 2 150.201 35.3326 16.0424
400 2 154.201 35.1548 0.0648964
401 2 158.176 39.1725 0.231529
402 2 3.77712 39.0753 0.249094
403 2 7.62953 38.9736 0.366626
404 2 11.4903 39.0164 16.1336
405 2 15.6056 38.9945 0.211852
406 2 19.3385 38.8513 15.9323
407 2 23.4041 38.8308 15.9129
408 2 27.3647 38.9097 16.0566
409 2 31.3551 39.0665 0.247438
410 2 35.2648 39.0436 0.147435
411 2 39.1408 38.8965 15.6759
412 2 43.2011 39.1148 0.0572649
413 2 47.3597 39.1575 0.17256
414 2 51.342 39.075 16.0257
415 2 55.3547 39.0808 0.139462
416 2 59.3245 39.1842 0.101201
417 2 63.2358 39.1773 0.219013
418 2 67.2833 39.2264 0.25461
419 2 71.5057 39.2672 0.247772
420 2 75.186 39.4194 0.227412
421 2 79.4703 39.4538 0.240691
422 2 83.517 39.6406 15.8432
423 2 87.3796 39.6315 15.7989
424 2 91.3941 39.6179 16.0922
425 2 95.3453 39.5901 15.8981
426 2 99.2629 39.5591 0.162486
427 2 103.459 39.6446 15.7574
428 2 107.305 39.7234 15.907
429 2 111.106 39.7928 15.7756
430 2 115.12 39.6904 15.8638
431 2 118.902 39.648 16.1067
432 2 122.743 39.5637 16.0672
433 2 126.869 39.7187 0.223587
434 2 130.701 39.3022 15.8986
435 2 134.655 39.5484 15.912
436 2 138.711 39.4779 16.1196
437 2 142.623 39.4531 15.9482
438 2 146.379 39.1906 0.295
439 2 150.318 39.3539 16.066
440 2 154.184 39.2256 16.0717
441 2 158.262 43.1572 0.144099
442 2 3.97617 43.1348 15.837
443 2 7.91612 43.3061 16.094
444 2 11.5726 43.0866 0.252689
445 2 15.4128 43.0747 0.0573089
446 2 19.3328 42.9221 0.23727
447 2 23.1572 42.7057 15.8835
448 2 27.3217 43.0198 16.0548
449 2 31.3266 43.1986 0.291997
450 2 35.2772 42.878 0.242117
451 2 39.3235 42.9165 0.335445
452 2 43.2018 42.9249 0.149791
453 2 47.3929 43.0167 15.9307
454 2 51.395 43.11 16.1206
455 2 55.0627 42.9341 -0.0316195
456 2 59.2904 43.0206 15.9682
457 2 63.2199 43.1576 0.0495531
458 2 67.3105 43.0902 0.0395653
459 2 71.3192 43.3401 0.345748
460 2 75.2637 43.1258 0.322192
461 2 79.4511 43.2752 0.319284
462 2 83.3941 43.5539 15.8325
463 2 87.402 43.5132 16.0373
464 2 91.4427 43.4067 0.158138
465 2 95.3114 43.6097 0.302718
466 2 99.256 43.6129 15.6935
467 2 103.42 43.6081 15.8468
468 2 107.421 43.6439 15.9695
469 2 111.421 43.7812 15.8267
470 2 115.094 43.685 16.0096
471 2 118.934 43.588 15.9124
472 2 123.047 43.5286 15.9761
473 2 127.001 43.5245 0.264807
474 2 130.774 43.4068 0.247646
475 2 134.644 43.603 15.8284
476 2 138.475 43.6268 16.0238
477 2 142.322 43.6053 16.0197
478 2 146.386 43.131 0.144705
479 2 150.502 43.2213 0.0730777
480 2 154.389 43.1814 0.249619
481 2 0.0143781 47.3502 0.170219
482 2 3.94585 47.3385 0.317913
483 2 7.85457 47.2708 0.191598
484 2 11.6634 47.2589 0.349198
485 2 15.5427 47.1408 0.215281
486 2 19.5012 46.9447 0.287959
487 2 23.5123 46.9987 0.0734164
488 2 27.3089 46.8292 15.9101
489 2 31.3108 46.9203 0.276252
490 2 35.4699 46.9787 0.26297
491 2 39.4895 46.7264 16.0208
492 2 43.2976 46.9582 16.1728
493 2 47.3112 46.8106 0.340112
494 2 51.3453 47.024 15.9461
495 2 55.1805 47.0286 15.8842
496 2 59.0579 47.2075 16.0424
497 2 63.1333 46.9193 0.16641
498 2 67.1339 46.87 0.0937699
499 2 71.3395 47.1543 16.0502
500 2 75.3276 47.2057 0.129442
501 2 79.3872 47.1397 15.9388
502 2 83.4242 47.308 15.9631
503 2 87.3552 47.4134 -0.0343385
504 2 91.3655 47.4468 0.00460476
505 2 95.2845 47.7456 0.302328
506 2 99.4459 47.3215 0.235253
507 2 103.427 47.6685 0.113985
508 2 107.354 47.4742 16.0214
509 2 111.442 47.7277 15.8925
510 2 115.199 47.7259 0.031225
511 2 118.979 47.6336 15.7186
512 2 122.989 47.6487 15.9409
513 2 126.889 47.4558 15.832
514 2 130.636 47.5662 15.9107
515 2 134.621 47.4002 15.9034
516 2 138.709 47.2543 15.7565
517 2 142.739 47.3417 15.8968
518 2 146.598 47.3478 0.0797547
519 2 150.378 47.5013 0.157787
520 2 154.305 47.237 15.9067
521 2 158.339 51.2464 0.196894
522 2 3.88237 51.1818 15.838
523 2 7.55913 51.0595 16.0486
524 2 11.5494 51.1895 16.1007
525 2 15.7255 51.0337 0.220738
526 2 19.4993 50.9603 15.9386
527 2 23.3208 50.9631 16.0544
528 2 27.578 50.9818 15.7587
529 2 31.3027 50.8979 0.184984
530 2 35.3374 50.7272 0.282805
531 2 39.1797 50.8817 16.0499
532 2 43.1401 50.6247 15.8425
533 2 47.2249 50.7802 0.237326
534 2 51.103 50.728 0.269718
535 2 55.1137 50.8364 0.443904
536 2 59.2016 50.9112 16.2048
537 2 63.2521 50.8468 15.9763
538 2 67.3019 50.9372 0.307146
539 2 71.3396 50.8383 0.173049
540 2 75.281 51.171 0.238615
541 2 79.275 50.9251 0.186915
542 2 83.1909 51.1585 0.125705
543 2 87.1835 51.2877 0.244503
544 2 91.3399 51.4696 0.13253
545 2 95.3114 51.2624 0.157723
546 2 99.2922 51.4714 0.300364
547 2 103.237 51.4513 15.9427
548 2 107.053 51.4384 0.219491
549 2 111.258 51.5992 0.101669
550 2 115.056 51.5813 15.8988
551 2 119.221 51.6448 15.7562
552 2 122.944 51.6902 15.8896
553 2 126.967 51.6078 16.1334
554 2 130.897 51.477 -0.0680754
555 2 134.788 51.4057 0.241835
556 2 138.642 51.4392 0.157988
557 2 142.631 51.3468 0.189221
558 2 146.513 51.3699 16.0037
559 2 150.373 51.408 0.371107
560 2 154.439 51.3145 0.224955
561 2 158.226 55.4207 0.164838
562 2 3.82279 55.1855 0.302923
563 2 7.96052 55.0501 0.482023
564 2 11.701 55.0724 0.271055
565 2 15.9324 55.1106 0.252543
566 2 19.6101 55.1636 16.1393
567 2 23.3914 54.9568 15.9275
568 2 27.4492 54.7343 15.9904
569 2 31.3577 54.6923 0.0959579
570 2 35.288 54.6589 0.369376
571 2 39.1752 54.727 15.9156
572 2 43.0489 54.8049 16.1237
573 2 47.1116 54.488 0.320499
574 2 51.0964 54.6145 15.9518
575 2 55.2967 54.7718 16.0698
576 2 59.2747 54.7964 15.9842
577 2 63.2421 54.8292 15.9864
578 2 67.164 54.7309 0.146619
579 2 71.2344 54.8547 0.2678
580 2 75.2901 55.0151 15.9272
581 2 79.0717 54.8076 0.23477
582 2 83.2276 55.1328 0.00482268
583 2 87.1141 54.9726 0.185484
584 2 91.141 55.2365 15.9702
585 2 95.1248 55.0644 0.113642
586 2 99.3722 55.3156 16.0918
587 2 103.31 55.3935 15.9677
588 2 107.021 55.5901 0.376431
589 2 111.091 55.3617 16.0598
590 2 115.213 55.604 15.989
591 2 119.106 55.6521 15.8753
592 2 123.269 55.5408 0.250144
593 2 127.08 55.6581 15.9732
594 2 130.799 55.7234 15.9105
595 2 134.682 55.4642 -0.0283065
596 2 138.871 55.4518 15.7924
597 2 142.631 55.4385 0.228896
598 2 146.449 55.3961 0.130593
599 2 150.452 55.3057 0.302184
600 2 154.447 55.2111 15.8923
601 2 158.484 59.1716 0.288893
602 2 4.05787 59.1494 15.897
603 2 7.97271 58.9844 16.0593
604 2 11.8764 59.1033 0.0608947
605 2 15.5745 59.2091 15.8254
606 2 19.7552 58.9982 0.295209
607 2 23.5842 58.8119 0.275745
608 2 27.4586 58.921 0.24491
609 2 31.4236 58.8903 15.8938
610 2 35.3924 58.7281 16.0257
611 2 39.3285 58.7695 15.9922
612 2 43.254 58.851 16.1008
613 2 46.9996 58.6253 15.9559
614 2 51.1173 58.586 15.8081
615 2 55.1696 58.6741 16.0268
616 2 59.2 58.885 0.21101
617 2 63.256 59.0324 15.9805
618 2 67.187 58.9024 0.27132
619 2 71.097 58.9006 16.1145
620 2 75.0363 58.9486 0.173846
621 2 79.2278 59.0202 0.126881
622 2 82.9875 58.8999 0.219929
623 2 87.1299 59.216 15.9543
624 2 91.2615 59.1779 15.9848
625 2 95.0839 59.1135 0.150597
626 2 99.0683 59.4023 0.119865
627 2 103.119 59.4181 15.9892
628 2 107.217 59.4011 0.156549
629 2 111.088 59.3115 16.0001
630 2 115.182 59.6138 16.0295
631 2 119.212 59.6212 15.973
632 2 123.13 59.4 0.243373
633 2 127.15 59.5558 15.8618
634 2 131.081 59.6289 0.198909
635 2 134.9 59.4741 15.7679
636 2 138.958 59.5438 0.250884
637 2 142.759 59.4455 0.271359
638 2 146.843 59.5027 0.225841
639 2 150.634 59.4216 15.6663
640 2 154.549 59.3383 0.160195
641 2 0.0903371 63.3176 0.28158
642 2 4.08807 63.2544 0.157433
643 2 7.91927 63.0135 15.926
644 2 11.6714 63.0813 16.0775
645 2 15.7089 63.1253 16.0322
646 2 19.689 63.0215 0.292167
647 2 23.6536 63.1316 0.185882
648 2 27.5045 62.8753 0.307723
649 2 31.3869 62.7479 0.123516
650 2 35.398 62.7023 0.320576
651 2 39.2294 62.7604 16.1102
652 2 43.2353 62.7323 0.324498
653 2 47.0984 62.6203 16.1009
654 2 51.1166 62.3466 15.9641
655 2 55.1098 62.5343 0.132381
656 2 59.1023 62.5828 16.0501
657 2 62.9367 62.8859 0.270434
658 2 67.1431 62.8692 15.9213
659 2 71.0546 62.7209 0.20039
660 2 75.0107 62.625 0.00011743
661 2 78.9934 62.8426 0.0579378
662 2 83.1263 62.8853 0.10662
663 2 87.2074 63.001 15.886
664 2 91.1196 63.1723 15.905
665 2 95.1058 63.0558 0.0995047
666 2 99.0422 63.0784 0.198828
667 2 103.165 63.1622 15.8616
668 2 107.202 63.2352 15.8352
669 2 111.053 63.2676 15.9373
670 2 115.131 63.4438 0.262378
671 2 119.07 63.5044 15.8138
672 2 122.933 63.4679 0.280752
673 2 127.01 63.4664 16.0338
674 2 130.888 63.5759 -0.00869775
675 2 134.829 63.4112 15.9521
676 2 138.935 63.6468 16.2471
677 2 142.686 63.4692 16.0149
678 2 146.821 63.6379 0.119747
679 2 150.66 63.24 15.9567
680 2 154.507 63.3638 0.256525
681 2 0.144936 67.2293 0.11541
682 2 4.14151 67.2876 0.172908
683 2 7.90529 67.0784 15.9879
684 2 11.8236 67.1003 15.9031
685 2 15.7459 67.078 0.0468707
686 2 19.7766 67.141 0.109337
687 2 23.7128 66.8967 0.259433
688 2 27.6691 66.9065 0.231044
689 2 31.5797 66.8225 0.28616
690 2 35.431 66.6628 0.272789
691 2 39.4374 66.6913 15.9634
692 2 43.2857 66.5581 0.280492
693 2 47.2769 66.6634 15.9025
694 2 51.246 66.6627 15.7478
695 2 55.0637 66.5883 15.8159
696 2 58.9822 66.5224 15.8592
697 2 63.2757 66.4978 15.8931
698 2 67.0129 66.6071 16.0086
699 2 71.1458 66.5654 0.179458
700 2 74.8903 66.6631 15.7604
701 2 78.9876 66.6917 15.9225
702 2 82.9344 66.6428 0.173041
703 2 87.0744 66.8777 15.9523
704 2 91.051 66.8914 16.0406
705 2 94.9784 67.2035 0.244549
706 2 99.0616 66.9619 0.100985
707 2 103.005 67.0951 0.156144
708 2 107.189 67.1336 15.926
709 2 110.945 67.2327 15.8509
710 2 115.064 67.2512 16.041
711 2 119.092 67.3337 0.224186
712 2 123.102 67.3163 0.225459
713 2 127.084 67.4808 0.263047
714 2 130.952 67.4251 15.7461
715 2 134.978 67.5604 0.309104
716 2 138.927 67.4347 0.190464
717 2 142.813 67.594 16.0654
718 2 146.778 67.4179 16.0401
719 2 150.747 67.3808 15.9495
720 2 154.671 67.1194 -0.0116072
721 2 0.26215 71.1415 0.204983
722 2 4.23149 71.263 15.7607
723 2 7.9934 71.1121 0.198491
724 2 12.0059 71.0061 16.0792
725 2 15.988 71.0521 0.196788
726 2 19.9207 70.9784 0.0819223
727 2 23.7081 71.0706 0.151255
728 2 27.6408 71.1099 15.8456
729 2 31.5365 70.8199 0.369558
730 2 35.4191 70.7622 0.0874806
731 2 39.36 70.6324 16.116
732 2 43.181 70.6776 0.0330833
733 2 47.3836 70.5334 15.7987
734 2 51.2819 70.5616 15.7564
735 2 55.1144 70.5335 0.0378643
736 2 59.2004 70.458 0.253121
737 2 62.9873 70.6079 0.418157
738 2 67.1127 70.5314 15.8985
739 2 70.9908 70.5837 15.7225
740 2 74.918 70.4548 15.8631
741 2 78.9947 70.5896 -0.00576838
742 2 83.2305 70.7949 0.148896
743 2 86.9785 70.6816 15.7995
744 2 90.9571 70.8383 15.9245
745 2 94.7605 70.9673 15.8877
746 2 98.9698 71.0428 15.8241
747 2 102.981 71.0808 16.0362
748 2 106.935 70.8223 15.8493
749 2 111.061 71.1333 16.0078
750 2 115.12 71.0875 0.141312
751 2 119.056 71.3252 15.7802
752 2 123.008 71.0694 0.087361
753 2 126.895 71.2372 15.9294
754 2 131.086 71.2597 15.9833
755 2 135.083 71.5509 15.9427
756 2 139.099 71.5508 15.9176
757 2 143.076 71.526 0.383258
758 2 146.993 71.3699 0.236562
759 2 150.786 71.4717 0.215041
760 2 154.759 71.1805 15.8517
761 2 0.231017 75.4193 0.0470059
762 2 4.05038 75.1403 15.8258
763 2 8.19389 75.0918 15.7307
764 2 12.2273 75.0791 16.0082
765 2 15.9482 74.9121 15.9523
766 2 19.9231 74.8681 16.0099
767 2 23.8293 74.8957 16.0085
768 2 27.5446 74.8278 15.8918
769 2 31.5499 74.9001 0.357056
770 2 35.607 74.9239 16.1175
771 2 39.5205 74.7203 15.8953
772 2 43.485 74.7315 0.374669
773 2 47.244 74.4888 15.9745
774 2 51.1706 74.5604 0.120645
775 2 55.0142 74.3878 15.8086
776 2 58.9267 74.368 16.1575
777 2 63.2415 74.7746 16.1834
778 2 66.8004 74.4417 0.140534
779 2 70.9568 74.4753 0.0355059
780 2 75.0753 74.6203 -0.00973483
781 2 78.8475 74.4816 0.0525694
782 2 82.8828 74.5283 0.241943
783 2 87.0504 74.632 0.136126
784 2 90.84 74.7303 15.7618
785 2 95.0091 74.7631 15.9881
786 2 98.9198 74.8349 0.114643
787 2 103.033 75.0135 15.8154
788 2 106.899 74.8667 15.755
789 2 111.056 75.0156 15.941
790 2 115.038 75.1217 15.8851
791 2 118.88 75.2525 0.0429322
792 2 122.763 75.1102 15.9018
793 2 126.94 75.2123 15.8806
794 2 131.074 75.4546 0.15913
795 2 135.139 75.5268 15.8673
796 2 138.968 75.4031 15.7699
797 2 142.928 75.4783 16.0636
798 2 146.9 75.5325 15.872
799 2 150.849 75.3886 -0.0679675
800 2 154.626 75.2731 0.0692113
801 2 0.338036 79.358 0.154732
802 2 4.35936 79.2911 16.0899
803 2 8.20763 79.1726 0.143595
804 2 12.223 79.0438 0.0515735
805 2 16.3374 79.1191 15.9058
806 2 20.0239 78.8356 15.9441
807 2 23.9887 78.8223 0.23171
808 2 27.8652 78.9268 0.129314
809 2 31.8011 78.9723 -0.00549156
810 2 35.6176 79.045 0.0360537
811 2 39.6372 78.693 15.8319
812 2 43.4627 78.5903 15.8562
813 2 47.3654 78.7511 15.9683
814 2 51.2564 78.6046 0.41968
815 2 55.09 78.4554 0.297021
816 2 58.9257 78.3634 16.0678
817 2 62.9988 78.3158 16.1101
818 2 67.1377 78.5812 0.268685
819 2 70.8749 78.3659 15.9048
820 2 74.8309 78.5177 0.141963
821 2 78.9979 78.3619 15.8876
822 2 83.0369 78.7834 15.9905
823 2 86.8544 78.6979 0.180717
824 2 91.0138 78.6454 0.265476
825 2 94.7656 78.6705 0.118518
826 2 98.9314 78.7185 15.7912
827 2 102.99 78.886 15.848
828 2 106.94 78.8094 0.150801
829 2 110.979 79.0001 0.405439
830 2 114.908 78.966 -0.0707245
831 2 118.91 79.2063 0.146947
832 2 122.893 79.1095 15.7769
833 2 127.04 79.1037 0.290529
834 2 131.023 79.2553 15.8172
835 2 134.915 79.3477 0.27351
836 2 139.095 79.3458 15.9897
837 2 143.177 79.2093 15.9437
838 2 146.956 79.5299 15.8422
839 2 150.736 79.2276 15.7819
840 2 154.529 79.1815 0.0736092
841 2 0.382969 83.3728 16.0992
842 2 4.25654 83.1852 15.8975
843 2 8.22767 83.236 0.16492
844 2 12.2201 82.9167 15.9786
845 2 16.1235 83.0222 15.8075
846 2 20.0258 82.9483 0.169878
847 2 24.115 82.9372 15.985
848 2 27.7417 82.8878 0.191016
849 2 31.722 83.0548 15.9363
850 2 35.6009 82.9155 0.18117
851 2 39.5785 82.7086 0.0646658
852 2 43.553 82.6658 15.9862
853 2 47.4743 82.683 0.404719
854 2 51.5957 82.7727 0.216059
855 2 55.3483 82.6308 0.277945
856 2 59.2591 82.2789 16.0576
857 2 62.9578 82.4283 16.0829
858 2 66.6701 82.5322 15.9223
859 2 70.9875 82.29 16.0667
860 2 75.0153 82.3082 15.9314
861 2 78.7935 82.5291 15.6729
862 2 82.844 82.5216 -0.0415444
863 2 86.9504 82.4426 -0.0434737
864 2 90.8271 82.6765 15.8322
865 2 95.045 82.6806 -0.0723304
866 2 98.9683 82.6465 15.9653
867 2 102.868 82.8061 0.0660504
868 2 107.116 82.7021 15.9828
869 2 110.974 82.8633 15.9205
870 2 115.091 83.0689 15.8812
871 2 118.841 83.0712 16.1359
872 2 123.068 83.0331 15.8322
873 2 126.822 83.1539 15.7968
874 2 131.022 83.0289 15.7391
875 2 135.057 83.2222 0.184768
876 2 139.028 83.3293 15.8834
877 2 142.821 83.3542 0.195962
878 2 146.89 83.2654 15.9925
879 2 150.961 83.1985 0.025244
880 2 154.818 83.1908 0.228231
881 2 0.659813 87.3567 16.0179
882 2 4.52878 87.126 0.126046
883 2 8.43303 87.2422 15.8511
884 2 12.2975 87.1565 15.799
885 2 16.0778 87.121 16.0132
886 2 19.9567 86.9712 15.8533
887 2 23.9999 87.055 16.001
888 2 27.9 87.0552 0.203923
889 2 31.6737 87.0292 15.9438
890 2 35.608 86.6477 0.228748
891 2 39.7469 86.5721 15.8782
892 2 43.5084 86.705 16.2373
893 2 47.3495 86.5198 16.0998
894 2 51.3666 86.5672 16.1382
895 2 55.3386 86.4349 16.0315
896 2 59.1516 86.4832 0.253783
897 2 63.1479 86.3676 0.385804
898 2 67.1752 86.296 15.934
899 2 71.1036 86.3458 0.165646
900 2 74.8209 86.3976 15.7791
901 2 78.6029 86.1997 0.239574
902 2 82.7646 86.311 0.0713288
903 2 86.7511 86.4958 15.7279
904 2 90.761 86.5576 15.93
905 2 94.9848 86.5847 16.0593
906 2 98.9917 86.5719 15.8433
907 2 102.973 86.6514 0.0794331
908 2 106.83 86.8253 0.271663
909 2 110.971 86.7488 15.9028
910 2 115.133 86.7689 0.207213
911 2 118.847 86.9575 -0.00351031
912 2 122.829 86.9671 0.257016
913 2 127.009 86.9355 15.9236
914 2 130.971 86.9533 16.0129
915 2 134.823 87.0884 16.0058
916 2 138.899 87.1674 15.9843
917 2 143.15 87.2104 15.8019
918 2 147.089 87.2466 0.290176
919 2 151.046 87.3023 16.0777
920 2 154.937 87.1815 15.9142
921 2 0.542301 91.2158 0.369567
922 2 4.40036 91.1589 0.168669
923 2 8.40838 91.1879 15.9361
924 2 12.3414 91.2944 16.0755
925 2 16.2064 90.9441 0.129745
926 2 19.9604 91.0298 0.194967
927 2 24.0104 91.0048 15.8557
928 2 27.8065 91.0721 15.866
929 2 31.7964 90.8423 15.848
930 2 35.7667 91.0258 0.0415877
931 2 39.6032 90.6378 16.1086
932 2 43.6771 90.8416 16.1199
933 2 47.2965 90.6416 0.203784
934 2 51.2906 90.6638 0.206468
935 2 55.1891 90.6085 0.089101
936 2 59.1754 90.5174 0.120652
937 2 63.1389 90.3678 0.0206236
938 2 66.8483 90.3207 15.8249
939 2 71.0123 90.3493 15.9628
940 2 74.9021 90.186 0.303495
941 2 78.7715 90.2761 0.228665
942 2 82.7354 90.3101 0.0239817
943 2 86.7924 90.3851 -0.000436612
944 2 90.7867 90.5161 0.160299
945 2 94.7938 90.4092 15.8848
946 2 98.8274 90.4879 16.0199
947 2 102.875 90.5967 0.051561
948 2 107.032 90.6507 16.0852
949 2 110.84 90.8667 15.8704
950 2 114.897 90.8637 0.198531
951 2 118.869 90.9345 0.236648
952 2 122.856 90.7888 16.0872
953 2 126.944 90.8749 0.0944775
954 2 130.843 90.8759 0.030808
955 2 134.993 90.8801 15.8502
956 2 138.761 91.127 15.809
957 2 142.735 91.1706 15.8486
958 2 146.94 91.2284 16.1027
959 2 151.089 91.1826 16.0377
960 2 154.985 91.1339 15.8558
961 2 0.348325 95.1387 0.229295
962 2 4.44311 95.1856 15.859
963 2 8.37851 95.2124 16.0197
964 2 12.4026 95.1841 15.7721
965 2 16.2171 95.1207 15.8991
966 2 20.1508 94.992 15.6498
967 2 24.1282 94.9953 15.7264
968 2 27.954 94.9471 15.9887
969 2 31.8215 94.902 16.0777
970 2 35.8386 94.744 15.93
971 2 39.6308 94.7526 15.8889
972 2 43.4765 94.6069 15.8837
973 2 47.5411 94.8298 0.223291
974 2 51.504 94.6025 15.9855
975 2 55.2105 94.6834 0.0726301
976 2 59.173 94.4338 15.7675
977 2 63.2065 94.4047 0.0383205
978 2 66.9395 94.3593 0.291045
979 2 70.9647 94.2799 0.215488
980 2 74.7241 94.0758 0.240915
981 2 78.7182 94.105 15.9554
982 2 82.8076 93.951 0.274254
983 2 86.7149 94.1191 0.203628