ITEM: TIMESTEP
23700
ITEM: NUMBER OF ATOMS
32000
ITEM: BOX BOUNDS xy xz yz pp pp pp
0.0000000000000000e+00 1.5831999999999999e+02 0.0000000000000000e+00
0.0000000000000000e+00 1.5831999999999999e+02 0.0000000000000000e+00
1.6235797103447780e-01 1.5935354028965378e+01 0.0000000000000000e+00
ITEM: ATOMS id type x y z
1 2 157.945 157.863 15.6907
2 2 3.6941 157.952 15.9701
3 2 7.51414 158.033 0.181164
4 2 11.7669 157.969 0.0814395
5 2 15.4713 157.889 0.107052
6 2 19.5875 158.127 15.9383
7 2 23.5014 158.144 15.9401
8 2 27.6959 158.053 16.1417
9 2 31.825 158.031 0.200638
10 2 35.7573 158.213 15.9459
11 2 39.8035 -0.17978 15.9639
12 2 43.5838 -0.0777027 0.072667
13 2 47.4533 0.0121381 16.0622
14 2 51.7362 0.0295365 0.0757755
15 2 55.8644 158.409 0.369895
16 2 59.7371 158.427 16.0598
17 2 63.8398 0.0797576 15.9879
18 2 67.6674 0.00264019 15.7512
19 2 71.4349 0.0845286 15.6777
20 2 75.3077 158.282 15.7819
21 2 79.3173 -0.0341302 15.88
22 2 83.0862 158.192 16.0294
23 2 87.2174 158.215 15.9585
24 2 91.0498 158.243 -0.0231782
25 2 95.141 158.027 15.8891
26 2 98.9092 158.08 15.7786
27 2 103.02 157.778 15.8967
28 2 106.874 157.842 15.9716
29 2 110.584 157.935 0.000533544
30 2 114.45 157.846 0.195151
31 2 118.606 157.963 15.8756
32 2 122.516 157.957 0.282966
33 2 126.231 157.706 0.104274
34 2 130.129 157.833 -0.0606207
35 2 134.193 157.554 16.0298
36 2 138.223 157.756 15.8926
37 2 142.057 157.924 16.2229
38 2 146.181 157.633 15.9188
39 2 150.151 157.925 -0.0405524
40 2 153.901 157.572 0.242272
41 2 157.767 3.3833 15.802
42 2 3.75175 3.34037 15.8947
43 2 7.69377 3.47064 0.182169
44 2 11.5695 3.6642 15.9527
45 2 15.7919 3.56327 15.8462
46 2 19.634 3.74471 15.8797
47 2 23.6139 3.75712 0.198621
48 2 27.6619 3.58914 0.323611
49 2 31.7993 3.65541 0.340222
50 2 35.6517 3.75709 0.0378471
51 2 39.7278 3.89243 0.0785912
52 2 43.5351 3.70543 15.6979
53 2 47.5625 3.78988 16.0677
54 2 51.6404 3.86265 16.1206
55 2 55.5905 3.91275 0.0104682
56 2 59.6938 3.97918 15.9533
57 2 63.688 3.74848 15.9031
58 2 67.6211 3.90128 16.002
59 2 71.5625 3.95668 15.874
60 2 75.4631 4.04167 15.9901
61 2 79.3881 3.93129 15.8418
62 2 83.1536 3.87165 15.8026
63 2 87.2153 3.89321 15.8596
64 2 91.1616 3.76396 -0.00834027
65 2 95.0481 3.85445 16.189
66 2 99.1348 3.60829 0.0848957
67 2 102.995 3.62069 15.7902
68 2 106.82 3.56271 15.9316
69 2 110.729 3.56916 0.180585
70 2 114.644 3.73903 0.00802155
71 2 118.557 3.50284 0.077525
72 2 122.471 3.52424 0.1282
73 2 126.452 3.59994 -0.00694479
74 2 130.32 3.3641 0.286601
75 2 134.187 3.25497 15.8051
76 2 138.31 3.42056 0.0549858
77 2 142.285 3.36295 0.155453
78 2 146.009 3.35291 0.0289129
79 2 149.976 3.23306 16.0209
80 2 153.9 3.16458 15.7791
81 2 157.718 7.24519 16.0318
82 2 3.6021 7.42246 15.8348
83 2 7.61288 7.23736 16.0114
84 2 11.4365 7.4625 -0.00824304
85 2 15.5507 7.71934 15.9232
86 2 19.6598 7.66933 15.9442
87 2 23.4546 7.55074 0.131251
88 2 27.6153 7.5228 16.0132
89 2 31.5532 7.83035 15.7924
90 2 35.6922 7.74454 16.0016
91 2 39.6219 7.76646 0.0766847
92 2 43.8083 7.764 0.0972061
93 2 47.6949 7.69528 15.9368
94 2 51.6383 7.85194 0.107738
95 2 55.7108 7.93971 16.0907
96 2 59.6038 7.83954 0.159578
97 2 63.8568 7.87579 15.9316
98 2 67.6002 7.84157 15.884
99 2 71.5155 7.84262 15.9561
100 2 75.6365 8.06674 15.855
101 2 79.4837 7.975 0.0748568
102 2 83.2903 7.91076 15.8952
103 2 87.1849 7.89337 15.7999
104 2 91.2397 7.81223 15.9448
105 2 95.1303 7.71315 15.9652
106 2 98.9908 7.63466 0.216292
107 2 102.872 7.56631 -0.0161708
108 2 106.836 7.50752 15.8942
109 2 110.783 7.44841 0.244074
110 2 114.729 7.53598 15.6873
111 2 118.665 7.51195 15.8652
112 2 122.435 7.4481 15.7735
113 2 126.343 7.67388 16.0564
114 2 130.344 7.38331 0.150198
115 2 134.303 7.40431 -0.0133029
116 2 138.34 7.50366 15.9966
117 2 142.132 7.41581 15.9194
118 2 146 7.34293 -0.0152657
119 2 149.879 7.48697 -0.0123635
120 2 153.93 7.22713 15.7529
121 2 157.717 11.2882 16.0571
122 2 3.46763 11.2394 15.7747
123 2 7.36406 11.3416 15.7921
124 2 11.4394 11.4217 0.00748616
125 2 15.4965 11.5632 15.7042
126 2 19.5756 11.4269 15.9081
127 2 23.5364 11.56 15.8079
128 2 27.4658 11.4669 15.9873
129 2 31.4866 11.5567 15.906
130 2 35.473 11.6529 15.9376
131 2 39.4941 11.6746 15.8907
132 2 43.668 11.54 0.0630022
133 2 47.5844 11.6878 0.235455
134 2 51.4601 11.8173 16.1003
135 2 55.5894 11.8422 0.29613
136 2 59.5971 11.8663 15.9797
137 2 63.4596 11.9123 0.124526
138 2 67.6958 11.862 15.9199
139 2 71.6011 12.0075 15.8927
140 2 75.3753 11.8775 16.0265
141 2 79.5355 11.9159 16.1086
142 2 83.2766 11.7584 15.8675
143 2 87.1479 11.8784 0.0661727
144 2 91.1388 11.6696 0.151725
145 2 95.0959 11.7023 15.8908
146 2 99.0165 11.5597 15.8594
147 2 102.9 11.6369 0.215969
148 2 106.99 11.6603 16.0105
149 2 110.833 11.5992 0.00330691
150 2 114.698 11.6593 15.7213
151 2 118.709 11.6531 0.116982
152 2 122.453 11.6491 0.15096
153 2 126.312 11.456 16.0334
154 2 130.446 11.3684 15.9711
155 2 134.259 11.4346 0.216292
156 2 138.123 11.2928 0.253554
157 2 142.339 11.3672 0.139108
158 2 146.063 11.3301 -0.024946
159 2 149.911 11.389 -0.0283815
160 2 153.984 11.3313 0.182126
161 2 157.873 15.236 15.8912
162 2 3.52807 15.2108 15.8412
163 2 7.4079 15.2308 15.8363
164 2 11.4294 15.2647 15.8597
165 2 15.4762 15.343 15.9325
166 2 19.4711 15.3673 0.00273014
167 2 23.507 15.3687 0.00324502
168 2 27.3604 15.4312 16.0315
169 2 31.5774 15.4812 0.22696
170 2 35.5833 15.4439 15.9513
171 2 39.6534 15.5084 0.102091
172 2 43.5106 15.5296 0.0745728
173 2 47.3905 15.6036 0.296212
174 2 51.6886 15.5945 0.141976
175 2 55.6265 15.6833 16.0826
176 2 59.6633 15.7706 0.2244
177 2 63.7227 15.6466 15.9055
178 2 67.6657 15.8747 16.0319
179 2 71.6864 15.8384 0.185253
180 2 75.4121 15.7717 0.172919
181 2 79.285 15.897 15.9014
182 2 83.4771 15.9745 0.218857
183 2 87.1655 15.8265 15.8449
184 2 91.2549 15.7457 0.40925
185 2 95.0515 15.775 15.7773
186 2 98.9912 15.6022 15.945
187 2 103.018 15.5903 15.9
188 2 106.683 15.601 16.0092
189 2 110.794 15.7062 15.9942
190 2 114.691 15.5875 15.9619
191 2 118.676 15.5676 0.372037
192 2 122.5 15.5395 15.9306
193 2 126.479 15.4318 16.0417
194 2 130.459 15.4338 0.0850819
195 2 134.439 15.4728 0.218357
196 2 138.213 15.28 0.143708
197 2 142.065 15.3452 15.861
198 2 146.008 15.23 0.333385
199 2 150.104 15.3539 0.143075
200 2 154.136 15.3098 15.942
201 2 157.89 19.1305 15.8739
202 2 3.37103 19.152 0.226501
203 2 7.42604 19.1334 0.184887
204 2 11.4157 19.0284 15.9578
205 2 15.3052 19.2141 15.9411
206 2 19.5435 19.3826 15.9606
207 2 23.6411 19.3672 15.8963
208 2 27.4746 19.3548 15.8599
209 2 31.4658 19.1985 15.8054
210 2 35.4618 19.4543 16.1541
211 2 39.4355 19.4753 0.205582
212 2 43.3839 19.5805 16.0966
213 2 47.6061 19.483 16.1022
214 2 51.4464 19.4665 0.459193
215 2 55.5314 19.5132 15.8847
216 2 59.4393 19.6314 15.7467
217 2 63.526 19.5719 16.0211
218 2 67.5683 19.7379 15.8565
219 2 71.5952 19.7279 0.224049
220 2 75.5789 20.0004 0.227915
221 2 79.5771 19.8813 -0.0972766
222 2 83.4757 19.7185 16.06
223 2 87.5806 19.7869 0.16601
224 2 91.2634 19.6796 0.307726
225 2 95.3255 19.703 15.7067
226 2 99.17 19.6127 15.9668
227 2 103.132 19.5185 15.9307
228 2 106.901 19.4645 15.9088
229 2 110.736 19.5249 0.257058
230 2 114.746 19.7115 15.8797
231 2 118.835 19.7414 15.962
232 2 122.487 19.4996 15.8737
233 2 126.312 19.6529 15.6522
234 2 130.411 19.6015 15.668
235 2 134.265 19.3944 0.155762
236 2 138.228 19.4161 15.8502
237 2 142.178 19.5365 15.9549
238 2 146.26 19.5079 0.260283
239 2 150.078 19.2956 15.8726
240 2 154.006 19.186 0.351373
241 2 157.78 23.1777 16.0026
242 2 3.52898 23.187 16.0968
243 2 7.47763 23.212 0.241501
244 2 11.255 22.9707 0.104818
245 2 15.5365 23.1188 15.8831
246 2 19.4986 23.2316 15.9661
247 2 23.463 23.3684 16.0943
248 2 27.4058 23.4106 16.1547
249 2 31.3827 23.382 -0.0183794
250 2 35.2828 23.4958 15.9438
251 2 39.5122 23.3013 0.0540362
252 2 43.6519 23.3758 15.9066
253 2 47.6597 23.4482 0.123473
254 2 51.5705 23.4625 0.0341464
255 2 55.5402 23.4097 0.123362
256 2 59.673 23.4499 15.747
257 2 63.6618 23.5533 0.278335
258 2 67.6116 23.6762 15.8041
259 2 71.539 23.6829 16.1408
260 2 75.4277 23.6725 0.331632
261 2 79.4857 23.7398 15.9877
262 2 83.4727 23.7997 0.200768
263 2 87.6017 23.7947 15.8033
264 2 91.7981 23.9473 15.8513
265 2 95.4244 23.6578 15.7531
266 2 99.3275 23.5051 0.29291
267 2 103.091 23.6691 15.7725
268 2 107.199 23.5086 15.8767
269 2 111.077 23.5807 0.0403692
270 2 114.99 23.6762 15.9922
271 2 118.839 23.6467 15.7388
272 2 122.712 23.5714 0.149173
273 2 126.743 23.5727 15.8271
274 2 130.686 23.4548 16.0155
275 2 134.554 23.4848 16.0779
276 2 138.289 23.3322 15.9301
277 2 142.204 23.3687 15.746
278 2 146.165 23.252 0.200256
279 2 150.058 23.3953 -0.0178701
280 2 154.123 23.0601 0.0237174
281 2 158.065 27.0289 0.103643
282 2 3.42086 27.2731 0.322995
283 2 7.35825 27.1536 0.18693
284 2 11.5449 26.9761 15.7381
285 2 15.5819 27.1271 15.8575
286 2 19.4284 26.9214 0.039419
287 2 23.3893 27.1398 15.8102
288 2 27.4482 27.318 15.816
289 2 31.3204 27.2479 0.144992
290 2 35.2015 27.332 0.309972
291 2 39.489 27.0083 0.0494704
292 2 43.3338 27.3492 0.233503
293 2 47.5338 27.4905 0.156898
294 2 51.4287 27.3538 16.1043
295 2 55.5862 27.5059 0.140666
296 2 59.5048 27.4927 15.8763
297 2 63.5745 27.3842 16.0313
298 2 67.6787 27.7214 15.9426
299 2 71.4985 27.6598 16.1218
300 2 75.6218 27.5392 0.295264
301 2 79.4736 27.6451 0.195426
302 2 83.6747 27.7383 15.9863
303 2 87.4928 27.5807 0.154028
304 2 91.6729 27.9318 0.213911
305 2 95.4759 27.944 -0.0687556
306 2 99.409 27.6232 0.109947
307 2 103.201 27.5821 15.8766
308 2 106.999 27.7784 0.0897379
309 2 111.114 27.6138 15.9817
310 2 114.977 27.722 16.012
311 2 118.956 27.5324 0.159397
312 2 122.756 27.5201 0.0435483
313 2 126.898 27.4889 15.8026
314 2 130.725 27.4016 15.9047
315 2 134.471 27.343 16.0824
316 2 138.46 27.4143 15.9124
317 2 142.131 27.3807 0.274656
318 2 146.107 27.2307 0.153141
319 2 150.213 27.2351 -0.0209664
320 2 154.075 27.129 0.138908
321 2 158.017 31.0765 16.1431
322 2 3.59644 31.1168 16.2229
323 2 7.58191 31.1347 15.9892
324 2 11.4569 30.9573 0.0407374
325 2 15.4692 31.1274 0.156578
326 2 19.3823 30.9239 15.7571
327 2 23.3273 31.1139 15.7701
328 2 27.2776 31.0422 0.229985
329 2 31.2968 31.1498 16.1745
330 2 35.2949 31.2054 15.9796
331 2 39.3963 31.116 16.019
332 2 43.3121 31.4006 0.180312
333 2 47.2378 31.2929 15.7924
334 2 51.4239 31.3965 0.212519
335 2 55.4138 31.3951 15.6743
336 2 59.4987 31.2719 0.0827903
337 2 63.5264 31.3747 16.0744
338 2 67.4221 31.5402 0.21171
339 2 71.4931 31.7109 0.154459
340 2 75.4918 31.4776 0.139888
341 2 79.7058 31.6804 15.8581
342 2 83.5949 31.5915 0.0458219
343 2 87.6606 31.7021 16.0379
344 2 91.5274 31.809 15.8751
345 2 95.414 31.8566 15.9287
346 2 99.4575 31.7521 0.160576
347 2 103.269 31.588 15.8804
348 2 107.086 31.6427 15.8042
349 2 111.113 31.7091 15.9271
350 2 114.844 31.5647 15.9717
351 2 118.936 31.6672 16.0571
352 2 122.904 31.5837 15.9141
353 2 126.707 31.4863 15.9938
354 2 130.521 31.4983 16.0314
355 2 134.386 31.5652 16.0196
356 2 138.351 31.5532 16.2298
357 2 142.248 31.3338 0.272325
358 2 146.247 31.3113 16.146
359 2 150.095 31.3213 0.116153
360 2 154.092 31.1446 0.201936
361 2 -0.342259 35.0956 0.303384
362 2 3.7037 35.3223 15.9245
363 2 7.67646 35.1325 16.0611
364 2 11.5002 35.0725 15.9352
365 2 15.3828 35.133 0.184398
366 2 19.5034 35.0257 0.0980311
367 2 23.4181 34.9136 0.0447872
368 2 27.3555 34.973 0.0599902
369 2 31.2413 35.1478 0.0912878
370 2 35.3908 34.986 0.18138
371 2 39.2375 35.141 0.0231459
372 2 43.2275 35.0447 15.9477
373 2 47.3968 35.2261 15.9451
374 2 51.313 35.2527 15.8389
375 2 55.5068 35.2606 0.27058
376 2 59.4929 35.2502 0.161874
377 2 63.3726 35.3401 16.0407
378 2 67.5385 35.2624 0.00914096
379 2 71.3775 35.533 0.363612
380 2 75.5312 35.5583 15.9759
381 2 79.383 35.4745 0.126703
382 2 83.5381 35.5719 15.7113
383 2 87.4648 35.5751 -0.0190791
384 2 91.4051 35.8815 0.172311
385 2 95.5048 35.4972 16.0517
386 2 99.4778 35.6439 0.0801632
387 2 103.244 35.8223 15.8485
388 2 107.165 35.982 15.9188
389 2 111.168 35.8468 15.9544
390 2 115.045 35.6244 15.9326
391 2 118.942 35.7464 15.763
392 2 122.822 35.6 15.9555
393 2 126.583 35.5338 16.0035
394 2 130.642 35.4577 16.1445
395 2 134.656 35.4052 15.9291
396 2 138.498 35.4948 0.276622
397 2 142.277 35.4861 0.18893
398 2 146.155 35.4422 0.232598
399 2 150.073 35.2997 16.0589
400 2 154.178 35.188 0.273245
401 2 158.036 39.205 0.186509
402 2 3.86746 39.367 0.0692957
403 2 7.85403 39.1955 0.0727088
404 2 11.6637 39.0602 15.8926
405 2 15.4352 39.1067 0.244389
406 2 19.448 38.9771 15.8822
407 2 23.1865 38.9263 15.9066
408 2 27.3625 38.962 15.8284
409 2 31.3703 38.9296 0.263074
410 2 35.2479 39.2324 0.289007
411 2 39.2263 39.1165 16.2157
412 2 43.2459 39.0027 0.153703
413 2 47.2748 39.1158 0.244922
414 2 51.311 39.1272 15.9718
415 2 55.2362 39.0827 -0.0551719
416 2 59.1636 39.1294 0.226348
417 2 63.3729 39.2571 0.288901
418 2 67.491 39.2946 0.0224779
419 2 71.193 39.3434 0.41001
420 2 75.3568 39.2961 0.15728
421 2 79.5276 39.2851 0.263967
422 2 83.4334 39.3992 15.8785
423 2 87.4788 39.4636 15.9726
424 2 91.4489 39.5352 15.6983
425 2 95.6578 39.6415 15.925
426 2 99.4693 39.5497 0.00891605
427 2 103.381 39.8583 15.9571
428 2 107.232 39.6576 15.7163
429 2 111.305 39.6551 15.9912
430 2 115.126 39.5123 15.9118
431 2 119.048 39.4956 15.8018
432 2 122.934 39.664 16.1255
433 2 126.788 39.3074 0.209717
434 2 130.712 39.6044 15.9947
435 2 134.624 39.4861 16.1023
436 2 138.422 39.3974 16.13
437 2 142.226 39.4538 16.0497
438 2 146.204 39.4851 0.275041
439 2 150.313 39.1306 15.8851
440 2 154.263 39.1295 15.8832
441 2 158.236 43.1588 0.243077
442 2 3.85032 43.185 16.1518
443 2 7.81375 43.0942 16.0092
444 2 11.819 43.0639 0.213658
445 2 15.8075 42.9796 0.349848
446 2 19.4781 42.9731 0.156973
447 2 23.5785 43.1404 15.8354
448 2 27.3628 42.7024 15.7902
449 2 31.3788 42.6681 0.144307
450 2 35.3167 42.9889 0.197476
451 2 39.1949 42.859 0.0486567
452 2 43.152 42.8821 0.223304
453 2 46.9828 42.8844 16.0307
454 2 51.0676 42.9467 15.8066
455 2 55.1529 42.9667 0.0959511
456 2 59.3116 43.1429 15.9928
457 2 63.2574 43.3247 0.305302
458 2 67.2928 43.0965 0.297182
459 2 71.2695 43.0515 0.276389
460 2 75.4269 43.1308 0.14437
461 2 79.33 43.2682 0.173221
462 2 83.3553 43.4151 15.7494
463 2 87.4448 43.4722 15.8046
464 2 91.2625 43.6179 0.256307
465 2 95.4058 43.5263 0.185269
466 2 99.3826 43.5955 16.0114
467 2 103.486 43.6164 15.9862
468 2 107.399 43.7 15.9931
469 2 111.263 43.6583 16.0507
470 2 115.244 43.5629 15.999
471 2 119.134 43.6874 16.0773
472 2 123.129 43.5431 16.0421
473 2 126.987 43.566 0.193164
474 2 130.792 43.556 0.17785
475 2 134.601 43.3227 16.1068
476 2 138.735 43.1563 15.9882
477 2 142.735 43.2834 15.9247
478 2 146.534 43.5548 0.379913
479 2 150.296 43.2328 0.336376
480 2 154.251 43.2275 0.208429
481 2 -0.0593471 47.1746 0.274933
482 2 3.82627 47.0265 0.0869365
483 2 7.93119 47.143 0.277597
484 2 11.7227 47.4028 0.362321
485 2 15.6809 46.9888 0.279075
486 2 19.3776 46.9355 0.221044
487 2 23.4059 46.7533 0.251079
488 2 27.4847 46.9028 15.7329
489 2 31.2636 46.7162 0.197499
490 2 35.0543 46.612 0.0954237
491 2 39.1275 46.9204 15.8633
492 2 43.2185 46.7329 15.9361
493 2 47.1614 46.8937 0.0837352
494 2 50.9044 46.8088 15.9471
495 2 55.117 46.7143 15.9775
496 2 59.0664 46.941 15.894
497 2 63.2899 47.1295 0.289223
498 2 67.3541 47.2329 0.327951
499 2 71.2732 46.9773 16.0878
500 2 75.3065 47.0542 0.158517
501 2 79.3695 47.1512 15.9555
502 2 83.2557 47.365 15.638
503 2 87.2741 47.3061 0.187913
504 2 91.1957 47.4187 0.371325
505 2 95.1736 47.4012 0.150428
506 2 99.2023 47.664 0.269475
507 2 103.346 47.3823 0.264488
508 2 107.38 47.6502 15.7365
509 2 111.227 47.6672 15.8407
510 2 115.275 47.6728 0.208847
511 2 119.433 47.7051 16.0349
512 2 123.172 47.5081 16.0282
513 2 127.025 47.5885 16.0307
514 2 130.967 47.534 16.0321
515 2 134.77 47.5425 15.9075
516 2 138.564 47.4251 16.0793
517 2 142.413 47.3419 15.9789
518 2 146.473 47.3502 0.0982154
519 2 150.492 47.2879 0.147823
520 2 154.531 47.3255 16.1643
521 2 158.328 51.1541 0.276199
522 2 3.96534 51.1127 16.2095
523 2 7.88188 51.2146 16.0049
524 2 11.8702 51.1152 15.9228
525 2 15.7575 51.1464 0.323995
526 2 19.5071 51.0822 15.9362
527 2 23.4054 50.8699 15.7317
528 2 27.1454 50.624 15.8713
529 2 31.4532 50.6526 0.203094
530 2 35.1808 50.6926 -0.00759185
531 2 39.1938 50.6993 15.7224
532 2 43.0695 50.8108 16.0714
533 2 47.215 50.9851 0.314192
534 2 51.237 50.8296 0.335809
535 2 55.0922 50.9235 0.401412
536 2 59.0919 51.0323 16.0366
537 2 63.1463 51.1087 15.9063
538 2 67.1586 50.9776 0.383445
539 2 71.2295 50.9572 0.321015
540 2 75.2424 50.848 0.070135
541 2 79.2449 51.2026 0.0977408
542 2 83.3126 51.1215 0.325019
543 2 87.3327 51.1246 -0.0449989
544 2 91.2744 51.1625 0.128993
545 2 95.1199 51.5867 -0.0675875
546 2 99.2058 51.2963 0.116205
547 2 103.235 51.495 15.7425
548 2 107.289 51.4916 -0.0369937
549 2 111.28 51.5521 0.188179
550 2 115.455 51.8625 15.8765
551 2 119.144 51.5991 15.9856
552 2 123.091 51.5596 15.8644
553 2 127.032 51.554 15.7808
554 2 130.758 51.5637 0.345693
555 2 134.678 51.6104 0.0397949
556 2 138.822 51.3399 0.17402
557 2 142.682 51.3602 0.15309
558 2 146.52 51.2625 15.9027
559 2 150.554 51.368 0.249466
560 2 154.57 51.1127 0.277949
561 2 158.499 54.9871 0.26734
562 2 4.08047 55.2129 0.297361
563 2 7.80987 55.1276 0.151057
564 2 11.8361 54.9092 0.318444
565 2 15.6531 54.9639 0.104365
566 2 19.6494 54.7949 15.9354
567 2 23.6138 54.908 15.9564
568 2 27.4111 54.8915 15.8765
569 2 31.4486 54.7692 0.314931
570 2 35.2289 54.716 0.17868
571 2 39.0334 54.6718 16.2187
572 2 42.9172 54.6439 16.027
573 2 47.0669 54.8628 0.0428016
574 2 51.2273 54.744 16.1905
575 2 54.9765 54.6288 15.9415
576 2 58.9345 54.9448 16.1011
577 2 63.1087 54.8981 15.8378
578 2 67.2693 54.919 0.416446
579 2 71.2527 54.7704 0.169793
580 2 75.1298 54.8748 15.8763
581 2 79.3175 55.2457 0.0898522
582 2 83.3298 54.9909 0.269879
583 2 87.3498 55.299 0.0827717
584 2 91.2656 55.149 15.8932
585 2 95.425 55.3967 0.205929
586 2 99.1455 55.2619 15.932
587 2 103.211 55.3721 16.0488
588 2 107.331 55.0871 0.0413305
589 2 111.279 55.4669 15.9845
590 2 115.204 55.6593 16.0515
591 2 119.18 55.4089 15.9911
592 2 122.909 55.713 0.134531
593 2 126.907 55.4813 15.9182
594 2 130.812 55.3894 16.0387
595 2 134.896 55.5463 0.248119
596 2 138.829 55.5547 15.8792
597 2 142.782 55.3595 -0.049033
598 2 146.757 55.3557 0.0422696
599 2 150.639 55.2773 0.122377
600 2 154.44 55.2751 16.0644
601 2 158.505 59.272 -0.0392637
602 2 4.05221 59.2706 15.8903
603 2 7.9029 59.1526 16.0255
604 2 11.7497 58.9345 0.442247
605 2 15.6397 58.9986 16.0931
606 2 19.6258 58.8661 0.11622
607 2 23.5835 59.0615 0.0911603
608 2 27.4799 58.884 0.0425642
609 2 31.2727 58.6664 16.007
610 2 35.2146 58.7575 15.9353
611 2 39.2105 58.6311 15.988
612 2 43.012 58.5225 16.0918
613 2 47.1612 58.5414 16.0653
614 2 51.1799 58.5745 16.1528
615 2 55.1183 58.8763 16.0082
616 2 59.069 58.858 0.20114
617 2 63.1278 58.7243 15.965
618 2 67.1659 58.7849 0.107779
619 2 71.2441 58.745 15.7763
620 2 75.2601 58.7251 -0.0274659
621 2 78.9907 58.9169 0.0423851
622 2 83.346 58.9087 -0.058124
623 2 87.1505 59.0076 15.9284
624 2 90.9909 58.9682 15.9123
625 2 95.2002 59.2986 0.0840488
626 2 99.1131 59.2729 0.281828
627 2 103.177 59.2479 16.0083
628 2 107.296 59.2338 0.198553
629 2 111.274 59.4571 15.8988
630 2 115.07 59.5086 16.0859
631 2 119.065 59.403 15.8084
632 2 123.105 59.5278 0.293817
633 2 127.045 59.5499 15.9579
634 2 130.921 59.5418 -0.0448065
635 2 135 59.5265 16.0931
636 2 138.821 59.5572 0.120997
637 2 142.621 59.3761 0.0770908
638 2 146.498 59.2959 -0.0588384
639 2 150.557 59.0791 16.0716
640 2 154.603 59.1217 0.365803
641 2 0.0411593 63.2725 0.175148
642 2 4.09422 63.1407 0.321775
643 2 8.02148 63.1704 15.9112
644 2 12.0374 63.0652 15.9567
645 2 15.8934 62.9629 16.113
646 2 19.7326 62.966 0.268738
647 2 23.6265 62.8511 0.359851
648 2 27.4769 63.0111 0.0574715
649 2 31.5443 62.8824 0.331222
650 2 35.279 62.833 0.362312
651 2 39.2065 62.5173 16.0726
652 2 43.2816 62.665 0.365164
653 2 47.2581 62.5671 16.0023
654 2 51.0024 62.6341 15.8876
655 2 55.1735 62.7098 0.165191
656 2 59.0678 62.607 15.7729
657 2 63.1749 62.7227 0.104488
658 2 67.1191 62.6817 15.8766
659 2 71.2019 62.8639 0.245972
660 2 75.0033 62.7998 0.189176
661 2 79.0585 62.9104 -0.0492949
662 2 83.046 62.8537 0.0341254
663 2 87.0204 63.0158 16.0402
664 2 91.0758 62.9357 15.8933
665 2 95.0895 63.1304 0.0462065
666 2 99.0953 63.1394 0.197758
667 2 103.156 63.2156 15.9134
668 2 107.009 63.2282 15.8703
669 2 111.147 63.3712 15.8252
670 2 115.109 63.4509 0.0728201
671 2 119.151 63.3921 16.1104
672 2 123.246 63.3348 0.207334
673 2 127.187 63.5402 16.0066
674 2 130.96 63.4861 0.0858411
675 2 134.952 63.5927 16.0958
676 2 138.892 63.536 15.7979
677 2 142.916 63.3287 16.054
678 2 146.666 63.3156 0.405617
679 2 150.564 63.318 15.8824
680 2 154.554 63.208 0.244392
681 2 0.341628 67.2742 0.232461
682 2 4.10705 67.1198 0.213315
683 2 7.98973 67.0933 15.9289
684 2 11.971 66.901 15.9832
685 2 15.993 66.8705 0.316251
686 2 19.899 66.9148 0.265886
687 2 23.673 66.929 0.29815
688 2 27.4782 66.9725 0.351496
689 2 31.497 66.8895 0.219062
690 2 35.3913 66.9011 0.274833
691 2 39.1527 66.6417 16.0832
692 2 43.1218 66.7668 0.12938
693 2 47.1145 66.5177 15.9968
694 2 51.1775 66.4986 15.9696
695 2 55.1257 66.3798 15.8789
696 2 59.0437 66.47 16.0284
697 2 62.9471 66.6426 15.9622
698 2 67.2014 66.5703 15.9256
699 2 70.9971 66.7141 0.136952
700 2 75.1752 66.7833 15.9347
701 2 79.0053 66.8158 15.735
702 2 82.9644 66.9063 0.221837
703 2 87.1022 66.8832 16.0457
704 2 91.0049 67.0784 15.8807
705 2 95.0998 66.8285 0.142747
706 2 99.0891 67.1321 0.165137
707 2 103.149 67.0007 0.106443
708 2 106.99 67.1595 16.0084
709 2 110.826 67.149 16.1738
710 2 114.938 67.2604 16.0475
711 2 118.969 67.3367 0.225043
712 2 122.973 67.2781 0.123821
713 2 127.045 67.5015 0.0205081
714 2 131.149 67.5537 15.8037
715 2 135.112 67.4709 0.207489
716 2 138.958 67.5742 0.26805
717 2 143.027 67.6554 16.1174
718 2 146.876 67.3816 15.9642
719 2 150.791 67.313 15.9032
720 2 154.581 67.3379 0.318791
721 2 -0.0190467 71.3233 -0.0766777
722 2 4.01421 71.1226 15.8927
723 2 8.06297 71.1089 0.15945
724 2 11.8211 70.9943 15.8745
725 2 15.6547 70.9506 0.0993045
726 2 19.5781 70.9979 0.0779389
727 2 23.7459 70.7476 0.179921
728 2 27.6854 70.8044 15.9885
729 2 31.5752 70.934 0.0489697
730 2 35.4117 70.7635 0.298901
731 2 39.2848 70.7113 16.1174
732 2 43.3756 70.6364 0.254384
733 2 47.2239 70.5528 16.0591
734 2 51.2651 70.5577 16.0923
735 2 55.1047 70.3608 0.10895
736 2 59.0559 70.5388 0.0798322
737 2 63.1681 70.4261 0.169919
738 2 66.887 70.422 15.8356
739 2 71.015 70.4817 15.8348
740 2 75.0913 70.8558 16.054
741 2 79.0128 70.5423 0.185127
742 2 82.766 70.5185 0.246738
743 2 87.1427 70.7713 16.0492
744 2 91.0467 70.962 16.0512
745 2 95.1977 70.7957 15.8994
746 2 98.9856 70.8357 16.0875
747 2 103.188 70.9603 15.9023
748 2 107.094 71.1822 15.7726
749 2 110.856 71.3195 15.8578
750 2 114.973 71.2506 0.0198636
751 2 118.991 71.2407 15.9803
752 2 122.957 71.4792 0.251984
753 2 127.146 71.4839 16.0058
754 2 131.02 71.5293 15.7834
755 2 134.934 71.2186 16.0072
756 2 138.895 71.488 15.857
757 2 143.023 71.5359 0.0108867
758 2 146.752 71.4552 0.0829174
759 2 150.61 71.2433 0.0961396
760 2 154.508 71.2866 15.724
761 2 0.200339 75.0418 0.119411
762 2 4.25385 75.2876 15.9048
763 2 8.11456 75.1017 15.9847
764 2 12.0195 75.0193 15.9669
765 2 16.0566 75.2872 16.0191
766 2 19.8812 74.9281 15.7468
767 2 23.9324 75.0053 15.7364
768 2 27.7864 75.0146 16.1602
769 2 31.5066 74.8656 0.150314
770 2 35.4629 74.8268 16.0507
771 2 39.4985 74.6791 16.0478
772 2 43.2885 74.5827 0.337214
773 2 47.2658 74.5627 15.9733
774 2 51.1037 74.4252 0.227375
775 2 55.1368 74.4721 15.9026
776 2 59.3349 74.5018 15.892
777 2 62.9725 74.4135 15.7293
778 2 67.0952 74.3612 0.243827
779 2 70.9549 74.4209 0.0708934
780 2 74.8735 74.5347 0.111532
781 2 79.1387 74.4984 0.191204
782 2 82.9546 74.6382 0.208246
783 2 86.8579 74.6932 0.0603394
784 2 91.0251 74.7994 15.8981
785 2 94.8899 74.7322 16.0969
786 2 99.0295 74.9492 0.282298
787 2 102.828 74.918 16.039
788 2 107.113 74.9443 16.0073
789 2 110.957 75.128 15.6625
790 2 114.976 75.1722 15.8619
791 2 119.052 75.187 0.300236
792 2 123.029 75.3395 15.8771
793 2 127.019 75.1277 16.0431
794 2 131 75.2175 0.133817
795 2 135.014 75.3109 15.9076
796 2 139.153 75.6124 16.0088
797 2 143.082 75.42 15.826
798 2 147.014 75.3777 15.7799
799 2 150.766 75.4308 -0.00066783
800 2 154.648 75.3717 -0.122038
801 2 0.205662 79.1793 0.250094
802 2 4.259 79.1287 15.7086
803 2 8.21253 79.0095 0.201525
804 2 12.1355 79.0692 0.215487
805 2 16.0074 79.0393 15.9685
806 2 20.042 79.1665 15.8826
807 2 23.8409 78.9244 0.132492
808 2 27.8885 79.0311 0.278782
809 2 31.6226 78.8498 0.246634
810 2 35.6112 78.5639 0.330336
811 2 39.5403 78.7556 16.223
812 2 43.5292 78.7855 16.1514
813 2 47.3995 78.4649 15.9516
814 2 51.4774 78.4909 0.255761
815 2 55.3673 78.41 0.327266
816 2 59.2529 78.3125 15.9491
817 2 63.1083 78.59 15.9958
818 2 67.0697 78.4286 0.039076
819 2 71.0464 78.3058 15.8676
820 2 75.025 78.4437 0.181904
821 2 79.0206 78.5761 15.8768
822 2 82.8413 78.3851 15.7368
823 2 86.9403 78.3322 0.0190627
824 2 90.9477 78.6873 0.0192947
825 2 95.1013 78.5081 0.119273
826 2 98.7915 78.9432 15.7791
827 2 103.018 78.8255 15.9929
828 2 107.003 78.8611 0.214446
829 2 110.666 78.9024 0.111223
830 2 114.994 79.0305 0.186675
831 2 119.031 78.9901 0.0916881
832 2 123.001 79.2132 15.9895
833 2 126.844 79.1903 0.307399
834 2 131.035 79.2431 15.8916
835 2 135.193 79.2487 0.0984409
836 2 139.043 79.2928 15.7656
837 2 143.006 79.4539 15.7284
838 2 146.954 79.2358 15.82
839 2 150.653 79.3983 15.8529
840 2 154.899 79.4405 0.294929
841 2 0.394986 83.1938 15.973
842 2 4.4722 83.3188 15.858
843 2 8.37253 83.0403 0.154872
844 2 12.1936 83.206 15.8549
845 2 16.0677 83.0383 16.0382
846 2 20.1397 83.0676 0.224514
847 2 23.7684 82.9333 16.0537
848 2 27.938 82.8953 0.333574
849 2 31.7977 82.7071 15.9264
850 2 35.5896 82.7178 0.207342
851 2 39.5747 82.6764 0.247261
852 2 43.5648 82.7524 16.0084
853 2 47.435 82.5652 0.128603
854 2 51.1668 82.3512 0.244877
855 2 55.1674 82.3617 0.342289
856 2 58.9417 82.5215 16.0366
857 2 63.0065 82.2973 16.0334
858 2 67.0048 82.3552 15.9209
859 2 70.7477 82.3138 15.8071
860 2 74.7889 82.386 15.9496
861 2 79.0046 82.333 16.0867
862 2 82.9864 82.4405 0.124534
863 2 86.8623 82.5071 -0.0454739
864 2 90.9743 82.3568 15.91
865 2 94.7996 82.7741 0.235668
866 2 98.9273 82.7971 15.8534
867 2 102.931 82.865 0.132593
868 2 106.835 82.8879 15.9595
869 2 110.888 83.0056 15.9591
870 2 114.768 82.7188 15.9509
871 2 118.943 83.0266 15.9307
872 2 122.836 83.0225 15.903
873 2 127.091 83.1191 15.8472
874 2 130.942 83.1363 15.8947
875 2 134.904 83.1538 0.25597
876 2 139.018 83.2261 16.0624
877 2 143.175 83.2373 0.108293
878 2 147.149 83.4335 15.9177
879 2 151.064 83.5912 0.299873
880 2 154.794 83.5235 0.330127
881 2 0.661764 87.2822 15.9342
882 2 4.47055 87.3006 0.0493858
883 2 8.37771 87.1041 15.9357
884 2 12.2466 87.0651 15.8016
885 2 16.1925 86.9507 15.6502
886 2 20.1853 86.9939 15.7381
887 2 24.0503 86.9884 15.8736
888 2 27.8333 86.7884 0.309041
889 2 31.7429 86.7914 15.7851
890 2 35.7833 86.7689 0.0653231
891 2 39.5581 86.865 15.9478
892 2 43.4385 86.7176 15.9243
893 2 47.6425 86.6698 15.9705
894 2 51.2702 86.5183 15.9337
895 2 55.0267 86.4643 15.944
896 2 59.1764 86.2339 0.178931
897 2 63.0009 86.257 0.128445
898 2 66.9415 86.2329 15.9838
899 2 70.939 86.2143 0.183958
900 2 74.9357 86.2052 15.86
901 2 78.9213 86.2177 0.0398096
902 2 82.7895 86.2628 -0.040955
903 2 86.7707 86.4874 15.8493
904 2 90.6556 86.5058 16.0672
905 2 94.6918 86.6784 15.8322
906 2 98.9091 86.6333 15.9529
907 2 102.89 86.6333 0.22518
908 2 106.921 86.7325 0.21803
909 2 110.848 86.9325 15.8634
910 2 114.697 86.9048 0.193306
911 2 118.844 86.8995 0.20984
912 2 122.93 86.8679 0.10057
913 2 126.841 87.0854 15.8825
914 2 130.809 87.1133 15.8453
915 2 134.812 86.9805 15.967
916 2 138.91 87.0823 16.0129
917 2 142.835 87.245 16.0383
918 2 146.948 87.3627 -0.03456
919 2 150.877 87.2635 15.8451
920 2 155.021 87.4097 16.0665
921 2 0.667569 91.244 0.146476
922 2 4.5542 91.1726 0.212754
923 2 8.34232 91.143 16.0665
924 2 12.178 90.8818 15.8952
925 2 16.3416 91.0734 0.141701
926 2 20.3137 90.8401 0.0287947
927 2 24.0731 90.8209 15.8703
928 2 27.9069 90.8053 15.9111
929 2 31.7769 90.8423 15.8611
930 2 35.6377 90.6565 0.427362
931 2 39.6126 90.7511 15.8961
932 2 43.4756 90.6091 15.9987
933 2 47.5699 90.6675 0.219135
934 2 51.4131 90.6556 0.361702
935 2 55.2953 90.3435 0.254589
936 2 59.0754 90.3511 0.178351
937 2 63.0779 90.3231 0.0604126
938 2 67.0411 90.3843 15.8924
939 2 70.9863 90.2799 16.0088
940 2 75.026 90.3069 0.155849
941 2 78.825 90.0307 0.217591
942 2 82.8819 90.2312 0.153138
943 2 86.8323 90.3868 0.0741151
944 2 90.7476 90.4401 0.120627
945 2 94.7843 90.4822 15.987
946 2 99.0169 90.5631 15.7764
947 2 102.94 90.625 0.142615
948 2 106.781 90.6939 15.8684
949 2 110.919 90.6598 15.9761
950 2 114.877 90.8026 0.144291
951 2 118.887 90.8577 -0.164877
952 2 122.986 90.9055 15.7566
953 2 126.923 90.9563 0.00566859
954 2 130.879 91.0938 0.0646192
955 2 134.773 91.1453 15.8506
956 2 138.993 91.009 15.8771
957 2 143.08 91.0755 15.815
958 2 146.951 91.2388 15.9188
959 2 150.773 91.1149 15.8966
960 2 154.92 91.2181 16.1009
961 2 0.736268 95.1241 -0.00871102
962 2 4.51693 95.0995 15.8645
963 2 8.34148 95.0223 15.7638
964 2 12.1381 95.0139 15.8988
965 2 16.1381 95.0247 15.8312
966 2 19.9728 95.0549 15.8912
967 2 24.0926 94.9062 16.0019
968 2 28.0935 94.8861 15.8012
969 2 31.8084 94.9084 15.68
970 2 35.6964 94.8346 16.0223
971 2 39.6656 94.6932 15.8496
972 2 43.6635 94.7542 15.8643
973 2 47.5098 94.5896 0.327743
974 2 51.3438 94.6283 15.9035
975 2 55.3837 94.5739 0.246162
976 2 59.4303 94.494 15.8334
977 2 63.1373 94.3962 0.116642
978 2 67.2188 94.4316 0.182596
979 2 71.0305 94.3725 0.345302
980 2 75.095 94.2925 0.120522
981 2 78.8789 94.1038 15.9711
982 2 82.5882 94.4335 0.311028