ITEM: TIMESTEP
24000
ITEM: NUMBER OF ATOMS
32000
ITEM: BOX BOUNDS xy xz yz pp pp pp
0.0000000000000000e+00 1.5831999999999999e+02 0.0000000000000000e+00
0.0000000000000000e+00 1.5831999999999999e+02 0.0000000000000000e+00
1.6664981670444678e-01 1.5931062183295387e+01 0.0000000000000000e+00
ITEM: ATOMS id type x y z
1 2 157.969 157.84 15.823
2 2 3.76769 157.82 15.837
3 2 7.62296 157.868 -0.0170372
4 2 11.7024 157.874 0.0508788
5 2 15.6925 157.89 0.0122744
6 2 19.6288 158.034 16.1053
7 2 23.5409 158.274 15.7351
8 2 27.6323 158.269 15.868
9 2 31.5999 157.983 -0.0578494
10 2 35.7095 158.147 15.8634
11 2 39.7278 -0.220449 16.0331
12 2 43.5716 -0.15083 0.198783
13 2 47.5672 0.000905025 15.8048
14 2 51.6696 0.0076372 -0.134729
15 2 55.7544 158.554 0.207717
16 2 59.6546 158.29 16.0984
17 2 63.7961 0.00476587 15.8042
18 2 67.8689 0.128674 15.782
19 2 71.598 0.307053 15.7733
20 2 75.3566 158.487 15.6591
21 2 79.4864 -0.051393 15.986
22 2 83.4327 158.288 16.019
23 2 87.4472 158.098 16.0806
24 2 91.0897 158.339 0.160804
25 2 95.065 158.131 15.9714
26 2 99.0391 158.147 15.8197
27 2 103.059 157.947 15.9946
28 2 106.969 157.942 15.8927
29 2 110.816 158.004 0.129884
30 2 114.534 158.109 0.272899
31 2 118.647 157.91 15.9492
32 2 122.688 157.888 0.364087
33 2 126.542 157.806 0.216714
34 2 130.357 157.901 -0.0426488
35 2 134.156 157.689 16.0659
36 2 138.067 157.821 15.8844
37 2 141.957 157.652 15.9043
38 2 145.987 157.448 15.632
39 2 149.877 157.633 -0.0504817
40 2 153.971 157.631 0.175868
41 2 157.976 3.40931 15.9378
42 2 3.70741 3.30636 15.7804
43 2 7.69669 3.53456 0.126883
44 2 11.6312 3.55184 15.7904
45 2 15.7788 3.50817 15.975
46 2 19.6519 3.59023 15.8796
47 2 23.5789 3.78035 0.182466
48 2 27.8168 3.71671 0.0527689
49 2 31.8219 3.78634 0.217328
50 2 35.6615 3.70584 -0.000928234
51 2 39.7748 3.71942 0.208209
52 2 43.4985 3.79725 15.8138
53 2 47.5765 3.71682 16.0132
54 2 51.6096 3.97578 15.9908
55 2 55.5586 4.13732 0.0701409
56 2 59.6641 3.9667 15.957
57 2 63.7543 3.80623 15.7038
58 2 67.7203 4.15545 15.9151
59 2 71.6316 4.18659 15.8575
60 2 75.4628 4.15677 16.033
61 2 79.6224 4.12304 15.7129
62 2 83.3922 3.86467 15.7857
63 2 87.3616 4.03598 15.8318
64 2 91.3896 3.74426 -0.00303182
65 2 95.1577 3.69483 15.9187
66 2 99.154 3.65195 0.099921
67 2 103.047 3.72818 15.8678
68 2 106.888 3.67523 16.0443
69 2 110.828 3.66329 0.398928
70 2 114.583 3.81176 0.306864
71 2 118.576 3.58349 0.257236
72 2 122.646 3.78114 0.321373
73 2 126.59 3.5717 0.229896
74 2 130.284 3.46084 0.465555
75 2 134.256 3.38478 15.8251
76 2 138.224 3.36702 0.068099
77 2 142.165 3.35894 0.193507
78 2 145.95 3.15948 -0.0585424
79 2 149.979 3.38737 15.9625
80 2 154.037 3.10759 15.9168
81 2 157.765 7.27674 15.9357
82 2 3.46957 7.29693 15.7305
83 2 7.62267 7.27522 16.0247
84 2 11.5664 7.38842 0.0535483
85 2 15.6544 7.48899 15.9824
86 2 19.5857 7.67135 15.8781
87 2 23.4332 7.52351 0.0178661
88 2 27.6928 7.51865 15.8796
89 2 31.7438 7.7233 15.7397
90 2 35.754 7.74423 16.0303
91 2 39.7794 7.73198 0.166674
92 2 43.8153 7.66273 0.281633
93 2 47.6366 7.69767 15.8711
94 2 51.7731 7.80378 0.104603
95 2 55.629 7.96731 15.9264
96 2 59.7591 7.92967 0.17888
97 2 63.5919 7.84775 15.9173
98 2 67.5343 7.94434 15.9171
99 2 71.5392 8.1193 15.9491
100 2 75.6915 8.22299 15.679
101 2 79.6469 8.04744 0.00931618
102 2 83.4787 7.86514 15.8443
103 2 87.3549 7.80764 15.8556
104 2 91.5021 8.02943 15.8479
105 2 95.3524 7.84742 15.7833
106 2 99.322 7.74176 0.216346
107 2 103.016 7.78261 0.0434106
108 2 106.87 7.88638 15.9922
109 2 111.003 7.54365 0.422472
110 2 114.695 7.62197 15.9909
111 2 118.605 7.47872 16.0284
112 2 122.424 7.54803 15.8941
113 2 126.49 7.61396 15.9962
114 2 130.271 7.42777 0.310124
115 2 134.291 7.31367 0.133604
116 2 138.455 7.51702 16.1175
117 2 142.195 7.19209 16.0466
118 2 146.018 7.3835 -0.00643544
119 2 149.792 7.46453 0.230569
120 2 154.048 7.29039 15.9261
121 2 157.76 11.3396 15.9555
122 2 3.36193 11.1677 15.7022
123 2 7.38695 11.003 15.9026
124 2 11.4137 11.2223 0.276707
125 2 15.4769 11.5076 15.7874
126 2 19.5283 11.5129 15.9155
127 2 23.6379 11.6085 15.9263
128 2 27.4984 11.4649 15.9718
129 2 31.6883 11.6113 15.8836
130 2 35.5395 11.5789 15.8593
131 2 39.6987 11.5274 16.1001
132 2 43.6816 11.6662 0.230129
133 2 47.5286 11.8716 0.0863359
134 2 51.5249 11.805 15.8402
135 2 55.6487 11.7884 0.0929228
136 2 59.475 11.8974 15.786
137 2 63.6377 12.0528 0.195962
138 2 67.5816 12.0938 15.9714
139 2 71.6746 12.0771 15.8947
140 2 75.643 11.9045 15.9801
141 2 79.5522 11.9212 15.7695
142 2 83.617 11.7799 15.8804
143 2 87.4373 11.8339 0.100068
144 2 91.344 11.7747 0.122704
145 2 95.3027 11.8386 15.9446
146 2 99.2508 11.7288 15.9149
147 2 103.079 11.5388 0.0163953
148 2 107.123 11.6084 15.983
149 2 110.87 11.5745 0.105636
150 2 114.667 11.6502 15.9524
151 2 118.724 11.5303 0.0828675
152 2 122.679 11.5998 0.10921
153 2 126.552 11.4405 15.9669
154 2 130.505 11.4803 15.8981
155 2 134.295 11.4476 0.122342
156 2 138.448 11.409 0.26101
157 2 142.561 11.3816 0.179859
158 2 146.14 11.1822 0.062866
159 2 150.067 11.3675 0.12969
160 2 153.846 11.1588 0.161789
161 2 157.9 15.1878 15.7935
162 2 3.64196 15.1621 15.7352
163 2 7.5599 15.1791 15.8452
164 2 11.6092 15.2512 15.8495
165 2 15.3804 15.2014 15.9637
166 2 19.5564 15.3499 0.157902
167 2 23.5195 15.3141 0.168766
168 2 27.4376 15.3623 16.001
169 2 31.5039 15.3697 0.190222
170 2 35.6677 15.3287 15.969
171 2 39.7555 15.5017 0.120274
172 2 43.715 15.7026 0.00135797
173 2 47.5465 15.8014 0.0522544
174 2 51.6188 15.7303 -0.00357707
175 2 55.6715 15.4472 15.7703
176 2 59.5911 15.7149 0.209896
177 2 63.6498 15.7255 15.9561
178 2 67.7807 15.8547 15.8463
179 2 71.6539 16.0262 0.196393
180 2 75.5361 16.1546 0.142428
181 2 79.6308 15.9519 15.8563
182 2 83.4558 15.9894 0.20338
183 2 87.5423 15.892 15.7527
184 2 91.5188 15.9193 0.374441
185 2 95.3775 15.9178 15.8022
186 2 99.3542 15.748 15.8625
187 2 103.056 15.6982 15.867
188 2 107.152 15.7094 15.7303
189 2 110.879 15.899 15.7992
190 2 114.781 15.7382 15.9813
191 2 118.731 15.4989 0.26752
192 2 122.756 15.5317 15.8405
193 2 126.69 15.5128 16.0738
194 2 130.479 15.5614 0.251967
195 2 134.457 15.5513 0.266012
196 2 138.436 15.3824 0.0708274
197 2 142.283 15.4935 15.8123
198 2 146.03 15.2449 0.302308
199 2 150.394 15.2912 0.0200922
200 2 154.108 15.2767 15.9241
201 2 158.027 19.1996 15.7687
202 2 3.40831 19.3527 0.0338606
203 2 7.51691 19.1066 -0.0536168
204 2 11.4419 18.9041 15.9127
205 2 15.3377 19.0317 15.7411
206 2 19.5275 19.2957 15.9558
207 2 23.6653 19.3831 15.8671
208 2 27.4276 19.3076 15.6961
209 2 31.6928 19.2486 15.8771
210 2 35.421 19.6211 16.0477
211 2 39.5439 19.4624 0.139041
212 2 43.5808 19.6387 16.0406
213 2 47.4726 19.6107 15.9583
214 2 51.6284 19.4918 0.301803
215 2 55.4266 19.6685 15.8598
216 2 59.5499 19.731 16.0696
217 2 63.2878 19.7188 16.1363
218 2 67.6852 19.8054 15.703
219 2 71.6425 19.823 0.0181531
220 2 75.5876 20.0004 0.228152
221 2 79.6532 19.7835 -0.00539352
222 2 83.6749 19.7241 15.9122
223 2 87.5554 19.8349 -0.0403542
224 2 91.4043 19.7742 0.363036
225 2 95.4603 19.9237 15.7757
226 2 99.266 19.6085 15.9353
227 2 103.154 19.6165 15.818
228 2 106.952 19.6418 15.8059
229 2 110.973 19.5992 0.0944628
230 2 114.83 19.6691 15.8632
231 2 118.988 19.7915 15.964
232 2 122.769 19.3083 15.9967
233 2 126.48 19.7065 15.8972
234 2 130.37 19.6424 15.8858
235 2 134.317 19.4567 0.219149
236 2 138.385 19.2807 15.8815
237 2 142.202 19.4805 15.828
238 2 146.289 19.4758 0.0115552
239 2 150.025 19.2893 15.8137
240 2 153.925 19.3573 0.203977
241 2 157.79 22.9843 15.8578
242 2 3.4809 23.051 15.8459
243 2 7.39536 22.9816 -0.0672469
244 2 11.2656 22.9764 0.0283643
245 2 15.4438 23.0911 15.8488
246 2 19.3298 23.1874 15.6644
247 2 23.4308 23.1426 15.9152
248 2 27.5189 23.2838 16.1841
249 2 31.3536 23.3655 0.117342
250 2 35.5055 23.5435 15.996
251 2 39.3943 23.3311 0.25064
252 2 43.7017 23.4519 16.0778
253 2 47.4972 23.5021 0.0896009
254 2 51.5678 23.5029 0.115106
255 2 55.6642 23.4963 0.232962
256 2 59.4967 23.6572 15.8777
257 2 63.5863 23.7633 0.215362
258 2 67.4473 23.6659 15.8105
259 2 71.4831 23.6858 15.9576
260 2 75.3787 23.6881 0.149812
261 2 79.5114 23.831 16.0631
262 2 83.6139 23.8474 0.0994557
263 2 87.4313 23.7247 15.7096
264 2 91.5946 23.8822 15.8822
265 2 95.4239 23.6708 15.8943
266 2 99.3962 23.6026 0.254378
267 2 103.29 23.7324 15.8566
268 2 107.162 23.559 15.9885
269 2 111.189 23.5512 0.015446
270 2 114.941 23.5592 15.9542
271 2 118.848 23.5662 15.6452
272 2 122.717 23.5823 0.363588
273 2 126.836 23.4188 16.0075
274 2 130.616 23.3523 16.0176
275 2 134.621 23.3961 15.9729
276 2 138.321 23.4253 15.9233
277 2 142.314 23.4737 15.9615
278 2 146.121 23.2341 0.250528
279 2 149.988 23.3091 0.341449
280 2 154.062 23.0526 0.171666
281 2 158.159 26.9887 0.132877
282 2 3.45383 27.1681 0.169393
283 2 7.38924 26.9571 0.0803889
284 2 11.5469 27.0018 15.9626
285 2 15.5217 27.0573 15.9695
286 2 19.382 27.0949 -0.0428063
287 2 23.2992 27.0853 15.7651
288 2 27.4592 27.215 15.9136
289 2 31.4725 27.058 0.196473
290 2 35.2535 27.3758 0.385605
291 2 39.488 27.1744 0.104438
292 2 43.3575 27.2456 0.447655
293 2 47.5188 27.3513 0.216985
294 2 51.5217 27.3109 16.0069
295 2 55.6308 27.4336 0.277387
296 2 59.3993 27.4695 15.9268
297 2 63.4788 27.3992 15.9543
298 2 67.5723 27.5894 15.9322
299 2 71.4834 27.7008 16.0211
300 2 75.5341 27.6681 0.0379511
301 2 79.3659 27.6245 0.0609191
302 2 83.5242 27.7682 16.0155
303 2 87.4315 27.7215 0.165855
304 2 91.579 27.8788 0.386308
305 2 95.4487 27.9313 0.183406
306 2 99.4392 27.685 0.197634
307 2 103.203 27.664 15.8306
308 2 107.235 27.8419 0.00518388
309 2 110.996 27.6768 15.9166
310 2 115.14 27.78 16.0509
311 2 118.911 27.589 0.280466
312 2 122.801 27.4985 0.157891
313 2 126.764 27.3942 15.8708
314 2 130.713 27.3952 15.7903
315 2 134.507 27.3663 16.0175
316 2 138.452 27.3009 15.8595
317 2 142.331 27.262 0.206938
318 2 146.238 27.2145 0.343298
319 2 150.313 27.1482 0.308006
320 2 154.167 27.1573 0.363596
321 2 158.085 31.0408 15.9528
322 2 3.74994 31.0991 15.8772
323 2 7.55248 31.0923 15.8153
324 2 11.5469 31.0633 0.262903
325 2 15.229 31.162 0.266593
326 2 19.3722 30.8853 15.8964
327 2 23.2846 31.0101 16.0606
328 2 27.3691 30.9919 0.209069
329 2 31.3482 31.219 16.0503
330 2 35.3504 31.3041 15.9029
331 2 39.3091 31.2287 15.9799
332 2 43.2176 31.4197 0.332825
333 2 47.3389 31.0984 16.026
334 2 51.2714 31.3602 0.352743
335 2 55.3804 31.4701 15.8821
336 2 59.3061 31.3603 0.230096
337 2 63.5251 31.3466 15.8947
338 2 67.3863 31.5132 0.148507
339 2 71.5096 31.6276 0.0931849
340 2 75.4946 31.5033 0.0866485
341 2 79.6124 31.479 15.8401
342 2 83.673 31.5909 0.148944
343 2 87.5678 31.5049 16.0409
344 2 91.4152 31.7074 15.8936
345 2 95.4449 31.6831 16.0215
346 2 99.5308 31.6343 0.00544439
347 2 103.297 31.837 15.8836
348 2 107.079 31.8407 15.8845
349 2 111.108 31.8219 15.7302
350 2 115.112 31.6393 16.0146
351 2 119.008 31.6518 16.0962
352 2 122.951 31.5318 16.1479
353 2 126.746 31.4982 15.9335
354 2 130.587 31.5975 16.0416
355 2 134.55 31.4346 15.8741
356 2 138.321 31.5185 15.9806
357 2 142.349 31.3536 0.0555867
358 2 146.487 31.2875 16.0244
359 2 150.355 31.2998 0.28293
360 2 154.371 31.2371 0.210267
361 2 -0.25144 35.0552 0.166911
362 2 3.62228 35.2798 15.889
363 2 7.53388 35.0946 15.9994
364 2 11.3673 34.9227 15.8692
365 2 15.404 35.0322 0.155786
366 2 19.3454 34.9918 0.204563
367 2 23.4621 34.9967 0.38722
368 2 27.2714 34.9908 0.167052
369 2 31.219 35.2314 -0.0655554
370 2 35.0768 35.1684 0.00544367
371 2 39.3049 35.1062 0.000996669
372 2 43.2564 35.1659 15.9854
373 2 47.5071 35.1027 15.9706
374 2 51.4215 35.1192 15.9264
375 2 55.3744 35.1902 0.348558
376 2 59.3288 35.2844 0.118518
377 2 63.4428 35.3115 15.9254
378 2 67.5927 35.325 0.0340896
379 2 71.5547 35.4 0.275573
380 2 75.4078 35.5051 15.7933
381 2 79.4911 35.5307 0.276835
382 2 83.5073 35.6078 16.0172
383 2 87.4137 35.7766 0.132673
384 2 91.2668 35.7045 0.18254
385 2 95.583 35.5004 15.9602
386 2 99.3064 35.7447 0.149284
387 2 103.378 35.7957 15.9491
388 2 107.102 35.7533 16.0107
389 2 111.119 35.7084 15.8271
390 2 115.265 35.6092 15.8372
391 2 119.222 35.8914 15.9924
392 2 122.953 35.6586 15.9486
393 2 126.89 35.6519 15.9346
394 2 130.692 35.5641 15.9178
395 2 134.722 35.4558 15.818
396 2 138.554 35.3503 0.131538
397 2 142.44 35.3433 0.160578
398 2 146.202 35.3247 0.140073
399 2 150.431 35.2126 16.1335
400 2 154.182 35.0122 0.206188
401 2 157.893 39.1911 0.290853
402 2 3.67984 39.1273 0.229692
403 2 7.71545 39.0679 0.20522
404 2 11.4493 39.0252 15.8603
405 2 15.4348 38.9375 0.196439
406 2 19.2451 39.022 15.9913
407 2 23.1324 38.8436 16.0704
408 2 27.203 38.8327 16.1928
409 2 31.274 38.9125 0.235555
410 2 35.0985 38.9519 0.0635823
411 2 39.1884 39.0737 16.0711
412 2 43.3224 38.9672 0.134828
413 2 47.5377 39.2128 0.238356
414 2 51.3018 39.1252 16.0619
415 2 55.1581 39.2446 0.0926033
416 2 59.2788 39.2509 0.165992
417 2 63.5142 39.1991 0.231104
418 2 67.5301 39.1079 0.0130673
419 2 71.2701 39.3886 0.316376
420 2 75.4234 39.4133 -0.00479314
421 2 79.5325 39.5424 0.410229
422 2 83.4518 39.5731 16.1041
423 2 87.3451 39.559 16.1706
424 2 91.4747 39.4778 15.7914
425 2 95.4412 39.5382 15.8929
426 2 99.3864 39.4921 -0.179242
427 2 103.237 39.766 15.9619
428 2 107.258 39.6866 15.845
429 2 111.382 39.6642 15.7242
430 2 115.106 39.4769 15.8135
431 2 118.954 39.4822 15.9729
432 2 123.108 39.7548 16.1261
433 2 126.884 39.575 0.233417
434 2 130.838 39.5934 15.9813
435 2 134.72 39.3771 15.9257
436 2 138.521 39.4697 16.0177
437 2 142.434 39.4548 16.073
438 2 146.367 39.4301 0.24874
439 2 150.35 39.2094 16.0909
440 2 154.261 39.2536 16.1243
441 2 158.197 43.2955 0.380674
442 2 3.85148 43.115 16.0817
443 2 7.69425 43.0684 15.9798
444 2 11.5966 43.1604 0.0512843
445 2 15.5549 42.9589 0.241998
446 2 19.3329 42.9694 0.0414136
447 2 23.3619 43.0357 15.9138
448 2 27.2411 42.7932 16.0116
449 2 31.2731 42.7173 0.190153
450 2 35.2954 42.8689 -0.0174481
451 2 39.3601 42.8374 0.201138
452 2 43.1803 42.9606 0.281948
453 2 47.3521 42.9837 16.0551
454 2 51.2376 43.0785 15.9987
455 2 55.4194 43.0759 0.204769
456 2 59.3299 43.0461 16.1085
457 2 63.2718 43.1105 0.0804271
458 2 67.4077 43.0564 0.0913097
459 2 71.405 43.1856 0.00933621
460 2 75.4082 43.2706 0.0494671
461 2 79.4247 43.1975 0.409926
462 2 83.3161 43.4737 15.8814
463 2 87.2098 43.4744 15.9366
464 2 91.3765 43.4134 0.253779
465 2 95.3688 43.4194 0.0518153
466 2 99.2942 43.5692 15.8398
467 2 103.397 43.577 15.8265
468 2 107.581 43.7099 15.9221
469 2 111.267 43.6915 16.0657
470 2 115.243 43.5674 15.8595
471 2 118.942 43.5713 15.9513
472 2 123.073 43.6474 16.1381
473 2 127.055 43.5664 0.233739
474 2 130.803 43.4761 0.157668
475 2 134.637 43.4797 15.9387
476 2 138.637 43.3145 15.9679
477 2 142.74 43.3986 15.9703
478 2 146.4 43.5392 0.306605
479 2 150.296 43.3035 0.235038
480 2 154.325 43.2287 0.251504
481 2 -0.088154 47.1311 0.250936
482 2 3.73343 47.1785 0.101741
483 2 7.88686 47.2483 0.186023
484 2 11.5851 47.1403 0.271074
485 2 15.4921 47.012 0.143639
486 2 19.3397 46.944 0.151154
487 2 23.3268 46.9502 0.275852
488 2 27.453 47.0118 15.8347
489 2 31.3519 46.8887 0.241302
490 2 35.3226 46.7657 0.266369
491 2 39.3757 46.7431 16.0617
492 2 43.2737 46.7811 16.0742
493 2 47.2991 46.9203 0.135176
494 2 51.0845 46.975 15.921
495 2 55.0663 46.8517 15.9966
496 2 59.33 47.1095 15.9793
497 2 63.2229 46.9712 0.0692985
498 2 67.5505 47.0351 -0.0437415
499 2 71.4335 47.0737 15.7329
500 2 75.2794 47.2263 0.0320053
501 2 79.2137 47.263 16.0689
502 2 83.2827 47.4186 15.812
503 2 87.2859 47.2459 0.21266
504 2 91.2702 47.364 0.248471
505 2 95.2222 47.4409 0.0356637
506 2 99.2978 47.5866 0.203084
507 2 103.346 47.5479 0.301919
508 2 107.194 47.6718 15.9687
509 2 111.457 47.6564 15.9051
510 2 115.295 47.6867 0.0438081
511 2 119.239 47.7776 15.8837
512 2 122.977 47.4258 16.0397
513 2 127.002 47.5625 16.011
514 2 130.845 47.5034 16.1409
515 2 134.703 47.3413 15.8637
516 2 138.643 47.2312 16.0482
517 2 142.562 47.3502 16.0917
518 2 146.36 47.3382 0.20259
519 2 150.583 47.2386 0.0348761
520 2 154.45 47.2926 16.0176
521 2 158.197 51.1315 0.1223
522 2 3.85672 51.0412 16.0381
523 2 7.93325 51.2071 15.8788
524 2 11.5837 51.0509 15.8929
525 2 15.8539 51.1048 0.285459
526 2 19.425 50.9002 15.9479
527 2 23.305 50.7795 15.8811
528 2 27.1933 50.7575 15.9116
529 2 31.4333 50.7905 0.27949
530 2 35.4359 50.5719 0.0394695
531 2 39.382 50.732 15.7134
532 2 43.1762 50.7959 16.0352
533 2 47.2321 50.864 0.108788
534 2 51.3538 50.8116 0.121661
535 2 55.3649 50.8161 0.254003
536 2 59.2009 50.969 15.9568
537 2 63.3416 50.9162 15.7123
538 2 67.1554 50.8283 0.110493
539 2 71.2386 51.0058 0.200177
540 2 75.3452 51.1231 -0.0669754
541 2 79.1362 51.0371 0.155522
542 2 83.3626 51.1804 0.345044
543 2 87.2952 51.1342 -0.0560348
544 2 91.2024 51.0886 0.273554
545 2 95.1679 51.3158 0.148121
546 2 99.3555 51.2751 0.0682789
547 2 103.195 51.6061 15.7291
548 2 107.405 51.4639 0.157227
549 2 111.331 51.5105 0.160658
550 2 115.283 51.7141 15.8072
551 2 119.092 51.5783 15.9759
552 2 123.377 51.676 15.8994
553 2 127.04 51.532 15.9955
554 2 130.824 51.3944 0.336104
555 2 134.794 51.3825 0.190632
556 2 138.905 51.5793 0.433415
557 2 142.716 51.3924 0.455985
558 2 146.535 51.2825 16.2069
559 2 150.479 51.2941 0.548856
560 2 154.551 51.3757 0.156144
561 2 158.353 55.1222 0.212129
562 2 3.97379 55.1969 0.00262388
563 2 7.70798 55.1547 0.247181
564 2 11.9212 54.9192 0.233991
565 2 15.658 54.9702 -0.0474102
566 2 19.5908 55.0225 16.1136
567 2 23.4432 54.8272 16.259
568 2 27.4289 54.8855 15.98
569 2 31.4304 54.6487 0.218764
570 2 35.4354 54.573 0.276183
571 2 39.1794 54.5558 16.0552
572 2 43.3118 54.5457 16.0169
573 2 47.1039 54.7876 -0.142808
574 2 51.1172 54.6201 15.9512
575 2 55.0739 54.7161 15.774
576 2 58.9691 54.9043 15.916
577 2 63.1468 54.7597 15.6044
578 2 67.3129 54.7821 0.208754
579 2 71.2006 54.8873 0.0655676
580 2 75.1402 54.9787 15.9543
581 2 79.3135 55.2048 0.246454
582 2 83.3687 54.9943 0.325869
583 2 87.3497 55.2551 0.148312
584 2 91.4413 55.0601 15.936
585 2 95.3766 55.2903 0.245622
586 2 99.2563 55.3542 15.9829
587 2 103.257 55.5498 16.0269
588 2 107.301 55.3668 0.143286
589 2 111.377 55.2776 15.9696
590 2 115.13 55.5639 16.0258
591 2 119.254 55.5319 15.8112
592 2 123.151 55.7417 0.208099
593 2 127.165 55.7248 16.0988
594 2 130.951 55.5114 16.1024
595 2 134.781 55.5754 0.162782
596 2 138.823 55.5824 15.9995
597 2 142.813 55.5148 0.419883
598 2 146.766 55.4287 0.408096
599 2 150.52 55.2956 0.261068
600 2 154.511 55.2809 15.9864
601 2 158.456 59.1194 0.155212
602 2 3.92523 59.145 16.0738
603 2 7.89304 58.9874 15.988
604 2 11.6608 59.1363 0.195219
605 2 15.6413 59.0848 15.9339
606 2 19.5653 58.8611 0.169438
607 2 23.6659 58.9641 0.242928
608 2 27.526 58.7631 0.140835
609 2 31.3539 58.6331 15.8082
610 2 35.3538 58.7723 15.8377
611 2 39.2869 58.6823 15.83
612 2 43.3833 58.6849 16.0265
613 2 47.245 58.5522 15.959
614 2 51.13 58.4243 15.8975
615 2 55.1992 58.7432 15.863
616 2 59.0241 58.761 0.141675
617 2 63.1385 58.8573 15.8737
618 2 66.9756 58.9675 0.101243
619 2 71.1233 58.7471 15.8075
620 2 75.2293 58.7054 0.101058
621 2 79.2388 58.9679 0.34421
622 2 83.2674 59.0542 0.163201
623 2 87.3303 59.1451 16.0274
624 2 91.1274 59.1216 16.0958
625 2 95.1304 59.2176 0.0539782
626 2 99.2335 59.2509 0.141709
627 2 103.324 59.4675 15.8046
628 2 107.366 59.3888 0.266785
629 2 111.233 59.5353 15.7941
630 2 115.224 59.4779 15.9718
631 2 119.171 59.3931 15.5846
632 2 123.204 59.5299 0.0539582
633 2 127.153 59.5168 16.0755
634 2 131.068 59.546 0.0422578
635 2 134.877 59.6393 15.7373
636 2 138.925 59.6365 0.349397
637 2 142.748 59.349 0.268684
638 2 146.648 59.432 0.157823
639 2 150.677 59.212 15.9036
640 2 154.627 59.208 0.310248
641 2 -0.12573 63.3816 0.223017
642 2 4.02357 63.1492 0.517075
643 2 7.856 63.1431 15.8727
644 2 11.8456 63.0318 16.0091
645 2 15.7468 62.9925 15.9886
646 2 19.6551 62.9893 0.18868
647 2 23.6298 62.8582 0.303319
648 2 27.6247 62.9221 0.0788754
649 2 31.6986 62.8438 0.216107
650 2 35.3206 62.8554 0.252353
651 2 39.3172 62.5536 16.0187
652 2 43.3424 62.556 0.230867
653 2 47.161 62.4844 16.1431
654 2 51.0891 62.5697 15.9866
655 2 55.1012 62.6255 0.235863
656 2 59.0704 62.5389 15.8437
657 2 63.2422 62.6636 0.157744
658 2 67.0814 62.7582 15.9146
659 2 71.2039 62.8134 0.40403
660 2 75.1552 62.7624 0.241292
661 2 79.0678 62.7972 0.250737
662 2 83.0501 62.9536 0.142332
663 2 87.2653 63.2179 15.9578
664 2 90.9466 62.9754 16.0361
665 2 95.1535 63.1113 0.190484
666 2 99.085 63.2687 0.186109
667 2 103.163 63.2593 15.7306
668 2 107.2 63.2897 15.7589
669 2 111.206 63.4383 15.5622
670 2 115.218 63.5119 -0.0109311
671 2 119.163 63.4589 15.8811
672 2 123.237 63.4022 0.0480658
673 2 127.268 63.6629 15.8888
674 2 131.046 63.5737 0.0198889
675 2 134.677 63.6289 15.8152
676 2 138.844 63.311 15.8555
677 2 142.826 63.4987 16.1273
678 2 146.676 63.266 0.26254
679 2 150.63 63.3323 15.8057
680 2 154.482 63.205 0.160547
681 2 0.404315 67.2675 0.132071
682 2 4.12925 67.1999 0.2036
683 2 7.99167 67.0885 15.9979
684 2 11.8356 66.9083 16.0477
685 2 16.1155 67.0236 0.267372
686 2 19.8895 66.8989 0.162093
687 2 23.7943 66.9166 0.324232
688 2 27.5896 66.7778 0.309152
689 2 31.5172 66.8017 0.214596
690 2 35.4768 66.8125 0.0946163
691 2 39.4291 66.6085 15.9902
692 2 43.2502 66.6783 0.236931
693 2 47.219 66.605 15.9614
694 2 51.266 66.5931 16.0606
695 2 55.1036 66.5127 15.9599
696 2 58.989 66.5507 16.0826
697 2 63.1591 66.6552 15.8925
698 2 67.2316 66.5473 15.903
699 2 71.0448 66.4514 0.192818
700 2 75.1319 66.5418 16.0285
701 2 79.1247 66.6751 15.7522
702 2 83.1437 66.7662 0.148603
703 2 87.1488 66.8912 15.9951
704 2 91.1051 67.1373 15.8139
705 2 94.9829 66.8617 0.158507
706 2 99.1981 67.0148 0.16327
707 2 103.117 67.1201 0.166692
708 2 107.104 67.2341 15.8923
709 2 110.994 67.2828 16.0965
710 2 115.04 67.2877 15.9255
711 2 119.06 67.4557 0.188618
712 2 122.974 67.3005 -0.100045
713 2 127.162 67.5152 0.22931
714 2 131.059 67.4415 15.7713
715 2 135.138 67.5622 0.124905
716 2 139.04 67.6096 0.0889778
717 2 142.751 67.5806 16.0121
718 2 146.965 67.4166 15.8048
719 2 150.66 67.2228 15.9891
720 2 154.552 67.2576 0.285974
721 2 0.0508121 71.1148 0.140525
722 2 4.15844 70.9962 15.889
723 2 8.15996 71.145 0.283212
724 2 11.9435 70.9058 16.0636
725 2 15.7432 70.9756 0.343242
726 2 19.8624 70.8822 0.275211
727 2 23.6917 70.8996 0.192846
728 2 27.7353 70.8016 16.0432
729 2 31.4798 70.9161 0.134059
730 2 35.4758 70.6458 0.148209
731 2 39.3302 70.6729 16.0755
732 2 43.605 70.6877 0.297114
733 2 47.3351 70.7173 15.8977
734 2 51.3393 70.5651 15.9577
735 2 55.0543 70.5024 0.13792
736 2 59.016 70.4298 0.359503
737 2 63.3045 70.4763 0.321554
738 2 67.0167 70.4771 16.0322
739 2 71.0744 70.5088 15.921
740 2 75.0573 70.5844 16.0208
741 2 79.1473 70.6502 0.148298
742 2 83.0114 70.6847 0.101057
743 2 87.2404 70.8656 15.841
744 2 91.0982 70.8424 15.8852
745 2 95.0068 70.8835 15.7532
746 2 99.1106 71.0088 15.7623
747 2 103.173 70.9425 15.7348
748 2 107.191 71.1622 15.9238
749 2 110.947 71.2771 15.9237
750 2 115.037 71.2574 0.198929
751 2 119.009 71.4258 15.9071
752 2 123.067 71.2496 0.2081
753 2 127.087 71.3057 16.0897
754 2 131.115 71.391 15.8438
755 2 134.865 71.4154 15.9205
756 2 139.084 71.5505 15.7699
757 2 142.928 71.4754 0.0765298
758 2 146.757 71.4496 0.255067
759 2 150.614 71.4232 0.433938
760 2 154.496 71.2079 16.0926
761 2 0.170813 75.0598 0.282507
762 2 4.2098 75.0564 16.0005
763 2 8.10711 75.139 15.9313
764 2 12.1518 74.9532 15.8496
765 2 16.0905 74.9334 16.0055
766 2 19.9478 74.7954 15.9039
767 2 23.8789 74.6846 15.8541
768 2 27.7089 74.8982 16.0628
769 2 31.3616 74.8361 0.100606
770 2 35.6113 74.6467 16.0705
771 2 39.5412 74.69 15.9889
772 2 43.271 74.6795 0.335244
773 2 47.1262 74.6862 15.7796
774 2 51.0779 74.7467 -0.0822751
775 2 55.139 74.5595 15.7507
776 2 59.1705 74.5983 16.041
777 2 62.9445 74.3727 15.9005
778 2 66.8871 74.5043 0.265881
779 2 70.7965 74.397 0.205558
780 2 74.9154 74.5281 0.294998
781 2 79.1109 74.4284 0.219739
782 2 83.1857 74.8306 0.271215
783 2 86.9422 74.8532 0.0565104
784 2 91.022 74.9161 15.8513
785 2 94.9284 74.7367 16.0553
786 2 98.9609 74.9582 0.195909
787 2 102.868 74.7616 15.9573
788 2 107.12 74.9537 16.0238
789 2 110.965 75.2029 15.9518
790 2 115.03 75.2958 15.9317
791 2 119.107 75.1691 0.231714
792 2 123.021 75.2373 15.6794
793 2 126.948 75.2332 16.0833
794 2 131.101 75.4842 0.0421378
795 2 135.029 75.4158 15.8217
796 2 139.13 75.6557 15.9097
797 2 143.086 75.4346 15.9772
798 2 146.798 75.5387 16.1167
799 2 150.8 75.4523 0.291949
800 2 154.521 75.2429 0.0639792
801 2 0.260196 79.1688 0.16958
802 2 4.34392 79.342 15.8455
803 2 8.28865 78.9522 0.246834
804 2 12.2279 78.9145 0.0441683
805 2 16.1134 78.9647 15.7952
806 2 19.942 79.0243 15.9974
807 2 24.024 78.8204 0.137495
808 2 27.8779 78.8188 -0.00693597
809 2 31.6113 78.6994 0.1122
810 2 35.6881 78.6396 0.00887896
811 2 39.6401 78.7194 15.9938
812 2 43.2988 78.6541 16.0938
813 2 47.3014 78.5174 15.8586
814 2 51.4231 78.5422 0.179812
815 2 55.3541 78.5883 0.226209
816 2 59.2155 78.5824 15.8311
817 2 63.1103 78.4492 15.8642
818 2 67.0209 78.1846 0.102941
819 2 70.9816 78.3407 15.9461
820 2 74.967 78.3533 0.189443
821 2 78.8792 78.5803 15.9111
822 2 82.8873 78.6736 16.1803
823 2 86.9213 78.6091 0.319261
824 2 90.9587 78.6221 0.266994
825 2 95.1507 78.6212 0.183005
826 2 98.9181 78.8462 15.7841
827 2 102.906 78.785 15.9509
828 2 106.885 78.8277 0.308917
829 2 110.786 78.9556 0.141847
830 2 114.897 79.1923 0.234464
831 2 119.027 79.1498 0.0427739
832 2 122.754 79.1692 15.8771
833 2 126.905 79.1035 0.171849
834 2 130.898 79.1931 15.8581
835 2 135.032 79.4677 0.132739
836 2 138.92 79.376 15.8833
837 2 142.878 79.3207 15.8832
838 2 146.901 79.2138 15.9366
839 2 150.637 79.3877 15.7911
840 2 154.719 79.3258 0.198512
841 2 0.434669 83.0379 15.9174
842 2 4.54504 83.2511 15.9698
843 2 8.23413 83.1215 0.137093
844 2 12.1717 83.1317 15.9608
845 2 16.0902 82.7812 15.9618
846 2 19.9604 82.9812 0.136303
847 2 23.9266 82.8911 16.0021
848 2 27.8169 82.9212 0.161742
849 2 31.9322 82.8897 15.9427
850 2 35.6675 82.8484 0.284131
851 2 39.4748 82.6354 0.143528
852 2 43.4173 82.6291 15.8815
853 2 47.4181 82.5308 0.263573
854 2 51.2581 82.3277 0.16542
855 2 55.3083 82.6261 0.110727
856 2 59.0659 82.4818 15.8443
857 2 63.1013 82.4163 15.9483
858 2 67.091 82.2552 15.9365
859 2 70.8922 82.1427 15.8661
860 2 74.9502 82.3567 15.9156
861 2 78.8734 82.4057 16.1157
862 2 83.0126 82.5765 0.361322
863 2 86.8585 82.5667 0.154606
864 2 90.8177 82.4949 15.8819
865 2 94.9158 82.7849 0.246637
866 2 98.7021 82.7115 15.9082
867 2 102.991 82.8598 0.104768
868 2 106.835 82.9213 15.8953
869 2 110.826 83.0521 15.8913
870 2 114.653 82.9608 15.7079
871 2 118.863 83.1441 15.917
872 2 122.713 82.9539 15.9645
873 2 127.02 83.127 15.8161
874 2 130.887 83.3549 15.8636
875 2 134.725 83.1965 0.210051
876 2 138.897 83.1938 15.8446
877 2 142.992 83.2662 0.0912402
878 2 147.068 83.2832 15.8551
879 2 150.916 83.3246 0.148229
880 2 154.779 83.1213 -0.0855352
881 2 0.586654 87.1196 15.8307
882 2 4.40314 87.3372 0.0166047
883 2 8.38935 87.1345 16.0343
884 2 12.3425 86.9997 15.8818
885 2 16.038 86.9577 15.7601
886 2 19.9582 86.8935 15.7533
887 2 24.0217 86.8833 15.8298
888 2 27.9088 86.8427 0.41792
889 2 31.6171 86.7921 15.8517
890 2 35.7521 86.6931 0.213005
891 2 39.599 86.6254 15.9428
892 2 43.6518 86.5194 16.0559
893 2 47.4197 86.5578 16.1229
894 2 51.242 86.4671 15.9106
895 2 55.1763 86.385 15.8487
896 2 59.325 86.3565 0.139742
897 2 63.2381 86.2642 0.23571
898 2 67.1686 86.2466 16.0362
899 2 70.9915 86.3222 0.146201
900 2 75.0503 86.2833 15.8198
901 2 78.7905 86.2631 0.25402
902 2 82.6931 86.2788 0.226532
903 2 86.7074 86.4306 15.9677
904 2 90.8282 86.472 16.1247
905 2 94.7608 86.6387 15.9906
906 2 98.7083 86.7406 16.1373
907 2 102.871 86.6169 0.18422
908 2 106.93 86.7201 0.128946
909 2 110.773 86.9202 15.7879
910 2 114.666 86.945 0.138519
911 2 118.717 87.1614 0.271443
912 2 122.833 87.0838 0.208873
913 2 126.813 87.032 16.0546
914 2 130.702 87.0372 16.0017
915 2 134.855 87.0354 15.9512
916 2 138.767 87.2456 15.7717
917 2 142.685 87.2065 15.8905
918 2 146.836 87.2835 0.252676
919 2 150.863 87.1076 15.8367
920 2 155.003 87.2225 15.901
921 2 0.599742 91.0569 0.235496
922 2 4.25772 90.9908 0.185735
923 2 8.31904 91.1636 15.9989
924 2 12.3105 90.8282 16.0158
925 2 16.3965 90.9877 0.249575
926 2 20.3332 90.7518 0.141381
927 2 23.9963 90.7862 15.8613
928 2 28.0238 90.716 15.8905
929 2 31.7356 90.9036 15.9268
930 2 35.5922 90.6706 0.483079
931 2 39.4478 90.7742 16.0194
932 2 43.5991 90.5116 15.9795
933 2 47.6269 90.6365 0.108848
934 2 51.4499 90.6044 0.342079
935 2 55.3317 90.4356 0.249107
936 2 59.1671 90.4319 0.281091
937 2 62.9391 90.4684 0.204729
938 2 66.9777 90.3178 15.8734
939 2 71.0262 90.3301 15.9696
940 2 74.8882 90.2242 0.269741
941 2 78.7618 90.09 0.42902
942 2 82.8546 90.5357 0.222393
943 2 86.7424 90.7149 0.132708
944 2 90.7268 90.5018 0.0364403
945 2 94.8059 90.5836 16.0004
946 2 98.9951 90.5204 15.7896
947 2 102.85 90.529 0.169722
948 2 106.625 90.614 16.0704
949 2 110.795 90.809 16.0536
950 2 115.052 90.8421 0.178198
951 2 118.762 90.9463 0.156432
952 2 122.831 90.9279 15.9596
953 2 126.971 90.9239 0.162507
954 2 130.859 90.9536 0.168979
955 2 134.701 91.0478 15.8746
956 2 138.849 90.9146 15.8077
957 2 142.904 91.0749 15.7455
958 2 146.978 91.1119 15.886
959 2 150.914 90.9715 15.9566
960 2 154.74 91.1309 15.9818
961 2 0.506939 95.0738 -0.0579933
962 2 4.2734 94.9493 15.7946
963 2 8.43003 95.1397 15.9426
964 2 12.2726 94.9318 16.0799
965 2 16.3181 94.9415 15.9254
966 2 20.1213 94.957 15.565
967 2 24.1721 94.8207 15.8731
968 2 27.9576 94.681 15.8485
969 2 31.8524 94.7276 15.834
970 2 35.767 94.7866 15.8778
971 2 39.7036 94.6983 15.7445
972 2 43.6074 94.7827 15.713
973 2 47.4389 94.5382 0.194717
974 2 51.3685 94.6166 15.8914
975 2 55.2428 94.5217 0.211348
976 2 59.3533 94.3898 16.0094
977 2 63.2746 94.4563 0.253786
978 2 66.8846 94.4142 0.17847
979 2 70.9508 94.3519 0.279025
980 2 74.832 94.28 0.151969
981 2 78.6998 94.0596 15.8756
982 2 82.57 94.3402 0.295788