ITEM: TIMESTEP
24200
ITEM: NUMBER OF ATOMS
32000
ITEM: BOX BOUNDS xy xz yz pp pp pp
0.0000000000000000e+00 1.5831999999999999e+02 0.0000000000000000e+00
0.0000000000000000e+00 1.5831999999999999e+02 0.0000000000000000e+00
1.6457026756216209e-01 1.5933141732437683e+01 0.0000000000000000e+00
ITEM: ATOMS id type x y z
1 2 157.945 157.575 15.825
2 2 3.64493 157.504 15.8465
3 2 7.55875 157.63 0.141712
4 2 11.8552 157.827 0.180827
5 2 15.6305 158.015 0.112129
6 2 19.6306 157.982 15.653
7 2 23.6314 157.892 15.8692
8 2 27.704 158.053 15.973
9 2 31.8595 158.178 0.281805
10 2 35.7865 158.19 15.8864
11 2 39.7089 0.0567204 15.7994
12 2 43.8456 -0.0537985 0.0821519
13 2 47.7805 0.0785874 15.957
14 2 51.8359 -0.0606075 0.208668
15 2 55.8605 158.302 0.0337271
16 2 59.6453 158.569 15.8398
17 2 63.7953 0.356202 16.0211
18 2 67.6683 0.231248 15.9161
19 2 71.6978 0.071991 15.8333
20 2 75.6617 158.396 15.9334
21 2 79.4737 0.213364 15.7875
22 2 83.3763 158.342 15.8266
23 2 87.1772 158.372 15.8483
24 2 91.2041 158.127 0.16408
25 2 95.2392 158.078 15.7338
26 2 98.8475 158.129 16.0492
27 2 102.93 158.007 15.859
28 2 106.852 158.025 15.8359
29 2 110.932 157.898 0.333042
30 2 114.878 157.822 0.154181
31 2 118.452 157.936 16.0286
32 2 122.569 157.783 0.108771
33 2 126.439 157.971 0.180657
34 2 130.436 157.778 0.344961
35 2 134.435 157.611 15.8907
36 2 138.349 157.576 16.0054
37 2 142.319 157.525 15.8283
38 2 146.112 157.402 16.2744
39 2 149.948 157.533 0.149875
40 2 153.962 157.641 0.118394
41 2 157.699 3.14453 15.986
42 2 3.43934 3.03507 15.831
43 2 7.56289 3.27033 0.121159
44 2 11.7756 3.50183 15.8426
45 2 15.6286 3.50674 15.7638
46 2 19.433 3.53873 15.663
47 2 23.7592 3.4801 0.0239707
48 2 27.4504 3.67684 0.00512791
49 2 31.4443 3.69014 0.0988395
50 2 35.7378 3.83125 0.169863
51 2 39.6325 3.92381 0.0432962
52 2 43.4937 4.02603 16.0236
53 2 47.6923 4.01206 15.8644
54 2 51.6555 3.79087 15.961
55 2 55.8348 4.04018 0.218868
56 2 59.7344 4.14702 15.7803
57 2 63.7617 4.26595 15.8296
58 2 67.7195 4.27883 15.8576
59 2 71.7055 3.92019 15.904
60 2 75.8303 4.17367 15.8031
61 2 79.7207 4.10705 16.0039
62 2 83.5094 4.15942 15.9229
63 2 87.4465 4.04379 16.0854
64 2 91.2859 3.73335 0.175327
65 2 95.1273 3.96948 15.9856
66 2 99.1118 3.72758 0.248743
67 2 103.008 3.81254 16.0394
68 2 106.766 3.87099 16.0581
69 2 111.016 3.63169 0.0240861
70 2 114.85 3.53458 0.209769
71 2 118.761 3.56693 0.20696
72 2 122.572 3.44019 0.129139
73 2 126.461 3.51097 0.110317
74 2 130.44 3.44604 0.184334
75 2 134.515 3.44359 15.8318
76 2 138.357 3.2745 0.108911
77 2 142.13 3.18441 -0.0227129
78 2 146.084 3.39755 0.366054
79 2 150.061 3.24749 15.8355
80 2 153.908 3.3133 16.0132
81 2 157.973 7.19738 15.8457
82 2 3.50223 7.12665 16.0122
83 2 7.54521 7.20853 15.7922
84 2 11.3649 7.17483 -0.167549
85 2 15.3571 7.277 15.8784
86 2 19.5285 7.35699 15.7677
87 2 23.3954 7.41721 0.302241
88 2 27.5882 7.43794 15.8798
89 2 31.5705 7.66838 15.9545
90 2 35.5606 7.71735 16.1195
91 2 39.5987 7.66649 0.0547657
92 2 43.5445 7.83999 0.198975
93 2 47.6393 7.95242 15.8685
94 2 51.6378 7.84281 0.185241
95 2 55.5842 7.81243 16.0261
96 2 59.6018 7.82782 0.0920884
97 2 63.8749 8.10288 15.8729
98 2 67.6238 8.07478 15.8096
99 2 71.821 7.93146 15.7668
100 2 75.7493 8.05128 16.062
101 2 79.5664 8.12074 0.0631311
102 2 83.675 8.02104 15.8493
103 2 87.4684 8.03471 15.7583
104 2 91.1284 8.12636 15.9087
105 2 95.0688 7.86914 15.9466
106 2 99.0599 7.63839 0.163255
107 2 103.217 7.79789 0.32247
108 2 106.897 7.75925 15.8412
109 2 110.901 7.62095 -0.100984
110 2 114.861 7.66505 16.1858
111 2 118.796 7.4926 15.978
112 2 122.772 7.45621 15.9901
113 2 126.612 7.515 16.0566
114 2 130.575 7.26951 0.195567
115 2 134.406 7.29256 0.218258
116 2 138.408 7.1461 15.7863
117 2 142.156 7.29589 16.0528
118 2 146.358 7.37427 0.187014
119 2 150.085 7.24062 0.0582081
120 2 153.96 7.13152 15.8711
121 2 158.096 11.2307 15.9576
122 2 3.65652 11.0615 15.9171
123 2 7.52159 11.2024 15.7719
124 2 11.4765 11.2075 0.0194547
125 2 15.6146 11.1373 15.9848
126 2 19.4826 11.3743 16.0717
127 2 23.5198 11.475 15.8394
128 2 27.6022 11.59 15.9151
129 2 31.5683 11.615 16.0814
130 2 35.3585 11.6799 15.9272
131 2 39.5086 11.7379 15.869
132 2 43.59 11.764 0.190815
133 2 47.5316 11.6479 0.0710219
134 2 51.5963 11.801 16.017
135 2 55.486 11.8229 -0.125858
136 2 59.6163 11.8117 15.9925
137 2 63.6823 11.8962 0.177857
138 2 67.6725 11.7823 15.8783
139 2 71.6457 11.8143 15.9875
140 2 75.6686 12.0011 15.8369
141 2 79.6055 11.9695 15.9749
142 2 83.7896 12.0595 15.828
143 2 87.5651 12.0625 0.0725976
144 2 91.545 11.9619 -0.0591409
145 2 95.3966 11.8593 15.941
146 2 99.0645 11.9733 15.943
147 2 103.035 11.6413 0.281582
148 2 107.073 11.5827 15.8096
149 2 110.964 11.7358 0.239116
150 2 114.907 11.5731 15.9709
151 2 118.818 11.7854 0.173061
152 2 122.713 11.5421 0.32506
153 2 126.652 11.3673 15.9623
154 2 130.458 11.3556 15.864
155 2 134.586 11.414 0.132952
156 2 138.164 11.3092 0.125418
157 2 142.195 11.4058 0.21732
158 2 146.13 11.2636 0.27872
159 2 150.04 11.092 0.0987493
160 2 154.179 11.1375 0.119407
161 2 157.887 15.0447 15.9544
162 2 3.45657 14.9772 15.9687
163 2 7.41153 15.1012 15.8155
164 2 11.3163 15.1735 15.7824
165 2 15.4586 15.2826 15.8488
166 2 19.3233 15.1191 0.138086
167 2 23.4253 15.3902 0.23065
168 2 27.5694 15.5259 15.9046
169 2 31.5209 15.5282 0.230767
170 2 35.5585 15.5618 15.8275
171 2 39.4016 15.5075 0.278912
172 2 43.3742 15.6358 0.291573
173 2 47.4122 15.5698 0.123765
174 2 51.4354 15.7715 -0.0640023
175 2 55.4718 15.7547 15.859
176 2 59.5782 15.7774 0.197773
177 2 63.5286 15.8157 15.8705
178 2 67.4966 15.8701 15.8666
179 2 71.45 15.724 0.269617
180 2 75.5569 15.7792 0.152406
181 2 79.654 15.807 15.9305
182 2 83.7443 15.9588 -0.0124692
183 2 87.4811 16.1655 15.9796
184 2 91.4654 15.816 -0.103121
185 2 95.3597 15.8201 15.9454
186 2 99.4588 16.0594 15.8905
187 2 103.184 15.8516 15.9407
188 2 107.051 15.6522 15.9231
189 2 111.076 15.8212 15.8439
190 2 114.945 15.4525 15.9227
191 2 118.816 15.5671 0.156273
192 2 122.725 15.7366 16.0673
193 2 126.679 15.4257 15.9499
194 2 130.598 15.585 0.210124
195 2 134.275 15.4081 0.0962439
196 2 138.316 15.4412 0.340896
197 2 142.236 15.2631 16.2063
198 2 146.13 15.2267 0.100336
199 2 150.189 15.3569 0.190927
200 2 153.916 14.943 15.8712
201 2 158.145 19.1093 15.903
202 2 3.59581 19.0124 0.245293
203 2 7.47393 18.9501 0.28518
204 2 11.3569 19.0775 15.878
205 2 15.4596 19.0188 15.8279
206 2 19.4472 19.0782 15.9353
207 2 23.4994 19.0573 15.9948
208 2 27.3929 19.4077 15.9672
209 2 31.3126 19.4331 16.0732
210 2 35.4919 19.3575 15.951
211 2 39.4202 19.3234 0.107862
212 2 43.4764 19.3179 15.9744
213 2 47.4927 19.4923 15.933
214 2 51.5161 19.5295 0.0785168
215 2 55.4327 19.7628 15.899
216 2 59.5778 19.7752 15.7627
217 2 63.4983 19.7529 15.8208
218 2 67.5799 19.6819 16.0207
219 2 71.5559 19.7466 0.18048
220 2 75.6704 19.5869 0.133228
221 2 79.6367 19.7666 0.197438
222 2 83.6191 19.925 15.8526
223 2 87.6442 19.9703 0.245605
224 2 91.6243 19.9053 -0.0958779
225 2 95.3457 19.8934 15.9837
226 2 99.3535 20.1143 15.8849
227 2 103.354 19.8196 15.7654
228 2 107.158 19.7809 15.8175
229 2 111.242 19.6244 0.314193
230 2 114.936 19.8173 15.8599
231 2 118.765 19.6192 15.9257
232 2 122.726 19.5694 16.0586
233 2 126.898 19.4717 15.9787
234 2 130.672 19.3266 15.9823
235 2 134.535 19.2944 0.0970616
236 2 138.593 19.353 15.9579
237 2 142.455 19.3953 16.1839
238 2 146.195 19.3057 0.229768
239 2 150.169 19.1872 16.0139
240 2 153.991 18.99 0.174394
241 2 158.318 23.2512 15.946
242 2 3.76515 22.9919 16.0175
243 2 7.46482 23.1703 0.379298
244 2 11.5582 23.1318 0.172849
245 2 15.4784 22.9908 15.8903
246 2 19.3855 23.0498 16.098
247 2 23.4328 23.0326 15.7993
248 2 27.3073 23.1122 15.7709
249 2 31.5749 23.2904 0.152341
250 2 35.5689 23.1182 15.8678
251 2 39.4271 23.435 0.273874
252 2 43.4948 23.2972 16.0852
253 2 47.3858 23.3343 0.348715
254 2 51.2896 23.5016 0.368432
255 2 55.5228 23.4618 0.3032
256 2 59.5107 23.607 16.1357
257 2 63.4749 23.7425 -0.0136439
258 2 67.5006 23.5579 15.9042
259 2 71.6257 23.8142 15.8811
260 2 75.6177 23.6694 0.163644
261 2 79.6284 23.7754 15.8533
262 2 83.4704 23.8715 0.214063
263 2 87.51 23.8363 16.0026
264 2 91.52 23.8686 15.707
265 2 95.4572 24.0679 15.9319
266 2 99.417 24.0077 -0.0370465
267 2 103.27 24.0221 15.8866
268 2 107.178 23.7355 16.0058
269 2 110.964 23.7659 0.171976
270 2 115.023 23.7409 16.0062
271 2 118.876 23.5751 15.9534
272 2 122.783 23.6271 0.343411
273 2 126.881 23.3838 15.9531
274 2 130.53 23.3126 15.9132
275 2 134.466 23.5161 15.8381
276 2 138.44 23.4169 16.0162
277 2 142.298 23.4576 15.851
278 2 146.42 23.3236 0.135637
279 2 150.179 23.2596 0.147666
280 2 154.16 23.1534 0.180138
281 2 157.856 27.2997 0.448157
282 2 3.83042 27.0303 0.0767409
283 2 7.76018 27.1206 0.222246
284 2 11.4713 26.9531 15.891
285 2 15.2731 26.8498 15.8973
286 2 19.347 26.949 0.297476
287 2 23.3065 26.973 16.1735
288 2 27.3011 27.1279 15.8781
289 2 31.3784 27.1097 0.203053
290 2 35.4228 27.0748 0.0595533
291 2 39.3037 27.1813 -0.0540064
292 2 43.4141 27.2604 -0.107169
293 2 47.4556 27.5007 0.192079
294 2 51.355 27.4942 16.024
295 2 55.4053 27.398 0.313872
296 2 59.1761 27.4727 16.0404
297 2 63.5525 27.5211 15.8373
298 2 67.4694 27.44 16.0205
299 2 71.4274 27.5278 15.7009
300 2 75.6865 27.712 0.115179
301 2 79.5754 27.6129 0.178087
302 2 83.6327 27.7246 15.8475
303 2 87.4053 27.6792 0.187103
304 2 91.6737 27.6689 0.099483
305 2 95.4751 27.68 -0.0119924
306 2 99.3579 27.9647 0.0647906
307 2 103.398 27.9694 16.0306
308 2 107.321 27.8944 0.198293
309 2 111.197 27.6072 16.0824
310 2 115.119 27.6807 15.9098
311 2 118.853 27.7699 0.186394
312 2 122.884 27.6187 0.155273
313 2 126.536 27.709 15.9622
314 2 130.669 27.5415 15.9795
315 2 134.763 27.6369 15.7873
316 2 138.45 27.2643 15.9085
317 2 142.517 27.351 0.0661049
318 2 146.259 27.264 0.0934599
319 2 150.167 27.4226 0.161609
320 2 153.892 27.1271 0.0248247
321 2 158.041 31.2879 16.0572
322 2 3.67065 31.1592 15.9959
323 2 7.53917 31.0718 15.9433
324 2 11.6202 31.0764 0.394267
325 2 15.4107 31.1164 0.155974
326 2 19.4395 30.7481 16.0092
327 2 23.3903 30.9537 15.8005
328 2 27.1575 31.0768 0.208544
329 2 31.485 31.0452 15.8559
330 2 35.5461 30.9936 15.9297
331 2 39.5209 31.2692 15.835
332 2 43.5664 31.2524 0.0169881
333 2 47.3643 31.4097 15.9622
334 2 51.491 31.3794 0.233621
335 2 55.483 31.2127 16.1306
336 2 59.4435 31.3076 0.0751216
337 2 63.5464 31.3491 15.8482
338 2 67.3452 31.5954 0.0504199
339 2 71.5642 31.3221 0.108388
340 2 75.3459 31.4904 0.0668153
341 2 79.5227 31.5873 16.0952
342 2 83.3565 31.5917 0.0514861
343 2 87.5426 31.7946 16.0486
344 2 91.5215 31.6489 16.03
345 2 95.3712 31.8849 15.8149
346 2 99.4846 31.9226 0.333809
347 2 103.342 31.8407 15.9254
348 2 107.388 31.7389 16.025
349 2 111.219 31.8397 15.9878
350 2 115.113 31.4988 16.0133
351 2 118.833 31.7296 16.0992
352 2 122.869 31.4055 15.8813
353 2 126.879 31.3743 15.8503
354 2 130.845 31.5414 15.6703
355 2 134.743 31.4955 15.9603
356 2 138.48 31.508 15.9043
357 2 142.368 31.3122 0.305302
358 2 146.259 31.2518 15.7864
359 2 150.008 31.2804 -0.0147009
360 2 153.936 31.1015 0.124636
361 2 -0.11451 35.0917 0.115067
362 2 3.77051 35.1049 16.0098
363 2 7.70703 34.9106 15.9344
364 2 11.5639 34.9762 15.8966
365 2 15.5913 34.9748 0.234537
366 2 19.3092 34.8201 0.12522
367 2 23.2409 34.8695 0.0367163
368 2 27.339 34.8992 0.212632
369 2 31.2754 34.9127 0.355954
370 2 35.4082 34.8566 0.397828
371 2 39.3505 35.0951 0.216373
372 2 43.4551 35.1586 15.9864
373 2 47.3451 35.3448 16.0546
374 2 51.354 35.2412 16.092
375 2 55.363 35.1765 0.317811
376 2 59.646 35.3572 0.186997
377 2 63.5537 35.4443 15.912
378 2 67.3124 35.4515 0.182433
379 2 71.3612 35.1596 -0.110689
380 2 75.319 35.3949 15.8324
381 2 79.3364 35.5654 0.0273853
382 2 83.3582 35.3776 16.0008
383 2 87.5123 35.4779 0.25155
384 2 91.3091 35.7192 0.223273
385 2 95.3983 35.8763 15.8521
386 2 99.4032 35.7904 0.147051
387 2 103.479 35.6992 15.8596
388 2 107.456 35.6372 16.0226
389 2 111.323 35.7507 15.9175
390 2 115.09 35.6297 16.0286
391 2 118.851 35.5151 15.9725
392 2 122.88 35.5851 16.0021
393 2 126.736 35.4817 15.9218
394 2 130.89 35.4662 16.0209
395 2 134.674 35.5583 16.0598
396 2 138.573 35.3965 0.132505
397 2 142.503 35.355 0.136754
398 2 146.297 35.1942 0.148225
399 2 150.265 35.1988 15.8559
400 2 154.237 35.2336 0.1436
401 2 158.269 39.2751 0.0578878
402 2 3.89081 39.0586 0.398238
403 2 7.63807 38.9952 0.159282
404 2 11.6568 38.9117 16.0647
405 2 15.6441 38.8952 0.0617392
406 2 19.6048 38.8488 15.8505
407 2 23.471 38.8438 15.8948
408 2 27.3884 38.8 16.0656
409 2 31.3252 38.7175 0.231074
410 2 35.3255 38.8958 0.0553942
411 2 39.1457 38.9805 15.9167
412 2 43.2884 38.9542 0.107956
413 2 47.3291 38.9266 0.107701
414 2 51.2934 39.0407 15.9262
415 2 55.4426 39.0796 0.250908
416 2 59.4665 39.2134 0.182222
417 2 63.4569 39.2361 0.116397
418 2 67.2717 39.3643 0.171739
419 2 71.2812 39.3024 0.00841866
420 2 75.3073 39.3519 0.0380744
421 2 79.4061 39.4124 -0.0215033
422 2 83.4062 39.6123 15.8319
423 2 87.2951 39.5284 15.9841
424 2 91.3409 39.5693 15.9275
425 2 95.4 39.8673 15.9809
426 2 99.3808 39.6611 0.339207
427 2 103.315 39.5854 15.9043
428 2 107.526 39.6159 15.7711
429 2 111.204 39.7821 15.959
430 2 115.259 39.8069 15.8908
431 2 119.072 39.5429 15.8833
432 2 122.774 39.6183 16.0017
433 2 126.841 39.5141 0.0606586
434 2 130.787 39.4496 16.0036
435 2 134.696 39.4344 15.973
436 2 138.759 39.3582 15.9763
437 2 142.684 39.4652 15.8463
438 2 146.517 39.1946 0.10551
439 2 150.423 39.2973 15.8904
440 2 154.383 39.3112 15.8853
441 2 158.162 43.1212 0.173996
442 2 3.71047 43.1402 15.8515
443 2 7.76844 43.0292 15.9411
444 2 11.5859 43.1366 0.100221
445 2 15.4771 42.9906 0.189715
446 2 19.472 42.9512 0.220116
447 2 23.3875 42.8249 16.1524
448 2 27.3129 42.6522 16.1096
449 2 31.1068 42.854 0.321826
450 2 35.0663 42.8246 0.457792
451 2 39.1023 42.754 0.0946082
452 2 43.2363 43.1503 -0.0810999
453 2 47.2208 42.8492 15.7773
454 2 51.3355 42.9645 15.9198
455 2 55.3763 43.0426 0.286292
456 2 59.4361 43.0798 15.8356
457 2 63.4544 43.205 0.0848999
458 2 67.3419 43.2372 0.190451
459 2 71.2215 43.4138 0.213765
460 2 75.3245 43.2255 0.254265
461 2 79.3974 43.1617 0.161506
462 2 83.1408 43.3569 15.9953
463 2 87.3547 43.5095 16.0188
464 2 91.2967 43.5303 0.0584058
465 2 95.4962 43.6649 0.131297
466 2 99.416 43.5857 15.989
467 2 103.549 43.6783 15.879
468 2 107.324 43.4977 16.0506
469 2 111.28 43.7153 15.5989
470 2 115.189 43.7472 15.8097
471 2 119.132 43.8323 15.9557
472 2 123.032 43.564 15.7614
473 2 126.747 43.4336 0.106389
474 2 130.927 43.5164 0.246138
475 2 134.824 43.3889 16.1758
476 2 138.492 43.3842 16.0234
477 2 142.462 43.3543 15.9877
478 2 146.563 43.2056 0.279285
479 2 150.476 43.2152 0.175161
480 2 154.216 43.2598 0.334285
481 2 0.00498152 47.177 0.232095
482 2 3.83616 47.0229 0.294959
483 2 7.82122 47.0307 0.233642
484 2 11.6167 47.1477 0.147494
485 2 15.6183 47.005 0.23559
486 2 19.7818 47.228 0.21611
487 2 23.4757 46.7402 0.224353
488 2 27.2875 46.8589 15.9184
489 2 30.994 46.8706 0.161945
490 2 35.3278 46.7385 0.180265
491 2 39.1437 46.7796 15.8672
492 2 43.2064 46.6433 15.9308
493 2 47.2342 46.7965 0.238593
494 2 51.335 46.8993 16.2863
495 2 55.3495 47.0121 15.9996
496 2 59.2977 47.121 15.7594
497 2 63.3176 47.0306 0.142683
498 2 67.1617 47.3372 0.0585418
499 2 71.2319 47.1703 15.9379
500 2 75.2115 47.249 0.433172
501 2 79.4394 47.2558 16.0224
502 2 83.3719 47.128 15.984
503 2 87.323 47.4798 0.0965617
504 2 91.3261 47.4381 0.168565
505 2 95.3564 47.4964 0.0871429
506 2 99.3623 47.4042 0.0689267
507 2 103.301 47.6593 0.0529553
508 2 107.4 47.4878 15.8325
509 2 111.516 47.7055 15.8899
510 2 115.237 47.6404 0.356654
511 2 119.104 47.5703 15.8216
512 2 123.214 47.6923 16.0003
513 2 126.92 47.4705 16.0097
514 2 131.025 47.5843 15.909
515 2 134.93 47.4959 15.997
516 2 138.721 47.3934 15.9317
517 2 142.717 47.3632 15.9153
518 2 146.631 47.3008 0.180831
519 2 150.465 47.3624 0.431266
520 2 154.147 47.1766 16.0467
521 2 158.162 51.4291 0.347999
522 2 3.85811 51.1119 15.9107
523 2 7.75719 50.9663 16.1072
524 2 11.6693 51.0977 16.0968
525 2 15.6612 50.9982 0.0317285
526 2 19.4598 50.8688 16.0482
527 2 23.7274 51.01 15.8854
528 2 27.6096 50.8023 15.9627
529 2 31.4556 50.8441 0.0899509
530 2 35.1612 50.666 0.233197
531 2 39.1416 50.6741 16.0819
532 2 43.0172 50.83 15.8341
533 2 46.9803 50.7708 0.0453379
534 2 51.197 50.6754 0.019517
535 2 55.0833 50.87 0.106635
536 2 59.3159 50.8896 15.929
537 2 63.187 51.0808 15.9163
538 2 67.2915 51.0469 0.105481
539 2 71.3328 51.0209 0.208923
540 2 75.3227 51.2452 0.38196
541 2 79.1707 51.1891 0.149891
542 2 83.2112 51.4597 0.216821
543 2 87.2329 51.2383 0.315073
544 2 91.4027 51.5472 0.201271
545 2 95.3733 51.4715 0.204524
546 2 99.3625 51.3953 0.191985
547 2 103.117 51.331 15.9891
548 2 107.24 51.5994 0.133297
549 2 111.304 51.6698 0.100027
550 2 115.315 51.5912 16.049
551 2 119.158 51.7577 15.9007
552 2 123.041 51.5254 15.9796
553 2 127.021 51.6321 15.9959
554 2 131.133 51.5696 0.266964
555 2 134.902 51.4882 0.352904
556 2 138.731 51.2684 -0.00441844
557 2 142.604 51.3032 0.238135
558 2 146.579 51.2671 16.0047
559 2 150.499 51.2795 0.174131
560 2 154.281 51.1551 0.0426857
561 2 158.39 55.2045 0.224438
562 2 3.87826 55.3645 0.453757
563 2 7.87505 54.9964 0.14856
564 2 11.7114 54.9547 0.179111
565 2 15.6508 55.1221 0.363909
566 2 19.7846 54.9403 15.8859
567 2 23.5135 54.6316 15.7737
568 2 27.7217 54.8476 16.2166
569 2 31.3107 54.8331 -0.00837338
570 2 35.2956 54.7239 0.0434116
571 2 39.3042 54.6059 15.7326
572 2 43.1525 54.7152 15.8397
573 2 47.1565 54.7175 0.420502
574 2 51.2942 54.9339 15.832
575 2 55.3216 54.7831 15.9174
576 2 59.4042 54.8165 15.8636
577 2 63.3383 54.8503 16.0641
578 2 67.1987 54.9299 0.133282
579 2 71.3036 54.9279 0.190938
580 2 75.1953 55.1293 15.8542
581 2 79.3363 55.1232 0.0673007
582 2 83.1354 55.1837 0.101797
583 2 87.0276 55.1012 0.282637
584 2 91.2742 55.3403 15.9317
585 2 95.3246 55.2093 0.0809495
586 2 99.3578 55.3282 15.9682
587 2 103.134 55.2695 15.8819
588 2 107.207 55.5941 0.149437
589 2 111.228 55.6589 15.8559
590 2 115.191 55.4925 15.7509
591 2 119.379 55.642 15.988
592 2 123.218 55.6524 0.268902
593 2 127.033 55.5179 16.0905
594 2 131.021 55.435 15.8288
595 2 135.025 55.4411 0.174435
596 2 138.928 55.2722 15.888
597 2 142.67 55.2643 0.0248166
598 2 146.489 55.3847 0.133552
599 2 150.431 55.4055 0.38918
600 2 154.375 55.4773 16.0174
601 2 158.294 59.1706 0.310332
602 2 4.05224 59.1228 16.0555
603 2 8.01073 59.1857 15.9945
604 2 11.9645 58.8118 0.117124
605 2 15.7684 59.0815 16.143
606 2 19.7494 58.7876 0.32197
607 2 23.573 58.9449 0.245233
608 2 27.6274 58.6283 0.276249
609 2 31.3721 58.6526 16.1649
610 2 35.5262 58.8559 16.0659
611 2 39.5107 58.705 16.0227
612 2 43.2723 58.8187 15.9008
613 2 47.1156 58.525 15.8124
614 2 50.9936 58.6101 15.9733
615 2 55.1371 58.503 15.8526
616 2 59.222 58.7083 0.124662
617 2 63.1757 58.9346 15.9229
618 2 67.3464 58.8022 0.167958
619 2 71.2789 59.0973 15.9792
620 2 75.2418 59.0611 0.209511
621 2 78.9649 59.1091 0.062491
622 2 83.1141 59.097 0.202752
623 2 87.2043 59.0219 16.0662
624 2 91.1754 59.2147 15.8203
625 2 95.243 59.0398 0.112216
626 2 99.272 59.2002 0.0180555
627 2 103.085 59.0309 15.8797
628 2 107.3 59.4111 0.136275
629 2 111.258 59.4222 16.0425
630 2 115.292 59.5799 15.9749
631 2 119.229 59.6504 16.0875
632 2 123.134 59.4355 0.31221
633 2 127.187 59.465 15.8761
634 2 131.267 59.6428 0.314216
635 2 134.947 59.4331 16.0507
636 2 138.768 59.3232 0.184077
637 2 142.856 59.4139 0.333404
638 2 146.651 59.4576 0.235774
639 2 150.512 59.4155 15.9491
640 2 154.405 59.3629 0.196478
641 2 0.259453 63.0371 0.264039
642 2 4.38106 63.1448 0.187925
643 2 8.12714 63.1336 15.9993
644 2 12.0124 63.0327 15.9596
645 2 15.8846 62.8852 16.0575
646 2 19.784 62.8156 0.221481
647 2 23.5511 62.712 0.0443579
648 2 27.5507 62.893 0.372399
649 2 31.4121 62.7762 0.00845244
650 2 35.2617 62.8115 0.272019
651 2 39.3995 62.6093 16.0037
652 2 43.2978 62.6066 0.320178
653 2 47.3389 62.546 15.7043
654 2 51.2165 62.3797 15.7793
655 2 55.1652 62.4126 0.146353
656 2 58.8979 62.5529 15.9076
657 2 63.066 62.5853 0.117501
658 2 67.0662 62.6162 15.815
659 2 71.0808 62.9932 0.141862
660 2 75.1384 63.035 0.147111
661 2 79.1456 62.9253 0.0714213
662 2 83.0724 62.9559 0.275363
663 2 87.217 62.9568 15.9983
664 2 91.2722 62.9084 15.969
665 2 95.2534 63.0464 0.123879
666 2 99.2784 63.0861 0.0465008
667 2 103.262 63.2098 15.9542
668 2 107.137 63.2841 15.9358
669 2 110.994 63.2813 16.0925
670 2 115.26 63.4253 0.22532
671 2 119.146 63.5092 16.1109
672 2 123.125 63.5083 0.208587
673 2 127.052 63.4648 16.0703
674 2 131.188 63.468 0.123789
675 2 135.106 63.5295 16.0253
676 2 139.225 63.6415 16.1974
677 2 142.809 63.3723 15.8375
678 2 146.753 63.5624 0.0629762
679 2 150.634 63.2409 15.9574
680 2 154.533 63.1062 0.109702
681 2 0.18518 67.2374 0.14501
682 2 4.0252 67.1236 0.208322
683 2 7.981 66.9822 15.9491
684 2 11.8796 67.1042 15.9473
685 2 15.9242 66.9702 0.211674
686 2 19.8157 66.8817 0.282139
687 2 23.7627 66.8523 -0.0246518
688 2 27.7236 66.7615 0.0169957
689 2 31.5418 66.6038 0.223009
690 2 35.3259 66.6788 0.235947
691 2 39.463 66.6003 15.9164
692 2 43.3844 66.6382 0.0668096
693 2 47.2203 66.4362 15.9188
694 2 51.1718 66.5054 15.8959
695 2 55.0677 66.4444 15.8597
696 2 59.012 66.6548 15.9652
697 2 63.0304 66.5755 16.0259
698 2 67.0167 66.6152 15.7777
699 2 70.8727 66.7341 0.0558766
700 2 75.0197 66.6765 15.8473
701 2 79.1506 66.9302 16.1563
702 2 83.2041 66.8176 0.196666
703 2 87.1797 66.813 15.937
704 2 91.1156 66.8676 15.9477
705 2 95.0156 67.04 0.18365
706 2 99.1718 67.0468 0.0296196
707 2 103.073 67.2234 0.0298101
708 2 107.019 67.3347 15.8653
709 2 111.071 67.3591 15.6697
710 2 115.064 67.3197 15.8814
711 2 119.075 67.4066 0.127787
712 2 123.092 67.468 0.169605
713 2 127.061 67.4401 0.0251313
714 2 131.106 67.3597 15.938
715 2 135.016 67.2855 0.256218
716 2 138.92 67.4757 0.35072
717 2 143.015 67.4978 16.0222
718 2 146.817 67.4093 16.1273
719 2 150.763 67.2816 16.0554
720 2 154.554 67.2636 0.139685
721 2 0.519045 71.1754 0.348968
722 2 4.3102 71.1736 16.0929
723 2 8.08559 71.1287 0.355172
724 2 12.0578 70.9983 15.7913
725 2 16.0321 71.0067 0.204741
726 2 19.8305 70.9439 0.281088
727 2 23.6512 70.7613 0.299539
728 2 27.872 70.798 15.7863
729 2 31.7282 70.6941 0.30009
730 2 35.4891 70.6658 0.100512
731 2 39.3785 70.7792 15.8866
732 2 43.2532 70.5995 -0.0542491
733 2 47.142 70.4691 15.8166
734 2 51.1863 70.5288 15.7626
735 2 55.0583 70.3911 0.113642
736 2 58.9611 70.5888 0.0615556
737 2 62.8085 70.5043 0.35963
738 2 66.7557 70.7626 15.8105
739 2 71.1572 70.7898 15.7543
740 2 75.0111 70.8511 16.0106
741 2 79.165 70.8783 0.245098
742 2 83.0973 70.8703 0.18679
743 2 87.0079 70.6811 15.9234
744 2 91.0533 70.8576 16.0164
745 2 95.0112 70.9153 16.0927
746 2 99.0383 70.8796 15.9695
747 2 102.933 71.1346 15.9187
748 2 107.023 71.041 15.8051
749 2 111.036 71.1752 15.6805
750 2 115.161 71.1982 0.085071
751 2 119.066 71.2497 15.7262
752 2 123.21 71.3803 0.0274201
753 2 127.016 71.3749 15.6924
754 2 130.905 71.3543 15.9049
755 2 134.887 71.4392 15.8921
756 2 139.085 71.4416 16.0094
757 2 143.077 71.3921 0.271814
758 2 146.871 71.4708 0.232195
759 2 150.873 71.2622 0.144914
760 2 154.948 71.3873 16.0363
761 2 0.403958 75.3041 0.0858752
762 2 4.24695 75.2264 16.079
763 2 8.31723 75.0124 15.9164
764 2 11.9832 74.9633 16.0387
765 2 15.8767 74.9891 15.8481
766 2 19.8267 74.85 15.99
767 2 23.767 74.8401 16.0313
768 2 27.6785 74.9545 15.9273
769 2 31.5872 74.6078 0.256956
770 2 35.5938 74.7947 15.656
771 2 39.4911 74.6529 15.7899
772 2 43.4388 74.6506 -0.0515708
773 2 47.3474 74.4588 15.7712
774 2 51.4433 74.3616 0.16618
775 2 55.2065 74.4214 15.9937
776 2 58.9058 74.4271 16.0559
777 2 63.0464 74.5257 16.0909
778 2 66.8887 74.4517 0.0945754
779 2 71.0368 74.7418 0.0833743
780 2 74.9725 74.5647 0.011194
781 2 79.0077 74.5979 0.167041
782 2 82.8912 74.7366 0.0165068
783 2 87.0607 74.7768 0.2992
784 2 91.0377 74.6278 15.8306
785 2 94.8578 74.9304 15.9012
786 2 99.1886 74.8615 0.227524
787 2 102.862 75.0631 15.8436
788 2 106.93 74.9896 15.7641
789 2 111.013 75.0879 15.8755
790 2 115.06 75.0132 15.801
791 2 119.029 75.2987 0.114234
792 2 122.932 75.1452 15.8965
793 2 126.924 75.3309 15.704
794 2 130.932 75.3322 0.236897
795 2 134.856 75.3403 15.7237
796 2 138.885 75.2512 15.9652
797 2 142.884 75.3778 15.8417
798 2 146.783 75.3824 15.7478
799 2 150.922 75.2112 0.255108
800 2 154.837 75.1303 0.0980354
801 2 0.434019 79.408 -0.0669204
802 2 4.33156 79.1733 16.1502
803 2 8.07335 79.0172 0.165826
804 2 11.9736 79.0016 0.23219
805 2 15.9415 78.9245 15.9142
806 2 19.7549 78.9698 15.8163
807 2 23.7563 78.8349 0.29327
808 2 27.6416 78.6368 0.195411
809 2 31.7694 78.6582 0.119122
810 2 35.6626 78.5212 0.13221
811 2 39.5153 78.5198 15.7538
812 2 43.4719 78.5297 15.702
813 2 47.3101 78.5602 15.8376
814 2 51.3032 78.5884 0.200173
815 2 55.0428 78.4167 0.0817453
816 2 58.8577 78.2662 16.049
817 2 62.8835 78.4002 16.0335
818 2 66.9581 78.3355 0.143964
819 2 70.816 78.3625 16.0064
820 2 75.0678 78.5294 0.238911
821 2 78.9609 78.5694 15.9833
822 2 82.8775 78.4374 15.8707
823 2 87.072 78.7172 0.111639
824 2 90.8595 78.9487 0.334148
825 2 95.0413 78.8713 0.304935
826 2 98.925 78.6381 15.9264
827 2 103.095 78.9839 15.9138
828 2 107.054 79.0771 0.0769594
829 2 110.969 79.0518 0.404881
830 2 114.99 78.9531 0.00292205
831 2 118.833 79.0672 0.0462093
832 2 122.929 79.2467 15.8845
833 2 126.94 79.1802 0.15887
834 2 131.018 79.2219 15.9366
835 2 134.975 79.2362 0.299399
836 2 138.952 79.1477 15.874
837 2 142.904 79.4175 15.9628
838 2 147.148 79.2846 15.9569
839 2 150.892 79.3535 15.9776
840 2 154.947 79.2192 0.154133
841 2 0.445298 83.208 16.06
842 2 4.22732 83.1007 15.9696
843 2 8.08335 83.0335 0.140468
844 2 12.1245 83.0081 15.9213
845 2 15.9404 83.0643 15.9436
846 2 19.9292 82.768 0.160469
847 2 24.0079 82.7677 15.9927
848 2 27.6632 82.8549 0.111318
849 2 31.6969 82.8096 15.9507
850 2 35.6081 82.886 0.141055
851 2 39.632 82.6005 0.0352595
852 2 43.5373 82.5784 16.0054
853 2 47.4437 82.6481 0.153197
854 2 51.3764 82.6259 0.198048
855 2 55.2789 82.4406 0.112562
856 2 59.216 82.4376 16.1034
857 2 63.0609 82.326 15.9529
858 2 66.7735 82.4211 16.0416
859 2 70.9205 82.3875 16.1137
860 2 74.8152 82.4829 15.9506
861 2 78.8529 82.3149 16.0859
862 2 83.0166 82.434 0.208091
863 2 86.899 82.5949 0.19532
864 2 90.8142 82.8449 16.0581
865 2 94.9527 82.7916 0.0486399
866 2 98.8304 82.7647 15.9277
867 2 103.024 82.837 0.0454221
868 2 106.8 82.6928 15.887
869 2 111.173 82.9005 16.0184
870 2 114.744 83.0012 16.1339
871 2 119.031 83.0487 16.0345
872 2 122.81 83.1473 15.704
873 2 127.143 83.1455 15.9931
874 2 130.835 82.9814 15.9276
875 2 134.99 83.2147 0.0485747
876 2 138.97 83.317 15.9924
877 2 142.92 83.1275 0.214905
878 2 146.896 83.2777 16.0494
879 2 150.877 83.2932 0.163349
880 2 154.825 83.4381 0.417344
881 2 0.550331 87.3017 15.8256
882 2 4.41438 86.9813 0.167187
883 2 8.30509 87.0196 16.0433
884 2 12.2207 86.9385 16.0072
885 2 15.9962 86.92 15.983
886 2 19.9909 86.953 15.9301
887 2 23.989 86.9988 15.9424
888 2 27.8605 86.8135 -0.0924343
889 2 31.8032 86.8528 15.9762
890 2 35.7319 86.4875 0.254309
891 2 39.5264 86.7396 15.8169
892 2 43.4962 86.5826 15.9449
893 2 47.3986 86.5254 15.6659
894 2 51.5109 86.5075 16.0561
895 2 55.3429 86.5081 16.0322
896 2 59.0247 86.3219 0.240016
897 2 62.877 86.505 0.312964
898 2 66.9109 86.5447 16.1601
899 2 71.0053 86.3691 0.277059
900 2 74.7654 86.4014 16.0218
901 2 78.704 86.5297 0.307402
902 2 82.8555 86.3499 0.346181
903 2 86.854 86.3626 16.1634
904 2 90.9151 86.7236 15.8506
905 2 94.8935 86.7082 15.7555
906 2 98.8754 86.8764 15.8028
907 2 102.873 86.8785 0.00197564
908 2 106.81 86.9003 0.162158
909 2 110.971 86.7706 15.964
910 2 115.041 86.9772 0.281604
911 2 118.771 87.0639 0.0393494
912 2 122.89 87.0151 0.040015
913 2 126.982 87.0527 15.8318
914 2 131.015 87.0736 15.9919
915 2 135.012 87.1937 15.8042
916 2 138.901 87.1005 15.8542
917 2 143.026 87.2391 16.1496
918 2 146.862 87.1405 0.0968761
919 2 150.713 87.3877 15.9492
920 2 154.812 87.1773 15.9483
921 2 0.628137 91.1838 0.0799972
922 2 4.41656 91.1481 0.155457
923 2 8.22573 91.0558 15.9732
924 2 12.2248 90.9896 15.8285
925 2 15.9367 90.9364 0.231989
926 2 20.0469 90.7853 0.324321
927 2 24.1058 90.9361 15.8261
928 2 27.873 90.7962 15.9395
929 2 31.9228 90.7083 15.8007
930 2 35.7773 90.592 0.034285
931 2 39.7315 90.4661 15.8617
932 2 43.5805 90.6129 15.9048
933 2 47.3461 90.4806 0.137849
934 2 51.3683 90.6085 0.253147
935 2 55.2064 90.6455 0.0688837
936 2 59.3147 90.522 0.117843
937 2 63.3067 90.4446 0.145235
938 2 67.0385 90.5825 15.9856
939 2 71.0748 90.4334 15.8413
940 2 74.8428 90.3746 0.14774
941 2 78.6279 90.3084 0.120716
942 2 82.7424 90.2774 0.124887
943 2 86.7751 90.203 0.365219
944 2 90.8362 90.6587 0.371294
945 2 94.8538 90.5349 15.6535
946 2 98.7529 90.6843 16.0981
947 2 102.908 90.706 0.110073
948 2 106.883 90.8505 15.8517
949 2 110.776 90.9386 15.6804
950 2 114.751 90.7613 0.0789566
951 2 118.732 90.9197 0.13344
952 2 122.851 90.7807 15.8607
953 2 126.794 90.931 0.0901049
954 2 130.869 91.0555 0.223903
955 2 134.862 90.9637 15.8667
956 2 138.956 91.0441 15.8421
957 2 142.86 91.1935 16.065
958 2 146.833 91.1042 15.859
959 2 150.746 91.0846 15.7446
960 2 154.858 91.0482 15.8842
961 2 0.586026 95.0545 0.102604
962 2 4.34364 95.1471 15.8738
963 2 8.42201 94.9834 16.0956
964 2 12.3526 94.9976 15.84
965 2 16.3021 94.9222 15.9663
966 2 19.996 94.8547 15.957
967 2 24.0144 94.8322 16.028
968 2 27.8508 94.7741 16.0636
969 2 31.9602 94.569 15.9327
970 2 35.8839 94.7 15.9637
971 2 39.6226 94.6321 16.0786
972 2 43.4555 94.579 15.9634
973 2 47.6202 94.4482 0.32672
974 2 51.5617 94.46 16.1111
975 2 55.44 94.6007 0.127147
976 2 59.2307 94.5072 15.7014
977 2 63.229 94.2712 0.181236
978 2 67.1046 94.4003 0.173782
979 2 71.015 94.423 0.0985842
980 2 74.838 94.3055 0.285537
981 2 78.7433 94.2475 16.0934
982 2 82.8089 94.2664 0.138178
983 2 86.6881 94.063 0.198408
984 2 90.3793 94.4901 0.313672