ITEM: TIMESTEP
24300
ITEM: NUMBER OF ATOMS
32000
ITEM: BOX BOUNDS xy xz yz pp pp pp
0.0000000000000000e+00 1.5831999999999999e+02 0.0000000000000000e+00
0.0000000000000000e+00 1.5831999999999999e+02 0.0000000000000000e+00
1.6493805129433614e-01 1.5932773948705499e+01 0.0000000000000000e+00
ITEM: ATOMS id type x y z
1 2 158.021 157.654 15.7637
2 2 3.88649 157.724 15.8756
3 2 7.83668 157.699 0.169382
4 2 11.5386 157.708 0.165112
5 2 15.7652 157.723 -0.00971423
6 2 19.7148 157.812 15.9689
7 2 23.6688 158.065 15.6089
8 2 27.7687 158.204 15.9331
9 2 31.6928 158.14 0.118835
10 2 35.7433 158.167 16.0258
11 2 39.9088 -0.139466 16.1176
12 2 43.7873 -0.149129 0.41686
13 2 47.7465 0.0283028 15.9613
14 2 51.6847 -0.0296825 0.136235
15 2 55.6781 158.587 0.239058
16 2 59.7716 158.396 15.9799
17 2 63.8353 0.0415613 15.7734
18 2 67.8832 0.176706 15.836
19 2 71.863 0.281435 16.0021
20 2 75.7537 158.618 15.7957
21 2 79.754 -0.137362 15.9773
22 2 83.6949 158.373 15.825
23 2 87.4531 158.22 15.9768
24 2 91.0895 158.349 0.143756
25 2 94.9593 158.191 16.0882
26 2 99.209 158.044 16.0753
27 2 102.971 158.023 16.2782
28 2 107.007 157.926 16.1228
29 2 110.855 158.056 0.0159585
30 2 114.632 158.123 0.0163649
31 2 118.724 157.948 15.9323
32 2 122.536 157.935 0.010048
33 2 126.712 157.92 0.0258229
34 2 130.714 157.888 0.131779
35 2 134.356 157.762 16.1228
36 2 138.081 157.706 16.0523
37 2 142.001 157.727 16.0129
38 2 146.101 157.712 15.8485
39 2 150.134 157.623 0.295767
40 2 154.03 157.554 0.126088
41 2 158.157 3.32011 15.9063
42 2 3.81094 3.17031 15.821
43 2 7.71913 3.31915 0.23452
44 2 11.4991 3.2358 15.6783
45 2 15.7155 3.41846 16.0074
46 2 19.7662 3.60421 15.9644
47 2 23.4643 3.65221 0.260247
48 2 27.9072 3.72404 0.158276
49 2 31.8822 3.87427 0.394651
50 2 35.6742 3.71489 0.0524407
51 2 39.6864 3.64544 0.0616881
52 2 43.6833 3.82538 15.7963
53 2 47.5344 3.87595 16.0116
54 2 51.709 3.89675 15.9715
55 2 55.5217 4.07108 0.16185
56 2 59.7381 4.16809 16.0466
57 2 63.7553 4.13912 15.8395
58 2 67.7028 4.19756 15.852
59 2 71.809 4.15723 15.9242
60 2 75.6445 4.11196 16.1818
61 2 79.6394 4.11033 15.8941
62 2 83.5378 3.8544 15.8949
63 2 87.4471 4.14725 15.8637
64 2 91.3691 4.02726 0.0964507
65 2 95.2902 3.70703 15.8402
66 2 99.0551 3.71458 0.179937
67 2 102.964 3.67872 16.0004
68 2 107.07 3.70565 15.9492
69 2 110.745 3.66573 0.152014
70 2 114.708 3.81311 -0.00227925
71 2 118.745 3.56496 0.114504
72 2 122.68 3.65491 0.15906
73 2 126.513 3.46123 0.177385
74 2 130.398 3.34553 0.270101
75 2 134.343 3.32474 16.0537
76 2 138.226 3.30913 0.127928
77 2 142.152 3.32908 0.319359
78 2 146.281 3.16274 0.378563
79 2 150.144 3.45631 16.1815
80 2 153.994 3.05404 15.7972
81 2 157.905 7.17572 15.7031
82 2 3.61088 7.10992 15.89
83 2 7.61098 7.17346 16.1053
84 2 11.6686 7.28891 0.0177455
85 2 15.7953 7.28794 15.8375
86 2 19.4769 7.50673 15.8492
87 2 23.6643 7.54168 0.0456589
88 2 27.6876 7.67123 15.9412
89 2 31.7565 7.75342 16.0151
90 2 35.7779 7.58739 15.9132
91 2 39.6332 7.57425 0.023505
92 2 43.7822 7.73699 0.0404649
93 2 47.5954 7.76777 15.8059
94 2 51.6323 7.73485 0.304483
95 2 55.6437 7.98615 15.7631
96 2 59.8144 8.08506 0.0966211
97 2 63.4123 8.07348 15.9693
98 2 67.6098 7.97891 15.8297
99 2 71.6095 7.8953 16.0922
100 2 75.7689 8.03649 15.764
101 2 79.7915 8.15763 0.320901
102 2 83.4343 8.08557 16.0415
103 2 87.2704 8.06648 15.9298
104 2 91.4074 8.17637 15.7426
105 2 95.3065 7.99524 15.7327
106 2 99.3978 7.86312 0.361109
107 2 102.893 7.67892 0.0891798
108 2 107.068 7.86644 15.797
109 2 110.998 7.63447 0.283341
110 2 114.959 7.6242 15.8924
111 2 118.789 7.57476 16.0012
112 2 122.583 7.59396 15.8966
113 2 126.635 7.34882 15.7883
114 2 130.448 7.46117 0.0158552
115 2 134.482 7.33293 0.195851
116 2 138.405 7.49757 16.21
117 2 142.303 7.26745 16.0405
118 2 146.065 7.28435 0.272874
119 2 150.154 7.25432 0.360974
120 2 154.136 7.28552 15.7747
121 2 157.999 11.1359 15.8933
122 2 3.52816 11.1345 15.872
123 2 7.57973 10.9512 15.8979
124 2 11.4721 11.1 0.102876
125 2 15.4214 11.1974 15.6765
126 2 19.5293 11.1815 15.8015
127 2 23.6722 11.4007 15.984
128 2 27.551 11.2247 16.0239
129 2 31.4498 11.5691 16.0573
130 2 35.6418 11.5184 15.8363
131 2 39.6566 11.4622 16.051
132 2 43.5691 11.6633 0.207398
133 2 47.5391 11.8678 0.226752
134 2 51.4964 11.8276 16.0448
135 2 55.6226 11.8295 0.178052
136 2 59.4329 11.924 15.6897
137 2 63.6268 12.0332 0.0852169
138 2 67.5297 11.9883 15.7864
139 2 71.5675 11.8791 15.8374
140 2 75.6709 11.8756 15.8581
141 2 79.5921 12.1184 15.6642
142 2 83.5839 12.0816 15.9968
143 2 87.6829 12.1503 0.136878
144 2 91.4458 12.1326 0.0223358
145 2 95.2673 11.9752 16.0596
146 2 99.2162 11.768 16.0592
147 2 103.172 11.8853 0.105526
148 2 107.149 11.857 16.2064
149 2 110.872 11.6123 0.236282
150 2 114.806 11.6809 16.0546
151 2 118.957 11.4542 0.144452
152 2 122.91 11.6192 0.250901
153 2 126.742 11.5121 15.9802
154 2 130.766 11.4786 15.9189
155 2 134.309 11.2934 0.127166
156 2 138.488 11.3575 0.120502
157 2 142.305 11.2882 0.202156
158 2 146.139 11.1544 0.298065
159 2 150.121 11.2507 0.395873
160 2 153.773 11.0617 0.119129
161 2 157.838 15.1447 15.9414
162 2 3.59586 15.1956 16.0748
163 2 7.53226 14.9978 16.0182
164 2 11.5806 15.0573 15.8088
165 2 15.4444 14.9804 15.769
166 2 19.6404 15.262 0.0779396
167 2 23.5737 15.2509 0.167984
168 2 27.4293 15.3545 15.9793
169 2 31.3686 15.4616 0.351445
170 2 35.5172 15.4715 16.0834
171 2 39.5993 15.5671 0.183366
172 2 43.7415 15.6584 0.148607
173 2 47.5778 15.7103 0.284942
174 2 51.5588 15.7344 0.373543
175 2 55.6198 15.5331 15.9305
176 2 59.4243 15.8108 0.247368
177 2 63.676 15.7303 15.7294
178 2 67.723 15.6627 15.7861
179 2 71.6788 15.8327 0.193361
180 2 75.5362 15.9953 0.00202511
181 2 79.5757 15.9835 15.8246
182 2 83.4981 16.1358 0.201571
183 2 87.8599 16.0656 15.8225
184 2 91.5469 15.9919 0.132195
185 2 95.4051 15.8707 15.873
186 2 99.4458 15.8804 16.0044
187 2 103.401 15.6716 16.041
188 2 107.264 15.8112 15.9967
189 2 110.939 15.7557 16.0923
190 2 114.902 15.8729 15.9761
191 2 118.843 15.5508 0.126558
192 2 122.689 15.466 15.7959
193 2 126.737 15.558 16.0828
194 2 130.508 15.491 0.232083
195 2 134.39 15.3732 0.243044
196 2 138.425 15.2487 0.147617
197 2 142.294 15.431 15.9775
198 2 146.145 15.2025 0.454146
199 2 150.135 15.0206 0.228434
200 2 154.08 15.2314 16.1008
201 2 157.765 19.0232 16.0736
202 2 3.60733 19.1142 0.354461
203 2 7.56595 19.0195 0.232936
204 2 11.4304 18.902 15.945
205 2 15.3171 19.0486 16.0095
206 2 19.5267 19.1226 15.9643
207 2 23.4025 19.331 15.9227
208 2 27.413 19.3152 15.7377
209 2 31.563 19.2243 15.9761
210 2 35.4194 19.4948 16.0679
211 2 39.4911 19.4216 0.0545156
212 2 43.5769 19.5805 15.888
213 2 47.5236 19.6159 15.9084
214 2 51.5008 19.7442 0.370686
215 2 55.4377 19.7343 15.7883
216 2 59.4302 19.668 16.0596
217 2 63.5629 19.7482 15.8842
218 2 67.6031 19.6994 15.7811
219 2 71.6144 19.7549 0.152847
220 2 75.4844 19.9662 0.184518
221 2 79.5381 19.786 0.0835796
222 2 83.6925 19.965 16.0088
223 2 87.6869 19.977 -0.0221089
224 2 91.5413 19.831 0.231445
225 2 95.5625 20.0202 15.9855
226 2 99.3441 19.763 15.9089
227 2 103.311 19.7846 15.8746
228 2 107.305 19.7116 16.024
229 2 111.003 19.8033 0.154251
230 2 115.049 19.5826 16.0454
231 2 119.032 19.799 15.9861
232 2 122.896 19.4939 15.8638
233 2 126.57 19.6235 15.8063
234 2 130.612 19.5994 15.8955
235 2 134.522 19.4028 0.238337
236 2 138.43 19.3028 16.0897
237 2 142.333 19.4828 16.0077
238 2 146.315 19.2481 0.110053
239 2 150.092 19.1744 15.9108
240 2 154.029 19.1571 0.295772
241 2 157.821 22.9392 15.8248
242 2 3.61631 23.1548 16.0637
243 2 7.75272 22.8548 0.170906
244 2 11.4638 22.9408 0.0602416
245 2 15.3409 22.9132 16.0314
246 2 19.18 23.0077 16.014
247 2 23.3262 22.9948 15.9357
248 2 27.4013 23.3942 16.1519
249 2 31.2304 23.2626 0.16298
250 2 35.3648 23.3937 15.968
251 2 39.4515 23.2927 -0.0783209
252 2 43.5335 23.4119 15.7205
253 2 47.4403 23.6891 -0.0336394
254 2 51.5512 23.5655 0.289231
255 2 55.5672 23.5824 0.235608
256 2 59.5963 23.5653 15.8526
257 2 63.6293 23.5794 0.199428
258 2 67.5108 23.6052 15.93
259 2 71.5418 23.7117 15.9746
260 2 75.524 23.6522 0.151423
261 2 79.5106 23.7099 16.1226
262 2 83.718 23.9212 0.10787
263 2 87.5614 23.7944 15.863
264 2 91.524 23.8266 15.8478
265 2 95.644 23.8425 15.7755
266 2 99.517 24.0745 0.0437036
267 2 103.515 23.9741 15.9246
268 2 107.263 23.8448 16.0903
269 2 111.239 23.6773 0.0816348
270 2 115.043 23.6656 16.0732
271 2 119.054 23.7281 15.9375
272 2 122.89 23.5549 0.163277
273 2 126.729 23.5815 15.9348
274 2 130.935 23.5484 15.9871
275 2 134.699 23.2374 15.874
276 2 138.535 23.264 15.9886
277 2 142.547 23.3909 16.0995
278 2 146.246 23.2873 0.0703595
279 2 150.301 23.2257 0.165968
280 2 154.144 23.0251 0.0647247
281 2 158.467 27.0889 0.0508848
282 2 3.71794 27.1659 0.23606
283 2 7.57786 27.0022 0.197676
284 2 11.6564 26.9815 15.9961
285 2 15.4632 26.9581 15.9388
286 2 19.3155 26.9108 0.22086
287 2 23.2283 26.9507 15.9662
288 2 27.2751 27.1005 15.9598
289 2 31.4421 27.1518 0.0442863
290 2 35.2999 27.3178 0.234255
291 2 39.4688 27.1782 -0.0259675
292 2 43.4143 27.3251 0.119645
293 2 47.53 27.3039 0.010595
294 2 51.6393 27.3321 15.9955
295 2 55.6045 27.3423 0.264468
296 2 59.5501 27.5248 15.8045
297 2 63.5058 27.503 15.9081
298 2 67.5916 27.603 15.8542
299 2 71.6251 27.6156 15.9895
300 2 75.4751 27.5829 0.05508
301 2 79.4875 27.6151 0.163698
302 2 83.4933 27.8717 15.9596
303 2 87.5926 27.9056 0.159251
304 2 91.4794 27.8252 0.311412
305 2 95.4596 27.9676 0.118272
306 2 99.553 27.9435 0.176704
307 2 103.477 28.0046 15.9004
308 2 107.399 27.7624 0.273734
309 2 111.113 27.8115 16.0186
310 2 115.046 27.6616 16.0229
311 2 118.98 27.4931 0.248496
312 2 122.805 27.514 0.331086
313 2 126.956 27.3476 15.9353
314 2 130.813 27.5066 15.7355
315 2 134.512 27.3676 15.8664
316 2 138.634 27.314 15.8312
317 2 142.458 27.1749 0.113041
318 2 146.487 27.2127 0.193833
319 2 150.29 27.0857 0.115087
320 2 154.33 27.2104 0.174358
321 2 158.216 30.9593 15.9298
322 2 3.8424 31.0526 15.8961
323 2 7.64787 31.0351 15.8598
324 2 11.4038 31.0316 0.1828
325 2 15.265 31.0342 0.178581
326 2 19.2553 30.9103 15.9318
327 2 23.2254 31.0102 16.1186
328 2 27.3428 30.943 0.0359867
329 2 31.2445 31.0985 15.8954
330 2 35.282 31.2191 15.9861
331 2 39.3697 31.1187 16.0479
332 2 43.1826 31.1924 0.135163
333 2 47.4967 31.1861 15.85
334 2 51.3646 31.2066 0.149811
335 2 55.4383 31.3498 15.8534
336 2 59.3847 31.3781 0.157102
337 2 63.3862 31.4671 15.787
338 2 67.4766 31.5213 0.0987188
339 2 71.3972 31.5425 0.0429715
340 2 75.6463 31.5477 0.180573
341 2 79.5546 31.5647 15.8939
342 2 83.7063 31.7557 0.1958
343 2 87.6065 31.7112 15.9237
344 2 91.5294 31.8887 15.8237
345 2 95.5652 31.7795 15.9276
346 2 99.3851 31.838 0.00933414
347 2 103.669 32.0147 15.8434
348 2 107.344 31.8334 15.9654
349 2 111.151 31.5536 15.9529
350 2 114.941 31.652 15.9053
351 2 118.875 31.6858 15.9112
352 2 122.86 31.6788 16.1079
353 2 126.853 31.58 15.9359
354 2 130.831 31.5031 16.2106
355 2 134.621 31.3814 15.8815
356 2 138.504 31.326 16.0425
357 2 142.431 31.3456 0.124684
358 2 146.473 31.1767 15.9052
359 2 150.353 31.2703 0.191246
360 2 154.406 31.2737 0.129126
361 2 -0.204965 35.3153 0.201894
362 2 3.78247 35.1804 16.1215
363 2 7.58159 35.1411 16.0339
364 2 11.4669 35.0503 15.9685
365 2 15.4621 35.1126 0.238042
366 2 19.5115 34.9234 0.264759
367 2 23.3254 34.8046 0.178827
368 2 27.0659 34.9012 0.0707524
369 2 31.2411 34.9188 0.124638
370 2 35.079 35.0675 0.233577
371 2 39.4437 34.9857 0.189804
372 2 43.3571 35.0925 15.9353
373 2 47.5076 34.9677 15.8171
374 2 51.4865 35.2173 15.7911
375 2 55.5236 35.2208 0.332228
376 2 59.3181 35.2961 0.256788
377 2 63.346 35.3001 15.896
378 2 67.613 35.4253 0.000842827
379 2 71.4354 35.5824 0.331833
380 2 75.4302 35.4967 15.7582
381 2 79.4867 35.4806 0.206163
382 2 83.5097 35.6369 15.8918
383 2 87.3559 35.9119 0.148204
384 2 91.5765 35.7005 0.136427
385 2 95.5783 35.7857 15.9422
386 2 99.3285 35.7684 0.38419
387 2 103.46 36.0925 15.9648
388 2 107.227 35.9475 15.9562
389 2 111.075 35.7665 16.0084
390 2 115.089 35.5447 15.9763
391 2 119.065 35.6483 15.9589
392 2 122.904 35.5419 15.7504
393 2 126.898 35.5962 15.7891
394 2 130.787 35.4926 16.0493
395 2 134.819 35.3911 15.9197
396 2 138.634 35.4208 0.25884
397 2 142.623 35.3566 0.309075
398 2 146.459 35.3175 0.0376719
399 2 150.43 35.1858 15.9676
400 2 154.321 35.0894 0.0501383
401 2 158.145 39.1479 0.109588
402 2 3.71178 39.1558 0.00834534
403 2 7.7194 39.0533 0.0820949
404 2 11.4969 39.12 15.8454
405 2 15.4816 39.0106 0.384458
406 2 19.3628 38.9666 16.1091
407 2 23.1921 38.8089 15.8789
408 2 27.1355 38.8304 16.0783
409 2 31.2016 38.7753 0.285995
410 2 35.1508 38.8965 0.358235
411 2 39.4301 39.0569 15.9892
412 2 43.3937 39.1563 0.049999
413 2 47.3605 39.2153 -0.000628085
414 2 51.3832 39.1111 15.95
415 2 55.3747 39.2459 0.168076
416 2 59.3693 39.2834 0.115778
417 2 63.4725 39.2639 0.0939234
418 2 67.501 39.2667 0.0484335
419 2 71.3353 39.4213 0.333509
420 2 75.3359 39.4493 -0.0301424
421 2 79.3401 39.4556 0.187131
422 2 83.3655 39.5438 15.9494
423 2 87.4799 39.6259 16.0685
424 2 91.4953 39.593 15.9813
425 2 95.4026 39.6167 15.999
426 2 99.3524 39.7103 0.175745
427 2 103.389 39.8288 16.1413
428 2 107.289 39.8318 16.0978
429 2 111.478 39.883 15.9171
430 2 115.197 39.6567 16.0419
431 2 118.955 39.6219 16.0222
432 2 122.996 39.6053 15.8654
433 2 126.801 39.5425 0.253713
434 2 130.848 39.5122 15.9606
435 2 134.715 39.4003 15.8908
436 2 138.73 39.4449 15.9793
437 2 142.606 39.3514 15.9738
438 2 146.605 39.3415 0.189058
439 2 150.429 39.2196 16.0517
440 2 154.376 39.2212 16.0505
441 2 158.32 43.3262 0.219175
442 2 3.95528 43.1397 15.9304
443 2 7.55543 43.1447 15.9197
444 2 11.5581 43.1276 0.0773729
445 2 15.6773 42.9783 0.177215
446 2 19.4071 42.9252 0.244486
447 2 23.416 42.9687 16.0195
448 2 27.3721 42.893 15.975
449 2 31.2984 42.612 0.228007
450 2 35.2484 42.9074 0.207661
451 2 39.3964 42.9591 0.230993
452 2 43.2193 42.8153 0.122368
453 2 47.3622 43.0409 15.7992
454 2 51.3181 43.0672 15.7824
455 2 55.3341 43.064 0.0930223
456 2 59.3789 43.1931 16.001
457 2 63.1782 43.2968 -0.0366481
458 2 67.2321 43.2289 0.257657
459 2 71.3543 43.1919 0.314024
460 2 75.2989 43.4152 0.135733
461 2 79.1544 43.4805 0.240797
462 2 83.3027 43.6814 15.7885
463 2 87.2485 43.4608 16.1719
464 2 91.4338 43.4478 0.246539
465 2 95.2366 43.5291 0.209639
466 2 99.3743 43.6702 16.025
467 2 103.328 43.6435 15.8362
468 2 107.501 43.818 15.6501
469 2 111.381 43.8578 15.8732
470 2 115.399 43.7976 16.0545
471 2 119.269 43.5142 15.8658
472 2 123.227 43.5858 15.9131
473 2 127.175 43.532 0.164113
474 2 130.802 43.4401 0.305552
475 2 134.586 43.4304 15.8792
476 2 138.584 43.4018 15.9802
477 2 142.648 43.3954 15.9205
478 2 146.457 43.4078 0.128413
479 2 150.382 43.2291 0.205784
480 2 154.383 43.1659 0.133379
481 2 -0.251602 47.239 0.130557
482 2 3.73782 47.4308 0.0949987
483 2 7.58406 47.2094 0.247314
484 2 11.6208 46.9457 0.402221
485 2 15.6014 46.9493 0.259855
486 2 19.3008 46.754 0.340052
487 2 23.583 46.9825 0.399864
488 2 27.4194 46.7171 15.8549
489 2 31.2662 46.721 0.193202
490 2 35.0774 46.6095 0.278212
491 2 39.2126 46.7138 15.9509
492 2 43.2675 47.11 15.908
493 2 47.2915 46.8469 0.220164
494 2 51.0385 46.9322 15.8237
495 2 55.1832 46.8426 15.8008
496 2 59.3229 47.1576 15.9835
497 2 63.2659 47.1393 0.207177
498 2 67.5023 47.1128 0.139339
499 2 71.3518 47.1938 16.0232
500 2 75.2289 47.2767 0.125127
501 2 79.09 47.1897 15.9558
502 2 83.2303 47.5027 15.7983
503 2 87.2553 47.3266 0.263727
504 2 91.2876 47.4632 0.0444905
505 2 95.1963 47.6075 0.0884355
506 2 99.1982 47.5668 0.389313
507 2 103.285 47.5838 0.14272
508 2 107.212 47.5303 15.8678
509 2 111.315 47.6542 15.9306
510 2 115.202 47.6534 0.199231
511 2 119.304 47.6866 16.0004
512 2 123.068 47.4133 15.8197
513 2 127.258 47.5744 15.9563
514 2 130.877 47.47 16.0989
515 2 134.7 47.3388 15.8756
516 2 138.702 47.2224 15.9829
517 2 142.573 47.3163 15.9109
518 2 146.393 47.2445 0.0199377
519 2 150.334 47.13 -0.126389
520 2 154.349 47.2742 15.869
521 2 158.094 51.1004 0.197572
522 2 3.80525 51.1951 16.1264
523 2 7.81164 51.2238 15.8478
524 2 11.6094 50.8997 15.9831
525 2 15.6851 51.1227 0.447656
526 2 19.5525 51.028 15.8155
527 2 23.4474 50.626 15.8278
528 2 27.399 50.8857 15.8993
529 2 31.2338 50.7634 0.167307
530 2 35.126 50.5574 0.183058
531 2 39.1103 50.7377 15.8032
532 2 43.0468 50.6586 15.9434
533 2 47.1779 50.6666 0.259473
534 2 51.2484 50.8101 0.225053
535 2 55.3792 50.9237 0.146614
536 2 59.341 51.0348 15.9569
537 2 63.4944 51.0343 15.967
538 2 67.292 51.0129 0.292631
539 2 71.1967 51.1142 0.285109
540 2 75.1015 51.1665 0.17083
541 2 79.1644 50.8961 0.240065
542 2 83.1814 51.0751 0.222042
543 2 87.2135 51.2725 -0.00671434
544 2 91.2025 51.262 0.129582
545 2 95.1939 51.337 0.145703
546 2 99.178 51.3238 0.139985
547 2 103.153 51.6433 15.8033
548 2 107.377 51.3378 0.215028
549 2 111.324 51.5351 0.0465458
550 2 115.28 51.5328 15.8285
551 2 119.231 51.5434 16.0858
552 2 123.143 51.6552 15.9797
553 2 127.054 51.4678 16.0422
554 2 130.954 51.4668 0.119659
555 2 134.998 51.4459 0.143007
556 2 138.753 51.5088 0.235072
557 2 142.641 51.3111 0.0786841
558 2 146.433 51.2219 15.8411
559 2 150.271 51.3631 0.409358
560 2 154.258 51.4085 0.184256
561 2 158.316 55.2774 0.334174
562 2 4.04856 55.1304 0.156833
563 2 7.71482 55.2349 0.361982
564 2 11.9677 55.0493 0.249511
565 2 15.8779 54.8689 -0.0232223
566 2 19.6127 54.9309 15.9662
567 2 23.5178 54.9839 15.9945
568 2 27.37 54.7195 15.7624
569 2 31.5771 54.6496 0.24179
570 2 35.2863 54.5947 0.425283
571 2 38.9834 54.7432 16.0909
572 2 43.0018 54.7469 16.0145
573 2 47.1031 54.6456 0.00250721
574 2 51.1512 54.4784 16.0056
575 2 55.1436 54.6801 15.9287
576 2 59.0992 54.777 16.0802
577 2 63.2063 54.9497 15.7464
578 2 67.3978 54.8078 0.236157
579 2 71.2775 55.0853 0.24458
580 2 75.2531 55.1097 16.1256
581 2 79.1005 55.095 0.171409
582 2 83.2754 55.2598 0.13328
583 2 87.3008 55.2367 0.262243
584 2 91.3146 55.2782 15.7553
585 2 95.3184 55.3853 0.172934
586 2 99.1594 55.4601 15.9783
587 2 103.275 55.4212 15.977
588 2 107.159 55.4175 0.056235
589 2 111.349 55.2524 15.9199
590 2 115.316 55.7274 15.9691
591 2 119.212 55.5597 15.9237
592 2 123.149 55.6886 0.274922
593 2 127.138 55.5856 15.9155
594 2 130.951 55.5407 16.0902
595 2 134.741 55.4762 0.169377
596 2 138.656 55.5356 15.7993
597 2 142.755 55.4547 0.155334
598 2 146.712 55.2457 0.00868238
599 2 150.421 55.2032 0.0745714
600 2 154.206 55.3656 16.0066
601 2 158.537 59.2623 0.217759
602 2 4.12898 59.3141 16.0952
603 2 8.10625 58.9135 15.9373
604 2 11.8913 59.1497 0.221703
605 2 15.7649 58.9483 15.9685
606 2 19.7659 58.877 0.130173
607 2 23.8315 58.5819 0.130093
608 2 27.5561 58.7838 0.21027
609 2 31.5503 58.749 15.9103
610 2 35.4341 58.6745 16.0122
611 2 39.2492 58.674 15.8993
612 2 43.254 58.649 15.8396
613 2 47.2318 58.6797 15.7545
614 2 51.2113 58.5002 15.5515
615 2 55.2271 58.6715 15.8973
616 2 59.0846 58.791 0.288338
617 2 63.1367 58.76 15.9759
618 2 67.009 58.7341 0.255268
619 2 71.1921 58.7929 15.9196
620 2 75.2238 58.9473 0.217522
621 2 79.3511 59.0785 0.323241
622 2 83.1963 59.0912 0.212574
623 2 87.2287 59.1513 15.8796
624 2 91.2171 59.1598 15.9506
625 2 95.0825 59.2311 -0.0806106
626 2 99.0763 59.3036 0.0846558
627 2 103.354 59.496 15.7719
628 2 107.257 59.3218 0.21543
629 2 111.273 59.4565 15.971
630 2 115.173 59.4657 16.0768
631 2 119.311 59.474 15.8092
632 2 123.098 59.7092 0.213398
633 2 127.05 59.4504 16.0162
634 2 131.104 59.5026 0.181993
635 2 135.115 59.5741 15.9573
636 2 138.847 59.6517 0.342357
637 2 142.639 59.3392 -0.0362093
638 2 146.85 59.3602 0.105258
639 2 150.7 59.245 16.0419
640 2 154.503 59.2307 0.417061
641 2 0.0392739 63.3967 -0.00050978
642 2 4.14296 63.1395 0.193816
643 2 8.11636 62.9605 15.7992
644 2 11.9586 62.866 16.0895
645 2 15.7699 63.0036 16.0434
646 2 19.7779 62.8535 0.153936
647 2 23.7627 62.8135 0.357498
648 2 27.6334 62.5363 0.186127
649 2 31.7145 62.6732 0.245905
650 2 35.4957 62.8553 0.240004
651 2 39.2659 62.6738 15.9018
652 2 43.2033 62.5199 -0.0315406
653 2 47.149 62.4648 16.0376
654 2 51.1211 62.39 15.8836
655 2 55.2069 62.4817 -0.0107359
656 2 59.1115 62.6288 15.9277
657 2 63.0319 62.7642 0.328715
658 2 67.1446 62.7411 15.9086
659 2 71.2736 62.7011 0.209184
660 2 75.1128 62.7412 -0.0270846
661 2 79.1045 63.0559 0.342233
662 2 83.0485 62.887 0.222471
663 2 87.2261 63.0598 15.8191
664 2 91.0544 63.1766 15.8589
665 2 95.1031 63.1984 0.0631635
666 2 99.0402 63.2071 0.210854
667 2 103.212 63.144 15.8197
668 2 107.212 63.3181 15.8933
669 2 111.408 63.3733 15.7764
670 2 115.242 63.525 0.179116
671 2 119.168 63.6006 16.0587
672 2 123.157 63.4516 0.355621
673 2 127.181 63.3414 16.0273
674 2 131.043 63.4184 0.32754
675 2 134.988 63.5951 16.0971
676 2 138.779 63.3663 15.998
677 2 142.783 63.4103 16.0685
678 2 146.58 63.2856 0.303728
679 2 150.633 63.4193 16.1317
680 2 154.56 63.3475 0.214192
681 2 0.286679 67.1195 0.0943443
682 2 4.26906 67.1677 0.0767108
683 2 8.01298 67.1431 15.8933
684 2 12.0998 66.903 15.845
685 2 16.0835 66.9624 0.115308
686 2 19.9482 66.8035 0.136174
687 2 23.8221 66.7325 0.25663
688 2 27.5905 66.7113 0.237587
689 2 31.3674 66.8991 0.317727
690 2 35.5373 66.8359 0.124806
691 2 39.513 66.676 15.8512
692 2 43.3162 66.5085 0.0206952
693 2 47.2807 66.4965 15.7547
694 2 51.1234 66.3633 15.8938
695 2 55.1072 66.4295 15.7199
696 2 58.9933 66.5286 15.8709
697 2 62.9761 66.5098 15.846
698 2 67.1007 66.6924 15.8704
699 2 71.0442 66.7446 -0.00939144
700 2 75.1184 66.8777 15.7855
701 2 79.0085 67.0935 15.7389
702 2 82.8836 66.9181 0.287576
703 2 87.1186 66.8218 16.0429
704 2 91.1237 66.9991 15.9132
705 2 95.1786 67.0679 0.112995
706 2 99.1262 67.1975 0.177691
707 2 103.081 67.2722 0.270405
708 2 107.064 67.0656 15.8387
709 2 111.003 67.1186 15.962
710 2 115.113 67.3158 15.9622
711 2 119.163 67.5234 0.336655
712 2 122.903 67.2955 -0.0266828
713 2 127.021 67.2273 0.261254
714 2 130.928 67.2008 15.8569
715 2 135.122 67.6717 0.225782
716 2 139.057 67.5871 0.22011
717 2 142.783 67.4391 16.2404
718 2 146.746 67.3393 15.9478
719 2 150.554 67.3659 16.0096
720 2 154.512 67.2186 0.0892957
721 2 0.208479 71.2552 0.287132
722 2 4.29833 71.0332 15.8875
723 2 8.19145 71.0687 0.242132
724 2 11.9745 70.8656 16.0359
725 2 15.8391 70.9547 0.204489
726 2 19.9708 70.8657 0.267063
727 2 23.7799 70.9296 0.0210716
728 2 27.5887 70.7424 15.9084
729 2 31.5193 70.7496 0.191653
730 2 35.5369 70.5731 0.06893
731 2 39.4489 70.4379 15.8358
732 2 43.524 70.6045 0.00952804
733 2 47.4039 70.5687 15.8733
734 2 51.2473 70.4034 15.9511
735 2 55.0228 70.3385 0.0828488
736 2 58.9362 70.2621 0.170999
737 2 63.0664 70.5019 0.204944
738 2 67.037 70.5799 16.047
739 2 70.7969 70.6262 15.8588
740 2 75.0882 70.606 15.9422
741 2 79.0553 70.7636 0.263817
742 2 83.1349 70.8575 0.0970323
743 2 87.1817 70.7367 15.9754
744 2 91.0404 70.6513 16.0451
745 2 95.0656 71.085 15.7766
746 2 98.9935 71.3041 15.7387
747 2 103.326 71.0986 15.8212
748 2 107.037 71.1168 15.8498
749 2 110.916 71.2422 15.8412
750 2 114.946 71.2518 0.0682904
751 2 119.022 71.5719 15.9618
752 2 122.893 71.1903 0.126763
753 2 127.035 71.3762 15.8785
754 2 131.105 71.2178 15.8632
755 2 134.877 71.2103 16.1283
756 2 138.872 71.4941 15.9648
757 2 142.82 71.3141 0.286203
758 2 146.736 71.3734 0.298692
759 2 150.616 71.465 0.255073
760 2 154.572 71.1893 15.9882
761 2 0.355377 75.1726 0.256298
762 2 4.23344 75.1204 15.8705
763 2 8.06519 75.0924 15.8994
764 2 12.3138 74.9514 15.9304
765 2 16.073 74.9182 16.0926
766 2 19.9288 74.8817 15.9098
767 2 23.8085 74.7521 15.8911
768 2 27.5539 74.7154 15.9487
769 2 31.557 74.7797 0.0276947
770 2 35.5375 74.5306 15.9346
771 2 39.452 74.7254 15.7372
772 2 43.279 74.5364 0.183736
773 2 47.3084 74.5505 15.9526
774 2 51.1718 74.5258 0.242502
775 2 55.105 74.374 15.9884
776 2 59.0551 74.537 16.1345
777 2 62.666 74.4416 16.0154
778 2 66.7446 74.4722 0.304854
779 2 70.7686 74.3506 0.213069
780 2 74.9563 74.702 0.289235
781 2 79.0387 74.6101 0.223852
782 2 83.2468 74.8764 0.284476
783 2 87.0234 74.6355 0.202923
784 2 90.9175 75.0503 15.9445
785 2 95.0767 74.8625 15.9417
786 2 98.7819 75.1184 0.0797682
787 2 103.125 74.9518 15.844
788 2 107.035 75.0893 15.8197
789 2 111.03 75.1056 15.7666
790 2 114.904 75.3171 15.7979
791 2 119.045 75.212 0.166951
792 2 123.075 75.2731 15.8681
793 2 127.054 75.244 15.8783
794 2 131.143 75.2972 -0.0289773
795 2 135.047 75.2467 16.0693
796 2 138.865 75.4317 15.9836
797 2 143.12 75.224 15.9664
798 2 146.941 75.472 15.8009
799 2 150.872 75.5192 -0.0626842
800 2 154.732 75.4294 0.010165
801 2 0.476559 79.1189 0.203421
802 2 4.40927 79.3888 15.9205
803 2 8.2448 79.0535 0.298886
804 2 12.2641 79.0288 0.140258
805 2 15.942 78.9883 15.7638
806 2 19.8903 78.8043 16.0431
807 2 23.8332 78.6793 0.238277
808 2 27.797 78.9251 0.0598105
809 2 31.5566 78.6681 0.166638
810 2 35.5624 78.7396 0.00848403
811 2 39.5271 78.7499 15.9238
812 2 43.2706 78.6523 15.9064
813 2 47.314 78.5199 15.7347
814 2 51.2181 78.3669 0.214349
815 2 55.234 78.5416 0.435965
816 2 59.068 78.6321 15.9316
817 2 62.9862 78.3215 16.0454
818 2 66.9515 78.4008 0.436581
819 2 71.093 78.6393 16.1031
820 2 74.7538 78.4342 0.147122
821 2 78.9599 78.5411 15.8358
822 2 83.0167 78.8236 16.0462
823 2 86.9186 78.6624 0.353038
824 2 91.1244 78.7099 0.145967
825 2 94.8485 78.9677 0.189388
826 2 99.036 79.0555 15.8129
827 2 102.965 79.0189 15.7869
828 2 106.852 78.8046 0.116417
829 2 110.966 78.9679 0.101391
830 2 114.932 79.1996 0.149661
831 2 119.009 79.2671 0.0832199
832 2 122.758 79.063 15.8847
833 2 126.926 79.242 0.209561
834 2 131.09 79.2991 15.8448
835 2 134.907 79.3464 0.314351
836 2 138.7 79.1029 16.064
837 2 142.942 79.2293 15.8296
838 2 146.868 79.3208 15.8726
839 2 150.877 79.369 15.9453
840 2 154.691 79.4549 0.271194
841 2 0.384408 83.2038 15.9848
842 2 4.27131 83.2686 16.1339
843 2 8.15154 83.1574 0.197145
844 2 12.0498 83.0868 16.0965
845 2 16.0482 82.7458 16.0763
846 2 20.0416 82.995 0.216394
847 2 23.8301 82.9761 15.9087
848 2 27.8486 82.75 -0.04713
849 2 31.7724 82.8056 15.9377
850 2 35.4981 82.6522 0.305335
851 2 39.2779 82.6882 0.227397
852 2 43.314 82.5998 15.7194
853 2 47.277 82.5254 0.0852694
854 2 51.2798 82.3301 0.150235
855 2 55.2988 82.5665 0.143164
856 2 59.0155 82.2997 15.9321
857 2 63.0917 82.6105 16.1104
858 2 67.048 82.4554 16.0386
859 2 70.9538 82.4077 16.018
860 2 75.0048 82.5309 16.0223
861 2 78.812 82.5333 15.9569
862 2 82.9595 82.7055 0.237826
863 2 87.0655 82.5892 0.117513
864 2 90.8702 82.8053 15.7141
865 2 94.8337 82.9199 0.270115
866 2 99.0169 82.7835 16.0629
867 2 102.717 82.8298 -0.0224272
868 2 107.049 82.9756 15.8418
869 2 110.707 83.0255 15.9442
870 2 114.99 82.9737 15.7773
871 2 118.702 83.2629 15.894
872 2 122.898 82.9793 16.0519
873 2 126.832 83.0045 15.7842
874 2 131.098 83.2837 15.7821
875 2 134.998 83.0755 0.205072
876 2 139.005 83.016 15.7825
877 2 142.934 83.3907 0.145881
878 2 146.976 83.2823 15.7588
879 2 150.894 83.3462 0.242504
880 2 154.824 83.1636 0.0629353
881 2 0.422367 87.0751 15.9767
882 2 4.22972 87.1417 0.185118
883 2 8.33471 87.0242 16.022
884 2 12.1742 87.0231 15.8717
885 2 16.0418 87.1195 15.993
886 2 19.8526 86.8724 15.9734
887 2 23.9169 86.9112 15.8427
888 2 27.8272 86.7841 0.320458
889 2 31.6819 86.7028 15.6819
890 2 35.7167 86.7295 0.0967436
891 2 39.6648 86.624 15.6954
892 2 43.4245 86.5792 16.0054
893 2 47.3214 86.5328 16.0784
894 2 51.2416 86.4687 16.0106
895 2 55.1207 86.4003 15.9441
896 2 59.2942 86.4694 0.141322
897 2 63.1836 86.3637 0.28044
898 2 67.1409 86.3886 15.9595
899 2 70.8847 86.4359 0.320729
900 2 75.0726 86.4547 16.0307
901 2 78.8952 86.2129 0.322723
902 2 82.8329 86.4143 0.173436
903 2 86.7275 86.6878 16.0319
904 2 90.8466 86.706 16.1601
905 2 94.8899 86.6602 16.1638
906 2 98.8244 86.8264 16.1613
907 2 102.777 86.6154 0.0148874
908 2 106.909 86.6775 0.0724839
909 2 110.734 87.0049 15.8292
910 2 114.703 86.8718 0.209658
911 2 119.005 86.926 0.145644
912 2 122.83 86.8303 0.240382
913 2 126.837 87.0115 16.0906
914 2 130.817 87.08 15.9973
915 2 134.918 86.9274 16.0831
916 2 138.998 87.141 15.9633
917 2 142.627 87.2724 15.7537
918 2 146.73 87.4457 0.317271
919 2 150.863 87.0747 15.9482
920 2 154.907 87.2965 15.9918
921 2 0.363995 91.1607 0.406804
922 2 4.2868 90.9787 0.210858
923 2 8.34616 91.0509 15.8099
924 2 12.2499 90.9873 15.9279
925 2 16.2698 91.0533 0.235494
926 2 20.0117 90.8643 0.284356
927 2 23.9289 90.7115 15.9815
928 2 27.9051 90.7362 15.9566
929 2 31.7765 90.887 15.9645
930 2 35.6121 90.6683 0.284723
931 2 39.5306 90.6631 15.8004
932 2 43.5298 90.5156 15.9452
933 2 47.5764 90.6081 0.116604
934 2 51.4029 90.3948 0.19192
935 2 55.4749 90.4173 0.159625
936 2 59.1043 90.4568 0.205608
937 2 62.9349 90.4666 0.208352
938 2 67.01 90.2253 15.9131
939 2 71.003 90.4034 16.0568
940 2 74.8027 90.2817 0.283444
941 2 78.9255 90.2334 0.245408
942 2 82.9435 90.5238 0.204877
943 2 86.8038 90.4882 0.204659
944 2 90.7514 90.4976 0.280749
945 2 94.7814 90.667 16.1684
946 2 98.9846 90.6623 15.7924
947 2 102.676 90.5865 -0.0405957
948 2 106.733 90.5092 15.9799
949 2 110.787 90.7298 16.0112
950 2 114.931 90.9126 0.236282
951 2 118.967 90.8934 0.159587
952 2 122.77 90.8306 15.888
953 2 126.87 90.9976 0.10778
954 2 130.82 90.83 0.0894787
955 2 134.91 90.9131 16.0044
956 2 138.702 90.9002 16.1331
957 2 142.71 91.05 15.9041
958 2 146.816 91.2986 15.9341
959 2 150.864 91.1418 15.9324
960 2 154.759 91.096 15.7658
961 2 0.396355 95.0595 0.172291
962 2 4.50402 94.9311 15.7711
963 2 8.34872 95.3677 15.6692
964 2 12.2829 94.9781 15.9448
965 2 16.0652 95.0478 16.1071
966 2 20.0277 94.7733 15.8651
967 2 23.9475 94.7813 15.9786
968 2 27.9423 94.7913 15.9615
969 2 31.771 94.9249 16.0948
970 2 35.8921 94.7746 16.0456
971 2 39.6923 94.5583 15.9585
972 2 43.5284 94.5608 16.08
973 2 47.3983 94.6868 0.187558
974 2 51.5225 94.626 15.7872
975 2 55.4263 94.5784 0.0334556
976 2 59.3529 94.4002 15.8861
977 2 63.2358 94.6236 0.0306922
978 2 66.9688 94.3914 0.153564
979 2 71.04 94.3959 0.297064
980 2 74.9271 94.3988 0.277866
981 2 78.8917 94.2907 15.7914
982 2 82.7181 94.486 0.277728