ITEM: TIMESTEP
24700
ITEM: NUMBER OF ATOMS
32000
ITEM: BOX BOUNDS xy xz yz pp pp pp
0.0000000000000000e+00 1.5831999999999999e+02 0.0000000000000000e+00
0.0000000000000000e+00 1.5831999999999999e+02 0.0000000000000000e+00
1.6386102601039365e-01 1.5933850973989408e+01 0.0000000000000000e+00
ITEM: ATOMS id type x y z
1 2 158.204 157.66 16.0888
2 2 3.70396 157.869 15.8537
3 2 7.90165 157.596 0.395934
4 2 11.7051 157.71 0.0620394
5 2 15.7451 157.784 0.314717
6 2 19.9078 157.879 15.902
7 2 23.7206 157.922 15.8585
8 2 27.5731 157.96 15.5784
9 2 31.7315 158.035 -0.0280278
10 2 35.6861 158.202 15.7437
11 2 39.7619 -0.315626 15.8738
12 2 43.6986 0.0739313 0.180236
13 2 47.6437 -0.0429506 16.1733
14 2 51.7744 0.183179 0.167136
15 2 55.919 158.24 0.148774
16 2 59.6389 158.418 16.0055
17 2 63.7621 0.268044 15.9395
18 2 67.8459 0.213705 15.8516
19 2 71.8434 0.360611 16.1024
20 2 75.68 158.499 15.9909
21 2 79.7458 0.439137 15.8569
22 2 83.4865 158.344 16.1638
23 2 87.4493 158.448 15.9832
24 2 91.2738 158.359 0.392853
25 2 95.0873 158.327 16.0315
26 2 99.1399 158.342 15.8832
27 2 103.047 157.965 15.8558
28 2 107.097 157.955 16.0267
29 2 110.814 158.139 0.149159
30 2 114.782 157.903 0.156152
31 2 118.757 157.998 15.7299
32 2 122.708 157.816 0.414524
33 2 126.484 157.739 0.264582
34 2 130.358 157.599 0.133222
35 2 134.316 157.751 16.0413
36 2 138.176 157.821 15.7585
37 2 142.004 157.63 15.8779
38 2 145.957 157.511 15.8692
39 2 149.937 157.565 0.32473
40 2 154.093 157.507 0.261274
41 2 158.004 3.19719 15.69
42 2 3.84213 3.46308 16.1114
43 2 7.79894 3.1963 0.186948
44 2 11.7726 3.27532 15.955
45 2 15.5422 3.42353 16.1019
46 2 19.7838 3.44614 16.0775
47 2 23.7083 3.62449 0.021182
48 2 27.5029 3.55474 0.118598
49 2 31.5373 3.58414 0.211618
50 2 35.7465 3.69736 0.118817
51 2 39.6779 3.63255 0.136874
52 2 43.9169 3.71602 15.7542
53 2 47.9583 3.70364 15.7902
54 2 51.7489 3.95595 16.0035
55 2 55.6947 4.02849 0.118398
56 2 59.7524 4.09611 15.9324
57 2 63.579 3.97772 15.9872
58 2 67.7997 4.00061 15.9477
59 2 71.7359 4.37985 16.0947
60 2 75.7167 4.13967 15.8001
61 2 79.6857 4.08858 16.0236
62 2 83.5459 4.14908 16.0059
63 2 87.4027 4.06101 15.905
64 2 91.3252 4.05139 -0.03608
65 2 95.1654 3.89392 15.9371
66 2 99.2782 3.99144 0.25291
67 2 103.033 3.71675 15.9566
68 2 107.041 3.55771 15.9439
69 2 110.943 3.70979 0.0589176
70 2 114.839 3.5519 0.163726
71 2 118.671 3.75938 0.306161
72 2 122.708 3.43842 0.166578
73 2 126.709 3.34103 0.0191654
74 2 130.511 3.20179 0.331037
75 2 134.243 3.37829 15.873
76 2 138.289 3.28649 0.165631
77 2 142.343 3.43849 0.285364
78 2 146.109 3.18128 -0.0593349
79 2 150.033 3.17971 16.057
80 2 154.12 3.24406 15.9287
81 2 158.097 7.06828 16.0854
82 2 3.81736 7.17863 16.0968
83 2 7.71884 7.37184 15.8892
84 2 11.6891 7.30811 0.229117
85 2 15.6782 7.5278 15.9889
86 2 19.7663 7.41015 16.1581
87 2 23.6163 7.48987 0.103692
88 2 27.5626 7.53774 15.9922
89 2 31.6172 7.50367 16.0255
90 2 35.5187 7.57296 15.6554
91 2 39.5784 7.73552 -0.0346783
92 2 43.5401 7.68677 -0.00560623
93 2 47.6884 7.77301 15.8747
94 2 51.8274 7.7193 0.0570417
95 2 55.7074 7.92227 15.894
96 2 59.706 8.2069 0.095962
97 2 63.7433 8.131 15.9539
98 2 67.8095 7.8777 15.9613
99 2 71.7214 8.18504 15.9704
100 2 75.694 8.02602 16.1156
101 2 79.6038 8.07195 0.0769051
102 2 83.5989 8.00921 16.2271
103 2 87.5299 7.97574 16.0421
104 2 91.4594 7.88008 15.8736
105 2 95.6331 8.06076 15.9204
106 2 99.1966 7.79059 0.0909111
107 2 103.075 7.78924 -0.0466502
108 2 106.883 7.71142 16.0181
109 2 111.018 7.7997 0.180095
110 2 114.794 7.69798 15.8607
111 2 118.669 7.58668 15.9883
112 2 122.624 7.33527 15.9524
113 2 126.44 7.5957 15.8956
114 2 130.528 7.45913 0.0976662
115 2 134.273 7.37602 0.0516479
116 2 138.443 7.37929 15.7088
117 2 142.268 7.20775 15.7481
118 2 146.006 7.13734 0.0507084
119 2 149.973 7.11776 0.172402
120 2 154.089 7.18675 15.7604
121 2 157.777 11.1862 15.6944
122 2 3.6469 11.1102 16.1276
123 2 7.50959 11.1355 15.9924
124 2 11.6494 11.3017 0.112996
125 2 15.6254 11.3271 16.135
126 2 19.6872 11.3528 16.2002
127 2 23.697 11.2305 16.0657
128 2 27.6041 11.4786 15.9574
129 2 31.6956 11.3646 15.9196
130 2 35.5705 11.3298 15.9366
131 2 39.5921 11.4871 15.8523
132 2 43.6788 11.5786 0.0612254
133 2 47.6864 11.6066 0.156812
134 2 51.8398 11.699 15.9588
135 2 55.7368 11.7801 0.0397482
136 2 59.7961 11.9493 15.8775
137 2 63.7015 11.9293 0.229307
138 2 67.6375 12.0296 15.9514
139 2 71.8189 12.137 15.9969
140 2 75.7037 11.8147 15.9039
141 2 79.7038 12.177 16.1596
142 2 83.5529 12.1939 16.1292
143 2 87.6653 11.9835 0.198244
144 2 91.4364 11.9486 0.379466
145 2 95.2725 11.8848 15.8677
146 2 99.4208 12.1233 16.1803
147 2 103.232 11.7908 0.132443
148 2 107.115 11.8882 15.7696
149 2 110.958 11.8848 0.181849
150 2 114.9 11.6334 15.8988
151 2 118.768 11.6297 0.300174
152 2 122.806 11.4396 0.18722
153 2 126.792 11.4582 16.1033
154 2 130.563 11.2983 15.8613
155 2 134.639 11.4364 0.0911107
156 2 138.313 11.3538 0.247454
157 2 142.388 11.273 0.242305
158 2 146.086 11.2088 0.19433
159 2 150.159 11.0807 0.12374
160 2 154.012 11.2107 0.11706
161 2 157.914 15.0959 16.1134
162 2 3.84135 15.2136 16.0132
163 2 7.6892 15.0413 16.097
164 2 11.4801 15.0463 16.2254
165 2 15.6359 15.1483 16.1447
166 2 19.8457 15.2281 0.380724
167 2 23.709 15.401 0.19321
168 2 27.6091 15.0572 15.93
169 2 31.5655 15.191 0.202159
170 2 35.7552 15.4207 16.0683
171 2 39.8042 15.4198 0.249223
172 2 43.5681 15.5073 0.122926
173 2 47.6516 15.6796 0.0519076
174 2 51.6585 15.5914 0.213191
175 2 55.7339 15.7519 15.8454
176 2 59.6788 15.7045 0.104784
177 2 63.5925 15.804 16.0437
178 2 67.6724 16.0075 15.9286
179 2 71.7091 15.8296 0.0710738
180 2 75.6845 16.1859 0.315023
181 2 79.726 16.0928 15.8102
182 2 83.4495 16.0065 0.256593
183 2 87.6512 15.9567 15.9927
184 2 91.6542 16.1117 0.335349
185 2 95.3191 16.0561 16.0732
186 2 99.3364 15.8364 15.9223
187 2 103.246 15.9342 15.8316
188 2 107.321 15.7222 15.8944
189 2 111.055 15.8982 15.9145
190 2 114.933 15.6869 15.999
191 2 118.97 15.5892 0.145942
192 2 122.957 15.4791 16.0061
193 2 126.625 15.4782 16.0503
194 2 130.646 15.309 0.258468
195 2 134.735 15.2988 0.165436
196 2 138.53 15.355 0.157077
197 2 142.466 15.1637 16.0001
198 2 146.271 15.1982 0.305462
199 2 150.21 15.2213 0.371443
200 2 154.005 15.1808 16.1444
201 2 158.135 19.1615 15.892
202 2 3.84138 19.2301 0.254308
203 2 7.66291 19.122 0.318521
204 2 11.6601 19.0043 16.1441
205 2 15.4651 19.1488 16.1139
206 2 19.6529 19.1286 16.1101
207 2 23.6029 19.2688 15.8834
208 2 27.5398 19.2114 15.8374
209 2 31.4831 19.2446 15.9333
210 2 35.5446 19.3865 16.1327
211 2 39.6719 19.4512 0.344975
212 2 43.6946 19.4418 15.789
213 2 47.6838 19.5547 15.9793
214 2 51.6835 19.508 0.206499
215 2 55.5282 19.538 16.0215
216 2 59.7887 19.5435 16.0093
217 2 63.6173 19.7271 16.1299
218 2 67.6971 19.8066 15.893
219 2 71.6807 19.9073 0.331438
220 2 75.5118 19.8987 0.0744034
221 2 79.4756 20.0572 0.301132
222 2 83.53 19.9101 15.9629
223 2 87.6514 20.0414 0.244114
224 2 91.4393 20.0441 0.480284
225 2 95.5018 19.9155 15.9102
226 2 99.3715 19.8413 16.0367
227 2 103.226 19.8428 16.0717
228 2 107.083 19.815 15.7816
229 2 111.107 19.7695 0.0750785
230 2 114.966 19.9106 15.7505
231 2 119.02 19.746 15.9244
232 2 122.891 19.5663 15.9372
233 2 126.671 19.339 16.0852
234 2 130.668 19.2519 15.9489
235 2 134.485 19.3869 0.329651
236 2 138.381 19.3779 16.0685
237 2 142.378 19.1842 16.0717
238 2 146.34 19.3557 0.379497
239 2 150.211 19.0888 15.9296
240 2 154.13 19.1817 0.234282
241 2 158.194 23.0801 16.0096
242 2 3.68918 22.9716 15.915
243 2 7.58076 23.065 0.164174
244 2 11.64 22.9742 0.0535984
245 2 15.5927 23.0865 16.1495
246 2 19.4554 22.9232 16.0598
247 2 23.3533 23.1019 16.1486
248 2 27.4433 23.0847 15.9313
249 2 31.4268 23.1878 0.295082
250 2 35.4217 23.2522 16.1648
251 2 39.4595 23.2966 0.0984626
252 2 43.6459 23.365 15.7196
253 2 47.6258 23.3231 -0.0324673
254 2 51.5966 23.6492 0.0534066
255 2 55.5762 23.4977 0.0745122
256 2 59.5138 23.503 15.7984
257 2 63.5727 23.661 0.370825
258 2 67.6041 23.8949 16.099
259 2 71.5553 23.7138 16.0573
260 2 75.4781 23.8663 0.266035
261 2 79.4508 23.8888 15.8255
262 2 83.5937 23.9312 0.278273
263 2 87.7505 24.007 15.7779
264 2 91.5188 24.0598 16.0731
265 2 95.67 24.0482 16.0177
266 2 99.5893 23.9682 0.299557
267 2 103.42 23.9235 15.8924
268 2 107.308 23.8554 15.7978
269 2 111.115 23.8975 0.18478
270 2 115.093 23.7775 15.7312
271 2 119.041 23.4485 15.843
272 2 122.973 23.6216 0.356515
273 2 126.871 23.4948 15.9048
274 2 130.655 23.2803 15.9581
275 2 134.791 23.3667 16.0091
276 2 138.451 23.4585 15.9249
277 2 142.577 23.2481 16.1568
278 2 146.607 23.3514 0.366318
279 2 150.241 23.1176 0.101755
280 2 154.242 23.1308 0.243031
281 2 158.158 27.298 -0.139069
282 2 3.76624 27.0906 0.106333
283 2 7.81639 27.0734 0.101829
284 2 11.521 27.0473 15.8467
285 2 15.7496 26.9526 15.9857
286 2 19.5545 26.8847 0.171916
287 2 23.4629 26.815 15.8335
288 2 27.5542 26.8591 15.9747
289 2 31.1893 27.1158 0.28692
290 2 35.3864 27.2195 0.193569
291 2 39.5541 27.1716 0.327707
292 2 43.4514 27.259 0.0596651
293 2 47.4082 27.429 0.0461187
294 2 51.5322 27.3025 15.8912
295 2 55.649 27.379 0.186063
296 2 59.6299 27.389 15.8131
297 2 63.5202 27.5945 15.8978
298 2 67.5473 27.6561 15.9124
299 2 71.3142 27.7716 15.9817
300 2 75.5075 27.8676 0.299875
301 2 79.5585 27.6082 0.0788313
302 2 83.6757 27.8781 15.948
303 2 87.5819 27.9777 0.134918
304 2 91.6145 28.1154 0.125262
305 2 95.5342 27.9266 0.234607
306 2 99.5221 28.07 0.117591
307 2 103.644 27.8501 16.0174
308 2 107.427 27.9302 0.270417
309 2 111.202 27.7306 15.9404
310 2 115.232 27.6547 15.8219
311 2 119.061 27.6632 0.201089
312 2 123.123 27.5506 0.162826
313 2 126.871 27.5015 15.8619
314 2 130.784 27.386 16.0019
315 2 134.658 27.2547 16.0692
316 2 138.478 27.5086 16.0143
317 2 142.442 27.4345 0.328296
318 2 146.35 27.183 0.265816
319 2 150.316 27.213 0.192446
320 2 154.467 27.088 0.287754
321 2 158.185 30.9746 15.9822
322 2 3.99486 30.8877 16.1206
323 2 7.82016 30.941 15.9529
324 2 11.5696 31.0415 -0.0388442
325 2 15.4328 30.9084 0.0918341
326 2 19.4575 30.9235 15.8647
327 2 23.5728 30.6302 16.0157
328 2 27.3035 30.8425 0.20145
329 2 31.1186 30.9836 16.1554
330 2 35.2568 31.0949 16.0913
331 2 39.4221 30.8989 15.9429
332 2 43.3877 31.0424 0.345369
333 2 47.4932 30.9465 15.8364
334 2 51.7218 31.3078 0.201994
335 2 55.5337 31.3524 15.9419
336 2 59.4044 31.3116 0.231127
337 2 63.4442 31.5061 15.8585
338 2 67.5568 31.5076 0.034017
339 2 71.5309 31.6789 0.120443
340 2 75.3935 31.6431 -0.0111522
341 2 79.5492 31.7481 15.8636
342 2 83.5024 31.8123 0.114017
343 2 87.4611 31.8184 16.0791
344 2 91.488 31.7111 15.8858
345 2 95.5447 31.7094 15.9067
346 2 99.6364 31.9037 0.089293
347 2 103.333 31.9119 15.7408
348 2 107.56 31.9908 15.9049
349 2 111.38 31.719 15.9196
350 2 115.4 31.663 15.8895
351 2 119.285 31.5553 16.0643
352 2 122.824 31.8208 15.8676
353 2 126.974 31.7209 15.9112
354 2 130.797 31.5301 15.9704
355 2 134.751 31.3224 16.0068
356 2 138.7 31.476 16.0497
357 2 142.618 31.2554 0.148093
358 2 146.399 31.2822 16.2037
359 2 150.328 31.2296 0.405036
360 2 154.37 31.1152 0.173802
361 2 -0.118961 34.8571 0.229138
362 2 3.64867 35.1174 16.0756
363 2 7.63639 35.1767 16.1398
364 2 11.5473 35.0856 15.8643
365 2 15.5902 34.8387 0.184344
366 2 19.3268 34.9784 0.198733
367 2 23.3043 34.8443 0.32283
368 2 27.2716 34.7339 0.171303
369 2 31.1156 34.8376 0.0603291
370 2 35.3896 34.8813 0.0832314
371 2 39.2164 34.9764 0.227452
372 2 43.2689 34.9565 15.9966
373 2 47.3697 35.3519 15.8249
374 2 51.3849 35.0529 15.9465
375 2 55.4838 35.3491 0.160777
376 2 59.4088 35.1494 0.165485
377 2 63.392 35.3619 15.9017
378 2 67.4334 35.5027 0.183836
379 2 71.514 35.5453 0.213592
380 2 75.5054 35.6059 15.9412
381 2 79.5038 35.6134 0.101619
382 2 83.4206 35.8749 15.8828
383 2 87.582 35.7075 0.0785203
384 2 91.5576 35.8558 0.0766878
385 2 95.6367 35.6363 16.0545
386 2 99.4071 35.9981 0.149521
387 2 103.577 35.7276 15.957
388 2 107.469 35.8669 16.037
389 2 111.151 35.6995 15.7302
390 2 115 35.8878 15.9474
391 2 119.249 35.7677 15.9469
392 2 123.02 35.6947 15.8426
393 2 127.117 35.6266 15.9754
394 2 130.922 35.5245 15.7439
395 2 134.745 35.5703 15.7239
396 2 138.702 35.4144 0.253745
397 2 142.583 35.2097 0.0375457
398 2 146.551 35.305 0.255982
399 2 150.56 35.0514 16.0323
400 2 154.258 35.1555 0.20902
401 2 158.334 38.9454 0.155001
402 2 3.85014 38.9168 0.129753
403 2 7.62652 38.9732 0.0618905
404 2 11.6227 38.8868 15.8971
405 2 15.5908 39.2643 0.216187
406 2 19.3941 38.8795 15.8466
407 2 23.4001 38.9577 16.0937
408 2 27.1624 38.8844 15.9165
409 2 31.2041 38.8032 0.38159
410 2 35.1347 38.7575 0.236612
411 2 39.3569 38.9424 15.9734
412 2 43.3447 38.9313 -0.0405924
413 2 47.235 39.26 -0.0500646
414 2 51.4875 39.1831 15.8311
415 2 55.4145 39.166 0.209776
416 2 59.3134 39.4189 0.170651
417 2 63.1515 39.3613 0.128193
418 2 67.3608 39.4648 0.285632
419 2 71.4027 39.3844 0.196318
420 2 75.3988 39.4401 0.206577
421 2 79.3404 39.6456 0.102106
422 2 83.5101 39.5183 15.8934
423 2 87.4683 39.714 15.9704
424 2 91.528 39.6961 15.7958
425 2 95.4844 39.6386 15.7525
426 2 99.6059 39.6799 0.133031
427 2 103.409 39.9203 15.9074
428 2 107.37 39.9438 15.8923
429 2 111.403 39.8107 15.9791
430 2 115.192 39.8014 16.2712
431 2 119.233 39.6528 16.114
432 2 123.074 39.4991 15.8829
433 2 127.115 39.7129 0.199995
434 2 130.76 39.3994 15.9215
435 2 134.753 39.4621 15.9179
436 2 138.628 39.3579 15.8874
437 2 142.75 39.2085 15.8673
438 2 146.629 39.2329 0.18328
439 2 150.486 39.1191 15.7943
440 2 154.276 39.058 15.8754
441 2 158.426 43.009 0.206917
442 2 3.99571 43.1799 15.8472
443 2 7.89647 42.8035 15.8634
444 2 11.6211 42.9724 0.140737
445 2 15.5286 43.1628 0.23828
446 2 19.4398 42.8983 0.208241
447 2 23.455 42.9256 15.9398
448 2 27.3951 42.7689 15.8258
449 2 31.3751 42.8177 0.341324
450 2 35.2162 42.6536 0.143963
451 2 39.4925 42.8654 0.179607
452 2 43.3233 43.056 0.184739
453 2 47.1514 42.9313 15.8111
454 2 51.4471 43.0586 15.9684
455 2 55.3502 43.097 0.22104
456 2 59.2839 43.3975 15.9463
457 2 63.2596 43.4166 0.073625
458 2 67.2978 43.1801 0.0642995
459 2 71.3847 43.2753 0.223195
460 2 75.2362 43.3951 0.0193748
461 2 79.4958 43.603 0.035832
462 2 83.3985 43.4569 15.9712
463 2 87.4608 43.6761 15.8993
464 2 91.5089 43.635 0.108417
465 2 95.3985 43.6065 -0.0283419
466 2 99.3586 43.6269 15.7838
467 2 103.387 43.686 15.9098
468 2 107.305 43.7951 16.0297
469 2 111.374 43.822 16.0326
470 2 115.353 43.6683 16.0954
471 2 119.3 43.7826 16.0548
472 2 123.163 43.6896 15.8407
473 2 127.258 43.6907 0.424696
474 2 130.959 43.481 0.0153485
475 2 134.704 43.5666 15.9259
476 2 138.808 43.3395 15.7133
477 2 142.77 43.2679 15.8724
478 2 146.775 43.2715 0.0570433
479 2 150.529 43.2357 -0.0603968
480 2 154.741 43.1875 0.161092
481 2 0.00677126 47.4355 0.111781
482 2 3.84305 47.1186 0.0560946
483 2 7.74022 47.0432 0.0216692
484 2 11.7537 46.9253 0.115358
485 2 15.6239 46.8293 0.305844
486 2 19.5183 46.9357 -0.0269475
487 2 23.3376 46.7778 0.130072
488 2 27.3988 46.9265 15.9718
489 2 31.3359 46.7892 0.0079064
490 2 35.2208 46.6223 0.231551
491 2 39.023 46.7804 15.8951
492 2 42.9961 46.7521 15.9361
493 2 47.1623 46.7127 0.222645
494 2 51.2731 46.7525 15.8507
495 2 55.3353 47.0303 15.9497
496 2 59.4239 47.2395 15.9305
497 2 63.3023 47.2199 0.00369252
498 2 67.0833 47.1616 0.16344
499 2 71.1736 47.2456 16.1038
500 2 75.4251 47.3459 0.233126
501 2 79.3906 47.6124 15.9555
502 2 83.3419 47.438 15.8435
503 2 87.3254 47.4177 0.0542963
504 2 91.3893 47.5757 0.086761
505 2 95.3895 47.5426 0.263125
506 2 99.3794 47.5337 0.168153
507 2 103.393 47.518 0.262607
508 2 107.466 47.8168 15.7735
509 2 111.364 47.6346 15.966
510 2 115.174 47.7382 0.38252
511 2 119.119 47.4797 15.9875
512 2 123.191 47.6393 15.9797
513 2 127.219 47.5097 15.9905
514 2 131.006 47.4465 15.9304
515 2 134.83 47.4879 16.0467
516 2 138.714 47.2747 15.9517
517 2 142.625 47.2462 16.085
518 2 146.484 47.0849 0.0940264
519 2 150.555 47.1654 0.105176
520 2 154.457 47.2258 15.7483
521 2 158.336 51.2432 0.0535547
522 2 3.91225 51.2035 15.7243
523 2 7.84165 51.0824 15.9664
524 2 12.0475 51.1944 15.9003
525 2 15.925 50.8476 0.053311
526 2 19.5696 50.8064 15.8467
527 2 23.3288 51.0937 15.8459
528 2 27.2021 50.713 15.7205
529 2 31.2639 50.8255 0.165594
530 2 35.2194 50.7928 0.0852179
531 2 39.0479 50.7455 15.7359
532 2 43.099 50.8121 15.8941
533 2 47.1634 50.6545 0.428646
534 2 51.3232 50.8808 0.348925
535 2 55.2145 50.9223 0.269471
536 2 59.1619 51.046 15.8224
537 2 63.169 51.1015 15.7962
538 2 67.2071 50.9732 0.165892
539 2 71.2784 51.3033 0.120084
540 2 75.3534 51.1442 -0.0215989
541 2 79.257 51.3159 0.0861192
542 2 83.2654 51.3251 0.0623155
543 2 87.3027 51.393 0.241651
544 2 91.2153 51.131 -0.140012
545 2 95.4238 51.4345 0.113385
546 2 99.272 51.4909 0.410315
547 2 103.387 51.5145 16.0107
548 2 107.289 51.5684 0.0671753
549 2 111.232 51.495 0.269936
550 2 115.269 51.8173 15.9062
551 2 119.157 51.4271 15.8828
552 2 123.195 51.5329 15.9644
553 2 127.049 51.5438 15.9694
554 2 131.052 51.4481 0.274519
555 2 134.78 51.4714 0.204828
556 2 139.106 51.5516 0.178862
557 2 142.731 51.3444 0.185556
558 2 146.595 51.2826 15.9958
559 2 150.395 51.1694 0.0962271
560 2 154.442 51.062 0.220784
561 2 158.319 55.0864 -0.0591937
562 2 3.88953 55.1732 -0.054669
563 2 8.12685 55.0609 0.14974
564 2 11.8108 54.9755 0.0367219
565 2 15.6814 54.9601 0.0970443
566 2 19.67 54.866 15.7409
567 2 23.5894 55.03 15.8719
568 2 27.5513 54.8763 15.9295
569 2 31.3158 54.8781 0.34967
570 2 35.1959 54.9159 0.208496
571 2 39.305 54.5833 15.9273
572 2 43.2472 54.4575 15.8051
573 2 47.1552 54.6405 -0.143905
574 2 51.092 54.6324 16.0309
575 2 55.0536 54.7723 15.9841
576 2 58.9726 54.9591 15.8761
577 2 63.2583 54.8378 15.8768
578 2 67.1613 55.1212 0.169526
579 2 71.1112 55.0347 0.0407556
580 2 75.2262 55.2356 15.9719
581 2 79.0986 55.1797 0.33283
582 2 83.2673 55.1835 0.224574
583 2 87.1724 55.3938 0.0403895
584 2 91.1405 55.3153 16.0864
585 2 95.073 55.5332 0.297693
586 2 99.1974 55.4246 15.919
587 2 103.209 55.5517 16.0812
588 2 107.316 55.3339 0.365294
589 2 111.14 55.6694 15.8703
590 2 115.218 55.5189 15.9274
591 2 119.234 55.6054 15.8547
592 2 123.143 55.6697 0.0796543
593 2 127.118 55.4054 15.9481
594 2 131.148 55.6182 15.9495
595 2 134.933 55.4389 0.0906536
596 2 138.893 55.5266 16.1658
597 2 142.748 55.1988 0.125304
598 2 146.836 55.2976 0.0600488
599 2 150.502 55.2751 0.0616635
600 2 154.447 55.11 15.9489
601 2 158.608 59.3359 0.126815
602 2 4.03032 59.064 15.8269
603 2 7.88951 59.0918 15.9268
604 2 11.9369 59.0044 0.206305
605 2 15.879 58.91 15.8366
606 2 19.5892 58.7212 0.124654
607 2 23.7127 58.9479 0.2516
608 2 27.4144 58.7391 -0.0540971
609 2 31.5725 58.7964 15.7813
610 2 35.4361 58.739 15.8443
611 2 39.0968 58.6385 15.8573
612 2 43.208 58.6351 15.958
613 2 47.2954 58.6638 15.9997
614 2 51.2436 58.6416 16.1744
615 2 55.1332 58.8115 16.0135
616 2 59.1094 58.7214 0.125204
617 2 62.9999 58.7976 16.2211
618 2 67.291 58.9708 0.105282
619 2 71.3342 58.9214 16.0351
620 2 75.1218 59.0395 0.142319
621 2 79.1697 59.112 0.260234
622 2 83.1303 59.0516 0.0125924
623 2 87.1325 59.2996 15.9434
624 2 91.1232 59.3213 16.0155
625 2 95.1392 59.4557 0.190924
626 2 99.1569 59.464 0.116143
627 2 103.222 59.4164 15.9839
628 2 107.098 59.5877 0.278859
629 2 111.221 59.3963 15.8165
630 2 115.282 59.5845 15.9713
631 2 119.15 59.5416 15.881
632 2 123.108 59.3681 0.164867
633 2 127.224 59.4094 16.1021
634 2 131.172 59.3738 0.168981
635 2 134.932 59.4588 15.9291
636 2 139.058 59.4782 0.202725
637 2 142.928 59.4191 0.178601
638 2 146.637 59.2071 0.152747
639 2 150.588 59.1504 15.8116
640 2 154.619 59.2698 0.0176246
641 2 0.111526 63.2798 0.241581
642 2 4.01745 63.2554 0.20379
643 2 7.71506 63.0595 16.0411
644 2 11.9142 63.0257 15.7816
645 2 15.7959 62.7725 15.869
646 2 19.7527 62.9375 0.297093
647 2 23.8083 62.7092 0.214138
648 2 27.5428 62.7642 0.122895
649 2 31.4797 62.7916 0.139489
650 2 35.433 62.6102 0.149215
651 2 39.4821 62.7403 15.8639
652 2 43.1434 62.5594 0.291306
653 2 47.0445 62.6267 16.2467
654 2 50.9996 62.6088 16.0335
655 2 55.062 62.8519 0.254522
656 2 58.977 62.8766 15.9966
657 2 63.0468 62.7535 0.299945
658 2 66.8607 62.8846 16.0583
659 2 71.0533 63.0396 0.199228
660 2 75.1296 63.0158 0.161742
661 2 79.1025 63.0409 0.0776295
662 2 82.9804 63.186 0.295729
663 2 86.8655 62.9724 16.089
664 2 91.09 63.1891 15.8297
665 2 95.058 63.3359 0.0130743
666 2 99.1605 63.2263 0.20829
667 2 103.018 63.4468 15.9344
668 2 107.084 63.3081 15.9057
669 2 110.918 63.5056 15.8672
670 2 115.168 63.3641 0.200254
671 2 119.178 63.4533 15.996
672 2 123.147 63.4267 0.287666
673 2 126.913 63.4434 15.8261
674 2 130.946 63.3906 -0.0285744
675 2 135.063 63.4828 16.1189
676 2 138.843 63.2768 15.9368
677 2 142.742 63.3699 15.9587
678 2 146.751 63.3257 0.165128
679 2 150.533 63.1422 15.8584
680 2 154.469 63.2252 0.0126354
681 2 0.260132 67.0377 0.0683064
682 2 4.17947 67.1426 0.0826092
683 2 8.27008 66.8905 15.878
684 2 12.0972 67.0493 15.7947
685 2 15.6371 66.8774 0.084909
686 2 19.6484 66.9534 0.092073
687 2 23.537 66.8443 0.161709
688 2 27.4471 66.7841 0.275801
689 2 31.5358 66.7082 0.110519
690 2 35.5108 66.6889 0.117257
691 2 39.3334 66.6237 15.8664
692 2 43.2253 66.6733 0.0935411
693 2 47.1759 66.5671 16.1161
694 2 51.0151 66.5918 15.7936
695 2 54.9722 66.5504 15.9037
696 2 59.0282 66.5979 15.9776
697 2 63.0516 66.7646 15.9496
698 2 67.1317 66.8441 16.0858
699 2 71.1187 66.6604 0.103628
700 2 75.081 66.9017 15.8742
701 2 78.9969 66.9222 15.8705
702 2 83.0955 67.0214 0.0153689
703 2 87.0194 67.1091 15.9341
704 2 90.992 67.0511 16.026
705 2 94.9085 67.2289 0.213894
706 2 98.928 67.1824 0.154039
707 2 102.952 67.0869 0.238228
708 2 107.047 67.2598 15.9753
709 2 111.037 67.1752 16.0398
710 2 115.015 67.3679 15.9692
711 2 119.051 67.3529 0.221437
712 2 123.159 67.3946 0.396328
713 2 127.073 67.2313 0.0622594
714 2 130.973 67.425 15.837
715 2 135.026 67.5256 -0.00434627
716 2 138.933 67.5228 0.238839
717 2 142.616 67.1719 15.7698
718 2 146.864 67.2468 15.946
719 2 150.518 67.2304 15.8038
720 2 154.849 67.1569 0.276727
721 2 0.150574 71.0104 0.0940668
722 2 4.01244 71.075 16.0065
723 2 7.97301 70.9322 -0.0621415
724 2 11.9693 70.8972 15.9727
725 2 15.7658 70.8406 0.150139
726 2 19.951 70.8717 -0.069954
727 2 23.7598 70.7905 -0.0599127
728 2 27.4845 70.798 15.917
729 2 31.3581 70.7504 0.0415155
730 2 35.309 70.6552 0.229113
731 2 39.3952 70.6316 15.8851
732 2 43.3352 70.5139 0.271001
733 2 47.3805 70.6304 15.9132
734 2 51.1471 70.5147 15.7964
735 2 55.0574 70.4416 0.0320145
736 2 58.9665 70.59 0.31232
737 2 63.0442 70.6208 0.219769
738 2 66.9603 70.6161 15.8938
739 2 70.9064 70.424 15.9328
740 2 74.961 70.7964 16.1262
741 2 78.7293 70.9947 0.0213689
742 2 82.8695 70.8952 0.253303
743 2 86.9521 71.0856 15.8466
744 2 91.1069 71.051 16.0034
745 2 94.9007 71.0726 16.0219
746 2 98.793 71.1682 15.812
747 2 102.666 71.2459 16.0806
748 2 106.86 71.2839 15.9045
749 2 111.033 70.9946 15.9785
750 2 114.962 71.2984 0.164664
751 2 118.972 71.248 16.0126
752 2 122.993 71.2272 0.117933
753 2 127.005 71.2727 15.6843
754 2 131.027 71.3366 15.8192
755 2 135.011 71.543 15.9419
756 2 139.007 71.2477 15.8511
757 2 142.686 71.23 0.338784
758 2 146.779 71.0849 0.21412
759 2 150.67 71.2879 0.40276
760 2 154.503 71.3282 16.0143
761 2 0.437725 75.2038 0.208079
762 2 4.35046 75.0132 16.0508
763 2 8.00853 75.0157 15.9412
764 2 11.7639 75.0101 15.7391
765 2 15.8483 74.9921 15.715
766 2 19.7872 74.8849 15.8786
767 2 23.8704 74.7491 15.7596
768 2 27.4972 74.79 15.8211
769 2 31.4313 74.6694 0.190801
770 2 35.586 74.7714 16.0064
771 2 39.4545 74.5093 15.9307
772 2 43.2113 74.6142 0.0789227
773 2 47.1457 74.5884 15.9572
774 2 50.9979 74.7045 0.06642
775 2 55.1532 74.6301 15.8278
776 2 58.9843 74.4228 15.813
777 2 62.8845 74.4721 15.7082
778 2 66.9245 74.527 0.183294
779 2 70.8916 74.7163 0.056839
780 2 74.7002 74.5714 0.110346
781 2 78.856 74.9083 0.0204018
782 2 82.9898 74.8222 0.190092
783 2 86.7802 74.8791 -0.0279294
784 2 90.9185 74.9795 16.0757
785 2 94.8508 75.1727 15.9669
786 2 99.0053 75.1878 0.125973
787 2 103.112 75.0235 15.9809
788 2 106.862 75.1104 16.0327
789 2 110.853 75.0528 16.0845
790 2 114.874 75.2003 15.9142
791 2 118.887 75.3297 0.31959
792 2 122.824 75.1496 15.8017
793 2 127.046 75.2927 16.1285
794 2 131.033 75.5287 0.0916907
795 2 134.867 75.3265 16.055
796 2 138.938 75.187 16.0225
797 2 142.942 75.3169 15.9589
798 2 146.787 75.2652 15.9242
799 2 150.986 75.3523 0.206289
800 2 154.638 75.3651 0.144142
801 2 0.142369 79.2538 0.23397
802 2 4.13158 79.0227 15.7118
803 2 8.10588 78.9231 0.0436241
804 2 12.1716 78.9264 0.0509944
805 2 16.0197 78.9143 15.9277
806 2 19.7106 78.8418 15.9831
807 2 23.886 79.0406 0.143078
808 2 27.6806 78.676 0.1025
809 2 31.6005 78.9193 -0.140863
810 2 35.5218 78.6645 0.261469
811 2 39.3937 78.9692 16.0494
812 2 43.3012 78.74 16.011
813 2 47.2617 78.4199 15.8983
814 2 51.1069 78.5168 0.0394367
815 2 55.2194 78.5895 0.115278
816 2 59.2014 78.569 15.8867
817 2 62.9122 78.5495 15.8863
818 2 66.7594 78.4839 -0.0155763
819 2 70.7143 78.5275 15.7579
820 2 74.9824 78.4997 0.0119014
821 2 78.695 78.6192 15.7733
822 2 82.8525 78.741 16.1131
823 2 86.9739 78.783 0.157862
824 2 90.7056 78.8514 0.0817285
825 2 94.7739 78.9025 0.10321
826 2 98.754 79.1227 15.9106
827 2 102.871 78.7356 15.968
828 2 106.973 79.0157 0.20708
829 2 110.868 78.9065 -0.0207436
830 2 114.91 79.1248 0.236558
831 2 118.739 79.0968 0.169369
832 2 122.966 78.9684 16.0953
833 2 127.02 78.9951 0.172985
834 2 130.904 79.334 15.9458
835 2 134.932 79.3155 0.214829
836 2 138.94 79.3104 15.9454
837 2 142.851 79.1227 15.9268
838 2 146.715 79.1382 15.8839
839 2 150.705 79.2528 16.0711
840 2 154.656 79.2346 0.257707
841 2 0.22041 82.9768 16.0411
842 2 4.40906 82.861 15.9092
843 2 8.24601 82.9466 0.32816
844 2 11.99 82.7909 15.9061
845 2 15.8695 82.9785 15.8201
846 2 19.9033 82.7963 0.113875
847 2 23.7915 82.6901 15.8626
848 2 27.7554 82.7892 0.254044
849 2 31.7006 82.6292 15.9612
850 2 35.6549 82.6926 0.118839
851 2 39.4179 82.6359 0.309683
852 2 43.2464 82.7064 15.914
853 2 47.3293 82.5558 0.14898
854 2 51.1288 82.5639 0.132862
855 2 55.1031 82.4225 0.129386
856 2 59.1175 82.6675 15.6189
857 2 62.8745 82.3811 15.8248
858 2 66.9348 82.4286 15.8199
859 2 70.8417 82.5267 15.8195
860 2 74.8327 82.4178 15.8604
861 2 78.8832 82.4134 15.8798
862 2 82.7229 82.678 0.278106
863 2 86.6852 82.8715 0.102318
864 2 90.8511 82.845 15.9965
865 2 94.9171 82.886 0.231156
866 2 98.8422 82.8084 15.9874
867 2 102.934 82.8778 0.204984
868 2 106.723 82.9794 16.0149
869 2 110.873 82.9483 16.0164
870 2 114.915 82.9165 15.9805
871 2 118.913 82.9445 15.9611
872 2 122.832 82.8472 15.9901
873 2 126.819 83.1011 16.0939
874 2 130.773 83.2336 16.0367
875 2 134.817 83.2226 0.296634
876 2 138.745 83.1162 16.0871
877 2 142.893 83.1509 -0.00960866
878 2 146.839 83.4044 16.147
879 2 150.773 83.1549 0.277298
880 2 154.558 83.1935 0.212661
881 2 0.247717 87.0665 16.0184
882 2 4.31613 87.0261 0.209674
883 2 8.27972 86.9843 15.8317
884 2 11.9736 87.0616 15.9766
885 2 16.0861 86.8834 15.9937
886 2 19.8767 87.0048 16.0319
887 2 23.8605 86.7186 15.8513
888 2 27.8388 86.7182 0.204153
889 2 31.7114 86.6076 16.0149
890 2 35.5455 86.6123 0.146142
891 2 39.5652 86.5744 15.96
892 2 43.5817 86.6081 15.8586
893 2 47.2798 86.6613 16.1818
894 2 51.2544 86.7038 15.9588
895 2 55.0674 86.5271 15.8114
896 2 58.9794 86.6702 -0.164217
897 2 62.8622 86.571 0.168171
898 2 66.973 86.3897 15.9192
899 2 70.6653 86.4652 0.131117
900 2 74.8341 86.2221 15.8599
901 2 78.682 86.3544 0.0730907
902 2 82.7092 86.6063 0.258635
903 2 86.7705 86.5977 15.9071
904 2 90.6683 86.5398 15.9898
905 2 94.581 86.9112 16.0215
906 2 98.9426 86.5677 15.9265
907 2 102.761 86.6803 0.17201
908 2 106.88 86.7645 0.193619
909 2 110.743 86.8955 16.0068
910 2 114.812 87.0344 -0.000588493
911 2 118.628 86.8256 0.310494
912 2 122.781 86.7745 0.314169
913 2 126.706 86.7937 16.1065
914 2 130.745 87.0494 15.9132
915 2 134.891 87.0604 15.9437
916 2 138.701 87.0295 15.9136
917 2 143.031 87.2872 16.0835
918 2 146.926 87.3008 0.120423
919 2 150.918 87.2763 15.9533
920 2 154.807 87.2263 15.9352
921 2 0.318345 90.9136 0.191243
922 2 4.35736 90.9289 0.187496
923 2 8.29871 91.0072 16.0632
924 2 12.209 90.9919 16.0497
925 2 16.1927 91.0513 0.411384
926 2 20.072 90.8555 -0.0550471
927 2 23.7743 90.8706 15.9843
928 2 27.8458 90.7631 15.9398
929 2 31.6417 90.581 15.8975
930 2 35.5667 90.8703 0.30448
931 2 39.5665 90.7695 16.0776
932 2 43.4654 90.8261 15.9692
933 2 47.3996 90.703 0.359256
934 2 51.3244 90.6271 0.151147
935 2 55.2587 90.6162 0.12982
936 2 59.2184 90.5003 0.0461723
937 2 62.8165 90.5212 0.0270304
938 2 66.7796 90.3984 15.9039
939 2 70.5542 90.2366 16.0842
940 2 74.7182 90.3599 0.336844
941 2 78.5512 90.245 0.196263
942 2 82.3622 90.253 0.150138
943 2 86.7151 90.7789 0.184095
944 2 90.7066 90.6137 0.166403
945 2 94.7644 90.6411 16.0386
946 2 98.6245 90.7037 15.8458
947 2 102.799 90.6676 0.226342
948 2 106.679 90.5233 16.0094
949 2 110.688 90.7428 16.0605
950 2 114.638 91.0662 0.129542
951 2 118.593 90.9021 0.020558
952 2 122.776 90.8876 15.9492
953 2 126.689 90.7592 0.33815
954 2 130.519 90.8585 0.238019
955 2 134.534 90.8098 16.0178
956 2 138.867 90.8781 16.0621
957 2 142.87 91.0811 16.035
958 2 146.791 91.2944 16.1854
959 2 150.742 91.2583 16.045
960 2 154.809 91.1413 16.0337
961 2 0.507828 94.8695 0.313241
962 2 4.2604 95.0183 16.1675
963 2 8.26848 95.0016 16.0438
964 2 12.1517 95.2533 16.1342
965 2 16.0046 94.833 16.0104
966 2 20.0766 95.0641 15.8864
967 2 23.8968 94.8533 15.975
968 2 27.8731 94.7047 16.0243
969 2 31.7772 94.7273 15.8697
970 2 35.5002 94.8033 15.948
971 2 39.5063 94.7094 15.8821
972 2 43.5201 94.8473 15.8152
973 2 47.3872 94.4654 0.104192
974 2 51.3751 94.5955 15.8506
975 2 55.3733 94.4495 0.174291
976 2 59.1155 94.6174 15.666
977 2 63.0507 94.6004 -0.112495
978 2 67.0324 94.4707 0.276138
979 2 70.8453 94.254 0.236221
980 2 74.7061 94.346 0.226534
981 2 78.7418 94.2472 15.722
982 2 82.7534 94.3246 0.0709174
983 2 86.7164 94.5303 0.346804