ITEM: TIMESTEP
24800
ITEM: NUMBER OF ATOMS
32000
ITEM: BOX BOUNDS xy xz yz pp pp pp
0.0000000000000000e+00 1.5831999999999999e+02 0.0000000000000000e+00
0.0000000000000000e+00 1.5831999999999999e+02 0.0000000000000000e+00
1.6355212227556848e-01 1.5934159877724237e+01 0.0000000000000000e+00
ITEM: ATOMS id type x y z
1 2 158.022 157.539 15.7216
2 2 3.90779 157.789 16.1766
3 2 7.77169 157.92 0.0709703
4 2 11.8285 157.961 0.341118
5 2 15.6352 157.768 0.0137331
6 2 19.5244 157.89 16.1469
7 2 23.7623 158.004 15.9154
8 2 27.8151 157.929 15.8605
9 2 31.7759 157.922 -0.0877876
10 2 35.8197 157.861 15.7679
11 2 39.7405 -0.00331589 15.7789
12 2 43.809 -0.265346 0.0867614
13 2 47.9824 -0.203411 15.8431
14 2 51.8394 -0.0686314 0.26088
15 2 55.7964 158.583 0.217917
16 2 60.0376 158.584 15.9979
17 2 63.8984 0.256827 15.8929
18 2 67.7626 0.40763 16.1147
19 2 71.856 0.320415 15.8285
20 2 75.6844 158.621 16.0218
21 2 79.4033 0.267272 15.9972
22 2 83.2934 158.657 15.9046
23 2 87.3692 158.374 15.8767
24 2 91.3704 158.327 0.141032
25 2 95.2368 158.2 15.9103
26 2 98.9681 158.066 15.9368
27 2 103.147 158.274 15.7516
28 2 106.856 158.216 15.7528
29 2 110.797 157.881 0.207591
30 2 114.702 157.976 0.248501
31 2 118.597 158.056 16.0449
32 2 122.634 157.856 0.261956
33 2 126.604 157.859 0.20591
34 2 130.371 157.74 0.249044
35 2 134.227 157.517 15.8776
36 2 138.354 157.407 15.9876
37 2 142.229 157.477 15.9776
38 2 146.077 157.566 15.9313
39 2 150.058 157.561 0.197024
40 2 153.947 157.497 0.245132
41 2 158.023 3.3062 15.8666
42 2 3.6619 3.35846 15.9643
43 2 7.68151 3.52594 0.376997
44 2 11.7521 3.37173 16.1748
45 2 15.8027 3.24778 16.0064
46 2 19.6512 3.43368 15.9053
47 2 23.6395 3.48217 0.158628
48 2 27.8407 3.59364 0.110242
49 2 31.7201 3.4077 -0.0947645
50 2 35.6584 3.61594 0.019118
51 2 39.665 3.86439 -0.0711909
52 2 43.5809 3.70202 15.9462
53 2 47.6725 3.81515 15.8936
54 2 51.8295 3.89174 15.9048
55 2 55.9024 3.98997 0.310218
56 2 59.8799 4.08758 15.9553
57 2 63.9073 4.24074 16.0659
58 2 67.8248 4.29992 15.8974
59 2 71.8715 4.14266 15.8117
60 2 75.7172 4.2432 16.0877
61 2 79.5495 4.20509 15.9341
62 2 83.5039 4.21277 16.0507
63 2 87.636 4.04916 16.0514
64 2 91.3977 3.94128 0.402879
65 2 95.2824 4.26833 16.053
66 2 99.0388 3.74411 0.106312
67 2 103.118 3.81393 15.8247
68 2 106.959 3.8937 15.9486
69 2 110.975 3.59767 0.218704
70 2 114.783 3.76693 0.149312
71 2 118.726 3.60004 0.0928772
72 2 122.597 3.50292 0.174758
73 2 126.658 3.51612 0.342834
74 2 130.638 3.51531 0.0865336
75 2 134.544 3.2525 16.0407
76 2 138.373 3.18826 0.271947
77 2 142.18 3.1297 0.00789033
78 2 146.034 3.10343 0.274479
79 2 149.905 3.08972 15.8138
80 2 154.094 3.18407 15.9052
81 2 158.024 7.18862 15.8092
82 2 3.54964 7.14819 15.9804
83 2 7.75533 7.2711 16.0238
84 2 11.706 7.33758 0.287714
85 2 15.6388 7.27589 16.0599
86 2 19.6404 7.51615 15.854
87 2 23.7415 7.33062 0.324389
88 2 27.627 7.42171 16.0387
89 2 31.719 7.36778 15.7788
90 2 35.7583 7.53857 15.8605
91 2 39.7025 7.75456 0.111898
92 2 43.9242 7.67596 0.144762
93 2 47.8624 7.65061 15.7655
94 2 51.6702 8.01694 0.125788
95 2 55.6564 7.93556 15.6945
96 2 59.771 7.88068 0.265971
97 2 63.825 8.04215 15.9592
98 2 67.8302 8.24674 16.0467
99 2 71.7527 8.2869 15.8413
100 2 75.704 8.16808 15.7763
101 2 79.5128 8.03999 0.287655
102 2 83.6131 8.2363 16.0076
103 2 87.7135 8.10019 16.1025
104 2 91.4674 8.04907 16.0362
105 2 95.2111 7.95008 16.0686
106 2 99.3066 7.92961 0.231824
107 2 103.233 7.72184 0.257676
108 2 107.188 7.67136 15.8708
109 2 110.866 7.5722 0.134026
110 2 114.829 7.67125 15.9616
111 2 118.801 7.57437 15.9471
112 2 122.831 7.59579 16.0768
113 2 126.784 7.27626 16.0281
114 2 130.623 7.34979 0.0962893
115 2 134.618 7.46614 0.128041
116 2 138.277 7.23498 15.929
117 2 142.244 7.29748 15.8869
118 2 146.329 7.09173 0.0891943
119 2 150.159 7.05748 -0.0312211
120 2 153.762 7.09031 15.8858
121 2 158.037 11.2556 16.069
122 2 3.44508 11.1232 16.0035
123 2 7.5745 11.1117 16.2045
124 2 11.7771 11.2415 0.222851
125 2 15.7907 11.3751 15.862
126 2 19.6856 11.3901 15.8863
127 2 23.6478 11.5283 15.9073
128 2 27.7023 11.2674 15.9179
129 2 31.595 11.3456 15.8221
130 2 35.6019 11.5104 15.9785
131 2 39.7344 11.6011 15.8967
132 2 43.6672 11.4335 0.193729
133 2 47.6935 11.4629 0.206254
134 2 51.5842 11.7174 15.8092
135 2 55.5869 11.9205 0.0592499
136 2 59.5339 11.8259 15.815
137 2 63.7377 11.9026 0.0520663
138 2 67.7252 12.0464 16.1152
139 2 71.6718 11.9688 15.9593
140 2 75.7121 12.399 16.0865
141 2 79.65 12.2443 16.0105
142 2 83.7301 12.0443 16.0852
143 2 87.6518 12.0616 0.317667
144 2 91.7377 12.0647 0.195091
145 2 95.6838 11.9494 16.0498
146 2 99.3637 11.8404 15.9644
147 2 103.459 11.8891 0.173761
148 2 107.193 11.6131 15.9002
149 2 111.221 11.6754 0.250672
150 2 114.893 11.6697 15.9027
151 2 118.819 11.467 0.121565
152 2 122.661 11.6408 0.0725476
153 2 126.442 11.4228 15.7967
154 2 130.455 11.4616 16.1175
155 2 134.4 11.393 0.244716
156 2 138.513 11.1888 0.189271
157 2 142.284 11.1271 0.0884051
158 2 146.238 11.1588 0.191571
159 2 149.971 11.2478 0.194515
160 2 154.178 11.1361 0.14372
161 2 158.272 15.3435 15.9667
162 2 3.5511 15.0581 16.0366
163 2 7.46066 15.0675 16.0689
164 2 11.5784 15.0373 16.0784
165 2 15.6937 15.1436 16.1375
166 2 19.5457 15.2224 0.193419
167 2 23.5347 15.2201 0.207854
168 2 27.6818 15.4745 16.0014
169 2 31.6734 15.2338 0.0941603
170 2 35.566 15.227 15.9141
171 2 39.4835 15.3376 0.0577544
172 2 43.6542 15.4053 0.158672
173 2 47.6531 15.485 0.259372
174 2 51.6418 15.5839 0.0273941
175 2 55.5729 15.7093 16.0268
176 2 59.7744 15.8318 0.0681304
177 2 63.8221 16.091 15.8758
178 2 67.6171 16.0331 16.0187
179 2 71.511 16.2031 0.266144
180 2 75.5028 15.9016 0.133898
181 2 79.5537 16.2509 16.0195
182 2 83.7516 15.9636 0.142235
183 2 87.615 16.091 15.9905
184 2 91.5174 16.166 0.36584
185 2 95.6278 16.0098 16.1345
186 2 99.2821 16.1063 15.9203
187 2 103.203 15.7315 16.0048
188 2 107.036 15.8063 15.8845
189 2 111.125 15.6233 15.8028
190 2 115.051 15.6606 15.8938
191 2 118.867 15.5638 0.279419
192 2 122.728 15.5506 16.1691
193 2 126.827 15.349 15.7807
194 2 130.722 15.5732 0.183045
195 2 134.571 15.5836 0.190388
196 2 138.482 15.2813 0.252043
197 2 142.306 15.1493 15.9356
198 2 146.4 15.2951 0.344003
199 2 150.17 15.1382 0.0939434
200 2 154.112 15.1047 15.8933
201 2 158.135 19.1566 15.8597
202 2 3.69929 18.9045 0.180732
203 2 7.6067 18.9448 0.232078
204 2 11.5929 19.0053 15.9467
205 2 15.5598 18.8116 16.1582
206 2 19.523 18.9728 16.0659
207 2 23.573 19.2584 16.1434
208 2 27.616 19.1355 16.0493
209 2 31.6895 19.2244 15.8569
210 2 35.5524 19.3237 15.6988
211 2 39.3374 19.3306 0.202842
212 2 43.4269 19.4728 15.9626
213 2 47.6705 19.4629 15.9101
214 2 51.59 19.552 -0.0226223
215 2 55.6837 19.6472 16.0561
216 2 59.3494 19.6776 15.6918
217 2 63.4505 19.8814 15.97
218 2 67.5702 20.1182 16.0954
219 2 71.5955 19.879 0.143568
220 2 75.7446 20.0443 0.289898
221 2 79.6373 20.0641 0.159657
222 2 83.7434 20.0936 15.9359
223 2 87.5968 20.0083 0.205695
224 2 91.6953 20.1854 0.149595
225 2 95.5616 20.0227 15.9313
226 2 99.6368 20.0688 15.9469
227 2 103.319 19.8896 15.9505
228 2 107.222 19.8316 15.9997
229 2 111.155 19.7199 0.182265
230 2 115.086 19.589 15.8397
231 2 118.894 19.5231 15.9433
232 2 122.824 19.45 15.9109
233 2 126.763 19.4933 15.8376
234 2 130.758 19.4028 15.9301
235 2 134.834 19.4952 0.105556
236 2 138.587 19.2242 15.9514
237 2 142.487 19.2154 16
238 2 146.354 19.0773 0.347452
239 2 150.321 19.2239 15.9903
240 2 154.369 19.1359 0.0557598
241 2 158.235 23.3048 16.1462
242 2 3.81978 23.1738 15.8919
243 2 7.61822 22.911 0.218587
244 2 11.4128 23.0201 0.315555
245 2 15.4896 22.7896 16.0936
246 2 19.478 22.8229 15.9663
247 2 23.5522 23.0862 15.9881
248 2 27.5776 23.1222 15.8309
249 2 31.5094 23.2519 0.0644508
250 2 35.7196 23.1268 15.8474
251 2 39.6749 23.3775 0.0963645
252 2 43.4725 23.3114 15.7865
253 2 47.5747 23.3784 0.0608113
254 2 51.5959 23.4294 0.19463
255 2 55.5675 23.5185 0.140097
256 2 59.6399 23.5299 16.0088
257 2 63.5422 23.6235 0.127796
258 2 67.5265 23.7518 15.8914
259 2 71.562 23.9296 15.9713
260 2 75.5671 23.811 0.284731
261 2 79.6742 23.9344 16.0917
262 2 83.5671 23.9292 0.127459
263 2 87.5699 23.9333 16.0519
264 2 91.6918 24.059 16.0069
265 2 95.4288 23.9119 16.1326
266 2 99.5117 23.8458 0.172401
267 2 103.573 23.913 15.9707
268 2 107.354 23.8398 15.8863
269 2 111.22 23.6723 0.111559
270 2 115.01 23.7802 16.0453
271 2 119.063 23.7355 16.1314
272 2 122.919 23.4586 0.00775228
273 2 126.907 23.3752 15.8955
274 2 130.768 23.4713 15.7122
275 2 134.563 23.4496 16.0459
276 2 138.597 23.1229 16.0157
277 2 142.295 23.2457 15.8844
278 2 146.301 23.119 0.0603384
279 2 150.333 23.1596 0.253493
280 2 154.321 23.1494 0.217291
281 2 158.112 27.0578 0.367798
282 2 3.75902 26.9713 0.157258
283 2 7.80438 27.1104 0.236918
284 2 11.6179 26.8744 15.9857
285 2 15.375 27.0105 16.0578
286 2 19.4412 26.8419 0.186224
287 2 23.3962 26.893 16.1423
288 2 27.4561 27.0642 15.8788
289 2 31.5623 27.1354 0.310244
290 2 35.4556 27.0713 0.272529
291 2 39.4474 27.3033 0.108922
292 2 43.5595 27.1317 0.125168
293 2 47.5953 27.1982 0.247867
294 2 51.506 27.5397 16.0479
295 2 55.3665 27.6088 0.311763
296 2 59.2676 27.5314 16.1444
297 2 63.4751 27.7239 16.0878
298 2 67.5354 27.7415 15.9632
299 2 71.6491 27.7967 15.9691
300 2 75.3801 27.627 0.185536
301 2 79.4709 27.8534 0.0994905
302 2 83.465 27.714 16.0455
303 2 87.5789 27.9682 0.183872
304 2 91.5195 27.8368 0.212944
305 2 95.6172 28.0224 0.21328
306 2 99.653 27.8951 0.0438425
307 2 103.371 27.9675 15.7995
308 2 107.45 27.9148 0.0428217
309 2 111.351 27.9116 15.9698
310 2 115.224 27.7404 15.9671
311 2 119.288 27.6841 0.270021
312 2 123.048 27.7668 -0.00944236
313 2 126.974 27.5924 15.7821
314 2 130.873 27.5014 15.8854
315 2 134.848 27.6562 16.0003
316 2 138.682 27.4035 16.2021
317 2 142.408 27.2554 0.203839
318 2 146.432 27.2354 0.23392
319 2 150.501 27.2318 0.263941
320 2 154.168 27.0707 0.0266232
321 2 158.28 31.1072 15.9735
322 2 3.67007 31.1366 15.9593
323 2 7.56643 31.0399 16.1836
324 2 11.7986 31.0255 0.0897384
325 2 15.7302 31.0269 0.0883306
326 2 19.6342 30.8538 15.9383
327 2 23.4897 31.0387 15.866
328 2 27.4201 30.9291 0.480948
329 2 31.4442 31.0077 15.9462
330 2 35.523 30.9399 15.9129
331 2 39.4714 31.1248 15.8178
332 2 43.4767 31.1708 0.0763809
333 2 47.3514 31.4679 15.9752
334 2 51.299 31.3055 0.110997
335 2 55.6456 31.3508 16.0925
336 2 59.6197 31.3731 0.208099
337 2 63.5119 31.5017 15.8281
338 2 67.3514 31.6843 0.0821661
339 2 71.3679 31.6055 0.418798
340 2 75.5341 31.7495 0.131258
341 2 79.4584 31.7314 15.8583
342 2 83.5064 31.8404 0.102363
343 2 87.6025 32.0536 15.7811
344 2 91.3816 32.05 15.8134
345 2 95.4061 31.9048 16.1649
346 2 99.4071 31.8812 0.177298
347 2 103.503 31.7439 16.1108
348 2 107.367 31.8758 15.9486
349 2 111.412 31.8824 15.9237
350 2 115.162 31.7157 16.1107
351 2 119.07 31.849 15.9483
352 2 123.317 31.5511 15.8616
353 2 126.985 31.5845 15.9307
354 2 130.79 31.579 15.7101
355 2 134.665 31.5261 16.0391
356 2 138.6 31.4156 15.7181
357 2 142.594 31.3831 0.0896705
358 2 146.562 31.2579 15.834
359 2 150.389 31.2314 0.111579
360 2 154.355 31.1804 0.218141
361 2 -0.171828 35.2296 0.189239
362 2 3.7301 34.9455 15.9982
363 2 7.64002 34.7423 15.9078
364 2 11.6448 34.9146 15.7601
365 2 15.635 34.9497 0.0276348
366 2 19.4768 34.7449 0.0948811
367 2 23.5317 34.9411 0.206467
368 2 27.5324 34.8492 0.0943793
369 2 31.4882 34.9226 0.396102
370 2 35.2736 34.8382 0.175866
371 2 39.4225 35.0639 0.0688298
372 2 43.4391 35.1657 15.6597
373 2 47.2928 35.1599 15.7082
374 2 51.4507 35.2999 15.9185
375 2 55.3783 35.2366 0.107089
376 2 59.3318 35.4796 -0.00150215
377 2 63.3899 35.5575 15.9019
378 2 67.3916 35.4756 0.105676
379 2 71.3275 35.5582 0.122025
380 2 75.4732 35.6115 15.7433
381 2 79.4232 35.7706 -0.0646061
382 2 83.4886 35.6264 15.8927
383 2 87.438 35.9091 0.0416916
384 2 91.4105 35.8115 0.00840545
385 2 95.2668 35.6201 15.8176
386 2 99.6042 35.7399 0.0748188
387 2 103.352 35.7753 15.917
388 2 107.46 35.907 15.8288
389 2 111.537 35.8843 16.0321
390 2 115.29 35.6144 16.0258
391 2 119.181 35.5904 16.0269
392 2 123.139 35.5864 16.0724
393 2 126.755 35.5953 15.972
394 2 130.656 35.6213 15.8804
395 2 134.687 35.4131 16.1446
396 2 138.744 35.2849 0.153558
397 2 142.679 35.3236 0.205977
398 2 146.486 35.4469 0.379203
399 2 150.249 35.3221 15.8495
400 2 154.324 35.0627 0.239762
401 2 158.251 39.1529 0.153973
402 2 3.79258 39.0267 0.213651
403 2 7.82339 38.9161 0.0730107
404 2 11.7932 38.906 15.966
405 2 15.5496 38.7571 0.1605
406 2 19.6111 38.824 15.9679
407 2 23.4371 38.6609 15.9719
408 2 27.5168 38.6385 15.9255
409 2 31.3537 38.9449 0.0770428
410 2 35.4058 38.8772 0.337489
411 2 39.1133 39.0531 15.9575
412 2 43.0952 38.9596 0.208623
413 2 47.1669 38.9941 0.238712
414 2 51.2744 39.0683 16.0307
415 2 55.3393 39.2295 0.119375
416 2 59.244 39.1651 0.127135
417 2 63.4148 39.4659 0.025441
418 2 67.1897 39.4711 0.092741
419 2 71.3272 39.4952 0.193781
420 2 75.2704 39.4853 0.288543
421 2 79.499 39.6149 0.207171
422 2 83.468 39.7631 15.9423
423 2 87.5114 39.7559 15.7475
424 2 91.3952 39.852 15.9376
425 2 95.3624 39.7668 16.1518
426 2 99.2653 39.912 -0.017298
427 2 103.425 39.9768 15.7187
428 2 107.516 39.7033 15.8574
429 2 111.472 39.7519 15.9557
430 2 115.381 39.7682 15.9692
431 2 119.156 39.6594 15.9461
432 2 123.196 39.7273 16.0902
433 2 126.942 39.576 0.117097
434 2 131.011 39.6126 15.9357
435 2 134.783 39.4484 15.9979
436 2 138.748 39.3446 15.9331
437 2 142.565 39.3467 16.068
438 2 146.661 39.2038 0.207838
439 2 150.518 39.1087 15.9502
440 2 154.529 39.1378 15.9576
441 2 158.443 43.0945 0.0752473
442 2 3.95828 42.9345 15.7702
443 2 7.7436 43.0856 15.8322
444 2 11.7342 42.9231 0.0761107
445 2 15.5103 42.8799 0.339808
446 2 19.687 42.8813 0.17971
447 2 23.4138 42.6765 15.9364
448 2 27.2473 42.8393 15.9617
449 2 31.0861 42.9228 0.0790367
450 2 35.2405 42.8389 0.311812
451 2 38.9178 42.8038 0.0327319
452 2 43.1373 42.8377 -0.0272522
453 2 47.2756 42.9808 15.9731
454 2 51.1871 43.076 15.8813
455 2 55.2941 43.2261 0.223793
456 2 59.4004 43.1519 15.9879
457 2 63.3773 43.1891 0.0952204
458 2 67.3974 43.3889 0.261661
459 2 71.251 43.4401 0.0617567
460 2 75.3524 43.3524 0.144063
461 2 79.2688 43.3675 0.127979
462 2 83.5164 43.6158 16.0335
463 2 87.316 43.6569 15.9786
464 2 91.2009 43.7362 0.0662482
465 2 95.5557 43.6979 0.219679
466 2 99.5322 43.6813 15.9791
467 2 103.462 43.8865 15.8814
468 2 107.541 43.6045 16.0053
469 2 111.274 43.6801 15.9628
470 2 115.3 43.7908 15.9671
471 2 119.127 43.6192 15.9264
472 2 123.03 43.55 15.9989
473 2 126.857 43.6546 0.24172
474 2 130.913 43.5262 0.411301
475 2 135.057 43.3295 16.1043
476 2 138.867 43.4107 16.1468
477 2 142.692 43.21 16.0563
478 2 146.669 43.1332 0.187621
479 2 150.648 43.0933 0.175946
480 2 154.324 43.0911 -0.0059081
481 2 0.184272 46.9208 -0.0330523
482 2 4.00899 46.988 0.111959
483 2 7.84911 47.0493 0.260992
484 2 11.7722 46.9949 0.0469164
485 2 15.6207 46.9129 0.144987
486 2 19.7248 46.8366 0.0900759
487 2 23.503 46.9174 -0.0146468
488 2 27.265 46.7362 15.9269
489 2 31.2911 46.8611 0.296971
490 2 35.241 46.7502 -0.00446363
491 2 39.2783 46.7018 15.7414
492 2 43.1677 46.8692 15.8116
493 2 47.0972 47.1291 0.114794
494 2 51.0221 46.877 16.1426
495 2 55.2764 47.1082 15.9355
496 2 59.1795 47.1324 15.7479
497 2 63.2926 47.0591 0.0690424
498 2 67.3759 47.2166 0.243932
499 2 71.338 47.2984 15.9008
500 2 75.1592 47.2215 0.175781
501 2 79.3582 47.2259 15.8626
502 2 83.4339 47.4934 16.0703
503 2 87.4502 47.7265 0.080553
504 2 91.3304 47.6015 0.272355
505 2 95.4739 47.4308 0.0117527
506 2 99.4126 47.736 0.195126
507 2 103.436 47.7267 0.158884
508 2 107.344 47.8067 15.9515
509 2 111.476 47.7202 15.9556
510 2 115.535 47.7371 0.0236377
511 2 119.253 47.8176 16.0042
512 2 123.022 47.6258 16.1018
513 2 126.887 47.5582 16.0496
514 2 131.035 47.6069 15.945
515 2 134.947 47.4109 16.136
516 2 138.857 47.4702 16.0697
517 2 142.573 47.3716 16.01
518 2 146.675 47.2909 0.250752
519 2 150.535 47.216 0.0861511
520 2 154.497 46.9908 16.104
521 2 158.31 50.9921 0.194621
522 2 3.83009 51.1763 15.7434
523 2 7.88235 50.9273 15.8484
524 2 11.8016 50.8088 15.9659
525 2 15.5383 50.8491 0.0325065
526 2 19.5279 50.787 15.8774
527 2 23.4576 50.8791 15.7924
528 2 27.5353 51.0273 15.8541
529 2 31.4831 50.6986 0.193532
530 2 35.4161 50.7124 0.0700565
531 2 39.3566 50.7083 15.9836
532 2 43.0857 50.6937 16.0575
533 2 47.0595 50.8808 0.132312
534 2 50.9451 50.6335 0.281086
535 2 54.9236 50.7898 0.254386
536 2 59.1828 51.1313 15.7627
537 2 63.381 51.1171 15.7776
538 2 67.3939 51.2482 0.111725
539 2 71.2191 50.9889 0.310493
540 2 75.334 51.296 0.423917
541 2 79.3718 51.338 0.195768
542 2 83.332 51.4012 0.221026
543 2 87.2484 51.4984 0.0418968
544 2 91.2559 51.6434 0.244708
545 2 95.2178 51.4378 0.290277
546 2 99.3161 51.697 0.0524789
547 2 103.295 51.6182 15.9883
548 2 107.363 51.7704 0.238946
549 2 111.327 51.5879 0.193555
550 2 115.297 51.4989 15.9899
551 2 119.362 51.8419 16.077
552 2 123.305 51.742 16.0738
553 2 127.151 51.5354 15.8593
554 2 130.793 51.5966 0.267317
555 2 134.84 51.4588 0.307574
556 2 138.521 51.2447 0.103966
557 2 142.76 51.159 0.189908
558 2 146.565 51.1907 15.9156
559 2 150.55 51.116 0.140885
560 2 154.437 51.0473 -0.0287372
561 2 158.45 55.2285 0.01036
562 2 3.96726 54.9873 0.134091
563 2 7.82618 54.9287 -0.0648402
564 2 11.9435 54.8954 0.00509219
565 2 15.8283 54.7101 0.0911422
566 2 19.6273 54.8702 15.796
567 2 23.3966 54.9479 16.0296
568 2 27.4295 54.8281 15.6841
569 2 31.4214 54.782 -0.115599
570 2 35.4815 54.7396 0.0199068
571 2 39.2572 54.7881 15.9072
572 2 43.2368 54.7451 16.0454
573 2 47.3467 54.6125 0.351168
574 2 51.1529 54.6645 15.8263
575 2 55.1281 54.7393 16.0182
576 2 59.1872 54.8092 15.781
577 2 63.2394 55.0224 15.9139
578 2 67.2189 55.1979 0.00441755
579 2 71.2571 55.0448 0.274483
580 2 75.2008 54.8596 15.8531
581 2 79.3697 55.1834 0.276773
582 2 83.186 55.2489 0.203318
583 2 87.0918 55.3497 0.15908
584 2 91.116 55.1938 15.8932
585 2 95.2882 55.4871 0.160139
586 2 99.2947 55.4274 15.8788
587 2 103.227 55.4697 15.9636
588 2 107.175 55.6905 0.193678
589 2 111.321 55.4358 15.9768
590 2 115.267 55.6015 16.0059
591 2 119.189 55.6222 15.8444
592 2 123.263 55.3783 0.0498429
593 2 127.329 55.751 16.0214
594 2 131.12 55.4202 16.0462
595 2 135.029 55.3076 0.294547
596 2 138.903 55.1722 15.7819
597 2 142.693 55.3353 0.121054
598 2 146.581 55.2681 0.158035
599 2 150.653 55.1039 0.109937
600 2 154.552 55.0768 15.7449
601 2 158.267 59.0534 -0.102579
602 2 3.76868 59.2054 15.7336
603 2 7.80815 59.2371 15.9223
604 2 11.8045 58.8648 0.0920153
605 2 15.6596 58.9179 15.8812
606 2 19.6933 58.9966 0.02177
607 2 23.522 58.7117 0.134872
608 2 27.6551 58.9759 0.0734215
609 2 31.5685 58.8533 15.9845
610 2 35.4873 58.9417 15.9458
611 2 39.3811 58.6147 16.0205
612 2 43.1292 58.6186 15.9074
613 2 46.9703 58.4432 16.0047
614 2 51.0144 58.7441 15.9265
615 2 54.9509 58.5893 15.938
616 2 59.0622 58.7671 0.404084
617 2 63.1338 58.7133 15.8747
618 2 67.0778 58.9978 0.305798
619 2 71.0503 59.0017 15.7062
620 2 75.0576 58.8934 0.0867348
621 2 78.9824 59.1604 0.072524
622 2 83.0484 59.2555 0.208647
623 2 87.0228 59.168 16.0198
624 2 91.2391 59.1776 15.7994
625 2 95.1635 59.4278 0.0125923
626 2 99.2307 59.3069 0.153906
627 2 103.09 59.4278 16.0999
628 2 107.219 59.2099 0.107791
629 2 111.171 59.5488 15.9207
630 2 115.087 59.4132 15.8614
631 2 119.202 59.5687 16.0349
632 2 123.278 59.5334 0.0723145
633 2 127.082 59.6596 15.852
634 2 131.082 59.6495 0.230308
635 2 134.954 59.4438 15.9524
636 2 138.796 59.2108 -0.0189736
637 2 142.807 59.2476 0.165427
638 2 146.691 59.2008 0.112145
639 2 150.597 59.3084 15.7715
640 2 154.367 59.0764 0.107977
641 2 -0.0318302 62.9484 0.103218
642 2 3.97226 62.9367 0.0248562
643 2 8.09205 63.0705 15.8167
644 2 11.9053 62.9758 15.9355
645 2 15.9336 63.1064 15.8439
646 2 19.7714 62.6537 0.0069926
647 2 23.5534 62.9809 0.00039092
648 2 27.6784 62.8697 0.189742
649 2 31.5537 62.7726 0.158948
650 2 35.5328 62.8788 0.1498
651 2 39.2613 62.7039 16.0838
652 2 43.2189 62.8134 0.124299
653 2 47.1656 62.5411 15.5816
654 2 51.0681 62.7442 15.8696
655 2 54.9047 62.6551 0.329487
656 2 59.0029 62.4865 15.9969
657 2 63.0594 62.8539 0.263438
658 2 67.0049 62.7069 16.161
659 2 71.1624 62.6467 0.108932
660 2 75.0546 63.0368 -0.0945044
661 2 78.9766 62.9718 0.135348
662 2 82.9655 63.0733 0.156547
663 2 87.0864 63.1382 15.8437
664 2 91.1015 63.0709 15.975
665 2 95.1105 63.3551 0.276409
666 2 99.0217 63.3778 0.0206646
667 2 103.173 63.1867 15.8709
668 2 107.075 63.4085 16.077
669 2 111.003 63.3828 16.0228
670 2 115.12 63.4157 0.192311
671 2 119.064 63.3843 16.021
672 2 123.09 63.3919 0.162307
673 2 127.157 63.4182 15.9548
674 2 131.072 63.3622 0.166759
675 2 135.005 63.3684 15.79
676 2 139.045 63.3294 15.9269
677 2 142.858 63.3691 16.0619
678 2 146.725 63.2706 0.120942
679 2 150.621 63.2378 15.9016
680 2 154.437 63.1295 0.156213
681 2 0.0431318 67.1079 0.231212
682 2 4.0791 66.8965 0.174463
683 2 7.9244 67.1767 15.7905
684 2 11.9209 67.0732 16.0055
685 2 16.0507 66.9377 0.024265
686 2 19.8121 66.7049 0.0939071
687 2 23.6985 66.7475 0.0629891
688 2 27.6676 66.8209 0.101737
689 2 31.609 66.9021 0.0694194
690 2 35.5422 66.8479 0.308107
691 2 39.4173 66.7939 16.1116
692 2 43.1884 66.6974 0.365875
693 2 47.1196 66.5555 15.8806
694 2 50.964 66.4877 15.9709
695 2 55.0927 66.5833 16.0109
696 2 59.1193 66.5888 15.9446
697 2 62.9926 66.6974 16.0728
698 2 66.9307 66.4916 15.8341
699 2 70.9673 66.8278 0.154985
700 2 74.9301 66.8847 15.7771
701 2 79.0389 66.8957 15.9233
702 2 83.0582 66.9096 0.214062
703 2 87.0088 67.0687 15.9013
704 2 90.9836 67.1601 15.8289
705 2 94.983 67.1657 0.101945
706 2 99.0586 67.1102 0.0714831
707 2 102.966 67.2703 0.258807
708 2 106.873 67.2418 15.9713
709 2 110.939 67.3016 15.9119
710 2 115.079 67.2685 15.9171
711 2 119.174 67.3345 0.262754
712 2 123.056 67.3538 0.181156
713 2 127.016 67.3239 -0.0454983
714 2 131.133 67.4435 15.9051
715 2 134.987 67.2439 0.0830471
716 2 138.888 67.2942 0.120746
717 2 142.793 67.4374 16.035
718 2 146.42 67.421 15.9904
719 2 150.657 67.1185 16.0142
720 2 154.316 67.2447 0.0268031
721 2 0.190231 71.118 0.140171
722 2 4.08908 70.9839 15.8984
723 2 8.11417 71.1081 0.267012
724 2 12.0686 71.0741 15.6628
725 2 15.9119 70.9233 0.0553663
726 2 19.6351 70.9304 0.17595
727 2 23.5248 70.8209 0.151445
728 2 27.5818 70.761 15.9016
729 2 31.5868 70.7056 0.0597808
730 2 35.4848 70.781 0.125739
731 2 39.4881 70.8074 16.0828
732 2 43.3252 70.6689 0.180964
733 2 47.1308 70.492 15.9954
734 2 51.1359 70.572 15.7516
735 2 54.9927 70.6347 0.283064
736 2 58.9941 70.4531 0.290263
737 2 62.8725 70.6536 0.0406846
738 2 66.9873 70.5806 15.8343
739 2 70.9244 70.7221 15.9419
740 2 74.9807 70.6826 15.7041
741 2 79.1187 70.7475 0.0819374
742 2 82.9998 70.8656 0.172219
743 2 86.885 71.0357 15.9326
744 2 90.8031 71.0851 15.9885
745 2 94.982 71.2047 16.0063
746 2 98.8499 71.1125 15.9707
747 2 102.891 71.071 15.8802
748 2 106.994 70.9436 16.0053
749 2 110.943 71.2231 15.8768
750 2 114.934 71.2044 0.255011
751 2 118.929 71.1361 15.9868
752 2 123.227 71.3471 0.258893
753 2 127.05 71.1537 15.9599
754 2 130.945 71.443 15.9664
755 2 135.026 71.3173 15.91
756 2 138.983 71.5162 16.0613
757 2 142.893 71.4486 0.0657131
758 2 146.733 71.48 0.203262
759 2 150.662 71.0812 -0.0402745
760 2 154.619 71.0217 15.983
761 2 0.143158 75.0387 0.336175
762 2 4.05451 75.0182 15.8046
763 2 8.14385 75.1941 15.743
764 2 11.8466 75.1282 16.0554
765 2 15.6162 74.9604 16.1021
766 2 19.6892 74.9892 16.0053
767 2 23.485 74.8984 15.9254
768 2 27.6698 74.8273 15.9797
769 2 31.6915 74.7698 0.051534
770 2 35.3575 74.6348 15.773
771 2 39.3417 74.7985 16.0544
772 2 43.5326 74.498 0.0798866
773 2 47.2811 74.4882 15.8076
774 2 51.1307 74.5536 0.0720744
775 2 54.925 74.4529 16.0072
776 2 58.9753 74.5123 16.0101
777 2 63.0205 74.5465 15.9827
778 2 67.061 74.5835 0.121625
779 2 70.9068 74.4421 0.0445622
780 2 74.7052 74.5807 0.179007
781 2 78.8547 74.8274 0.108876
782 2 82.8639 74.7272 0.0292984
783 2 87.0007 74.9733 0.240614
784 2 90.8347 74.8848 16.0054
785 2 94.9339 74.9805 15.9567
786 2 98.787 75.0016 0.262629
787 2 102.719 75.1959 16.009
788 2 106.799 74.8064 15.9465
789 2 110.776 75.0346 16.0508
790 2 114.775 75.1215 16.0098
791 2 118.9 75.0418 0.0595688
792 2 123.158 75.2896 16.1295
793 2 126.999 75.0971 15.7399
794 2 130.703 75.0522 0.20775
795 2 135.012 75.2636 16.026
796 2 138.866 75.3446 16.0004
797 2 142.709 75.3775 15.9068
798 2 146.8 75.351 16.1215
799 2 150.548 75.2772 0.324591
800 2 154.661 74.9991 0.388706
801 2 0.249698 78.9926 0.141206
802 2 4.14577 79.0581 16.003
803 2 7.96061 79.0623 0.213285
804 2 11.9254 79.0368 0.155688
805 2 15.9336 78.9905 15.8478
806 2 20.058 78.9578 15.727
807 2 23.7195 78.6979 -0.0358944
808 2 27.6829 78.9369 0.406011
809 2 31.6024 78.6251 0.243779
810 2 35.4374 78.6713 0.199703
811 2 39.3761 78.3134 15.9099
812 2 43.2336 78.4736 15.907
813 2 47.1251 78.8021 15.9976
814 2 51.0892 78.5501 0.130935
815 2 54.9908 78.4321 0.0415682
816 2 58.8229 78.4761 15.8975
817 2 62.8376 78.4005 15.7987
818 2 66.7843 78.5169 -0.0783366
819 2 70.8222 78.4321 15.8482
820 2 74.8078 78.6904 0.297932
821 2 78.9262 78.7033 15.8143
822 2 82.6459 78.623 15.8955
823 2 86.6847 78.7708 0.0866176
824 2 90.9321 78.8741 0.100021
825 2 94.8939 78.9006 0.22425
826 2 98.9874 78.8255 15.9613
827 2 102.884 79.1717 15.993
828 2 106.618 79.0108 0.349932
829 2 110.578 78.991 0.17423
830 2 114.787 79.1068 0.259568
831 2 118.923 79.0076 0.276838
832 2 122.885 79.1346 15.7669
833 2 126.89 79.2533 0.173189
834 2 131.054 79.1244 16.0525
835 2 134.977 79.1033 0.149469
836 2 139.031 79.1157 15.8469
837 2 142.954 79.4339 16.0302
838 2 147.003 79.3176 15.9187
839 2 150.817 79.3489 15.8158
840 2 154.655 79.0498 0.150446
841 2 0.246936 83.0637 15.7747
842 2 4.16534 83.1521 15.9031
843 2 8.13736 82.987 0.163418
844 2 12.2035 83.0218 16.023
845 2 16.0954 82.8547 15.9756
846 2 19.8353 82.7969 0.0553286
847 2 23.8155 82.7895 15.8945
848 2 27.7654 82.7194 0.21407
849 2 31.5589 82.8349 15.927
850 2 35.4836 82.6308 0.0860738
851 2 39.6451 82.7522 0.0794663
852 2 43.5514 82.5551 15.9962
853 2 47.1746 82.6143 0.101385
854 2 51.2136 82.557 0.15562
855 2 54.9767 82.7265 0.0760503
856 2 59.0374 82.615 16.1511
857 2 62.9127 82.5289 15.7081
858 2 66.7067 82.3938 15.7946
859 2 70.7937 82.4109 15.852
860 2 74.6333 82.492 15.9315
861 2 78.6709 82.7196 15.8267
862 2 82.6481 82.5511 0.329088
863 2 86.8812 82.5702 0.275309
864 2 90.8291 82.5671 15.916
865 2 94.7378 82.7855 0.0255723
866 2 98.787 82.9082 15.86
867 2 102.678 82.7469 0.314457
868 2 106.803 82.8499 16.0532
869 2 110.696 82.7752 15.8152
870 2 114.834 83.0704 16.0957
871 2 118.892 83.0384 15.9373
872 2 122.881 83.0012 16.0142
873 2 126.765 82.9552 16.1777
874 2 130.874 82.9265 16.1853
875 2 134.876 83.1744 0.256104
876 2 138.902 83.1294 16.0919
877 2 142.874 83.0976 0.17928
878 2 146.84 83.2166 15.8245
879 2 150.668 83.3502 0.223952
880 2 154.683 83.036 0.104691
881 2 0.392687 87.0276 16.1146
882 2 4.15256 86.9498 0.199287
883 2 8.02924 87.0946 15.8759
884 2 12.0936 86.8202 16.0343
885 2 16.0013 86.8543 16.0681
886 2 19.9776 86.6208 15.8656
887 2 23.7446 86.8229 16.0226
888 2 27.7119 86.7671 -0.0166003
889 2 31.7138 86.9073 15.8329
890 2 35.5765 86.7244 0.165155
891 2 39.3655 86.8663 16.0703
892 2 43.3397 86.6913 15.9714
893 2 47.442 86.5872 15.7747
894 2 51.2591 86.5984 15.8617
895 2 55.185 86.6763 16.0002
896 2 58.9451 86.6389 0.102499
897 2 62.8549 86.3383 -0.0535112
898 2 66.735 86.4194 15.8974
899 2 70.7155 86.2791 0.16714
900 2 74.4094 86.4817 15.9769
901 2 78.5569 86.446 0.16389
902 2 82.5637 86.5213 0.294314
903 2 86.7437 86.7032 15.9718
904 2 90.8782 86.7494 15.7759
905 2 94.7538 86.71 16.0888
906 2 98.5247 86.7962 15.8875
907 2 102.857 86.737 0.17259
908 2 106.647 86.8377 0.324958
909 2 110.755 86.7919 16.1894
910 2 114.795 86.7828 0.276833
911 2 118.793 86.9367 0.224685
912 2 122.669 87.0686 -0.00954588
913 2 126.646 86.9295 15.9855
914 2 130.849 86.8669 15.9977
915 2 134.789 87.0036 16.2023
916 2 138.987 86.948 16.0533
917 2 142.77 86.8256 15.7781
918 2 146.935 87.1402 0.185285
919 2 150.814 87.2403 16.0884
920 2 154.704 87.0857 15.7988
921 2 0.493928 91.1252 0.265599
922 2 4.38574 91.1015 0.175931
923 2 8.21564 90.8994 15.7911
924 2 12.2019 90.9213 15.9855
925 2 15.9788 90.8153 0.142385
926 2 19.8251 90.8443 0.326962
927 2 23.8876 90.8221 15.9376
928 2 27.6296 90.8406 15.8861
929 2 31.6225 90.8375 15.8648
930 2 35.6301 90.585 -0.109351
931 2 39.5186 90.6415 15.9091
932 2 43.4284 90.6288 15.9846
933 2 47.3197 90.5469 0.0461123
934 2 51.1952 90.6633 0.115
935 2 54.9601 90.6741 0.104004
936 2 58.8912 90.5327 0.0943865
937 2 63.1004 90.4188 0.110513
938 2 66.8663 90.4608 15.8806
939 2 70.7796 90.5647 15.8435
940 2 74.6212 90.3792 0.0942317
941 2 78.5277 90.4051 0.185788
942 2 82.653 90.4781 0.306782
943 2 86.6012 90.4479 0.264392
944 2 90.6514 90.6972 0.336617
945 2 94.5796 90.7876 15.9539
946 2 98.7246 90.6051 16.0927
947 2 102.66 90.543 0.0618213
948 2 106.681 90.8109 15.7838
949 2 110.716 90.9365 16.0339
950 2 114.812 90.6022 0.162077
951 2 118.614 90.9311 0.141854
952 2 122.64 90.7887 16.0433
953 2 126.704 90.785 0.0609901
954 2 130.791 90.8731 0.325904
955 2 134.931 90.9873 16.1219
956 2 138.746 90.9366 15.9827
957 2 142.937 91.0208 15.9937
958 2 146.881 90.9318 15.7755
959 2 150.82 91.2254 15.7802
960 2 154.684 91.1204 16.0336
961 2 0.318009 95.1009 0.199884
962 2 4.55487 95.1066 15.8993
963 2 8.32027 94.8637 16.0607
964 2 12.2259 94.7703 15.9778
965 2 16.1965 94.9745 15.9492
966 2 19.9856 94.8213 16.0908
967 2 24.0173 94.7746 15.9054
968 2 27.8094 95.0166 15.7193
969 2 31.5533 94.8351 15.7121
970 2 35.4052 94.779 15.8275
971 2 39.4266 94.6936 16.0911
972 2 43.4864 94.5829 15.9396
973 2 47.3599 94.6946 0.115749
974 2 51.181 94.5211 15.8531
975 2 55.0758 94.6918 0.120234
976 2 58.9949 94.5116 16.0093
977 2 62.9539 94.4662 0.0492166
978 2 66.8244 94.4078 -0.0904228
979 2 70.714 94.4442 0.20481
980 2 74.7626 94.2621 -0.000464009
981 2 78.656 94.4603 16.1364