ITEM: TIMESTEP
24900
ITEM: NUMBER OF ATOMS
32000
ITEM: BOX BOUNDS xy xz yz pp pp pp
0.0000000000000000e+00 1.5831999999999999e+02 0.0000000000000000e+00
0.0000000000000000e+00 1.5831999999999999e+02 0.0000000000000000e+00
1.6522319465362578e-01 1.5932488805346175e+01 0.0000000000000000e+00
ITEM: ATOMS id type x y z
1 2 157.964 157.829 15.867
2 2 3.68537 157.582 15.7984
3 2 7.75063 157.953 0.289796
4 2 11.7586 157.816 0.261977
5 2 15.9041 157.9 0.264303
6 2 19.7912 157.854 15.8033
7 2 23.7552 157.899 15.9162
8 2 27.842 158.061 15.9818
9 2 31.7869 157.985 0.137915
10 2 35.7079 158.097 15.9119
11 2 39.7129 -0.194918 15.7814
12 2 43.7956 -0.226069 0.0578188
13 2 47.6687 0.109066 15.7361
14 2 51.9369 -0.0144499 0.0636065
15 2 55.9157 158.403 0.028992
16 2 59.7837 158.423 15.7786
17 2 63.9453 0.160031 15.9073
18 2 67.8818 0.108912 15.9062
19 2 71.7626 0.0906456 16.044
20 2 75.6843 158.615 16.0859
21 2 79.5412 0.119514 16.0575
22 2 83.5214 158.379 15.9251
23 2 87.2828 158.337 15.9057
24 2 91.2016 158.331 0.0642748
25 2 95.2613 158.334 16.0987
26 2 99.344 158.278 16.1776
27 2 102.848 158.281 15.9615
28 2 106.856 158.057 15.9114
29 2 110.851 158.093 0.347373
30 2 114.791 158.006 0.172534
31 2 118.575 157.83 16.1839
32 2 122.508 157.85 0.145723
33 2 126.475 157.723 0.214532
34 2 130.562 157.756 0.081312
35 2 134.465 157.601 15.8751
36 2 138.166 157.706 16.0569
37 2 142.242 157.541 15.9856
38 2 146.154 157.412 16.0793
39 2 150 157.393 0.127552
40 2 154.168 157.792 0.159012
41 2 157.984 3.24503 16.0463
42 2 3.56254 3.17695 15.8174
43 2 7.83307 3.39757 0.271502
44 2 11.7246 3.62765 16.0496
45 2 15.8069 3.63382 15.8293
46 2 19.7067 3.57554 15.8424
47 2 23.85 3.35875 0.28816
48 2 27.704 3.45924 0.0302049
49 2 31.7628 3.6774 -0.0138851
50 2 35.6823 3.50724 -0.0675173
51 2 39.7005 3.6433 0.064874
52 2 43.7506 3.73464 15.8364
53 2 47.8436 3.8093 16.0007
54 2 51.8509 3.88408 15.8447
55 2 55.7551 4.02793 0.0137957
56 2 59.8062 4.02618 15.9618
57 2 63.8303 4.12584 15.7545
58 2 67.8958 4.30638 16.0304
59 2 71.6863 4.1175 16.1271
60 2 75.7886 4.25961 16.0408
61 2 79.7275 4.21666 16.1324
62 2 83.7599 4.20102 16.0539
63 2 87.3446 4.17145 16.049
64 2 91.4133 4.15577 0.212286
65 2 95.3226 3.74582 16.0107
66 2 99.2804 3.89577 0.329114
67 2 102.947 3.87839 15.9517
68 2 107.004 3.68197 15.8363
69 2 110.84 3.67552 0.124933
70 2 114.842 3.63857 0.162637
71 2 118.734 3.55916 0.161704
72 2 122.793 3.65118 0.314803
73 2 126.422 3.49087 0.338585
74 2 130.354 3.493 0.0658425
75 2 134.408 3.31032 15.8562
76 2 138.304 3.26604 0.0196139
77 2 142.167 3.23456 0.120549
78 2 146.234 3.38386 0.190567
79 2 150.204 3.20287 15.8433
80 2 153.931 3.1555 15.8411
81 2 157.733 7.12452 15.7022
82 2 3.46677 7.28579 15.6635
83 2 7.54537 7.26514 16.1979
84 2 11.8065 7.2809 0.274745
85 2 15.7903 7.20458 15.9901
86 2 19.7757 7.21818 15.9994
87 2 23.6612 7.54478 0.185545
88 2 27.8481 7.43265 15.7696
89 2 31.6598 7.48611 15.7716
90 2 35.7148 7.52775 16.0424
91 2 39.6711 7.36694 0.209603
92 2 43.6113 7.61266 0.133305
93 2 47.6475 7.77806 16.015
94 2 51.6506 7.74158 0.137073
95 2 55.7719 7.91768 16.0875
96 2 59.7259 7.91909 0.0873464
97 2 63.7051 8.02368 15.932
98 2 67.4756 8.26014 15.9986
99 2 71.7678 7.95483 16.1093
100 2 75.7603 8.33082 16.1967
101 2 79.7753 8.3347 0.366946
102 2 83.7908 8.1129 15.9856
103 2 87.4363 8.2233 15.8601
104 2 91.287 8.31293 16.0155
105 2 95.2408 7.92286 15.9986
106 2 99.3494 7.83422 0.35662
107 2 103.249 7.94535 0.319246
108 2 107.024 7.92379 15.7231
109 2 111.12 7.78261 0.113795
110 2 115.003 7.62965 16.0419
111 2 118.877 7.61292 15.8989
112 2 122.753 7.61508 15.8254
113 2 126.582 7.68158 15.8974
114 2 130.535 7.4278 0.254291
115 2 134.485 7.2008 0.226727
116 2 138.416 7.25945 15.9911
117 2 142.303 7.11674 15.9193
118 2 146.328 7.35044 0.152633
119 2 150.137 7.27037 0.103316
120 2 154.187 7.08171 15.8396
121 2 158.065 10.907 15.9868
122 2 3.68739 11.0048 15.827
123 2 7.68143 11.2194 16.0412
124 2 11.3829 11.1068 0.482548
125 2 15.5546 11.0562 16.138
126 2 19.6044 11.251 16.0077
127 2 23.5048 11.3698 16.0139
128 2 27.6489 11.404 16.0479
129 2 31.6202 11.4573 15.989
130 2 35.7409 11.456 15.8465
131 2 39.7066 11.4968 16.0144
132 2 43.7454 11.6642 0.179118
133 2 47.7071 11.7562 0.0215369
134 2 51.6023 11.7835 15.8946
135 2 55.6125 11.785 0.242274
136 2 59.7897 11.9243 16.0702
137 2 63.6686 12.0285 0.340432
138 2 67.7032 12.179 15.9677
139 2 71.6304 12.1387 16.0674
140 2 75.6242 12.0373 16.0487
141 2 79.7303 12.1059 15.9615
142 2 83.6247 12.253 15.9844
143 2 87.5908 12.3266 0.327965
144 2 91.4233 12.1303 0.212181
145 2 95.3324 12.017 16.0472
146 2 99.2967 11.9163 15.7605
147 2 103.045 11.8936 0.12513
148 2 107.235 11.931 15.8751
149 2 110.848 11.7115 0.0366402
150 2 114.984 11.6511 16.0377
151 2 118.807 11.7717 0.150664
152 2 122.694 11.5472 0.209998
153 2 126.771 11.5661 15.9499
154 2 130.652 11.435 15.8967
155 2 134.475 11.2756 0.155735
156 2 138.452 11.4877 0.00372326
157 2 142.377 11.336 0.19
158 2 146.288 11.1675 0.127005
159 2 150.231 11.0529 0.145741
160 2 153.95 11.0166 0.145119
161 2 157.995 14.9362 15.9453
162 2 3.68026 14.8908 16.0224
163 2 7.54748 14.9636 16.0343
164 2 11.5866 15.1499 15.9421
165 2 15.4857 15.1005 15.9444
166 2 19.5656 15.2937 0.209349
167 2 23.6811 15.2816 0.249499
168 2 27.6083 15.2301 15.9012
169 2 31.5884 15.499 0.24228
170 2 35.5471 15.4214 15.7771
171 2 39.5461 15.4838 0.0130028
172 2 43.6614 15.5658 0.123257
173 2 47.6422 15.4897 0.136726
174 2 51.5859 15.6805 0.210024
175 2 55.6155 15.7559 15.9156
176 2 59.4425 15.8932 0.247143
177 2 63.4531 15.7873 16.0175
178 2 67.635 15.9253 16.0564
179 2 71.779 15.9274 0.265705
180 2 75.8023 16.1435 0.210046
181 2 79.6502 15.9717 16.2049
182 2 83.653 16.2122 0.226621
183 2 87.6411 16.0803 16.0537
184 2 91.6446 15.9862 0.164257
185 2 95.4752 15.9856 15.9957
186 2 99.5314 15.8003 16.1284
187 2 103.374 15.9515 15.8601
188 2 107.162 15.8143 15.8918
189 2 110.994 15.7233 15.976
190 2 114.951 15.5924 15.8473
191 2 118.765 15.5959 0.141378
192 2 122.719 15.6325 15.6501
193 2 126.661 15.6027 16.023
194 2 130.707 15.5164 0.171677
195 2 134.376 15.2643 0.23305
196 2 138.375 15.2413 0.177246
197 2 142.404 15.4319 15.9878
198 2 146.208 15.1571 0.000561322
199 2 150.191 15.1869 0.187344
200 2 154.3 15.1432 15.8218
201 2 158.088 19.044 16.1869
202 2 3.55672 19.1242 0.238866
203 2 7.5422 18.9818 0.233991
204 2 11.3936 18.9561 16.1377
205 2 15.6276 19.2075 15.8912
206 2 19.5569 19.1288 15.996
207 2 23.568 18.9996 16.053
208 2 27.6342 19.3832 16.047
209 2 31.6123 19.2751 15.9857
210 2 35.616 19.1732 15.9556
211 2 39.6437 19.242 -0.159667
212 2 43.6235 19.3336 15.7853
213 2 47.4031 19.3686 15.7499
214 2 51.5357 19.5673 0.280821
215 2 55.4535 19.5991 15.7409
216 2 59.5262 19.8729 15.8732
217 2 63.7293 19.8326 15.8574
218 2 67.5347 19.61 15.9911
219 2 71.6088 20.0389 0.064241
220 2 75.6735 19.8517 0.189018
221 2 79.7062 19.9071 0.267638
222 2 83.6457 20.0106 16.0046
223 2 87.6694 20.0758 0.177532
224 2 91.5392 19.9038 0.234474
225 2 95.6159 20.0708 16.3068
226 2 99.4142 20.0074 16.0372
227 2 103.491 19.9007 15.8382
228 2 107.412 19.7903 15.9258
229 2 111.184 19.6819 0.0757125
230 2 115.038 19.6082 16.0391
231 2 119.019 19.5957 15.8946
232 2 122.848 19.6356 16.0239
233 2 126.869 19.502 15.9485
234 2 130.748 19.578 16.0761
235 2 134.55 19.3257 0.366253
236 2 138.554 19.3608 16.1586
237 2 142.401 19.2258 16.0706
238 2 146.269 19.2426 -0.0464623
239 2 150.294 19.1041 16.0493
240 2 154.14 19.1884 0.205361
241 2 158.085 22.9519 15.9971
242 2 3.63262 22.8383 16.0795
243 2 7.7541 23.0294 0.21691
244 2 11.6585 22.9038 0.3798
245 2 15.3896 22.9569 15.8089
246 2 19.4235 23.2593 16.0878
247 2 23.613 23.0445 15.9682
248 2 27.6124 23.2418 16.0654
249 2 31.6839 23.0892 0.148674
250 2 35.3566 23.2771 15.8222
251 2 39.3427 23.2315 0.30368
252 2 43.6344 23.2679 16.1169
253 2 47.4606 23.5464 0.345214
254 2 51.4292 23.3669 0.164302
255 2 55.4583 23.665 0.406316
256 2 59.5134 23.766 16.044
257 2 63.5567 23.7994 0.173116
258 2 67.5578 23.8947 15.9055
259 2 71.5641 23.8018 15.9655
260 2 75.769 23.9216 0.132187
261 2 79.6662 23.9073 15.9925
262 2 83.6438 23.9507 0.215433
263 2 87.5504 23.9464 16.0248
264 2 91.4601 23.8325 15.9911
265 2 95.5286 24.0489 16.0249
266 2 99.4128 24.1521 0.145005
267 2 103.334 24.0024 15.8057
268 2 107.468 23.8745 16.0449
269 2 111.285 23.755 0.160447
270 2 115.273 23.58 15.8323
271 2 118.967 23.7262 15.8562
272 2 122.941 23.6476 0.248013
273 2 126.73 23.6562 15.9787
274 2 130.722 23.58 16.1747
275 2 134.584 23.4115 15.9479
276 2 138.48 23.5609 16.1487
277 2 142.543 23.2643 15.9243
278 2 146.251 23.1597 0.200742
279 2 150.151 23.269 0.200064
280 2 154.246 23.1511 0.22909
281 2 158.22 27.0389 0.293037
282 2 3.76956 27.1141 0.340887
283 2 7.46759 26.8915 0.263424
284 2 11.7137 27.0522 15.9563
285 2 15.4957 26.8128 15.849
286 2 19.3708 27.0256 0.297104
287 2 23.5439 27.1451 16.0024
288 2 27.403 27.1061 15.9308
289 2 31.5973 27.004 0.0409573
290 2 35.6923 27.1261 0.110286
291 2 39.624 27.2125 0.191574
292 2 43.5103 27.4254 0.27003
293 2 47.48 27.3884 0.0387402
294 2 51.3815 27.349 15.9997
295 2 55.5398 27.4574 0.227096
296 2 59.5699 27.5726 16.0323
297 2 63.4885 27.4455 15.9493
298 2 67.5846 27.7422 15.9765
299 2 71.4639 27.7274 15.9
300 2 75.6845 27.8183 0.175295
301 2 79.5332 28.0406 0.369099
302 2 83.5125 27.9811 15.8202
303 2 87.4624 27.7847 0.181251
304 2 91.5161 27.8543 0.152913
305 2 95.4456 27.887 0.162922
306 2 99.3074 27.8622 0.250862
307 2 103.272 27.9749 15.8048
308 2 107.18 27.7827 0.129102
309 2 111.275 27.7381 15.8357
310 2 115.165 27.7522 16.0473
311 2 118.986 27.7076 0.0659671
312 2 123.071 27.452 0.321601
313 2 126.84 27.5296 16.053
314 2 130.775 27.5521 15.8792
315 2 134.735 27.429 16.0662
316 2 138.515 27.2637 15.8367
317 2 142.645 27.2655 0.187015
318 2 146.478 27.3028 0.0208854
319 2 150.214 27.0929 0.0860305
320 2 154.209 27.3623 0.366813
321 2 158.106 31.271 16.1369
322 2 3.64459 31.1391 15.8566
323 2 7.77707 30.8603 15.7412
324 2 11.6025 30.8149 0.316715
325 2 15.5792 30.8395 0.126827
326 2 19.4378 30.9152 16.0451
327 2 23.2918 30.8776 15.9438
328 2 27.5179 30.9497 -0.144609
329 2 31.6704 30.9482 15.9706
330 2 35.5031 31.1038 15.8935
331 2 39.5177 31.2933 16.1293
332 2 43.4867 31.2645 0.0391753
333 2 47.4279 31.2713 15.8719
334 2 51.323 31.3447 0.268656
335 2 55.1378 31.4186 15.9065
336 2 59.3334 31.6616 0.114957
337 2 63.3976 31.604 16.0226
338 2 67.5085 31.5826 0.184456
339 2 71.6103 31.6318 -0.0951654
340 2 75.425 31.7636 0.254517
341 2 79.5367 31.832 16.0024
342 2 83.6152 31.8191 0.150528
343 2 87.4917 31.7889 15.7662
344 2 91.6341 31.8461 16.076
345 2 95.4117 32.0297 15.8501
346 2 99.5928 31.9096 0.151295
347 2 103.498 32.099 15.832
348 2 107.388 31.7253 15.8516
349 2 111.167 31.8689 15.9341
350 2 115.11 31.7457 15.9003
351 2 119.112 31.5458 15.9676
352 2 123.024 31.5789 16.0857
353 2 126.938 31.3778 15.9578
354 2 130.839 31.4792 16.0259
355 2 134.632 31.4487 15.9222
356 2 138.56 31.3098 16.0557
357 2 142.502 31.2559 0.330125
358 2 146.545 31.3146 15.9135
359 2 150.428 31.0411 0.169954
360 2 154.258 31.0645 0.239467
361 2 -0.102064 35.1197 0.316879
362 2 4.13717 35.1365 15.8381
363 2 8.00902 35.0848 15.8637
364 2 11.9133 34.866 16.0153
365 2 15.634 34.8368 0.112086
366 2 19.7335 35.0565 0.19514
367 2 23.6013 34.8798 0.0924675
368 2 27.5169 34.9682 0.347617
369 2 31.482 34.9607 0.121367
370 2 35.4603 35.0577 0.417118
371 2 39.5105 35.0313 0.21044
372 2 43.3465 35.2468 16.039
373 2 47.5032 35.1207 16.0823
374 2 51.3116 35.3083 15.9656
375 2 55.4149 35.2735 0.24129
376 2 59.5095 35.4658 0.275539
377 2 63.326 35.5235 15.8051
378 2 67.3175 35.6472 0.034708
379 2 71.3988 35.6248 -0.029614
380 2 75.3646 35.6695 15.9655
381 2 79.4865 35.678 0.228307
382 2 83.57 35.7917 15.8677
383 2 87.4412 35.8193 0.16531
384 2 91.4661 35.7394 0.24079
385 2 95.5001 36.1192 15.9344
386 2 99.2727 35.8039 0.133881
387 2 103.44 35.9619 15.7613
388 2 107.391 35.7482 15.8581
389 2 111.379 35.805 16.0832
390 2 115.414 35.8791 15.9436
391 2 119.172 35.693 15.9516
392 2 123.042 35.6764 16.0142
393 2 126.987 35.5523 15.8767
394 2 130.843 35.4408 16.0348
395 2 134.746 35.4816 16.0072
396 2 138.493 35.4504 0.0953065
397 2 142.539 35.3581 0.299999
398 2 146.44 35.0855 0.1679
399 2 150.342 35.217 16.0869
400 2 154.319 35.1461 0.169221
401 2 158.381 39.0493 0.236416
402 2 4.04613 39.0422 0.136206
403 2 7.92354 39.0445 0.250352
404 2 11.7236 38.9868 15.7295
405 2 15.8107 38.8587 0.0779796
406 2 19.5872 38.7821 16.0991
407 2 23.596 38.9549 15.9084
408 2 27.4417 38.9462 16.0186
409 2 31.4473 38.7244 0.180911
410 2 35.2794 38.9205 0.0681995
411 2 39.4058 38.888 15.9409
412 2 43.4006 39.1532 0.273851
413 2 47.424 38.9527 0.248279
414 2 51.2897 39.1075 15.9548
415 2 55.3912 39.1633 0.143235
416 2 59.47 39.3377 0.159561
417 2 63.3841 39.2308 0.184685
418 2 67.535 39.3291 -0.0392222
419 2 71.3855 39.559 0.0508296
420 2 75.4445 39.5644 -0.012303
421 2 79.362 39.4695 0.0207142
422 2 83.3339 39.8054 15.8208
423 2 87.2269 39.7104 15.8671
424 2 91.4874 39.7116 15.9439
425 2 95.4599 39.7264 15.822
426 2 99.459 39.6964 0.22895
427 2 103.432 39.5453 15.9051
428 2 107.411 39.7836 15.9845
429 2 111.371 39.832 16.0546
430 2 115.253 39.7394 15.8214
431 2 119.182 39.7606 15.8674
432 2 123.01 39.6536 15.9055
433 2 127.064 39.5434 0.257181
434 2 130.888 39.5912 15.9013
435 2 134.857 39.4434 15.9362
436 2 138.734 39.4151 15.9945
437 2 142.562 39.3432 15.9744
438 2 146.309 39.2956 0.277592
439 2 150.417 39.2958 16.0947
440 2 154.352 39.1341 16.0247
441 2 158.233 43.1183 0.128901
442 2 3.9312 43.0504 15.8968
443 2 7.89952 43.1393 15.7041
444 2 11.7907 42.988 0.171723
445 2 15.8462 42.8767 0.0144243
446 2 19.4926 42.7578 0.175634
447 2 23.5949 42.8993 15.9385
448 2 27.4296 42.7534 16.0065
449 2 31.4526 42.66 0.0721972
450 2 35.1794 42.7858 0.130647
451 2 39.1791 42.8735 0.0861467
452 2 43.203 42.8283 0.00201093
453 2 47.2783 43.0304 15.9084
454 2 51.2998 42.947 15.8948
455 2 55.2273 43.1339 0.0859644
456 2 59.2096 43.113 15.7562
457 2 63.3225 43.2907 0.22671
458 2 67.2562 43.385 0.00688893
459 2 71.3961 43.4391 0.109041
460 2 75.3858 43.4818 0.282648
461 2 79.3973 43.3626 0.278646
462 2 83.1183 43.5869 15.7915
463 2 87.4563 43.5554 15.8202
464 2 91.5214 43.5994 0.274054
465 2 95.275 43.5629 0.224426
466 2 99.3599 43.8083 15.8879
467 2 103.326 43.5277 15.8852
468 2 107.26 43.7252 15.7063
469 2 111.519 43.7208 15.8763
470 2 115.325 43.6967 15.935
471 2 119.145 43.71 16.0058
472 2 123.118 43.674 16.0824
473 2 126.994 43.483 0.0126479
474 2 131.015 43.571 0.193138
475 2 134.856 43.5204 16.1292
476 2 138.626 43.3692 16.1726
477 2 142.676 43.3751 15.9879
478 2 146.493 43.249 0.246953
479 2 150.356 43.1668 0.255889
480 2 154.349 43.1417 0.214239
481 2 -0.0572376 47.0943 0.193484
482 2 3.97662 47.0581 -0.104611
483 2 7.95083 46.9364 -0.0709609
484 2 11.7897 46.7946 0.177008
485 2 15.7493 46.8266 0.0879366
486 2 19.4392 46.829 0.255077
487 2 23.6553 46.7915 0.104484
488 2 27.5833 46.9198 15.7481
489 2 31.369 46.6487 0.109081
490 2 35.3525 47.0543 0.214701
491 2 39.1721 46.7969 15.9835
492 2 43.38 46.7245 15.8882
493 2 47.2888 47.0034 0.348021
494 2 51.194 47.2239 15.9834
495 2 55.0917 47.0515 15.9691
496 2 59.1721 47.0312 15.9074
497 2 63.2678 47.2258 0.268355
498 2 67.3279 47.2727 0.010878
499 2 71.3094 47.2179 15.8185
500 2 75.2992 47.3742 0.17398
501 2 79.2422 47.2479 16.0678
502 2 83.2668 47.4118 15.9148
503 2 87.1011 47.4018 0.274228
504 2 91.284 47.4529 -0.101928
505 2 95.2796 47.699 0.265325
506 2 99.378 47.5132 -0.00456487
507 2 103.222 47.7886 -0.0265363
508 2 107.225 47.4452 16.0479
509 2 111.182 47.7411 15.7134
510 2 115.265 47.6942 0.0874392
511 2 119.474 47.8447 15.8644
512 2 123.187 47.6282 16.0063
513 2 127.052 47.5958 15.9606
514 2 130.925 47.4279 16.158
515 2 134.94 47.4771 15.9524
516 2 138.812 47.3151 16.0556
517 2 142.935 47.2462 15.8063
518 2 146.766 47.1543 -0.00692757
519 2 150.573 46.9852 0.160012
520 2 154.34 47.1517 15.7274
521 2 158.475 51.1224 -0.0593211
522 2 4.05184 50.8747 15.896
523 2 7.94019 50.9949 15.7466
524 2 11.6117 50.9391 15.7014
525 2 15.5831 50.9223 0.240091
526 2 19.6621 51.0042 15.7205
527 2 23.7348 50.723 15.8283
528 2 27.6799 50.8091 15.9322
529 2 31.4346 50.9262 -0.097258
530 2 35.3338 50.8172 0.215001
531 2 39.1464 50.6904 16.0637
532 2 43.2386 50.7808 16.005
533 2 47.1106 51.0009 0.202553
534 2 51.0817 51.0145 0.135351
535 2 55.2343 51.0331 0.286512
536 2 59.2305 50.9107 15.9386
537 2 63.1808 50.9981 15.9437
538 2 67.1226 51.0953 0.135203
539 2 71.2315 51.3042 0.173655
540 2 75.0211 51.0849 0.104242
541 2 79.1108 51.097 0.298541
542 2 83.2565 51.3205 0.235692
543 2 87.2534 51.4693 0.00984243
544 2 91.2735 51.564 0.153938
545 2 95.3087 51.4803 0.100721
546 2 99.388 51.3447 0.100761
547 2 103.36 51.5772 15.8915
548 2 107.206 51.6589 0.209511
549 2 111.39 51.7318 0.0343775
550 2 115.469 51.7427 15.8916
551 2 119.276 51.7931 15.9
552 2 123.209 51.596 15.8293
553 2 127.067 51.7179 16.1066
554 2 131.16 51.4931 0.162382
555 2 135.06 51.3552 0.236273
556 2 138.95 51.4324 0.320562
557 2 142.638 51.4482 0.137983
558 2 146.785 51.1933 15.8106
559 2 150.622 51.1318 0.0180854
560 2 154.455 51.1511 0.214991
561 2 158.374 54.9557 0.083453
562 2 4.04428 55.1325 0.0555028
563 2 7.92364 55.1168 0.124023
564 2 11.6992 54.9332 0.273602
565 2 15.6989 55.0689 0.116417
566 2 19.6016 54.8714 15.9746
567 2 23.6877 54.6591 15.6199
568 2 27.5584 54.864 15.9256
569 2 31.4968 54.8143 0.0658458
570 2 35.3009 54.7357 0.154893
571 2 39.1211 54.725 16.0821
572 2 42.9829 54.8028 16.0295
573 2 46.786 55.0723 0.355021
574 2 51.1318 54.8584 16.043
575 2 55.1677 54.7434 15.8589
576 2 59.2687 54.9116 15.9853
577 2 63.1311 55.0735 15.8052
578 2 67.2311 54.803 0.306763
579 2 71.1407 55.0605 0.0472162
580 2 75.1941 55.3757 15.9751
581 2 79.0553 55.2287 0.10901
582 2 83.2117 55.3112 0.18385
583 2 87.2845 55.2559 0.140843
584 2 91.2627 55.5598 15.8045
585 2 95.2335 55.2144 0.028688
586 2 99.2299 55.3304 15.9331
587 2 103.317 55.4434 15.9121
588 2 107.253 55.508 0.135355
589 2 111.32 55.6382 16.0673
590 2 115.298 55.5727 15.9143
591 2 119.377 55.5888 16.0645
592 2 123.141 55.7648 0.3768
593 2 127.024 55.5874 15.8515
594 2 131.026 55.5054 15.9897
595 2 134.936 55.5572 0.10752
596 2 138.836 55.4098 15.951
597 2 142.774 55.2943 0.253019
598 2 146.685 55.1911 0.208689
599 2 150.585 55.2488 0.253208
600 2 154.486 55.3161 15.7628
601 2 158.22 59.1148 0.264431
602 2 4.01525 58.9619 15.8547
603 2 7.96135 58.851 15.6535
604 2 11.7581 59.0482 -0.012882
605 2 15.664 58.9144 15.8565
606 2 19.7177 58.8136 0.108473
607 2 23.6718 58.9735 -0.117926
608 2 27.5139 58.7284 0.173253
609 2 31.3894 58.7629 15.9852
610 2 35.1969 58.6735 16.0933
611 2 39.3693 59.045 15.9922
612 2 43.2043 58.8078 15.8631
613 2 47.1337 58.9671 15.7145
614 2 51.007 58.6132 15.7619
615 2 55.0213 58.6487 15.8758
616 2 59.0929 58.9189 0.0646893
617 2 63.0882 59.1047 15.7935
618 2 67.0705 58.9644 0.075658
619 2 71.0936 58.9645 15.8172
620 2 75.1872 59.1038 0.00788486
621 2 79.1902 59.0556 0.114512
622 2 83.1944 59.211 0.271462
623 2 87.1604 59.2265 15.8098
624 2 91.0171 59.2403 15.9812
625 2 95.2199 59.1193 0.253121
626 2 99.127 59.3201 0.25676
627 2 102.99 59.3035 15.8522
628 2 107.184 59.5593 0.395927
629 2 111.243 59.3814 16.1586
630 2 115.2 59.4421 16.097
631 2 119.214 59.3955 16.0835
632 2 123.107 59.5588 0.27827
633 2 127.248 59.5453 15.851
634 2 131.144 59.4421 0.0845355
635 2 135.086 59.2913 15.83
636 2 138.881 59.4312 0.163654
637 2 142.679 59.3654 0.123915
638 2 146.884 59.4044 0.0406223
639 2 150.714 59.1416 16.0335
640 2 154.48 59.1995 0.146785
641 2 0.148395 63.1233 0.0672034
642 2 4.03178 63.0406 0.0517832
643 2 7.98092 62.9946 15.8062
644 2 11.9143 62.8846 15.8852
645 2 15.7201 62.8172 15.7599
646 2 19.5859 63.1662 -0.0845355
647 2 23.5871 62.7717 -0.012472
648 2 27.5481 62.8293 0.0896099
649 2 31.5114 62.8655 0.232374
650 2 35.3594 62.8326 0.296255
651 2 39.2793 62.8051 15.9212
652 2 43.343 62.6577 0.180147
653 2 47.1855 62.795 15.991
654 2 51.1418 62.4207 15.8994
655 2 55.1489 62.3762 0.0626039
656 2 59.0516 62.7092 16.123
657 2 62.9957 62.7002 0.159148
658 2 67.1858 62.8688 15.7478
659 2 70.9835 63.0016 0.084275
660 2 74.97 62.8203 0.228538
661 2 79.1891 63.0852 0.0635302
662 2 83.2183 63.0302 0.0967795
663 2 87.131 63.1451 15.9507
664 2 91.1409 63.2416 15.9371
665 2 95.1136 63.0598 0.0940088
666 2 99.0993 63.2601 0.198978
667 2 103.023 63.2487 16.1447
668 2 107.108 63.1135 15.972
669 2 111.296 63.2145 16.0416
670 2 115.146 63.4192 0.314766
671 2 119.17 63.4535 15.9739
672 2 123.163 63.5004 -0.0149809
673 2 127.201 63.5271 15.7642
674 2 131.204 63.5262 0.181945
675 2 135.148 63.3347 15.8157
676 2 138.991 63.466 15.8993
677 2 142.871 63.2261 15.8311
678 2 146.671 63.2661 0.0774259
679 2 150.69 63.2073 15.8789
680 2 154.694 63.0224 0.182827
681 2 0.107773 67.096 0.084057
682 2 3.87656 67.1248 0.0394038
683 2 7.80851 67.0453 15.8907
684 2 11.931 66.8582 15.9231
685 2 15.8488 66.9571 0.210339
686 2 19.881 66.9743 0.0988348
687 2 23.6564 66.8999 0.0375755
688 2 27.6417 66.9047 0.0850702
689 2 31.4621 66.7611 0.216281
690 2 35.2365 66.8438 0.066303
691 2 39.2804 66.8239 16.0081
692 2 43.2729 66.7197 0.226501
693 2 47.1695 66.6721 15.9
694 2 51.2319 66.6943 15.8789
695 2 54.9482 66.4912 15.951
696 2 58.8254 66.585 16.011
697 2 62.9375 66.5951 15.966
698 2 66.9326 66.8311 15.8653
699 2 70.9619 66.7179 0.153567
700 2 75.0774 66.8074 15.9869
701 2 79.0627 66.9803 15.9332
702 2 82.9352 67.056 0.367311
703 2 87.073 66.9729 16.0358
704 2 91.1178 67.08 16.0143
705 2 95.1311 67.1438 0.207733
706 2 99.0637 67.2386 0.249047
707 2 103.049 67.1108 0.0464519
708 2 107.162 67.0326 15.9867
709 2 111.08 67.2071 15.9958
710 2 115.051 67.2945 16.0235
711 2 119.007 67.2768 -0.00175258
712 2 122.999 67.2622 -0.079718
713 2 127.104 67.4271 0.210323
714 2 130.995 67.2099 15.851
715 2 134.953 67.2603 0.379905
716 2 139.039 67.3706 0.201191
717 2 142.917 67.4061 16.1477
718 2 146.88 67.1283 15.9103
719 2 150.586 67.3045 15.8292
720 2 154.558 67.0465 0.205293
721 2 0.137746 71.1118 0.125696
722 2 4.15738 71.1704 15.7926
723 2 7.97456 71.0357 0.0443897
724 2 11.694 70.9534 15.9745
725 2 15.8359 71.0193 0.0635954
726 2 19.7059 70.7877 0.134738
727 2 23.5491 70.9771 0.314822
728 2 27.6612 70.8392 15.7924
729 2 31.4766 70.8849 0.253003
730 2 35.4932 70.7041 0.108835
731 2 39.2909 70.7551 15.9463
732 2 43.1469 70.7585 0.082387
733 2 47.1008 70.6551 15.8764
734 2 50.9999 70.4848 16.1764
735 2 54.9908 70.4712 0.323634
736 2 58.9346 70.5127 0.035209
737 2 62.9251 70.4721 0.2613
738 2 66.8391 70.7064 15.9484
739 2 70.9636 70.8415 15.8365
740 2 74.8606 70.8198 15.7664
741 2 78.8672 70.8668 0.263175
742 2 83.0053 70.9877 0.234105
743 2 86.9891 70.8066 16.0808
744 2 90.8797 70.8708 15.8118
745 2 94.9432 70.8233 15.7628
746 2 99.1325 70.9683 16.019
747 2 103.055 71.0822 15.9681
748 2 106.939 71.1802 16.0064
749 2 110.862 71.2109 16.1353
750 2 114.974 71.0822 0.217963
751 2 119.053 71.2521 15.8419
752 2 122.818 71.265 0.0650751
753 2 127.019 71.351 15.9886
754 2 131.103 71.1018 15.9212
755 2 134.921 71.2083 15.9643
756 2 138.851 71.3216 15.9802
757 2 142.923 71.4727 0.0952575
758 2 146.644 71.39 0.179866
759 2 150.611 71.2863 0.376776
760 2 154.511 71.2315 15.7959
761 2 -0.0642003 75.0135 0.0398042
762 2 3.91553 75.0628 15.9979
763 2 7.91503 74.8939 15.981
764 2 12.1234 74.9333 15.9834
765 2 15.9297 74.9434 15.9762
766 2 19.7037 74.8234 15.8275
767 2 23.6263 74.856 16.0737
768 2 27.5529 74.7838 15.8987
769 2 31.3648 74.8312 0.191674
770 2 35.461 74.7298 16.0044
771 2 39.3409 74.6124 15.8763
772 2 43.0275 74.8713 0.219785
773 2 47.2718 74.8097 15.874
774 2 51.1283 74.461 0.233813
775 2 54.9204 74.5623 15.9902
776 2 58.838 74.4768 16.0698
777 2 62.8319 74.5274 16.0779
778 2 66.745 74.5907 0.0674285
779 2 70.7464 74.7548 0.194411
780 2 75.0529 74.7513 -0.0128654
781 2 78.8418 74.5767 0.0598595
782 2 82.8697 74.8938 0.173871
783 2 86.8236 74.7577 0.240438
784 2 90.9906 74.8782 15.7244
785 2 94.8624 74.7026 15.9344
786 2 98.8915 74.7007 0.230171
787 2 102.718 74.8742 15.9337
788 2 106.829 75.1882 16.0485
789 2 110.959 75.1262 15.8794
790 2 115.021 75.0482 16.0833
791 2 118.908 74.9949 0.160587
792 2 122.817 75.115 15.7782
793 2 126.809 75.343 15.874
794 2 131.144 75.1279 0.147827
795 2 134.873 75.2363 15.7601
796 2 139.021 75.1962 15.9013
797 2 143.037 75.3691 16.0596
798 2 146.73 75.4181 15.9944
799 2 150.661 75.0871 0.175598
800 2 154.37 75.1119 0.0228547
801 2 0.273744 79.0723 0.261632
802 2 4.12978 78.9794 16.0846
803 2 8.017 78.991 0.118175
804 2 11.8302 78.9732 0.272782
805 2 15.8248 78.8048 16.0244
806 2 19.748 78.8866 15.9735
807 2 23.7072 78.8693 0.269823
808 2 27.5646 78.713 0.0267931
809 2 31.4879 78.8855 0.338787
810 2 35.464 78.688 0.12252
811 2 39.3962 79.0404 15.7804
812 2 43.3165 78.6841 15.7819
813 2 47.272 78.5874 15.8565
814 2 51.1078 78.6413 0.181836
815 2 54.8819 78.5518 0.204952
816 2 58.8166 78.4464 15.834
817 2 62.8038 78.4744 15.8926
818 2 66.9246 78.5657 0.193943
819 2 70.7372 78.5686 15.8084
820 2 74.6284 78.6201 -0.124909
821 2 78.6642 78.6231 16.0112
822 2 82.9422 78.7346 15.8366
823 2 86.9285 78.7485 0.199524
824 2 90.8862 78.7139 0.29991
825 2 94.8818 78.9109 0.218284
826 2 98.6307 78.9082 16.1294
827 2 102.647 78.9392 16.0636
828 2 106.783 78.794 0.171002
829 2 110.885 78.9443 0.411366
830 2 114.856 78.8828 0.252918
831 2 118.88 79.0375 0.302219
832 2 122.933 79.1322 16.0576
833 2 126.92 79.1007 0.267605
834 2 130.752 78.9196 15.9707
835 2 134.851 79.1371 0.245892
836 2 138.7 79.2849 16.087
837 2 142.952 79.2641 15.993
838 2 146.978 79.4949 16.0598
839 2 150.754 79.1495 15.9676
840 2 154.664 79.194 0.062452
841 2 0.288815 83.2454 16.1276
842 2 4.04701 83.0872 16.0454
843 2 8.01549 83.1724 -0.0479522
844 2 11.9539 83.0037 15.8805
845 2 15.9156 82.9036 15.9254
846 2 19.983 82.877 0.261133
847 2 23.7775 82.8328 15.9452
848 2 27.5045 82.8823 0.131385
849 2 31.6808 82.8205 15.8627
850 2 35.3946 82.871 0.222671
851 2 39.1187 82.7586 0.13038
852 2 43.1298 82.7364 15.8359
853 2 47.2632 82.6557 0.105425
854 2 51.0799 82.6794 0.0749662
855 2 55.0746 82.4723 0.195002
856 2 58.6441 82.4828 15.8572
857 2 62.7488 82.4667 15.9879
858 2 66.7051 82.5175 15.8801
859 2 70.4147 82.3885 15.7623
860 2 74.7416 82.5128 15.6384
861 2 78.6463 82.5458 15.8865
862 2 82.8201 82.635 -0.0701581
863 2 86.6902 82.6766 0.0449781
864 2 90.6822 82.7709 15.8808
865 2 94.729 82.7053 0.172659
866 2 98.6478 82.9052 15.957
867 2 102.809 82.8917 0.133301
868 2 106.772 82.732 15.828
869 2 110.736 82.8954 16.069
870 2 114.713 82.7112 16.0066
871 2 118.702 82.8636 16.2053
872 2 122.667 83.2856 15.9141
873 2 126.903 83.0878 15.7261
874 2 130.877 83.0711 15.8538
875 2 134.989 82.9014 0.21941
876 2 138.943 83.1553 15.8267
877 2 142.906 83.2719 0.417711
878 2 146.991 83.2261 15.8689
879 2 151.063 83.1866 0.0449556
880 2 154.835 83.2403 0.241374
881 2 0.320615 87.2493 15.8214
882 2 4.38704 87.2405 0.25996
883 2 8.16024 86.9175 15.9485
884 2 12.0935 87.026 15.85
885 2 15.9476 86.8614 15.8455
886 2 19.9345 87.0174 15.9712
887 2 23.8842 86.9012 15.8215
888 2 27.6595 86.9855 0.225651
889 2 31.4262 86.843 15.9859
890 2 35.2678 86.9066 0.169006
891 2 39.4576 86.6803 16.0145
892 2 43.2143 86.7056 16.0534
893 2 47.0129 86.7211 15.7961
894 2 51.0902 86.5977 15.9517
895 2 54.9241 86.6072 15.8952
896 2 58.9757 86.3319 0.218904
897 2 62.8963 86.6127 0.237082
898 2 66.764 86.3724 15.7954
899 2 70.7387 86.4176 -0.0553669
900 2 74.6524 86.4877 15.8229
901 2 78.6422 86.5944 0.20588
902 2 82.6952 86.4994 0.0460159
903 2 86.6892 86.3872 15.9227
904 2 90.6263 86.5791 16.1348
905 2 94.6251 86.626 15.701
906 2 98.66 87.0249 15.8756
907 2 102.593 86.8208 0.13486
908 2 106.832 86.6739 0.177363
909 2 110.741 86.7687 15.8711
910 2 114.657 86.7411 0.483364
911 2 118.854 86.9474 0.158238
912 2 122.799 86.9788 0.317648
913 2 126.972 87.0863 15.8267
914 2 130.874 86.9702 16.0908
915 2 134.88 87.0406 15.9657
916 2 138.771 87.1223 15.9684
917 2 142.744 87.077 15.9664
918 2 146.789 87.028 0.234856
919 2 150.834 87.019 15.9357
920 2 154.775 87.0634 16.2011
921 2 0.469487 91.2326 0.223986
922 2 4.37165 91.2996 0.345117
923 2 8.22954 91.0743 16.0752
924 2 11.9865 90.931 15.9204
925 2 15.9891 90.8663 0.123936
926 2 19.9808 90.9836 0.315357
927 2 23.8045 90.8694 15.7957
928 2 27.6975 90.9574 15.7025
929 2 31.5694 90.9198 15.7829
930 2 35.3938 90.8876 0.27996
931 2 39.401 90.6735 15.9125
932 2 43.3303 90.5949 15.9906
933 2 47.1643 90.6979 0.103154
934 2 51.0786 90.5551 0.109965
935 2 55.0364 90.5674 0.083766
936 2 58.931 90.5926 0.0614891
937 2 62.813 90.4765 0.0170532
938 2 66.918 90.3447 15.7812
939 2 70.9558 90.3718 15.7681
940 2 74.763 90.3404 0.116113
941 2 78.7438 90.3415 0.286911
942 2 82.6361 90.3627 0.119547
943 2 86.6279 90.3491 0.0923005
944 2 90.6166 90.6123 0.168438
945 2 94.7061 90.6051 15.9875
946 2 98.6211 90.759 15.9752
947 2 102.718 90.7296 0.203037
948 2 106.701 90.753 16.0682
949 2 110.745 90.5586 15.7605
950 2 114.656 90.7 0.300561
951 2 118.869 90.7831 0.430569
952 2 122.675 90.8458 15.8961
953 2 126.814 90.9647 0.253246
954 2 130.867 90.8345 0.107814
955 2 134.748 90.8136 15.8249
956 2 138.795 91.1743 15.8671
957 2 142.587 90.9197 15.8746
958 2 146.711 91.0431 15.8697
959 2 150.803 90.9305 15.9098
960 2 154.93 91.1449 15.9284
961 2 0.557979 95.2341 0.210042
962 2 4.32473 95.1195 16.0694
963 2 8.39136 95.1609 16.0325
964 2 12.2408 94.9824 15.9202
965 2 16.0574 95.0083 15.9907
966 2 19.9231 94.9402 16.0147
967 2 23.6642 95.0401 16.022
968 2 27.6318 94.8595 15.8063
969 2 31.7145 94.8248 15.915
970 2 35.8038 94.6675 15.8342
971 2 39.5487 94.8496 15.8777
972 2 43.2899 94.6425 16.0849
973 2 47.3314 94.7238 0.360793
974 2 51.2017 94.6892 15.9769
975 2 55.0477 94.5535 -0.0146708
976 2 59.0711 94.4474 15.7906
977 2 62.9116 94.3542 0.249694
978 2 66.7996 94.4831 0.150241
979 2 70.7984 94.4387 -0.031918
980 2 74.6023 94.4191 0.293629
981 2 78.5068 94.1467 15.8732
982 2 82.4657 94.4824 0.179918
983 2 86.5189 94.1454 0.0926492
984 2 90.574 94.3964 0.331519