ITEM: TIMESTEP
25000
ITEM: NUMBER OF ATOMS
32000
ITEM: BOX BOUNDS xy xz yz pp pp pp
0.0000000000000000e+00 1.5831999999999999e+02 0.0000000000000000e+00
0.0000000000000000e+00 1.5831999999999999e+02 0.0000000000000000e+00
1.6684219428241587e-01 1.5930869805717396e+01 0.0000000000000000e+00
ITEM: ATOMS id type x y z
1 2 158.142 157.689 16.0137
2 2 3.71523 157.84 15.771
3 2 7.76622 157.598 0.239574
4 2 11.8039 157.802 0.24393
5 2 15.6163 158.007 0.207004
6 2 19.9154 157.987 15.835
7 2 23.9278 157.861 15.9631
8 2 27.837 157.986 15.8899
9 2 31.7785 158.209 0.303727
10 2 35.8338 158.215 15.7504
11 2 39.9223 -0.382466 15.8923
12 2 43.7964 0.0215031 -0.0745812
13 2 47.7451 -0.00974003 15.9525
14 2 51.6278 0.193844 -0.0166587
15 2 55.7646 158.335 0.212458
16 2 59.8915 158.445 15.9471
17 2 63.8531 0.184381 15.822
18 2 67.8873 0.270045 15.8799
19 2 71.7637 0.399968 16.1774
20 2 75.6722 158.396 15.906
21 2 79.7303 0.164811 15.8619
22 2 83.6043 158.374 15.9794
23 2 87.4734 158.369 15.9581
24 2 91.3316 158.221 0.353719
25 2 95.1164 158.111 15.9277
26 2 98.9909 158.286 15.8414
27 2 103.121 157.981 16.0971
28 2 107.021 158.056 16.1951
29 2 111.003 158.158 0.109461
30 2 114.856 157.849 0.329106
31 2 118.839 157.871 15.6211
32 2 122.588 157.771 0.113446
33 2 126.458 157.704 0.12882
34 2 130.259 157.601 0.196804
35 2 134.294 157.946 15.8982
36 2 138.307 157.651 15.8301
37 2 142.036 157.644 15.7194
38 2 145.979 157.653 15.8547
39 2 150.068 157.513 0.222719
40 2 154.024 157.484 -0.0333473
41 2 157.967 3.15962 15.7066
42 2 3.85987 3.35493 15.9218
43 2 7.54645 3.16966 0.072429
44 2 11.805 3.30866 15.9477
45 2 15.6715 3.34912 16.1643
46 2 19.9125 3.32717 15.9961
47 2 23.7185 3.74413 0.0936444
48 2 27.8007 3.67814 0.20091
49 2 31.7003 3.7392 0.261898
50 2 35.7345 3.81692 0.226073
51 2 39.824 3.47377 0.229367
52 2 43.9131 3.81478 15.8811
53 2 47.6599 4.11606 15.8313
54 2 51.717 4.0075 15.802
55 2 55.7832 4.07252 0.0723171
56 2 59.7939 4.05585 15.8002
57 2 63.7365 3.92955 15.9426
58 2 67.7477 3.98743 15.8645
59 2 71.9408 4.27336 16.0522
60 2 75.8427 4.13881 16.0273
61 2 79.7503 4.32325 16.0308
62 2 83.3806 4.04248 15.9457
63 2 87.4216 3.99178 15.851
64 2 91.3576 3.92228 0.233553
65 2 95.2507 4.02007 16.0513
66 2 99.1837 4.09974 0.266422
67 2 103.188 3.90185 16.0636
68 2 106.933 3.82623 16.0624
69 2 110.798 3.82422 0.266771
70 2 114.836 3.48208 0.279577
71 2 118.872 3.58124 0.346528
72 2 122.53 3.44404 0.143391
73 2 126.596 3.52406 -0.036169
74 2 130.46 3.31098 0.258201
75 2 134.274 3.45472 15.8125
76 2 138.195 3.39782 0.221704
77 2 142.34 3.34874 0.397675
78 2 146.277 3.18829 0.12671
79 2 150.113 3.18499 16.0858
80 2 154.02 3.08982 15.8995
81 2 158.133 6.96702 15.9949
82 2 3.81456 7.19125 15.9722
83 2 7.70701 7.34247 15.874
84 2 11.5763 7.35784 0.273781
85 2 15.7144 7.5117 15.8575
86 2 19.6775 7.42562 15.8742
87 2 23.7793 7.40202 0.00292227
88 2 27.5845 7.58517 15.8756
89 2 31.6214 7.57933 15.9262
90 2 35.763 7.58893 15.7171
91 2 39.7922 7.63739 0.167313
92 2 43.5552 7.7294 0.257142
93 2 47.6501 7.82537 16.0249
94 2 51.8559 7.79767 0.189327
95 2 55.7039 7.93919 15.8955
96 2 59.7284 8.0735 0.115703
97 2 63.8279 8.11062 15.968
98 2 67.9755 7.93927 15.9358
99 2 71.7052 8.19477 16.047
100 2 75.7588 7.97265 16.1371
101 2 79.9003 8.25909 0.187625
102 2 83.4471 8.33558 16.0335
103 2 87.3381 8.1298 16.1232
104 2 91.4177 7.88809 16.1034
105 2 95.4793 8.02589 15.9956
106 2 99.0966 7.97843 0.0862333
107 2 102.959 7.93173 0.0440771
108 2 106.975 7.84428 16.2195
109 2 110.937 7.67994 0.219781
110 2 114.843 7.57802 15.8228
111 2 118.728 7.71932 15.9508
112 2 122.555 7.54479 15.9082
113 2 126.391 7.55254 15.92
114 2 130.428 7.42698 0.101875
115 2 134.292 7.41119 0.199899
116 2 138.445 7.33811 15.9741
117 2 142.216 7.21826 16.0123
118 2 145.839 7.15415 0.170532
119 2 150.079 7.06211 0.311789
120 2 154.031 7.29144 15.9091
121 2 157.845 11.1093 15.6865
122 2 3.64981 11.1481 16.046
123 2 7.6166 11.119 15.99
124 2 11.7518 11.1717 0.237693
125 2 15.5347 11.3712 15.9663
126 2 19.6475 11.2616 15.7894
127 2 23.8099 11.2751 15.8715
128 2 27.7122 11.5045 15.8823
129 2 31.7606 11.4971 15.8129
130 2 35.6188 11.5043 15.6889
131 2 39.6314 11.4478 15.8717
132 2 43.6285 11.6687 0.199491
133 2 47.64 11.7165 0.261244
134 2 51.729 11.8066 16.0991
135 2 55.8025 11.7942 0.227264
136 2 59.7224 11.9093 15.8061
137 2 63.6744 12.0058 0.222572
138 2 67.6434 11.8763 15.8831
139 2 71.7868 12.0712 16.0568
140 2 75.7548 11.8903 15.9892
141 2 79.759 12.0132 16.0513
142 2 83.6872 12.1433 15.9688
143 2 87.5183 12.058 0.130189
144 2 91.3608 12.1144 0.391206
145 2 95.2028 12.0279 15.9258
146 2 99.1149 12.1505 16.3623
147 2 103.094 11.802 0.273302
148 2 106.82 11.7871 16.129
149 2 111.085 11.74 0.276577
150 2 114.849 11.6639 15.8574
151 2 118.888 11.5603 0.147614
152 2 122.825 11.548 0.157764
153 2 126.784 11.6179 16.0593
154 2 130.586 11.382 15.819
155 2 134.496 11.358 0.246265
156 2 138.373 11.1954 0.234826
157 2 142.232 11.158 0.193243
158 2 146.228 11.2396 0.0283617
159 2 150.142 11.2242 0.0459729
160 2 154.056 11.1337 0.103429
161 2 157.886 14.9837 15.9635
162 2 3.5597 15.131 16.0231
163 2 7.72141 15.0663 16.0471
164 2 11.6909 15.1303 16.0954
165 2 15.6618 15.177 15.7042
166 2 19.6324 15.1456 0.143789
167 2 23.6393 15.2638 0.234353
168 2 27.6906 15.2788 16.0688
169 2 31.5709 15.4147 0.139647
170 2 35.7789 15.4216 15.7516
171 2 39.8187 15.3926 0.0789754
172 2 43.6479 15.6002 0.161175
173 2 47.6316 15.669 0.0385376
174 2 51.6907 15.7047 0.290141
175 2 55.7502 15.7433 15.9248
176 2 59.6503 15.8792 0.308477
177 2 63.625 15.79 15.9853
178 2 67.7042 15.9101 15.9505
179 2 71.6372 15.9573 0.211936
180 2 75.7087 15.9148 0.298171
181 2 79.696 15.9313 15.819
182 2 83.6758 16.1074 0.302101
183 2 87.6961 16.2445 15.8615
184 2 91.5493 16.0904 0.155835
185 2 95.421 16.041 16.0163
186 2 99.3569 16.142 15.8432
187 2 103.276 15.9225 15.9486
188 2 107.245 15.8087 16.0055
189 2 111.182 15.8761 16.0645
190 2 114.987 15.7174 16.1161
191 2 119.096 15.7662 0.0505748
192 2 122.935 15.6362 15.8892
193 2 126.697 15.5346 15.8099
194 2 130.5 15.321 0.0882039
195 2 134.703 15.4148 0.169646
196 2 138.495 15.4492 0.0568966
197 2 142.314 15.1751 15.8525
198 2 146.263 15.2532 0.0600349
199 2 150.205 15.0555 0.036866
200 2 153.941 15.0473 15.9117
201 2 157.879 19.0007 15.8119
202 2 3.83131 18.8951 0.234699
203 2 7.59599 18.9738 0.324614
204 2 11.6558 18.9499 15.951
205 2 15.5553 19.1693 15.8037
206 2 19.6865 19.2921 15.9448
207 2 23.6671 19.2362 15.9946
208 2 27.6165 19.0477 15.8214
209 2 31.5739 19.2666 16.0024
210 2 35.6072 19.397 15.7593
211 2 39.6373 19.4865 0.076213
212 2 43.6202 19.4392 15.9224
213 2 47.6935 19.5693 16.0863
214 2 51.4791 19.533 0.330557
215 2 55.5714 19.8749 15.9662
216 2 59.7376 19.7242 16.0628
217 2 63.5522 19.7135 15.8951
218 2 67.6852 19.8698 15.8084
219 2 71.7155 19.796 0.36781
220 2 75.6271 20.0546 0.176957
221 2 79.5564 20.0953 0.363842
222 2 83.5993 20.0053 16.0579
223 2 87.6489 20.0696 0.288268
224 2 91.6327 20.0495 0.315398
225 2 95.3849 20.0668 15.7629
226 2 99.3467 19.907 15.8887
227 2 103.321 19.9631 15.9575
228 2 107.215 19.7693 15.8752
229 2 111.09 19.8517 0.316668
230 2 115.032 19.9081 16.0533
231 2 118.986 19.8379 16.0821
232 2 122.935 19.6289 15.7333
233 2 126.767 19.6328 15.9428
234 2 130.629 19.4352 15.9481
235 2 134.489 19.446 0.106597
236 2 138.44 19.5195 15.7
237 2 142.224 19.5725 15.6112
238 2 146.298 19.3736 0.0744214
239 2 150.076 19.227 15.6892
240 2 153.98 19.015 0.315443
241 2 158.044 23.0486 15.9016
242 2 3.7557 23.1421 16.0854
243 2 7.59649 22.9188 0.388044
244 2 11.5327 22.933 0.0106447
245 2 15.5952 23.081 16.1169
246 2 19.6824 23.119 16.0697
247 2 23.4775 23.0966 16.113
248 2 27.5498 23.0882 16.0195
249 2 31.5437 23.1815 0.133894
250 2 35.6201 23.207 15.7468
251 2 39.6527 23.2099 -0.0524058
252 2 43.3619 23.4259 15.9613
253 2 47.4703 23.2341 0.234623
254 2 51.4415 23.5795 0.415706
255 2 55.4641 23.538 0.158443
256 2 59.5274 23.7627 16.0026
257 2 63.5725 23.7456 0.159643
258 2 67.5665 23.6519 15.9628
259 2 71.5607 23.7592 15.9691
260 2 75.5149 23.9689 0.201429
261 2 79.603 24.0207 15.9448
262 2 83.5849 23.9698 0.314133
263 2 87.574 23.9326 15.9416
264 2 91.5532 23.9734 15.9489
265 2 95.646 23.953 15.7935
266 2 99.5752 23.898 0.0534789
267 2 103.308 23.8231 15.8002
268 2 107.027 23.875 15.8261
269 2 111.213 23.8603 0.246763
270 2 114.973 23.8882 16.1561
271 2 119.024 23.5502 15.9909
272 2 122.766 23.641 0.0996064
273 2 126.792 23.5499 15.8772
274 2 130.669 23.5063 16.1437
275 2 134.747 23.3996 15.9193
276 2 138.614 23.3911 15.7322
277 2 142.462 23.3082 16.0042
278 2 146.6 23.4251 0.216935
279 2 150.285 23.0665 0.209446
280 2 153.979 23.1533 0.181379
281 2 158.232 27.2674 0.099783
282 2 3.68286 26.9959 0.200934
283 2 7.89141 26.9873 0.264654
284 2 11.5892 26.7899 16.1537
285 2 15.614 26.8591 16.0013
286 2 19.5745 26.8512 0.279298
287 2 23.6347 26.9051 15.9025
288 2 27.725 26.9644 15.9
289 2 31.5227 27.1509 0.0796941
290 2 35.3441 27.3097 -0.0580112
291 2 39.3944 27.1939 0.00471888
292 2 43.4658 27.2677 -0.00750067
293 2 47.4607 27.4439 0.343441
294 2 51.5423 27.3051 15.9475
295 2 55.4799 27.484 0.213723
296 2 59.4441 27.778 15.82
297 2 63.4863 27.7863 15.8779
298 2 67.3751 27.4923 15.8337
299 2 71.5359 27.6032 15.9105
300 2 75.5721 27.9249 0.201998
301 2 79.6636 27.7421 0.0101668
302 2 83.6167 27.9383 15.9787
303 2 87.6242 27.8193 0.167251
304 2 91.6119 27.9495 0.232598
305 2 95.4351 27.8811 0.177189
306 2 99.3308 28.2087 0.346537
307 2 103.487 27.789 15.9174
308 2 107.29 27.9006 0.222548
309 2 111.133 27.8604 16.0071
310 2 115.03 27.8249 15.9126
311 2 118.86 27.5766 0.220206
312 2 122.667 27.7502 0.161433
313 2 126.781 27.4633 15.9647
314 2 130.64 27.3653 16.0668
315 2 134.436 27.305 15.7831
316 2 138.684 27.6327 15.7545
317 2 142.441 27.3747 0.0548831
318 2 146.298 27.1673 0.274078
319 2 150.264 27.2705 0.218639
320 2 154.318 26.9453 0.277049
321 2 158.247 31.0069 15.9692
322 2 4.02928 30.9074 16.0301
323 2 7.8184 31.0169 15.9374
324 2 11.687 30.8905 0.177585
325 2 15.486 30.7876 0.29892
326 2 19.4715 30.8086 15.7784
327 2 23.5374 30.7968 15.8901
328 2 27.2785 30.9294 0.0987783
329 2 31.3662 31.0714 15.8432
330 2 35.5154 31.2575 16.0717
331 2 39.4579 31.0314 15.7457
332 2 43.373 31.3332 0.220069
333 2 47.5491 31.2237 15.9365
334 2 51.5414 31.3357 0.209885
335 2 55.4348 31.5225 15.7939
336 2 59.4255 31.5657 0.254774
337 2 63.3733 31.5411 15.9794
338 2 67.525 31.6143 0.158138
339 2 71.3552 31.6357 0.0831489
340 2 75.6394 31.6799 0.159915
341 2 79.5754 31.7236 15.9536
342 2 83.4758 31.8355 0.172849
343 2 87.5035 31.6144 16.1585
344 2 91.4815 31.8063 15.8387
345 2 95.6627 31.9187 15.9059
346 2 99.4262 31.8774 0.30103
347 2 103.426 31.8964 15.6634
348 2 107.255 31.9801 15.8839
349 2 111.252 31.6854 15.9923
350 2 115.286 31.8575 15.9065
351 2 119.043 31.777 15.9441
352 2 122.743 31.7199 15.9487
353 2 126.73 31.8172 16.0186
354 2 130.713 31.4121 16.0448
355 2 134.719 31.293 15.8605
356 2 138.655 31.3569 15.9631
357 2 142.51 31.3059 0.104216
358 2 146.333 31.0364 15.9898
359 2 150.319 31.3246 0.206289
360 2 154.335 31.2042 0.156041
361 2 0.119664 34.9231 0.0625129
362 2 3.92718 35.0568 15.7518
363 2 7.95293 35.1036 15.7538
364 2 11.6661 35.0228 15.8802
365 2 15.6646 34.8991 0.274882
366 2 19.5639 34.9245 0.203462
367 2 23.3771 34.7626 0.0615545
368 2 27.214 34.7533 0.0415436
369 2 31.421 34.82 0.225467
370 2 35.4862 35.1011 0.12037
371 2 39.3372 35.187 0.22049
372 2 43.4981 35.0123 15.9732
373 2 47.2753 35.1764 16.0353
374 2 51.3669 35.1569 16.1122
375 2 55.3772 35.5043 0.187467
376 2 59.3281 35.4164 0.232459
377 2 63.4648 35.3357 16.0149
378 2 67.6174 35.4182 0.102774
379 2 71.537 35.4985 0.158621
380 2 75.5189 35.5614 16.0057
381 2 79.4403 35.531 0.313715
382 2 83.41 35.6957 15.9969
383 2 87.5464 35.5565 0.155158
384 2 91.5329 35.728 0.184301
385 2 95.4922 35.6632 15.9342
386 2 99.5101 35.7829 0.242722
387 2 103.596 35.7636 15.8797
388 2 107.453 35.8649 16.087
389 2 111.128 35.7687 15.8416
390 2 115.053 35.7349 15.8277
391 2 119.037 35.6935 16.047
392 2 123.001 35.5624 15.9059
393 2 127.019 35.6685 16.0071
394 2 130.987 35.4732 16.0167
395 2 134.756 35.3595 15.8049
396 2 138.681 35.3202 0.439048
397 2 142.422 35.2007 0.186526
398 2 146.57 35.2458 0.115026
399 2 150.635 34.9908 15.9643
400 2 154.398 35.1023 0.157019
401 2 158.197 39.0168 0.0901978
402 2 4.00029 39.075 0.039893
403 2 7.92789 39.0668 -0.0406676
404 2 11.8306 38.9489 15.9612
405 2 15.6582 39.1161 0.159573
406 2 19.66 39.0967 15.7711
407 2 23.4467 38.9652 15.8314
408 2 27.3723 38.8874 15.9785
409 2 31.379 38.8194 0.254268
410 2 35.3715 38.8655 0.142875
411 2 39.4425 39.0331 15.9192
412 2 43.4768 38.951 0.0805926
413 2 47.356 39.2991 0.242691
414 2 51.4179 39.2759 15.9837
415 2 55.2257 39.2753 0.192055
416 2 59.2488 39.3332 0.148889
417 2 63.2998 39.4103 0.153384
418 2 67.3368 39.5469 0.201707
419 2 71.5186 39.3744 0.0575184
420 2 75.446 39.4652 0.255922
421 2 79.3483 39.5406 0.179359
422 2 83.3471 39.3601 15.8578
423 2 87.5895 39.57 16.0655
424 2 91.37 39.4689 15.9524
425 2 95.4492 39.7761 15.9041
426 2 99.461 39.7215 0.135488
427 2 103.378 39.724 15.9663
428 2 107.301 39.9196 15.8756
429 2 111.261 39.7833 15.8196
430 2 115.286 39.7087 15.9585
431 2 119.13 39.6081 16.0573
432 2 123.047 39.6019 15.9238
433 2 126.818 39.6672 0.218261
434 2 130.827 39.3091 16.1055
435 2 134.697 39.4069 16.1167
436 2 138.624 39.3316 16.2361
437 2 142.688 39.2099 16.1409
438 2 146.535 39.1981 0.316249
439 2 150.342 38.9789 16.0105
440 2 154.237 39.0814 15.9992
441 2 158.288 42.9745 0.186513
442 2 3.96362 43.14 15.9527
443 2 7.93175 42.8958 15.9719
444 2 11.9012 42.9683 -0.106778
445 2 15.6631 42.988 0.019709
446 2 19.6951 42.9224 0.0946219
447 2 23.5017 42.8501 15.9928
448 2 27.6348 42.8842 15.8059
449 2 31.4215 42.8335 0.354364
450 2 35.4233 42.7321 -0.00801486
451 2 39.5321 42.8548 0.172244
452 2 43.4728 43.0835 0.410922
453 2 47.4095 42.9844 16.0118
454 2 51.3267 43.2298 16.103
455 2 55.2106 43.0516 0.143477
456 2 59.2023 43.2676 15.9553
457 2 63.1958 43.3903 -0.0413513
458 2 67.3015 43.2315 0.136696
459 2 71.4329 43.3719 0.242348
460 2 75.3811 43.4133 0.000376733
461 2 79.2875 43.7247 0.0790794
462 2 83.3618 43.4838 15.8815
463 2 87.2518 43.4936 16.0566
464 2 91.3366 43.5185 0.110675
465 2 95.4369 43.701 0.0754601
466 2 99.3138 43.5223 15.8676
467 2 103.331 43.7327 15.8307
468 2 107.265 43.8216 15.9304
469 2 111.248 43.9315 15.9178
470 2 115.349 43.7707 15.7915
471 2 119.301 43.7348 15.9683
472 2 123.082 43.7344 15.8723
473 2 127.102 43.6083 0.51354
474 2 130.934 43.3872 0.195681
475 2 134.726 43.4801 16.0017
476 2 138.875 43.3788 15.7955
477 2 142.555 43.2332 16.0325
478 2 146.461 43.2424 0.236794
479 2 150.429 43.1191 0.323378
480 2 154.548 43.1611 0.325776
481 2 -0.0102855 47.1551 0.0261314
482 2 3.83846 46.9691 0.190411
483 2 7.80315 47.1068 0.0260213
484 2 11.7922 47.0857 0.0105543
485 2 15.6809 47.0684 0.143345
486 2 19.7393 47.0168 -0.0554775
487 2 23.4966 46.8024 0.243175
488 2 27.4787 46.6548 16.0429
489 2 31.4613 46.8623 0.0684747
490 2 35.252 46.5482 0.165196
491 2 39.2068 46.7183 15.9319
492 2 43.108 46.9552 16.0561
493 2 47.2833 46.8592 0.162118
494 2 51.1327 46.9945 15.7738
495 2 55.2423 46.9646 15.879
496 2 59.2855 47.0294 16.0567
497 2 63.2106 47.1589 0.148233
498 2 67.1122 47.3338 0.115045
499 2 71.2426 47.3721 15.9908
500 2 75.4129 47.3124 0.167144
501 2 79.2801 47.5554 16.0467
502 2 83.2159 47.4055 15.8602
503 2 87.3883 47.3198 0.194902
504 2 91.4065 47.4722 0.385531
505 2 95.2597 47.5489 0.0905705
506 2 99.1977 47.5371 0.12306
507 2 103.394 47.3659 0.217622
508 2 107.345 47.6742 15.8311
509 2 111.365 47.7052 15.973
510 2 115.26 47.8608 0.276751
511 2 119.024 47.5472 15.9934
512 2 123.323 47.7027 15.8749
513 2 127.296 47.5731 15.9665
514 2 131.005 47.5807 15.9513
515 2 134.895 47.436 15.9867
516 2 138.9 47.3767 15.9478
517 2 142.692 47.3856 16.0845
518 2 146.484 47.2131 0.307202
519 2 150.461 47.2719 0.170751
520 2 154.549 47.0749 15.8084
521 2 158.345 51.0913 0.225127
522 2 4.07885 51.1626 15.7997
523 2 7.87274 51.0171 15.7605
524 2 11.9189 51.332 15.8712
525 2 15.9679 51.1038 -0.00233716
526 2 19.7226 50.922 16.07
527 2 23.5621 51.0068 15.9636
528 2 27.2817 50.7415 15.7973
529 2 31.2539 50.7936 0.228936
530 2 35.0861 50.8244 0.124712
531 2 39.1845 50.7471 15.7859
532 2 43.1435 50.7284 15.9324
533 2 47.2697 50.7978 0.317427
534 2 51.2108 51.1259 0.0379409
535 2 55.1656 50.8958 -0.0101577
536 2 59.1281 50.9391 16.1062
537 2 63.058 51.1321 15.9935
538 2 67.0482 50.9992 0.11726
539 2 71.2715 51.2302 0.0668939
540 2 75.2067 51.2616 0.0137533
541 2 79.1646 51.3678 0.221694
542 2 83.1375 51.2592 0.132667
543 2 87.2924 51.1798 0.380304
544 2 91.2369 51.1661 0.0626172
545 2 95.3043 51.4669 0.0462738
546 2 99.1562 51.4813 0.187673
547 2 103.213 51.4399 15.8758
548 2 107.377 51.3198 0.133665
549 2 111.183 51.571 0.361291
550 2 115.106 51.7289 15.9538
551 2 119.292 51.4505 15.9191
552 2 123.149 51.682 16.0638
553 2 127.084 51.4498 16.0672
554 2 131.101 51.4219 0.335332
555 2 134.968 51.5093 0.152701
556 2 139.057 51.4941 0.198548
557 2 142.919 51.2419 0.12562
558 2 146.693 51.2584 16.0011
559 2 150.603 51.2657 0.201204
560 2 154.54 51.1388 0.0170109
561 2 158.339 55.2114 0.235874
562 2 3.9334 55.0111 0.0390563
563 2 7.87172 54.9257 0.0647609
564 2 11.7013 55.1113 -0.197059
565 2 15.5438 54.9827 0.0209362
566 2 19.745 54.8261 15.7659
567 2 23.6755 55.0753 15.9909
568 2 27.4704 54.646 15.8711
569 2 31.3292 54.8346 0.318898
570 2 35.1813 54.8255 0.228888
571 2 39.2483 54.7371 15.9352
572 2 43.1402 54.6203 16.0762
573 2 47.0412 54.8131 -0.0763118
574 2 51.0094 54.9291 15.8992
575 2 55.0941 54.9932 15.9076
576 2 58.9704 54.9453 15.9753
577 2 63.1114 54.8534 15.9346
578 2 66.9718 55.1893 0.0774402
579 2 71.0944 55.1791 0.0242851
580 2 75.0251 55.1997 15.9697
581 2 79.0114 55.1613 0.135155
582 2 83.1975 55.2782 0.111514
583 2 87.2148 55.2634 0.210141
584 2 91.0982 55.2679 15.9808
585 2 95.1319 55.431 0.140831
586 2 99.1271 55.4254 15.8247
587 2 103.128 55.3721 15.8846
588 2 107.3 55.3159 0.16928
589 2 111.145 55.4334 15.836
590 2 115.342 55.5343 16.0245
591 2 119.105 55.5526 16.0718
592 2 123.197 55.6647 0.172626
593 2 127.093 55.4572 16.0113
594 2 131.017 55.4632 15.8803
595 2 135.063 55.2282 0.136564
596 2 138.825 55.6154 16.1142
597 2 142.951 55.3081 0.0696564
598 2 146.821 55.3371 -0.0964434
599 2 150.518 55.1119 -0.0537233
600 2 154.381 54.9966 15.9317
601 2 158.826 59.118 0.0281562
602 2 4.12694 59.1287 15.94
603 2 7.94739 59.0564 15.8851
604 2 11.8483 58.8849 -0.0800392
605 2 15.9863 58.8883 15.7318
606 2 19.7343 58.8326 0.00390063
607 2 23.7039 58.8596 0.0440963
608 2 27.4333 58.8928 -0.00315929
609 2 31.2748 58.8789 15.7331
610 2 35.3218 58.7314 15.7871
611 2 39.0614 58.5684 15.944
612 2 43.195 58.7622 16.0819
613 2 47.1305 58.9545 15.7692
614 2 51.1137 58.7572 15.8354
615 2 55.1886 58.7914 15.8548
616 2 59.1189 58.7568 0.0143595
617 2 62.9984 58.7473 16.0451
618 2 67.1622 58.937 0.00973165
619 2 71.0751 59.0251 16.0683
620 2 74.9821 59.1525 0.236289
621 2 79.2216 59.1083 0.0741448
622 2 83.107 59.0087 -0.0674357
623 2 87.2675 59.1509 15.9228
624 2 91.1686 59.2817 15.8855
625 2 94.9462 59.2056 0.0270652
626 2 99.0508 59.2119 0.13896
627 2 103.415 59.2309 15.904
628 2 107.031 59.287 0.0882991
629 2 111.188 59.3309 15.921
630 2 115.222 59.5118 15.9872
631 2 119.176 59.5774 15.8671
632 2 123.285 59.5981 0.135058
633 2 127.145 59.4395 15.8934
634 2 131.082 59.3726 0.0768527
635 2 135.036 59.6374 15.7671
636 2 139.049 59.3883 0.0926217
637 2 142.96 59.1849 -0.0333803
638 2 146.687 59.1676 0.263975
639 2 150.539 59.2134 15.8178
640 2 154.608 59.0695 0.0515362
641 2 0.297762 63.2082 0.00414634
642 2 4.20664 63.1413 0.0636744
643 2 7.84169 62.9357 15.7875
644 2 11.7985 62.9386 15.7489
645 2 15.8939 62.8961 15.9175
646 2 19.7839 62.9089 0.0497417
647 2 23.7377 62.9674 0.0446044
648 2 27.4369 62.8376 0.0869705
649 2 31.2819 62.7905 0.1402
650 2 35.1838 62.7113 0.211242
651 2 39.3186 62.9153 15.9104
652 2 43.0963 62.6776 0.107249
653 2 47.1274 62.6575 16.0111
654 2 50.9513 62.6729 15.8386
655 2 54.8238 62.7713 0.169731
656 2 58.9135 62.8814 15.6854
657 2 63.0373 62.8749 0.0608611
658 2 66.807 63.0225 15.8147
659 2 70.8646 63.1983 0.177304
660 2 75.1426 63.034 0.116896
661 2 78.9429 62.9409 0.205499
662 2 82.8661 63.1513 0.379071
663 2 87.0124 63.0433 15.9688
664 2 91.0559 63.0669 15.8037
665 2 95.0063 63.0681 0.0750986
666 2 99.1632 63.0852 0.329628
667 2 103.128 63.2547 15.9247
668 2 107.065 63.2828 15.942
669 2 110.973 63.3877 15.9814
670 2 115.148 63.3342 0.219607
671 2 119.099 63.3331 15.8976
672 2 123.067 63.431 0.266088
673 2 127.052 63.381 15.9385
674 2 130.99 63.3867 -0.0995793
675 2 134.96 63.591 16.0538
676 2 138.793 63.2331 15.8326
677 2 142.752 63.4284 15.8518
678 2 146.821 63.1889 0.3182
679 2 150.726 63.1766 16.0427
680 2 154.524 63.3342 -0.0216864
681 2 0.201035 67.1318 -0.000321022
682 2 4.24207 67.4176 0.0593224
683 2 8.10129 66.8958 15.8768
684 2 11.7988 66.9287 15.7135
685 2 15.5726 66.9088 0.129861
686 2 19.376 67.0115 0.108279
687 2 23.7099 66.8722 0.186453
688 2 27.4375 66.7608 0.240333
689 2 31.3055 66.8952 0.187297
690 2 35.3465 66.7808 0.135769
691 2 39.2723 66.6976 15.8168
692 2 43.1829 66.6991 -0.114675
693 2 47.2021 66.7348 15.8893
694 2 50.9525 66.5655 16.0615
695 2 54.9671 66.5656 16.0064
696 2 58.9503 66.6521 15.9896
697 2 62.9367 66.6268 15.8382
698 2 67.0413 66.9721 16.0378
699 2 70.9266 67.0699 -0.0599812
700 2 74.8579 67.0498 15.8231
701 2 78.9498 66.9018 15.8226
702 2 83.0388 66.9613 0.000188278
703 2 86.8841 67.0722 15.8961
704 2 90.8924 66.9042 15.8676
705 2 94.8636 66.8165 0.0696492
706 2 98.943 66.9616 0.196133
707 2 103.2 67.1935 0.324169
708 2 106.946 67.2393 16.0578
709 2 111.013 67.1507 16.1183
710 2 115.078 67.254 16.0834
711 2 118.98 67.4636 0.230126
712 2 122.992 67.5334 0.263507
713 2 127.082 67.4246 0.251083
714 2 131 67.4487 16.0699
715 2 135.097 67.4755 -0.0156236
716 2 138.856 67.4949 0.359422
717 2 142.968 67.2869 15.781
718 2 146.937 67.4574 15.9209
719 2 150.849 67.2159 15.858
720 2 154.742 67.3293 0.176516
721 2 0.16867 71.1076 0.162788
722 2 4.00092 71.0332 15.8993
723 2 7.8896 70.8805 0.140557
724 2 11.9975 70.9048 16.0996
725 2 15.6705 70.9873 0.457887
726 2 19.7971 71.0068 0.319196
727 2 23.865 70.7969 0.0145532
728 2 27.4987 70.9117 15.9886
729 2 31.556 70.8421 0.150967
730 2 35.2558 70.9255 0.316146
731 2 39.1935 70.751 15.9212
732 2 43.2083 70.6446 0.236983
733 2 47.1378 70.7293 15.9361
734 2 51.0046 70.745 15.968
735 2 54.9137 70.484 0.138477
736 2 58.8097 70.5731 0.345665
737 2 62.8272 70.5597 0.179315
738 2 66.8767 70.733 15.9308
739 2 70.7217 70.6969 15.7172
740 2 74.9338 70.891 16.0702
741 2 78.879 70.837 0.0332963
742 2 82.694 70.8101 0.229796
743 2 86.941 70.9587 15.9059
744 2 91.1214 70.9876 15.9614
745 2 94.9042 70.9876 16.0033
746 2 98.8338 70.9752 15.8643
747 2 102.96 70.8991 16.0925
748 2 106.878 71.1544 16.0337
749 2 111.062 71.1093 15.946
750 2 115.066 71.321 0.148977
751 2 118.954 71.323 15.9439
752 2 122.949 71.2163 0.0390596
753 2 126.957 71.4054 15.8205
754 2 130.984 71.3014 15.9857
755 2 135.012 71.3535 15.9614
756 2 139.009 71.2522 15.8486
757 2 142.957 71.2079 0.465618
758 2 146.894 71.0498 0.1582
759 2 150.601 71.2398 0.244747
760 2 154.524 71.2349 15.9775
761 2 0.430882 75.2238 0.13159
762 2 4.29214 74.9691 15.9353
763 2 8.05841 74.9813 16.0692
764 2 11.8792 74.8757 15.9135
765 2 15.8795 74.8476 15.8277
766 2 19.8421 74.9269 15.9949
767 2 23.7666 74.8605 15.8481
768 2 27.4549 74.9055 15.9165
769 2 31.4228 74.8062 0.265002
770 2 35.3873 74.8656 15.8571
771 2 39.1528 74.9573 15.8414
772 2 43.1016 74.7021 0.17002
773 2 46.9137 74.5225 16.1092
774 2 50.9078 74.7811 0.364291
775 2 55.0113 74.5309 16.0255
776 2 58.8448 74.5022 15.8435
777 2 62.5096 74.443 15.8866
778 2 66.5672 74.4584 0.143105
779 2 70.7988 74.7759 -0.0380245
780 2 74.6657 74.6792 0.106105
781 2 78.9517 74.7567 0.104003
782 2 82.8443 74.7576 0.267186
783 2 86.7802 74.7782 0.0277955
784 2 90.8241 74.8794 16.0815
785 2 94.9471 75.0358 15.9734
786 2 98.9278 75.0833 0.253431
787 2 103.055 74.8253 15.9392
788 2 106.818 75.0728 15.8617
789 2 110.98 75.0089 16.1564
790 2 114.931 75.0354 15.9102
791 2 118.999 75.3189 0.344511
792 2 122.851 75.1706 15.9324
793 2 126.944 75.1766 16.0818
794 2 130.893 75.2789 0.11781
795 2 135.036 75.136 15.967
796 2 138.919 75.356 16.075
797 2 142.987 75.3102 16.0107
798 2 146.926 75.1609 15.7553
799 2 150.771 75.2759 0.0669287
800 2 154.665 75.244 0.109243
801 2 0.174731 79.0959 0.153479
802 2 4.15944 79.1378 15.6733
803 2 8.17211 78.9563 0.210922
804 2 12.1115 78.9275 0.164118
805 2 15.7626 79.0699 15.9838
806 2 19.5598 78.8817 15.9931
807 2 23.6878 78.8931 0.191148
808 2 27.5771 78.9383 0.15773
809 2 31.3987 78.8461 -0.0874506
810 2 35.2976 78.868 0.0141339
811 2 39.244 78.9985 15.8715
812 2 43.2137 79.0724 15.9707
813 2 47.1081 78.638 15.9086
814 2 51.1272 78.5953 0.189079
815 2 55.0345 78.5924 0.29215
816 2 58.9255 78.5563 16.1522
817 2 62.6845 78.4565 16.1303
818 2 66.5407 78.2937 0.153138
819 2 70.6168 78.5822 15.8771
820 2 74.7704 78.5614 0.0657949
821 2 78.6188 78.5636 15.776
822 2 82.7605 78.7123 15.8457
823 2 86.7817 78.6541 0.114279
824 2 90.709 78.7636 0.129457
825 2 94.6295 78.6425 0.227789
826 2 98.8675 78.7789 15.9359
827 2 102.608 78.5654 15.8806
828 2 106.893 79.0463 0.127434
829 2 111.05 78.938 0.11577
830 2 114.89 78.8486 0.239111
831 2 118.87 79.0829 0.0801842
832 2 122.833 79.1096 15.9603
833 2 126.877 79.0129 0.103485
834 2 131.026 79.0544 15.8275
835 2 134.914 79.2162 0.189857
836 2 139.055 79.244 16.0761
837 2 142.927 79.2298 15.912
838 2 146.743 79.1738 15.7107
839 2 150.704 79.1458 15.9663
840 2 154.587 79.2167 0.154651
841 2 0.406844 83.1019 16.0458
842 2 4.34628 82.9617 15.9751
843 2 8.10112 82.8641 0.28588
844 2 11.9174 82.8783 15.8798
845 2 15.729 82.9959 15.9324
846 2 19.7365 83.009 0.2088
847 2 23.6404 83.01 15.9204
848 2 27.6419 82.9458 0.0439519
849 2 31.2988 82.8446 15.9312
850 2 35.3793 82.8548 0.150427
851 2 39.2864 82.9196 0.112148
852 2 43.1299 82.8483 15.7833
853 2 47.1246 82.705 0.100785
854 2 51.0228 82.5152 0.126899
855 2 54.7963 82.4697 0.218605
856 2 59.0507 82.3968 15.8253
857 2 62.7214 82.3677 15.997
858 2 66.6072 82.3315 15.8128
859 2 70.7889 82.4666 15.7983
860 2 74.6566 82.5628 15.9749
861 2 78.8588 82.3987 15.8811
862 2 82.7755 82.5859 0.0931217
863 2 86.7331 82.6005 -0.00451267
864 2 90.7107 82.7412 15.9226
865 2 94.7916 82.7945 0.260495
866 2 98.9182 82.7332 16.0655
867 2 102.58 83.0026 0.0405192
868 2 106.777 82.8479 15.9862
869 2 110.885 82.8029 16.1306
870 2 114.884 82.9495 15.9723
871 2 118.813 83.032 15.9963
872 2 122.957 82.9353 16.0242
873 2 126.903 82.9338 15.954
874 2 130.834 82.9542 15.8724
875 2 134.615 83.2318 0.220037
876 2 138.865 83.0561 15.982
877 2 142.856 83.1765 -0.0424942
878 2 146.875 83.2439 16.0833
879 2 150.793 83.1134 0.192376
880 2 154.76 83.1888 0.119805
881 2 0.523008 87.0603 15.8034
882 2 4.23331 87.0993 0.0323886
883 2 8.23437 87.0335 15.9853
884 2 12.0591 86.9658 15.7918
885 2 15.9218 87.015 15.8677
886 2 19.809 87.0536 16.1263
887 2 23.6443 86.9422 15.9573
888 2 27.6133 86.9332 0.219861
889 2 31.5049 86.8725 15.834
890 2 35.5513 86.836 0.0845832
891 2 39.2956 86.849 15.5983
892 2 43.2444 86.7249 15.7816
893 2 47.1504 86.6471 16.0717
894 2 50.9327 86.6226 15.7689
895 2 54.9597 86.3466 15.8296
896 2 58.8699 86.6325 -0.0140476
897 2 62.8385 86.3227 0.187221
898 2 66.7549 86.5669 15.7398
899 2 70.7187 86.4178 -0.00987185
900 2 74.9088 86.2942 15.7662
901 2 78.8623 86.2843 0.0970616
902 2 82.7721 86.4487 0.0876646
903 2 86.6361 86.5655 15.9151
904 2 90.5636 86.5698 15.8648
905 2 94.6517 86.7858 16.069
906 2 98.868 86.4335 16.1103
907 2 102.701 86.8539 0.0931034
908 2 106.782 86.7912 0.122133
909 2 110.755 86.745 15.9056
910 2 114.749 86.9043 0.093133
911 2 118.548 86.6684 0.381972
912 2 122.917 86.8413 0.232827
913 2 126.778 86.7313 16.1368
914 2 130.703 87.0226 15.8059
915 2 134.803 86.9103 15.8861
916 2 138.814 87.2246 15.8896
917 2 142.96 87.2708 15.9681
918 2 146.895 87.2074 0.028249
919 2 150.801 87.1727 15.7986
920 2 154.915 87.3408 15.8363
921 2 0.46454 91.0657 0.0235345
922 2 4.42896 91.0293 0.131486
923 2 8.29961 91.136 15.9744
924 2 12.0538 91.1186 15.8267
925 2 15.9948 91.098 0.233207
926 2 19.9655 90.9416 -0.0279954
927 2 23.8023 91.038 15.9926
928 2 27.7621 90.8269 15.8614
929 2 31.6399 90.8015 15.8835
930 2 35.5783 90.8597 0.168336
931 2 39.4112 90.82 15.9477
932 2 43.3291 90.7873 15.8233
933 2 47.3493 90.6512 0.295129
934 2 51.1939 90.5409 0.0377547
935 2 55.2487 90.4377 0.027988
936 2 59.14 90.3542 0.174482
937 2 62.8573 90.4958 0.247035
938 2 66.7221 90.4966 15.7393
939 2 70.6754 90.3187 15.7986
940 2 74.76 90.2212 0.0667344
941 2 78.6492 90.3358 0.0237189
942 2 82.6411 90.3354 0.126696
943 2 86.5432 90.3881 0.19891
944 2 90.6072 90.2639 0.106112
945 2 94.6465 90.5177 15.9757
946 2 98.6613 90.7675 15.9173
947 2 102.69 90.6675 0.253954
948 2 106.741 90.4586 16.0142
949 2 110.551 90.6033 16.1673
950 2 114.614 90.8546 0.462761
951 2 118.656 90.7001 0.103177
952 2 122.879 90.798 15.8729
953 2 126.727 90.7767 0.194885
954 2 130.666 90.8378 0.213346
955 2 134.659 90.8669 15.9535
956 2 138.746 90.8003 15.989
957 2 142.839 90.996 15.7967
958 2 146.762 91.1188 16.0626
959 2 150.794 91.2543 16.0421
960 2 154.774 91.1504 15.8445
961 2 0.41424 95.0108 0.302916
962 2 4.39542 95.163 16.1771
963 2 8.31951 95.109 15.8526
964 2 12.1188 95.0315 15.8987
965 2 15.9591 94.824 15.9509
966 2 19.9431 95.0925 15.7692
967 2 23.8709 95.114 15.882
968 2 27.8711 94.8362 16.0145
969 2 31.8311 94.8632 15.8769
970 2 35.546 94.9481 15.9231
971 2 39.6126 94.5873 15.7567
972 2 43.6082 94.7749 15.6957
973 2 47.3786 94.5059 0.0803752
974 2 51.4208 94.7148 15.7798
975 2 55.2856 94.4764 0.20664
976 2 59.1496 94.4853 15.8667
977 2 62.9946 94.5455 0.136079
978 2 66.9629 94.2336 0.154865
979 2 70.8185 94.1974 0.0302042
980 2 74.6822 94.2993 -0.0541238
981 2 78.6661 94.281 15.7631