ITEM: TIMESTEP
50600
ITEM: NUMBER OF ATOMS
43200
ITEM: BOX BOUNDS xy xz yz pp pp pp
0.0000000000000000e+00 9.4992000000000004e+01 0.0000000000000000e+00
0.0000000000000000e+00 9.4992000000000004e+01 0.0000000000000000e+00
-2.9483348360685113e-02 5.9729483348361569e+01 0.0000000000000000e+00
ITEM: ATOMS id type x y z
1 2 0.017754 -0.0921606 0.077714
2 2 3.94925 -0.00110908 0.270422
3 2 8.08303 0.0854551 0.131588
4 2 11.8485 0.0272832 0.285211
5 2 15.9457 -0.0546607 0.339192
6 2 19.9151 -0.062968 0.174927
7 2 23.7151 -0.0466345 0.215643
8 2 27.7493 -0.338725 0.113596
9 2 31.5867 0.0883597 0.282801
10 2 35.6102 0.11145 0.252417
11 2 39.754 0.0467435 0.159013
12 2 43.754 0.0338347 0.228703
13 2 47.6554 0.128064 0.321522
14 2 51.7146 0.090129 0.330142
15 2 55.5055 -0.0290681 0.299082
16 2 59.4087 0.0581209 0.306975
17 2 63.5233 0.152307 0.103083
18 2 67.4747 -0.0539295 0.212888
19 2 71.2595 -0.171993 0.137682
20 2 75.4076 0.0206214 0.347437
21 2 79.3873 0.0267335 0.169878
22 2 83.2012 -0.162171 0.212164
23 2 87.2239 -0.0222126 0.250805
24 2 90.9923 -0.126647 0.372419
25 2 0.0644883 3.99258 0.336125
26 2 3.9923 4.03919 0.329382
27 2 7.97156 4.18965 0.287545
28 2 12.1744 3.98396 0.287026
29 2 15.9691 3.88308 0.330883
30 2 20.0524 4.12914 0.123149
31 2 23.7855 3.78318 0.280489
32 2 27.6969 3.96059 0.288899
33 2 31.9743 3.99981 0.191795
34 2 35.8137 3.91301 0.252234
35 2 39.7822 3.76758 0.375779
36 2 43.719 3.68742 0.12359
37 2 47.8332 4.05979 0.16199
38 2 51.6234 3.98758 0.203154
39 2 55.3792 4.03175 0.0971266
40 2 59.4257 3.85564 0.361814
41 2 63.3736 4.16256 0.169119
42 2 67.5658 3.93767 0.263671
43 2 71.2427 4.09406 0.265596
44 2 75.4037 3.82915 0.31299
45 2 79.253 4.09375 0.246882
46 2 83.28 4.01171 0.187542
47 2 87.1168 3.9882 0.294471
48 2 91.0691 3.9697 0.288639
49 2 0.24263 7.91356 0.0609581
50 2 4.05025 7.91944 0.266958
51 2 7.90953 7.85107 0.257931
52 2 11.9882 8.00652 0.334341
53 2 16.0927 7.70726 0.0250826
54 2 19.8495 7.96629 0.0112777
55 2 23.9078 7.82891 0.299166
56 2 27.784 7.79278 0.368085
57 2 31.9771 7.80089 0.230623
58 2 35.8771 7.97545 0.215276
59 2 39.8161 7.96313 0.117092
60 2 43.5685 8.06876 0.324173
61 2 47.4934 7.76643 0.227032
62 2 51.5299 8.1829 -0.0134257
63 2 55.6255 7.9348 0.119148
64 2 59.3307 7.76824 0.259682
65 2 63.2147 8.09388 0.119797
66 2 67.4061 7.84502 0.171798
67 2 71.5081 8.12478 0.30591
68 2 75.5475 7.8845 0.0667995
69 2 79.1723 7.96087 0.246366
70 2 83.0792 7.9589 0.129938
71 2 87.3323 8.08634 0.233381
72 2 91.159 7.81877 0.233307
73 2 0.10027 12.0029 0.0794424
74 2 4.06665 11.9306 0.205536
75 2 7.91048 11.7397 0.383023
76 2 11.7852 11.7905 0.393684
77 2 16.1161 11.8751 0.0645626
78 2 20.0315 11.9639 0.135346
79 2 23.7667 11.7398 0.125244
80 2 27.8801 11.7775 0.282517
81 2 31.5618 11.7011 0.340558
82 2 35.6421 11.9453 0.0489396
83 2 39.7683 11.937 0.273599
84 2 43.6242 12.1207 0.209108
85 2 47.6125 11.8971 0.330988
86 2 51.5284 12.0848 0.139182
87 2 55.5474 11.9944 0.237215
88 2 59.3811 11.8236 0.375598
89 2 63.3424 11.922 0.0723474
90 2 67.3156 12.0317 0.268009
91 2 71.3761 11.8252 0.208858
92 2 75.297 11.7733 0.293102
93 2 79.2681 11.9669 0.00929023
94 2 83.3099 11.909 0.0522431
95 2 87.2034 11.9996 0.215196
96 2 91.1503 11.8511 0.256434
97 2 0.0577969 15.7999 0.306136
98 2 4.0649 15.7612 0.194207
99 2 8.09454 15.5935 0.311671
100 2 12.0013 15.594 0.341158
101 2 16.0366 15.7767 0.150256
102 2 19.8676 15.7062 0.136895
103 2 23.7575 15.915 0.169465
104 2 27.6615 15.5873 0.22539
105 2 31.7308 15.7279 0.265622
106 2 35.7596 15.868 0.1218
107 2 39.6851 15.9191 0.172841
108 2 43.5941 15.8751 0.149799
109 2 47.5166 16.0644 0.0698609
110 2 51.6849 15.9025 0.223168
111 2 55.5893 15.9011 0.121053
112 2 59.6171 15.7471 0.205436
113 2 63.5098 16.025 0.0824115
114 2 67.5339 15.8405 0.0452142
115 2 71.4761 15.7842 0.164921
116 2 75.3568 15.8367 0.178167
117 2 79.2446 15.7657 0.0668658
118 2 83.1007 16.0368 0.0615299
119 2 87.1931 15.7282 0.170586
120 2 91.276 15.9774 0.0194843
121 2 -0.00843903 19.6981 0.230517
122 2 4.02978 19.9099 0.355843
123 2 7.83148 19.7366 0.259522
124 2 12.0061 19.6061 0.445409
125 2 15.9839 19.6288 0.284342
126 2 19.8688 19.575 0.334882
127 2 23.9655 19.7408 0.274308
128 2 27.8818 19.8073 0.296284
129 2 31.8098 19.7612 0.137397
130 2 35.7345 19.7928 0.127759
131 2 39.7271 19.7781 0.291136
132 2 43.5233 20.0778 0.279385
133 2 47.6392 19.7516 0.0210128
134 2 51.525 19.8101 0.0488244
135 2 55.7022 19.8748 0.161573
136 2 59.6569 19.6765 0.297021
137 2 63.5596 19.9177 0.00748314
138 2 67.5232 19.7124 0.0842952
139 2 71.4059 19.7272 0.288627
140 2 75.3413 19.973 0.302171
141 2 79.3984 19.8761 0.300115
142 2 83.2175 19.6476 0.0814133
143 2 87.1827 19.7472 0.174525
144 2 91.3096 19.6148 0.133175
145 2 0.127537 23.6385 0.235591
146 2 3.95434 23.6959 0.277356
147 2 8.0815 23.6487 0.15697
148 2 12.0034 23.6418 0.34892
149 2 16.0109 23.6532 0.428281
150 2 19.8157 23.6736 0.274996
151 2 23.8892 23.5181 0.324018
152 2 27.8786 23.753 0.233657
153 2 31.8825 23.7034 0.118255
154 2 35.5869 23.8684 0.212241
155 2 39.557 23.9068 0.198031
156 2 43.528 24.0151 0.185817
157 2 47.6498 23.7453 0.173297
158 2 51.5787 23.9134 0.306178
159 2 55.3717 23.7068 0.202914
160 2 59.5482 23.8447 0.133375
161 2 63.5148 23.6875 0.0376825
162 2 67.4025 23.804 0.0592603
163 2 71.402 23.7724 0.106827
164 2 75.3544 23.8059 0.0765942
165 2 79.3194 23.6397 0.195829
166 2 83.2627 23.6871 0.0996252
167 2 87.249 23.7483 0.166885
168 2 91.0577 23.5804 0.247888
169 2 0.0639059 27.5809 0.164253
170 2 3.97967 27.8231 0.172796
171 2 7.93288 27.6696 0.239724
172 2 11.953 27.6559 0.0949435
173 2 16.0469 27.6411 0.278109
174 2 19.8741 27.7577 0.432193
175 2 23.669 27.6135 0.175895
176 2 27.8195 27.7839 0.29079
177 2 31.7235 27.6731 0.242552
178 2 35.5464 27.8036 0.133686
179 2 39.6193 27.9623 0.348226
180 2 43.6912 27.9831 0.194921
181 2 47.5249 27.8808 0.176067
182 2 51.4532 27.6602 0.244393
183 2 55.5021 27.5199 0.0819597
184 2 59.3947 27.5609 0.276523
185 2 63.484 27.764 0.118521
186 2 67.5728 27.8811 0.11029
187 2 71.3318 27.9606 -0.156865
188 2 75.3928 27.8635 0.244549
189 2 79.4868 27.6749 0.0966099
190 2 83.1678 27.7178 0.238821
191 2 87.182 27.6344 0.273809
192 2 91.1689 27.8413 0.171869
193 2 -0.00190988 31.5275 0.044653
194 2 4.2601 31.9325 0.256509
195 2 7.93845 31.4596 0.197414
196 2 11.8711 31.6972 0.349464
197 2 15.8967 31.6602 0.425281
198 2 19.8159 31.8145 0.227959
199 2 23.8395 31.4175 -0.00192749
200 2 27.8928 31.6197 0.225923
201 2 31.6901 31.7136 0.294321
202 2 35.673 31.8612 0.253706
203 2 39.6601 31.7199 0.137246
204 2 43.7815 31.8538 0.300299
205 2 47.6857 31.6997 0.206559
206 2 51.6232 31.3705 0.193193
207 2 55.594 31.6479 0.099745
208 2 59.4534 31.5416 0.218307
209 2 63.4097 31.6931 0.105498
210 2 67.3548 31.8587 0.398245
211 2 71.4017 31.6624 0.159853
212 2 75.3908 31.7215 0.162278
213 2 79.1638 31.7805 0.395493
214 2 83.0885 31.5545 0.107009
215 2 87.0304 31.7032 0.248452
216 2 91.0476 31.4911 0.177986
217 2 0.212028 35.5688 0.0345919
218 2 3.89013 35.6483 0.212094
219 2 7.93267 35.5031 0.107517
220 2 11.7989 35.5218 0.121273
221 2 15.7991 35.4727 0.326184
222 2 19.9741 35.7029 0.266092
223 2 23.6571 35.3099 0.296722
224 2 27.7824 35.5204 0.166964
225 2 31.7737 35.5346 0.351186
226 2 35.7962 35.59 0.31008
227 2 39.6911 35.5618 0.119992
228 2 43.6757 35.4813 0.277616
229 2 47.8438 35.7512 0.0744033
230 2 51.5026 35.4958 0.151528
231 2 55.4072 35.5423 0.289755
232 2 59.3789 35.7033 0.19864
233 2 63.3965 35.6104 0.363645
234 2 67.3893 35.6745 0.18606
235 2 71.4765 35.526 0.214512
236 2 75.241 35.6236 0.420662
237 2 79.3002 35.6593 0.276619
238 2 83.1674 35.6869 0.252815
239 2 87.1601 35.6713 0.1295
240 2 91.0155 35.6822 0.129825
241 2 0.0992099 39.7836 0.168217
242 2 4.07007 39.6239 0.117202
243 2 8.04604 39.4867 0.136614
244 2 11.979 39.3486 0.279729
245 2 16.0806 39.5415 0.178948
246 2 19.8712 39.3807 0.110917
247 2 23.8417 39.5125 0.215196
248 2 27.6881 39.5416 0.082711
249 2 31.7915 39.5282 0.0475257
250 2 35.6707 39.5493 0.274875
251 2 39.7175 39.6105 0.218501
252 2 43.8681 39.5529 0.142714
253 2 47.641 39.6876 0.262604
254 2 51.6606 39.462 0.139159
255 2 55.4391 39.5156 0.192981
256 2 59.6015 39.7389 0.20262
257 2 63.5407 39.564 0.0411921
258 2 67.4472 39.4904 0.122966
259 2 71.322 39.6462 0.00285855
260 2 75.2674 39.5047 0.360754
261 2 79.2753 39.4523 0.357648
262 2 83.2239 39.618 0.0214585
263 2 87.2838 39.6694 0.142263
264 2 91.2239 39.6264 0.273056
265 2 0.215612 43.5828 0.202357
266 2 4.04028 43.7739 0.0933992
267 2 8.20669 43.5028 0.0906761
268 2 12.0328 43.5517 0.450719
269 2 16.0083 43.6306 0.215727
270 2 19.9293 43.2563 0.320444
271 2 23.9531 43.1616 0.145073
272 2 27.9153 43.5637 0.231404
273 2 31.8799 43.5584 0.158209
274 2 35.7128 43.3954 0.311946
275 2 39.5695 43.5828 0.202154
276 2 43.5707 43.7089 0.120827
277 2 47.5945 43.7861 0.0255702
278 2 51.7123 43.563 0.15931
279 2 55.584 43.7009 0.269741
280 2 59.3733 43.5411 0.373771
281 2 63.5193 43.4224 0.0896844
282 2 67.5021 43.4643 0.140573
283 2 71.3026 43.7325 0.403365
284 2 75.3142 43.4285 0.239202
285 2 79.2712 43.5016 0.355364
286 2 83.2941 43.3736 0.266011
287 2 87.1344 43.5021 0.216638
288 2 91.1961 43.5926 0.315515
289 2 0.229719 47.6995 0.111714
290 2 3.97267 47.5224 0.330561
291 2 7.85337 47.3484 0.0834682
292 2 11.9709 47.4776 0.151947
293 2 16.0076 47.5481 0.349608
294 2 20.0643 47.3257 0.191392
295 2 23.8114 47.5148 0.00966493
296 2 27.8993 47.5793 0.0357496
297 2 31.9647 47.4039 0.063438
298 2 35.8381 47.4474 0.184587
299 2 39.6459 47.5601 0.282368
300 2 43.6563 47.4848 0.412685
301 2 47.6871 47.7843 0.191558
302 2 51.5013 47.6334 0.316267
303 2 55.5469 47.6178 0.212788
304 2 59.4173 47.6011 0.273658
305 2 63.6267 47.6023 0.238762
306 2 67.5721 47.4421 0.369425
307 2 71.4693 47.5058 0.305363
308 2 75.2255 47.1978 0.299326
309 2 79.4225 47.4892 0.159572
310 2 83.2864 47.4045 0.37871
311 2 87.1577 47.6288 0.236177
312 2 91.0933 47.586 0.131526
313 2 0.0962859 51.3525 0.391653
314 2 3.89047 51.549 0.232829
315 2 8.15639 51.2103 0.0223554
316 2 12.0514 51.5861 0.119356
317 2 16.0323 51.4395 0.216341
318 2 20.1851 51.3246 0.241263
319 2 24.0181 51.2664 0.323211
320 2 27.8484 51.3761 0.148498
321 2 31.8179 51.4961 0.115811
322 2 35.7506 51.4141 0.28358
323 2 39.804 51.411 0.293917
324 2 43.7414 51.3677 0.296246
325 2 47.5474 51.5387 0.208941
326 2 51.5298 51.3439 0.269227
327 2 55.4176 51.4551 0.203818
328 2 59.6557 51.5106 0.105194
329 2 63.6481 51.1847 0.140383
330 2 67.5634 51.4363 0.248696
331 2 71.5901 51.5106 0.226118
332 2 75.1391 51.3911 0.266969
333 2 79.2358 51.2909 0.261768
334 2 83.1173 51.6371 0.193709
335 2 87.2981 51.4966 0.199894
336 2 91.2379 51.5792 0.255076
337 2 0.190298 55.41 0.250638
338 2 4.01998 55.4462 0.387905
339 2 7.96985 55.3285 0.330909
340 2 11.988 55.4385 0.163369
341 2 16.0816 55.5443 0.168237
342 2 20.0154 55.2765 0.161815
343 2 24.0353 55.3853 0.198689
344 2 27.78 55.4654 0.509972
345 2 31.766 55.4169 0.164537
346 2 35.6085 55.5077 0.271464
347 2 39.479 55.2898 0.300818
348 2 43.6662 55.5046 0.254419
349 2 47.6401 55.3737 0.486279
350 2 51.6544 55.3068 0.17748
351 2 55.5297 55.2332 0.0627795
352 2 59.4948 55.38 0.212632
353 2 63.516 55.1162 0.0338953
354 2 67.3543 55.4303 0.265456
355 2 71.4146 55.2846 0.260766
356 2 75.4007 55.4451 0.166412
357 2 79.4048 55.4262 0.225095
358 2 83.402 55.5818 0.281339
359 2 87.1625 55.2949 0.41595
360 2 91.2366 55.2954 0.163956
361 2 0.148852 59.4871 0.305165
362 2 4.11046 59.341 -0.0810406
363 2 8.12688 59.5271 0.224307
364 2 12.0671 59.3043 0.386876
365 2 15.9745 59.2227 0.106691
366 2 19.9037 59.5091 0.0876544
367 2 23.6444 59.3239 0.246076
368 2 27.7528 59.208 0.248028
369 2 31.7049 59.3939 0.0685546
370 2 35.6171 59.258 0.241699
371 2 39.4432 59.2227 0.237225
372 2 43.3882 59.3648 0.2357
373 2 47.7014 59.3913 0.195327
374 2 51.6773 59.2839 0.280885
375 2 55.4743 59.1467 0.233224
376 2 59.5787 59.3344 0.197243
377 2 63.452 59.284 0.347703
378 2 67.4661 59.309 0.254783
379 2 71.3522 59.4907 0.288685
380 2 75.1977 59.2641 0.203757
381 2 79.3945 59.3802 0.346789
382 2 83.1021 59.4331 0.477777
383 2 87.207 59.5434 0.379102
384 2 91.1999 59.3358 0.249634
385 2 0.217179 63.387 -0.0253536
386 2 4.02182 63.3294 0.308719
387 2 7.99548 63.2738 0.236921
388 2 11.9984 63.5248 0.498291
389 2 16.0715 63.5164 0.0329973
390 2 20.0578 63.4041 0.209072
391 2 23.9934 63.3892 0.21351
392 2 27.7619 63.2834 0.416478
393 2 31.7146 63.2006 0.385787
394 2 35.7342 63.3608 0.0693351
395 2 39.8643 63.4271 0.267302
396 2 43.529 63.3014 0.355365
397 2 47.358 63.324 0.328045
398 2 51.356 63.4055 0.160098
399 2 55.3996 63.0932 0.406712
400 2 59.294 63.3424 0.325876
401 2 63.2761 63.2432 0.346751
402 2 67.2009 63.3365 0.209082
403 2 71.2647 63.2691 0.356578
404 2 75.4901 63.3113 0.354881
405 2 79.2837 63.3838 0.544772
406 2 83.2374 63.4539 0.265179
407 2 87.3157 63.243 0.401188
408 2 91.1516 63.3445 0.185492
409 2 0.226196 67.3953 0.143941
410 2 4.0038 67.2856 0.193651
411 2 7.96549 67.3221 0.441129
412 2 12.1483 67.4757 0.454665
413 2 16.0606 67.1865 0.0252563
414 2 20.0676 67.278 0.32028
415 2 24.0292 67.2825 0.1682
416 2 27.8126 67.1549 0.0271379
417 2 31.86 67.29 0.287708
418 2 35.693 67.296 0.0838539
419 2 39.6664 67.2064 0.383696
420 2 43.5726 67.3322 0.0141211
421 2 47.6712 67.1689 0.211759
422 2 51.5575 67.2776 0.1828
423 2 55.3426 67.2353 0.391355
424 2 59.2275 67.2532 0.272535
425 2 63.2671 67.2988 0.412037
426 2 67.3113 67.3703 0.35646
427 2 71.2459 67.1443 0.219425
428 2 75.3375 67.4056 0.28998
429 2 79.1152 67.2777 0.318646
430 2 83.2011 67.3685 0.0359223
431 2 87.1 67.2123 0.196667
432 2 91.0461 67.4477 0.260141
433 2 -0.0317044 71.3845 0.333897
434 2 3.87156 71.1298 0.234729
435 2 7.89021 71.3773 0.419337
436 2 11.866 70.9952 0.193441
437 2 15.8011 71.2086 0.347417
438 2 19.849 71.1614 0.139183
439 2 24.1587 71.132 0.26555
440 2 27.8169 71.2711 0.230164
441 2 31.6112 71.1703 0.11929
442 2 35.6779 71.3172 0.137781
443 2 39.6423 71.3437 0.375106
444 2 43.741 71.1367 0.415236
445 2 47.5438 71.099 0.222612
446 2 51.4892 71.1957 0.24841
447 2 55.4007 71.1754 0.305273
448 2 59.3775 71.1967 0.0778999
449 2 63.4096 71.2534 0.321167
450 2 67.2173 71.3346 0.298595
451 2 71.4205 71.3455 0.0728172
452 2 75.4876 71.3287 0.275493
453 2 79.443 71.1354 0.339499
454 2 83.2001 71.42 0.349958
455 2 87.2756 71.4092 0.199409
456 2 91.0357 71.0856 -0.083139
457 2 0.139598 75.2304 0.134643
458 2 4.00585 75.2408 0.352578
459 2 8.06705 75.1581 0.324368
460 2 12.0563 75.3126 0.39595
461 2 15.767 75.0106 0.347175
462 2 19.9116 75.0345 0.299756
463 2 23.7581 75.2373 0.222724
464 2 27.7417 75.3947 0.140935
465 2 31.7702 75.1402 0.188858
466 2 35.5051 75.2266 0.257507
467 2 39.7386 75.1548 0.124462
468 2 43.619 75.2471 0.171758
469 2 47.725 75.0059 0.250014
470 2 51.7086 74.947 0.099288
471 2 55.734 75.1213 0.134919
472 2 59.4457 75.2414 0.266661
473 2 63.1933 75.1484 0.149441
474 2 67.396 75.1112 0.368677
475 2 71.2994 75.2562 0.308973
476 2 75.2158 75.1305 0.281494
477 2 79.2794 75.3208 0.0766752
478 2 83.3807 75.3806 0.311796
479 2 87.1366 75.3486 0.324788
480 2 91.1159 75.1963 0.181499
481 2 0.028936 79.2238 0.261298
482 2 4.07848 79.1011 0.297368
483 2 8.02042 79.1137 0.250231
484 2 11.9164 79.129 0.200569
485 2 15.9458 79.1885 0.382708
486 2 19.8186 79.1604 0.144024
487 2 23.8515 79.217 0.10162
488 2 27.7027 79.1372 0.323768
489 2 31.7251 79.2415 0.241084
490 2 35.6717 79.2095 0.168099
491 2 39.665 79.1726 0.28762
492 2 43.6318 79.2391 0.225898
493 2 47.5407 79.0762 0.394324
494 2 51.5573 78.8925 0.429416
495 2 55.4579 79.1248 0.245149
496 2 59.4989 79.1644 0.305851
497 2 63.5386 79.3097 0.195463
498 2 67.3775 79.1423 0.308874
499 2 71.2549 79.1257 0.177576
500 2 75.2389 79.0539 0.202256
501 2 79.2557 79.2902 0.262037
502 2 83.2708 79.2548 0.265768
503 2 87.2133 79.2652 0.207933
504 2 91.211 79.163 0.267635
505 2 0.0142354 83.0856 0.377291
506 2 4.09226 83.3246 0.244373
507 2 7.92193 82.9476 0.427913
508 2 11.8877 83.187 0.259313
509 2 15.9017 82.8822 0.364433
510 2 19.8167 83.1311 0.135347
511 2 23.82 83.1078 0.188989
512 2 27.9072 83.1799 0.22934
513 2 31.6433 83.155 0.283484
514 2 35.7603 83.2139 0.252178
515 2 39.7836 83.2651 0.0394432
516 2 43.8612 83.1051 0.290288
517 2 47.7138 82.7779 0.429643
518 2 51.4584 82.9129 0.33927
519 2 55.5341 83.0132 0.313712
520 2 59.7023 83.1311 0.317202
521 2 63.5436 83.1645 0.348268
522 2 67.2083 83.1351 0.329912
523 2 71.3442 83.1987 0.209144
524 2 75.3258 83.1242 0.279969
525 2 79.3172 83.2156 0.219624
526 2 83.1748 83.0035 0.132159
527 2 87.0868 83.2223 0.251379
528 2 90.9336 83.2203 0.387525
529 2 0.0833648 87.2461 0.100877
530 2 3.98571 87.0486 0.174977
531 2 8.10756 87.138 0.272228
532 2 12.0612 87.0129 0.136295
533 2 15.8675 87.1164 0.366586
534 2 19.9001 86.9345 0.194327
535 2 23.9155 87.0282 -0.0210093
536 2 27.9291 87.2205 0.32628
537 2 31.7749 87.1171 0.310837
538 2 35.7947 87.2136 0.21135
539 2 39.7937 86.8348 0.198661
540 2 43.7484 87.2577 0.380913
541 2 47.6148 87.0086 0.201119
542 2 51.7227 87.0528 0.100572
543 2 55.5351 86.928 0.356184
544 2 59.4945 87.0907 0.413705
545 2 63.4206 87.0696 0.510034
546 2 67.3711 87.0967 0.336301
547 2 71.2799 87.0813 0.420582
548 2 75.2947 86.9715 0.354531
549 2 79.3947 87.0947 0.0315779
550 2 83.1842 87.0427 0.298439
551 2 87.0769 87.2512 0.257223
552 2 91.1066 86.9797 0.297504
553 2 0.155441 90.9909 0.187949
554 2 4.01247 91.0583 0.302433
555 2 8.07349 91.047 0.370744
556 2 11.9618 91.0685 0.384842
557 2 15.9182 91.113 0.273546
558 2 19.748 91.1586 0.186457
559 2 23.7816 90.8231 0.154055
560 2 27.9455 90.9359 0.223901
561 2 31.8959 90.9863 -0.0193106
562 2 35.8128 91.0634 0.214825
563 2 39.7791 91.1761 0.0508867
564 2 43.4983 91.2782 0.164948
565 2 47.6035 91.1478 0.220094
566 2 51.6848 91.099 0.0830908
567 2 55.7508 91.1042 0.184474
568 2 59.5055 91.0189 0.245142
569 2 63.4423 91.1605 0.190381
570 2 67.4671 90.9926 0.361695
571 2 71.6733 91.0714 0.339752
572 2 75.3823 91.0478 0.253869
573 2 79.39 91.0078 0.258998
574 2 83.4073 91.0651 0.214927
575 2 87.197 90.962 0.152955
576 2 91.1075 91.1286 0.141163
577 2 0.0337532 0.0177775 4.13638
578 2 4.06155 0.0409067 4.04109
579 2 7.9471 -0.0080276 4.20138
580 2 12.0993 0.167026 4.37665
581 2 16.0161 -0.0536861 4.1893
582 2 20.0105 -0.0191314 4.41932
583 2 23.9615 0.0301264 4.23589
584 2 27.8128 0.00272318 4.09818
585 2 31.78 -0.0429156 4.22871
586 2 35.9731 0.142061 4.00133
587 2 39.7383 0.0617937 4.34594
588 2 43.7329 -0.165719 4.25783
589 2 47.8033 -0.0350709 4.29001
590 2 51.4656 0.0819747 4.23197
591 2 55.4755 0.0698833 4.30977
592 2 59.5413 0.14699 4.1372
593 2 63.4372 0.151008 3.92994
594 2 67.4874 -0.0021834 4.24381
595 2 71.1842 -0.0494438 4.26517
596 2 75.3883 0.11575 4.28659
597 2 79.2871 -0.174906 4.30108
598 2 83.2718 0.165648 4.20896
599 2 87.2236 0.0595275 4.18757
600 2 91.034 -0.115002 4.26361
601 2 0.00440487 4.09241 4.27934
602 2 3.99562 3.87895 4.24509
603 2 8.22179 3.93661 4.15806
604 2 11.9696 4.11282 4.2448
605 2 15.8331 3.82916 4.39233
606 2 19.8747 4.10344 4.25793
607 2 23.9717 3.96853 4.3318
608 2 27.8428 3.97894 4.23238
609 2 31.9722 3.84285 4.19463
610 2 35.7255 4.049 4.1249
611 2 39.8112 4.14905 4.14279
612 2 43.795 3.80745 4.31757
613 2 47.6647 3.95595 4.20291
614 2 51.7711 4.25769 4.23097
615 2 55.5348 4.10819 4.24983
616 2 59.6387 4.01637 4.24998
617 2 63.4997 3.9639 4.2011
618 2 67.3057 4.10287 4.21984
619 2 71.3349 4.04062 4.25668
620 2 75.3726 3.90724 4.31092
621 2 79.3856 4.18622 4.15385
622 2 83.14 4.07917 4.15564
623 2 87.2354 4.10163 4.09704
624 2 91.0834 3.96937 4.20439
625 2 -0.00675726 7.92856 4.219
626 2 3.99247 7.93379 4.2289
627 2 7.92124 7.9088 4.46451
628 2 11.8462 7.99017 4.41707
629 2 15.9863 7.88256 4.1322
630 2 19.9032 7.88183 4.04724
631 2 23.7283 8.02702 4.25773
632 2 27.8396 7.7482 4.30109
633 2 32.0116 7.80772 4.08093
634 2 35.8993 7.96168 4.18147
635 2 39.8406 7.8567 4.36081
636 2 43.7692 7.96456 4.1076
637 2 47.7916 7.93326 4.40243
638 2 51.5143 7.99987 4.09318
639 2 55.4503 7.9952 4.20627
640 2 59.5297 8.04511 4.09012
641 2 63.4047 8.02915 4.14377
642 2 67.4121 8.25041 4.09191
643 2 71.3349 8.02343 4.12806
644 2 75.2911 8.00765 4.17501
645 2 79.3378 7.93603 3.99706
646 2 83.3417 8.16507 4.17492
647 2 87.1438 7.93663 4.19307
648 2 90.9681 8.16198 4.27728
649 2 -0.100593 12.0382 4.11319
650 2 3.90778 11.7816 4.28213
651 2 7.95052 11.9949 4.36139
652 2 11.9384 11.8199 4.32888
653 2 15.9767 11.7088 4.32641
654 2 19.7237 11.7862 4.03577
655 2 23.7472 11.7126 4.12157
656 2 27.7816 11.9324 4.34691
657 2 31.8975 11.7566 4.21029
658 2 35.8224 11.874 4.30553
659 2 39.7595 11.8249 4.09525
660 2 43.6459 12.0543 4.03472
661 2 47.5376 12.0039 4.28263
662 2 51.647 11.8637 4.13691
663 2 55.503 12.2189 4.08698
664 2 59.6069 12.1563 4.08958
665 2 63.42 11.945 4.27587
666 2 67.3228 11.9492 4.34943
667 2 71.393 12.1566 4.10331
668 2 75.365 11.9582 4.25966
669 2 79.2216 12.0709 4.16496
670 2 83.2369 11.9754 4.16413
671 2 87.2565 12.0003 4.11025
672 2 91.2281 11.9998 4.03755
673 2 0.13711 15.8038 4.29997
674 2 4.02013 15.8801 4.21113
675 2 7.93351 15.8158 4.51215
676 2 12.0236 15.8286 4.24975
677 2 15.64 15.688 4.30309
678 2 19.8218 15.6353 4.36125
679 2 24.126 15.6616 3.9197
680 2 28.0637 15.7758 4.22951
681 2 31.9021 15.9015 4.20706
682 2 35.7705 15.7507 4.0851
683 2 39.5279 16.1292 4.18763
684 2 43.6006 15.9979 4.18245
685 2 47.5868 16.1147 4.0526
686 2 51.5433 15.8927 4.10645
687 2 55.4878 16.0858 4.19135
688 2 59.5802 16.0068 4.26568
689 2 63.4934 16.0352 4.16983
690 2 67.3076 15.9032 4.22177
691 2 71.4706 16.1273 4.10889
692 2 75.2945 15.7749 4.1613
693 2 79.0674 15.851 4.1122
694 2 83.1612 15.8853 4.15962
695 2 87.3524 15.9115 3.98893
696 2 91.1968 15.8488 4.12021
697 2 0.11302 19.9105 4.12557
698 2 4.11632 19.6735 4.24539
699 2 8.21671 19.9306 4.20396
700 2 12.0497 19.9342 4.35344
701 2 15.8921 19.8532 4.08047
702 2 19.7993 19.8073 4.40573
703 2 23.8345 19.5876 4.03886
704 2 27.6517 19.8686 4.17535
705 2 31.6499 19.8458 4.28372
706 2 35.6304 19.9001 4.16982
707 2 39.9112 19.661 4.20346
708 2 43.7637 19.902 3.9479
709 2 47.6525 20.0118 4.07795
710 2 51.5956 19.8845 4.18294
711 2 55.38 19.8107 4.17237
712 2 59.3806 19.8994 4.25309
713 2 63.5705 19.9838 4.16281
714 2 67.3457 19.8912 4.12246
715 2 71.1023 19.9316 4.14556
716 2 75.3323 20.1117 4.17581
717 2 79.2849 19.7898 4.26277
718 2 83.0695 19.8317 4.30112
719 2 87.1417 20.0121 4.10231
720 2 91.1619 19.7058 4.09043
721 2 -0.00779779 23.881 4.16591
722 2 4.09053 23.7796 4.25495
723 2 7.93813 23.8244 4.30539
724 2 11.8778 23.7518 4.2818
725 2 15.8699 23.8387 4.18642
726 2 19.7355 23.8407 4.38982
727 2 23.61 23.7526 4.24976
728 2 27.5485 23.9256 4.17052
729 2 31.8534 23.7437 4.25476
730 2 35.9116 23.7135 4.19487
731 2 39.7334 23.7807 4.39657
732 2 43.598 23.909 4.16405
733 2 47.4966 23.9102 4.06708
734 2 51.5702 23.9573 4.19923
735 2 55.4854 23.7602 4.16023
736 2 59.2236 23.6491 4.11925
737 2 63.355 23.9927 4.0656
738 2 67.3635 23.8296 3.89336
739 2 71.2005 24.0471 4.04174
740 2 75.2752 23.8073 4.21578
741 2 79.4603 23.7851 4.22604
742 2 83.3172 23.7953 4.12101
743 2 87.1683 23.7344 4.29365
744 2 91.1933 23.8849 4.1076
745 2 0.0519697 27.6743 4.15944
746 2 4.2361 27.8148 4.14259
747 2 7.98918 27.6873 4.24629
748 2 11.9463 27.6505 4.32912
749 2 15.8588 27.7551 4.17064
750 2 19.9777 27.6592 4.27335
751 2 23.7967 27.6629 4.26047
752 2 27.846 27.6115 4.31697
753 2 31.7733 27.7016 4.11165
754 2 35.8254 27.4963 4.30536
755 2 39.6267 27.7695 4.29181
756 2 43.619 27.7004 4.28952
757 2 47.6531 27.7672 4.15624
758 2 51.5147 27.7775 4.26433
759 2 55.6063 27.6989 4.09214
760 2 59.4503 27.7347 4.2509
761 2 63.1609 27.8685 4.06367
762 2 67.0863 27.8891 4.20923
763 2 71.3191 27.8866 4.08689
764 2 75.4586 27.6747 4.17982
765 2 79.3056 27.7477 4.17735
766 2 83.3122 27.7736 4.1951
767 2 87.1005 27.8184 4.11009
768 2 90.9902 27.6722 4.26971
769 2 0.0102989 31.9388 4.06315
770 2 3.76886 31.7878 4.17315
771 2 7.97399 31.7316 4.0725
772 2 11.9934 31.8331 4.28327
773 2 15.8507 31.5283 4.21751
774 2 20.02 31.6801 4.18093
775 2 23.8719 31.742 4.24605
776 2 28.021 31.6436 4.1822
777 2 31.8435 31.6956 4.39007
778 2 35.8591 31.5635 4.38223
779 2 39.6552 31.5429 4.37851
780 2 43.7149 31.7525 4.2742
781 2 47.7918 31.813 4.2667
782 2 51.4473 31.7028 4.23635
783 2 55.6316 31.8346 4.18217
784 2 59.5867 31.8836 4.13481
785 2 63.4332 31.6031 4.18497
786 2 67.442 31.7975 4.08575
787 2 71.3346 31.8037 4.2212
788 2 75.1978 31.532 4.17798
789 2 79.2018 31.7747 4.24174
790 2 83.3246 31.7805 4.09922
791 2 87.2773 31.8764 4.03906
792 2 91.113 31.7513 4.12422
793 2 0.121669 35.7808 4.10541
794 2 3.93925 35.6409 4.33322
795 2 8.0909 35.7076 4.10256
796 2 11.923 35.8498 4.28289
797 2 15.9343 35.662 4.11571
798 2 19.9438 35.5579 4.28486
799 2 24.0534 35.4458 4.11692
800 2 28.0259 35.4931 4.17667
801 2 31.8881 35.732 4.25459
802 2 35.856 35.6674 4.42467
803 2 39.5819 35.6476 4.4148
804 2 43.5891 35.4535 4.14069
805 2 47.5065 35.7049 4.30681
806 2 51.6347 35.6691 4.13645
807 2 55.7009 35.7106 3.97868
808 2 59.5219 35.5188 4.17532
809 2 63.5242 35.6556 4.10638
810 2 67.3779 35.7257 4.18551
811 2 71.3006 35.7615 4.32606
812 2 75.3035 35.4962 4.27629
813 2 79.2827 35.5292 4.27416
814 2 83.3872 35.6645 4.43721
815 2 87.18 35.6636 4.18804
816 2 91.2482 35.7558 4.09899
817 2 0.157519 39.7437 4.14697
818 2 3.93044 39.7706 4.26389
819 2 7.85429 39.6325 4.1576
820 2 12.1597 39.4466 4.10635
821 2 16.0142 39.6759 4.20793
822 2 19.9229 39.5833 4.30968
823 2 23.9965 39.3294 4.11964
824 2 28.0321 39.3948 4.11594
825 2 32.0269 39.5863 4.16176
826 2 35.7969 39.5652 4.28037
827 2 39.6668 39.6415 4.30564
828 2 43.7713 39.6269 4.0334
829 2 47.7124 39.9475 4.16177
830 2 51.4566 39.7965 4.2421
831 2 55.393 39.7693 4.09188
832 2 59.5032 39.7207 4.2335
833 2 63.6695 39.7023 4.20501
834 2 67.4536 39.591 4.25274
835 2 71.3738 39.5183 4.34215
836 2 75.2418 39.6032 4.31232
837 2 79.3371 39.6806 4.1694
838 2 83.2626 39.7423 4.29343
839 2 87.1268 39.6779 4.21295
840 2 91.1041 39.6707 4.08204
841 2 -0.0404531 43.7134 4.20452
842 2 3.99673 43.6006 4.21525
843 2 8.04296 43.5557 4.2218
844 2 11.9915 43.7675 4.22827
845 2 15.9508 43.411 4.1583
846 2 19.8811 43.6914 4.07228
847 2 24.0255 43.5867 3.97387
848 2 27.8224 43.7057 4.01202
849 2 31.6714 43.7289 4.02265
850 2 35.7312 43.426 4.12634
851 2 39.6595 43.5686 4.22778
852 2 43.7111 43.6234 4.17944
853 2 47.5452 43.703 4.15188
854 2 51.5327 43.5701 4.24981
855 2 55.718 43.8211 4.16372
856 2 59.6689 43.5052 4.26763
857 2 63.5882 43.4834 4.13754
858 2 67.5071 43.3367 4.18695
859 2 71.3542 43.3959 4.15079
860 2 75.1442 43.4848 4.29239
861 2 79.1173 43.4653 4.20864
862 2 83.1719 43.6047 4.37209
863 2 87.2936 43.6542 3.88088
864 2 91.1884 43.5676 4.19557
865 2 -0.0561786 47.5514 4.13523
866 2 4.02528 47.5861 4.23721
867 2 8.26757 47.6064 4.18404
868 2 12.1111 47.5642 3.95577
869 2 16.1291 47.5688 4.13627
870 2 19.9289 47.5063 4.32442
871 2 23.7349 47.4318 4.13217
872 2 27.7497 47.4205 4.25815
873 2 31.7767 47.4934 4.29828
874 2 35.6132 47.4433 4.21322
875 2 39.5296 47.5524 4.20546
876 2 43.6295 47.3798 4.28521
877 2 47.4264 47.5232 4.29953
878 2 51.5899 47.3058 4.37766
879 2 55.598 47.6448 4.40478
880 2 59.6977 47.4744 4.10347
881 2 63.6058 47.2526 4.18798
882 2 67.3725 47.5202 4.36228
883 2 71.3729 47.3487 4.23304
884 2 75.5141 47.2574 4.2143
885 2 79.3334 47.7539 4.06659
886 2 83.3115 47.4758 4.2267
887 2 87.104 47.5757 4.18426
888 2 91.1276 47.7036 4.07085
889 2 -0.0499472 51.6356 4.31764
890 2 4.03961 51.6253 4.3225
891 2 8.09268 51.6697 4.10931
892 2 11.9055 51.5314 4.13326
893 2 15.85 51.574 4.05083
894 2 19.9739 51.4514 4.22655
895 2 23.8298 51.5726 4.17736
896 2 27.8668 51.5634 4.13799
897 2 31.8607 51.5637 4.23765
898 2 35.5544 51.6705 4.33642
899 2 39.8713 51.4887 3.9248
900 2 43.7384 51.5089 4.36374
901 2 47.4721 51.5169 4.33103
902 2 51.5951 51.3871 4.19898
903 2 55.5176 51.3566 4.35192
904 2 59.5681 51.3184 4.14692
905 2 63.7039 51.4265 4.2089
906 2 67.4341 51.3252 4.3142
907 2 71.4094 51.246 4.16242
908 2 75.3816 51.4734 4.10303
909 2 79.4405 51.4437 4.1513
910 2 83.3971 51.4089 4.22545
911 2 87.1376 51.4794 4.51443
912 2 91.0371 51.5978 4.37175
913 2 0.00825231 55.8076 4.22999
914 2 4.16595 55.2274 4.20355
915 2 8.03953 55.4054 4.28877
916 2 11.939 55.3596 4.10563
917 2 15.8406 55.5419 4.01768
918 2 19.6462 55.2282 4.16828
919 2 23.7616 55.4936 4.11277
920 2 27.8064 55.6225 4.27911
921 2 31.7027 55.4876 4.14258
922 2 35.7471 55.4345 4.15369
923 2 39.6171 55.4432 4.20448
924 2 43.6892 55.5279 4.23369
925 2 47.6806 55.5476 4.26095
926 2 51.5529 55.2466 4.38087
927 2 55.6175 55.1693 4.17711
928 2 59.6229 55.3629 4.10216
929 2 63.6523 55.2845 3.98044
930 2 67.5847 55.4054 4.20249
931 2 71.4222 55.2404 4.1706
932 2 75.3545 55.3296 4.11232
933 2 79.3448 55.5187 4.41887
934 2 83.3574 55.5938 4.40008
935 2 87.26 55.6402 4.1081
936 2 91.0416 55.7561 4.23765
937 2 0.129982 59.4326 4.21923
938 2 4.37404 59.3773 4.01119
939 2 8.16696 59.0319 4.25539
940 2 12.1307 59.543 4.20745
941 2 16.0879 59.4677 4.12146
942 2 19.8092 59.3571 4.13835
943 2 23.8373 59.2376 4.0863
944 2 27.7324 59.3717 4.16749
945 2 31.746 59.4174 4.31145
946 2 35.7616 59.4773 4.31287
947 2 39.9229 59.5327 4.33125
948 2 43.6268 59.2598 4.35227
949 2 47.6141 59.5213 4.18107
950 2 51.6805 59.2628 4.22585
951 2 55.3983 59.1106 4.14023
952 2 59.3731 59.3292 4.17656
953 2 63.381 59.3629 4.1552
954 2 67.395 59.354 4.25869
955 2 71.4793 59.4495 4.28659
956 2 75.4433 59.3717 4.32834
957 2 79.2425 59.4928 4.33192
958 2 83.3283 59.4603 4.20062
959 2 87.2162 59.6628 4.1719
960 2 91.4398 59.569 4.2918
961 2 0.258327 63.3175 4.27065
962 2 4.26237 63.2578 4.32901
963 2 8.06277 63.3061 4.1351
964 2 12.0819 63.4615 4.28487
965 2 15.824 63.4145 4.19098
966 2 19.9039 63.4324 4.23151
967 2 23.694 63.1947 4.26317
968 2 27.8736 63.2749 4.02396
969 2 31.751 63.2903 4.09799
970 2 35.8094 63.3384 4.34794
971 2 39.6751 63.3357 4.08814
972 2 43.7428 63.4611 4.28513
973 2 47.4517 63.4706 4.1648
974 2 51.4993 63.3653 4.27129
975 2 55.4264 63.3331 4.15732