ITEM: TIMESTEP
53700
ITEM: NUMBER OF ATOMS
43200
ITEM: BOX BOUNDS xy xz yz pp pp pp
0.0000000000000000e+00 9.4992000000000004e+01 0.0000000000000000e+00
0.0000000000000000e+00 9.4992000000000004e+01 0.0000000000000000e+00
-7.9523226542086434e-03 5.9707952322655203e+01 0.0000000000000000e+00
ITEM: ATOMS id type x y z
1 2 0.113809 -0.273458 0.122472
2 2 4.27742 -0.0219907 0.249477
3 2 8.11643 -0.0452158 0.253054
4 2 12.0239 -0.210697 0.0563142
5 2 15.7788 0.0565091 0.26065
6 2 19.7991 0.0896854 0.319416
7 2 23.8469 0.0126564 0.32354
8 2 27.7768 0.117986 0.153021
9 2 31.7718 0.0182423 0.300573
10 2 35.6982 0.1789 0.188989
11 2 39.6439 -0.00321318 0.238348
12 2 43.7028 0.16951 0.210366
13 2 47.6683 -0.190289 0.246237
14 2 51.4749 -0.121179 0.268147
15 2 55.749 0.0079094 0.216171
16 2 59.5394 0.116121 0.294032
17 2 63.578 0.0440847 0.277647
18 2 67.2553 0.10772 0.194976
19 2 71.2433 0.157682 0.115063
20 2 75.3722 -0.213872 0.293362
21 2 79.3147 -0.0416472 0.118799
22 2 83.1848 -0.073243 0.275256
23 2 87.1734 -0.241644 0.213652
24 2 91.1547 -0.140197 0.207327
25 2 0.158235 3.69213 0.179967
26 2 3.99757 3.93608 0.314138
27 2 8.06983 4.09479 -0.0690388
28 2 11.9538 4.08828 0.264224
29 2 15.6843 3.91204 0.158595
30 2 19.9078 4.03446 0.240868
31 2 23.8579 4.10645 0.243409
32 2 27.881 4.06053 0.13004
33 2 31.8312 3.96285 0.282861
34 2 35.8036 4.20334 0.0607778
35 2 39.7867 3.95961 0.178069
36 2 43.6547 3.9672 0.345623
37 2 47.7405 3.89223 0.0858788
38 2 51.7398 3.80861 0.119206
39 2 55.5658 3.96474 0.0725097
40 2 59.6533 3.95146 0.119551
41 2 63.498 3.94322 0.250962
42 2 67.3991 4.06452 0.222339
43 2 71.4863 3.98817 0.201549
44 2 75.445 3.82439 0.249968
45 2 79.4033 4.0488 0.16782
46 2 83.3452 4.0041 0.127779
47 2 87.0146 3.78849 0.119897
48 2 91.3376 3.65472 0.172846
49 2 0.0602895 7.71384 0.0727354
50 2 4.02223 7.76964 0.238133
51 2 8.04847 7.77772 0.0250772
52 2 11.8446 8.02806 0.273672
53 2 15.9742 7.93529 0.0167153
54 2 19.7469 7.83066 0.155383
55 2 23.7299 7.99931 0.238215
56 2 27.7815 7.99352 0.179654
57 2 31.5537 8.00183 0.148598
58 2 35.4428 8.00466 0.130865
59 2 39.5425 7.87023 0.25865
60 2 43.767 7.90212 0.0347189
61 2 47.6908 7.89723 0.139261
62 2 51.6218 7.93346 0.217948
63 2 55.7065 7.79453 0.075347
64 2 59.6861 7.88674 0.232896
65 2 63.6655 7.90187 0.173974
66 2 67.3606 7.88718 0.375737
67 2 71.4031 7.85494 0.277339
68 2 75.5872 7.91124 0.363222
69 2 79.4031 7.98716 0.228147
70 2 83.2403 7.93777 0.2288
71 2 87.0562 7.93328 -0.0925813
72 2 91.0312 7.70049 0.274974
73 2 0.178863 11.8448 0.299373
74 2 3.86055 11.5898 0.135084
75 2 8.10592 11.9454 0.207437
76 2 11.9927 11.832 0.296524
77 2 15.9499 11.9565 0.150141
78 2 19.9085 11.6781 0.058469
79 2 23.9975 11.8564 0.24865
80 2 27.8402 11.9057 -0.0283969
81 2 31.6846 12.0911 0.173953
82 2 35.8368 11.7599 0.103929
83 2 39.8104 11.9284 0.151949
84 2 43.6568 11.7379 0.247946
85 2 47.737 11.9188 -0.00681048
86 2 51.5479 11.8243 0.0843406
87 2 55.5003 11.968 0.378554
88 2 59.6553 11.6189 0.321658
89 2 63.616 11.8045 0.276194
90 2 67.4281 11.7647 0.183795
91 2 71.4541 11.9074 0.220021
92 2 75.4659 12.0396 0.191739
93 2 79.4115 11.8765 0.161517
94 2 83.4115 11.8042 0.210724
95 2 87.2597 11.6873 0.211556
96 2 91.3431 11.842 0.194614
97 2 0.0984867 15.7499 0.30172
98 2 3.90957 15.7463 0.164666
99 2 8.11078 15.8633 0.253372
100 2 11.9913 15.6746 0.273488
101 2 15.9482 15.7728 0.223642
102 2 19.9902 15.7279 0.351442
103 2 23.7793 16.0439 0.154146
104 2 27.9445 15.9008 0.201761
105 2 31.8004 15.9879 0.22094
106 2 35.7815 15.6514 0.243019
107 2 39.7239 16.0025 0.210848
108 2 43.635 15.8518 0.158439
109 2 47.7196 16.0248 0.195989
110 2 51.6624 15.9668 0.175269
111 2 55.4303 15.7488 0.249568
112 2 59.4497 15.7486 0.284736
113 2 63.5199 15.5872 0.292811
114 2 67.5212 15.5579 0.139075
115 2 71.461 15.8728 0.159324
116 2 75.3816 15.9521 0.235067
117 2 79.2899 15.8067 0.201279
118 2 83.2888 15.8933 0.424482
119 2 87.1317 15.5606 0.182038
120 2 91.1247 15.696 0.243757
121 2 0.159695 19.6646 0.258487
122 2 4.22288 19.7691 0.155457
123 2 8.0924 19.7087 0.219527
124 2 12.0507 19.7706 0.287329
125 2 16.0753 19.7764 0.374645
126 2 19.7722 19.6207 0.381806
127 2 23.9685 19.744 0.338542
128 2 27.7316 19.8632 0.411039
129 2 31.8513 19.8437 0.201127
130 2 35.7389 19.6669 0.322633
131 2 39.777 19.8026 0.36565
132 2 43.6888 19.6321 0.352336
133 2 47.5403 19.7124 0.382521
134 2 51.476 19.7859 0.241312
135 2 55.6415 19.7775 0.279635
136 2 59.4955 19.8374 0.196531
137 2 63.434 19.8787 0.134611
138 2 67.3291 19.6975 0.14935
139 2 71.3884 19.8722 0.356251
140 2 75.4477 19.838 0.238887
141 2 79.4943 19.8114 0.0989419
142 2 83.235 19.6903 0.140812
143 2 87.1127 19.9384 0.199503
144 2 91.1091 19.6031 0.421347
145 2 0.116692 23.8708 0.298782
146 2 4.05504 23.5479 0.213849
147 2 8.17472 23.8062 0.302759
148 2 12.0488 23.7365 0.260138
149 2 15.8763 23.7031 0.212503
150 2 19.9125 23.8268 0.289848
151 2 23.8083 23.6949 0.114221
152 2 27.8465 23.7011 0.216957
153 2 31.7721 23.8027 0.25742
154 2 35.8247 23.7447 0.31452
155 2 39.6999 23.608 0.357632
156 2 43.7526 23.6446 0.263032
157 2 47.5377 23.3756 0.299709
158 2 51.5987 23.7108 0.329553
159 2 55.4274 23.6939 0.365513
160 2 59.3708 23.6608 0.230255
161 2 63.4719 23.806 0.258852
162 2 67.499 23.6686 0.343688
163 2 71.5191 23.5969 0.263201
164 2 75.3812 23.8638 0.424121
165 2 79.4895 23.7721 0.124154
166 2 83.1721 23.8031 0.267745
167 2 87.1794 23.7255 0.333313
168 2 91.2536 23.6826 0.310663
169 2 0.0253053 27.5588 0.330492
170 2 3.88894 27.7961 0.23494
171 2 8.03502 27.5999 0.362364
172 2 11.9479 27.5534 0.313684
173 2 15.7187 27.8246 0.224305
174 2 19.8915 27.6197 0.26445
175 2 23.875 27.668 0.181381
176 2 27.786 27.4728 0.281009
177 2 32.02 27.7073 0.353604
178 2 35.639 27.686 0.254169
179 2 39.6091 27.6198 0.331438
180 2 43.7299 27.6002 0.478702
181 2 47.4212 27.7397 -0.00784801
182 2 51.4491 27.7236 0.37322
183 2 55.5247 27.5777 0.291968
184 2 59.2474 27.6862 0.370274
185 2 63.2681 27.6935 0.301916
186 2 67.4603 27.6477 0.31684
187 2 71.4049 27.7306 0.129962
188 2 75.0834 27.622 0.264353
189 2 79.0878 27.8951 0.157942
190 2 83.2986 27.7232 0.103682
191 2 87.2467 27.6674 0.251612
192 2 91.1824 27.6164 0.32898
193 2 0.149944 31.593 0.175159
194 2 4.091 31.5117 0.391863
195 2 8.20676 31.4634 0.410722
196 2 11.7819 31.649 0.235765
197 2 15.7785 31.5353 0.474777
198 2 19.8389 31.4377 0.352688
199 2 23.7219 31.5702 0.439761
200 2 27.7652 31.5462 0.392419
201 2 31.6334 31.6084 0.131146
202 2 35.7063 31.5184 0.385913
203 2 39.7354 31.5057 0.406039
204 2 43.584 31.6751 0.466669
205 2 47.6052 31.6573 0.298283
206 2 51.5067 31.7274 0.426466
207 2 55.3701 31.8587 0.251564
208 2 59.4563 31.7333 0.302997
209 2 63.3561 31.649 0.464084
210 2 67.4218 31.5128 0.265043
211 2 71.292 31.8544 0.159624
212 2 75.2742 31.6373 0.271632
213 2 79.1927 31.6088 0.134638
214 2 83.2627 31.6484 0.24267
215 2 87.2922 31.5421 0.347884
216 2 91.2599 31.6557 0.321015
217 2 0.0250046 35.5797 0.511917
218 2 4.13007 35.4471 0.472346
219 2 8.09975 35.574 0.345602
220 2 11.998 35.6333 0.421219
221 2 15.9736 35.5573 0.192644
222 2 19.9193 35.6212 0.127068
223 2 23.85 35.5074 0.357563
224 2 27.9073 35.7098 0.18816
225 2 31.9939 35.416 0.12742
226 2 35.6963 35.5428 0.256624
227 2 39.4355 35.6332 0.309865
228 2 43.4391 35.617 0.174194
229 2 47.5737 35.6696 0.349515
230 2 51.4877 35.7029 0.129811
231 2 55.4376 35.7124 0.274729
232 2 59.3158 35.5886 0.416328
233 2 63.4353 35.4237 0.322831
234 2 67.398 35.8095 0.365115
235 2 71.1821 35.6298 0.427607
236 2 75.2788 35.5152 0.210313
237 2 79.2362 35.747 0.095154
238 2 83.2258 35.8041 0.0716095
239 2 87.3553 35.389 0.159468
240 2 91.3978 35.6533 0.184097
241 2 0.213093 39.5244 0.308536
242 2 4.10143 39.5245 0.279848
243 2 8.13888 39.5043 0.343235
244 2 11.9731 39.6906 0.435717
245 2 15.8876 39.823 0.330543
246 2 19.8031 39.399 0.313451
247 2 23.9384 39.504 0.249113
248 2 27.8181 39.6373 0.294895
249 2 31.8046 39.5119 0.244787
250 2 35.6648 39.6805 0.0522388
251 2 39.6746 39.4799 0.390047
252 2 43.6383 39.4521 0.15311
253 2 47.7487 39.467 0.244391
254 2 51.5913 39.6262 0.142145
255 2 55.7005 39.5999 0.0879473
256 2 59.4883 39.6121 0.331594
257 2 63.4021 39.6238 0.283718
258 2 67.4534 39.6286 0.203135
259 2 71.1402 39.4942 0.26596
260 2 75.1982 39.4654 0.278798
261 2 79.2351 39.4531 0.229538
262 2 83.3407 39.5719 0.213825
263 2 87.439 39.4938 0.237522
264 2 91.1328 39.4442 0.369969
265 2 0.180028 43.5899 0.361342
266 2 4.10674 43.3046 0.22169
267 2 7.93447 43.5492 0.273308
268 2 11.8404 43.6106 0.153166
269 2 15.8647 43.7242 0.350099
270 2 19.7105 43.5491 0.368075
271 2 23.7875 43.4872 0.10206
272 2 27.7708 43.4169 0.438949
273 2 31.8474 43.5348 0.134779
274 2 35.6193 43.6275 0.0804412
275 2 39.7163 43.4359 0.221285
276 2 43.6724 43.4529 0.280965
277 2 47.418 43.2983 0.259983
278 2 51.4023 43.6361 0.317903
279 2 55.4925 43.6088 0.251418
280 2 59.4482 43.596 0.392802
281 2 63.1809 43.5526 0.215922
282 2 67.5551 43.475 0.202389
283 2 71.364 43.6107 0.424549
284 2 75.3735 43.487 0.355297
285 2 79.3606 43.4763 0.29066
286 2 83.1527 43.5232 0.182126
287 2 87.0528 43.541 0.432741
288 2 91.3066 43.4911 0.229295
289 2 0.122398 47.3898 0.474187
290 2 3.79969 47.4477 0.298173
291 2 8.06552 47.5388 0.138012
292 2 11.8446 47.687 0.429859
293 2 15.8631 47.5826 0.547297
294 2 19.8732 47.3415 0.407545
295 2 23.7561 47.4876 0.605736
296 2 27.7511 47.5482 0.222041
297 2 31.8533 47.4557 0.116696
298 2 35.6715 47.6788 0.130259
299 2 39.7437 47.3174 0.233537
300 2 43.6699 47.296 0.257565
301 2 47.6299 47.2631 0.24179
302 2 51.514 47.2887 0.197224
303 2 55.5044 47.4526 0.361226
304 2 59.3908 47.4465 0.397328
305 2 63.4174 47.3901 0.422332
306 2 67.3018 47.4872 0.470163
307 2 71.216 47.605 0.518529
308 2 75.1747 47.6982 0.271667
309 2 79.1797 47.4963 0.32819
310 2 83.0257 47.4685 0.24331
311 2 87.0136 47.4645 0.344467
312 2 91.1114 47.4426 0.329051
313 2 0.23615 51.4824 0.174632
314 2 4.07974 51.5098 0.241324
315 2 7.94351 51.3849 0.347108
316 2 12.0559 51.5459 0.110615
317 2 16.0082 51.4813 0.214061
318 2 19.9 51.096 0.299971
319 2 23.6973 51.3151 0.358288
320 2 27.6976 51.46 0.284163
321 2 31.6786 51.5191 0.247347
322 2 35.7444 51.4106 0.16348
323 2 39.648 51.5948 0.259329
324 2 43.7193 51.5045 0.316884
325 2 47.5912 51.1777 0.181713
326 2 51.5933 51.2527 0.290708
327 2 55.5588 51.285 0.19839
328 2 59.5034 51.3927 0.214576
329 2 63.504 51.4151 0.254147
330 2 67.5554 51.3848 0.390315
331 2 71.3966 51.5184 0.164811
332 2 75.3038 51.5902 0.248688
333 2 79.33 51.2334 0.309384
334 2 83.2442 51.4431 0.345274
335 2 87.2143 51.4754 0.165632
336 2 91.0584 51.3985 0.208151
337 2 -0.178549 55.3277 0.166668
338 2 3.8385 55.5472 0.334717
339 2 8.07428 55.3969 0.384883
340 2 12.0973 55.2184 0.389526
341 2 15.9028 55.4735 0.411618
342 2 19.8692 55.4259 0.357556
343 2 23.9636 55.3326 0.44102
344 2 27.7869 55.4445 0.295722
345 2 31.7855 55.3774 0.410181
346 2 35.7544 55.4453 0.212395
347 2 39.5238 55.5376 0.417767
348 2 43.4967 55.5556 0.199908
349 2 47.6818 55.2753 0.169924
350 2 51.7356 55.1519 0.331687
351 2 55.7069 55.3784 0.253808
352 2 59.5569 55.3742 0.19658
353 2 63.462 55.4755 0.484247
354 2 67.3645 55.3251 0.394408
355 2 71.3671 55.4955 0.265783
356 2 75.1911 55.4926 0.0511934
357 2 79.1894 55.3157 0.356396
358 2 83.3444 55.3565 0.20256
359 2 87.2922 55.4221 0.0829013
360 2 91.0578 55.3538 0.407091
361 2 -0.0108323 59.3059 0.211116
362 2 3.91404 59.4474 0.208936
363 2 7.7338 59.3692 0.324006
364 2 11.9589 59.4902 0.448324
365 2 15.9317 59.2654 0.476167
366 2 19.9128 59.4405 0.187399
367 2 23.9801 59.2694 0.185789
368 2 27.876 59.3417 0.276426
369 2 31.9682 59.5273 0.114298
370 2 35.6551 59.3865 0.0643951
371 2 39.6773 59.5006 0.1667
372 2 43.9229 59.2595 0.270111
373 2 47.5138 59.3977 0.351617
374 2 51.471 59.1732 0.111292
375 2 55.6259 59.5383 0.273534
376 2 59.6763 59.384 0.358159
377 2 63.6612 59.37 0.380271
378 2 67.4346 59.3619 0.143526
379 2 71.2893 59.3612 0.313872
380 2 75.1974 59.2721 0.275377
381 2 79.2741 59.2707 0.281201
382 2 83.2335 59.441 0.251421
383 2 87.2638 59.3577 0.124247
384 2 91.277 59.1946 0.257225
385 2 0.03401 63.2006 0.162892
386 2 4.19403 63.1136 0.278581
387 2 8.16219 63.1635 0.346872
388 2 12.0102 63.1806 0.281214
389 2 15.9478 63.3087 0.395747
390 2 19.7266 63.3477 0.303718
391 2 23.7409 63.4554 0.211271
392 2 27.9189 63.3899 0.256102
393 2 31.8873 63.2883 0.326982
394 2 35.8887 63.453 0.192544
395 2 39.7279 63.3821 0.213393
396 2 43.7414 63.3753 0.269556
397 2 47.7208 63.3515 0.190387
398 2 51.485 63.1013 0.206312
399 2 55.3818 63.2651 0.32087
400 2 59.3256 63.451 0.294148
401 2 63.3545 63.3902 0.356902
402 2 67.301 63.3049 0.248121
403 2 71.1828 63.3158 0.304617
404 2 75.2207 63.4067 0.155994
405 2 79.2888 63.3248 0.128858
406 2 83.1251 63.4915 0.0853482
407 2 87.1091 63.3122 0.133583
408 2 90.8614 63.3606 0.317089
409 2 0.0402554 67.1516 0.128395
410 2 4.07603 67.1718 0.177977
411 2 8.16285 67.3569 0.239691
412 2 12.0401 67.2118 0.292564
413 2 15.9242 67.4751 0.187636
414 2 19.8364 67.3961 0.260477
415 2 23.8446 67.4517 0.28531
416 2 27.8661 67.3374 0.213099
417 2 31.935 67.4832 0.139657
418 2 35.8652 67.3454 0.150985
419 2 39.7249 67.4147 0.303308
420 2 43.6124 67.341 0.191285
421 2 47.7602 67.1554 0.291951
422 2 51.4711 66.9419 0.277141
423 2 55.4042 67.075 0.4585
424 2 59.4283 67.0856 0.299653
425 2 63.2705 67.2806 0.317207
426 2 67.4837 67.2292 0.42445
427 2 71.1718 67.2547 0.257884
428 2 75.1075 67.2599 0.2588
429 2 79.2656 67.0848 0.281138
430 2 83.0873 67.4415 0.22642
431 2 86.9833 67.4398 0.178732
432 2 91.0526 67.4282 0.0595996
433 2 0.0222289 71.1418 0.330427
434 2 4.02914 71.2582 0.287135
435 2 7.87395 71.2983 0.294271
436 2 12.0457 71.3594 0.409909
437 2 15.8014 71.6259 0.168566
438 2 19.8023 71.3389 0.19517
439 2 23.7158 71.2532 0.235145
440 2 27.7935 71.2689 0.314476
441 2 31.7599 71.3597 0.345043
442 2 35.8163 71.3536 0.22708
443 2 39.5078 71.2882 0.248886
444 2 43.736 71.234 0.156953
445 2 47.5479 71.303 0.218452
446 2 51.3893 70.8862 0.28274
447 2 55.5674 70.9911 0.161661
448 2 59.3313 71.3635 0.301794
449 2 63.4615 71.1897 0.188421
450 2 67.3573 71.1402 0.289084
451 2 71.4837 71.213 -0.0435005
452 2 75.179 71.1128 0.20858
453 2 79.2046 71.1526 0.270485
454 2 83.1463 71.2502 0.218552
455 2 86.9931 71.2039 0.1564
456 2 90.9481 71.3505 0.384047
457 2 -0.0227049 75.0912 0.322999
458 2 3.97868 75.1765 0.237761
459 2 7.99025 75.266 0.285033
460 2 12.0926 75.2055 0.112587
461 2 16.004 75.4148 0.183984
462 2 19.8438 75.3081 0.192181
463 2 23.8978 75.3809 0.138695
464 2 27.8967 75.3224 0.199766
465 2 31.8882 75.1584 0.317885
466 2 35.7165 75.2974 0.0322659
467 2 39.8146 75.0686 0.0175259
468 2 43.6171 75.2499 0.161951
469 2 47.6841 75.1882 0.271353
470 2 51.6198 75.1631 0.0925812
471 2 55.358 75.0443 0.341355
472 2 59.4666 75.2992 0.446514
473 2 63.4373 75.124 0.238349
474 2 67.3266 75.1784 0.330917
475 2 71.4185 75.2058 0.325919
476 2 75.3617 75.0478 0.217402
477 2 79.287 75.3835 0.116188
478 2 83.1694 75.2493 0.306568
479 2 87.1515 75.1364 0.127672
480 2 91.0393 75.2634 0.236832
481 2 0.110127 79.0156 0.297074
482 2 3.96668 79.2939 0.146598
483 2 8.09012 79.0818 0.279829
484 2 12.1176 79.1483 0.330699
485 2 15.9178 79.334 0.230658
486 2 19.9067 79.0951 0.245911
487 2 23.977 79.2139 0.263231
488 2 27.869 79.1499 0.403408
489 2 31.8157 79.137 -0.00974084
490 2 35.7662 79.1314 0.268331
491 2 39.5499 79.0612 0.32772
492 2 43.7527 79.0638 0.338568
493 2 47.5455 79.3113 0.128346
494 2 51.6871 79.3123 0.348218
495 2 55.473 79.0743 0.393522
496 2 59.4195 79.1588 0.35683
497 2 63.3978 79.247 0.406829
498 2 67.5141 79.3657 0.10666
499 2 71.4674 79.0751 0.17097
500 2 75.4182 79.1667 0.088754
501 2 79.2602 79.1915 -0.0284597
502 2 83.3222 79.0449 0.224781
503 2 87.1584 79.3184 0.108106
504 2 91.1211 79.0487 -0.0316881
505 2 0.156366 83.1484 0.217119
506 2 4.10647 83.1199 0.420415
507 2 7.96324 83.0761 0.225253
508 2 11.872 83.1034 0.341605
509 2 15.9525 83.3774 0.291656
510 2 19.8194 83.0739 0.121187
511 2 23.9736 83.1835 0.146206
512 2 27.9183 83.3131 0.274159
513 2 31.8369 83.1265 0.107579
514 2 35.8384 83.2075 0.165456
515 2 39.8516 83.0423 0.307987
516 2 43.6411 83.0397 0.475621
517 2 47.5385 83.051 0.425634
518 2 51.4838 82.9278 0.210349
519 2 55.449 83.1318 0.21164
520 2 59.4955 83.1468 0.51487
521 2 63.3528 83.0677 0.162753
522 2 67.4478 83.0987 0.34092
523 2 71.2838 83.2726 0.225638
524 2 75.1951 83.0718 0.164459
525 2 79.2031 83.0444 0.238986
526 2 83.2991 83.0273 0.213705
527 2 86.9651 83.0703 0.264246
528 2 91.0401 83.0436 0.247066
529 2 0.0729765 87.1215 0.399565
530 2 3.89773 86.9813 0.18684
531 2 7.90559 87.0967 0.302491
532 2 12.0921 86.9814 0.322308
533 2 16.0797 87.1382 0.162195
534 2 19.9923 87.1396 0.138264
535 2 23.9475 87.1041 0.327117
536 2 27.9082 87.134 0.392045
537 2 31.8754 87.1813 0.424434
538 2 35.8919 87.0888 0.263282
539 2 39.7364 87.227 0.391164
540 2 43.692 87.1407 0.199175
541 2 47.7115 87.0693 0.445521
542 2 51.5089 87.1709 0.25928
543 2 55.5194 87.0641 0.226236
544 2 59.5543 87.0064 0.227069
545 2 63.3142 87.237 0.277349
546 2 67.1823 87.1882 0.316768
547 2 71.3153 87.0574 0.243625
548 2 75.1383 87.0061 0.302039
549 2 79.4497 86.9654 0.249387
550 2 83.206 87.1081 0.193944
551 2 87.1987 87.1977 0.0822085
552 2 91.1295 86.8395 0.211722
553 2 -0.0273193 90.9082 0.268406
554 2 3.85898 90.9101 0.200329
555 2 8.12225 90.8778 0.355621
556 2 12.1009 90.9597 0.114134
557 2 15.7938 90.914 0.208906
558 2 19.8676 91.0207 0.234043
559 2 23.8629 91.0661 0.104982
560 2 27.6878 91.1575 0.136588
561 2 31.8563 91.2122 0.0658237
562 2 35.5618 91.0061 0.00615583
563 2 39.7308 91.305 0.130709
564 2 43.68 90.8775 0.322811
565 2 47.5734 91.1028 0.166284
566 2 51.5294 91.0945 0.313448
567 2 55.3534 91.0977 0.303877
568 2 59.596 91.0847 0.297304
569 2 63.2362 91.1895 0.321698
570 2 67.3279 91.2601 0.266258
571 2 71.2997 91.2717 0.372008
572 2 75.277 90.8532 0.366355
573 2 79.2029 90.9418 0.230503
574 2 83.0277 90.8783 0.245568
575 2 87.2129 91.0667 0.129164
576 2 91.0758 90.8206 0.222418
577 2 0.0318243 -0.0588701 4.31901
578 2 4.17811 -0.0101151 4.30636
579 2 8.03224 -0.0666633 4.30716
580 2 11.9885 -0.0624942 4.24296
581 2 16.1365 -0.0772126 4.28277
582 2 20.0389 0.0182497 4.03442
583 2 24.0064 0.134283 4.28831
584 2 27.8322 0.0498463 4.23082
585 2 31.8987 0.106758 4.16888
586 2 35.8299 0.0635686 3.91934
587 2 39.5123 -0.129619 4.16678
588 2 43.581 0.0714669 4.206
589 2 47.6145 -0.0633165 4.18296
590 2 51.5107 0.107636 4.46633
591 2 55.703 0.220581 4.19085
592 2 59.5757 0.128826 4.24797
593 2 63.4336 0.0746344 4.27392
594 2 67.434 0.204309 4.11681
595 2 71.332 0.180557 4.20626
596 2 75.0099 -0.0306668 4.1978
597 2 79.4549 0.144183 4.15711
598 2 83.2663 0.277074 4.19997
599 2 87.2025 0.0224345 4.21999
600 2 91.1171 -0.0653196 4.0722
601 2 0.063697 3.89493 4.28671
602 2 4.0839 3.80653 4.3327
603 2 8.08612 4.14636 4.23333
604 2 11.8396 4.00595 4.23769
605 2 15.9542 3.89146 4.22607
606 2 19.9155 4.00828 4.23858
607 2 23.7607 3.99064 4.27544
608 2 27.9429 3.91297 4.21173
609 2 31.6934 4.03535 4.16961
610 2 35.5962 4.15474 4.16573
611 2 39.6063 3.92511 4.23142
612 2 43.5918 4.04997 4.1552
613 2 47.7874 4.02592 3.9709
614 2 51.6683 4.08846 4.1442
615 2 55.5476 3.99361 4.08238
616 2 59.6471 4.06031 4.18261
617 2 63.5569 4.09036 4.169
618 2 67.4216 3.98197 4.36543
619 2 71.1179 3.9657 4.23833
620 2 75.2065 3.95632 4.0878
621 2 79.1762 4.14608 4.17203
622 2 83.3592 3.9499 4.1663
623 2 87.235 3.98882 4.28275
624 2 91.0806 4.06762 4.15995
625 2 0.192732 7.89252 4.06015
626 2 3.85717 7.72986 4.31796
627 2 7.96221 7.85836 4.37032
628 2 12.1173 7.87169 4.23508
629 2 15.8634 7.91134 4.16065
630 2 20.0162 7.95142 4.16778
631 2 23.7183 8.04204 4.21971
632 2 27.782 7.85655 4.27684
633 2 31.6477 8.13868 4.18019
634 2 35.6809 7.74806 4.10269
635 2 39.6884 7.97472 4.1564
636 2 43.754 7.9348 4.24392
637 2 47.6924 8.08126 4.02949
638 2 51.7111 7.83958 4.10588
639 2 55.6034 8.00572 4.02944
640 2 59.4462 8.16095 4.21
641 2 63.4819 8.05456 4.28586
642 2 67.563 7.87041 4.31551
643 2 71.5011 7.80118 4.24816
644 2 75.416 7.99122 4.20773
645 2 79.1608 7.93278 4.21642
646 2 83.2131 7.79643 4.35885
647 2 87.1699 8.00103 4.27249
648 2 91.3024 7.88904 4.13178
649 2 0.185526 11.998 4.29873
650 2 4.00908 11.6962 4.26294
651 2 7.99132 11.8628 4.33553
652 2 12.0089 12.0728 4.25043
653 2 15.8529 11.8175 4.28038
654 2 20.0406 11.9211 4.26276
655 2 24.1289 11.9369 4.18877
656 2 27.7812 12.0145 4.02079
657 2 31.8182 11.9746 4.25368
658 2 35.9169 11.849 4.12406
659 2 39.8235 11.865 4.17613
660 2 43.7045 11.7568 4.27206
661 2 47.7709 11.9603 4.12096
662 2 51.5016 12.0794 4.16792
663 2 55.3234 12.0775 4.27971
664 2 59.5599 11.9662 4.2882
665 2 63.4515 11.9178 4.28707
666 2 67.5461 11.8422 4.13976
667 2 71.3254 12.0655 4.10231
668 2 75.3469 11.9284 4.34206
669 2 79.3177 11.945 4.30702
670 2 83.2105 11.8355 4.32139
671 2 87.2138 11.8978 4.20503
672 2 91.2152 11.7121 4.13575
673 2 0.0338695 15.9209 4.25132
674 2 4.04 15.7631 4.34179
675 2 8.02751 15.8253 4.29475
676 2 11.9717 15.984 4.3499
677 2 16.1326 15.7425 4.32552
678 2 20.1675 15.6734 4.16829
679 2 23.8032 15.9509 4.18028
680 2 27.7895 15.7347 4.183
681 2 31.8882 15.8036 4.27624
682 2 35.7046 15.6773 4.27596
683 2 39.8069 15.712 4.1861
684 2 43.7786 15.6587 4.45061
685 2 47.6063 15.84 4.43191
686 2 51.6845 16.0955 4.14697
687 2 55.6286 16.2043 4.20226
688 2 59.7687 15.8884 4.18685
689 2 63.6083 15.915 4.31572
690 2 67.5344 15.9809 4.16339
691 2 71.621 15.9297 4.18393
692 2 75.4664 15.9824 4.36912
693 2 79.1122 15.8759 4.12539
694 2 83.3762 15.8874 4.30036
695 2 87.2024 16.0354 4.23887
696 2 91.1097 15.9761 4.24758
697 2 0.246995 19.8756 4.27373
698 2 4.0594 19.6363 4.17642
699 2 8.04275 19.816 4.14807
700 2 12.0036 19.9558 4.20418
701 2 16.001 19.7797 4.29053
702 2 20.0967 19.6844 4.21729
703 2 24.0253 19.8101 4.18304
704 2 28.0079 19.8584 4.26277
705 2 32.0536 19.6892 4.1766
706 2 35.8847 19.8352 4.4145
707 2 39.8372 19.701 4.22497
708 2 43.6534 19.7779 4.33229
709 2 47.7903 19.8024 4.30951
710 2 51.7289 19.8761 4.22992
711 2 55.6384 19.7968 4.32812
712 2 59.7027 19.7056 4.20847
713 2 63.6508 19.7842 4.24638
714 2 67.4027 19.8651 4.14622
715 2 71.1827 19.833 4.25814
716 2 75.3944 19.828 4.49009
717 2 79.3785 19.9336 4.0372
718 2 83.2255 19.9404 4.14468
719 2 87.0974 19.9777 4.18731
720 2 91.0625 20.0367 4.28925
721 2 0.20831 23.7605 4.17103
722 2 4.06193 23.4851 4.21765
723 2 7.80637 23.6838 4.2506
724 2 11.7853 23.7702 4.24902
725 2 15.9569 23.668 4.20756
726 2 19.8365 23.9133 4.23176
727 2 23.9893 23.7544 4.29574
728 2 27.7967 23.6576 4.16866
729 2 31.6279 23.6076 4.26935
730 2 35.8219 23.6965 4.3155
731 2 39.7111 23.7933 4.42125
732 2 43.9169 23.7785 4.25351
733 2 47.6701 23.8099 4.27207
734 2 51.5045 23.8865 4.13678
735 2 55.5025 23.6777 4.31432
736 2 59.4791 23.8221 4.37983
737 2 63.2826 23.6236 4.3185
738 2 67.2937 23.6619 4.39254
739 2 71.2902 23.9126 4.33175
740 2 75.3921 23.9394 4.29938
741 2 79.3486 23.8655 4.10634
742 2 83.2074 23.8946 4.20489
743 2 87.1005 23.8159 4.21051
744 2 91.3019 23.7807 4.29387
745 2 0.273598 27.5198 4.35314
746 2 4.14354 27.5716 4.2687
747 2 7.9403 27.4305 4.22798
748 2 11.9448 27.7534 4.49566
749 2 15.9745 27.6605 4.35809
750 2 19.816 27.7853 4.24227
751 2 23.7376 27.52 4.43373
752 2 27.7283 27.57 4.21192
753 2 31.7892 27.5575 4.37924
754 2 35.5752 27.6464 4.30269
755 2 39.923 27.683 4.28908
756 2 43.5932 27.7809 4.3946
757 2 47.6791 27.6752 4.27135
758 2 51.5321 27.6678 4.359
759 2 55.5477 27.4074 4.27929
760 2 59.5743 27.667 4.49503
761 2 63.4127 27.5517 4.01725
762 2 67.1412 27.6509 4.31607
763 2 71.6106 27.8503 4.25385
764 2 75.1901 27.6898 4.24853
765 2 79.2508 27.7112 4.05883
766 2 83.3132 27.6575 4.29394
767 2 87.2801 27.7471 4.20424
768 2 91.077 27.7922 4.3219
769 2 0.154527 31.762 4.2797
770 2 4.04158 31.4201 4.32368
771 2 7.8683 31.6027 4.34671
772 2 11.9726 31.7893 4.42168
773 2 15.9521 31.8742 4.35242
774 2 19.7958 31.7905 4.42513
775 2 23.8715 31.7129 4.33225
776 2 27.7717 31.476 4.20555
777 2 31.6304 31.8371 4.16211
778 2 35.7197 31.7471 4.28855
779 2 39.6277 31.5897 4.36374
780 2 43.4452 31.6063 4.35063
781 2 47.5971 31.771 4.34931
782 2 51.5093 31.611 4.37187
783 2 55.3034 31.7198 4.08739
784 2 59.4196 31.702 4.40086
785 2 63.2154 31.5779 4.31168
786 2 67.392 31.7168 4.28583
787 2 71.3174 31.7862 4.07454
788 2 75.2964 31.6529 4.24547
789 2 79.201 31.8469 4.17702
790 2 83.0921 31.7142 4.21227
791 2 87.048 31.7455 4.39218
792 2 91.2006 31.7095 4.3745
793 2 0.166621 35.6485 4.41588
794 2 3.94991 35.3735 4.1757
795 2 8.08655 35.5793 4.37347
796 2 11.9767 35.7704 4.41914
797 2 15.8875 35.523 4.46928
798 2 19.6675 35.4692 4.26413
799 2 23.8332 35.758 4.06353
800 2 27.8592 35.61 4.26044
801 2 31.8205 35.7054 4.20262
802 2 35.6439 35.7171 4.18058
803 2 39.6109 35.59 4.27805
804 2 43.7634 35.6661 4.25297
805 2 47.6149 35.437 4.2534
806 2 51.4546 35.7294 4.37204
807 2 55.5315 35.7481 4.40964
808 2 59.4424 35.5375 4.26395
809 2 63.4691 35.5369 4.2564
810 2 67.2703 35.7324 4.27357
811 2 71.3235 35.7543 4.26147
812 2 75.0977 35.6612 4.22525
813 2 79.054 35.5044 3.85727
814 2 83.1669 35.7075 4.10157
815 2 87.1864 35.4044 4.25746
816 2 91.1211 35.5031 4.25893
817 2 0.0284088 39.4729 4.51714
818 2 3.88673 39.6576 4.22557
819 2 7.81239 39.6026 4.42474
820 2 11.8439 39.7006 4.30417
821 2 15.7312 39.7188 4.28034
822 2 19.8109 39.4431 4.20403
823 2 23.826 39.6992 4.20472
824 2 27.8243 39.39 4.20712
825 2 31.9269 39.5966 4.17971
826 2 35.6368 39.766 4.14473
827 2 39.6631 39.6216 4.28004
828 2 43.5548 39.5232 4.35127
829 2 47.5523 39.3585 4.25551
830 2 51.5273 39.5535 4.14414
831 2 55.3769 39.5376 4.37191
832 2 59.5018 39.5032 4.30302
833 2 63.3261 39.3972 4.3239
834 2 67.3045 39.6334 4.25318
835 2 71.2133 39.7249 4.26435
836 2 75.3427 39.6308 4.25053
837 2 79.2656 39.6043 4.18001
838 2 83.1672 39.6789 4.22685
839 2 87.167 39.5172 4.17204
840 2 91.0139 39.5123 4.29252
841 2 0.211167 43.6596 4.30202
842 2 4.11681 43.6177 4.36622
843 2 7.84245 43.5951 4.3745
844 2 11.8895 43.7921 4.33798
845 2 15.877 43.6063 4.42088
846 2 20.1237 43.4893 4.30149
847 2 23.9473 43.4014 4.31672
848 2 27.754 43.6423 4.15214
849 2 31.8814 43.4954 4.16101
850 2 35.7511 43.7097 4.07042
851 2 39.5421 43.5874 4.15301
852 2 43.8277 43.3572 4.30749
853 2 47.4165 43.4443 4.37448
854 2 51.4896 43.6013 4.12471
855 2 55.3092 43.5432 4.27264
856 2 59.6825 43.5386 4.21855
857 2 63.5998 43.5138 4.35539
858 2 67.4148 43.5703 4.20153
859 2 71.2142 43.3549 4.35514
860 2 75.289 43.6026 4.27725
861 2 79.2787 43.6133 4.25646
862 2 83.3055 43.4935 4.3205
863 2 87.1053 43.4596 4.42819
864 2 91.1235 43.3158 4.11702
865 2 0.0414744 47.6875 4.06829
866 2 4.06261 47.599 4.2637
867 2 7.94623 47.5238 4.162
868 2 11.9697 47.5512 4.20453
869 2 15.8775 47.7577 4.26605
870 2 19.7811 47.5053 4.47835
871 2 23.8844 47.4582 4.32208
872 2 27.9327 47.5113 4.19061
873 2 31.9457 47.6468 4.299
874 2 35.7379 47.6476 4.23018
875 2 39.6751 47.3767 4.23623
876 2 43.7056 47.5507 4.35874
877 2 47.492 47.601 4.29842
878 2 51.3958 47.5087 4.36134
879 2 55.4944 47.5979 4.2237
880 2 59.3189 47.3961 4.33559
881 2 63.408 47.385 4.28084
882 2 67.2935 47.5563 4.32011
883 2 71.4174 47.5776 4.22501
884 2 75.1819 47.4929 4.26507
885 2 79.3213 47.3644 4.29105
886 2 83.0487 47.4737 4.51587
887 2 87.14 47.6679 4.20547
888 2 90.9191 47.5686 4.40674
889 2 -0.00842013 51.3691 4.40946
890 2 4.00388 51.6355 4.27467
891 2 8.07746 51.4373 4.13358
892 2 12.0108 51.5177 4.19807
893 2 15.967 51.3749 4.43395
894 2 19.7781 51.5779 4.1878
895 2 23.8276 51.1793 4.37938
896 2 27.9061 51.4344 4.39785
897 2 31.7522 51.5107 4.10769
898 2 35.7703 51.3309 4.20964
899 2 39.8413 51.2762 4.11436
900 2 43.738 51.356 4.19376
901 2 47.6369 51.4553 4.08928
902 2 51.6137 51.36 4.22485
903 2 55.5308 51.3981 4.27375
904 2 59.6138 51.3962 4.35442
905 2 63.3177 51.6464 4.37479
906 2 67.1271 51.4787 4.41931
907 2 71.1908 51.6077 4.23579
908 2 75.0679 51.5894 3.96692
909 2 79.17 51.4777 4.2677
910 2 83.0203 51.4599 4.32981
911 2 87.1087 51.5157 4.27752
912 2 91.1132 51.4972 4.31736
913 2 0.0936512 55.3602 4.29185
914 2 4.09728 55.4451 4.36461
915 2 7.92816 55.4449 4.25325
916 2 11.8964 55.3188 4.31558
917 2 15.8034 55.545 4.25049
918 2 20.0141 55.4431 4.20359
919 2 23.7559 55.4978 4.14114
920 2 27.6801 55.2887 4.32427
921 2 31.7047 55.3172 4.10882
922 2 35.7488 55.4711 4.27184
923 2 39.757 55.348 4.28329
924 2 43.4858 55.5347 4.24971
925 2 47.7786 55.2721 4.07035
926 2 51.707 55.3314 3.97808
927 2 55.3532 55.4091 4.09626
928 2 59.5147 55.5686 4.20328
929 2 63.2691 55.5838 4.18581
930 2 67.3211 55.1923 4.17155
931 2 71.1161 55.7043 4.19289
932 2 75.2197 55.4195 4.23989
933 2 79.0798 55.5233 4.21112
934 2 83.4088 55.4137 4.12899
935 2 87.0783 55.2579 4.29973
936 2 90.8419 55.4236 4.26023
937 2 0.161987 59.4714 4.18479
938 2 3.92859 59.4077 4.55937
939 2 7.89699 59.2624 4.30956
940 2 11.9446 59.4922 4.26518
941 2 15.9705 59.5036 4.20803
942 2 19.9871 59.5221 4.11228
943 2 24.0028 59.6166 4.25828
944 2 27.9119 59.3996 4.1008
945 2 31.7032 59.3654 4.32542
946 2 35.6538 59.3922 4.15117
947 2 39.8428 59.4856 4.17575
948 2 43.7363 59.4834 4.25519
949 2 47.8092 59.3316 4.07332
950 2 51.583 59.4936 4.3831
951 2 55.5814 59.3195 4.21467
952 2 59.5535 59.6792 4.07743
953 2 63.4875 59.5785 4.26485
954 2 67.4195 59.3946 4.29838
955 2 71.3635 59.4299 4.08499
956 2 75.3782 59.5554 4.09168
957 2 79.1552 59.6395 4.11843
958 2 83.1835 59.4004 4.16387
959 2 87.018 59.3864 4.16589
960 2 91.0704 59.5968 4.22067
961 2 -0.0149627 63.4293 4.1946
962 2 4.07978 63.5238 4.29262
963 2 7.88066 63.4327 4.2553
964 2 11.9166 63.549 4.12786
965 2 15.9156 63.4639 4.27249
966 2 19.9578 63.5791 4.223
967 2 23.9437 63.3934 4.26836
968 2 27.8735 63.4898 4.09284
969 2 31.8314 63.2947 4.12385
970 2 35.6419 63.2403 4.17735
971 2 39.7098 63.4085 4.25049
972 2 43.5402 63.416 4.20549
973 2 47.4002 63.1154 4.39184
974 2 51.593 63.4101 4.3634
975 2 55.4953 63.3143 4.2502
976 2 59.433 63.4385 4.16753
977 2 63.4621 63.0943 4.28682
978 2 67.6711 63.2899 4.36416