ITEM: TIMESTEP
55700
ITEM: NUMBER OF ATOMS
43200
ITEM: BOX BOUNDS xy xz yz pp pp pp
0.0000000000000000e+00 9.4992000000000004e+01 0.0000000000000000e+00
0.0000000000000000e+00 9.4992000000000004e+01 0.0000000000000000e+00
-2.0657020129632997e-04 5.9700206570202297e+01 0.0000000000000000e+00
ITEM: ATOMS id type x y z
1 2 0.0114943 -0.0136321 0.316494
2 2 3.87652 -0.074672 0.238967
3 2 8.08939 -0.0946185 0.0656681
4 2 11.9228 -0.0978614 0.320055
5 2 15.873 -0.222141 0.23637
6 2 19.9744 -0.0529378 0.273677
7 2 23.8464 0.0509282 0.300987
8 2 27.5353 -0.0288232 0.334873
9 2 31.6436 0.017887 0.338239
10 2 35.6742 -0.254233 0.237849
11 2 39.5626 0.187973 0.167414
12 2 43.4665 0.102618 0.306956
13 2 47.4756 0.125152 0.157461
14 2 51.7066 0.00656919 0.234424
15 2 55.5426 -0.0750902 0.246857
16 2 59.5415 0.167765 0.0317881
17 2 63.5223 -0.191434 0.293924
18 2 67.5153 -0.0328515 0.17722
19 2 71.5582 -0.0932906 0.208856
20 2 75.3994 0.2127 0.20498
21 2 79.3396 0.0808069 0.397091
22 2 83.2108 -0.229215 0.471779
23 2 87.1327 0.0918742 0.251109
24 2 91.2284 -0.0629035 0.406477
25 2 0.0211007 3.92259 0.272123
26 2 4.19714 3.85669 0.342422
27 2 8.09087 3.81759 0.261092
28 2 11.9956 3.79874 0.25747
29 2 15.8325 3.80151 0.326257
30 2 19.8555 4.08221 0.235637
31 2 23.8419 4.06015 0.274703
32 2 27.8065 3.98269 0.197601
33 2 31.6368 3.87767 0.150538
34 2 35.3218 3.87379 0.31232
35 2 39.4483 4.07284 0.194782
36 2 43.641 3.99641 0.319732
37 2 47.5776 3.83029 0.213617
38 2 51.5984 3.83077 0.244618
39 2 55.5653 3.92652 0.21667
40 2 59.5414 4.08584 0.208963
41 2 63.5794 3.89114 0.0485157
42 2 67.7141 3.96574 0.193108
43 2 71.4329 3.9591 0.22692
44 2 75.3535 4.00612 0.287918
45 2 79.2497 3.86717 0.397079
46 2 83.362 4.08471 0.211785
47 2 87.3432 3.86272 0.304235
48 2 91.0204 3.89534 0.350488
49 2 0.163453 7.99446 0.394709
50 2 3.90128 7.79827 0.447623
51 2 8.00594 7.93608 0.458868
52 2 12.0788 7.91884 0.216907
53 2 16.0248 7.83921 -0.0157999
54 2 19.9584 7.87832 0.100037
55 2 23.7984 7.90484 0.301654
56 2 27.94 8.01322 0.221914
57 2 31.7848 7.92725 0.281074
58 2 35.6058 7.94954 0.224396
59 2 39.6075 7.98843 0.390603
60 2 43.5945 7.90155 0.225195
61 2 47.4838 7.80838 0.209567
62 2 51.5307 7.73576 0.384848
63 2 55.4017 7.77961 0.457977
64 2 59.5176 7.95086 0.214079
65 2 63.5792 7.86745 0.162659
66 2 67.2912 7.93185 0.337786
67 2 71.4058 8.08594 0.2962
68 2 75.2916 7.91659 0.407535
69 2 79.3616 7.82353 0.390257
70 2 83.3898 7.89158 0.369735
71 2 87.2834 7.76711 0.232338
72 2 91.1594 7.8848 0.250394
73 2 0.111082 11.9002 0.37003
74 2 4.20251 11.9454 0.297472
75 2 7.95842 12.0793 0.267852
76 2 11.9702 11.8369 0.30325
77 2 16.0031 11.6799 0.213995
78 2 19.8106 11.8983 0.276291
79 2 23.7719 11.8238 0.227823
80 2 27.7065 11.964 -0.146185
81 2 31.8105 11.9707 -0.00703399
82 2 35.7387 11.8696 0.176373
83 2 39.6449 11.7838 0.365119
84 2 43.8118 11.8191 0.291162
85 2 47.4836 11.7995 0.256765
86 2 51.6915 11.7939 0.325432
87 2 55.4835 11.84 0.0351773
88 2 59.3171 11.689 0.266676
89 2 63.3513 11.8675 0.267509
90 2 67.4949 11.8016 0.272133
91 2 71.3782 11.9388 0.346703
92 2 75.4032 11.9442 0.315641
93 2 79.1616 11.8019 0.359837
94 2 83.1013 11.8584 0.276337
95 2 87.2529 11.869 0.218309
96 2 91.1651 11.9359 0.423781
97 2 -0.0294025 15.6307 0.342731
98 2 4.23214 15.8445 0.23402
99 2 8.16124 15.8834 0.27001
100 2 11.8133 15.831 0.0112386
101 2 15.7648 15.7715 0.189804
102 2 19.7522 15.8345 0.275008
103 2 23.6216 15.7243 0.328697
104 2 27.5829 15.7851 0.147993
105 2 31.5939 15.9537 0.266054
106 2 35.7239 15.8508 0.25641
107 2 39.7503 15.7143 0.120819
108 2 43.5883 15.9224 0.158441
109 2 47.5408 15.6191 0.0497867
110 2 51.4605 15.7004 0.327832
111 2 55.5162 15.8196 0.0586383
112 2 59.3467 15.7524 0.335766
113 2 63.4923 15.6477 0.301754
114 2 67.3727 15.7935 0.363648
115 2 71.3652 15.9208 0.369781
116 2 75.2539 15.7245 0.332523
117 2 79.0642 15.9022 0.275189
118 2 83.1584 15.6689 0.467951
119 2 87.0432 15.5869 0.38855
120 2 90.93 15.8235 0.377485
121 2 0.250055 19.6496 0.159904
122 2 4.00297 19.5432 0.350636
123 2 8.13021 19.7129 0.242828
124 2 12.0718 19.7487 0.0718947
125 2 15.9945 19.8423 0.295232
126 2 19.9899 19.7896 0.248706
127 2 23.9026 19.7993 0.276659
128 2 27.8999 19.634 -0.0290713
129 2 31.8557 19.7004 0.212516
130 2 35.8113 19.8048 0.391016
131 2 39.5257 19.8632 0.146799
132 2 43.6409 19.8377 0.289818
133 2 47.5691 19.6348 0.149283
134 2 51.521 19.7747 0.297139
135 2 55.3567 19.6404 0.3196
136 2 59.4106 19.6482 0.327082
137 2 63.4825 19.7794 0.15025
138 2 67.2782 19.7056 0.251856
139 2 71.4598 19.5943 0.40744
140 2 75.3096 19.9856 0.156751
141 2 79.0252 19.8904 0.209535
142 2 83.2864 19.9405 0.265191
143 2 86.9806 19.8156 0.488512
144 2 91.0005 19.9007 0.244517
145 2 0.0660982 23.6027 0.035405
146 2 4.16368 23.602 0.501813
147 2 7.94286 23.7784 0.413273
148 2 11.8555 23.8102 0.22768
149 2 16.033 23.7204 0.245613
150 2 19.8935 23.7375 0.147711
151 2 23.9849 23.619 0.185357
152 2 27.8455 23.8137 0.249194
153 2 31.7501 23.7571 0.19867
154 2 35.9459 23.7393 0.181781
155 2 39.8858 23.8614 0.116845
156 2 43.5939 23.5146 0.0578589
157 2 47.4154 23.7661 0.104468
158 2 51.6039 23.7002 0.256561
159 2 55.4918 23.5335 0.376828
160 2 59.5832 23.5401 0.334113
161 2 63.2887 23.7557 0.175318
162 2 67.3193 23.5608 0.329606
163 2 71.2629 23.6725 0.302878
164 2 75.1612 23.8629 0.124807
165 2 79.3015 23.8293 0.19113
166 2 83.1529 23.7357 0.15063
167 2 87.1689 23.8633 0.319442
168 2 91.0411 23.8529 0.440145
169 2 -0.00927032 27.4653 0.134686
170 2 3.9851 27.6205 0.147002
171 2 7.89679 27.7603 0.311877
172 2 12.3436 27.6317 0.210428
173 2 15.988 27.5715 0.140793
174 2 19.9994 27.7144 0.236214
175 2 23.849 27.6171 0.263626
176 2 27.7406 27.6705 0.256847
177 2 31.7375 27.5501 0.0827643
178 2 35.6426 27.815 0.145095
179 2 39.795 27.8511 0.147903
180 2 43.8571 27.7658 0.104249
181 2 47.6224 27.6736 -0.0281832
182 2 51.6916 27.516 0.181722
183 2 55.5352 27.6119 0.357035
184 2 59.3195 27.6221 0.305419
185 2 63.4488 27.5431 0.431541
186 2 67.3273 27.7556 0.334375
187 2 71.1612 27.5994 0.202941
188 2 75.2573 27.9361 0.158248
189 2 79.0994 27.6755 0.439008
190 2 83.0221 27.5247 0.380789
191 2 87.1511 27.7599 0.37855
192 2 91.0142 27.6301 0.363175
193 2 0.018909 31.8832 0.213067
194 2 3.98099 31.6009 0.309001
195 2 8.07779 31.5857 0.236335
196 2 11.9445 31.5312 0.0215453
197 2 15.8707 31.4352 0.281142
198 2 19.9689 31.5031 0.194395
199 2 24.0182 31.7255 0.146582
200 2 27.8321 31.596 0.0840912
201 2 31.9486 31.4864 0.133064
202 2 35.9047 31.7918 0.0188399
203 2 39.8792 31.6371 0.133657
204 2 43.7589 31.9184 0.136176
205 2 47.5788 31.5739 0.349312
206 2 51.4636 31.3673 0.33395
207 2 55.5453 31.7193 0.241423
208 2 59.4578 31.5704 0.322563
209 2 63.2627 31.6017 0.280811
210 2 67.3355 31.5664 0.350805
211 2 71.1945 31.4663 0.240182
212 2 75.1016 31.7444 0.20611
213 2 79.3741 31.6295 0.317115
214 2 83.3049 31.6441 0.144645
215 2 87.178 31.8583 0.240445
216 2 91.0794 31.644 0.261667
217 2 0.0984347 35.7388 0.114564
218 2 4.01232 35.5341 0.152275
219 2 7.98272 35.6022 0.228422
220 2 11.9553 35.6177 0.273923
221 2 16.0159 35.687 0.377249
222 2 20.1035 35.5634 0.145296
223 2 23.9199 35.6153 0.0936385
224 2 27.8306 35.5751 0.147726
225 2 31.9183 35.387 0.0404339
226 2 35.7356 35.6228 0.207652
227 2 39.7567 35.5788 0.152015
228 2 43.5035 35.4811 0.203152
229 2 47.4754 35.6367 0.297233
230 2 51.4382 35.3937 0.373926
231 2 55.3908 35.7206 0.279808
232 2 59.5091 35.5499 0.357172
233 2 63.3818 35.477 0.37474
234 2 67.2228 35.679 0.179317
235 2 71.3238 35.6332 0.296341
236 2 75.2766 35.6645 0.485054
237 2 79.269 35.625 0.353529
238 2 83.3892 35.5604 0.306411
239 2 87.1766 35.5903 0.155464
240 2 91.2671 35.6982 0.189048
241 2 0.0355215 39.4838 0.279744
242 2 4.01085 39.5192 0.290245
243 2 7.94241 39.4892 0.273438
244 2 12.0846 39.663 0.375267
245 2 16.0348 39.6122 0.238717
246 2 19.9316 39.4548 0.509115
247 2 23.9341 39.5402 0.190065
248 2 27.9522 39.6145 0.177906
249 2 31.9015 39.6408 0.0669398
250 2 35.7187 39.4892 0.241353
251 2 39.7288 39.5399 0.0731121
252 2 43.4479 39.6507 0.0621744
253 2 47.5101 39.4218 0.414087
254 2 51.5808 39.6254 0.353314
255 2 55.208 39.61 0.394261
256 2 59.2918 39.3723 0.266846
257 2 63.2806 39.5135 0.219722
258 2 67.2194 39.5295 0.34492
259 2 71.1968 39.4628 0.238599
260 2 75.287 39.579 0.249216
261 2 79.251 39.7239 0.42276
262 2 83.2488 39.5676 0.182494
263 2 87.0336 39.5621 0.16859
264 2 90.8684 39.5696 0.256269
265 2 -0.162764 43.5164 0.365513
266 2 3.94997 43.4571 0.223161
267 2 7.91128 43.5845 0.408416
268 2 11.9868 43.3982 0.268007
269 2 16.0409 43.3971 0.107196
270 2 19.9409 43.4465 0.165542
271 2 23.969 43.699 0.0299739
272 2 27.9203 43.6133 0.238289
273 2 31.5432 43.465 0.258938
274 2 35.3884 43.4961 0.159621
275 2 39.5123 43.4342 0.246232
276 2 43.6001 43.4416 0.205417
277 2 47.5896 43.5479 0.160986
278 2 51.4591 43.5492 0.269626
279 2 55.34 43.6244 0.293686
280 2 59.2228 43.4593 0.311458
281 2 63.4364 43.6338 0.205688
282 2 67.3518 43.4695 0.256693
283 2 71.3681 43.5457 0.233545
284 2 75.2567 43.5187 0.373055
285 2 79.1876 43.8377 0.398652
286 2 83.0452 43.4757 0.263513
287 2 87.1371 43.4023 0.498611
288 2 90.9855 43.5657 0.286384
289 2 0.0374198 47.393 0.121442
290 2 4.00193 47.4523 0.401072
291 2 7.87222 47.4041 0.232894
292 2 11.9371 47.4604 0.297517
293 2 16.0065 47.3408 0.115551
294 2 19.9608 47.383 0.0636394
295 2 23.7461 47.5627 0.180708
296 2 27.7842 47.417 0.195416
297 2 31.6254 47.3011 0.17086
298 2 35.4613 47.324 0.190026
299 2 39.5661 47.1992 0.299647
300 2 43.6121 47.4454 0.212452
301 2 47.5502 47.6184 0.313695
302 2 51.5615 47.7128 0.320007
303 2 55.5249 47.6152 0.23968
304 2 59.5123 47.5309 0.174361
305 2 63.5354 47.3883 0.248913
306 2 67.2041 47.5713 0.226145
307 2 71.3263 47.502 0.371567
308 2 75.238 47.5847 0.363045
309 2 79.4341 47.7928 0.0591342
310 2 83.3888 47.4792 0.413034
311 2 87.1463 47.2945 0.295908
312 2 91.0631 47.4327 0.238427
313 2 0.251071 51.3709 0.339399
314 2 4.15106 51.3924 -0.0028101
315 2 8.08396 51.294 0.193944
316 2 12.0255 51.3229 0.128837
317 2 16.0245 51.4598 0.0942515
318 2 19.9458 51.4382 0.127441
319 2 24.0203 51.3498 0.176784
320 2 27.8877 51.2657 0.119512
321 2 31.9273 51.5299 0.158142
322 2 35.6282 51.3872 0.300864
323 2 39.7171 51.3598 0.262466
324 2 43.6152 51.425 0.31014
325 2 47.7395 51.5326 0.234968
326 2 51.6569 51.5065 0.355518
327 2 55.4788 51.5638 0.375845
328 2 59.347 51.4971 0.324159
329 2 63.4242 51.3812 0.424364
330 2 67.4447 51.3762 0.277097
331 2 71.464 51.7198 0.154373
332 2 75.401 51.5342 0.330201
333 2 79.4995 51.3396 0.0788556
334 2 83.1227 51.3683 0.185442
335 2 87.2635 51.4516 0.187198
336 2 91.2041 51.5466 0.296078
337 2 0.0558469 55.4371 0.330554
338 2 3.99239 55.1389 0.156938
339 2 7.86895 55.4185 0.243943
340 2 12.044 55.3257 0.373261
341 2 15.8217 55.3096 0.345051
342 2 20.0001 55.254 0.050332
343 2 23.8317 55.3495 0.220393
344 2 27.888 55.256 0.201703
345 2 31.9022 55.2741 0.264711
346 2 35.7155 55.3321 0.342103
347 2 39.6137 55.2145 0.203602
348 2 43.7092 55.4034 0.309889
349 2 47.6983 55.5168 0.23755
350 2 51.7826 55.3442 0.0857651
351 2 55.4968 55.4683 0.229151
352 2 59.4014 55.484 0.136858
353 2 63.5119 55.2835 0.271728
354 2 67.2855 55.5235 0.290041
355 2 71.2901 55.7186 0.172954
356 2 75.3657 55.4713 0.275813
357 2 79.1412 55.4447 0.36609
358 2 83.1794 55.2243 0.266763
359 2 87.2146 55.3386 0.326327
360 2 91.2373 55.3559 0.164669
361 2 0.20438 59.3358 0.308615
362 2 4.1191 59.3889 0.397735
363 2 8.19792 59.5005 0.174955
364 2 12.081 59.1611 0.304166
365 2 16.124 59.348 0.320352
366 2 19.8985 59.2636 0.247935
367 2 23.8279 59.286 0.416658
368 2 27.9728 59.4275 0.223584
369 2 31.8124 59.32 0.157161
370 2 35.7873 59.2352 0.0914278
371 2 39.6689 59.1558 0.374872
372 2 43.5348 59.3591 0.293986
373 2 47.7051 59.2096 0.268614
374 2 51.6514 59.439 0.299629
375 2 55.5327 59.4764 0.248168
376 2 59.5776 59.3327 0.480934
377 2 63.5246 59.205 0.235168
378 2 67.3447 59.4362 0.268733
379 2 71.3141 59.4506 0.117158
380 2 75.3284 59.2534 0.192489
381 2 79.11 59.2542 0.259276
382 2 82.9567 59.2411 0.269537
383 2 87.1597 59.582 0.192873
384 2 91.2323 59.3149 0.359372
385 2 0.0763532 63.1263 0.279877
386 2 4.29823 63.2967 0.119235
387 2 7.93047 63.2886 0.4063
388 2 12.0158 63.3795 0.280918
389 2 15.8824 63.4463 0.179663
390 2 19.883 63.5429 0.387954
391 2 24.0716 63.4323 0.325521
392 2 27.9894 63.3889 0.0938091
393 2 31.895 63.2519 0.21036
394 2 35.8253 63.3713 0.130815
395 2 39.5166 63.2396 0.287469
396 2 43.6174 63.5519 0.290699
397 2 47.5792 63.481 0.272924
398 2 51.5462 63.3123 0.494023
399 2 55.5689 63.3942 0.428378
400 2 59.3839 63.1574 0.300234
401 2 63.4252 63.347 0.355717
402 2 67.3581 63.5697 0.291336
403 2 71.3196 63.5168 0.265306
404 2 75.4192 63.3658 0.291241
405 2 79.4101 63.2351 0.212483
406 2 83.2593 63.1101 0.233123
407 2 87.1174 63.4469 0.247754
408 2 91.0379 63.2855 0.191775
409 2 -0.0782375 67.2559 0.254826
410 2 3.97149 67.2664 0.403109
411 2 7.81935 67.1999 0.337503
412 2 11.8227 67.305 0.294001
413 2 16.0482 67.2046 0.189136
414 2 19.9499 67.2649 0.322482
415 2 23.9757 67.3415 0.0440643
416 2 27.9626 67.1991 0.290535
417 2 31.73 67.2306 0.480292
418 2 35.7563 67.1119 0.331576
419 2 39.4847 67.2483 0.302609
420 2 43.5761 67.3353 0.0842772
421 2 47.4276 67.1349 0.126907
422 2 51.7374 67.2251 0.125411
423 2 55.6472 67.2622 0.316171
424 2 59.5748 67.2114 0.353576
425 2 63.3344 67.2528 0.384021
426 2 67.4345 67.2182 0.158405
427 2 71.5437 67.1299 0.0977765
428 2 75.322 67.3074 0.242017
429 2 79.3518 67.4316 0.348622
430 2 83.1727 67.0356 0.421445
431 2 87.0066 67.3563 0.430233
432 2 91.1632 67.3255 0.404627
433 2 0.208059 71.3202 0.260881
434 2 4.10654 71.182 0.130822
435 2 8.14707 71.2458 0.318525
436 2 11.8203 71.2959 0.329406
437 2 15.9352 71.0533 0.332429
438 2 19.8317 71.118 0.423895
439 2 23.8663 71.1381 0.0747558
440 2 27.7076 71.3761 0.460079
441 2 31.6939 71.4031 0.343002
442 2 35.6889 71.0873 0.407345
443 2 39.6297 71.1809 0.348752
444 2 43.6694 71.1362 0.242104
445 2 47.4771 71.2433 0.464033
446 2 51.4556 71.2034 0.397192
447 2 55.3667 71.4153 0.286207
448 2 59.3322 71.3471 0.340294
449 2 63.4198 71.2662 0.173852
450 2 67.3321 71.0887 0.248437
451 2 71.2595 71.2003 0.185298
452 2 75.3636 71.3039 0.0960872
453 2 79.2969 71.3536 0.332231
454 2 83.2093 71.1273 0.181572
455 2 87.2972 71.3506 0.158964
456 2 91.0094 71.1431 0.478011
457 2 -0.0834513 75.1369 0.296784
458 2 3.99668 75.1741 -0.0032786
459 2 7.94294 75.2756 0.343065
460 2 11.6807 75.1994 0.335853
461 2 15.9982 75.0307 0.0755249
462 2 19.9263 74.9703 0.0781411
463 2 23.7724 75.2136 0.176045
464 2 27.9166 75.186 0.242628
465 2 31.685 75.3291 0.334622
466 2 35.7202 75.2263 0.20435
467 2 39.8101 75.1658 0.334936
468 2 43.6258 75.0378 0.335531
469 2 47.4894 75.2268 0.504705
470 2 51.3116 75.0465 0.36902
471 2 55.4626 75.2888 0.331663
472 2 59.3342 75.4309 0.408488
473 2 63.5345 75.1984 0.22985
474 2 67.4255 75.1791 0.237271
475 2 71.4207 75.1817 0.14911
476 2 75.3796 75.2126 0.106324
477 2 79.4108 75.2243 0.253226
478 2 83.335 75.2301 0.532906
479 2 87.2738 75.1301 0.482763
480 2 91.1019 75.1317 0.448156
481 2 0.17881 78.9893 0.426909
482 2 3.92514 78.9078 0.31832
483 2 7.88208 79.1217 0.478173
484 2 11.9393 79.1067 0.506551
485 2 15.6951 79.0739 0.236875
486 2 19.7059 78.9937 0.348314
487 2 23.7202 79.0055 0.316206
488 2 27.6763 79.444 0.0899408
489 2 31.7178 79.3763 0.269326
490 2 35.6529 79.1912 0.309331
491 2 39.7767 79.1717 0.252701
492 2 43.6918 79.1858 0.315423
493 2 47.4583 78.981 0.368744
494 2 51.5508 79.1046 0.304508
495 2 55.1568 79.1623 0.208194
496 2 59.5537 79.0986 0.384327
497 2 63.4878 79.1504 0.2644
498 2 67.3633 78.9948 0.235541
499 2 71.429 79.1408 0.206637
500 2 75.2927 79.2343 0.0970801
501 2 79.3089 79.1097 0.442936
502 2 83.4676 79.1851 0.191081
503 2 87.2113 79.2539 0.17689
504 2 91.1928 79.1592 0.39233
505 2 0.175994 83.1982 0.079995
506 2 3.89423 83.023 0.188648
507 2 7.79361 83.0498 0.447038
508 2 12.0128 82.9629 0.373802
509 2 15.9332 83.0867 0.322906
510 2 19.942 82.9856 0.301247
511 2 23.7827 83.0453 0.399788
512 2 27.8265 83.0936 0.158033
513 2 31.6193 83.2003 0.154004
514 2 35.5132 83.2258 0.351869
515 2 39.6276 83.2149 0.229519
516 2 43.5697 82.9849 0.350506
517 2 47.6076 83.0713 0.147554
518 2 51.4832 82.9725 0.262404
519 2 55.4106 82.89 0.52222
520 2 59.3878 83.0568 0.341448
521 2 63.4091 83.0695 0.0923848
522 2 67.4355 82.8868 0.276595
523 2 71.6009 83.2221 0.161359
524 2 75.4926 83.2831 0.18877
525 2 79.2435 83.1829 0.272529
526 2 83.1316 83.122 0.0522567
527 2 86.8894 83.1733 0.0777144
528 2 91.105 83.1192 0.322812
529 2 0.224155 87.1585 0.140133
530 2 4.12085 86.9427 0.445709
531 2 8.12537 86.9941 0.377459
532 2 12.0484 87.0364 0.13548
533 2 16.1816 87.1472 0.30289
534 2 20.0344 86.9025 0.328212
535 2 23.7003 87.0515 0.25402
536 2 27.4944 87.2699 0.148021
537 2 31.5077 86.9003 0.264812
538 2 35.6873 86.9823 0.463054
539 2 39.6081 87.0401 0.398436
540 2 43.5296 87.1263 0.308186
541 2 47.4641 87.1426 0.228204
542 2 51.4575 87.0116 0.33763
543 2 55.4928 87.1025 0.293117
544 2 59.5978 87.0395 0.175956
545 2 63.4621 87.0698 0.132335
546 2 67.2655 86.8977 0.163661
547 2 71.288 87.1572 0.17519
548 2 75.5605 87.1177 0.521458
549 2 79.221 87.2023 0.394366
550 2 83.3205 87.1406 0.28149
551 2 87.1986 87.0303 0.349497
552 2 91.0731 87.0283 0.308538
553 2 0.103821 91.0154 0.0857568
554 2 4.0481 91.0318 0.179649
555 2 8.07424 90.8851 0.320484
556 2 12.2149 90.9692 0.252571
557 2 15.9612 90.965 0.337527
558 2 19.9753 90.9714 0.0864191
559 2 23.616 90.9712 0.192935
560 2 27.8284 91.0585 0.111824
561 2 31.6285 90.8606 0.240576
562 2 35.4988 90.9471 0.299035
563 2 39.5189 91.3004 0.306535
564 2 43.4818 91.043 0.29668
565 2 47.6089 91.1375 0.22718
566 2 51.422 90.8766 0.329919
567 2 55.4953 90.9898 0.204052
568 2 59.5658 90.9395 0.335123
569 2 63.5333 91.0984 0.400724
570 2 67.4832 91.0174 0.418594
571 2 71.249 91.0486 0.388844
572 2 75.1838 91.1234 0.261608
573 2 79.0252 91.1384 0.378415
574 2 82.9583 91.1189 0.356523
575 2 87.2167 91.0439 0.192527
576 2 91.0159 90.8771 0.314413
577 2 0.045918 -0.0636979 4.26348
578 2 4.00251 -0.13649 4.24333
579 2 8.09968 0.0711282 4.18475
580 2 12.0487 0.0849123 4.29974
581 2 16.0968 0.00997465 4.26868
582 2 19.9682 0.182604 4.40883
583 2 23.8293 0.0618402 4.14756
584 2 27.9005 0.0768311 4.28107
585 2 31.686 -0.0423916 4.17969
586 2 35.6497 0.123003 4.35493
587 2 39.5721 -0.000878745 4.26933
588 2 43.6022 0.0407077 4.31063
589 2 47.7068 0.119975 4.21516
590 2 51.7497 -0.221904 4.28584
591 2 55.7043 0.0285281 4.14912
592 2 59.4815 -0.194749 4.18857
593 2 63.6113 0.10096 4.08266
594 2 67.512 -0.0551346 4.31666
595 2 71.4391 0.0518223 4.30929
596 2 75.382 0.228782 4.18917
597 2 79.4121 0.145451 4.20058
598 2 83.2586 -0.187121 4.27552
599 2 87.3088 -0.0117145 4.38375
600 2 91.3233 -0.146948 4.16089
601 2 0.211632 4.07518 4.27311
602 2 4.24387 3.80315 4.17721
603 2 8.02726 4.04963 4.27912
604 2 12.0495 4.00603 4.31962
605 2 15.9307 3.95096 4.20845
606 2 19.9307 3.95729 4.3407
607 2 23.727 3.84125 4.35124
608 2 27.7744 3.95719 4.11934
609 2 31.7248 3.99194 4.05207
610 2 35.643 4.02577 4.25566
611 2 39.3748 3.97081 4.10646
612 2 43.5601 3.932 4.31762
613 2 47.6154 3.85194 4.18353
614 2 51.6517 3.84162 4.20212
615 2 55.6398 3.97661 4.35071
616 2 59.7405 4.07283 4.07944
617 2 63.4581 3.77577 4.09758
618 2 67.4052 3.82755 4.18546
619 2 71.3873 4.16248 4.14295
620 2 75.3449 4.03917 4.42642
621 2 79.3141 3.91464 4.39203
622 2 83.2047 3.86665 4.26639
623 2 87.2726 3.76602 4.39007
624 2 91.199 3.84601 4.33852
625 2 0.0842512 7.85671 4.20515
626 2 4.01499 7.90091 4.41041
627 2 8.06717 7.85732 4.19702
628 2 11.9667 7.86364 4.25129
629 2 15.8596 7.8184 4.30157
630 2 19.8458 7.91647 4.41896
631 2 24.0354 8.10804 3.9265
632 2 27.8492 7.95046 4.25567
633 2 31.6945 8.08743 4.27681
634 2 35.6537 8.10873 4.13082
635 2 39.6541 8.01914 4.24059
636 2 43.7134 7.68411 4.11437
637 2 47.5751 7.7566 4.18273
638 2 51.5276 7.73575 4.20212
639 2 55.6061 7.62533 4.28884
640 2 59.6299 7.98415 4.36737
641 2 63.4298 7.74672 4.21274
642 2 67.3149 8.0203 4.35375
643 2 71.3165 7.95402 4.29131
644 2 75.2643 7.86752 4.42305
645 2 79.4399 8.01144 4.16678
646 2 83.3186 7.84413 4.32604
647 2 87.2905 8.07518 4.13274
648 2 91.1455 7.78532 4.36821
649 2 0.208574 11.8215 4.26591
650 2 3.88888 11.9925 4.24912
651 2 7.93233 11.8919 4.12427
652 2 12.0998 11.7721 4.08392
653 2 16.0288 11.9326 4.15494
654 2 19.8654 11.8416 4.18383
655 2 23.7886 12.0236 4.29856
656 2 27.9306 11.8998 4.1399
657 2 31.9426 11.9943 4.16423
658 2 35.5689 11.9707 4.41852
659 2 39.7332 11.8344 4.21385
660 2 43.7109 11.8427 4.17044
661 2 47.6957 11.8952 4.23142
662 2 51.4118 11.7323 4.23502
663 2 55.4914 11.7938 4.20325
664 2 59.5186 11.7503 4.12057
665 2 63.4989 11.9042 4.16709
666 2 67.1372 11.8033 4.37254
667 2 71.2305 12.002 4.41537
668 2 75.3906 11.8959 4.28571
669 2 79.4064 11.8152 4.32718
670 2 83.1994 11.8592 4.26977
671 2 87.0555 11.8775 4.3535
672 2 90.9718 11.9245 4.3452
673 2 0.0264094 15.7561 4.32407
674 2 3.9147 15.9586 4.22128
675 2 8.06286 15.8058 4.2403
676 2 12.0888 15.8923 4.12229
677 2 16.0502 15.7993 4.21359
678 2 20.0069 16.0214 4.22271
679 2 23.9342 15.8509 4.20818
680 2 27.8791 15.8817 4.1384
681 2 31.8419 15.9854 4.34165
682 2 35.7775 15.7191 4.22106
683 2 39.587 15.8471 4.21715
684 2 43.4545 15.748 4.3175
685 2 47.6197 15.9155 4.0926
686 2 51.6029 15.8465 4.22249
687 2 55.5498 15.7389 4.12247
688 2 59.4711 15.5251 4.2877
689 2 63.222 16.0232 4.17314
690 2 67.3147 15.8941 4.40827
691 2 71.4767 15.8424 4.14012
692 2 75.3769 15.8819 4.29659
693 2 79.1779 15.9902 4.42154
694 2 83.1463 15.8733 4.3289
695 2 87.0967 15.7174 4.31247
696 2 91.1517 15.9041 4.16326
697 2 0.121737 19.8762 4.21094
698 2 4.12877 19.8988 3.99362
699 2 8.07927 19.7444 4.3866
700 2 12.0332 19.7655 4.25683
701 2 16.1092 19.7924 4.19266
702 2 19.7741 19.7081 4.33099
703 2 24.0235 19.9302 4.33151
704 2 27.9275 19.8715 4.18391
705 2 31.9027 19.9811 4.10196
706 2 35.7218 19.9861 4.05423
707 2 39.641 19.9457 4.32887
708 2 43.7012 19.5525 4.30933
709 2 47.627 19.9023 4.18039
710 2 51.3787 19.7465 4.40171
711 2 55.4788 19.6848 4.31733
712 2 59.4715 19.6297 4.15217
713 2 63.4198 19.9615 4.39287
714 2 67.2688 19.7576 4.08055
715 2 71.2878 19.8067 4.37202
716 2 75.2869 19.8668 4.1043
717 2 79.2598 19.9274 4.11272
718 2 83.1692 19.9397 3.96516
719 2 87.0151 19.6977 4.31134
720 2 91.0002 19.8876 4.28737
721 2 0.147411 23.9425 4.07019
722 2 4.08873 23.6515 4.27796
723 2 7.92348 23.6974 4.20205
724 2 11.8118 23.697 4.29673
725 2 16.1098 23.7244 4.08542
726 2 20.0481 23.6656 4.14071
727 2 23.9988 23.7768 4.23358
728 2 27.7966 23.7681 4.28403
729 2 31.6261 23.7325 4.22165
730 2 35.7693 23.9526 4.21267
731 2 39.7141 23.7127 4.05829
732 2 43.575 23.8116 3.88586
733 2 47.3095 23.703 4.02714
734 2 51.636 23.7853 4.37672
735 2 55.5191 23.5695 4.28161
736 2 59.5475 23.4848 4.36865
737 2 63.3949 23.6305 4.32128
738 2 67.431 23.8085 4.22272
739 2 71.3596 23.5699 4.4085
740 2 75.3068 23.7528 4.45438
741 2 79.1448 23.9191 4.35496
742 2 83.1418 23.8527 4.34925
743 2 87.0544 23.7998 4.30167
744 2 91.3299 23.6987 4.21526
745 2 0.179064 27.8958 4.17602
746 2 3.98666 27.7934 4.0877
747 2 8.13694 27.8157 4.26693
748 2 12.0129 27.7881 4.03993
749 2 16.1067 27.7762 4.22415
750 2 19.9778 27.6719 4.14927
751 2 23.7733 27.8097 4.30095
752 2 27.8864 27.8139 4.18851
753 2 31.8053 27.8219 4.09188
754 2 35.7662 27.8182 4.25062
755 2 39.7275 27.7166 4.16324
756 2 43.672 27.6384 4.26165
757 2 47.6992 27.5413 4.30316
758 2 51.5329 27.6913 4.32142
759 2 55.3916 27.6413 4.26306
760 2 59.3215 27.5138 4.30254
761 2 63.4841 27.6747 4.21056
762 2 67.357 27.6077 4.22256
763 2 71.5678 27.6632 4.06943
764 2 75.2707 27.7564 4.12892
765 2 79.2935 27.8625 4.15348
766 2 83.3888 27.7838 4.3692
767 2 87.2105 27.9054 4.17947
768 2 91.2113 27.8797 4.24352
769 2 -0.0957406 31.8092 4.35243
770 2 3.74086 31.7723 4.09466
771 2 8.09757 31.6647 4.42027
772 2 11.9893 31.7752 4.00663
773 2 15.953 31.7533 4.20979
774 2 19.9501 31.7709 4.2164
775 2 23.9871 31.8013 4.26784
776 2 28.0271 31.7026 4.3735
777 2 31.7968 31.5914 4.05464
778 2 35.5714 31.8183 4.06001
779 2 39.795 31.7599 3.99932
780 2 43.7084 31.6608 4.06268
781 2 47.5327 31.7596 4.11728
782 2 51.7304 31.6942 4.32232
783 2 55.4986 31.4218 4.25467
784 2 59.3887 31.8374 4.14057
785 2 63.4609 31.7483 4.26772
786 2 67.4956 31.5064 4.30135
787 2 71.2983 31.7066 4.21192
788 2 75.3833 31.5792 4.23423
789 2 79.2601 31.8155 4.28928
790 2 83.1118 31.5495 4.22892
791 2 87.1271 31.6434 4.19684
792 2 91.1234 31.7177 4.26675
793 2 -0.00676565 35.8286 4.21023
794 2 3.9976 35.6949 4.29695
795 2 8.12363 35.521 4.23343
796 2 12.057 35.681 4.06229
797 2 15.9809 35.8284 4.12668
798 2 19.9994 35.4601 4.21039
799 2 23.9335 35.8666 4.18199
800 2 28.0231 35.5363 4.18745
801 2 31.8852 35.4655 4.24433
802 2 35.5055 35.7569 4.319
803 2 39.6062 35.6264 4.35143
804 2 43.6679 35.71 4.18291
805 2 47.4947 35.7811 4.26483
806 2 51.3298 35.6069 4.1237
807 2 55.5312 35.6918 4.24401
808 2 59.5254 35.7535 4.23324
809 2 63.3261 35.9076 4.23925
810 2 67.4136 35.6525 4.09335
811 2 71.384 35.7395 4.24403
812 2 75.367 35.5593 4.14023
813 2 79.1864 35.6549 4.17512
814 2 83.1128 35.5894 4.21239
815 2 87.044 35.5817 4.23341
816 2 91.0235 35.6943 4.26664
817 2 0.128807 39.691 4.21129
818 2 4.02979 39.6094 4.18075
819 2 8.01484 39.429 4.11225
820 2 11.8988 39.7915 4.14582
821 2 15.899 39.5571 4.22174
822 2 19.9481 39.7002 4.17968
823 2 23.6126 39.7015 4.15207
824 2 27.691 39.6208 4.26704
825 2 31.5657 39.614 4.33328
826 2 35.6756 39.5873 4.16908
827 2 39.7245 39.5771 4.23429
828 2 43.67 39.6132 4.26481
829 2 47.4819 39.5749 4.19852
830 2 51.4565 39.7552 4.32402
831 2 55.3719 39.5899 4.37967
832 2 59.1091 39.6832 4.27888
833 2 63.5167 39.9153 4.24825
834 2 67.1774 39.7197 4.26773
835 2 71.1639 39.4895 4.19182
836 2 75.1376 39.6083 4.28662
837 2 79.0645 39.5387 4.39016
838 2 83.0956 39.3752 4.3439
839 2 87.0798 39.5271 4.39583
840 2 91.0079 39.5167 4.31263
841 2 -0.0803254 43.4998 4.35967
842 2 4.0256 43.3361 4.21735
843 2 8.17432 43.7129 4.34613
844 2 11.9226 43.4795 4.35542
845 2 15.8494 43.5968 4.23772
846 2 19.9042 43.7101 4.13975
847 2 23.7299 43.5927 3.98985
848 2 27.6722 43.4158 4.215
849 2 31.7696 43.5451 4.19285
850 2 35.4322 43.5758 4.2039
851 2 39.6924 43.4044 4.20734
852 2 43.5306 43.5943 4.31612
853 2 47.3089 43.514 4.19988
854 2 51.4628 43.6171 4.40829
855 2 55.4222 43.708 3.98103
856 2 59.3557 43.5296 4.30153
857 2 63.167 43.538 4.15557
858 2 67.337 43.3036 4.10686
859 2 71.3789 43.6251 4.38165
860 2 75.4032 43.5975 4.13805
861 2 79.2624 43.6645 4.21547
862 2 83.1464 43.4174 4.37684
863 2 87.2021 43.4567 4.23016
864 2 91.0529 43.8395 4.21207
865 2 0.100245 47.5288 4.41656
866 2 4.16138 47.4793 4.11644
867 2 8.06132 47.4191 4.25345
868 2 12.0119 47.5015 4.30036
869 2 15.9369 47.3093 3.85525
870 2 19.7971 47.4146 4.14839
871 2 23.6994 47.6959 4.08366
872 2 27.7832 47.5069 4.39752
873 2 31.722 47.5202 4.30343
874 2 35.6032 47.4761 4.24467
875 2 39.3812 47.4587 4.0925
876 2 43.6061 47.58 4.10793
877 2 47.5578 47.4916 4.3012
878 2 51.3897 47.4023 4.24443
879 2 55.4507 47.5877 4.51028
880 2 59.1369 47.3852 4.38307
881 2 63.257 47.4643 4.32288
882 2 67.1825 47.5807 4.23469
883 2 71.3825 47.7131 4.22088
884 2 75.3129 47.4041 4.33693
885 2 79.3546 47.4578 4.29959
886 2 83.2153 47.5304 4.13315
887 2 87.1078 47.5094 4.22356
888 2 91.258 47.7228 4.06292
889 2 0.125105 51.4574 4.41365
890 2 4.11443 51.6153 4.32606
891 2 8.15093 51.3693 4.3512
892 2 12.1268 51.5469 4.22187
893 2 15.9473 51.285 4.26981
894 2 19.8352 51.5135 4.20369
895 2 23.7612 51.6976 4.10519
896 2 27.9396 51.5567 4.02042
897 2 31.8294 51.406 4.13985
898 2 35.678 51.443 4.35707
899 2 39.4965 51.445 4.19176
900 2 43.4754 51.4449 4.36775
901 2 47.6464 51.5468 4.44874
902 2 51.5253 51.4799 4.3386
903 2 55.548 51.3723 4.24702
904 2 59.4458 51.7042 4.22835
905 2 63.3313 51.7017 4.39445
906 2 67.3255 51.494 4.24015
907 2 71.4731 51.3084 4.21637
908 2 75.5047 51.301 4.25848
909 2 79.2181 51.7258 4.17733
910 2 83.1426 51.5014 4.36046
911 2 87.1927 51.4895 4.28188
912 2 91.1783 51.3369 4.28169
913 2 0.275823 55.4781 4.13539
914 2 4.14191 55.5575 4.29167
915 2 8.1739 55.349 4.22525
916 2 11.9656 55.4151 4.20137
917 2 15.956 55.3094 4.2347
918 2 19.9969 55.2518 4.13839
919 2 24.0247 55.5023 4.29558
920 2 27.9274 55.5191 4.14659
921 2 31.6994 55.6544 4.4698
922 2 35.6447 55.2598 4.28031
923 2 39.5614 55.5575 4.27732
924 2 43.5673 55.6008 4.24542
925 2 47.4432 55.6642 4.17404
926 2 51.4545 55.5343 4.2268
927 2 55.5046 55.4634 4.48137
928 2 59.4483 55.599 4.24394
929 2 63.5119 55.4857 4.37571
930 2 67.3853 55.5537 4.36063
931 2 71.2523 55.3684 4.16849
932 2 75.328 55.5658 4.21893
933 2 79.3086 55.4452 4.13748
934 2 83.261 55.4258 4.32323
935 2 87.2384 55.6511 4.04863
936 2 91.0615 55.6191 4.31775
937 2 0.104693 59.4728 4.33345
938 2 4.09843 59.329 4.32527
939 2 8.15593 59.3282 4.26894
940 2 12.1464 59.4909 4.21545
941 2 16.1487 59.437 3.97752
942 2 20.0094 59.3325 4.28782
943 2 24.0067 59.3371 4.27462
944 2 27.8504 59.4473 4.11876
945 2 31.9602 59.4045 3.98671
946 2 35.6153 59.469 4.31012
947 2 39.6588 59.4096 4.29236
948 2 43.5343 59.6561 4.17772
949 2 47.7412 59.4359 4.15787
950 2 51.6589 59.4889 4.14174
951 2 55.4867 59.6115 4.11774
952 2 59.5054 59.4745 4.2854
953 2 63.187 59.34 4.32317
954 2 67.4815 59.5875 3.92694
955 2 71.3983 59.4439 4.31217
956 2 75.1118 59.5096 4.20878
957 2 79.2577 59.4583 4.40845
958 2 83.2831 59.4743 4.12569
959 2 87.2384 59.388 4.14932
960 2 91.1547 59.2987 4.20105
961 2 0.183244 63.403 4.51479
962 2 3.93026 63.4307 4.39596
963 2 8.24484 63.2941 4.09125
964 2 11.9763 63.3227 4.31686
965 2 15.9637 63.349 4.34831
966 2 19.8008 63.2567 4.10941
967 2 23.8827 63.3701 4.2053
968 2 27.9751 63.2843 4.13632
969 2 31.769 63.4557 4.26215
970 2 35.7399 63.3362 4.28474
971 2 39.6085 63.338 4.26276
972 2 43.9044 63.4224 4.34192
973 2 47.7189 63.2939 4.15114
974 2 51.3404 63.4869 4.36385
975 2 55.5276 63.4973 4.42496