ITEM: TIMESTEP
58000
ITEM: NUMBER OF ATOMS
43200
ITEM: BOX BOUNDS xy xz yz pp pp pp
0.0000000000000000e+00 9.4992000000000004e+01 0.0000000000000000e+00
0.0000000000000000e+00 9.4992000000000004e+01 0.0000000000000000e+00
-2.2895304066416600e-02 5.9722895304067187e+01 0.0000000000000000e+00
ITEM: ATOMS id type x y z
1 2 -0.0359764 0.0386339 0.336739
2 2 3.92607 -0.211742 0.234754
3 2 8.04951 0.0555293 0.187702
4 2 12.027 -0.136255 0.050398
5 2 15.9332 0.107422 0.278152
6 2 19.8562 -0.0392023 0.303384
7 2 23.8151 0.0289511 0.194586
8 2 27.8499 0.0855112 0.318919
9 2 31.8239 0.140834 0.298808
10 2 35.9148 -0.14857 0.351004
11 2 39.7559 -0.000653185 0.238124
12 2 43.8506 0.119412 0.25274
13 2 47.5097 -0.0047912 0.265427
14 2 51.5193 0.0309478 0.183624
15 2 55.3612 0.0761644 0.445431
16 2 59.2443 0.0200583 0.232257
17 2 63.363 0.11503 0.122145
18 2 67.2314 -0.108273 0.377849
19 2 71.1166 -0.0256918 0.372545
20 2 75.3033 0.0257504 0.150306
21 2 79.2917 -0.0653027 0.188438
22 2 83.3377 0.0736606 0.102145
23 2 87.2672 -0.0833073 0.281905
24 2 91.0761 0.00948197 0.197328
25 2 0.184336 4.02039 0.054802
26 2 4.1084 3.92609 0.164376
27 2 7.99078 3.83484 0.0285683
28 2 12.159 4.06611 0.115512
29 2 16.0373 3.92327 0.114476
30 2 20.0352 3.97035 0.116208
31 2 23.756 3.77581 0.4134
32 2 27.683 3.86359 0.358014
33 2 31.7707 3.91688 0.263128
34 2 35.7482 3.87866 0.283045
35 2 39.7792 3.83961 0.0712907
36 2 43.6075 4.06091 0.348451
37 2 47.6453 4.13791 0.176195
38 2 51.6619 4.01181 0.141273
39 2 55.558 3.9429 0.29714
40 2 59.4675 3.83258 0.244996
41 2 63.2768 3.97617 0.358974
42 2 67.4986 3.962 0.0252587
43 2 71.4496 4.11733 0.152732
44 2 75.3556 3.97713 0.0573059
45 2 79.3488 3.84499 0.0146348
46 2 83.1906 3.79585 0.222788
47 2 86.9646 3.94465 0.233822
48 2 91.1208 3.99787 0.230469
49 2 0.373383 7.93473 0.268517
50 2 4.22029 7.98245 0.29503
51 2 8.12458 7.72511 0.340865
52 2 11.9493 7.98945 0.246497
53 2 16.0622 7.81805 0.225813
54 2 19.9326 7.87666 0.251897
55 2 23.8297 7.97927 0.154008
56 2 27.6543 7.91809 0.322779
57 2 31.9658 7.91171 0.195861
58 2 35.9682 7.88435 0.341755
59 2 39.677 7.72452 0.364485
60 2 43.435 7.88624 0.0643566
61 2 47.6464 7.91646 0.415999
62 2 51.6154 8.11946 0.136657
63 2 55.7068 7.8655 -0.00928201
64 2 59.5489 7.94265 0.367583
65 2 63.46 7.87986 0.340302
66 2 67.4237 7.85594 0.279227
67 2 71.2427 8.01385 0.22431
68 2 75.2654 7.81609 0.316499
69 2 79.4058 7.83212 0.300048
70 2 83.4476 7.91747 0.296495
71 2 87.2283 7.90703 0.303309
72 2 91.3984 7.9688 0.284984
73 2 0.12204 11.8576 0.190857
74 2 4.06351 11.8738 0.234424
75 2 7.97773 11.9302 0.279951
76 2 12.1328 11.9705 0.0242867
77 2 15.9129 11.9252 0.403034
78 2 19.7094 11.7773 0.402725
79 2 23.7931 11.9997 0.13071
80 2 27.7994 11.853 0.39399
81 2 31.8588 11.7785 0.0486903
82 2 35.793 11.8676 0.258827
83 2 39.5886 11.6509 0.190875
84 2 43.5858 11.9569 0.109877
85 2 47.5479 12.241 0.315707
86 2 51.818 11.8899 0.238632
87 2 55.5736 11.85 0.0910804
88 2 59.6358 11.9539 0.225617
89 2 63.5655 11.9371 0.143512
90 2 67.4213 11.9417 0.196618
91 2 71.2699 11.9572 0.255981
92 2 75.1424 11.8049 0.207237
93 2 79.0697 11.9406 0.247137
94 2 83.3269 11.7729 0.222619
95 2 87.4697 11.7654 0.231952
96 2 91.1333 11.7074 0.261581
97 2 0.210664 15.8563 0.276639
98 2 4.25932 15.7655 0.288573
99 2 8.07625 15.6043 0.181982
100 2 12.0915 15.912 0.185309
101 2 16.1119 15.8856 0.270447
102 2 19.9186 15.8604 0.232266
103 2 23.7984 15.7542 0.196023
104 2 27.6778 15.7244 0.23931
105 2 31.5977 15.8032 0.316219
106 2 35.6149 15.9634 0.287964
107 2 39.6704 15.6864 0.157644
108 2 43.7926 15.6969 0.264893
109 2 47.6065 15.9595 0.303906
110 2 51.3679 16.0531 0.141235
111 2 55.522 15.9421 0.0511051
112 2 59.5616 15.8984 0.332152
113 2 63.4533 15.8101 0.023927
114 2 67.4832 15.9061 0.365615
115 2 71.4293 15.7282 0.294854
116 2 75.3927 15.8097 0.279591
117 2 79.3947 15.7779 0.259788
118 2 83.3867 15.8208 0.0794784
119 2 87.2832 15.9791 0.388525
120 2 91.1503 15.8908 0.213852
121 2 0.096571 19.864 0.2373
122 2 4.19034 19.8228 0.318577
123 2 8.22148 19.7389 0.110987
124 2 11.9758 19.5504 0.266393
125 2 15.9958 19.8131 0.259372
126 2 19.8775 19.8063 0.100166
127 2 23.9165 19.7874 0.2667
128 2 27.8468 19.7358 0.15334
129 2 31.9115 19.8527 0.228751
130 2 35.7166 19.709 0.350815
131 2 39.8366 19.8496 0.196313
132 2 43.7251 19.8048 0.366945
133 2 47.7603 19.8845 0.0367848
134 2 51.6469 19.6228 0.217558
135 2 55.5124 19.9087 0.041305
136 2 59.6105 19.6806 0.116827
137 2 63.5164 19.784 0.193689
138 2 67.268 19.7351 0.29141
139 2 71.1765 20.0156 0.228469
140 2 75.3547 19.8658 0.199389
141 2 79.3779 19.7726 0.201378
142 2 83.2249 19.6058 0.271581
143 2 87.1504 19.912 0.366306
144 2 91.2536 19.798 0.07639
145 2 0.460285 23.7814 0.257541
146 2 4.1142 23.8134 0.321991
147 2 8.24172 23.7934 0.197406
148 2 12.1219 23.4571 0.142049
149 2 15.8991 23.6382 0.295413
150 2 19.9013 23.8959 0.268618
151 2 23.775 23.6744 0.278407
152 2 27.8747 23.7457 0.294338
153 2 31.7603 23.7029 0.308763
154 2 35.6199 23.5637 0.359619
155 2 39.5723 23.6858 0.200265
156 2 43.787 23.7717 0.208225
157 2 47.5604 23.6289 0.292355
158 2 51.5291 23.5892 -0.0101818
159 2 55.5174 23.6598 0.239708
160 2 59.5031 23.6683 0.121918
161 2 63.5407 23.8273 0.0730604
162 2 67.4122 23.7843 0.296119
163 2 71.4094 23.9178 0.253778
164 2 75.2486 23.5421 0.403545
165 2 79.1197 23.857 0.200089
166 2 83.1535 23.5518 0.280028
167 2 87.1501 23.5823 0.127881
168 2 91.0773 23.6189 0.236146
169 2 0.432532 27.5495 0.182051
170 2 4.21998 27.7243 0.103829
171 2 8.14991 27.6576 0.220463
172 2 11.8477 27.681 0.296496
173 2 16.0314 27.8037 0.444239
174 2 19.6416 27.8819 0.270436
175 2 23.8668 27.6481 0.242902
176 2 27.7093 27.7231 0.29391
177 2 31.7259 27.7299 0.17111
178 2 35.625 27.563 0.329188
179 2 39.8854 27.6758 0.178487
180 2 43.8042 27.7528 0.142503
181 2 47.6434 27.5977 0.352831
182 2 51.5374 27.6078 0.175616
183 2 55.528 27.7125 0.37153
184 2 59.3123 27.8383 0.134028
185 2 63.3452 27.9185 0.17712
186 2 67.2622 27.7476 0.298864
187 2 71.4441 27.5083 0.255857
188 2 75.3285 27.5992 0.268213
189 2 79.216 27.3639 0.296779
190 2 83.3209 27.7624 0.236585
191 2 87.3888 27.4194 0.34955
192 2 91.2581 27.4909 0.394861
193 2 0.317523 31.7531 0.213264
194 2 4.04763 31.431 0.188182
195 2 8.09142 31.6317 0.187047
196 2 11.935 31.5891 0.145105
197 2 16.0155 31.666 0.0854387
198 2 19.8307 31.8855 0.0968606
199 2 23.8005 31.7307 0.220801
200 2 27.5898 31.5169 0.285353
201 2 31.7014 31.6308 0.244882
202 2 35.8887 31.5322 0.431837
203 2 39.8348 31.5595 0.265774
204 2 43.7199 31.6201 0.0859535
205 2 47.5345 31.5449 0.26821
206 2 51.6546 31.8654 0.071481
207 2 55.4735 31.7878 0.232478
208 2 59.2883 31.8686 0.19827
209 2 63.2659 31.8471 0.112327
210 2 67.3484 31.7888 0.215132
211 2 71.4196 31.6866 0.226711
212 2 75.4028 31.5977 0.269439
213 2 79.3545 31.6136 0.223431
214 2 83.3356 31.7467 0.350189
215 2 87.1348 31.4988 0.417891
216 2 91.2601 31.5368 0.329639
217 2 0.180839 35.7424 0.218413
218 2 4.22122 35.5164 0.30592
219 2 8.16418 35.6445 0.276286
220 2 12.2007 35.4268 0.349219
221 2 15.8983 35.8109 0.2912
222 2 19.9501 35.7788 0.178013
223 2 23.8572 35.7452 0.202183
224 2 27.8414 35.3809 0.386496
225 2 31.8205 35.462 0.335808
226 2 35.9637 35.4567 0.263073
227 2 39.9037 35.6532 0.332473
228 2 43.705 35.7039 0.0341285
229 2 47.6238 35.5928 0.159527
230 2 51.5913 35.7139 0.277975
231 2 55.3306 35.6307 0.350464
232 2 59.358 35.5009 0.122273
233 2 63.4553 35.637 0.0883532
234 2 67.4751 35.7468 0.336301
235 2 71.421 35.6685 0.270697
236 2 75.3916 35.481 0.0689967
237 2 79.2237 35.648 0.295677
238 2 83.0819 35.4954 0.369984
239 2 87.3407 35.4869 0.169718
240 2 91.3262 35.4368 0.2503
241 2 0.0867918 39.4586 0.195617
242 2 4.09022 39.7721 0.2186
243 2 8.06565 39.5405 0.347507
244 2 12.0589 39.5477 0.252968
245 2 15.9172 39.438 0.311969
246 2 19.7611 39.6559 0.17111
247 2 23.8855 39.4228 0.234014
248 2 27.8603 39.4023 0.304169
249 2 31.9332 39.4012 0.00248485
250 2 35.8707 39.3213 0.244535
251 2 39.6296 39.4402 0.0996957
252 2 43.7221 39.6259 0.139925
253 2 47.4428 39.4424 0.0619109
254 2 51.5211 39.784 0.127518
255 2 55.5268 39.3908 0.0959129
256 2 59.4814 39.3598 0.13249
257 2 63.3841 39.4719 0.204647
258 2 67.4707 39.5548 0.289273
259 2 71.5038 39.5959 0.0640158
260 2 75.4156 39.6173 0.171179
261 2 79.343 39.5866 0.317848
262 2 83.2371 39.5889 0.353568
263 2 87.0048 39.2806 0.33967
264 2 91.1642 39.4571 0.300778
265 2 0.124022 43.5082 0.123385
266 2 3.94172 43.5844 0.306935
267 2 7.83051 43.6204 0.303872
268 2 11.9719 43.352 0.376296
269 2 15.9937 43.5271 0.0609907
270 2 19.8675 43.4345 0.315033
271 2 23.9172 43.615 0.262911
272 2 27.5915 43.5237 0.244208
273 2 31.6649 43.329 0.215939
274 2 35.6168 43.3884 0.292732
275 2 39.5135 43.4682 0.336955
276 2 43.5684 43.5563 0.451277
277 2 47.5825 43.6167 0.244176
278 2 51.5615 43.6123 0.144881
279 2 55.4133 43.3863 0.110916
280 2 59.3394 43.5326 0.341176
281 2 63.5161 43.4586 0.123389
282 2 67.2441 43.6219 0.311171
283 2 71.5946 43.5694 0.236187
284 2 75.1879 43.561 0.0471801
285 2 79.1856 43.6064 0.238134
286 2 83.4202 43.4041 0.275848
287 2 87.2847 43.4638 0.306401
288 2 91.1822 43.4979 0.372697
289 2 0.314104 47.3091 0.264825
290 2 4.0574 47.4413 0.357615
291 2 8.03814 47.5486 0.347756
292 2 11.9541 47.5442 0.333713
293 2 15.883 47.5294 0.209299
294 2 19.8035 47.3857 0.134976
295 2 23.8526 47.6645 0.139614
296 2 27.8366 47.5159 0.106479
297 2 31.6361 47.5861 0.25244
298 2 35.6548 47.4895 0.171772
299 2 39.5319 47.5588 0.289104
300 2 43.484 47.2203 0.38283
301 2 47.4035 47.6421 0.196113
302 2 51.509 47.6562 0.176262
303 2 55.5811 47.4026 0.111998
304 2 59.3092 47.3737 0.149102
305 2 63.3646 47.5595 0.0759911
306 2 67.4066 47.4686 0.191336
307 2 71.3755 47.6224 0.147565
308 2 75.5123 47.6041 0.267554
309 2 79.3444 47.3059 0.156765
310 2 83.2329 47.6102 0.334155
311 2 87.1285 47.4589 0.309127
312 2 91.2424 47.4189 0.137651
313 2 0.197509 51.3298 0.36435
314 2 4.00678 51.356 0.290263
315 2 7.90633 51.4955 0.304363
316 2 12.073 51.557 0.251029
317 2 15.8846 51.5529 0.379343
318 2 19.8325 51.3108 0.345733
319 2 23.8783 51.6144 0.233293
320 2 27.5606 51.5466 0.286867
321 2 31.7755 51.3056 0.356075
322 2 35.5204 51.5004 0.278423
323 2 39.8119 51.4049 0.30273
324 2 43.8132 51.5298 0.380762
325 2 47.709 51.4484 0.144783
326 2 51.6284 51.3679 0.100114
327 2 55.5104 51.4755 0.26043
328 2 59.4738 51.3959 0.37592
329 2 63.3869 51.4989 0.286661
330 2 67.42 51.2579 0.429919
331 2 71.4126 51.5462 -0.0231135
332 2 75.2527 51.467 0.162666
333 2 79.2293 51.4109 0.374586
334 2 83.2253 51.4656 0.299158
335 2 87.2887 51.5023 0.138445
336 2 91.0082 51.4082 0.0193483
337 2 0.090335 55.4728 0.283868
338 2 4.07947 55.3784 0.122511
339 2 7.97615 55.2404 0.121946
340 2 12.1425 55.5017 0.314979
341 2 15.9508 55.4612 0.238448
342 2 19.8883 55.5393 0.330384
343 2 24.0005 55.4242 0.205648
344 2 28.0097 55.2583 0.302462
345 2 31.8121 55.3005 0.237798
346 2 35.6837 55.3157 0.298889
347 2 39.6399 55.2948 0.257973
348 2 43.6891 55.4158 0.262692
349 2 47.7528 55.3717 0.105987
350 2 51.5609 55.3064 0.2209
351 2 55.3917 55.5258 0.146655
352 2 59.6268 55.4706 0.261442
353 2 63.5527 55.3936 0.268465
354 2 67.5474 55.1964 0.0691032
355 2 71.268 55.3487 0.317602
356 2 75.211 55.448 0.305673
357 2 79.3697 55.4165 0.353911
358 2 83.3472 55.4373 0.454331
359 2 87.0865 55.2733 0.324924
360 2 91.2487 55.3471 0.419173
361 2 0.171011 59.4951 0.116964
362 2 4.07261 59.2499 0.136838
363 2 8.10074 59.4557 0.331621
364 2 12.0036 59.1288 0.312934
365 2 15.861 59.5044 -0.0346692
366 2 19.8741 59.4198 0.226458
367 2 23.9781 59.1598 0.415665
368 2 27.9936 59.3472 0.229618
369 2 31.7498 59.3923 0.319493
370 2 35.6691 59.1997 0.197857
371 2 39.7572 59.4628 0.314991
372 2 43.8038 59.3035 0.134584
373 2 47.6143 59.2811 0.323208
374 2 51.5526 59.3223 0.350568
375 2 55.5238 59.3351 0.268168
376 2 59.2983 59.5565 0.240572
377 2 63.6271 59.1652 0.278072
378 2 67.3767 59.5033 0.167347
379 2 71.2804 59.4583 0.250694
380 2 75.3035 59.31 0.337861
381 2 79.274 59.3361 0.280888
382 2 83.3753 59.4767 0.129864
383 2 87.3043 59.3396 0.241995
384 2 91.3867 59.3078 0.250217
385 2 0.154927 63.398 0.309457
386 2 3.95326 63.1244 0.228799
387 2 7.94893 63.4006 0.376885
388 2 12.0882 63.2126 0.167131
389 2 15.9099 63.3025 0.259212
390 2 20.0898 63.1729 0.289165
391 2 23.8196 63.205 0.466158
392 2 27.8886 63.2774 0.277828
393 2 31.8371 63.2932 0.295461
394 2 35.8521 63.1123 0.339775
395 2 39.7812 63.2913 0.346994
396 2 43.8718 63.3082 0.296237
397 2 47.5421 63.1971 0.221658
398 2 51.5409 63.4055 0.141613
399 2 55.4965 63.2587 0.404142
400 2 59.5719 63.3386 0.174329
401 2 63.3792 63.3768 0.192461
402 2 67.2373 63.4533 0.235388
403 2 71.2823 63.3509 0.368383
404 2 75.4296 63.3497 0.184512
405 2 79.2327 63.1329 0.405634
406 2 83.2806 63.2561 0.324212
407 2 87.1857 63.3729 0.336461
408 2 91.0302 63.3661 0.150045
409 2 -0.0658851 67.1805 0.417375
410 2 4.18865 67.1446 0.331493
411 2 8.07676 67.2651 0.165116
412 2 11.9388 67.535 0.108685
413 2 15.7422 67.5211 0.342494
414 2 19.7184 67.2648 0.388139
415 2 24.0032 67.3146 0.304688
416 2 27.8628 67.2614 0.368083
417 2 31.844 67.2638 0.143967
418 2 35.8339 67.239 0.139827
419 2 39.8334 67.048 0.25633
420 2 43.74 67.2759 0.155645
421 2 47.6394 67.1633 0.260244
422 2 51.5176 67.1528 0.148333
423 2 55.5368 67.2999 0.241166
424 2 59.4228 67.3499 0.259147
425 2 63.3924 67.4566 0.379103
426 2 67.393 67.3644 0.213647
427 2 71.3043 67.2547 0.333792
428 2 75.296 67.4059 0.365069
429 2 79.2972 67.2264 0.279448
430 2 83.0827 67.3381 0.26561
431 2 87.11 67.2576 0.356027
432 2 90.817 67.1234 0.0923398
433 2 0.108473 71.0667 0.265123
434 2 3.95206 71.2007 0.247269
435 2 7.9223 71.1322 0.291367
436 2 11.98 71.2895 0.133648
437 2 15.9433 71.2878 0.360833
438 2 19.7793 71.1751 0.387217
439 2 23.7799 71.2887 0.377544
440 2 27.8457 71.4391 0.193184
441 2 31.9376 71.241 0.395094
442 2 35.7591 71.1098 0.235645
443 2 39.8141 71.2095 0.165044
444 2 43.7657 71.3561 0.326425
445 2 47.6102 71.0151 0.126969
446 2 51.6183 71.1971 0.133536
447 2 55.5082 71.2851 0.349709
448 2 59.1923 71.4577 0.0617539
449 2 63.4007 71.2846 0.161984
450 2 67.3925 71.2724 0.111058
451 2 71.3821 71.2464 0.18723
452 2 75.3891 71.4813 0.277907
453 2 79.4644 71.2315 0.165827
454 2 83.1365 71.2289 0.374678
455 2 87.1136 70.9552 0.241812
456 2 91.0877 70.9995 0.2392
457 2 0.0705135 75.0164 0.094588
458 2 4.06995 75.0004 0.193563
459 2 8.02335 75.2803 0.0121318
460 2 11.7764 75.1125 0.346565
461 2 16.0756 75.2787 0.291461
462 2 19.9924 75.2379 0.199871
463 2 23.8591 75.2626 0.352667
464 2 27.9213 75.3034 0.248663
465 2 31.9225 75.1446 0.366715
466 2 35.988 75.1928 0.265889
467 2 39.8169 75.2742 0.171665
468 2 43.6496 75.0808 0.381035
469 2 47.5317 75.0495 0.301039
470 2 51.4487 75.168 0.23729
471 2 55.6071 75.1886 0.314481
472 2 59.4401 75.269 0.228218
473 2 63.3091 75.135 0.401671
474 2 67.4151 75.2643 0.301626
475 2 71.4241 75.4094 0.155468
476 2 75.6014 75.2538 0.0823267
477 2 79.5101 75.3174 0.149407
478 2 83.1768 75.1839 0.153923
479 2 87.2076 75.3469 0.204379
480 2 90.8852 75.1178 0.251588
481 2 0.140391 78.999 0.191156
482 2 4.15984 79.228 0.289761
483 2 7.91871 79.2989 0.155816
484 2 11.9739 79.0998 0.276594
485 2 15.7663 79.3224 0.318294
486 2 19.8172 79.0579 0.177752
487 2 24.074 79.2501 0.323432
488 2 27.8541 79.287 0.334134
489 2 31.5264 79.189 0.425188
490 2 35.797 79.1248 0.348544
491 2 39.7037 79.2534 0.226949
492 2 43.8086 79.3587 0.172675
493 2 47.7469 78.9576 0.375567
494 2 51.6198 79.1295 0.250715
495 2 55.3487 79.0715 0.262452
496 2 59.2833 79.2165 0.269384
497 2 63.5033 79.0658 0.419744
498 2 67.267 79.3158 0.181055
499 2 71.4002 79.2354 0.146032
500 2 75.2605 79.1041 0.383561
501 2 79.2781 79.1905 0.244884
502 2 83.2523 79.2177 0.155974
503 2 87.0649 79.4042 0.289248
504 2 91.2102 79.1498 0.233727
505 2 0.174858 83.0239 0.266888
506 2 3.93983 83.3478 0.180778
507 2 7.98481 83.2056 0.333136
508 2 12.0126 83.1416 0.0928881
509 2 15.9776 83.0333 0.262312
510 2 20.034 83.0715 0.107613
511 2 23.9115 83.1502 0.156039
512 2 27.8683 83.1194 0.276444
513 2 31.8839 83.1677 0.249251
514 2 35.6253 83.1312 0.363292
515 2 39.6703 83.1621 0.314523
516 2 43.5613 83.1723 0.163698
517 2 47.5497 82.9938 0.165945
518 2 51.6075 83.1191 0.309791
519 2 55.4671 83.1012 0.357126
520 2 59.421 83.0974 0.249495
521 2 63.478 83.1032 0.353884
522 2 67.3004 83.1223 0.297662
523 2 71.223 83.3434 0.169212
524 2 75.3727 83.015 0.296726
525 2 79.364 83.4005 0.228422
526 2 83.324 83.1426 0.296274
527 2 87.3429 83.3204 0.166072
528 2 91.1821 83.1876 -0.000436126
529 2 0.0985813 87.0427 0.195523
530 2 4.08789 87.1518 0.239838
531 2 8.10382 87.1532 0.120784
532 2 12.0783 87.1056 0.136183
533 2 15.9418 86.9909 0.186023
534 2 19.8116 87.0485 0.55876
535 2 23.784 87.109 0.472641
536 2 27.8285 87.1414 0.0933847
537 2 31.7448 87.2482 0.280965
538 2 35.7389 87.0061 0.271938
539 2 39.7814 87.1889 0.216879
540 2 43.6374 87.0797 0.225162
541 2 47.5804 87.0928 0.287231
542 2 51.5195 87.2317 0.314181
543 2 55.3871 87.0964 0.270447
544 2 59.273 87.1524 0.264161
545 2 63.3359 86.9888 0.303391
546 2 67.3538 87.2143 0.112588
547 2 71.2291 86.9929 0.0393615
548 2 75.257 86.9459 0.217767
549 2 79.1212 87.2264 0.223497
550 2 83.2786 87.0818 0.143383
551 2 87.229 87.1829 0.136525
552 2 91.2514 87.0087 0.205274
553 2 0.0875004 91.1016 0.17151
554 2 4.13843 90.907 0.237387
555 2 8.01856 91.1641 0.134585
556 2 11.9152 90.9768 0.311453
557 2 15.9897 91.0818 0.181769
558 2 19.9476 90.79 0.22824
559 2 23.8241 90.9805 0.320247
560 2 27.5716 90.9922 0.262726
561 2 31.7109 91.1878 0.322643
562 2 35.5179 90.9281 0.355218
563 2 39.6256 91.1666 0.299408
564 2 43.681 91.0512 0.157629
565 2 47.6252 91.1608 0.157636
566 2 51.3203 91.0321 -0.00081732
567 2 55.3294 90.8751 0.135736
568 2 59.488 91.0228 0.412224
569 2 63.1828 91.1155 0.393453
570 2 67.119 91.1131 0.351398
571 2 71.344 91.0518 0.34032
572 2 75.2909 91.0443 0.0736726
573 2 79.3603 91.0855 0.24215
574 2 83.2584 91.2707 0.15593
575 2 87.2579 90.8359 0.0508693
576 2 91.115 91.0392 0.0536102
577 2 0.263809 0.181661 4.32718
578 2 4.05818 -0.0181652 4.16442
579 2 8.15085 0.12173 4.09133
580 2 11.909 -0.161993 4.28473
581 2 15.8833 -0.0496605 4.41579
582 2 19.8201 0.0426245 4.31392
583 2 23.8043 -0.240307 4.20465
584 2 27.8041 -0.0993067 4.23745
585 2 31.7751 -0.0845631 4.39528
586 2 35.5834 0.0660737 4.37655
587 2 39.5127 0.108419 4.03689
588 2 43.6036 0.0700721 4.1089
589 2 47.6845 0.21043 4.20466
590 2 51.5254 -0.178693 4.29074
591 2 55.3274 0.103501 4.24007
592 2 59.0893 -0.0234085 4.41148
593 2 63.1484 0.0121532 4.18439
594 2 67.249 0.0665847 4.33169
595 2 71.2766 0.0838089 4.14148
596 2 75.2106 -0.0739211 4.14963
597 2 79.3544 -0.0478476 4.14354
598 2 83.4128 0.0210976 4.05295
599 2 87.209 0.0465513 4.36059
600 2 91.2578 0.134127 4.13049
601 2 0.159416 4.04705 4.25569
602 2 4.14504 3.84374 4.25477
603 2 8.23601 3.78814 4.11403
604 2 12.1957 3.85071 4.06494
605 2 16.0198 3.99412 4.22693
606 2 19.9322 3.94763 4.44675
607 2 23.969 4.19161 4.19909
608 2 27.745 3.90457 4.31948
609 2 31.7723 4.09708 4.15716
610 2 35.8275 4.03754 4.25902
611 2 39.7471 3.9477 4.16788
612 2 43.6038 3.97615 4.33461
613 2 47.5258 4.04304 4.33452
614 2 51.4435 4.19739 4.02753
615 2 55.5478 4.07121 4.24876
616 2 59.4024 4.01001 4.29224
617 2 63.5248 3.99353 4.25083
618 2 67.2569 3.90688 4.28195
619 2 71.2115 4.06427 4.16967
620 2 75.3574 3.75787 4.30219
621 2 79.3215 3.95308 4.17428
622 2 83.3095 3.98611 4.14357
623 2 87.2789 3.80811 4.32418
624 2 91.1329 4.18049 4.06652
625 2 0.323817 7.73339 4.25621
626 2 4.35327 7.92406 4.30954
627 2 8.25739 7.78525 4.18898
628 2 12.0317 7.82642 3.92327
629 2 16.0039 7.95426 4.19549
630 2 19.9782 7.89188 4.38285
631 2 23.9613 8.12213 4.0297
632 2 27.8008 7.98982 4.18366
633 2 31.7983 7.7947 4.16419
634 2 35.7377 8.05785 4.04122
635 2 39.7487 8.03962 4.27797
636 2 43.6851 8.0004 4.23151
637 2 47.8902 8.09744 4.20042
638 2 51.5302 8.05647 4.19905
639 2 55.3402 7.98759 4.19006
640 2 59.4282 8.02447 4.32836
641 2 63.445 7.9434 4.36349
642 2 67.4241 7.8971 4.06984
643 2 71.2971 8.00544 4.17809
644 2 75.1777 7.91039 4.26322
645 2 79.3889 7.8566 4.02441
646 2 83.3379 7.98633 4.25926
647 2 87.2621 7.92214 4.10751
648 2 91.1392 8.02031 4.32301
649 2 0.110127 11.864 4.07715
650 2 3.94586 12.043 4.22907
651 2 8.05793 11.6689 4.26376
652 2 12.0632 11.9021 4.2314
653 2 15.9018 11.7979 4.34985
654 2 19.9996 11.9395 4.31723
655 2 23.784 12.1411 4.20084
656 2 27.7544 11.9548 4.24059
657 2 31.6498 11.8404 4.32138
658 2 35.8356 12.0471 4.29893
659 2 39.6416 12.0264 4.12463
660 2 43.8049 11.8499 4.18171
661 2 47.7905 11.9235 4.17244
662 2 51.7303 11.9945 4.21889
663 2 55.492 12.0195 4.24228
664 2 59.3818 12.0685 4.17596
665 2 63.3157 11.8457 4.07666
666 2 67.3935 11.757 4.27673
667 2 71.3248 11.8593 4.41198
668 2 75.3757 11.6948 4.15571
669 2 79.5779 12.0246 4.24007
670 2 83.4317 11.9118 4.1432
671 2 87.1699 11.7999 4.21004
672 2 91.2589 11.856 4.24852
673 2 -0.127499 15.942 4.15798
674 2 3.77543 15.7515 4.40969
675 2 8.06281 15.941 4.2655
676 2 12.0045 15.8659 4.10312
677 2 15.867 15.7662 4.36498
678 2 19.6788 15.9602 4.1774
679 2 23.7827 16.2026 4.23244
680 2 27.8078 15.8432 4.22746
681 2 31.7859 15.8584 4.23003
682 2 35.7401 15.7658 4.12956
683 2 39.6489 15.9971 4.38053
684 2 43.6865 16.0785 4.06189
685 2 47.651 15.7167 4.28213
686 2 51.6743 16.0074 4.31364
687 2 55.6439 15.8098 4.1145
688 2 59.5178 15.9631 4.16021
689 2 63.2577 15.936 4.10538
690 2 67.4386 15.8092 4.19855
691 2 71.4075 15.7464 3.97718
692 2 75.377 15.8348 4.11281
693 2 79.2517 15.7366 4.17971
694 2 83.1674 15.8899 4.1667
695 2 87.4015 15.8154 4.26462
696 2 91.3468 15.9472 4.39669
697 2 0.332374 19.5945 4.28929
698 2 4.09282 19.6262 4.19073
699 2 8.21212 19.7594 4.26358
700 2 12.0089 19.8409 4.18271
701 2 15.9602 19.9003 4.22985
702 2 19.8485 20.0469 4.22499
703 2 23.823 19.9569 4.16025
704 2 27.776 19.6177 4.24791
705 2 31.7786 19.813 4.4113
706 2 35.6044 19.738 4.22997
707 2 39.5114 19.9816 4.13236
708 2 43.5084 19.8332 4.32374
709 2 47.7172 19.9395 4.16678
710 2 51.6971 19.932 4.33445
711 2 55.6794 19.8178 4.268
712 2 59.6733 20.0029 4.12878
713 2 63.3172 19.9396 4.13324
714 2 67.2829 19.7354 4.16954
715 2 71.3984 19.6349 4.19297
716 2 75.3547 19.8826 4.34286
717 2 79.3822 19.7257 4.03728
718 2 83.401 19.8214 4.35272
719 2 87.4173 19.8995 4.33961
720 2 91.1997 19.7819 4.2025
721 2 0.134809 23.9507 4.10777
722 2 4.11127 23.6413 4.43592
723 2 7.91982 23.7129 4.15762
724 2 11.7783 23.7092 4.38768
725 2 15.8315 23.8835 4.20127
726 2 19.9336 23.8937 4.21901
727 2 24.0181 23.7643 4.20836
728 2 27.8317 23.7772 4.39143
729 2 31.7991 23.746 4.3083
730 2 35.8537 23.7066 4.30999
731 2 39.634 23.9982 4.33145
732 2 43.6531 23.9485 4.00582
733 2 47.6829 23.7435 3.91156
734 2 51.7625 23.7313 4.07025
735 2 55.4847 23.7082 4.24862
736 2 59.4353 23.8937 4.22587
737 2 63.2425 23.8447 4.05243
738 2 67.4503 23.6534 4.27745
739 2 71.3842 23.7094 4.14728
740 2 75.322 23.7682 4.36694
741 2 79.1829 23.6269 4.34222
742 2 83.2768 23.7615 4.26175
743 2 87.2125 23.7879 4.29564
744 2 91.2988 23.6013 4.40637
745 2 0.282938 27.8528 4.23181
746 2 4.28888 27.6561 4.22847
747 2 8.14137 27.7807 4.3197
748 2 11.8861 27.7944 4.25813
749 2 15.8646 27.7958 4.21242
750 2 19.7854 27.7884 4.33579
751 2 23.849 27.8277 4.26244
752 2 27.5412 27.6702 4.33886
753 2 31.8711 27.6876 4.41334
754 2 35.7073 27.8601 4.17403
755 2 39.8418 27.845 4.33415
756 2 43.7714 27.7455 4.18536
757 2 47.5991 27.7949 4.20197
758 2 51.6418 27.6543 4.11944
759 2 55.4358 27.6176 4.18667
760 2 59.6435 27.5568 4.24562
761 2 63.546 27.7837 4.15628
762 2 67.2748 27.7067 4.15249
763 2 71.1881 27.852 4.05923
764 2 75.5543 27.6095 4.14821
765 2 79.3627 27.6991 4.39657
766 2 83.3299 27.6354 4.0827
767 2 87.3585 27.6905 4.24611
768 2 91.1487 27.7743 4.22737
769 2 0.0354279 31.538 4.34998
770 2 4.23754 31.5629 4.03348
771 2 7.99823 31.6468 4.26769
772 2 12.0237 31.6117 4.22157
773 2 15.8575 31.6444 4.13234
774 2 19.9006 31.7391 4.40612
775 2 23.6837 31.6869 4.23466
776 2 27.6145 31.7588 4.31932
777 2 31.4081 31.4443 4.25285
778 2 35.7506 31.7905 4.42581
779 2 39.7788 31.6982 4.26338
780 2 43.6052 31.6326 4.24668
781 2 47.51 31.774 4.08112
782 2 51.4946 31.784 4.32319
783 2 55.5195 31.6878 4.29759
784 2 59.3717 31.7603 4.2705
785 2 63.6113 31.6682 4.23816
786 2 67.5172 31.6868 4.18373
787 2 71.4219 31.8584 4.10515
788 2 75.4079 31.7214 4.37385
789 2 79.4061 31.5987 4.19052
790 2 83.2554 31.8975 4.24508
791 2 87.1658 31.5801 4.31574
792 2 91.374 31.588 4.36228
793 2 0.400409 35.6051 4.12248
794 2 4.14169 35.4123 4.22516
795 2 7.84689 35.6369 4.2264
796 2 11.7556 35.5991 4.32685
797 2 15.9829 35.8051 4.31224
798 2 19.9115 35.6742 4.26161
799 2 23.7681 35.8863 4.14016
800 2 27.9672 35.6351 4.28872
801 2 31.8712 35.4347 4.27391
802 2 35.5438 35.6484 4.136
803 2 39.5769 35.6367 4.20385
804 2 43.6281 35.6837 4.10088
805 2 47.5773 35.8065 4.05895
806 2 51.5599 35.6307 4.22249
807 2 55.6215 35.6656 4.22844
808 2 59.5224 35.5766 4.152
809 2 63.5849 35.6306 4.15747
810 2 67.3817 35.6135 4.15816
811 2 71.3768 35.6475 4.19531
812 2 75.2891 35.5972 4.21299
813 2 79.3406 35.5551 4.32191
814 2 83.2704 35.7126 4.3211
815 2 87.4333 35.5554 4.24681
816 2 91.3702 35.801 4.2217
817 2 0.237584 39.4947 4.30398
818 2 4.05355 39.3327 4.34981
819 2 8.12683 39.6274 4.31343
820 2 11.9099 39.7632 4.38431
821 2 16.0227 39.6873 4.37184
822 2 19.9646 39.6522 4.2835
823 2 23.7278 39.7855 4.23261
824 2 27.961 39.5483 3.99799
825 2 31.5372 39.6589 4.25787
826 2 35.6507 39.7716 4.21461
827 2 39.5062 39.6773 4.14448
828 2 43.5159 39.6683 4.14643
829 2 47.4225 39.7403 3.99
830 2 51.5495 39.6962 4.17894
831 2 55.4817 39.4825 4.19182
832 2 59.577 39.5077 4.15906
833 2 63.4032 39.6512 4.14123
834 2 67.4961 39.6812 4.1688
835 2 71.3391 39.6516 4.15681
836 2 75.3157 39.5346 4.13607
837 2 78.919 39.6192 4.0981
838 2 83.2206 39.5807 4.1553
839 2 87.0906 39.6621 4.14537
840 2 91.2449 39.5873 4.21411
841 2 0.0880963 43.4842 4.38579
842 2 4.21237 43.5278 4.1245
843 2 8.13813 43.5639 4.35645
844 2 12.068 43.5504 4.25999
845 2 16.2108 43.5232 4.35366
846 2 20.0638 43.6591 4.09612
847 2 23.8782 43.6636 4.37051
848 2 27.6213 43.4441 4.14381
849 2 31.7194 43.5404 4.05963
850 2 35.5371 43.6327 4.1298
851 2 39.5707 43.6484 4.32567
852 2 43.4787 43.602 4.11354
853 2 47.664 43.6418 4.20163
854 2 51.5309 43.5404 4.16077
855 2 55.4952 43.4645 4.30819
856 2 59.6619 43.5773 4.09083
857 2 63.3882 43.5247 4.18918
858 2 67.3683 43.7133 4.22261
859 2 71.2175 43.6896 3.98933
860 2 75.1352 43.4665 4.22691
861 2 79.1498 43.4313 4.28591
862 2 83.0618 43.7083 4.25063
863 2 87.339 43.5231 4.22859
864 2 91.1301 43.6973 4.19759
865 2 0.168602 47.5119 4.29649
866 2 4.12873 47.6364 4.41071
867 2 8.14827 47.5416 4.13657
868 2 11.9799 47.4607 4.26847
869 2 15.9531 47.2664 4.20207
870 2 19.7703 47.6204 4.34199
871 2 23.8196 47.5629 4.39877
872 2 27.7836 47.3817 4.11855
873 2 31.7263 47.468 4.30354
874 2 35.7989 47.5158 4.31604
875 2 39.5715 47.5938 4.24807
876 2 43.6429 47.7017 4.28946
877 2 47.6622 47.5822 4.09756
878 2 51.4061 47.4599 4.22626
879 2 55.3514 47.4332 4.19179
880 2 59.574 47.6026 4.30489
881 2 63.3918 47.5903 4.25087
882 2 67.3185 47.374 4.27197
883 2 71.3518 47.6559 4.03097
884 2 75.3798 47.6314 4.31358
885 2 79.1382 47.5015 4.20947
886 2 83.1483 47.5222 4.21885
887 2 87.2108 47.5443 4.21846
888 2 91.1733 47.5948 4.22228
889 2 0.0772338 51.5741 4.22546
890 2 4.13271 51.5999 4.26053
891 2 8.0496 51.4089 4.25312
892 2 11.8619 51.5327 4.449
893 2 15.8999 51.4589 4.18103
894 2 19.8936 51.3929 4.10109
895 2 23.9066 51.3472 4.21997
896 2 27.7669 51.3881 4.49649
897 2 31.9658 51.4383 4.25391
898 2 35.5498 51.7031 4.06414
899 2 39.6237 51.461 4.1673
900 2 43.4309 51.6078 4.22727
901 2 47.4533 51.4758 4.27501
902 2 51.3644 51.445 4.11557
903 2 55.5494 51.3413 4.16441
904 2 59.4722 51.4784 4.29728
905 2 63.3281 51.3861 4.12137
906 2 67.5091 51.4966 4.15587
907 2 71.2016 51.4808 4.217
908 2 75.5487 51.5027 4.15745
909 2 79.33 51.4687 4.31276
910 2 83.1281 51.4538 4.24526
911 2 87.2135 51.6418 4.20078
912 2 91.0441 51.4932 4.19215
913 2 0.35426 55.5023 4.31113
914 2 4.28519 55.5022 4.07485
915 2 8.12178 55.5515 4.14421
916 2 12.1099 55.5562 4.19068
917 2 16.0013 55.2692 4.18355
918 2 19.9124 55.4893 4.47985
919 2 23.6446 55.4247 4.07429
920 2 27.9682 55.2589 4.05424
921 2 31.6927 55.6892 4.11334
922 2 35.7928 55.5236 4.26781
923 2 39.6606 55.321 4.30217
924 2 43.6856 55.456 4.25688
925 2 47.527 55.3247 4.14377
926 2 51.6137 55.3132 4.14526
927 2 55.6806 55.3346 4.14395
928 2 59.5545 55.4261 3.93317
929 2 63.2281 55.3997 4.29033
930 2 67.4115 55.5309 4.17975
931 2 71.3834 55.5295 4.30023
932 2 75.3257 55.5073 4.33752
933 2 79.2791 55.2039 4.12342
934 2 83.2514 55.3466 4.28361
935 2 87.1354 55.3675 4.46082
936 2 91.2102 55.5581 4.27095
937 2 0.128724 59.4281 4.39735
938 2 4.07502 59.4992 4.22292
939 2 7.97194 59.2795 4.31017
940 2 11.9683 59.4882 4.26358
941 2 16.0036 59.5543 4.27058
942 2 19.8704 59.214 4.35248
943 2 23.8067 59.4503 4.20802
944 2 27.8631 59.3345 4.45269
945 2 31.8836 59.4603 4.24269
946 2 35.7264 59.3273 4.26272
947 2 39.7792 59.3213 4.30598
948 2 43.7027 59.2412 4.15551
949 2 47.6779 59.3621 4.30071
950 2 51.6643 59.3341 4.23873
951 2 55.5206 59.3832 4.06148
952 2 59.4747 59.5318 4.18151
953 2 63.4927 59.5671 4.34394
954 2 67.3209 59.3476 4.23428
955 2 71.3026 59.5993 4.26379
956 2 75.43 59.393 4.19025
957 2 79.177 59.4285 4.25061
958 2 83.1688 59.2583 4.23161
959 2 87.1594 59.359 4.39589
960 2 91.1572 59.5779 4.08684
961 2 0.0234812 63.4678 4.33193
962 2 4.04146 63.4385 4.31596
963 2 8.12147 63.2969 4.31784
964 2 12.0138 63.4379 4.01886
965 2 15.7459 63.5303 4.0739
966 2 19.7781 63.2797 4.25875
967 2 23.9164 63.1074 4.15121
968 2 27.76 63.2765 4.0516
969 2 31.8636 63.5044 4.16858
970 2 35.7442 63.4144 4.2537
971 2 39.6371 63.2584 4.28306
972 2 43.6906 63.3562 4.30967
973 2 47.4395 63.1039 4.26734
974 2 51.5455 63.5121 4.24911
975 2 55.6095 63.3926 4.27465
976 2 59.5662 63.5157 4.27849