ITEM: TIMESTEP
70200
ITEM: NUMBER OF ATOMS
43200
ITEM: BOX BOUNDS xy xz yz pp pp pp
0.0000000000000000e+00 9.4992000000000004e+01 0.0000000000000000e+00
0.0000000000000000e+00 9.4992000000000004e+01 0.0000000000000000e+00
-6.9325755759770402e-03 5.9706932575577696e+01 0.0000000000000000e+00
ITEM: ATOMS id type x y z
1 2 0.141658 -0.0951245 0.281178
2 2 4.16511 0.15374 0.345949
3 2 8.03338 0.200438 0.266742
4 2 11.9913 0.179648 0.403036
5 2 15.9697 0.0365521 0.293978
6 2 19.6072 -0.247107 0.321749
7 2 23.6162 -0.00655695 0.125716
8 2 27.6833 0.060975 0.240544
9 2 31.5462 -0.0652502 0.197245
10 2 35.6687 -0.104384 0.137592
11 2 39.7676 -0.0446418 0.063252
12 2 43.6957 -0.0945439 0.254419
13 2 47.3843 -0.13493 0.287152
14 2 51.5381 -0.0121921 0.124852
15 2 55.4201 -0.126845 0.283523
16 2 59.3557 0.0415939 0.258801
17 2 63.4558 -0.0329581 0.178017
18 2 67.3438 0.0634255 0.189056
19 2 71.4155 0.0922729 0.00403747
20 2 75.4092 0.0827755 0.149436
21 2 79.3243 -0.0730198 0.0825557
22 2 83.3227 -0.0198079 0.146111
23 2 87.1089 -0.280523 0.26557
24 2 91.1131 0.0021768 0.23651
25 2 0.198212 3.90622 0.125597
26 2 4.2053 3.86854 0.299912
27 2 8.12536 3.91057 0.0572973
28 2 12.0922 3.9238 0.14042
29 2 15.8668 4.00304 0.337971
30 2 19.8324 3.9533 0.210324
31 2 23.7658 3.87783 0.416942
32 2 27.677 4.07547 0.251585
33 2 31.7732 3.80279 0.31654
34 2 35.5819 3.68104 0.404291
35 2 39.5917 3.78951 0.279853
36 2 43.7099 3.87602 0.419004
37 2 47.5338 3.80816 0.185726
38 2 51.2352 3.8698 0.363552
39 2 55.4535 3.79792 0.209335
40 2 59.3773 3.86035 0.253043
41 2 63.4422 3.83744 0.419922
42 2 67.5467 4.05605 0.117894
43 2 71.2956 4.23526 0.153392
44 2 75.1588 3.91203 0.25143
45 2 79.3536 4.06302 0.255078
46 2 83.2313 3.8643 0.456739
47 2 87.26 3.8447 0.16614
48 2 90.8647 3.82043 0.399285
49 2 0.263532 7.85883 0.278086
50 2 4.09314 8.03067 0.132528
51 2 8.2289 7.94445 0.279762
52 2 12.0478 7.90608 0.114699
53 2 16.0154 7.77886 0.0562887
54 2 19.7465 7.99234 0.167438
55 2 23.6504 8.07319 0.20239
56 2 27.837 7.86284 0.129683
57 2 31.9514 7.94814 0.232875
58 2 35.7065 7.7105 0.280798
59 2 39.576 7.84595 0.306566
60 2 43.7294 7.67972 0.262898
61 2 47.5793 7.87268 0.39121
62 2 51.6306 7.87925 0.182157
63 2 55.4738 7.86134 0.337729
64 2 59.3733 7.76765 0.324956
65 2 63.3464 7.99276 0.347106
66 2 67.3454 7.95391 0.27908
67 2 71.1867 7.86214 -0.0973343
68 2 75.4128 7.93947 0.208589
69 2 79.1958 7.98705 0.436315
70 2 83.4271 7.77236 0.216133
71 2 87.4168 7.98864 0.220421
72 2 91.3149 7.84219 0.246859
73 2 0.161989 11.7253 0.409834
74 2 4.11919 11.8173 0.23923
75 2 7.8543 11.7669 0.30665
76 2 11.9056 11.9527 0.330803
77 2 16.0704 11.966 0.174192
78 2 19.9103 11.9307 0.357972
79 2 23.9323 11.8678 0.25543
80 2 27.7694 11.9916 0.210752
81 2 31.6597 11.7196 0.141039
82 2 35.5548 11.7774 0.255515
83 2 39.7394 11.6262 0.442703
84 2 43.6582 11.6791 0.319356
85 2 47.6288 11.7767 0.269356
86 2 51.4079 11.7592 0.411331
87 2 55.3685 11.9845 0.438886
88 2 59.4245 11.9594 0.0465463
89 2 63.2398 12.0002 0.245201
90 2 67.4556 11.8661 0.167306
91 2 71.0603 12.1156 0.255667
92 2 75.1758 11.8582 0.261972
93 2 79.0948 11.8274 0.341846
94 2 83.2518 12.0642 0.0825395
95 2 87.3395 11.8526 0.0750329
96 2 91.291 11.7599 0.41676
97 2 0.269234 16.0369 0.169171
98 2 4.0857 15.8272 0.179659
99 2 8.2337 15.8263 0.367863
100 2 11.998 16.0077 0.314729
101 2 15.7673 15.8647 0.176272
102 2 20.0669 15.834 0.260612
103 2 23.8049 15.7982 0.248152
104 2 27.7792 15.6598 0.234688
105 2 31.8546 15.9257 0.274468
106 2 35.8331 15.7656 0.201046
107 2 39.7337 15.9005 0.271623
108 2 43.6144 15.7731 0.391474
109 2 47.4505 15.8495 0.28591
110 2 51.3601 15.6967 0.160997
111 2 55.3976 15.8809 0.125266
112 2 59.4479 15.9357 0.318162
113 2 63.4753 15.8028 0.236039
114 2 67.4675 15.9494 0.22104
115 2 71.3306 15.827 0.0996878
116 2 75.5542 15.7993 0.388728
117 2 79.2996 16.0008 0.327477
118 2 83.3207 15.856 0.224345
119 2 87.0936 15.8741 0.263437
120 2 91.3942 15.7179 0.174647
121 2 0.205598 19.7593 0.230955
122 2 4.01317 19.8633 0.343159
123 2 7.98337 20.0807 0.15011
124 2 11.9159 19.9216 0.321164
125 2 15.8063 19.8329 0.317323
126 2 19.8588 19.8936 0.215893
127 2 23.9731 19.8235 0.381662
128 2 27.7943 19.639 0.264515
129 2 31.6125 19.8552 0.243991
130 2 36.0077 19.6884 0.238236
131 2 39.8699 19.7051 0.276558
132 2 43.3509 19.8423 0.172607
133 2 47.5654 19.7192 0.286454
134 2 51.306 19.5449 0.230526
135 2 55.5771 19.6445 0.0970669
136 2 59.5333 19.8378 0.337933
137 2 63.5071 20.0202 0.226465
138 2 67.2981 19.9142 0.10032
139 2 71.1587 19.7541 0.452523
140 2 74.9643 19.9203 0.385281
141 2 79.359 19.7749 0.242828
142 2 83.3068 19.8372 0.0330787
143 2 87.1745 19.6312 0.283296
144 2 91.0817 19.7482 0.320652
145 2 0.19414 23.5256 0.237126
146 2 4.08131 23.6363 0.333598
147 2 7.92961 23.6849 0.447977
148 2 11.9804 23.6704 0.27247
149 2 15.9469 23.6055 0.273691
150 2 19.8928 23.7403 0.41072
151 2 24.0107 23.8421 0.335905
152 2 27.9424 23.777 0.294854
153 2 31.961 23.8614 0.339504
154 2 35.9016 23.6317 0.326944
155 2 39.566 23.8095 0.191935
156 2 43.7463 23.9261 0.339233
157 2 47.6807 23.7194 0.256018
158 2 51.6347 23.5428 0.336648
159 2 55.4977 23.66 0.233627
160 2 59.4513 23.8072 0.187041
161 2 63.3621 23.7709 0.112457
162 2 67.5428 24.0436 0.219825
163 2 71.2376 23.8495 0.212689
164 2 75.2348 23.6945 0.280521
165 2 79.2818 23.8712 0.324549
166 2 83.161 23.7254 0.450662
167 2 86.9964 23.7521 0.308557
168 2 91.0903 23.7202 0.369257
169 2 0.123557 27.7182 0.470718
170 2 4.01637 27.5833 0.307557
171 2 8.01573 27.7483 0.411265
172 2 11.9476 27.7415 0.226186
173 2 15.7738 27.4895 0.377813
174 2 19.9473 27.6049 0.312532
175 2 23.857 27.6115 0.293613
176 2 27.8713 27.7564 -0.0350662
177 2 31.7589 27.68 0.214725
178 2 35.6573 27.7186 0.120401
179 2 39.6351 27.6482 0.337069
180 2 43.5451 27.7929 0.15066
181 2 47.5281 27.7365 0.325832
182 2 51.64 27.5437 0.484582
183 2 55.508 27.5991 0.303949
184 2 59.4426 27.6947 0.29036
185 2 63.3789 27.933 0.414436
186 2 67.3034 27.8485 0.340101
187 2 71.396 27.8748 0.225706
188 2 75.3625 27.7127 0.414965
189 2 79.2824 27.6676 0.385873
190 2 83.3375 27.8352 0.206928
191 2 87.0319 27.563 0.310964
192 2 91.2176 27.7162 0.285675
193 2 -0.0325762 31.8747 0.449489
194 2 4.16447 31.6607 0.296868
195 2 7.981 31.5585 0.415086
196 2 11.8261 31.5173 0.392137
197 2 15.813 31.5119 0.128726
198 2 19.8121 31.4003 0.438431
199 2 24.0189 31.5436 0.213594
200 2 27.8349 31.7188 0.108281
201 2 31.8325 31.6995 0.238027
202 2 35.7641 31.4694 0.280226
203 2 39.5995 31.5179 0.309864
204 2 43.3684 31.6246 0.220489
205 2 47.5457 31.2613 0.257773
206 2 51.4964 31.7116 0.203482
207 2 55.2905 31.6119 0.0382512
208 2 59.3761 31.934 0.20512
209 2 63.3756 31.7834 0.325481
210 2 67.3823 31.8114 0.268874
211 2 71.2668 31.6402 0.369457
212 2 75.2515 31.5476 0.333546
213 2 79.406 31.7478 0.0465201
214 2 83.2828 31.6549 0.335918
215 2 87.2973 31.6056 0.0812242
216 2 91.137 31.7004 0.333605
217 2 0.175141 35.484 0.18702
218 2 4.22167 35.6037 0.315109
219 2 8.17033 35.6158 0.334233
220 2 12.1716 35.6996 0.269302
221 2 15.9904 35.3095 0.170707
222 2 19.7998 35.6119 0.347061
223 2 23.638 35.499 0.258781
224 2 27.6481 35.6873 0.374568
225 2 31.6747 35.6106 0.435864
226 2 35.6929 35.5592 0.262195
227 2 39.713 35.5222 0.241913
228 2 43.643 35.5954 0.220667
229 2 47.426 35.589 0.436723
230 2 51.6014 35.5941 0.279167
231 2 55.5868 35.6324 0.27881
232 2 59.4234 35.7485 0.238335
233 2 63.3784 35.8329 0.365705
234 2 67.2466 35.8833 0.176579
235 2 71.3555 35.4962 0.485153
236 2 75.0924 35.5786 0.333446
237 2 79.289 35.7366 0.181195
238 2 83.1702 35.5594 0.277056
239 2 87.2442 35.9126 0.141856
240 2 91.1208 35.465 0.360807
241 2 0.0768347 39.5579 0.29292
242 2 4.13898 39.6457 0.348198
243 2 8.0584 39.478 0.323125
244 2 11.9383 39.3852 0.173259
245 2 15.9213 39.4518 0.230055
246 2 19.9005 39.4123 0.445535
247 2 23.8314 39.6598 0.223349
248 2 27.5724 39.6216 0.178058
249 2 31.728 39.688 0.28344
250 2 35.8159 39.6202 0.416429
251 2 39.6743 39.6542 0.306493
252 2 43.394 39.6114 0.283855
253 2 47.6431 39.5537 0.318371
254 2 51.7392 39.5939 0.260835
255 2 55.4544 39.6751 0.182019
256 2 59.5117 39.7212 0.328824
257 2 63.4391 39.7416 0.361811
258 2 67.4397 39.653 0.231931
259 2 71.3682 39.7328 0.261941
260 2 75.2485 39.7035 0.277385
261 2 79.347 39.6361 0.307276
262 2 83.2925 39.7329 0.376957
263 2 87.2863 39.8778 0.16844
264 2 91.1363 39.4674 0.270229
265 2 0.0861188 43.3994 0.283376
266 2 4.14069 43.4562 0.268976
267 2 8.15146 43.5722 0.314106
268 2 11.8894 43.4398 0.38153
269 2 15.9973 43.4693 0.325425
270 2 19.8527 43.5837 0.255346
271 2 23.9128 43.6318 0.334096
272 2 27.7508 43.483 -0.000145972
273 2 31.742 43.4952 0.169789
274 2 35.6623 43.6208 0.149213
275 2 39.647 43.4684 0.263745
276 2 43.557 43.1874 0.131386
277 2 47.5167 43.3975 0.425649
278 2 51.5494 43.4527 0.228628
279 2 55.6922 43.5081 0.172072
280 2 59.4326 43.3759 0.220636
281 2 63.4643 43.4301 0.140715
282 2 67.3322 43.7421 0.235382
283 2 71.4319 43.6015 0.242316
284 2 75.1262 43.5739 0.201549
285 2 79.3117 43.7813 0.249996
286 2 83.0564 43.7524 0.0929705
287 2 86.958 43.7077 0.256062
288 2 91.0097 43.5456 0.316927
289 2 0.266237 47.4274 0.272784
290 2 3.97256 47.3057 0.216787
291 2 8.04127 47.393 0.301435
292 2 12.0287 47.1699 0.157253
293 2 16.0723 47.3594 0.345746
294 2 19.8013 47.377 0.455222
295 2 23.8712 47.4851 0.397666
296 2 27.8853 47.3614 0.387336
297 2 31.8718 47.4073 0.252051
298 2 35.8487 47.4938 0.154034
299 2 39.9086 47.6112 0.308833
300 2 43.6316 47.2346 0.283279
301 2 47.7638 47.429 0.322289
302 2 51.7167 47.4885 0.136513
303 2 55.5151 47.4466 -0.027992
304 2 59.5317 47.5246 0.120188
305 2 63.3475 47.8071 0.150013
306 2 67.2999 47.6622 0.157231
307 2 71.395 47.4425 0.300244
308 2 75.3345 47.6268 0.156606
309 2 79.3058 47.5087 0.185421
310 2 83.0783 47.4718 0.323229
311 2 87.3271 47.3688 0.285168
312 2 91.0147 47.5116 0.304938
313 2 0.0858105 51.387 0.159622
314 2 4.15766 51.4477 0.454883
315 2 7.9354 51.3735 0.210425
316 2 11.94 51.4293 0.325884
317 2 15.8113 51.7199 0.316976
318 2 19.8869 51.3971 0.288079
319 2 23.6895 51.347 0.384755
320 2 27.9217 51.3743 0.287536
321 2 31.7855 51.6171 0.15555
322 2 35.9069 51.4826 0.44782
323 2 39.7496 51.5281 0.215809
324 2 43.7123 51.5142 0.198963
325 2 47.4242 51.216 0.222034
326 2 51.5288 51.1706 0.128553
327 2 55.5441 51.3468 0.142271
328 2 59.4246 51.6045 0.254096
329 2 63.3886 51.262 0.264737
330 2 67.3392 51.627 0.209141
331 2 71.2344 51.352 0.261541
332 2 75.3438 51.4938 0.260946
333 2 79.2803 51.5844 0.202967
334 2 83.2712 51.3991 0.424355
335 2 87.2148 51.4898 0.385295
336 2 91.1417 51.5874 0.267249
337 2 0.238353 55.2771 0.453225
338 2 4.30105 55.5409 0.262403
339 2 8.08948 55.3987 0.191225
340 2 11.9235 55.5862 0.134254
341 2 15.8748 55.4038 0.284434
342 2 19.9897 55.3454 0.301904
343 2 24.083 55.2869 0.213044
344 2 27.874 55.3575 0.166715
345 2 31.7933 55.4137 0.288421
346 2 35.836 55.2223 0.202772
347 2 39.8191 55.508 0.224771
348 2 43.7303 55.3252 0.0787692
349 2 47.5609 55.6969 0.203865
350 2 51.5771 55.477 0.192503
351 2 55.6064 55.3851 0.24803
352 2 59.5494 55.2313 0.30619
353 2 63.3381 55.3029 0.320741
354 2 67.1822 55.3189 0.308896
355 2 71.077 55.398 0.283563
356 2 75.3238 55.4557 0.244636
357 2 79.0797 55.576 0.277212
358 2 83.348 55.5311 0.0923051
359 2 87.2685 55.4099 0.245309
360 2 91.0605 55.605 0.182546
361 2 0.158908 59.3702 0.0494351
362 2 4.30808 59.4289 0.247382
363 2 8.06984 59.2102 0.201764
364 2 11.9127 59.469 0.364806
365 2 15.9431 59.3271 0.413648
366 2 20.0334 59.1713 0.293444
367 2 23.9125 59.3498 0.117434
368 2 27.951 59.2982 0.291215
369 2 31.9949 59.3308 0.0593792
370 2 35.6853 59.2873 0.323669
371 2 39.6376 59.4768 0.278752
372 2 43.5679 59.4239 0.220853
373 2 47.4652 59.4181 0.148367
374 2 51.5382 59.2227 0.294674
375 2 55.6664 59.5892 0.127929
376 2 59.557 59.4596 0.237668
377 2 63.2601 59.4587 0.302109
378 2 67.3372 59.3591 0.260688
379 2 71.2644 59.3826 0.232113
380 2 75.2616 59.6246 0.149617
381 2 79.1595 59.4729 0.315004
382 2 83.1736 59.4073 0.35809
383 2 87.1271 59.3899 0.187642
384 2 91.1188 59.2109 0.341542
385 2 -0.0498445 63.537 0.240193
386 2 4.08205 63.3356 0.16377
387 2 8.24383 63.2167 -0.0254559
388 2 12.0856 63.2905 0.188628
389 2 16.0604 63.1221 0.340326
390 2 20.1034 63.3909 0.198848
391 2 24.0411 63.428 0.370068
392 2 27.9804 63.481 0.279005
393 2 31.9429 63.3262 0.172516
394 2 35.9052 63.4444 0.232518
395 2 39.6205 63.3121 0.307688
396 2 43.6485 63.4885 0.112652
397 2 47.5951 63.265 0.258044
398 2 51.5131 63.4349 0.165917
399 2 55.6571 63.5169 0.194958
400 2 59.4716 63.5103 0.298893
401 2 63.3971 63.2233 0.289905
402 2 67.3026 63.3193 0.418186
403 2 71.322 63.2935 0.230194
404 2 75.3841 63.2816 0.35351
405 2 79.1262 63.3923 0.0128168
406 2 83.1307 63.2095 0.133852
407 2 87.2334 63.451 0.218552
408 2 91.254 63.31 0.0329796
409 2 0.0850591 67.2793 0.222127
410 2 4.08356 67.3091 0.242684
411 2 7.94795 67.2345 0.290067
412 2 12.0697 67.2612 0.352933
413 2 15.9751 67.4762 0.152866
414 2 19.87 67.5413 0.242136
415 2 23.8339 67.3103 0.369116
416 2 27.9118 67.4248 0.344276
417 2 31.9294 67.224 0.22441
418 2 35.8574 67.2477 0.198547
419 2 39.8174 67.3209 0.309589
420 2 43.587 67.49 0.175347
421 2 47.6246 67.4074 -0.00294414
422 2 51.5471 67.2154 0.234197
423 2 55.6204 67.3325 0.174833
424 2 59.4736 67.4001 -0.116235
425 2 63.3811 67.3916 0.139573
426 2 67.2306 67.1839 0.272528
427 2 71.3669 67.1318 0.233057
428 2 74.9931 67.4167 0.311742
429 2 79.1974 67.4441 0.373102
430 2 83.1056 67.1732 0.161203
431 2 87.166 67.1442 0.119594
432 2 91.1186 67.5578 0.0867441
433 2 0.108792 71.1289 0.13973
434 2 4.06602 71.2457 0.255807
435 2 8.07692 71.2907 0.310124
436 2 12.0565 71.1853 0.134186
437 2 15.7983 71.4038 0.12505
438 2 19.9693 71.473 0.174925
439 2 23.7609 71.279 0.217584
440 2 27.6585 71.3026 0.301977
441 2 31.7207 71.264 0.382478
442 2 35.8137 71.1318 0.260498
443 2 39.49 71.1653 0.382373
444 2 43.6898 71.3703 0.228609
445 2 47.721 71.2805 0.215528
446 2 51.4935 71.0295 0.299768
447 2 55.7439 71.1999 0.0560014
448 2 59.4808 71.3228 0.208773
449 2 63.3613 71.1806 0.227605
450 2 67.5486 71.2826 0.485448
451 2 71.4328 71.2196 0.130782
452 2 75.1621 71.3686 0.394768
453 2 79.1051 71.3574 0.0935112
454 2 83.1809 71.1723 0.171586
455 2 87.101 71.2423 0.103184
456 2 91.0897 71.3221 0.248542
457 2 0.0778119 75.2977 0.168613
458 2 4.16602 75.1719 0.128482
459 2 8.11957 75.28 0.358173
460 2 12.0804 75.2843 0.227591
461 2 15.8439 75.2177 0.169891
462 2 19.8313 75.2453 0.303625
463 2 23.7091 75.0932 0.267959
464 2 27.7864 75.2885 0.24071
465 2 31.7444 75.1598 0.172323
466 2 35.9462 75.1888 0.202553
467 2 39.5289 75.1386 0.300948
468 2 43.55 75.2899 0.126583
469 2 47.734 75.2977 0.253505
470 2 51.6686 75.1151 0.192642
471 2 55.4542 75.1568 0.3544
472 2 59.4739 75.1215 0.255099
473 2 63.3878 75.1582 0.364285
474 2 67.3212 75.0918 -0.028287
475 2 71.1576 75.3127 0.210306
476 2 75.2306 75.3063 0.177983
477 2 79.2309 75.2577 0.0734689
478 2 83.2004 75.2398 0.265405
479 2 87.2337 75.2884 0.196811
480 2 91.0669 75.0327 0.174783
481 2 0.358787 79.1889 0.135172
482 2 4.22179 79.2764 0.297309
483 2 8.01133 79.2193 0.438165
484 2 12.1601 79.1496 0.125434
485 2 15.8633 79.3084 0.202652
486 2 19.9489 79.1635 0.415301
487 2 23.69 79.0855 0.292966
488 2 27.9823 79.1671 0.284684
489 2 31.9026 79.1978 0.165791
490 2 35.9726 79.0094 0.263923
491 2 39.6872 79.0792 0.310857
492 2 43.4003 79.2774 0.178218
493 2 47.3639 79.298 0.263725
494 2 51.4509 79.0952 0.306136
495 2 55.6319 79.1003 0.189607
496 2 59.3846 79.1152 0.243692
497 2 63.3525 79.2014 0.379105
498 2 67.1934 79.2162 0.130983
499 2 71.1264 79.1283 0.128605
500 2 75.131 79.2725 0.372715
501 2 79.1448 79.0195 0.288591
502 2 83.0507 79.1369 0.397259
503 2 87.162 79.206 0.0970824
504 2 91.103 78.9935 0.101773
505 2 0.0583751 83.0885 0.130926
506 2 4.12464 83.154 0.269932
507 2 8.12857 83.1145 0.245343
508 2 12.0347 83.0262 0.215608
509 2 16.037 83.0226 0.117322
510 2 19.8337 83.1266 0.296618
511 2 23.8397 83.1493 0.233127
512 2 27.6942 83.1418 0.251164
513 2 31.9252 82.8924 0.409383
514 2 35.8896 82.9939 0.1567
515 2 39.511 82.9857 0.357469
516 2 43.6116 83.2279 0.26265
517 2 47.5051 83.0542 0.355407
518 2 51.3872 83.0894 0.282306
519 2 55.376 82.9424 0.201256
520 2 59.3376 83.0839 0.412395
521 2 63.3833 83.0149 0.217236
522 2 67.4444 83.158 0.292496
523 2 71.2897 83.082 0.302267
524 2 75.1558 83.2146 0.290078
525 2 79.0392 83.0908 0.152647
526 2 83.2241 83.0152 0.160602
527 2 87.2849 83.3204 0.251716
528 2 91.1854 83.0841 -0.00587263
529 2 0.259586 87.1293 0.197812
530 2 4.25796 87.1923 0.333994
531 2 8.08199 87.0334 0.333062
532 2 12.2175 86.8629 0.55591
533 2 15.8105 87.0069 0.359345
534 2 19.8052 87.2136 0.366629
535 2 23.9611 87.1463 0.408464
536 2 27.8488 86.9996 0.278876
537 2 31.8166 87.0268 0.286553
538 2 35.7729 87.123 0.294341
539 2 39.6626 86.8454 0.334648
540 2 43.5586 87.033 0.307199
541 2 47.571 86.8018 0.422807
542 2 51.5921 87.0042 0.201298
543 2 55.5476 87.0043 0.532799
544 2 59.3868 86.967 0.341769
545 2 63.3788 86.9863 0.13238
546 2 67.2087 87.055 0.121922
547 2 71.5456 87.1957 0.248052
548 2 75.2894 87.2049 0.143936
549 2 79.2111 87.1498 0.411152
550 2 82.9286 87.1484 0.329096
551 2 87.191 87.1409 0.229267
552 2 91.2283 86.9581 0.175931
553 2 0.205926 91.0521 0.121187
554 2 4.281 91.135 0.336357
555 2 8.08513 90.9245 0.256045
556 2 11.934 91.2078 0.112409
557 2 15.9254 91.0098 0.184579
558 2 19.8029 90.9836 0.441827
559 2 23.8106 91.0878 0.243128
560 2 27.7475 91.092 0.189385
561 2 31.5471 91.0751 0.31692
562 2 35.757 91.0106 0.386969
563 2 39.8099 91.0139 0.302526
564 2 43.5981 90.8545 0.27883
565 2 47.5437 91.0055 0.463269
566 2 51.3966 91.109 0.270752
567 2 55.4263 91.1545 0.0862123
568 2 59.4597 91.0355 0.260653
569 2 63.5781 91.0046 0.422324
570 2 67.4779 91.1828 0.296332
571 2 71.3858 91.0625 0.243285
572 2 75.3808 91.0258 0.283328
573 2 79.2281 91.0405 0.193785
574 2 83.4815 91.0257 0.237298
575 2 87.4091 90.9884 0.160956
576 2 91.3661 90.9725 0.330728
577 2 0.172179 0.134286 4.01726
578 2 4.04834 0.147461 4.09764
579 2 8.16732 0.143403 4.31913
580 2 12.1762 0.00448504 4.29017
581 2 15.9469 -0.0696302 4.27484
582 2 19.8558 0.00971402 4.23684
583 2 23.8226 0.0713121 4.20862
584 2 27.5092 0.0131452 4.30798
585 2 31.7261 0.0265389 4.09563
586 2 35.6845 0.15977 4.26213
587 2 39.5513 0.0152543 4.2821
588 2 43.4759 0.0687645 4.28685
589 2 47.5577 -0.147936 4.36158
590 2 51.4076 -0.0481729 4.39945
591 2 55.3706 0.00554792 4.30765
592 2 59.5227 -0.0974242 4.10134
593 2 63.4322 -0.0971188 4.22723
594 2 67.3164 -0.0570011 4.23885
595 2 71.3706 0.161188 4.23713
596 2 75.0645 0.21544 4.04282
597 2 79.2268 0.144473 4.20769
598 2 83.1312 0.108429 4.22427
599 2 86.9442 0.0413472 4.17758
600 2 91.2835 0.0875741 4.19724
601 2 0.121869 3.97229 4.22137
602 2 4.06459 4.0214 4.08553
603 2 8.06576 3.95346 4.06174
604 2 11.9635 4.15393 4.19174
605 2 15.9602 4.02068 4.21093
606 2 19.8087 3.81844 4.22412
607 2 23.9579 4.03688 4.33203
608 2 28.0143 4.11887 4.24401
609 2 31.5732 3.99145 4.21093
610 2 35.6971 3.99356 4.16942
611 2 39.6049 3.91931 4.37966
612 2 43.4288 3.86768 4.39198
613 2 47.5532 4.03911 4.28419
614 2 51.4505 3.67106 4.23871
615 2 55.445 3.87697 4.26926
616 2 59.2344 3.86474 4.29015
617 2 63.5839 4.00906 4.2676
618 2 67.4648 3.79265 4.28572
619 2 71.2568 4.05765 4.29419
620 2 75.1269 4.0434 4.16356
621 2 79.2522 3.9692 4.26672
622 2 83.3055 4.03467 4.16234
623 2 87.3017 4.00312 4.13505
624 2 91.1868 4.14151 4.05606
625 2 0.228958 8.07428 3.99399
626 2 4.25757 7.70049 4.00503
627 2 8.10483 7.97076 4.25555
628 2 12.0404 7.97108 4.35814
629 2 15.9533 7.86395 4.37923
630 2 19.8822 7.96643 4.40016
631 2 23.8582 8.00883 4.17565
632 2 27.7147 8.01326 4.24115
633 2 31.7656 7.94587 4.24916
634 2 35.4902 7.83265 4.24162
635 2 39.6615 8.06877 4.204
636 2 43.6883 7.9371 4.27039
637 2 47.5119 7.77859 4.35805
638 2 51.6517 7.88154 4.21014
639 2 55.5045 7.78203 4.11186
640 2 59.4306 7.94514 4.13464
641 2 63.4096 8.04333 4.22724
642 2 67.3207 8.12123 4.23378
643 2 71.1889 8.01812 4.31171
644 2 75.2675 7.90936 4.09536
645 2 79.1936 8.14852 4.14413
646 2 83.314 7.97402 4.26735
647 2 87.2095 7.938 4.37275
648 2 91.1524 7.87788 4.24864
649 2 0.1387 11.7449 4.37661
650 2 4.1459 11.7241 4.1569
651 2 8.15686 12.0375 4.25005
652 2 12.0118 11.755 4.18027
653 2 16.0654 11.9812 4.30486
654 2 19.8804 11.8312 4.18156
655 2 23.8197 12.0469 4.27751
656 2 27.7506 11.9771 4.04706
657 2 31.6532 12.1488 4.2203
658 2 35.7406 11.8249 4.32907
659 2 39.5866 11.7478 4.3315
660 2 43.752 11.8716 4.33988
661 2 47.6315 11.9057 4.24625
662 2 51.2552 11.7749 4.26504
663 2 55.4532 11.9745 4.28309
664 2 59.3958 11.9465 4.34331
665 2 63.4678 11.8714 4.2879
666 2 67.4049 11.8791 4.43252
667 2 71.1621 11.907 4.13229
668 2 75.1908 11.841 4.24571
669 2 79.3005 11.9957 4.2135
670 2 83.2733 11.8783 4.22756
671 2 87.2017 11.7728 4.19604
672 2 91.3104 11.894 4.25614
673 2 0.25136 15.6439 4.25545
674 2 4.17514 15.8454 4.24034
675 2 8.24569 16.0098 4.22665
676 2 11.9604 15.8571 4.39153
677 2 15.8965 15.8402 4.21373
678 2 19.8913 15.8524 4.13095
679 2 23.813 15.7794 4.11448
680 2 27.7941 15.8913 4.14675
681 2 31.8978 16.0339 4.27905
682 2 35.682 15.8343 4.26006
683 2 39.6733 15.5241 4.24485
684 2 43.7286 15.6423 4.16962
685 2 47.487 15.7925 4.12315
686 2 51.631 15.8343 4.17561
687 2 55.2919 15.7784 4.11839
688 2 59.5349 16.0517 4.00714
689 2 63.4101 16.1345 4.15156
690 2 67.4762 15.8004 4.44085
691 2 71.5825 15.789 4.30802
692 2 75.2866 15.9235 4.30725
693 2 79.257 15.9572 4.23117
694 2 83.3149 15.8281 4.21093
695 2 87.0749 15.8668 4.14263
696 2 91.2388 16.0013 4.31036
697 2 0.140519 19.4436 4.39722
698 2 4.14616 19.78 4.3094
699 2 7.94514 19.8832 4.17218
700 2 11.8732 19.9364 4.30659
701 2 15.8332 19.8186 4.317
702 2 19.8895 19.9394 4.34333
703 2 23.8611 19.626 4.31744
704 2 27.9611 19.8549 4.16303
705 2 31.7871 19.9617 3.94887
706 2 35.7384 19.6093 4.34591
707 2 39.796 19.872 4.22751
708 2 43.5845 19.9188 4.10914
709 2 47.6067 19.6168 4.35461
710 2 51.4084 19.94 4.25246
711 2 55.5062 19.9348 4.23177
712 2 59.6917 19.9335 4.24886
713 2 63.4041 19.9006 4.21239
714 2 67.3374 19.7282 4.15407
715 2 71.3334 19.7744 4.25579
716 2 75.2571 19.9778 4.24935
717 2 79.0727 19.6488 4.13783
718 2 83.174 19.7934 4.41993
719 2 87.2246 19.9507 4.11076
720 2 91.1694 19.8104 4.15398
721 2 -0.0421763 23.7324 4.28717
722 2 3.83654 23.7257 4.09914
723 2 8.03037 23.8587 4.38804
724 2 12.0602 23.8267 4.32271
725 2 16.0814 23.9205 4.35966
726 2 20.0409 23.7454 4.30562
727 2 23.8705 23.6747 4.37827
728 2 27.7871 23.8811 4.21044
729 2 31.7439 23.875 4.18456
730 2 35.7199 23.6543 4.0712
731 2 39.8633 23.9437 4.24419
732 2 43.5631 23.8072 4.11835
733 2 47.5763 23.727 4.34652
734 2 51.6361 23.8549 4.39505
735 2 55.3695 23.8227 4.37936
736 2 59.2843 23.8234 4.02443
737 2 63.3087 23.8021 4.23626
738 2 67.2633 23.9194 4.05358
739 2 71.2761 23.9404 4.23711
740 2 75.183 23.7166 4.44163
741 2 79.3361 23.8821 4.25746
742 2 83.1986 23.7094 4.18552
743 2 87.1172 23.8419 4.22121
744 2 90.993 23.7431 4.25716
745 2 0.0880622 27.9509 4.35283
746 2 4.03712 27.7033 4.47356
747 2 7.92634 27.7067 4.38355
748 2 11.8834 27.9719 4.24295
749 2 15.9225 27.7006 4.55607
750 2 19.9958 27.6971 4.46084
751 2 24.1209 27.8647 4.15677
752 2 27.8349 27.8075 4.23866
753 2 31.7003 27.8373 4.29964
754 2 35.5662 27.5866 4.36719
755 2 39.5491 27.5978 4.35124
756 2 43.7834 27.7262 4.45922
757 2 47.6119 27.6747 4.1942
758 2 51.4308 27.5774 4.27318
759 2 55.5117 27.8237 4.21971
760 2 59.3582 27.828 4.23152
761 2 63.3833 27.7805 4.31437
762 2 67.3457 28.1152 4.11861
763 2 71.2492 27.8188 4.28677
764 2 75.4328 27.6407 4.30065
765 2 79.1005 27.7533 4.35474
766 2 83.1826 27.5898 4.23408
767 2 87.2382 27.6458 4.3161
768 2 91.3347 27.544 4.11601
769 2 0.147675 31.6639 4.27949
770 2 4.07684 31.6316 4.21947
771 2 7.92335 31.7403 4.3612
772 2 11.92 31.8233 4.10762
773 2 15.9954 31.4708 4.16278
774 2 19.6882 31.5268 4.16474
775 2 23.6418 31.6277 4.23945
776 2 27.9067 31.6509 4.11469
777 2 31.6607 31.7643 4.28728
778 2 35.7153 31.7821 4.36162
779 2 39.5942 31.6141 4.26196
780 2 43.736 31.6641 4.43849
781 2 47.7219 31.609 3.99224
782 2 51.5708 31.7003 4.17881
783 2 55.3813 31.744 4.15101
784 2 59.2425 31.7827 4.29024
785 2 63.4642 31.6949 4.29491
786 2 67.4272 32.0365 4.26048
787 2 71.532 31.6931 4.34069
788 2 75.4357 31.595 4.15502
789 2 79.2614 31.8846 4.21211
790 2 83.3203 31.709 4.21649
791 2 87.0565 31.9576 4.17478
792 2 91.0355 31.6886 4.32724
793 2 -0.0429503 35.6207 4.17415
794 2 4.10835 35.5098 4.17825
795 2 8.13298 35.697 4.33772
796 2 12.0624 35.5609 4.28743
797 2 16.0555 35.5803 4.0275
798 2 19.8842 35.6132 4.22359
799 2 23.7691 35.4511 4.20809
800 2 27.7852 35.5759 4.2856
801 2 31.6604 35.7168 4.21349
802 2 35.5954 35.8194 4.13006
803 2 39.7731 35.4606 4.27588
804 2 43.424 35.5638 4.03033
805 2 47.6487 35.7102 4.17344
806 2 51.5394 35.6244 3.92102
807 2 55.3891 35.7641 4.31264
808 2 59.3074 35.5121 4.38984
809 2 63.4839 35.7467 4.24734
810 2 67.3584 35.9958 4.10854
811 2 71.2341 35.796 4.20344
812 2 75.3799 35.6742 4.04323
813 2 79.4469 35.7629 3.96612
814 2 83.3197 35.6444 3.90326
815 2 87.153 35.8267 4.28917
816 2 91.3805 35.7396 4.24103
817 2 0.310391 39.8001 4.14446
818 2 4.04116 39.4928 4.35095
819 2 7.88927 39.5988 4.32981
820 2 12.0633 39.6803 4.21446
821 2 16.0758 39.5836 4.24671
822 2 19.7969 39.5036 4.32615
823 2 23.9401 39.6341 4.39772
824 2 27.9215 39.7845 4.14576
825 2 31.8067 39.7557 4.09847
826 2 35.6955 39.621 4.23132
827 2 39.7121 39.5133 4.1488
828 2 43.5081 39.6657 4.37463
829 2 47.4584 39.5756 4.28951
830 2 51.5891 39.6251 4.09529
831 2 55.3777 39.5783 4.2225
832 2 59.2897 39.7649 4.27071
833 2 63.3727 39.6141 4.29718
834 2 67.3351 39.7298 4.13588
835 2 71.1897 39.6019 4.30693
836 2 75.2392 39.6602 3.95316
837 2 79.093 39.7675 4.08415
838 2 83.1208 39.6491 4.12358
839 2 87.147 39.4887 4.07795
840 2 91.2697 39.5653 4.21778
841 2 0.291944 43.6004 4.30068
842 2 3.99267 43.5205 4.27699
843 2 8.15903 43.4153 4.30223
844 2 12.0292 43.6909 4.2684
845 2 15.903 43.5907 4.33398
846 2 19.9777 43.4881 4.38451
847 2 23.8777 43.424 4.37244
848 2 27.8048 43.6677 4.29771
849 2 31.8216 43.7507 4.12696
850 2 35.7262 43.7586 4.16265
851 2 39.6836 43.7552 4.24919
852 2 43.4629 43.5939 4.23292
853 2 47.7344 43.7051 4.20819
854 2 51.6863 43.7365 4.27601
855 2 55.3615 43.6386 4.27996
856 2 59.4387 43.6061 4.41657
857 2 63.2998 43.7238 4.03944
858 2 67.5205 43.6415 4.41036
859 2 71.3239 43.5151 4.39569
860 2 75.2857 43.7524 4.22196
861 2 79.3231 43.5277 4.33845
862 2 83.0922 43.5224 4.4465
863 2 87.168 43.5923 4.29321
864 2 91.1299 43.4401 4.24722
865 2 0.136229 47.6865 4.38885
866 2 4.22165 47.4353 4.44148
867 2 7.90856 47.5759 4.35795
868 2 11.9527 47.6836 4.19691
869 2 15.9334 47.598 4.16373
870 2 19.9723 47.531 4.36218
871 2 23.9976 47.5604 4.1443
872 2 27.9978 47.6213 4.32538
873 2 31.9057 47.5887 4.23271
874 2 35.832 47.5644 4.18486
875 2 39.7861 47.6581 4.05574
876 2 43.7989 47.5754 4.23196
877 2 47.6198 47.8094 4.28234
878 2 51.4261 47.6972 4.03444
879 2 55.3373 47.5496 4.26509
880 2 59.5045 47.5202 4.17988
881 2 63.3085 47.3939 4.21422
882 2 67.5537 47.6272 4.21695
883 2 71.3278 47.4998 4.23142
884 2 75.4258 47.5318 4.05791
885 2 79.269 47.4377 4.27421
886 2 83.2333 47.7035 4.25682
887 2 87.0816 47.346 4.28996
888 2 91.123 47.5486 4.26176
889 2 0.214982 51.4556 4.13596
890 2 4.03102 51.6711 4.28752
891 2 8.08847 51.3006 4.12419
892 2 11.955 51.6937 4.34236
893 2 15.7656 51.5848 4.29482
894 2 19.7523 51.5593 4.32236
895 2 23.7793 51.5513 4.21355
896 2 27.7439 51.636 4.3156
897 2 31.792 51.5415 4.18917
898 2 35.6669 51.5797 4.27942
899 2 39.8538 51.482 4.26947
900 2 43.5887 51.5847 4.27641
901 2 47.6204 51.692 4.06423
902 2 51.5209 51.687 3.90837
903 2 55.5777 51.5569 4.23263
904 2 59.3198 51.3755 4.30002
905 2 63.291 51.2989 4.35689
906 2 67.4813 51.5694 4.27562
907 2 71.5041 51.4366 4.24821
908 2 75.2168 51.5132 4.33773
909 2 79.331 51.334 4.27922
910 2 83.1481 51.4953 4.28613
911 2 87.038 51.4738 4.24537
912 2 91.1326 51.4536 3.98755
913 2 0.0828216 55.2902 4.27039
914 2 3.82395 55.5577 4.16995
915 2 7.87422 55.3481 4.17752
916 2 11.9662 55.6402 4.19855
917 2 15.9485 55.2868 4.20476
918 2 19.9418 55.5825 4.32439
919 2 23.922 55.5619 4.15858
920 2 27.699 55.4932 4.20782
921 2 31.8626 55.5798 4.31828
922 2 35.9217 55.6302 4.17126
923 2 39.7411 55.6301 4.3626
924 2 43.6823 55.3952 4.25779
925 2 47.5369 55.5793 3.91049
926 2 51.3669 55.5731 4.14508
927 2 55.5416 55.37 4.26628
928 2 59.2751 55.4377 4.3881
929 2 63.23 55.4024 4.30604
930 2 67.2972 55.4517 4.28611
931 2 71.348 55.5525 4.23966
932 2 75.2998 55.5046 4.31752
933 2 79.2607 55.5067 4.28506
934 2 83.3237 55.5457 4.29029
935 2 87.3349 55.4942 4.20424
936 2 91.198 55.5357 4.26697
937 2 -0.0227286 59.5483 4.01623
938 2 4.05184 59.6208 3.90323
939 2 8.05371 59.4423 4.20351
940 2 11.9218 59.5038 4.31599
941 2 15.9258 59.4586 4.22339
942 2 19.9522 59.5854 4.14172
943 2 23.8837 59.4206 4.1603
944 2 27.8214 59.4362 4.02176
945 2 31.8347 59.4786 4.16108
946 2 35.8975 59.3631 4.25763
947 2 39.6306 59.5304 3.99297
948 2 43.7215 59.4478 4.23328
949 2 47.577 59.7092 4.19341
950 2 51.5827 59.5466 4.34622
951 2 55.3697 59.3426 4.15133
952 2 59.3975 59.4382 4.31624
953 2 63.1061 59.3475 4.22239
954 2 67.2817 59.3656 4.26501
955 2 71.3496 59.4529 4.30829
956 2 75.3785 59.4708 4.23134
957 2 79.243 59.3626 4.12598
958 2 83.0468 59.3006 4.17412
959 2 87.1997 59.518 4.32064
960 2 91.2435 59.3972 4.17705
961 2 0.0152124 63.484 4.16183
962 2 4.12158 63.3644 4.0598
963 2 8.04296 63.425 4.10937
964 2 11.9996 63.296 4.37631
965 2 15.9166 63.4032 4.10651
966 2 19.9996 63.5358 4.20962
967 2 24.0491 63.1978 4.0851
968 2 27.8565 63.4292 4.32715
969 2 31.6365 63.3313 4.41145
970 2 35.6442 63.2217 4.22605
971 2 39.8003 63.2368 4.25432
972 2 43.6412 63.2458 4.14293
973 2 47.4581 63.4151 4.25288
974 2 51.4451 63.353 4.09185
975 2 55.6221 63.3109 4.19456
976 2 59.4923 63.3117 4.33725
977 2 63.2684 63.4511 4.32603