ITEM: TIMESTEP
70600
ITEM: NUMBER OF ATOMS
43200
ITEM: BOX BOUNDS xy xz yz pp pp pp
0.0000000000000000e+00 9.4992000000000004e+01 0.0000000000000000e+00
0.0000000000000000e+00 9.4992000000000004e+01 0.0000000000000000e+00
-6.6377254860938706e-04 5.9700663772550172e+01 0.0000000000000000e+00
ITEM: ATOMS id type x y z
1 2 0.219223 -0.225373 0.262352
2 2 3.99842 0.0523984 0.225806
3 2 7.96184 -0.00596693 0.221136
4 2 12.0041 -0.0684119 0.321702
5 2 15.9235 0.131262 0.310976
6 2 19.9157 0.0766236 0.156831
7 2 23.8777 0.143305 0.284407
8 2 27.7815 -0.0224278 0.0869099
9 2 31.7753 -0.206937 0.369266
10 2 35.8646 -0.132436 0.376855
11 2 39.7581 -0.170558 0.2831
12 2 43.6421 -0.150443 0.290783
13 2 47.6372 -0.16357 0.290653
14 2 51.3343 -0.14302 0.385061
15 2 55.4194 -0.162688 0.39907
16 2 59.4857 -0.11401 0.308577
17 2 63.5956 0.0425876 0.488807
18 2 67.5343 0.0608488 0.257116
19 2 71.4588 -0.122569 0.0842908
20 2 75.3792 -0.0550881 0.273183
21 2 79.3816 -0.0825953 0.30394
22 2 83.2259 0.17595 0.282912
23 2 87.3247 -0.184415 0.188078
24 2 91.1119 -0.172461 0.305976
25 2 0.0766499 3.97896 0.314595
26 2 4.21268 3.86528 0.0554381
27 2 8.26152 4.01225 0.258854
28 2 12.3389 4.02948 0.128801
29 2 16.1225 3.85712 0.0215874
30 2 19.7116 3.94581 0.258607
31 2 23.8055 3.91469 0.347571
32 2 27.9032 4.01511 0.283786
33 2 31.8615 3.6667 0.311203
34 2 35.962 3.79447 0.141949
35 2 39.8995 3.99578 0.087538
36 2 43.6061 3.76702 0.201118
37 2 47.5758 3.92598 0.220514
38 2 51.4924 3.92948 0.294499
39 2 55.3856 3.74843 0.356866
40 2 59.387 3.63572 0.352608
41 2 63.5435 3.8395 0.325565
42 2 67.4686 3.91499 0.265328
43 2 71.4338 3.9472 0.230616
44 2 75.3005 3.90221 0.103335
45 2 79.2034 4.011 0.151263
46 2 83.2209 3.93706 0.411056
47 2 87.1625 3.84541 0.345597
48 2 90.9863 3.88014 0.384667
49 2 -0.0536972 8.0983 0.250399
50 2 4.13978 7.90238 0.144595
51 2 7.90341 7.9414 0.162618
52 2 12.2171 7.9419 0.0290664
53 2 16.0579 8.01106 0.371599
54 2 19.9248 8.02851 0.258944
55 2 23.889 7.89215 0.34674
56 2 27.9926 8.01906 0.189697
57 2 31.8065 7.64521 0.214469
58 2 35.6624 7.73166 0.312033
59 2 39.8769 7.93324 0.317938
60 2 43.5119 7.78235 0.332783
61 2 47.4557 7.8999 0.150162
62 2 51.6127 7.78059 0.383009
63 2 55.4283 7.66418 0.324924
64 2 59.4977 7.72288 0.209912
65 2 63.4198 7.61075 0.245515
66 2 67.4482 7.87561 0.146806
67 2 71.2971 7.96443 0.260717
68 2 75.3234 7.88012 0.348955
69 2 79.3295 7.76821 0.424072
70 2 83.2552 7.89372 0.356901
71 2 87.1384 7.95731 0.0338134
72 2 91.0062 7.88784 0.322745
73 2 0.213826 11.8505 0.393486
74 2 4.11116 11.9915 0.312089
75 2 7.9452 11.8203 0.407042
76 2 12.0226 11.7646 0.353078
77 2 16.0596 11.8152 0.205884
78 2 20.0313 11.8629 0.267541
79 2 23.8766 11.9424 0.274702
80 2 27.747 11.8036 0.315022
81 2 31.9598 11.9191 0.282285
82 2 35.6943 11.8503 0.308495
83 2 39.7273 11.7344 0.233094
84 2 43.7189 12.0841 0.260126
85 2 47.5989 12.0221 0.284604
86 2 51.5778 11.9215 0.185464
87 2 55.4559 11.7976 0.130689
88 2 59.4179 11.8539 0.491315
89 2 63.2666 11.6924 0.438535
90 2 67.2988 11.8317 0.377877
91 2 71.3662 11.6784 0.11737
92 2 75.2797 11.7693 0.323721
93 2 79.253 11.9659 0.402762
94 2 83.3254 11.7195 0.131044
95 2 87.2375 11.8773 0.175304
96 2 91.1393 11.9451 0.396463
97 2 0.248926 15.7987 0.259299
98 2 4.14309 15.9964 0.238525
99 2 8.06433 16.1323 0.246174
100 2 11.9133 15.6396 0.449969
101 2 15.9553 15.9047 0.12753
102 2 19.7615 15.9211 0.27091
103 2 23.9764 15.8295 0.248497
104 2 28.0656 15.6646 0.258728
105 2 31.7927 15.7569 0.271498
106 2 35.808 15.8691 0.105103
107 2 39.8956 15.6462 0.197245
108 2 43.6555 15.9805 0.373863
109 2 47.5387 15.9017 0.272692
110 2 51.458 15.9078 0.311071
111 2 55.415 15.6842 0.0966548
112 2 59.5627 15.8083 0.118272
113 2 63.4011 15.8044 0.481015
114 2 67.4128 15.6888 0.233238
115 2 71.479 15.7509 0.313348
116 2 75.3731 15.7365 0.204285
117 2 79.2362 15.8721 0.0914214
118 2 83.2241 15.8526 0.20519
119 2 86.9867 15.7665 0.0327323
120 2 91.1606 15.8583 0.321935
121 2 0.249849 19.8226 0.235738
122 2 4.26916 19.9251 0.174101
123 2 8.29064 19.7167 0.291164
124 2 12.154 19.8703 0.204272
125 2 15.809 19.503 0.292641
126 2 20.0758 19.9019 0.280502
127 2 23.9801 19.6242 0.378103
128 2 27.8495 19.7775 0.41208
129 2 31.9122 19.9155 0.244554
130 2 35.8276 19.7621 0.438747
131 2 39.6126 19.8372 0.216563
132 2 43.5717 20.0112 0.399658
133 2 47.3722 19.8174 0.274799
134 2 51.4051 19.7412 0.270514
135 2 55.5041 19.7139 0.206093
136 2 59.5166 19.7502 0.157276
137 2 63.513 19.7914 0.361974
138 2 67.2824 19.7465 0.382836
139 2 71.2369 19.7351 0.336678
140 2 75.3289 19.8864 0.2925
141 2 79.2882 19.9665 0.153769
142 2 83.2384 19.939 0.192125
143 2 87.2159 19.7037 -0.0125629
144 2 91.1227 19.7825 0.207428
145 2 0.156727 23.6444 0.318604
146 2 4.2851 23.7495 0.175993
147 2 8.14503 23.7818 0.0646115
148 2 11.9552 23.8384 0.259704
149 2 16.0254 23.8278 0.414086
150 2 20.1371 23.8671 0.272224
151 2 23.7117 23.5725 0.400253
152 2 27.5776 23.6226 0.235035
153 2 31.807 23.6376 0.0904573
154 2 35.799 23.919 0.351216
155 2 39.6596 23.8882 0.253446
156 2 43.3539 23.9047 0.183125
157 2 47.6211 23.9098 0.235123
158 2 51.4122 23.7797 0.508729
159 2 55.3744 23.5106 0.237644
160 2 59.6688 23.6325 0.256702
161 2 63.5935 23.6925 0.314871
162 2 67.4739 23.6772 0.0623691
163 2 71.3237 23.8623 0.230409
164 2 75.1053 23.7615 0.303266
165 2 79.5032 23.8338 -0.0255509
166 2 83.3313 23.9668 0.336051
167 2 87.1607 23.6984 0.419845
168 2 91.2364 23.611 0.108968
169 2 0.201238 27.8813 0.215942
170 2 4.25986 27.7792 0.269834
171 2 8.24599 27.7361 0.250583
172 2 12.0274 27.9092 0.266138
173 2 15.9849 27.8504 0.288437
174 2 20.069 27.7218 0.14795
175 2 24.0959 27.7218 0.357148
176 2 27.859 27.9956 0.155007
177 2 31.6176 27.8868 0.192801
178 2 35.6428 27.7129 0.23883
179 2 39.5835 27.8657 0.181104
180 2 43.5502 27.8929 0.240682
181 2 47.5222 27.7713 0.328782
182 2 51.4467 27.6466 0.406134
183 2 55.4482 27.4968 0.202132
184 2 59.3656 27.6869 0.455349
185 2 63.3238 27.4099 0.298196
186 2 67.3541 27.7461 0.1274
187 2 71.4921 27.7502 0.20698
188 2 75.2608 27.6248 0.054266
189 2 79.1849 27.8014 0.380367
190 2 83.1472 27.7733 0.319371
191 2 87.3216 27.6713 0.150124
192 2 91.1378 27.7044 0.530091
193 2 0.207206 31.6542 0.317204
194 2 4.19229 31.8589 0.21882
195 2 7.92522 31.7236 0.323823
196 2 12.1279 31.7809 0.121237
197 2 15.9908 31.4755 0.374565
198 2 19.7592 31.8907 0.152434
199 2 23.7248 31.6781 0.389348
200 2 27.8991 31.7208 0.0104074
201 2 31.7606 31.7679 0.099704
202 2 35.8849 31.5696 0.21077
203 2 39.6845 31.7524 0.408791
204 2 43.7123 31.6627 0.257959
205 2 47.4411 31.7138 0.0206334
206 2 51.7624 31.5797 0.152882
207 2 55.5833 31.7599 0.151411
208 2 59.5005 31.7263 0.327124
209 2 63.2842 31.5073 0.384648
210 2 67.3936 31.5083 0.365695
211 2 71.4777 31.4372 0.254671
212 2 75.42 31.7668 0.275026
213 2 79.3179 31.7802 0.325999
214 2 83.3321 31.7089 0.0861315
215 2 87.2225 31.7319 0.172565
216 2 91.1247 31.6584 0.334656
217 2 0.114899 35.4287 0.442619
218 2 4.04844 35.7605 0.272898
219 2 8.07261 35.7979 0.242984
220 2 11.9244 35.711 0.0124155
221 2 15.8584 35.7339 0.253027
222 2 19.9537 35.5705 0.232885
223 2 23.7999 35.6758 0.309879
224 2 27.8475 35.5015 0.127911
225 2 31.5982 35.5778 0.227513
226 2 35.8033 35.5852 0.323606
227 2 39.7658 35.844 0.274048
228 2 43.8256 35.8444 0.282327
229 2 47.6428 35.789 0.249549
230 2 51.6402 35.7787 0.161329
231 2 55.6422 35.7651 0.149334
232 2 59.5437 35.5439 0.433587
233 2 63.5511 35.4812 0.210475
234 2 67.5409 35.552 0.320987
235 2 71.2042 35.6695 0.110402
236 2 75.1708 35.5047 0.28815
237 2 79.2207 35.7068 0.282895
238 2 83.1933 35.519 0.427748
239 2 87.1744 35.7134 0.132092
240 2 91.2244 35.57 0.282593
241 2 0.207469 39.6367 0.260988
242 2 4.21562 39.574 0.137096
243 2 7.94226 39.511 0.371372
244 2 12.016 39.4968 0.277726
245 2 15.9141 39.559 0.243521
246 2 19.8089 39.595 0.165926
247 2 23.7515 39.7955 0.392441
248 2 27.6296 39.7305 0.260248
249 2 31.6583 39.5362 0.259894
250 2 35.5866 39.5086 0.0869133
251 2 39.7185 39.6421 0.251159
252 2 43.5717 39.7972 0.152153
253 2 47.5834 39.7293 0.408677
254 2 51.7215 39.535 0.291183
255 2 55.5785 39.7404 0.202359
256 2 59.3714 39.5632 0.433892
257 2 63.6144 39.4208 0.215823
258 2 67.4931 39.5685 0.241938
259 2 71.4102 39.31 0.291336
260 2 75.2983 39.4763 0.204526
261 2 79.0884 39.5761 0.186464
262 2 83.0894 39.533 0.213226
263 2 87.2485 39.5317 0.198823
264 2 91.1136 39.4686 0.211989
265 2 0.0895962 43.5431 0.298403
266 2 3.71972 43.6188 0.0871267
267 2 7.90564 43.4208 0.415516
268 2 12.097 43.6637 0.215489
269 2 16.1064 43.5149 0.233099
270 2 19.9833 43.6043 0.178821
271 2 23.9065 43.4557 0.191348
272 2 27.9939 43.5613 0.18483
273 2 32.033 43.4991 0.174534
274 2 35.6195 43.5007 0.299123
275 2 39.5944 43.524 0.298431
276 2 43.6652 43.4603 0.296088
277 2 47.6942 43.5842 0.333312
278 2 51.4612 43.412 0.265292
279 2 55.402 43.6218 0.206882
280 2 59.5211 43.4358 0.376654
281 2 63.3143 43.5009 0.230691
282 2 67.3504 43.4855 0.358995
283 2 71.4465 43.442 0.389807
284 2 75.293 43.6654 0.285895
285 2 79.2242 43.5135 0.172383
286 2 83.1668 43.3594 0.278024
287 2 87.281 43.6546 0.244868
288 2 90.988 43.5922 0.174566
289 2 0.265284 47.4355 0.243693
290 2 4.19107 47.4633 0.2273
291 2 7.92947 47.308 0.390423
292 2 12.1461 47.595 0.164901
293 2 16.1489 47.5383 0.109356
294 2 19.9901 47.5678 0.422739
295 2 23.9129 47.5211 0.241252
296 2 27.8699 47.3518 0.0955278
297 2 31.7753 47.3763 0.0866415
298 2 35.5326 47.323 0.323187
299 2 39.4054 47.4765 0.323892
300 2 43.7411 47.4231 0.471614
301 2 47.6398 47.2634 0.350004
302 2 51.5555 47.3902 0.321881
303 2 55.5646 47.6084 0.229431
304 2 59.5925 47.6991 0.178938
305 2 63.3298 47.368 0.312251
306 2 67.4051 47.8944 0.305214
307 2 71.2862 47.5131 0.250127
308 2 75.4577 47.5829 0.230544
309 2 79.534 47.3377 0.118577
310 2 83.3843 47.3373 0.294596
311 2 87.0947 47.3077 0.216693
312 2 91.1691 47.5943 0.234885
313 2 0.168454 51.4773 0.362879
314 2 4.17471 51.6546 0.18178
315 2 8.09886 51.2884 0.252135
316 2 11.9595 51.4982 0.0561558
317 2 15.8556 51.5624 0.20707
318 2 19.8109 51.6219 0.443835
319 2 24.048 51.4157 0.325387
320 2 27.9381 51.5816 0.236472
321 2 31.6974 51.4469 0.345398
322 2 35.6596 51.3593 0.343662
323 2 39.6573 51.378 0.495402
324 2 43.5392 51.3414 0.421555
325 2 47.4297 51.5055 0.173917
326 2 51.5294 51.4919 0.311985
327 2 55.5507 51.4082 0.317512
328 2 59.4536 51.33 0.212131
329 2 63.3421 51.4067 0.0903801
330 2 67.3481 51.5342 0.281405
331 2 71.3668 51.4685 0.272603
332 2 75.3977 51.308 0.209352
333 2 79.3535 51.6138 0.210141
334 2 83.1573 51.3459 0.270211
335 2 87.4309 51.4368 0.136612
336 2 91.2095 51.6462 0.295593
337 2 0.0203456 55.4104 0.180816
338 2 4.20839 55.4797 0.244107
339 2 8.16377 55.3692 0.16999
340 2 12.0799 55.4205 0.183501
341 2 15.8371 55.4282 0.230518
342 2 19.8479 55.4465 0.272129
343 2 23.7983 55.3457 0.39873
344 2 27.8823 55.2202 0.27406
345 2 31.7639 55.4304 0.213695
346 2 35.7956 55.3007 0.270596
347 2 39.5937 55.2793 0.347714
348 2 43.6309 55.1988 0.303791
349 2 47.4122 55.2953 0.252226
350 2 51.4244 55.249 0.364905
351 2 55.4074 55.3578 0.398668
352 2 59.4657 55.5773 0.370702
353 2 63.4002 55.1925 0.382878
354 2 67.3612 55.4732 0.403302
355 2 71.3774 55.4865 0.251107
356 2 75.3879 55.5689 0.306762
357 2 79.386 55.3143 0.223405
358 2 83.2748 55.3579 0.251839
359 2 87.1321 55.4294 0.262763
360 2 91.0664 55.4677 0.204005
361 2 0.184082 59.2294 0.527364
362 2 4.17366 59.3139 0.219846
363 2 8.20221 59.3235 0.0469945
364 2 11.983 59.3084 0.321191
365 2 15.9784 59.3927 0.387426
366 2 19.8383 59.2736 0.268623
367 2 23.8288 59.1303 0.348326
368 2 27.9115 59.123 0.293291
369 2 31.8072 59.3367 0.394053
370 2 35.8025 59.2149 0.326393
371 2 39.6339 59.2627 0.327611
372 2 43.6719 59.2009 0.068518
373 2 47.692 59.203 0.449835
374 2 51.7118 59.1808 0.31377
375 2 55.6532 59.2329 0.38366
376 2 59.5334 59.5668 0.341984
377 2 63.4037 59.4978 0.163561
378 2 67.3759 59.1829 0.179433
379 2 71.4103 59.3963 0.0968214
380 2 75.4707 59.3257 0.283851
381 2 79.3353 59.2956 0.43654
382 2 83.181 59.276 0.301885
383 2 87.2501 59.2547 0.313299
384 2 91.2227 59.2816 0.140909
385 2 0.186188 63.3107 0.152287
386 2 4.09658 63.3104 0.171741
387 2 8.07488 63.2061 0.135878
388 2 12.163 63.1894 0.325577
389 2 16.0812 63.26 0.329388
390 2 19.8462 63.2403 0.364702
391 2 23.7734 63.3138 0.413509
392 2 27.7905 63.2642 0.210087
393 2 31.942 63.4162 0.198829
394 2 35.9 63.404 0.1212
395 2 39.7163 63.3115 0.433638
396 2 43.6797 63.3451 0.329582
397 2 47.4135 63.1245 0.284444
398 2 51.4964 63.0704 0.389578
399 2 55.4646 63.4017 0.26723
400 2 59.4382 63.4333 0.241764
401 2 63.3876 63.4245 0.356419
402 2 67.3397 63.235 0.246518
403 2 71.3782 63.2336 0.290575
404 2 75.4282 63.461 -0.000927748
405 2 79.5119 63.3131 0.293942
406 2 83.2048 63.3 0.270136
407 2 87.1118 63.3448 0.358725
408 2 91.1414 63.2762 0.0936432
409 2 0.229256 67.4357 0.228045
410 2 4.05485 67.1196 0.154946
411 2 8.02919 67.21 0.249839
412 2 12.1595 67.2549 0.206882
413 2 15.9317 67.3314 0.364992
414 2 19.8751 67.3489 0.206058
415 2 23.9629 67.3026 0.239613
416 2 27.6422 67.1202 0.215781
417 2 31.8396 67.0453 0.291587
418 2 35.7121 67.1351 0.40978
419 2 39.5951 67.2049 0.282359
420 2 43.5984 67.2591 0.246056
421 2 47.6073 67.2081 0.317499
422 2 51.519 67.1332 0.391809
423 2 55.476 67.1704 0.420054
424 2 59.4974 67.1994 0.290086
425 2 63.4621 67.1946 0.391252
426 2 67.4873 67.307 0.21221
427 2 71.4276 67.327 0.308475
428 2 75.3002 67.1777 0.216164
429 2 79.2942 67.3219 0.279887
430 2 83.2221 67.1529 0.0880417
431 2 87.1289 67.1738 0.155204
432 2 91.2758 67.2721 0.253585
433 2 -0.0120197 70.9957 0.319276
434 2 4.05753 71.1443 0.264606
435 2 8.07835 71.1496 0.247399
436 2 12.0597 71.4507 0.186653
437 2 15.8538 71.3002 0.159393
438 2 19.7484 71.2314 0.234711
439 2 23.9894 71.0885 0.345049
440 2 27.684 71.1531 0.276123
441 2 31.6708 71.1029 0.269144
442 2 35.7441 71.088 0.422046
443 2 39.8089 71.261 0.157501
444 2 43.7016 71.0659 0.261045
445 2 47.6426 71.2214 0.218154
446 2 51.6131 71.0936 0.334486
447 2 55.4182 71.0748 0.384087
448 2 59.512 71.1791 0.201025
449 2 63.4603 71.1334 0.269439
450 2 67.4182 71.0866 0.0401072
451 2 71.3818 71.1106 0.202048
452 2 75.1192 71.3679 0.212965
453 2 79.2714 71.1148 0.332133
454 2 83.1443 71.0879 0.37354
455 2 87.184 71.2077 0.479392
456 2 91.1928 71.1939 0.243476
457 2 0.0908084 74.9812 0.233532
458 2 4.09255 75.08 0.477965
459 2 7.90977 75.0892 0.272819
460 2 11.931 75.3408 0.181277
461 2 15.7881 75.4631 0.22778
462 2 19.8732 75.2638 0.21363
463 2 24.0338 75.1512 0.233571
464 2 27.6592 75.0531 0.221885
465 2 31.726 75.0784 0.200251
466 2 35.7312 75.0238 0.36086
467 2 39.5984 75.2374 0.308611
468 2 43.7402 75.208 0.127835
469 2 47.7396 75.1365 0.291791
470 2 51.6196 75.0109 0.368595
471 2 55.6497 74.9939 0.113817
472 2 59.276 75.2057 0.39416
473 2 63.2878 75.1138 0.181362
474 2 67.3607 75.0669 0.254817
475 2 71.4759 75.0035 0.20782
476 2 75.4177 75.3575 0.250238
477 2 79.3745 75.0923 0.14597
478 2 83.1587 75.162 0.308894
479 2 87.1077 75.1594 0.289051
480 2 91.3501 75.0656 0.120037
481 2 0.21604 78.9706 0.137648
482 2 4.10893 79.02 0.206729
483 2 7.86977 78.9802 0.303601
484 2 12.043 79.2446 0.334875
485 2 15.967 79.2155 0.257013
486 2 19.9032 79.1704 0.133281
487 2 23.9149 79.0607 0.231804
488 2 27.706 79.145 0.106935
489 2 32.0688 79.0052 0.287267
490 2 35.8099 79.1656 0.244704
491 2 39.5056 78.9659 0.244934
492 2 43.6715 79.2386 0.142444
493 2 47.4286 79.1077 0.153872
494 2 51.521 79.1356 0.263724
495 2 55.5135 78.9955 0.151543
496 2 59.6004 79.1641 0.190708
497 2 63.402 78.8683 0.193333
498 2 67.2183 79.0861 0.318663
499 2 71.1794 79.1817 0.263736
500 2 75.1317 79.2129 0.138774
501 2 79.0901 79.0389 0.287429
502 2 83.0571 79.2586 0.431643
503 2 87.152 79.2936 0.127635
504 2 91.1034 79.1826 0.214669
505 2 0.0693684 83.0382 0.230585
506 2 4.22165 82.9787 0.18711
507 2 7.97563 83.053 0.475628
508 2 12.3242 83.062 0.102483
509 2 15.9004 83.1295 0.340833
510 2 19.8661 83.15 0.0969862
511 2 23.9615 83.2197 0.40352
512 2 27.9172 83.1472 0.276828
513 2 31.975 82.934 0.148872
514 2 35.8247 83.0052 0.286556
515 2 39.8431 82.8811 0.299344
516 2 43.5926 83.0198 0.0914683
517 2 47.5798 83.064 0.270473
518 2 51.5081 82.9199 0.423025
519 2 55.6765 82.9498 0.305972
520 2 59.4969 83.185 0.217281
521 2 63.3254 82.9281 0.197236
522 2 67.0652 83.2352 0.0944696
523 2 71.2277 83.0447 0.285541
524 2 75.3228 83.0783 0.289578
525 2 79.3332 83.0026 0.230939
526 2 83.0909 83.1172 0.218555
527 2 87.3268 83.3398 0.103692
528 2 91.1526 82.9408 0.0823636
529 2 0.111812 86.9858 0.187441
530 2 4.02765 86.8952 0.297073
531 2 7.96431 86.8179 0.30124
532 2 11.6383 86.9764 0.136849
533 2 15.7509 86.8731 0.223413
534 2 19.6333 87.1309 0.136535
535 2 23.8739 87.0611 0.146851
536 2 28.0111 87.1276 0.256551
537 2 31.8738 86.9302 0.0596816
538 2 35.7512 86.9844 0.176831
539 2 39.7041 86.9301 0.21049
540 2 43.6753 86.772 0.342809
541 2 47.4965 87.0742 0.2935
542 2 51.5187 86.8827 0.489682
543 2 55.4896 86.926 0.198567
544 2 59.5268 87.0881 0.449413
545 2 63.5208 86.9085 0.400509
546 2 67.3594 87.0394 0.266164
547 2 71.33 86.6432 0.312388
548 2 75.4091 86.9899 0.430019
549 2 79.1303 86.9669 0.323992
550 2 83.2917 86.983 0.347769
551 2 87.0804 87.2524 0.507887
552 2 91.1297 87.1148 0.100751
553 2 0.172139 90.9236 0.265493
554 2 4.18297 91.1008 0.153593
555 2 7.88817 91.1086 0.234859
556 2 12.1176 91.043 0.177765
557 2 15.988 91.0443 0.31235
558 2 20.0599 90.9798 0.0786824
559 2 24.0684 90.9621 0.237617
560 2 27.9264 91.0867 0.133242
561 2 31.8228 90.8645 0.00273721
562 2 35.6675 90.9185 0.118713
563 2 39.7397 90.7372 0.168459
564 2 43.7048 90.9626 0.376734
565 2 47.4805 90.8404 0.319174
566 2 51.4909 90.8627 0.334765
567 2 55.6069 90.7028 0.172642
568 2 59.6857 90.9669 0.239175
569 2 63.4675 91.1192 0.264295
570 2 67.3906 91.0809 0.243783
571 2 71.4468 90.841 0.265686
572 2 75.15 90.9488 0.186137
573 2 79.2315 90.8123 0.253839
574 2 83.2138 91.0783 0.179593
575 2 86.9758 91.0422 0.0865645
576 2 91.0036 90.9674 0.215601
577 2 0.0567858 -0.0656229 4.1162
578 2 3.85559 0.235032 4.15238
579 2 7.95866 0.121486 3.94948
580 2 12.0119 0.221924 4.13265
581 2 16.1074 0.0378331 4.33992
582 2 19.8184 -0.228757 4.22393
583 2 24.0909 0.172491 4.16774
584 2 27.9085 -0.0885573 4.19007
585 2 31.6602 0.0255317 4.34387
586 2 35.7649 0.0187451 4.16024
587 2 39.7076 -0.161545 4.28263
588 2 43.7656 0.0290437 4.38149
589 2 47.6377 -0.143235 4.30297
590 2 51.6089 -0.298415 4.27484
591 2 55.3913 -0.0905351 4.20907
592 2 59.1643 -0.018639 4.23372
593 2 63.5096 0.112919 4.23381
594 2 67.5181 -0.0295042 4.27685
595 2 71.2962 -0.159347 4.23821
596 2 75.2907 0.0240748 4.33856
597 2 79.2869 -0.0389613 4.15737
598 2 83.1649 0.0305111 4.29686
599 2 87.0048 0.0364518 4.25011
600 2 90.8709 -0.107017 3.99901
601 2 0.285529 4.05502 4.01106
602 2 4.07224 3.83599 4.32344
603 2 8.00453 4.11855 4.13922
604 2 12.2065 3.9757 4.22664
605 2 16.061 3.99314 4.0986
606 2 19.946 4.04504 4.39291
607 2 23.9201 4.10493 4.17836
608 2 27.8415 3.94747 4.2612
609 2 31.96 3.92363 4.39259
610 2 35.9076 3.90666 4.20577
611 2 39.7902 3.97842 4.20838
612 2 43.7035 4.21688 4.19831
613 2 47.6607 3.97747 4.2479
614 2 51.437 3.83719 4.21915
615 2 55.519 3.81999 4.21878
616 2 59.3068 3.76247 4.15586
617 2 63.3908 3.88808 4.24345
618 2 67.4055 3.97379 4.2582
619 2 71.2864 3.97858 4.14561
620 2 75.2634 3.84026 4.27203
621 2 79.1859 3.98884 4.16768
622 2 83.2902 3.92582 4.45244
623 2 87.219 4.1904 4.25786
624 2 91.1707 3.84391 4.2865
625 2 0.2567 7.82506 4.24862
626 2 4.19262 7.88467 4.11636
627 2 8.07635 7.93136 4.36514
628 2 12.0401 7.9913 4.2131
629 2 15.8662 7.94358 4.41871
630 2 20.0676 7.96343 4.30668
631 2 24.0212 8.01591 4.38248
632 2 27.9033 7.92316 4.2749
633 2 31.7643 8.16225 4.01663
634 2 35.8227 8.01731 4.18578
635 2 39.716 7.96146 4.27472
636 2 43.7992 7.86492 4.11163
637 2 47.6699 8.13122 4.00393
638 2 51.7188 7.82073 4.17857
639 2 55.5029 7.85907 4.12829
640 2 59.2246 7.8457 4.05732
641 2 63.4638 7.96449 4.30525
642 2 67.3556 8.0543 4.437
643 2 71.3399 7.84432 4.14646
644 2 75.195 7.8262 4.25247
645 2 79.2558 8.04991 4.15823
646 2 83.257 7.91057 4.27426
647 2 87.0652 7.94832 4.30712
648 2 91.192 7.71108 4.28693
649 2 0.180792 11.7778 4.28843
650 2 4.22983 11.8157 4.20726
651 2 7.96721 11.7342 4.37547
652 2 12.0487 12.0662 4.08679
653 2 16.0474 12.0255 4.13799
654 2 19.9503 11.9513 4.31313
655 2 23.751 11.8621 4.05055
656 2 27.621 11.9659 4.42219
657 2 31.7646 11.8349 4.13544
658 2 35.6482 12.0419 4.29367
659 2 39.5747 11.9388 4.30444
660 2 43.5482 12.0889 4.14747
661 2 47.6466 11.9781 4.20608
662 2 51.6046 11.9769 4.18885
663 2 55.5011 11.8183 4.13833
664 2 59.4351 11.8324 4.37611
665 2 63.3063 11.9176 4.3486
666 2 67.4628 11.8415 4.26109
667 2 71.2251 11.9379 4.30206
668 2 75.1962 11.936 4.32242
669 2 79.2507 12.0151 4.0511
670 2 83.2045 11.926 4.11218
671 2 87.2612 11.8263 4.18184
672 2 91.0837 11.9952 4.18437
673 2 0.161146 16.0341 4.34266
674 2 4.25486 15.9179 4.09239
675 2 8.32801 16.0716 4.07821
676 2 12.122 15.6859 4.19617
677 2 16.0268 16.113 4.17919
678 2 19.937 15.8231 4.10368
679 2 23.7023 15.7159 4.33423
680 2 27.775 15.8501 4.33926
681 2 31.6806 16.0323 4.24996
682 2 35.6065 15.9332 4.36215
683 2 39.5273 15.7477 4.24866
684 2 43.3641 15.9655 4.28662
685 2 47.6651 15.9991 4.29919
686 2 51.4102 15.9316 4.00365
687 2 55.4704 15.8999 4.38631
688 2 59.2146 16.0167 4.22748
689 2 63.5241 15.6843 4.1723
690 2 67.3353 15.6841 4.31893
691 2 71.4552 15.7812 4.2646
692 2 75.4887 15.8783 4.10246
693 2 79.238 15.9591 4.17715
694 2 83.249 15.7894 4.24141
695 2 87.232 16.0303 4.15974
696 2 91.235 15.9795 4.19376
697 2 0.278234 19.757 4.13535
698 2 4.12454 19.7139 4.18715
699 2 8.16392 19.9015 4.33981
700 2 11.9937 19.8237 4.09254
701 2 16.0241 19.9386 4.12236
702 2 20.0519 19.8881 4.1629
703 2 23.8355 19.6759 4.1529
704 2 27.6088 19.7836 4.00003
705 2 31.5482 19.8713 4.06278
706 2 35.6434 19.7209 4.22121
707 2 39.5682 19.6651 4.14213
708 2 43.359 20.015 4.1859
709 2 47.3879 20.143 4.18038
710 2 51.5805 20.0009 4.25293
711 2 55.5294 19.8146 4.29168
712 2 59.4657 19.7728 4.15292
713 2 63.4178 19.6327 4.18702
714 2 67.3523 19.8297 4.26007
715 2 71.2823 19.6422 4.33258
716 2 75.1065 19.9703 4.12325
717 2 79.1961 19.8807 4.21864
718 2 83.1009 19.6273 4.00045
719 2 87.2649 19.8383 3.89638
720 2 91.1215 19.7595 4.22507
721 2 0.240545 23.7842 4.24748
722 2 4.32517 23.7907 4.27435
723 2 8.0264 23.805 4.06897
724 2 12.0908 23.658 4.24263
725 2 16.0266 23.9528 4.301
726 2 19.9632 23.8854 4.36941
727 2 23.9207 23.9782 4.35854
728 2 27.7999 23.9758 4.14711
729 2 31.7566 23.9004 4.2246
730 2 35.5875 23.8072 4.41552
731 2 39.4445 23.7182 4.3131
732 2 43.5514 23.9176 4.34865
733 2 47.3777 23.8377 4.29863
734 2 51.4548 23.931 4.30441
735 2 55.3807 23.8974 4.39204
736 2 59.3268 23.7296 4.37571
737 2 63.2395 23.5515 4.14026
738 2 67.4294 23.8853 4.1963
739 2 71.1693 23.8675 4.21163
740 2 75.2945 23.8973 4.2831
741 2 79.369 23.7675 4.04896
742 2 83.2137 23.8526 4.21394
743 2 87.2774 23.8105 4.11217
744 2 91.3772 23.768 4.04053
745 2 0.275285 27.7067 4.21707
746 2 3.96378 27.6207 4.14134
747 2 8.14949 27.7972 4.30125
748 2 12.0155 27.9358 4.16032
749 2 15.8958 27.9876 4.21614
750 2 19.9166 27.9084 4.15827
751 2 23.9359 27.9437 4.11277
752 2 28.0309 27.8488 4.11809
753 2 31.7046 27.6053 4.32157
754 2 35.5763 27.8846 4.11868
755 2 39.5544 27.8469 4.35552
756 2 43.6265 27.7966 4.19015
757 2 47.4792 27.6135 4.34488
758 2 51.6296 27.7675 4.37705
759 2 55.3687 27.723 4.2636
760 2 59.3318 27.7796 4.20265
761 2 63.4287 27.711 4.29359
762 2 67.2376 27.7189 4.23497
763 2 71.3764 27.5718 4.28099
764 2 75.3616 27.6084 4.33122
765 2 79.3884 27.8343 4.03962
766 2 83.3352 27.7966 4.27507
767 2 87.4321 27.5729 4.12542
768 2 91.251 27.7686 4.24865
769 2 0.19267 31.8326 4.24939
770 2 4.23484 31.7253 4.18249
771 2 8.01173 31.6226 4.14914
772 2 12.039 31.6042 4.15968
773 2 16.0863 31.8444 4.25871
774 2 19.8701 31.856 4.30895
775 2 23.8169 31.8715 4.04679
776 2 27.7626 31.7961 4.31344
777 2 31.7902 31.7759 4.30269
778 2 35.6399 31.7366 4.24472
779 2 39.6546 31.6343 4.27042
780 2 43.4423 31.7629 4.13655
781 2 47.5743 31.6531 4.21048
782 2 51.4646 31.8423 4.03543
783 2 55.3616 31.7091 4.27114
784 2 59.5055 31.6736 4.28943
785 2 63.5817 31.6198 4.44616
786 2 67.5054 31.6195 4.08343
787 2 71.2941 31.5364 4.28764
788 2 75.2296 31.7488 4.15374
789 2 79.2389 31.8351 4.21633
790 2 83.2508 31.7399 4.1727
791 2 87.266 31.5817 4.28401
792 2 91.3367 31.6012 4.29194
793 2 0.288534 35.6989 4.20564
794 2 4.14664 35.6781 4.31807
795 2 8.08042 35.5839 4.28576
796 2 11.9712 35.7965 4.21622
797 2 15.9991 35.6347 4.24128
798 2 19.9436 35.7293 4.10584
799 2 23.789 35.5348 4.20494
800 2 27.82 35.7427 4.21902
801 2 31.6756 35.6402 4.13112
802 2 35.7865 35.5939 4.20819
803 2 39.7484 35.6421 4.09453
804 2 43.5857 35.7458 4.34011
805 2 47.6311 35.7175 3.99404
806 2 51.6992 35.8831 4.0122
807 2 55.4976 35.6016 4.24387
808 2 59.4184 35.5452 4.43784
809 2 63.521 35.5376 4.28242
810 2 67.4002 35.4867 4.1278
811 2 71.2754 35.5646 4.22404
812 2 75.2718 35.5897 4.2585
813 2 79.4993 35.8835 4.13794
814 2 83.3016 35.6697 4.36036
815 2 87.2195 35.6956 4.0696
816 2 91.043 35.6844 4.33007
817 2 0.16255 39.5367 4.06915
818 2 4.14365 39.7184 4.20143
819 2 8.15113 39.7133 4.15705
820 2 12.1381 39.4989 4.22279
821 2 15.9453 39.6636 4.23795
822 2 19.8999 39.4845 4.33911
823 2 23.9219 39.4907 4.09738
824 2 27.7812 39.6133 4.11713
825 2 31.7829 39.5196 4.19193
826 2 35.7496 39.5686 4.22999
827 2 39.4829 39.5773 4.33479
828 2 43.4219 39.4467 4.3585
829 2 47.6999 39.5511 4.29568
830 2 51.5238 39.5282 4.18454
831 2 55.3056 39.6361 4.40715
832 2 59.4455 39.4983 4.38578
833 2 63.5065 39.636 4.26324
834 2 67.3772 39.6045 4.21247
835 2 71.3336 39.415 4.27783
836 2 75.3064 39.5224 4.14445
837 2 79.2953 39.6681 4.11943
838 2 83.2762 39.4257 4.34441
839 2 87.3255 39.6984 4.18263
840 2 91.2274 39.5985 4.16528
841 2 0.284237 43.6362 4.06676
842 2 4.24059 43.6168 4.41868
843 2 7.98209 43.6425 4.3218
844 2 11.9715 43.6832 4.20061
845 2 15.9153 43.3139 4.06341
846 2 19.8402 43.537 4.36046
847 2 24.0322 43.5783 4.47745
848 2 27.9155 43.6002 4.27246
849 2 31.7433 43.6013 4.35853
850 2 35.6965 43.5759 4.24793
851 2 39.3757 43.663 4.09925
852 2 43.6329 43.4517 4.42013
853 2 47.5563 43.5672 4.19946
854 2 51.4791 43.5939 4.24799
855 2 55.3864 43.4014 4.41068
856 2 59.3924 43.4668 4.41201
857 2 63.5994 43.5921 4.02555
858 2 67.5409 43.6883 4.14704
859 2 71.3898 43.5156 4.24935
860 2 75.0585 43.4733 4.12403
861 2 79.1561 43.4726 4.05599
862 2 83.1864 43.4912 4.23878
863 2 87.1308 43.4946 4.14065
864 2 91.3974 43.5068 4.1512
865 2 0.310573 47.6339 4.21205
866 2 4.06181 47.7151 4.22305
867 2 8.14103 47.5462 4.16203
868 2 12.2567 47.5026 4.14746
869 2 16.0991 47.6329 4.19923
870 2 19.8649 47.4344 4.37647
871 2 23.9956 47.5244 4.24352
872 2 27.7499 47.4348 4.21864
873 2 31.6291 47.4229 4.41828
874 2 35.5951 47.4661 4.24004
875 2 39.6101 47.5489 4.51738
876 2 43.5378 47.4672 4.44884
877 2 47.5284 47.5729 4.38173
878 2 51.5058 47.7219 4.29466
879 2 55.3971 47.5945 4.2508
880 2 59.4238 47.2705 4.46641
881 2 63.4407 47.7092 4.23587
882 2 67.522 47.6232 4.19956
883 2 71.547 47.568 4.43159
884 2 75.3523 47.5746 4.15808
885 2 79.4002 47.3866 4.18509
886 2 83.1098 47.5967 4.1752
887 2 87.2079 47.6122 4.12688
888 2 91.1769 47.6324 4.22422
889 2 0.0716036 51.532 4.39504
890 2 4.16537 51.5215 4.26265
891 2 8.32899 51.3837 4.24678
892 2 12.2612 51.5057 4.0847
893 2 15.7784 51.6273 4.19447
894 2 19.864 51.4473 4.33171
895 2 23.7785 51.4134 4.31536
896 2 27.7085 51.5223 4.22874
897 2 31.7881 51.4636 4.40145
898 2 35.6703 51.3886 4.30725
899 2 39.4457 51.3055 4.38154
900 2 43.4987 51.4445 4.15112
901 2 47.5911 51.5397 4.24358
902 2 51.6266 51.526 4.31861
903 2 55.6161 51.4845 4.27184
904 2 59.3497 51.4792 4.29285
905 2 63.4254 51.399 4.24264
906 2 67.4162 51.5315 4.12078
907 2 71.6126 51.5028 4.26117
908 2 75.3616 51.5703 3.99415
909 2 79.2872 51.4247 4.49503
910 2 83.2601 51.5149 4.47759
911 2 87.1679 51.5395 4.30911
912 2 91.4232 51.6881 4.19512
913 2 0.0812966 55.344 4.273
914 2 3.96367 55.4622 4.17846
915 2 8.0144 55.4745 4.26199
916 2 12.0396 55.3262 4.2683
917 2 15.9649 55.4732 4.15627
918 2 19.6901 55.2357 4.32583
919 2 23.6909 55.4428 4.42409
920 2 27.7074 55.3197 4.24867
921 2 31.7343 55.2859 4.22211
922 2 35.7013 55.3781 4.22619
923 2 39.6242 55.4854 4.26941
924 2 43.6804 55.2946 4.30733
925 2 47.4787 55.6214 4.38755
926 2 51.4226 55.3645 4.34437
927 2 55.5681 55.3643 4.31043
928 2 59.6394 55.3448 4.35939
929 2 63.4245 55.4155 4.29101
930 2 67.4523 55.5116 4.24248
931 2 71.4081 55.3854 4.19574
932 2 75.2049 55.3813 4.29875
933 2 79.2179 55.263 4.292
934 2 83.3081 55.492 4.08237
935 2 87.0783 55.4582 4.18992
936 2 91.2806 55.3693 4.24317
937 2 0.139338 59.3844 4.37011
938 2 4.20073 59.5403 4.07704
939 2 8.03191 59.3714 4.20891
940 2 11.8727 59.3455 4.31961
941 2 15.9255 59.5396 4.34748
942 2 19.82 59.3759 4.26916
943 2 23.8691 59.2468 4.1673
944 2 27.6605 59.2787 4.31434
945 2 31.8431 59.1729 4.23298
946 2 35.5996 59.3897 4.06881
947 2 39.7845 59.3848 4.33648
948 2 43.6536 59.3003 4.50013
949 2 47.7824 59.2473 4.17469
950 2 51.5807 59.2266 4.14308
951 2 55.5392 59.4921 4.42206
952 2 59.433 59.4203 4.42778
953 2 63.3895 59.4325 4.17533
954 2 67.461 59.4077 4.26226
955 2 71.4438 59.4514 4.05532
956 2 75.4929 59.4437 4.34195
957 2 79.2079 59.3316 4.35478
958 2 83.3544 59.3459 4.2884
959 2 87.32 59.3924 4.30828
960 2 90.9672 59.299 4.27069
961 2 0.111531 63.4218 4.22233
962 2 4.07762 63.3549 4.1375
963 2 8.09712 63.317 4.24279
964 2 11.7604 63.2031 4.29038
965 2 16.009 63.4008 4.23731
966 2 19.7683 63.3327 4.21503
967 2 23.8724 63.2731 4.04917
968 2 27.5658 63.2893 4.37004
969 2 31.6618 63.2639 4.38955
970 2 35.5069 63.2654 4.23577
971 2 39.4322 63.1854 4.29326
972 2 43.748 63.2624 4.39093
973 2 47.4641 63.0014 4.36429
974 2 51.5387 63.3074 4.4847
975 2 55.5818 63.2907 4.17143
976 2 59.642 63.2527 4.35617
977 2 63.3508 63.4253 4.22745