ITEM: TIMESTEP
71500
ITEM: NUMBER OF ATOMS
43200
ITEM: BOX BOUNDS xy xz yz pp pp pp
0.0000000000000000e+00 9.4992000000000004e+01 0.0000000000000000e+00
0.0000000000000000e+00 9.4992000000000004e+01 0.0000000000000000e+00
-1.1991120237535569e-02 5.9711991120238963e+01 0.0000000000000000e+00
ITEM: ATOMS id type x y z
1 2 0.183564 0.123455 0.153891
2 2 4.1861 -0.035313 0.26781
3 2 8.11478 0.0312164 0.24758
4 2 12.084 0.0236044 0.109464
5 2 16.1425 -0.160621 0.365307
6 2 19.8375 -0.0855286 0.0664484
7 2 23.8981 0.067132 0.198
8 2 27.754 0.00156794 0.258053
9 2 31.7411 -0.144689 0.278681
10 2 35.6739 -0.203586 0.408391
11 2 39.7387 0.114532 0.337106
12 2 43.8534 -0.0165888 0.0947236
13 2 47.6617 0.0848926 0.21408
14 2 51.6361 -0.00620624 0.24191
15 2 55.3992 0.0601759 0.179616
16 2 59.3864 -0.183508 0.429073
17 2 63.5024 0.0560537 0.128449
18 2 67.4927 0.0262726 0.255494
19 2 71.4225 0.0270172 0.363472
20 2 75.1651 0.00642074 0.428481
21 2 79.0303 -0.108529 0.415915
22 2 83.2037 -0.118893 0.250565
23 2 87.1076 -0.04575 0.0557188
24 2 91.0015 0.103402 0.169552
25 2 0.358154 3.88246 0.275866
26 2 4.16611 3.91741 0.309713
27 2 8.11608 3.90856 0.286113
28 2 12.0464 4.0731 0.290852
29 2 15.7412 3.77324 0.0661647
30 2 19.8353 3.68311 0.224297
31 2 23.7025 3.82213 0.287242
32 2 27.7151 4.0682 0.354956
33 2 31.7595 4.07921 0.375717
34 2 35.7717 3.92421 0.367108
35 2 39.6479 3.90171 0.311763
36 2 43.5185 3.95262 0.304779
37 2 47.6975 3.87968 0.148379
38 2 51.5683 3.9601 0.257634
39 2 55.5362 4.06954 0.0885403
40 2 59.6313 4.11316 0.296562
41 2 63.434 3.99074 0.138033
42 2 67.4268 3.94541 0.520399
43 2 71.3391 3.87634 0.399658
44 2 75.101 4.08756 0.416829
45 2 79.2946 3.95842 0.324628
46 2 83.2277 3.97314 0.412078
47 2 87.1815 3.87585 0.409158
48 2 91.2373 4.02787 0.102009
49 2 0.118425 7.84162 0.0933268
50 2 4.01939 7.83099 0.18299
51 2 7.93697 7.80984 0.138808
52 2 12.0177 7.78461 0.0603411
53 2 15.9033 7.81093 0.212416
54 2 19.9899 7.87009 0.278889
55 2 24.0089 7.84527 0.0508312
56 2 27.7247 7.84433 0.300535
57 2 31.9322 7.94947 0.183201
58 2 35.8278 7.94397 0.339837
59 2 39.8017 7.84364 0.387044
60 2 43.7253 7.97567 0.396655
61 2 47.6217 7.95646 0.143925
62 2 51.6112 7.89948 0.379483
63 2 55.498 7.94175 0.450671
64 2 59.4438 8.02611 0.228392
65 2 63.2492 7.94828 -0.000610577
66 2 67.2653 7.98086 0.152153
67 2 71.2498 7.87608 0.354071
68 2 75.4296 8.0471 0.522746
69 2 79.2479 8.03992 0.349126
70 2 83.0747 7.90917 0.113085
71 2 87.0612 7.96841 0.107169
72 2 91.1335 7.768 0.241335
73 2 0.187412 11.7491 0.241335
74 2 4.0078 11.9265 0.3885
75 2 7.86672 11.9466 0.330184
76 2 11.8404 11.9881 0.275682
77 2 16.164 11.9295 0.285498
78 2 19.7585 11.791 0.236991
79 2 24.0463 11.9559 0.284339
80 2 27.8631 11.872 0.391962
81 2 31.8203 11.8745 0.279673
82 2 35.8709 11.8405 0.286184
83 2 39.7074 11.9098 0.240642
84 2 43.7432 11.8211 0.304498
85 2 47.7748 11.8274 0.266971
86 2 51.6892 11.8576 0.305678
87 2 55.3861 11.9513 0.260467
88 2 59.4037 11.8437 0.423576
89 2 63.378 11.8836 0.237979
90 2 67.3763 11.7817 0.211259
91 2 71.1131 11.8842 0.241197
92 2 75.4162 11.8889 0.24515
93 2 79.2238 11.8856 0.380661
94 2 83.1781 12.0413 0.183762
95 2 87.1011 11.7181 0.361151
96 2 91.0642 11.6222 0.368015
97 2 0.0274899 15.6318 0.396986
98 2 3.95707 15.8636 0.334495
99 2 7.68748 15.6617 0.357228
100 2 11.9024 15.7234 0.222185
101 2 16.0688 15.8389 0.258428
102 2 19.8948 15.9961 0.288033
103 2 23.9055 15.7594 0.169826
104 2 27.9705 15.7675 0.445884
105 2 31.9727 15.8285 -0.00485425
106 2 35.9179 15.9181 0.0985203
107 2 39.6914 15.8414 0.136166
108 2 43.7322 15.7306 0.228985
109 2 47.5441 15.7446 0.359046
110 2 51.5669 15.5387 -0.0457053
111 2 55.5999 15.9555 0.118555
112 2 59.6653 15.7341 0.240287
113 2 63.3347 15.863 0.382318
114 2 67.4717 15.7713 0.233971
115 2 71.3321 15.6845 0.258374
116 2 75.0966 15.7426 0.202851
117 2 79.0958 15.7528 0.312188
118 2 83.3008 15.8683 0.215591
119 2 87.1926 15.8224 0.223377
120 2 91.0696 15.7856 0.378619
121 2 0.150185 19.723 0.174349
122 2 4.0905 19.7785 0.389834
123 2 8.05151 19.7728 0.165622
124 2 12.0201 19.6831 0.287636
125 2 15.9355 19.7326 0.100766
126 2 19.9948 19.7925 0.44353
127 2 23.9199 19.8182 0.278882
128 2 28.0374 19.7773 0.414424
129 2 31.8938 19.6558 0.268362
130 2 35.9299 19.8305 0.213979
131 2 39.8919 19.7745 0.245339
132 2 43.5896 19.7474 0.254086
133 2 47.6891 19.9018 0.320707
134 2 51.6226 19.648 0.376754
135 2 55.582 19.7222 0.20049
136 2 59.313 19.8395 0.14839
137 2 63.4875 19.7084 0.196986
138 2 67.4677 19.4908 0.254649
139 2 71.2814 19.7893 0.213274
140 2 75.2235 19.7178 0.0948074
141 2 79.0618 19.5508 0.40828
142 2 83.0739 19.8194 0.118161
143 2 87.045 19.8443 0.304201
144 2 91.1605 19.8004 0.314058
145 2 0.146424 23.9015 0.214768
146 2 4.02935 23.7526 0.351796
147 2 8.04027 23.8198 0.315987
148 2 12.0242 23.7073 0.349995
149 2 16.0481 23.5921 0.217754
150 2 20.2302 23.7893 -0.0200682
151 2 24.1712 23.6978 0.215727
152 2 28.0268 23.698 0.255177
153 2 31.9926 23.9101 0.192984
154 2 35.9079 23.8012 0.395552
155 2 39.8404 23.7376 0.16128
156 2 43.7181 23.6111 0.314243
157 2 47.6255 23.6165 0.413138
158 2 51.687 23.7104 0.204952
159 2 55.6271 23.7466 0.241885
160 2 59.4951 23.6851 0.302721
161 2 63.4429 23.6349 0.387799
162 2 67.2112 23.6889 0.0788343
163 2 71.2381 23.7955 0.130882
164 2 75.3219 23.8604 0.39058
165 2 79.1653 23.6695 0.242069
166 2 83.0962 23.658 0.358806
167 2 87.0307 23.7279 0.226016
168 2 91.2416 23.7954 0.271146
169 2 0.194198 27.7836 0.059362
170 2 4.02869 27.8373 0.265339
171 2 8.01861 27.5393 -0.0412807
172 2 11.9621 27.5419 0.409572
173 2 16.1012 27.5163 0.219377
174 2 19.7704 27.7157 0.431165
175 2 23.9423 27.5932 0.348108
176 2 28.0012 27.6938 0.247669
177 2 31.7031 27.7291 0.516859
178 2 35.5623 27.7273 0.0543887
179 2 39.6611 27.7671 0.166335
180 2 43.6414 27.5873 0.3096
181 2 47.7965 27.8306 0.177881
182 2 51.6529 27.8039 0.321457
183 2 55.5544 27.6937 0.266739
184 2 59.5857 27.7887 0.173245
185 2 63.4386 27.8084 0.38662
186 2 67.3648 27.5453 0.36658
187 2 71.2568 27.7745 0.379332
188 2 75.1357 27.8056 0.191888
189 2 79.0504 27.6847 0.222231
190 2 83.1596 27.5469 0.185176
191 2 87.0942 27.4943 0.229646
192 2 91.1726 27.5047 0.307612
193 2 -0.0273798 31.5854 0.360985
194 2 4.06083 31.736 0.206283
195 2 8.04647 31.5854 0.365942
196 2 11.9353 31.584 0.25442
197 2 15.9413 31.7381 0.227613
198 2 19.9309 31.6904 0.195466
199 2 23.7458 31.634 0.179771
200 2 27.8327 31.7087 0.242502
201 2 31.6924 31.5751 0.250925
202 2 35.7891 31.6929 0.205625
203 2 39.8004 31.6513 0.282941
204 2 43.6633 31.5839 0.24575
205 2 47.476 31.5365 0.0751816
206 2 51.4321 31.7807 0.148733
207 2 55.5212 31.9655 0.267792
208 2 59.3787 31.4392 0.151828
209 2 63.352 31.8716 0.373201
210 2 67.4422 31.7184 0.174822
211 2 71.2326 31.6464 0.151102
212 2 75.3041 31.59 0.359101
213 2 79.1377 31.4355 0.405617
214 2 83.0304 31.6033 0.225013
215 2 86.9953 31.3787 0.228915
216 2 91.0072 31.5418 0.41294
217 2 0.248898 35.6582 0.146483
218 2 4.0199 35.7309 0.210441
219 2 7.93354 35.5428 0.3452
220 2 12.0273 35.4353 0.184204
221 2 16.0524 35.4367 0.491677
222 2 20.0389 35.5062 0.183219
223 2 23.9105 35.6128 0.53008
224 2 27.7362 35.734 0.174017
225 2 31.8383 35.5192 0.309525
226 2 35.8333 35.5558 0.206178
227 2 39.6266 35.6492 0.367648
228 2 43.6642 35.7614 0.146576
229 2 47.8579 35.5256 0.184652
230 2 51.6845 35.5207 0.226787
231 2 55.5056 35.7815 0.396646
232 2 59.6587 35.5506 0.332823
233 2 63.4371 35.6776 0.240611
234 2 67.2457 35.7041 0.277529
235 2 71.2498 35.6331 0.287104
236 2 75.1601 35.4509 0.297892
237 2 79.4749 35.6309 0.376061
238 2 83.2558 35.4817 0.316211
239 2 87.0714 35.5829 0.288023
240 2 91.2896 35.4939 0.187072
241 2 0.207639 39.4761 0.362363
242 2 4.16266 39.4191 0.156748
243 2 8.01058 39.4709 0.236029
244 2 12.0135 39.5124 0.366134
245 2 16.0094 39.3435 0.296955
246 2 19.8978 39.5551 0.131094
247 2 23.8609 39.5429 0.175614
248 2 27.9037 39.4801 0.353583
249 2 31.9271 39.5998 0.111
250 2 35.8963 39.4535 0.140371
251 2 39.6036 39.601 0.141635
252 2 43.5362 39.5038 0.119054
253 2 47.5583 39.5505 0.30898
254 2 51.6628 39.7258 0.482603
255 2 55.5329 39.4389 0.342328
256 2 59.4323 39.687 0.325673
257 2 63.3673 39.5831 0.393011
258 2 67.3342 39.4875 0.347979
259 2 71.2592 39.4866 0.388372
260 2 75.3475 39.5468 0.584202
261 2 79.291 39.4297 0.448591
262 2 83.17 39.4966 0.475092
263 2 87.422 39.3246 0.283523
264 2 91.2092 39.2923 0.243196
265 2 0.175028 43.382 0.21577
266 2 3.88139 43.2586 0.386103
267 2 7.8868 43.4691 0.404347
268 2 12.1347 43.5007 0.250183
269 2 15.9219 43.4517 0.319559
270 2 19.8312 43.4884 0.142177
271 2 23.8076 43.4624 0.167126
272 2 27.8232 43.4265 0.219959
273 2 31.7705 43.4588 0.144622
274 2 35.6138 43.7631 0.244827
275 2 39.4362 43.5284 0.0849754
276 2 43.5542 43.5747 0.0666399
277 2 47.5305 43.5656 0.166903
278 2 51.4333 43.5079 0.366114
279 2 55.2709 43.4028 0.421751
280 2 59.4195 43.7983 0.305696
281 2 63.3806 43.461 0.437738
282 2 67.273 43.4924 0.384925
283 2 71.2958 43.5288 0.0565303
284 2 75.2631 43.5239 0.151907
285 2 79.0787 43.6238 0.369034
286 2 83.21 43.4017 0.520574
287 2 87.0462 43.2947 0.21541
288 2 91.0469 43.5286 0.278115
289 2 0.161742 47.4845 0.353477
290 2 4.0941 47.5874 0.223497
291 2 8.03637 47.441 0.159193
292 2 11.8979 47.4938 0.35784
293 2 15.8253 47.5838 0.290209
294 2 19.8154 47.4729 0.176889
295 2 23.7023 47.3866 0.108703
296 2 27.7558 47.4064 0.158804
297 2 31.919 47.3418 0.147101
298 2 35.8736 47.3977 0.19113
299 2 39.7668 47.5154 0.061283
300 2 43.8293 47.6026 0.0827507
301 2 47.7405 47.3005 0.274304
302 2 51.4449 47.3784 0.423425
303 2 55.4323 47.3552 0.438291
304 2 59.4094 47.5558 0.501343
305 2 63.4179 47.449 0.316357
306 2 67.2173 47.4835 0.237071
307 2 71.4621 47.5723 0.279669
308 2 75.2798 47.7908 0.371568
309 2 79.1051 47.4645 0.485364
310 2 83.2905 47.4941 0.235534
311 2 87.2103 47.3699 -0.0360838
312 2 90.9485 47.2874 0.191233
313 2 0.0517866 51.5684 0.302273
314 2 4.19347 51.3349 0.124432
315 2 8.14017 51.5656 0.240723
316 2 12.0198 51.2845 0.280459
317 2 15.9969 51.2872 0.297193
318 2 20.0499 51.3847 0.331892
319 2 23.8573 51.4225 0.460664
320 2 27.7505 51.3771 0.244145
321 2 31.826 51.3561 0.409561
322 2 35.7147 51.2187 0.171267
323 2 39.8753 51.546 0.32536
324 2 43.7558 51.5002 0.133298
325 2 47.6194 51.4569 0.201962
326 2 51.5057 51.4938 0.253974
327 2 55.3432 51.3024 0.46089
328 2 59.3233 51.4087 0.297552
329 2 63.4668 51.4606 0.30487
330 2 67.4902 51.3266 0.40936
331 2 71.3605 51.5863 0.332854
332 2 75.2289 51.6329 0.314617
333 2 79.0658 51.3315 0.305183
334 2 83.2688 51.2715 0.319414
335 2 87.2974 51.3572 0.279988
336 2 91.1451 51.1757 0.366102
337 2 0.0576607 55.575 0.155261
338 2 4.1586 55.4529 0.0993293
339 2 7.90015 55.5896 0.303577
340 2 11.9428 55.396 0.0909153
341 2 15.7976 55.1819 0.32151
342 2 19.8771 55.2784 0.269479
343 2 23.9862 55.498 0.22792
344 2 27.9931 55.3776 0.403125
345 2 31.9099 55.3306 0.137898
346 2 35.7605 55.3966 0.0734822
347 2 39.6088 55.3244 0.137321
348 2 43.7947 55.2856 -0.00449855
349 2 47.7191 55.3933 0.217888
350 2 51.5164 55.4818 0.252683
351 2 55.6297 55.2997 0.124145
352 2 59.6214 55.5201 0.35511
353 2 63.4141 55.2627 0.396875
354 2 67.3259 55.3062 0.458093
355 2 71.3826 55.4401 0.282134
356 2 75.211 55.4928 0.335017
357 2 79.0937 55.4393 0.511913
358 2 83.0205 55.3788 0.255058
359 2 87.344 55.426 0.383058
360 2 91.0356 55.4514 0.105632
361 2 0.216302 59.1446 0.280788
362 2 4.22857 59.4304 0.33446
363 2 7.95736 59.424 0.232653
364 2 12.0319 59.4174 0.109778
365 2 15.8228 59.3628 0.290855
366 2 19.6659 59.2016 0.235801
367 2 23.6595 59.1747 0.413231
368 2 27.8656 59.3091 0.191782
369 2 31.8367 59.4767 0.052528
370 2 35.7036 59.3146 0.228582
371 2 39.6154 59.3456 0.197961
372 2 43.6256 59.2294 0.408006
373 2 47.5948 59.3424 0.285916
374 2 51.5467 59.5077 0.368883
375 2 55.477 59.3769 0.357532
376 2 59.5553 59.6061 0.209451
377 2 63.3721 59.2914 0.357767
378 2 67.3075 59.4385 0.17386
379 2 71.2686 59.2929 0.284708
380 2 75.3415 59.3791 0.397637
381 2 79.2945 59.4008 0.230531
382 2 83.3274 59.4526 0.341132
383 2 87.3508 59.3516 0.392091
384 2 91.2626 59.4837 0.0958665
385 2 0.185944 63.2321 0.0819976
386 2 4.04823 63.4202 0.0978641
387 2 7.8636 63.4228 -0.0214184
388 2 12.0877 63.4737 0.0664581
389 2 16.0365 63.272 0.076368
390 2 19.7866 63.1782 0.122455
391 2 23.8472 63.3228 0.20449
392 2 27.9079 63.0827 0.151134
393 2 31.7576 63.4079 0.343309
394 2 35.806 63.305 0.0604777
395 2 39.733 63.5131 0.24174
396 2 43.7752 63.2548 0.187972
397 2 47.5204 63.3242 0.266409
398 2 51.5414 63.1125 0.251696
399 2 55.5279 63.4104 0.194413
400 2 59.4412 63.3682 0.240222
401 2 63.308 63.1521 0.2834
402 2 67.4727 63.3335 0.404915
403 2 71.4079 63.08 0.261435
404 2 75.3598 63.244 0.297619
405 2 79.128 63.3175 0.267097
406 2 83.2241 63.4213 0.320263
407 2 87.3936 63.2575 0.270516
408 2 91.0872 63.5098 0.0834498
409 2 -0.147277 67.3162 0.263074
410 2 3.94281 67.3933 0.143433
411 2 8.20409 67.1896 0.156179
412 2 12.0973 67.4542 0.232385
413 2 16.0143 67.3685 0.210181
414 2 19.9661 67.2157 0.275517
415 2 23.9026 67.1953 0.301958
416 2 27.7074 67.3613 0.185626
417 2 31.7229 67.3758 0.164997
418 2 35.7116 67.3325 0.36709
419 2 39.7705 67.2653 0.359485
420 2 43.6315 67.2208 0.310505
421 2 47.6501 67.353 0.268921
422 2 51.626 67.3148 0.15412
423 2 55.5307 67.2069 0.239169
424 2 59.3568 67.0517 0.244623
425 2 63.2819 67.2899 0.227522
426 2 67.3357 67.2441 0.353946
427 2 71.2832 67.3339 0.262925
428 2 75.0505 67.5111 0.217198
429 2 79.1212 67.4343 0.297467
430 2 83.1378 67.3725 0.219349
431 2 87.1129 67.3734 0.257459
432 2 91.0118 67.412 0.235337
433 2 0.0232319 71.2952 0.152079
434 2 4.24427 71.3185 -0.0044478
435 2 8.30823 71.3029 0.149795
436 2 12.192 71.3617 0.331467
437 2 16.0024 71.3641 0.257333
438 2 19.8967 71.2512 0.338953
439 2 24.0579 71.3 0.291367
440 2 27.8353 71.1185 0.43492
441 2 31.8903 71.3403 0.159579
442 2 35.6927 71.5212 0.180105
443 2 40.0455 71.327 0.0861029
444 2 43.7207 71.2203 0.126789
445 2 47.6145 71.3008 0.210216
446 2 51.7681 71.2886 0.248628
447 2 55.695 71.3866 0.234475
448 2 59.3716 71.1979 0.266347
449 2 63.5349 71.1136 0.210794
450 2 67.2522 71.3933 0.297662
451 2 71.1885 71.3084 0.352213
452 2 75.3193 71.3902 0.323847
453 2 79.0822 71.2849 0.384075
454 2 82.911 71.2344 0.246392
455 2 87.0105 71.3975 0.282207
456 2 90.8418 71.155 0.41522
457 2 0.155698 74.9435 0.235722
458 2 4.01256 75.3448 0.0891262
459 2 7.99285 75.3101 0.132577
460 2 12.1704 75.1251 0.155562
461 2 16.0336 75.213 -0.0314918
462 2 20.0774 75.1955 0.230897
463 2 23.9669 75.0106 0.277698
464 2 27.9237 75.3225 0.317452
465 2 31.9052 75.1775 0.337535
466 2 35.7964 75.1864 0.18566
467 2 39.9933 75.0698 0.149116
468 2 43.8565 75.0517 0.133701
469 2 47.6768 75.1871 0.246111
470 2 51.7372 75.1672 0.0322765
471 2 55.5863 75.2513 0.227451
472 2 59.7028 75.0633 0.262684
473 2 63.2836 75.0804 0.371326
474 2 67.5158 75.2319 0.34837
475 2 71.1596 75.3343 0.28251
476 2 75.0754 75.142 0.234927
477 2 79.0661 75.2459 0.266119
478 2 83.4525 75.2425 0.233362
479 2 87.2188 75.0609 0.391241
480 2 90.9961 75.1813 0.375156
481 2 0.311241 79.0923 0.0548239
482 2 4.06143 79.2358 0.253822
483 2 8.10544 79.1199 0.177825
484 2 12.0248 78.8955 -0.0537317
485 2 16.2735 79.1532 0.139677
486 2 19.9516 79.1475 0.0736768
487 2 24.1021 79.1068 0.108436
488 2 27.8182 79.1535 0.37063
489 2 31.8982 79.2478 0.311329
490 2 35.8891 79.0719 0.35686
491 2 39.8647 79.0394 0.205353
492 2 43.6624 79.1782 0.262802
493 2 47.3891 78.9097 0.112487
494 2 51.4802 79.1075 0.252537
495 2 55.5415 79.3403 0.150213
496 2 59.4721 79.1125 0.265386
497 2 63.4427 79.1288 0.372308
498 2 67.1908 79.2924 0.375989
499 2 71.2726 79.1134 0.468719
500 2 75.2533 79.0562 0.269776
501 2 79.3976 79.1538 0.327937
502 2 83.1082 78.9027 0.262801
503 2 87.0782 79.1588 0.225826
504 2 90.9681 79.0872 0.269068
505 2 0.290708 83.1282 0.0624101
506 2 4.10499 83.0632 0.281938
507 2 8.21068 83.0081 0.221086
508 2 11.8981 82.9778 0.238529
509 2 15.9976 83.1084 0.207023
510 2 19.9185 83.3636 0.1689
511 2 23.7353 83.1262 0.20641
512 2 28.0033 82.9557 0.350448
513 2 32.0459 83.2602 0.171527
514 2 35.7886 83.0751 0.27211
515 2 39.6299 83.2598 0.27716
516 2 43.5262 83.1933 0.222584
517 2 47.4741 83.1755 0.287857
518 2 51.3927 83.0848 0.38876
519 2 55.5032 83.1165 0.196584
520 2 59.3875 83.1199 0.415907
521 2 63.5471 83.088 0.31254
522 2 67.6012 83.0455 0.2034
523 2 71.397 82.836 0.328869
524 2 75.2004 83.0853 0.330823
525 2 79.1129 83.0069 0.30749
526 2 83.2563 82.9287 0.172565
527 2 87.0393 83.068 0.478674
528 2 91.243 82.9332 0.327654
529 2 0.119314 86.9982 0.162177
530 2 4.10898 86.9967 0.359477
531 2 8.18041 86.8628 0.13366
532 2 11.779 87.2757 0.213869
533 2 15.9548 87.138 -0.00260751
534 2 20.0319 87.1358 0.227405
535 2 23.9478 87.0622 0.118839
536 2 27.9327 86.9772 0.187594
537 2 31.8475 87.0609 0.339329
538 2 35.7862 87.1163 0.264157
539 2 39.6874 87.2029 0.262334
540 2 43.4205 87.1968 0.194569
541 2 47.5993 86.8516 0.156338
542 2 51.5758 87.2159 0.251631
543 2 55.5096 86.949 0.279823
544 2 59.4388 87.0336 0.448498
545 2 63.3958 87.0876 0.303519
546 2 67.3489 86.9324 0.298071
547 2 71.3555 86.9762 0.203104
548 2 75.3219 87.0449 0.402261
549 2 79.2381 86.8469 0.245914
550 2 83.065 86.9518 0.313428
551 2 87.1091 86.8602 0.595223
552 2 90.9973 87.0062 0.343174
553 2 0.0502407 90.834 0.313262
554 2 4.26313 91.0449 0.32588
555 2 7.9795 90.9159 0.102091
556 2 12.0496 91.1401 0.335669
557 2 16.0556 91.03 0.251838
558 2 20.1068 91.0224 0.264849
559 2 23.933 91.3144 0.461577
560 2 27.7704 91.1118 0.278646
561 2 31.7596 91.0381 0.33098
562 2 35.7343 90.9967 0.209204
563 2 39.5656 91.0283 0.136037
564 2 43.6825 91.0081 0.205211
565 2 47.6014 91.0243 0.199212
566 2 51.208 91.1389 0.0785178
567 2 55.3458 90.9313 0.256704
568 2 59.3465 91.0595 0.289169
569 2 63.4453 90.962 0.287098
570 2 67.3646 91.1073 0.244884
571 2 71.4133 90.9785 0.0936894
572 2 75.2867 90.8757 0.40014
573 2 79.1678 90.8383 0.17802
574 2 83.1474 90.9083 0.201147
575 2 87.0169 90.9846 0.253538
576 2 91.0908 90.9859 0.24779
577 2 -0.0812964 0.134241 4.19155
578 2 4.19139 0.0934823 4.26788
579 2 8.12631 0.112654 4.05327
580 2 11.9068 -0.0520674 4.06964
581 2 15.973 -0.0495246 4.32363
582 2 19.9517 0.0935073 4.35041
583 2 23.7929 0.0774149 4.27215
584 2 27.7833 0.218655 4.30493
585 2 31.714 0.190467 4.18082
586 2 35.7639 0.0305667 4.44323
587 2 39.6479 -0.170265 4.09795
588 2 43.6391 -0.00462651 4.2828
589 2 47.581 -0.000849989 4.38912
590 2 51.6033 -0.223861 4.02749
591 2 55.5111 -0.0662996 4.37615
592 2 59.4065 0.122792 4.22677
593 2 63.4813 -0.0758934 4.23981
594 2 67.3497 0.0207844 4.18384
595 2 71.2167 0.0457946 4.37422
596 2 75.4897 -0.0708347 4.32246
597 2 79.4204 -0.0853028 4.22801
598 2 83.4027 0.05947 4.02869
599 2 87.2128 -0.0916001 4.20753
600 2 91.1763 -0.261707 3.9885
601 2 0.222693 4.00504 4.21827
602 2 4.11471 4.03677 4.43889
603 2 8.15884 3.85382 4.47531
604 2 11.8993 3.99422 4.19515
605 2 15.9415 3.86908 4.17642
606 2 19.8635 4.08954 4.19424
607 2 23.7221 4.20992 4.14201
608 2 27.715 4.15883 4.16595
609 2 31.5888 3.91538 4.17777
610 2 35.5332 3.84623 4.31371
611 2 39.7811 3.81063 4.15795
612 2 43.484 4.00167 4.43873
613 2 47.5106 4.07942 4.18737
614 2 51.6766 3.85481 4.14584
615 2 55.5473 3.98915 4.13375
616 2 59.584 3.88004 4.24628
617 2 63.5779 4.1809 3.99491
618 2 67.4373 4.05103 4.34741
619 2 71.2719 4.01072 4.34208
620 2 75.2498 4.24318 4.26117
621 2 79.1739 4.00791 4.28269
622 2 83.2673 3.96292 4.28658
623 2 87.2897 4.16977 4.15801
624 2 91.0917 4.17935 4.05249
625 2 0.239266 8.15151 4.18793
626 2 4.25747 7.87164 4.12408
627 2 8.00058 8.04996 4.11355
628 2 12.1115 7.92693 4.12513
629 2 16.1541 7.99334 4.26733
630 2 19.8031 8.1456 4.05419
631 2 23.6913 8.12961 4.24821
632 2 27.7952 8.19583 4.17791
633 2 32.1032 8.05293 4.21459
634 2 35.6784 7.8836 4.39161
635 2 39.6303 8.01641 4.3277
636 2 43.7078 7.94506 4.27554
637 2 47.7799 7.97511 4.24253
638 2 51.8202 8.02401 4.32218
639 2 55.4461 7.78074 4.48158
640 2 59.3999 7.65334 4.20701
641 2 63.2957 8.06031 4.29055
642 2 67.3409 7.91892 4.31097
643 2 71.3339 8.13061 4.21608
644 2 75.2967 7.86002 4.36012
645 2 79.3622 8.02844 4.27803
646 2 83.1642 7.93158 4.09557
647 2 86.9999 7.96557 4.22171
648 2 90.9928 7.96845 4.1861
649 2 0.215152 12.1515 4.18781
650 2 4.11813 11.8015 4.22387
651 2 7.94759 11.8779 4.30759
652 2 12.1945 12.0159 4.04746
653 2 15.8393 11.9208 4.09992
654 2 19.8905 12.0771 4.2339
655 2 23.7043 11.9344 4.25397
656 2 28.0302 11.9082 4.30105
657 2 31.789 11.9559 4.35336
658 2 35.739 12.0322 4.22487
659 2 39.8358 12.0441 4.13563
660 2 43.6372 11.7246 4.27811
661 2 47.5653 11.8683 4.30558
662 2 51.338 11.9091 4.29986
663 2 55.3952 11.9592 4.28936
664 2 59.4611 11.889 4.37616
665 2 63.3859 12.1143 4.24726
666 2 67.1615 11.7588 4.38098
667 2 71.2355 11.9885 4.33709
668 2 75.1532 12.1824 4.08546
669 2 79.2829 11.801 4.22853
670 2 83.2446 11.8295 4.24875
671 2 87.2746 11.7739 4.27887
672 2 91.0416 11.7763 4.3306
673 2 0.11079 15.9382 4.34255
674 2 4.07473 16.0534 4.26721
675 2 7.97448 15.9147 4.17926
676 2 12.2033 15.8423 4.07056
677 2 16.1223 15.8322 4.26076
678 2 20.0388 15.8415 4.23814
679 2 24.0281 15.6768 4.2611
680 2 27.9061 15.8669 4.16098
681 2 31.9945 15.9604 4.07855
682 2 35.9222 15.8308 4.26023
683 2 39.8466 15.8284 4.23851
684 2 43.8216 15.656 4.39377
685 2 47.6615 15.7756 4.27168
686 2 51.7114 15.9295 4.13498
687 2 55.639 15.9597 4.03355
688 2 59.5251 15.8327 4.21589
689 2 63.5207 15.8799 4.16516
690 2 67.3633 15.7535 4.25733
691 2 71.4391 15.8854 4.35338
692 2 75.2879 15.7921 4.5008
693 2 79.2352 15.6823 4.20563
694 2 83.2466 15.74 4.3786
695 2 87.3748 15.7821 4.33871
696 2 91.1162 15.9066 4.22478
697 2 -0.119245 19.9129 4.36958
698 2 4.05357 19.8056 4.43409
699 2 8.15482 19.9293 4.15563
700 2 11.9909 19.7178 4.21302
701 2 15.9883 19.8853 4.29923
702 2 20.0644 19.8729 4.25737
703 2 23.8686 19.7513 4.06371
704 2 27.7968 19.8827 4.41702
705 2 31.7408 19.7481 4.35499
706 2 35.8772 19.5584 4.17683
707 2 39.8376 19.832 4.14257
708 2 43.4949 19.6876 4.33755
709 2 47.5654 19.8101 4.39383
710 2 51.4917 19.6292 4.19211
711 2 55.5709 19.9106 4.33718
712 2 59.5152 19.7572 4.37981
713 2 63.4156 19.7334 4.22383
714 2 67.3549 19.7961 4.25857
715 2 71.286 19.8892 4.20855
716 2 75.3113 19.7514 4.35544
717 2 79.3508 19.6168 4.22876
718 2 83.0912 19.5588 4.18367
719 2 87.2885 19.8536 4.13078
720 2 91.1099 19.9033 4.33268
721 2 0.02368 23.7118 4.18192
722 2 4.18281 23.865 4.26526
723 2 7.78256 23.7473 4.11579
724 2 12.0133 23.5662 4.27687
725 2 15.9883 23.7557 4.23456
726 2 20.1054 23.7935 4.11013
727 2 23.9217 23.7646 4.16415
728 2 27.7608 23.6565 4.20185
729 2 31.8051 23.6415 4.21805
730 2 35.612 23.762 4.1759
731 2 39.6077 23.7848 4.22638
732 2 43.5684 23.672 4.46318
733 2 47.4574 23.9449 4.16413
734 2 51.3953 23.9091 4.27117
735 2 55.6997 23.8886 4.27148
736 2 59.5323 23.8433 4.32882
737 2 63.2787 23.6819 4.14285
738 2 67.2528 23.8163 4.18179
739 2 71.4273 23.8853 4.28452
740 2 75.3603 23.8507 4.35173
741 2 79.1998 23.4899 4.17947
742 2 83.3616 23.7248 4.28888
743 2 87.263 23.7148 4.35263
744 2 91.0061 23.9491 4.1289
745 2 0.150004 27.7478 4.22129
746 2 4.16117 27.7259 4.14594
747 2 8.11925 27.5532 4.30602
748 2 12.034 27.6906 3.9899
749 2 15.8735 27.5965 4.19106
750 2 20.0178 27.5937 4.02631
751 2 23.8805 27.6648 4.15612
752 2 27.7197 27.6567 4.41241
753 2 31.6954 27.5405 4.21106
754 2 35.6486 27.7992 4.03754
755 2 39.5993 27.6172 4.27468
756 2 43.6113 27.7282 4.24227
757 2 47.5191 27.7394 4.29621
758 2 51.6261 27.7062 4.21767
759 2 55.4905 27.8071 4.31735
760 2 59.3465 27.7989 4.11851
761 2 63.1131 27.614 4.09586
762 2 67.5011 27.7146 4.26648
763 2 71.4394 27.7504 4.47188
764 2 75.3849 27.5876 4.21737
765 2 79.3507 27.6487 4.38985
766 2 83.0938 27.5409 4.12406
767 2 87.1748 27.6877 4.16973
768 2 91.1601 27.4788 4.27852
769 2 0.171839 31.7629 4.32989
770 2 3.88816 31.655 4.21754
771 2 8.03615 31.7649 4.21668
772 2 11.9131 31.6105 4.18016
773 2 15.931 31.4833 4.31695
774 2 20.0336 31.6166 4.22142
775 2 23.9751 31.8022 4.03468
776 2 27.942 31.5659 4.10335
777 2 31.8449 31.8245 4.23043
778 2 35.7017 31.6537 4.18621
779 2 39.5244 31.5873 4.15156
780 2 43.7005 31.7859 4.11825
781 2 47.5854 31.9112 4.23593
782 2 51.3935 31.7036 4.26315
783 2 55.5897 31.778 4.30938
784 2 59.5575 31.9074 4.33309
785 2 63.4395 31.7301 4.49361
786 2 67.3301 31.5056 4.31627
787 2 71.5091 31.4909 4.37659
788 2 75.3059 31.8969 4.41297
789 2 79.1789 31.5316 4.24862
790 2 83.2387 31.6559 4.29245
791 2 87.0465 31.6259 4.22033
792 2 91.3824 31.6054 4.32415
793 2 0.0448709 35.4623 4.33864
794 2 4.21164 35.6901 4.24085
795 2 7.8673 35.5047 4.36514
796 2 11.8657 35.7235 4.13295
797 2 15.8364 35.6675 4.34223
798 2 19.8428 35.7259 4.2745
799 2 23.7631 35.8021 4.31491
800 2 27.7704 35.8539 4.10833
801 2 31.7599 35.7931 4.24347
802 2 35.835 35.6486 4.15712
803 2 39.7 35.8357 4.19578
804 2 43.5422 35.9133 4.28065
805 2 47.3375 35.802 4.19401
806 2 51.4083 35.6495 4.29391
807 2 55.7278 35.7779 4.10356
808 2 59.4835 35.7164 4.33112
809 2 63.5454 35.5664 4.42334
810 2 67.4018 35.5157 4.38369
811 2 71.3871 35.6477 4.36987
812 2 75.1566 35.6373 4.16147
813 2 79.2988 35.5887 4.4193
814 2 83.3071 35.4029 4.20523
815 2 87.1884 35.5757 4.36018
816 2 91.1398 35.4833 4.23569
817 2 -0.0413038 39.466 4.35522
818 2 3.8588 39.5174 4.28632
819 2 7.9126 39.7471 4.27186
820 2 11.8558 39.6152 4.26706
821 2 15.934 39.5429 4.3352
822 2 19.9275 39.7038 4.076
823 2 23.6471 39.6198 4.11181
824 2 27.7551 39.7183 4.32173
825 2 31.8269 39.7905 3.94065
826 2 35.7962 39.6866 4.285
827 2 39.889 39.7456 4.12874
828 2 43.6315 39.7899 4.20181
829 2 47.7133 39.7566 4.25935
830 2 51.6005 39.5735 4.44118
831 2 55.5805 39.6002 4.37619
832 2 59.2984 39.8604 4.40554
833 2 63.1208 39.6298 4.23478
834 2 67.5545 39.6907 4.2681
835 2 71.2948 39.7067 4.12862
836 2 75.2623 39.7695 4.45996
837 2 79.2233 39.5062 4.30361
838 2 83.0874 39.666 4.35909
839 2 87.1443 39.4229 4.24766
840 2 91.1041 39.5486 4.37337
841 2 0.0989448 43.4635 4.37749
842 2 3.95439 43.7713 4.21384
843 2 7.98302 43.5541 4.18894
844 2 11.7886 43.4068 4.11587
845 2 16.0886 43.4215 4.34472
846 2 19.9083 43.5448 4.26825
847 2 23.8635 43.7663 4.29296
848 2 27.5808 43.5058 4.14042
849 2 31.9405 43.4979 4.23555
850 2 35.8327 43.6393 4.21363
851 2 39.6733 43.7382 4.1496
852 2 43.5748 43.5652 4.25828
853 2 47.523 43.6563 4.25037
854 2 51.6122 43.3985 4.30928
855 2 55.5553 43.6027 4.44363
856 2 59.2217 43.6667 4.52987
857 2 63.3696 43.6264 4.34561
858 2 67.3729 43.703 4.26835
859 2 71.1719 43.8417 4.14307
860 2 75.4354 43.4986 4.19413
861 2 79.3701 43.6483 4.07441
862 2 83.3017 43.6277 4.13224
863 2 87.2861 43.3546 4.18637
864 2 91.1226 43.5154 4.29017
865 2 0.238995 47.5573 4.06111
866 2 4.02227 47.5104 4.27052
867 2 7.83785 47.6079 4.19741
868 2 11.7794 47.6591 4.28907
869 2 15.8546 47.4345 4.34477
870 2 19.6858 47.4594 4.21422
871 2 23.7154 47.5576 4.30602
872 2 27.8832 47.3947 4.0364
873 2 31.6836 47.502 4.11551
874 2 35.6461 47.5049 4.30236
875 2 39.7921 47.4093 4.2221
876 2 43.5971 47.4508 4.22264
877 2 47.3849 47.5256 4.36936
878 2 51.4639 47.588 4.36511
879 2 55.5259 47.5268 4.30813
880 2 59.4122 47.6245 4.27499
881 2 63.4764 47.4595 4.2782
882 2 67.6204 47.5628 4.21018
883 2 71.2912 47.6993 4.48489
884 2 75.3166 47.6536 4.37505
885 2 79.2301 47.5202 4.45942
886 2 83.1943 47.6433 4.26429
887 2 87.2594 47.4347 4.09456
888 2 91.1622 47.448 4.27728
889 2 0.0197348 51.5294 3.91848
890 2 3.92676 51.457 4.17173
891 2 8.11676 51.657 4.18134
892 2 11.9009 51.565 4.16504
893 2 15.7727 51.4051 4.21356
894 2 19.7433 51.451 4.29042
895 2 23.8371 51.2423 4.39822
896 2 27.8593 51.3559 4.17597
897 2 31.662 51.5088 4.33067
898 2 35.7674 51.5992 4.05741
899 2 39.664 51.4629 4.16729
900 2 43.4217 51.5281 4.20268
901 2 47.5712 51.4312 4.05026
902 2 51.6458 51.5577 4.32688
903 2 55.5675 51.335 4.26883
904 2 59.3856 51.4989 4.2156
905 2 63.5588 51.493 4.08484
906 2 67.493 51.4069 4.21638
907 2 71.3804 51.5991 4.45599
908 2 75.2567 51.5943 4.36547
909 2 79.2193 51.3705 4.38139
910 2 83.32 51.4362 4.39819
911 2 87.046 51.4682 4.29919
912 2 91.0615 51.5798 4.22017
913 2 0.0453239 55.3523 4.06984
914 2 4.00508 55.4467 4.2871
915 2 7.89598 55.4827 4.12197
916 2 11.9807 55.4144 4.23895
917 2 15.7077 55.4094 4.2793
918 2 19.7951 55.3159 4.14582
919 2 24.0126 55.4044 4.23651
920 2 27.9063 55.4919 4.04171
921 2 31.9036 55.5335 4.14999
922 2 35.6647 55.3811 4.07829
923 2 39.6859 55.6573 4.14905
924 2 43.635 55.4311 4.04088
925 2 47.8194 55.5127 4.26269
926 2 51.5197 55.4146 4.29326
927 2 55.5095 55.526 4.17328
928 2 59.2131 55.6381 4.25541
929 2 63.2178 55.2817 4.34259
930 2 67.3802 55.4238 4.37185
931 2 71.3242 55.5062 4.36022
932 2 75.4352 55.544 4.40804
933 2 79.3969 55.4402 4.12856
934 2 83.3691 55.6484 4.13545
935 2 87.3105 55.5854 4.28715
936 2 91.0072 55.5748 3.89598
937 2 -0.0276103 59.3531 4.26157
938 2 3.891 59.367 4.22713
939 2 8.11256 59.5556 3.93993
940 2 11.8609 59.7282 4.13719
941 2 15.9924 59.3908 4.16349
942 2 19.8689 59.4825 4.21194
943 2 23.9528 59.4638 4.3981
944 2 27.7678 59.3228 4.24763
945 2 31.877 59.3786 4.02212
946 2 35.6954 59.4733 4.07143
947 2 39.7266 59.4756 4.12084
948 2 43.6302 59.3286 4.35411
949 2 47.762 59.1991 4.2829
950 2 51.613 59.4704 4.21193
951 2 55.5572 59.398 4.16484
952 2 59.5331 59.4275 4.32558
953 2 63.5606 59.3445 4.34839
954 2 67.3198 59.3596 4.26731
955 2 71.2028 59.2163 4.31578
956 2 75.3351 59.3514 4.37971
957 2 79.3713 59.5295 4.16652
958 2 83.3466 59.5288 4.12079
959 2 87.1178 59.5879 4.15582
960 2 91.1834 59.5254 4.24412
961 2 0.0501855 63.5269 4.05194
962 2 3.89115 63.4209 4.12737
963 2 7.93438 63.4527 4.01813
964 2 11.8742 63.4274 4.09751
965 2 15.8688 63.2926 4.13213
966 2 19.9996 63.4556 4.07938
967 2 23.8859 63.3008 4.24654
968 2 27.7184 63.251 4.37885
969 2 31.7185 63.4463 4.07916
970 2 35.839 63.3354 4.01654
971 2 39.6497 63.4357 4.27506
972 2 43.7122 63.3441 4.0397
973 2 47.636 63.4332 4.21438
974 2 51.6377 63.1906 4.31197
975 2 55.6723 63.4168 4.26021