ITEM: TIMESTEP
15000
ITEM: NUMBER OF ATOMS
32000
ITEM: BOX BOUNDS xy xz yz pp pp pp
0.0000000000000000e+00 1.5832000000000001e+01 0.0000000000000000e+00
0.0000000000000000e+00 1.5831999999999999e+02 0.0000000000000000e+00
8.0045581125378362e-01 1.6017666218874473e+02 0.0000000000000000e+00
ITEM: ATOMS id type x y z
1 2 16.0664 157.809 160.011
2 2 4.0713 157.593 159.935
3 2 7.91759 157.669 159.964
4 2 12.0709 157.643 159.872
5 2 0.220277 3.19616 159.769
6 2 4.0977 3.45622 159.917
7 2 8.10257 3.35702 160.014
8 2 11.8398 3.30826 159.681
9 2 15.9267 7.09706 159.684
10 2 4.03687 7.41546 159.86
11 2 7.85249 7.24113 159.863
12 2 11.9829 7.2117 159.628
13 2 0.0153879 11.0877 159.616
14 2 3.75175 11.0524 159.712
15 2 7.93059 11.2207 159.771
16 2 11.9575 11.024 159.768
17 2 -0.119658 15.0431 159.557
18 2 3.97229 15.1256 159.963
19 2 8.04647 15.146 159.702
20 2 11.8976 15.1041 159.778
21 2 0.117389 19.1951 159.771
22 2 4.17054 19.1688 159.853
23 2 7.91956 19.2639 159.801
24 2 11.7313 19.2759 159.822
25 2 16.027 23.0639 159.774
26 2 3.99573 23.0608 159.879
27 2 8.12409 23.2586 159.868
28 2 12.2639 23.4533 159.668
29 2 0.188871 27.3224 159.779
30 2 4.08072 27.2523 160.085
31 2 7.91342 27.3435 160.069
32 2 12.0231 27.259 159.951
33 2 0.106014 31.3079 159.987
34 2 3.84682 31.2771 159.952
35 2 7.72717 31.3735 160.035
36 2 11.871 31.161 160.057
37 2 15.9846 35.4626 0.596222
38 2 4.04907 35.5352 160.004
39 2 7.95173 35.3969 160.026
40 2 11.8506 35.1812 160.217
41 2 0.0188272 39.3467 0.775233
42 2 3.85713 39.5414 0.832487
43 2 7.7444 39.3037 160.237
44 2 12.0206 39.3358 160.208
45 2 15.7648 43.4524 0.854853
46 2 3.95434 43.3692 0.752024
47 2 7.95984 43.3873 0.859712
48 2 11.7506 43.4496 160.046
49 2 -0.0709033 47.497 1.02176
50 2 3.89236 47.478 0.944111
51 2 7.89056 47.6048 0.919548
52 2 11.5654 47.6281 0.847397
53 2 -0.0761625 51.5002 0.956541
54 2 3.80614 51.4305 1.28467
55 2 7.76411 51.494 1.01006
56 2 11.6924 51.6591 0.729685
57 2 15.8168 55.5434 1.10896
58 2 3.97012 55.5378 0.985191
59 2 7.88068 55.3854 1.12311
60 2 11.9568 55.6573 1.07694
61 2 15.9704 59.8089 1.25718
62 2 3.99665 59.7173 1.35888
63 2 8.02597 59.5298 1.15078
64 2 12.0997 59.5841 1.27037
65 2 0.116908 63.6538 1.4334
66 2 4.18463 63.5673 1.41446
67 2 8.01473 63.6016 1.26441
68 2 11.8596 63.6225 1.30374
69 2 15.9289 67.6325 1.24873
70 2 3.89458 67.5213 1.46361
71 2 7.99204 67.5153 1.44277
72 2 11.9709 67.6073 1.51087
73 2 15.6867 71.5784 1.43734
74 2 3.73797 71.609 1.52137
75 2 7.76161 71.6213 1.39745
76 2 11.7431 71.6114 1.26583
77 2 -0.212269 75.5347 1.63816
78 2 3.65161 75.6913 1.64104
79 2 7.95455 75.6841 1.61862
80 2 11.8768 75.6118 1.38278
81 2 -0.170295 79.6203 1.44044
82 2 3.8274 79.4642 1.56289
83 2 7.78811 79.6881 1.4127
84 2 11.8007 79.6232 1.51686
85 2 -0.020796 83.3943 1.32974
86 2 3.87502 83.5586 1.33828
87 2 7.77957 83.4428 1.55323
88 2 12.0442 83.5596 1.20096
89 2 15.8968 87.3987 1.33244
90 2 4.02371 87.4521 1.46825
91 2 7.95183 87.3577 1.46785
92 2 11.9233 87.3809 1.39283
93 2 15.8767 91.3262 1.33027
94 2 4.24655 91.3178 1.22705
95 2 8.12836 91.3493 1.29007
96 2 11.9811 91.2175 1.27672
97 2 0.110313 95.2505 1.14742
98 2 4.0622 95.2263 1.33486
99 2 7.96526 95.0469 1.21051
100 2 11.8697 95.0816 1.29674
101 2 15.7715 99.1399 1.2036
102 2 4.08944 99.0605 1.23451
103 2 7.99455 99.0365 1.20207
104 2 11.7029 99.0361 1.16775
105 2 -0.0328087 103.128 1.23678
106 2 3.89979 102.833 1.22702
107 2 7.8892 102.852 1.2999
108 2 11.8736 103.125 1.30034
109 2 15.801 107.105 1.32507
110 2 4.12719 106.901 1.07701
111 2 7.85892 106.755 1.09381
112 2 11.8232 107.085 1.25127
113 2 15.7941 110.964 1.06411
114 2 3.91299 110.819 1.18479
115 2 7.75048 110.844 0.841889
116 2 11.8114 110.731 1.06304
117 2 0.10854 114.831 0.955894
118 2 3.857 114.83 1.16543
119 2 7.86782 114.735 1.26093
120 2 11.6746 114.639 1.05009
121 2 15.7934 118.704 1.06779
122 2 3.72574 118.621 1.04157
123 2 8.09032 118.635 1.04038
124 2 11.9708 118.622 1.02332
125 2 15.6429 122.563 0.96091
126 2 3.79801 122.446 0.91148
127 2 7.65657 122.435 0.771075
128 2 11.7341 122.582 1.01334
129 2 -0.0568347 126.354 1.03244
130 2 3.95382 126.567 1.02873
131 2 7.68836 126.428 1.00004
132 2 11.819 126.394 0.951572
133 2 15.7498 130.317 0.781959
134 2 3.94578 130.587 0.8389
135 2 7.91972 130.605 1.00244
136 2 11.8053 130.479 160.093
137 2 0.170889 134.169 0.68412
138 2 3.75629 134.36 0.910675
139 2 7.95711 134.328 0.823872
140 2 11.6802 134.327 0.796753
141 2 -0.0999893 138.203 0.851564
142 2 3.79775 138.282 160.217
143 2 7.88981 138.123 160.208
144 2 11.8017 138.036 159.999
145 2 15.5685 142.094 0.785045
146 2 3.76695 142.166 160.191
147 2 7.75747 142.103 160.112
148 2 11.8 142.061 160.154
149 2 -0.0810598 146.08 159.98
150 2 3.94578 146.211 160.132
151 2 8.10404 146.043 160.151
152 2 11.9106 145.983 160.083
153 2 0.038448 149.999 159.998
154 2 4.03249 149.999 160.032
155 2 8.00122 149.867 160.055
156 2 12.037 150.068 160.092
157 2 0.227598 153.725 160.02
158 2 4.07151 153.732 159.97
159 2 7.96283 153.897 159.927
160 2 11.9193 153.941 160.07
161 2 15.655 157.932 4.53578
162 2 4.01285 157.799 4.52011
163 2 7.96039 157.659 4.48734
164 2 11.9076 157.841 4.48032
165 2 -0.070874 3.36911 4.38179
166 2 4.22659 3.2853 4.45941
167 2 8.03023 3.46146 4.47425
168 2 11.8625 3.46662 4.58876
169 2 0.105717 7.40739 4.44204
170 2 4.16457 7.19262 4.41748
171 2 8.08611 7.19641 4.42355
172 2 12.0455 7.36934 4.33336
173 2 -0.0378947 11.4644 4.37781
174 2 4.02987 11.2491 4.38376
175 2 8.05495 11.0943 4.28242
176 2 11.9804 11.0771 4.19355
177 2 0.0298973 15.0387 4.11699
178 2 4.11768 15.1321 4.22323
179 2 8.14211 15.0396 4.29826
180 2 12.0943 15.2075 4.40998
181 2 -0.190289 19.1192 4.15449
182 2 3.82453 19.1974 4.35792
183 2 8.01222 19.1346 4.33095
184 2 12.0646 18.9227 4.33287
185 2 0.00777119 23.3512 4.27588
186 2 4.06399 23.0517 4.53252
187 2 8.0846 23.2446 4.39502
188 2 12.1099 23.0965 4.39341
189 2 15.8312 27.2291 4.52244
190 2 3.92618 27.2099 4.40259
191 2 8.05211 27.1947 4.2715
192 2 11.894 27.2042 4.52197
193 2 15.7953 31.2757 4.67739
194 2 4.13865 31.1169 4.58409
195 2 7.88707 31.156 4.6962
196 2 11.9571 31.0864 4.52747
197 2 15.8923 35.2036 4.59259
198 2 3.76896 35.2556 4.71504
199 2 7.99488 35.244 4.52192
200 2 11.8299 35.1006 4.64299
201 2 15.6977 39.5422 4.86391
202 2 3.98556 39.3426 4.69698
203 2 7.78059 39.3613 4.82287
204 2 11.7585 39.3953 4.72473
205 2 0.122154 43.3391 4.87342
206 2 4.07716 43.2319 4.74875
207 2 7.95195 43.44 4.7204
208 2 11.8607 43.5545 4.81679
209 2 -0.123098 47.3603 4.76634
210 2 3.90553 47.318 4.56178
211 2 7.94518 47.4875 4.91638
212 2 11.7671 47.3766 4.8042
213 2 -0.234504 51.4661 4.8825
214 2 3.79924 51.2269 5.02369
215 2 7.92334 51.4886 4.89108
216 2 11.9374 51.4012 4.9153
217 2 15.7762 55.2959 4.92974
218 2 3.92008 55.5936 5.26383
219 2 7.84933 55.2653 4.92105
220 2 11.859 55.5947 4.92947
221 2 0.138995 59.3201 5.08902
222 2 4.01983 59.4385 5.00653
223 2 7.88157 59.2588 4.99162
224 2 11.8579 59.417 5.04468
225 2 15.8532 63.4951 5.3365
226 2 3.86563 63.4712 5.21624
227 2 7.86774 63.5418 5.10082
228 2 11.8966 63.3082 5.2112
229 2 15.744 67.5423 5.18412
230 2 3.8272 67.5106 5.37013
231 2 7.98894 67.4803 5.27798
232 2 11.921 67.418 5.24007
233 2 16.0535 71.6822 5.45582
234 2 3.99387 71.6047 5.43604
235 2 7.84604 71.3824 5.32453
236 2 12.0023 71.3521 5.32221
237 2 15.7816 75.524 5.42678
238 2 3.87323 75.5824 5.44718
239 2 7.86965 75.4182 5.27494
240 2 11.6244 75.6294 5.4122
241 2 15.9803 79.6278 5.33879
242 2 3.87665 79.56 5.62084
243 2 7.68053 79.492 5.43372
244 2 12.0794 79.668 5.50759
245 2 0.155283 83.5463 5.37676
246 2 3.83749 83.3245 5.47145
247 2 8.00861 83.5302 5.63706
248 2 11.9839 83.6796 5.36284
249 2 0.228135 87.5809 5.49869
250 2 4.03665 87.5395 5.34081
251 2 7.94851 87.4044 5.48062
252 2 11.904 87.3526 5.33648
253 2 15.8902 91.2636 5.30713
254 2 4.18024 91.5273 5.29183
255 2 8.06272 91.3051 5.11874
256 2 11.9987 91.3324 5.3568
257 2 16.0204 95.2291 5.50869
258 2 4.06757 95.3674 5.35546
259 2 8.01266 95.2485 5.34322
260 2 11.9785 95.2679 5.1833
261 2 15.9985 99.2995 5.33165
262 2 3.99312 99.0339 5.30817
263 2 8.04969 99.0861 5.31649
264 2 12.0061 99.1082 5.2022
265 2 15.9249 103.095 5.21446
266 2 3.89003 103.062 5.1836
267 2 8.04377 102.99 5.16636
268 2 11.8654 103.093 5.23203
269 2 0.191327 107.023 5.33507
270 2 4.12193 107.033 5.17885
271 2 7.94799 106.981 5.2537
272 2 11.9527 107.011 5.18079
273 2 15.8881 110.952 5.06417
274 2 3.89101 110.991 5.18318
275 2 7.91084 110.925 5.17889
276 2 12.0087 110.94 5.18493
277 2 15.7773 114.859 5.05202
278 2 4.19777 114.934 5.10742
279 2 8.08108 114.774 5.14621
280 2 11.7478 115.095 5.06185
281 2 -0.0168082 118.733 4.99688
282 2 3.87072 118.712 5.1657
283 2 7.76727 118.755 4.95784
284 2 11.8441 118.642 4.91515
285 2 15.7818 122.679 5.06257
286 2 3.95821 122.534 5.11184
287 2 8.05891 122.473 4.94553
288 2 11.6636 122.623 5.06686
289 2 0.248805 126.482 4.93722
290 2 4.1061 126.52 4.92404
291 2 7.92813 126.415 5.13003
292 2 11.7884 126.44 5.00017
293 2 15.8921 130.443 4.92581
294 2 4.00778 130.498 5.01199
295 2 7.91888 130.653 4.91012
296 2 11.9075 130.147 4.9768
297 2 -0.192906 134.227 4.81192
298 2 3.79723 134.325 4.88797
299 2 8.03167 134.454 4.87419
300 2 11.9379 134.218 4.87908
301 2 -0.183057 138.149 4.92203
302 2 3.87125 138.238 4.81418
303 2 7.80953 138.334 4.79841
304 2 11.9366 138.182 4.8689
305 2 0.0291768 142.178 4.83105
306 2 3.81499 141.969 4.66218
307 2 7.89385 142.076 4.79637
308 2 11.7619 141.978 4.82854
309 2 15.7496 145.971 4.65682
310 2 3.95443 146.176 4.70855
311 2 7.91897 146.11 4.69827
312 2 11.8517 145.985 4.8516
313 2 15.9781 150.058 4.77356
314 2 3.93936 150.132 4.75827
315 2 7.99634 149.936 4.60444
316 2 11.8342 150.02 4.72627
317 2 -0.0424709 153.842 4.76477
318 2 4.14144 153.861 4.60582
319 2 8.01534 153.989 4.68906
320 2 11.7988 153.748 4.64525
321 2 -0.216506 157.712 8.47879
322 2 3.99747 157.854 8.51079
323 2 7.72564 157.703 8.68231
324 2 11.8582 157.909 8.59169
325 2 0.0802156 3.4236 8.51113
326 2 3.91448 3.33823 8.6368
327 2 7.86982 3.3625 8.43315
328 2 11.813 3.46649 8.37685
329 2 15.9989 7.17232 8.46826
330 2 3.95724 7.45121 8.53232
331 2 7.7418 7.41849 8.44724
332 2 11.9898 7.31479 8.43056
333 2 0.151857 11.1583 8.31634
334 2 3.84413 11.4664 8.30162
335 2 7.90302 11.1645 8.45932
336 2 12.0017 11.2891 8.19113
337 2 0.0682109 15.3658 8.39908
338 2 4.13744 15.3535 8.17111
339 2 8.07712 15.1213 8.28382
340 2 11.7784 15.194 8.60778
341 2 15.8954 19.0486 8.27285
342 2 3.98929 19.2406 8.11157
343 2 8.14839 19.0465 8.17498
344 2 12.1681 19.168 8.14384
345 2 15.855 23.0643 8.30141
346 2 3.88952 23.0787 8.20926
347 2 7.77123 22.9869 8.26397
348 2 11.8606 23.0283 8.35232
349 2 -0.0117239 27.0243 8.47369
350 2 3.86417 26.9352 8.21399
351 2 7.80039 26.8303 8.37951
352 2 11.9162 27.0853 8.22408
353 2 0.132216 31.2259 8.47242
354 2 4.0277 31.0974 8.43479
355 2 7.96623 31.1908 8.48447
356 2 11.6953 31.1268 8.48886
357 2 15.7333 35.1443 8.57551
358 2 3.87614 35.1325 8.66409
359 2 7.70403 35.0884 8.49886
360 2 11.847 35.0249 8.53845
361 2 -0.119026 39.3881 8.56981
362 2 3.87364 39.1705 8.55942
363 2 7.9075 39.2681 8.58706
364 2 11.7447 39.096 8.72613
365 2 15.7465 43.2733 8.6227
366 2 3.80815 43.3394 8.60527
367 2 7.74989 43.3944 8.8173
368 2 11.8253 43.4099 8.71658
369 2 15.6536 47.0642 8.79486
370 2 3.98198 47.3402 8.79608
371 2 7.83753 47.2112 8.97197
372 2 11.7731 47.3535 8.91333
373 2 15.7434 51.363 8.84348
374 2 4.00922 51.2946 8.76044
375 2 8.04273 51.303 9.0054
376 2 11.7523 51.4924 8.54558
377 2 0.034071 55.4743 8.70727
378 2 3.83615 55.2352 8.93794
379 2 7.75733 55.3512 8.69638
380 2 11.7454 55.4976 9.15113
381 2 -0.00883349 59.3856 9.08669
382 2 4.03021 59.2068 9.02248
383 2 7.65018 59.4523 9.06426
384 2 11.713 59.4064 8.96339
385 2 15.749 63.2928 9.15762
386 2 3.98909 63.462 9.15792
387 2 7.79438 63.2857 9.00636
388 2 12.1269 63.4472 9.05251
389 2 15.9881 67.5721 9.02594
390 2 3.98321 67.4559 9.41629
391 2 8.06775 67.3967 9.26238
392 2 11.8406 67.3068 9.01091
393 2 15.9403 71.6638 9.45673
394 2 3.97455 71.4284 9.26427
395 2 8.00834 71.3785 9.02308
396 2 11.8015 71.2924 9.34074
397 2 15.7646 75.4726 9.51624
398 2 4.0881 75.5156 9.43737
399 2 8.10518 75.582 9.23613
400 2 11.9632 75.495 9.10096
401 2 15.918 79.5479 9.44687
402 2 3.9761 79.5444 9.3831
403 2 7.96351 79.7556 9.44998
404 2 12.1252 79.4635 9.29214
405 2 15.8361 83.7253 9.61658
406 2 3.8955 83.5076 9.48256
407 2 7.97174 83.7515 9.42209
408 2 12.0168 83.4588 9.35474
409 2 0.169612 87.4774 9.5347
410 2 3.94938 87.4802 9.55714
411 2 7.92328 87.4546 9.46989
412 2 11.9073 87.5666 9.32948
413 2 0.0181141 91.4119 9.5863
414 2 4.13855 91.3839 9.44303
415 2 7.98225 91.4497 9.45858
416 2 12.0052 91.5402 9.46345
417 2 0.121169 95.3879 9.53041
418 2 4.13512 95.1787 9.32641
419 2 7.99559 95.479 9.39443
420 2 11.8265 95.3148 9.32835
421 2 -0.124724 99.2896 9.26094
422 2 4.08869 99.4724 9.21464
423 2 8.02572 99.2683 9.30398
424 2 12.0213 99.2594 9.26305
425 2 15.8246 103.154 9.35384
426 2 4.13522 103.218 9.29819
427 2 8.01605 103.102 9.25567
428 2 11.9466 103.072 9.37757
429 2 0.0660583 106.911 9.33468
430 2 3.95251 107.085 9.29218
431 2 8.00651 106.939 9.27039
432 2 11.9926 107.084 9.29331
433 2 15.806 111.045 9.1252
434 2 4.11402 110.864 9.29951
435 2 8.05371 111.074 9.08671
436 2 12.0272 111.096 9.07033
437 2 15.8402 114.785 9.21861
438 2 4.03818 114.898 9.28825
439 2 8.00403 114.977 9.03209
440 2 12.0616 114.949 9.03675
441 2 -0.0684004 118.697 9.13605
442 2 3.97502 118.843 8.96208
443 2 8.0118 118.695 9.00795
444 2 11.8991 118.883 9.00381
445 2 15.6355 122.688 9.03569
446 2 4.04 122.754 9.08901
447 2 8.00526 122.612 9.24755
448 2 11.8216 122.567 8.98391
449 2 15.9517 126.516 9.09197
450 2 3.74341 126.503 9.12744
451 2 7.8808 126.501 9.04763
452 2 11.8795 126.637 9.03969
453 2 15.8417 130.597 8.99852
454 2 4.05938 130.538 8.95487
455 2 8.10913 130.49 8.93654
456 2 11.8469 130.468 8.94587
457 2 -0.0754909 134.382 8.85214
458 2 3.73021 134.199 8.85387
459 2 7.87356 134.414 8.89451
460 2 11.7554 134.158 9.08553
461 2 0.0559907 138.449 8.91238
462 2 4.2615 138.308 8.59227
463 2 7.86884 138.287 8.7893
464 2 11.8707 138.345 8.83493
465 2 0.0726118 142.025 9.01577
466 2 3.92704 142.341 8.86175
467 2 7.87748 142.221 8.81072
468 2 11.822 142.244 8.82062
469 2 -0.0175428 146.084 8.79228
470 2 4.01128 146.198 8.48954
471 2 8.03338 146.154 8.79655
472 2 11.9762 146.163 8.98328
473 2 15.6656 150.011 8.65452
474 2 4.03667 149.938 8.61701
475 2 7.93722 149.997 8.70987
476 2 11.9508 149.99 8.732
477 2 0.0117537 154.013 8.63078
478 2 4.07606 153.918 8.63335
479 2 8.1247 153.905 8.63778
480 2 11.8621 153.867 8.7176
481 2 15.7683 157.95 12.6445
482 2 4.11017 157.994 12.7088
483 2 7.94156 157.968 12.6313
484 2 11.8581 157.953 12.4753
485 2 -0.101473 3.47616 12.2944
486 2 4.06284 3.55848 12.494
487 2 7.94078 3.77964 12.611
488 2 11.7734 3.45676 12.4001
489 2 0.0343996 7.34639 12.5264
490 2 3.9722 7.4165 12.4634
491 2 7.97269 7.67432 12.5698
492 2 12.1148 7.32942 12.5482
493 2 0.0633752 11.3673 12.2703
494 2 4.01854 11.3623 12.4119
495 2 7.95165 11.4261 12.4242
496 2 12.0011 11.1638 12.15
497 2 0.123635 15.2579 12.5698
498 2 3.82635 15.1863 12.4191
499 2 7.86743 15.1678 12.2743
500 2 11.9075 15.1683 12.5388
501 2 0.0569335 19.3524 12.3159
502 2 4.07654 19.0774 12.3271
503 2 8.00936 19.047 12.4447
504 2 11.8926 19.1661 12.0187
505 2 0.109939 23.0683 12.452
506 2 4.11743 23.1323 12.4139
507 2 8.09609 23.0371 12.2274
508 2 11.977 22.9044 12.3664
509 2 15.7168 26.9575 12.2314
510 2 3.78085 27.0308 12.2264
511 2 7.86492 26.8749 12.3409
512 2 11.8564 27.0086 12.3121
513 2 15.7938 30.9357 12.405
514 2 4.04953 30.9929 12.4433
515 2 7.83937 30.9163 12.2561
516 2 11.7913 31.1151 12.3625
517 2 15.8334 35.2097 12.4989
518 2 3.91056 35.1203 12.3517
519 2 7.84342 35.0582 12.555
520 2 11.9388 35.0419 12.3817
521 2 15.8531 39.2307 12.4131
522 2 4.01166 39.0157 12.41
523 2 8.08383 39.0487 12.329
524 2 11.8814 38.9841 12.5422
525 2 15.7719 43.2121 12.717
526 2 3.96441 43.0382 12.7194
527 2 7.75693 42.9575 12.5635
528 2 12.0028 43.3808 12.7815
529 2 0.00934449 47.1821 12.5674
530 2 3.97403 47.1815 12.6904
531 2 7.88276 47.166 12.6742
532 2 11.9133 47.4506 12.6225
533 2 15.6524 51.3133 12.7261
534 2 3.83654 51.1029 12.7795
535 2 7.97572 51.1467 12.6207
536 2 11.8504 51.1585 12.5096
537 2 -0.0136782 55.1161 12.9561
538 2 3.93625 55.1528 12.8894
539 2 8.11026 55.2937 12.7776
540 2 11.9817 55.1637 12.7797
541 2 -0.154145 59.2116 12.8986
542 2 3.89065 59.2331 12.9747
543 2 7.9802 59.1734 12.9697
544 2 11.7901 59.1824 13.1096
545 2 -0.105783 63.2954 12.8888
546 2 3.74051 63.3704 13.0669
547 2 7.9937 63.3563 13.1849
548 2 11.9213 63.1485 12.9736
549 2 15.8245 67.4855 13.0572
550 2 3.92574 67.4333 13.0543
551 2 8.03566 67.3026 13.1983
552 2 11.9522 67.4346 12.8896
553 2 15.8351 71.4614 13.284
554 2 3.94833 71.2286 12.8969
555 2 7.99571 71.2527 13.2344
556 2 12.0231 71.4143 13.2042
557 2 15.9493 75.4936 13.2872
558 2 4.16072 75.5281 13.1248
559 2 7.97325 75.3105 13.1524
560 2 12.0741 75.5047 13.3777
561 2 15.8712 79.3298 13.3807
562 2 4.09411 79.4296 13.1502
563 2 7.80552 79.4386 13.3285
564 2 11.8642 79.3087 13.3181
565 2 15.7585 83.3907 13.3918
566 2 3.92038 83.3953 13.3945
567 2 8.17144 83.5546 13.2218
568 2 12.0369 83.4255 13.4564
569 2 0.11476 87.5464 13.5602
570 2 4.09031 87.8101 13.3604
571 2 7.86201 87.5259 13.5236
572 2 11.848 87.5795 13.5874
573 2 15.8607 91.5188 13.5111
574 2 4.0381 91.4319 13.5198
575 2 7.79624 91.4549 13.2721
576 2 11.8345 91.6104 13.5946
577 2 15.9729 95.3589 13.4132
578 2 4.11293 95.4626 13.2783
579 2 7.91162 95.3852 13.4472
580 2 11.8878 95.3385 13.5309
581 2 15.6143 99.2272 13.3774
582 2 4.03393 99.2744 13.3986
583 2 7.84085 99.2412 13.2812
584 2 11.7838 99.1847 13.5539
585 2 15.9633 103.048 13.2779
586 2 3.85141 103.24 13.3467
587 2 7.81564 103.197 13.3711
588 2 11.7692 103.002 13.5403
589 2 15.8976 106.936 13.3758
590 2 4.1813 107.276 13.0265
591 2 8.08835 107.248 13.1901
592 2 12.0277 107.074 13.2415
593 2 15.8312 110.832 13.1513
594 2 3.91335 110.922 13.1839
595 2 8.02062 111.008 13.1425
596 2 11.8162 111.079 13.2483
597 2 0.0946412 114.919 13.1736
598 2 4.11766 114.919 13.1008
599 2 8.04631 114.878 13.1797
600 2 11.9886 114.877 13.1521
601 2 -0.0877701 118.723 13.0847
602 2 3.78678 118.806 13.1517
603 2 7.86333 118.842 13.1129
604 2 11.7535 118.712 13.1145
605 2 -0.0366172 122.708 13.0465
606 2 3.97974 122.75 13.1776
607 2 7.77989 122.671 13.2053
608 2 11.7784 122.809 13.2615
609 2 -0.0885386 126.725 12.873
610 2 4.09602 126.749 13.1931
611 2 7.85446 126.661 12.9574
612 2 11.8502 126.624 12.9849
613 2 -0.112988 130.588 12.9476
614 2 4.03524 130.527 13.2193
615 2 7.76339 130.583 13.0848
616 2 11.7085 130.56 13.0979
617 2 -0.0518976 134.497 12.9177
618 2 4.13763 134.416 13.0465
619 2 7.97089 134.505 12.9679
620 2 11.795 134.574 12.9962
621 2 15.7235 138.268 12.7749
622 2 4.17759 138.246 12.787
623 2 7.78724 138.152 12.7395
624 2 11.8688 138.467 12.9501
625 2 0.0411522 142.357 12.7093
626 2 3.87166 142.191 12.6846
627 2 7.97985 142.329 12.8132
628 2 11.6964 142.449 12.892
629 2 15.8002 146.237 12.743
630 2 3.90661 146.135 12.8387
631 2 7.7613 146.269 12.6768
632 2 11.8448 146.348 12.9494
633 2 15.8428 150.079 12.7353
634 2 3.82812 150.11 12.5857
635 2 7.74473 150.068 12.4829
636 2 11.7593 150.087 12.778
637 2 15.7794 154.053 12.5321
638 2 3.87662 154.038 12.5323
639 2 7.95486 153.958 12.6333
640 2 11.883 153.953 12.8194
641 2 -0.174974 157.993 16.4928
642 2 3.83037 158.12 16.6881
643 2 7.75393 157.911 16.4366
644 2 11.7402 158.06 16.6286
645 2 15.7268 3.62969 16.6605
646 2 3.9818 3.66364 16.5991
647 2 7.83978 3.50379 16.7118
648 2 11.8884 3.66875 16.5628
649 2 16.0145 7.64877 16.4458
650 2 3.7961 7.55657 16.5446
651 2 7.9662 7.38898 16.5043
652 2 11.8044 7.61818 16.5665
653 2 15.8179 11.4128 16.4445
654 2 4.03208 11.5499 16.6579
655 2 7.86395 11.5802 16.5128
656 2 11.8659 11.1916 16.3651
657 2 16.1214 15.3644 16.3174
658 2 4.16629 15.3744 16.4173
659 2 8.1932 15.3443 16.5287
660 2 11.9965 15.4403 16.4383
661 2 15.8466 19.2489 16.4941
662 2 3.84702 19.1591 16.3955
663 2 7.93343 19.2457 16.5197
664 2 11.8906 19.1736 16.2837
665 2 0.136461 23.0832 16.2381
666 2 4.07204 23.0766 16.2633
667 2 8.11665 22.9686 16.3415
668 2 11.8961 22.8484 16.3709
669 2 0.0788216 26.9347 16.2748
670 2 4.09697 27.2422 16.2749
671 2 8.22758 27.0737 16.2527
672 2 11.9956 26.9193 16.362
673 2 0.098457 30.8396 16.0932
674 2 3.96529 31.2241 16.4465
675 2 8.20166 30.8651 16.3748
676 2 12.2028 31.0472 16.2173
677 2 15.8277 35.0269 16.5128
678 2 4.11176 35.1393 16.2653
679 2 8.04984 34.814 16.2592
680 2 12.0604 35.0243 16.235
681 2 0.0181606 38.8024 16.497
682 2 3.81559 39.0768 16.4255
683 2 7.74938 39.0831 16.4181
684 2 11.8273 39.0144 16.6226
685 2 -0.0839942 43.1507 16.61
686 2 3.95234 42.9566 16.4346
687 2 8.0946 43.1453 16.4596
688 2 11.8924 42.9444 16.5088
689 2 15.715 47.0238 16.6282
690 2 3.91807 47.1071 16.4596
691 2 7.94167 47.0909 16.5322
692 2 11.8002 47.1327 16.6364
693 2 15.7595 50.9817 16.5998
694 2 4.02111 51.1427 16.604
695 2 8.09091 51.1813 16.516
696 2 11.9046 51.1824 16.64
697 2 0.186618 55.141 16.5455
698 2 3.96622 55.1724 16.5711
699 2 8.00387 55.1149 16.5963
700 2 11.8678 55.1873 16.7499
701 2 -0.0844681 59.0622 16.9184
702 2 3.75532 59.1482 16.8869
703 2 7.63354 59.2391 16.8861
704 2 11.8509 59.2275 16.7519
705 2 -0.0156015 63.3088 16.819
706 2 3.96885 63.3035 16.8868
707 2 7.78391 63.1467 16.8901
708 2 11.8492 63.2414 16.844
709 2 15.9205 67.4554 16.9925
710 2 3.93794 67.1789 16.9977
711 2 7.94442 67.1509 17.0649
712 2 11.8535 67.125 17.0363
713 2 15.9117 71.3357 17.0675
714 2 4.02543 71.235 16.934
715 2 8.17955 71.2185 17.0841
716 2 11.9133 71.2563 16.9866
717 2 16.1351 75.388 17.0664
718 2 4.13893 75.2404 17.2366
719 2 7.92278 75.3085 17.1208
720 2 11.9686 75.3178 17.2663
721 2 15.9644 79.3103 17.2643
722 2 4.13892 79.3377 17.132
723 2 8.04721 79.433 17.211
724 2 11.8712 79.3192 17.3083
725 2 -0.00883808 83.336 17.145
726 2 3.95296 83.4242 17.2735
727 2 7.84468 83.3579 17.1163
728 2 11.819 83.2789 17.2818
729 2 15.6811 87.1889 17.4717
730 2 3.91435 87.377 17.4536
731 2 8.01289 87.2931 17.3069
732 2 12.0065 87.4654 17.4501
733 2 0.104775 91.5093 17.4275
734 2 3.8655 91.4469 17.4919
735 2 7.81244 91.3617 17.5214
736 2 11.9227 91.508 17.7396
737 2 0.366918 95.4764 17.3599
738 2 4.04016 95.4223 17.5902
739 2 7.99455 95.406 17.4868
740 2 11.8121 95.3552 17.5897
741 2 -0.271702 99.2586 17.4384
742 2 3.83156 99.2174 17.5065
743 2 7.8938 99.3805 17.3619
744 2 11.8199 99.2478 17.4998
745 2 0.0714453 103.293 17.3943
746 2 3.88972 103.289 17.0724
747 2 7.94778 103.101 17.3214
748 2 11.9495 103.322 17.3971
749 2 15.6686 107.162 17.34
750 2 4.0784 107.345 17.3466
751 2 7.85188 107.122 17.4182
752 2 11.7482 107.245 17.3342
753 2 -0.0890361 111.062 17.2669
754 2 3.88692 111.11 17.3279
755 2 7.83351 111.028 17.1123
756 2 11.8308 111.14 17.1922
757 2 -0.104236 114.962 17.0281
758 2 3.92873 115.005 17.1035
759 2 7.8907 115.036 17.2524
760 2 11.7632 114.777 17.3082
761 2 15.7494 118.847 17.0781
762 2 4.00664 118.713 17.0001
763 2 8.02551 118.819 17.3076
764 2 11.9622 118.861 17.2255
765 2 0.0609179 122.844 17.1074
766 2 3.92331 122.994 17.0393
767 2 7.91133 122.791 16.9198
768 2 11.8596 122.771 17.1905
769 2 0.147265 126.741 17.1445
770 2 3.90019 126.596 17.2688
771 2 7.89134 126.889 17.2902
772 2 11.8445 126.693 17.1511
773 2 15.776 130.753 16.9665
774 2 3.76173 130.61 17.0305
775 2 7.87677 130.586 16.9994
776 2 11.8741 130.811 16.9693
777 2 -0.160017 134.605 16.8771
778 2 3.83226 134.543 17.17
779 2 7.85007 134.518 17.1175
780 2 11.7733 134.634 16.9728
781 2 15.7262 138.496 16.7241
782 2 3.7931 138.324 16.8852
783 2 7.81556 138.353 17.0778
784 2 11.7395 138.439 16.8939
785 2 -0.00848754 142.41 16.8599
786 2 3.83293 142.225 16.7223
787 2 7.70125 142.203 16.706
788 2 11.7923 142.161 16.7429
789 2 0.177831 146.073 16.7796
790 2 3.81335 146.177 16.7821
791 2 7.53719 146.335 16.6579
792 2 11.6702 146.206 16.9098
793 2 15.758 149.899 16.6837
794 2 3.91103 150.23 16.7108
795 2 7.73094 150.145 16.7075
796 2 11.8297 150.04 16.7825
797 2 0.0158131 154.065 16.7865
798 2 3.94013 154.135 16.8571
799 2 7.8168 153.996 16.6981
800 2 11.7511 153.938 16.5715
801 2 -0.116427 157.95 20.7627
802 2 3.8078 157.959 20.5804
803 2 7.8744 157.962 20.8123
804 2 11.864 157.972 20.6419
805 2 -0.0766743 3.66562 20.6789
806 2 3.98536 3.60449 20.6797
807 2 7.97148 3.71403 20.7273
808 2 11.857 3.64404 20.709
809 2 0.112096 7.55968 20.5896
810 2 3.86445 7.51492 20.5455
811 2 7.91261 7.48646 20.506
812 2 11.952 7.38849 20.4479
813 2 0.0933049 11.4985 20.4596
814 2 3.98277 11.3543 20.552
815 2 8.00209 11.4454 20.4392
816 2 11.9831 11.3022 20.4907
817 2 15.8381 15.4068 20.4872
818 2 3.89874 15.3142 20.6825
819 2 8.02941 15.29 20.5813
820 2 11.7396 15.1484 20.3734
821 2 0.109332 19.1617 20.3042
822 2 4.13649 19.482 20.4859
823 2 7.93699 19.1776 20.4971
824 2 11.9079 19.1439 20.5081
825 2 0.15761 23.1125 20.544
826 2 4.09834 23.3641 20.4088
827 2 7.95873 23.3142 20.161
828 2 12.0069 23.0498 20.3328
829 2 16.0276 27.0212 20.2468
830 2 4.18762 27.1464 20.225
831 2 7.90177 27.3478 20.2481
832 2 11.986 27.0294 20.2394
833 2 15.9742 30.9881 20.2835
834 2 3.868 30.868 20.4105
835 2 8.20549 31.0969 20.1676
836 2 12.1561 30.8474 20.2229
837 2 0.124134 34.8141 20.1986
838 2 4.04428 34.8877 20.2247
839 2 7.71571 34.9622 20.1234
840 2 11.733 34.9692 20.2514
841 2 15.7903 38.9251 20.5243
842 2 3.97676 38.9304 20.4477
843 2 7.84771 38.99 20.4015
844 2 11.6818 38.7435 20.3713
845 2 15.6998 43.037 20.2084
846 2 4.00439 42.911 20.3748
847 2 7.80876 43.1237 20.4636
848 2 11.9746 43.1022 20.5656
849 2 0.14559 47.0329 20.4496
850 2 3.83556 47.1088 20.3167
851 2 7.86218 47.0351 20.4824
852 2 11.9102 47.0535 20.5727
853 2 15.8321 51.0389 20.6554
854 2 3.81903 51.0517 20.6343
855 2 7.88442 51.1769 20.6419
856 2 11.8227 50.9718 20.4402
857 2 15.8185 55.0606 20.6167
858 2 3.89165 55.0418 20.4913
859 2 7.9295 55.2287 20.6476
860 2 11.7878 55.0915 20.6091
861 2 15.6571 59.0344 20.773
862 2 3.81828 59.1989 20.8018
863 2 7.8949 58.9133 20.7542
864 2 11.8515 59.2453 20.6782
865 2 15.8247 63.1734 20.8385
866 2 4.15334 63.1659 20.901
867 2 7.89329 63.1147 20.9234
868 2 11.8543 63.0154 20.8129
869 2 15.8606 66.9655 20.7439
870 2 3.92347 67.3892 20.6517
871 2 7.87819 67.0854 21.017
872 2 11.9238 67.268 21.1714
873 2 0.146723 71.2784 21.0256
874 2 4.13723 71.3153 20.8168
875 2 7.93198 71.1486 20.9539
876 2 11.9445 71.2271 20.904
877 2 15.9342 75.2245 21.103
878 2 3.91295 75.2482 20.9534
879 2 8.03197 75.19 20.9064
880 2 12.0684 75.3874 21.0012
881 2 15.7193 79.343 20.9456
882 2 3.89526 79.367 21.2659
883 2 7.72197 79.3089 20.9803
884 2 11.9835 79.217 21.0645
885 2 0.0870216 83.3458 21.5642
886 2 3.81745 83.3371 21.2275
887 2 7.87343 83.3284 21.2188
888 2 11.8403 83.4745 21.1529
889 2 -0.065505 87.3922 21.5319
890 2 3.99637 87.3706 21.1147
891 2 8.01262 87.4813 21.3454
892 2 11.8334 87.2894 21.1977
893 2 0.112066 91.337 21.4668
894 2 3.96589 91.4772 21.5388
895 2 7.96771 91.2787 21.4092
896 2 12.0961 91.3879 21.5139
897 2 0.200076 95.2979 21.4686
898 2 4.02238 95.3894 21.3687
899 2 7.83571 95.2933 21.5885
900 2 11.7973 95.2003 21.5128
901 2 15.8402 99.3679 21.5846
902 2 3.83383 99.453 21.4421
903 2 7.81392 99.2575 21.329
904 2 12.0066 99.2564 21.2904
905 2 15.8 103.194 21.5689
906 2 4.1103 103.393 21.2731
907 2 7.8901 103.202 21.1324
908 2 11.7258 103.23 21.3807
909 2 15.8061 107.179 21.2857
910 2 4.00113 107.121 21.3884
911 2 7.93969 107.131 21.2177
912 2 11.8015 107.096 21.4381
913 2 15.8867 111.022 21.25
914 2 4.07835 111.149 21.2276
915 2 7.98568 111.125 21.0424
916 2 11.8528 110.962 21.3669
917 2 15.8271 114.905 21.3327
918 2 3.82183 115.033 21.0668
919 2 7.89868 115.05 21.3694
920 2 11.9492 115.172 21.1946
921 2 15.7079 118.76 21.1061
922 2 3.83603 118.985 21.0905
923 2 7.80439 119.121 21.1226
924 2 11.9558 119.026 21.1728
925 2 -0.122775 122.857 21.1924
926 2 3.84153 122.687 21.1924
927 2 7.81849 122.917 21.099
928 2 11.7821 122.969 21.1288
929 2 15.5945 126.802 20.9028
930 2 3.87147 126.84 20.9836
931 2 7.91843 126.598 21.1859
932 2 11.8507 126.871 21.0362
933 2 -0.0745277 130.629 20.9556
934 2 3.94058 130.604 20.8492
935 2 7.86458 130.752 21.2366
936 2 11.8619 130.569 21.0452
937 2 -0.191528 134.546 21.0112
938 2 3.80696 134.571 21.1239
939 2 7.8336 134.542 20.86
940 2 11.7687 134.366 21.0285
941 2 15.697 138.484 20.9714
942 2 3.9759 138.347 20.9239
943 2 7.74219 138.556 20.965
944 2 11.6941 138.345 20.9937
945 2 15.6939 142.305 20.7322
946 2 3.96267 142.52 20.8433
947 2 7.88117 142.443 20.7012
948 2 11.7366 142.216 20.8885
949 2 15.8416 146.223 20.8068
950 2 4.00132 146.381 20.6954
951 2 7.6904 146.185 20.8254
952 2 11.6203 146.306 20.6217
953 2 0.0359331 150.15 20.8088
954 2 3.70593 150.211 20.9039
955 2 7.96776 150.219 20.7498
956 2 11.8628 150.233 20.683
957 2 0.0128326 153.964 20.7778
958 2 4.0595 154.201 20.6288
959 2 7.89637 153.981 20.652
960 2 11.9189 154.132 20.821
961 2 15.7646 -0.323344 24.7048
962 2 3.85001 157.982 24.7277
963 2 7.83501 158.201 24.672
964 2 11.9616 158.108 24.8416
965 2 -0.0262184 3.65756 24.6492
966 2 3.86092 3.5223 24.5079
967 2 7.84736 3.79119 24.6546
968 2 11.8103 3.68811 24.7147
969 2 0.00782646 7.57773 24.8212
970 2 4.04537 7.52885 24.5867
971 2 7.7113 7.59386 24.6334
972 2 11.9397 7.46809 24.6256
973 2 15.7263 11.5122 24.4083
974 2 3.96001 11.3254 24.3799
975 2 8.01013 11.5525 24.5583
976 2 11.7361 11.4648 24.5579
977 2 15.9684 15.2819 24.42
978 2 4.0528 15.4074 24.5815
979 2 7.99401 15.5215 24.5422
980 2 12.1498 15.4303 24.5569
981 2 -0.148745 19.2751 24.6455
982 2 3.79173 19.376 24.4877
983 2 7.89229 19.3068 24.5073
984 2 11.9154 19.3021 24.4834
985 2 -0.0501484 23.1422 24.4408
986 2 3.98347 23.3415 24.3154
987 2 7.86362 23.1764 24.4387
988 2 11.8976 23.0497 24.4254
989 2 0.0765122 27.1299 24.4548
990 2 4.24468 27.1262 24.4228
991 2 8.14614 27.1744 24.2831
992 2 11.7263 26.7212 24.3035
993 2 -0.0721916 30.8511 24.2742