ITEM: TIMESTEP
15300
ITEM: NUMBER OF ATOMS
32000
ITEM: BOX BOUNDS xy xz yz pp pp pp
0.0000000000000000e+00 1.5832000000000001e+01 0.0000000000000000e+00
0.0000000000000000e+00 1.5831999999999999e+02 0.0000000000000000e+00
8.1367827722915820e-01 1.6016343972276974e+02 0.0000000000000000e+00
ITEM: ATOMS id type x y z
1 2 16.0201 157.69 159.917
2 2 3.97048 157.851 159.87
3 2 7.76587 157.763 159.754
4 2 11.9518 157.679 159.736
5 2 0.0140542 3.30459 159.933
6 2 3.95124 3.44936 159.889
7 2 7.87809 3.24155 159.828
8 2 11.5655 3.3829 159.68
9 2 15.8874 7.16155 159.931
10 2 4.08402 7.19407 159.71
11 2 7.85941 7.20404 159.67
12 2 11.8412 7.13068 159.763
13 2 0.214506 11.1757 159.559
14 2 4.01187 10.9619 159.595
15 2 7.88855 11.3502 159.737
16 2 11.8981 11.1328 159.916
17 2 -0.180165 15.2915 159.563
18 2 4.06178 15.195 159.992
19 2 7.90723 15.0473 159.772
20 2 11.8033 15.2242 159.657
21 2 0.0875526 19.2134 159.864
22 2 4.08662 19.0289 159.784
23 2 7.83831 19.3605 160.029
24 2 11.6743 19.1063 159.916
25 2 15.7547 23.1962 159.958
26 2 3.75592 23.1062 160.042
27 2 7.88143 23.2105 160.008
28 2 11.8952 23.2893 159.947
29 2 -0.0506439 27.2618 159.99
30 2 3.86813 27.1551 160.132
31 2 7.86651 27.1865 159.925
32 2 11.9432 27.3677 159.79
33 2 -0.0363618 31.4111 159.982
34 2 3.78994 31.228 160.069
35 2 7.91329 31.3572 159.985
36 2 11.9704 31.2244 160.05
37 2 15.7569 35.3274 0.555837
38 2 3.91181 35.4934 159.98
39 2 7.90528 35.3281 160.095
40 2 11.8164 35.3692 160.178
41 2 -0.0901747 39.3787 0.695009
42 2 3.7243 39.5171 0.627081
43 2 7.77534 39.341 160.319
44 2 12.0019 39.3481 160.206
45 2 15.7703 43.3657 0.948614
46 2 3.85874 43.4635 0.676986
47 2 7.90888 43.4737 0.952982
48 2 11.7319 43.3126 160.233
49 2 -0.156273 47.3628 1.02589
50 2 4.02699 47.3571 0.720387
51 2 7.77447 47.4702 0.774796
52 2 11.7609 47.669 0.95981
53 2 -0.0472812 51.4118 0.934827
54 2 3.89226 51.4811 1.05647
55 2 7.85485 51.4757 1.00735
56 2 11.7953 51.4694 0.863062
57 2 15.8916 55.3694 1.11986
58 2 3.86747 55.4458 1.02284
59 2 7.96499 55.3201 1.24535
60 2 11.8507 55.5057 1.05239
61 2 15.7803 59.7702 1.09534
62 2 3.9452 59.6601 1.05008
63 2 7.85346 59.3906 1.11873
64 2 11.935 59.5417 1.26854
65 2 -0.0347217 63.8124 1.1098
66 2 4.26973 63.7217 1.18484
67 2 7.92291 63.6644 1.02035
68 2 11.9224 63.771 1.12062
69 2 16.0813 67.5756 1.26123
70 2 4.19624 67.4925 1.3022
71 2 8.01338 67.5118 1.27839
72 2 12.133 67.6069 1.36229
73 2 16.0555 71.4721 1.24654
74 2 4.36616 71.5474 1.37386
75 2 8.11465 71.4808 1.38038
76 2 11.9945 71.3934 1.36532
77 2 0.135895 75.5432 1.52682
78 2 4.24554 75.601 1.58482
79 2 8.42654 75.5817 1.57133
80 2 12.1651 75.4975 1.41991
81 2 0.14426 79.5551 1.57763
82 2 4.32532 79.5023 1.49443
83 2 8.34526 79.5959 1.57113
84 2 12.0397 79.5408 1.8314
85 2 0.0653174 83.3529 1.70882
86 2 4.26414 83.6682 1.54107
87 2 8.02877 83.4134 1.65239
88 2 12.0544 83.4626 1.52025
89 2 15.8281 87.4299 1.72521
90 2 4.05089 87.3026 1.70921
91 2 7.96206 87.4094 1.6503
92 2 11.9122 87.4297 1.55738
93 2 15.857 91.3945 1.67467
94 2 3.88014 91.2638 1.4385
95 2 7.87832 91.2329 1.47441
96 2 11.9619 91.3262 1.39065
97 2 -0.118686 95.3123 1.46092
98 2 3.7484 95.3732 1.50467
99 2 7.84753 95.2463 1.45162
100 2 11.7742 95.1575 1.51464
101 2 15.7481 99.2186 1.40285
102 2 4.0964 99.1651 1.30811
103 2 7.87856 99.1624 1.35517
104 2 11.8719 98.9405 1.33786
105 2 0.0257172 103.163 1.36726
106 2 4.10244 103.092 1.17969
107 2 8.00146 103.036 1.22687
108 2 12.0887 103.072 1.4181
109 2 15.9721 107.113 1.17723
110 2 4.24437 106.985 1.17536
111 2 8.09499 106.933 1.10227
112 2 12.021 107.143 1.30669
113 2 15.8638 110.918 1.06959
114 2 4.04538 110.768 1.07238
115 2 8.02991 110.906 0.993498
116 2 12.0275 110.886 1.1729
117 2 0.101443 114.733 0.973511
118 2 4.09812 114.833 1.12958
119 2 7.98101 114.64 1.16202
120 2 11.8464 114.448 0.996412
121 2 15.8946 118.623 0.990083
122 2 4.20283 118.576 1.14759
123 2 8.13205 118.693 1.04192
124 2 12.2477 118.728 0.82341
125 2 15.9161 122.585 0.838664
126 2 3.94624 122.63 0.850792
127 2 7.8353 122.647 0.872884
128 2 11.8645 122.645 1.01584
129 2 -0.0266079 126.56 0.977153
130 2 3.99081 126.541 0.99765
131 2 7.86142 126.464 0.91902
132 2 11.8013 126.318 0.867979
133 2 15.6121 130.398 0.62604
134 2 3.88881 130.431 0.767281
135 2 7.85705 130.427 0.791467
136 2 11.879 130.525 160.048
137 2 0.181908 134.067 0.665484
138 2 3.99099 134.484 0.743388
139 2 7.8974 134.307 0.802823
140 2 12.0639 134.05 0.59382
141 2 0.226763 138.242 0.626966
142 2 4.03975 138.272 160.097
143 2 8.06777 138.261 160.096
144 2 12.0538 138.181 160.049
145 2 15.8161 142.12 0.630434
146 2 3.96057 142.199 160.036
147 2 7.92073 142.142 159.953
148 2 11.845 142.017 160.129
149 2 -0.0258136 146.02 159.974
150 2 3.94295 146.092 159.979
151 2 7.92035 146.08 160.029
152 2 11.875 146.115 159.914
153 2 -0.256019 149.91 159.786
154 2 3.87521 149.957 159.935
155 2 7.79664 149.845 159.765
156 2 11.8398 149.986 159.901
157 2 -0.0889362 153.69 159.847
158 2 3.95535 153.757 159.836
159 2 7.89935 153.873 159.761
160 2 11.7756 153.87 159.907
161 2 15.8386 157.635 4.37408
162 2 3.86197 157.849 4.48297
163 2 7.87494 157.834 4.44916
164 2 11.9283 157.793 4.36651
165 2 -0.111621 3.41272 4.45407
166 2 3.82713 3.3723 4.54342
167 2 7.94997 3.41529 4.61173
168 2 11.8275 3.26961 4.39524
169 2 -0.0670367 7.30866 4.32714
170 2 3.88358 7.20137 4.40899
171 2 8.01918 7.18333 4.47465
172 2 11.9509 7.45774 4.47167
173 2 -0.0580305 11.263 4.58252
174 2 4.0206 11.1084 4.37685
175 2 8.07296 11.1456 4.30952
176 2 11.9172 11.1887 4.38097
177 2 0.104219 15.0827 4.20617
178 2 4.05501 14.9904 4.38566
179 2 7.98276 15.0135 4.49248
180 2 12.107 15.1166 4.55517
181 2 -0.162399 19.0031 4.19824
182 2 3.78407 19.0572 4.39339
183 2 7.84586 19.1293 4.32402
184 2 11.7729 18.9897 4.32545
185 2 -0.135118 23.2819 4.39476
186 2 3.89359 23.0412 4.58177
187 2 8.00832 23.1589 4.49482
188 2 11.8066 23.0747 4.57896
189 2 15.8125 27.1905 4.58522
190 2 3.84116 27.1768 4.63542
191 2 7.95329 27.2292 4.38423
192 2 11.8402 27.2662 4.68019
193 2 15.845 31.3947 4.65581
194 2 4.15258 31.0659 4.55229
195 2 7.78607 31.1412 4.8122
196 2 12.1449 31.1367 4.64251
197 2 15.9307 35.2137 4.58768
198 2 3.71005 35.261 4.50413
199 2 7.93104 35.3065 4.50541
200 2 11.8007 35.2241 4.68478
201 2 15.5736 39.3048 4.59017
202 2 3.94636 39.2192 4.73664
203 2 7.81211 39.2652 4.91918
204 2 11.7878 39.2684 4.66584
205 2 0.151602 43.5096 4.59441
206 2 4.03773 43.4495 4.79201
207 2 7.86409 43.5221 4.79525
208 2 11.7592 43.3185 4.72169
209 2 -0.0869297 47.2365 4.75033
210 2 3.89401 47.2307 4.84608
211 2 7.87021 47.5246 4.75537
212 2 11.8021 47.5521 4.62794
213 2 -0.175135 51.3291 4.98255
214 2 3.894 51.312 4.99111
215 2 7.88938 51.345 4.89651
216 2 11.9056 51.3193 4.96162
217 2 15.7995 55.3926 4.92996
218 2 3.79857 55.4899 5.07407
219 2 7.90001 55.273 4.88836
220 2 11.8512 55.5666 5.07124
221 2 0.115129 59.333 4.95299
222 2 3.97984 59.326 4.95701
223 2 7.91944 59.3365 5.01779
224 2 11.7739 59.5057 5.17417
225 2 15.9358 63.3978 5.20742
226 2 3.98246 63.5223 5.11595
227 2 7.83937 63.4914 5.22716
228 2 11.7497 63.2984 5.06898
229 2 15.9522 67.5573 5.08681
230 2 3.92389 67.5274 5.29829
231 2 7.98117 67.47 5.28059
232 2 11.9115 67.4315 5.23363
233 2 16.1955 71.5502 5.27469
234 2 4.44429 71.4713 5.34005
235 2 7.95726 71.4081 5.40241
236 2 12.349 71.411 5.24825
237 2 16.0067 75.4598 5.46052
238 2 4.29896 75.5027 5.45102
239 2 8.28228 75.4019 5.38123
240 2 11.8701 75.5178 5.35794
241 2 16.1062 79.6031 5.59647
242 2 4.25099 79.5109 5.55315
243 2 8.13008 79.375 5.28915
244 2 12.1228 79.3496 5.65907
245 2 0.0739514 83.4591 5.49368
246 2 4.01998 83.4012 5.69185
247 2 7.99939 83.3859 5.7043
248 2 11.7719 83.6495 5.44144
249 2 0.0855771 87.4495 5.73576
250 2 4.0104 87.6346 5.50878
251 2 7.89596 87.5823 5.6151
252 2 11.8851 87.5051 5.50559
253 2 15.6523 91.3955 5.61339
254 2 3.82929 91.5351 5.34498
255 2 7.81026 91.4247 5.49321
256 2 11.8426 91.386 5.4666
257 2 15.8574 95.3353 5.43578
258 2 3.80818 95.389 5.44515
259 2 7.7189 95.2467 5.48161
260 2 11.8542 95.3355 5.52244
261 2 15.9347 99.2783 5.2746
262 2 4.03474 99.2761 5.35259
263 2 7.90051 99.3303 5.45894
264 2 12.0228 99.1749 5.29307
265 2 15.8115 103.134 5.24234
266 2 3.97015 103.013 5.26519
267 2 7.95338 103.176 5.30757
268 2 11.8756 103.161 5.28622
269 2 0.177442 106.923 5.34993
270 2 3.96337 107.066 5.21488
271 2 7.91051 107.145 5.21473
272 2 11.8935 106.983 5.36182
273 2 15.8238 111.043 5.19943
274 2 3.88632 110.898 5.22627
275 2 8.0253 110.768 5.02847
276 2 12.0578 110.743 4.97914
277 2 15.8083 114.865 5.0007
278 2 4.01308 114.898 5.17514
279 2 8.06619 114.649 5.11554
280 2 11.9253 115.052 5.01477
281 2 0.103375 118.666 5.17548
282 2 3.8806 118.789 5.06202
283 2 7.63759 118.812 4.89811
284 2 11.9483 118.688 4.91375
285 2 15.7604 122.63 5.01305
286 2 3.95644 122.569 5.06642
287 2 7.93348 122.758 4.7734
288 2 11.7912 122.672 5.0352
289 2 0.115633 126.543 4.69275
290 2 3.83443 126.557 4.76498
291 2 7.7792 126.491 4.9163
292 2 11.7653 126.614 4.98658
293 2 15.669 130.455 4.78109
294 2 4.01651 130.433 4.90983
295 2 7.73651 130.592 4.88517
296 2 11.7501 130.184 4.68076
297 2 -0.238998 134.289 4.51593
298 2 3.78364 134.333 4.82208
299 2 7.95029 134.435 4.84224
300 2 11.7575 134.285 4.8386
301 2 -0.176398 138.25 4.84012
302 2 3.87887 138.408 4.85664
303 2 7.82406 138.328 4.70304
304 2 11.8464 138.148 4.77874
305 2 0.0140002 142.234 4.82303
306 2 3.85419 142.195 4.78876
307 2 8.03298 142.197 4.70529
308 2 11.8734 142.23 4.61923
309 2 15.7352 146.032 4.60493
310 2 4.02806 146.05 4.57662
311 2 7.85965 146.076 4.67304
312 2 11.7931 145.981 4.84255
313 2 15.9 149.998 4.60204
314 2 3.89923 150.13 4.67032
315 2 7.80703 150.062 4.44965
316 2 11.7106 149.796 4.4712
317 2 -0.0150729 153.943 4.56966
318 2 3.98683 154.061 4.56917
319 2 7.8595 153.961 4.4677
320 2 11.713 153.737 4.45331
321 2 -0.0395788 157.56 8.35598
322 2 3.77658 157.738 8.40759
323 2 7.79825 157.839 8.62225
324 2 11.8539 157.844 8.45298
325 2 0.136647 3.25661 8.52017
326 2 3.94056 3.30262 8.45649
327 2 7.95535 3.34356 8.46115
328 2 11.8512 3.29074 8.47093
329 2 15.9152 7.25621 8.6979
330 2 4.01485 7.42457 8.49441
331 2 7.81119 7.45167 8.47184
332 2 11.9132 7.33832 8.56826
333 2 -0.071673 11.1973 8.41957
334 2 4.0721 11.2532 8.32683
335 2 8.09919 11.1565 8.42968
336 2 11.9274 11.4268 8.3916
337 2 0.163089 15.1163 8.44619
338 2 4.03976 15.2319 8.25558
339 2 7.88609 15.1974 8.39142
340 2 11.7595 15.119 8.63216
341 2 16.0139 19.0128 8.35494
342 2 4.1094 19.1773 8.36341
343 2 7.90622 18.9565 8.46771
344 2 12.0761 19.0172 8.34681
345 2 15.9419 23.0962 8.331
346 2 4.03755 22.963 8.40674
347 2 7.84791 23.0119 8.25968
348 2 11.7233 23.3256 8.39982
349 2 0.0700899 27.3034 8.70633
350 2 3.86764 27.1342 8.38236
351 2 7.92032 26.998 8.44141
352 2 11.9982 27.2206 8.37555
353 2 0.17758 31.1782 8.66214
354 2 4.15886 31.0826 8.37267
355 2 7.96351 31.2054 8.50724
356 2 11.7965 31.2465 8.5837
357 2 15.8753 35.0863 8.56158
358 2 3.97736 35.2665 8.69969
359 2 7.67921 35.2456 8.52549
360 2 11.8574 34.9817 8.36788
361 2 -0.149522 39.171 8.46458
362 2 3.91655 39.0883 8.601
363 2 7.95977 39.1684 8.54665
364 2 11.8024 39.1709 8.4883
365 2 15.7004 43.2969 8.62064
366 2 3.79736 43.2727 8.86018
367 2 7.9266 43.3709 8.72002
368 2 11.822 43.1367 8.65889
369 2 15.9147 47.179 8.65455
370 2 3.83837 47.4714 8.68597
371 2 7.72619 47.3668 8.80021
372 2 11.745 47.3973 8.788
373 2 16.0044 51.3638 8.82848
374 2 3.98979 51.2437 8.70478
375 2 8.06113 51.43 8.73143
376 2 11.9895 51.5731 8.51176
377 2 0.0167303 55.5208 8.79649
378 2 3.87073 55.4302 9.10039
379 2 7.70577 55.3135 8.83452
380 2 11.9886 55.5284 9.09548
381 2 0.0672307 59.3624 8.87285
382 2 4.1201 59.3426 8.9861
383 2 8.04375 59.4139 9.22389
384 2 11.6441 59.5787 8.92311
385 2 16.0012 63.3784 8.97842
386 2 4.1976 63.3409 8.98822
387 2 7.99903 63.4315 9.05427
388 2 12.0128 63.2967 9.07915
389 2 15.9692 67.5611 9.02609
390 2 4.11141 67.3993 9.17685
391 2 8.03315 67.2144 9.08182
392 2 12.0133 67.4653 9.10537
393 2 15.8695 71.5659 9.19166
394 2 4.04188 71.5102 9.10398
395 2 7.87422 71.4414 9.2394
396 2 11.8954 71.4546 9.37412
397 2 15.8506 75.4072 9.27431
398 2 4.17036 75.5149 9.42649
399 2 8.14987 75.6358 9.47781
400 2 11.9633 75.3503 9.22179
401 2 16.0939 79.5895 9.3491
402 2 4.21596 79.5085 9.25126
403 2 8.21517 79.6123 9.49543
404 2 12.0154 79.4752 9.48893
405 2 15.8237 83.6615 9.64337
406 2 4.01914 83.613 9.58591
407 2 7.97012 83.4778 9.56552
408 2 11.9491 83.2971 9.52507
409 2 -0.0522257 87.2921 9.54936
410 2 3.91442 87.4048 9.44246
411 2 8.04868 87.5673 9.51441
412 2 12.0174 87.453 9.55237
413 2 -0.106004 91.3565 9.58854
414 2 3.89179 91.2686 9.38994
415 2 8.03306 91.5474 9.43958
416 2 11.9796 91.4708 9.5443
417 2 0.0307476 95.4538 9.55742
418 2 3.87355 95.4058 9.3948
419 2 7.89557 95.3658 9.47554
420 2 11.7947 95.2516 9.35287
421 2 -0.0345577 99.1857 9.42373
422 2 3.93046 99.374 9.44794
423 2 8.03388 99.3772 9.43073
424 2 11.9281 99.3553 9.32998
425 2 15.8682 103.116 9.44673
426 2 4.08459 103.188 9.29738
427 2 7.9147 103.326 9.43545
428 2 11.8458 103.216 9.48548
429 2 -0.156675 107.157 9.3792
430 2 3.98629 107.314 9.32407
431 2 7.90374 107.057 9.31904
432 2 11.9143 107.089 9.27221
433 2 15.8665 111.05 9.06233
434 2 3.82554 110.926 9.27307
435 2 8.0285 111.087 9.14663
436 2 11.8153 110.997 9.18215
437 2 15.8777 114.765 9.29668
438 2 3.9424 114.861 9.18034
439 2 7.85994 114.909 9.04429
440 2 11.7861 114.985 9.06366
441 2 0.0363339 118.732 9.02385
442 2 3.94434 118.866 9.12542
443 2 7.82672 118.744 9.053
444 2 11.8119 118.899 9.07593
445 2 15.781 122.713 8.97385
446 2 3.89776 122.727 9.10754
447 2 8.10162 122.601 9.14215
448 2 11.7905 122.652 8.99733
449 2 15.7576 126.48 9.00063
450 2 3.81524 126.546 8.83515
451 2 7.73745 126.576 8.80929
452 2 11.916 126.701 8.87918
453 2 15.7817 130.53 8.88003
454 2 4.06253 130.463 8.90111
455 2 7.86167 130.569 8.79648
456 2 11.8762 130.532 8.81765
457 2 -0.0355345 134.581 9.0141
458 2 3.5288 134.212 8.78854
459 2 7.81872 134.552 8.73409
460 2 11.5844 134.304 8.92367
461 2 -0.141047 138.344 8.74084
462 2 3.9397 138.413 8.6947
463 2 7.7035 138.41 8.88661
464 2 11.7729 138.266 8.83311
465 2 -0.0963936 142.016 8.98262
466 2 3.80913 142.462 8.77894
467 2 7.80738 142.24 8.82675
468 2 11.7134 142.304 8.89326
469 2 -0.213722 146.035 8.63566
470 2 3.86297 146.053 8.51381
471 2 7.9206 146.123 8.73372
472 2 11.912 146.12 8.74018
473 2 15.6475 149.999 8.55813
474 2 3.88963 149.915 8.51954
475 2 7.83394 149.892 8.58257
476 2 11.7908 149.97 8.65753
477 2 0.0163859 153.943 8.71191
478 2 3.93105 153.883 8.55227
479 2 7.94871 154.017 8.6477
480 2 11.8753 153.897 8.59167
481 2 15.935 157.875 12.5432
482 2 4.00392 157.838 12.768
483 2 7.93049 157.949 12.5432
484 2 11.85 157.926 12.5669
485 2 0.00949829 3.3723 12.5219
486 2 4.03864 3.36393 12.4045
487 2 7.85122 3.74745 12.5185
488 2 11.779 3.49913 12.3437
489 2 0.0326394 7.29012 12.5798
490 2 4.01503 7.34121 12.6322
491 2 7.96753 7.48055 12.494
492 2 11.8291 7.25671 12.4641
493 2 -0.299677 11.2953 12.3555
494 2 3.97531 11.143 12.4669
495 2 7.92249 11.3359 12.5338
496 2 11.8065 11.2907 12.3069
497 2 0.0744508 15.1597 12.4699
498 2 3.83571 15.0915 12.4182
499 2 7.78332 15.0679 12.413
500 2 11.9689 15.227 12.6736
501 2 0.0932793 19.0664 12.1721
502 2 4.20889 18.9849 12.2372
503 2 7.86572 19.1585 12.3407
504 2 11.7948 19.1437 12.203
505 2 0.0911914 23.0867 12.3052
506 2 4.2218 23.0818 12.3534
507 2 8.11477 23.1683 12.1901
508 2 12.0116 23.2017 12.3177
509 2 15.8716 27.114 12.4077
510 2 4.03736 27.1034 12.3221
511 2 7.98874 26.9678 12.3181
512 2 11.9967 27.2796 12.3258
513 2 15.9335 30.9784 12.5163
514 2 3.93914 31.1212 12.5968
515 2 7.72234 30.8989 12.3993
516 2 11.6149 31.0475 12.2652
517 2 15.8747 35.0348 12.5788
518 2 4.04357 35.0752 12.4068
519 2 7.73627 35.2315 12.7148
520 2 11.8418 35.1761 12.454
521 2 15.7914 39.3312 12.1845
522 2 3.93687 38.9838 12.4382
523 2 8.16418 39.1838 12.4851
524 2 11.9459 39.1068 12.5013
525 2 15.7798 43.0978 12.4642
526 2 3.85782 43.1666 12.6698
527 2 7.81383 43.0185 12.5552
528 2 11.8336 43.2846 12.5884
529 2 0.141389 47.4096 12.5807
530 2 3.84602 47.1459 12.6777
531 2 7.64053 47.2374 12.6767
532 2 11.7084 47.43 12.6614
533 2 15.7727 51.2414 12.752
534 2 3.94948 51.246 12.8661
535 2 7.64698 51.4139 12.8548
536 2 11.7473 51.2217 12.518
537 2 -0.0307018 55.2232 12.7689
538 2 3.84372 55.1143 12.8935
539 2 8.06368 55.302 12.8793
540 2 11.9489 55.203 12.8975
541 2 0.00798864 59.374 12.7749
542 2 4.08113 59.3484 12.8897
543 2 8.00868 59.2762 12.9851
544 2 11.907 59.2114 13.021
545 2 0.197415 63.3398 12.8488
546 2 4.06897 63.4156 12.91
547 2 8.01762 63.4158 13.0564
548 2 12.0046 63.3583 12.9838
549 2 15.8443 67.4459 13.1088
550 2 4.07408 67.4351 13.0326
551 2 8.07266 67.2889 13.097
552 2 12.1093 67.2223 12.8651
553 2 15.7573 71.4741 13.3239
554 2 3.92845 71.3708 13.0211
555 2 7.98494 71.339 13.2299
556 2 11.9422 71.5163 12.986
557 2 15.9202 75.4616 13.3655
558 2 4.1456 75.3673 13.2197
559 2 7.97792 75.4283 13.1922
560 2 11.9541 75.5167 13.2084
561 2 15.9995 79.2514 13.3384
562 2 4.16969 79.339 13.2965
563 2 8.05953 79.3308 13.2915
564 2 11.8262 79.3754 13.4844
565 2 15.9309 83.5695 13.5351
566 2 4.04482 83.4354 13.5154
567 2 8.25237 83.642 13.262
568 2 12.0721 83.3487 13.4498
569 2 0.187881 87.4179 13.4184
570 2 4.07423 87.5392 13.5422
571 2 8.02219 87.4784 13.4302
572 2 11.9207 87.7518 13.3298
573 2 15.8444 91.575 13.5033
574 2 4.10458 91.5083 13.679
575 2 8.1174 91.4094 13.4338
576 2 12.0993 91.447 13.5944
577 2 16.0719 95.4707 13.4511
578 2 4.11266 95.4643 13.4126
579 2 8.02083 95.4315 13.4287
580 2 12.0607 95.3849 13.5436
581 2 15.9504 99.2459 13.1581
582 2 4.02817 99.3896 13.2256
583 2 8.02588 99.1301 13.3252
584 2 11.9607 99.3356 13.4551
585 2 16.1578 103.186 13.4268
586 2 4.07542 103.198 13.3967
587 2 7.90764 103.339 13.4143
588 2 11.9055 103.117 13.4964
589 2 15.882 107.123 13.3344
590 2 4.18359 107.211 13.2853
591 2 8.09102 107.234 13.2803
592 2 11.9178 107.121 13.2792
593 2 15.8024 110.979 13.3326
594 2 3.88028 111.15 13.3819
595 2 7.8773 111.103 13.2296
596 2 11.7371 111.133 13.1826
597 2 -0.0358885 115.012 13.1095
598 2 4.0349 114.857 13.1821
599 2 7.91909 114.895 13.203
600 2 11.8534 114.956 13.2067
601 2 -0.205259 118.8 13.1166
602 2 3.7056 118.84 12.9737
603 2 7.83029 118.774 13.0358
604 2 11.7156 118.672 13.1611
605 2 -0.167331 122.571 12.9622
606 2 3.78218 122.553 12.863
607 2 7.84872 122.691 13.1145
608 2 11.7118 122.852 13.2431
609 2 -0.298208 126.636 12.7834
610 2 3.95372 126.705 13.0764
611 2 7.93467 126.514 12.8971
612 2 11.8202 126.435 12.9506
613 2 0.00498994 130.417 12.9763
614 2 3.94839 130.647 12.9581
615 2 7.68717 130.519 12.9559
616 2 11.69 130.558 12.9339
617 2 0.104617 134.508 12.7483
618 2 3.83782 134.465 12.837
619 2 7.96995 134.44 12.8758
620 2 11.7774 134.492 13.0184
621 2 15.7864 138.271 12.844
622 2 3.76334 138.343 12.7896
623 2 7.73575 138.191 12.8361
624 2 11.7918 138.388 12.8786
625 2 -0.267239 142.181 12.7671
626 2 3.83541 142.167 12.7854
627 2 7.84433 142.116 12.7711
628 2 11.6744 142.166 12.9777
629 2 15.7756 146.068 12.7866
630 2 3.82347 146.133 12.8162
631 2 7.75482 146.221 12.8295
632 2 11.7839 146.232 12.93
633 2 15.8138 150.103 12.7302
634 2 3.75312 150.149 12.6737
635 2 7.56152 150.106 12.4877
636 2 11.7 150.095 12.7724
637 2 15.8024 153.98 12.5856
638 2 3.71633 153.92 12.551
639 2 7.80126 153.83 12.5266
640 2 11.8309 153.899 12.74
641 2 -0.400628 157.926 16.4574
642 2 3.72344 158.139 16.6276
643 2 7.86862 157.921 16.6265
644 2 11.673 158.041 16.5686
645 2 15.7709 3.52432 16.5336
646 2 4.00579 3.48311 16.6069
647 2 7.84191 3.45419 16.7285
648 2 11.8623 3.69835 16.7854
649 2 15.9688 7.41655 16.4574
650 2 3.89383 7.45056 16.5696
651 2 7.82464 7.44294 16.5958
652 2 11.8233 7.49539 16.6118
653 2 15.7454 11.393 16.5248
654 2 4.01089 11.3694 16.4866
655 2 7.74511 11.51 16.4046
656 2 11.8264 11.3985 16.4186
657 2 16.0114 15.1545 16.3264
658 2 4.25566 15.235 16.4819
659 2 8.05411 15.3676 16.4854
660 2 11.9692 15.3085 16.3236
661 2 15.9133 19.1256 16.3354
662 2 4.00581 19.0158 16.348
663 2 7.93186 19.1328 16.3438
664 2 11.9558 19.1166 16.1213
665 2 0.176831 23.1443 16.254
666 2 3.92784 22.8557 16.0322
667 2 7.99654 23.0359 16.3157
668 2 12.0179 23.088 16.3359
669 2 0.055795 26.9996 16.3073
670 2 3.91524 27.039 16.3167
671 2 7.9299 26.8239 16.2136
672 2 12.0198 26.9257 16.3032
673 2 -0.142975 30.9 16.2505
674 2 3.80884 31.2957 16.4183
675 2 7.79764 31.0584 16.5685
676 2 12.0114 31.1203 16.3525
677 2 15.7806 35.0204 16.4269
678 2 3.85213 35.2541 16.1298
679 2 7.95961 34.9402 16.255
680 2 11.8258 35.1515 16.4224
681 2 0.0251434 39.0896 16.2944
682 2 3.76709 39.1966 16.4539
683 2 7.81723 39.1496 16.4195
684 2 11.8023 39.1565 16.5419
685 2 -0.0817754 43.093 16.2219
686 2 3.92496 43.0254 16.3751
687 2 8.20024 43.2243 16.7156
688 2 11.8 43.1483 16.3403
689 2 15.9146 47.1374 16.5422
690 2 3.81487 47.2384 16.6252
691 2 7.92781 47.0922 16.6936
692 2 11.6685 47.1745 16.49
693 2 15.7279 51.0695 16.7973
694 2 4.01138 51.0436 16.8892
695 2 8.00563 51.1819 16.7124
696 2 11.8992 51.1915 16.8227
697 2 0.0240177 55.1439 16.8965
698 2 4.04426 55.1898 16.6945
699 2 7.92167 55.1173 16.7309
700 2 11.9139 55.2328 16.8236
701 2 0.0420948 59.278 16.7793
702 2 3.8433 59.3989 16.7548
703 2 7.7667 59.4278 16.8249
704 2 11.9169 59.3186 16.8161
705 2 0.214176 63.5068 16.751
706 2 4.03056 63.2463 16.8002
707 2 8.01779 63.355 16.8144
708 2 11.8935 63.2813 16.7375
709 2 15.9115 67.4709 16.9938
710 2 3.99093 67.3634 17.0293
711 2 7.97993 67.1661 17.0356
712 2 11.9391 67.2244 17.0956
713 2 15.7588 71.4783 17.0766
714 2 3.96103 71.2157 17.0379
715 2 8.13816 71.2553 17.076
716 2 11.8339 71.2321 17.025
717 2 16.1605 75.3989 17.0867
718 2 3.98953 75.3539 17.2631
719 2 7.88343 75.2293 17.0691
720 2 11.8629 75.2779 17.2423
721 2 16.0195 79.2625 17.3543
722 2 4.24687 79.3853 17.2994
723 2 8.09642 79.5194 17.4796
724 2 12.0536 79.3308 17.2025
725 2 0.186073 83.285 17.2645
726 2 4.12214 83.4186 17.3431
727 2 7.91755 83.3819 17.2606
728 2 12.0162 83.2207 17.3897
729 2 15.8682 87.3951 17.5083
730 2 4.04141 87.3441 17.3653
731 2 8.04146 87.3713 17.4889
732 2 12.0562 87.3341 17.2293
733 2 0.0512543 91.4644 17.1247
734 2 4.04016 91.3544 17.5409
735 2 7.97078 91.4358 17.3898
736 2 11.8529 91.5351 17.4818
737 2 0.206957 95.4834 17.4215
738 2 4.11814 95.4022 17.4826
739 2 8.10599 95.413 17.6096
740 2 12.119 95.5365 17.5989
741 2 -0.082048 99.422 17.5197
742 2 3.90326 99.2614 17.4549
743 2 8.1697 99.5089 17.3201
744 2 12.0774 99.4087 17.4411
745 2 0.208364 103.317 17.3197
746 2 3.88773 103.117 17.3544
747 2 8.02409 103.13 17.1748
748 2 12.1534 103.283 17.4024
749 2 15.814 107.095 17.3858
750 2 4.00218 107.348 17.3552
751 2 7.83714 107.024 17.3348
752 2 11.982 107.224 17.287
753 2 0.0495585 111.027 17.4333
754 2 3.90522 111.205 17.3245
755 2 7.83056 110.937 17.1593
756 2 11.9173 110.993 17.2683
757 2 -0.0476971 114.989 17.281
758 2 3.95138 115.041 17.0747
759 2 7.894 115.1 17.293
760 2 11.7786 114.983 17.4225
761 2 15.7592 119.099 17.1205
762 2 3.94084 118.772 17.2655
763 2 8.09692 118.834 17.3693
764 2 11.985 118.939 17.3649
765 2 -0.091825 122.845 17.0823
766 2 3.74917 122.906 16.9873
767 2 7.70778 122.695 16.9237
768 2 11.9149 122.886 17.0176
769 2 0.0278017 126.743 17.0082
770 2 3.87723 126.596 17.0817
771 2 7.80564 126.671 17.1537
772 2 11.7974 126.705 17.0067
773 2 15.7677 130.764 16.8275
774 2 3.72782 130.595 16.9039
775 2 7.77705 130.584 16.9081
776 2 11.7577 130.716 16.8674
777 2 -0.0545071 134.609 16.8345
778 2 3.86334 134.526 17.1217
779 2 7.85227 134.317 16.9788
780 2 11.7762 134.568 17.0836
781 2 15.835 138.627 16.9393
782 2 3.83647 138.436 16.8981
783 2 7.86287 138.355 17.0166
784 2 11.8542 138.292 16.7883
785 2 -0.118478 142.238 16.8935
786 2 4.14905 142.041 16.6713
787 2 7.91743 142.2 16.651
788 2 11.8565 142.273 16.8909
789 2 -0.0510419 146.142 16.905
790 2 3.86025 146.308 16.8086
791 2 7.74775 146.287 16.6387
792 2 11.7413 146.124 16.9995
793 2 15.5759 150.176 16.7075
794 2 3.90981 150.147 16.6622
795 2 7.89164 150.152 16.7853
796 2 11.8718 150.107 16.8034
797 2 -0.152814 154.049 16.5462
798 2 3.7928 154.12 16.7969
799 2 7.83005 154.042 16.6531
800 2 11.7314 154.086 16.7285
801 2 -0.179577 157.938 20.6293
802 2 3.78908 158.039 20.5217
803 2 7.93576 158.008 20.6915
804 2 11.7021 157.951 20.5989
805 2 -0.0576537 3.74411 20.5695
806 2 4.04559 3.51809 20.6552
807 2 8.05812 3.65012 20.7371
808 2 11.9489 3.73105 20.7034
809 2 0.101673 7.44183 20.6787
810 2 3.93261 7.41757 20.5305
811 2 8.02901 7.55359 20.5932
812 2 11.8648 7.53993 20.5808
813 2 -0.114932 11.5651 20.5113
814 2 4.01107 11.3063 20.59
815 2 7.91766 11.4244 20.6478
816 2 11.9848 11.3328 20.4517
817 2 15.6386 15.3293 20.3478
818 2 3.96074 15.2136 20.6057
819 2 7.97142 15.3477 20.5089
820 2 11.8109 15.2832 20.482
821 2 0.0882836 19.0208 20.4313
822 2 4.09747 19.3027 20.2478
823 2 8.06312 19.1263 20.5137
824 2 11.8612 19.2938 20.3792
825 2 0.0324354 23.0396 20.3661
826 2 4.07237 23.0122 20.2436
827 2 8.01936 23.1649 20.0854
828 2 11.9702 23.1952 20.4875
829 2 15.8656 27.1068 20.3816
830 2 4.05533 26.9382 20.1236
831 2 7.63968 27.0707 20.1608
832 2 11.8816 26.9596 20.4736
833 2 15.7641 31.0781 20.4334
834 2 3.87256 30.9505 20.5179
835 2 7.97505 31.0609 20.1901
836 2 11.8713 30.8829 20.3295
837 2 -0.0561837 35.0068 20.1215
838 2 3.97582 34.9567 20.1587
839 2 7.75752 35.129 20.1676
840 2 11.8138 34.9695 20.3281
841 2 16.023 39.0113 20.4345
842 2 4.04957 38.9815 20.3418
843 2 8.10735 39.1351 20.2687
844 2 11.9075 38.9073 20.2422
845 2 15.8333 43.1107 20.3388
846 2 4.02484 43.0883 20.4267
847 2 7.92877 43.1213 20.5425
848 2 12.0479 42.993 20.5019
849 2 0.231315 46.9386 20.6748
850 2 3.97832 47.1535 20.516
851 2 7.8859 47.0077 20.3971
852 2 12.091 47.0777 20.5852
853 2 15.9323 51.153 20.6604
854 2 3.98423 51.0542 20.7134
855 2 7.84696 51.1951 20.7213
856 2 11.9897 50.9266 20.4745
857 2 15.8098 55.1247 20.6449
858 2 3.95806 55.0777 20.6089
859 2 7.92532 55.2364 20.7563
860 2 11.7769 55.1945 20.7404
861 2 15.8291 59.1489 20.7163
862 2 3.85689 59.1313 20.7122
863 2 8.12624 59.0546 20.7368
864 2 11.8953 59.2898 20.7645
865 2 15.973 63.262 20.8139
866 2 4.1289 63.308 20.694
867 2 8.0277 63.0472 20.6599
868 2 12.027 63.181 20.5854
869 2 15.7928 67.066 20.8803
870 2 3.80652 67.455 20.8334
871 2 8.09628 67.179 20.8446
872 2 12.0131 67.2523 21.0472
873 2 -0.229324 71.1766 21.0538
874 2 4.10515 71.3081 20.8893
875 2 8.01508 71.1758 20.9596
876 2 11.9568 71.334 20.8908
877 2 15.6846 75.2246 21.2101
878 2 3.90327 75.2797 21.0174
879 2 8.20572 75.173 21.0926
880 2 12.1106 75.343 21.1737
881 2 15.7921 79.2438 20.9971
882 2 4.0585 79.4007 21.2449
883 2 7.93351 79.3498 21.1848
884 2 12.063 79.258 21.2237
885 2 0.0894375 83.4021 21.4122
886 2 3.98038 83.249 21.0562
887 2 8.20733 83.315 21.3229
888 2 11.9994 83.3059 21.1212
889 2 0.0741079 87.3772 21.4083
890 2 4.17247 87.3788 21.1876
891 2 8.00195 87.3487 21.2992
892 2 11.9047 87.4412 21.0827
893 2 0.0409648 91.1044 21.2236
894 2 3.98222 91.3723 21.4561
895 2 7.96677 91.4413 21.4891
896 2 11.8694 91.2785 21.2711
897 2 0.0286791 95.2584 21.3145
898 2 4.07842 95.2267 21.3714
899 2 7.92966 95.2554 21.3963
900 2 11.9923 95.3905 21.3079
901 2 15.892 99.3595 21.5673
902 2 4.07829 99.408 21.5557
903 2 7.86589 99.3386 21.4524
904 2 12.1366 99.4913 21.3847
905 2 16.0688 103.221 21.4924
906 2 4.19391 103.283 21.2824
907 2 8.09154 103.102 21.3689
908 2 11.8963 103.375 21.5122
909 2 16.0515 107.067 21.3391
910 2 4.06045 107.18 21.4539
911 2 8.0069 107.062 21.2555
912 2 11.9662 107.026 21.4886
913 2 15.75 111.063 21.3251
914 2 3.97066 110.974 21.2778
915 2 8.134 111.137 21.3566
916 2 11.7545 111.052 21.4043
917 2 15.7043 114.992 21.3179
918 2 3.85021 115.055 21.2062
919 2 7.95597 115.007 21.2754
920 2 11.8212 114.944 21.3598
921 2 15.7887 118.948 21.199
922 2 3.88541 119.051 21.1903
923 2 7.71508 118.988 21.2593
924 2 12.0115 119.147 21.2112
925 2 -0.0768536 123.052 21.3716
926 2 3.67748 122.765 21.308
927 2 7.81385 122.748 21.1011
928 2 11.7612 123.09 21.1238
929 2 15.6056 126.976 21.1743
930 2 3.96742 126.889 21.0387
931 2 7.78173 126.653 21.273
932 2 11.9088 127.001 21.1062
933 2 -0.175127 130.813 20.9918
934 2 4.0118 130.728 20.9974
935 2 7.692 130.718 21.1031
936 2 11.7785 130.602 20.8476
937 2 -0.128055 134.649 20.9699
938 2 3.80104 134.582 21.1474
939 2 7.87218 134.598 21.0798
940 2 11.8564 134.453 20.9231
941 2 15.8332 138.366 20.9789
942 2 4.05815 138.39 20.8663
943 2 7.76551 138.729 20.8842
944 2 11.7435 138.363 20.8335
945 2 15.731 142.344 20.7951
946 2 3.85892 142.388 20.854
947 2 8.01955 142.596 20.9204
948 2 11.8208 142.356 20.835
949 2 15.7318 146.257 20.7971
950 2 3.96115 146.294 20.8827
951 2 7.86376 146.333 20.827
952 2 11.5784 146.311 20.6869
953 2 -0.265766 150.254 20.7443
954 2 3.81539 150.375 20.733
955 2 7.82248 150.222 20.9582
956 2 11.8614 150.293 20.7953
957 2 -0.146625 154.089 20.6845
958 2 3.88932 154.224 20.4986
959 2 7.85764 154.188 20.8259
960 2 11.7717 154.275 20.7276
961 2 15.8021 -0.261716 24.8217
962 2 3.84441 157.999 24.7407
963 2 7.71986 158.033 24.7061
964 2 11.8292 158.007 24.8245
965 2 -0.07182 3.65776 24.7519
966 2 3.86441 3.50506 24.6076
967 2 7.88348 3.73856 24.6534
968 2 11.8499 3.52876 24.8038
969 2 -0.0934387 7.53675 24.8049
970 2 3.93901 7.50315 24.7685
971 2 7.80444 7.56186 24.6509
972 2 11.8592 7.60886 24.5373
973 2 15.7744 11.4941 24.4594
974 2 3.88101 11.4085 24.5278
975 2 8.00965 11.5766 24.5102
976 2 11.7403 11.4736 24.6448
977 2 15.9698 15.2595 24.3726
978 2 4.19211 15.2833 24.4897
979 2 7.87189 15.4382 24.5616
980 2 11.9834 15.4196 24.5035
981 2 -0.0293827 19.3159 24.4494
982 2 3.88243 19.2708 24.4001
983 2 7.76744 19.3474 24.5541
984 2 11.6481 19.3376 24.3637
985 2 0.159403 23.0563 24.2399
986 2 3.9983 23.163 24.2584
987 2 7.73617 22.9936 24.2647
988 2 11.9168 23.0565 24.3333
989 2 0.211605 27.0521 24.3623
990 2 4.20395 26.9237 24.3188
991 2 8.18337 27.0548 24.2551
992 2 11.8115 26.7604 24.2548
993 2 -0.00115833 30.8687 24.2811
994 2 4.06024 30.9799 24.3016