ITEM: TIMESTEP
15500
ITEM: NUMBER OF ATOMS
32000
ITEM: BOX BOUNDS xy xz yz pp pp pp
0.0000000000000000e+00 1.5832000000000001e+01 0.0000000000000000e+00
0.0000000000000000e+00 1.5831999999999999e+02 0.0000000000000000e+00
7.8535209696283914e-01 1.6019176590303624e+02 0.0000000000000000e+00
ITEM: ATOMS id type x y z
1 2 15.8442 157.925 159.754
2 2 3.84146 157.776 159.807
3 2 7.86657 157.806 159.967
4 2 11.7109 157.834 159.962
5 2 0.0536872 3.39904 159.881
6 2 3.86031 3.33238 159.787
7 2 7.97393 3.40871 159.928
8 2 12.0198 3.45342 159.886
9 2 15.9109 7.17039 159.591
10 2 3.90057 7.22413 159.782
11 2 8.0097 7.2422 159.95
12 2 11.9416 7.24888 159.808
13 2 -0.014468 11.1504 159.76
14 2 4.0481 11.4824 159.814
15 2 7.86141 11.2415 159.692
16 2 11.9784 11.2073 159.536
17 2 0.00231025 15.2632 159.765
18 2 3.94139 15.3483 159.69
19 2 7.90084 15.0691 159.803
20 2 11.917 15.2686 159.862
21 2 0.0154722 19.3581 160.083
22 2 3.98168 19.2413 159.732
23 2 8.09567 19.1423 159.744
24 2 12.0879 19.3698 159.781
25 2 15.8498 23.2307 159.946
26 2 4.07346 23.2411 159.923
27 2 8.1264 23.1961 159.875
28 2 11.8314 23.2553 159.782
29 2 -0.00250559 27.2056 160.055
30 2 4.12945 27.3102 159.983
31 2 7.71559 27.277 160.063
32 2 11.8493 27.1805 159.94
33 2 -0.0180862 31.2344 160.279
34 2 4.09039 31.3417 160.116
35 2 7.88828 31.2757 160.085
36 2 11.9064 31.2908 160.174
37 2 15.6922 35.2618 0.809419
38 2 3.81953 35.2043 160.21
39 2 7.83402 35.2088 160.008
40 2 11.8208 35.2447 160.066
41 2 0.0977225 39.2532 0.711779
42 2 3.96122 39.3519 0.892408
43 2 7.94181 39.2185 160.086
44 2 11.7466 39.1886 160.084
45 2 15.939 43.1997 0.762172
46 2 3.96121 43.5099 0.877058
47 2 7.82553 43.3099 0.737649
48 2 12.0538 43.2901 160.306
49 2 0.17507 47.3909 1.02188
50 2 4.0472 47.3428 0.926053
51 2 7.94745 47.2143 1.01569
52 2 12.0947 47.3928 1.20775
53 2 -0.0435268 51.3623 0.895987
54 2 3.99518 51.4492 0.957452
55 2 7.94935 51.2858 0.968957
56 2 12.0035 51.2986 1.09446
57 2 15.7862 55.3092 0.980273
58 2 4.08447 55.3703 1.10952
59 2 7.87666 55.5479 1.13009
60 2 11.9436 55.4187 1.0283
61 2 15.9891 59.3543 1.35007
62 2 4.10492 59.4537 1.2531
63 2 8.10819 59.5898 1.12187
64 2 11.956 59.2886 1.08437
65 2 0.0261996 63.5481 1.13013
66 2 4.05804 63.3333 1.20236
67 2 7.94101 63.6086 1.3446
68 2 12.1434 63.3674 1.14027
69 2 16.0202 67.5616 1.33523
70 2 4.21667 67.6472 1.27075
71 2 7.97474 67.597 1.25413
72 2 12.0091 67.4451 1.12806
73 2 15.8684 71.5413 1.43137
74 2 4.21141 71.6232 1.45872
75 2 8.00586 71.5966 1.28359
76 2 12.044 71.8644 1.43366
77 2 0.120845 75.7934 1.42798
78 2 4.07965 75.6634 1.45009
79 2 7.90572 75.5795 1.54519
80 2 11.8211 75.7025 1.52534
81 2 0.111051 79.7187 1.54651
82 2 4.13943 79.5775 1.51148
83 2 8.17802 79.5547 1.51496
84 2 12.0163 79.4319 1.50505
85 2 0.103557 83.6547 1.4098
86 2 4.15843 83.4888 1.40065
87 2 8.0816 83.5928 1.47534
88 2 11.8149 83.5001 1.54158
89 2 16.0712 87.5133 1.34845
90 2 3.94444 87.4127 1.39224
91 2 7.88047 87.4847 1.39015
92 2 11.9828 87.4521 1.58236
93 2 15.8617 91.2375 1.43148
94 2 4.12489 91.2873 1.57473
95 2 8.0719 91.3297 1.48789
96 2 11.9516 91.3291 1.43458
97 2 0.0361573 95.1511 1.42092
98 2 4.09344 95.2186 1.50378
99 2 7.9562 95.2307 1.48811
100 2 12.0947 95.3205 1.41057
101 2 15.8636 99.1052 1.36139
102 2 4.09015 99.1582 1.39182
103 2 8.01517 99.1319 1.32518
104 2 11.9352 99.0331 1.42181
105 2 0.0399844 102.835 1.11868
106 2 3.97024 103.048 1.30677
107 2 7.78915 103.045 1.26127
108 2 11.9757 103.093 1.36387
109 2 15.8642 106.899 1.20878
110 2 3.90529 106.84 1.05271
111 2 7.93482 107.049 1.22851
112 2 12.0095 106.889 1.17965
113 2 15.8394 110.753 1.10592
114 2 4.03139 110.852 1.23996
115 2 8.12889 110.896 1.04277
116 2 11.8973 110.992 1.18223
117 2 -0.0160642 114.803 1.05635
118 2 4.04428 114.913 1.00746
119 2 7.87382 114.819 1.1271
120 2 12.0138 114.77 0.952207
121 2 15.8139 118.594 0.776497
122 2 3.9039 118.672 0.825016
123 2 7.80819 118.541 0.906897
124 2 11.6976 118.602 1.08877
125 2 15.89 122.486 0.96702
126 2 4.2173 122.487 0.987522
127 2 7.96317 122.715 0.921675
128 2 11.8626 122.688 0.815237
129 2 -0.0217687 126.568 0.942472
130 2 4.22112 126.367 0.861536
131 2 8.10532 126.409 0.882052
132 2 11.9275 126.505 0.635801
133 2 15.9483 130.428 0.884975
134 2 4.13234 130.396 0.785442
135 2 8.0183 130.241 0.68178
136 2 12.0957 130.492 160.405
137 2 -0.00757976 134.405 0.657724
138 2 4.10385 134.231 0.729867
139 2 8.01975 134.173 0.462634
140 2 11.9307 134.311 0.733201
141 2 0.024883 138.28 0.73954
142 2 3.97818 138.117 159.956
143 2 7.85903 138.251 160.081
144 2 11.8328 138.48 159.959
145 2 15.9565 142.068 0.562769
146 2 3.99564 142.041 159.862
147 2 7.86001 142.019 160.011
148 2 11.8794 142.117 160.122
149 2 -0.0513846 146.051 159.788
150 2 3.99764 145.964 159.97
151 2 7.88405 146.122 160.066
152 2 11.7213 146.051 159.998
153 2 0.0239469 150.058 159.994
154 2 3.92468 149.949 159.916
155 2 7.91975 149.983 160.121
156 2 11.8263 149.935 159.975
157 2 -0.158054 153.946 159.95
158 2 4.01305 153.936 159.95
159 2 7.901 153.9 160.031
160 2 11.8848 153.811 159.807
161 2 16.0125 157.807 4.55787
162 2 3.91399 157.854 4.53111
163 2 7.90025 157.717 4.55987
164 2 11.812 157.816 4.59605
165 2 0.163308 3.22273 4.31361
166 2 4.08494 3.38937 4.3084
167 2 7.72306 3.3971 4.39366
168 2 11.8373 3.33079 4.59375
169 2 0.0967205 7.46343 4.34484
170 2 3.94454 7.26016 4.43572
171 2 8.00027 7.43115 4.22735
172 2 11.7613 7.2612 4.33909
173 2 -0.0499243 11.0667 4.25436
174 2 4.07355 11.3865 4.47431
175 2 7.85036 11.3565 4.46378
176 2 11.8046 11.1936 4.37243
177 2 -0.0870689 15.1758 4.43727
178 2 3.85746 15.2226 4.30507
179 2 7.90521 15.1495 4.16011
180 2 11.7679 15.2517 4.20676
181 2 0.270176 19.2181 4.27491
182 2 4.08538 19.1185 4.37617
183 2 7.78259 19.1308 4.35016
184 2 11.94 19.1997 4.35858
185 2 0.0851063 23.3478 4.57213
186 2 3.94126 23.0493 4.3079
187 2 7.84064 23.0767 4.40945
188 2 11.7333 23.2411 4.30807
189 2 16.0562 27.1524 4.41824
190 2 3.90737 27.345 4.66791
191 2 7.81534 27.3265 4.77155
192 2 11.855 27.2206 4.77054
193 2 15.507 31.3311 4.53697
194 2 3.78058 31.293 4.65915
195 2 7.80942 31.2028 4.589
196 2 11.8218 31.3413 4.5394
197 2 15.7208 35.1836 4.75098
198 2 3.89824 35.1841 4.7215
199 2 8.00778 35.3537 4.85875
200 2 11.7213 35.482 4.6402
201 2 15.8456 39.1373 4.68551
202 2 3.98956 39.1501 4.55171
203 2 8.06946 39.3091 4.53834
204 2 11.9846 39.3279 4.59546
205 2 -0.21288 43.3428 4.65552
206 2 3.6686 43.3718 4.94871
207 2 7.89913 43.2516 4.51032
208 2 11.9337 43.138 4.6671
209 2 0.209415 47.5402 4.90975
210 2 3.95398 47.2704 4.9051
211 2 8.03966 47.3294 4.79435
212 2 11.8872 47.2882 4.75882
213 2 0.120992 51.3415 5.02432
214 2 4.10401 51.4351 4.85246
215 2 7.89584 51.1966 4.81626
216 2 11.7835 51.4035 4.92432
217 2 16.0451 55.2055 5.09991
218 2 4.18722 55.5057 4.98025
219 2 8.11593 55.3659 4.95361
220 2 11.996 55.3339 4.88006
221 2 0.267645 59.2883 5.22028
222 2 4.04566 59.3542 5.17823
223 2 8.174 59.3792 5.05084
224 2 12.0109 59.3107 4.90999
225 2 16.2568 63.7138 4.97409
226 2 4.16072 63.5353 5.09222
227 2 8.26478 63.5919 5.29192
228 2 12.194 63.5271 5.20986
229 2 16.1035 67.5367 5.3124
230 2 4.26729 67.5177 5.08118
231 2 8.03041 67.5937 5.07864
232 2 11.9709 67.5853 5.00481
233 2 15.6666 71.5017 5.25133
234 2 3.92124 71.4147 5.32565
235 2 7.89816 71.7568 5.21476
236 2 11.9242 71.5087 5.05612
237 2 16.0818 75.5696 5.41975
238 2 3.85891 75.5047 5.44268
239 2 7.95064 75.6785 5.27511
240 2 11.9909 75.6736 5.42722
241 2 15.8101 79.5351 5.51289
242 2 4.20285 79.7757 5.54094
243 2 7.97848 79.5652 5.49745
244 2 12.1107 79.679 5.15132
245 2 0.115759 83.5362 5.48365
246 2 4.09778 83.6472 5.60998
247 2 8.06605 83.4682 5.50445
248 2 12.1758 83.6552 5.23382
249 2 0.111677 87.6373 5.50932
250 2 4.13047 87.4159 5.40806
251 2 7.97462 87.4853 5.43231
252 2 12.0453 87.3806 5.5559
253 2 15.9762 91.4006 5.30672
254 2 4.07756 91.2728 5.51334
255 2 8.00711 91.3481 5.41596
256 2 11.8874 91.3649 5.51227
257 2 15.8754 95.2397 5.39042
258 2 4.04634 95.1927 5.38961
259 2 8.06962 95.2796 5.5138
260 2 11.8765 95.2999 5.41813
261 2 15.9561 99.0328 5.3824
262 2 3.84622 99.0813 5.29199
263 2 7.89974 99.1462 5.39321
264 2 11.8949 99.3157 5.37184
265 2 15.8063 103.037 5.23842
266 2 4.05482 103.034 5.40107
267 2 8.04291 103.077 5.24572
268 2 11.9014 103.122 5.30737
269 2 -0.0688907 107.038 5.25507
270 2 4.04419 107 5.06661
271 2 8.02504 107.176 5.30622
272 2 11.9547 107.074 5.12732
273 2 15.8434 110.974 5.15836
274 2 4.1043 110.903 5.14345
275 2 8.07232 111.007 5.05554
276 2 11.918 110.924 5.10225
277 2 15.8029 114.831 5.0385
278 2 3.82337 114.839 5.13116
279 2 7.87852 114.841 5.08981
280 2 11.8857 114.711 5.07968
281 2 -0.0620059 118.68 5.01952
282 2 3.98029 118.589 4.87827
283 2 7.95689 118.817 5.15697
284 2 11.8713 118.706 4.99477
285 2 15.9185 122.596 5.15481
286 2 3.76591 122.805 4.90273
287 2 7.94515 122.55 4.98567
288 2 11.8808 122.611 4.99235
289 2 0.0482858 126.433 4.75002
290 2 4.11434 126.612 4.65963
291 2 8.0659 126.453 5.05221
292 2 11.9054 126.564 4.78054
293 2 16.0226 130.648 4.92455
294 2 4.03378 130.393 4.82807
295 2 8.00537 130.461 4.94795
296 2 11.9608 130.634 4.86684
297 2 0.200014 134.368 4.6358
298 2 4.13807 134.35 4.80058
299 2 7.99356 134.214 4.7728
300 2 12.0659 134.412 4.63278
301 2 0.197281 138.225 4.79507
302 2 3.89036 138.347 4.66482
303 2 8.0791 138.136 4.60431
304 2 11.7904 138.401 4.71189
305 2 0.0269221 142.349 4.59288
306 2 3.9564 142.074 4.62786
307 2 7.9297 142.221 4.72995
308 2 11.9248 142.371 4.60624
309 2 15.8553 146.067 4.52774
310 2 3.95085 145.865 4.72446
311 2 7.75125 146.131 4.4928
312 2 11.7158 146.264 4.59293
313 2 15.8728 149.984 4.61383
314 2 3.87583 149.92 4.64079
315 2 7.82929 149.813 4.60872
316 2 11.8922 150.068 4.57713
317 2 -0.0817949 153.998 4.5329
318 2 3.69736 153.958 4.51271
319 2 7.752 153.866 4.4878
320 2 11.9703 153.97 4.57627
321 2 -0.0180595 157.906 8.53179
322 2 3.95922 157.729 8.57362
323 2 7.77169 157.934 8.61294
324 2 11.8271 157.883 8.60493
325 2 -0.109453 3.4991 8.35675
326 2 3.81239 3.38742 8.62091
327 2 8.0231 3.48931 8.36728
328 2 11.6621 3.404 8.41924
329 2 15.767 7.3063 8.27626
330 2 4.07994 7.3467 8.27483
331 2 7.91208 7.25738 8.43138
332 2 11.8097 7.35431 8.44241
333 2 0.0306854 11.1887 8.34684
334 2 3.96927 11.3199 8.41108
335 2 7.90892 11.1879 8.44819
336 2 11.7797 10.9832 8.35411
337 2 -0.238228 15.0331 8.28933
338 2 3.82909 15.1944 8.3684
339 2 8.04078 15.2839 8.33752
340 2 11.8528 14.9201 8.11687
341 2 15.7269 19.0035 8.34189
342 2 3.96784 19.125 8.43679
343 2 7.72439 19.0757 8.3052
344 2 11.5686 19.1647 8.33225
345 2 15.7734 23.1432 8.42394
346 2 3.91918 23.2243 8.37257
347 2 7.89752 23.1381 8.43718
348 2 11.9658 23.293 8.33148
349 2 -0.0972797 26.9397 8.33304
350 2 4.08742 27.317 8.5309
351 2 7.82823 27.1928 8.46581
352 2 11.7039 27.1003 8.40008
353 2 -0.0633743 31.104 8.31988
354 2 3.67306 31.1055 8.6123
355 2 7.82608 31.3123 8.41928
356 2 11.8296 30.9537 8.43807
357 2 15.7381 35.2693 8.53283
358 2 4.04425 35.2377 8.56448
359 2 7.92188 35.2018 8.51371
360 2 11.8289 35.4853 8.51586
361 2 0.0356448 39.1852 8.78324
362 2 3.87765 39.105 8.71295
363 2 7.74195 39.2617 8.4916
364 2 11.708 39.3842 8.68642
365 2 16.038 43.3451 8.72741
366 2 3.97394 43.2975 8.63405
367 2 7.93213 43.2775 8.57678
368 2 11.9302 43.0058 8.66836
369 2 15.9107 47.3741 8.77459
370 2 4.05382 47.2141 8.83516
371 2 7.91673 47.2498 8.51988
372 2 12.1094 47.2557 8.61244
373 2 15.755 51.1221 8.77338
374 2 3.92515 51.3266 8.71947
375 2 8.03168 51.1043 8.81172
376 2 11.9247 51.1895 8.84973
377 2 0.0705633 55.229 8.76408
378 2 4.02744 55.3484 8.73026
379 2 8.03535 55.2876 8.84911
380 2 11.987 55.0758 8.85435
381 2 0.0755024 59.3913 9.04896
382 2 3.93886 59.4532 8.93232
383 2 8.13498 59.3642 8.86918
384 2 12.0313 59.2732 8.85395
385 2 15.624 63.4657 9.01421
386 2 4.12325 63.379 9.06571
387 2 8.11684 63.3337 8.89612
388 2 11.9044 63.2632 9.01439
389 2 15.9623 67.3314 9.19908
390 2 4.12754 67.4368 8.88422
391 2 7.98001 67.5611 8.96543
392 2 11.9512 67.4472 9.23224
393 2 16.0285 71.324 9.12974
394 2 4.13937 71.3448 9.1559
395 2 8.0912 71.642 8.97482
396 2 12.1183 71.5474 9.11083
397 2 15.9402 75.5226 9.23487
398 2 4.08889 75.3718 9.30957
399 2 7.9412 75.5259 9.17942
400 2 12.0677 75.546 9.22814
401 2 16.0345 79.5466 9.17365
402 2 4.11426 79.3934 9.37433
403 2 8.09792 79.4533 9.36638
404 2 11.9101 79.4311 9.39396
405 2 16.2032 83.5129 9.31908
406 2 4.13543 83.5413 9.34199
407 2 8.18329 83.3514 9.30286
408 2 12.0799 83.7044 9.6158
409 2 0.131759 87.5381 9.49636
410 2 3.99924 87.506 9.56163
411 2 8.132 87.5635 9.59706
412 2 11.9916 87.6651 9.60436
413 2 -0.057146 91.3677 9.39403
414 2 4.08542 91.6657 9.27303
415 2 7.91184 91.2669 9.46132
416 2 11.8585 91.5008 9.44995
417 2 0.0180511 95.4328 9.48629
418 2 3.92518 95.3898 9.50704
419 2 7.9152 95.3298 9.51073
420 2 11.9998 95.3149 9.47807
421 2 0.151236 99.125 9.29081
422 2 3.89007 99.2708 9.49505
423 2 7.7945 99.1555 9.40861
424 2 11.9014 99.1901 9.49477
425 2 15.8055 103.211 9.44408
426 2 3.97429 102.912 9.46879
427 2 7.89319 103.276 9.18838
428 2 11.9805 103.106 9.37074
429 2 0.329827 107.091 9.06388
430 2 4.04144 107.123 9.29607
431 2 8.11087 107.055 9.38158
432 2 11.7392 107.178 9.23865
433 2 15.9807 110.964 8.96226
434 2 4.01153 110.94 9.24655
435 2 7.88786 111.005 9.31278
436 2 11.9706 110.974 9.38411
437 2 15.783 115.096 9.16445
438 2 3.90849 114.982 9.27051
439 2 7.88088 114.877 9.25902
440 2 11.9122 114.841 9.21547
441 2 0.0116489 118.901 8.9965
442 2 3.85367 118.994 8.96306
443 2 7.84418 118.676 8.98184
444 2 11.7821 118.852 9.1707
445 2 15.8624 122.6 8.97374
446 2 3.87177 122.571 8.75634
447 2 7.7181 122.698 9.10154
448 2 11.9328 122.738 9.06442
449 2 15.8019 126.645 8.96955
450 2 3.99233 126.575 8.9252
451 2 7.99873 126.608 8.8243
452 2 11.9738 126.504 8.97374
453 2 15.8405 130.445 8.88401
454 2 3.96823 130.603 8.87572
455 2 7.96109 130.444 8.57701
456 2 11.8669 130.3 8.70488
457 2 0.111623 134.349 8.78406
458 2 4.1064 134.475 8.99943
459 2 7.97247 134.34 8.82979
460 2 11.99 134.57 8.87885
461 2 0.0443542 138.432 8.61278
462 2 3.99705 138.286 8.71215
463 2 8.0316 138.309 8.8457
464 2 11.9541 138.292 8.69787
465 2 -0.0103526 142.285 8.49745
466 2 4.02191 142.121 8.72137
467 2 7.79841 142.118 8.67522
468 2 11.9795 142.188 8.46664
469 2 0.0118406 146.199 8.67285
470 2 3.81176 146.081 8.67201
471 2 7.73279 146.241 8.57489
472 2 11.7037 146.091 8.57927
473 2 15.7349 150.075 8.68102
474 2 4.02135 150.045 8.72358
475 2 7.86597 150.136 8.71352
476 2 11.8341 149.968 8.69698
477 2 0.0956774 154.118 8.50425
478 2 3.82119 153.913 8.67949
479 2 7.71624 153.82 8.41283
480 2 11.7825 154.004 8.65124
481 2 15.7352 157.847 12.6624
482 2 3.65608 157.992 12.5472
483 2 7.77377 157.855 12.5626
484 2 11.8991 157.77 12.4325
485 2 -0.144724 3.43574 12.477
486 2 3.78449 3.52809 12.4508
487 2 7.87803 3.21603 12.6425
488 2 11.9306 3.46176 12.509
489 2 -0.0985408 7.34036 12.3144
490 2 3.98241 7.36821 12.2267
491 2 7.64341 7.19215 12.3662
492 2 11.8855 7.38995 12.4443
493 2 0.0125291 11.479 12.4143
494 2 4.02487 11.2845 12.597
495 2 7.92436 11.1616 12.3579
496 2 11.9044 11.3608 12.4129
497 2 0.0367348 15.1979 12.2587
498 2 4.08315 15.256 12.4241
499 2 8.06392 15.0866 12.2701
500 2 11.8439 15.0274 12.23
501 2 -0.140885 19.0846 12.3163
502 2 3.87892 19.0507 12.3511
503 2 7.79876 19.119 12.2381
504 2 11.9113 19.0645 12.3304
505 2 -0.0881758 23.1367 12.2831
506 2 3.86796 22.9503 12.1807
507 2 7.69059 23.0561 12.2132
508 2 11.6057 22.9851 12.4272
509 2 15.8923 27.2443 12.421
510 2 3.84992 27.0967 12.4499
511 2 7.95003 27.1621 12.2392
512 2 11.8383 27.1676 12.1374
513 2 15.9575 31.0944 12.3576
514 2 3.90084 31.0098 12.3081
515 2 7.90198 31.2499 12.1233
516 2 11.9759 31.0247 12.557
517 2 15.7661 35.0578 12.2946
518 2 3.88453 35.2055 12.5239
519 2 7.84153 35.0669 12.3637
520 2 11.9563 35.0787 12.456
521 2 15.8176 39.1893 12.7802
522 2 3.77257 39.0877 12.4574
523 2 7.63332 39.1093 12.6385
524 2 11.7833 39.3355 12.4463
525 2 15.935 43.011 12.6876
526 2 3.88481 43.1536 12.4764
527 2 8.06185 43.2057 12.5873
528 2 11.9769 43.1776 12.6329
529 2 0.0776807 47.1016 12.7011
530 2 3.87644 47.1118 12.5359
531 2 7.95747 47.2095 12.4472
532 2 11.7265 47.1652 12.7204
533 2 16.1073 51.4591 12.4975
534 2 3.99983 51.2282 12.6906
535 2 7.93388 51.2881 12.6723
536 2 11.8811 51.1515 12.8893
537 2 -0.0815707 55.1746 12.8017
538 2 4.25419 55.3001 12.7649
539 2 7.86673 55.4148 12.7897
540 2 11.8829 55.3708 12.5256
541 2 0.0622367 59.2854 12.7642
542 2 3.97568 59.1632 12.8837
543 2 7.98443 59.2622 12.7518
544 2 11.8694 59.3829 12.9071
545 2 0.0969719 63.2133 13.094
546 2 4.09652 63.1535 13.0406
547 2 7.96225 63.283 12.9894
548 2 11.8057 63.38 12.981
549 2 15.8859 67.4543 12.9519
550 2 4.05848 67.1506 13.0644
551 2 7.99537 67.3313 12.7506
552 2 11.6868 67.4061 13.0999
553 2 15.9564 71.2591 13.0654
554 2 4.07332 71.4579 13.2291
555 2 8.07938 71.4636 12.9726
556 2 12.0102 71.5009 13.0759
557 2 15.9489 75.2645 13.239
558 2 3.92338 75.434 13.0878
559 2 8.11646 75.4866 13.0251
560 2 11.9739 75.3511 13.2078
561 2 15.9961 79.4857 13.4229
562 2 4.17489 79.434 13.3134
563 2 8.18989 79.4095 13.068
564 2 12.0439 79.5902 12.9688
565 2 16.0413 83.5428 13.1673
566 2 4.24703 83.5176 13.3534
567 2 8.08639 83.3752 13.3503
568 2 11.9197 83.5353 13.3092
569 2 0.154867 87.5123 13.5364
570 2 3.97295 87.3265 13.3778
571 2 8.03504 87.4997 13.548
572 2 12.153 87.4195 13.3044
573 2 15.8758 91.4467 13.5454
574 2 4.00157 91.3545 13.5054
575 2 7.99468 91.5151 13.5204
576 2 11.8477 91.5317 13.3088
577 2 15.6795 95.2748 13.5382
578 2 3.78947 95.4416 13.4155
579 2 8.00604 95.5009 13.5158
580 2 11.871 95.4334 13.4842
581 2 15.9072 99.5135 13.4788
582 2 3.97494 99.3096 13.5756
583 2 8.01034 99.4289 13.3744
584 2 11.9583 99.3107 13.5311
585 2 15.7983 103.172 13.2124
586 2 3.96205 103.225 13.339
587 2 7.93134 103.318 13.3231
588 2 11.8884 103.169 13.3208
589 2 15.6901 107.21 13.5262
590 2 3.91824 107.071 13.4499
591 2 7.80558 107.029 13.3861
592 2 11.8831 107.149 13.4341
593 2 15.8857 111.195 13.2038
594 2 4.03935 111.108 13.2454
595 2 7.85906 111.028 13.401
596 2 11.9223 111.074 13.245
597 2 0.0496273 115.012 13.1879
598 2 3.7816 114.957 13.2053
599 2 7.85308 114.931 13.3559
600 2 11.7023 115.116 13.132
601 2 0.148952 118.915 13.2115
602 2 4.01092 118.961 13.1651
603 2 7.92465 118.948 13.027
604 2 11.8528 118.799 13.0381
605 2 -0.0197146 122.865 13.0342
606 2 3.94908 122.761 12.9451
607 2 7.99982 122.875 13.0449
608 2 11.8418 122.887 12.9806
609 2 0.0387061 126.646 13.119
610 2 3.99636 126.614 13.0029
611 2 7.91658 126.707 12.8855
612 2 12.0706 126.645 12.9373
613 2 -0.0280547 130.667 12.6735
614 2 3.85419 130.54 12.9461
615 2 7.97166 130.645 12.8998
616 2 11.8406 130.603 12.9852
617 2 -0.0615002 134.527 12.922
618 2 3.80965 134.58 12.7783
619 2 8.09738 134.385 12.7802
620 2 11.7367 134.542 12.7737
621 2 15.7918 138.425 12.8058
622 2 3.87811 138.466 12.712
623 2 7.86368 138.492 12.8702
624 2 11.9687 138.458 12.7856
625 2 0.0397394 142.289 12.5558
626 2 3.81187 142.33 12.7804
627 2 7.9203 142.265 12.7473
628 2 11.9152 142.218 12.5379
629 2 15.7853 146.177 12.6379
630 2 4.01578 146.136 12.8813
631 2 7.80165 146.17 12.7213
632 2 11.8864 145.911 12.3631
633 2 15.8045 150.15 12.6991
634 2 4.04445 150.229 12.7889
635 2 8.02838 150.01 12.7048
636 2 11.8605 150.085 12.6421
637 2 15.8916 153.853 12.5273
638 2 3.90855 154.011 12.5135
639 2 7.73061 153.902 12.7192
640 2 11.7976 153.94 12.7464
641 2 0.0142941 157.75 16.5186
642 2 3.92677 157.913 16.5629
643 2 7.94661 157.937 16.6618
644 2 11.8593 157.689 16.6685
645 2 15.8536 3.46259 16.6747
646 2 3.8717 3.46696 16.5063
647 2 7.71281 3.51027 16.4258
648 2 11.7356 3.35276 16.5607
649 2 15.9226 7.42615 16.4575
650 2 3.91548 7.46215 16.3717
651 2 8.03534 7.37861 16.485
652 2 11.7703 7.30617 16.5046
653 2 15.708 11.1165 16.3662
654 2 4.11292 11.2152 16.2878
655 2 8.08207 11.272 16.2571
656 2 11.9871 11.2061 16.3309
657 2 15.8085 15.2246 16.2964
658 2 3.78259 15.2353 16.2828
659 2 7.7054 15.1522 16.326
660 2 11.749 15.1618 16.3999
661 2 15.9522 19.1667 16.3159
662 2 4.06732 19.1354 16.2609
663 2 8.04376 18.9598 16.0642
664 2 11.8064 18.9575 16.5383
665 2 0.0737246 23.3144 16.0137
666 2 4.03746 23.2578 16.3337
667 2 7.78202 23.0465 16.3268
668 2 11.6146 23.0357 16.1219
669 2 -0.0020276 27.025 16.2536
670 2 4.00285 26.8091 16.1644
671 2 7.8874 27.2063 16.3415
672 2 11.9132 26.9189 16.2098
673 2 0.164095 31.0415 16.0943
674 2 4.09342 31.1794 16.0769
675 2 7.77 31.3123 16.3258
676 2 11.8899 30.9616 16.3043
677 2 15.9275 34.9863 16.4258
678 2 4.08261 34.9062 16.4314
679 2 7.88217 35.1611 16.4034
680 2 11.8574 35.0625 16.5554
681 2 0.0163799 38.8776 16.4363
682 2 4.14243 39.0962 16.5175
683 2 7.98283 38.9845 16.4552
684 2 11.8056 39.1646 16.3894
685 2 0.31028 43.2863 16.5796
686 2 3.93537 43.1631 16.4164
687 2 7.94317 43.188 16.5565
688 2 11.7662 42.9359 16.4471
689 2 15.9118 47.1877 16.6068
690 2 4.04948 47.119 16.5545
691 2 7.88244 47.0771 16.5866
692 2 11.9909 46.9752 16.6877
693 2 15.9632 51.0611 16.4705
694 2 3.93593 51.1245 16.5265
695 2 7.80821 51.2112 16.3992
696 2 11.7771 51.3846 16.5526
697 2 0.0039232 55.208 16.6558
698 2 3.90118 55.2415 16.7444
699 2 7.96651 55.0952 16.5352
700 2 11.9506 55.2527 16.6557
701 2 0.147538 59.1091 16.9513
702 2 4.35163 59.4065 16.7906
703 2 8.33262 59.4263 16.8709
704 2 11.9412 59.3106 16.6646
705 2 -0.0843919 63.1578 17.0034
706 2 4.05742 63.4577 16.9514
707 2 7.89774 63.2214 16.8848
708 2 11.9511 63.3623 17.0043
709 2 15.9539 67.2913 16.9742
710 2 4.04699 67.1862 17.0203
711 2 8.03067 67.342 16.8286
712 2 11.9691 67.2643 16.9071
713 2 16.0441 71.1565 16.9694
714 2 4.04636 71.2037 17.0458
715 2 7.94341 71.2807 17.0948
716 2 12.1034 71.2651 17.1515
717 2 15.7137 75.3341 17.09
718 2 3.99304 75.4381 17.0356
719 2 8.08144 75.402 17.0462
720 2 12.0358 75.2854 17.0721
721 2 15.9551 79.3366 17.1684
722 2 3.92665 79.2016 17.0948
723 2 7.99043 79.4335 16.9762
724 2 12.1665 79.429 17.046
725 2 0.117439 83.4774 17.2701
726 2 4.20499 83.5197 17.1271
727 2 8.14637 83.3885 17.4597
728 2 12.0774 83.3407 17.2354
729 2 16.048 87.5116 17.2684
730 2 4.259 87.5193 17.2782
731 2 8.04835 87.3827 17.2599
732 2 12.1575 87.7036 17.4005
733 2 0.134792 91.6688 17.4827
734 2 4.30669 91.4807 17.2948
735 2 8.06499 91.5604 17.5434
736 2 12.2197 91.2775 17.5212
737 2 0.0140698 95.3891 17.6095
738 2 3.88645 95.3787 17.5954
739 2 7.99902 95.2651 17.5781
740 2 11.9936 95.3958 17.4308
741 2 0.227312 99.1959 17.3053
742 2 4.14702 99.4279 17.5152
743 2 7.97352 99.5856 17.4771
744 2 11.8602 99.3058 17.4517
745 2 -0.175889 103.212 17.5581
746 2 3.87842 103.343 17.3847
747 2 7.91706 103.248 17.4073
748 2 11.8004 103.249 17.5492
749 2 16.0105 107.156 17.5146
750 2 3.99232 107.027 17.459
751 2 7.98453 107.309 17.5252
752 2 11.9245 107.203 17.2908
753 2 -0.0191995 111.162 17.3228
754 2 4.07658 110.87 17.2462
755 2 7.86291 111.127 17.0863
756 2 11.8117 111.066 17.2411
757 2 -0.113858 115.062 17.2819
758 2 3.84951 115.094 17.2469
759 2 7.83631 114.966 17.1603
760 2 11.836 115.056 17.2574
761 2 15.6985 118.936 17.1011
762 2 3.81965 118.887 17.1608
763 2 7.738 118.906 17.1301
764 2 11.7224 119.085 16.883
765 2 -0.0942659 122.699 17.095
766 2 3.99634 122.849 17.2172
767 2 7.95385 122.979 16.8556
768 2 11.8489 122.743 16.9728
769 2 -0.115557 126.668 17.0439
770 2 4.08079 126.898 16.9473
771 2 7.99732 126.834 16.9614
772 2 11.837 126.553 17.1267
773 2 16.0238 130.576 17.0609
774 2 4.17013 130.717 16.8602
775 2 7.87704 130.685 16.8325
776 2 11.8294 130.67 17.0634
777 2 -0.105922 134.367 16.9847
778 2 3.84759 134.525 16.8563
779 2 7.94625 134.525 16.7187
780 2 11.8952 134.549 16.8128
781 2 15.7298 138.342 16.7618
782 2 3.86807 138.438 16.779
783 2 7.85469 138.635 16.8684
784 2 11.6856 138.527 16.7492
785 2 -0.309935 142.331 16.8196
786 2 3.94841 142.336 16.9249
787 2 7.94665 142.349 16.7192
788 2 11.6981 142.418 16.7565
789 2 -0.204837 146.409 16.7067
790 2 3.74354 146.252 16.6264
791 2 7.94114 146.395 16.6074
792 2 11.737 146.119 16.8846
793 2 15.6503 150.164 16.5264
794 2 3.9422 150.118 16.6233
795 2 7.78128 149.988 16.6829
796 2 11.877 150.271 16.6094
797 2 -0.0451243 153.997 16.8048
798 2 3.75109 153.878 16.6199
799 2 7.92014 154.047 16.7414
800 2 11.8926 153.981 16.6693
801 2 -0.0293629 157.953 20.7536
802 2 3.99023 157.922 20.6824
803 2 7.74797 158.012 20.7276
804 2 11.7898 157.851 20.5128
805 2 -0.111348 3.49069 20.537
806 2 3.76109 3.61395 20.5512
807 2 7.80077 3.55156 20.5415
808 2 11.6139 3.55352 20.3942
809 2 -0.017993 7.52922 20.5135
810 2 3.93217 7.49466 20.2629
811 2 7.89597 7.47014 20.5416
812 2 11.7909 7.33763 20.4903
813 2 -0.0397105 11.4868 20.435
814 2 3.9114 11.5283 20.3261
815 2 7.87036 11.2868 20.4501
816 2 11.9399 11.5997 20.5171
817 2 15.8823 15.1572 20.318
818 2 4.09983 15.2205 20.4124
819 2 7.94832 15.291 20.1849
820 2 11.8553 15.255 20.4647
821 2 -0.0433412 19.3617 20.3033
822 2 3.91212 19.3138 20.3555
823 2 7.80127 19.1709 20.1892
824 2 11.8242 19.0944 20.4403
825 2 0.0436614 23.0139 20.4215
826 2 3.99036 23.1396 20.3794
827 2 7.89141 22.97 20.5071
828 2 11.8556 23.1442 20.1401
829 2 15.829 27.1555 20.1727
830 2 4.06181 27.1147 20.3274
831 2 8.17007 26.8222 20.3515
832 2 11.9197 27.1384 20.112
833 2 16.0526 31.1361 20.1147
834 2 4.03669 30.8892 20.0915
835 2 7.88506 30.9657 20.3122
836 2 12.1042 31.0022 20.1084
837 2 0.0334141 34.9792 20.542
838 2 4.02393 35.1792 20.3595
839 2 8.18356 34.9005 20.477
840 2 11.9647 34.9467 20.2317
841 2 15.8781 38.8937 20.2713
842 2 3.86204 38.9828 20.4548
843 2 7.90748 38.9338 20.3603
844 2 11.925 38.9922 20.2468
845 2 15.7043 43.0401 20.4734
846 2 4.12382 43.096 20.5635
847 2 7.85356 42.9838 20.3317
848 2 11.7606 42.9924 20.5399
849 2 -0.0683789 47.4026 20.4299
850 2 3.94657 47.2492 20.4936
851 2 7.92927 47.0596 20.5747
852 2 11.9085 47.102 20.4444
853 2 15.7699 51.1701 20.4209
854 2 4.0665 51.0248 20.3938
855 2 8.05005 51.0547 20.3889
856 2 11.76 51.1642 20.6783
857 2 15.8976 55.132 20.468
858 2 4.10451 55.1482 20.6968
859 2 8.02135 55.0458 20.7737
860 2 11.9437 55.0682 20.5458
861 2 16.1906 59.0675 20.8032
862 2 4.1137 59.1764 20.6734
863 2 8.03807 59.0532 20.7364
864 2 11.928 59.0961 20.7647
865 2 15.9532 63.2255 20.8435
866 2 3.9379 63.1005 20.7852
867 2 8.13466 63.2106 20.8324
868 2 11.9327 63.1545 20.8123
869 2 16.0323 67.1811 20.8026
870 2 4.15641 67.1132 20.8408
871 2 8.15619 67.377 20.8258
872 2 12.0041 67.2161 20.855
873 2 0.171513 71.4124 20.9806
874 2 3.97008 71.1766 21.0298
875 2 7.9699 71.2606 20.8849
876 2 11.9777 71.1499 20.8886
877 2 16.1021 75.3285 20.9839
878 2 4.05061 75.3072 20.8665
879 2 8.04006 75.2067 21.1618
880 2 11.9585 75.2926 21.0718
881 2 15.8804 79.2647 21.0252
882 2 4.20938 79.3862 21.0219
883 2 8.09702 79.1489 20.9919
884 2 11.9959 79.1592 21.0954
885 2 0.154184 83.2708 21.1609
886 2 4.07471 83.328 21.0778
887 2 7.99525 83.2556 21.0521
888 2 11.9774 83.3683 20.9424
889 2 0.2576 87.344 21.1684
890 2 4.03943 87.4194 21.2537
891 2 8.13104 87.3558 21.0431
892 2 12.0828 87.2997 21.3954
893 2 0.226133 91.5863 21.4993
894 2 4.16236 91.5301 21.3107
895 2 8.02021 91.4709 21.2523
896 2 12.1076 91.631 21.383
897 2 0.0363578 95.6665 21.6201
898 2 4.1038 95.6227 21.6694
899 2 8.02307 95.5161 21.6539
900 2 11.958 95.7044 21.5767
901 2 15.8267 99.3521 21.359
902 2 4.01919 99.5217 21.5073
903 2 7.93062 99.4833 21.4833
904 2 12.0335 99.3675 21.3938
905 2 15.7472 103.414 21.4803
906 2 3.8343 103.328 21.4682
907 2 7.92244 103.409 21.6383
908 2 12.0522 103.319 21.3135
909 2 15.7799 107.488 21.3146
910 2 3.88656 107.285 21.4795
911 2 8.00922 107.525 21.5096
912 2 11.85 107.329 21.4306
913 2 15.9346 111.248 21.1828
914 2 3.8786 111.333 21.4219
915 2 7.8195 111.256 21.2653
916 2 11.9003 111.548 21.3364
917 2 15.7833 115.13 21.2521
918 2 4.09112 115.059 21.3722
919 2 7.89168 115.119 21.2891
920 2 11.7502 115.251 21.3171
921 2 15.7981 118.958 21.1195
922 2 4.13944 118.933 21.0142
923 2 7.96303 118.884 21.0528
924 2 11.8323 118.734 21.0915
925 2 -0.0611699 122.831 20.9588
926 2 4.1562 122.985 21.1328
927 2 7.92145 123.061 21.0875
928 2 11.9393 122.636 21.1822
929 2 15.9485 126.693 21.0008
930 2 4.01166 126.789 21.0429
931 2 7.9717 126.825 20.994
932 2 12.072 126.72 20.98
933 2 -0.20486 130.531 21.03
934 2 3.95843 130.588 20.8741
935 2 8.07253 130.802 21.1431
936 2 11.9062 130.721 21.2957
937 2 0.0372802 134.482 20.813
938 2 4.06063 134.652 21.0063
939 2 7.85577 134.454 20.7856
940 2 11.9406 134.644 20.7879
941 2 15.7525 138.541 20.8478
942 2 3.74537 138.347 20.8285
943 2 7.81135 138.356 20.8414
944 2 11.7653 138.467 20.9023
945 2 15.7863 142.387 20.7643
946 2 3.71712 142.222 20.9248
947 2 7.68086 142.298 20.6238
948 2 11.7876 142.476 20.8891
949 2 15.7568 146.246 20.8471
950 2 3.78481 146.209 20.7495
951 2 7.91887 146.206 20.7804
952 2 11.9814 146.366 20.7931
953 2 -0.150741 150.23 20.6566
954 2 3.945 150.049 20.8653
955 2 7.89682 150.17 20.5276
956 2 11.7469 149.951 20.723
957 2 -0.141291 154.011 20.7292
958 2 4.04002 154.019 20.6297
959 2 7.71249 154.053 20.6713
960 2 11.6982 153.992 20.7525
961 2 15.7166 -0.364811 24.7391
962 2 3.99824 158.064 24.9287
963 2 7.76736 158.034 24.7757
964 2 11.9231 158 24.6921
965 2 -0.0246964 3.66278 24.5196
966 2 4.05477 3.79892 24.5709
967 2 7.89587 3.45819 24.5982
968 2 11.756 3.67868 24.5655
969 2 -0.0420394 7.57045 24.5572
970 2 4.28327 7.61048 24.3963
971 2 7.94416 7.59254 24.6434
972 2 12.0203 7.44744 24.4913
973 2 16.0644 11.4513 24.4871
974 2 3.95877 11.5709 24.4949
975 2 7.93463 11.4689 24.3576
976 2 11.926 11.3644 24.352
977 2 15.7645 15.3525 24.5161
978 2 3.88821 15.4709 24.4368
979 2 7.90405 15.2624 24.4864
980 2 11.7115 15.3021 24.3661
981 2 0.0760198 19.4063 24.3643
982 2 4.14666 19.154 24.3307
983 2 8.04857 19.23 24.4142
984 2 11.9596 19.364 24.2098
985 2 -0.0221342 23.2246 24.4031
986 2 3.95928 23.2682 24.3286
987 2 8.1324 23.2417 24.5129
988 2 11.8195 23.2396 24.2972
989 2 0.0146519 27.1611 24.1241
990 2 3.68447 27.0758 24.3474
991 2 7.78986 27.1305 24.3467
992 2 11.8587 27.1548 24.3378
993 2 0.0774628 30.9983 24.1573