ITEM: TIMESTEP
15600
ITEM: NUMBER OF ATOMS
32000
ITEM: BOX BOUNDS xy xz yz pp pp pp
0.0000000000000000e+00 1.5832000000000001e+01 0.0000000000000000e+00
0.0000000000000000e+00 1.5831999999999999e+02 0.0000000000000000e+00
7.9345204112823353e-01 1.6018366595887068e+02 0.0000000000000000e+00
ITEM: ATOMS id type x y z
1 2 0.0269952 157.636 159.901
2 2 4.01003 157.789 159.863
3 2 7.77975 157.756 159.857
4 2 11.8663 157.775 159.805
5 2 15.7212 3.31625 159.787
6 2 3.96996 3.41936 159.704
7 2 7.94513 3.20472 159.63
8 2 11.738 3.34172 159.761
9 2 0.0497717 7.30168 159.896
10 2 4.13589 7.18127 159.625
11 2 8.02125 7.22968 159.48
12 2 11.914 7.25601 159.71
13 2 0.330812 11.3611 159.648
14 2 3.97231 11.0794 159.776
15 2 7.81292 11.1956 159.848
16 2 11.7474 11.2411 160.006
17 2 15.6699 15.2879 159.81
18 2 4.02152 15.259 160.073
19 2 7.96142 15.3446 159.813
20 2 11.6956 15.2539 159.675
21 2 0.26387 19.4166 159.829
22 2 4.22559 19.2686 159.711
23 2 8.03972 19.3128 159.871
24 2 11.8815 19.1968 159.929
25 2 15.8049 23.2892 0.83211
26 2 4.05628 23.2681 159.936
27 2 7.78377 23.451 159.888
28 2 11.8961 23.2959 160.116
29 2 15.7085 27.1602 160.056
30 2 3.86967 27.184 160.085
31 2 8.03202 27.2956 159.907
32 2 11.8276 27.3689 160.021
33 2 15.7343 31.3747 160.087
34 2 3.86515 31.1648 160.145
35 2 8.03627 31.2597 160.027
36 2 11.7908 31.3277 0.850623
37 2 15.7043 35.2626 160.03
38 2 4.07519 35.2665 0.778123
39 2 7.82267 35.274 160.172
40 2 11.5964 35.3736 0.842814
41 2 0.0834077 39.1583 160.143
42 2 3.98837 39.386 0.818858
43 2 7.77736 39.3855 0.932291
44 2 12.18 39.3787 160.183
45 2 0.0377854 43.3149 0.859405
46 2 3.85448 43.2479 0.871406
47 2 7.98717 43.2824 0.880458
48 2 11.8999 43.2108 0.945279
49 2 15.7763 47.3821 0.946293
50 2 3.9003 47.288 0.851457
51 2 7.92575 47.3626 0.816566
52 2 11.9552 47.4935 0.830119
53 2 0.142866 51.3739 0.953216
54 2 4.09598 51.4003 0.864098
55 2 8.08569 51.3293 0.967482
56 2 11.9786 51.4866 160.163
57 2 0.305498 55.3877 1.16611
58 2 3.95082 55.5143 0.930541
59 2 8.06203 55.2926 1.13011
60 2 11.9611 55.365 1.03364
61 2 0.0865048 59.6253 1.12947
62 2 4.14956 59.4763 1.02439
63 2 8.00386 59.4509 1.09926
64 2 12.077 59.5172 1.15663
65 2 0.0646111 63.5473 1.19638
66 2 3.97879 63.574 1.23733
67 2 8.09868 63.4271 1.28255
68 2 12.0016 63.7527 1.31202
69 2 0.117908 67.5404 1.4547
70 2 3.96272 67.5229 1.23621
71 2 7.96264 67.4763 1.34723
72 2 11.8224 67.621 1.40514
73 2 15.6768 71.6164 1.25125
74 2 3.99063 71.6437 1.25599
75 2 8.11598 71.6105 1.47999
76 2 11.9143 71.4631 1.51442
77 2 0.187891 75.7341 1.50405
78 2 3.87842 75.6579 1.53078
79 2 8.02088 75.6607 1.36276
80 2 12.0079 75.5507 1.3373
81 2 0.0488959 79.6946 1.49402
82 2 4.1124 79.7614 1.44581
83 2 8.06901 79.7043 1.36099
84 2 11.9972 79.6304 1.46759
85 2 0.00257009 83.4261 1.58018
86 2 4.06293 83.7278 1.51909
87 2 7.98061 83.5495 1.47997
88 2 11.8979 83.5734 1.28767
89 2 0.0230167 87.4852 1.52039
90 2 4.07565 87.3898 1.54515
91 2 8.02363 87.5475 1.47629
92 2 12.0158 87.5967 1.26292
93 2 0.277211 91.4483 1.42957
94 2 4.18153 91.5365 1.15663
95 2 8.13329 91.3426 1.28173
96 2 12.1437 91.4005 1.35335
97 2 0.129206 95.3675 1.45706
98 2 4.02665 95.4473 1.33433
99 2 8.14874 95.3117 1.32589
100 2 11.9053 95.1713 1.4948
101 2 0.126579 99.2078 1.22686
102 2 4.19443 99.239 1.3362
103 2 8.0511 99.2748 1.37278
104 2 11.9449 99.0639 1.17703
105 2 15.7395 103.056 1.33542
106 2 4.03571 103.157 1.25796
107 2 8.22825 103.161 1.19031
108 2 11.9658 102.928 1.25178
109 2 15.7519 106.895 1.16704
110 2 4.06769 107.052 1.39198
111 2 7.99067 107.02 1.22075
112 2 11.8295 107.066 1.27584
113 2 0.0128815 110.858 1.2855
114 2 3.97054 111.005 1.17704
115 2 7.84081 111.006 1.25046
116 2 11.9063 110.827 1.17168
117 2 0.112477 114.713 1.03244
118 2 4.00283 114.906 1.26596
119 2 7.93127 114.864 1.05477
120 2 11.6619 114.78 1.12679
121 2 15.6638 118.765 1.06468
122 2 4.09831 118.696 1.19097
123 2 8.10312 118.893 1.06917
124 2 11.9749 118.915 160.129
125 2 0.0758258 122.612 0.824806
126 2 3.86502 122.547 0.807803
127 2 7.94848 122.423 0.920866
128 2 11.9902 122.584 1.01248
129 2 0.0466816 126.512 160.104
130 2 3.95548 126.429 160.166
131 2 8.02333 126.481 0.87536
132 2 12.0998 126.48 1.11652
133 2 0.0255479 130.467 160.062
134 2 3.8525 130.231 160.137
135 2 7.91984 130.288 0.90299
136 2 11.8745 130.304 160.047
137 2 0.217409 134.243 160.174
138 2 4.06466 134.265 160.031
139 2 7.8895 134.16 0.870013
140 2 11.8121 134.2 160.127
141 2 0.224265 138.211 160.003
142 2 4.09864 138.226 160.134
143 2 8.0042 138.08 159.969
144 2 11.9558 138.133 0.828256
145 2 15.7571 142.153 159.999
146 2 3.99948 142.04 160.108
147 2 8.09803 142.175 159.82
148 2 11.8953 142.25 160.03
149 2 0.0973784 146.109 160.056
150 2 4.00164 146.015 159.987
151 2 7.93693 146.098 160.003
152 2 11.8946 146.22 159.98
153 2 15.7353 149.936 160.085
154 2 3.87024 150.018 160.055
155 2 7.90625 149.978 159.784
156 2 11.8937 150.023 160.005
157 2 15.7656 153.755 159.897
158 2 4.01405 153.778 159.899
159 2 7.9206 153.808 159.883
160 2 11.6919 153.989 160.115
161 2 15.786 157.647 4.23941
162 2 4.00398 157.881 4.44624
163 2 7.88116 157.93 4.55799
164 2 12.0583 157.81 4.41403
165 2 15.7153 3.55111 4.50189
166 2 3.85607 3.45079 4.61729
167 2 8.03731 3.35778 4.49625
168 2 12.0202 3.3114 4.30118
169 2 15.7576 7.25226 4.29219
170 2 3.85937 7.2479 4.242
171 2 7.7951 7.18886 4.25545
172 2 11.9077 7.27189 4.43697
173 2 15.727 11.316 4.25163
174 2 3.79015 11.096 4.35333
175 2 7.69603 11.1745 4.24165
176 2 11.6732 11.1708 4.12123
177 2 15.8106 15.2557 4.11254
178 2 3.82884 15.1101 4.47135
179 2 7.85878 15.1958 4.50393
180 2 12.0697 15.1517 4.47276
181 2 -0.0441221 19.1551 4.47458
182 2 3.96787 19.1253 4.39364
183 2 7.96211 19.1316 4.37521
184 2 11.8555 19.149 4.36037
185 2 15.6657 23.0751 4.53782
186 2 4.13334 23.2582 4.62777
187 2 8.00162 23.2899 4.35977
188 2 11.765 23.1258 4.59587
189 2 15.73 27.1261 4.42295
190 2 3.99835 27.1039 4.62027
191 2 7.84056 27.2566 4.21767
192 2 11.6594 27.3322 4.3757
193 2 15.8105 31.3508 4.669
194 2 3.83287 31.021 4.5089
195 2 7.75837 31.3979 4.62632
196 2 11.857 31.0899 4.66692
197 2 -0.0194683 35.3704 4.80839
198 2 3.81729 35.1736 4.57872
199 2 7.72148 35.2061 4.53476
200 2 11.7465 35.2752 4.76061
201 2 0.0983425 39.1772 4.63988
202 2 4.09306 39.2367 4.94418
203 2 7.79465 39.3362 4.81688
204 2 11.943 39.1408 4.65635
205 2 0.0962489 43.2642 4.83658
206 2 4.03733 43.2562 4.83365
207 2 7.87996 43.4014 4.79926
208 2 11.89 43.2313 4.93932
209 2 15.7678 47.1301 4.7306
210 2 3.98079 47.2315 4.7918
211 2 7.95574 47.1933 4.7017
212 2 12.0224 47.2674 4.92032
213 2 0.0511661 51.3098 4.90242
214 2 3.99629 51.1535 4.78558
215 2 8.0252 51.2817 4.83759
216 2 12.0425 51.2348 5.017
217 2 0.052899 55.4213 4.7032
218 2 4.06051 55.3452 4.95571
219 2 7.96175 55.2389 4.92516
220 2 11.982 55.3222 5.02133
221 2 0.0486469 59.3877 5.04893
222 2 4.09661 59.4015 4.96214
223 2 7.94 59.3586 4.99721
224 2 11.957 59.3817 5.02189
225 2 -0.0433984 63.3521 5.30914
226 2 4.07012 63.2783 5.07273
227 2 7.9663 63.4622 5.08308
228 2 11.9458 63.3799 4.91993
229 2 0.025171 67.3978 5.3384
230 2 3.7876 67.4821 5.20716
231 2 8.08512 67.4146 5.236
232 2 11.841 67.3847 5.43303
233 2 0.106427 71.4517 5.1402
234 2 4.12815 71.5727 5.08746
235 2 8.05597 71.3864 5.46703
236 2 12.1661 71.5362 5.45027
237 2 0.12021 75.6542 5.23685
238 2 4.06599 75.5592 5.15306
239 2 8.02924 75.419 5.46625
240 2 11.9241 75.538 5.39769
241 2 0.172345 79.8114 5.48461
242 2 4.11994 79.4542 5.1181
243 2 7.98084 79.5332 5.27226
244 2 11.892 79.4649 5.69174
245 2 15.795 83.534 5.33528
246 2 4.10345 83.6773 5.3046
247 2 8.03604 83.6714 5.45616
248 2 11.715 83.8207 5.4421
249 2 0.173983 87.4532 5.52494
250 2 4.21406 87.6666 5.41404
251 2 8.1616 87.6098 5.55551
252 2 12.0146 87.6392 5.33482
253 2 0.0454241 91.3316 5.68338
254 2 4.16719 91.5607 5.27941
255 2 8.05509 91.5059 5.4897
256 2 12.118 91.4607 5.35416
257 2 0.184566 95.2136 5.35505
258 2 4.15147 95.2943 5.45785
259 2 7.9523 95.3945 5.51152
260 2 11.9915 95.383 5.52614
261 2 0.126077 99.2604 5.34175
262 2 4.26538 99.3013 5.43847
263 2 8.01202 99.225 5.45836
264 2 12.0368 99.1447 5.43111
265 2 15.8134 103.02 5.3657
266 2 4.00933 103.05 5.16614
267 2 7.91351 103.278 5.35896
268 2 11.7539 103.068 5.3624
269 2 0.179929 106.785 5.27819
270 2 3.9279 106.88 5.26882
271 2 7.78036 107.073 5.20671
272 2 11.7287 106.906 5.44139
273 2 0.0214531 110.983 5.18669
274 2 3.81708 110.897 5.16154
275 2 7.85644 110.855 5.2587
276 2 12.1538 110.796 5.1381
277 2 15.8199 114.847 5.26782
278 2 3.9782 114.739 5.08917
279 2 8.01429 114.746 5.33833
280 2 11.894 115.036 5.18262
281 2 15.81 118.598 5.0653
282 2 3.84083 118.824 5.09163
283 2 7.87079 118.706 5.03052
284 2 11.8637 118.593 5.06334
285 2 15.7859 122.476 4.72948
286 2 4.04144 122.5 4.9128
287 2 8.08971 122.713 5.03632
288 2 11.9956 122.58 5.00372
289 2 0.121601 126.577 4.80444
290 2 3.81104 126.521 4.81995
291 2 7.93451 126.441 4.77219
292 2 11.9906 126.597 5.04606
293 2 0.134274 130.462 4.81895
294 2 4.07257 130.453 4.95127
295 2 8.07132 130.391 4.81228
296 2 12.0673 130.379 4.74783
297 2 0.115166 134.504 4.74582
298 2 4.1175 134.306 4.80499
299 2 8.1933 134.407 4.76631
300 2 11.9398 134.409 4.86894
301 2 15.6519 138.322 4.57793
302 2 4.14599 138.146 4.80025
303 2 7.90257 138.136 4.71857
304 2 12.1128 138.152 4.57913
305 2 0.0545754 142.113 4.65125
306 2 4.06278 142.145 4.72878
307 2 8.1249 142.021 4.50646
308 2 11.9632 142.366 4.60002
309 2 15.7991 146.277 4.49273
310 2 3.99995 145.916 4.39794
311 2 7.85375 146.022 4.75252
312 2 11.8826 146.072 4.68766
313 2 0.0255999 150.068 4.65984
314 2 3.82714 150.11 4.59241
315 2 7.81046 150.271 4.57001
316 2 11.9011 149.968 4.7414
317 2 15.7933 153.904 4.59844
318 2 4.04946 154.005 4.5756
319 2 7.9074 153.953 4.63187
320 2 11.7212 153.868 4.55931
321 2 15.7424 157.794 8.45751
322 2 3.90077 157.989 8.58007
323 2 7.85097 157.881 8.59037
324 2 11.656 157.943 8.48327
325 2 15.8194 3.43097 8.47778
326 2 3.81358 3.53441 8.30043
327 2 7.72529 3.39969 8.56601
328 2 11.9377 3.46065 8.44464
329 2 0.0386451 7.38452 8.55594
330 2 3.86964 7.59023 8.43959
331 2 7.82787 7.42763 8.29814
332 2 11.9316 7.21203 8.39361
333 2 15.6748 11.1084 8.3087
334 2 4.06916 11.3881 8.33713
335 2 7.97568 11.2294 8.18481
336 2 11.9164 11.2207 8.15426
337 2 0.0584839 15.066 8.251
338 2 3.84424 15.2033 8.27795
339 2 7.90876 15.1534 8.33209
340 2 11.7882 15.2087 8.31125
341 2 0.0712582 19.1312 8.2628
342 2 3.94707 19.1759 8.3665
343 2 8.05987 19.0426 8.43595
344 2 12.0737 19.036 8.25197
345 2 0.027662 23.0053 8.30665
346 2 3.89824 23.0143 8.40067
347 2 7.8722 23.0739 8.18011
348 2 11.7653 23.1569 8.22998
349 2 15.7641 27.1033 8.55825
350 2 3.81967 27.0124 8.43739
351 2 7.90955 27.0744 8.46781
352 2 11.9056 27.2869 8.35325
353 2 15.6785 31.1724 8.57975
354 2 4.00896 31.1322 8.28374
355 2 7.80828 31.289 8.50886
356 2 11.9196 31.3985 8.5564
357 2 15.7306 35.0689 8.66654
358 2 4.02905 35.1545 8.6671
359 2 7.89036 35.2485 8.74566
360 2 11.6375 35.0637 8.59823
361 2 15.7522 39.1115 8.54936
362 2 4.0531 39.1911 8.59647
363 2 7.9762 39.2808 8.75295
364 2 11.9 39.1622 8.62325
365 2 15.7667 43.0847 8.68299
366 2 3.96607 43.0429 8.88368
367 2 8.06925 43.1956 8.59252
368 2 12.0483 43.2989 8.63654
369 2 0.136322 47.1266 8.86602
370 2 4.13023 47.2237 8.66513
371 2 8.12942 47.1051 8.74803
372 2 11.8825 47.1458 8.89989
373 2 0.335875 51.3168 8.958
374 2 4.2539 51.1962 8.73708
375 2 8.10761 51.4104 8.65111
376 2 12.0901 51.2649 8.81898
377 2 0.109222 55.3471 8.81372
378 2 4.14383 55.3521 8.99474
379 2 7.9457 55.2882 8.7404
380 2 11.9761 55.4507 8.91254
381 2 15.802 59.282 8.93028
382 2 4.06994 59.3664 9.02502
383 2 8.12148 59.3478 9.04341
384 2 11.8925 59.41 8.88275
385 2 0.141496 63.3018 9.01897
386 2 4.07373 63.2928 8.93875
387 2 8.00695 63.336 9.0458
388 2 12.0619 63.3452 9.11497
389 2 0.0692332 67.428 9.28615
390 2 3.9689 67.2953 9.34001
391 2 7.999 67.2475 8.9969
392 2 11.9588 67.536 9.24606
393 2 0.0837539 71.4348 9.07919
394 2 4.11349 71.4656 9.05285
395 2 7.94314 71.3706 9.2962
396 2 11.9419 71.449 9.24192
397 2 0.19621 75.4935 9.1507
398 2 4.02302 75.4602 9.27682
399 2 8.05961 75.4809 9.33085
400 2 11.9458 75.3908 9.20883
401 2 0.184719 79.683 9.44919
402 2 4.132 79.5599 9.20153
403 2 8.03501 79.6706 9.13674
404 2 12.1012 79.6378 9.32238
405 2 0.0243316 83.4462 9.22083
406 2 4.25875 83.639 9.49822
407 2 7.92705 83.588 9.36676
408 2 11.8891 83.402 9.25086
409 2 0.0937429 87.3918 9.46139
410 2 4.19496 87.576 9.32839
411 2 8.08407 87.5964 9.42862
412 2 12.0404 87.4268 9.37741
413 2 0.14433 91.3901 9.56369
414 2 3.96369 91.2355 9.64613
415 2 8.01363 91.5767 9.61198
416 2 12.066 91.473 9.60831
417 2 0.0175993 95.2644 9.58142
418 2 3.89129 95.2454 9.51486
419 2 7.931 95.3356 9.52153
420 2 11.8828 95.3281 9.4822
421 2 15.7529 99.2066 9.44397
422 2 4.00022 99.2342 9.43269
423 2 8.03901 99.2646 9.51883
424 2 11.953 99.3554 9.36146
425 2 0.0805396 103.209 9.25853
426 2 4.02204 103.245 9.21255
427 2 7.94233 103.151 9.53174
428 2 11.8483 103.147 9.44211
429 2 15.6942 107.065 9.48054
430 2 4.00902 107.06 9.23291
431 2 7.79753 107.16 9.2253
432 2 12.1432 107.078 9.37852
433 2 0.0545653 110.928 9.16331
434 2 3.92684 110.869 9.2436
435 2 8.08233 110.953 9.17519
436 2 11.8408 110.942 9.12653
437 2 0.150016 114.736 9.25077
438 2 4.05983 114.837 9.16274
439 2 7.82874 114.705 9.04784
440 2 11.7948 114.957 9.19353
441 2 0.0180697 118.791 9.21066
442 2 4.15452 118.746 9.18241
443 2 7.80617 118.818 9.05282
444 2 11.8803 118.834 9.07579
445 2 15.8236 122.802 9.04958
446 2 3.92032 122.915 9.10353
447 2 8.27007 122.722 8.96076
448 2 11.9304 122.648 9.06582
449 2 0.0708222 126.508 8.86429
450 2 3.87808 126.63 8.80752
451 2 7.78734 126.515 8.91545
452 2 12.0787 126.739 8.76469
453 2 0.125286 130.635 8.73044
454 2 4.14229 130.341 8.90555
455 2 8.05001 130.493 9.09127
456 2 12.1105 130.663 8.83194
457 2 0.093503 134.449 8.91544
458 2 3.91816 134.309 8.72105
459 2 8.11203 134.595 8.81965
460 2 11.8293 134.316 8.86555
461 2 0.0257033 138.331 8.61186
462 2 4.23167 138.39 8.62296
463 2 7.9504 138.524 8.67815
464 2 11.9962 138.36 8.67653
465 2 0.12119 142.138 8.77131
466 2 3.98202 142.493 8.68292
467 2 8.14362 142.245 8.73693
468 2 11.7464 142.267 8.71656
469 2 15.7308 146.247 8.65054
470 2 3.98152 146.166 8.72213
471 2 7.90397 146.127 8.74662
472 2 11.8838 146.277 8.57103
473 2 15.699 150.044 8.6021
474 2 3.79605 149.834 8.49231
475 2 7.91471 149.927 8.4899
476 2 11.7074 150.237 8.54424
477 2 15.6821 153.886 8.75445
478 2 3.95707 153.836 8.50938
479 2 7.89412 154.21 8.61059
480 2 11.7728 154.06 8.535
481 2 15.7697 158.022 12.4286
482 2 4.10747 157.774 12.6779
483 2 7.88749 157.851 12.6281
484 2 11.7954 157.937 12.6517
485 2 15.7136 3.55839 12.6049
486 2 3.79481 3.40595 12.4839
487 2 7.79549 3.58145 12.4302
488 2 11.7136 3.5141 12.4779
489 2 0.0647556 7.47619 12.4902
490 2 3.83741 7.32295 12.5828
491 2 8.00994 7.2315 12.4841
492 2 11.6504 7.20998 12.4196
493 2 15.6994 11.3806 12.3561
494 2 4.01745 11.237 12.0994
495 2 8.03782 11.3026 12.406
496 2 11.8556 11.2273 12.3003
497 2 0.13321 15.3567 12.3496
498 2 3.83338 15.039 12.3147
499 2 7.84078 15.0271 12.1958
500 2 12.1157 15.4278 12.4278
501 2 15.5042 19.1322 12.0495
502 2 3.84294 19.0712 12.3621
503 2 7.76013 19.1479 12.2707
504 2 11.632 19.2211 12.3649
505 2 15.5334 22.9254 12.2159
506 2 3.83935 23.1429 12.4716
507 2 7.9145 23.1685 12.2339
508 2 11.7522 23.3223 12.3209
509 2 15.6711 26.9398 12.3188
510 2 4.33832 27.1145 12.3386
511 2 7.98655 27.0861 12.4597
512 2 11.7908 27.3102 12.36
513 2 0.00765385 31.0581 12.3547
514 2 3.97634 31.1077 12.3985
515 2 7.85067 30.9829 12.6682
516 2 11.6365 31.2118 12.2819
517 2 15.8017 35.1274 12.6458
518 2 3.97952 35.0061 12.3712
519 2 8.19766 35.2662 12.6585
520 2 11.879 35.1729 12.5183
521 2 15.7461 39.0634 12.4449
522 2 4.11103 39.1123 12.6987
523 2 8.24126 39.2592 12.6525
524 2 11.9196 39.0792 12.6631
525 2 15.8097 43.2378 12.5898
526 2 4.1301 43.0512 12.7577
527 2 7.83813 43.0608 12.5387
528 2 11.9903 43.2313 12.5559
529 2 15.82 47.3848 12.6931
530 2 4.22111 47.201 12.82
531 2 7.93993 47.0949 12.5904
532 2 11.9675 47.1623 12.6593
533 2 0.0601338 51.0204 12.8892
534 2 4.10087 51.1784 12.6946
535 2 7.81079 51.2811 12.7696
536 2 11.8352 51.1763 12.5919
537 2 0.213702 55.2588 12.7512
538 2 3.7405 55.238 12.7734
539 2 7.95791 55.1771 12.7043
540 2 12.0263 55.1487 12.8948
541 2 0.160433 59.238 12.9143
542 2 4.02767 59.2463 12.8099
543 2 7.98884 59.1633 12.9034
544 2 11.9271 59.1149 12.9113
545 2 0.294517 63.3719 12.9741
546 2 4.00558 63.2722 12.8464
547 2 7.94034 63.3607 12.8375
548 2 12.0822 63.3758 13.1138
549 2 0.124133 67.1743 13.1372
550 2 3.99743 67.4361 12.9035
551 2 7.87588 67.4219 12.9969
552 2 12.1333 67.2746 12.9458
553 2 0.25211 71.414 13.23
554 2 4.17239 71.2446 13.0358
555 2 8.03546 71.2692 13.2129
556 2 12.0222 71.3267 12.892
557 2 0.132295 75.4131 12.9656
558 2 4.18203 75.3247 13.1067
559 2 8.01535 75.3163 13.2752
560 2 12.1154 75.5141 13.0511
561 2 0.128492 79.4472 12.9988
562 2 4.01364 79.4449 13.1402
563 2 7.93967 79.5581 13.2066
564 2 12.0947 79.3862 13.333
565 2 0.237045 83.5639 13.3234
566 2 4.04238 83.4094 13.3122
567 2 8.04638 83.7033 13.2986
568 2 12.1183 83.4829 13.4688
569 2 0.268315 87.4701 13.2561
570 2 4.15232 87.5703 13.4247
571 2 8.04326 87.4985 13.3052
572 2 11.9101 87.4508 13.3581
573 2 0.0853447 91.5685 13.453
574 2 4.06401 91.5109 13.5256
575 2 7.96486 91.4963 13.5197
576 2 12.0263 91.3266 13.6863
577 2 0.126325 95.5587 13.5944
578 2 4.03166 95.4069 13.5909
579 2 7.8858 95.3125 13.5493
580 2 11.9263 95.434 13.5522
581 2 0.0982244 99.2892 13.2955
582 2 4.1423 99.3561 13.4051
583 2 8.03097 99.0675 13.484
584 2 11.8995 99.4128 13.3808
585 2 0.0762639 103.423 13.5434
586 2 3.94194 103.151 13.4608
587 2 7.90359 103.248 13.3004
588 2 11.9482 103.2 13.4747
589 2 15.8674 107.173 13.1374
590 2 3.91574 107.138 13.2059
591 2 8.12586 107.218 13.3063
592 2 11.9396 107.123 13.2076
593 2 -0.00984694 110.985 13.3861
594 2 3.79695 111.017 13.3288
595 2 7.97629 110.957 13.2032
596 2 11.9395 111.213 13.1686
597 2 15.7906 115.013 13.1527
598 2 4.05091 114.97 13.1932
599 2 7.92705 114.869 13.0597
600 2 12.0739 114.889 13.2379
601 2 15.7101 118.782 13.0691
602 2 3.94152 118.867 13.0897
603 2 7.80098 118.825 13.085
604 2 11.7575 118.743 13.1595
605 2 0.0974098 122.649 13.092
606 2 4.00025 122.827 12.968
607 2 7.9206 122.908 13.0007
608 2 11.7948 122.758 13.117
609 2 15.8378 126.726 12.8863
610 2 3.89306 126.85 12.9587
611 2 8.15541 126.764 12.7629
612 2 11.9376 126.711 12.9977
613 2 15.8446 130.507 13.124
614 2 4.1029 130.737 12.8435
615 2 7.82176 130.566 12.829
616 2 11.8409 130.57 12.7302
617 2 0.144401 134.366 12.7215
618 2 4.0397 134.648 12.8072
619 2 8.03236 134.484 12.7245
620 2 12.1327 134.487 12.9733
621 2 0.0980046 138.376 12.6886
622 2 3.79875 138.535 12.861
623 2 7.81971 138.223 12.7334
624 2 11.9767 138.267 12.7634
625 2 15.6362 142.253 12.7524
626 2 3.91953 142.342 12.7692
627 2 7.93871 142.192 12.6464
628 2 11.8221 142.207 12.821
629 2 0.129554 146.139 12.6783
630 2 3.95315 146.218 12.6762
631 2 8.08203 146.185 12.6683
632 2 11.8865 146.161 12.7071
633 2 15.7814 149.948 12.5186
634 2 3.88508 150.138 12.5037
635 2 7.8546 150.071 12.5978
636 2 11.8447 150.109 12.6238
637 2 15.7493 154.089 12.5614
638 2 3.90663 153.978 12.7788
639 2 7.843 153.933 12.5029
640 2 11.7265 153.984 12.4916
641 2 15.5751 157.897 16.6461
642 2 3.80305 157.838 16.6329
643 2 7.84627 157.796 16.5318
644 2 11.8445 158.01 16.4536
645 2 15.6582 3.52475 16.4716
646 2 3.9077 3.47921 16.6544
647 2 7.82867 3.30238 16.6812
648 2 11.9181 3.57528 16.6737
649 2 0.01699 7.47454 16.3904
650 2 3.99962 7.3851 16.4503
651 2 7.73182 7.44959 16.4794
652 2 11.8411 7.36143 16.5406
653 2 15.7935 11.4114 16.5308
654 2 3.92815 11.2476 16.3208
655 2 7.98457 11.3571 16.3621
656 2 11.8775 11.1889 16.3781
657 2 0.137846 15.1903 16.3526
658 2 4.11444 15.2811 16.5072
659 2 7.94439 15.2627 16.4489
660 2 11.813 15.3434 16.3749
661 2 15.6485 19.2833 16.4005
662 2 3.77241 19.2064 16.4757
663 2 7.73249 19.0812 16.2809
664 2 11.8019 19.2121 16.0073
665 2 15.6467 22.9633 16.4082
666 2 3.63679 22.7849 16.0735
667 2 7.74289 23.0454 16.3811
668 2 11.7043 22.9706 16.4351
669 2 0.0176685 26.9221 16.3658
670 2 3.86621 27.1284 16.4136
671 2 7.97763 26.8695 16.2835
672 2 11.9543 27.0114 16.2862
673 2 15.7641 30.9656 16.2784
674 2 3.95755 31.0742 16.4487
675 2 7.96191 30.9786 16.5202
676 2 11.8536 31.0323 16.3454
677 2 15.7689 35.0192 16.325
678 2 3.9176 35.3035 16.2474
679 2 8.00016 34.9821 16.3644
680 2 11.9325 35.0666 16.3877
681 2 0.10782 39.2838 16.4588
682 2 3.7918 39.1314 16.652
683 2 7.82508 39.1522 16.5323
684 2 11.9117 38.9814 16.5473
685 2 15.7032 42.9455 16.5905
686 2 4.1805 43.0707 16.6112
687 2 7.96522 43.0814 16.765
688 2 11.929 43.2725 16.539
689 2 0.148451 47.0601 16.6712
690 2 3.94958 47.0908 16.6179
691 2 8.09419 47.0732 16.6293
692 2 11.8984 47.1983 16.4667
693 2 15.7964 51.1929 16.5873
694 2 4.16946 51.0702 16.7908
695 2 8.18325 51.1728 16.6257
696 2 11.9261 50.9951 16.6465
697 2 0.0617337 55.115 16.7535
698 2 4.0941 55.2093 16.6528
699 2 7.99473 55.3073 16.687
700 2 11.9918 55.2326 16.6728
701 2 0.157861 59.2316 16.6453
702 2 4.0219 59.2347 16.6959
703 2 7.93326 59.1565 16.7336
704 2 12.1515 59.1863 16.859
705 2 0.175711 63.3562 16.812
706 2 4.00415 63.0952 16.8158
707 2 7.99533 63.4663 16.9064
708 2 11.8642 63.1324 16.7381
709 2 0.0879308 67.3271 16.9117
710 2 4.17416 67.3465 17.0898
711 2 8.0566 67.2161 16.911
712 2 12.0312 67.2276 17.0233
713 2 0.18253 71.448 17.0491
714 2 4.23796 71.2791 17.0741
715 2 8.21263 71.2838 16.8544
716 2 11.9809 71.2554 16.8282
717 2 0.325356 75.1976 16.9394
718 2 4.17477 75.1608 17.085
719 2 7.94363 75.2385 16.9933
720 2 11.7784 75.3683 17.0722
721 2 0.102723 79.2213 17.1355
722 2 4.11152 79.3837 17.0532
723 2 8.18278 79.3736 17.1623
724 2 11.9917 79.3704 16.9725
725 2 0.198737 83.3573 17.1837
726 2 4.02167 83.2734 17.1546
727 2 7.97022 83.5687 17.1913
728 2 11.9809 83.456 17.1906
729 2 0.109775 87.6744 17.5688
730 2 4.00791 87.5617 17.2866
731 2 8.1884 87.5555 17.4998
732 2 12.1046 87.2976 17.2252
733 2 0.0125833 91.548 17.3474
734 2 3.98776 91.5422 17.5907
735 2 8.13895 91.5217 17.3071
736 2 11.7487 91.5853 17.3929
737 2 0.0332942 95.504 17.5065
738 2 4.11694 95.5534 17.5457
739 2 7.91795 95.5734 17.5581
740 2 11.9102 95.4569 17.65
741 2 15.6536 99.5117 17.5897
742 2 3.94313 99.3276 17.5253
743 2 7.90801 99.4107 17.3864
744 2 11.803 99.4805 17.4585
745 2 15.8061 103.369 17.2876
746 2 3.70055 103.134 17.4399
747 2 7.74707 103.47 17.3779
748 2 11.845 103.382 17.309
749 2 15.683 107.194 17.2273
750 2 3.93013 107.265 17.3539
751 2 7.73526 107.064 17.2555
752 2 11.7722 107.259 17.3824
753 2 0.05072 111.036 17.3021
754 2 3.90335 111.34 17.2752
755 2 7.94698 110.881 17.2657
756 2 11.8994 111.22 17.2419
757 2 0.0308301 114.947 17.1924
758 2 4.04938 115.034 17.115
759 2 7.89008 115.049 17.1927
760 2 11.8261 115.038 17.2
761 2 0.0603905 119.05 17.1169
762 2 4.07614 119.006 17.2213
763 2 7.9643 119.033 17.1023
764 2 11.8844 118.863 17.2485
765 2 0.178255 122.893 17.1062
766 2 3.87803 122.984 16.8878
767 2 7.75236 122.889 17.0426
768 2 11.9095 122.816 17.1584
769 2 0.264336 126.721 17.0707
770 2 4.06277 126.638 17.0646
771 2 7.98891 126.73 17.1213
772 2 11.961 126.794 16.9666
773 2 0.047733 130.616 16.8096
774 2 3.90227 130.743 16.9418
775 2 7.97195 130.649 16.964
776 2 11.8531 130.466 16.8379
777 2 0.0798031 134.542 16.8415
778 2 4.03367 134.644 17.0192
779 2 7.88977 134.522 16.8994
780 2 11.9646 134.568 16.9963
781 2 15.7936 138.609 16.9961
782 2 3.89448 138.401 16.8396
783 2 7.81283 138.261 16.7439
784 2 11.8212 138.303 16.841
785 2 15.7614 142.342 16.7428
786 2 4.03769 142.362 16.6505
787 2 7.97857 142.379 16.7467
788 2 11.9238 142.34 16.8251
789 2 15.8583 146.174 16.7856
790 2 3.87139 146.215 16.9048
791 2 7.8298 146.169 16.7525
792 2 11.9352 146.358 16.6326
793 2 15.7222 150.114 16.6563
794 2 3.90761 149.969 16.8024
795 2 8.24453 150.082 16.6702
796 2 11.9288 149.965 16.6769
797 2 0.0505521 153.999 16.5373
798 2 3.99713 154.078 16.7484
799 2 7.86152 153.859 16.6215
800 2 11.9298 154.144 16.7245
801 2 0.110599 158.032 20.6445
802 2 3.88862 158.025 20.63
803 2 7.99035 157.927 20.5588
804 2 11.8164 158.019 20.5916
805 2 15.8154 3.58922 20.6401
806 2 3.97552 3.52362 20.4615
807 2 8.01557 3.55471 20.6371
808 2 12.0398 3.53517 20.7124
809 2 -0.0215703 7.39651 20.5665
810 2 3.9317 7.42551 20.5011
811 2 7.88663 7.56486 20.4865
812 2 11.7711 7.58949 20.4858
813 2 15.736 11.4297 20.5054
814 2 3.83307 11.2847 20.5194
815 2 7.86377 11.4618 20.4524
816 2 11.8163 11.3519 20.3141
817 2 15.7137 15.3731 20.1359
818 2 3.8861 15.4059 20.4222
819 2 7.89751 15.1906 20.4573
820 2 11.829 15.4039 20.3801
821 2 15.7545 18.9938 20.3489
822 2 3.9407 19.2711 20.4336
823 2 8.02281 19.283 20.545
824 2 11.9565 19.43 20.2304
825 2 15.7233 23.2323 20.1417
826 2 4.03586 23.0464 20.3049
827 2 8.07094 23.3124 20.2227
828 2 11.8925 23.1263 20.4286
829 2 0.152608 27.1669 20.3201
830 2 4.02926 26.894 20.1556
831 2 7.65691 27.2871 20.2339
832 2 11.9938 26.9665 20.3389
833 2 0.125762 31.0701 20.2235
834 2 3.92306 31.0861 20.354
835 2 8.02004 30.9286 20.2408
836 2 11.8356 30.8919 20.25
837 2 15.817 35.087 20.1825
838 2 3.91604 34.8803 20.2417
839 2 7.82925 35.1306 20.392
840 2 11.9152 34.9712 20.5946
841 2 0.134498 39.0843 20.6162
842 2 4.07793 39.0594 20.4217
843 2 8.11453 39.0914 20.3903
844 2 12.0773 38.9682 20.3802
845 2 0.0647773 43.009 20.3944
846 2 3.75495 43.1622 20.4374
847 2 7.87004 43.2317 20.678
848 2 12.0334 42.9464 20.4569
849 2 0.0939023 46.8933 20.7
850 2 4.01927 47.1117 20.6309
851 2 8.1883 47.0624 20.3979
852 2 12.1091 47.0032 20.5857
853 2 0.117206 51.1679 20.5298
854 2 4.24687 51.1815 20.6179
855 2 8.11728 51.163 20.6169
856 2 12.0733 50.9358 20.4796
857 2 0.1304 55.1848 20.7083
858 2 4.02822 55.0203 20.486
859 2 7.96125 55.0855 20.4788
860 2 11.9053 55.1113 20.585
861 2 15.7217 59.2019 20.6831
862 2 4.04959 59.0295 20.6333
863 2 8.02617 59.0969 20.6797
864 2 11.9445 59.139 20.6893
865 2 15.8321 63.0409 20.7709
866 2 4.06572 63.173 20.7759
867 2 7.8496 63.0729 20.7885
868 2 11.9135 63.1136 20.6332
869 2 0.0415976 67.1337 20.9243
870 2 3.98628 67.3968 21.0075
871 2 8.07135 67.0865 20.9111
872 2 11.9881 67.2139 20.9821
873 2 0.102877 71.108 20.9378
874 2 4.25128 71.4775 20.9579
875 2 8.0911 71.2828 20.973
876 2 12.0407 71.2975 20.8577
877 2 0.0467425 75.1227 21.0499
878 2 4.28082 75.3068 21.0001
879 2 8.23809 75.2626 20.8852
880 2 12.1849 75.1624 20.8995
881 2 0.127187 79.2416 20.9985
882 2 4.04618 79.2205 21.0021
883 2 8.08156 79.3303 21.0508
884 2 12.0435 79.2988 20.9871
885 2 -0.00445707 83.5032 21.0603
886 2 3.9934 83.2949 20.9199
887 2 8.14548 83.3249 21.3448
888 2 12.0084 83.2548 21.1887
889 2 0.0919601 87.5 21.2069
890 2 4.26531 87.454 21.0548
891 2 7.93367 87.2774 21.4096
892 2 11.9013 87.5349 21.115
893 2 0.0548353 91.3748 21.1931
894 2 3.90682 91.5339 21.4983
895 2 8.11471 91.5405 21.5009
896 2 11.8832 91.3391 21.3493
897 2 15.8238 95.3503 21.5421
898 2 3.89753 95.4372 21.4209
899 2 7.99322 95.51 21.3562
900 2 11.797 95.5645 21.4155
901 2 0.174476 99.4539 21.6699
902 2 3.97586 99.5003 21.5764
903 2 7.82883 99.6398 21.4416
904 2 11.8682 99.7588 21.3442
905 2 15.8154 103.275 21.3599
906 2 3.96713 103.528 21.4158
907 2 7.99062 103.519 21.3392
908 2 11.7826 103.56 21.5829
909 2 0.0817576 107.35 21.3486
910 2 4.05201 107.42 21.4247
911 2 7.74931 107.304 21.2484
912 2 11.9696 107.417 21.2747
913 2 15.726 111.329 21.3837
914 2 4.05 111.245 21.218
915 2 8.10776 111.162 21.3589
916 2 11.8185 111.177 21.1439
917 2 0.0330693 115.121 21.1768
918 2 3.84828 115.058 21.1483
919 2 7.95688 115.006 21.1334
920 2 11.9624 115.076 21.1562
921 2 0.120953 118.954 21.1962
922 2 3.9908 118.969 21.2363
923 2 7.82609 119.084 21.1418
924 2 11.9306 119.078 21.1573
925 2 0.169912 122.937 21.2918
926 2 3.8031 122.815 21.1118
927 2 8.05246 122.735 21.079
928 2 11.8248 122.948 21.0136
929 2 0.06435 126.889 21.1367
930 2 4.10973 126.894 21.0939
931 2 7.93189 126.758 21.1995
932 2 12.0391 126.871 20.9867
933 2 0.0815124 130.829 20.9889
934 2 4.05434 130.777 21.0991
935 2 7.80698 130.674 20.9535
936 2 11.75 130.638 20.68
937 2 15.7929 134.58 21.0439
938 2 3.7968 134.502 20.9963
939 2 8.03108 134.788 21.0945
940 2 11.9061 134.511 20.999
941 2 15.7412 138.377 20.9927
942 2 4.02105 138.489 20.895
943 2 7.87094 138.749 20.9214
944 2 11.7881 138.451 20.8867
945 2 15.7326 142.206 20.9251
946 2 3.92925 142.381 20.6382
947 2 8.07106 142.415 21.0139
948 2 12.0226 142.27 20.9032
949 2 0.23499 146.332 20.7832
950 2 4.00693 146.168 20.7652
951 2 7.89925 146.141 20.6682
952 2 11.8075 146.146 20.9335
953 2 15.8352 150.204 20.9168
954 2 4.03045 150.119 20.6094
955 2 7.87334 150.212 20.9508
956 2 11.9098 150.329 20.8535
957 2 0.273523 154.064 20.7498
958 2 3.93179 153.969 20.6107
959 2 7.93833 154.092 20.7802
960 2 11.8145 154.138 20.684
961 2 0.11921 158.176 24.5862
962 2 3.9511 158.055 24.5562
963 2 7.95006 157.971 24.5779
964 2 11.9754 157.951 24.6825
965 2 15.742 3.73642 24.5488
966 2 3.83266 3.6133 24.4093
967 2 7.95861 3.76439 24.5352
968 2 11.9076 3.37867 24.6763
969 2 0.0718554 7.51109 24.572
970 2 3.76723 7.50026 24.6125
971 2 7.88858 7.48899 24.4405
972 2 11.8509 7.5792 24.5122
973 2 -0.0228288 11.443 24.4098
974 2 3.94812 11.3786 24.4413
975 2 7.96305 11.2563 24.5339
976 2 11.9343 11.4186 24.529
977 2 0.0699257 15.4517 24.3821
978 2 4.17935 15.248 24.3425
979 2 8.00121 15.3692 24.3747
980 2 12.0022 15.2882 24.5479
981 2 15.7109 19.1753 24.3507
982 2 3.82794 19.2292 24.3026
983 2 7.9255 19.3092 24.4522
984 2 11.7948 19.1887 24.3925
985 2 0.078903 23.2532 24.212
986 2 3.94597 23.2213 24.2236
987 2 7.81938 23.1148 24.3589
988 2 12.0488 23.2812 24.3383
989 2 0.0213553 27.2079 24.4135
990 2 4.14342 27.0554 24.2304
991 2 8.04532 27.0589 24.2551
992 2 12.0146 26.9485 24.159
993 2 0.103651 31.045 24.2623
994 2 3.99408 31.1207 24.3594
995 2 7.95766 31.0736 24.129
996 2 11.92 31.025 24.2085
997 2 15.762 35.0891 24.2855