ITEM: TIMESTEP
15700
ITEM: NUMBER OF ATOMS
32000
ITEM: BOX BOUNDS xy xz yz pp pp pp
0.0000000000000000e+00 1.5832000000000001e+01 0.0000000000000000e+00
0.0000000000000000e+00 1.5831999999999999e+02 0.0000000000000000e+00
8.1807512588193276e-01 1.6015904287411695e+02 0.0000000000000000e+00
ITEM: ATOMS id type x y z
1 2 0.0732625 157.762 159.888
2 2 3.96241 157.84 159.921
3 2 7.99724 157.65 159.665
4 2 11.9732 157.726 159.82
5 2 15.9522 3.25075 159.726
6 2 4.03919 3.19205 159.895
7 2 7.8061 3.32945 159.71
8 2 11.849 3.21784 159.696
9 2 -0.109244 7.23502 159.697
10 2 3.93353 7.06753 159.676
11 2 7.75193 7.12023 159.635
12 2 11.8777 7.22367 159.808
13 2 -0.266004 11.1859 159.815
14 2 3.94104 11.0689 159.64
15 2 7.91717 11.2206 159.718
16 2 11.8188 11.2587 159.681
17 2 15.9462 15.1433 159.739
18 2 3.91943 15.1404 159.637
19 2 7.80767 15.229 159.696
20 2 11.8845 15.0716 159.877
21 2 -0.0693895 19.0517 159.784
22 2 3.89522 19.291 160.149
23 2 7.79011 19.1984 159.784
24 2 11.7 19.1626 159.81
25 2 15.886 23.1635 0.435188
26 2 3.81898 23.2176 160.034
27 2 7.93138 23.0697 159.838
28 2 11.7543 23.08 159.775
29 2 15.7648 27.3429 159.947
30 2 3.76306 27.3454 160.059
31 2 7.90655 27.2152 159.778
32 2 11.8517 27.2001 159.906
33 2 15.5981 31.2515 160.05
34 2 3.79886 31.2745 160.025
35 2 7.72759 31.2123 160.043
36 2 11.922 31.1934 0.587857
37 2 15.9772 35.2174 160.107
38 2 3.85947 35.2918 0.615803
39 2 8.01884 35.3287 160.216
40 2 12.1478 35.213 0.890532
41 2 0.0778407 39.3766 160.257
42 2 3.80383 39.1467 0.809842
43 2 8.11591 39.3498 0.936905
44 2 11.8575 39.2789 160.454
45 2 -0.0298286 43.3342 0.990089
46 2 4.16761 43.31 0.950005
47 2 8.02683 43.3903 1.07733
48 2 11.9511 43.3683 1.01905
49 2 15.8522 47.2841 0.929825
50 2 3.98416 47.3623 0.933369
51 2 8.10232 47.4299 0.971453
52 2 11.787 47.2201 0.953654
53 2 0.21097 51.4611 1.1627
54 2 4.10975 51.2084 1.07289
55 2 7.99119 51.3897 1.09467
56 2 12.0193 51.3201 160.45
57 2 -0.0108899 55.5054 0.982747
58 2 4.25653 55.3067 1.11765
59 2 8.07189 55.4095 0.989581
60 2 12.0996 55.4874 1.23758
61 2 0.139319 59.3913 1.03393
62 2 3.96313 59.4711 1.2006
63 2 8.03528 59.3854 1.25323
64 2 11.8497 59.4831 1.25737
65 2 0.179979 63.4613 1.3919
66 2 4.04901 63.4 1.30981
67 2 7.95777 63.5232 1.09386
68 2 11.794 63.3874 1.27282
69 2 -0.163015 67.4902 1.29642
70 2 3.90206 67.45 1.49046
71 2 7.89975 67.5112 1.44896
72 2 11.9687 67.5461 1.56438
73 2 15.9083 71.5141 1.65036
74 2 3.81193 71.4475 1.48578
75 2 7.86019 71.5173 1.51793
76 2 11.8284 71.5319 1.4144
77 2 -0.255267 75.5115 1.6043
78 2 4.13782 75.5626 1.48265
79 2 8.19772 75.5977 1.50997
80 2 11.9392 75.6102 1.66162
81 2 -0.0725643 79.507 1.60262
82 2 3.96296 79.689 1.4634
83 2 7.88107 79.6746 1.50166
84 2 11.7947 79.7438 1.47367
85 2 -0.0177351 83.6966 1.46379
86 2 3.92746 83.4972 1.45436
87 2 8.00992 83.6159 1.446
88 2 12.034 83.6458 1.62609
89 2 0.0648047 87.4263 1.4178
90 2 4.08624 87.8273 1.34439
91 2 8.12494 87.4828 1.3873
92 2 11.9862 87.4667 1.50209
93 2 0.070408 91.4025 1.38816
94 2 4.1001 91.3825 1.51877
95 2 8.00877 91.5957 1.47049
96 2 11.9388 91.5087 1.44241
97 2 0.162868 95.344 1.26814
98 2 4.24163 95.2657 1.33567
99 2 7.98059 95.3464 1.3158
100 2 12.0565 95.3316 1.23873
101 2 0.119135 99.23 1.5531
102 2 4.01282 99.2412 1.34737
103 2 7.97929 99.147 1.32347
104 2 11.9613 99.2169 1.53465
105 2 15.9807 103.213 1.42851
106 2 4.08863 103.066 1.26057
107 2 7.87849 103.07 1.41471
108 2 11.8511 103.108 1.35363
109 2 15.8752 107.061 1.29152
110 2 4.00214 107.118 1.13246
111 2 7.85678 106.977 1.3416
112 2 11.8368 106.97 1.30571
113 2 0.00563209 111.1 1.03925
114 2 3.87156 110.922 1.13591
115 2 7.93905 110.87 1.21633
116 2 11.9033 110.852 1.21465
117 2 -0.146154 114.848 1.24798
118 2 3.96402 114.596 0.928335
119 2 8.07722 114.778 1.25587
120 2 12.0481 114.89 1.16482
121 2 16.1349 118.585 1.01675
122 2 3.97689 118.727 0.995108
123 2 7.99782 118.646 0.994874
124 2 12.0056 118.702 160.403
125 2 -0.0514633 122.596 0.942319
126 2 3.94648 122.672 1.0511
127 2 7.98165 122.768 1.00407
128 2 11.9685 122.655 0.891889
129 2 0.126382 126.476 160.311
130 2 3.91602 126.622 160.348
131 2 7.76003 126.526 0.891589
132 2 11.7249 126.427 0.689462
133 2 -0.0371928 130.531 160.168
134 2 4.09717 130.614 160.137
135 2 7.94099 130.576 0.751389
136 2 11.8471 130.285 159.988
137 2 0.0130248 134.315 160.012
138 2 3.89285 134.29 160.133
139 2 8.04345 134.495 0.661673
140 2 12.0742 134.252 160.123
141 2 0.0520082 138.087 160.018
142 2 3.98371 138.289 160.068
143 2 8.05237 138.268 160.157
144 2 12.0305 137.992 0.452322
145 2 15.9753 142.159 160.091
146 2 4.0746 142.23 160.083
147 2 8.06177 142.134 160.231
148 2 12.0135 142.141 160.01
149 2 0.0750665 146.037 160.107
150 2 4.04116 146.042 160.072
151 2 8.05266 145.991 159.956
152 2 12.0148 146.04 160.034
153 2 15.9897 149.886 159.789
154 2 4.05364 149.851 159.908
155 2 7.92199 149.891 160.073
156 2 11.9037 149.95 159.955
157 2 15.951 153.798 159.922
158 2 3.88327 153.877 159.898
159 2 7.91204 153.927 159.864
160 2 11.9931 153.732 159.74
161 2 15.7735 157.909 4.67612
162 2 3.85319 157.823 4.59582
163 2 7.93552 157.929 4.48899
164 2 11.8139 157.907 4.49535
165 2 15.8854 3.31757 4.46933
166 2 3.87713 3.39021 4.27457
167 2 8.00401 3.47075 4.39465
168 2 11.6384 3.49883 4.30078
169 2 15.706 7.27763 4.49294
170 2 3.943 7.23381 4.39591
171 2 7.97409 7.17201 4.51025
172 2 11.7594 7.24232 4.24684
173 2 15.7302 11.1451 4.44186
174 2 3.96919 11.1273 4.21197
175 2 7.97688 11.0134 4.34241
176 2 11.8898 11.1841 4.5401
177 2 15.8707 14.9914 4.41753
178 2 4.15303 15.2075 4.36714
179 2 7.86586 15.1761 4.495
180 2 11.7146 15.0625 4.28112
181 2 -0.0898837 19.0855 4.32257
182 2 3.91241 19.1848 4.41314
183 2 8.0151 19.1838 4.46745
184 2 11.9202 18.9765 4.42998
185 2 15.8813 23.1066 4.40414
186 2 3.81961 23.246 4.5826
187 2 7.84027 23.1568 4.59659
188 2 12.0906 23.3237 4.40673
189 2 15.5444 27.4273 4.9344
190 2 3.81974 27.1734 4.47433
191 2 7.88888 27.1103 4.61604
192 2 11.8519 27.0883 4.4627
193 2 15.9562 31.1033 4.72694
194 2 4.03668 31.2819 4.65448
195 2 7.84525 31.0238 4.59671
196 2 11.7673 31.3329 4.71733
197 2 0.0219359 35.1122 4.48409
198 2 4.0541 35.1859 4.77689
199 2 7.8866 35.2675 4.7035
200 2 11.8275 34.9626 4.70983
201 2 -0.0141572 39.2754 4.82919
202 2 3.81287 39.3628 4.73713
203 2 7.92933 39.1305 4.93744
204 2 11.7537 39.2033 4.95717
205 2 0.149513 43.207 4.94842
206 2 4.21201 43.3518 4.71737
207 2 8.11864 43.1097 4.98181
208 2 12.131 43.4184 4.71611
209 2 15.9841 47.2984 4.96999
210 2 4.14523 47.2774 4.82644
211 2 7.94024 47.3528 4.96566
212 2 11.921 47.2721 4.93277
213 2 0.185767 51.2191 4.89645
214 2 4.10667 51.3594 5.0259
215 2 8.19066 51.3326 4.94983
216 2 12.1757 51.3973 4.86059
217 2 0.0554817 55.3377 5.19822
218 2 3.99183 55.307 4.96557
219 2 7.9647 55.3935 4.93349
220 2 11.9923 55.3327 5.00231
221 2 -0.0345581 59.4567 4.89854
222 2 3.98413 59.328 5.00783
223 2 7.98527 59.3685 5.09099
224 2 11.8717 59.4319 5.22321
225 2 -0.0141603 63.3794 5.0751
226 2 3.82414 63.5141 5.26187
227 2 7.81131 63.2716 5.10371
228 2 11.6982 63.4313 5.39837
229 2 -0.0574159 67.4843 5.13252
230 2 4.09568 67.4727 5.34314
231 2 7.72329 67.4 5.37791
232 2 12.0833 67.474 5.3091
233 2 0.373647 71.5693 5.42543
234 2 4.26228 71.5448 5.36218
235 2 7.97543 71.3994 5.27857
236 2 11.7848 71.4891 5.5052
237 2 -0.0182539 75.5172 5.41879
238 2 4.36199 75.6208 5.38326
239 2 8.07657 75.5428 5.33543
240 2 12.0494 75.4612 5.40259
241 2 0.206745 79.5268 5.42105
242 2 4.08011 79.5523 5.53702
243 2 8.14162 79.5117 5.33353
244 2 11.8888 79.6376 5.33715
245 2 16.099 83.6755 5.61257
246 2 4.13644 83.562 5.43541
247 2 7.96999 83.846 5.39294
248 2 11.9352 83.3945 5.5959
249 2 0.106831 87.5383 5.43849
250 2 3.9122 87.6309 5.56279
251 2 7.99836 87.7282 5.36364
252 2 11.9426 87.7179 5.55352
253 2 0.287867 91.4774 5.29547
254 2 4.07672 91.5463 5.52017
255 2 8.06423 91.5772 5.47038
256 2 11.9684 91.556 5.59931
257 2 0.131245 95.5757 5.52669
258 2 3.96457 95.5697 5.47761
259 2 8.02639 95.3355 5.33068
260 2 12.037 95.258 5.32842
261 2 0.0614163 99.2999 5.51366
262 2 3.98629 99.2522 5.34395
263 2 8.09463 99.3074 5.31783
264 2 11.8997 99.1926 5.37859
265 2 15.913 103.172 5.29346
266 2 3.83813 103.238 5.31217
267 2 7.95597 102.923 5.33453
268 2 12.0749 103.182 5.33383
269 2 -0.104126 107.215 5.15035
270 2 3.90806 107.127 5.33913
271 2 7.95645 106.903 5.33752
272 2 12.0755 107.061 5.1613
273 2 0.016332 110.819 5.31701
274 2 3.93553 110.817 5.22034
275 2 7.95211 110.979 5.29138
276 2 11.7217 111.016 5.3271
277 2 15.888 114.845 5.05988
278 2 4.2003 115.067 5.13833
279 2 8.00919 114.908 4.89636
280 2 11.9091 114.724 5.17929
281 2 15.9652 118.846 5.15197
282 2 4.0232 118.716 5.18433
283 2 7.88772 118.648 4.92327
284 2 12.0453 118.977 5.09687
285 2 15.9739 122.777 5.11369
286 2 4.07517 122.648 5.0965
287 2 7.90105 122.634 4.95733
288 2 11.8573 122.755 5.02464
289 2 -0.00508687 126.524 5.04843
290 2 4.1253 126.513 5.0965
291 2 7.95456 126.757 4.85747
292 2 11.9535 126.582 4.85443
293 2 -0.104786 130.329 4.55793
294 2 4.02343 130.558 4.75755
295 2 7.96063 130.486 4.8061
296 2 11.8247 130.403 4.97706
297 2 0.0373746 134.346 4.8916
298 2 3.87115 134.449 4.78199
299 2 7.8428 134.37 4.81499
300 2 11.8923 134.194 4.74874
301 2 16.1234 138.336 4.71666
302 2 4.05577 138.345 4.67438
303 2 8.12659 138.433 4.79477
304 2 11.9205 138.29 4.74489
305 2 0.137796 142.195 4.78595
306 2 4.03111 142.27 4.6589
307 2 8.01384 142.188 4.68633
308 2 11.9774 141.836 4.70755
309 2 15.8814 145.916 4.86101
310 2 3.9753 146.249 4.81622
311 2 8.15636 146.181 4.51856
312 2 11.9414 146.045 4.61532
313 2 -0.174775 150.008 4.5303
314 2 4.12176 149.982 4.64855
315 2 7.94603 149.819 4.56894
316 2 11.6562 150.054 4.44993
317 2 15.9308 153.872 4.55519
318 2 4.07739 153.908 4.5718
319 2 7.94504 154.126 4.54154
320 2 11.8434 153.979 4.52644
321 2 15.8582 157.837 8.62213
322 2 3.85574 157.847 8.46961
323 2 7.91248 157.918 8.45985
324 2 12.097 157.859 8.55974
325 2 15.7896 3.36474 8.57816
326 2 3.92998 3.51095 8.62543
327 2 7.86258 3.52171 8.38168
328 2 11.9273 3.4388 8.5767
329 2 -0.118179 7.35581 8.39432
330 2 3.90847 7.26674 8.47099
331 2 7.83225 7.35331 8.46388
332 2 11.7701 7.4574 8.36969
333 2 15.7873 11.3887 8.3759
334 2 3.78389 11.0242 8.21092
335 2 8.00113 11.216 8.3851
336 2 11.7934 11.4861 8.46801
337 2 0.0926573 15.2414 8.37674
338 2 4.09828 15.0157 8.38676
339 2 7.8703 14.9866 8.31372
340 2 11.974 15.2296 8.55438
341 2 0.0902406 19.1475 8.40352
342 2 3.95363 18.9914 8.33807
343 2 7.90627 19.1529 8.26421
344 2 11.837 19.0514 8.42051
345 2 -0.127513 23.1626 8.49062
346 2 3.98812 23.0994 8.41088
347 2 7.78934 23.1063 8.55457
348 2 11.7338 23.0582 8.46509
349 2 15.9116 27.2448 8.55815
350 2 3.9011 27.0778 8.44425
351 2 7.95643 27.1478 8.402
352 2 11.8111 27.0838 8.43256
353 2 15.9476 31.1061 8.73197
354 2 4.01669 31.1603 8.66145
355 2 7.94504 30.903 8.64437
356 2 11.6984 31.0898 8.48709
357 2 15.9241 35.1403 8.70186
358 2 3.80573 35.0647 8.65116
359 2 7.80703 35.075 8.66073
360 2 12.0531 35.0655 8.66542
361 2 15.9462 39.1599 8.66766
362 2 4.06017 39.1399 8.87551
363 2 8.0671 39.0636 8.80606
364 2 12.0403 39.0523 8.63349
365 2 15.9794 43.1335 8.79934
366 2 4.00574 43.4357 8.70177
367 2 7.91447 43.168 8.95718
368 2 11.8114 43.4143 8.70462
369 2 0.168083 47.1778 8.75561
370 2 4.0026 47.1609 8.82991
371 2 7.87262 47.3561 8.96421
372 2 11.9623 47.4092 8.76038
373 2 0.0860567 51.2988 8.70354
374 2 4.03528 51.2091 8.8674
375 2 8.01446 51.2174 8.88442
376 2 12.0103 51.2135 8.76175
377 2 0.198564 55.2226 8.91238
378 2 3.95175 55.1767 8.79173
379 2 8.05626 55.2526 9.03935
380 2 11.9178 55.3828 8.95268
381 2 15.9598 59.2969 8.83658
382 2 4.09739 59.1365 8.87511
383 2 7.80063 59.2811 8.91684
384 2 11.9128 59.2253 9.15569
385 2 0.216378 63.2701 9.104
386 2 3.95964 63.3919 9.03658
387 2 8.00583 63.3791 9.20819
388 2 11.8279 63.4073 9.1802
389 2 0.100354 67.4645 8.98161
390 2 4.05314 67.4575 9.02724
391 2 7.99275 67.3561 9.44548
392 2 12.0308 67.2323 9.12447
393 2 0.166259 71.6235 9.32756
394 2 3.7968 71.4995 9.23552
395 2 8.05902 71.267 9.28361
396 2 11.9454 71.2435 9.33354
397 2 0.189589 75.5096 9.24314
398 2 4.18888 75.5676 9.02498
399 2 8.09292 75.3712 9.38433
400 2 12.0597 75.5672 9.29558
401 2 0.162952 79.4269 9.2614
402 2 4.19338 79.7612 9.1416
403 2 7.9962 79.4444 9.43339
404 2 12.0424 79.4292 9.47124
405 2 0.0190507 83.6617 9.56361
406 2 4.02038 83.5112 9.21938
407 2 8.00987 83.6824 9.63971
408 2 11.9432 83.4756 9.48159
409 2 0.237144 87.5418 9.39304
410 2 4.11191 87.4448 9.51367
411 2 7.9974 87.6465 9.46092
412 2 12.0336 87.5043 9.46973
413 2 0.0826221 91.5349 9.56565
414 2 4.05846 91.6221 9.45566
415 2 8.09334 91.5314 9.47287
416 2 11.9948 91.3504 9.47644
417 2 0.117063 95.339 9.34354
418 2 4.2091 95.4367 9.35073
419 2 8.14035 95.4534 9.48939
420 2 11.9867 95.4184 9.43775
421 2 16.0072 99.3945 9.49415
422 2 4.09208 99.2993 9.35023
423 2 8.04529 99.3589 9.41608
424 2 11.9943 99.2427 9.53719
425 2 0.0726684 103.012 9.41455
426 2 3.99379 103.228 9.49364
427 2 8.00772 103.17 9.3206
428 2 11.871 103.276 9.29953
429 2 15.8917 106.983 9.20664
430 2 3.91335 107.006 9.39745
431 2 7.93708 107.077 9.31313
432 2 11.7006 106.965 9.22808
433 2 -0.0704136 111.019 9.3612
434 2 4.0673 111.105 9.22625
435 2 7.856 110.958 9.20229
436 2 11.8875 110.99 9.15499
437 2 0.00032138 114.893 9.01855
438 2 3.96957 114.775 9.12313
439 2 8.07593 114.994 9.12893
440 2 11.919 114.912 9.13514
441 2 0.128099 118.757 9.05541
442 2 3.84604 118.742 9.12232
443 2 8.12551 118.946 9.16364
444 2 11.9474 118.725 9.12202
445 2 15.8968 122.677 9.1534
446 2 4.17958 122.562 9.06804
447 2 7.89888 122.758 8.92441
448 2 12.0018 122.756 8.88544
449 2 0.201059 126.674 9.01582
450 2 4.08727 126.582 9.08941
451 2 8.18258 126.679 8.99132
452 2 11.9338 126.659 9.14156
453 2 0.200465 130.533 8.97979
454 2 4.01461 130.623 8.80181
455 2 8.00539 130.634 8.77672
456 2 11.8723 130.543 8.97807
457 2 0.0883785 134.47 8.70933
458 2 3.99534 134.474 8.65925
459 2 7.90991 134.388 8.79178
460 2 12.1075 134.503 8.73062
461 2 0.189482 138.32 8.95961
462 2 3.87131 138.42 8.8853
463 2 8.0452 138.203 8.88222
464 2 11.852 138.384 8.88527
465 2 -0.0160901 142.339 8.79421
466 2 3.91069 142.135 8.68838
467 2 7.90942 142.385 8.67765
468 2 12.076 142.302 8.81801
469 2 15.9247 145.935 8.65748
470 2 4.11662 146.13 8.54214
471 2 8.10138 146.086 8.65665
472 2 11.9359 146.159 8.81251
473 2 15.9629 150.042 8.58461
474 2 3.88367 150.212 8.53249
475 2 7.69159 150.041 8.67997
476 2 11.8759 149.956 8.65112
477 2 15.7959 153.987 8.35371
478 2 3.92679 154.132 8.68953
479 2 7.95749 153.827 8.63518
480 2 11.9121 153.933 8.61383
481 2 15.8734 157.822 12.6662
482 2 3.94367 157.883 12.4527
483 2 7.94745 158.046 12.4883
484 2 11.751 157.97 12.5683
485 2 15.8802 3.49543 12.4225
486 2 4.01476 3.41351 12.6593
487 2 7.74294 3.56643 12.4842
488 2 11.7988 3.50297 12.5471
489 2 -0.0568318 7.34965 12.5985
490 2 4.00293 7.45628 12.5313
491 2 7.79945 7.71679 12.4263
492 2 11.9526 7.5649 12.4432
493 2 15.787 11.1584 12.4286
494 2 3.97692 11.2617 12.4249
495 2 7.89762 11.4403 12.423
496 2 11.7912 11.3413 12.4615
497 2 -0.144466 15.043 12.5261
498 2 3.90189 15.2432 12.3194
499 2 7.75925 15.3239 12.5019
500 2 11.647 15.2251 12.366
501 2 15.9506 19.2053 12.4336
502 2 3.90776 19.1073 12.3034
503 2 7.78166 19.0292 12.3245
504 2 11.7684 19.2115 12.2434
505 2 15.8618 23.2377 12.4119
506 2 3.9843 23.1118 12.3225
507 2 7.89679 23.0303 12.3543
508 2 11.8879 23.0386 12.0954
509 2 15.7937 27.0474 12.4522
510 2 3.62574 27.0257 12.2944
511 2 7.79122 26.9746 12.3972
512 2 11.8078 26.846 12.505
513 2 -0.0966892 31.0013 12.5939
514 2 3.97899 30.9842 12.5522
515 2 7.84665 31.0954 12.5354
516 2 11.9167 31.0422 12.5094
517 2 16.0482 35.1633 12.6106
518 2 4.02087 35.2011 12.63
519 2 7.68811 35.0637 12.6789
520 2 11.8741 35.0071 12.68
521 2 15.9983 39.1853 12.4894
522 2 4.16191 39.2086 12.65
523 2 8.08649 39.1685 12.5986
524 2 12.0785 39.0845 12.6829
525 2 15.9709 43.0957 12.626
526 2 3.93224 43.2528 12.6693
527 2 8.08862 43.1155 12.8621
528 2 11.8746 43.0241 12.7567
529 2 16.1389 46.9796 12.7596
530 2 4.0734 47.1653 12.7472
531 2 8.14014 47.2055 12.9536
532 2 12.1035 47.1308 12.6409
533 2 0.110563 51.289 12.7158
534 2 4.02751 51.1071 12.8035
535 2 8.16752 51.0538 12.6852
536 2 12.1778 51.2581 12.6384
537 2 -0.0253379 55.0839 12.8101
538 2 4.26117 55.1696 12.9263
539 2 8.14153 55.0471 12.863
540 2 12.0292 55.1501 12.8286
541 2 0.0584288 59.2114 12.7642
542 2 4.18653 59.2968 12.8195
543 2 8.06507 59.289 12.9558
544 2 12.0982 59.3348 12.8079
545 2 -0.0851313 63.2911 12.8295
546 2 4.1139 63.4496 12.9181
547 2 8.18458 63.2955 13.0995
548 2 11.9615 63.0693 12.8729
549 2 0.222677 67.4988 13.1559
550 2 3.95987 67.3911 13.2592
551 2 8.07633 67.1439 13.3088
552 2 12.0955 67.3596 13.1766
553 2 0.0628348 71.4317 13.0728
554 2 3.91905 71.4431 13.0892
555 2 8.03614 71.2965 13.0828
556 2 12.0847 71.3357 13.3502
557 2 0.29245 75.5228 13.1966
558 2 4.18668 75.5096 13.2133
559 2 8.01984 75.4133 13.0668
560 2 11.9926 75.2993 13.1156
561 2 0.177626 79.4055 13.3049
562 2 4.17308 79.4143 13.1663
563 2 7.99578 79.4002 13.3388
564 2 11.8804 79.4196 13.2776
565 2 0.135641 83.4717 13.4148
566 2 4.00407 83.6518 13.3367
567 2 8.10302 83.4048 13.3125
568 2 11.8959 83.4799 13.2064
569 2 0.0226934 87.421 13.5221
570 2 4.1869 87.7018 13.5734
571 2 8.14819 87.5281 13.4912
572 2 12.0668 87.4905 13.5372
573 2 0.0975527 91.3895 13.6513
574 2 3.95477 91.5385 13.6212
575 2 8.03595 91.4638 13.5209
576 2 12.0233 91.6772 13.4933
577 2 0.139942 95.4073 13.3095
578 2 4.10026 95.4338 13.488
579 2 8.03252 95.4219 13.4402
580 2 11.9674 95.439 13.5258
581 2 -0.0293864 99.2545 13.5764
582 2 3.8576 99.3261 13.3537
583 2 7.84459 99.526 13.4096
584 2 11.9327 99.2806 13.5785
585 2 -0.0193045 103.109 13.3229
586 2 3.94931 103.323 13.3628
587 2 7.91743 103.2 13.5225
588 2 11.7663 103.306 13.368
589 2 15.9969 107.113 13.4215
590 2 4.11353 107.161 13.2372
591 2 7.80445 107.262 13.2231
592 2 11.7623 107.186 13.3646
593 2 -0.0682547 111.115 13.0745
594 2 4.14887 111.165 13.1955
595 2 7.97447 111.151 13.2167
596 2 11.8454 111.007 13.3418
597 2 15.8964 114.891 13.2036
598 2 4.07025 114.935 13.1729
599 2 8.03919 114.999 13.2019
600 2 11.8061 115.018 13.1795
601 2 15.7849 118.862 13.0845
602 2 3.8964 118.769 13.0851
603 2 8.01411 118.99 13.1863
604 2 11.928 118.99 13.1293
605 2 -0.113171 122.755 13.0318
606 2 3.99973 122.805 13.1956
607 2 7.92939 122.652 13.0808
608 2 12.0471 122.667 13.0145
609 2 15.8581 126.706 12.9844
610 2 4.20692 126.801 12.865
611 2 7.92051 126.628 13.1789
612 2 11.8447 126.658 13.0001
613 2 16.1144 130.689 12.7854
614 2 4.1202 130.584 13.0286
615 2 8.08465 130.634 13.0726
616 2 12.0481 130.544 13.055
617 2 0.271346 134.559 12.9659
618 2 4.15565 134.389 12.8762
619 2 7.98058 134.541 12.9793
620 2 11.9114 134.486 12.7981
621 2 -0.0596958 138.36 12.8495
622 2 4.33107 138.265 12.6823
623 2 8.13685 138.439 12.7283
624 2 11.8239 138.375 12.9357
625 2 15.9875 142.318 12.853
626 2 4.17935 142.24 12.6836
627 2 7.94694 142.383 12.9275
628 2 11.8808 142.375 12.9149
629 2 -0.150112 146.249 12.7483
630 2 3.99722 146.245 12.678
631 2 7.82018 146.174 12.7718
632 2 11.9458 146.347 12.7991
633 2 15.792 150.219 12.749
634 2 3.84761 149.916 12.714
635 2 7.75885 150.136 12.6653
636 2 11.798 150.074 12.6923
637 2 15.7846 153.981 12.7483
638 2 3.84154 153.891 12.4847
639 2 7.9026 153.932 12.6623
640 2 11.9445 154.052 12.608
641 2 15.9108 158.129 16.5479
642 2 3.944 158.049 16.6232
643 2 7.78768 157.93 16.5977
644 2 11.7574 158.093 16.7601
645 2 15.8324 3.59273 16.4859
646 2 3.89602 3.49672 16.5053
647 2 8.14577 3.76759 16.4448
648 2 11.82 3.69669 16.4028
649 2 -0.102401 7.53138 16.573
650 2 3.83817 7.46333 16.6998
651 2 7.85255 7.42555 16.4679
652 2 11.8828 7.59491 16.4631
653 2 15.9355 11.4907 16.3386
654 2 3.8982 11.4511 16.6125
655 2 7.71049 11.3816 16.5529
656 2 11.8268 11.5206 16.5537
657 2 -0.107522 15.2923 16.4359
658 2 3.92503 15.1979 16.1286
659 2 8.00196 15.2484 16.3871
660 2 11.9376 15.4285 16.3591
661 2 15.6728 19.082 16.2519
662 2 3.82044 19.057 16.2357
663 2 7.74372 19.3435 16.5059
664 2 11.4833 19.2868 16.3037
665 2 15.7757 23.0529 16.1742
666 2 3.97898 23.1477 16.46
667 2 7.92589 23.0098 16.2043
668 2 11.9708 23.2938 16.4408
669 2 -0.0782623 27.1108 16.2096
670 2 3.80476 27.1 16.2585
671 2 7.75728 26.9599 16.3586
672 2 11.8825 27.168 16.5103
673 2 15.7326 31.0126 16.5904
674 2 3.76843 30.9805 16.4243
675 2 7.99432 30.9163 16.3887
676 2 11.8981 30.9856 16.523
677 2 15.7826 35.1144 16.5138
678 2 3.87086 35.0246 16.4792
679 2 7.72383 35.0948 16.5945
680 2 11.9502 35.0064 16.457
681 2 -0.0825517 39.0585 16.6116
682 2 4.03881 39.0877 16.385
683 2 8.05903 39.0602 16.707
684 2 11.9846 39.2515 16.712
685 2 15.9298 43.2361 16.4406
686 2 3.8868 43.0376 16.6222
687 2 8.05304 43.0977 16.5033
688 2 11.998 43.0467 16.688
689 2 -0.0169642 47.1733 16.6073
690 2 4.17456 47.1098 16.764
691 2 7.87523 47.1502 16.6169
692 2 11.8744 47.1723 16.7041
693 2 15.993 51.0601 16.9279
694 2 4.00857 51.2232 16.6651
695 2 8.00623 51.1377 16.8773
696 2 12.1181 51.1899 16.6528
697 2 0.252749 55.1596 16.6408
698 2 4.10191 54.986 16.7013
699 2 8.06443 55.0355 16.7608
700 2 11.9258 55.0095 16.7911
701 2 -0.0950122 59.2092 16.8491
702 2 3.96258 59.0036 16.8137
703 2 7.83168 59.1222 16.7737
704 2 11.7859 59.1737 16.747
705 2 0.233744 63.1633 16.8576
706 2 4.16897 63.2354 16.8402
707 2 8.0162 62.9839 16.7526
708 2 11.9615 63.2456 16.8664
709 2 0.195823 67.1966 17.1371
710 2 4.04837 67.2644 16.9186
711 2 8.00037 67.2405 17.1529
712 2 12.0381 67.2203 17.0048
713 2 0.154317 71.2402 17.0924
714 2 4.04009 71.2947 17.1184
715 2 8.09835 71.1865 17.1701
716 2 12.1104 71.4158 16.9456
717 2 0.234373 75.5467 17.0835
718 2 4.12975 75.4089 17.0815
719 2 8.19071 75.2813 17.1004
720 2 12.3359 75.3392 16.9092
721 2 0.199429 79.4001 17.0363
722 2 4.31549 79.5226 17.2794
723 2 7.97109 79.3106 17.226
724 2 11.8992 79.2623 17.3456
725 2 0.126123 83.4283 17.1644
726 2 4.00943 83.4714 17.2874
727 2 8.06806 83.267 17.1387
728 2 11.9984 83.2495 17.2668
729 2 0.0155816 87.3092 17.1574
730 2 4.15248 87.3607 17.4524
731 2 7.82307 87.4867 17.4277
732 2 11.733 87.4186 17.2982
733 2 -0.0137456 91.2496 17.4156
734 2 3.8322 91.5416 17.4762
735 2 7.81474 91.4116 17.5788
736 2 11.8641 91.6221 17.4185
737 2 -0.0277785 95.578 17.4007
738 2 3.90888 95.4031 17.5184
739 2 7.92749 95.6098 17.4638
740 2 11.7847 95.7086 17.4863
741 2 15.7927 99.4223 17.4826
742 2 3.69597 99.4851 17.4134
743 2 7.89052 99.3736 17.5708
744 2 11.919 99.5384 17.5569
745 2 15.9372 103.468 17.471
746 2 4.13904 103.499 17.2895
747 2 7.91997 103.165 17.2688
748 2 11.8608 103.377 17.4175
749 2 15.7147 107.327 17.2499
750 2 3.7855 107.458 17.2068
751 2 7.91051 107.382 17.0596
752 2 11.8401 107.237 17.3206
753 2 -0.0477204 111.185 17.1786
754 2 3.93269 111.136 17.2166
755 2 7.88244 111.332 17.2709
756 2 11.8676 111.113 17.3566
757 2 0.163369 115.178 17.2368
758 2 4.01759 115.097 17.3044
759 2 8.05581 115.1 17.1705
760 2 11.9192 115.077 17.2279
761 2 0.111568 118.87 17.1666
762 2 4.03393 118.967 16.9638
763 2 8.03035 118.948 17.2502
764 2 11.996 118.98 17.1593
765 2 -0.00483757 122.983 16.9646
766 2 3.98214 122.763 17.0679
767 2 8.09782 122.762 17.2535
768 2 11.9635 122.94 17.0652
769 2 0.0632276 126.875 16.9276
770 2 3.95865 126.859 16.9848
771 2 7.8011 126.574 16.8883
772 2 12.0529 126.756 16.9922
773 2 -0.0522181 130.706 17.0904
774 2 4.02187 130.542 17.0754
775 2 7.91681 130.616 17.0666
776 2 11.9803 130.743 16.8766
777 2 0.11154 134.73 16.8975
778 2 4.04932 134.522 16.8435
779 2 8.04277 134.502 17.0439
780 2 11.8882 134.422 16.8434
781 2 16.0117 138.307 16.774
782 2 4.14174 138.51 16.9382
783 2 8.06284 138.396 16.8257
784 2 12.0233 138.448 16.9333
785 2 16.1314 142.324 16.8755
786 2 3.93288 142.309 16.8213
787 2 7.99902 142.244 16.9277
788 2 11.9386 142.169 16.7773
789 2 16.0245 146.168 16.7238
790 2 4.27168 146.199 16.675
791 2 8.10253 146.168 16.839
792 2 12.0085 146.256 16.8282
793 2 16.0831 150.114 16.8564
794 2 4.04113 150.283 16.6106
795 2 7.79582 150.228 16.6885
796 2 11.9348 150.21 16.8217
797 2 -0.121348 154.03 16.6668
798 2 4.08986 154.079 16.545
799 2 7.98505 153.994 16.6828
800 2 11.7709 153.856 16.3413
801 2 -0.175939 157.894 20.4973
802 2 4.0357 157.958 20.5423
803 2 8.04035 157.975 20.6575
804 2 12.0326 157.979 20.7561
805 2 15.9206 3.60394 20.5398
806 2 4.18302 3.50525 20.6256
807 2 8.00814 3.54073 20.5681
808 2 11.8349 3.66936 20.5605
809 2 -0.0561337 7.59224 20.4144
810 2 3.98161 7.53349 20.663
811 2 7.89936 7.3954 20.5096
812 2 11.9414 7.52932 20.5193
813 2 15.8713 11.3792 20.4501
814 2 4.01667 11.409 20.5446
815 2 7.98863 11.4164 20.547
816 2 11.7927 11.3139 20.5754
817 2 15.7477 15.276 20.7102
818 2 3.89173 15.2843 20.4723
819 2 7.87655 15.4554 20.5106
820 2 11.7653 15.2899 20.2527
821 2 15.7543 19.3236 20.3717
822 2 3.95111 19.0868 20.4353
823 2 7.88983 19.2875 20.295
824 2 11.7292 19.1775 20.5108
825 2 15.9168 23.127 20.4829
826 2 3.80923 23.1475 20.2756
827 2 7.87003 23.2804 20.1903
828 2 11.8656 23.189 20.4241
829 2 0.0459581 26.9333 20.3962
830 2 3.75964 27.0615 20.3603
831 2 7.87008 26.9777 20.2552
832 2 11.8337 27.0379 20.3529
833 2 -0.227644 30.9067 20.545
834 2 3.98602 31.0485 20.465
835 2 7.80935 31.185 20.3144
836 2 11.791 31.1235 20.5034
837 2 15.8559 34.8929 20.3484
838 2 3.88927 35.0037 20.4147
839 2 7.74483 34.9962 20.2085
840 2 11.7745 35.1706 20.2162
841 2 -0.0499247 39.083 20.4667
842 2 3.95865 38.9475 20.4935
843 2 7.8825 39.0529 20.5208
844 2 11.7896 39.0526 20.6686
845 2 -0.0301442 43.0461 20.6203
846 2 4.12194 42.9039 20.5191
847 2 8.0753 42.9757 20.4875
848 2 11.8996 43.2826 20.4594
849 2 0.168806 47.0075 20.5044
850 2 4.0263 46.8911 20.5255
851 2 7.78876 47.057 20.646
852 2 11.8747 47.0402 20.5518
853 2 0.301442 50.8948 20.7099
854 2 3.96084 50.9843 20.6912
855 2 7.90512 51.1173 20.744
856 2 12.1601 51.2712 20.4562
857 2 0.0578408 54.9602 20.6877
858 2 3.95641 55.3325 20.6334
859 2 8.09749 55.1748 20.6835
860 2 11.9916 55.1183 20.7922
861 2 15.6501 59.1445 20.5872
862 2 3.95462 59.1518 20.7613
863 2 7.97521 59.167 20.7689
864 2 11.8208 59.0572 20.6844
865 2 16.005 63.225 20.7098
866 2 4.00366 63.0828 20.7012
867 2 8.05425 63.1479 20.6435
868 2 11.9021 63.1159 20.8756
869 2 0.0339524 67.2145 20.8891
870 2 4.00071 67.0711 20.7449
871 2 7.92467 67.2187 20.8285
872 2 11.9841 67.0884 20.8046
873 2 0.186474 71.2347 20.8519
874 2 4.14049 71.136 20.8769
875 2 8.31967 71.1501 20.9227
876 2 12.1185 71.1242 20.9634
877 2 0.118736 75.2068 20.8856
878 2 4.07457 75.1286 21.0612
879 2 8.06667 75.37 20.9623
880 2 12.009 75.2469 21.0401
881 2 0.111349 79.1323 21.0095
882 2 4.11617 79.203 20.996
883 2 8.06879 79.3073 21.0825
884 2 12.0974 79.3011 21.049
885 2 0.0997769 83.1894 21.1082
886 2 4.10028 83.3887 21.2159
887 2 7.9527 83.385 21.0706
888 2 11.981 83.3107 21.1668
889 2 -0.0770381 87.255 21.3764
890 2 3.81935 87.3243 21.2791
891 2 8.01299 87.4143 21.1829
892 2 11.9709 87.1354 21.1338
893 2 -0.105666 91.2832 21.3178
894 2 4.15804 91.2646 21.4436
895 2 7.94258 91.2968 21.4551
896 2 11.8473 91.4149 21.4069
897 2 15.8563 95.3984 21.2187
898 2 4.14218 95.2257 21.2939
899 2 7.97567 95.3352 21.4549
900 2 12.0554 95.1208 21.3767
901 2 -0.11844 99.5224 21.3209
902 2 3.94573 99.3398 21.3847
903 2 8.02816 99.3071 21.4587
904 2 11.8292 99.4131 21.6089
905 2 15.9488 103.465 21.5623
906 2 4.02214 103.239 21.445
907 2 7.80724 103.369 21.2716
908 2 11.9009 103.392 21.3164
909 2 0.0317897 107.04 21.3743
910 2 3.81989 107.107 21.2016
911 2 8.01634 107.157 21.3068
912 2 11.8441 107.086 21.4786
913 2 15.9344 111.12 21.2148
914 2 4.02597 111.094 21.2567
915 2 7.81959 111.199 21.2304
916 2 11.8903 110.946 21.3857
917 2 0.0550245 114.98 21.3019
918 2 4.0827 115.158 21.1232
919 2 8.02209 115.109 21.3739
920 2 11.9731 115.018 21.1082
921 2 -0.0967357 119.15 21.2111
922 2 3.83468 118.998 21.1849
923 2 8.04993 118.869 21.2835
924 2 11.9725 119.143 21.1954
925 2 -0.113455 122.9 20.9965
926 2 4.06526 122.824 21.0443
927 2 7.86827 122.962 21.1911
928 2 11.9904 123.173 21.1109
929 2 -0.101456 126.849 20.9328
930 2 3.83949 126.733 21.0564
931 2 7.99906 126.755 20.9294
932 2 11.7411 126.844 21.1717
933 2 0.107387 130.73 20.9912
934 2 3.95677 130.7 21.0284
935 2 7.94818 130.652 20.9764
936 2 11.8923 130.653 20.9994
937 2 15.832 134.679 20.9682
938 2 4.08574 134.618 20.8623
939 2 7.87517 134.514 20.9595
940 2 11.8927 134.57 20.9758
941 2 16.0517 138.54 20.841
942 2 4.07179 138.565 20.9783
943 2 8.07478 138.378 20.8976
944 2 12.0173 138.518 20.8826
945 2 16.0518 142.561 20.8241
946 2 4.20663 142.487 21.0008
947 2 8.02865 142.448 20.793
948 2 11.7934 142.442 20.7004
949 2 -0.0905371 146.14 20.7896
950 2 4.18918 146.431 20.8845
951 2 7.98824 146.424 21.02
952 2 11.9875 146.283 20.618
953 2 16.0915 150.115 20.6893
954 2 4.08638 150.232 20.8988
955 2 8.14264 150.053 20.6944
956 2 12.0564 150.147 20.6529
957 2 -0.125537 154.085 20.5563
958 2 4.11334 154.16 20.8036
959 2 8.14674 153.998 20.5942
960 2 12.1896 154.123 20.6367
961 2 0.186838 158 24.6775
962 2 4.0746 158.074 24.5185
963 2 8.02562 158.181 24.4986
964 2 11.8745 158.078 24.6172
965 2 15.9246 3.56829 24.7156
966 2 4.04732 3.53772 24.7517
967 2 7.98175 3.68326 24.6507
968 2 11.9825 3.86388 24.552
969 2 -0.133363 7.65454 24.544
970 2 3.8641 7.53484 24.5237
971 2 7.8624 7.50546 24.62
972 2 11.7834 7.58214 24.6657
973 2 -0.249095 11.5477 24.5032
974 2 3.99801 11.396 24.5966
975 2 7.88053 11.5633 24.5719
976 2 11.7884 11.5544 24.6275
977 2 0.0743718 15.2297 24.3707
978 2 3.87446 15.3456 24.5524
979 2 8.04905 15.383 24.4041
980 2 11.8701 15.4495 24.4126
981 2 15.8565 19.2413 24.5078
982 2 3.92263 19.3729 24.495
983 2 7.76112 19.2583 24.4665
984 2 11.8327 19.2777 24.5475
985 2 0.15777 23.0595 24.4465
986 2 4.01794 23.0668 24.4604
987 2 7.84624 23.1874 24.1918
988 2 11.8763 22.9426 24.4061
989 2 0.179573 27.1578 24.3841
990 2 4.17884 27.1731 24.3022
991 2 8.10803 27.0614 24.3354
992 2 12.0194 27.182 24.4507
993 2 -0.0153953 31.0943 24.4834