ITEM: TIMESTEP
15900
ITEM: NUMBER OF ATOMS
32000
ITEM: BOX BOUNDS xy xz yz pp pp pp
0.0000000000000000e+00 1.5832000000000001e+01 0.0000000000000000e+00
0.0000000000000000e+00 1.5831999999999999e+02 0.0000000000000000e+00
8.6355687279235838e-01 1.6011356112720642e+02 0.0000000000000000e+00
ITEM: ATOMS id type x y z
1 2 0.263743 157.761 159.691
2 2 4.13836 157.75 159.798
3 2 7.84281 157.738 160.001
4 2 11.8352 157.777 159.753
5 2 15.726 3.24488 159.698
6 2 3.76004 3.33164 159.743
7 2 8.03097 3.49988 159.99
8 2 11.8108 3.39357 159.891
9 2 -0.0237614 7.23766 159.662
10 2 3.95383 7.37959 159.707
11 2 7.91316 7.23261 159.757
12 2 11.9766 7.25093 159.581
13 2 0.109222 11.1024 159.516
14 2 3.97933 11.1579 159.605
15 2 7.86504 11.1352 159.693
16 2 11.9425 11.0205 159.764
17 2 15.673 15.1737 159.767
18 2 3.96641 15.0891 159.801
19 2 8.04287 15.2249 159.701
20 2 11.8027 15.0886 159.719
21 2 0.177189 19.3422 159.847
22 2 4.04756 19.1628 159.648
23 2 7.88094 19.2717 159.734
24 2 11.8372 19.2782 159.764
25 2 15.6749 23.2601 0.889781
26 2 3.95412 23.0597 159.797
27 2 7.84541 23.2686 159.75
28 2 11.8455 23.1345 159.761
29 2 15.8368 27.0608 159.838
30 2 3.94066 27.3753 160.088
31 2 8.2346 27.3682 159.959
32 2 11.9288 27.2814 159.909
33 2 15.8258 31.4074 160.083
34 2 4.14656 31.1279 160.101
35 2 8.05933 31.1905 159.929
36 2 12.1457 31.5002 0.820923
37 2 15.7956 35.256 160.201
38 2 4.02242 35.2204 0.926862
39 2 7.9545 35.2275 160.027
40 2 11.6701 35.3192 0.86734
41 2 0.326744 39.3511 160.187
42 2 4.09177 39.287 0.897847
43 2 7.85492 39.287 0.805716
44 2 12.1015 39.5027 160.196
45 2 0.143975 43.3161 0.82388
46 2 3.94867 43.2142 0.902583
47 2 7.87024 43.2778 0.845348
48 2 12.1197 43.3303 1.09866
49 2 16.0601 47.4727 1.06688
50 2 3.99453 47.5104 1.05582
51 2 7.90487 47.3113 1.13601
52 2 12.0803 47.4265 1.04105
53 2 0.120712 51.5033 1.18217
54 2 4.14899 51.2931 0.937274
55 2 7.99425 51.3471 1.27951
56 2 11.9759 51.4239 160.263
57 2 0.0417338 55.3119 1.29203
58 2 3.94253 55.4578 1.11489
59 2 7.9729 55.2257 1.35832
60 2 11.9459 55.4178 1.30849
61 2 0.122094 59.431 1.29793
62 2 4.00551 59.6213 1.32649
63 2 7.92779 59.3474 1.34199
64 2 11.7978 59.4634 1.20863
65 2 0.0977531 63.5702 1.52508
66 2 3.8835 63.4804 1.44593
67 2 8.07309 63.52 1.39623
68 2 11.8877 63.4889 1.31572
69 2 0.228583 67.5468 1.45481
70 2 4.15594 67.4542 1.41877
71 2 7.86281 67.4791 1.266
72 2 11.9557 67.5967 1.2619
73 2 15.7256 71.549 1.45514
74 2 4.09384 71.5181 1.48712
75 2 8.18256 71.7213 1.5872
76 2 11.9796 71.5879 1.48136
77 2 0.168911 75.7416 1.54236
78 2 3.94097 75.6225 1.75887
79 2 7.91273 75.739 1.49417
80 2 11.7995 75.5954 1.4305
81 2 0.0997689 79.5724 1.59585
82 2 4.28931 79.7979 1.47394
83 2 8.19688 79.5464 1.59732
84 2 12.0205 79.4301 1.53373
85 2 0.110223 83.419 1.47977
86 2 4.07655 83.4656 1.52839
87 2 8.01005 83.3153 1.52177
88 2 11.8524 83.6728 1.45554
89 2 0.0156378 87.4787 1.46244
90 2 3.87321 87.4737 1.56394
91 2 7.86598 87.3106 1.53345
92 2 11.8241 87.4354 1.38374
93 2 0.109937 91.3371 1.45842
94 2 3.99187 91.3495 1.18656
95 2 7.81226 91.3378 1.56472
96 2 11.8325 91.4513 1.51006
97 2 -0.134147 95.4005 1.54283
98 2 3.88424 95.3258 1.41173
99 2 7.99572 95.2955 1.37554
100 2 11.6098 95.1951 1.48177
101 2 0.0894804 99.2041 1.09946
102 2 4.05734 99.333 1.23605
103 2 7.85585 99.2859 1.28556
104 2 11.8967 99.269 1.27473
105 2 15.7291 103.211 1.28599
106 2 4.0079 103.02 1.13325
107 2 8.17524 103.101 1.15764
108 2 11.9295 103.015 1.19633
109 2 15.8502 106.92 1.22674
110 2 4.07514 107.045 1.19633
111 2 7.92155 106.965 1.06474
112 2 12.0235 107.156 1.2187
113 2 0.0350665 110.806 1.13769
114 2 4.04877 110.984 1.06483
115 2 7.90802 111.001 1.14883
116 2 12.0706 110.944 1.24808
117 2 0.1321 114.877 0.945441
118 2 3.99558 114.954 1.08507
119 2 7.92553 114.94 1.15023
120 2 11.7269 114.876 1.08775
121 2 15.67 118.805 1.12144
122 2 4.0759 118.712 1.1805
123 2 7.97765 118.909 1.05531
124 2 11.7651 118.869 160.225
125 2 -0.146032 122.729 1.00401
126 2 3.91495 122.636 0.938214
127 2 7.96221 122.641 0.994144
128 2 11.8229 122.815 0.976357
129 2 -0.116482 126.594 160.17
130 2 4.18726 126.601 160.263
131 2 8.03335 126.666 0.919482
132 2 11.9498 126.671 1.24594
133 2 0.0391873 130.635 160.233
134 2 4.02381 130.414 160.224
135 2 7.84875 130.497 1.05137
136 2 11.964 130.541 160.12
137 2 0.242987 134.394 160.211
138 2 3.95185 134.327 160.074
139 2 7.77303 134.377 0.916459
140 2 11.9091 134.518 160.299
141 2 0.194801 138.335 160.024
142 2 4.08902 138.352 160.041
143 2 7.91207 138.201 159.999
144 2 11.9425 138.279 0.979845
145 2 15.8325 142.193 159.891
146 2 3.93663 142.024 160.16
147 2 8.04853 142.193 159.85
148 2 11.789 142.516 159.945
149 2 0.121158 146.103 159.908
150 2 4.19283 146.034 159.912
151 2 7.96185 146.199 160.02
152 2 11.8929 146.217 159.975
153 2 15.8033 149.969 159.855
154 2 4.05608 150.052 159.915
155 2 8.12736 149.9 159.909
156 2 12.0763 149.903 159.918
157 2 15.9467 153.841 159.696
158 2 4.19623 153.824 159.664
159 2 8.16164 153.766 159.87
160 2 11.8469 154.029 159.812
161 2 16.0478 157.766 4.23603
162 2 4.10076 157.721 4.48738
163 2 8.02325 157.731 4.53832
164 2 12.1406 157.762 4.51624
165 2 15.8561 3.34873 4.55239
166 2 3.9809 3.3915 4.62814
167 2 8.14992 3.39786 4.39473
168 2 11.9193 3.32876 4.52621
169 2 15.8732 7.25052 4.47537
170 2 4.06435 7.12167 4.38491
171 2 7.77801 7.09461 4.48603
172 2 11.8243 7.39221 4.63109
173 2 15.7627 11.2297 4.29379
174 2 3.78093 11.2312 4.66322
175 2 7.87341 11.3366 4.45378
176 2 11.9546 11.0904 4.30913
177 2 15.6649 15.195 4.2091
178 2 3.84466 15.2273 4.56786
179 2 7.87302 15.2741 4.51778
180 2 11.9532 15.0711 4.35251
181 2 -0.0412861 19.2511 4.42961
182 2 3.93888 19.0324 4.24307
183 2 7.7374 19.0029 4.44341
184 2 11.6904 18.9502 4.41166
185 2 15.7894 22.9944 4.48231
186 2 4.14014 23.1215 4.61002
187 2 7.83973 23.1268 4.40343
188 2 11.7683 23.2538 4.80261
189 2 15.8596 27.0695 4.57943
190 2 4.12638 27.0106 4.70592
191 2 7.889 27.1844 4.62936
192 2 11.7679 27.172 4.59858
193 2 15.9956 31.1939 4.59416
194 2 3.8208 31.0748 4.63383
195 2 8.00593 31.2533 4.80254
196 2 12.0914 31.0483 4.852
197 2 0.087033 35.4111 4.82057
198 2 3.9706 35.1441 4.74526
199 2 8.0498 35.3397 4.58253
200 2 12.0117 35.3273 4.71
201 2 0.286418 39.2545 4.70125
202 2 4.13804 39.368 5.05498
203 2 8.16574 39.3936 4.65945
204 2 12.0175 39.1748 4.60916
205 2 0.0857399 43.1646 4.9459
206 2 4.00716 43.2039 4.949
207 2 8.03029 43.4831 4.66152
208 2 11.8778 43.3416 4.86005
209 2 15.7597 47.205 4.97449
210 2 4.12335 47.3225 5.03362
211 2 7.98026 47.1971 4.80806
212 2 12.1385 47.2603 5.06099
213 2 0.0477394 51.2099 5.19852
214 2 3.86522 51.1507 5.10671
215 2 7.92948 51.1812 5.01769
216 2 11.9619 51.1428 5.17993
217 2 0.0743032 55.3059 5.04696
218 2 4.01144 55.331 5.26426
219 2 7.95915 55.308 5.08137
220 2 11.9903 55.1633 5.03929
221 2 0.221717 59.3915 5.34194
222 2 4.01918 59.3424 5.21101
223 2 7.94381 59.2795 5.12256
224 2 11.935 59.3127 5.00539
225 2 0.0187383 63.4991 5.29457
226 2 4.00902 63.3369 5.27571
227 2 8.02258 63.3041 5.17243
228 2 12.0615 63.3976 5.02691
229 2 0.0641529 67.3657 5.47499
230 2 3.94124 67.4943 5.28269
231 2 7.96526 67.5098 5.27036
232 2 11.9875 67.4431 5.30233
233 2 0.162232 71.3302 5.20691
234 2 3.93274 71.5706 5.23529
235 2 8.02108 71.4049 5.40164
236 2 12.0821 71.6884 5.22607
237 2 -8.5289e-05 75.5899 5.37208
238 2 3.99889 75.4718 5.63003
239 2 7.79987 75.4729 5.42031
240 2 11.9928 75.509 5.15478
241 2 0.137366 79.7424 5.52437
242 2 3.98581 79.3841 5.69446
243 2 7.9835 79.4754 5.57021
244 2 12.0569 79.3866 5.47086
245 2 15.9012 83.5243 5.48554
246 2 3.93438 83.5921 5.6299
247 2 7.95839 83.4252 5.54511
248 2 11.9301 83.7167 5.34852
249 2 0.136327 87.4343 5.58176
250 2 3.97799 87.5534 5.67931
251 2 8.06255 87.4871 5.56987
252 2 12.0263 87.666 5.23058
253 2 -0.136607 91.2613 5.59484
254 2 4.02364 91.4515 5.31745
255 2 7.92251 91.4063 5.43644
256 2 11.8086 91.5327 5.40538
257 2 0.0500693 95.2183 5.38932
258 2 4.1172 95.2784 5.32887
259 2 7.86199 95.3009 5.26222
260 2 11.8087 95.4522 5.28657
261 2 0.115913 99.3105 5.30485
262 2 4.07466 99.1874 5.34699
263 2 7.93375 99.3019 5.26024
264 2 11.9662 99.3049 5.26338
265 2 15.8569 103.079 5.22978
266 2 3.97277 103.042 5.02313
267 2 8.02727 103.277 5.18265
268 2 11.8037 103.25 5.29879
269 2 0.170074 106.994 5.18858
270 2 4.00026 107.076 5.22726
271 2 7.97309 107.173 5.1213
272 2 11.9342 106.967 5.28905
273 2 0.0575518 110.98 5.01909
274 2 3.88233 110.77 4.98361
275 2 8.10513 111.066 5.33726
276 2 12.236 111.152 5.09132
277 2 15.8249 115.074 5.27752
278 2 4.00747 114.937 5.09756
279 2 7.95302 114.841 5.13056
280 2 11.9673 114.943 5.10356
281 2 15.8739 118.819 5.09397
282 2 3.9726 118.938 5.28079
283 2 7.83425 118.722 5.01412
284 2 11.9755 118.664 5.0678
285 2 15.9681 122.699 4.78361
286 2 4.00175 122.671 4.96709
287 2 7.93769 122.819 5.17871
288 2 11.9709 122.704 5.20599
289 2 -0.0485431 126.699 4.9712
290 2 3.95218 126.582 4.94297
291 2 7.85413 126.653 4.8995
292 2 11.8173 126.675 5.12213
293 2 0.0778953 130.719 4.78951
294 2 4.09759 130.693 5.01765
295 2 7.94386 130.533 4.94132
296 2 11.9881 130.609 5.06085
297 2 0.145241 134.571 5.043
298 2 3.99157 134.326 4.90039
299 2 8.1046 134.35 4.94166
300 2 11.8397 134.526 4.94007
301 2 15.7033 138.351 4.76468
302 2 3.8535 138.146 4.8098
303 2 7.85236 138.428 4.86412
304 2 12.0011 138.518 4.734
305 2 0.169747 142.346 4.86468
306 2 3.91094 142.269 4.85458
307 2 8.01907 142.136 4.61571
308 2 11.7899 142.432 4.82965
309 2 16.0588 146.082 4.66874
310 2 4.14733 145.937 4.59854
311 2 7.95124 146.278 4.74858
312 2 12.0056 146.062 4.61684
313 2 0.278315 150.229 4.61152
314 2 4.1222 150.018 4.6129
315 2 8.05563 149.948 4.61108
316 2 12.1836 149.947 4.70141
317 2 16.0591 153.98 4.74489
318 2 4.18704 153.914 4.69217
319 2 8.02329 153.843 4.71378
320 2 12.0307 153.886 4.65475
321 2 15.8645 157.789 8.62196
322 2 3.9536 157.931 8.52861
323 2 7.96264 157.822 8.66841
324 2 11.8399 157.987 8.51505
325 2 15.8296 3.39532 8.59399
326 2 4.0844 3.42789 8.26601
327 2 7.7968 3.45628 8.6186
328 2 11.9662 3.51175 8.45444
329 2 0.144742 7.49807 8.5808
330 2 3.92772 7.48879 8.59954
331 2 8.02815 7.52334 8.42588
332 2 11.9601 7.38104 8.40948
333 2 15.7649 11.13 8.40454
334 2 4.13286 11.4498 8.56561
335 2 7.97143 11.4397 8.46406
336 2 11.7916 11.1643 8.33519
337 2 -0.212392 15.142 8.23042
338 2 3.76658 15.2748 8.43539
339 2 7.90762 15.2247 8.52453
340 2 11.6564 15.0329 8.45304
341 2 -0.0960744 19.1059 8.42924
342 2 4.01119 19.0798 8.36012
343 2 7.9421 19.1181 8.52576
344 2 11.8188 19.0264 8.4246
345 2 0.0109263 23.0204 8.53255
346 2 3.91835 23.0243 8.49954
347 2 7.99489 22.9425 8.47576
348 2 11.7611 23.0662 8.49954
349 2 15.9531 26.9919 8.46957
350 2 3.75469 26.8707 8.67728
351 2 8.02579 27.1231 8.65476
352 2 11.9432 27.1106 8.52193
353 2 15.9337 31.0327 8.53293
354 2 3.90269 31.1446 8.42311
355 2 7.87094 31.1419 8.48299
356 2 12.0928 31.1146 8.38738
357 2 15.8273 35.092 8.81625
358 2 4.10346 35.1151 8.80105
359 2 8.06569 35.1706 8.57158
360 2 11.7408 35.3314 8.59199
361 2 15.8776 39.2105 8.83525
362 2 4.0522 39.1226 8.74793
363 2 7.89325 39.1753 8.79369
364 2 11.9876 39.2118 8.61633
365 2 15.9556 43.1117 8.88679
366 2 3.83752 43.0862 8.97606
367 2 8.11785 43.1302 8.67012
368 2 12.1866 43.1824 8.79271
369 2 0.142671 47.1348 8.93469
370 2 4.11064 47.0496 8.8783
371 2 8.16831 47.1838 8.88023
372 2 11.8704 47.3097 9.0436
373 2 0.277507 51.3208 9.06945
374 2 4.16817 51.1901 8.94287
375 2 8.12574 51.3879 8.99601
376 2 12.0201 51.1692 9.12006
377 2 0.0510694 55.1786 8.88554
378 2 4.03856 55.4075 8.9853
379 2 8.08297 55.3907 8.98104
380 2 12.0178 55.3746 9.07913
381 2 15.6669 59.356 9.15027
382 2 3.99291 59.2931 9.09502
383 2 8.14708 59.3459 9.11819
384 2 11.9713 59.317 9.1798
385 2 0.019463 63.2384 9.11922
386 2 3.98934 63.3245 8.91558
387 2 8.04527 63.2276 9.08443
388 2 11.896 63.4159 9.16851
389 2 0.0396953 67.2978 9.23486
390 2 3.91655 67.4192 9.18043
391 2 7.97114 67.3154 8.806
392 2 11.9403 67.5703 9.27862
393 2 0.107581 71.388 9.14382
394 2 4.05008 71.4499 9.18432
395 2 8.02063 71.5006 9.1793
396 2 12.0344 71.5664 9.11153
397 2 0.208108 75.4131 9.36598
398 2 3.88719 75.3398 9.51164
399 2 8.05702 75.5145 9.32255
400 2 11.8218 75.4768 9.46358
401 2 0.12279 79.552 9.52341
402 2 4.03053 79.4316 9.4017
403 2 8.03704 79.4548 9.31561
404 2 12.2047 79.5532 9.48191
405 2 0.0999341 83.4474 9.22233
406 2 4.11161 83.5452 9.61977
407 2 8.06555 83.406 9.60512
408 2 12.0755 83.5191 9.44913
409 2 -0.0187567 87.4995 9.44284
410 2 4.05224 87.4056 9.31182
411 2 8.02168 87.4563 9.35235
412 2 11.8827 87.5634 9.50348
413 2 0.191355 91.5306 9.41247
414 2 3.92809 91.3588 9.53058
415 2 8.10632 91.5388 9.45201
416 2 11.8543 91.5599 9.44141
417 2 -0.0445027 95.267 9.32344
418 2 3.80014 95.3432 9.3097
419 2 7.98135 95.3725 9.28724
420 2 11.8046 95.5228 9.36076
421 2 15.837 99.4282 9.2232
422 2 3.88525 99.3063 9.23595
423 2 7.88613 99.2507 9.43741
424 2 11.9326 99.4302 9.34404
425 2 0.262387 103.286 9.16851
426 2 4.00491 103.337 9.30623
427 2 7.92362 103.286 9.46326
428 2 11.7526 103.224 9.21913
429 2 15.8153 107.163 9.21898
430 2 4.07318 107.13 9.24272
431 2 7.92855 107.326 9.25946
432 2 12.1402 107.22 9.25403
433 2 0.063786 111.178 9.33524
434 2 4.18328 111.12 9.26843
435 2 8.09286 111.098 9.2086
436 2 11.9403 111.182 8.85081
437 2 0.319868 114.919 9.22061
438 2 4.05408 114.881 9.07599
439 2 8.00313 114.666 9.15586
440 2 11.9305 114.964 9.30208
441 2 0.200955 118.938 9.18866
442 2 4.13873 118.972 9.02156
443 2 8.04819 118.88 9.24566
444 2 12.0769 118.983 9.22585
445 2 15.8453 122.841 9.06425
446 2 4.11893 122.857 9.08536
447 2 8.13546 122.734 8.97075
448 2 12.1168 122.701 9.11656
449 2 -0.0506062 126.615 8.90732
450 2 3.79523 126.821 9.00806
451 2 7.80382 126.608 8.8619
452 2 11.8759 126.76 8.91707
453 2 0.0901028 130.591 9.07802
454 2 3.96297 130.475 9.08077
455 2 7.96069 130.456 9.24805
456 2 11.8815 130.575 8.89296
457 2 0.0393878 134.491 8.93885
458 2 3.91306 134.349 8.97307
459 2 7.96214 134.639 8.94926
460 2 11.7444 134.398 8.9792
461 2 0.202183 138.301 8.88793
462 2 4.13318 138.371 8.91644
463 2 7.97295 138.443 9.00621
464 2 11.9914 138.304 8.79601
465 2 0.284135 142.273 8.76887
466 2 4.01673 142.433 8.82975
467 2 8.18045 142.205 8.85713
468 2 11.9361 142.291 8.88791
469 2 15.8577 146.198 8.80843
470 2 4.24108 146.173 8.74105
471 2 7.96888 146.175 8.91952
472 2 12.1236 146.203 8.73208
473 2 16.0313 150.141 8.78345
474 2 4.14605 149.955 8.58007
475 2 8.05808 149.95 8.52576
476 2 11.9356 150.227 8.61502
477 2 15.9449 154.07 8.829
478 2 4.14259 153.883 8.70419
479 2 8.06042 154.139 8.65793
480 2 12.0778 154.23 8.5499
481 2 16.0999 158.204 12.3923
482 2 4.11981 158.11 12.6234
483 2 8.11258 158.038 12.6882
484 2 12.032 158.012 12.6048
485 2 15.9409 3.74026 12.4878
486 2 4.01232 3.57917 12.5324
487 2 7.93791 3.54941 12.5245
488 2 11.9678 3.52516 12.6683
489 2 -0.0160284 7.53119 12.6606
490 2 3.86424 7.48425 12.5962
491 2 8.04538 7.36401 12.6415
492 2 11.8155 7.39973 12.5895
493 2 15.7228 11.5425 12.5621
494 2 3.96367 11.4992 12.4188
495 2 7.89039 11.3703 12.3604
496 2 11.8546 11.3705 12.4645
497 2 0.0933934 15.4273 12.615
498 2 3.87658 15.3142 12.637
499 2 7.94129 15.2489 12.5099
500 2 12.0791 15.243 12.5004
501 2 15.7529 19.0083 12.2977
502 2 4.10339 19.1386 12.5419
503 2 7.98669 19.1814 12.4551
504 2 11.8102 19.3288 12.596
505 2 15.8293 23.0442 12.246
506 2 3.86444 23.1077 12.5387
507 2 7.99741 23.0009 12.27
508 2 11.9722 23.2636 12.3017
509 2 15.9657 26.8645 12.5133
510 2 4.13087 27.0464 12.4623
511 2 7.9543 26.9827 12.3648
512 2 11.8777 27.0288 12.5118
513 2 0.0594603 30.9443 12.4873
514 2 3.81002 30.9736 12.3742
515 2 7.75937 30.9565 12.6319
516 2 11.9003 31.0805 12.3354
517 2 15.8491 35.0982 12.7118
518 2 3.98691 34.9293 12.3389
519 2 7.97195 35.1497 12.4257
520 2 11.9863 35.1393 12.4478
521 2 15.8243 38.9582 12.6522
522 2 3.92135 39.0811 12.6924
523 2 8.02279 39.2735 12.5705
524 2 11.8757 39.0697 12.8252
525 2 16.1415 43.249 12.864
526 2 4.07847 43.1108 12.7806
527 2 7.88676 43.0472 12.6695
528 2 11.9703 42.9624 12.8342
529 2 15.9119 47.1418 12.8495
530 2 4.11742 47.0492 12.8302
531 2 7.90583 47.0533 12.68
532 2 11.9053 47.0795 12.8337
533 2 -0.0599598 51.1209 12.9242
534 2 4.11722 51.1333 12.9123
535 2 7.81308 51.168 12.9158
536 2 11.6446 51.2614 12.8552
537 2 0.085688 55.1508 12.9326
538 2 3.79458 55.2236 12.9924
539 2 7.86671 55.0914 12.8236
540 2 11.9407 55.0285 12.9495
541 2 -0.132307 59.2378 13.0024
542 2 4.10692 59.3571 13.0032
543 2 7.96049 59.2365 13.1268
544 2 11.8092 59.3549 12.9478
545 2 -0.0576234 63.293 12.9928
546 2 4.02012 63.2125 13.0682
547 2 7.84732 63.2392 12.9787
548 2 11.8271 63.1023 13.1057
549 2 0.0426974 67.1931 13.1937
550 2 3.93738 67.388 13.0154
551 2 7.98594 67.208 12.9121
552 2 11.8979 67.292 12.9435
553 2 0.186108 71.2241 13.3723
554 2 4.07147 71.1482 12.9701
555 2 8.22838 71.3999 13.2092
556 2 12.0216 71.2933 13.1083
557 2 -0.0151977 75.1891 13.3127
558 2 4.0786 75.2928 13.2723
559 2 8.04031 75.4737 13.3809
560 2 12.1279 75.4864 13.3046
561 2 0.124837 79.3475 13.382
562 2 4.13775 79.1907 13.5051
563 2 8.09068 79.6032 13.2638
564 2 12.072 79.3484 13.3261
565 2 0.25665 83.5241 13.384
566 2 4.04304 83.2564 13.5356
567 2 8.10073 83.5192 13.3671
568 2 11.9589 83.5454 13.425
569 2 0.0207838 87.4351 13.4969
570 2 3.9336 87.404 13.445
571 2 7.79699 87.3171 13.2829
572 2 11.9135 87.3527 13.5906
573 2 0.0352432 91.4468 13.3837
574 2 4.02762 91.2865 13.4026
575 2 7.87071 91.3966 13.375
576 2 11.8731 91.2619 13.5143
577 2 0.135975 95.6491 13.4937
578 2 3.90398 95.3271 13.3895
579 2 7.90161 95.2482 13.3219
580 2 12.0236 95.3956 13.3779
581 2 0.119405 99.1932 13.3053
582 2 4.24513 99.4923 13.2062
583 2 8.09839 99.212 13.2727
584 2 11.9452 99.3789 13.2635
585 2 0.159714 103.482 13.4145
586 2 4.01721 103.209 13.3639
587 2 8.05884 103.352 13.3266
588 2 11.9887 103.205 13.3692
589 2 15.9772 107.156 13.3105
590 2 4.15327 107.101 13.1852
591 2 8.04832 107.252 13.3659
592 2 11.8612 107.204 13.2562
593 2 0.110143 111.104 13.3141
594 2 4.01266 111.02 13.4113
595 2 7.9151 110.929 13.262
596 2 11.9327 111.161 13.3722
597 2 15.9619 115.152 13.222
598 2 4.0467 115.025 13.2098
599 2 8.00277 114.836 13.1625
600 2 12.1123 114.92 13.2838
601 2 15.9373 118.966 13.0886
602 2 4.0847 118.926 13.1935
603 2 8.113 118.866 13.193
604 2 11.9247 118.927 13.1819
605 2 0.175311 122.747 13.0687
606 2 4.32044 122.878 13.2253
607 2 8.05375 122.843 13.0534
608 2 11.986 122.756 13.2568
609 2 15.8465 126.721 13.0578
610 2 4.04284 126.82 12.9499
611 2 8.14637 126.763 13.0676
612 2 12.0692 126.749 13.0344
613 2 15.9015 130.46 13.193
614 2 4.09988 130.587 13.1055
615 2 7.83541 130.51 13.086
616 2 11.8155 130.51 12.9625
617 2 0.0553549 134.32 12.9548
618 2 4.05304 134.636 12.9662
619 2 8.08551 134.503 12.9968
620 2 12.0846 134.644 13.1475
621 2 0.19173 138.384 12.7948
622 2 3.99926 138.408 13.0662
623 2 7.96465 138.212 12.8701
624 2 12.0703 138.234 12.9745
625 2 15.844 142.255 12.8532
626 2 4.11806 142.357 12.8439
627 2 8.08182 142.198 12.8645
628 2 12.0584 142.286 12.9051
629 2 0.313761 146.156 12.728
630 2 4.263 146.336 12.9253
631 2 8.23199 146.231 12.8307
632 2 12.2678 146.124 12.793
633 2 16.0044 150.091 12.748
634 2 4.30047 150.265 12.7516
635 2 8.13386 150.282 12.8508
636 2 12.074 150.174 12.7576
637 2 16.0958 154.233 12.6874
638 2 4.17349 154.055 12.8269
639 2 8.02863 153.87 12.6821
640 2 11.936 153.958 12.5523
641 2 15.8972 158.052 16.6369
642 2 3.99465 158.03 16.6269
643 2 8.03027 158.145 16.4666
644 2 12.0857 157.961 16.6238
645 2 15.8924 3.58913 16.6389
646 2 3.86977 3.71957 16.5845
647 2 8.10154 3.60037 16.7184
648 2 11.9536 3.64527 16.7649
649 2 -0.0284708 7.61994 16.6408
650 2 4.14273 7.55269 16.5813
651 2 7.82661 7.50825 16.5963
652 2 11.9888 7.37101 16.6407
653 2 15.7405 11.4139 16.5512
654 2 3.78323 11.3534 16.4483
655 2 7.96124 11.4717 16.5529
656 2 11.8755 11.2282 16.5676
657 2 0.0872455 15.1931 16.4998
658 2 4.13692 15.4842 16.5355
659 2 7.93625 15.3618 16.5702
660 2 11.758 15.3233 16.5245
661 2 15.8979 19.3216 16.617
662 2 4.10132 19.4058 16.3947
663 2 8.0277 19.1457 16.5388
664 2 11.8771 19.0551 16.1819
665 2 15.744 23.2757 16.5637
666 2 3.81728 23.0467 16.2553
667 2 7.81692 23.1324 16.6461
668 2 11.7777 22.9402 16.5453
669 2 -0.0157229 27.0335 16.3173
670 2 3.98235 27.1039 16.3736
671 2 7.94344 26.8525 16.3761
672 2 11.9861 26.9803 16.2348
673 2 15.7672 30.8932 16.3013
674 2 3.92845 30.9914 16.4161
675 2 7.94009 30.9537 16.5221
676 2 11.8532 31.039 16.3993
677 2 15.7176 34.9283 16.433
678 2 4.20812 35.0001 16.3965
679 2 7.88246 34.8407 16.5374
680 2 11.9357 34.8574 16.6356
681 2 -0.00989386 39.1045 16.6307
682 2 3.91797 38.9167 16.5001
683 2 7.73274 38.9981 16.5394
684 2 11.7349 39.0373 16.5273
685 2 15.6387 42.9843 16.4592
686 2 4.26179 43.1337 16.5378
687 2 7.95345 42.9323 16.6693
688 2 11.9084 42.9548 16.6005
689 2 0.0497 47.1347 16.7964
690 2 3.97779 47.0085 16.7337
691 2 7.97578 46.9473 16.6528
692 2 11.9585 47.1576 16.652
693 2 15.7665 51.1456 16.8083
694 2 4.07347 51.03 16.8964
695 2 7.90191 51.1011 16.8781
696 2 11.8971 51.0902 16.7688
697 2 -0.0172198 55.066 16.9515
698 2 4.03704 55.1078 16.8628
699 2 8.08353 55.3037 16.9974
700 2 12.0034 55.0728 16.8418
701 2 0.179588 59.2084 16.986
702 2 4.29628 59.1346 16.9998
703 2 8.04707 59.2514 16.7933
704 2 12.1096 59.2413 16.9334
705 2 0.14008 63.3099 17.0798
706 2 4.09953 63.1758 17.057
707 2 7.98387 63.3804 16.941
708 2 11.8147 63.038 16.757
709 2 0.046012 67.1552 16.86
710 2 4.04066 67.2035 17.0865
711 2 7.8366 67.193 16.8747
712 2 11.7824 67.1969 17.017
713 2 -0.0109815 71.1345 17.1101
714 2 3.84343 71.1947 17.2088
715 2 7.99458 71.0537 16.9826
716 2 11.8425 71.1464 16.9741
717 2 -0.0514372 75.1719 17.2469
718 2 3.86729 75.2375 17.1708
719 2 7.70635 75.3239 17.2164
720 2 11.8778 75.2606 17.2339
721 2 0.145011 79.2012 17.3614
722 2 3.9999 79.3526 17.2626
723 2 8.0368 79.2735 17.1907
724 2 11.9338 79.316 17.3187
725 2 0.0750621 83.4704 17.4251
726 2 4.14448 83.165 17.251
727 2 8.03202 83.3923 17.3914
728 2 11.9412 83.4265 17.2678
729 2 0.0454952 87.3961 17.3639
730 2 4.0029 87.3523 17.1462
731 2 8.07176 87.4916 17.519
732 2 12.1007 87.2315 17.1894
733 2 0.164921 91.5123 17.2804
734 2 4.11671 91.3751 17.2888
735 2 8.04677 91.2557 17.3148
736 2 11.9088 91.3579 17.2746
737 2 0.187914 95.3494 17.2945
738 2 4.2754 95.3408 17.4124
739 2 8.13355 95.4285 17.3662
740 2 12.0965 95.2497 17.4717
741 2 15.9498 99.1282 17.32
742 2 4.1439 99.2472 17.4012
743 2 8.19078 99.3477 17.4233
744 2 11.9861 99.2163 17.189
745 2 15.932 103.217 17.3727
746 2 3.87736 102.923 17.3691
747 2 7.95687 103.314 17.3201
748 2 11.8904 103.139 17.3508
749 2 15.7898 107.087 17.4018
750 2 4.10424 107.111 17.4916
751 2 7.99707 106.967 17.2671
752 2 11.9647 107.159 17.4741
753 2 0.149651 110.812 17.4851
754 2 3.99848 111.098 17.3374
755 2 7.98969 110.883 17.3266
756 2 11.936 111.205 17.2356
757 2 0.0674194 115.052 17.2145
758 2 3.97505 114.963 17.3446
759 2 7.88545 114.845 17.0473
760 2 11.7062 115.075 17.2438
761 2 0.0628884 118.983 17.3152
762 2 4.05714 118.962 17.192
763 2 8.02235 118.959 17.0491
764 2 11.9326 118.822 17.3176
765 2 -0.00647987 122.801 17.2811
766 2 4.05037 122.933 16.9627
767 2 7.94304 122.965 17.209
768 2 11.9155 122.873 17.2387
769 2 0.134843 126.629 17.1762
770 2 4.13348 126.78 17.1992
771 2 7.86901 126.771 17.0912
772 2 12.0988 126.673 17.1288
773 2 0.0782974 130.502 17.1615
774 2 4.14794 130.634 17.0629
775 2 8.03829 130.817 17.0019
776 2 11.9714 130.675 16.8554
777 2 0.263499 134.59 17.0051
778 2 4.18864 134.515 17.0002
779 2 8.11932 134.556 17.0862
780 2 12.0261 134.565 17.0802
781 2 15.9506 138.491 17.0128
782 2 4.19089 138.409 17.0451
783 2 8.15986 138.494 16.7406
784 2 11.8733 138.53 16.9999
785 2 15.9297 142.448 17.0803
786 2 4.04786 142.499 16.6356
787 2 8.1864 142.453 16.9315
788 2 11.9177 142.353 16.8692
789 2 15.8628 146.317 16.7526
790 2 4.0011 146.311 16.9044
791 2 7.89201 146.306 16.7695
792 2 12.015 146.514 16.7261
793 2 15.7841 150.252 16.7415
794 2 4.08197 150.096 16.6182
795 2 8.3044 150.259 16.7662
796 2 12.0763 150.259 16.8489
797 2 0.0748835 154.087 16.6645
798 2 4.14216 154.083 16.6217
799 2 8.01079 154.084 16.6993
800 2 12.0579 154.144 16.693
801 2 0.146851 158.027 20.7163
802 2 3.96643 158.145 20.7097
803 2 7.82948 158.16 20.7726
804 2 11.8028 158.205 20.6963
805 2 15.8508 3.75473 20.6986
806 2 4.03842 3.61458 20.4764
807 2 7.91281 3.75606 20.7154
808 2 11.8533 3.61308 20.9006
809 2 -0.0606904 7.49234 20.5789
810 2 4.00996 7.65815 20.647
811 2 8.08068 7.63303 20.6366
812 2 11.822 7.55305 20.6479
813 2 15.8075 11.3585 20.6379
814 2 3.69999 11.4016 20.6331
815 2 7.80151 11.5621 20.5458
816 2 11.9153 11.5767 20.652
817 2 15.6842 15.315 20.5179
818 2 3.86698 15.439 20.5221
819 2 7.84731 15.2275 20.6266
820 2 11.904 15.4472 20.5354
821 2 15.6947 19.2716 20.5681
822 2 3.90673 19.3942 20.7595
823 2 7.9728 19.2405 20.6357
824 2 11.8874 19.3629 20.5215
825 2 15.6428 23.4322 20.4437
826 2 4.08422 23.2161 20.5721
827 2 7.96988 23.1932 20.3228
828 2 11.5995 23.1634 20.4848
829 2 -0.0184743 27.2628 20.3623
830 2 3.85304 26.7731 20.4584
831 2 7.61823 27.132 20.4294
832 2 11.732 26.9419 20.2973
833 2 -0.01722 30.997 20.2247
834 2 3.8863 31.1183 20.4182
835 2 7.94379 30.9659 20.2882
836 2 11.8776 30.8484 20.2625
837 2 15.7755 34.9433 20.2933
838 2 3.89216 34.8203 20.4554
839 2 7.77196 34.9676 20.4896
840 2 11.9946 34.8835 20.5931
841 2 0.0712911 39.0366 20.6316
842 2 4.06262 38.8858 20.4759
843 2 7.98541 39.0202 20.3917
844 2 11.8665 38.7803 20.1789
845 2 -0.00860812 42.7923 20.3899
846 2 3.78071 43.0984 20.4992
847 2 7.77344 43.1402 20.6249
848 2 11.9475 42.9463 20.4624
849 2 -0.0776359 46.9482 20.6227
850 2 3.92295 47.1563 20.6082
851 2 8.03838 46.8862 20.5984
852 2 12.1036 46.7884 20.6693
853 2 -0.0506504 50.9952 20.511
854 2 3.96324 50.921 20.6312
855 2 7.90802 50.9485 20.682
856 2 11.9414 51.0179 20.6644
857 2 0.157726 55.0446 20.8269
858 2 4.05211 54.9917 20.6916
859 2 7.9667 54.9838 20.727
860 2 11.8104 54.9647 20.9005
861 2 15.8221 59.1911 20.8588
862 2 4.28065 59.014 20.8505
863 2 8.15769 59.0995 20.9689
864 2 11.8447 58.9651 20.9304
865 2 15.8703 63.0963 20.9487
866 2 4.00451 63.075 20.8722
867 2 7.93167 63.0878 20.8796
868 2 11.9909 63.1528 20.7745
869 2 0.034221 67.1043 20.8872
870 2 3.97749 67.1926 20.8254
871 2 7.92778 67.025 20.872
872 2 11.9689 67.1053 20.8468
873 2 -0.0888307 71.0457 20.8831
874 2 3.86629 71.273 20.9226
875 2 7.80626 71.1582 21.0993
876 2 11.7056 71.1673 20.9133
877 2 -0.129365 75.1594 21.1365
878 2 4.10883 75.2128 21.128
879 2 7.90022 75.4792 21.0484
880 2 11.9902 75.1589 21.1216
881 2 0.123367 79.2753 21.2576
882 2 3.97285 79.1746 21.1208
883 2 7.94681 79.2932 21.0799
884 2 11.955 79.2047 21.0808
885 2 0.0491581 83.3628 21.2874
886 2 4.07263 83.3944 21.1691
887 2 8.07605 83.2246 21.1804
888 2 12.0185 83.17 21.2583
889 2 0.327591 87.4124 21.3022
890 2 4.20923 87.3954 21.0169
891 2 7.97464 87.1062 21.3027
892 2 12.088 87.3588 21.1274
893 2 0.230281 91.4964 21.2249
894 2 4.17816 91.312 21.2945
895 2 8.00561 91.2932 21.1452
896 2 11.989 91.2492 21.2248
897 2 16.0278 95.3389 21.3899
898 2 4.10277 95.3653 21.4202
899 2 7.99756 95.3896 21.4198
900 2 12.0037 95.5126 21.4792
901 2 0.350496 99.1882 21.5177
902 2 4.24794 99.5914 21.4052
903 2 8.00633 99.3607 21.2178
904 2 12.0634 99.4015 21.1249
905 2 15.8527 103.134 21.2653
906 2 3.9324 103.454 21.6302
907 2 8.21587 103.472 21.3785
908 2 11.9237 103.35 21.4264
909 2 0.162644 107.104 21.3056
910 2 3.93386 107.25 21.4874
911 2 7.91167 107.232 21.4232
912 2 11.9378 107.283 21.4248
913 2 15.6646 111.302 21.4402
914 2 4.03263 111.291 21.3416
915 2 8.03311 111.191 21.5203
916 2 11.7313 111.207 21.3113
917 2 -0.0888295 114.984 21.2617
918 2 3.89948 114.99 21.2082
919 2 7.83907 115.074 21.3601
920 2 11.712 115.119 21.1849
921 2 0.127801 118.89 21.2509
922 2 4.1059 118.964 21.388
923 2 7.8168 118.971 21.22
924 2 11.8061 118.898 21.245
925 2 0.0263845 122.757 21.3564
926 2 3.87192 122.717 20.9894
927 2 7.99813 122.929 21.2327
928 2 11.8284 122.837 21.0685
929 2 -0.0795508 126.823 21.1858
930 2 4.04645 126.906 21.1749
931 2 8.05175 126.811 21.1798
932 2 11.9344 126.73 21.2136
933 2 0.0249286 130.56 20.9934
934 2 4.04724 130.786 21.1116
935 2 7.98221 130.633 21.1186
936 2 11.7258 130.61 20.8924
937 2 15.9173 134.57 21.1542
938 2 4.06512 134.546 20.9178
939 2 8.08997 134.785 21.0521
940 2 12.0995 134.554 21.0082
941 2 15.9724 138.408 20.9857
942 2 4.12698 138.516 20.8541
943 2 7.98234 138.739 20.9554
944 2 11.9714 138.452 20.9109
945 2 15.8977 142.367 21.007
946 2 3.92925 142.34 20.6939
947 2 8.16233 142.349 20.9186
948 2 12.1223 142.557 20.9122
949 2 0.217053 146.372 20.813
950 2 4.13028 146.304 20.8504
951 2 7.97453 146.433 20.6509
952 2 11.9023 146.237 20.9329
953 2 15.8598 150.372 20.9126
954 2 4.10225 150.171 20.7328
955 2 7.89944 150.329 20.8644
956 2 11.8049 150.44 20.7539
957 2 0.181276 154.237 20.7784
958 2 3.97261 154.063 20.8444
959 2 7.82765 154.39 20.7143
960 2 11.7948 154.282 20.7423
961 2 -0.0603346 158.115 24.6644
962 2 3.89666 158.062 24.6744
963 2 7.9572 158.151 24.5814
964 2 11.9064 157.964 24.7201
965 2 15.6677 3.65599 24.7967
966 2 4.00547 3.66529 24.7119
967 2 7.8863 3.75568 24.6026
968 2 11.8436 3.45639 24.6853
969 2 0.149834 7.56309 24.6846
970 2 3.98948 7.54457 24.6172
971 2 8.14604 7.57292 24.5648
972 2 11.841 7.48365 24.6932
973 2 -0.0613638 11.3898 24.6024
974 2 3.97429 11.5483 24.6502
975 2 7.82053 11.311 24.7191
976 2 11.978 11.4293 24.6054
977 2 -0.0285208 15.5307 24.4697
978 2 3.89868 15.3423 24.659
979 2 7.88752 15.5023 24.4863
980 2 11.6849 15.3148 24.6417
981 2 15.7108 19.3827 24.5823
982 2 3.74454 19.3454 24.5256
983 2 7.87174 19.34 24.6503
984 2 11.6997 19.2394 24.619
985 2 -0.143151 23.2648 24.3789
986 2 3.68647 23.2713 24.442
987 2 7.84329 23.2646 24.7037
988 2 11.7451 23.2897 24.5378
989 2 -0.32827 27.1497 24.3254
990 2 3.7312 27.1767 24.4567
991 2 7.70132 27.0745 24.5639
992 2 11.6014 27.0245 24.2867
993 2 0.0416821 30.8945 24.224
994 2 3.67964 31.0059 24.4859