ITEM: TIMESTEP
16000
ITEM: NUMBER OF ATOMS
32000
ITEM: BOX BOUNDS xy xz yz pp pp pp
0.0000000000000000e+00 1.5832000000000001e+01 0.0000000000000000e+00
0.0000000000000000e+00 1.5831999999999999e+02 0.0000000000000000e+00
8.7030989987526652e-01 1.6010680810012343e+02 0.0000000000000000e+00
ITEM: ATOMS id type x y z
1 2 0.0752013 157.67 159.861
2 2 4.04829 157.962 159.892
3 2 7.94687 157.901 159.522
4 2 12.0138 157.808 159.87
5 2 15.8084 3.46487 159.835
6 2 4.2256 3.49651 159.875
7 2 7.89934 3.3229 159.444
8 2 11.8366 3.36073 159.737
9 2 0.174683 7.32778 159.758
10 2 4.12622 7.15414 159.697
11 2 7.82938 7.34999 159.431
12 2 12.0146 7.41939 159.892
13 2 -0.0138868 11.2552 159.78
14 2 4.07738 11.1587 159.702
15 2 7.85874 11.398 159.695
16 2 11.6424 11.4358 159.584
17 2 15.7632 15.2715 159.389
18 2 3.86445 15.2825 159.755
19 2 7.66908 15.0264 159.712
20 2 11.7152 15.1796 159.593
21 2 -0.0785387 19.0359 159.708
22 2 3.96783 19.1084 159.888
23 2 7.74829 19.0686 159.679
24 2 11.6505 19.1381 159.783
25 2 15.9973 23.1523 0.621031
26 2 3.88862 23.3981 159.965
27 2 7.84 23.1444 159.855
28 2 11.728 23.2755 160.051
29 2 16.0701 27.3267 160.092
30 2 4.09016 27.1427 160.004
31 2 8.0569 27.128 159.782
32 2 12.0658 27.2892 159.856
33 2 15.8392 31.1434 160.03
34 2 3.88227 31.2673 160.052
35 2 8.00924 31.193 160.084
36 2 11.886 31.013 0.913664
37 2 15.9737 35.2824 159.913
38 2 4.03308 35.2187 0.730212
39 2 7.93372 35.2643 160.123
40 2 12.0529 35.3079 0.875962
41 2 0.129195 39.1955 160.132
42 2 4.05119 39.1955 0.88905
43 2 8.12263 39.3226 0.897236
44 2 11.9391 39.0915 160.114
45 2 0.142987 43.3715 1.12998
46 2 4.11036 43.4329 0.983929
47 2 8.02668 43.4717 1.11134
48 2 11.9663 43.3537 1.00198
49 2 15.7471 47.3879 1.1369
50 2 3.84589 47.2514 0.95548
51 2 8.11782 47.5078 1.01172
52 2 11.8801 47.3564 1.13606
53 2 0.204682 51.4923 1.18836
54 2 3.9408 51.416 1.2199
55 2 7.96176 51.3513 1.16802
56 2 11.8257 51.3284 160.386
57 2 0.000925869 55.5732 1.16416
58 2 4.06696 55.2981 1.24689
59 2 7.92609 55.3716 1.14414
60 2 11.9425 55.4082 1.27631
61 2 0.15277 59.467 1.15787
62 2 4.06434 59.4205 1.24534
63 2 7.91738 59.463 1.22431
64 2 11.9565 59.3345 1.32107
65 2 0.208309 63.6514 1.37091
66 2 4.22899 63.5073 1.23642
67 2 8.11889 63.5874 1.1054
68 2 12.1123 63.4212 1.16695
69 2 -0.0172779 67.496 1.27371
70 2 3.95536 67.517 1.32513
71 2 8.13881 67.5396 1.42336
72 2 11.9942 67.4897 1.42541
73 2 16.0796 71.4832 1.36364
74 2 3.77651 71.5758 1.20532
75 2 7.9563 71.4098 1.47617
76 2 11.8851 71.6079 1.58603
77 2 0.122091 75.7004 1.54979
78 2 4.19329 75.6916 1.48688
79 2 7.91227 75.6057 1.61479
80 2 11.9995 75.5342 1.5217
81 2 -0.0365767 79.5831 1.62506
82 2 3.90477 79.5938 1.41953
83 2 7.87206 79.6258 1.43277
84 2 11.8692 79.6159 1.45703
85 2 -0.109652 83.4305 1.60115
86 2 3.98423 83.6534 1.56093
87 2 7.97178 83.5239 1.43129
88 2 12.006 83.3707 1.59477
89 2 -0.0438316 87.2767 1.54513
90 2 4.06193 87.5973 1.51888
91 2 7.96732 87.359 1.3951
92 2 11.915 87.4017 1.64112
93 2 -0.0653032 91.5834 1.44073
94 2 3.94836 91.3527 1.73224
95 2 8.01917 91.3438 1.36485
96 2 11.9284 91.3364 1.4647
97 2 0.00081831 95.2481 1.29872
98 2 3.95755 95.2423 1.4098
99 2 7.83594 95.3379 1.32634
100 2 12.0759 95.3342 1.26469
101 2 0.000795427 99.1464 1.50492
102 2 4.02955 99.2158 1.31805
103 2 8.08906 99.2797 1.07933
104 2 11.8567 99.0907 1.38734
105 2 15.901 103.023 1.24496
106 2 4.2013 103.262 1.04005
107 2 7.98325 103.199 1.15889
108 2 11.8801 103.022 1.21476
109 2 15.8899 107.001 1.08045
110 2 4.22616 107.252 0.945316
111 2 8.1101 107.138 1.28904
112 2 11.8534 107.028 1.10374
113 2 0.229038 111.109 0.916546
114 2 4.02925 111.079 1.08894
115 2 8.1479 111.046 1.15576
116 2 11.9964 110.937 0.977799
117 2 -0.138453 114.86 1.18569
118 2 4.12339 114.682 0.962284
119 2 8.07488 114.924 1.11101
120 2 12.0829 114.837 1.05528
121 2 15.9989 118.638 0.883241
122 2 3.92531 118.832 0.967347
123 2 7.98417 118.862 1.06828
124 2 11.9044 118.723 160.3
125 2 -0.0254412 122.52 0.846139
126 2 3.87737 122.705 1.0137
127 2 7.95609 122.846 1.15772
128 2 12.0757 122.649 1.0627
129 2 0.307977 126.661 160.343
130 2 3.7591 126.534 160.246
131 2 8.02889 126.434 1.17198
132 2 11.9551 126.538 0.877386
133 2 0.0853082 130.607 160.146
134 2 3.93371 130.409 160.132
135 2 8.10708 130.49 0.950247
136 2 11.9752 130.596 160.325
137 2 -0.0766698 134.447 160.04
138 2 3.98105 134.362 160.232
139 2 8.02856 134.378 0.945027
140 2 11.8134 134.333 160.166
141 2 -0.0313186 138.209 160.042
142 2 3.94818 138.25 160.121
143 2 8.02487 138.329 160.196
144 2 11.9659 138.173 0.719519
145 2 15.9042 142.308 160.11
146 2 4.16509 142.297 159.904
147 2 8.05536 142.256 160.135
148 2 12.0977 142.186 160.001
149 2 0.167028 146.17 160.001
150 2 4.04386 146.021 159.991
151 2 7.98773 146.079 159.683
152 2 11.9213 146.221 159.893
153 2 16.0901 150.028 159.905
154 2 4.01543 149.871 159.74
155 2 7.95178 150.086 159.94
156 2 11.9339 150.189 159.911
157 2 15.9674 153.869 159.929
158 2 4.09202 153.856 159.828
159 2 7.97738 153.95 159.782
160 2 11.9581 153.844 159.929
161 2 16.0122 157.745 4.71102
162 2 3.95454 157.97 4.59502
163 2 7.97077 157.967 4.65699
164 2 11.9804 157.838 4.57713
165 2 15.9786 3.4891 4.56666
166 2 3.95032 3.55265 4.41712
167 2 8.01098 3.43547 4.6703
168 2 12.0203 3.52017 4.55826
169 2 15.9859 7.4117 4.51773
170 2 3.94412 7.61644 4.63327
171 2 8.04116 7.40703 4.4604
172 2 11.9648 7.26688 4.30691
173 2 15.8577 11.179 4.49721
174 2 3.89635 11.512 4.24357
175 2 7.7112 11.0712 4.37449
176 2 11.6499 11.1534 4.44544
177 2 15.7985 15.0935 4.34637
178 2 3.87021 15.2946 4.52776
179 2 7.8253 15.2703 4.55564
180 2 11.6606 15.139 4.23351
181 2 -0.197698 19.1354 4.36926
182 2 3.84142 19.1969 4.59647
183 2 8.12284 19.3285 4.50244
184 2 11.8796 19.1562 4.39014
185 2 15.9246 23.0882 4.62655
186 2 3.94372 23.132 4.6587
187 2 8.0515 23.1458 4.60702
188 2 12.0067 23.2537 4.47073
189 2 15.8298 27.1433 4.76098
190 2 3.97997 27.1828 4.59461
191 2 8.01637 27.0829 4.47119
192 2 11.9993 27.1379 4.5454
193 2 15.9934 31.2302 4.83855
194 2 4.26028 31.2303 4.66234
195 2 7.97358 31.0125 4.6092
196 2 11.977 31.4107 4.71371
197 2 0.0997572 35.1316 4.65885
198 2 4.10842 35.2527 4.8524
199 2 7.81003 35.2838 4.63646
200 2 11.8007 35.1154 4.74902
201 2 0.0510672 39.2015 4.81127
202 2 3.98721 39.2203 4.76061
203 2 7.82347 39.3091 4.97426
204 2 11.8879 39.2577 4.83277
205 2 0.24034 43.3622 4.9793
206 2 4.23479 43.3481 4.79135
207 2 8.00583 43.0165 4.91966
208 2 12.1316 43.2385 4.80197
209 2 16.029 47.3533 5.03917
210 2 3.94282 47.1999 4.91678
211 2 7.97266 47.3106 4.97681
212 2 11.8277 47.2833 5.00602
213 2 0.037053 51.2753 5.01828
214 2 4.11088 51.4213 5.0532
215 2 8.14599 51.3921 5.08105
216 2 12.0756 51.3872 5.08815
217 2 0.0033159 55.3033 5.26734
218 2 3.88632 55.3571 5.02099
219 2 7.85691 55.2092 5.09336
220 2 11.9619 55.4776 5.26625
221 2 -0.0453611 59.3706 4.96109
222 2 4.13804 59.3231 5.13831
223 2 8.07944 59.3383 5.2058
224 2 12.0405 59.4047 5.33285
225 2 -0.0187005 63.286 5.27674
226 2 3.89401 63.4718 5.25098
227 2 7.99187 63.3998 5.1037
228 2 11.8383 63.3739 5.33335
229 2 -0.079351 67.5228 5.20732
230 2 4.16406 67.4763 5.28844
231 2 7.88401 67.275 5.14617
232 2 12.0014 67.4819 5.29595
233 2 0.261288 71.7245 5.24695
234 2 4.3652 71.5037 5.25307
235 2 8.10701 71.5107 5.3613
236 2 11.9404 71.4563 5.40148
237 2 0.04676 75.5988 5.46089
238 2 4.18802 75.5687 5.40852
239 2 8.01358 75.4657 5.59994
240 2 11.9576 75.5471 5.65974
241 2 0.0967045 79.4815 5.60096
242 2 4.03444 79.5033 5.42825
243 2 8.09097 79.4262 5.395
244 2 11.7338 79.5264 5.52414
245 2 15.9008 83.4547 5.55198
246 2 4.19702 83.4391 5.28944
247 2 8.01212 83.549 5.47411
248 2 11.8104 83.2473 5.64825
249 2 -0.0247375 87.404 5.41566
250 2 3.95104 87.4669 5.34246
251 2 7.94843 87.5255 5.26477
252 2 11.8726 87.529 5.59934
253 2 0.147605 91.414 5.25657
254 2 3.94723 91.4692 5.58837
255 2 7.87553 91.4205 5.6184
256 2 11.8277 91.383 5.60669
257 2 0.00659771 95.4541 5.47541
258 2 3.78111 95.493 5.45264
259 2 7.73684 95.2966 5.4595
260 2 11.8795 95.3245 5.45402
261 2 -0.0288824 99.2258 5.37767
262 2 4.08019 99.266 5.16676
263 2 7.99139 99.3144 5.35565
264 2 11.7952 99.1947 5.51762
265 2 15.9013 103.131 5.06487
266 2 4.02873 103.205 5.33712
267 2 7.89017 103.125 5.30281
268 2 11.903 103.13 5.29018
269 2 0.115298 107.005 5.06607
270 2 4.05132 106.924 5.1252
271 2 7.93297 107.041 5.21976
272 2 12.0713 107.186 5.03292
273 2 0.218355 110.907 5.2935
274 2 3.97019 110.868 5.14958
275 2 7.98304 110.898 5.08859
276 2 11.8752 110.926 5.16013
277 2 16.0251 114.828 4.91249
278 2 4.03001 115.067 5.17224
279 2 7.86036 114.915 5.08033
280 2 11.9306 114.949 5.19429
281 2 15.8804 118.811 5.17238
282 2 3.8452 118.741 5.09187
283 2 7.79639 118.825 4.99701
284 2 11.9467 118.93 5.18212
285 2 15.9388 122.678 5.17601
286 2 4.04363 122.66 5.13079
287 2 8.03134 122.692 4.9926
288 2 11.7944 122.726 5.02415
289 2 0.0730767 126.644 5.04116
290 2 3.90095 126.586 5.15335
291 2 7.92986 126.755 5.0229
292 2 12.0518 126.791 4.97803
293 2 0.00353204 130.544 4.87247
294 2 4.12641 130.343 5.0072
295 2 8.07709 130.52 5.10368
296 2 11.8894 130.547 5.07983
297 2 -0.061518 134.606 4.949
298 2 4.0217 134.512 5.03144
299 2 7.87962 134.556 5.02357
300 2 11.9457 134.454 5.06257
301 2 16.0486 138.552 4.96815
302 2 4.16263 138.471 4.79275
303 2 8.08346 138.243 4.91148
304 2 11.9404 138.407 4.87898
305 2 -0.127147 142.228 4.7429
306 2 4.09462 142.103 4.70777
307 2 7.94959 142.247 4.88488
308 2 11.9642 142.017 4.71901
309 2 15.8515 146.205 4.82681
310 2 3.98116 146.238 4.80772
311 2 8.08654 146.018 4.69564
312 2 12.0029 146.181 4.88828
313 2 0.0224371 149.967 4.633
314 2 4.08031 150.066 4.69124
315 2 8.06604 150.148 4.78295
316 2 11.7915 150.082 4.6553
317 2 16.0125 153.839 4.41511
318 2 4.17361 153.843 4.52037
319 2 8.12745 154.134 4.6839
320 2 11.9839 154.009 4.67313
321 2 15.9368 157.962 8.59587
322 2 4.02469 157.948 8.52497
323 2 7.95696 158.121 8.50476
324 2 12.0788 158.015 8.69723
325 2 15.9825 3.54372 8.59213
326 2 4.02676 3.68062 8.8152
327 2 8.07829 3.58846 8.40682
328 2 11.9744 3.4815 8.73157
329 2 0.0351309 7.30129 8.61216
330 2 4.05327 7.62241 8.50481
331 2 7.89138 7.36004 8.56167
332 2 11.9611 7.30314 8.56558
333 2 15.7128 11.5913 8.3478
334 2 3.76315 11.4221 8.39518
335 2 8.08257 11.3556 8.50545
336 2 11.887 11.3702 8.40557
337 2 -0.123995 15.3381 8.42002
338 2 3.96855 15.1821 8.51656
339 2 7.93773 15.1566 8.54786
340 2 12.0145 15.2031 8.34652
341 2 0.0696096 19.097 8.37695
342 2 3.89989 19.0425 8.42482
343 2 7.92623 18.9884 8.50645
344 2 11.9123 18.9582 8.34668
345 2 -0.093221 23.0378 8.35659
346 2 4.11286 22.9665 8.42466
347 2 7.82737 23.0566 8.38301
348 2 11.7456 23.1617 8.34183
349 2 15.9524 27.0846 8.62157
350 2 4.2885 27.1542 8.37243
351 2 7.89823 27.1748 8.49931
352 2 11.9489 27.1089 8.44531
353 2 15.9354 31.1824 8.65774
354 2 4.11617 31.089 8.5412
355 2 8.04569 31.0351 8.69933
356 2 11.8091 31.1573 8.64197
357 2 15.8132 35.296 8.66039
358 2 3.89337 35.1062 8.49413
359 2 7.7829 35.1118 8.55777
360 2 11.955 34.9717 8.56676
361 2 15.8749 39.0377 8.58752
362 2 4.12452 39.0807 8.893
363 2 8.10381 39.1626 8.6526
364 2 11.9533 39.108 8.50355
365 2 15.8371 43.1274 8.89407
366 2 4.00979 43.2739 8.63273
367 2 7.93433 43.1252 8.83
368 2 11.8727 43.2001 8.72378
369 2 0.0505771 47.1515 9.00891
370 2 4.04787 47.2197 8.81072
371 2 7.81234 47.1601 8.72274
372 2 11.9917 47.1502 8.85331
373 2 0.108975 51.1877 9.01706
374 2 4.0772 51.1782 9.00172
375 2 7.99403 51.1508 8.88003
376 2 11.9669 51.2909 8.88762
377 2 0.146587 55.4599 9.24324
378 2 3.93268 55.1711 9.14465
379 2 7.94959 55.167 9.00751
380 2 11.9138 55.2442 9.02781
381 2 16.0262 59.2212 9.08699
382 2 4.13352 59.2201 9.13997
383 2 7.88175 59.2142 9.06716
384 2 11.7629 59.2275 9.16713
385 2 0.218676 63.3157 9.22235
386 2 4.05784 63.2153 9.29545
387 2 7.92186 63.4549 8.98299
388 2 11.8033 63.3248 9.11009
389 2 -0.0385794 67.4461 9.20851
390 2 4.03903 67.4409 9.03057
391 2 7.95283 67.3746 9.39084
392 2 11.8566 67.1602 9.11838
393 2 0.00477379 71.5391 9.14161
394 2 3.82702 71.3531 9.15026
395 2 8.02224 71.2153 9.26437
396 2 11.8357 71.2304 9.29792
397 2 -0.219398 75.4877 9.22086
398 2 4.03814 75.4535 9.28076
399 2 7.95701 75.4251 9.66329
400 2 11.955 75.4187 9.13376
401 2 0.106985 79.4612 9.47023
402 2 4.14257 79.5678 9.50334
403 2 8.03305 79.4419 9.57726
404 2 11.9144 79.4006 9.5119
405 2 -0.0959475 83.5067 9.62354
406 2 3.9901 83.317 9.3041
407 2 7.8742 83.4346 9.33523
408 2 11.825 83.3155 9.42078
409 2 0.0572775 87.3049 9.36473
410 2 4.05425 87.2663 9.47376
411 2 8.03374 87.3912 9.21617
412 2 11.9646 87.3343 9.37434
413 2 -0.185196 91.3919 9.51912
414 2 3.84025 91.3004 9.42924
415 2 7.8414 91.4337 9.52516
416 2 11.9452 91.3005 9.53774
417 2 -0.227744 95.4022 9.33528
418 2 3.84036 95.2949 9.32403
419 2 7.84742 95.3544 9.5567
420 2 11.7658 95.496 9.30555
421 2 15.8492 99.3506 9.44329
422 2 3.96716 99.3025 9.28114
423 2 7.94139 99.3116 9.24015
424 2 11.8981 99.3405 9.42443
425 2 -0.0160652 103.119 9.33478
426 2 4.11606 103.182 9.2904
427 2 8.0444 103.273 9.1499
428 2 11.9548 103.38 9.32215
429 2 16.0401 107.036 9.1612
430 2 3.96638 107.087 9.26805
431 2 8.21515 107.161 9.17428
432 2 11.9324 106.986 9.1573
433 2 0.111353 110.947 9.15313
434 2 4.04333 110.968 9.02129
435 2 8.03958 110.954 9.2146
436 2 12.2289 111.061 9.26108
437 2 -0.0174053 114.888 9.24619
438 2 4.14826 114.793 9.21012
439 2 8.01436 115.16 9.19818
440 2 11.9452 115.031 9.0881
441 2 0.100376 118.862 9.24166
442 2 4.02402 118.808 9.3891
443 2 8.06066 118.864 9.22237
444 2 11.7905 118.659 9.12002
445 2 15.921 122.705 9.21702
446 2 4.18952 122.769 9.18932
447 2 8.04759 122.838 9.16359
448 2 11.8891 122.881 8.79534
449 2 0.0443175 126.694 9.16597
450 2 3.90124 126.574 8.98742
451 2 8.03821 126.654 9.13191
452 2 11.9567 126.673 9.17916
453 2 0.0777697 130.569 9.05738
454 2 4.08632 130.574 9.00826
455 2 7.98884 130.774 8.983
456 2 11.8389 130.654 9.21391
457 2 0.0062173 134.477 8.98544
458 2 4.07112 134.376 8.81631
459 2 8.02147 134.503 8.99813
460 2 12.0755 134.615 8.96475
461 2 0.170543 138.517 9.00248
462 2 3.95836 138.515 8.92591
463 2 8.01106 138.377 8.88783
464 2 11.981 138.521 9.04956
465 2 -0.00525133 142.356 8.97997
466 2 4.1674 142.217 8.75972
467 2 8.00974 142.422 8.75303
468 2 12.063 142.386 8.89642
469 2 16.0611 146.155 8.72245
470 2 4.2385 146.104 8.66735
471 2 8.34883 146.112 8.63382
472 2 11.9701 146.354 8.79941
473 2 16.0809 150.122 8.60274
474 2 3.99303 150.159 8.77078
475 2 7.95488 150.225 8.90545
476 2 12.0975 150.147 8.79272
477 2 15.9604 153.977 8.57635
478 2 4.06401 154.206 8.71042
479 2 8.03016 153.868 8.75488
480 2 12.0228 153.956 8.72657
481 2 15.9994 157.916 12.7896
482 2 4.20417 157.907 12.7406
483 2 8.09915 157.972 12.56
484 2 11.8804 158.036 12.7519
485 2 16.0506 3.69402 12.5449
486 2 4.1262 3.5553 12.753
487 2 7.80043 3.63378 12.5744
488 2 11.9007 3.56061 12.5345
489 2 0.127891 7.59345 12.5227
490 2 4.20163 7.51891 12.6154
491 2 7.85547 7.59365 12.4068
492 2 12.0305 7.38804 12.5016
493 2 15.8416 11.2169 12.4197
494 2 4.1019 11.2986 12.5138
495 2 8.1801 11.2667 12.6236
496 2 11.9482 11.1834 12.4857
497 2 -0.0201861 15.0974 12.483
498 2 3.87928 15.3848 12.3311
499 2 7.92538 15.1668 12.5558
500 2 11.931 15.2584 12.5155
501 2 15.8539 19.1508 12.4371
502 2 3.78522 19.3043 12.4094
503 2 7.80501 19.0795 12.418
504 2 11.8546 19.3172 12.3173
505 2 15.7002 23.005 12.4258
506 2 3.95273 23.0001 12.3939
507 2 7.87856 23.0606 12.4655
508 2 11.8532 22.9722 12.4925
509 2 15.8081 27.1339 12.2571
510 2 3.95493 26.8651 12.3544
511 2 7.92223 27.0015 12.5955
512 2 11.8401 26.9938 12.3175
513 2 -0.132608 31.0473 12.3841
514 2 4.10649 31.0118 12.4897
515 2 7.91134 31.0209 12.4319
516 2 11.8072 31.1102 12.3456
517 2 15.9899 34.9805 12.4742
518 2 4.09653 35.1067 12.6692
519 2 7.90425 34.8705 12.7065
520 2 11.7392 34.9245 12.6231
521 2 15.9026 39.032 12.5431
522 2 4.20692 39.0255 12.7137
523 2 8.08507 38.9187 12.6017
524 2 11.8614 38.9891 12.4682
525 2 15.6937 42.8767 12.6132
526 2 3.84478 43.1033 12.8331
527 2 7.98754 42.9753 12.7231
528 2 11.8361 43.0856 12.608
529 2 15.9866 47.0262 12.9033
530 2 4.05394 47.1213 12.7781
531 2 8.00648 47.0014 12.8305
532 2 11.8179 47.1074 12.6147
533 2 0.129698 51.169 12.825
534 2 3.80762 51.1174 12.9114
535 2 7.81498 51.1383 12.7904
536 2 11.9389 51.2203 12.822
537 2 -0.197787 55.1956 12.9805
538 2 4.20055 55.1316 12.994
539 2 7.9207 55.2214 12.9787
540 2 11.8812 55.3851 13.1331
541 2 0.157696 59.321 13.142
542 2 3.96662 59.2706 13.0607
543 2 7.9201 59.2581 13.0155
544 2 12.0663 59.2101 13.2119
545 2 0.081781 63.2007 13.1321
546 2 3.87112 63.4203 12.8931
547 2 7.9146 63.3586 12.9803
548 2 11.9487 63.3267 12.9942
549 2 0.00300437 67.4063 13.1598
550 2 3.89577 67.2791 13.1395
551 2 7.76981 67.2671 13.124
552 2 12.0245 67.2347 13.096
553 2 -0.120702 71.3542 13.0143
554 2 3.95609 71.4397 13.0594
555 2 7.84851 71.2427 13.0252
556 2 11.9254 71.2539 13.0813
557 2 0.153218 75.3832 13.2139
558 2 3.9919 75.3323 13.3097
559 2 7.90522 75.3169 13.2497
560 2 11.7727 75.1602 13.1363
561 2 -0.0588318 79.344 13.4351
562 2 3.85141 79.37 13.1455
563 2 8.00996 79.2263 13.3875
564 2 11.9266 79.5129 13.5987
565 2 0.173423 83.3981 13.3718
566 2 4.03976 83.5893 13.4108
567 2 8.0299 83.2764 13.38
568 2 11.9943 83.376 13.4964
569 2 0.192471 87.3783 13.2689
570 2 4.203 87.4104 13.284
571 2 8.14077 87.3871 13.3406
572 2 12.0522 87.3277 13.1984
573 2 0.0941964 91.4261 13.4912
574 2 3.894 91.4217 13.4163
575 2 8.03586 91.2953 13.4062
576 2 12.003 91.4903 13.3083
577 2 0.147934 95.3073 13.1185
578 2 4.22397 95.4108 13.3099
579 2 7.93495 95.3359 13.3511
580 2 11.9351 95.3033 13.3856
581 2 0.113803 99.4582 13.3711
582 2 3.90789 99.041 13.0935
583 2 7.86234 99.278 13.369
584 2 12.0741 99.3192 13.3478
585 2 0.19226 103.052 13.3496
586 2 4.0642 103.137 13.3161
587 2 7.99171 103.091 13.4345
588 2 12.0718 103.287 13.1877
589 2 15.9849 107.153 13.326
590 2 4.16569 107.083 13.2797
591 2 8.1303 106.984 13.2138
592 2 12.1478 107.128 13.2946
593 2 0.122199 111.011 13.2515
594 2 3.99112 111.05 13.2296
595 2 8.15106 110.952 13.2659
596 2 12.0965 111.089 13.2077
597 2 15.9515 114.867 13.255
598 2 4.04358 114.913 13.3265
599 2 8.08194 114.866 13.2582
600 2 11.8877 115.019 13.3427
601 2 15.8045 118.903 13.2841
602 2 3.90084 118.806 13.142
603 2 7.83146 118.857 13.2169
604 2 11.8826 118.789 13.3739
605 2 -0.00624947 122.7 13.2853
606 2 3.9162 122.828 13.07
607 2 8.11498 122.722 13.1965
608 2 11.9757 122.656 13.1487
609 2 15.7723 126.625 13.0571
610 2 4.17833 126.787 13.1323
611 2 8.00008 126.61 13.1653
612 2 11.7162 126.458 13.0348
613 2 15.9507 130.623 13.0875
614 2 3.92033 130.76 13.1623
615 2 8.07468 130.699 13.1826
616 2 11.9636 130.549 13.098
617 2 0.25487 134.608 13.0582
618 2 4.00846 134.496 13.1179
619 2 7.92053 134.5 13.0303
620 2 12.0495 134.318 12.8213
621 2 -0.0301032 138.339 13.0156
622 2 4.16079 138.54 12.8217
623 2 7.93803 138.487 12.9013
624 2 11.9089 138.473 12.9775
625 2 15.9439 142.379 13.0544
626 2 4.0017 142.432 12.8967
627 2 8.02625 142.46 13.0136
628 2 11.8604 142.246 13.0064
629 2 0.0792026 146.346 12.8007
630 2 4.1007 146.279 12.7279
631 2 8.07764 146.309 12.8383
632 2 12.0756 146.404 12.7462
633 2 16.1179 150.419 12.7055
634 2 4.0384 149.97 12.7389
635 2 8.18668 150.122 12.6328
636 2 12.0101 150.168 12.7094
637 2 15.9932 154.054 12.7525
638 2 4.14048 154.027 12.6239
639 2 8.07782 154.203 12.7435
640 2 12.2066 154.206 12.7294
641 2 15.8572 158.066 16.6033
642 2 3.95476 158.042 16.7537
643 2 7.9926 157.811 16.8768
644 2 11.8992 158.12 16.8174
645 2 15.7709 3.73301 16.6116
646 2 4.00229 3.46899 16.6977
647 2 8.0775 3.59582 16.5682
648 2 12.0204 3.50577 16.6178
649 2 0.141485 7.55967 16.5739
650 2 3.86111 7.48262 16.7213
651 2 7.94222 7.48255 16.6052
652 2 11.7963 7.51112 16.4765
653 2 16.024 11.5031 16.5288
654 2 4.09732 11.562 16.7039
655 2 7.77133 11.4352 16.5023
656 2 11.7781 11.4617 16.5487
657 2 0.120012 15.4739 16.6623
658 2 4.12878 15.3849 16.389
659 2 8.07538 15.2117 16.5409
660 2 12.1444 15.231 16.4
661 2 15.8463 19.2692 16.4407
662 2 3.88426 19.1516 16.7398
663 2 7.70165 19.2446 16.5247
664 2 11.5747 19.1309 16.46
665 2 15.6961 23.0188 16.3573
666 2 3.87168 22.9822 16.5943
667 2 7.96532 22.9516 16.2419
668 2 11.9621 23.255 16.4407
669 2 0.0594383 27.1552 16.223
670 2 3.87212 26.8787 16.4045
671 2 7.81943 27.0699 16.334
672 2 11.9151 26.9945 16.3921
673 2 15.8491 30.9179 16.3646
674 2 3.81429 31.0052 16.3967
675 2 7.95788 30.8423 16.3717
676 2 11.8665 30.826 16.3618
677 2 15.897 34.9973 16.3881
678 2 3.78742 34.9395 16.3639
679 2 8.01841 34.9214 16.3966
680 2 11.9528 35 16.2822
681 2 -0.0196542 38.8492 16.5779
682 2 4.02071 39.004 16.5447
683 2 8.06803 38.921 16.6966
684 2 11.7973 38.9348 16.7006
685 2 15.8936 43.1105 16.6749
686 2 3.65228 42.8533 16.8261
687 2 7.97129 43.0388 16.7169
688 2 11.938 42.9552 16.6611
689 2 -0.260721 47.1306 16.5516
690 2 4.05992 47.0805 16.847
691 2 7.9238 47.0308 16.6105
692 2 11.6382 46.9665 16.5952
693 2 15.7798 50.9794 16.9259
694 2 3.87073 51.1669 16.6062
695 2 7.95537 51.0197 16.8373
696 2 11.709 51.1704 16.6365
697 2 0.204477 55.295 16.8222
698 2 3.95508 55.0409 16.8076
699 2 7.98324 54.988 16.752
700 2 11.8725 55.1321 16.9935
701 2 0.0749743 59.2388 17.0716
702 2 3.86014 59.0933 16.9306
703 2 7.94376 59.1044 17.0129
704 2 11.9151 59.0462 16.9718
705 2 0.203487 63.0443 16.974
706 2 3.98251 63.1589 16.9767
707 2 7.94867 62.9984 16.8572
708 2 11.9605 63.3576 17.0547
709 2 -0.0614031 67.1975 17.2289
710 2 3.91522 67.31 16.8164
711 2 7.82525 67.2244 17.1055
712 2 11.8395 67.0852 16.9468
713 2 -0.0724011 71.2598 17.0304
714 2 4.01388 71.2735 16.9312
715 2 7.86809 71.2379 17.1137
716 2 11.6571 71.3037 16.9716
717 2 0.00751213 75.2425 17.0768
718 2 3.95016 75.1741 17.1299
719 2 7.97752 75.093 17.0932
720 2 11.8086 75.2571 17.0292
721 2 -0.0906017 79.3684 17.1612
722 2 4.02763 79.1871 17.2737
723 2 7.91087 79.2438 17.2803
724 2 11.8649 79.2966 17.2851
725 2 0.143306 83.3782 17.3239
726 2 3.89658 83.3935 17.1342
727 2 8.06465 83.2418 17.1092
728 2 12.0861 83.2411 17.405
729 2 0.318791 87.5787 17.4754
730 2 4.28961 87.3503 17.3575
731 2 8.02557 87.3625 17.3023
732 2 11.9513 87.5766 17.3033
733 2 0.199792 91.3996 17.3651
734 2 4.11456 91.6437 17.4005
735 2 8.12514 91.5354 17.2695
736 2 12.1221 91.4319 17.2757
737 2 0.224447 95.5203 17.2951
738 2 4.10969 95.5088 17.365
739 2 8.28773 95.4872 17.1846
740 2 11.9809 95.5949 17.3067
741 2 15.8822 99.4573 17.474
742 2 3.95261 99.3912 17.4195
743 2 7.99438 99.2964 17.2747
744 2 12.0176 99.4775 17.4383
745 2 15.9807 103.354 17.3732
746 2 4.20708 103.472 17.1328
747 2 8.0424 103.077 17.3282
748 2 12.0695 103.283 17.3251
749 2 15.8494 107.248 17.37
750 2 3.83784 107.286 17.2828
751 2 7.9741 107.241 17.1551
752 2 11.9449 107.255 17.1902
753 2 -0.0527826 111.218 17.149
754 2 3.9422 111.069 17.3896
755 2 7.78993 111.066 17.2716
756 2 11.958 111.06 17.4934
757 2 0.0641274 115.01 17.364
758 2 4.00803 115.017 17.2923
759 2 7.76297 114.966 17.3146
760 2 11.9213 114.943 17.3073
761 2 0.034948 118.837 17.1815
762 2 4.15316 118.899 17.1017
763 2 7.88572 118.909 17.4272
764 2 11.8862 118.911 17.2368
765 2 0.273498 122.877 17.0836
766 2 4.00105 122.835 17.3407
767 2 7.99477 122.752 17.263
768 2 12.0116 122.675 17.211
769 2 0.305579 126.729 17.1021
770 2 4.01798 126.774 17.121
771 2 7.99937 126.702 17.0655
772 2 12.087 126.678 17.077
773 2 0.0799793 130.701 17.1652
774 2 3.99238 130.699 17.2853
775 2 7.98153 130.499 17.2171
776 2 11.9195 130.723 17.0838
777 2 -0.0107562 134.618 17.1319
778 2 3.94917 134.702 17.0841
779 2 8.00377 134.6 17.0743
780 2 11.9408 134.536 16.9938
781 2 15.8836 138.498 17.0063
782 2 3.86448 138.686 16.9581
783 2 7.80199 138.425 17.174
784 2 12.0243 138.328 16.9267
785 2 15.8559 142.486 16.7713
786 2 3.84635 142.381 16.88
787 2 7.85939 142.376 16.8311
788 2 11.9152 142.428 16.8304
789 2 15.9967 146.432 16.9274
790 2 4.06553 146.314 16.7297
791 2 8.14778 146.211 16.9189
792 2 11.9998 146.382 16.9149
793 2 16.1219 150.202 16.9957
794 2 4.07379 150.222 16.872
795 2 7.97256 150.212 16.8625
796 2 11.9747 150.283 16.8496
797 2 0.155966 154.086 16.7931
798 2 4.11314 154.055 16.7802
799 2 8.14858 154.158 16.8521
800 2 12.1299 154.176 16.5101
801 2 -0.128179 157.984 20.6598
802 2 3.94553 158.002 20.6534
803 2 7.92309 158.088 20.5755
804 2 11.9827 158.036 20.9442
805 2 15.8798 3.6373 20.7509
806 2 4.05423 3.66804 20.8003
807 2 7.96995 3.58972 20.6489
808 2 11.9953 3.75071 20.5397
809 2 0.0338405 7.61454 20.72
810 2 4.01264 7.50883 20.6924
811 2 7.71637 7.60133 20.6592
812 2 11.9172 7.67075 20.6475
813 2 15.7168 11.5315 20.4184
814 2 4.04872 11.5892 20.5872
815 2 7.91803 11.4988 20.6692
816 2 11.7932 11.2575 20.549
817 2 15.7317 15.3883 20.5403
818 2 3.89346 15.3673 20.6305
819 2 7.94327 15.4841 20.5868
820 2 11.778 15.1899 20.267
821 2 15.867 19.3103 20.3721
822 2 4.04939 19.1985 20.4868
823 2 7.96157 19.3237 20.567
824 2 11.8271 19.158 20.5771
825 2 15.7937 23.125 20.478
826 2 3.76692 23.1307 20.519
827 2 7.88069 23.4479 20.4556
828 2 11.8993 23.2101 20.5561
829 2 -0.070725 27.026 20.4269
830 2 3.83043 27.2572 20.3536
831 2 7.70904 27.1843 20.2939
832 2 11.6475 27.117 20.4597
833 2 -0.0844875 30.8262 20.4055
834 2 3.88283 30.9994 20.5344
835 2 7.64571 30.9592 20.3862
836 2 11.6986 30.9759 20.4037
837 2 15.9064 34.8365 20.3254
838 2 3.89421 34.9572 20.2988
839 2 7.82281 34.8756 20.198
840 2 11.7513 34.9338 20.2196
841 2 0.151042 38.8314 20.4919
842 2 3.91421 38.8903 20.4364
843 2 8.05946 38.8734 20.592
844 2 11.9167 38.9882 20.8651
845 2 0.0120705 42.9648 20.793
846 2 4.02886 42.7397 20.5222
847 2 8.06565 42.8863 20.462
848 2 12.003 43.0107 20.4925
849 2 0.167724 46.7487 20.7847
850 2 3.89694 46.7534 20.6966
851 2 7.95174 46.9749 20.5781
852 2 11.82 46.9988 20.6402
853 2 0.181132 50.8986 20.887
854 2 4.07078 50.9427 20.7197
855 2 7.9638 51.0324 20.8413
856 2 11.8982 50.9708 20.5955
857 2 -0.0746598 54.9542 20.6854
858 2 3.94601 55.2145 20.6726
859 2 7.90145 55.1009 20.7795
860 2 11.9317 55.172 20.8336
861 2 15.7984 59.0307 20.9534
862 2 3.87958 59.2066 20.8828
863 2 7.94385 59.168 20.7413
864 2 11.9982 59.1551 20.781
865 2 15.9372 63.1386 21.0247
866 2 3.99956 63.0965 20.9513
867 2 8.08945 63.0816 20.7931
868 2 11.9208 63.0275 20.9207
869 2 -0.132229 67.198 20.8684
870 2 3.90617 67.0474 20.9615
871 2 7.90746 67.237 21.0202
872 2 11.7753 67.0475 20.9872
873 2 -0.0462274 71.275 20.9695
874 2 4.00587 71.1278 20.8946
875 2 8.20055 71.1521 20.7677
876 2 11.9515 71.2101 20.8427
877 2 -0.000777113 75.1823 20.9914
878 2 3.7814 75.107 21.0108
879 2 7.98309 75.2572 21.0063
880 2 11.6806 75.1961 21.1481
881 2 -0.0519016 79.0232 21.0235
882 2 3.88282 79.2284 21.0824
883 2 7.81864 79.2678 21.1465
884 2 11.9892 79.228 21.2397
885 2 0.154393 83.2238 21.2654
886 2 4.13879 83.016 21.0514
887 2 8.03495 83.424 21.2439
888 2 12.0772 83.3616 21.167
889 2 0.17074 87.5049 21.3033
890 2 4.03097 87.2381 21.1391
891 2 8.19888 87.3681 21.1288
892 2 12.1496 87.296 21.2235
893 2 0.20664 91.417 21.252
894 2 4.27459 91.5656 21.3315
895 2 8.17037 91.292 21.2407
896 2 12.0939 91.5446 21.1574
897 2 15.9199 95.4206 21.4038
898 2 4.14124 95.2402 21.334
899 2 8.0646 95.3536 21.1983
900 2 12.0888 95.0789 21.2147
901 2 -0.0942189 99.3444 21.2801
902 2 4.05972 99.3522 21.2796
903 2 8.03901 99.4534 21.4133
904 2 11.9835 99.4117 21.4735
905 2 16.0186 103.275 21.5031
906 2 4.22322 103.339 21.2012
907 2 7.76826 103.432 21.2505
908 2 12.0274 103.474 21.2655
909 2 0.108528 107.091 21.3561
910 2 4.05478 107.269 21.3907
911 2 8.1009 107.282 21.307
912 2 11.981 107.148 21.4612
913 2 15.8904 111.1 21.3237
914 2 3.98414 110.985 21.4596
915 2 7.90148 111.053 21.3394
916 2 12.0103 110.936 21.5618
917 2 -0.0687381 115.043 21.3892
918 2 3.96255 115.121 21.326
919 2 7.93993 114.89 21.4085
920 2 11.7348 114.796 21.0945
921 2 -0.102434 119.023 21.3441
922 2 3.72624 118.852 21.1981
923 2 7.91621 118.848 21.3972
924 2 11.7862 119.127 21.2051
925 2 0.117652 122.86 21.133
926 2 4.10877 122.836 21.3674
927 2 7.87461 122.789 21.2072
928 2 12.0429 123.008 21.3038
929 2 0.282305 126.799 21.1799
930 2 4.10961 126.706 21.2656
931 2 8.19888 126.72 20.9852
932 2 12.0142 126.79 21.1753
933 2 0.184397 130.699 21.227
934 2 4.19835 130.732 21.1994
935 2 8.09838 130.803 21.0412
936 2 12.0358 130.52 21.1364
937 2 15.782 134.495 21.0201
938 2 4.01619 134.624 21.1022
939 2 7.97483 134.678 21.0759
940 2 11.8611 134.494 21.0695
941 2 15.9818 138.504 20.9741
942 2 4.08438 138.558 21.0123
943 2 8.03023 138.501 21.0266
944 2 12.019 138.542 21.116
945 2 15.8589 142.478 20.8811
946 2 4.22381 142.569 20.9956
947 2 8.08016 142.532 20.7952
948 2 11.9265 142.294 20.8697
949 2 -0.17077 146.313 20.8634
950 2 4.11005 146.4 20.8569
951 2 7.89294 146.268 21.0176
952 2 11.9187 146.405 20.7406
953 2 15.9547 150.292 20.8566
954 2 3.97487 150.337 20.8836
955 2 8.00277 150.269 20.8075
956 2 11.9122 150.231 20.9791
957 2 -0.0619323 154.147 20.7897
958 2 4.14381 154.218 20.6564
959 2 7.98827 154.067 20.7654
960 2 12.1263 154.31 20.8614
961 2 0.0395591 158.136 24.8563
962 2 3.9618 158.224 24.6906
963 2 7.81075 158.153 24.7328
964 2 11.7434 157.999 24.7851
965 2 15.8054 3.74553 24.6947
966 2 3.73024 3.67165 24.6715
967 2 7.91824 3.68116 24.8491
968 2 11.8364 3.82363 24.7987
969 2 -0.15428 7.58944 24.6989
970 2 3.74396 7.64516 24.6528
971 2 7.63567 7.55032 24.7473
972 2 11.8246 7.64725 24.6404
973 2 -0.169614 11.5955 24.6033
974 2 3.87671 11.3707 24.6691
975 2 8.0353 11.6027 24.5466
976 2 11.7326 11.5427 24.8022
977 2 0.00297959 15.1527 24.4927
978 2 3.99775 15.3414 24.6013
979 2 7.95691 15.3598 24.5954
980 2 11.9037 15.3591 24.5877
981 2 15.598 19.1853 24.5255
982 2 3.83399 19.3527 24.5905
983 2 7.62656 19.3642 24.5456
984 2 11.7272 19.248 24.6049
985 2 -0.194778 23.1791 24.6073
986 2 3.78463 23.1389 24.582
987 2 7.60783 23.2322 24.3518
988 2 11.7823 23.003 24.4906
989 2 -0.055049 27.1853 24.5241
990 2 3.88155 27.2019 24.5071
991 2 7.94028 27.136 24.4232
992 2 11.7798 27.2116 24.5343
993 2 -0.305387 31.0652 24.4671
994 2 3.98833 31.2306 24.4112