ITEM: TIMESTEP
16400
ITEM: NUMBER OF ATOMS
32000
ITEM: BOX BOUNDS xy xz yz pp pp pp
0.0000000000000000e+00 1.5832000000000001e+01 0.0000000000000000e+00
0.0000000000000000e+00 1.5831999999999999e+02 0.0000000000000000e+00
8.2469770073102211e-01 1.6015242029926713e+02 0.0000000000000000e+00
ITEM: ATOMS id type x y z
1 2 -0.00199319 157.854 160.243
2 2 3.92888 157.878 159.842
3 2 8.07059 158.011 159.926
4 2 11.9955 157.819 160.056
5 2 16.2522 3.36837 159.975
6 2 3.99945 3.31947 159.773
7 2 7.81846 3.43451 159.831
8 2 11.9442 3.53775 159.931
9 2 0.275453 7.38982 159.975
10 2 4.24444 7.32878 159.867
11 2 8.30666 7.27944 159.894
12 2 11.8674 7.23128 159.888
13 2 0.398478 11.1851 159.93
14 2 4.26084 11.2454 159.843
15 2 8.01619 11.3039 159.899
16 2 12.0329 11.5248 159.909
17 2 16.0305 15.2591 159.894
18 2 4.11729 15.2262 159.657
19 2 7.97298 15.4092 159.809
20 2 11.9752 15.3575 159.606
21 2 0.073631 19.104 159.741
22 2 3.98237 19.174 159.968
23 2 7.90401 19.3406 159.9
24 2 11.9021 19.2031 159.737
25 2 15.8414 23.3053 0.495327
26 2 3.98873 23.1449 160.058
27 2 7.98711 23.2653 159.782
28 2 11.859 23.2705 159.696
29 2 15.8612 27.3171 160.163
30 2 3.89145 27.2099 159.887
31 2 7.93908 27.3029 159.903
32 2 11.7543 27.1877 159.898
33 2 15.7937 31.3642 160.245
34 2 4.15295 31.1565 159.946
35 2 7.73867 31.1598 159.982
36 2 11.9844 31.361 0.663822
37 2 15.8447 35.1439 160.057
38 2 3.88128 35.3952 0.562065
39 2 7.95538 35.3976 160.048
40 2 11.9431 35.2847 0.804401
41 2 -0.202141 39.4577 160.093
42 2 3.74708 39.3531 0.593656
43 2 7.87237 39.4892 0.878703
44 2 11.9091 39.3414 160.107
45 2 -0.00168056 43.38 0.971584
46 2 4.15413 43.2954 0.912443
47 2 7.87996 43.1676 0.992944
48 2 11.9625 43.2159 0.850248
49 2 15.991 47.2758 0.989665
50 2 4.08302 47.4447 0.921096
51 2 8.0425 47.2049 0.876279
52 2 11.8034 47.311 1.16932
53 2 -0.00819488 51.1718 1.08742
54 2 3.97395 51.3647 0.932644
55 2 8.01312 51.4733 1.04126
56 2 12.0503 51.3886 160.498
57 2 0.000426376 55.4411 1.03042
58 2 4.02442 55.3931 1.09248
59 2 7.89329 55.4591 1.11784
60 2 11.8923 55.4459 1.16385
61 2 -0.00507963 59.3912 1.19216
62 2 3.99927 59.5895 1.23627
63 2 8.00932 59.3945 1.26083
64 2 11.9762 59.6997 1.23966
65 2 0.0318352 63.4279 1.26987
66 2 3.82659 63.4826 1.333
67 2 7.83147 63.3373 1.17224
68 2 11.8113 63.6156 1.37029
69 2 -0.175758 67.6721 1.35746
70 2 3.75454 67.608 1.37161
71 2 7.84737 67.4689 1.39739
72 2 11.945 67.5065 1.45922
73 2 15.8808 71.6138 1.19025
74 2 4.19508 71.5185 1.39881
75 2 7.80782 71.5518 1.41555
76 2 11.884 71.3893 1.42898
77 2 0.0619768 75.5557 1.47191
78 2 3.79951 75.7158 1.37967
79 2 8.07581 75.4505 1.48519
80 2 11.9457 75.4669 1.58077
81 2 -0.0876397 79.5796 1.55637
82 2 3.88096 79.7225 1.50627
83 2 7.81919 79.5387 1.47131
84 2 11.7698 79.3984 1.5542
85 2 0.101177 83.5826 1.58007
86 2 4.07287 83.6279 1.2879
87 2 8.03457 83.6228 1.43504
88 2 11.9486 83.2706 1.44433
89 2 0.120419 87.4066 1.54185
90 2 4.17185 87.4493 1.35014
91 2 8.23831 87.4285 1.35918
92 2 12.1323 87.3163 1.42473
93 2 0.212549 91.204 1.4201
94 2 4.08767 91.2311 1.316
95 2 8.08574 91.3199 1.35083
96 2 12.1107 91.2395 1.26296
97 2 0.39799 95.2652 1.39871
98 2 4.13129 95.1377 1.33531
99 2 8.11007 95.1785 1.13255
100 2 12.1054 94.9815 1.19601
101 2 0.0168915 98.9963 1.21924
102 2 4.2044 99.1087 1.05644
103 2 8.05414 99.0662 1.2813
104 2 12.0411 99.1594 1.20846
105 2 15.9573 102.978 1.19377
106 2 4.05647 103.222 1.28044
107 2 7.77621 103.155 1.36458
108 2 11.8579 102.948 1.30084
109 2 15.8553 107.03 1.1109
110 2 3.98934 106.907 1.18219
111 2 7.93628 107.2 1.05398
112 2 11.9114 106.946 1.33828
113 2 -0.103859 110.902 1.10158
114 2 4.21116 110.861 1.25222
115 2 8.08666 110.849 1.12307
116 2 11.9457 110.882 1.26037
117 2 0.0807152 114.715 1.10635
118 2 3.88672 114.719 1.09155
119 2 8.10013 114.687 1.1275
120 2 11.8546 114.709 1.16063
121 2 15.6767 118.585 0.986438
122 2 3.75962 118.711 0.831655
123 2 7.65051 118.671 1.05553
124 2 11.9512 118.481 160.507
125 2 0.0209589 122.608 0.931181
126 2 3.99726 122.586 0.961831
127 2 7.96796 122.616 0.846892
128 2 11.7631 122.471 0.869072
129 2 0.11181 126.652 160.108
130 2 3.92045 126.641 160.283
131 2 7.90411 126.469 0.775757
132 2 12.1139 126.683 0.88362
133 2 0.0502835 130.613 160.059
134 2 4.04905 130.477 160.278
135 2 8.18731 130.423 0.889545
136 2 12.0399 130.529 159.985
137 2 0.0508537 134.542 160.1
138 2 4.07859 134.353 160.044
139 2 7.98578 134.574 0.727517
140 2 12.0187 134.483 159.962
141 2 0.0571622 138.537 160.134
142 2 3.98732 138.244 160.2
143 2 7.97705 138.357 160.155
144 2 11.8859 138.416 0.773269
145 2 16.0387 142.108 160.002
146 2 4.01246 142.369 160.266
147 2 8.04739 142.373 160.053
148 2 12.0764 142.083 160.007
149 2 0.102056 146.158 159.963
150 2 4.09552 146.152 159.838
151 2 8.04987 146.03 160.143
152 2 12.041 146.135 160.14
153 2 16.0915 150.054 160.065
154 2 4.26175 149.927 160.122
155 2 8.12618 150.163 159.833
156 2 11.8685 150.113 160.043
157 2 16.2583 153.835 160.17
158 2 4.05168 154.084 160.095
159 2 8.0107 154.036 159.957
160 2 12.1364 153.976 160.03
161 2 15.7148 157.924 4.69034
162 2 4.03095 157.884 4.75046
163 2 7.78777 157.992 4.77513
164 2 11.9245 157.891 4.93755
165 2 15.998 3.35537 4.69223
166 2 4.03878 3.69603 4.65736
167 2 7.69273 3.61137 4.57239
168 2 11.7043 3.35746 4.6024
169 2 15.8437 7.44486 4.44592
170 2 4.09878 7.59516 4.44165
171 2 7.9746 7.38132 4.57829
172 2 11.9445 7.11939 4.55958
173 2 15.7864 11.2494 4.45326
174 2 3.99339 11.4674 4.52903
175 2 8.11376 11.2911 4.53527
176 2 11.9597 11.3263 4.35145
177 2 15.8566 15.1859 4.45245
178 2 4.10861 15.4359 4.51312
179 2 7.95357 15.06 4.32491
180 2 11.8577 15.147 4.4143
181 2 0.21206 19.2692 4.33824
182 2 3.97403 19.2851 4.6905
183 2 8.19634 19.0244 4.51913
184 2 12.0934 19.0583 4.29169
185 2 15.8838 23.2259 4.38007
186 2 3.99178 23.1491 4.47586
187 2 7.98107 23.1796 4.40306
188 2 11.9616 23.0688 4.36613
189 2 15.9446 27.2693 4.70685
190 2 4.06457 27.1368 4.42784
191 2 7.9283 27.1815 4.53561
192 2 12 27.0682 4.44672
193 2 15.8118 31.2056 4.64889
194 2 4.0595 31.2093 4.71483
195 2 8.0106 31.3202 4.50208
196 2 11.8187 31.1124 4.48983
197 2 0.0521908 35.2162 4.70048
198 2 3.87695 35.2463 4.41529
199 2 7.65443 35.2714 4.73583
200 2 11.7713 35.165 4.58095
201 2 -0.105595 39.2964 4.73323
202 2 3.81213 39.2019 4.60491
203 2 8.03486 39.158 4.69899
204 2 11.797 39.0864 4.74092
205 2 0.205691 43.2473 4.72642
206 2 4.1261 43.4087 4.7225
207 2 8.00224 43.3826 4.92209
208 2 11.9813 43.1923 4.72373
209 2 15.9138 47.2986 5.07333
210 2 3.98512 47.4136 4.85155
211 2 7.96521 47.2579 4.94738
212 2 12.0125 47.1945 4.70526
213 2 0.389951 51.4573 4.93748
214 2 4.0808 51.2467 4.81236
215 2 8.01199 51.3621 4.86618
216 2 12.0377 51.5411 4.77579
217 2 -0.0331516 55.5657 5.16729
218 2 4.03876 55.2562 4.87158
219 2 8.11002 55.4008 5.01303
220 2 11.9818 55.3034 5.00313
221 2 0.0292986 59.3512 5.11372
222 2 3.95503 59.2955 5.00154
223 2 7.94428 59.4157 4.99148
224 2 11.8114 59.3761 5.25404
225 2 0.0965474 63.4496 5.11217
226 2 3.95408 63.4806 5.15414
227 2 7.74506 63.5362 5.11425
228 2 11.7575 63.4151 5.32476
229 2 -0.0919569 67.5678 5.12808
230 2 3.89936 67.5364 5.29397
231 2 7.89482 67.5117 5.32955
232 2 11.7475 67.1501 5.30633
233 2 -0.010065 71.5964 5.1984
234 2 3.84145 71.433 5.35829
235 2 7.79178 71.3769 5.13929
236 2 11.7486 71.5118 5.40251
237 2 0.0669793 75.571 5.44692
238 2 4.05453 75.6271 5.39117
239 2 8.02744 75.5875 5.44366
240 2 11.6636 75.4636 5.20098
241 2 -0.112098 79.5369 5.50578
242 2 4.07213 79.7399 5.48776
243 2 7.90178 79.5494 5.31056
244 2 11.8368 79.4692 5.51853
245 2 15.844 83.4813 5.5361
246 2 4.14576 83.6271 5.37593
247 2 8.08367 83.4322 5.22278
248 2 11.9534 83.4319 5.43046
249 2 0.064193 87.3416 5.50823
250 2 4.09166 87.4214 5.28128
251 2 8.09409 87.4965 5.54224
252 2 11.8988 87.5274 5.53041
253 2 0.258369 91.6977 5.41411
254 2 4.15683 91.3594 5.20052
255 2 8.13594 91.3771 5.33887
256 2 12.2321 91.3226 5.42126
257 2 0.147405 95.4851 5.25741
258 2 4.00319 95.3837 5.22377
259 2 8.04329 95.4334 5.50008
260 2 12.0674 95.2522 5.49962
261 2 0.11411 99.2104 5.21388
262 2 4.01836 99.1783 5.36734
263 2 7.93194 99.1549 5.37153
264 2 11.804 99.2159 5.14909
265 2 16.0149 103.185 5.28585
266 2 4.05704 103.096 5.09555
267 2 7.79291 103.093 5.25063
268 2 11.904 103.178 5.16193
269 2 -0.0548752 106.899 5.17514
270 2 3.78119 107.322 5.09758
271 2 8.02868 107.139 5.26591
272 2 11.7835 106.95 5.24429
273 2 -0.0538944 110.865 5.12962
274 2 3.99285 111.086 5.1715
275 2 7.81532 111.033 5.25336
276 2 11.7554 111.056 5.1218
277 2 15.7711 114.824 5.19886
278 2 4.07995 114.723 5.15375
279 2 7.89329 114.956 4.95674
280 2 11.7818 114.805 5.03403
281 2 15.8023 118.725 5.13043
282 2 4.07739 118.768 5.03982
283 2 7.75375 118.871 5.00668
284 2 11.7523 118.923 4.86131
285 2 15.7529 122.663 5.07208
286 2 3.74262 122.631 4.89575
287 2 7.84476 122.836 4.82517
288 2 11.8682 122.904 4.81631
289 2 -0.00163237 126.614 4.85644
290 2 3.97093 126.498 4.75784
291 2 8.01402 126.529 4.80853
292 2 11.8797 126.721 4.64704
293 2 -0.165326 130.547 4.81602
294 2 3.75508 130.541 4.82607
295 2 7.8162 130.602 4.88829
296 2 11.7149 130.743 4.72436
297 2 -0.0755621 134.534 4.77275
298 2 3.89252 134.65 4.6982
299 2 7.83404 134.408 4.77196
300 2 11.8041 134.583 4.78177
301 2 15.9081 138.391 4.73901
302 2 4.10901 138.45 4.87387
303 2 7.86918 138.451 4.87254
304 2 11.9128 138.275 4.86319
305 2 -0.0824144 142.415 4.83159
306 2 3.9519 142.302 4.84682
307 2 7.88999 142.171 4.67424
308 2 11.8452 142.338 4.88181
309 2 15.6773 146.058 4.77313
310 2 3.84425 146.082 4.84873
311 2 7.80337 146.077 4.97916
312 2 11.7123 146.28 4.66329
313 2 -0.0940745 149.931 4.7498
314 2 3.97242 149.945 4.75727
315 2 7.84216 150.117 4.77206
316 2 11.9161 150.24 4.79581
317 2 15.9434 153.802 4.73042
318 2 4.05461 154.14 4.65691
319 2 7.93702 153.981 4.67397
320 2 12.0381 153.942 4.73423
321 2 16.0277 158.033 8.67901
322 2 3.94533 158.036 8.82878
323 2 7.924 158.024 8.91943
324 2 11.8962 157.9 8.63243
325 2 15.8641 3.65871 8.66108
326 2 4.10146 3.61098 8.56843
327 2 7.82826 3.57705 8.73517
328 2 11.8017 3.5338 8.71527
329 2 -0.169257 7.5314 8.42121
330 2 3.74503 7.35204 8.4873
331 2 7.87327 7.56486 8.51017
332 2 11.7495 7.27623 8.54386
333 2 15.6696 11.5114 8.63094
334 2 3.83715 11.4924 8.63626
335 2 7.90368 11.2436 8.64167
336 2 11.7139 11.2173 8.55925
337 2 0.260105 15.316 8.43923
338 2 4.15155 15.5244 8.52235
339 2 8.09477 15.2989 8.44442
340 2 11.8015 15.2252 8.49309
341 2 -0.0667006 19.1173 8.28867
342 2 4.0069 19.2845 8.51344
343 2 8.16394 19.1941 8.35987
344 2 12.0615 19.4234 8.30465
345 2 0.167676 23.2815 8.36888
346 2 4.12617 23.1521 8.40564
347 2 7.88856 23.0664 8.46669
348 2 11.9889 23.1805 8.48164
349 2 15.756 27.2699 8.39095
350 2 4.22257 27.083 8.47409
351 2 7.93484 26.9741 8.26961
352 2 11.6787 27.0632 8.40376
353 2 15.7006 31.2552 8.69581
354 2 4.19011 31.1552 8.61453
355 2 7.86376 31.1413 8.44132
356 2 11.7044 31.0834 8.58867
357 2 15.8637 35.0146 8.40666
358 2 3.9449 35.2358 8.59818
359 2 7.84019 35.0742 8.5639
360 2 11.9597 35.2794 8.46649
361 2 15.9216 39.1943 8.709
362 2 4.00819 39.2688 8.51559
363 2 7.95011 39.2363 8.55956
364 2 12.0087 39.2907 8.62981
365 2 16.0877 43.2142 8.68424
366 2 4.21968 43.2614 8.78729
367 2 7.86658 43.1447 8.62952
368 2 11.9291 42.9845 8.58526
369 2 0.227203 47.1681 8.81563
370 2 4.02799 47.1694 8.80422
371 2 8.04979 47.2279 8.86174
372 2 12.0086 47.2222 8.61945
373 2 -0.107503 51.2441 8.79384
374 2 3.94309 51.2733 8.88243
375 2 7.83431 51.1611 8.67018
376 2 11.8371 51.1698 8.69255
377 2 -0.128272 55.3417 8.97136
378 2 3.95163 55.2865 8.95169
379 2 7.64724 55.2935 8.90368
380 2 11.7203 55.2901 9.07738
381 2 15.8715 59.4091 9.05302
382 2 3.9858 59.3183 9.02892
383 2 7.75835 59.2572 8.85593
384 2 11.8517 59.3955 8.85483
385 2 -0.114375 63.3374 9.2424
386 2 3.79902 63.431 9.14244
387 2 7.91471 63.4446 9.25629
388 2 11.8489 63.4772 8.99559
389 2 -0.027184 67.5248 9.12428
390 2 3.94513 67.3783 9.22117
391 2 7.8742 67.3093 9.25218
392 2 11.8308 67.2743 9.23208
393 2 -0.221572 71.4488 9.23553
394 2 4.02975 71.3793 9.18917
395 2 7.78239 71.3385 9.32776
396 2 11.9409 71.2406 9.28416
397 2 0.134066 75.366 9.11281
398 2 3.98269 75.5142 9.0549
399 2 7.91011 75.3699 9.33846
400 2 11.8245 75.2963 9.24641
401 2 0.0471128 79.4301 9.26853
402 2 3.99736 79.4262 9.30345
403 2 8.02556 79.3854 9.58741
404 2 11.8596 79.5258 9.22437
405 2 0.0153585 83.4561 9.41727
406 2 3.98353 83.5903 9.30067
407 2 7.84513 83.4419 9.31023
408 2 11.9221 83.3231 9.48177
409 2 -0.054872 87.3742 9.50212
410 2 3.7513 87.4422 9.27208
411 2 7.94578 87.4186 9.51853
412 2 12.0075 87.5457 9.49115
413 2 -0.141261 91.3074 9.29915
414 2 3.88312 91.4345 9.29998
415 2 7.90234 91.2939 9.19728
416 2 11.7576 91.3781 9.23384
417 2 0.119849 95.479 9.35793
418 2 4.03311 95.3873 9.43219
419 2 7.87103 95.3144 9.3144
420 2 11.9248 95.2379 9.47347
421 2 15.8211 99.3628 9.31069
422 2 4.0073 99.0777 9.3447
423 2 7.98212 99.3055 9.28082
424 2 11.9826 99.3553 9.30178
425 2 -0.0284445 103.211 9.29932
426 2 3.72975 103.105 9.34219
427 2 8.07426 103.3 9.21187
428 2 11.8692 103.175 9.22344
429 2 15.7782 107.096 9.19686
430 2 4.09898 107.104 9.236
431 2 7.94493 106.858 9.14412
432 2 11.7715 107.25 9.2811
433 2 0.187673 111.028 9.20373
434 2 3.9731 110.979 9.25675
435 2 8.02349 110.878 9.10954
436 2 11.9327 110.995 9.20343
437 2 0.176796 114.811 9.11933
438 2 3.82314 115.061 9.13461
439 2 8.18595 115.02 9.22656
440 2 12.0262 114.842 9.17563
441 2 -0.0471412 118.815 8.98974
442 2 4.06232 118.88 8.96197
443 2 7.92235 118.974 9.02506
444 2 11.9943 118.909 9.00468
445 2 15.9204 122.76 9.06608
446 2 4.05419 122.624 8.95118
447 2 7.90781 122.818 8.84376
448 2 11.8726 122.708 8.99044
449 2 0.0451809 126.599 9.00293
450 2 4.24183 126.812 9.02788
451 2 8.04867 126.877 8.88839
452 2 11.7715 126.805 8.94798
453 2 -0.169919 130.589 9.04933
454 2 3.68179 130.635 8.78224
455 2 7.93884 130.608 8.55169
456 2 11.7157 130.752 8.69513
457 2 0.145723 134.695 8.95086
458 2 4.00725 134.67 8.91922
459 2 7.86602 134.412 8.80319
460 2 11.9743 134.692 8.98408
461 2 -0.229331 138.505 8.95347
462 2 3.9458 138.356 8.84868
463 2 7.87379 138.408 8.91608
464 2 11.8881 138.331 9.01062
465 2 -0.0681775 142.115 8.81036
466 2 3.97873 142.211 9.0179
467 2 7.92591 142.289 8.84572
468 2 11.76 142.249 8.98901
469 2 15.8082 146.134 8.83186
470 2 3.85187 146.181 8.84252
471 2 7.76691 146.136 8.84369
472 2 11.9403 146.16 8.91528
473 2 15.8152 150.219 8.97127
474 2 4.07942 150.107 8.87982
475 2 8.03382 150.074 8.85146
476 2 11.7664 150.037 8.89277
477 2 15.8716 154.059 8.65188
478 2 3.80018 153.85 8.66626
479 2 7.93348 154.008 8.75666
480 2 11.8827 153.888 8.78183
481 2 15.6505 157.824 12.7587
482 2 3.72128 157.771 12.7827
483 2 7.64632 157.956 12.6575
484 2 11.7399 157.91 12.6427
485 2 15.6273 3.49564 12.8103
486 2 3.93617 3.62089 12.6875
487 2 7.88959 3.62079 12.6287
488 2 11.7499 3.64401 12.605
489 2 0.0206617 7.25958 12.6217
490 2 3.85501 7.57279 12.4964
491 2 7.74932 7.6167 12.5949
492 2 11.7809 7.44212 12.6198
493 2 15.9974 11.355 12.6033
494 2 3.82358 11.3774 12.532
495 2 7.89862 11.3604 12.6154
496 2 11.8923 11.3073 12.5499
497 2 -0.0381733 15.4829 12.4993
498 2 3.87858 15.3763 12.5624
499 2 7.97425 15.37 12.4607
500 2 11.7227 15.0207 12.4344
501 2 15.9263 19.3985 12.6013
502 2 3.88636 19.2342 12.5259
503 2 7.87522 19.1173 12.573
504 2 11.7997 19.0671 12.4222
505 2 15.7635 23.2033 12.5806
506 2 4.01029 23.04 12.3202
507 2 7.8469 22.9514 12.5297
508 2 11.855 23.1635 12.4375
509 2 15.7876 26.9486 12.3141
510 2 3.85758 27.0752 12.3422
511 2 7.75887 27.1145 12.3908
512 2 11.9525 26.9015 12.3869
513 2 0.0868263 31.1279 12.3763
514 2 3.90409 31.1453 12.3632
515 2 7.94748 31.0002 12.3506
516 2 11.7801 30.9072 12.5286
517 2 15.7578 35.1396 12.4259
518 2 3.96734 35.106 12.684
519 2 7.74234 35.1287 12.5258
520 2 11.8225 35.0271 12.2466
521 2 15.9993 39.207 12.3509
522 2 3.97244 39.0566 12.635
523 2 7.89382 39.0241 12.5951
524 2 11.9667 39.0943 12.6407
525 2 15.674 43.2861 12.7336
526 2 3.84963 43.049 12.6936
527 2 7.91916 43.109 12.7203
528 2 11.9664 43.073 12.4781
529 2 15.8444 47.0886 12.5451
530 2 3.89931 47.0749 12.7304
531 2 7.91051 47.2147 12.6899
532 2 11.9643 47.0265 12.6834
533 2 -0.025219 51.1591 12.82
534 2 4.18648 51.0906 12.7553
535 2 8.13083 51.1692 12.7396
536 2 12.0022 51.112 12.7784
537 2 0.0403822 55.3006 12.9843
538 2 3.83733 55.1747 12.7483
539 2 7.83682 55.0162 12.9062
540 2 11.8553 55.1827 12.8943
541 2 -0.00448782 59.1979 13.0571
542 2 3.88886 59.3012 12.8102
543 2 7.98005 59.2022 12.8518
544 2 11.7496 59.269 12.9888
545 2 0.102954 63.1916 13.0832
546 2 3.94949 63.1426 13.0681
547 2 7.95837 63.3725 12.9
548 2 11.8917 63.1781 12.9221
549 2 -0.0800876 67.3329 13.165
550 2 3.82327 67.3238 13.0151
551 2 7.86987 67.2497 13.1283
552 2 11.7847 67.3155 13.1149
553 2 0.0122233 71.3818 13.1256
554 2 3.71827 71.363 13.0768
555 2 7.71483 71.2953 13.0851
556 2 11.7978 71.2454 13.1284
557 2 -0.0480815 75.4229 13.2038
558 2 3.9864 75.3964 13.0885
559 2 7.89395 75.1369 13.1508
560 2 11.9869 75.276 13.1565
561 2 0.128181 79.4949 13.285
562 2 4.04019 79.5709 13.4024
563 2 8.10523 79.4179 13.4505
564 2 11.7887 79.4098 13.3148
565 2 -0.112467 83.6071 13.5465
566 2 3.91611 83.5075 13.0008
567 2 7.96647 83.3852 13.0517
568 2 11.9198 83.4449 13.3822
569 2 -0.0338857 87.551 13.3895
570 2 3.81623 87.3918 13.3846
571 2 7.77461 87.3869 13.3951
572 2 11.7173 87.5626 13.2572
573 2 -0.126192 91.3915 13.2842
574 2 3.82755 91.4045 13.3835
575 2 7.92042 91.4518 13.3075
576 2 11.9211 91.4522 13.2172
577 2 0.118508 95.2758 13.2938
578 2 4.02007 95.1011 13.322
579 2 8.15492 95.2831 13.3368
580 2 11.945 95.4656 13.3678
581 2 0.210697 99.2065 13.404
582 2 4.00119 99.3122 13.4159
583 2 7.8697 99.2585 13.4035
584 2 12.0042 99.3336 13.4534
585 2 0.0648654 103.078 13.1305
586 2 4.00534 103.176 13.2565
587 2 8.00938 103.251 13.2294
588 2 11.7935 103.21 13.4076
589 2 15.9029 107.076 13.205
590 2 3.81178 107.036 13.3226
591 2 7.91953 107.053 13.1992
592 2 11.922 107.172 13.3361
593 2 0.120082 111.152 13.1485
594 2 4.20347 111.057 13.081
595 2 8.03862 111.005 13.1664
596 2 12.0067 110.895 13.2164
597 2 16.03 114.896 13.0957
598 2 4.14361 114.818 12.97
599 2 7.96598 114.998 13.2116
600 2 11.91 115.019 13.0551
601 2 15.9653 118.907 13.1106
602 2 4.09111 118.877 13.2341
603 2 8.16719 118.907 13.0423
604 2 11.9586 118.833 12.8954
605 2 -0.0468406 122.794 12.9143
606 2 4.06476 122.865 12.9872
607 2 8.01899 122.803 12.8976
608 2 12.0948 122.625 12.9554
609 2 15.8522 126.714 12.9271
610 2 3.90308 126.937 13.0422
611 2 7.81183 126.767 13.1485
612 2 11.9235 126.616 12.9089
613 2 15.8673 130.753 12.8132
614 2 3.95586 130.618 12.9672
615 2 7.94084 130.688 12.9045
616 2 11.8222 130.564 12.957
617 2 -0.120481 134.525 12.8862
618 2 4.0005 134.464 12.9256
619 2 7.87262 134.52 12.9954
620 2 11.7521 134.437 13.0897
621 2 -0.0244303 138.467 12.9263
622 2 3.92055 138.408 13.0299
623 2 7.90856 138.462 12.9757
624 2 11.9012 138.295 12.9675
625 2 15.8518 142.29 12.859
626 2 3.96368 142.174 13.0546
627 2 7.94265 142.343 13.0491
628 2 11.8865 142.56 12.8612
629 2 -0.0308837 146.254 12.9962
630 2 3.78787 146.09 13.0356
631 2 7.96049 146.091 12.8074
632 2 11.6112 146.237 12.9754
633 2 15.8954 149.98 12.8502
634 2 3.91642 150.068 12.7215
635 2 7.67386 150.149 12.7012
636 2 11.8891 150.168 12.649
637 2 15.7712 153.991 12.8575
638 2 3.78781 154.008 12.737
639 2 7.90414 153.951 12.7842
640 2 11.7046 154.13 12.8705
641 2 15.619 158.088 16.779
642 2 4.12184 157.855 16.6842
643 2 7.85138 158.012 16.6651
644 2 11.8186 158.031 16.674
645 2 16.0251 3.53456 16.5965
646 2 3.90881 3.55513 16.5353
647 2 7.61254 3.47282 16.7915
648 2 11.7042 3.76067 16.517
649 2 -0.0779222 7.57119 16.7147
650 2 4.00248 7.61351 16.6453
651 2 7.58894 7.43335 16.4978
652 2 11.9253 7.58116 16.6044
653 2 15.8225 11.4722 16.6215
654 2 4.08805 11.6358 16.6787
655 2 7.96458 11.4401 16.621
656 2 11.7531 11.319 16.5144
657 2 -0.0869831 15.3321 16.414
658 2 3.79912 15.3446 16.8001
659 2 7.8636 15.2957 16.3516
660 2 11.77 15.3822 16.6156
661 2 15.8669 19.2635 16.5905
662 2 3.97541 19.2077 16.442
663 2 7.90736 19.0844 16.5936
664 2 11.9553 19.4344 16.5306
665 2 15.941 23.1912 16.4019
666 2 4.10342 23.2365 16.4979
667 2 7.9918 23.1467 16.5353
668 2 11.8698 23.2544 16.3156
669 2 -0.0195444 26.9672 16.3261
670 2 3.96426 26.9111 16.183
671 2 7.8536 27.0283 16.6281
672 2 11.8698 27.1705 16.4817
673 2 15.8034 30.9302 16.2922
674 2 3.89226 30.8732 16.3104
675 2 7.8668 31.0957 16.0452
676 2 12.0555 30.91 16.4396
677 2 15.8022 35.0244 16.2956
678 2 3.83551 35.0924 16.4592
679 2 7.85953 35.105 16.3731
680 2 11.7972 34.8219 16.3477
681 2 0.138868 38.9573 16.2989
682 2 3.86973 38.9078 16.5909
683 2 8.19563 38.9938 16.5202
684 2 12.0885 38.9742 16.4694
685 2 15.6759 42.9608 16.5159
686 2 4.04417 43.0185 16.6044
687 2 8.1183 42.9611 16.5114
688 2 11.7934 43.1049 16.5901
689 2 0.244566 46.9009 16.6652
690 2 3.94497 46.9169 16.5451
691 2 7.8909 46.9668 16.5674
692 2 11.7662 47.0479 16.6058
693 2 15.9604 51.0617 16.4875
694 2 4.12113 50.9867 16.6879
695 2 7.87155 51.1525 16.4924
696 2 11.945 51.0833 16.6885
697 2 -0.142518 55.261 16.7331
698 2 4.15601 54.9938 16.6035
699 2 7.77678 55.238 16.8988
700 2 11.7005 55.1621 16.7628
701 2 -0.111267 59.1108 16.8945
702 2 3.80764 59.2005 16.9655
703 2 7.84959 59.3262 16.842
704 2 11.8349 59.3112 16.9516
705 2 -0.0647507 63.2894 16.9953
706 2 3.9703 63.1308 16.8459
707 2 7.91939 63.3407 16.6998
708 2 11.784 63.0467 16.8406
709 2 0.020349 67.2177 16.9939
710 2 3.77504 67.2432 16.9307
711 2 7.90818 67.2291 16.9083
712 2 11.9168 67.393 17.1471
713 2 -0.00427214 71.4461 17.024
714 2 4.01159 71.157 16.9453
715 2 8.10721 71.2714 16.9613
716 2 11.9643 71.2547 17.1495
717 2 0.0837752 75.4617 17.1856
718 2 4.08431 75.4965 17.2016
719 2 8.07129 75.238 17.1812
720 2 11.9535 75.1717 17.0487
721 2 -0.0768411 79.2612 17.1344
722 2 3.96767 79.2998 17.0781
723 2 7.98877 79.3616 17.1695
724 2 11.8677 79.2677 17.2934
725 2 -0.0441836 83.3241 17.041
726 2 4.05634 83.4092 17.2386
727 2 7.69267 83.3066 17.0806
728 2 11.916 83.4914 17.2062
729 2 -0.137725 87.3572 17.2184
730 2 3.75927 87.51 17.3221
731 2 7.72427 87.3987 17.0189
732 2 11.62 87.6303 17.2225
733 2 -0.0677245 91.4891 17.4102
734 2 3.70245 91.5016 17.2426
735 2 7.87204 91.2339 17.2795
736 2 11.7271 91.5353 17.3573
737 2 -0.0882258 95.4386 17.5688
738 2 4.01933 95.4664 17.3974
739 2 7.82889 95.2195 17.2332
740 2 11.9281 95.3787 17.3908
741 2 15.8716 99.4932 17.2736
742 2 3.91127 99.3588 17.35
743 2 8.03922 99.4372 17.4215
744 2 12.068 99.3631 17.4047
745 2 15.8123 103.266 17.373
746 2 4.0485 103.407 17.3821
747 2 7.97925 103.26 17.1689
748 2 11.8567 103.361 17.4014
749 2 15.7873 107.219 17.1088
750 2 3.9207 107.236 17.1034
751 2 7.7859 107.194 17.1788
752 2 11.8977 107.027 17.4009
753 2 -7.17979e-05 111.233 17.2476
754 2 3.76383 111.004 17.0293
755 2 7.90735 111.254 17.1613
756 2 11.7796 110.915 16.9989
757 2 0.0291799 115.061 17.0348
758 2 4.08994 114.971 17.111
759 2 8.10087 114.936 17.2154
760 2 11.9524 114.903 17.1964
761 2 0.118667 118.87 17.0169
762 2 3.97437 118.874 17.1692
763 2 7.98318 118.876 17.1246
764 2 11.9382 118.978 17.0216
765 2 0.138265 122.84 16.9806
766 2 4.1299 122.869 17.055
767 2 8.10887 122.695 16.8977
768 2 12.089 122.759 16.7058
769 2 -0.0313878 126.815 17.022
770 2 4.07639 126.949 17.0085
771 2 8.04023 126.677 17.0623
772 2 11.7775 126.672 17.1002
773 2 -0.014651 130.653 17.1426
774 2 3.85775 130.691 17.0127
775 2 7.83429 130.722 17.007
776 2 11.7823 130.508 16.9995
777 2 -0.0784937 134.613 16.8839
778 2 3.81554 134.624 17.0497
779 2 7.76847 134.542 17.1415
780 2 11.8443 134.351 17.1459
781 2 15.885 138.225 16.7962
782 2 3.93306 138.462 17.0796
783 2 7.94175 138.396 16.8855
784 2 11.9029 138.513 16.9509
785 2 15.7947 142.339 16.794
786 2 3.90416 142.411 16.9629
787 2 7.78022 142.308 17.0013
788 2 11.8338 142.148 16.8921
789 2 15.7142 146.219 16.8024
790 2 3.92783 146.114 16.9309
791 2 7.9174 146.203 16.7871
792 2 11.8001 146.09 17.0041
793 2 15.8649 150.362 16.6062
794 2 3.94725 150.238 16.6976
795 2 7.7066 150.117 16.8516
796 2 11.7705 150.148 16.676
797 2 -0.22123 153.988 16.6797
798 2 3.86889 154.096 16.7406
799 2 7.78985 153.985 16.719
800 2 11.821 154.117 16.9174
801 2 -0.144305 157.973 20.8013
802 2 3.97613 157.988 20.7111
803 2 7.98044 157.864 20.9223
804 2 11.9512 158.067 20.591
805 2 15.9609 3.56267 20.6378
806 2 3.91127 3.46767 20.7175
807 2 7.89189 3.50451 20.8603
808 2 11.9456 3.45444 20.7938
809 2 0.0451141 7.59924 20.5679
810 2 3.86811 7.64172 20.8793
811 2 7.92076 7.44114 20.7363
812 2 11.8559 7.34905 20.7151
813 2 15.6946 11.4252 20.686
814 2 4.12756 11.4852 20.7109
815 2 7.91776 11.2256 20.5875
816 2 11.6986 11.5566 20.6086
817 2 15.7629 15.3063 20.6915
818 2 4.07782 15.4404 20.6575
819 2 8.02361 15.3664 20.6472
820 2 11.8068 15.2292 20.6557
821 2 15.9245 19.2001 20.5095
822 2 3.98941 19.3223 20.4874
823 2 7.82352 19.2823 20.4457
824 2 11.7492 19.0338 20.4498
825 2 15.9475 23.024 20.5522
826 2 3.82126 23.2774 20.3443
827 2 7.81209 23.213 20.6368
828 2 11.8933 23.289 20.5682
829 2 0.0896547 26.9949 20.552
830 2 3.97183 27.1195 20.5121
831 2 7.96891 27.0269 20.4591
832 2 11.9406 27.0828 20.2314
833 2 0.0727872 30.8692 20.4224
834 2 4.12903 31.0377 20.4302
835 2 7.76891 31.0251 20.3087
836 2 11.6427 30.9215 20.2546
837 2 16.0168 34.8494 20.3495
838 2 4.09666 34.7453 20.2485
839 2 7.97269 34.811 20.1826
840 2 11.8849 34.8155 20.2526
841 2 -0.084992 38.9587 20.3754
842 2 4.0002 38.9262 20.3639
843 2 7.77721 38.8899 20.3053
844 2 11.7869 38.8597 20.2829
845 2 0.100262 42.9001 20.3519
846 2 3.903 42.7128 20.434
847 2 7.93488 42.911 20.3463
848 2 11.8242 43.0068 20.487
849 2 -0.0950052 47.3128 20.4638
850 2 4.06287 46.9941 20.4779
851 2 7.76881 46.9217 20.3841
852 2 11.7789 46.8154 20.3381
853 2 -0.0202465 51.0223 20.5404
854 2 3.7729 50.9156 20.6218
855 2 7.97478 50.8969 20.52
856 2 11.8374 51.1061 20.69
857 2 0.0194588 55.138 20.6362
858 2 3.94053 54.9466 20.6325
859 2 7.93353 54.8856 20.6249
860 2 11.7766 54.9512 20.5964
861 2 15.8507 59.1799 20.6278
862 2 3.76614 59.0592 20.6815
863 2 7.91742 59.1834 20.726
864 2 11.924 59.0474 20.8096
865 2 15.8755 63.1168 20.8589
866 2 4.0556 63.0731 20.9131
867 2 7.92567 62.9871 20.7605
868 2 11.8982 63.3096 21.0986
869 2 -0.0702274 67.2192 21.1221
870 2 3.89513 67.301 20.9105
871 2 7.97181 67.1111 20.6993
872 2 11.9331 67.1801 20.7529
873 2 0.164536 71.1727 20.9309
874 2 4.10562 71.2725 20.9933
875 2 7.96549 71.0113 20.8941
876 2 11.8081 71.2563 21.0087
877 2 -0.0401168 75.2096 20.9763
878 2 3.9116 75.1993 20.9696
879 2 7.87777 75.172 21.0958
880 2 11.783 75.3469 21.0606
881 2 -0.143333 79.3218 21.0653
882 2 3.94868 79.1523 20.9413
883 2 7.99592 79.2948 21.241
884 2 11.8038 79.3498 21.1721
885 2 -0.0228356 83.2553 20.9954
886 2 3.95627 83.3819 21.0773
887 2 7.91587 83.2466 20.8798
888 2 11.9705 83.3447 21.2302
889 2 -0.00910068 87.2913 21.3226
890 2 3.91302 87.3249 21.2174
891 2 7.76712 87.2807 20.8577
892 2 11.6997 87.28 21.054
893 2 -0.113821 91.3003 21.4464
894 2 3.84445 91.3877 21.4664
895 2 7.89855 91.5869 21.3083
896 2 11.6653 91.2787 21.2401
897 2 15.7973 95.3443 21.301
898 2 3.96468 95.5451 21.2089
899 2 7.7861 95.4882 21.3812
900 2 11.7149 95.3931 21.0576
901 2 -0.166687 99.4327 21.4138
902 2 3.80494 99.2663 21.3314
903 2 7.8245 99.2641 21.4427
904 2 11.6836 99.1674 21.3034
905 2 15.9925 103.542 21.246
906 2 3.91424 103.135 21.1947
907 2 7.93717 103.11 21.3523
908 2 11.893 103.327 21.2369
909 2 -0.00024296 107.241 21.3066
910 2 3.9612 107.223 21.0503
911 2 7.86548 107.144 21.4572
912 2 11.8772 107.217 21.3536
913 2 15.9153 110.967 21.2861
914 2 3.86951 111.007 21.2468
915 2 7.75196 110.992 21.2166
916 2 11.9124 111.094 21.078
917 2 0.0574117 115.086 21.1583
918 2 3.94911 114.937 21.2287
919 2 7.78852 115.017 21.2168
920 2 11.8694 114.961 21.3717
921 2 -0.211515 119.183 21.0762
922 2 4.03382 119.049 21.2084
923 2 7.90078 118.853 20.9606
924 2 11.8912 118.989 21.1409
925 2 -0.00267105 122.943 21.1296
926 2 3.89023 123.001 21.1867
927 2 8.07289 122.715 21.0222
928 2 11.9345 122.711 20.8905
929 2 0.0849183 126.753 21.117
930 2 4.14964 126.756 20.9798
931 2 7.99452 126.837 21.1669
932 2 11.8987 126.764 21.1472
933 2 0.110194 130.668 21.0015
934 2 3.94852 130.567 21.0656
935 2 7.8627 130.608 21.1195
936 2 11.9613 130.725 21.1552
937 2 15.8249 134.658 20.9997
938 2 3.93578 134.711 21.0723
939 2 7.80935 134.623 21.0678
940 2 11.7422 134.665 21.0591
941 2 15.7747 138.437 21.0893
942 2 3.9246 138.605 21.1888
943 2 7.98619 138.406 20.9788
944 2 11.8691 138.501 20.8686
945 2 15.8171 142.398 20.8943
946 2 3.91342 142.356 21.0445
947 2 7.81908 142.416 21.0542
948 2 11.666 142.558 20.8147
949 2 -0.230181 146.477 20.866
950 2 3.73007 146.396 20.9404
951 2 7.9149 146.396 20.9421
952 2 11.7306 146.309 20.8611
953 2 15.5951 150.196 20.743
954 2 3.82241 150.214 20.873
955 2 7.77664 150.05 20.9637
956 2 11.8976 150.086 20.7661
957 2 -0.0669017 154.036 20.8486
958 2 3.8616 154.202 20.8607
959 2 7.94511 154.052 20.7639
960 2 11.7501 153.954 20.9322
961 2 0.0120814 157.958 24.9635
962 2 4.00327 158.126 24.9876
963 2 7.90684 158.053 24.7557
964 2 11.8684 158.031 24.8161
965 2 15.8927 3.60757 24.6287
966 2 4.14061 3.74588 24.8027
967 2 7.73189 3.45129 24.6945
968 2 11.9145 3.79988 24.7246
969 2 -0.122701 7.4847 24.6219
970 2 3.8323 7.49607 24.6573
971 2 7.84749 7.488 24.7927
972 2 11.691 7.48565 24.7643
973 2 -0.0556047 11.4067 24.6239
974 2 3.99735 11.4046 24.7003
975 2 7.92565 11.3906 24.8112
976 2 11.8861 11.2882 24.6048
977 2 -0.0337779 15.2545 24.7075
978 2 4.02949 15.3786 24.5911
979 2 8.01732 15.4868 24.7505
980 2 12.0134 15.3998 24.6469
981 2 15.7762 19.2031 24.6246
982 2 4.02583 19.2573 24.575
983 2 7.93231 19.2773 24.489
984 2 11.8691 19.4041 24.6466
985 2 0.020904 23.0891 24.5246
986 2 3.83033 23.2179 24.4698
987 2 7.79121 23.1924 24.5548
988 2 11.8175 23.243 24.6497
989 2 0.089641 27.2188 24.5697
990 2 4.05301 27.0564 24.4817
991 2 8.04526 27.3479 24.3835