ITEM: TIMESTEP
16600
ITEM: NUMBER OF ATOMS
32000
ITEM: BOX BOUNDS xy xz yz pp pp pp
0.0000000000000000e+00 1.5832000000000001e+01 0.0000000000000000e+00
0.0000000000000000e+00 1.5831999999999999e+02 0.0000000000000000e+00
8.3171113460454649e-01 1.6014540686539345e+02 0.0000000000000000e+00
ITEM: ATOMS id type x y z
1 2 0.0748666 157.801 159.912
2 2 3.88957 158.002 159.933
3 2 7.93577 157.764 159.891
4 2 11.8109 157.863 159.966
5 2 15.7291 3.54703 159.76
6 2 3.91374 3.60373 159.992
7 2 7.88643 3.54942 160.038
8 2 11.7177 3.49995 159.922
9 2 -0.014868 7.37453 159.74
10 2 3.74937 7.32907 160.032
11 2 7.9965 7.36846 159.955
12 2 11.8887 7.44903 159.685
13 2 -0.0413239 11.171 159.845
14 2 3.97297 11.1047 159.759
15 2 7.94591 11.204 159.728
16 2 11.9821 11.182 159.872
17 2 15.8576 15.1119 159.773
18 2 4.07114 15.1431 159.766
19 2 8.07236 14.9572 159.785
20 2 11.9739 15.0724 159.912
21 2 0.206694 19.1769 159.748
22 2 4.00196 19.1432 159.76
23 2 8.07255 19.008 159.753
24 2 11.9755 19.1622 159.818
25 2 15.9524 23.1781 0.617389
26 2 3.96854 23.0332 159.941
27 2 7.9329 23.1337 159.99
28 2 11.853 23.3497 159.952
29 2 15.8104 27.1084 159.807
30 2 4.04633 27.255 160.017
31 2 8.04966 27.1387 159.901
32 2 12.0759 27.2141 159.922
33 2 15.7799 31.3146 159.821
34 2 3.65257 31.161 159.989
35 2 7.81061 31.0548 159.989
36 2 11.864 31.1641 0.616564
37 2 15.6444 35.2425 159.986
38 2 3.90846 35.3629 0.882088
39 2 7.96548 35.2518 160.065
40 2 11.8451 35.1295 0.682204
41 2 0.148507 39.2532 160.056
42 2 4.08462 39.2507 0.723428
43 2 7.92755 39.2904 0.704967
44 2 11.8704 39.3027 160.081
45 2 0.0278803 43.3099 0.858081
46 2 3.84506 43.2904 0.760344
47 2 8.01248 43.4879 0.811266
48 2 11.8781 43.3317 0.847709
49 2 15.7383 47.2957 0.864993
50 2 3.82874 47.4217 1.03795
51 2 7.97047 47.3413 0.965874
52 2 11.9071 47.3642 0.867265
53 2 0.0391872 51.2903 1.01902
54 2 4.00643 51.3398 1.14768
55 2 7.70512 51.3439 1.08745
56 2 11.9594 51.4796 160.211
57 2 0.0793831 55.4303 1.15923
58 2 3.94348 55.4727 1.03251
59 2 7.88271 55.3201 1.17219
60 2 11.8259 55.1386 1.1134
61 2 0.0843403 59.4303 1.16836
62 2 3.85916 59.4058 1.37199
63 2 7.71551 59.3467 1.3039
64 2 11.778 59.2935 1.1177
65 2 0.156683 63.6087 1.33687
66 2 3.90379 63.3641 1.12986
67 2 8.02344 63.4665 1.35206
68 2 11.8306 63.4737 1.07111
69 2 0.0615137 67.4517 1.39813
70 2 3.95084 67.4562 1.16473
71 2 7.89133 67.5428 1.26751
72 2 11.647 67.4392 1.05847
73 2 15.662 71.5709 1.39564
74 2 3.72614 71.4429 1.38402
75 2 7.81663 71.5851 1.55049
76 2 11.7688 71.7825 1.56486
77 2 -0.111201 75.5763 1.62468
78 2 4.13671 75.7053 1.47899
79 2 7.85654 75.6822 1.56913
80 2 11.7262 75.7065 1.53239
81 2 0.104624 79.6166 1.47262
82 2 4.17715 79.4116 1.48174
83 2 8.24892 79.6156 1.32626
84 2 11.9831 79.5768 1.55003
85 2 0.112846 83.4238 1.51635
86 2 4.02303 83.3068 1.4229
87 2 7.76846 83.3763 1.64735
88 2 11.9099 83.6269 1.39148
89 2 -0.0109145 87.5251 1.43093
90 2 4.03391 87.3389 1.42994
91 2 7.73289 87.2474 1.53832
92 2 11.8466 87.3917 1.48348
93 2 0.085757 91.3338 1.33408
94 2 3.87468 91.3921 1.52288
95 2 7.88999 91.324 1.42776
96 2 11.7855 91.3617 1.53026
97 2 -0.0548172 95.2315 1.37156
98 2 3.92873 95.2086 1.44413
99 2 7.73942 95.3118 1.30956
100 2 11.807 95.3652 1.37569
101 2 0.0195791 99.1889 1.42669
102 2 3.91197 99.0389 1.38376
103 2 7.89 99.242 1.16313
104 2 11.9689 99.1292 1.30274
105 2 15.8567 103.067 1.26633
106 2 4.11734 103.046 1.19528
107 2 8.10016 102.888 1.11728
108 2 12.1301 103.031 1.14298
109 2 15.9553 106.973 1.12814
110 2 3.95484 107.01 1.08498
111 2 7.94621 106.814 1.22232
112 2 11.8809 107.077 1.08403
113 2 0.0120165 110.964 1.21253
114 2 3.80274 110.925 1.17304
115 2 7.80581 110.938 1.16005
116 2 11.8462 110.968 1.12931
117 2 -0.273933 114.802 0.912091
118 2 3.95007 114.84 0.864488
119 2 7.8295 114.861 1.23372
120 2 11.8004 114.802 1.2178
121 2 15.8155 118.78 0.88229
122 2 4.09495 118.635 0.958154
123 2 7.9991 118.752 1.20077
124 2 11.7507 118.868 160.267
125 2 -0.061672 122.712 1.15347
126 2 3.96356 122.721 1.03854
127 2 7.87252 122.912 0.963634
128 2 11.5468 122.739 0.958379
129 2 -0.0779185 126.429 160.258
130 2 3.90303 126.506 160.124
131 2 7.75983 126.498 0.806642
132 2 11.753 126.553 0.858587
133 2 -0.0157593 130.45 160.119
134 2 3.72594 130.495 160.068
135 2 7.6956 130.348 0.789995
136 2 11.7075 130.265 160.339
137 2 -0.0558419 134.228 160.239
138 2 3.86092 134.415 160.047
139 2 7.83464 134.253 0.83848
140 2 11.7761 134.275 160.201
141 2 -0.00861256 138.118 160.09
142 2 3.868 138.175 160.009
143 2 7.96829 138.272 160.036
144 2 11.8958 138.168 0.760712
145 2 15.8764 142.223 160.116
146 2 3.96845 142.121 160.038
147 2 7.94917 142.281 159.996
148 2 11.8481 142.155 160.186
149 2 0.0583745 146.282 160.009
150 2 3.95844 145.965 159.894
151 2 7.79387 146.086 160.04
152 2 11.8317 146.106 160.034
153 2 15.6637 150.031 160.048
154 2 3.70929 149.995 160.056
155 2 7.7701 149.897 159.909
156 2 11.8752 150.071 159.847
157 2 15.7143 154.011 159.784
158 2 3.90667 153.985 160.036
159 2 7.69786 153.793 160.044
160 2 11.751 153.768 159.922
161 2 15.8654 157.899 4.68768
162 2 3.88399 157.772 4.47526
163 2 7.76605 157.849 4.69474
164 2 11.9972 158.066 4.53936
165 2 15.7533 3.4084 4.80535
166 2 3.99507 3.42987 4.69148
167 2 8.00149 3.50597 4.61221
168 2 12.1325 3.81513 4.45536
169 2 15.8991 7.52449 4.68641
170 2 4.02174 7.23765 4.40033
171 2 7.90929 7.20925 4.61841
172 2 11.8893 7.64586 4.63827
173 2 16.0549 11.3007 4.46678
174 2 4.02416 11.0385 4.38378
175 2 7.85286 11.3202 4.49509
176 2 11.7581 11.2871 4.55997
177 2 16.0686 15.2955 4.33191
178 2 4.00833 15.1199 4.44648
179 2 7.98109 15.3099 4.57031
180 2 12.0633 15.2072 4.45464
181 2 -0.0554752 19.1191 4.27787
182 2 4.06371 18.9788 4.25714
183 2 7.8419 19.0877 4.32639
184 2 11.9727 19.1697 4.35963
185 2 15.9627 22.9756 4.53743
186 2 4.08942 23.1654 4.42464
187 2 7.96474 23.2325 4.60012
188 2 11.8956 23.0462 4.41302
189 2 15.7263 27.0292 4.39295
190 2 3.91267 27.0706 4.50659
191 2 7.74143 27.0906 4.65927
192 2 11.7603 27.3338 4.58194
193 2 15.7336 31.2875 4.36674
194 2 3.96966 31.1827 4.51998
195 2 7.88759 31.0774 4.54134
196 2 11.9164 31.1326 4.61721
197 2 -0.0836931 35.5052 4.56854
198 2 4.08429 35.0298 4.77384
199 2 8.03251 35.1128 4.6874
200 2 11.9758 35.4014 4.6813
201 2 0.150447 39.2189 4.65197
202 2 4.00335 39.1978 4.83258
203 2 7.84497 39.23 4.70051
204 2 11.9405 39.5144 4.53969
205 2 -0.0723925 43.2903 4.70873
206 2 3.9004 43.1478 4.68455
207 2 8.04586 43.1787 4.7406
208 2 12.0125 43.3845 4.71806
209 2 15.7942 47.6605 4.80644
210 2 3.94942 47.2717 4.70541
211 2 7.92098 47.2284 4.83542
212 2 11.8261 47.3016 4.82161
213 2 -0.155503 51.1968 4.80065
214 2 3.94934 51.2282 5.09673
215 2 7.99548 51.2467 4.95157
216 2 11.7758 51.5125 4.82036
217 2 -0.12933 55.3508 5.00961
218 2 3.96752 55.3184 5.19627
219 2 7.8458 55.3238 4.99751
220 2 11.7402 55.3756 4.97218
221 2 -0.0940925 59.2777 5.04289
222 2 4.09212 59.4196 5.02116
223 2 7.9333 59.3748 5.21695
224 2 11.8379 59.2247 5.07009
225 2 -0.134369 63.3626 5.13367
226 2 3.83615 63.3006 5.18188
227 2 7.9703 63.3464 5.02326
228 2 11.863 63.4081 4.99373
229 2 -0.020864 67.4955 5.16812
230 2 3.90368 67.4897 5.16413
231 2 7.77387 67.5002 5.09839
232 2 11.9392 67.5206 5.26384
233 2 -0.0227849 71.4527 5.28057
234 2 3.98465 71.4021 5.41171
235 2 7.94947 71.5818 5.32991
236 2 12.0334 71.6482 5.19565
237 2 0.0205311 75.6161 5.56159
238 2 3.8701 75.3912 5.54678
239 2 7.93525 75.7217 5.45929
240 2 11.7786 75.8379 5.44891
241 2 0.132772 79.4662 5.54647
242 2 4.00071 79.4504 5.65329
243 2 8.07715 79.5314 5.44468
244 2 12.0157 79.5917 5.45018
245 2 15.8983 83.5747 5.57564
246 2 3.91125 83.4175 5.56545
247 2 7.78398 83.5097 5.6001
248 2 12.0564 83.4733 5.4942
249 2 0.0998505 87.3218 5.42053
250 2 3.84204 87.3119 5.41818
251 2 7.93932 87.4257 5.38261
252 2 11.9329 87.4041 5.42496
253 2 0.0221952 91.3286 5.40466
254 2 3.95603 91.3466 5.51203
255 2 7.85338 91.3518 5.55216
256 2 11.7879 91.3074 5.439
257 2 -0.120405 94.9996 5.25671
258 2 3.89967 95.3116 5.3796
259 2 7.86326 95.1846 5.45235
260 2 11.8817 95.2592 5.43957
261 2 0.17649 99.0604 5.4601
262 2 4.01654 99.0922 5.26502
263 2 7.89025 99.1203 5.14511
264 2 11.9145 99.1187 5.44032
265 2 15.8477 103.155 5.36093
266 2 4.10357 102.869 5.39584
267 2 8.04942 103.11 5.09302
268 2 11.922 103.117 5.4314
269 2 0.135581 106.932 5.04009
270 2 4.14711 106.898 4.93341
271 2 8.09443 107.019 5.23506
272 2 12.0423 107.164 5.09693
273 2 0.0104345 111.001 5.06943
274 2 4.01034 110.905 5.12905
275 2 8.1216 110.752 4.98915
276 2 11.9601 110.892 5.12056
277 2 15.8439 114.873 4.99709
278 2 3.84551 114.852 5.18446
279 2 7.89561 114.654 4.97322
280 2 11.8987 114.841 4.91132
281 2 15.9721 118.867 5.00387
282 2 3.78103 118.984 5.02345
283 2 7.85494 118.643 4.98775
284 2 11.9162 118.646 5.04511
285 2 15.7484 122.547 4.80699
286 2 4.17314 122.586 4.99999
287 2 7.78107 122.647 5.14894
288 2 11.8845 122.609 5.00016
289 2 -0.0446593 126.66 4.9781
290 2 3.8948 126.672 4.91647
291 2 7.78033 126.579 5.09446
292 2 11.6707 126.554 4.91679
293 2 0.0809864 130.578 4.73681
294 2 4.26209 130.5 4.81381
295 2 8.07192 130.477 4.93389
296 2 11.8106 130.267 5.01223
297 2 -0.104444 134.533 4.84851
298 2 4.08776 134.264 4.77246
299 2 7.75782 134.496 4.90561
300 2 11.8721 134.296 4.91352
301 2 15.7328 138.364 4.69151
302 2 3.9185 138.322 4.78379
303 2 7.84899 138.313 4.78161
304 2 11.8805 138.295 4.82331
305 2 -0.0092154 142.203 4.70075
306 2 3.99723 142.165 4.53093
307 2 7.91689 142.076 4.6165
308 2 11.9787 142.154 4.78916
309 2 16.0056 146.071 4.7176
310 2 4.15729 146.12 4.75202
311 2 8.04074 146.242 4.65333
312 2 11.9758 146.121 4.64011
313 2 -0.0579387 150.217 4.74449
314 2 3.97062 150.102 4.79719
315 2 7.81089 150.028 4.89527
316 2 11.9675 150.029 4.78071
317 2 15.6211 154.102 4.58696
318 2 3.79641 153.993 4.51986
319 2 8.08422 153.999 4.772
320 2 11.917 153.958 4.6249
321 2 15.6381 157.759 8.6039
322 2 3.87006 157.912 8.74878
323 2 7.87914 157.869 8.54683
324 2 11.735 157.883 8.78165
325 2 15.6408 3.39773 8.65889
326 2 3.85851 3.46564 8.76625
327 2 7.92025 3.45302 8.41878
328 2 11.7983 3.56028 8.69952
329 2 0.121912 7.24508 8.65989
330 2 4.22958 7.37278 8.70753
331 2 7.98452 7.31899 8.46287
332 2 11.8845 7.59571 8.63057
333 2 15.8989 11.2725 8.59012
334 2 4.12114 11.3289 8.5721
335 2 8.06602 11.4111 8.58096
336 2 11.8388 11.4732 8.54981
337 2 -0.015647 15.3604 8.53654
338 2 3.90151 15.0269 8.35791
339 2 7.99123 15.273 8.61301
340 2 11.825 15.1428 8.26879
341 2 0.243283 19.1614 8.31991
342 2 4.22842 18.8943 8.31447
343 2 7.84668 19.1251 8.44259
344 2 11.8118 19.0189 8.53539
345 2 0.033882 22.9239 8.41831
346 2 3.98708 23.0622 8.38867
347 2 7.90138 23.1013 8.28313
348 2 11.8809 22.9622 8.37431
349 2 15.9369 26.9625 8.44795
350 2 3.92446 26.9604 8.47241
351 2 7.921 27.0574 8.62546
352 2 12.0079 27.0863 8.45145
353 2 15.9252 31.1783 8.47491
354 2 3.83451 30.9462 8.40426
355 2 7.931 31.1488 8.61148
356 2 11.9561 31.1329 8.29244
357 2 15.8443 35.2779 8.73501
358 2 3.86077 35.0235 8.57294
359 2 7.91422 35.0976 8.4208
360 2 11.866 35.0384 8.57482
361 2 15.7774 39.101 8.59577
362 2 3.93567 39.1656 8.66714
363 2 8.2426 39.2151 8.62297
364 2 11.8418 38.9493 8.47012
365 2 15.8196 43.2579 8.80705
366 2 3.72753 43.2885 8.56981
367 2 7.7907 43.1228 8.54716
368 2 12.0394 43.1969 8.73839
369 2 0.0164469 47.1428 8.86794
370 2 3.94802 47.1199 8.54435
371 2 7.87029 47.1186 8.69439
372 2 11.8773 47.1055 8.78829
373 2 0.167095 51.2451 8.7846
374 2 4.12658 51.1669 8.92105
375 2 8.0169 51.1972 8.95616
376 2 11.9709 51.1091 9.04664
377 2 0.0780275 55.2448 8.80526
378 2 4.04804 55.2981 8.9204
379 2 8.04277 55.2417 8.82813
380 2 12.0328 55.3456 8.82923
381 2 15.9179 59.3552 8.88696
382 2 3.9142 59.2827 9.13689
383 2 7.81332 59.2062 9.16842
384 2 11.9353 59.1608 9.02694
385 2 -0.0781742 63.315 8.98154
386 2 4.01484 63.3584 9.02834
387 2 7.97223 63.3164 8.99984
388 2 11.7838 63.3387 9.11989
389 2 -0.0692675 67.4453 9.06089
390 2 3.95606 67.2232 9.16193
391 2 7.8713 67.2943 9.01424
392 2 11.717 67.2196 9.02594
393 2 -0.0100964 71.3746 9.36522
394 2 4.04187 71.4819 9.09922
395 2 7.87029 71.4954 9.26371
396 2 11.7051 71.6412 9.23793
397 2 -0.237586 75.4085 9.36628
398 2 3.86793 75.492 9.44262
399 2 7.9048 75.54 9.26896
400 2 11.9117 75.5023 9.52613
401 2 0.0632985 79.6698 9.52706
402 2 3.91838 79.3505 9.28804
403 2 7.96135 79.6873 9.32439
404 2 11.824 79.7119 9.38415
405 2 -0.0316057 83.5408 9.48224
406 2 3.96557 83.5672 9.6124
407 2 7.86935 83.615 9.68264
408 2 11.8019 83.5029 9.66865
409 2 0.134854 87.503 9.42984
410 2 4.08258 87.3692 9.54619
411 2 7.98859 87.4798 9.44223
412 2 11.9765 87.6719 9.50479
413 2 -0.111211 91.3926 9.57776
414 2 4.07004 91.3732 9.52302
415 2 8.07996 91.3854 9.56765
416 2 11.9886 91.3257 9.49358
417 2 -0.114057 95.3133 9.41582
418 2 3.77331 95.4053 9.32598
419 2 7.75704 95.3273 9.40433
420 2 11.8637 95.2199 9.3489
421 2 15.9383 99.0507 9.41171
422 2 3.96904 99.2921 9.14449
423 2 7.9289 99.1304 9.25931
424 2 11.6225 99.285 9.34338
425 2 0.206411 103.147 9.28269
426 2 4.03546 103.305 9.3414
427 2 8.112 103.294 9.15088
428 2 11.9462 103.182 9.31459
429 2 16.0077 107.105 9.30802
430 2 4.13309 107.149 9.25966
431 2 8.00014 107.295 9.30908
432 2 11.9436 106.989 9.1962
433 2 0.162105 111.044 9.1367
434 2 3.87184 110.973 9.06122
435 2 8.04911 111.14 9.00121
436 2 11.8749 110.973 9.15601
437 2 -0.0986988 114.918 9.15823
438 2 4.01003 114.925 8.97387
439 2 7.77172 114.801 9.09455
440 2 11.9531 114.924 9.05703
441 2 -0.134272 118.849 9.25044
442 2 3.96988 118.729 9.03702
443 2 7.77656 118.719 9.14894
444 2 11.9834 118.794 9.2165
445 2 15.7104 122.738 9.04883
446 2 3.84425 122.772 8.75612
447 2 7.93043 122.576 8.98689
448 2 11.7928 122.709 8.97308
449 2 -0.186517 126.696 9.06681
450 2 3.6376 126.521 9.00607
451 2 7.70174 126.627 9.01809
452 2 11.914 126.493 9.01873
453 2 0.135931 130.566 8.95791
454 2 3.98074 130.468 9.12878
455 2 7.89541 130.532 9.11397
456 2 11.6611 130.486 9.00592
457 2 -0.250206 134.453 8.71382
458 2 3.80275 134.355 8.92948
459 2 7.93762 134.569 8.87274
460 2 11.7976 134.338 8.85843
461 2 -0.0863293 138.311 8.8857
462 2 3.85826 138.368 8.70155
463 2 7.68501 138.357 8.83797
464 2 11.9399 138.481 8.84476
465 2 0.0540546 142.289 8.86849
466 2 3.95881 142.264 8.7374
467 2 7.84126 142.357 8.7691
468 2 11.7829 142.304 8.85521
469 2 15.8532 146.109 8.76955
470 2 4.01801 146.239 8.74545
471 2 7.98818 146.252 8.64821
472 2 11.9552 146.147 8.95509
473 2 15.7148 150.053 8.76281
474 2 3.82698 150.095 8.93712
475 2 7.75876 150.12 8.81325
476 2 11.7279 150.169 8.82238
477 2 15.8105 153.982 8.55811
478 2 3.82965 154.081 8.74526
479 2 7.83056 153.924 8.82753
480 2 11.6984 154.059 8.78337
481 2 15.849 157.868 12.7953
482 2 4.04901 158.069 12.7128
483 2 7.8506 157.969 12.7881
484 2 11.8361 157.916 12.7252
485 2 15.8504 3.74016 12.6903
486 2 4.0302 3.55683 12.7674
487 2 7.74285 3.55562 12.5528
488 2 11.7884 3.4613 12.6931
489 2 -0.0938143 7.57634 12.646
490 2 4.02877 7.53183 12.6931
491 2 7.957 7.344 12.6899
492 2 11.8473 7.48641 12.5716
493 2 15.7064 11.3001 12.6412
494 2 3.87666 11.2634 12.6386
495 2 8.05995 11.2729 12.6093
496 2 11.6618 11.5338 12.5789
497 2 0.247325 15.0291 12.6149
498 2 4.06686 15.2256 12.604
499 2 7.96533 15.2913 12.5277
500 2 11.8344 15.5367 12.6714
501 2 16.0726 19.1282 12.5395
502 2 4.09713 19.2513 12.631
503 2 8.15267 19.3058 12.4862
504 2 11.8711 19.1679 12.5656
505 2 15.9176 23.0819 12.4675
506 2 4.02705 23.0584 12.5079
507 2 7.91447 23.0349 12.2256
508 2 12.1727 23.1129 12.4078
509 2 15.8585 27.1831 12.544
510 2 4.07424 26.9626 12.4563
511 2 7.96514 27.1258 12.3679
512 2 12.0433 27.0936 12.3716
513 2 -0.0034056 30.9726 12.4402
514 2 3.87351 30.9909 12.3432
515 2 7.78239 30.8231 12.4648
516 2 11.8711 31.0665 12.367
517 2 15.8659 35.0869 12.5967
518 2 3.98888 35.0004 12.3964
519 2 7.86078 34.8414 12.4155
520 2 11.9418 35.0202 12.5423
521 2 15.8098 38.973 12.72
522 2 4.10349 38.9689 12.5503
523 2 7.82706 39.0031 12.5128
524 2 11.8513 39.0888 12.7052
525 2 16.0211 42.958 12.5034
526 2 3.87167 43.172 12.4449
527 2 8.0202 43.0118 12.6382
528 2 12.0345 43.0074 12.6743
529 2 16.0431 47.0526 12.7165
530 2 4.14957 47.0339 12.7851
531 2 7.80136 47.1933 12.6845
532 2 11.8648 47.123 12.7999
533 2 -0.0136374 51.1586 12.836
534 2 3.90368 51.0806 12.7151
535 2 7.66593 51.3435 12.9199
536 2 11.7709 51.2627 12.6701
537 2 -0.090143 55.3546 12.7137
538 2 4.05436 55.2835 12.9148
539 2 7.93789 55.1645 12.7877
540 2 11.9177 55.274 12.9412
541 2 0.0472106 59.3133 12.7569
542 2 3.92395 59.0811 12.8991
543 2 7.96073 59.3446 12.9313
544 2 11.9332 59.5066 13.055
545 2 -0.0940255 63.2174 12.864
546 2 3.85502 63.2812 12.8624
547 2 7.91383 63.2893 12.9354
548 2 11.6385 63.4492 13.1154
549 2 0.0704205 67.3005 12.9849
550 2 4.06047 67.2979 13.0259
551 2 7.78104 67.4217 13.0243
552 2 11.8624 67.208 12.9359
553 2 -0.135992 71.3307 13.0262
554 2 4.09626 71.3445 13.0216
555 2 8.10825 71.3784 12.9665
556 2 11.9484 71.3876 13.1893
557 2 0.0150043 75.4016 13.3439
558 2 3.97352 75.3595 13.1791
559 2 7.84747 75.3716 13.2119
560 2 11.7869 75.457 13.2145
561 2 -0.0908989 79.4471 13.3599
562 2 3.83623 79.6538 13.23
563 2 7.82212 79.5585 13.1331
564 2 11.7974 79.4703 13.4185
565 2 -0.0659259 83.4249 13.3768
566 2 4.16528 83.6975 13.5355
567 2 7.76587 83.44 13.5721
568 2 11.6974 83.5353 13.4411
569 2 -0.00238543 87.3651 13.3208
570 2 3.90731 87.3981 13.4438
571 2 7.96844 87.6002 13.5386
572 2 11.8487 87.3492 13.3321
573 2 -0.00033237 91.3445 13.5778
574 2 3.82511 91.4351 13.541
575 2 7.7112 91.3892 13.6147
576 2 11.7284 91.232 13.595
577 2 -0.0729078 95.3382 13.325
578 2 3.81051 95.2826 13.3258
579 2 7.77385 95.2802 13.4113
580 2 11.7276 95.3593 13.4159
581 2 -0.205571 99.3792 13.2816
582 2 3.58773 99.3018 13.3512
583 2 7.80987 99.5148 13.27
584 2 11.9046 99.2963 13.3114
585 2 0.0505897 103.265 13.3411
586 2 4.12721 103.319 13.2615
587 2 7.80647 103.241 13.3216
588 2 11.9811 103.148 13.3368
589 2 15.8969 107.259 13.3489
590 2 4.15811 107.126 13.2504
591 2 8.12019 107.191 13.3479
592 2 11.9445 107.082 13.0591
593 2 -0.0255177 110.916 13.0352
594 2 3.90941 111.225 13.1304
595 2 7.93611 110.962 13.1953
596 2 11.9273 111.268 13.2683
597 2 15.9629 114.908 13.1959
598 2 3.76929 115.006 13.068
599 2 7.96128 114.805 13.1793
600 2 11.8469 115.105 13.217
601 2 15.6693 118.931 13.0856
602 2 3.87062 118.879 13.0862
603 2 7.85275 118.968 13.0081
604 2 11.6422 118.979 13.0515
605 2 -0.319521 122.746 13.0916
606 2 3.90664 122.849 12.9118
607 2 7.98539 122.848 13.0936
608 2 11.8234 122.788 13.0605
609 2 15.8429 126.562 13.1301
610 2 3.99976 126.645 12.908
611 2 7.92695 126.669 13.0638
612 2 11.7697 126.727 12.9799
613 2 15.8152 130.683 12.9009
614 2 3.90914 130.553 13.0592
615 2 7.82635 130.595 12.9773
616 2 11.8981 130.724 13.1439
617 2 0.0358162 134.621 12.8828
618 2 3.89246 134.569 12.9734
619 2 7.83106 134.607 12.7911
620 2 11.9085 134.615 12.8013
621 2 -0.0262545 138.329 12.7872
622 2 3.78972 138.455 12.8131
623 2 7.75668 138.54 12.8918
624 2 11.7709 138.446 12.7817
625 2 15.662 142.223 12.8322
626 2 3.81929 142.376 12.8932
627 2 7.8716 142.461 12.9089
628 2 11.8001 142.236 12.8239
629 2 -0.062229 146.393 12.9221
630 2 3.84058 146.453 12.9344
631 2 7.90788 146.205 12.6597
632 2 11.8302 146.251 12.836
633 2 15.7214 150.179 12.7316
634 2 3.79877 150.215 12.8391
635 2 7.80921 150.215 12.8084
636 2 11.9093 150.073 12.8005
637 2 15.8974 154.095 12.8724
638 2 3.91761 154.054 12.8555
639 2 7.79861 154.059 12.73
640 2 11.8333 153.942 12.5893
641 2 15.7694 157.954 16.8813
642 2 3.63729 158.071 16.7329
643 2 7.76327 157.961 16.8501
644 2 11.8626 157.923 16.7158
645 2 15.6735 3.56169 16.5612
646 2 3.86369 3.62866 16.8063
647 2 7.90253 3.53812 16.7408
648 2 11.9382 3.37446 16.5642
649 2 -0.262741 7.38584 16.6042
650 2 3.85284 7.43035 16.528
651 2 7.91645 7.6545 16.7015
652 2 11.7287 7.32751 16.7021
653 2 15.7084 11.464 16.6316
654 2 3.92026 11.2338 16.6481
655 2 7.74835 11.4731 16.7196
656 2 11.73 11.4949 16.6898
657 2 0.239698 15.4971 16.3777
658 2 4.13059 15.3659 16.6268
659 2 8.15041 15.3889 16.5193
660 2 11.9702 15.2298 16.6587
661 2 15.7941 19.1508 16.5292
662 2 4.12152 19.2682 16.585
663 2 7.64957 19.138 16.5252
664 2 11.8115 19.2556 16.6883
665 2 15.8176 23.1971 16.4581
666 2 3.89352 23.123 16.6496
667 2 7.96504 23.1248 16.4177
668 2 12.0203 23.1517 16.5339
669 2 0.0591432 26.9819 16.2998
670 2 4.02027 26.9296 16.4347
671 2 7.99338 27.0871 16.3618
672 2 11.9832 26.9015 16.2393
673 2 15.7371 30.9953 16.3555
674 2 4.08623 31.0295 16.383
675 2 7.9371 31.0624 16.6056
676 2 11.8246 31.0098 16.4684
677 2 16.1137 34.9771 16.3483
678 2 3.98559 35.0768 16.3401
679 2 7.86372 34.9179 16.5718
680 2 11.7109 34.9584 16.499
681 2 -0.0251794 39.027 16.4581
682 2 3.98195 38.8953 16.4936
683 2 7.9203 38.9856 16.5336
684 2 11.7084 39.0901 16.558
685 2 16.0581 43.0573 16.5495
686 2 3.97268 43.0902 16.497
687 2 7.79751 43.0824 16.6249
688 2 11.9717 43.0098 16.5619
689 2 -0.127774 47.0021 16.5869
690 2 3.86957 47.0838 16.5577
691 2 8.03493 47.0576 16.6023
692 2 11.7474 47.1128 16.452
693 2 15.6135 51.119 16.5794
694 2 3.81463 51.0937 16.6521
695 2 7.70271 51.1891 16.7857
696 2 11.5852 51.0501 16.6803
697 2 0.00901205 55.0674 16.7038
698 2 3.79889 55.2806 16.7635
699 2 7.92664 54.9449 16.7242
700 2 11.9256 55.1144 16.6766
701 2 0.0867849 59.1111 16.7256
702 2 3.88358 59.3282 16.8619
703 2 7.97516 59.133 16.91
704 2 11.9855 59.229 16.6462
705 2 0.0969856 63.214 16.6974
706 2 4.02987 63.1819 16.7792
707 2 7.86285 63.2493 16.7796
708 2 11.9866 63.2322 16.8662
709 2 0.103331 67.2278 16.7013
710 2 4.02491 67.2144 16.787
711 2 7.96167 67.1594 16.9783
712 2 11.7089 67.2334 16.7839
713 2 -0.277623 71.3168 17.03
714 2 3.88574 71.0975 17.0016
715 2 7.82951 71.32 17.1385
716 2 11.6398 71.1751 16.8882
717 2 -0.0775361 75.1511 17.1327
718 2 3.81121 75.2968 17.1186
719 2 7.9068 75.5798 17.0652
720 2 11.695 75.3244 17.1034
721 2 -0.0573753 79.159 17.3499
722 2 3.92596 79.3966 17.2302
723 2 7.70048 79.3111 17.1771
724 2 12.0409 79.3887 17.2405
725 2 -0.12248 83.5337 17.2536
726 2 3.83597 83.3777 17.3581
727 2 7.81346 83.3879 17.5573
728 2 11.7959 83.4298 17.2514
729 2 -0.0177942 87.4168 17.3041
730 2 3.81424 87.3316 17.3143
731 2 7.93492 87.32 17.6726
732 2 11.8259 87.2097 17.4422
733 2 -0.0892521 91.4141 17.3088
734 2 3.86547 91.427 17.3682
735 2 7.93258 91.6064 17.4954
736 2 11.6718 91.3992 17.2782
737 2 -0.26373 95.3347 17.4099
738 2 3.8634 95.4218 17.2465
739 2 7.86126 95.4785 17.5229
740 2 11.7336 95.3623 17.4863
741 2 15.6911 99.2773 17.3525
742 2 3.77033 99.304 17.415
743 2 7.81875 99.3087 17.5479
744 2 11.5855 99.2196 17.384
745 2 15.8793 103.153 17.4257
746 2 3.91363 103.305 17.2967
747 2 7.87215 103.106 17.1334
748 2 11.8606 103.453 17.3016
749 2 15.8878 107.168 17.4099
750 2 3.89645 107.165 17.4651
751 2 8.08209 107.015 17.0797
752 2 11.9987 107.286 17.1731
753 2 0.145833 110.909 17.2936
754 2 4.11037 111.11 17.0688
755 2 7.85364 110.917 17.1097
756 2 11.9487 111.309 17.2143
757 2 -0.0130581 114.94 17.2311
758 2 3.93516 115.017 17.154
759 2 7.82121 115.124 17.0933
760 2 11.8024 115.202 17.0979
761 2 -0.00969444 119.013 16.9964
762 2 4.0251 118.906 17.0306
763 2 8.00221 119.028 17.0775
764 2 11.642 119.012 17.1914
765 2 -0.129809 122.789 17.1223
766 2 3.89174 122.829 17.0984
767 2 7.74972 122.988 17.1716
768 2 11.7951 122.814 17.1874
769 2 0.0954416 126.815 17.0189
770 2 3.80568 126.689 17.1314
771 2 7.94612 126.827 16.9145
772 2 12.04 126.753 16.9494
773 2 0.175141 130.539 16.8808
774 2 4.13469 130.595 16.9947
775 2 7.9103 130.662 16.9568
776 2 11.8097 130.893 16.9452
777 2 -0.0307865 134.617 16.9007
778 2 3.99605 134.558 17.0486
779 2 8.14523 134.589 16.6763
780 2 11.9298 134.717 16.8784
781 2 15.8066 138.492 17.0824
782 2 3.87273 138.471 16.8912
783 2 7.74809 138.511 16.9585
784 2 11.7738 138.555 16.8417
785 2 15.6994 142.538 16.8519
786 2 3.82741 142.337 16.6579
787 2 7.85283 142.408 16.9367
788 2 11.6893 142.559 16.8656
789 2 15.7267 146.231 17.011
790 2 3.95408 146.348 16.8458
791 2 7.95407 146.168 16.852
792 2 11.7705 146.384 16.9286
793 2 15.7902 150.182 16.9243
794 2 3.78826 150.107 16.81
795 2 7.9134 150.27 17.0024
796 2 11.7929 150.208 17.0198
797 2 -0.0942287 153.929 16.7903
798 2 3.87169 153.926 16.6103
799 2 7.82446 154.146 16.7228
800 2 11.9205 154.104 16.913
801 2 -0.196066 157.937 20.8987
802 2 3.75953 158.184 20.7365
803 2 7.69686 158.065 20.7976
804 2 11.5569 158.071 20.9132
805 2 15.6227 3.65176 20.7555
806 2 3.93417 3.47586 20.8088
807 2 7.76661 3.74067 20.8581
808 2 11.6421 3.72966 20.9016
809 2 0.00443656 7.56509 20.7747
810 2 3.9262 7.28683 20.7257
811 2 7.759 7.62518 20.8292
812 2 11.731 7.61541 20.7907
813 2 15.7451 11.5105 20.7354
814 2 3.77166 11.2865 20.5032
815 2 7.87989 11.5626 20.615
816 2 11.9699 11.3096 20.7043
817 2 15.8227 15.3298 20.638
818 2 3.87521 15.336 20.5383
819 2 7.78641 15.3729 20.6233
820 2 11.9216 15.2744 20.5424
821 2 16.0704 19.4141 20.6035
822 2 4.21092 19.3254 20.665
823 2 8.03645 19.2171 20.6202
824 2 11.8971 19.1229 20.5589
825 2 15.9463 23.3386 20.6091
826 2 4.02728 23.2398 20.4081
827 2 8.06017 23.3063 20.5502
828 2 11.9611 23.3506 20.5183
829 2 -0.00816549 27.1704 20.4308
830 2 4.06588 27.0621 20.4371
831 2 7.95797 26.9209 20.3565
832 2 11.7765 27.1647 20.3895
833 2 -0.00754853 30.9806 20.3864
834 2 3.90721 30.9672 20.4749
835 2 8.11838 30.9907 20.4907
836 2 11.9397 31.0823 20.4416
837 2 15.5679 35.0449 20.3467
838 2 3.79604 34.9267 20.3561
839 2 7.8153 34.9582 20.292
840 2 11.9245 35.0266 20.3664
841 2 0.263294 38.7635 20.5069
842 2 4.04028 38.9844 20.34
843 2 7.90889 39.0438 20.3934
844 2 12.0047 38.9678 20.4343
845 2 0.0464339 42.8219 20.5676
846 2 4.1448 43.2038 20.4173
847 2 8.16192 43.0653 20.3227
848 2 11.8719 42.9644 20.2212
849 2 0.0820891 46.9152 20.4435
850 2 3.84031 47.0378 20.5795
851 2 7.93539 46.905 20.5885
852 2 11.965 46.7973 20.7451
853 2 0.0399158 50.8058 20.7689
854 2 4.15074 50.9649 20.4303
855 2 7.83163 51.1812 20.6293
856 2 11.8747 51.162 20.6116
857 2 -0.11423 55.0458 20.5563
858 2 3.88627 54.9698 20.6463
859 2 7.95086 55.1313 20.6631
860 2 11.7955 55.0755 20.7355
861 2 15.6849 59.1198 20.691
862 2 3.97657 59.1569 20.6039
863 2 7.97367 59.0264 20.6786
864 2 11.8242 59.0365 20.6447
865 2 15.8033 63.088 20.7132
866 2 3.89045 63.079 20.8309
867 2 7.99783 62.9827 20.771
868 2 11.8906 63.0121 20.753
869 2 -0.114524 67.0846 20.7848
870 2 3.89851 67.0373 20.7258
871 2 8.04048 67.1337 20.8716
872 2 11.8399 67.1476 20.9312
873 2 -0.185659 71.0671 20.7957
874 2 3.92659 71.2663 20.7807
875 2 7.80985 71.168 20.8463
876 2 11.9989 71.2625 20.7237
877 2 0.0244789 75.2277 20.9978
878 2 3.85213 75.2235 21.1403
879 2 8.02348 75.1519 20.9323
880 2 11.9134 75.2566 21.0052
881 2 0.0770245 79.1966 21.2058
882 2 3.93055 79.1893 21.0934
883 2 7.99969 79.3186 21.0261
884 2 11.9118 79.3623 20.8655
885 2 -0.106768 83.3903 21.4581
886 2 3.87943 83.1454 21.2013
887 2 7.82926 83.2711 21.2345
888 2 11.8731 83.122 21.0627
889 2 -0.104278 87.2742 21.2645
890 2 3.85292 87.2119 21.2427
891 2 7.73923 87.3782 21.4491
892 2 11.8796 87.5739 21.174
893 2 -0.0873816 91.5158 21.1487
894 2 3.97221 91.4176 21.2231
895 2 7.85353 91.1999 21.267
896 2 11.8289 91.4913 21.3062
897 2 15.5372 95.407 21.3578
898 2 3.87795 95.3807 21.4497
899 2 7.9228 95.3 21.4329
900 2 11.7481 95.4158 21.6125
901 2 0.0583227 99.2586 21.3037
902 2 3.98286 99.2376 21.4966
903 2 7.7321 99.351 21.3253
904 2 11.9175 99.2796 21.5107
905 2 15.8576 103.058 21.2847
906 2 3.81598 103.345 21.2787
907 2 7.75658 103.421 21.2956
908 2 11.9876 103.242 21.205
909 2 0.0412631 107.085 21.3678
910 2 3.95551 107.383 21.3819
911 2 7.91994 107.24 21.2056
912 2 11.965 107.194 21.148
913 2 15.8028 111.069 21.2394
914 2 3.97978 111.132 21.2799
915 2 8.07823 111.263 21.2032
916 2 11.7957 111.007 21.2015
917 2 -0.0440226 115.235 21.0229
918 2 4.08263 114.987 21.1394
919 2 7.88246 115.156 21.1561
920 2 11.8786 115.009 21.078
921 2 -0.245913 118.947 21.0673
922 2 4.04568 118.967 21.1036
923 2 7.82483 118.935 21.2114
924 2 11.8268 119.104 21.1071
925 2 -0.167934 122.693 21.0112
926 2 4.08318 122.845 21.2202
927 2 7.91277 122.975 21.2057
928 2 11.7977 123.127 21.2525
929 2 -0.0568882 126.887 21.1044
930 2 3.86203 126.875 21.0604
931 2 7.79907 126.911 21.0062
932 2 11.8314 126.86 21.0475
933 2 -0.070663 130.675 20.9598
934 2 4.00637 130.783 21.0466
935 2 7.89462 130.848 20.8803
936 2 11.8587 130.62 21.0811
937 2 15.9156 134.533 20.799
938 2 3.90637 134.46 20.9781
939 2 8.00733 134.625 20.801
940 2 11.8479 134.58 21.0249
941 2 15.8178 138.436 21.1133
942 2 4.04652 138.291 20.9542
943 2 7.86209 138.527 20.9886
944 2 11.9179 138.351 21.0531
945 2 15.7338 142.241 20.8069
946 2 3.92377 142.403 21.0698
947 2 7.98362 142.201 20.7831
948 2 11.7713 142.203 20.9879
949 2 0.0928661 146.129 21.0222
950 2 4.0402 146.305 21.0485
951 2 7.76505 146.279 20.8364
952 2 11.6669 146.233 21.182
953 2 15.6845 150.315 20.9436
954 2 4.12466 150.195 21.0431
955 2 7.86008 150.233 20.9797
956 2 11.8196 150.284 20.9278
957 2 -0.132233 154.132 20.8977
958 2 4.01846 154.183 20.8714
959 2 7.71074 154.318 20.7414
960 2 11.8667 154.338 20.8694
961 2 -0.1802 158.158 24.8149
962 2 3.88595 157.982 24.8339
963 2 7.69804 158.227 24.7476
964 2 11.6725 158.021 24.8766
965 2 15.5571 3.77324 24.7513
966 2 3.94832 3.59693 24.7415
967 2 7.82494 3.74827 24.8441
968 2 11.6654 3.63996 24.6858
969 2 -0.164698 7.46352 24.841
970 2 3.91483 7.5536 24.7278
971 2 7.81995 7.52342 24.8435
972 2 11.787 7.57292 24.8994
973 2 -0.0485559 11.4146 24.6497
974 2 3.76013 11.2866 24.6001
975 2 7.92527 11.3305 24.722
976 2 11.7839 11.4511 24.7397
977 2 -0.108751 15.3221 24.6795
978 2 4.05169 15.3384 24.6241
979 2 7.64164 15.2307 24.5626
980 2 11.7465 15.2742 24.431
981 2 15.8373 19.3667 24.52
982 2 3.91083 19.3939 24.7128
983 2 7.9867 19.2556 24.584
984 2 11.8556 19.2353 24.6084
985 2 0.286714 23.3298 24.6568
986 2 4.06526 23.2289 24.5398
987 2 8.10807 23.0919 24.6405
988 2 11.9727 23.2421 24.5537
989 2 0.0759018 27.1183 24.5621
990 2 4.10776 27.2107 24.1757