ITEM: TIMESTEP
16700
ITEM: NUMBER OF ATOMS
32000
ITEM: BOX BOUNDS xy xz yz pp pp pp
0.0000000000000000e+00 1.5832000000000001e+01 0.0000000000000000e+00
0.0000000000000000e+00 1.5831999999999999e+02 0.0000000000000000e+00
8.2919423117621704e-01 1.6014792376882195e+02 0.0000000000000000e+00
ITEM: ATOMS id type x y z
1 2 -0.167586 157.896 160.081
2 2 4.01523 157.855 159.908
3 2 8.06022 157.922 160.013
4 2 11.9425 157.862 159.939
5 2 15.8397 3.3827 160.103
6 2 3.75677 3.43791 159.899
7 2 7.74143 3.33476 159.769
8 2 11.789 3.42299 159.847
9 2 -0.255589 7.35372 159.954
10 2 4.09767 7.25315 159.747
11 2 7.98421 7.19532 159.647
12 2 11.642 7.29373 159.962
13 2 0.0585721 11.045 159.844
14 2 3.8906 11.159 159.879
15 2 7.90364 11.1317 159.842
16 2 11.5717 11.3825 159.751
17 2 15.783 14.9917 159.825
18 2 4.01239 14.9936 159.734
19 2 8.00707 15.2168 159.803
20 2 11.9001 15.0846 159.774
21 2 -0.0258567 19.0296 159.734
22 2 4.09164 18.9271 159.726
23 2 7.86824 19.084 159.767
24 2 11.9169 19.1127 159.909
25 2 15.905 23.1576 0.543063
26 2 4.18448 23.171 159.846
27 2 7.80972 23.1383 159.873
28 2 11.8305 23.0694 160.049
29 2 16.0162 27.1982 159.996
30 2 3.98926 26.975 159.758
31 2 7.96382 27.1357 159.901
32 2 11.8639 27.0755 159.989
33 2 15.869 31.1459 160.15
34 2 4.17506 31.2044 160.024
35 2 7.77304 31.2005 159.995
36 2 11.9993 31.2385 0.79415
37 2 15.9682 35.0987 160.02
38 2 3.89299 35.1226 0.629328
39 2 7.90033 35.159 160.033
40 2 11.7848 35.3645 0.670075
41 2 -0.044202 39.2713 160.117
42 2 3.9455 39.2557 0.842852
43 2 7.95919 39.3073 0.720821
44 2 11.9126 39.1303 159.86
45 2 0.00569434 43.4 0.965206
46 2 4.1151 43.3863 0.928459
47 2 7.82105 43.1541 0.915783
48 2 12.0051 43.2341 0.647999
49 2 15.707 47.3047 0.761192
50 2 3.93865 47.2771 0.784748
51 2 7.8206 47.3212 0.771387
52 2 11.6682 47.3098 0.973705
53 2 -0.0798069 51.267 0.971091
54 2 3.84451 51.3717 0.953632
55 2 7.87774 51.2902 0.936035
56 2 11.8223 51.1932 160.337
57 2 -0.0614646 55.3227 0.991647
58 2 3.84708 55.3009 1.12798
59 2 7.65157 55.409 0.97072
60 2 11.8149 55.616 1.05444
61 2 -0.098904 59.3585 1.0155
62 2 3.97659 59.5612 1.01357
63 2 7.94181 59.4402 1.03106
64 2 11.8687 59.5708 1.15337
65 2 -0.13561 63.3162 1.2102
66 2 3.94125 63.5253 1.35812
67 2 7.87583 63.3813 0.952357
68 2 11.9799 63.5127 1.18425
69 2 -0.173222 67.6618 1.34426
70 2 3.73007 67.5632 1.42873
71 2 7.84966 67.4828 1.4125
72 2 11.9208 67.6579 1.32003
73 2 15.656 71.5343 1.23044
74 2 4.00829 71.5813 1.39782
75 2 7.85388 71.6423 1.56205
76 2 11.7499 71.5732 1.34444
77 2 0.106211 75.6656 1.39321
78 2 3.70662 75.5853 1.53667
79 2 7.79165 75.5026 1.5621
80 2 11.9364 75.6092 1.48985
81 2 0.0139538 79.5285 1.53858
82 2 3.98013 79.6306 1.52549
83 2 7.8856 79.4994 1.4105
84 2 12.0599 79.5435 1.26748
85 2 -0.0192093 83.5063 1.47383
86 2 3.85217 83.48 1.38532
87 2 8.0233 83.5488 1.36675
88 2 11.9589 83.2335 1.38159
89 2 -0.156199 87.2094 1.53921
90 2 3.84692 87.3091 1.4539
91 2 8.00215 87.3568 1.46961
92 2 11.7638 87.4292 1.50359
93 2 -0.243503 91.2814 1.51463
94 2 3.89774 91.0616 1.38753
95 2 7.68823 91.2348 1.51654
96 2 11.6793 91.2865 1.29284
97 2 -0.0321228 95.3099 1.33644
98 2 3.99805 95.099 1.29372
99 2 7.94034 95.1005 1.33596
100 2 11.7123 94.9801 1.22222
101 2 -0.082472 99.0569 1.17994
102 2 4.05115 99.1403 1.08167
103 2 8.12512 98.9229 1.29219
104 2 11.882 99.0632 1.29241
105 2 15.8434 102.988 1.25199
106 2 3.88668 103.024 1.30048
107 2 7.8923 103.139 1.31768
108 2 11.7546 102.879 1.26047
109 2 15.6963 106.914 1.04851
110 2 3.97874 106.855 1.10697
111 2 7.93075 107.016 1.08133
112 2 11.871 106.882 1.2459
113 2 0.0817182 110.94 0.964925
114 2 4.13815 110.846 1.06704
115 2 7.93739 110.75 1.03924
116 2 11.9737 110.806 1.13987
117 2 0.185653 114.86 1.09178
118 2 3.88035 114.691 1.09716
119 2 8.08984 114.739 0.97571
120 2 11.8934 114.8 1.03144
121 2 15.7527 118.599 0.946993
122 2 3.8063 118.695 0.883319
123 2 7.67456 118.734 0.984619
124 2 11.9544 118.523 160.483
125 2 -0.204293 122.518 0.654304
126 2 3.85267 122.564 0.904364
127 2 7.81676 122.56 1.02619
128 2 11.8588 122.593 0.940557
129 2 -0.00773175 126.516 160.24
130 2 3.67575 126.56 160.336
131 2 7.74752 126.555 0.893062
132 2 12.0365 126.622 1.07089
133 2 -0.135851 130.521 160.241
134 2 4.00146 130.28 160.288
135 2 7.99008 130.459 1.00792
136 2 11.9108 130.548 160.209
137 2 -0.0692894 134.43 160.133
138 2 3.90303 134.059 160.05
139 2 7.71223 134.469 0.787231
140 2 11.7627 134.33 160.123
141 2 -0.122082 138.291 160.224
142 2 3.88001 138.188 160.241
143 2 7.84447 138.246 160.29
144 2 11.7963 138.212 0.834383
145 2 15.7982 142.148 160.087
146 2 3.93376 142.223 160.133
147 2 7.91218 142.239 160.124
148 2 11.9667 142.088 159.964
149 2 -0.172518 146.212 159.969
150 2 3.82257 146.171 159.926
151 2 7.82697 146.078 160.004
152 2 11.7711 146.17 160.096
153 2 15.9179 150.145 159.803
154 2 4.06242 149.971 159.946
155 2 7.80848 150.004 160.02
156 2 11.589 149.945 160.062
157 2 15.9497 153.753 160.092
158 2 4.03664 153.891 159.908
159 2 8.06457 153.922 159.889
160 2 11.8952 154.025 159.91
161 2 15.6626 157.94 4.60902
162 2 3.93139 157.833 4.68569
163 2 7.90965 157.882 4.63484
164 2 11.8163 157.865 4.72775
165 2 16.0025 3.51069 4.51992
166 2 3.91329 3.44138 4.46424
167 2 7.79128 3.25304 4.57223
168 2 11.7264 3.38661 4.6227
169 2 15.7858 7.28575 4.57844
170 2 3.87935 7.48614 4.81292
171 2 7.90944 7.32482 4.51342
172 2 11.9868 7.17317 4.54329
173 2 15.8467 11.1872 4.70121
174 2 3.98709 11.3714 4.71025
175 2 7.85263 11.0542 4.52646
176 2 12.0037 11.2487 4.65896
177 2 15.8242 14.9961 4.54583
178 2 4.05676 14.9859 4.53209
179 2 7.8545 14.9397 4.40475
180 2 11.835 15.0805 4.63518
181 2 0.121038 19.0586 4.41507
182 2 3.83647 19.0484 4.45621
183 2 8.14152 18.9896 4.58305
184 2 11.8741 18.8979 4.48198
185 2 15.6636 23.1464 4.48146
186 2 3.9807 22.9533 4.41816
187 2 7.98178 23.069 4.5647
188 2 11.8799 23.0778 4.65421
189 2 15.8017 27.109 4.68261
190 2 3.84549 27.1458 4.51665
191 2 7.8979 27.1987 4.54916
192 2 11.9037 26.9033 4.63791
193 2 15.8886 31.2784 4.65111
194 2 4.05479 31.0935 4.66414
195 2 8.07206 31.1798 4.57531
196 2 11.8945 31.0863 4.5292
197 2 0.170651 35.2306 4.80346
198 2 3.99114 35.2528 4.55086
199 2 7.7036 35.1448 4.66248
200 2 11.7704 35.0325 4.49959
201 2 0.00610471 39.2739 4.87028
202 2 3.98217 39.1382 4.64668
203 2 8.02702 39.1405 4.65607
204 2 11.7763 38.9662 4.56364
205 2 0.0671787 43.2371 4.90661
206 2 3.89655 43.4445 4.6791
207 2 7.86913 43.2772 4.78232
208 2 11.9859 43.1683 4.62724
209 2 15.5523 47.139 5.07309
210 2 3.62834 47.3077 4.9272
211 2 7.74715 47.2656 4.87266
212 2 11.6898 47.1972 4.79521
213 2 0.109747 51.5462 5.06971
214 2 3.91834 51.1945 4.88548
215 2 7.84313 51.2467 4.97304
216 2 11.8341 51.2895 4.91979
217 2 -0.0455279 55.3176 4.98993
218 2 3.87846 55.182 4.81738
219 2 7.99796 55.209 5.01216
220 2 11.9675 55.1785 4.90791
221 2 0.0426867 59.3538 4.91485
222 2 3.92225 59.317 5.07303
223 2 8.00622 59.3223 5.01038
224 2 11.8608 59.3665 5.0973
225 2 -0.02289 63.4274 5.15552
226 2 3.94279 63.5619 5.21073
227 2 7.81203 63.4906 4.97075
228 2 11.8591 63.2652 5.145
229 2 -0.139569 67.4769 5.22343
230 2 3.95865 67.4263 5.34831
231 2 8.02147 67.4425 5.09252
232 2 11.8441 67.3458 5.09715
233 2 0.0098458 71.6182 5.16632
234 2 3.83508 71.5633 5.3432
235 2 7.91526 71.414 5.29417
236 2 11.7396 71.5671 5.56737
237 2 -0.137718 75.5278 5.32898
238 2 3.71714 75.6469 5.26784
239 2 7.68698 75.597 5.52459
240 2 11.711 75.544 5.5218
241 2 -0.107863 79.6627 5.43666
242 2 3.89861 79.7553 5.51597
243 2 7.87239 79.9564 5.36698
244 2 11.8253 79.7257 5.55063
245 2 15.6951 83.4835 5.48756
246 2 3.96673 83.4776 5.49799
247 2 8.04404 83.5073 5.34902
248 2 11.7148 83.5892 5.52921
249 2 -0.190059 87.3797 5.51904
250 2 3.86684 87.384 5.47663
251 2 7.84344 87.3862 5.65987
252 2 11.7469 87.5145 5.50828
253 2 0.0584635 91.3429 5.491
254 2 3.82117 91.1255 5.36903
255 2 7.78806 91.2196 5.37957
256 2 11.9182 91.3126 5.32796
257 2 -0.0702324 95.4094 5.47873
258 2 3.82136 95.0515 5.31833
259 2 7.87242 95.2449 5.37421
260 2 11.8077 95.1856 5.43455
261 2 -0.048548 99.158 5.17042
262 2 4.02151 99.1111 5.42196
263 2 7.99708 99.1441 5.48364
264 2 11.7964 99.1091 5.27698
265 2 15.9898 102.985 5.24649
266 2 4.04861 103.038 4.99631
267 2 7.9459 103.043 5.27619
268 2 12.0013 103.049 5.10877
269 2 0.0472719 106.885 5.28689
270 2 3.91382 107.13 5.20153
271 2 7.93596 106.891 5.16978
272 2 11.9659 106.896 5.2123
273 2 0.126215 110.731 5.17689
274 2 3.93129 110.962 5.09626
275 2 7.79672 110.9 5.25653
276 2 12.0144 110.92 5.16687
277 2 15.951 114.909 5.13053
278 2 4.07762 114.776 4.95623
279 2 7.93659 114.755 5.17895
280 2 11.9562 114.749 5.26705
281 2 15.7694 118.664 5.10697
282 2 4.10252 118.573 5.00201
283 2 7.87749 118.754 5.07789
284 2 11.8521 118.93 4.98073
285 2 15.6519 122.678 5.22571
286 2 3.48826 122.585 4.89734
287 2 7.98171 122.736 4.88523
288 2 11.7349 122.822 5.02091
289 2 -0.0173025 126.558 4.97658
290 2 3.83049 126.43 5.03154
291 2 7.89454 126.511 4.93868
292 2 12.0769 126.669 5.04492
293 2 0.0182573 130.512 5.06387
294 2 3.83359 130.361 5.05842
295 2 7.77652 130.485 5.08842
296 2 11.7713 130.623 4.91591
297 2 0.0639817 134.371 4.90567
298 2 3.82317 134.531 4.92898
299 2 7.96574 134.327 4.90034
300 2 11.7333 134.456 4.88013
301 2 15.7873 138.395 4.8861
302 2 3.97899 138.354 4.85053
303 2 7.88482 138.319 4.95044
304 2 11.7176 138.253 4.84277
305 2 -0.131467 142.462 4.72882
306 2 3.89468 142.295 4.86978
307 2 7.99703 142.141 4.59758
308 2 11.7386 142.307 4.80469
309 2 15.6356 146.248 4.74448
310 2 3.75526 146.245 4.72429
311 2 7.92218 146.09 4.91019
312 2 11.8135 146.281 4.81301
313 2 -0.0913538 149.923 4.73662
314 2 3.7424 150.037 4.74512
315 2 7.88191 150.137 4.60398
316 2 11.7451 150.208 4.66433
317 2 15.8113 153.865 4.63193
318 2 4.10408 153.976 4.59897
319 2 7.82193 153.977 4.56845
320 2 11.7139 154.019 4.59728
321 2 15.9895 158.09 8.73965
322 2 3.84909 157.89 8.62609
323 2 7.82003 157.897 8.72314
324 2 11.9388 158.036 8.64323
325 2 16.0316 3.56428 8.77037
326 2 3.97904 3.41812 8.60519
327 2 7.95498 3.34146 8.63106
328 2 11.9505 3.42004 8.66123
329 2 0.0576482 7.44091 8.67209
330 2 3.81049 7.23774 8.4731
331 2 8.01136 7.39451 8.59745
332 2 11.9869 7.20397 8.49942
333 2 15.7455 11.442 8.69385
334 2 4.0094 11.1556 8.69301
335 2 8.02956 11.1849 8.63728
336 2 11.8725 11.2632 8.60681
337 2 0.122013 15.2488 8.59216
338 2 4.14547 15.0857 8.68614
339 2 7.96711 15.3392 8.56241
340 2 12.0113 15.2764 8.60551
341 2 0.00723032 18.9412 8.40964
342 2 3.86357 19.0435 8.46226
343 2 8.01931 19.0109 8.5505
344 2 12.0913 19.3075 8.39743
345 2 0.209826 23.1166 8.34646
346 2 4.03553 22.9584 8.39977
347 2 7.83279 22.9018 8.5685
348 2 11.9601 23.1585 8.58346
349 2 15.8106 27.1328 8.40364
350 2 4.06276 27.0414 8.54294
351 2 7.86711 26.9117 8.41611
352 2 11.786 27.0502 8.52944
353 2 15.751 31.1288 8.52846
354 2 4.0003 31.0986 8.44311
355 2 7.89364 30.9929 8.51612
356 2 11.9128 31.0245 8.62673
357 2 15.836 35.0094 8.55671
358 2 3.95994 35.1834 8.62213
359 2 8.01567 35.063 8.63986
360 2 12.0415 35.18 8.50136
361 2 15.8775 39.1239 8.76997
362 2 4.19309 39.2 8.67821
363 2 7.94387 39.2868 8.60737
364 2 11.939 39.2701 8.64865
365 2 15.8092 43.1513 8.78623
366 2 3.96987 43.1514 8.62085
367 2 7.90288 43.1533 8.70322
368 2 11.7464 43.0249 8.51414
369 2 -0.108682 47.2286 8.90739
370 2 3.89718 47.2448 8.81167
371 2 7.92125 47.0908 8.86514
372 2 11.7223 47.2147 8.75223
373 2 -0.229654 51.1667 8.98725
374 2 3.85343 51.2031 8.92618
375 2 7.93691 51.1392 8.72792
376 2 11.8208 51.2265 8.65363
377 2 -0.0902462 55.2715 8.91822
378 2 3.88741 55.1518 8.8254
379 2 7.84131 55.1339 9.01357
380 2 11.8091 55.1844 9.12727
381 2 15.8908 59.2532 8.93939
382 2 4.1325 59.348 8.83011
383 2 7.96259 59.3349 8.78238
384 2 11.7768 59.4269 8.9747
385 2 -0.0455027 63.299 9.14175
386 2 3.88193 63.3528 8.96723
387 2 7.93084 63.3831 8.90871
388 2 11.9442 63.3415 8.94452
389 2 0.0737476 67.3653 9.20154
390 2 4.02232 67.5186 9.06035
391 2 8.03889 67.4136 9.00766
392 2 12.0761 67.4143 9.19893
393 2 -0.199169 71.5585 9.20243
394 2 4.0535 71.4044 9.21623
395 2 8.09589 71.2672 9.14144
396 2 11.9914 71.1379 9.2612
397 2 -0.121576 75.5312 9.39966
398 2 3.73025 75.438 9.17737
399 2 7.78521 75.5357 9.45281
400 2 11.7429 75.4844 9.06806
401 2 -0.131163 79.5367 9.55064
402 2 3.93426 79.5306 9.47311
403 2 7.86994 79.3575 9.51315
404 2 11.9979 79.5042 9.47399
405 2 -0.111615 83.5745 9.64601
406 2 4.05318 83.6648 9.48271
407 2 7.88556 83.6081 9.31435
408 2 11.7808 83.657 9.44058
409 2 -0.0309023 87.4933 9.61355
410 2 3.93091 87.5994 9.45143
411 2 8.09105 87.5529 9.54208
412 2 11.9922 87.4445 9.54786
413 2 -0.0433546 91.3525 9.4376
414 2 3.82746 91.3333 9.39557
415 2 7.76947 91.3064 9.33058
416 2 11.7011 91.4539 9.49028
417 2 -0.118985 95.3535 9.42167
418 2 3.9082 95.2611 9.52968
419 2 7.86901 95.1738 9.50476
420 2 11.7016 95.3154 9.58628
421 2 15.6147 99.4205 9.25233
422 2 4.11511 99.1711 9.42896
423 2 7.9521 99.3172 9.41204
424 2 11.9535 99.3004 9.31706
425 2 -0.0871834 103.221 9.25704
426 2 3.85773 103.057 9.24538
427 2 7.98303 103.332 9.19597
428 2 11.9152 103.267 9.29854
429 2 15.8046 107.106 9.05523
430 2 4.02181 107.005 9.12404
431 2 7.9953 106.936 9.13771
432 2 11.914 107.227 9.33875
433 2 -0.000797691 110.927 9.17603
434 2 3.97034 111.014 9.22046
435 2 7.81715 110.879 9.20083
436 2 12.1022 111.091 9.15931
437 2 0.0319827 114.857 9.13244
438 2 3.75625 114.923 9.27813
439 2 8.0663 114.843 9.17502
440 2 11.7521 114.75 9.20085
441 2 -0.0283763 118.807 8.975
442 2 3.92948 118.816 9.20576
443 2 7.97773 118.675 8.93657
444 2 11.597 118.54 8.80546
445 2 15.8816 122.766 9.07011
446 2 3.9716 122.48 9.11339
447 2 7.84616 122.677 9.04913
448 2 11.6837 122.57 8.96846
449 2 0.00848466 126.582 9.07616
450 2 4.12812 126.633 9.05795
451 2 7.96919 126.678 9.16468
452 2 11.7613 126.787 9.04251
453 2 -0.239089 130.513 8.99206
454 2 3.72973 130.489 8.87983
455 2 7.82674 130.61 8.91398
456 2 11.8398 130.597 8.98648
457 2 0.144179 134.459 8.94163
458 2 3.9832 134.48 8.81657
459 2 7.81837 134.417 9.00938
460 2 12.0131 134.583 9.03089
461 2 -0.192315 138.526 8.65248
462 2 3.73687 138.431 8.80717
463 2 7.85926 138.456 8.83224
464 2 11.6238 138.304 8.90215
465 2 0.00583603 142.218 8.67565
466 2 3.97374 142.392 8.86237
467 2 7.85101 142.382 8.72266
468 2 11.8214 142.315 8.78439
469 2 15.9672 146.16 8.77561
470 2 3.96166 146.105 8.78993
471 2 7.97314 146.134 8.74332
472 2 11.9959 146.223 8.64065
473 2 15.7694 150.272 8.80735
474 2 4.01946 150.261 8.64517
475 2 8.03039 150.151 8.75786
476 2 11.9332 150.085 8.80399
477 2 15.6689 154.188 8.74291
478 2 3.79356 153.954 8.56642
479 2 7.78697 154.174 8.50761
480 2 11.8017 154.05 8.68495
481 2 15.7742 158.056 12.7523
482 2 3.80015 157.912 12.8829
483 2 7.73809 157.966 12.7135
484 2 11.7359 157.934 12.7125
485 2 15.8392 3.50051 12.7534
486 2 4.06019 3.60962 12.6952
487 2 8.03421 3.54186 12.6899
488 2 11.7854 3.51589 12.4743
489 2 0.107586 7.39122 12.6473
490 2 4.09603 7.36267 12.454
491 2 7.97189 7.52639 12.5988
492 2 11.7715 7.35811 12.6787
493 2 15.9086 11.274 12.6251
494 2 4.00375 11.1994 12.4916
495 2 7.87837 11.3876 12.7143
496 2 12.1516 11.2924 12.5619
497 2 -0.0366767 15.4953 12.4754
498 2 3.92788 15.1506 12.5624
499 2 7.94834 15.3219 12.6343
500 2 12.1408 15.1731 12.4684
501 2 16.0397 19.2133 12.3004
502 2 3.99933 19.2655 12.5335
503 2 7.81548 19.1122 12.6403
504 2 12.1452 19.2323 12.4113
505 2 16.0218 23.0587 12.3462
506 2 4.08376 23.1675 12.3923
507 2 8.10085 23.0778 12.4465
508 2 11.9004 23.0853 12.3802
509 2 16.0158 27.0124 12.2673
510 2 3.96999 27.1652 12.4543
511 2 8.03997 26.9952 12.6059
512 2 11.9078 26.9859 12.321
513 2 0.0541685 31.141 12.4774
514 2 4.04748 30.949 12.4489
515 2 8.03584 31.055 12.4695
516 2 11.8293 30.8994 12.5313
517 2 15.6865 35.0287 12.5433
518 2 4.14379 35.0664 12.6298
519 2 7.98131 35.028 12.5045
520 2 11.7666 34.9383 12.4197
521 2 15.8577 39.1675 12.3366
522 2 4.07476 39.115 12.5521
523 2 7.98877 39.0355 12.5003
524 2 11.6349 39.089 12.6392
525 2 15.5822 43.2412 12.8543
526 2 3.96449 42.9436 12.7141
527 2 7.80831 43.1008 12.5147
528 2 11.8472 43.1389 12.4809
529 2 15.7638 47.1009 12.7604
530 2 3.90471 47.2067 12.7686
531 2 7.98987 47.0097 12.6146
532 2 11.8141 47.0641 12.6452
533 2 -0.126888 51.1396 12.746
534 2 3.84022 51.1175 12.814
535 2 7.9481 51.15 12.6934
536 2 11.8823 51.0514 12.7952
537 2 0.0733249 55.0781 12.8356
538 2 3.76462 55.0951 12.6435
539 2 7.8802 55.1265 12.8991
540 2 11.7921 55.3086 12.7259
541 2 0.0398939 59.1774 12.8778
542 2 4.03271 59.3796 12.8442
543 2 7.91586 59.0404 12.8482
544 2 11.8061 59.1125 12.7973
545 2 0.0192575 63.2722 12.9431
546 2 4.02138 63.1148 12.9748
547 2 7.8126 63.3641 12.6205
548 2 11.9699 63.1152 12.8202
549 2 0.132672 67.2555 13.037
550 2 3.88163 67.3699 12.9113
551 2 7.92239 67.1891 12.9673
552 2 11.9942 67.2826 13.1129
553 2 0.204676 71.3157 13.1927
554 2 3.89108 71.3544 13.1807
555 2 7.78239 71.3319 13.0841
556 2 11.741 71.1377 13.1527
557 2 0.035652 75.3555 13.245
558 2 3.90801 75.375 13.3181
559 2 7.77843 75.3296 13.2156
560 2 11.8584 75.3282 13.1971
561 2 0.137815 79.5271 13.3699
562 2 3.87113 79.5095 13.3084
563 2 7.91413 79.174 13.3215
564 2 11.7136 79.4302 13.2727
565 2 0.013686 83.5234 13.47
566 2 3.82705 83.4184 13.3182
567 2 7.95571 83.3469 13.234
568 2 11.8719 83.4046 13.5517
569 2 0.194835 87.5772 13.4561
570 2 4.1324 87.6277 13.6284
571 2 7.75796 87.4373 13.7504
572 2 11.735 87.448 13.5359
573 2 -0.0512303 91.5577 13.507
574 2 3.90022 91.4182 13.5725
575 2 7.88477 91.4371 13.492
576 2 11.9488 91.6295 13.452
577 2 -0.0681935 95.3662 13.4798
578 2 4.05522 95.2209 13.3987
579 2 7.90024 95.465 13.447
580 2 11.7578 95.4421 13.4912
581 2 0.0971765 99.274 13.4992
582 2 3.96257 99.2213 13.2684
583 2 7.71425 99.1505 13.3487
584 2 11.8088 99.3228 13.4701
585 2 0.0802245 103.001 13.1242
586 2 3.84912 103.068 13.2354
587 2 7.97956 103.187 13.3023
588 2 11.7568 103.169 13.2753
589 2 15.8677 106.929 13.2493
590 2 3.68098 107.06 13.2638
591 2 7.99059 107.066 13.1349
592 2 12.1064 107.151 13.4344
593 2 -0.0510876 111.213 13.3492
594 2 4.07804 110.918 13.0943
595 2 7.95997 110.908 13.1838
596 2 11.8943 110.942 13.1322
597 2 15.6153 115.011 13.2052
598 2 3.97182 114.889 13.2033
599 2 7.73292 114.883 13.1268
600 2 11.7306 114.905 13.2073
601 2 15.7256 118.936 13.2259
602 2 3.8024 119.004 13.2319
603 2 7.5944 118.883 13.0858
604 2 11.8033 118.741 13.1182
605 2 0.0174264 122.688 13.0503
606 2 3.91961 122.788 13.0273
607 2 7.77748 122.901 12.9309
608 2 11.7887 122.65 13.0473
609 2 15.6289 126.695 12.9593
610 2 3.82227 126.829 13.1577
611 2 7.71052 126.734 13.1295
612 2 11.8368 126.704 13.0841
613 2 15.8518 130.67 13.0682
614 2 3.93063 130.758 12.9611
615 2 7.91314 130.671 13.0096
616 2 11.8522 130.546 12.8806
617 2 0.112264 134.494 12.8998
618 2 4.08241 134.493 12.9109
619 2 7.87945 134.729 12.9166
620 2 11.9197 134.438 13.0741
621 2 -0.0974752 138.479 12.8826
622 2 3.99387 138.419 12.8587
623 2 7.84982 138.531 12.7012
624 2 11.7933 138.354 12.903
625 2 15.7564 142.38 12.7799
626 2 3.90057 142.344 12.7708
627 2 7.80535 142.338 12.814
628 2 11.8484 142.47 12.8058
629 2 -0.123685 146.154 12.7361
630 2 3.87026 146.115 12.7714
631 2 7.87107 146.257 12.9422
632 2 11.7315 146.352 12.9014
633 2 15.756 150.196 12.8656
634 2 4.01771 149.941 12.6791
635 2 7.76281 150.105 12.6842
636 2 11.8719 150.236 12.727
637 2 15.6951 154.079 12.7672
638 2 3.95313 154.137 12.6481
639 2 7.91719 154.051 12.9139
640 2 11.7757 154.174 13.0265
641 2 15.6745 158.04 16.6749
642 2 3.99598 157.999 16.7311
643 2 7.94244 157.987 16.6825
644 2 11.8121 158.133 16.7205
645 2 15.9642 3.61426 16.6454
646 2 3.94214 3.5712 16.7392
647 2 7.83025 3.59777 16.844
648 2 11.7297 3.71197 16.8446
649 2 -0.0933521 7.58647 16.5971
650 2 3.97741 7.54515 16.841
651 2 7.73138 7.31146 16.6456
652 2 11.8694 7.46151 16.6703
653 2 15.7039 11.3929 16.5946
654 2 3.96679 11.6682 16.6481
655 2 7.94904 11.404 16.5849
656 2 11.7609 11.2648 16.561
657 2 0.0835757 15.258 16.546
658 2 3.93731 15.2773 16.671
659 2 7.90262 15.135 16.3637
660 2 12.092 15.4943 16.5658
661 2 15.9634 19.3396 16.5875
662 2 3.97972 19.2986 16.6246
663 2 8.19778 19.0631 16.561
664 2 11.9281 19.3384 16.4474
665 2 15.9156 23.0927 16.5771
666 2 4.1645 23.247 16.4129
667 2 8.25533 23.0171 16.3546
668 2 12.1106 22.9996 16.1542
669 2 0.129115 27.2034 16.4895
670 2 4.10044 26.9526 16.2418
671 2 8.07552 27.0635 16.5245
672 2 11.9244 27.113 16.3596
673 2 15.9714 30.9114 16.4937
674 2 3.89271 30.8169 16.533
675 2 8.00637 31.0512 16.2287
676 2 12.0689 31.0097 16.479
677 2 15.618 34.9223 16.3905
678 2 3.82757 34.8384 16.453
679 2 7.8811 34.9959 16.299
680 2 11.8857 34.9263 16.4808
681 2 -0.0119366 38.8363 16.423
682 2 3.85638 39.0622 16.3842
683 2 8.04321 38.9902 16.4187
684 2 11.9388 38.7871 16.4985
685 2 15.6868 42.9159 16.4733
686 2 3.99317 42.9054 16.5582
687 2 8.0996 43.0685 16.4514
688 2 11.932 43.1725 16.5021
689 2 0.156538 47.07 16.722
690 2 4.0245 46.9669 16.7714
691 2 7.88294 47.1322 16.5298
692 2 11.7875 47.1995 16.598
693 2 15.69 51.0488 16.7212
694 2 3.85449 51.0282 16.7056
695 2 7.84964 51.1287 16.7249
696 2 11.8542 51.1338 16.782
697 2 -0.0398714 55.084 16.612
698 2 4.053 54.953 16.5433
699 2 7.93028 55.3684 16.7606
700 2 11.8188 55.0805 16.82
701 2 0.00448455 59.182 16.7933
702 2 4.03165 59.0875 16.767
703 2 7.85402 59.2672 16.734
704 2 11.9402 59.0759 16.905
705 2 -0.00530824 63.2084 16.9271
706 2 3.98082 63.1415 16.922
707 2 7.84502 63.1949 16.7757
708 2 11.7651 63.0022 16.7232
709 2 0.026326 67.1207 17.0696
710 2 3.83012 67.2148 16.9462
711 2 7.63842 67.2709 16.976
712 2 11.8907 67.1345 16.9598
713 2 -0.0858799 71.3331 16.9403
714 2 4.00113 71.2479 17.0214
715 2 7.87601 71.2757 16.9153
716 2 11.8451 71.3209 16.99
717 2 0.0765298 75.4154 17.1788
718 2 4.05091 75.3114 17.2873
719 2 7.78088 75.147 17.1861
720 2 11.872 75.2693 17.0279
721 2 -0.074405 79.3494 17.0399
722 2 3.78332 79.2388 17.2138
723 2 7.81344 79.3817 17.0291
724 2 11.7435 79.2041 17.1359
725 2 -0.0632097 83.1882 17.2983
726 2 3.78644 83.3668 17.4818
727 2 7.73884 83.274 17.2017
728 2 11.9079 83.3514 17.3779
729 2 -0.171421 87.3584 17.4456
730 2 3.83677 87.3615 17.4759
731 2 7.78087 87.4183 17.4029
732 2 11.8605 87.4683 17.2555
733 2 -0.160886 91.3242 17.4903
734 2 3.8018 91.5039 17.5512
735 2 7.88422 91.2802 17.5498
736 2 11.8166 91.3938 17.4715
737 2 -0.0397745 95.4512 17.5345
738 2 4.05778 95.517 17.5493
739 2 7.93252 95.4818 17.3571
740 2 11.7778 95.5467 17.4065
741 2 15.7388 99.2792 17.2962
742 2 3.88517 99.249 17.2013
743 2 7.8974 99.4135 17.3507
744 2 11.883 99.3407 17.4034
745 2 15.7773 103.162 17.3478
746 2 4.07083 103.491 17.3035
747 2 7.86299 103.176 17.4198
748 2 11.7278 103.119 17.3799
749 2 15.8739 107.13 17.0774
750 2 3.93203 107.224 17.0866
751 2 7.81231 107.179 17.238
752 2 11.9456 107.03 17.4114
753 2 -0.0188675 111.339 17.2274
754 2 3.82151 110.873 17.321
755 2 8.05859 111.152 17.2411
756 2 11.806 110.994 17.2484
757 2 0.165546 115.056 17.1797
758 2 4.06367 114.837 17.264
759 2 8.01002 114.964 17.2691
760 2 12.0274 114.904 17.2929
761 2 0.011925 118.79 17.2973
762 2 3.86046 118.907 17.2268
763 2 7.643 119.028 17.177
764 2 11.7531 118.944 17.0425
765 2 0.108993 122.834 17.019
766 2 3.89169 122.895 17.2565
767 2 7.87971 122.897 16.9976
768 2 11.7856 122.988 16.9636
769 2 -0.0748827 126.643 17.1333
770 2 3.94887 126.87 16.9834
771 2 7.85044 126.811 17.229
772 2 11.7479 126.858 17.2045
773 2 -0.119814 130.648 17.0806
774 2 3.84468 130.755 17.0713
775 2 7.97843 130.779 16.95
776 2 11.8437 130.569 16.973
777 2 0.0387463 134.636 16.9643
778 2 3.94929 134.629 16.9036
779 2 7.82416 134.786 17.0068
780 2 11.9751 134.469 16.9962
781 2 15.9237 138.469 16.7182
782 2 3.90571 138.549 16.991
783 2 7.83631 138.551 16.7206
784 2 11.9693 138.573 16.7685
785 2 15.7128 142.333 16.8906
786 2 3.6551 142.472 16.9717
787 2 7.64601 142.37 16.7466
788 2 11.9485 142.232 16.7402
789 2 15.7308 146.325 16.8556
790 2 3.84894 146.121 16.9142
791 2 7.93182 146.365 16.7594
792 2 11.9228 146.305 16.9619
793 2 15.8518 150.247 16.8112
794 2 4.11706 150.123 16.8724
795 2 7.88365 150.126 16.7336
796 2 11.8241 150.23 16.6783
797 2 -0.0851643 154.058 16.8847
798 2 3.80298 154.049 16.9199
799 2 7.86845 153.984 16.8623
800 2 11.781 154.135 16.7653
801 2 -0.27826 158.023 20.8584
802 2 3.64458 157.893 20.7157
803 2 7.6778 158.06 20.7737
804 2 11.8661 158.2 20.696
805 2 15.8785 3.70096 20.7717
806 2 3.69703 3.68718 20.7561
807 2 7.90625 3.72195 20.7598
808 2 11.9835 3.60973 20.7519
809 2 0.0157816 7.65867 20.5257
810 2 3.93946 7.72936 20.727
811 2 7.9695 7.63008 20.6869
812 2 11.8991 7.57697 20.6917
813 2 15.6887 11.3505 20.5892
814 2 3.84005 11.5048 20.5531
815 2 7.78662 11.2961 20.7964
816 2 11.5563 11.5747 20.5968
817 2 15.7794 15.4987 20.6456
818 2 3.79628 15.3988 20.7731
819 2 7.94155 15.2918 20.7146
820 2 11.7673 15.2532 20.6683
821 2 15.8801 19.1983 20.5554
822 2 4.07955 19.3277 20.4994
823 2 8.03772 19.3418 20.5458
824 2 11.9725 19.0918 20.4935
825 2 15.7182 23.0147 20.5554
826 2 3.9135 23.2821 20.4711
827 2 8.02142 23.0414 20.5553
828 2 11.9903 23.1608 20.567
829 2 -0.113534 27.0136 20.5893
830 2 3.9034 27.0094 20.289
831 2 7.87226 27.0408 20.4302
832 2 11.8074 27.0394 20.1646
833 2 -0.017087 30.8799 20.3288
834 2 4.0471 31.0307 20.4396
835 2 7.6657 31.0391 20.3453
836 2 11.5597 31.081 20.5026
837 2 15.9553 34.8053 20.313
838 2 3.9178 34.8475 20.288
839 2 7.74692 34.9765 20.3668
840 2 11.7804 34.9526 20.5072
841 2 -0.143607 39.006 20.3358
842 2 3.94323 38.9955 20.3307
843 2 7.80214 38.8516 20.4073
844 2 11.8745 38.8508 20.3992
845 2 0.0216205 42.971 20.2258
846 2 3.95143 42.7371 20.3985
847 2 7.89045 43.0067 20.4768
848 2 12.1026 42.8959 20.4468
849 2 0.0278889 47.0912 20.6487
850 2 4.14304 46.8584 20.6357
851 2 7.8056 47.1114 20.5272
852 2 11.9724 47.1037 20.2784
853 2 0.050955 51.1405 20.4396
854 2 3.78107 50.9429 20.6832
855 2 8.14576 50.8147 20.6989
856 2 12.0396 50.9598 20.7403
857 2 0.129744 55.0299 20.642
858 2 3.9582 55.0479 20.5273
859 2 7.86384 55.046 20.673
860 2 11.9597 55.0444 20.6511
861 2 15.9133 58.9832 20.6916
862 2 3.7833 58.9823 20.704
863 2 7.88422 59.0139 20.6423
864 2 12.02 59.0289 20.673
865 2 15.8311 63.1156 20.7496
866 2 4.13466 63.1461 20.7864
867 2 7.93258 63.0601 20.6792
868 2 11.8004 63.1207 20.7846
869 2 -0.135121 67.1677 20.6817
870 2 3.87638 67.2936 20.8141
871 2 7.92478 66.923 20.8724
872 2 11.8462 67.0195 20.6194
873 2 0.189723 71.2001 20.9882
874 2 3.92448 71.0505 20.918
875 2 8.03593 71.0137 20.9592
876 2 11.728 71.1359 20.9692
877 2 -0.0753205 75.0134 21.1114
878 2 4.00513 75.1047 21.0373
879 2 7.76049 75.2236 21.0395
880 2 11.7889 75.2789 20.8894
881 2 -0.0958062 79.3339 21.1902
882 2 3.84743 79.2411 21.0704
883 2 7.80797 79.1186 21.1396
884 2 11.8067 79.2804 21.082
885 2 -0.0736959 83.2145 21.1802
886 2 3.76943 83.2881 21.3886
887 2 7.90846 83.2699 21.2864
888 2 11.8721 83.5257 21.3353
889 2 -0.00946275 87.479 21.5291
890 2 3.89635 87.3524 21.337
891 2 7.79352 87.2388 21.3198
892 2 11.7385 87.1999 21.3668
893 2 -0.130042 91.1158 21.2891
894 2 3.84336 91.2556 21.3538
895 2 7.883 91.4349 21.3951
896 2 11.6775 91.3154 21.4047
897 2 15.9153 95.1198 21.2815
898 2 3.87568 95.1837 21.2288
899 2 7.74379 95.5048 21.4444
900 2 11.9243 95.3424 21.2603
901 2 -0.140543 99.329 21.4642
902 2 3.67201 99.2949 21.1927
903 2 7.89911 99.4567 21.5
904 2 11.7487 99.4938 21.4349
905 2 15.9014 103.372 21.374
906 2 3.99657 103.256 21.2339
907 2 7.93683 103.332 21.3457
908 2 11.8534 103.396 21.3205
909 2 -0.0551752 107.176 21.3694
910 2 4.10821 107.242 21.2047
911 2 7.98374 107.281 21.426
912 2 11.8506 107.173 21.4055
913 2 15.9039 111.019 21.2832
914 2 4.02467 111.106 21.3193
915 2 7.90344 111.083 21.1769
916 2 11.9816 111.139 21.1407
917 2 0.100612 115.006 21.1973
918 2 3.95515 114.911 21.2632
919 2 8.03507 114.964 21.312
920 2 11.929 114.977 21.3376
921 2 -0.130568 119.048 21.072
922 2 3.81878 118.909 21.2879
923 2 7.95802 118.906 21.1584
924 2 11.6871 118.947 21.2092
925 2 -0.0388962 122.948 21.2568
926 2 3.81082 122.869 21.2089
927 2 7.86811 122.737 21.13
928 2 11.7641 122.855 20.934
929 2 -0.0486101 126.581 21.0867
930 2 3.97366 126.632 21.1654
931 2 7.93752 126.896 21.1087
932 2 11.811 126.853 21.1831
933 2 0.0640773 130.622 21.0643
934 2 3.87454 130.594 21.0269
935 2 7.91931 130.638 21.0389
936 2 11.9045 130.808 21.0148
937 2 15.7163 134.511 21.0472
938 2 3.95369 134.598 20.9498
939 2 7.91131 134.766 20.9123
940 2 11.7721 134.527 20.9641
941 2 15.8421 138.358 20.8533
942 2 3.97801 138.666 20.9859
943 2 8.18226 138.491 20.7339
944 2 11.9349 138.498 20.7964
945 2 15.7803 142.336 20.8891
946 2 3.99923 142.467 20.7944
947 2 7.85522 142.513 21.034
948 2 11.8066 142.465 20.7599
949 2 -0.106721 146.548 20.8123
950 2 3.79679 146.404 20.8724
951 2 7.82465 146.196 20.9582
952 2 11.8712 146.305 20.645
953 2 16.0249 150.148 20.8115
954 2 3.94678 150.265 20.7827
955 2 8.00189 150.298 20.8369
956 2 11.8524 150.227 21.0233
957 2 0.0963598 154.084 20.9217
958 2 3.84939 154.294 20.8531
959 2 7.91495 154.243 20.6845
960 2 11.6368 154.08 20.9463
961 2 -0.0445263 158.035 24.9872
962 2 3.91083 158.312 24.782
963 2 7.92645 158.105 24.903
964 2 11.8202 158.154 24.7431
965 2 15.8692 3.70004 24.5903
966 2 3.92626 3.78121 24.7673
967 2 7.8671 3.63236 24.8351
968 2 11.8732 3.87288 24.8824
969 2 -0.0342427 7.74876 24.6273
970 2 3.74726 7.6029 24.7877
971 2 7.79646 7.68752 24.7624
972 2 11.8479 7.63223 24.7682
973 2 -0.0775763 11.6182 24.7957
974 2 3.96869 11.5915 24.7312
975 2 7.76757 11.6294 24.7756
976 2 11.8385 11.4747 24.7431
977 2 -0.000992988 15.4811 24.6837
978 2 3.68903 15.5048 24.6238
979 2 7.96382 15.4495 24.7077
980 2 11.8835 15.3995 24.7601
981 2 15.7543 19.2964 24.7242
982 2 4.06557 19.3355 24.5655
983 2 7.92699 19.3543 24.5886
984 2 11.8893 19.4459 24.6015
985 2 -0.0658835 23.1331 24.426
986 2 3.96674 23.1846 24.5182
987 2 7.87167 23.3309 24.5147
988 2 11.9757 23.2069 24.6204
989 2 0.0296836 27.3309 24.4429
990 2 3.92614 27.0648 24.5271
991 2 7.9492 27.1506 24.4067
992 2 11.8953 26.8772 24.3559