ITEM: TIMESTEP
17500
ITEM: NUMBER OF ATOMS
32000
ITEM: BOX BOUNDS xy xz yz pp pp pp
0.0000000000000000e+00 1.5832000000000001e+01 0.0000000000000000e+00
0.0000000000000000e+00 1.5831999999999999e+02 0.0000000000000000e+00
7.9247114384493500e-01 1.6018464685615305e+02 0.0000000000000000e+00
ITEM: ATOMS id type x y z
1 2 0.178417 157.806 160.118
2 2 4.02687 157.795 159.853
3 2 7.80166 157.785 160.037
4 2 11.9089 157.848 160.026
5 2 15.8562 3.41679 160.012
6 2 4.03248 3.37461 159.771
7 2 7.94312 3.21082 159.961
8 2 11.7155 3.32264 159.979
9 2 0.0784117 7.46745 159.721
10 2 3.87 7.25138 159.938
11 2 7.7973 7.26086 159.913
12 2 11.9365 7.28051 159.923
13 2 0.066199 11.2609 159.87
14 2 3.85576 11.1442 159.725
15 2 7.74575 11.2622 159.796
16 2 11.7485 11.3552 159.753
17 2 15.5987 15.2382 159.762
18 2 3.88955 15.0528 159.785
19 2 7.83375 15.1944 159.738
20 2 11.8317 15.2277 159.652
21 2 -0.0269813 19.1032 159.877
22 2 4.06964 19.1057 159.856
23 2 7.96391 19.2497 159.916
24 2 12.042 19.3009 159.958
25 2 15.7166 23.0474 0.334976
26 2 3.8364 23.0784 159.736
27 2 8.01811 23.3291 160.065
28 2 11.8472 23.322 159.765
29 2 15.7338 27.1851 159.982
30 2 4.00679 27.2673 159.763
31 2 8.1133 27.172 159.917
32 2 12.0791 27.2274 160.068
33 2 15.7963 31.16 159.818
34 2 4.04702 31.2638 160.037
35 2 8.03192 31.1892 159.791
36 2 11.9942 31.2197 0.475992
37 2 15.7415 35.128 160
38 2 3.81965 35.2868 0.414687
39 2 8.02491 35.2204 160.003
40 2 12.1265 35.2834 0.678224
41 2 -0.0673431 39.358 160.171
42 2 3.91228 39.2091 0.761616
43 2 7.81282 39.1218 0.625857
44 2 11.8508 39.5228 160.232
45 2 -0.181754 43.2968 0.70705
46 2 3.79174 43.3033 0.802146
47 2 7.62729 43.3955 0.625226
48 2 11.7341 43.528 0.854707
49 2 15.8006 47.4819 1.02388
50 2 3.94558 47.2886 0.836099
51 2 7.89072 47.491 0.665529
52 2 12.0249 47.2946 0.624413
53 2 -0.204732 51.2132 0.9744
54 2 3.96524 51.4116 0.858741
55 2 7.92604 51.4733 1.16118
56 2 11.8314 51.3689 160.323
57 2 -0.114917 55.3783 1.10652
58 2 4.01791 55.5773 1.00254
59 2 7.95254 55.4645 1.15876
60 2 11.8277 55.4211 0.963862
61 2 -0.0321691 59.3442 1.2031
62 2 3.99523 59.4492 1.15658
63 2 7.8968 59.33 1.05097
64 2 12.0534 59.4193 0.960049
65 2 -0.149345 63.4622 1.28785
66 2 3.8769 63.5893 1.19754
67 2 7.85216 63.4554 1.29123
68 2 11.7614 63.4501 1.01378
69 2 -0.136462 67.5668 1.2287
70 2 3.78623 67.5252 1.10359
71 2 7.80149 67.3762 1.18319
72 2 11.5779 67.4615 1.30768
73 2 15.5853 71.6277 1.36808
74 2 3.94251 71.6747 1.49872
75 2 7.70743 71.5626 1.51865
76 2 11.7398 71.5213 1.26236
77 2 -0.101481 75.6033 1.43612
78 2 3.7992 75.5452 1.45863
79 2 7.70916 75.694 1.43688
80 2 11.8777 75.6898 1.60438
81 2 0.0325241 79.6815 1.51684
82 2 3.75429 79.4966 1.27757
83 2 7.82891 79.4345 1.30133
84 2 11.8137 79.5723 1.45616
85 2 0.0827352 83.504 1.48988
86 2 4.20551 83.4988 1.36477
87 2 7.79866 83.4716 1.43491
88 2 11.841 83.3616 1.48938
89 2 0.0671478 87.2792 1.33207
90 2 3.92255 87.4125 1.3235
91 2 8.01227 87.3203 1.52478
92 2 11.8327 87.3577 1.21384
93 2 -0.0419176 91.4354 1.34599
94 2 3.9426 91.1804 1.14379
95 2 8.02207 91.0783 1.28759
96 2 11.9567 91.3797 1.10398
97 2 0.109238 95.0965 1.37877
98 2 3.91525 95.0751 1.15733
99 2 7.79159 95.0596 1.36819
100 2 12.0433 95.1196 1.28479
101 2 0.116917 99.0377 1.26277
102 2 4.14075 99.0124 1.36151
103 2 7.76333 99.0267 1.1918
104 2 11.8522 99.1651 1.23403
105 2 15.7516 102.949 1.24137
106 2 4.19126 103.013 1.22774
107 2 7.84325 103.082 1.26413
108 2 11.7295 103.034 1.27124
109 2 15.9149 106.712 1.24204
110 2 3.91018 106.904 1.25646
111 2 7.91328 106.879 1.18837
112 2 11.7628 106.833 1.32338
113 2 -0.075732 110.866 1.36275
114 2 4.0486 110.758 1.32711
115 2 7.97184 110.944 1.4475
116 2 12.0598 110.784 1.21197
117 2 -0.056516 114.722 1.2251
118 2 3.9865 114.945 1.05879
119 2 8.06824 114.671 1.18124
120 2 11.8693 114.775 1.17739
121 2 15.8343 118.659 1.15632
122 2 3.98337 118.736 1.04408
123 2 8.06857 118.695 0.962821
124 2 11.9964 118.784 160.452
125 2 0.068526 122.704 1.06202
126 2 3.86238 122.532 1.27997
127 2 7.96557 122.514 0.916425
128 2 11.9783 122.679 0.85199
129 2 0.236905 126.458 160.447
130 2 4.09748 126.439 160.264
131 2 8.10947 126.495 1.06614
132 2 11.8513 126.417 0.938839
133 2 -0.0061233 130.322 160.381
134 2 3.79921 130.531 160.255
135 2 7.77824 130.362 1.00394
136 2 11.9598 130.521 160.192
137 2 0.125933 134.45 160.249
138 2 4.09655 134.416 160.289
139 2 7.97928 134.301 1.02131
140 2 12.0222 134.396 160.282
141 2 0.012084 138.28 160.284
142 2 4.08881 138.392 160.327
143 2 7.95027 138.284 160.282
144 2 12.0674 138.294 1.0004
145 2 15.7276 142.09 160.184
146 2 3.99292 142.11 160.226
147 2 7.73431 142.215 160.038
148 2 11.7754 142.119 160.331
149 2 -0.0493363 145.97 160.3
150 2 3.80484 145.985 160.158
151 2 7.94005 145.971 160.131
152 2 11.892 146.021 160.183
153 2 15.8094 150.075 160.136
154 2 3.84746 149.938 160.143
155 2 7.93569 149.967 160.061
156 2 11.8277 149.922 160.118
157 2 15.8307 153.865 160.152
158 2 3.90153 153.739 160.043
159 2 7.84117 153.922 159.979
160 2 11.7558 153.939 160.003
161 2 15.9502 157.866 4.73006
162 2 3.91057 157.865 4.53152
163 2 7.89248 157.893 4.7979
164 2 11.9748 157.716 4.46408
165 2 15.8886 3.55622 4.52368
166 2 4.09128 3.37734 4.55236
167 2 7.92787 3.50178 4.55823
168 2 11.8709 3.36185 4.47631
169 2 15.782 7.39008 4.52005
170 2 3.83144 7.3832 4.47778
171 2 7.78725 7.48794 4.48939
172 2 11.6717 7.25976 4.37798
173 2 15.5756 11.345 4.53891
174 2 3.8517 11.2491 4.47414
175 2 7.86441 11.3461 4.5226
176 2 11.4757 11.2924 4.20861
177 2 15.735 15.0512 4.35788
178 2 3.95959 14.8915 4.27822
179 2 7.99123 15.2599 4.49773
180 2 11.8342 15.2214 4.44546
181 2 -0.0416458 19.2519 4.43642
182 2 3.94107 19.1043 4.47263
183 2 8.04303 19.0871 4.29179
184 2 11.8356 19.0622 4.35473
185 2 15.9371 23.1442 4.34515
186 2 4.0629 23.3122 4.18721
187 2 7.96597 23.2309 4.40742
188 2 11.8939 23.0116 4.48206
189 2 16.1618 27.2113 4.30843
190 2 4.25633 27.2418 4.33002
191 2 7.90274 27.2868 4.18338
192 2 11.9579 27.2293 4.53264
193 2 15.7697 31.0761 4.67714
194 2 3.94639 31.1295 4.38708
195 2 8.00383 31.37 4.56834
196 2 11.9139 31.2101 4.52795
197 2 0.0219174 35.2257 4.36429
198 2 3.92911 35.2528 4.60045
199 2 7.91765 35.2705 4.34528
200 2 11.8518 35.211 4.71844
201 2 0.0844127 39.4376 4.61093
202 2 3.83532 39.2787 4.85197
203 2 7.88139 39.457 4.49856
204 2 11.9407 39.2788 4.58998
205 2 -0.112305 43.2949 4.64761
206 2 3.81505 43.0969 4.95025
207 2 7.6877 43.2 4.57161
208 2 11.6221 43.3936 4.73855
209 2 15.91 47.3253 4.85143
210 2 3.95112 47.3072 4.82619
211 2 7.86565 47.3747 4.59075
212 2 11.7753 47.4707 4.78952
213 2 0.153455 51.4917 4.7503
214 2 3.80842 51.3474 4.79114
215 2 7.80494 51.3324 4.92424
216 2 11.9573 51.3811 4.83847
217 2 0.0970601 55.2848 5.06254
218 2 3.98073 55.412 4.87765
219 2 8.04756 55.3253 4.96607
220 2 11.8136 55.4707 5.13656
221 2 -0.0288526 59.3192 5.14847
222 2 3.8606 59.5396 4.68646
223 2 7.85306 59.3837 4.95975
224 2 11.779 59.3635 5.09031
225 2 -0.115302 63.5568 4.94815
226 2 3.7119 63.354 4.98439
227 2 7.6342 63.4014 5.12304
228 2 11.6013 63.3827 5.10489
229 2 -0.264659 67.4143 5.12208
230 2 3.8838 67.3779 5.02662
231 2 7.72171 67.5879 5.23757
232 2 11.8488 67.4121 5.46262
233 2 -0.0711996 71.5025 5.35137
234 2 3.91837 71.3223 5.17174
235 2 7.9574 71.5555 5.48477
236 2 11.8116 71.3175 5.11592
237 2 -0.280324 75.6169 5.36273
238 2 3.89125 75.4986 5.38427
239 2 7.81038 75.5365 5.31212
240 2 11.8246 75.3811 5.41871
241 2 -0.174561 79.553 5.41283
242 2 3.7451 79.63 5.52407
243 2 7.72021 79.5069 5.44076
244 2 11.6449 79.3372 5.23485
245 2 15.8283 83.5558 5.49218
246 2 3.85714 83.5618 5.31086
247 2 7.83617 83.3817 5.41673
248 2 11.785 83.4451 5.49358
249 2 -0.129016 87.3771 5.27238
250 2 4.11236 87.4074 5.4263
251 2 7.97107 87.4872 5.28161
252 2 11.9763 87.4699 5.3649
253 2 0.0214138 91.2856 5.34771
254 2 3.96207 91.3893 5.35473
255 2 7.91602 91.2641 5.58028
256 2 11.8402 91.3674 5.36994
257 2 0.231932 95.1363 5.24076
258 2 4.00926 95.1883 5.30078
259 2 8.01687 95.1936 5.47775
260 2 11.9831 95.1436 5.35299
261 2 0.266149 99.3087 5.13565
262 2 4.11667 99.1559 5.24858
263 2 7.98511 99.0844 5.1703
264 2 12.0095 99.3008 5.2741
265 2 15.7271 103.008 5.16933
266 2 3.9073 103.175 5.49305
267 2 7.99256 103.19 5.20941
268 2 11.9608 103.145 5.28901
269 2 0.0206688 107.053 5.17915
270 2 3.93328 106.95 5.43253
271 2 7.89853 106.948 5.40113
272 2 11.9714 107.012 5.43712
273 2 -0.0477431 111.143 5.0106
274 2 3.97577 111.044 5.45938
275 2 8.02941 110.715 5.16035
276 2 11.8569 110.976 5.13142
277 2 15.7997 114.95 5.36689
278 2 4.10902 114.928 5.15353
279 2 8.03893 114.764 5.0377
280 2 11.868 114.956 5.09764
281 2 15.7738 118.619 5.19068
282 2 4.06243 118.69 5.17409
283 2 7.90302 118.826 5.16698
284 2 11.8184 118.516 5.20538
285 2 15.8829 122.63 5.22352
286 2 4.0124 122.654 5.11926
287 2 8.03502 122.727 5.14625
288 2 11.901 122.761 4.91187
289 2 -0.298911 126.698 4.95697
290 2 3.71587 126.633 5.16518
291 2 7.76039 126.659 4.97254
292 2 11.6907 126.763 5.16222
293 2 -0.0464674 130.379 5.07258
294 2 3.88415 130.44 5.01854
295 2 7.80386 130.335 5.03364
296 2 11.7156 130.544 4.93498
297 2 -0.189584 134.099 4.83127
298 2 3.75343 134.223 4.80945
299 2 7.85326 134.43 4.94575
300 2 11.7301 134.347 4.99719
301 2 16.0639 138.244 5.04279
302 2 3.89591 138.295 5.04611
303 2 7.84801 138.367 4.95076
304 2 11.9872 138.229 4.93099
305 2 0.194097 142.146 4.90736
306 2 3.84946 142.242 4.93959
307 2 7.96963 142.194 4.72526
308 2 11.9023 141.965 4.72812
309 2 15.8327 146.067 4.89885
310 2 4.11038 146.159 4.73783
311 2 8.05655 146.225 4.7211
312 2 11.9196 145.927 4.68571
313 2 -0.0131401 150.147 4.64674
314 2 3.98211 150.025 4.95566
315 2 7.86795 150.062 4.89121
316 2 11.9623 150.075 4.75793
317 2 15.6565 154.042 4.63113
318 2 3.86567 153.95 4.52416
319 2 7.76195 153.879 4.66704
320 2 11.9272 153.828 4.64034
321 2 15.8734 157.992 8.45539
322 2 3.94025 157.938 8.74645
323 2 7.96033 157.834 8.64299
324 2 11.7696 158.065 8.65154
325 2 15.9038 3.48525 8.44164
326 2 3.98488 3.61769 8.54778
327 2 7.90081 3.78083 8.41476
328 2 11.9361 3.48373 8.39185
329 2 -0.0294896 7.36228 8.49578
330 2 3.97113 7.51941 8.49234
331 2 7.77614 7.39222 8.59896
332 2 11.8848 7.48361 8.55326
333 2 15.7768 11.4203 8.41187
334 2 4.08993 11.4688 8.30793
335 2 8.0606 11.3303 8.6713
336 2 11.8865 11.367 8.57112
337 2 -0.110388 15.1437 8.18629
338 2 3.83946 15.2658 8.50274
339 2 8.0301 15.2131 8.4173
340 2 11.9139 15.4025 8.39916
341 2 0.305625 19.4 8.31354
342 2 4.09014 18.9949 8.20725
343 2 7.81071 19.1532 8.27001
344 2 11.8906 19.1693 8.44263
345 2 0.201092 23.2286 8.20455
346 2 4.08908 23.2885 8.24967
347 2 8.02024 23.2679 8.3476
348 2 11.7524 23.1334 8.38609
349 2 15.8588 26.8713 8.32547
350 2 4.21595 27.2152 8.22639
351 2 8.11104 27.1825 8.39682
352 2 11.9385 27.1739 8.34673
353 2 15.9148 31.0256 8.41745
354 2 4.18809 31.133 8.31725
355 2 7.85097 31.1199 8.51782
356 2 11.7412 30.9346 8.39613
357 2 15.8143 35.1669 8.40267
358 2 3.87823 35.0715 8.4181
359 2 7.64943 35.2819 8.43034
360 2 11.7712 35.2964 8.47335
361 2 15.5898 39.3387 8.55689
362 2 3.82015 39.5744 8.65255
363 2 7.93328 39.2369 8.46535
364 2 11.7336 39.1046 8.4343
365 2 15.777 43.2904 8.79205
366 2 3.75891 43.2253 8.94557
367 2 7.72463 43.1946 8.6676
368 2 11.5962 43.2657 8.5234
369 2 -0.170023 47.2088 8.63767
370 2 3.66856 47.1803 8.65478
371 2 7.7423 47.3028 8.52582
372 2 11.7309 47.2284 8.57117
373 2 0.0638165 51.1754 8.72809
374 2 3.92994 51.2323 8.70678
375 2 7.92383 51.3251 8.66674
376 2 11.8857 51.1089 8.77309
377 2 -0.0100383 55.592 8.81903
378 2 4.12143 55.2811 8.90037
379 2 7.77752 55.2367 8.69219
380 2 11.956 55.1974 8.801
381 2 15.6448 59.3024 8.97542
382 2 3.83222 59.3033 8.96925
383 2 7.61099 59.4347 8.76
384 2 11.6515 59.5778 8.88435
385 2 -0.27693 63.2941 8.98528
386 2 3.76627 63.2911 8.96797
387 2 7.71352 63.4381 8.98955
388 2 11.7243 63.3773 8.87432
389 2 -0.153996 67.3015 9.07076
390 2 3.77148 67.4302 9.11215
391 2 7.78889 67.3206 9.16221
392 2 11.7409 67.2607 8.98019
393 2 0.0425821 71.3727 9.07045
394 2 3.74755 71.3052 8.99222
395 2 7.77665 71.5319 9.13591
396 2 11.7168 71.4792 9.26672
397 2 -0.0552059 75.485 9.21607
398 2 3.89207 75.3352 9.14235
399 2 7.80958 75.3125 9.10329
400 2 11.7167 75.5792 9.40868
401 2 -0.328432 79.3917 9.19635
402 2 3.77198 79.3502 9.25886
403 2 7.6828 79.4149 9.43776
404 2 11.5171 79.6439 9.36218
405 2 -0.0636261 83.3957 9.45914
406 2 3.79746 83.5246 9.3688
407 2 7.97171 83.6103 9.4574
408 2 11.7595 83.6566 9.45004
409 2 0.0783967 87.2035 9.41648
410 2 3.89784 87.3353 9.35744
411 2 7.88014 87.4215 9.50554
412 2 11.946 87.5602 9.40647
413 2 0.0401031 91.4827 9.34023
414 2 4.17586 91.224 9.3962
415 2 8.07502 91.3624 9.26114
416 2 12.0602 91.2491 9.33931
417 2 0.395503 95.2756 9.45207
418 2 4.07992 95.1154 9.34141
419 2 7.96169 95.2724 9.29202
420 2 11.9167 95.2158 9.36861
421 2 15.9471 99.0988 9.11569
422 2 4.0964 99.2164 9.27924
423 2 7.96744 99.1205 9.28318
424 2 11.8985 99.3494 9.32064
425 2 0.190749 103.169 9.32525
426 2 4.05218 103.113 9.35092
427 2 8.0769 102.917 9.24425
428 2 12.1096 103.285 9.18131
429 2 15.9977 107.242 9.17394
430 2 4.11628 106.999 9.46668
431 2 7.97794 106.932 9.26312
432 2 11.992 107.157 9.304
433 2 -0.116368 110.974 9.30918
434 2 3.96492 110.826 9.17784
435 2 7.76361 110.932 9.24416
436 2 11.9378 110.938 9.14735
437 2 -0.0717286 114.649 8.98575
438 2 3.95483 114.634 9.14093
439 2 7.76856 115.13 9.18649
440 2 11.7901 114.814 9.12427
441 2 -0.022418 118.607 9.26513
442 2 3.97777 118.646 9.21416
443 2 8.02798 118.802 9.31041
444 2 11.9642 118.87 9.17644
445 2 15.8945 122.633 9.21035
446 2 4.22644 122.574 8.9209
447 2 7.91415 122.666 9.03811
448 2 11.8821 122.757 9.26591
449 2 -0.111021 126.481 9.01528
450 2 3.85729 126.62 9.03638
451 2 7.93139 126.704 9.09743
452 2 11.6178 126.612 9.21157
453 2 -0.104872 130.536 9.20678
454 2 3.97397 130.548 8.9506
455 2 7.79833 130.536 9.11552
456 2 11.7616 130.572 8.97526
457 2 -0.301511 134.543 9.04379
458 2 3.81647 134.435 9.06529
459 2 7.72817 134.408 8.84181
460 2 11.5636 134.409 8.93757
461 2 0.0932529 138.471 8.95854
462 2 3.99131 138.392 8.94183
463 2 7.93362 138.179 8.7604
464 2 11.768 138.354 8.89251
465 2 -0.13738 142.414 8.93628
466 2 3.8456 142.313 8.91433
467 2 7.86797 142.148 8.66211
468 2 11.8522 142.309 8.88213
469 2 15.8117 146.323 8.72791
470 2 3.97192 146.085 8.71511
471 2 8.1516 146.117 8.69009
472 2 11.9425 146.405 8.64944
473 2 15.8612 150.099 8.75875
474 2 4.08195 150.217 8.8881
475 2 7.86225 150.023 8.87116
476 2 11.8673 150.172 8.78116
477 2 16.0213 153.983 8.5003
478 2 3.93142 154.084 8.73552
479 2 7.81474 154.047 9.00015
480 2 11.9436 154.082 8.82314
481 2 15.7243 157.995 12.674
482 2 3.96634 158.013 12.6905
483 2 8.09724 158.113 12.5243
484 2 11.7988 158.306 12.6163
485 2 15.7872 3.50798 12.5922
486 2 3.93419 3.46978 12.4507
487 2 7.9018 3.5779 12.6458
488 2 11.8344 3.7801 12.706
489 2 0.032561 7.43341 12.5498
490 2 3.93709 7.37324 12.6414
491 2 7.89799 7.42897 12.5234
492 2 11.8941 7.66674 12.654
493 2 15.8008 11.4643 12.4912
494 2 4.00964 11.5457 12.5056
495 2 7.91187 11.4442 12.6897
496 2 11.9443 11.547 12.6499
497 2 0.080086 15.3733 12.2663
498 2 3.96298 15.5056 12.3752
499 2 7.86736 15.3329 12.4934
500 2 11.7482 15.4119 12.5439
501 2 15.8116 19.3391 12.3976
502 2 3.86798 19.1804 12.2567
503 2 7.90259 19.1768 12.2114
504 2 11.9618 19.3119 12.4471
505 2 15.8791 23.2069 12.0736
506 2 3.98274 23.0765 12.0727
507 2 7.74553 23.074 12.318
508 2 11.9624 23.1088 12.1898
509 2 15.8792 27.0531 12.3233
510 2 3.90942 27.0454 12.1814
511 2 7.93478 26.9765 12.3011
512 2 11.7564 27.2599 12.3641
513 2 -0.00111638 31.0107 12.2719
514 2 4.07816 31.224 12.1537
515 2 7.96341 31.0925 12.3856
516 2 12.021 31.2188 12.2691
517 2 15.7446 35.1094 12.3208
518 2 3.84496 35.0757 12.5111
519 2 7.96949 35.1815 12.3365
520 2 11.8799 34.9556 12.2491
521 2 15.6687 39.1704 12.4419
522 2 3.65456 39.0909 12.582
523 2 7.94454 39.0561 12.4413
524 2 11.8996 39.0959 12.5026
525 2 15.6116 43.1936 12.6725
526 2 3.92561 43.0674 12.7436
527 2 7.92672 43.2044 12.5222
528 2 11.8283 43.0661 12.4084
529 2 15.7828 47.1588 12.763
530 2 3.78109 47.1374 12.7571
531 2 7.73153 47.269 12.7955
532 2 11.5615 47.0822 12.5167
533 2 -0.100901 51.2239 12.6429
534 2 3.70341 51.3795 12.4762
535 2 7.81376 51.0755 12.5841
536 2 11.8013 51.2649 12.5976
537 2 -0.258654 55.3136 12.9749
538 2 3.84318 55.2365 12.5269
539 2 7.66405 55.152 12.7909
540 2 11.6388 55.0821 12.8313
541 2 -0.293836 59.2066 12.9024
542 2 3.81262 59.1358 12.677
543 2 7.66422 59.2335 12.7162
544 2 11.6409 59.1761 12.8001
545 2 -0.055035 63.1405 12.9584
546 2 3.83931 63.1493 12.9469
547 2 7.69961 63.0863 12.9028
548 2 11.7787 63.3496 13.0385
549 2 -0.346564 67.3863 12.8745
550 2 3.7284 67.2713 12.9371
551 2 7.73026 67.3561 12.634
552 2 11.5383 67.4404 12.7919
553 2 0.00582813 71.3186 13.2066
554 2 3.81421 71.2946 13.0318
555 2 7.83681 71.367 13.0368
556 2 11.6482 71.5772 13.0374
557 2 -0.0391391 75.4438 12.9626
558 2 3.96251 75.5051 13.0832
559 2 7.66844 75.4516 13.0604
560 2 11.8029 75.131 13.1649
561 2 -0.248631 79.3295 13.1337
562 2 3.81042 79.5404 13.1448
563 2 7.74646 79.3646 13.3559
564 2 11.6664 79.3629 13.1797
565 2 -0.0741355 83.4209 13.4098
566 2 4.09277 83.3803 13.3519
567 2 7.87563 83.4439 13.4333
568 2 11.7953 83.3038 13.3724
569 2 0.178983 87.3179 13.5211
570 2 4.12769 87.5002 13.348
571 2 8.09542 87.5579 13.3408
572 2 11.9713 87.6108 13.3076
573 2 0.0274039 91.2223 13.4959
574 2 4.02019 91.4501 13.5869
575 2 8.06167 91.518 13.5123
576 2 12.0845 91.3921 13.5465
577 2 0.0672562 95.3415 13.2612
578 2 3.96897 95.3995 13.4094
579 2 7.8735 95.3183 13.3855
580 2 11.9819 95.4511 13.4085
581 2 -0.120434 99.2824 13.2004
582 2 3.8439 99.2784 13.4422
583 2 8.13885 99.2132 13.3815
584 2 12.0703 99.1497 13.2245
585 2 0.119671 103.201 13.441
586 2 4.16511 103.08 13.5251
587 2 7.94307 103.042 13.2066
588 2 12.0014 103.315 13.2039
589 2 15.8918 107.183 13.3434
590 2 4.15508 107.227 13.3389
591 2 7.81365 107.079 13.4518
592 2 12.001 107.102 13.4211
593 2 0.134802 111.028 13.2138
594 2 3.93836 111.033 13.326
595 2 7.88562 111.039 13.2647
596 2 11.9415 111.105 13.0846
597 2 15.7778 114.802 12.952
598 2 3.97741 114.935 13.3776
599 2 7.96609 114.84 13.2487
600 2 11.7988 114.746 13.3077
601 2 15.8682 118.845 13.0753
602 2 3.93459 118.668 13.2145
603 2 8.03742 118.799 13.297
604 2 11.9065 118.727 13.1728
605 2 0.000279898 122.736 13.1354
606 2 3.98314 122.832 13.1987
607 2 7.94388 122.673 12.9621
608 2 11.8388 122.809 13.1189
609 2 15.8562 126.534 13.1524
610 2 4.08774 126.521 13.0425
611 2 7.88435 126.671 13.0808
612 2 11.9081 126.661 13.2593
613 2 15.7242 130.575 13.0138
614 2 3.91576 130.544 13.0162
615 2 7.68295 130.664 12.925
616 2 11.8438 130.733 12.8169
617 2 -0.0291262 134.413 12.8947
618 2 3.85191 134.623 13.0367
619 2 7.71446 134.424 13.1155
620 2 11.7233 134.377 13.014
621 2 -0.249071 138.296 12.703
622 2 3.88609 138.519 13.0994
623 2 7.94251 138.492 12.965
624 2 11.8717 138.34 12.9844
625 2 15.568 142.362 12.9001
626 2 3.7676 142.231 12.8642
627 2 7.83189 142.376 12.5985
628 2 11.7132 142.405 12.8308
629 2 -0.0816314 146.429 12.6918
630 2 4.09784 146.31 12.6743
631 2 7.90659 146.082 12.8204
632 2 11.9772 146.214 12.7427
633 2 15.9822 150.217 12.8386
634 2 3.96218 150.098 12.8303
635 2 8.00017 150.187 12.6791
636 2 11.8585 150.183 12.839
637 2 15.6347 154.136 12.6766
638 2 3.91329 154.17 12.9071
639 2 7.80312 154.185 12.8504
640 2 11.851 154.222 12.8654
641 2 15.8101 158.138 16.6961
642 2 3.89193 157.799 16.7471
643 2 7.67897 158.162 16.7743
644 2 11.6139 158.051 16.5391
645 2 15.8433 3.76177 16.743
646 2 4.05006 3.66537 16.7145
647 2 7.76352 3.64991 16.6567
648 2 11.707 3.76373 16.5855
649 2 0.0311405 7.62151 16.5228
650 2 3.98546 7.57347 16.6504
651 2 7.83628 7.74573 16.532
652 2 11.8942 7.72177 16.5783
653 2 15.8655 11.6772 16.7291
654 2 4.19298 11.3922 16.6457
655 2 7.85623 11.5106 16.5423
656 2 11.8429 11.5073 16.4606
657 2 -0.169618 15.4424 16.5207
658 2 3.95393 15.5262 16.5703
659 2 7.92693 15.5082 16.4568
660 2 11.8844 15.1759 16.3602
661 2 15.9485 19.3452 16.1372
662 2 3.81146 19.3017 16.3837
663 2 8.05754 19.4432 16.1273
664 2 11.9609 19.3929 16.2659
665 2 15.9307 23.3719 16.3332
666 2 4.10051 23.1271 16.2749
667 2 7.86149 23.1659 16.3979
668 2 11.8936 23.1912 16.4202
669 2 0.028039 27.0725 16.1719
670 2 3.74784 27.1387 16.0838
671 2 8.08282 26.99 16.0974
672 2 11.9396 27.0972 16.2062
673 2 15.826 31.1218 16.2611
674 2 3.92853 31.0066 16.1509
675 2 7.89687 31.0376 16.2178
676 2 11.7727 31.0281 16.4297
677 2 15.7024 35.0055 16.2605
678 2 4.03256 35.0103 16.0917
679 2 7.83098 34.9966 16.3991
680 2 11.7391 35.0095 16.3795
681 2 -0.217112 39.0106 16.3092
682 2 3.74796 38.9755 16.418
683 2 7.57325 39.0378 16.3617
684 2 11.6339 39.1853 16.2661
685 2 15.6908 43.1537 16.7281
686 2 3.77017 42.9293 16.5241
687 2 7.80422 43.1199 16.4218
688 2 11.622 43.2055 16.3501
689 2 -0.227123 47.1019 16.5888
690 2 3.77046 47.1006 16.6197
691 2 7.8244 47.179 16.6331
692 2 11.8132 47.1388 16.646
693 2 15.6725 50.9813 16.7269
694 2 3.97558 51.0477 16.5098
695 2 7.68947 51.0549 16.6489
696 2 11.6457 51.0566 16.6076
697 2 -0.104474 55.0424 16.4289
698 2 3.88295 55.1179 16.7609
699 2 7.65111 55.2113 16.4604
700 2 11.7576 54.9813 16.6866
701 2 0.0348937 59.0368 16.7437
702 2 3.90633 58.8655 16.7055
703 2 7.97766 59.3425 16.8943
704 2 11.8725 59.145 16.7879
705 2 0.120999 63.0096 16.7494
706 2 3.88821 63.1259 16.7574
707 2 8.07628 63.3562 16.7921
708 2 11.6917 63.2408 17.0152
709 2 -0.179599 67.1136 16.8209
710 2 3.81587 67.2202 16.7905
711 2 7.8218 67.3065 16.5504
712 2 11.7481 67.3231 16.7751
713 2 -0.027876 71.1097 16.8275
714 2 3.80819 71.3041 16.9264
715 2 7.86604 71.2202 16.8585
716 2 11.8901 71.2664 17.0901
717 2 0.10511 75.3801 16.8565
718 2 3.92322 75.1787 16.9528
719 2 7.82248 75.2614 17.0882
720 2 11.8186 75.2199 17.0057
721 2 -0.00646074 79.1048 17.098
722 2 4.01209 79.2074 17.3086
723 2 7.84552 79.2415 17.1138
724 2 11.7854 79.2145 17.1147
725 2 -0.188515 83.2411 17.0211
726 2 3.77991 83.4635 17.1946
727 2 7.90515 83.522 17.2761
728 2 11.831 83.2277 17.163
729 2 -0.128561 87.1826 17.2445
730 2 4.07288 87.4375 17.5065
731 2 7.87087 87.3238 17.2102
732 2 11.8833 87.4073 17.4096
733 2 0.120853 91.4827 17.4186
734 2 3.97324 91.2154 17.3672
735 2 7.89086 91.377 17.4596
736 2 11.9465 91.5585 17.5653
737 2 -0.129375 95.3793 17.3191
738 2 3.96252 95.3897 17.4701
739 2 7.89207 95.3063 17.4608
740 2 11.9048 95.445 17.4913
741 2 15.9269 99.3221 17.3473
742 2 3.94599 99.1112 17.1975
743 2 7.93333 99.3587 17.5387
744 2 11.872 99.3761 17.3407
745 2 15.8601 103.144 17.2878
746 2 3.86867 102.946 17.4147
747 2 8.00905 103.208 17.3439
748 2 12.0756 103.394 17.2482
749 2 15.9034 107.273 17.4181
750 2 3.91666 107.098 17.4046
751 2 7.87792 107.059 17.2683
752 2 11.7931 107.232 17.1639
753 2 0.145595 110.889 17.4065
754 2 4.00979 111.188 17.4813
755 2 7.96063 111.122 17.2726
756 2 11.8867 110.93 17.3148
757 2 -0.125942 114.853 17.1058
758 2 3.83548 115.234 17.0425
759 2 7.86941 114.975 17.2387
760 2 11.7787 115.066 17.3903
761 2 -0.154096 119.018 17.199
762 2 3.93861 119.055 17.2993
763 2 8.01362 118.878 17.1529
764 2 11.9121 118.946 17.3037
765 2 -0.201169 123.023 17.0787
766 2 3.71725 122.923 17.2418
767 2 7.82284 122.83 17.1583
768 2 11.7843 122.756 17.1725
769 2 -0.104636 126.882 17.0807
770 2 3.85172 126.852 17.1645
771 2 7.87437 126.816 17.1497
772 2 11.7279 126.588 17.2306
773 2 -0.0326331 130.61 17.1055
774 2 4.04539 130.74 16.9285
775 2 7.87438 130.652 17.0693
776 2 11.7717 130.532 16.8338
777 2 -0.00851223 134.354 17.129
778 2 3.90003 134.436 16.9795
779 2 8.0898 134.56 17.027
780 2 12.0081 134.557 17.0209
781 2 15.9014 138.311 16.8786
782 2 4.07797 138.537 16.9946
783 2 7.96169 138.54 16.9526
784 2 12.0165 138.381 17.0263
785 2 15.9043 142.323 16.8015
786 2 3.87047 142.405 16.8369
787 2 7.96874 142.394 16.9747
788 2 11.7259 142.422 16.8831
789 2 15.7477 146.283 16.8121
790 2 3.79187 146.371 16.8335
791 2 7.75914 146.207 16.8514
792 2 11.7912 146.387 16.9459
793 2 15.7278 150.252 16.7305
794 2 3.92563 150.294 16.7196
795 2 7.81551 150.314 16.8444
796 2 11.8229 150.152 16.7921
797 2 0.0920003 154.296 16.7973
798 2 3.99987 153.982 16.6355
799 2 7.80455 154.223 16.6956
800 2 11.8449 154.273 16.8285
801 2 0.0307025 158.132 20.6865
802 2 3.98391 158.134 20.7675
803 2 7.95846 158.038 20.6475
804 2 11.9443 157.946 20.6857
805 2 15.7473 3.80444 20.48
806 2 3.84157 3.7437 20.6451
807 2 7.91086 3.61458 20.6415
808 2 11.9655 3.61047 20.6891
809 2 -0.040222 7.60418 20.66
810 2 3.85956 7.60964 20.6515
811 2 7.84921 7.6947 20.697
812 2 11.6714 7.66682 20.6776
813 2 15.937 11.6478 20.8056
814 2 3.89787 11.5428 20.5478
815 2 7.97213 11.5746 20.3641
816 2 11.8778 11.5463 20.5382
817 2 15.9682 15.5338 20.4898
818 2 4.19127 15.5456 20.5985
819 2 8.07361 15.5995 20.3979
820 2 11.8589 15.5003 20.6784
821 2 15.9413 19.3343 20.5934
822 2 3.95696 19.4079 20.441
823 2 7.89655 19.4208 20.4316
824 2 12.1113 19.3884 20.2774
825 2 15.8544 23.3469 20.4664
826 2 4.09664 23.2647 20.2044
827 2 7.85023 23.2121 20.3734
828 2 11.8765 23.2827 20.3842
829 2 -0.0826245 27.2573 20.374
830 2 3.93634 27.2744 20.2287
831 2 7.95542 27.3274 20.238
832 2 11.7522 27.406 20.4427
833 2 0.0396055 31.3031 20.0752
834 2 4.10117 30.8688 20.2203
835 2 7.90492 30.9609 20.1789
836 2 11.9336 31.0422 20.269
837 2 15.7771 35.1138 20.2846
838 2 3.9683 34.9623 20.1915
839 2 7.79051 34.837 20.0294
840 2 11.7197 34.9617 20.3326
841 2 -0.0987072 38.8113 20.1118
842 2 3.87732 38.887 20.2106
843 2 7.77735 38.9714 20.2417
844 2 11.6547 38.9547 20.2413
845 2 -0.107184 42.98 20.5275
846 2 4.03997 42.962 20.3072
847 2 7.85256 42.8448 20.3508
848 2 11.805 42.736 20.4347
849 2 -0.101899 46.9026 20.4886
850 2 3.88312 46.9344 20.4768
851 2 7.86361 46.8769 20.515
852 2 11.7636 46.7682 20.5357
853 2 -0.153684 50.9318 20.6245
854 2 3.83677 51.046 20.4618
855 2 7.56211 50.8201 20.4663
856 2 11.6353 50.9775 20.4661
857 2 -0.308827 55.0035 20.386
858 2 3.86117 55.0143 20.4999
859 2 7.77177 55.0024 20.6663
860 2 11.5397 55.0358 20.6918
861 2 15.8831 58.9127 20.5206
862 2 4.03646 59.0726 20.7196
863 2 8.00198 58.9494 20.7894
864 2 11.7636 59.0811 20.7558
865 2 15.8274 63.0417 20.6642
866 2 3.82653 63.0926 20.6259
867 2 7.78903 63.0288 20.6572
868 2 11.8335 63.0708 20.6856
869 2 -0.19697 67.0643 20.9332
870 2 3.86694 67.0366 20.7509
871 2 7.78682 66.9976 20.4262
872 2 11.9507 67.1525 20.5815
873 2 0.172287 71.0542 20.8147
874 2 4.01972 71.1441 20.8868
875 2 7.93854 71.1937 20.6786
876 2 11.9046 71.1029 20.7274
877 2 -0.0117418 75.2829 20.9305
878 2 4.229 75.2375 20.8469
879 2 8.1137 75.0531 20.9965
880 2 12.0164 75.2228 20.8652
881 2 -0.00470248 79.186 20.9198
882 2 4.1036 79.0422 21.0481
883 2 7.91669 79.2267 21.1196
884 2 11.9004 79.2979 21.0038
885 2 0.141062 83.1892 21.1226
886 2 3.93758 83.1633 21.0926
887 2 7.95556 83.0084 21.1276
888 2 11.8818 83.1878 21.018
889 2 -0.164772 87.1997 21.0868
890 2 3.94085 87.3147 21.3739
891 2 7.88101 87.3679 21.1499
892 2 11.87 87.171 21.2218
893 2 -0.0805639 91.2829 21.2474
894 2 3.80938 91.3856 21.323
895 2 8.0947 91.5677 21.3854
896 2 11.9354 91.3074 21.2568
897 2 15.7446 95.526 21.4565
898 2 4.24162 95.2807 21.5152
899 2 8.11382 95.4084 21.4682
900 2 11.897 95.6057 21.4921
901 2 0.00291871 99.5304 21.245
902 2 4.02829 99.4822 21.4416
903 2 7.88834 99.2039 21.4152
904 2 11.8853 99.3925 21.4367
905 2 15.8485 103.411 21.2895
906 2 3.84713 103.372 21.242
907 2 7.84006 103.36 21.4696
908 2 11.9637 103.345 21.4403
909 2 0.00749592 107.404 21.4572
910 2 3.83503 107.125 21.3857
911 2 7.83792 107.219 21.3447
912 2 11.772 107.189 21.3331
913 2 15.7807 111.304 21.2206
914 2 3.91164 111.29 21.2631
915 2 7.87623 111.163 21.2552
916 2 11.9386 111.14 21.2946
917 2 -0.0623319 114.967 21.2263
918 2 3.95699 115.16 21.2324
919 2 7.99653 115.128 21.2329
920 2 11.9609 115.046 21.4011
921 2 0.0963542 118.902 21.0849
922 2 3.89834 118.88 21.1051
923 2 7.9959 118.833 21.2956
924 2 11.9098 118.942 21.3779
925 2 -0.151575 122.857 21.047
926 2 3.98763 122.909 21.1794
927 2 7.85217 122.917 21.1717
928 2 11.9265 122.797 21.3429
929 2 0.105078 126.848 21.247
930 2 3.94197 126.776 21.2048
931 2 7.76128 126.769 21.1807
932 2 11.8089 126.758 21.103
933 2 0.0647024 130.653 21.0437
934 2 4.05736 130.785 21.0883
935 2 8.01383 130.779 21.1456
936 2 11.9073 130.688 21.2722
937 2 16.1559 134.679 20.9438
938 2 3.86693 134.487 21.0055
939 2 7.90449 134.791 21.0295
940 2 12.1592 134.567 21.096
941 2 15.7673 138.699 20.8173
942 2 3.94792 138.534 21.1063
943 2 8.043 138.555 20.9892
944 2 11.9732 138.719 21.0755
945 2 15.901 142.434 20.6482
946 2 3.89895 142.27 20.7737
947 2 8.00486 142.454 20.8121
948 2 12.0044 142.519 21.0227
949 2 0.130386 146.261 20.9253
950 2 3.94906 146.136 20.9187
951 2 7.89702 146.524 20.732
952 2 12.1011 146.352 21.0289
953 2 15.7533 150.363 20.8213
954 2 3.62689 150.292 20.7011
955 2 7.97042 150.153 20.842
956 2 11.873 150.161 20.7555
957 2 -0.123946 154.113 20.7036
958 2 3.94758 154.052 20.9216
959 2 7.9623 154.122 20.8545
960 2 11.8238 154.07 20.7326
961 2 -0.121985 158.164 24.8316
962 2 3.8459 158.195 24.6902
963 2 7.83323 158.306 24.8692
964 2 11.8483 158.156 24.7419
965 2 15.8113 3.60401 24.6807
966 2 3.83377 3.63003 24.6239
967 2 7.92126 3.70814 24.7049
968 2 12.0408 3.66054 24.6722
969 2 -0.0547813 7.76697 24.594
970 2 4.12253 7.5609 24.5113
971 2 7.93753 7.53637 24.5005
972 2 11.9031 7.51638 24.5562
973 2 -0.0828806 11.6763 24.6744
974 2 4.10784 11.79 24.462
975 2 7.93762 11.5597 24.7785
976 2 12.0724 11.4713 24.5147
977 2 0.00138375 15.4517 24.4055
978 2 4.08056 15.5334 24.5674
979 2 8.03035 15.573 24.5756
980 2 11.7641 15.5494 24.5443
981 2 15.9357 19.4885 24.5327
982 2 3.97209 19.5903 24.5962
983 2 7.92554 19.5479 24.58
984 2 12.013 19.4437 24.3064
985 2 -0.0295525 23.535 24.2785
986 2 4.08773 23.4114 24.2471
987 2 7.90521 23.4161 24.239
988 2 11.846 23.39 24.397
989 2 -0.11755 27.3854 24.3937
990 2 3.92262 27.1668 24.12
991 2 7.77547 27.2507 24.3148