ITEM: TIMESTEP
17700
ITEM: NUMBER OF ATOMS
32000
ITEM: BOX BOUNDS xy xz yz pp pp pp
0.0000000000000000e+00 1.5832000000000001e+01 0.0000000000000000e+00
0.0000000000000000e+00 1.5831999999999999e+02 0.0000000000000000e+00
7.7644242811236097e-01 1.6020067557188560e+02 0.0000000000000000e+00
ITEM: ATOMS id type x y z
1 2 -0.238338 157.957 160.057
2 2 3.90208 157.904 160.045
3 2 7.74375 158.024 159.962
4 2 11.8214 158.008 159.911
5 2 15.8957 3.24957 160.041
6 2 3.89453 3.31324 159.883
7 2 7.81382 3.56289 159.918
8 2 11.7061 3.56157 159.827
9 2 -0.150112 7.39375 159.863
10 2 3.86805 7.27098 159.733
11 2 7.87536 7.39573 159.877
12 2 11.6493 7.28622 159.738
13 2 -0.139852 11.1065 159.784
14 2 3.81474 11.3462 159.735
15 2 7.87108 11.1122 159.77
16 2 11.8643 11.2909 159.847
17 2 16.0291 15.182 159.616
18 2 3.90968 15.5005 159.72
19 2 7.94338 15.1225 159.669
20 2 11.6157 15.1981 159.634
21 2 -0.0442139 19.2004 159.543
22 2 4.04971 19.194 159.467
23 2 7.93245 19.2182 159.494
24 2 11.9017 19.0476 159.596
25 2 16.1435 23.3269 0.517577
26 2 4.26665 23.2959 159.945
27 2 7.9777 23.2414 159.694
28 2 11.9716 23.1155 159.881
29 2 16.1181 27.2748 159.763
30 2 4.05808 27.3068 160.044
31 2 7.79388 27.1471 159.941
32 2 11.7529 27.2675 159.66
33 2 15.8712 31.2677 159.836
34 2 3.98907 31.43 159.923
35 2 7.78054 31.3372 160.034
36 2 12.0912 31.3739 0.544701
37 2 15.7205 35.3556 160.111
38 2 3.82565 35.3862 0.523644
39 2 7.76314 35.3656 160.212
40 2 11.6225 35.1428 0.522607
41 2 0.0149881 39.3041 160.148
42 2 3.8513 39.4596 0.636542
43 2 7.74675 39.5022 0.734941
44 2 11.7447 39.225 160.115
45 2 -0.132793 43.2977 0.835039
46 2 4.06511 43.437 0.829922
47 2 7.9713 43.5461 0.782522
48 2 12.0734 43.1849 0.748703
49 2 15.7127 47.4297 0.72462
50 2 3.91536 47.2728 0.716564
51 2 7.82214 47.351 1.00569
52 2 11.7813 47.2661 0.835298
53 2 0.0967029 51.2946 0.927865
54 2 3.92047 51.3074 1.05194
55 2 7.92663 51.2012 0.753689
56 2 11.9097 51.549 160.296
57 2 -0.145166 55.5859 0.766916
58 2 3.8044 55.3372 0.992032
59 2 7.72768 55.1783 0.979406
60 2 11.736 55.4599 0.877445
61 2 -0.0707856 59.6587 0.88472
62 2 3.72009 59.3931 1.16047
63 2 7.58386 59.3294 1.12611
64 2 11.7094 59.3984 1.11128
65 2 0.0139879 63.3557 1.08684
66 2 3.98819 63.4604 1.14009
67 2 7.54604 63.5235 0.94145
68 2 11.739 63.6322 1.25327
69 2 -0.0863025 67.5965 1.41159
70 2 3.85286 67.4636 1.29335
71 2 7.75067 67.6463 1.34087
72 2 11.688 67.5094 1.05157
73 2 15.6497 71.5379 1.24285
74 2 3.86589 71.7278 1.16715
75 2 7.74076 71.5192 1.0711
76 2 11.7967 71.5271 1.49069
77 2 -0.241419 75.4177 1.39104
78 2 3.90979 75.6112 1.49486
79 2 7.90544 75.6489 1.45992
80 2 11.7829 75.5661 1.42194
81 2 -0.132774 79.3239 1.50027
82 2 3.89505 79.5505 1.48199
83 2 7.85647 79.5618 1.52814
84 2 11.6299 79.4943 1.41096
85 2 -0.0744644 83.2399 1.30221
86 2 3.76344 83.3538 1.55915
87 2 7.89335 83.498 1.58566
88 2 11.7934 83.5202 1.6276
89 2 -0.0621141 87.4273 1.42791
90 2 3.84873 87.2034 1.43828
91 2 7.82439 87.3561 1.19249
92 2 11.9191 87.3181 1.39111
93 2 0.139885 91.2389 1.3618
94 2 3.95647 91.47 1.36259
95 2 7.87414 91.2604 1.22919
96 2 11.9399 91.2379 1.59827
97 2 0.0478563 95.1478 1.31263
98 2 3.96992 95.2584 1.39719
99 2 7.91455 95.3621 1.39812
100 2 12.1214 94.9957 1.28428
101 2 0.0415192 99.0859 1.33011
102 2 3.89901 99.1278 1.38187
103 2 7.90181 99.0964 1.20832
104 2 12.0327 99.2241 1.17028
105 2 15.8788 103.144 1.20636
106 2 3.91263 103.074 1.34603
107 2 8.04054 102.886 1.16336
108 2 12.1289 103.112 1.30033
109 2 15.8999 107.067 1.17007
110 2 4.14595 106.905 1.05029
111 2 8.09518 106.888 1.30437
112 2 11.8192 106.952 1.25465
113 2 0.00487608 110.903 1.08479
114 2 3.91408 110.939 1.09008
115 2 8.03594 110.872 0.875925
116 2 11.8218 111.035 1.1507
117 2 -0.0948964 114.741 1.11821
118 2 3.96739 114.811 1.01712
119 2 7.97572 114.786 1.04452
120 2 11.9506 114.633 1.12691
121 2 15.8653 118.674 1.12826
122 2 4.01974 118.578 0.827744
123 2 7.84022 118.685 1.12019
124 2 11.7925 118.617 160.493
125 2 0.138396 122.494 1.15148
126 2 4.2134 122.514 0.804305
127 2 7.87369 122.532 1.03632
128 2 11.7751 122.626 0.927581
129 2 -0.0885127 126.6 160.466
130 2 3.63935 126.797 160.406
131 2 7.92214 126.618 1.11934
132 2 11.727 126.549 1.08892
133 2 0.0462079 130.538 160.328
134 2 4.06588 130.475 160.293
135 2 7.91824 130.486 0.931488
136 2 11.9605 130.382 160.401
137 2 -0.277239 134.312 160.428
138 2 3.7432 134.202 160.42
139 2 7.76548 134.393 0.832329
140 2 11.7588 134.162 160.266
141 2 -0.1522 138.15 160.187
142 2 3.73132 138.167 160.241
143 2 7.81217 138.27 160.38
144 2 11.6634 138.237 0.814959
145 2 15.8092 142.246 160.339
146 2 3.86916 142.06 160.151
147 2 7.769 142.237 160.225
148 2 11.8713 142.279 160.395
149 2 -0.144001 146.055 160.117
150 2 3.85503 146.099 160.217
151 2 7.85791 146.152 160.101
152 2 11.7167 145.977 160.049
153 2 15.7268 150.023 160.06
154 2 3.98244 150.1 160.136
155 2 7.91318 150.042 160.022
156 2 11.706 150.136 160.122
157 2 15.6618 153.883 160.102
158 2 3.88831 153.98 160.061
159 2 7.7784 153.944 159.963
160 2 11.8463 153.805 160.103
161 2 15.7417 157.818 4.66583
162 2 3.83896 157.989 4.49073
163 2 7.84933 158.096 4.29786
164 2 11.8485 158.15 4.47887
165 2 15.6966 3.67815 4.54236
166 2 3.74627 3.56965 4.57802
167 2 7.74791 3.62659 4.52764
168 2 11.7489 3.57752 4.60097
169 2 15.8182 7.41665 4.55314
170 2 4.03078 7.4743 4.39933
171 2 7.94929 7.31114 4.54144
172 2 11.8666 7.48705 4.63108
173 2 15.9591 11.4459 4.4755
174 2 3.85137 11.4764 4.40888
175 2 7.80759 11.4574 4.1137
176 2 12.0997 11.5231 4.39081
177 2 15.872 15.3155 4.26935
178 2 3.84504 15.3758 4.41195
179 2 7.82428 15.1661 4.3333
180 2 11.8038 15.2363 4.18155
181 2 -0.0806948 19.1694 4.09799
182 2 4.03943 19.2037 4.23746
183 2 8.05031 19.158 4.17824
184 2 11.9619 19.1611 4.19762
185 2 15.8246 23.1319 4.21998
186 2 3.99275 23.1599 4.44883
187 2 8.02878 23.1107 4.1527
188 2 11.9731 23.2065 4.02826
189 2 15.8849 27.2493 4.35096
190 2 3.87536 27.201 4.51602
191 2 7.97879 27.0319 4.51219
192 2 11.8861 27.0428 4.31572
193 2 15.8332 31.1173 4.47165
194 2 3.87912 31.2325 4.422
195 2 8.0139 30.9699 4.54552
196 2 11.9496 31.1951 4.28261
197 2 -0.219319 35.1649 4.5947
198 2 3.90964 35.3434 4.60813
199 2 7.8335 35.084 4.65269
200 2 11.8784 35.2196 4.36669
201 2 -0.265972 39.1631 4.55187
202 2 3.97135 39.272 4.34502
203 2 7.98753 39.3613 4.81408
204 2 11.6741 39.1588 4.64087
205 2 -0.089867 43.1657 4.76446
206 2 3.83994 43.2521 4.55465
207 2 7.98576 43.1809 4.58315
208 2 11.8905 43.2379 4.79196
209 2 15.7031 47.2398 4.76214
210 2 3.77855 47.3722 4.79704
211 2 7.87987 47.1716 5.11185
212 2 11.8699 47.3466 4.60692
213 2 -0.135382 51.2662 4.81035
214 2 3.96785 51.3619 4.75979
215 2 7.89026 51.1893 4.87212
216 2 11.8661 51.2773 4.8392
217 2 -0.054965 55.3347 4.7517
218 2 3.92512 55.2851 4.98149
219 2 7.63491 55.3363 4.8594
220 2 11.652 55.1888 4.7393
221 2 -0.0936135 59.4871 4.79688
222 2 3.92316 59.2683 4.89172
223 2 7.73305 59.6379 5.02137
224 2 11.7241 59.3704 4.98956
225 2 0.0765768 63.3765 5.18944
226 2 3.9237 63.3355 4.97213
227 2 7.873 63.2483 4.99559
228 2 11.8692 63.4204 5.15901
229 2 -0.135663 67.4191 5.07523
230 2 3.92908 67.3832 5.20697
231 2 7.73253 67.4309 5.06439
232 2 11.8733 67.4639 5.17892
233 2 -0.334524 71.4242 5.28264
234 2 3.72469 71.4636 5.3368
235 2 7.60326 71.546 5.23966
236 2 11.5871 71.578 5.28249
237 2 -0.0643533 75.451 5.19198
238 2 3.79093 75.4774 5.43976
239 2 7.61468 75.5498 5.47815
240 2 11.7892 75.6302 5.26202
241 2 -0.015883 79.4491 5.39477
242 2 3.97786 79.4402 5.46646
243 2 7.84332 79.5226 5.43373
244 2 11.893 79.5745 5.58146
245 2 15.8426 83.5324 5.4789
246 2 3.8868 83.5454 5.39249
247 2 7.89221 83.556 5.5615
248 2 11.8304 83.563 5.4705
249 2 0.0338128 87.3835 5.52869
250 2 4.02259 87.2385 5.34113
251 2 7.85568 87.5805 5.25517
252 2 11.8696 87.3437 5.53023
253 2 0.192552 91.3039 5.48014
254 2 4.00122 91.4274 5.51045
255 2 8.07837 91.2759 5.40146
256 2 11.935 91.2827 5.39416
257 2 0.163141 95.1553 5.30309
258 2 4.08003 95.1704 5.39091
259 2 7.96245 95.3263 5.38994
260 2 11.8549 95.0874 5.37966
261 2 0.0801285 99.2236 5.37697
262 2 3.88317 99.0567 5.27274
263 2 7.90348 99.1683 5.25313
264 2 11.7999 99.0801 5.4395
265 2 15.841 103.084 5.1166
266 2 4.25844 103.097 5.21996
267 2 7.95306 103.081 5.32199
268 2 12.0144 102.973 5.31329
269 2 -0.0220527 106.833 5.34101
270 2 4.17922 106.834 5.03916
271 2 7.99596 107.059 5.21922
272 2 11.8997 106.947 5.04855
273 2 0.0545652 110.769 5.10737
274 2 3.99405 110.792 5.26497
275 2 8.07872 110.918 5.07369
276 2 11.8895 110.861 5.2235
277 2 15.9186 114.565 5.25166
278 2 4.00439 114.704 5.14563
279 2 7.73333 114.8 5.2335
280 2 12.1363 114.736 4.91426
281 2 16.0908 118.62 4.95227
282 2 3.97307 118.595 5.21585
283 2 7.93199 118.649 5.13534
284 2 11.9199 118.434 5.12859
285 2 15.9203 122.663 4.97517
286 2 3.99011 122.603 4.97958
287 2 8.02089 122.516 5.1534
288 2 11.7885 122.607 4.94009
289 2 0.276554 126.5 5.03493
290 2 4.22458 126.488 5.10464
291 2 8.0185 126.549 5.11489
292 2 12.0049 126.503 5.04973
293 2 -0.166671 130.472 4.9454
294 2 3.91148 130.415 4.96526
295 2 8.00808 130.346 5.02097
296 2 11.8623 130.396 5.10237
297 2 0.119994 134.458 4.98867
298 2 3.99319 134.542 5.03274
299 2 7.80455 134.462 5.00298
300 2 11.7581 134.563 4.95705
301 2 15.5335 138.389 4.67908
302 2 3.79879 138.351 4.79948
303 2 7.77913 138.345 5.0134
304 2 11.6167 138.348 4.76718
305 2 -0.146128 142.249 4.71526
306 2 3.84508 142.242 4.98019
307 2 7.7801 142.183 4.90389
308 2 11.6804 142.428 4.93866
309 2 15.6809 146.134 4.61556
310 2 3.64127 146.225 4.81024
311 2 7.6333 146.092 4.78569
312 2 11.6609 146.319 4.88035
313 2 -0.146085 149.921 4.85338
314 2 3.80558 150.15 4.58038
315 2 7.76444 149.892 4.73979
316 2 11.8663 149.998 4.69454
317 2 15.7784 153.882 4.63245
318 2 3.82697 154.268 4.72906
319 2 7.75178 153.945 4.63008
320 2 11.9492 154.161 4.78624
321 2 15.8219 158.249 8.43522
322 2 3.84133 157.926 8.72317
323 2 7.77578 157.989 8.61157
324 2 11.9116 157.93 8.7518
325 2 15.7335 3.52715 8.61964
326 2 3.95505 3.58458 8.64492
327 2 7.73943 3.51572 8.54739
328 2 11.6529 3.46181 8.56221
329 2 -0.177266 7.44942 8.4151
330 2 3.87502 7.41546 8.37501
331 2 7.81732 7.4949 8.46006
332 2 11.6783 7.69667 8.56186
333 2 15.7238 11.6359 8.38023
334 2 3.73536 11.3674 8.33818
335 2 7.62451 11.5298 8.27485
336 2 11.7461 11.5236 8.14363
337 2 -0.00127381 15.4612 8.53595
338 2 4.00041 15.3786 8.3587
339 2 7.83433 15.4301 8.33187
340 2 11.7215 15.2495 8.15284
341 2 0.0773181 19.0598 8.28557
342 2 3.94261 19.3691 8.49798
343 2 8.03265 19.2052 8.2177
344 2 11.8112 19.0091 8.0106
345 2 0.130533 23.11 8.09943
346 2 4.01333 23.0311 8.27223
347 2 8.05211 23.0453 8.14442
348 2 12.0893 23.0293 8.32361
349 2 15.9233 27.2178 8.35968
350 2 3.97308 26.9646 8.33976
351 2 7.90216 27.0097 8.16291
352 2 12.0056 27.1596 8.23159
353 2 15.8305 31.1271 8.35863
354 2 4.0202 31.1548 8.46916
355 2 7.85913 31.0689 8.17268
356 2 12.0497 31.0411 8.33606
357 2 15.9424 35.1184 8.43116
358 2 4.01088 35.1172 8.43557
359 2 8.0956 35.0534 8.41674
360 2 11.8565 35.241 8.53438
361 2 15.763 39.0931 8.62308
362 2 3.84298 39.2879 8.27314
363 2 7.67003 39.4006 8.4948
364 2 11.7549 39.0346 8.56638
365 2 15.8685 43.085 8.3633
366 2 3.8128 43.1755 8.29696
367 2 7.8792 43.2675 8.57816
368 2 11.8893 43.1043 8.62668
369 2 -0.0887134 47.3117 8.63924
370 2 3.89084 47.3886 8.52577
371 2 8.03805 47.226 8.69915
372 2 11.9101 47.1735 8.67942
373 2 -0.097555 51.0218 8.72519
374 2 3.77653 51.2005 8.74654
375 2 7.74317 51.3851 8.83106
376 2 11.4981 51.2367 8.66538
377 2 -0.202771 55.2904 8.60335
378 2 3.78017 55.2088 8.8584
379 2 7.86535 55.2474 8.94565
380 2 11.61 55.2366 8.59792
381 2 15.8292 59.1117 8.81444
382 2 3.93061 59.3241 8.94567
383 2 7.94411 59.2094 8.96545
384 2 11.9015 59.1431 8.71923
385 2 -0.0984599 63.3406 8.85303
386 2 4.00235 63.3808 9.0435
387 2 7.89598 63.2959 8.85681
388 2 11.8801 63.3317 8.86474
389 2 -0.0859465 67.3276 8.93016
390 2 3.98265 67.3354 9.04918
391 2 8.01065 67.3761 8.88813
392 2 11.7618 67.2141 9.04812
393 2 -0.00629142 71.4026 9.18634
394 2 3.86412 71.2474 9.17313
395 2 7.95442 71.3471 9.15485
396 2 11.5549 71.3305 9.28594
397 2 -0.274253 75.3618 9.15972
398 2 3.79794 75.3849 9.28125
399 2 7.7663 75.4119 9.27247
400 2 11.7114 75.2272 9.16758
401 2 0.137907 79.473 9.46616
402 2 3.8349 79.5585 9.38075
403 2 7.90411 79.476 9.23968
404 2 12.0072 79.1808 9.39806
405 2 0.141854 83.5455 9.41741
406 2 3.81291 83.6374 9.34418
407 2 7.90958 83.4773 9.47042
408 2 11.8856 83.5318 9.39286
409 2 0.00101323 87.4821 9.50442
410 2 4.06299 87.4781 9.50464
411 2 8.03298 87.4127 9.57492
412 2 11.8254 87.4501 9.4285
413 2 -0.0220621 91.3559 9.31659
414 2 4.04983 91.4517 9.48706
415 2 7.84892 91.3211 9.23556
416 2 11.8407 91.3179 9.45672
417 2 0.0547846 95.269 9.39135
418 2 3.98976 95.2969 9.19712
419 2 7.98726 95.2664 9.33886
420 2 11.8564 95.2203 9.43637
421 2 15.8825 99.2579 9.52578
422 2 3.88742 99.0756 9.32157
423 2 8.05251 99.3465 9.40583
424 2 11.928 99.0939 9.40597
425 2 0.0171551 102.957 9.203
426 2 3.99725 103.078 9.16657
427 2 7.90282 103.206 9.32746
428 2 11.8626 102.971 9.36895
429 2 15.8877 106.88 8.99691
430 2 4.02469 107.115 9.079
431 2 7.90754 106.976 9.13395
432 2 11.9666 106.947 9.09771
433 2 0.148895 110.945 9.2433
434 2 4.08109 110.999 9.26231
435 2 8.02077 110.802 9.24847
436 2 12.042 110.967 9.32925
437 2 0.0333552 114.941 9.28466
438 2 3.98543 114.923 9.21139
439 2 8.0182 114.667 8.96084
440 2 12.185 114.887 9.04013
441 2 0.070853 118.703 9.11339
442 2 3.9875 118.879 9.13011
443 2 8.021 118.757 9.06589
444 2 11.9798 118.779 8.96475
445 2 15.8443 122.763 9.06167
446 2 3.92379 122.743 9.14679
447 2 7.9894 122.732 9.12667
448 2 11.9231 122.549 9.23098
449 2 0.151412 126.783 9.00582
450 2 4.09507 126.568 8.99103
451 2 8.09416 126.606 9.05153
452 2 11.9476 126.453 8.89549
453 2 -0.00535665 130.454 8.88448
454 2 4.07855 130.571 8.8961
455 2 7.96884 130.319 8.94655
456 2 11.9009 130.571 9.00962
457 2 -0.023963 134.331 8.91461
458 2 3.98282 134.475 9.03456
459 2 8.11221 134.434 8.88823
460 2 11.8549 134.339 8.9517
461 2 -0.0483314 138.345 8.90389
462 2 3.68797 138.337 8.85702
463 2 7.88387 138.409 8.87617
464 2 11.7368 138.416 8.94428
465 2 -0.0797727 142.181 8.83166
466 2 3.87395 142.293 8.8009
467 2 7.87193 142.529 8.91346
468 2 11.8394 142.229 9.13221
469 2 15.7458 146.157 8.85375
470 2 3.87752 146.211 8.84281
471 2 7.73139 146.258 8.847
472 2 11.8018 146.164 8.99946
473 2 15.8354 150.143 8.78977
474 2 3.94588 150.104 8.78766
475 2 7.90539 150.127 8.65631
476 2 11.889 150.029 8.82594
477 2 15.7986 154.001 8.6025
478 2 3.89984 153.875 8.50436
479 2 7.90771 154.094 8.55802
480 2 11.7751 154.088 8.65
481 2 15.8868 157.997 12.7321
482 2 3.89895 157.82 12.7433
483 2 7.92949 157.854 12.6354
484 2 11.7122 157.848 12.6837
485 2 15.7055 3.57633 12.6313
486 2 3.86813 3.73421 12.5492
487 2 7.87451 3.60817 12.6703
488 2 11.8072 3.39889 12.6562
489 2 -0.220352 7.60264 12.5216
490 2 3.96986 7.56525 12.4952
491 2 7.81615 7.5286 12.5202
492 2 11.6181 7.50227 12.5172
493 2 15.5061 11.4761 12.3757
494 2 4.09483 11.4131 12.3872
495 2 7.96656 11.4629 12.4225
496 2 11.7073 11.4282 12.3623
497 2 0.0862415 15.2933 12.4483
498 2 3.99132 15.3667 12.4597
499 2 7.96701 15.4318 12.331
500 2 11.7648 15.3565 12.3733
501 2 15.8866 19.3448 12.2584
502 2 4.08862 19.3355 12.4115
503 2 7.97145 19.4208 12.3135
504 2 12.0079 19.1822 12.4327
505 2 15.8756 23.18 12.2853
506 2 4.15352 23.2223 12.3215
507 2 8.23423 23.3108 12.084
508 2 12.1252 23.1691 12.3431
509 2 16.1187 26.9023 12.2236
510 2 4.24753 27.0003 12.1973
511 2 8.07584 27.101 12.0149
512 2 11.8383 27.0904 12.0541
513 2 0.0371651 31.1423 12.2218
514 2 4.01087 31.0528 12.4075
515 2 7.83908 31.0216 12.0413
516 2 11.7974 31.0996 12.2371
517 2 15.7932 35.2921 12.4805
518 2 3.96257 34.9905 12.3654
519 2 7.85203 35.0447 12.3271
520 2 11.9285 35.18 12.3079
521 2 15.8304 39.144 12.298
522 2 3.9597 39.0868 12.3037
523 2 7.78792 39.0529 12.495
524 2 11.7772 39.2641 12.3305
525 2 15.682 43.0244 12.27
526 2 3.67935 43.167 12.2213
527 2 7.58738 43.1623 12.3934
528 2 11.6545 43.07 12.5953
529 2 15.6924 47.0889 12.4251
530 2 3.7515 47.0003 12.5205
531 2 7.86406 47.1704 12.4776
532 2 11.7533 47.063 12.6204
533 2 -0.279851 51.2372 12.5445
534 2 3.89929 51.1401 12.6917
535 2 7.75663 51.2574 12.6849
536 2 11.7189 51.4026 12.7481
537 2 0.0283405 55.1141 12.5102
538 2 3.93849 55.1088 12.6826
539 2 7.61469 55.1578 12.7388
540 2 12.1114 55.1569 12.7259
541 2 0.211425 59.2752 12.8147
542 2 3.93626 59.2523 12.8103
543 2 7.667 59.1819 12.7436
544 2 12.1299 59.2871 12.9472
545 2 -0.149166 63.2421 12.6961
546 2 3.99013 63.2042 12.7923
547 2 7.92537 63.2536 12.7721
548 2 11.7554 63.2953 12.6344
549 2 0.186032 67.3021 13.1224
550 2 3.90641 67.0824 12.911
551 2 7.997 67.1874 13.0404
552 2 11.8101 67.1175 13.0985
553 2 -0.0431976 71.1907 13.038
554 2 3.80715 71.2424 13.1669
555 2 7.84856 71.1611 13.0608
556 2 11.7254 71.2287 13.0298
557 2 -0.0959021 75.2773 13.3868
558 2 3.87049 75.1963 13.1768
559 2 7.88171 75.239 13.1593
560 2 11.7343 75.4144 13.0235
561 2 0.0863982 79.2135 13.2823
562 2 3.91066 79.2997 13.2336
563 2 8.00758 79.2712 13.1695
564 2 11.9851 79.6357 13.132
565 2 -0.0837678 83.452 13.3276
566 2 3.90885 83.44 13.2881
567 2 7.85643 83.2355 13.2585
568 2 11.9546 83.5162 13.4346
569 2 0.018383 87.6105 13.5028
570 2 3.97543 87.4399 13.4164
571 2 7.78868 87.4972 13.4158
572 2 11.8422 87.3213 13.3512
573 2 -0.0054613 91.5564 13.4322
574 2 4.0742 91.5213 13.5249
575 2 7.9322 91.1885 13.5873
576 2 11.9503 91.1899 13.4543
577 2 0.141654 95.3567 13.4692
578 2 3.86994 95.3636 13.3417
579 2 7.97314 95.3487 13.3685
580 2 12.0246 95.3321 13.3999
581 2 0.250357 99.1144 13.4921
582 2 4.09072 99.1796 13.5032
583 2 7.90501 99.2262 13.2858
584 2 11.9791 99.2694 13.521
585 2 -0.0677659 103.109 13.3356
586 2 4.0821 103.083 13.3167
587 2 7.76465 103.269 13.1753
588 2 11.9425 103.106 13.5079
589 2 15.7325 106.81 13.1094
590 2 3.85134 107.052 13.1367
591 2 8.05356 106.935 13.2077
592 2 11.9587 107.068 13.2354
593 2 0.00344331 110.918 13.1947
594 2 4.00842 110.739 13.1414
595 2 7.9784 111.048 13.2793
596 2 12.098 110.912 13.2726
597 2 15.9198 115.084 13.1839
598 2 3.982 114.778 13.3028
599 2 7.92461 114.922 13.2679
600 2 11.8383 114.967 13.0486
601 2 15.8899 118.937 13.1508
602 2 4.00044 118.877 13.0174
603 2 7.9815 118.828 13.112
604 2 11.7494 118.977 13.0349
605 2 -0.0830622 122.812 13.1657
606 2 3.99875 122.797 13.1333
607 2 7.99641 122.748 13.0471
608 2 11.9954 122.676 13.0791
609 2 15.7174 126.667 13.1892
610 2 3.8987 126.764 13.0327
611 2 7.83989 126.764 13.029
612 2 11.9599 126.68 12.924
613 2 15.7518 130.599 13.0848
614 2 4.07177 130.451 13.1041
615 2 8.05715 130.631 12.9196
616 2 11.8574 130.524 13.0124
617 2 -0.164905 134.657 12.8463
618 2 3.99118 134.26 12.8459
619 2 8.01848 134.351 12.9649
620 2 11.8972 134.527 12.9116
621 2 -0.105238 138.459 12.9498
622 2 3.83441 138.284 12.9149
623 2 7.75585 138.462 12.8313
624 2 11.7889 138.506 12.9812
625 2 15.9546 142.399 12.9004
626 2 4.0254 142.376 12.8695
627 2 7.76942 142.375 12.9909
628 2 11.8897 142.513 12.8642
629 2 -0.00688846 146.221 12.8987
630 2 3.73574 146.349 12.8011
631 2 7.88703 146.367 12.7899
632 2 11.8812 146.185 12.8647
633 2 15.8718 150.124 12.8329
634 2 3.92453 150.196 12.7942
635 2 7.65137 150.449 12.7647
636 2 11.7591 150.035 12.6558
637 2 15.9194 154.004 12.6543
638 2 4.06065 154.026 12.7313
639 2 7.82801 153.973 12.5654
640 2 11.7914 153.889 12.5787
641 2 15.8408 157.855 16.775
642 2 3.96397 158.259 16.5293
643 2 7.98778 158.065 16.6487
644 2 11.8185 157.802 16.6196
645 2 15.6793 3.70664 16.6439
646 2 3.92178 3.60676 16.63
647 2 7.93629 3.4038 16.5035
648 2 11.8373 3.49456 16.419
649 2 -0.0593121 7.36541 16.5529
650 2 3.9279 7.50575 16.6101
651 2 7.81516 7.57999 16.6222
652 2 11.7595 7.57187 16.4493
653 2 15.7112 11.3784 16.3095
654 2 3.79848 11.4636 16.4611
655 2 7.93978 11.4109 16.4731
656 2 11.8159 11.5935 16.3244
657 2 -0.142424 15.4108 16.2934
658 2 3.91684 15.4076 16.3876
659 2 7.9244 15.3516 16.4347
660 2 11.8101 15.2067 16.2635
661 2 16.0376 19.3053 16.2481
662 2 4.21836 19.3884 16.3307
663 2 7.93404 19.2003 16.3815
664 2 11.8164 19.2938 16.5129
665 2 15.9637 23.0926 16.272
666 2 4.03022 23.3258 16.379
667 2 8.08111 23.1392 16.2092
668 2 11.9355 23.2334 16.1525
669 2 0.206467 27.1731 16.3432
670 2 4.09858 27.0073 16.1747
671 2 8.08506 27.2681 16.4599
672 2 12.0234 27.243 16.2565
673 2 15.8555 30.9169 16.1619
674 2 4.17064 31.1525 16.2209
675 2 8.13747 31.0916 16.3335
676 2 12.0609 31.0371 16.1195
677 2 15.9993 35.0049 16.2219
678 2 3.92089 35.1154 16.3749
679 2 7.9182 35.0422 16.193
680 2 11.9583 35.0265 16.3236
681 2 0.134037 38.9547 16.1616
682 2 4.03835 39.1293 16.3254
683 2 7.97948 39.0644 16.268
684 2 11.9739 38.9728 16.4218
685 2 15.7534 43.0929 16.2111
686 2 3.83658 43.0219 16.283
687 2 7.72863 42.98 16.4726
688 2 11.7773 43.1392 16.3119
689 2 -0.0863802 47.0564 16.3385
690 2 3.87273 47.1232 16.2843
691 2 7.5677 47.0579 16.4056
692 2 11.5017 47.0035 16.4053
693 2 15.6961 51.181 16.5467
694 2 3.94609 51.0227 16.6074
695 2 7.79973 51.0782 16.5981
696 2 11.8876 51.1464 16.5396
697 2 -0.162984 55.2048 16.5439
698 2 3.72388 55.3022 16.6591
699 2 7.75609 55.0002 16.6152
700 2 11.8263 55.2429 16.4516
701 2 -0.0897486 59.2013 16.7004
702 2 3.64432 59.2767 16.5759
703 2 7.88792 59.2009 16.6838
704 2 11.6836 59.035 16.5856
705 2 -0.233165 63.1493 16.8332
706 2 3.83653 63.3865 16.8971
707 2 7.79833 62.9865 16.9024
708 2 11.7097 63.0388 16.7412
709 2 -0.0308183 67.1123 16.866
710 2 3.8479 67.1996 17.0822
711 2 7.99488 67.0645 16.9634
712 2 11.8078 67.0412 17.024
713 2 -0.254213 71.0996 16.8914
714 2 4.0844 71.0837 16.7548
715 2 7.9093 71.1701 17.0179
716 2 11.7661 71.0037 17.0904
717 2 -0.118252 75.0567 17.1451
718 2 3.84474 75.1737 17.0927
719 2 7.85832 75.091 16.9762
720 2 11.6717 75.1417 17.0572
721 2 -0.175463 79.2307 17.2373
722 2 4.07418 79.3097 17.0642
723 2 7.78476 79.2366 17.0094
724 2 11.842 79.3236 17.0712
725 2 -0.086883 83.6275 17.197
726 2 4.02229 83.4705 17.1675
727 2 8.08497 83.373 17.2015
728 2 11.9766 83.3176 17.3577
729 2 0.129139 87.5037 17.4469
730 2 3.99936 87.2887 17.1781
731 2 7.96656 87.4122 17.3781
732 2 12.1141 87.3001 17.2902
733 2 -0.0528677 91.3569 17.3831
734 2 4.09806 91.4028 17.2998
735 2 8.11602 91.5136 17.4929
736 2 11.9415 91.2537 17.4799
737 2 0.00378284 95.3302 17.3359
738 2 4.25507 95.5294 17.4087
739 2 8.11143 95.3458 17.3548
740 2 11.9859 95.3211 17.361
741 2 15.9975 99.4296 17.563
742 2 4.00189 99.6261 17.4852
743 2 7.86848 99.1997 17.4288
744 2 11.9712 99.051 17.5464
745 2 15.9022 103.058 17.3484
746 2 4.10401 103.361 17.2346
747 2 7.88541 103.301 17.2583
748 2 12.0379 103.207 17.3001
749 2 15.8854 107.095 17.428
750 2 4.05047 107.204 17.3081
751 2 8.07953 107.255 17.3142
752 2 12.0124 107.068 17.3074
753 2 0.016638 111.167 17.2195
754 2 4.01714 110.799 17.1221
755 2 7.9289 111.046 17.0779
756 2 12.0147 110.944 17.277
757 2 0.142183 114.921 17.3587
758 2 4.16503 114.835 17.1075
759 2 7.88743 114.903 17.3062
760 2 11.9862 114.834 17.0338
761 2 0.0378512 118.793 17.3373
762 2 3.98388 118.667 17.2305
763 2 7.90881 118.792 17.0368
764 2 11.8351 118.937 17.2091
765 2 0.226629 122.618 17.1687
766 2 4.14621 122.738 17.2012
767 2 8.13076 122.738 17.1893
768 2 12.0922 122.751 17.0447
769 2 0.141827 126.396 17.0986
770 2 4.01366 126.644 17.1624
771 2 8.00042 126.604 16.894
772 2 12.1421 126.728 17.1075
773 2 0.127036 130.773 17.0449
774 2 3.86932 130.496 17.2191
775 2 7.87256 130.741 16.9741
776 2 12.0304 130.724 16.9673
777 2 0.0505894 134.693 16.9151
778 2 3.78191 134.465 17.0295
779 2 7.61178 134.398 16.8358
780 2 11.674 134.666 16.9296
781 2 15.7317 138.619 17.0528
782 2 3.58987 138.527 16.8369
783 2 7.76795 138.562 16.8475
784 2 11.7119 138.49 16.9527
785 2 15.8609 142.428 17.0191
786 2 3.88514 142.34 17.1528
787 2 7.72733 142.364 17.0229
788 2 11.7281 142.313 16.8079
789 2 15.8861 146.324 16.9876
790 2 3.86501 146.153 16.7915
791 2 8.02064 146.323 16.7361
792 2 11.838 146.215 16.8962
793 2 15.8735 150.145 16.8416
794 2 3.97374 150.34 16.8843
795 2 7.85047 150.138 16.8967
796 2 11.9039 150.266 16.6951
797 2 -0.0968854 154.071 16.6953
798 2 3.81809 154.137 16.6516
799 2 7.82035 154.205 16.7586
800 2 11.8963 154.061 16.7436
801 2 -0.131787 158.276 20.7556
802 2 3.8976 158.212 20.6477
803 2 7.85825 158.144 20.6736
804 2 11.7541 158.275 20.7625
805 2 15.9037 3.73562 20.7861
806 2 3.99566 3.706 20.6315
807 2 7.75955 3.73048 20.6771
808 2 11.7779 3.72086 20.7083
809 2 0.124051 7.60376 20.6969
810 2 4.02846 7.68676 20.4005
811 2 7.89478 7.52797 20.3508
812 2 11.8846 7.60199 20.6436
813 2 15.6783 11.4826 20.5096
814 2 3.87912 11.6011 20.4074
815 2 7.78887 11.4572 20.4809
816 2 11.8815 11.5361 20.577
817 2 15.6805 15.5686 20.2664
818 2 3.74535 15.2561 20.3798
819 2 7.79248 15.3295 20.3799
820 2 11.9422 15.4121 20.1971
821 2 15.7825 19.3058 20.5266
822 2 4.00988 19.281 20.3803
823 2 7.90033 19.3723 20.4713
824 2 11.6808 19.3681 20.6248
825 2 15.8697 23.3553 20.2973
826 2 4.0873 23.1126 20.4745
827 2 7.87936 23.2933 20.4024
828 2 11.9006 23.2367 20.1447
829 2 0.258206 27.1244 20.2885
830 2 4.06894 27.2939 20.4021
831 2 7.96413 27.0824 20.3056
832 2 12.0984 27.0594 20.1534
833 2 -0.0591222 30.9395 20.1886
834 2 4.08579 31.3183 20.2505
835 2 8.10674 31.1147 20.1905
836 2 11.8534 31.0791 20.186
837 2 15.9663 34.9353 20.1559
838 2 4.10049 35.0586 20.2745
839 2 8.07995 34.9857 20.0908
840 2 12.0089 35.1206 20.1316
841 2 0.0328564 39.0054 20.2894
842 2 3.97967 38.9393 20.255
843 2 7.86834 39.1356 20.2915
844 2 11.8093 39.0992 20.1803
845 2 -0.158238 43.0691 20.0133
846 2 3.75485 43.0296 20.1544
847 2 7.58603 42.9402 20.2789
848 2 11.6261 43.0822 20.2156
849 2 -0.127519 47.0398 20.2446
850 2 3.7592 46.9964 20.5148
851 2 7.5302 47.098 20.216
852 2 11.6092 47.1744 20.2268
853 2 -0.312155 51.2497 20.2096
854 2 3.80541 51.0624 20.3352
855 2 7.82455 51.1955 20.4523
856 2 11.8139 51.0788 20.4577
857 2 0.0781213 55.0466 20.8261
858 2 4.06266 55.1172 20.3827
859 2 7.99917 55.0363 20.4313
860 2 11.939 55.1291 20.5489
861 2 15.6841 59.074 20.6891
862 2 3.74524 59.1957 20.4768
863 2 7.79966 59.066 20.5137
864 2 11.7263 59.1421 20.6193
865 2 15.6594 62.9251 20.8005
866 2 3.89789 63.2028 20.8041
867 2 8.01824 62.9206 20.679
868 2 11.8419 63.0429 20.6795
869 2 0.0377425 67.2058 20.932
870 2 3.90182 67.1492 20.8569
871 2 7.92971 67.004 20.9106
872 2 11.7872 67.1402 20.8911
873 2 -0.279889 71.0225 20.7588
874 2 3.89414 71.2649 20.8878
875 2 7.90269 71.1163 21.0884
876 2 11.5708 70.9803 20.9518
877 2 -0.271942 75.1135 20.9495
878 2 3.75703 75.1511 20.95
879 2 7.70925 75.0564 20.7762
880 2 11.5805 75.19 21.0908
881 2 -0.16796 79.1661 20.9936
882 2 3.81685 79.2365 20.9845
883 2 7.73376 79.1433 20.915
884 2 11.8147 79.224 20.9717
885 2 0.0790087 83.3825 21.2493
886 2 3.95397 83.1066 21.1309
887 2 7.95444 83.18 21.0591
888 2 11.8522 83.1404 21.1814
889 2 0.119199 87.4824 21.287
890 2 4.19576 87.4339 20.9901
891 2 8.07783 87.1967 21.3291
892 2 12.086 87.3981 21.1629
893 2 0.283471 91.4252 21.3871
894 2 4.06516 91.3474 21.3717
895 2 7.81146 91.2747 21.174
896 2 11.849 91.3353 21.4844
897 2 15.832 95.2754 21.4495
898 2 4.03371 95.3757 21.2918
899 2 7.89444 95.3234 21.405
900 2 11.7384 95.3778 21.3522
901 2 -0.0437279 99.2729 21.5398
902 2 3.83576 99.2595 21.4427
903 2 8.15008 99.3397 21.3867
904 2 12.0611 99.2397 21.3436
905 2 16.151 103.199 21.3665
906 2 4.2354 103.229 21.3923
907 2 8.02416 103.237 21.4678
908 2 11.868 103.24 21.4294
909 2 0.169204 107.095 21.2119
910 2 4.02204 107.081 21.2431
911 2 8.1174 107.155 21.4863
912 2 12.0559 107.088 21.3016
913 2 15.7947 111.085 21.1562
914 2 4.05529 111.116 21.3675
915 2 8.00845 111.137 21.5115
916 2 11.9537 111.169 21.4097
917 2 0.146414 115.064 21.2401
918 2 4.04275 114.796 21.4196
919 2 7.92765 114.878 21.1512
920 2 11.7526 115.095 21.2286
921 2 0.0634346 118.951 21.1295
922 2 4.09683 118.818 21.2795
923 2 7.86497 118.964 21.1371
924 2 11.861 118.91 21.1367
925 2 -0.0340061 122.853 21.1385
926 2 3.88207 122.874 21.2093
927 2 7.93176 122.949 21.1134
928 2 11.9117 122.899 21.1667
929 2 0.0585396 126.718 21.0763
930 2 4.16951 126.823 21.05
931 2 8.13971 126.591 21.1685
932 2 11.8755 126.791 21.0508
933 2 0.0828004 130.692 21.0602
934 2 3.9802 130.589 21.1362
935 2 8.0244 130.458 21.1125
936 2 11.896 130.578 21.1164
937 2 15.6649 134.577 20.8419
938 2 3.91469 134.636 20.9366
939 2 7.84922 134.649 20.9704
940 2 11.6891 134.554 21.033
941 2 15.7252 138.314 21.1407
942 2 3.8814 138.575 20.9638
943 2 7.81728 138.458 21.0014
944 2 11.7069 138.521 20.8764
945 2 15.7469 142.419 21.0413
946 2 3.8086 142.557 20.8896
947 2 7.66382 142.294 20.9157
948 2 11.5823 142.344 20.9646
949 2 -0.417759 146.403 20.8946
950 2 3.97683 146.445 20.9677
951 2 7.90696 146.205 20.7073
952 2 11.5696 146.206 20.7882
953 2 15.927 150.231 20.7069
954 2 3.99409 150.266 20.7426
955 2 7.86126 150.264 20.7315
956 2 11.8292 150.292 20.6471
957 2 0.102553 154.166 20.742
958 2 3.85181 154.306 20.6552
959 2 7.62218 154.18 20.7141
960 2 11.8127 154.354 20.6854
961 2 0.0946019 158.219 24.8624
962 2 4.01687 158.166 24.8799
963 2 7.94762 158.007 24.7971
964 2 11.8786 158.102 24.7688
965 2 15.8425 3.78017 24.6811
966 2 3.99728 3.88134 24.798
967 2 7.76109 3.8742 24.7601
968 2 11.6986 3.81146 24.7638
969 2 -0.199153 7.6501 24.5607
970 2 3.94407 7.70386 24.7528
971 2 7.96493 7.85712 24.543
972 2 11.7846 7.94396 24.6477
973 2 -0.093932 11.55 24.3946
974 2 3.82231 11.4919 24.5388
975 2 7.81382 11.7096 24.5392
976 2 11.6736 11.7483 24.566
977 2 -0.0163367 15.547 24.3467
978 2 3.73578 15.4552 24.2322
979 2 7.80567 15.479 24.6276
980 2 11.9458 15.4718 24.6198
981 2 15.8577 19.3086 24.3906
982 2 3.95832 19.4349 24.4094
983 2 7.94194 19.2563 24.4259
984 2 11.7882 19.431 24.3894
985 2 -0.0649261 23.1887 24.4652
986 2 4.00359 23.3125 24.5232
987 2 7.9648 23.4711 24.4266
988 2 12.1918 23.1289 24.258
989 2 0.0923105 27.3405 24.3481
990 2 4.10171 27.3383 24.2663
991 2 8.07486 27.3231 24.337