ITEM: TIMESTEP
17800
ITEM: NUMBER OF ATOMS
32000
ITEM: BOX BOUNDS xy xz yz pp pp pp
0.0000000000000000e+00 1.5832000000000001e+01 0.0000000000000000e+00
0.0000000000000000e+00 1.5831999999999999e+02 0.0000000000000000e+00
7.7635000602892035e-01 1.6020076799396878e+02 0.0000000000000000e+00
ITEM: ATOMS id type x y z
1 2 -0.00408226 157.801 159.917
2 2 3.79484 157.651 159.799
3 2 7.83817 157.923 159.877
4 2 11.7464 157.989 160.013
5 2 15.6501 3.65044 159.893
6 2 3.80306 3.41096 159.769
7 2 7.7214 3.46573 159.879
8 2 11.7624 3.44613 159.864
9 2 -0.166374 7.49456 159.801
10 2 3.84223 7.37807 159.913
11 2 7.81918 7.4127 159.865
12 2 11.8087 7.41001 159.755
13 2 0.00183711 11.3869 159.817
14 2 3.88265 11.3362 159.765
15 2 7.7863 11.369 159.694
16 2 11.7405 11.4423 159.6
17 2 15.6409 15.0635 159.499
18 2 3.89375 15.0997 159.765
19 2 7.75975 15.1742 159.618
20 2 12.0045 15.1856 159.494
21 2 0.211439 19.1287 159.647
22 2 4.07944 19.1505 159.744
23 2 7.70627 19.2301 159.759
24 2 11.8736 19.2623 159.759
25 2 15.8328 23.1647 0.248935
26 2 3.80251 23.0107 159.684
27 2 7.97534 23.1448 159.896
28 2 11.7311 23.3061 159.637
29 2 15.6873 27.2175 159.977
30 2 3.99487 27.2513 159.695
31 2 8.01737 27.2144 159.983
32 2 12.0147 27.1353 160.121
33 2 15.933 31.3574 160.06
34 2 3.95599 31.2867 159.954
35 2 7.96939 31.194 160.033
36 2 11.7888 31.1349 0.41151
37 2 15.8088 35.1976 160.067
38 2 3.89263 35.3345 0.645951
39 2 7.79915 35.2097 160.012
40 2 11.9947 35.4091 0.614161
41 2 0.0279609 39.2902 160.146
42 2 4.0197 39.152 0.671687
43 2 7.98384 39.1403 0.649208
44 2 11.9201 39.3913 160.093
45 2 0.0956056 43.2521 0.612743
46 2 3.6973 43.1527 0.708428
47 2 7.82235 43.2354 0.588433
48 2 11.7188 43.4548 0.747011
49 2 15.871 47.2895 0.956128
50 2 3.77029 47.2716 0.96297
51 2 7.8155 47.4511 0.877779
52 2 11.8715 47.3784 0.665148
53 2 -0.197918 51.4378 0.865621
54 2 3.92744 51.2831 0.731209
55 2 7.72539 51.4419 1.18856
56 2 11.7703 51.2691 160.374
57 2 -0.277911 55.3182 0.937154
58 2 3.69227 55.4869 0.85078
59 2 7.70977 55.4616 0.969546
60 2 11.629 55.3708 0.929503
61 2 -0.285029 59.2221 1.03533
62 2 3.88673 59.3899 0.953682
63 2 7.91437 59.4201 0.898938
64 2 11.8709 59.3753 0.932746
65 2 -0.116506 63.5156 1.30437
66 2 3.85085 63.4997 0.990288
67 2 8.03529 63.4018 1.18787
68 2 11.6707 63.2997 1.12117
69 2 -0.138471 67.3472 1.14291
70 2 3.7059 67.5611 1.08228
71 2 7.72903 67.4545 1.27409
72 2 11.7275 67.3486 1.45968
73 2 15.7547 71.3549 1.25129
74 2 3.76369 71.6067 1.41898
75 2 7.65311 71.543 1.46791
76 2 11.6771 71.4725 1.24447
77 2 -0.0730827 75.5729 1.29049
78 2 3.81965 75.4837 1.59276
79 2 7.77224 75.5921 1.57574
80 2 11.8345 75.7345 1.67628
81 2 -0.0248374 79.5115 1.51034
82 2 3.83346 79.4057 1.53209
83 2 7.83231 79.501 1.40966
84 2 11.7614 79.6298 1.62827
85 2 0.081441 83.2914 1.62447
86 2 4.22605 83.3031 1.40275
87 2 7.89469 83.4168 1.48427
88 2 11.8913 83.3595 1.46923
89 2 0.000955589 87.191 1.47425
90 2 3.86592 87.5019 1.45492
91 2 7.86694 87.3992 1.70542
92 2 11.7847 87.3278 1.40792
93 2 -0.106051 91.3891 1.41739
94 2 3.9104 91.1989 1.35641
95 2 7.96551 91.2438 1.54519
96 2 11.8698 91.33 1.12996
97 2 0.133653 95.2109 1.3901
98 2 3.96429 95.0805 1.28174
99 2 7.91785 94.954 1.43025
100 2 11.9082 95.2298 1.43817
101 2 0.10775 99.0639 1.19358
102 2 4.0836 99.1236 1.23362
103 2 7.90293 98.9287 1.30894
104 2 11.8723 98.9915 1.28362
105 2 15.8807 103.009 1.17297
106 2 4.09885 103.037 1.06254
107 2 7.87479 102.886 1.28281
108 2 11.7639 102.998 1.12461
109 2 16.0295 106.858 1.05641
110 2 4.0856 107.079 1.22025
111 2 7.97512 106.941 1.10289
112 2 12.0144 106.818 1.12217
113 2 0.0349994 110.761 1.19998
114 2 4.13263 110.848 1.21107
115 2 7.91631 110.832 1.39247
116 2 12.2205 110.647 1.07771
117 2 0.0220194 114.928 1.02129
118 2 3.87772 114.838 1.02724
119 2 7.90447 114.623 1.05593
120 2 11.9123 114.869 1.01105
121 2 15.7446 118.764 1.05802
122 2 3.89064 118.733 1.11012
123 2 7.79763 118.572 1.11653
124 2 11.8041 118.721 160.586
125 2 -0.019108 122.726 1.00343
126 2 3.79292 122.74 1.21368
127 2 7.81151 122.593 1.13415
128 2 12.0373 122.625 1.12612
129 2 0.143773 126.521 160.488
130 2 4.28163 126.446 160.321
131 2 7.95492 126.442 1.01561
132 2 11.9244 126.43 0.988821
133 2 0.0986733 130.334 160.392
134 2 3.92814 130.618 160.331
135 2 7.95946 130.445 0.983035
136 2 11.9102 130.573 160.129
137 2 0.0244191 134.309 160.182
138 2 3.93454 134.445 160.238
139 2 7.87798 134.415 1.00664
140 2 11.7396 134.375 160.367
141 2 -0.273572 138.346 160.247
142 2 3.85417 138.337 160.395
143 2 7.73313 138.337 160.205
144 2 11.7933 138.325 0.903656
145 2 15.6201 142.067 160.102
146 2 3.82521 142.329 160.321
147 2 7.68902 142.201 160.136
148 2 11.5275 142.114 160.06
149 2 -0.202718 146.15 160.178
150 2 3.74512 146.166 159.969
151 2 7.75197 146.123 160.233
152 2 11.8173 146.316 160.125
153 2 15.7964 150.159 160.071
154 2 3.97747 149.973 160.098
155 2 7.91315 150.167 160.164
156 2 11.7534 150.026 160.067
157 2 15.8438 153.935 159.965
158 2 3.87887 153.774 160.058
159 2 7.88596 154.116 159.975
160 2 11.6675 154.168 160.029
161 2 15.6939 158.03 4.50295
162 2 3.86837 157.859 4.60313
163 2 7.84833 157.864 4.74083
164 2 11.6985 157.782 4.56638
165 2 15.7761 3.59348 4.49365
166 2 3.96116 3.42153 4.41978
167 2 7.83478 3.55688 4.48464
168 2 11.7067 3.44991 4.40381
169 2 15.792 7.44848 4.27794
170 2 3.78861 7.45297 4.40028
171 2 7.86794 7.60283 4.35211
172 2 11.8317 7.50783 4.30299
173 2 15.7019 11.4716 4.30996
174 2 3.98009 11.2787 4.3971
175 2 7.85641 11.1856 4.36889
176 2 11.6659 11.4636 4.23851
177 2 15.9675 15.4055 4.11966
178 2 4.08353 15.1752 4.29204
179 2 7.90236 15.3864 4.22981
180 2 11.9933 15.4483 4.09052
181 2 -0.0528589 19.2479 4.23167
182 2 3.98963 19.0516 4.36783
183 2 7.94186 19.1712 4.12222
184 2 11.9386 19.0557 4.01917
185 2 15.8293 23.019 4.24287
186 2 3.85767 23.0316 4.17073
187 2 7.86058 23.0204 4.48892
188 2 11.8822 22.9268 4.59834
189 2 15.9677 27.0792 4.26355
190 2 4.09998 27.1755 4.32962
191 2 7.76467 27.1388 4.20436
192 2 11.8869 27.1972 4.28016
193 2 15.6745 31.1093 4.50261
194 2 3.82489 31.1522 4.31428
195 2 7.90657 31.5582 4.34184
196 2 11.8101 31.0723 4.41411
197 2 0.00185359 35.1414 4.51543
198 2 3.82083 35.2317 4.54276
199 2 7.88717 35.3118 4.43064
200 2 11.6622 35.1182 4.76702
201 2 0.128839 39.1485 4.70231
202 2 3.96267 39.185 4.7528
203 2 7.9753 39.3107 4.38531
204 2 11.9858 39.1399 4.56002
205 2 -0.175939 43.3087 4.48122
206 2 3.90479 43.1646 4.78147
207 2 7.8249 43.2978 4.51282
208 2 11.8026 43.2691 4.56481
209 2 15.786 47.3136 4.72222
210 2 4.00711 47.0877 4.73256
211 2 7.78497 47.3237 4.43376
212 2 11.7212 47.2559 4.69877
213 2 0.052757 51.337 4.66721
214 2 3.73049 51.2732 4.85299
215 2 7.69286 51.2942 4.79709
216 2 11.7995 51.3873 4.61758
217 2 -0.0940137 55.2158 4.77416
218 2 3.81466 55.2602 4.78692
219 2 7.89121 55.2711 4.97354
220 2 11.7473 55.4442 4.82651
221 2 -0.0739672 59.2292 5.08445
222 2 3.85007 59.4105 4.86359
223 2 7.73925 59.1454 4.96642
224 2 11.6265 59.3092 4.73533
225 2 0.120478 63.4829 4.98967
226 2 3.9294 63.3713 5.23457
227 2 7.78513 63.5032 5.0272
228 2 11.687 63.2819 4.93244
229 2 -0.0150093 67.4116 5.08043
230 2 3.96911 67.4195 5.07523
231 2 7.80536 67.6909 5.17871
232 2 11.8358 67.3079 5.16132
233 2 -0.058491 71.4202 5.32139
234 2 3.71233 71.3961 5.20896
235 2 7.86533 71.4657 5.18708
236 2 11.7383 71.2225 5.13166
237 2 -0.269019 75.4829 5.26978
238 2 3.80179 75.4234 5.45243
239 2 7.80963 75.4608 5.22375
240 2 11.7234 75.1444 5.39692
241 2 -0.00456063 79.4732 5.56562
242 2 3.88348 79.5051 5.59586
243 2 7.92576 79.4491 5.73878
244 2 11.9142 79.4764 5.51398
245 2 15.6915 83.4054 5.49739
246 2 4.06751 83.4234 5.51435
247 2 7.9184 83.351 5.49372
248 2 11.838 83.4055 5.61532
249 2 -0.164193 87.4764 5.31903
250 2 4.03699 87.4888 5.52039
251 2 7.90497 87.4874 5.39936
252 2 11.951 87.4586 5.29469
253 2 -0.107748 91.2087 5.46688
254 2 3.83277 91.2719 5.48079
255 2 7.79774 91.4643 5.40793
256 2 11.9153 91.4568 5.51758
257 2 -0.0368253 95.4816 5.37136
258 2 3.86642 95.3443 5.48694
259 2 8.02436 95.3863 5.37182
260 2 12.0459 95.3261 5.42079
261 2 -0.146935 99.241 5.22754
262 2 3.93641 99.2767 5.43022
263 2 7.92389 99.1695 5.20284
264 2 11.9547 99.0775 5.20322
265 2 15.8501 102.992 5.28296
266 2 3.75368 103.1 5.29118
267 2 7.94239 103.077 5.18929
268 2 11.7189 102.989 5.15688
269 2 0.174534 107.098 4.97632
270 2 3.98398 107.122 5.30463
271 2 7.9872 106.901 5.25726
272 2 11.9702 106.914 5.47185
273 2 0.236939 110.916 5.00016
274 2 4.08939 110.976 5.15557
275 2 7.97162 110.726 5.23224
276 2 11.9712 110.913 5.12545
277 2 16.0744 115.019 4.98976
278 2 4.07793 114.794 5.11879
279 2 8.14693 114.668 4.83731
280 2 11.7267 114.707 5.15123
281 2 15.8589 118.834 5.17843
282 2 4.01493 118.793 5.07088
283 2 7.93713 118.773 5.13229
284 2 11.7766 118.708 4.92995
285 2 15.9016 122.588 5.18572
286 2 3.98799 122.708 5.18366
287 2 7.94602 122.679 4.9479
288 2 12.1778 122.584 5.03013
289 2 -0.161513 126.67 5.02352
290 2 3.76209 126.647 4.98029
291 2 8.04787 126.508 4.92936
292 2 12.0121 126.666 5.00932
293 2 0.146389 130.477 5.10799
294 2 4.17136 130.636 4.9702
295 2 8.01257 130.473 4.9415
296 2 12.0348 130.753 4.85689
297 2 -0.166723 134.285 4.87214
298 2 3.84747 134.273 4.82611
299 2 7.86967 134.568 4.81675
300 2 11.8231 134.4 4.93686
301 2 15.8975 138.161 5.00045
302 2 3.77174 138.42 4.99537
303 2 7.69909 138.492 4.73587
304 2 11.87 138.445 4.94849
305 2 -0.0272269 142.305 4.97901
306 2 3.8435 142.516 4.73099
307 2 7.7688 142.385 4.68971
308 2 11.9293 142.146 4.73817
309 2 15.5605 146.168 4.87602
310 2 3.82965 146.285 4.58402
311 2 7.86877 146.277 4.68761
312 2 11.731 145.952 4.62458
313 2 -0.103938 150.058 4.48419
314 2 3.86176 150.078 4.90606
315 2 7.83355 150.212 4.72888
316 2 11.7726 150.197 4.78304
317 2 15.6039 153.97 4.64277
318 2 3.82079 153.948 4.36724
319 2 7.89373 154.057 4.69846
320 2 11.6516 153.911 4.557
321 2 15.7464 157.927 8.66827
322 2 3.88337 157.956 8.54022
323 2 7.85711 157.777 8.45373
324 2 11.7731 157.997 8.48711
325 2 15.7888 3.80725 8.51628
326 2 3.90155 3.53939 8.50947
327 2 7.85888 3.58148 8.50365
328 2 11.9423 3.51043 8.42247
329 2 -0.217465 7.53285 8.55965
330 2 3.7222 7.6151 8.52307
331 2 7.82528 7.35452 8.45012
332 2 11.8083 7.43496 8.39304
333 2 15.6767 11.4963 8.42785
334 2 3.91859 11.2869 8.27764
335 2 7.98543 11.2592 8.39195
336 2 11.7605 11.3769 8.47583
337 2 -0.0998186 15.3241 8.27478
338 2 3.94444 15.3536 8.41055
339 2 7.97117 15.2948 8.33863
340 2 11.7077 15.3424 8.21951
341 2 0.191978 19.3915 8.36716
342 2 4.15304 19.1005 8.19003
343 2 7.83333 19.3509 8.24427
344 2 11.9828 19.1187 8.22397
345 2 0.0576605 23.0466 8.23722
346 2 4.00277 23.1482 8.28831
347 2 8.0837 23.1509 8.29493
348 2 11.9156 23.1892 8.25257
349 2 15.8922 26.7908 8.20519
350 2 4.03332 27.1892 8.3259
351 2 8.04982 27.1317 8.23344
352 2 12.0124 26.9487 8.26108
353 2 16.0026 30.9312 8.29237
354 2 4.04364 31.0572 8.33918
355 2 7.95469 31.0016 8.3633
356 2 11.7244 31.067 8.26844
357 2 15.945 35.0058 8.45018
358 2 3.96045 35.0684 8.51645
359 2 7.56037 35.304 8.36779
360 2 11.9107 35.009 8.46792
361 2 15.7624 39.0505 8.45385
362 2 3.91373 39.1795 8.50858
363 2 7.95612 38.9178 8.67919
364 2 11.808 39.0967 8.42512
365 2 15.7913 43.2892 8.6395
366 2 4.01011 43.2078 8.72651
367 2 7.92076 43.0678 8.3643
368 2 11.8124 43.1059 8.47956
369 2 -0.175822 47.1456 8.57637
370 2 3.88565 47.023 8.61458
371 2 7.86402 47.2488 8.43196
372 2 11.7468 47.2136 8.41815
373 2 -0.24154 51.3337 8.62438
374 2 3.79234 51.1511 8.62624
375 2 7.89817 51.0572 8.75814
376 2 11.9641 51.2632 8.71298
377 2 -0.0982506 55.3778 8.5176
378 2 4.02328 55.2566 8.60488
379 2 7.84819 55.3071 8.77746
380 2 11.9783 55.2458 8.66627
381 2 15.7366 59.3699 8.79033
382 2 3.95842 59.3329 8.79622
383 2 7.94258 59.3866 8.86423
384 2 11.7958 59.308 8.99176
385 2 0.0183453 63.2086 8.96695
386 2 3.88895 63.3923 9.02608
387 2 8.07028 63.3843 8.95747
388 2 11.8906 63.235 8.91873
389 2 0.00710729 67.4127 9.17201
390 2 4.11509 67.3311 9.16668
391 2 7.93066 67.3064 9.10429
392 2 11.9907 67.343 8.98429
393 2 -0.189335 71.1902 9.17653
394 2 3.74105 71.3166 9.18603
395 2 7.69937 71.2905 9.13148
396 2 11.96 71.3912 9.1778
397 2 -0.0279583 75.4593 9.23979
398 2 3.84712 75.2487 9.36055
399 2 7.77599 75.2763 9.07603
400 2 11.8014 75.4178 9.29938
401 2 -0.115155 79.3611 9.34945
402 2 3.98577 79.2546 9.41781
403 2 8.06901 79.2341 9.51104
404 2 11.8649 79.6234 9.39274
405 2 -0.104926 83.3368 9.48033
406 2 3.9074 83.3979 9.27357
407 2 7.93289 83.3701 9.32868
408 2 11.9767 83.5493 9.5102
409 2 0.0744157 87.3078 9.41293
410 2 3.84195 87.3698 9.42968
411 2 7.72687 87.3703 9.30877
412 2 11.8423 87.4144 9.50298
413 2 0.0275008 91.4502 9.55524
414 2 4.0084 91.2546 9.43394
415 2 8.0606 91.4104 9.4965
416 2 12.0197 91.3241 9.40358
417 2 0.0575713 95.3783 9.49816
418 2 4.1476 95.1169 9.55847
419 2 7.88375 95.3803 9.44352
420 2 11.8909 95.1841 9.43417
421 2 15.5557 99.1791 9.22803
422 2 3.93729 99.2889 9.318
423 2 7.66418 99.1589 9.24265
424 2 11.7481 99.2778 9.4586
425 2 0.0283728 103.07 9.36872
426 2 3.91029 103.126 9.38731
427 2 7.94117 102.93 9.26515
428 2 11.9975 103.307 9.15455
429 2 16.0436 106.97 9.21115
430 2 3.99292 107.047 9.38389
431 2 8.1655 106.924 9.39129
432 2 12.101 107.188 9.24562
433 2 -0.013605 111.054 9.14135
434 2 3.95225 110.873 9.25975
435 2 8.01588 110.951 9.23335
436 2 12.0129 110.938 8.9741
437 2 0.02621 114.8 9.02852
438 2 4.06612 114.666 9.18423
439 2 7.92395 114.943 9.36495
440 2 11.8292 114.661 8.8613
441 2 0.0497685 118.737 9.15111
442 2 4.10943 118.755 9.16159
443 2 8.04899 118.641 9.17781
444 2 12.0958 118.72 9.03704
445 2 15.8297 122.646 9.14968
446 2 4.22575 122.717 8.94498
447 2 8.02522 122.643 8.86694
448 2 11.9613 122.599 8.8685
449 2 0.0618842 126.509 8.99719
450 2 3.98781 126.707 9.05971
451 2 8.05354 126.571 8.96272
452 2 11.9495 126.527 9.16169
453 2 0.213816 130.73 9.17867
454 2 4.13215 130.633 9.00272
455 2 8.1636 130.636 8.97167
456 2 12.1051 130.548 8.982
457 2 0.0796594 134.672 9.02729
458 2 4.07228 134.429 8.94549
459 2 7.84751 134.492 8.89304
460 2 11.7909 134.61 8.83286
461 2 0.115052 138.37 8.90694
462 2 4.20041 138.419 8.96073
463 2 7.92731 138.32 8.85384
464 2 11.8231 138.382 8.89852
465 2 -0.230201 142.219 8.92031
466 2 3.78352 142.303 8.97942
467 2 7.77064 142.082 8.72756
468 2 11.7037 142.3 8.68752
469 2 15.6337 146.25 8.79428
470 2 3.70698 146.069 8.6572
471 2 7.96458 146.148 8.74517
472 2 11.6636 146.189 8.68654
473 2 15.7246 150.107 8.79103
474 2 3.87887 150.088 8.7429
475 2 7.75238 150.124 8.76507
476 2 11.6016 150.149 8.67228
477 2 15.7242 154.041 8.57299
478 2 3.7592 154.137 8.70367
479 2 7.75256 153.892 8.74181
480 2 11.7723 154.054 8.76023
481 2 15.8095 157.822 12.4591
482 2 3.97549 158.076 12.4217
483 2 7.93664 158.04 12.4869
484 2 12.0602 158.031 12.5263
485 2 15.718 3.62142 12.5576
486 2 3.95491 3.47161 12.5056
487 2 7.99242 3.51274 12.4255
488 2 11.8297 3.72463 12.5909
489 2 -0.138187 7.38841 12.3971
490 2 3.74272 7.49547 12.5392
491 2 7.79364 7.3545 12.4102
492 2 11.7189 7.54252 12.4864
493 2 15.8799 11.4572 12.3208
494 2 3.86371 11.4942 12.4532
495 2 7.68311 11.476 12.4314
496 2 11.7526 11.4412 12.4571
497 2 0.0626882 15.2594 12.2926
498 2 4.1098 15.346 12.3233
499 2 7.76189 15.3998 12.3921
500 2 11.7785 15.439 12.3589
501 2 15.8077 19.0674 12.3504
502 2 3.94905 19.2778 12.4025
503 2 7.965 19.4461 12.2586
504 2 11.8766 19.3738 12.2623
505 2 15.813 22.952 12.0941
506 2 4.046 23.1021 12.1924
507 2 8.12866 23.1753 12.4013
508 2 12.0153 23.1673 12.2509
509 2 15.8838 27.2615 12.3534
510 2 3.92929 27.0974 12.3562
511 2 8.01646 27.0395 12.3927
512 2 11.962 27.1595 12.5021
513 2 0.0558943 30.8692 12.2233
514 2 4.19493 31.1323 12.2227
515 2 8.13089 31.0524 12.4326
516 2 12.0262 30.9694 12.0954
517 2 15.7372 34.7961 12.254
518 2 3.89378 35.0195 12.4079
519 2 8.07172 35.1176 12.3214
520 2 11.807 34.7811 12.2969
521 2 15.7718 38.9739 12.4489
522 2 3.9267 39.0392 12.5124
523 2 7.98453 39.09 12.4711
524 2 11.8742 38.8876 12.5776
525 2 15.7757 43.185 12.4975
526 2 4.16992 42.9557 12.4967
527 2 8.1215 43.0722 12.2814
528 2 11.9607 43.0157 12.2732
529 2 15.8016 47.1686 12.5268
530 2 4.07032 47.1115 12.4909
531 2 7.72337 47.0736 12.4967
532 2 11.7422 47.1013 12.3834
533 2 -0.141042 51.1427 12.5262
534 2 3.58829 51.2602 12.3471
535 2 7.92737 51.0203 12.5441
536 2 11.7473 51.1299 12.6037
537 2 -0.135757 55.2348 12.6765
538 2 3.69355 55.2127 12.555
539 2 7.77869 55.2385 12.7874
540 2 11.5684 55.3228 12.6382
541 2 -0.0798963 59.2747 12.6874
542 2 3.9547 59.2179 12.7154
543 2 7.96003 59.2324 12.7526
544 2 11.695 59.1546 12.5719
545 2 0.151411 63.2045 12.8764
546 2 3.91262 63.2747 13.1003
547 2 7.77396 63.0611 13.1273
548 2 12.0067 63.1987 12.9281
549 2 -0.271634 67.1675 12.8637
550 2 4.01004 67.2284 13.0683
551 2 7.79941 67.1848 12.8325
552 2 11.7382 67.3839 12.8192
553 2 -0.120018 71.268 13.1644
554 2 3.94923 71.1314 12.8882
555 2 7.84855 71.2771 13.1757
556 2 11.7962 71.4573 13.1378
557 2 -0.0383393 75.3145 13.097
558 2 4.00749 75.3171 13.1211
559 2 7.65175 75.4423 13.1329
560 2 11.8274 75.0563 13.2373
561 2 0.0958342 79.41 13.3309
562 2 4.13125 79.5814 13.3454
563 2 7.91704 79.3983 13.18
564 2 11.9124 79.2714 13.2099
565 2 0.0835533 83.3265 13.2557
566 2 4.19784 83.329 13.2985
567 2 7.91236 83.4048 13.2718
568 2 11.7384 83.3623 13.449
569 2 0.171296 87.4476 13.4137
570 2 4.11934 87.726 13.3795
571 2 7.98095 87.3763 13.5222
572 2 11.7765 87.4287 13.2635
573 2 0.0572302 91.2982 13.5637
574 2 3.91225 91.5489 13.4685
575 2 8.09951 91.633 13.4841
576 2 11.969 91.4067 13.5281
577 2 0.0245838 95.3294 13.3446
578 2 4.14711 95.4721 13.4518
579 2 7.88859 95.3294 13.3658
580 2 11.792 95.4732 13.4677
581 2 -0.200712 99.3304 13.2368
582 2 3.92784 99.4076 13.4003
583 2 8.18928 99.3131 13.4649
584 2 11.8222 99.2077 13.4491
585 2 0.118001 103.119 13.4279
586 2 3.99901 103.282 13.3982
587 2 8.03615 103.196 13.327
588 2 11.7542 103.286 13.2166
589 2 15.9198 107.048 13.1517
590 2 4.02488 107.045 13.3221
591 2 7.82439 107.232 13.3276
592 2 11.9802 107.087 13.3066
593 2 0.189867 111.09 13.1895
594 2 3.96828 111.002 13.3083
595 2 8.15879 110.995 13.0727
596 2 12.0849 111.07 13.0272
597 2 15.8209 114.959 13.2123
598 2 4.10394 114.893 13.0697
599 2 8.0611 114.83 13.15
600 2 11.8763 114.883 13.3834
601 2 16.0045 118.787 13.1256
602 2 4.16464 118.696 13.1484
603 2 7.99538 118.698 13.1145
604 2 11.8888 118.651 13.1757
605 2 0.192108 122.685 13.0763
606 2 4.10278 122.789 13.0717
607 2 7.92592 122.753 13.028
608 2 11.8734 122.869 13.0126
609 2 16.0843 126.652 12.9396
610 2 4.0723 126.527 13.1207
611 2 8.03352 126.707 13.1104
612 2 11.9672 126.676 13.2523
613 2 15.8348 130.574 12.9399
614 2 3.84791 130.49 12.8716
615 2 7.85811 130.509 13.0237
616 2 12.112 130.691 12.8979
617 2 0.21742 134.406 12.9442
618 2 4.05989 134.574 13.0187
619 2 7.78821 134.474 13.0133
620 2 11.8438 134.51 13.0241
621 2 -0.115191 138.389 12.8612
622 2 4.04272 138.462 12.9988
623 2 7.85491 138.407 12.9805
624 2 11.7723 138.446 12.9873
625 2 15.5614 142.272 12.8993
626 2 3.72566 142.194 12.9214
627 2 7.65457 142.336 12.732
628 2 11.6587 142.227 12.9579
629 2 -0.138193 146.345 12.7977
630 2 3.94866 146.179 12.7925
631 2 7.68348 146.201 12.9069
632 2 11.7879 146.161 12.9295
633 2 15.7206 150.14 12.7451
634 2 3.7009 150.119 12.8393
635 2 7.83509 149.988 12.8495
636 2 11.7304 150.137 12.8568
637 2 15.4766 153.979 12.5546
638 2 3.59969 154.176 12.6721
639 2 7.71004 154.144 12.7804
640 2 11.8389 154.06 12.8126
641 2 15.8609 158.264 16.5383
642 2 3.9282 157.831 16.793
643 2 7.64775 158.08 16.7259
644 2 11.8044 157.949 16.5742
645 2 15.8504 3.51034 16.6024
646 2 3.98897 3.62664 16.4609
647 2 7.80648 3.74269 16.6803
648 2 11.8207 3.55514 16.6287
649 2 -0.0371343 7.61043 16.414
650 2 3.87713 7.41879 16.3493
651 2 7.81262 7.55224 16.5195
652 2 11.8742 7.67434 16.6111
653 2 15.9163 11.449 16.538
654 2 3.96957 11.3094 16.3591
655 2 7.70166 11.492 16.4863
656 2 11.8948 11.264 16.4691
657 2 -0.107455 15.3479 16.4286
658 2 3.86916 15.4164 16.4256
659 2 7.87715 15.4933 16.4181
660 2 11.9176 15.3605 16.4977
661 2 16.0582 19.2341 16.1748
662 2 3.93624 19.3461 16.3963
663 2 8.14477 19.3963 16.2683
664 2 11.9923 19.3153 16.2179
665 2 15.9838 23.2244 16.4076
666 2 4.15298 23.0915 16.3913
667 2 7.87681 23.3642 16.5413
668 2 12.1073 23.1872 16.5251
669 2 0.180168 27.056 16.2075
670 2 4.05592 27.2052 16.2276
671 2 8.00776 27.1199 16.2306
672 2 12.0954 26.9986 16.1855
673 2 15.9606 31.0657 16.2331
674 2 4.09757 30.9416 16.2324
675 2 8.09081 31.1002 16.1768
676 2 12.007 31.1031 16.3294
677 2 15.6564 34.8605 16.3722
678 2 4.03678 34.8646 16.247
679 2 8.08584 35.0217 16.3512
680 2 11.9624 35.0668 16.2815
681 2 -0.0305499 39.0367 16.261
682 2 3.94213 38.8923 16.3761
683 2 7.81939 38.9346 16.4388
684 2 11.9062 39.1776 16.3049
685 2 15.828 43.0457 16.5402
686 2 3.95538 42.9544 16.2985
687 2 7.99148 43.0959 16.2433
688 2 11.822 43.0116 16.295
689 2 -0.208824 47.0935 16.2854
690 2 3.82422 46.9829 16.4147
691 2 7.91734 47.1781 16.4516
692 2 11.8877 47.2031 16.3623
693 2 15.9281 51.014 16.4763
694 2 3.89264 51.1148 16.334
695 2 7.9354 51.0941 16.5213
696 2 11.7858 51.0659 16.5911
697 2 -0.00409086 55.0219 16.4434
698 2 3.90361 55.0255 16.6718
699 2 7.67932 55.3961 16.4986
700 2 11.602 55.1073 16.6187
701 2 -0.162773 59.2486 16.7814
702 2 3.90406 59.0643 16.8259
703 2 7.92403 59.2956 16.8389
704 2 11.8763 59.1358 16.6876
705 2 0.0305499 63.1875 16.6708
706 2 3.87525 63.1693 16.8215
707 2 8.00035 63.3226 16.8592
708 2 11.774 63.259 16.8475
709 2 -0.137429 67.1292 16.9434
710 2 3.91452 67.1723 16.9231
711 2 7.7663 67.2589 16.681
712 2 11.8451 67.2121 16.7914
713 2 0.0387322 71.1679 16.9274
714 2 3.73433 71.2162 17.1864
715 2 7.87535 71.0659 17.0137
716 2 11.837 71.2841 17.1612
717 2 -0.0980939 75.2775 17.0443
718 2 3.8516 75.1294 17.0157
719 2 7.80185 75.2555 17.0826
720 2 11.7532 75.3008 17.0937
721 2 0.0892931 79.2354 16.9859
722 2 3.85292 79.4241 17.3487
723 2 7.96723 79.2791 17.0334
724 2 11.8077 79.2034 17.032
725 2 -0.0736416 83.2475 17.0867
726 2 3.71415 83.4521 17.2567
727 2 8.04049 83.5095 17.2784
728 2 11.9384 83.3361 17.2769
729 2 -0.0140729 87.232 17.3203
730 2 3.98841 87.324 17.4545
731 2 7.88794 87.3239 17.4269
732 2 11.9342 87.3765 17.3666
733 2 0.183098 91.4571 17.4464
734 2 4.06419 91.3147 17.3988
735 2 8.0325 91.3635 17.3416
736 2 11.9988 91.5569 17.504
737 2 0.0417822 95.2957 17.4885
738 2 3.96581 95.5018 17.397
739 2 7.86736 95.2913 17.3687
740 2 12.0069 95.3563 17.5341
741 2 15.9108 99.1103 17.3771
742 2 4.10724 99.1054 17.4259
743 2 8.03813 99.5334 17.4773
744 2 11.7061 99.4673 17.3068
745 2 15.8534 103.154 17.3666
746 2 3.9776 103.067 17.5031
747 2 8.145 103.351 17.4412
748 2 11.9171 103.104 17.3943
749 2 15.9359 107.05 17.2553
750 2 3.99365 107.025 17.3298
751 2 8.00377 107.245 17.2994
752 2 11.8896 107.098 17.275
753 2 0.143055 110.839 17.2683
754 2 4.04998 110.934 17.2777
755 2 8.21224 110.937 17.3948
756 2 12.0817 110.853 17.0555
757 2 0.0868037 114.863 16.8857
758 2 4.06276 114.812 17.0917
759 2 8.09201 114.739 17.0833
760 2 11.9194 115.096 17.3409
761 2 0.0559648 118.826 16.9959
762 2 4.11713 119.02 17.1347
763 2 8.02855 118.847 17.2542
764 2 12.083 118.849 17.1598
765 2 0.121156 122.764 17.0399
766 2 4.10528 122.71 17.0328
767 2 8.05411 122.767 16.8934
768 2 11.9654 122.77 17.1979
769 2 0.149401 126.797 17.083
770 2 4.13542 126.756 17.1
771 2 8.29237 126.812 17.0404
772 2 11.8969 126.705 17.0939
773 2 -0.0672268 130.504 17.1049
774 2 3.96903 130.616 16.9981
775 2 8.03032 130.621 17.1307
776 2 11.8836 130.663 17.0942
777 2 -0.137447 134.352 17.0606
778 2 3.82131 134.449 16.8545
779 2 7.8426 134.677 17.1829
780 2 11.7734 134.586 16.9992
781 2 15.6979 138.34 16.8769
782 2 3.93369 138.386 17.0045
783 2 7.85429 138.406 16.9589
784 2 11.926 138.361 17.0046
785 2 15.8432 142.302 16.9077
786 2 3.867 142.469 16.8047
787 2 7.85807 142.518 16.9273
788 2 11.764 142.176 16.9257
789 2 15.5586 146.231 16.8543
790 2 3.84137 146.458 16.9977
791 2 7.82645 146.245 16.9188
792 2 11.8202 146.317 16.8259
793 2 15.788 150.169 16.7726
794 2 4.04479 150.169 16.7619
795 2 8.0134 150.429 16.8157
796 2 11.8066 150.23 16.7692
797 2 -0.0505061 154.202 16.7849
798 2 4.0085 154.263 16.7945
799 2 7.99205 154.293 16.7469
800 2 11.9 154.218 16.7331
801 2 -0.00464954 158.169 20.7047
802 2 3.84835 158.118 20.8768
803 2 7.96919 158.157 20.8448
804 2 11.8901 158.038 20.7213
805 2 15.5836 3.80288 20.4202
806 2 3.86215 3.72928 20.7896
807 2 8.10316 3.68413 20.6438
808 2 11.9909 3.70232 20.5781
809 2 -0.208917 7.47562 20.4499
810 2 3.7932 7.47057 20.7279
811 2 7.96499 7.60758 20.6962
812 2 11.6693 7.62635 20.5111
813 2 15.8277 11.4573 20.5575
814 2 3.63908 11.3993 20.458
815 2 7.77159 11.4577 20.4075
816 2 11.7787 11.6175 20.4261
817 2 15.8683 15.4579 20.3658
818 2 4.10049 15.4485 20.4081
819 2 7.91481 15.3336 20.4296
820 2 11.8016 15.4153 20.6148
821 2 15.8275 19.3379 20.1592
822 2 3.9595 19.3071 20.5282
823 2 7.89129 19.3011 20.4484
824 2 11.8913 19.3537 20.11
825 2 15.8913 23.1942 20.4733
826 2 3.83806 23.3149 20.317
827 2 7.83669 23.3233 20.424
828 2 11.9953 23.0616 20.4294
829 2 0.0576833 27.2325 20.2933
830 2 3.88345 27.3877 20.272
831 2 8.16252 27.253 20.309
832 2 11.877 27.1921 20.36
833 2 0.198892 31.1875 20.0237
834 2 4.15965 31.0291 20.3453
835 2 8.13028 31.1146 20.2852
836 2 12.124 31.2071 20.4369
837 2 16.0553 35.1778 20.3997
838 2 3.96776 34.96 20.3267
839 2 7.89156 35.0121 20.2637
840 2 11.9928 35.1168 20.5385
841 2 0.0294814 39.0578 20.1897
842 2 3.87534 38.9547 20.3674
843 2 7.82145 38.927 20.3194
844 2 11.838 38.8816 20.3057
845 2 -0.137046 43.0681 20.3637
846 2 3.88651 42.9449 20.2166
847 2 7.91071 43.0691 20.3167
848 2 11.9068 42.8694 20.1861
849 2 -0.0106428 46.9915 20.2679
850 2 3.94567 47.104 20.2577
851 2 7.92952 46.9438 20.4277
852 2 11.7817 46.8955 20.3764
853 2 -0.0258343 50.9634 20.5626
854 2 3.66706 51.1715 20.5008
855 2 7.70277 50.8819 20.5002
856 2 11.8026 51.0284 20.3669
857 2 -0.281935 55.2192 20.3218
858 2 3.88684 55.0467 20.5289
859 2 7.90855 55.0661 20.5348
860 2 11.7075 55.1976 20.4644
861 2 15.8215 59.0604 20.6298
862 2 3.93726 59.1757 20.6506
863 2 7.83684 59.0559 20.7919
864 2 11.8901 59.0418 20.6489
865 2 15.9176 63.1206 20.6614
866 2 3.96547 63.1079 20.7566
867 2 7.86257 63.1668 20.9056
868 2 11.9236 63.1272 20.8256
869 2 -0.000367689 67.1439 20.8605
870 2 3.94348 67.1913 20.7907
871 2 7.78731 67.1838 20.6285
872 2 12.0224 67.1014 20.7943
873 2 0.0368334 71.3485 20.8503
874 2 3.88422 70.9759 20.9699
875 2 7.71475 70.9804 20.9414
876 2 11.8491 71.2542 21.096
877 2 -0.11973 75.1972 20.9973
878 2 3.91413 75.1059 20.9623
879 2 7.75593 75.2231 21.1074
880 2 11.756 75.2219 20.8444
881 2 0.0521088 79.1841 20.9628
882 2 3.92851 79.1151 20.9464
883 2 7.72668 79.3286 20.9324
884 2 11.6687 79.3284 20.9376
885 2 0.137153 83.2009 21.2225
886 2 3.88324 83.2232 21.0795
887 2 7.80335 83.2498 21.1533
888 2 12.0008 83.3019 21.1327
889 2 0.00561687 87.4003 21.487
890 2 3.96512 87.202 21.3259
891 2 8.07031 87.2339 21.2057
892 2 12.0238 87.2917 21.5392
893 2 0.041315 91.4361 21.2389
894 2 3.79622 91.4547 21.0585
895 2 8.10067 91.2098 21.2098
896 2 12.0636 91.2731 21.322
897 2 15.9154 95.3258 21.4342
898 2 4.04839 95.3273 21.5907
899 2 8.02393 95.3761 21.31
900 2 12.0683 95.3043 21.4889
901 2 0.109654 99.3135 21.4407
902 2 4.08399 99.2392 21.4861
903 2 7.92587 99.2232 21.4854
904 2 11.9702 99.2628 21.509
905 2 15.8471 103.271 21.4001
906 2 4.09882 103.234 21.4218
907 2 8.0495 103.246 21.4606
908 2 12.1482 103.198 21.4172
909 2 0.00716338 107.166 21.4933
910 2 4.02069 107.087 21.4202
911 2 7.87793 107.169 21.1896
912 2 11.905 107.004 21.3917
913 2 15.7819 111.137 21.2626
914 2 3.88866 110.903 21.2151
915 2 8.12403 110.965 21.0745
916 2 11.9216 110.96 21.2008
917 2 0.022899 114.739 21.1073
918 2 4.13929 114.924 21.0078
919 2 8.16775 114.93 21.1679
920 2 12.1742 115.06 21.2278
921 2 0.345641 118.554 21.0159
922 2 4.14548 118.676 21.0353
923 2 8.18655 118.8 21.223
924 2 12.0127 118.873 21.3768
925 2 0.0675098 122.697 21.2046
926 2 4.10697 122.668 21.1216
927 2 7.91409 122.616 21.1337
928 2 11.9143 122.624 21.2526
929 2 0.160744 126.623 21.1862
930 2 4.08576 126.613 21.0549
931 2 7.89037 126.697 20.9002
932 2 12.1066 126.63 20.9953
933 2 -0.0552193 130.616 21.0716
934 2 4.01295 130.647 21.0673
935 2 8.06404 130.883 20.9263
936 2 11.9179 130.694 21.0925
937 2 15.8701 134.763 21.0857
938 2 3.91216 134.493 20.9801
939 2 7.67724 134.574 21.0636
940 2 11.831 134.498 20.9595
941 2 15.7094 138.676 20.8128
942 2 3.82852 138.508 21.0698
943 2 7.83185 138.43 21.0053
944 2 11.6979 138.51 21.0497
945 2 15.7361 142.434 20.8308
946 2 3.7958 142.408 21.0825
947 2 7.79596 142.339 20.8062
948 2 11.9013 142.486 21.0037
949 2 0.140536 146.413 20.8868
950 2 3.88533 146.307 20.839
951 2 7.91772 146.605 20.954
952 2 12.0254 146.375 21.0173
953 2 15.8958 150.472 20.8188
954 2 3.99739 150.414 20.7126
955 2 8.06951 150.304 20.8677
956 2 11.8683 150.324 20.7632
957 2 -0.101486 154.274 20.7747
958 2 3.92895 154.201 20.9947
959 2 7.97971 154.211 20.8586
960 2 11.8733 154.136 20.7986
961 2 -0.0341875 158.049 24.7126
962 2 4.02001 158.147 24.732
963 2 7.8887 158.429 24.7873
964 2 11.9511 157.984 24.5527
965 2 15.8134 3.56998 24.8051
966 2 3.891 3.54426 24.7949
967 2 7.84753 3.78984 24.6827
968 2 12.0061 3.90528 24.7335
969 2 -0.0473858 7.80304 24.7053
970 2 4.01125 7.48579 24.5315
971 2 7.87053 7.76064 24.5278
972 2 11.7766 7.70375 24.6138
973 2 -0.0578202 11.6784 24.7525
974 2 3.86825 11.5327 24.5005
975 2 7.71512 11.5404 24.6174
976 2 11.9044 11.6684 24.511
977 2 -0.104711 15.4958 24.5179
978 2 3.94165 15.4473 24.5191
979 2 7.94267 15.421 24.3858
980 2 11.7256 15.5779 24.3596
981 2 15.9099 19.4412 24.5081
982 2 3.9906 19.5205 24.5432
983 2 7.85232 19.3875 24.4979
984 2 11.8161 19.2819 24.4174
985 2 0.0403152 23.4234 24.3238
986 2 3.9978 23.3866 24.3164
987 2 8.0228 23.3818 24.2711
988 2 11.841 23.2176 24.4617
989 2 -0.00207458 27.2518 24.2457
990 2 4.01382 27.2273 24.3215
991 2 8.02915 27.2174 24.2118