ITEM: TIMESTEP
17900
ITEM: NUMBER OF ATOMS
32000
ITEM: BOX BOUNDS xy xz yz pp pp pp
0.0000000000000000e+00 1.5832000000000001e+01 0.0000000000000000e+00
0.0000000000000000e+00 1.5831999999999999e+02 0.0000000000000000e+00
7.7519413500253620e-01 1.6020192386499497e+02 0.0000000000000000e+00
ITEM: ATOMS id type x y z
1 2 -0.0482367 157.948 160.017
2 2 3.92339 158.035 160.069
3 2 7.77421 157.727 160.044
4 2 11.8957 157.731 159.993
5 2 15.764 3.59613 159.751
6 2 3.93384 3.56472 160.054
7 2 7.89117 3.44074 159.978
8 2 11.8318 3.51516 160.018
9 2 0.0362854 7.42861 159.819
10 2 3.90481 7.51912 159.796
11 2 7.84136 7.2981 159.727
12 2 11.88 7.552 159.918
13 2 -0.161688 11.4293 159.66
14 2 3.93882 11.1966 159.888
15 2 7.9503 11.4289 159.9
16 2 11.7713 11.2564 159.755
17 2 15.8517 15.3114 159.786
18 2 3.92135 15.06 159.617
19 2 7.93635 15.2653 159.665
20 2 11.8655 15.1908 159.655
21 2 -0.0767134 19.1063 159.821
22 2 3.84797 19.0922 159.804
23 2 8.1423 19.0507 159.804
24 2 11.846 19.1732 159.744
25 2 15.6878 23.1073 0.344426
26 2 3.94087 23.2788 159.746
27 2 7.80651 23.1206 159.795
28 2 11.9841 22.9956 159.82
29 2 15.7892 27.1705 159.831
30 2 3.81667 27.0975 159.89
31 2 8.06439 27.2363 159.704
32 2 11.7417 27.2229 159.794
33 2 15.6449 31.0069 159.891
34 2 3.89438 31.035 159.926
35 2 7.95556 31.2539 159.742
36 2 11.8335 31.2475 0.658777
37 2 16.048 35.2248 159.965
38 2 4.02805 35.0686 0.53998
39 2 8.2114 35.2483 159.942
40 2 12.0493 35.2049 0.755494
41 2 0.0719545 39.2497 160.101
42 2 3.86292 39.275 0.810115
43 2 7.8787 39.219 0.776848
44 2 12.0766 39.2923 160.249
45 2 -0.137231 43.3972 0.724269
46 2 4.04103 43.3134 0.816339
47 2 7.71923 43.2023 0.900912
48 2 11.735 43.298 0.610397
49 2 15.6116 47.305 0.675897
50 2 3.99503 47.4141 0.806579
51 2 7.90439 47.1832 0.526531
52 2 11.9039 47.3065 0.908666
53 2 -0.297675 51.3283 0.859812
54 2 3.577 51.6562 0.83128
55 2 7.65193 51.6786 0.78056
56 2 11.6612 51.435 160.15
57 2 -0.0152822 55.3502 1.00728
58 2 3.89961 55.361 0.963498
59 2 7.82889 55.4943 0.961182
60 2 11.8444 55.3664 1.0692
61 2 0.133261 59.4812 1.07
62 2 3.97162 59.4144 1.01103
63 2 7.89064 59.4426 1.01913
64 2 11.7658 59.3957 0.935631
65 2 -0.171513 63.335 1.06765
66 2 3.80122 63.3426 1.36898
67 2 7.78573 63.4623 1.21144
68 2 11.8992 63.3982 1.02512
69 2 -0.250096 67.5011 1.16266
70 2 3.92382 67.3261 1.07115
71 2 7.75926 67.3478 1.00079
72 2 11.7314 67.5148 1.08305
73 2 15.692 71.5558 1.45892
74 2 3.72037 71.3233 1.34463
75 2 7.86934 71.5198 1.40461
76 2 11.7226 71.4619 1.35176
77 2 -0.0586451 75.6781 1.64785
78 2 3.79379 75.6603 1.30749
79 2 7.6874 75.5666 1.41593
80 2 11.7044 75.3384 1.39231
81 2 0.0735638 79.7184 1.61639
82 2 3.95075 79.5242 1.46057
83 2 7.83139 79.4244 1.71446
84 2 12.0906 79.3915 1.42976
85 2 -0.0324643 83.7406 1.51533
86 2 3.91458 83.5824 1.52602
87 2 7.98402 83.4217 1.56246
88 2 11.8162 83.2903 1.38346
89 2 -0.134207 87.4172 1.49256
90 2 4.10979 87.2721 1.50764
91 2 7.97435 87.2665 1.36329
92 2 11.8284 87.3895 1.59477
93 2 -0.0738173 91.2311 1.3966
94 2 3.89324 91.1584 1.49376
95 2 7.86251 91.2018 1.41333
96 2 11.9218 91.3594 1.43122
97 2 -0.0180908 95.1806 1.36971
98 2 3.96821 95.185 1.39311
99 2 7.83373 95.1649 1.2561
100 2 11.6538 95.2293 1.20688
101 2 0.0803608 99.2803 1.3071
102 2 4.05557 99.068 1.13461
103 2 7.86014 99.1641 1.37079
104 2 11.8289 99.1314 1.4144
105 2 15.8219 102.951 1.28224
106 2 4.01071 102.999 1.25674
107 2 7.82611 103.224 1.22141
108 2 11.7892 102.935 1.35744
109 2 15.787 106.739 1.20653
110 2 3.89662 106.743 1.15973
111 2 7.91279 106.802 1.19833
112 2 12.0958 106.861 1.16691
113 2 0.196242 110.938 1.18958
114 2 3.98402 110.844 1.03021
115 2 8.0847 110.739 1.0378
116 2 11.788 110.76 1.20264
117 2 0.110611 114.671 1.13582
118 2 4.07121 114.745 1.18126
119 2 8.01527 114.863 1.14135
120 2 11.8708 114.72 1.13274
121 2 15.8052 118.783 1.04454
122 2 4.00964 118.831 1.16466
123 2 7.99404 118.729 1.05559
124 2 11.971 118.78 160.406
125 2 -0.208648 122.671 0.84716
126 2 3.88041 122.514 1.00689
127 2 7.98103 122.669 0.932172
128 2 11.7347 122.5 1.00601
129 2 0.0570259 126.503 160.261
130 2 3.89982 126.435 160.395
131 2 8.03107 126.478 0.878624
132 2 11.9977 126.644 0.860121
133 2 -0.171343 130.487 160.328
134 2 4.03821 130.288 160.475
135 2 7.87025 130.394 0.953599
136 2 11.8748 130.499 160.457
137 2 0.117251 134.426 160.284
138 2 4.04055 134.512 160.321
139 2 7.99144 134.277 0.795704
140 2 12.033 134.584 160.294
141 2 0.170848 138.24 160.306
142 2 3.86474 138.414 160.129
143 2 7.81239 138.201 160.248
144 2 11.87 138.314 0.868923
145 2 15.6268 142.305 160.238
146 2 3.70007 142.185 160.042
147 2 7.87803 142.252 160.206
148 2 11.7696 142.188 160.156
149 2 -0.115872 146.15 160.209
150 2 3.90344 146.154 160.321
151 2 7.83645 146.165 160.1
152 2 11.6914 146.041 160.308
153 2 15.6898 149.985 160.143
154 2 3.74956 149.975 160.092
155 2 7.69522 149.929 160.09
156 2 11.9188 150.072 160.088
157 2 15.8209 154.014 159.984
158 2 3.93228 154.095 159.89
159 2 7.7218 153.901 160.133
160 2 11.9212 153.926 159.953
161 2 15.7797 157.935 4.47203
162 2 3.86576 157.884 4.54775
163 2 7.74449 157.855 4.49274
164 2 11.8895 157.961 4.63351
165 2 15.8387 3.39759 4.37846
166 2 3.93417 3.54545 4.48009
167 2 7.92808 3.44309 4.38606
168 2 11.9022 3.47035 4.47004
169 2 15.5459 7.53056 4.48059
170 2 3.8018 7.33948 4.45016
171 2 7.72626 7.22019 4.42159
172 2 11.6388 7.36675 4.35103
173 2 15.522 11.3581 4.35371
174 2 3.80985 11.3769 4.38664
175 2 7.90239 11.4814 4.45014
176 2 11.6454 11.2995 4.41315
177 2 15.6375 15.1545 4.49956
178 2 3.85538 15.1675 4.29286
179 2 8.09966 15.1719 4.38597
180 2 11.8345 15.2648 4.54008
181 2 0.107629 19.0753 4.30771
182 2 3.90235 19.2169 4.08685
183 2 7.85027 19.1994 4.42806
184 2 11.7306 19.2346 4.39258
185 2 15.8695 23.0896 4.35984
186 2 4.01909 23.114 4.23343
187 2 7.87459 23.1797 4.29066
188 2 11.8142 23.2121 4.04478
189 2 15.7697 27.0385 4.4431
190 2 3.8405 26.9409 4.16769
191 2 7.97599 27.0962 4.37306
192 2 11.8927 27.0114 4.52718
193 2 15.8847 31.0963 4.28358
194 2 4.08891 30.9955 4.55006
195 2 7.79572 31.1364 4.24637
196 2 11.7302 31.2682 4.67263
197 2 0.0167426 35.1455 4.44161
198 2 4.04795 35.0091 4.53763
199 2 7.96167 35.2794 4.34373
200 2 11.9826 35.187 4.42972
201 2 0.0274262 39.3183 4.57574
202 2 3.77646 39.2373 4.7912
203 2 7.84114 38.9505 4.622
204 2 11.9824 39.338 4.68033
205 2 0.153643 43.184 4.77293
206 2 3.98042 43.1735 4.72489
207 2 7.79936 43.1988 4.81898
208 2 11.7648 43.084 4.59139
209 2 15.8051 47.1571 4.67567
210 2 3.76571 47.344 4.67527
211 2 7.87968 47.374 4.56362
212 2 11.8264 47.1276 4.64282
213 2 -0.219077 51.2016 4.81834
214 2 3.84028 51.2519 4.74529
215 2 7.78719 51.3354 4.80756
216 2 11.6345 51.1515 4.88887
217 2 -0.124608 55.5963 4.97392
218 2 3.83688 55.4585 4.81062
219 2 7.84526 55.3414 4.80986
220 2 11.753 55.2989 5.00816
221 2 -0.0741759 59.406 4.84288
222 2 3.90999 59.2944 5.01457
223 2 7.94427 59.3879 4.80003
224 2 11.9484 59.4207 5.0463
225 2 -0.172674 63.228 5.06597
226 2 3.96603 63.4733 4.86723
227 2 7.79002 63.2685 5.09269
228 2 11.9666 63.4433 5.02222
229 2 -0.0623937 67.3281 5.25577
230 2 3.84652 67.2542 5.15158
231 2 7.9193 67.1467 5.29512
232 2 11.736 67.3401 5.0988
233 2 0.0295129 71.369 5.09768
234 2 4.05452 71.4038 5.22442
235 2 7.89553 71.2128 5.33134
236 2 12.083 71.4995 5.26308
237 2 -0.113557 75.4452 5.56668
238 2 3.91247 75.4905 5.26683
239 2 8.04602 75.3291 5.44874
240 2 11.9355 75.6009 5.35929
241 2 -0.142693 79.5318 5.5095
242 2 3.86835 79.4834 5.47808
243 2 7.89627 79.5018 5.34019
244 2 11.7329 79.3835 5.42636
245 2 15.9065 83.4599 5.53088
246 2 3.8969 83.4008 5.54888
247 2 7.93217 83.514 5.55236
248 2 11.877 83.4726 5.37314
249 2 0.0743053 87.2223 5.49328
250 2 3.74017 87.4521 5.53038
251 2 8.01215 87.2159 5.69943
252 2 11.7493 87.4737 5.63024
253 2 -0.157593 91.5523 5.38629
254 2 3.85677 91.3319 5.43666
255 2 7.89569 91.3893 5.4682
256 2 11.7851 91.2069 5.32322
257 2 0.0620178 95.1389 5.41588
258 2 3.84128 95.1098 5.27829
259 2 7.70125 95.099 5.3582
260 2 11.7259 95.2534 5.29599
261 2 0.0362865 99.1374 5.29122
262 2 3.997 99.126 5.16792
263 2 7.87586 99.1075 5.46304
264 2 11.8023 99.2888 5.36358
265 2 15.78 103.13 5.32281
266 2 3.96367 103.078 5.23638
267 2 7.80412 103.061 5.31377
268 2 11.8981 103.224 5.28569
269 2 0.192467 106.871 5.2546
270 2 3.95546 106.916 5.32836
271 2 7.8986 106.886 5.18031
272 2 11.8871 107.007 4.96805
273 2 0.0514928 111.122 5.18089
274 2 4.07662 110.971 5.10817
275 2 7.97345 110.853 5.08775
276 2 12.0597 110.759 5.06361
277 2 15.6206 114.937 4.82359
278 2 4.02088 114.95 5.13091
279 2 8.04282 114.795 5.20995
280 2 12.0474 114.85 5.11108
281 2 15.7521 118.637 5.17843
282 2 4.04984 118.778 5.13234
283 2 7.9594 118.605 4.8861
284 2 11.9325 118.956 5.22458
285 2 15.9009 122.775 5.0722
286 2 3.96057 122.732 5.08248
287 2 8.02858 122.775 5.16369
288 2 11.7502 122.841 5.10809
289 2 0.0864832 126.67 5.05286
290 2 4.00894 126.717 5.04563
291 2 8.00556 126.802 5.01145
292 2 11.7741 126.678 4.97117
293 2 0.0997346 130.593 4.7102
294 2 3.91489 130.382 4.9768
295 2 7.95988 130.613 4.93463
296 2 11.9529 130.348 4.86917
297 2 0.0449619 134.458 4.95297
298 2 3.94393 134.505 4.91794
299 2 8.01447 134.321 4.94032
300 2 11.9372 134.425 4.89686
301 2 15.8426 138.431 4.80472
302 2 4.09414 138.29 4.71452
303 2 7.94111 138.313 4.81285
304 2 11.916 138.154 4.82323
305 2 -0.125494 142.176 4.67189
306 2 3.88455 142.133 4.69654
307 2 7.8199 142.339 4.77178
308 2 11.7061 142.112 4.7
309 2 15.8806 146.167 4.64458
310 2 3.92978 146.115 4.88335
311 2 7.87348 146.211 4.80032
312 2 11.8957 146.151 4.75253
313 2 -0.144199 150.257 4.80486
314 2 3.91451 149.992 4.53674
315 2 7.80167 150.15 4.67944
316 2 11.7122 149.997 4.54523
317 2 15.8046 154.154 4.59798
318 2 3.79906 153.85 4.79715
319 2 7.70202 153.978 4.61569
320 2 11.8221 153.937 4.53806
321 2 15.6378 157.772 8.44885
322 2 3.99373 158.042 8.44551
323 2 7.89302 157.939 8.81403
324 2 11.7629 157.932 8.59552
325 2 15.7567 3.4568 8.35418
326 2 3.78942 3.58966 8.39958
327 2 7.95556 3.54392 8.47574
328 2 11.8826 3.63387 8.41445
329 2 0.110592 7.58638 8.13082
330 2 4.00134 7.36276 8.35527
331 2 7.81817 7.4722 8.4822
332 2 11.8523 7.3394 8.27107
333 2 15.7399 11.1812 8.18046
334 2 4.03869 11.5259 8.48314
335 2 7.87776 11.3442 8.49443
336 2 11.8262 11.3549 8.44559
337 2 0.0227893 15.1181 8.24871
338 2 3.88192 15.1058 8.24869
339 2 7.81871 15.2352 8.37032
340 2 11.9827 15.3439 8.57223
341 2 -0.106288 19.0648 8.26035
342 2 3.90639 19.099 8.21803
343 2 7.96122 19.1579 8.38791
344 2 11.8468 19.3789 8.45682
345 2 0.0781452 23.1471 8.40919
346 2 4.10928 23.2501 8.27951
347 2 7.80353 23.3036 8.42849
348 2 11.8695 23.1294 8.27871
349 2 15.9856 27.252 8.27147
350 2 4.11295 27.021 8.2261
351 2 7.98692 26.9885 8.42282
352 2 11.761 27.0551 8.38852
353 2 15.6858 31.0417 8.34275
354 2 3.94698 30.987 8.21219
355 2 7.9289 31.1138 8.56606
356 2 11.8694 31.0121 8.34273
357 2 15.5738 35.1365 8.45101
358 2 3.7858 35.011 8.39449
359 2 7.91113 35.0201 8.45869
360 2 11.7821 35.0623 8.3802
361 2 15.9468 39.2206 8.59626
362 2 3.98458 38.9705 8.82382
363 2 7.94118 39.0818 8.29446
364 2 12.1305 39.2347 8.47538
365 2 15.7135 43.1335 8.77875
366 2 3.96601 42.9809 8.67312
367 2 7.90721 43.0968 8.76283
368 2 11.78 43.2081 8.4219
369 2 0.116442 47.0904 8.64671
370 2 3.86653 47.1766 8.69983
371 2 7.69548 47.0959 8.63749
372 2 11.7261 47.18 8.5908
373 2 0.0369596 51.373 8.6789
374 2 3.9904 51.2648 8.697
375 2 7.84597 51.3471 8.54479
376 2 11.8411 51.2046 8.62751
377 2 0.0340964 55.2053 8.99363
378 2 3.85524 55.3101 8.88701
379 2 7.87858 55.1404 8.69576
380 2 11.7168 55.2868 9.02646
381 2 15.7463 59.4178 8.91146
382 2 3.88061 59.2166 8.86883
383 2 7.69469 59.3874 8.78163
384 2 11.7994 59.4879 8.72149
385 2 0.0664208 63.4354 9.03822
386 2 4.01779 63.1508 8.95294
387 2 7.78616 63.2081 9.05228
388 2 11.8536 63.2815 8.90631
389 2 -0.0499267 67.1379 9.03843
390 2 3.68716 67.2513 9.00082
391 2 7.83571 67.2694 9.16426
392 2 11.7199 67.3368 9.09529
393 2 0.0652474 71.4195 9.13834
394 2 3.94668 71.4384 9.0374
395 2 7.88158 71.3019 9.09398
396 2 11.7274 71.3175 9.00704
397 2 0.0378416 75.2942 9.36639
398 2 4.04579 75.439 9.1027
399 2 7.99446 75.4381 9.3335
400 2 11.8708 75.3322 9.36846
401 2 -0.0589834 79.3491 9.41421
402 2 3.92237 79.4333 9.26288
403 2 7.72415 79.5127 9.22215
404 2 11.6517 79.4379 9.52305
405 2 -0.0401962 83.4551 9.47508
406 2 4.08956 83.3696 9.65018
407 2 7.98736 83.5066 9.54474
408 2 11.7636 83.4634 9.58777
409 2 -0.0700913 87.4165 9.45518
410 2 4.00608 87.347 9.54846
411 2 7.93075 87.6518 9.42699
412 2 11.8866 87.4257 9.44737
413 2 0.0625835 91.3204 9.51406
414 2 3.90369 91.2992 9.48854
415 2 7.91487 91.3463 9.45702
416 2 11.896 91.424 9.57896
417 2 -0.0220158 95.2025 9.32492
418 2 3.65466 95.5455 9.35513
419 2 7.84755 95.1395 9.43099
420 2 11.9251 95.5241 9.33499
421 2 15.9172 99.1887 9.37631
422 2 3.86908 99.2351 9.38843
423 2 8.00492 99.0576 9.39245
424 2 11.7499 99.2922 9.07908
425 2 -0.0361728 103.289 9.30866
426 2 3.99804 103.09 9.3366
427 2 7.92413 103.204 9.32968
428 2 11.8339 103.215 9.34248
429 2 15.7998 107.232 9.41559
430 2 4.12935 106.883 9.28174
431 2 7.80714 107.164 9.17559
432 2 11.8689 106.962 9.29854
433 2 0.141939 110.869 9.14859
434 2 3.98574 110.946 9.03114
435 2 7.92834 110.974 9.13265
436 2 11.9957 110.842 8.97674
437 2 0.109288 114.924 9.1127
438 2 4.0742 114.921 8.94206
439 2 8.03943 114.801 8.99044
440 2 11.9053 114.896 9.35733
441 2 0.076786 118.761 9.14309
442 2 4.0133 118.642 8.94536
443 2 7.96015 118.909 9.09242
444 2 11.8206 118.693 9.27267
445 2 16.0268 122.575 9.03507
446 2 4.088 122.675 9.0684
447 2 8.14563 122.669 9.15778
448 2 11.9749 122.837 9.13558
449 2 0.00851212 126.566 9.12627
450 2 4.14548 126.534 8.97169
451 2 7.94717 126.715 9.00389
452 2 11.9315 126.861 8.94731
453 2 -0.137827 130.439 8.86459
454 2 4.0088 130.33 8.95897
455 2 7.91486 130.638 8.93684
456 2 11.8476 130.548 9.08268
457 2 0.0233745 134.419 8.94308
458 2 4.02733 134.56 8.75896
459 2 7.91687 134.481 9.01363
460 2 11.9034 134.472 9.01764
461 2 -0.108036 138.398 8.94602
462 2 3.89314 138.407 8.74538
463 2 7.83009 138.339 8.91544
464 2 11.8975 138.423 8.84934
465 2 -0.00452598 142.425 8.84728
466 2 3.91157 142.303 8.63453
467 2 7.79688 142.29 8.83719
468 2 11.6204 142.319 8.64722
469 2 15.6447 146.238 8.81476
470 2 3.93121 146.352 8.86989
471 2 7.65495 146.091 8.79994
472 2 11.8482 146.208 8.64449
473 2 15.5708 149.998 8.58269
474 2 3.70721 150.099 8.7034
475 2 7.69862 150.03 8.78701
476 2 11.6973 150.072 8.73008
477 2 15.6588 153.995 8.77211
478 2 3.83959 153.997 8.68478
479 2 7.80618 154.125 8.74189
480 2 11.7163 153.968 8.57149
481 2 15.7816 158.168 12.665
482 2 3.89112 158.044 12.5575
483 2 7.79089 158.039 12.7637
484 2 11.7723 158.202 12.5188
485 2 15.8429 3.56993 12.4379
486 2 3.90304 3.63315 12.4294
487 2 7.85728 3.59056 12.6374
488 2 11.8897 3.63053 12.3461
489 2 -0.00942222 7.55364 12.5665
490 2 3.965 7.45751 12.3618
491 2 7.86729 7.54166 12.4689
492 2 12.042 7.58959 12.4744
493 2 15.7738 11.4565 12.5864
494 2 3.86962 11.3448 12.4433
495 2 7.91566 11.2817 12.4035
496 2 11.8311 11.4441 12.4894
497 2 -0.183994 15.283 12.4011
498 2 3.78087 15.409 12.2776
499 2 7.96473 15.2921 12.4869
500 2 11.9375 15.2852 12.3507
501 2 15.8854 19.2856 12.247
502 2 3.98461 19.1961 12.2124
503 2 7.97194 19.0806 12.518
504 2 11.7947 19.252 12.3668
505 2 16.1728 23.2158 12.303
506 2 4.02525 23.1595 12.3932
507 2 7.70364 23.1164 12.3764
508 2 11.7719 23.1113 12.3107
509 2 15.8533 27.087 12.2275
510 2 3.8916 27.2055 12.1361
511 2 7.97936 27.138 12.4038
512 2 12.1491 26.9818 12.2049
513 2 0.15515 31.0603 12.3085
514 2 4.00076 30.9599 12.2115
515 2 8.10109 31.0445 12.3332
516 2 11.963 30.8998 12.4528
517 2 15.9093 34.9617 12.4281
518 2 4.05192 34.9417 12.2633
519 2 7.95238 34.9243 12.4681
520 2 12.0882 35.114 12.4296
521 2 15.8505 38.9968 12.4113
522 2 3.87796 38.9669 12.5794
523 2 8.00629 38.924 12.3782
524 2 11.9984 39.0233 12.2713
525 2 16.0721 43.0804 12.6873
526 2 3.97793 43.17 12.6459
527 2 8.03762 43.1332 12.5851
528 2 11.9199 43.1947 12.4259
529 2 15.8488 47.0224 12.5985
530 2 3.88149 47.3302 12.6105
531 2 8.07445 47.1293 12.5579
532 2 11.8703 47.1971 12.4852
533 2 0.0233958 51.1868 12.5841
534 2 4.06562 51.1585 12.5564
535 2 7.70607 51.2095 12.5818
536 2 11.8515 51.1029 12.4714
537 2 -0.292439 55.2935 12.8651
538 2 3.94973 55.3683 12.7079
539 2 7.86152 55.1959 12.4898
540 2 11.6834 55.1631 12.7414
541 2 -0.191458 59.1058 12.8432
542 2 3.89751 59.1784 12.7844
543 2 7.85623 59.2583 12.9236
544 2 11.8149 59.2685 12.924
545 2 -0.0105975 63.2443 13.0474
546 2 3.94363 63.2019 12.8244
547 2 8.05705 63.5023 12.749
548 2 11.8306 63.2194 13.0432
549 2 -0.0876268 67.3449 12.9925
550 2 3.72181 67.4665 12.9497
551 2 7.89984 67.3582 13.0136
552 2 11.767 67.224 12.881
553 2 -0.0726734 71.2693 13.0722
554 2 3.81141 71.4891 13.2771
555 2 7.80884 71.3023 12.9762
556 2 11.7135 71.1974 13.083
557 2 -0.00182877 75.3036 13.0547
558 2 3.77717 75.2492 13.16
559 2 7.99487 75.1786 13.2073
560 2 11.823 75.4126 13.1517
561 2 -0.0923356 79.3543 13.1031
562 2 4.02703 79.3008 13.2503
563 2 7.85645 79.2936 13.3791
564 2 11.6955 79.2319 13.3782
565 2 0.119903 83.3781 13.407
566 2 3.956 83.5045 13.2954
567 2 8.01327 83.5956 13.5104
568 2 11.9557 83.4377 13.209
569 2 -0.0279489 87.1912 13.3674
570 2 4.03851 87.2195 13.4602
571 2 8.03953 87.4659 13.3723
572 2 12.0633 87.574 13.658
573 2 0.0534272 91.4005 13.3866
574 2 4.04653 91.0804 13.3593
575 2 8.02475 91.2803 13.3675
576 2 11.9853 91.5047 13.3707
577 2 0.0599803 95.3792 13.5032
578 2 3.94441 95.2774 13.4416
579 2 8.05375 95.3825 13.5776
580 2 11.919 95.2315 13.3747
581 2 -0.0812645 99.2556 13.3702
582 2 3.92185 99.2174 13.2573
583 2 7.66873 99.256 13.2895
584 2 11.8297 99.3846 13.1927
585 2 0.0382809 103.205 13.2098
586 2 3.92653 103.058 13.3071
587 2 7.97729 103.181 13.4078
588 2 12.1383 103.086 13.1951
589 2 16.0991 107.213 13.4312
590 2 4.27033 107.13 13.3164
591 2 8.18033 107.04 13.2821
592 2 11.818 107.108 13.1466
593 2 0.0955701 110.937 13.2948
594 2 4.24397 111.125 13.1327
595 2 8.01189 110.869 13.2511
596 2 11.8871 110.929 13.2336
597 2 16.1099 114.737 13.0138
598 2 4.17884 114.949 13.1397
599 2 8.12682 114.876 13.1866
600 2 12.1633 114.831 13.0006
601 2 16.0366 118.713 13.0025
602 2 4.01028 118.831 13.143
603 2 8.1289 118.88 13.1715
604 2 12.2738 118.967 13.0804
605 2 0.194068 122.641 12.9752
606 2 4.19253 122.604 13.0268
607 2 8.1462 122.61 13.1182
608 2 12.1091 122.647 13.2322
609 2 16.0235 126.566 13.0009
610 2 4.24609 126.655 12.8634
611 2 8.12984 126.508 12.9423
612 2 11.9926 126.647 12.8887
613 2 16.0811 130.459 13.0247
614 2 4.15731 130.762 13.0345
615 2 7.99641 130.611 13.037
616 2 11.8865 130.499 13.0306
617 2 0.00718469 134.457 13.0227
618 2 3.88295 134.514 13.0444
619 2 8.02674 134.459 12.9196
620 2 11.9148 134.345 12.9028
621 2 0.0103218 138.347 13.0211
622 2 3.80299 138.593 12.9481
623 2 7.98778 138.412 12.9859
624 2 11.9475 138.258 12.8098
625 2 15.5991 142.324 12.77
626 2 3.76189 142.477 12.8084
627 2 7.94777 142.338 12.9221
628 2 11.7805 142.257 12.8036
629 2 -0.225961 146.108 12.7862
630 2 3.76381 146.213 12.9193
631 2 7.89945 146.182 12.7595
632 2 11.5724 146.353 12.7013
633 2 15.597 150.203 12.7937
634 2 3.9845 150.213 12.678
635 2 7.91192 150.061 12.6243
636 2 11.7778 150.321 12.7265
637 2 15.796 154.139 12.866
638 2 3.89106 153.947 12.7294
639 2 7.88432 154.092 12.7104
640 2 11.6543 154.247 12.7088
641 2 15.7763 158.037 16.6069
642 2 3.87009 158.205 16.5738
643 2 7.93835 158.062 16.5436
644 2 11.8618 158.362 16.6619
645 2 15.8853 3.81107 16.512
646 2 3.87206 3.64018 16.6449
647 2 7.84993 3.68701 16.584
648 2 11.771 3.83373 16.5822
649 2 -0.069069 7.58377 16.5905
650 2 3.94128 7.53153 16.6358
651 2 7.89217 7.50331 16.4399
652 2 11.7206 7.54663 16.356
653 2 15.7811 11.6483 16.4827
654 2 3.87392 11.5083 16.5928
655 2 7.99041 11.5035 16.4258
656 2 11.7187 11.6828 16.4807
657 2 0.228739 15.2823 16.447
658 2 4.21661 15.3208 16.4126
659 2 7.9762 15.379 16.4678
660 2 11.8333 15.5197 16.4242
661 2 15.6624 19.2952 16.5286
662 2 3.94934 19.1769 16.3904
663 2 7.84351 19.3657 16.512
664 2 12.0124 19.3352 16.2824
665 2 15.9845 23.3245 16.2632
666 2 3.87191 23.2609 16.1394
667 2 8.07168 23.2549 16.2884
668 2 11.8889 23.2645 16.2566
669 2 -0.00243793 27.0217 16.2892
670 2 4.05756 27.0586 16.3884
671 2 8.06747 27.0575 16.3519
672 2 11.9539 27.0775 16.5407
673 2 16.0122 31.1143 16.413
674 2 4.02572 31.0595 16.2705
675 2 7.94935 30.9105 16.4031
676 2 11.9169 31.0951 16.4591
677 2 16.0259 35.0528 16.2014
678 2 4.00145 34.9217 16.1904
679 2 7.89259 34.924 16.4519
680 2 11.7968 34.9687 16.3303
681 2 -0.136169 39.0836 16.5935
682 2 3.8886 38.9663 16.2479
683 2 7.87048 38.9939 16.3597
684 2 11.787 38.7783 16.3215
685 2 15.8896 43.0407 16.3226
686 2 4.11297 43.0369 16.5307
687 2 8.01338 42.9667 16.3986
688 2 11.9749 42.9514 16.4224
689 2 0.20837 46.9719 16.6223
690 2 4.11861 47.0844 16.5159
691 2 8.06707 46.9646 16.4822
692 2 12.0848 46.9445 16.4741
693 2 15.5502 51.2085 16.4474
694 2 3.8357 51.1222 16.5286
695 2 7.70631 51.1516 16.3418
696 2 11.7318 51.1128 16.4409
697 2 -0.152588 55.145 16.6015
698 2 3.89547 55.1384 16.4473
699 2 7.85892 55.0148 16.6868
700 2 11.8079 55.0853 16.6759
701 2 0.0623855 58.9714 16.5973
702 2 4.11577 59.1454 16.725
703 2 7.80371 59.1114 16.7316
704 2 11.8601 59.3775 16.8338
705 2 0.0638287 63.2261 16.8897
706 2 4.07652 63.0364 16.8287
707 2 7.96113 63.1331 16.8226
708 2 12.0389 63.1676 16.913
709 2 -0.0584454 67.3437 16.7884
710 2 3.89458 67.2213 16.7168
711 2 7.92781 67.2059 16.9163
712 2 11.733 67.3634 16.7461
713 2 -0.0631903 71.3502 17.207
714 2 3.8711 71.3334 16.9778
715 2 7.85943 71.413 16.9568
716 2 11.7877 71.3321 16.8497
717 2 0.0564356 75.3456 16.8935
718 2 4.04978 75.3979 17.0869
719 2 7.83731 75.1829 17.1412
720 2 12.0344 75.2797 17.1299
721 2 -0.0509592 79.3729 17.1358
722 2 3.90484 79.1499 17.0552
723 2 7.88262 79.4326 17.3818
724 2 11.9151 79.3318 17.2545
725 2 -0.00406399 83.1948 17.2512
726 2 3.98136 83.2227 17.2665
727 2 7.70411 83.2452 17.2425
728 2 11.8193 83.262 17.1394
729 2 -0.00947556 87.2242 17.1489
730 2 3.94786 87.444 17.3399
731 2 7.98913 87.351 17.1808
732 2 11.857 87.3986 17.4029
733 2 0.172704 91.3706 17.3393
734 2 4.01829 91.4615 17.3974
735 2 7.98495 91.3042 17.405
736 2 12.0689 91.3037 17.2929
737 2 0.0972885 95.5075 17.4281
738 2 3.90603 95.0054 17.3644
739 2 7.96409 95.3464 17.593
740 2 11.8334 95.5127 17.5189
741 2 15.7172 99.2711 17.1479
742 2 3.99032 99.2454 17.2924
743 2 7.95757 99.1058 17.3072
744 2 12.1348 99.2937 17.4712
745 2 15.9389 103.211 17.43
746 2 3.94984 103.107 17.3011
747 2 7.81567 102.985 17.3402
748 2 11.992 103.327 17.4106
749 2 15.8266 107.072 17.261
750 2 4.06389 107.017 17.3376
751 2 7.88961 106.841 17.2635
752 2 12.0756 106.953 17.2766
753 2 0.110088 110.929 17.156
754 2 4.10573 111.175 17.2942
755 2 7.96616 110.977 17.1148
756 2 12.0002 111.157 17.2773
757 2 0.150104 114.916 17.2947
758 2 4.14451 115.001 17.2719
759 2 8.14912 114.999 17.196
760 2 12.1442 114.815 17.0711
761 2 0.42287 118.964 17.0482
762 2 4.16324 118.72 17.1
763 2 8.17337 118.875 17.0909
764 2 12.036 118.862 17.0754
765 2 -0.0153259 122.903 17.0868
766 2 3.9606 122.929 17.13
767 2 8.02722 122.737 17.25
768 2 11.9922 122.775 17.0936
769 2 -0.0704842 126.737 17.0079
770 2 4.00007 126.611 17.0523
771 2 7.75476 126.653 17.1535
772 2 12.0166 126.549 17.0707
773 2 0.0376545 130.53 16.9554
774 2 4.01242 130.642 16.9423
775 2 7.86128 130.614 16.8821
776 2 11.8677 130.498 17.0157
777 2 0.073611 134.558 17.0355
778 2 4.0199 134.602 17.1947
779 2 8.12181 134.436 16.9173
780 2 12.1076 134.29 17.03
781 2 15.9456 138.273 16.9753
782 2 4.07165 138.518 16.9947
783 2 8.00523 138.483 17.1518
784 2 11.7401 138.422 16.9125
785 2 15.576 142.358 16.7882
786 2 3.87951 142.427 16.822
787 2 7.91362 142.25 16.8659
788 2 11.8761 142.61 16.9477
789 2 15.9406 146.322 16.6662
790 2 4.01971 146.285 16.7008
791 2 7.8051 146.351 16.9409
792 2 11.7462 146.292 16.9288
793 2 15.8061 150.357 16.7996
794 2 3.8317 150.31 16.7633
795 2 7.72137 150.163 16.6398
796 2 11.7776 150.198 16.8996
797 2 0.0965424 154.215 16.6229
798 2 3.97547 153.991 16.6679
799 2 7.79351 154.098 16.6857
800 2 11.741 154.227 16.6922
801 2 0.0838145 157.983 20.6603
802 2 4.08767 158.123 20.6978
803 2 7.88059 158.194 20.6607
804 2 11.9434 158.027 20.5541
805 2 15.8172 3.59437 20.7595
806 2 3.85322 3.66181 20.5789
807 2 7.91092 3.76668 20.6045
808 2 11.7899 3.81581 20.6483
809 2 -0.154353 7.89623 20.4888
810 2 3.86586 7.59196 20.5884
811 2 7.70888 7.69441 20.6064
812 2 11.9456 7.73766 20.6063
813 2 15.8395 11.6313 20.5727
814 2 4.16435 11.4944 20.6028
815 2 7.86688 11.5616 20.6117
816 2 11.89 11.4783 20.598
817 2 15.8305 15.3154 20.6959
818 2 3.92704 15.5617 20.5789
819 2 7.95723 15.614 20.5618
820 2 11.912 15.5174 20.4096
821 2 15.9768 19.2853 20.6168
822 2 3.97211 19.4415 20.3531
823 2 7.99662 19.546 20.2032
824 2 12.0591 19.2406 20.4189
825 2 15.8473 23.2192 20.3793
826 2 4.01575 23.4091 20.4285
827 2 8.19196 23.2724 20.3471
828 2 11.9111 23.4548 20.5312
829 2 -0.108246 27.1743 20.3959
830 2 4.24829 27.0216 20.3171
831 2 7.93497 27.2765 20.35
832 2 12.0169 27.349 20.4265
833 2 0.305711 31.1228 20.4937
834 2 3.95901 31.0242 20.2493
835 2 7.95265 31.1087 20.3352
836 2 12.1124 31.1265 20.2032
837 2 15.7123 35.0434 20.3588
838 2 3.96495 35.0057 20.2944
839 2 7.88829 35.0822 20.4707
840 2 11.8972 34.9564 20.2645
841 2 0.0862227 38.8156 20.2942
842 2 4.01377 39.0153 20.1951
843 2 7.89816 38.9068 20.3382
844 2 11.9003 38.9476 20.2829
845 2 0.215963 42.9376 20.5469
846 2 4.32233 43.1201 20.4768
847 2 8.10523 42.8587 20.3042
848 2 11.828 43.0512 20.3406
849 2 0.0737924 46.9953 20.4526
850 2 4.19169 46.9484 20.3271
851 2 8.13486 47.0392 20.364
852 2 12.1294 47.0379 20.393
853 2 0.0355502 51.0236 20.3344
854 2 4.26991 50.8723 20.3479
855 2 8.03398 51.1178 20.2815
856 2 11.861 51.0124 20.4151
857 2 0.0240137 55.0583 20.3278
858 2 3.80683 55.0484 20.501
859 2 7.68589 55.0842 20.6413
860 2 11.619 54.9561 20.5863
861 2 15.7916 59.1043 20.5787
862 2 4.02367 58.9235 20.7234
863 2 8.09037 59.277 20.7832
864 2 11.778 59.1862 20.7826
865 2 15.8796 63.2389 20.7079
866 2 3.94791 63.0287 20.6611
867 2 7.83771 63.3614 20.671
868 2 11.7784 63.1374 20.6767
869 2 -0.142335 67.0535 20.6888
870 2 3.84695 66.9955 20.8161
871 2 7.91185 67.1844 20.7316
872 2 11.7427 67.2441 20.7435
873 2 -0.0174373 71.0835 21.1506
874 2 3.88325 71.2934 20.9196
875 2 7.96324 71.3988 20.6904
876 2 11.998 71.1432 20.7042
877 2 0.0494189 75.2671 20.9501
878 2 3.92552 75.2397 20.9883
879 2 8.00769 75.2489 21.0015
880 2 11.9706 75.1676 20.9596
881 2 0.124157 79.3843 21.1252
882 2 3.93759 79.3025 21.2168
883 2 7.99672 79.2652 21.2077
884 2 11.9189 79.1461 21.0475
885 2 -0.2879 83.2576 20.9665
886 2 4.06696 83.4129 21.2023
887 2 8.02883 83.3241 21.1266
888 2 11.8137 83.2656 21.0906
889 2 0.029044 87.1243 21.0417
890 2 3.80059 87.3594 21.2193
891 2 7.81019 87.3978 20.9757
892 2 11.7363 87.2708 21.026
893 2 -0.0259099 91.1203 21.2773
894 2 4.225 91.1362 21.4374
895 2 8.0462 91.4759 21.4194
896 2 11.9743 91.316 21.0738
897 2 16.0447 95.5313 21.4945
898 2 4.09527 95.4344 21.2277
899 2 8.07847 95.2175 21.4645
900 2 12.0368 95.4342 21.3114
901 2 0.206882 99.3825 21.3379
902 2 4.15409 99.4768 21.3792
903 2 8.01188 99.3916 21.4914
904 2 11.7205 99.3489 21.4202
905 2 15.8461 103.18 21.4831
906 2 3.76501 103.279 21.3611
907 2 7.9899 103.243 21.25
908 2 11.8308 103.196 21.5432
909 2 0.0789321 107.156 21.2403
910 2 4.09004 107.186 21.2992
911 2 7.9788 107.067 21.3754
912 2 11.9176 107.217 21.4125
913 2 16.1355 110.842 21.2993
914 2 4.14541 111.279 21.2208
915 2 8.01974 111.096 21.3255
916 2 11.9891 111.002 21.2235
917 2 0.232368 115.06 21.2381
918 2 4.14536 115.119 21.1958
919 2 8.1659 114.976 21.3035
920 2 12.0667 114.798 21.1904
921 2 0.087903 118.992 21.2318
922 2 4.05218 118.937 21.129
923 2 8.07949 118.801 21.1727
924 2 12.2275 118.772 21.0701
925 2 0.300933 122.726 21.0373
926 2 4.14698 122.71 21.091
927 2 8.22978 122.756 21.1996
928 2 12.0729 122.827 21.084
929 2 0.0869864 126.673 20.9907
930 2 3.918 126.578 21.1058
931 2 7.94861 126.876 21.234
932 2 11.7693 126.568 21.2336
933 2 0.097566 130.584 21.0957
934 2 3.90585 130.595 20.902
935 2 7.82459 130.546 21.1631
936 2 11.8321 130.584 21.0603
937 2 15.961 134.43 21.0374
938 2 3.91877 134.611 21.1464
939 2 8.08783 134.606 21.0512
940 2 12.0709 134.771 21.1584
941 2 16.0327 138.68 20.819
942 2 4.04564 138.512 20.8161
943 2 7.87015 138.626 21.0145
944 2 12.0841 138.538 20.9661
945 2 15.9329 142.567 20.9457
946 2 4.11444 142.302 20.7362
947 2 8.10295 142.516 21.0028
948 2 11.9811 142.542 20.8243
949 2 0.14761 146.363 20.8118
950 2 4.04294 146.331 20.917
951 2 7.91916 146.21 20.8502
952 2 12.0216 146.469 20.7245
953 2 15.8551 150.2 20.8792
954 2 3.98259 150.263 20.9238
955 2 7.79069 150.387 20.776
956 2 12.083 150.167 20.9827
957 2 0.0175064 154.148 20.7692
958 2 4.08332 154.272 20.5352
959 2 8.07716 154.317 20.6291
960 2 12.0047 154.169 20.697
961 2 -0.083647 158.177 24.7846
962 2 3.81025 158.141 24.7628
963 2 7.98223 158.085 24.6536
964 2 11.8643 158.316 24.9181
965 2 15.818 3.88684 24.646
966 2 3.86619 3.8492 24.5371
967 2 8.18138 3.73136 24.6548
968 2 11.9039 3.53721 24.6137
969 2 0.015902 7.57457 24.6246
970 2 3.78411 7.67528 24.5433
971 2 7.86025 7.49742 24.7955
972 2 11.9251 7.60622 24.6883
973 2 0.0564756 11.5815 24.5089
974 2 4.01323 11.6719 24.6691
975 2 8.11975 11.5638 24.5021
976 2 11.8763 11.4608 24.6748
977 2 0.021726 15.4424 24.6045
978 2 4.07977 15.5304 24.664
979 2 7.87317 15.4807 24.5848
980 2 11.7619 15.3981 24.5658
981 2 15.7098 19.4287 24.3821
982 2 3.89264 19.196 24.44
983 2 7.80419 19.5219 24.3904
984 2 11.9131 19.5267 24.4656
985 2 0.0952363 23.3122 24.4401
986 2 3.9658 23.3498 24.4327
987 2 7.7091 23.0796 24.3798
988 2 11.6913 23.452 24.2923
989 2 0.0444072 27.1238 24.5442
990 2 4.01452 27.2185 24.445
991 2 7.94031 27.1527 24.5146
992 2 11.9417 27.193 24.4921
993 2 0.0675281 31.0583 24.2745