ITEM: TIMESTEP
18100
ITEM: NUMBER OF ATOMS
32000
ITEM: BOX BOUNDS xy xz yz pp pp pp
0.0000000000000000e+00 1.5832000000000001e+01 0.0000000000000000e+00
0.0000000000000000e+00 1.5831999999999999e+02 0.0000000000000000e+00
7.8137254539836931e-01 1.6019574545459898e+02 0.0000000000000000e+00
ITEM: ATOMS id type x y z
1 2 0.0346191 157.815 160.072
2 2 3.93175 157.674 159.861
3 2 7.92762 157.981 159.812
4 2 11.7745 157.978 160.08
5 2 15.7836 3.44908 159.916
6 2 3.97937 3.26729 159.933
7 2 7.6808 3.50317 159.897
8 2 11.8726 3.38109 159.887
9 2 -0.203265 7.28919 159.931
10 2 3.92702 7.12419 159.801
11 2 7.85093 7.22197 159.907
12 2 11.7042 7.20986 159.908
13 2 -0.100919 11.1074 159.986
14 2 3.81925 11.2437 159.727
15 2 7.83059 11.1066 159.775
16 2 11.798 11.2288 159.752
17 2 15.5136 15.0112 159.652
18 2 3.76554 15.128 159.89
19 2 7.89985 15.2053 159.772
20 2 11.7809 15.1973 159.767
21 2 0.270159 19.0674 159.907
22 2 3.97369 18.9897 159.867
23 2 7.8205 19.1666 159.767
24 2 11.6298 19.3307 159.747
25 2 15.9453 23.0737 0.543117
26 2 3.97468 22.9938 159.944
27 2 7.90199 23.096 159.91
28 2 11.8812 23.0609 159.85
29 2 15.8994 27.1191 160.047
30 2 3.95833 27.2012 159.939
31 2 8.14971 27.1172 160.082
32 2 12.0999 27.1236 159.974
33 2 16.0616 31.2525 160.014
34 2 3.95575 31.1184 159.962
35 2 8.03228 31.1412 160.146
36 2 11.8512 31.1327 0.258928
37 2 15.6303 35.2486 160.038
38 2 3.83746 35.2985 0.682163
39 2 7.81624 35.0127 160.065
40 2 11.8712 35.155 0.659128
41 2 -0.0863691 39.1632 160.157
42 2 4.11918 39.2494 0.629677
43 2 7.9987 39.3144 0.684313
44 2 11.8721 39.2218 160.16
45 2 0.103138 43.3239 0.609983
46 2 3.88395 43.0879 0.722201
47 2 7.83577 43.3359 0.711073
48 2 12.1142 43.5944 0.992176
49 2 15.7673 47.1414 0.869757
50 2 3.80805 47.1526 0.820654
51 2 7.80453 47.3054 0.935241
52 2 11.9636 47.5145 0.798525
53 2 -0.0224474 51.2738 0.894859
54 2 4.21258 51.2961 0.804326
55 2 7.92768 51.4127 1.07218
56 2 11.9105 51.2632 160.237
57 2 -0.0753146 55.4192 0.886883
58 2 3.75818 55.457 1.05907
59 2 7.82844 55.4645 0.966684
60 2 11.6957 55.4241 0.889886
61 2 -0.136257 59.3041 1.19677
62 2 3.79303 59.4695 1.03107
63 2 7.8147 59.3863 1.24085
64 2 11.9184 59.3229 1.06469
65 2 -0.114043 63.3507 1.26611
66 2 3.94624 63.4667 1.18712
67 2 8.06165 63.4703 1.11982
68 2 11.7891 63.2993 1.17535
69 2 -0.0902123 67.4435 1.23503
70 2 4.05347 67.6543 1.3357
71 2 7.81345 67.3732 1.23893
72 2 11.9563 67.4461 1.49288
73 2 15.8023 71.4328 1.31906
74 2 3.9103 71.4862 1.27256
75 2 7.88507 71.6532 1.26696
76 2 11.846 71.7187 1.27867
77 2 0.0171447 75.5124 1.17313
78 2 4.04525 75.6104 1.48197
79 2 7.97329 75.6491 1.31346
80 2 12.0321 75.7213 1.64848
81 2 -0.243827 79.3608 1.48544
82 2 3.92265 79.3181 1.51473
83 2 7.92627 79.5212 1.47425
84 2 11.8039 79.7599 1.58409
85 2 0.0477691 83.3344 1.59998
86 2 3.93435 83.4564 1.45422
87 2 7.9594 83.5042 1.47845
88 2 11.8735 83.4685 1.40534
89 2 0.000349348 87.2935 1.43973
90 2 3.79529 87.4672 1.41614
91 2 7.84998 87.5368 1.44968
92 2 11.8461 87.3758 1.46664
93 2 -0.211457 91.3757 1.36814
94 2 3.88937 91.4544 1.41388
95 2 7.8843 91.3561 1.57789
96 2 11.8673 91.1823 1.0988
97 2 0.0153226 95.0286 1.36831
98 2 3.84729 95.3105 1.47383
99 2 7.80185 95.1547 1.45366
100 2 11.8273 95.0881 1.44445
101 2 0.148562 99.2399 1.28841
102 2 4.01439 99.1404 1.27392
103 2 7.79037 99.0614 1.35538
104 2 11.8343 99.127 1.32222
105 2 15.879 103.081 1.32948
106 2 4.03447 103.124 1.29624
107 2 7.88855 102.996 1.34289
108 2 11.922 103.215 1.22496
109 2 15.8448 106.936 1.26448
110 2 4.00047 106.939 1.25906
111 2 8.07098 107.06 1.20193
112 2 11.8557 106.995 1.30669
113 2 -0.0346493 111.001 1.23246
114 2 3.8548 111.044 1.09605
115 2 8.04539 111.014 1.35949
116 2 12.0343 111.001 1.10327
117 2 0.100778 114.766 1.05754
118 2 3.8387 114.774 1.0439
119 2 7.83917 114.767 0.894146
120 2 11.8992 114.989 0.952353
121 2 15.8793 118.672 0.966202
122 2 4.04547 118.604 0.916039
123 2 7.75824 118.575 0.967493
124 2 11.846 118.7 160.518
125 2 0.115996 122.613 0.934916
126 2 4.00649 122.711 1.02961
127 2 7.90669 122.732 0.983072
128 2 11.9402 122.611 1.15454
129 2 0.0575688 126.673 160.482
130 2 4.18621 126.727 160.201
131 2 7.84823 126.547 0.79183
132 2 11.7718 126.633 0.999168
133 2 -0.174868 130.28 160.325
134 2 3.82401 130.57 160.301
135 2 7.84584 130.451 0.842698
136 2 11.7983 130.39 160.217
137 2 -0.14551 134.247 160.045
138 2 3.78172 134.355 160.297
139 2 7.8743 134.37 0.866407
140 2 11.851 134.292 160.312
141 2 -0.0979986 138.285 160.402
142 2 3.8246 138.198 160.321
143 2 7.94536 138.247 160.347
144 2 11.9231 138.268 0.924945
145 2 15.9548 142.02 160.248
146 2 3.91232 142.253 160.351
147 2 7.98195 142.141 160.207
148 2 11.9054 142.254 160.081
149 2 -0.0102271 146.061 160.194
150 2 3.93866 146.096 159.925
151 2 7.92644 146.109 160.001
152 2 11.9356 146.207 160.119
153 2 15.739 150.11 160.107
154 2 4.21135 149.927 160.101
155 2 7.96399 149.959 160.077
156 2 11.9268 149.942 159.965
157 2 15.7702 153.897 159.983
158 2 4.02006 153.85 160.015
159 2 7.94885 153.966 160.027
160 2 11.8061 154.077 159.947
161 2 15.7932 158.108 4.55917
162 2 3.93364 157.931 4.5836
163 2 7.83171 157.879 4.55771
164 2 11.8971 157.872 4.65015
165 2 15.7957 3.44447 4.64587
166 2 3.96049 3.48392 4.37649
167 2 7.80891 3.72546 4.51369
168 2 11.8055 3.56072 4.53675
169 2 15.8879 7.34796 4.59098
170 2 3.84877 7.26772 4.59823
171 2 8.10309 7.47813 4.43712
172 2 12.1388 7.56256 4.48645
173 2 15.7489 11.1586 4.55446
174 2 3.76232 11.3327 4.50779
175 2 7.82744 11.3314 4.45722
176 2 11.9363 11.282 4.57525
177 2 15.92 15.1984 4.41847
178 2 3.82212 15.1493 4.44088
179 2 7.71531 15.0733 4.28069
180 2 11.7868 15.0941 4.2549
181 2 -0.131513 19.1002 4.39431
182 2 3.82416 19.0475 4.57948
183 2 7.91981 19.0747 4.2578
184 2 11.9291 18.8855 4.12654
185 2 15.8342 23.0279 4.22134
186 2 3.90909 23.0405 4.35425
187 2 7.98498 23.0626 4.56713
188 2 11.8834 22.9917 4.58782
189 2 15.9643 27.0665 4.47798
190 2 4.09417 27.1791 4.63075
191 2 7.70923 27.1265 4.45334
192 2 11.9189 27.1484 4.30331
193 2 15.7879 31.1815 4.58579
194 2 3.77891 31.1504 4.5414
195 2 8.10748 31.4141 4.4279
196 2 11.983 31.1006 4.53488
197 2 -0.181618 35.1719 4.45262
198 2 3.97677 35.2868 4.5309
199 2 8.00326 35.3305 4.56799
200 2 11.7844 35.0117 4.61096
201 2 0.0335292 39.0872 4.61237
202 2 4.07863 39.3799 4.46029
203 2 8.11561 39.3415 4.62064
204 2 11.8368 39.2365 4.6067
205 2 -0.139936 43.1609 4.53017
206 2 3.96907 43.1779 4.6616
207 2 8.11023 43.4679 4.57834
208 2 11.9595 43.2485 4.84104
209 2 15.8189 47.4229 4.7843
210 2 4.00493 47.1179 4.82309
211 2 8.02842 47.3391 4.67734
212 2 11.8297 47.3427 4.91841
213 2 0.15423 51.149 4.69123
214 2 3.81539 51.1993 5.02578
215 2 7.86387 51.4056 4.94558
216 2 11.7943 51.4401 4.74614
217 2 0.0804239 55.3885 4.7258
218 2 3.94092 55.2944 4.80699
219 2 7.88539 55.2106 5.00692
220 2 11.7379 55.3643 4.80492
221 2 -0.0046828 59.2544 5.07108
222 2 3.86365 59.2944 4.88845
223 2 7.73558 59.1497 5.04774
224 2 11.7836 59.3369 4.91095
225 2 -0.0889231 63.239 5.06675
226 2 4.02341 63.4076 5.08039
227 2 7.60392 63.4379 5.01817
228 2 11.8028 63.2781 5.07943
229 2 0.0381367 67.5706 4.95347
230 2 3.74911 67.4753 5.16697
231 2 7.75385 67.6849 5.0948
232 2 11.8314 67.3927 5.14098
233 2 -0.12901 71.5239 5.27962
234 2 3.72052 71.6192 5.32482
235 2 7.94223 71.4681 5.25139
236 2 11.7805 71.4251 5.26503
237 2 -0.0475433 75.4722 5.12377
238 2 4.03208 75.5495 5.40647
239 2 7.89301 75.5032 5.3493
240 2 11.7973 75.3252 5.29275
241 2 0.225498 79.3439 5.32588
242 2 4.04373 79.4682 5.44043
243 2 7.80608 79.4863 5.53612
244 2 11.9267 79.436 5.47472
245 2 15.7136 83.536 5.42423
246 2 3.95879 83.4494 5.48478
247 2 7.77225 83.5265 5.41843
248 2 11.7627 83.5694 5.5063
249 2 -0.0117366 87.4783 5.16813
250 2 3.73537 87.4861 5.47378
251 2 7.96589 87.3286 5.53438
252 2 11.7635 87.4051 5.39631
253 2 -0.0731034 91.319 5.41619
254 2 3.87683 91.4658 5.4547
255 2 7.71931 91.4274 5.22468
256 2 11.7933 91.2074 5.28977
257 2 -0.0297416 95.2566 5.51888
258 2 3.88727 95.3078 5.46616
259 2 7.99689 95.4674 5.23528
260 2 11.8334 95.2497 5.59349
261 2 -0.0986354 99.1437 5.27111
262 2 3.87548 99.2727 5.38082
263 2 7.97545 99.2615 5.31769
264 2 11.9153 99.0648 5.32466
265 2 15.8927 103.135 5.22549
266 2 3.99035 103.213 5.08628
267 2 7.98113 103.073 5.29014
268 2 11.7909 103.018 5.05659
269 2 -0.0138796 107.035 5.1271
270 2 4.07836 107.009 5.32398
271 2 7.95677 106.93 5.26012
272 2 11.804 106.965 5.38382
273 2 0.0539946 110.957 5.13062
274 2 4.07306 111.033 5.30578
275 2 7.81089 111.043 5.32014
276 2 11.8786 111.097 5.20696
277 2 16.0302 114.935 4.87962
278 2 4.16953 114.82 5.31235
279 2 8.02578 114.977 5.05633
280 2 11.9113 114.841 5.18701
281 2 16.0148 118.664 4.93118
282 2 4.17697 118.663 5.11973
283 2 7.83135 118.769 4.94343
284 2 11.9066 118.738 4.96817
285 2 16.0596 122.606 4.96608
286 2 4.02123 122.649 5.03943
287 2 7.97714 122.623 5.02355
288 2 11.9865 122.498 4.91942
289 2 -0.124254 126.585 5.02074
290 2 3.70624 126.634 4.86588
291 2 7.96923 126.506 5.00748
292 2 11.81 126.578 4.9556
293 2 -0.00982094 130.36 5.01208
294 2 4.14728 130.433 5.02527
295 2 7.82654 130.263 4.93334
296 2 11.8268 130.574 4.84998
297 2 -0.18331 134.433 4.76357
298 2 3.86989 134.329 4.79045
299 2 7.84404 134.451 4.83141
300 2 11.7745 134.316 4.84055
301 2 15.9378 138.247 4.90665
302 2 3.76749 138.274 4.95108
303 2 7.73458 138.415 4.80356
304 2 11.8707 138.364 4.87096
305 2 0.0701711 142.215 4.78342
306 2 3.91385 142.251 4.80049
307 2 7.91317 142.337 4.75468
308 2 11.9815 142.213 4.6948
309 2 15.6193 146.216 4.67227
310 2 3.80724 146.271 4.60716
311 2 7.84199 146.065 4.75271
312 2 11.8238 146.013 4.6739
313 2 -0.0370894 149.852 4.70503
314 2 3.94093 150.039 4.69685
315 2 7.85262 150.055 4.64691
316 2 12.0399 150.11 4.65737
317 2 15.7071 154.018 4.4969
318 2 3.94591 154.013 4.43957
319 2 7.97628 154.121 4.54489
320 2 11.9407 153.906 4.60319
321 2 15.7538 158.086 8.61508
322 2 3.92437 157.96 8.4283
323 2 7.93421 157.895 8.63757
324 2 11.856 158.102 8.5391
325 2 15.8077 3.66696 8.70605
326 2 3.89311 3.53796 8.58905
327 2 7.83342 3.6127 8.58721
328 2 11.878 3.55676 8.5983
329 2 -0.123353 7.52509 8.67348
330 2 3.86386 7.50664 8.78503
331 2 7.85876 7.40533 8.62249
332 2 11.794 7.4846 8.448
333 2 15.6057 11.5172 8.53113
334 2 3.93549 11.3497 8.52887
335 2 7.86281 11.3979 8.47896
336 2 11.8113 11.436 8.48854
337 2 -0.154177 15.3726 8.40659
338 2 3.84214 15.3491 8.46736
339 2 7.8983 15.1638 8.48952
340 2 11.5874 15.1244 8.30066
341 2 -0.0197199 19.1992 8.64816
342 2 3.87195 19.1911 8.49248
343 2 7.80989 19.1792 8.45655
344 2 11.9272 18.8536 8.28539
345 2 -0.101693 23.0369 8.47094
346 2 3.77834 23.1764 8.38314
347 2 7.90958 23.0697 8.28908
348 2 11.7588 23.1411 8.3697
349 2 15.8093 26.9709 8.33695
350 2 3.85837 27.0249 8.66146
351 2 7.87353 27.0043 8.30274
352 2 11.8672 27.0026 8.32136
353 2 15.9916 30.8882 8.51472
354 2 3.95065 30.9591 8.52052
355 2 7.98088 30.9843 8.47324
356 2 11.8987 31.1493 8.37256
357 2 16.0275 35.1803 8.51303
358 2 4.08954 35.2842 8.61253
359 2 7.71205 35.1868 8.3301
360 2 12.1123 35.0892 8.56472
361 2 15.675 39.1061 8.42746
362 2 3.9868 39.2711 8.29327
363 2 7.97297 39.2482 8.61366
364 2 11.8422 39.1277 8.54776
365 2 15.8761 43.17 8.52224
366 2 3.84334 43.2194 8.59538
367 2 8.18457 43.1396 8.44026
368 2 11.9618 43.2231 8.71774
369 2 0.0417499 47.1823 8.69992
370 2 4.03575 47.1573 8.75217
371 2 8.07297 47.2803 8.78798
372 2 11.86 47.3714 8.74421
373 2 -0.181062 51.2833 8.86473
374 2 3.85632 51.1014 8.82569
375 2 7.96586 51.1468 8.93419
376 2 11.7542 51.4134 8.81905
377 2 -0.0560786 55.2356 8.7584
378 2 4.05025 55.1813 8.80451
379 2 7.85293 55.1319 8.90945
380 2 11.7987 55.1263 8.78133
381 2 15.7533 59.2766 8.81591
382 2 4.01241 59.2695 8.8149
383 2 7.84347 59.4043 8.99763
384 2 11.9598 59.2129 8.91945
385 2 -0.19304 63.3886 8.8323
386 2 3.72579 63.3915 8.92207
387 2 7.87515 63.3002 8.95123
388 2 11.8125 63.3109 8.80116
389 2 0.00511388 67.2722 9.00146
390 2 4.11661 67.236 9.01211
391 2 8.04015 67.3262 8.95756
392 2 11.7517 67.3733 9.01339
393 2 -0.127446 71.3797 9.22484
394 2 3.84366 71.5008 9.13381
395 2 7.86746 71.2964 9.18078
396 2 11.9908 71.5897 9.22173
397 2 0.0996128 75.4722 9.27257
398 2 3.90773 75.286 9.33866
399 2 7.91764 75.5068 9.06115
400 2 11.8897 75.3822 9.32041
401 2 0.0487676 79.2949 9.32
402 2 3.88532 79.4382 9.29724
403 2 8.1263 79.3376 9.46242
404 2 12.0031 79.4948 9.24959
405 2 0.0260228 83.5271 9.42351
406 2 3.76596 83.413 9.30595
407 2 7.74648 83.2718 9.23958
408 2 11.9018 83.5702 9.53507
409 2 -0.0272291 87.4361 9.47954
410 2 3.83131 87.4551 9.52907
411 2 7.73258 87.5985 9.28994
412 2 11.7482 87.3822 9.42143
413 2 -0.111302 91.5026 9.5912
414 2 3.85331 91.2258 9.2397
415 2 8.02118 91.1901 9.51543
416 2 11.7509 91.249 9.54225
417 2 -0.00239773 95.3196 9.35129
418 2 4.03557 95.1847 9.41024
419 2 8.04849 95.4863 9.46433
420 2 11.7214 95.0914 9.36976
421 2 15.8073 99.0806 9.43238
422 2 3.91438 99.1257 9.42661
423 2 7.83808 99.3146 9.3323
424 2 11.719 99.223 9.43842
425 2 0.0295524 103.024 9.42458
426 2 4.02842 103.214 9.21229
427 2 7.95582 102.962 9.29721
428 2 11.9269 103.127 9.20118
429 2 15.7988 106.877 9.15978
430 2 4.0653 107.108 9.13612
431 2 7.98859 107.021 9.35102
432 2 12.0148 107.103 9.44074
433 2 -0.0328788 110.93 9.19631
434 2 4.05452 110.914 9.30581
435 2 7.99063 111.002 9.37602
436 2 11.9238 111.018 9.06714
437 2 0.221247 115.095 9.21016
438 2 3.94657 114.832 9.11676
439 2 7.84525 115.009 9.34859
440 2 12.2219 115.017 8.94176
441 2 0.253868 118.825 9.23376
442 2 4.04225 118.783 9.22296
443 2 8.09386 118.795 9.11899
444 2 12.2274 118.691 9.04496
445 2 15.8656 122.736 9.08153
446 2 4.03159 122.907 9.14632
447 2 8.06212 122.667 8.94012
448 2 11.9246 122.672 8.831
449 2 0.117525 126.552 8.88227
450 2 3.99452 126.712 8.9629
451 2 7.96667 126.544 8.87015
452 2 11.8521 126.524 9.07499
453 2 0.102763 130.612 8.90723
454 2 4.13985 130.524 8.87318
455 2 8.18501 130.448 8.8575
456 2 11.991 130.376 8.94799
457 2 -0.030866 134.632 8.86783
458 2 4.09298 134.376 8.63144
459 2 7.92625 134.345 8.91265
460 2 11.7925 134.56 8.9305
461 2 -0.0391116 138.18 8.86401
462 2 4.2706 138.334 8.83664
463 2 8.10221 138.265 8.77418
464 2 11.8829 138.321 8.90533
465 2 -0.00749871 142.145 9.01567
466 2 3.97566 142.267 8.82995
467 2 7.83698 142.157 8.64038
468 2 11.8474 142.433 8.7578
469 2 15.7051 146.274 8.79112
470 2 4.08433 146.111 8.61532
471 2 7.97669 146.293 8.65136
472 2 11.936 146.262 8.72549
473 2 16.0167 150.12 8.57042
474 2 4.18353 150.084 8.54595
475 2 7.88049 150.179 8.76191
476 2 11.78 150.095 8.7897
477 2 15.7614 154.139 8.54709
478 2 4.04507 154.165 8.47273
479 2 7.91725 153.971 8.78435
480 2 11.9544 154.09 8.59231
481 2 15.9151 158 12.6671
482 2 3.95032 158.119 12.6306
483 2 8.04238 158.105 12.5964
484 2 11.9681 157.933 12.5118
485 2 15.6667 3.59472 12.7483
486 2 4.08371 3.50898 12.7597
487 2 8.0017 3.532 12.6668
488 2 11.7093 3.47728 12.7944
489 2 -0.144741 7.30738 12.6322
490 2 3.90508 7.60414 12.5215
491 2 7.92093 7.53548 12.5127
492 2 11.6612 7.55338 12.7277
493 2 16.0158 11.5998 12.5427
494 2 3.92083 11.506 12.6146
495 2 7.89431 11.5084 12.4858
496 2 11.8991 11.3908 12.6645
497 2 -0.134696 15.2176 12.4343
498 2 4.14303 15.3738 12.4042
499 2 7.94811 15.3639 12.5275
500 2 11.9246 15.2605 12.4698
501 2 15.7317 19.1332 12.5389
502 2 3.91754 19.3719 12.55
503 2 7.93918 19.2812 12.4211
504 2 11.7902 19.3003 12.2596
505 2 15.7182 23.023 12.5133
506 2 4.00945 23.1584 12.4505
507 2 8.14917 23.0572 12.3995
508 2 11.829 23.2346 12.3773
509 2 15.8841 27.0964 12.4133
510 2 3.88101 26.8549 12.3192
511 2 7.73983 26.8326 12.2036
512 2 11.7207 27.109 12.4377
513 2 -0.0405125 30.9802 12.2777
514 2 3.88765 31.0596 12.3885
515 2 7.93136 31.1039 12.2653
516 2 11.7439 30.9521 12.1429
517 2 15.9221 35.0057 12.3399
518 2 3.90318 35.2149 12.5143
519 2 7.88662 35.1992 12.4047
520 2 11.7617 34.9195 12.271
521 2 15.9577 38.8983 12.3027
522 2 3.89006 39.2922 12.4383
523 2 7.92527 39.0584 12.574
524 2 11.997 38.8875 12.5744
525 2 15.9777 43.0327 12.386
526 2 3.88044 43.0108 12.4472
527 2 8.08098 43.1005 12.4842
528 2 11.9355 43.0894 12.4409
529 2 15.9573 47.0416 12.6287
530 2 4.06466 47.103 12.5886
531 2 7.82522 46.9938 12.6626
532 2 11.7494 47.0575 12.7764
533 2 -0.0305668 51.0909 12.7104
534 2 3.95623 51.0723 12.5718
535 2 7.91122 51.0759 12.7654
536 2 11.9281 51.1145 12.8203
537 2 0.0504445 55.1278 12.6815
538 2 3.90549 55.1667 12.769
539 2 7.82226 55.0364 12.8289
540 2 11.9239 55.0742 12.6797
541 2 0.0737042 59.1181 12.8211
542 2 3.8728 59.1543 12.8143
543 2 7.83601 59.1561 12.784
544 2 11.8196 59.0261 12.7803
545 2 0.0062126 63.3333 12.6813
546 2 3.78229 63.2628 12.7595
547 2 7.73111 63.1618 12.9162
548 2 11.7729 63.3072 13.012
549 2 -0.141629 67.2121 12.9029
550 2 4.0445 67.2338 12.9494
551 2 7.95516 67.302 12.7013
552 2 11.7357 67.3516 12.8559
553 2 0.080311 71.3038 13.0462
554 2 4.04011 71.2883 12.8657
555 2 8.13773 71.3141 13.1489
556 2 11.8738 71.3913 13.1797
557 2 0.138674 75.5142 13.0611
558 2 3.95285 75.1545 13.14
559 2 7.75315 75.4729 13.0966
560 2 11.9686 75.3172 13.0101
561 2 0.031272 79.5168 13.3911
562 2 4.00348 79.5925 13.4911
563 2 7.88372 79.4425 13.032
564 2 12.088 79.1757 13.1301
565 2 0.00442074 83.4048 13.2669
566 2 3.97311 83.5241 13.2892
567 2 7.73824 83.3561 13.0892
568 2 11.7021 83.4221 13.4055
569 2 -0.0737351 87.4852 13.548
570 2 4.04848 87.5912 13.5396
571 2 7.85511 87.3254 13.42
572 2 11.8766 87.2341 13.3495
573 2 -0.0437769 91.3938 13.5861
574 2 3.84828 91.4496 13.3661
575 2 7.91631 91.425 13.5147
576 2 11.738 91.3231 13.429
577 2 0.0610808 95.2604 13.4326
578 2 3.95206 95.5382 13.532
579 2 7.80675 95.2729 13.3016
580 2 11.9093 95.306 13.4766
581 2 0.0510291 99.37 13.3657
582 2 3.9645 99.5075 13.3552
583 2 7.99667 99.3641 13.3405
584 2 12.0895 99.2732 13.4845
585 2 0.0554803 102.97 13.346
586 2 3.93163 103.211 13.4852
587 2 7.81722 103.247 13.2647
588 2 11.7756 103.269 13.2427
589 2 15.681 106.94 13.1252
590 2 3.80939 107.048 13.3722
591 2 7.74321 107.175 13.2076
592 2 11.7737 107.2 13.1894
593 2 0.0910295 111.011 13.2033
594 2 3.92752 110.91 13.3456
595 2 8.14289 110.983 13.1344
596 2 12.1096 110.889 13.1063
597 2 15.8748 115.027 13.1793
598 2 4.00401 114.909 13.1435
599 2 8.08955 114.922 13.244
600 2 11.9163 114.895 13.2197
601 2 15.8681 118.939 13.0346
602 2 4.05831 118.802 13.1441
603 2 8.171 118.842 13.0966
604 2 12.0162 118.842 13.1437
605 2 0.0475133 122.712 13.1255
606 2 4.06609 122.739 13.0132
607 2 7.89421 122.77 12.9174
608 2 11.9844 122.684 12.9968
609 2 15.812 126.791 12.8872
610 2 3.99598 126.554 13.1066
611 2 7.99212 126.78 12.924
612 2 11.8937 126.78 12.9713
613 2 15.6631 130.679 13.0044
614 2 3.94784 130.603 12.9111
615 2 7.98326 130.616 12.9756
616 2 12.045 130.801 12.7783
617 2 0.147002 134.524 12.9795
618 2 4.09978 134.495 12.983
619 2 8.02222 134.319 12.8773
620 2 11.7995 134.649 12.8921
621 2 0.0691086 138.455 12.8466
622 2 4.02649 138.359 12.851
623 2 8.08135 138.511 12.7656
624 2 11.8618 138.555 12.9076
625 2 16.0341 142.406 12.8503
626 2 3.94274 142.349 12.8675
627 2 7.94802 142.487 12.8153
628 2 11.8879 142.34 12.8456
629 2 0.268648 146.251 12.7353
630 2 4.22075 146.154 12.7427
631 2 7.87521 146.37 12.6531
632 2 11.9819 146.221 12.7954
633 2 16.0495 150.271 12.6122
634 2 3.96873 150.315 12.6854
635 2 7.81255 150.035 12.733
636 2 11.9133 150.163 12.684
637 2 15.7456 153.878 12.6585
638 2 3.8312 154.245 12.8175
639 2 7.91635 154.207 12.7142
640 2 11.8142 154.105 12.7693
641 2 16.0061 158.194 16.5344
642 2 4.0098 157.954 16.7443
643 2 7.7215 158.031 16.6357
644 2 11.7717 157.888 16.7091
645 2 15.9961 3.48519 16.5603
646 2 4.09099 3.62234 16.5945
647 2 7.91173 3.70361 16.6892
648 2 11.9245 3.50726 16.693
649 2 0.0526873 7.55024 16.5569
650 2 3.99893 7.55146 16.5926
651 2 7.95052 7.46564 16.6575
652 2 11.9098 7.51825 16.5481
653 2 15.9857 11.4719 16.5132
654 2 3.90693 11.4653 16.5929
655 2 8.04709 11.5573 16.5369
656 2 12.1014 11.2522 16.4806
657 2 -0.13513 15.2927 16.5818
658 2 3.80567 15.4659 16.5339
659 2 7.97294 15.4559 16.5087
660 2 11.856 15.3759 16.5489
661 2 15.9394 19.2472 16.3449
662 2 4.17517 19.4365 16.5115
663 2 8.12056 19.2326 16.3948
664 2 11.7461 19.25 16.2352
665 2 15.9388 23.4606 16.4675
666 2 4.19108 23.1178 16.3723
667 2 7.90237 23.2422 16.6095
668 2 11.8526 23.2339 16.5389
669 2 0.0958618 27.0441 16.2566
670 2 4.07663 27.0016 16.4019
671 2 7.80212 27.078 16.2583
672 2 11.7667 26.9528 16.2552
673 2 15.6059 30.9235 16.1615
674 2 3.92413 30.9958 16.1756
675 2 7.87998 30.8764 16.2588
676 2 11.7986 30.9592 16.2387
677 2 15.7662 34.8945 16.3806
678 2 3.91786 34.8991 16.3469
679 2 8.10541 35.0317 16.2042
680 2 11.9458 35.1494 16.1233
681 2 0.0894242 38.9149 16.3109
682 2 4.12357 38.8872 16.2709
683 2 7.9536 39.1167 16.5133
684 2 12.0407 39.0357 16.3957
685 2 15.9258 43.1496 16.2987
686 2 3.94695 42.9354 16.2741
687 2 7.85075 43.0739 16.4883
688 2 11.8038 43.0139 16.4947
689 2 -0.0846918 46.9227 16.3904
690 2 3.96057 47.0343 16.5641
691 2 7.81285 47.0154 16.7313
692 2 11.8877 47.0119 16.4566
693 2 16.082 51.1062 16.708
694 2 4.22043 51.1464 16.7639
695 2 8.10104 51.0914 16.7247
696 2 12.1222 51.1369 16.8109
697 2 0.173108 55.1013 16.7133
698 2 4.145 54.9375 16.671
699 2 7.95291 55.1791 16.6702
700 2 11.9642 54.9584 16.5757
701 2 -0.198318 59.2096 16.7966
702 2 3.82594 59.0252 16.7557
703 2 7.62412 59.3472 16.6833
704 2 12.0189 59.199 16.4932
705 2 -0.328756 63.3454 16.531
706 2 3.74064 63.1181 16.8655
707 2 7.87318 63.2043 16.8581
708 2 11.6135 63.1743 16.728
709 2 -0.110874 67.2943 17.0142
710 2 3.7843 67.1318 16.828
711 2 7.88592 67.2002 16.8155
712 2 11.8205 67.2296 16.8927
713 2 0.120651 71.2006 16.6619
714 2 3.73774 71.2043 16.8115
715 2 8.05954 71.197 17.0164
716 2 11.8166 71.2718 17.0291
717 2 -0.0705622 75.2332 16.9939
718 2 4.02888 75.1899 16.8932
719 2 7.75886 75.2108 16.9461
720 2 11.7016 75.289 17.0464
721 2 -0.0351084 79.1536 17.0625
722 2 3.85366 79.2288 17.1611
723 2 8.16657 79.3443 16.8945
724 2 11.9007 79.3439 17.0874
725 2 0.012905 83.3667 17.3085
726 2 3.79273 83.4776 17.2398
727 2 8.12894 83.4689 17.168
728 2 12.0767 83.3825 17.4419
729 2 -0.028393 87.2924 17.4013
730 2 4.07074 87.2235 17.1981
731 2 7.95973 87.2978 17.4154
732 2 11.9918 87.3047 17.2045
733 2 -3.28524e-05 91.3144 17.4566
734 2 4.14645 91.4282 17.3835
735 2 8.06136 91.2123 17.5154
736 2 11.6849 91.285 17.5341
737 2 -0.0606706 95.4188 17.4548
738 2 3.96789 95.5655 17.336
739 2 8.01803 95.3951 17.4891
740 2 12.0158 95.3684 17.5387
741 2 15.86 99.145 17.353
742 2 4.04597 99.378 17.4942
743 2 7.91863 99.5434 17.4409
744 2 11.8413 99.2602 17.3344
745 2 15.8643 103.219 17.5035
746 2 4.06586 103.263 17.4949
747 2 7.97349 103.469 17.4282
748 2 11.8841 103.235 17.3504
749 2 15.9226 107.141 17.3083
750 2 3.99238 107.087 17.3545
751 2 7.98826 107.344 17.2457
752 2 11.9913 107.03 17.2352
753 2 0.161073 110.983 17.2894
754 2 4.03657 110.999 17.2687
755 2 8.15088 111.033 17.1964
756 2 12.1063 111.013 17.0841
757 2 0.175191 114.976 17.0627
758 2 4.14479 114.908 17.1525
759 2 7.92111 114.772 17.1778
760 2 11.8779 115.028 17.2942
761 2 0.142433 118.955 17.0772
762 2 4.05787 118.885 17.1285
763 2 7.94263 118.95 17.2088
764 2 11.8787 119.038 17.2294
765 2 0.106177 122.651 17.1043
766 2 4.05999 122.818 16.9871
767 2 8.01339 122.771 16.7664
768 2 12.0818 122.881 16.9859
769 2 0.0815348 126.789 17.141
770 2 4.16857 126.838 17.2147
771 2 8.1289 126.76 17.0383
772 2 12.1399 126.664 17.0056
773 2 0.138067 130.707 16.9195
774 2 4.05086 130.724 16.9358
775 2 7.99747 130.709 16.7471
776 2 11.9988 130.922 16.9626
777 2 0.111043 134.718 16.7787
778 2 3.84895 134.539 16.8047
779 2 7.89709 134.602 16.9585
780 2 11.9746 134.767 16.7992
781 2 15.9777 138.432 16.8412
782 2 3.96146 138.455 16.9679
783 2 8.08443 138.579 16.9549
784 2 12.0717 138.536 16.7084
785 2 16.0852 142.437 16.7994
786 2 4.17932 142.391 16.8486
787 2 7.97569 142.39 16.8164
788 2 11.9248 142.363 16.9109
789 2 15.5883 146.122 16.8829
790 2 4.13329 146.424 16.8489
791 2 7.95982 146.228 16.891
792 2 12.0054 146.181 16.7098
793 2 15.9253 150.203 16.7656
794 2 4.03562 150.203 16.6583
795 2 8.02485 150.423 16.6287
796 2 11.8543 150.206 16.7386
797 2 -0.0199249 154.188 16.6979
798 2 3.99368 154.229 16.7691
799 2 7.84201 154.305 16.668
800 2 11.9884 154.238 16.6473
801 2 0.0476721 158.291 20.6894
802 2 3.86334 158.033 20.8199
803 2 7.90879 158.055 20.8165
804 2 11.7135 158.015 20.7779
805 2 15.9015 3.76743 20.6176
806 2 4.00182 3.85074 20.5965
807 2 8.14531 3.53789 20.5594
808 2 11.9703 3.60421 20.6776
809 2 -0.0240002 7.47493 20.5451
810 2 4.02399 7.51004 20.7344
811 2 8.0479 7.52259 20.679
812 2 11.9239 7.47278 20.6981
813 2 15.9122 11.2918 20.6257
814 2 3.79118 11.5092 20.457
815 2 7.80944 11.536 20.3345
816 2 11.988 11.6426 20.5293
817 2 15.8921 15.5854 20.503
818 2 4.05928 15.5361 20.5765
819 2 7.92132 15.2754 20.5058
820 2 11.9215 15.4724 20.5878
821 2 15.8177 19.4369 20.3449
822 2 4.02692 19.1835 20.6671
823 2 7.81494 19.2254 20.5495
824 2 11.6925 19.414 20.3682
825 2 15.8583 23.2511 20.5004
826 2 3.80751 23.2138 20.4885
827 2 7.88828 23.2397 20.5239
828 2 11.9336 23.0781 20.6249
829 2 -0.16572 27.1685 20.3122
830 2 3.88286 27.3661 20.3665
831 2 7.97255 27.053 20.2837
832 2 11.6795 27.0407 20.1781
833 2 -0.102296 31.0696 20.2431
834 2 4.01877 31.0137 20.4384
835 2 7.94882 30.8896 20.1482
836 2 11.6737 31.0341 20.3004
837 2 15.9295 34.9141 20.2172
838 2 4.08451 34.717 20.2931
839 2 7.88836 34.9129 20.0116
840 2 12.0786 34.8626 20.2979
841 2 0.0893075 38.926 20.0135
842 2 4.13688 38.9538 20.3337
843 2 7.9706 38.9555 20.3338
844 2 11.8874 38.8351 20.3461
845 2 -0.0114419 42.9852 20.3689
846 2 3.98295 42.8213 20.2848
847 2 7.96792 42.9127 20.5292
848 2 11.7091 42.9505 20.1753
849 2 -0.000249494 47.0799 20.3918
850 2 4.04337 46.937 20.3961
851 2 7.80057 46.8516 20.4949
852 2 11.8906 46.8646 20.4564
853 2 0.0268384 50.7602 20.7233
854 2 3.97291 51.0063 20.6484
855 2 7.87877 50.9656 20.7003
856 2 12.0046 51.0491 20.5555
857 2 -0.0902761 55.2854 20.5784
858 2 4.06061 55.1026 20.67
859 2 8.14648 54.9677 20.5923
860 2 11.8751 55.0812 20.5518
861 2 15.8269 59.2016 20.9258
862 2 3.81385 58.9969 20.4712
863 2 7.89871 58.9818 20.5825
864 2 11.9262 58.9842 20.5928
865 2 15.7719 63.1049 20.6622
866 2 3.92345 63.1784 20.7138
867 2 7.9471 63.2097 20.6946
868 2 11.7223 63.0584 20.649
869 2 -0.0360696 67.1244 20.6718
870 2 3.93597 67.1026 20.858
871 2 7.88203 67.1278 20.8292
872 2 11.9653 67.2293 20.7763
873 2 -0.189539 71.5152 20.6837
874 2 4.12665 70.9988 20.8471
875 2 7.91862 71.0267 20.8408
876 2 11.8652 71.1934 21.0741
877 2 -0.0420826 75.2281 20.9113
878 2 4.10168 75.0055 20.8517
879 2 7.9198 75.2288 20.8592
880 2 11.8335 75.0894 20.809
881 2 0.0512784 79.2251 20.9591
882 2 4.0655 79.1644 20.9469
883 2 7.86233 79.3826 20.8444
884 2 11.7038 79.4278 21.1387
885 2 0.0408514 83.1809 21.1984
886 2 4.03832 83.1391 20.951
887 2 7.88592 83.2757 21.1898
888 2 12.0277 83.1735 21.1003
889 2 0.0536376 87.5448 21.4389
890 2 4.08055 87.3046 21.2111
891 2 8.17469 87.246 21.1432
892 2 12.0397 87.3483 21.3233
893 2 0.212993 91.3208 21.2038
894 2 4.07675 91.4754 21.0671
895 2 7.8027 91.2173 21.1842
896 2 11.8304 91.2509 21.376
897 2 15.9491 95.3346 21.2645
898 2 3.99006 95.3185 21.6249
899 2 7.97105 95.3769 21.4208
900 2 11.8365 95.3298 21.4508
901 2 0.0715308 99.3607 21.4757
902 2 3.87502 99.2513 21.4521
903 2 8.05987 99.2877 21.451
904 2 11.9328 99.1992 21.3587
905 2 15.798 103.23 21.2267
906 2 4.06783 103.12 21.4805
907 2 8.0948 103.252 21.3219
908 2 11.9787 103.173 21.3156
909 2 -0.141174 107.154 21.2782
910 2 4.05254 107.041 21.4239
911 2 7.92101 107.095 21.3924
912 2 11.8485 107.059 21.4038
913 2 15.8177 111.164 21.3181
914 2 3.85331 111.011 21.2857
915 2 7.98031 111.132 21.4353
916 2 11.7976 111.233 21.1498
917 2 0.118993 114.948 21.0481
918 2 4.01264 114.935 21.1009
919 2 7.88801 115.058 21.2341
920 2 11.9335 115.115 21.3057
921 2 0.185084 118.699 21.1296
922 2 4.06339 118.806 20.9696
923 2 8.03846 118.929 21.2411
924 2 11.8413 118.955 21.3277
925 2 0.0193811 122.893 21.1806
926 2 3.87143 123.036 21.0692
927 2 7.88672 122.921 21.1682
928 2 11.782 123.008 21.1725
929 2 0.258796 126.809 20.9562
930 2 4.19314 126.947 21.0912
931 2 8.10824 126.856 20.9807
932 2 11.9702 126.874 21.0631
933 2 0.0880482 130.9 20.9853
934 2 4.09081 130.68 20.9702
935 2 8.13851 130.73 21.1191
936 2 11.9208 130.657 21.0129
937 2 15.9414 134.793 20.9665
938 2 4.06209 134.618 20.8097
939 2 7.92775 134.683 20.8529
940 2 11.7842 134.576 20.9485
941 2 15.8616 138.623 20.7442
942 2 4.03801 138.66 20.8258
943 2 7.84448 138.507 20.7125
944 2 11.8499 138.553 20.9623
945 2 15.72 142.427 20.9807
946 2 3.96342 142.339 20.9446
947 2 7.96991 142.383 20.8567
948 2 11.8368 142.42 20.9301
949 2 -0.0403732 146.426 20.8731
950 2 3.81932 146.425 20.8891
951 2 7.92695 146.42 20.8475
952 2 11.9674 146.249 20.8898
953 2 15.7599 150.285 20.8165
954 2 3.92674 150.34 20.6423
955 2 7.78325 150.198 20.6875
956 2 11.7895 150.14 20.6553
957 2 -0.120885 154.271 20.6667
958 2 3.7947 154.085 20.8457
959 2 7.76754 154.038 20.7691
960 2 11.7509 154.358 20.7784
961 2 0.0722702 158.079 24.565
962 2 4.02667 158.124 24.7241
963 2 7.96907 158.204 24.7905
964 2 11.9085 158.046 24.6387
965 2 15.9057 3.65759 24.7874
966 2 3.9922 3.68156 24.7866
967 2 7.92754 3.77003 24.7251
968 2 11.9316 3.78159 24.7115
969 2 0.0733717 7.78255 24.5689
970 2 4.09353 7.46839 24.4073
971 2 8.0527 7.83565 24.6324
972 2 11.8415 7.74423 24.723
973 2 -0.0684194 11.594 24.662
974 2 3.92762 11.608 24.4332
975 2 7.9096 11.6519 24.6401
976 2 11.9387 11.6367 24.5728
977 2 -0.0202938 15.599 24.6219
978 2 3.95169 15.4462 24.5181
979 2 7.97693 15.2873 24.5376
980 2 12.003 15.4324 24.5499
981 2 15.97 19.4033 24.376
982 2 4.06825 19.4284 24.6448
983 2 7.93561 19.4186 24.6821
984 2 12.0132 19.3145 24.5921
985 2 -0.0413194 23.4127 24.4897
986 2 4.00601 23.3593 24.4137
987 2 7.97732 23.4101 24.3198
988 2 11.9258 23.2176 24.5789
989 2 -0.18252 27.1582 24.3473
990 2 3.99946 27.2281 24.502