ITEM: TIMESTEP
18400
ITEM: NUMBER OF ATOMS
32000
ITEM: BOX BOUNDS xy xz yz pp pp pp
0.0000000000000000e+00 1.5832000000000001e+01 0.0000000000000000e+00
0.0000000000000000e+00 1.5831999999999999e+02 0.0000000000000000e+00
8.2403087725712965e-01 1.6015308712274046e+02 0.0000000000000000e+00
ITEM: ATOMS id type x y z
1 2 0.0427236 157.891 160.08
2 2 4.09988 157.943 159.899
3 2 8.03099 157.959 159.764
4 2 11.8278 157.807 160.002
5 2 15.9568 3.5819 159.815
6 2 3.96947 3.44394 159.908
7 2 7.78727 3.47497 159.881
8 2 11.8172 3.29035 159.897
9 2 -0.121513 7.41697 159.857
10 2 3.90463 7.60534 159.672
11 2 7.83578 7.32817 159.831
12 2 11.6282 7.0966 159.764
13 2 -0.0503434 11.2698 159.894
14 2 4.0351 11.3195 159.625
15 2 7.74739 11.0978 159.843
16 2 11.7689 11.3337 159.996
17 2 15.6102 15.1491 159.67
18 2 4.02084 15.1942 159.73
19 2 7.91709 15.2513 159.824
20 2 11.9062 15.3012 160.004
21 2 0.124502 19.0284 159.834
22 2 3.97542 18.8895 159.684
23 2 7.88856 19.3347 159.664
24 2 11.7107 19.3935 159.757
25 2 15.9062 23.1706 0.518263
26 2 4.00756 23.2806 159.867
27 2 7.76883 23.1625 159.798
28 2 11.8223 23.1246 159.901
29 2 15.8586 27.0591 159.875
30 2 3.8331 27.1659 159.971
31 2 7.95192 27.0738 160.05
32 2 11.7519 27.0578 159.775
33 2 15.9639 31.1952 159.933
34 2 4.09481 31.1247 159.921
35 2 7.88413 31.0831 160.098
36 2 11.9315 31.0667 0.365914
37 2 15.798 35.3097 160.068
38 2 3.93699 35.1556 0.660911
39 2 7.76946 35.1249 160.16
40 2 11.7982 35.0645 0.682473
41 2 -0.0404568 39.0905 160.142
42 2 4.0751 39.1266 0.767991
43 2 8.01756 39.2353 0.782637
44 2 11.6491 39.1873 160.053
45 2 0.113442 43.1685 0.813645
46 2 4.06466 43.0265 0.909349
47 2 8.02514 43.2522 0.852335
48 2 12.1021 43.3377 0.935646
49 2 15.8194 47.1598 0.856403
50 2 4.00454 47.1095 0.685006
51 2 8.00801 47.1867 0.918399
52 2 11.8776 47.3312 0.858785
53 2 0.103933 51.058 1.00563
54 2 4.24374 51.2713 0.910982
55 2 7.87599 51.2101 0.847057
56 2 11.9492 51.3653 160.07
57 2 -0.0074243 55.3343 1.02089
58 2 4.02542 55.3544 1.2385
59 2 7.79827 55.3283 0.976045
60 2 12.0625 55.2709 1.01173
61 2 0.119264 59.4885 1.24353
62 2 3.98549 59.6027 0.90089
63 2 7.87733 59.45 1.4038
64 2 12.1274 59.3162 1.10321
65 2 -0.133391 63.3413 1.08772
66 2 3.92261 63.458 1.19273
67 2 8.01443 63.4686 0.895405
68 2 11.6923 63.3624 1.11514
69 2 -0.0585134 67.4843 1.17771
70 2 3.97548 67.3781 1.33391
71 2 7.82298 67.3104 1.24796
72 2 11.8864 67.4293 1.2936
73 2 15.8397 71.5116 1.45836
74 2 3.88919 71.6121 1.45105
75 2 8.10736 71.4733 1.31597
76 2 11.8181 71.5673 1.27753
77 2 0.0906491 75.5075 1.45774
78 2 3.94403 75.6311 1.59157
79 2 8.06439 75.4411 1.23805
80 2 12.096 75.7635 1.53599
81 2 -0.250141 79.6067 1.53716
82 2 3.82242 79.7647 1.49675
83 2 8.02286 79.5511 1.48593
84 2 11.6564 79.7321 1.48253
85 2 -0.000316734 83.3694 1.63834
86 2 3.88906 83.5922 1.66549
87 2 7.90093 83.5971 1.51064
88 2 11.8927 83.4982 1.60142
89 2 0.216801 87.4752 1.48532
90 2 3.98853 87.4299 1.4738
91 2 7.84275 87.5525 1.40734
92 2 11.9201 87.4072 1.55915
93 2 0.0785663 91.5451 1.39059
94 2 4.03082 91.4482 1.35009
95 2 7.98933 91.3858 1.48956
96 2 12.081 91.4106 1.26681
97 2 0.0294201 95.2272 1.4013
98 2 3.70246 95.4439 1.3689
99 2 7.90525 95.2563 1.3892
100 2 11.8277 95.3098 1.50723
101 2 -0.0750079 99.1528 1.35338
102 2 3.85399 99.0348 1.31403
103 2 7.79739 99.1442 1.43523
104 2 11.9624 99.3681 1.28025
105 2 15.6896 103.06 1.27838
106 2 4.0102 103.21 1.41188
107 2 7.94338 103.074 1.20131
108 2 11.9921 103.334 1.1614
109 2 15.6617 107.021 1.27333
110 2 4.10337 106.944 1.20892
111 2 7.95995 107.082 1.32035
112 2 11.8101 107.124 1.17836
113 2 -0.160908 110.91 1.29609
114 2 3.88166 110.897 1.18403
115 2 7.98654 110.885 1.32313
116 2 11.8673 111.011 1.37571
117 2 0.0513594 114.797 1.15936
118 2 3.85776 114.765 1.19451
119 2 7.85664 114.789 1.02327
120 2 11.8215 114.913 1.15491
121 2 15.6938 118.635 1.2126
122 2 3.96508 118.677 1.07693
123 2 7.8035 118.886 0.963255
124 2 11.8165 118.688 160.468
125 2 0.0330638 122.775 1.03704
126 2 3.94193 122.601 1.12755
127 2 8.0449 122.771 1.07743
128 2 11.8772 122.735 1.15636
129 2 0.126805 126.604 160.414
130 2 4.02758 126.573 160.185
131 2 8.01149 126.662 0.976106
132 2 11.9102 126.733 1.02566
133 2 0.0912868 130.328 160.1
134 2 4.17089 130.493 160.223
135 2 8.08412 130.436 0.680947
136 2 12.0784 130.444 160.299
137 2 0.328873 134.291 159.861
138 2 4.01801 134.303 160.181
139 2 8.22127 134.347 0.812767
140 2 12.0977 134.411 160.204
141 2 0.0445206 138.314 160.139
142 2 4.03834 138.341 159.971
143 2 8.03848 138.174 160.191
144 2 11.9097 138.235 0.77476
145 2 15.9668 142.166 159.952
146 2 4.16462 142.23 159.902
147 2 7.89321 142.136 159.993
148 2 11.9468 142.298 159.866
149 2 0.0749051 146.156 159.89
150 2 4.00994 146.1 159.846
151 2 7.87081 146.12 159.991
152 2 11.8564 146.151 160.013
153 2 16.0145 150.022 159.952
154 2 4.16726 150.056 160.044
155 2 8.07641 149.873 160.076
156 2 11.8875 149.995 160.024
157 2 15.8791 153.893 159.978
158 2 4.03545 153.808 160.063
159 2 7.97925 153.915 159.955
160 2 11.9966 153.927 159.825
161 2 15.9045 157.9 4.64534
162 2 4.10997 157.717 4.46215
163 2 7.96684 157.947 4.51078
164 2 11.9915 157.845 4.80096
165 2 15.8903 3.50038 4.55043
166 2 4.08839 3.50775 4.58501
167 2 7.89735 3.56438 4.62544
168 2 11.7848 3.45285 4.68972
169 2 16.1242 7.12797 4.63469
170 2 4.04917 7.34957 4.67669
171 2 8.04514 7.42234 4.52831
172 2 12.0729 7.30191 4.62591
173 2 15.9946 11.2252 4.3823
174 2 4.01236 11.2863 4.36331
175 2 7.85252 11.3471 4.4055
176 2 12.0481 11.4204 4.57614
177 2 15.8751 15.1529 4.43729
178 2 3.87603 15.0147 4.29585
179 2 7.80287 15.2166 4.38266
180 2 11.8579 15.2108 4.44721
181 2 -0.255256 19.2003 4.50028
182 2 4.02362 19.0413 4.35363
183 2 7.89172 19.057 4.5813
184 2 11.8766 19.0449 4.54064
185 2 15.7513 23.0014 4.39129
186 2 4.05745 23.0956 4.46156
187 2 7.96522 23.1194 4.54092
188 2 11.6913 23.153 4.60749
189 2 15.7448 27.0785 4.44377
190 2 3.93299 27.0708 4.58668
191 2 7.63801 27.2822 4.45903
192 2 11.701 27.0307 4.37966
193 2 15.8274 31.132 4.53778
194 2 3.82655 31.1436 4.61947
195 2 8.04043 31.0987 4.67754
196 2 11.9761 31.145 4.4028
197 2 0.0628096 34.99 4.57181
198 2 4.13315 35.1493 4.75544
199 2 7.99091 35.2046 4.68085
200 2 11.9905 34.9589 4.64957
201 2 0.146917 39.0344 4.70628
202 2 4.03286 39.2758 4.55422
203 2 8.03463 39.1702 4.92854
204 2 11.6709 39.0813 4.69801
205 2 -0.043163 43.1043 4.63696
206 2 3.85783 43.1286 4.91029
207 2 8.04916 43.3617 4.81139
208 2 11.8244 43.0796 4.90909
209 2 15.8776 47.181 4.88802
210 2 3.95058 47.2106 4.85818
211 2 7.98699 47.2813 4.75177
212 2 11.8566 47.3064 4.82411
213 2 0.133738 51.256 4.81275
214 2 3.89901 51.0659 4.85591
215 2 7.80915 51.208 4.7665
216 2 12.1598 51.3686 4.67308
217 2 0.141011 55.2498 4.96139
218 2 4.1261 55.1383 4.91605
219 2 7.93917 55.2824 4.9064
220 2 11.9401 55.2412 4.92649
221 2 0.162518 59.3352 5.15904
222 2 4.11857 59.3655 5.0307
223 2 7.89633 59.1958 5.12581
224 2 11.8853 59.276 5.07757
225 2 -0.051439 63.3256 5.12957
226 2 4.09179 63.4047 4.87398
227 2 7.81377 63.2591 4.98718
228 2 11.7386 63.3692 5.12153
229 2 0.0145983 67.3948 5.02566
230 2 3.7193 67.4937 5.22416
231 2 7.7776 67.5377 5.0411
232 2 11.8826 67.3299 5.19554
233 2 -0.0826028 71.4044 5.41036
234 2 4.08273 71.5345 5.38158
235 2 7.96498 71.2638 5.20743
236 2 11.8327 71.4392 5.22852
237 2 0.0990346 75.4543 5.2853
238 2 4.2303 75.4536 5.37533
239 2 8.06854 75.3969 5.18417
240 2 11.8484 75.4359 5.4064
241 2 0.215399 79.5271 5.43007
242 2 4.02254 79.6766 5.44328
243 2 7.82139 79.5236 5.25419
244 2 11.7982 79.4818 5.4713
245 2 15.8436 83.6731 5.62251
246 2 4.00727 83.5284 5.52839
247 2 8.06432 83.6405 5.43471
248 2 11.9357 83.5937 5.65502
249 2 0.230933 87.4987 5.60058
250 2 3.98416 87.5355 5.37668
251 2 8.22736 87.3388 5.48834
252 2 11.9875 87.5038 5.71029
253 2 -0.0208954 91.5201 5.46527
254 2 4.21767 91.4555 5.56006
255 2 7.74988 91.463 5.42613
256 2 11.9007 91.3848 5.19952
257 2 -0.0737496 95.3502 5.39948
258 2 4.00953 95.2857 5.52771
259 2 7.92315 95.5629 5.29928
260 2 11.7569 95.4179 5.59165
261 2 -0.10455 99.2615 5.28534
262 2 3.81734 99.3063 5.27502
263 2 7.85236 99.3958 5.36183
264 2 12.0897 99.3437 5.30852
265 2 15.8111 103.18 5.46126
266 2 4.02791 103.205 5.20581
267 2 7.96124 103.208 5.42255
268 2 11.9484 103.192 5.1458
269 2 -0.00236721 107.146 5.37728
270 2 3.84425 107.083 5.30128
271 2 7.85551 107.111 5.2406
272 2 11.6261 107.123 5.42616
273 2 -0.264632 110.9 5.28
274 2 3.90949 110.961 5.29068
275 2 7.79278 111.142 5.20066
276 2 11.7051 111.119 5.26065
277 2 15.636 114.775 5.08514
278 2 3.9323 114.903 5.38863
279 2 7.99712 115.14 5.13051
280 2 11.7602 114.912 5.15304
281 2 15.7097 118.82 5.15044
282 2 4.00357 118.958 5.25646
283 2 7.74832 119.082 4.93228
284 2 11.7262 118.872 5.21649
285 2 15.9702 122.782 4.98738
286 2 3.87398 122.591 5.07501
287 2 7.91953 122.818 5.08867
288 2 11.8807 122.728 5.00417
289 2 -0.0529346 126.626 4.99138
290 2 3.91699 126.576 4.74625
291 2 7.88397 126.612 4.89556
292 2 11.8225 126.785 5.02567
293 2 0.262313 130.502 4.95394
294 2 4.27351 130.555 4.91324
295 2 8.00438 130.466 5.00107
296 2 11.9457 130.754 5.04155
297 2 0.122181 134.404 4.66812
298 2 4.16685 134.434 4.64648
299 2 8.14011 134.531 4.89927
300 2 11.9324 134.484 4.91057
301 2 15.9911 138.494 4.78369
302 2 4.08217 138.289 4.77735
303 2 7.92642 138.439 4.71574
304 2 11.9912 138.456 4.75555
305 2 0.154838 142.31 4.83277
306 2 4.12714 142.39 4.85418
307 2 8.08638 142.212 4.63413
308 2 12.0822 142.141 4.72433
309 2 15.8356 146.081 4.66648
310 2 3.80964 146.132 4.54746
311 2 7.93313 146.042 4.7114
312 2 11.8022 146.053 4.76848
313 2 0.171935 149.942 4.9032
314 2 4.06184 150.227 4.54163
315 2 7.97426 150.016 4.75917
316 2 11.8853 149.976 4.57954
317 2 15.9236 153.912 4.57884
318 2 3.93885 154.031 4.63261
319 2 8.13257 154.046 4.64851
320 2 12.026 153.882 4.71508
321 2 16.0082 157.908 8.68945
322 2 3.99811 157.821 8.6061
323 2 7.97217 157.872 8.76725
324 2 12.0924 157.884 8.67971
325 2 15.9855 3.48095 8.88261
326 2 4.0689 3.31204 8.50782
327 2 7.89347 3.53026 8.42408
328 2 12.052 3.46195 8.44236
329 2 0.215889 7.25581 8.64966
330 2 4.26665 7.21529 8.47218
331 2 7.89689 7.26263 8.40878
332 2 11.9757 7.26467 8.4446
333 2 15.6982 11.2887 8.52627
334 2 4.11467 11.084 8.49596
335 2 8.00931 11.1981 8.2908
336 2 12.0388 11.2822 8.47507
337 2 -0.061345 15.2248 8.44995
338 2 3.90128 15.0638 8.25469
339 2 7.88452 15.3017 8.44393
340 2 11.6356 15.2727 8.34104
341 2 0.0365287 19.0307 8.60056
342 2 3.88687 19.0198 8.48819
343 2 7.75947 19.1612 8.4965
344 2 11.8457 19.0647 8.38079
345 2 -0.0312272 23.1569 8.32921
346 2 3.69028 22.943 8.16523
347 2 7.89864 23.0172 8.24646
348 2 11.8147 23.135 8.49565
349 2 15.72 26.8749 8.35162
350 2 3.94807 26.9699 8.61503
351 2 7.9761 27.0539 8.40193
352 2 11.9216 27.062 8.50295
353 2 15.9995 30.9606 8.62086
354 2 4.024 31.138 8.44954
355 2 7.97634 31.0303 8.51096
356 2 11.9193 30.9019 8.58232
357 2 16.1798 35.0601 8.53077
358 2 4.15472 34.9625 8.47486
359 2 7.94421 34.9023 8.48771
360 2 11.9973 35.1117 8.61833
361 2 15.5891 38.9542 8.52862
362 2 3.94977 39.2006 8.41811
363 2 7.82228 39.1035 8.79539
364 2 11.7154 39.0101 8.74781
365 2 15.6788 43.1429 8.52977
366 2 3.85248 43.1021 8.58945
367 2 7.85877 43.0596 8.66606
368 2 11.9701 43.1528 8.85595
369 2 0.0629562 47.0881 8.62234
370 2 4.00991 47.0448 8.54166
371 2 7.88641 46.946 8.65615
372 2 12.1013 47.3747 8.82672
373 2 -0.164191 51.3071 8.74453
374 2 3.91299 51.0697 8.71363
375 2 7.85645 51.106 8.76012
376 2 11.8015 51.1619 8.66238
377 2 0.0215464 55.1865 8.82809
378 2 4.01707 55.1379 8.91558
379 2 7.8984 55.1541 8.86304
380 2 11.8544 55.329 8.66186
381 2 15.9681 59.318 9.10303
382 2 4.15384 59.2709 8.87663
383 2 8.14491 59.4855 9.04175
384 2 11.9935 59.2348 9.03674
385 2 -0.183767 63.4135 9.12084
386 2 3.8141 63.3218 8.93692
387 2 8.02518 63.1845 9.05932
388 2 11.8156 63.3217 8.8873
389 2 -0.0787891 67.268 9.0267
390 2 4.10891 67.3271 8.99573
391 2 7.99835 67.255 8.97115
392 2 11.8369 67.2868 9.1759
393 2 -0.0666429 71.2425 9.19477
394 2 3.98311 71.2568 9.11273
395 2 7.93998 71.3798 9.16764
396 2 11.9902 71.5753 9.21615
397 2 0.037905 75.5358 9.0648
398 2 3.96616 75.3429 9.28306
399 2 7.8959 75.4851 9.22044
400 2 11.7908 75.3556 9.25851
401 2 0.0541656 79.4601 9.27684
402 2 3.82379 79.5222 9.15206
403 2 8.0503 79.4118 9.49447
404 2 11.8375 79.6077 9.23319
405 2 0.184484 83.4782 9.37153
406 2 3.9733 83.4713 9.37117
407 2 8.08806 83.4075 9.52658
408 2 11.9569 83.3921 9.38467
409 2 0.219007 87.6127 9.56643
410 2 4.21546 87.4178 9.74227
411 2 8.19168 87.5386 9.6272
412 2 12.1607 87.5097 9.32731
413 2 -0.151968 91.6669 9.63781
414 2 4.09009 91.4192 9.35165
415 2 8.01805 91.4332 9.35874
416 2 11.789 91.4726 9.58374
417 2 -0.0421713 95.4752 9.43016
418 2 3.99238 95.2962 9.47357
419 2 7.9732 95.4357 9.31754
420 2 11.6799 95.4258 9.46017
421 2 15.854 99.3286 9.55288
422 2 3.81579 99.1852 9.29205
423 2 7.80877 99.3488 9.53981
424 2 11.8628 99.3611 9.37233
425 2 0.084223 103.186 9.30312
426 2 4.05024 103.36 9.10817
427 2 7.97118 103.219 9.46728
428 2 11.8608 103.266 9.27977
429 2 15.7291 107.038 9.28097
430 2 3.86979 107.324 9.36366
431 2 7.7739 107.014 9.22799
432 2 11.9075 107.039 9.45938
433 2 -0.0726804 111.034 9.25876
434 2 3.80353 110.948 9.34699
435 2 7.8364 111.105 9.4617
436 2 11.6164 111.134 9.10087
437 2 -0.0695187 114.962 9.26743
438 2 3.81404 114.946 9.2486
439 2 7.74886 114.985 9.32634
440 2 11.8917 115.077 9.23413
441 2 -0.177991 119.076 9.05969
442 2 3.83443 119.108 9.12576
443 2 7.87089 118.998 9.15225
444 2 11.7962 118.705 9.07231
445 2 15.6469 122.947 9.03703
446 2 3.82837 123.003 9.05702
447 2 7.79988 122.806 9.10078
448 2 11.7276 122.892 8.98781
449 2 0.179201 126.827 8.87293
450 2 4.06474 126.947 9.08107
451 2 7.74306 126.828 9.04035
452 2 11.9105 126.73 9.13875
453 2 0.0510693 130.758 8.93017
454 2 4.0036 130.748 9.07931
455 2 8.08023 130.583 8.98822
456 2 12.1588 130.571 8.95845
457 2 0.084642 134.615 8.89942
458 2 3.89564 134.626 8.85179
459 2 7.91523 134.612 8.94414
460 2 11.8696 134.504 8.75717
461 2 -0.00248045 138.211 8.72955
462 2 4.13224 138.411 9.01975
463 2 8.06782 138.41 8.85622
464 2 12.136 138.455 8.83538
465 2 0.111477 142.17 8.97364
466 2 3.87906 142.3 8.78339
467 2 7.88093 142.29 8.8377
468 2 11.9995 142.316 8.78216
469 2 15.8049 146.186 8.88181
470 2 4.11218 145.967 8.78909
471 2 7.85873 146.285 8.56638
472 2 12.0845 146.321 8.95088
473 2 16.0556 150.04 8.70973
474 2 4.22796 150.142 8.57612
475 2 7.95056 150.257 8.77204
476 2 11.9065 150.087 8.85194
477 2 16.0309 154.061 8.77067
478 2 4.24939 153.964 8.54284
479 2 7.9389 153.988 8.77004
480 2 12.0342 153.921 8.65938
481 2 16.0308 157.984 12.6841
482 2 4.02031 157.945 12.6326
483 2 8.0635 158.058 12.7245
484 2 12.0088 157.838 12.708
485 2 15.8473 3.66577 12.783
486 2 4.01437 3.68015 12.7156
487 2 8.11833 3.62876 12.7099
488 2 11.7542 3.4938 12.7742
489 2 -0.0733154 7.26778 12.5101
490 2 4.1074 7.44151 12.5782
491 2 8.05553 7.51959 12.4469
492 2 11.8518 7.59506 12.5548
493 2 16.0159 11.3697 12.5631
494 2 4.14983 11.1447 12.5718
495 2 8.0268 11.3794 12.5162
496 2 11.8901 11.2519 12.6018
497 2 -0.0262183 15.2262 12.5079
498 2 4.07868 15.2376 12.469
499 2 7.96604 15.1193 12.5237
500 2 11.97 15.133 12.4731
501 2 15.8294 19.0259 12.6449
502 2 3.74455 19.0394 12.4428
503 2 7.70729 19.1272 12.3351
504 2 11.682 19.2924 12.3808
505 2 15.704 22.9771 12.536
506 2 3.80678 22.9394 12.278
507 2 7.97289 23.0154 12.2194
508 2 11.8353 23.162 12.4249
509 2 15.9713 26.991 12.3201
510 2 4.05053 26.7345 12.2752
511 2 7.86125 26.9515 12.1558
512 2 11.8538 27.1992 12.4259
513 2 0.0308404 31.0697 12.5577
514 2 3.93267 31.0806 12.6301
515 2 7.8537 31.1524 12.3907
516 2 11.723 31.0202 12.5038
517 2 15.7611 34.9652 12.5761
518 2 3.85283 35.1213 12.4688
519 2 7.66722 35.0673 12.3518
520 2 11.6455 34.8053 12.3925
521 2 15.7153 38.8885 12.457
522 2 3.78767 39.0806 12.3291
523 2 7.83595 39.0099 12.5064
524 2 11.7849 38.972 12.6136
525 2 15.8361 42.9736 12.6486
526 2 3.82407 43.204 12.5809
527 2 7.80376 42.9757 12.4377
528 2 11.8024 42.9524 12.7645
529 2 15.8319 47.0378 12.5705
530 2 4.07388 47.0729 12.695
531 2 7.95349 46.9141 12.6745
532 2 11.7795 47.0116 12.603
533 2 -0.0721285 50.9238 12.6682
534 2 3.86985 50.9598 12.5351
535 2 7.83705 50.9035 12.6724
536 2 11.8983 51.1044 12.7859
537 2 0.117918 55.0882 12.8116
538 2 3.88374 55.2394 12.7262
539 2 7.78296 55.2387 12.7833
540 2 11.8771 54.9905 12.7369
541 2 0.306595 59.0097 12.9509
542 2 4.07975 59.1868 12.8272
543 2 7.94914 59.1392 12.8031
544 2 12.0093 58.9336 12.8852
545 2 0.22738 63.1795 12.8206
546 2 3.98459 63.1335 12.9204
547 2 7.90013 63.1678 12.8969
548 2 11.9349 63.2282 13.1533
549 2 0.0211201 67.2184 13.1028
550 2 4.21671 67.2133 13.0459
551 2 7.89208 67.2432 12.93
552 2 11.8719 67.0905 12.977
553 2 0.0726557 71.1714 12.9754
554 2 4.06946 71.2553 12.8456
555 2 7.96551 71.3073 13.0943
556 2 11.8853 71.4381 13.1271
557 2 0.0662247 75.4842 13.1469
558 2 3.98797 75.1306 13.038
559 2 7.86563 75.5006 13.1469
560 2 11.8726 75.2196 12.9321
561 2 -0.0401296 79.5244 13.1831
562 2 4.00496 79.4289 13.3384
563 2 7.8308 79.4636 13.1587
564 2 12.0398 79.3622 13.2063
565 2 0.018862 83.2492 13.0702
566 2 4.0015 83.5567 13.1177
567 2 7.94571 83.3182 13.2722
568 2 11.8432 83.2621 13.3816
569 2 -0.0420117 87.4091 13.3743
570 2 4.13273 87.6133 13.3844
571 2 8.13088 87.4886 13.4379
572 2 12.1379 87.3844 13.4146
573 2 0.120356 91.391 13.5282
574 2 3.81289 91.6691 13.2734
575 2 7.88864 91.5856 13.6254
576 2 11.9343 91.5382 13.4154
577 2 0.109769 95.2294 13.4753
578 2 3.906 95.469 13.4276
579 2 7.762 95.2782 13.5524
580 2 11.8434 95.4504 13.4859
581 2 0.0740205 99.4469 13.3417
582 2 3.90861 99.3412 13.4675
583 2 8.01927 99.1665 13.3123
584 2 11.9676 99.3544 13.6546
585 2 0.0268672 103.198 13.431
586 2 3.95355 103.204 13.4743
587 2 7.72623 103.227 13.384
588 2 11.7787 103.312 13.5134
589 2 15.6184 106.971 13.1821
590 2 3.64674 107.229 13.3076
591 2 7.61857 106.974 13.2884
592 2 11.7384 107.216 13.5066
593 2 -0.124258 111.277 13.241
594 2 3.76749 111.006 13.2158
595 2 7.70537 111.195 13.2705
596 2 11.9455 110.984 13.2344
597 2 15.7069 114.932 13.1951
598 2 3.89413 114.972 13.3193
599 2 7.74655 115.123 13.3585
600 2 11.7033 114.837 13.1726
601 2 15.6223 118.949 13.0696
602 2 3.97467 118.914 13.2043
603 2 7.99637 118.866 13.1269
604 2 11.6714 118.825 13.1081
605 2 -0.0790763 122.985 13.1211
606 2 3.86573 122.86 13.1613
607 2 7.79611 122.954 12.9451
608 2 11.6695 122.754 12.975
609 2 15.8439 126.837 13.2331
610 2 3.80626 126.747 13.0503
611 2 7.82116 126.825 13.087
612 2 11.7357 126.742 13.0892
613 2 15.6958 130.614 13.0494
614 2 3.88983 130.606 12.9408
615 2 7.96733 130.556 13.0081
616 2 11.8512 130.668 12.9153
617 2 -0.00832611 134.454 12.8207
618 2 4.06225 134.585 12.8669
619 2 7.90701 134.419 12.9864
620 2 11.8551 134.608 12.85
621 2 -0.106501 138.637 12.9592
622 2 4.05269 138.376 12.8539
623 2 7.94087 138.478 12.8377
624 2 11.7591 138.502 12.9155
625 2 16.023 142.378 12.9535
626 2 3.88883 142.185 12.8874
627 2 7.84249 142.48 12.8245
628 2 11.9236 142.338 12.7455
629 2 0.240787 146.387 12.8834
630 2 4.03628 146.19 12.866
631 2 8.00823 146.219 12.848
632 2 11.8182 146.198 12.7454
633 2 16.1406 150.064 12.6126
634 2 3.92025 150.227 12.7553
635 2 7.83287 150.153 12.8633
636 2 11.9745 149.994 12.9437
637 2 15.9609 153.892 12.7554
638 2 4.1116 154.201 12.7561
639 2 8.0283 154.021 12.7318
640 2 11.976 153.959 12.746
641 2 16.0178 158.052 16.6913
642 2 4.09662 157.883 16.643
643 2 8.02219 158.157 16.8176
644 2 11.9665 157.973 16.7435
645 2 15.8835 3.78827 16.6079
646 2 4.06098 3.72362 16.7642
647 2 7.90643 3.75056 16.7997
648 2 11.9769 3.52353 16.7154
649 2 -0.0838417 7.49106 16.5861
650 2 4.03215 7.76485 16.6485
651 2 7.89712 7.57737 16.7084
652 2 11.8393 7.50022 16.5758
653 2 15.9095 11.4719 16.5783
654 2 3.9201 11.3894 16.6326
655 2 8.12427 11.4482 16.4586
656 2 11.8937 11.3413 16.6492
657 2 -0.240361 15.4174 16.7087
658 2 3.84303 15.3644 16.4976
659 2 7.83869 15.2431 16.4941
660 2 11.7446 15.3612 16.5876
661 2 15.6606 19.2235 16.3994
662 2 3.94742 19.2646 16.5185
663 2 7.75931 19.1599 16.4504
664 2 11.8001 19.3746 16.2201
665 2 15.8393 23.4846 16.3247
666 2 3.85929 23.0316 16.3892
667 2 7.61324 23.105 16.4151
668 2 11.7212 23.2716 16.4458
669 2 0.174078 27.035 16.2419
670 2 4.04222 27.1833 16.5118
671 2 7.81157 27.3658 16.2452
672 2 11.9336 27.0634 16.3469
673 2 15.7199 30.8512 16.3307
674 2 4.04236 31.0296 16.3078
675 2 7.69642 31.1034 16.3306
676 2 11.8789 30.9863 16.4561
677 2 15.7127 35.0268 16.5724
678 2 3.60092 34.8911 16.4985
679 2 7.84645 34.9983 16.3442
680 2 11.5895 34.9527 16.3249
681 2 0.0387922 38.9401 16.3968
682 2 3.92684 38.9169 16.5069
683 2 7.76281 39.08 16.4641
684 2 11.7812 39.1103 16.3972
685 2 15.8772 42.9419 16.5032
686 2 3.73181 42.9372 16.5589
687 2 7.80175 43.0658 16.4625
688 2 11.8468 42.9645 16.4847
689 2 -0.0589143 46.9721 16.4947
690 2 3.89357 47.1528 16.5402
691 2 7.78292 47.1013 16.5994
692 2 11.7567 46.9993 16.4264
693 2 15.9193 51.0106 16.5316
694 2 4.00643 50.9902 16.5612
695 2 7.99686 50.9357 16.4781
696 2 11.8402 51.0096 16.5258
697 2 -0.0851727 54.9972 16.7999
698 2 3.92829 54.8392 16.7421
699 2 7.89466 54.9848 16.6976
700 2 11.9693 55.096 16.4859
701 2 0.000137562 59.1954 17.0273
702 2 3.91877 59.076 16.7992
703 2 7.90934 59.1799 16.7532
704 2 12.1129 59.0344 16.7519
705 2 0.0211975 63.1599 16.7427
706 2 4.04487 63.0717 16.8613
707 2 8.11201 63.1388 17.0029
708 2 11.84 62.9783 16.942
709 2 0.0854395 67.1999 17.1467
710 2 4.05879 67.0626 16.9538
711 2 7.92151 67.0851 16.8411
712 2 12.112 67.1964 16.9258
713 2 0.0548695 71.25 16.665
714 2 3.81671 71.1843 16.738
715 2 7.92845 71.1318 16.8778
716 2 11.9168 71.2939 16.8526
717 2 -0.0101261 75.2354 17.2116
718 2 4.19624 75.2278 17.1138
719 2 7.81094 75.2051 17.0045
720 2 11.6796 75.311 17.1023
721 2 0.0217295 79.0593 17.2182
722 2 4.0137 79.1858 17.1394
723 2 8.14505 79.2351 16.953
724 2 11.9701 79.2966 17.1067
725 2 0.263291 83.4107 17.1387
726 2 3.97798 83.2769 17.1415
727 2 8.01441 83.2068 17.1178
728 2 11.9691 83.1369 17.2865
729 2 0.0908734 87.3106 17.3166
730 2 3.95645 87.2634 17.0912
731 2 8.01392 87.315 17.3623
732 2 11.9216 87.3768 17.089
733 2 0.0274363 91.258 17.5635
734 2 3.97549 91.4345 17.1997
735 2 8.04349 91.3287 17.4582
736 2 11.7548 91.3465 17.3961
737 2 0.0012653 95.4127 17.5085
738 2 4.16389 95.3774 17.4431
739 2 8.10743 95.5324 17.3624
740 2 12.0273 95.4955 17.3546
741 2 15.6732 99.5284 17.4289
742 2 4.02707 99.4432 17.6089
743 2 7.72723 99.3964 17.4466
744 2 11.7465 99.2592 17.4181
745 2 15.8609 103.4 17.4436
746 2 4.00182 103.37 17.6375
747 2 7.83576 103.345 17.4303
748 2 11.6682 103.295 17.341
749 2 15.7683 107.292 17.476
750 2 3.87115 107.379 17.4464
751 2 7.87104 107.491 17.3402
752 2 11.8111 107.125 17.2622
753 2 -0.145146 111.179 17.465
754 2 3.81973 111.105 17.3902
755 2 7.79108 111.201 17.3132
756 2 11.7706 110.928 17.3295
757 2 -0.203261 115.142 17.3163
758 2 3.97799 115.212 17.0365
759 2 7.61877 114.961 17.2974
760 2 11.7189 115.052 17.2627
761 2 0.0151443 119.033 17.218
762 2 3.9554 119.001 17.1362
763 2 7.82835 119.01 17.2282
764 2 11.6609 118.99 17.3769
765 2 -0.0758569 122.794 17.2076
766 2 3.77716 122.989 17.0425
767 2 7.89271 122.804 17.0699
768 2 11.9157 122.775 16.8881
769 2 -0.0743892 126.713 17.0975
770 2 3.95535 126.743 17.2857
771 2 7.88262 126.658 17.0889
772 2 11.9825 126.7 17.1066
773 2 0.098661 130.553 17.0467
774 2 3.95617 130.719 17.1171
775 2 7.92591 130.53 16.9257
776 2 11.8256 130.771 17.0904
777 2 0.0302861 134.69 17.0399
778 2 4.04205 134.571 17.1369
779 2 7.95463 134.595 16.8985
780 2 12.0003 134.692 16.9644
781 2 15.954 138.503 17.0057
782 2 4.03753 138.422 16.766
783 2 8.12921 138.471 16.9219
784 2 12.081 138.541 16.8717
785 2 16.1235 142.476 16.9332
786 2 4.07075 142.334 17.045
787 2 7.82209 142.223 16.8966
788 2 11.8633 142.437 16.8329
789 2 15.8032 146.205 16.9994
790 2 3.91149 146.147 17.017
791 2 8.01958 146.153 16.9251
792 2 11.8801 146.177 16.7927
793 2 15.9645 150.022 16.8535
794 2 4.06868 149.983 16.7844
795 2 8.24402 150.262 16.7278
796 2 11.9705 150.179 16.7521
797 2 0.116335 154.105 16.7786
798 2 4.23013 154.136 16.9034
799 2 8.08578 154.083 16.7148
800 2 12.251 154.14 16.8224
801 2 0.177983 158.447 20.6872
802 2 4.20191 158.041 20.9191
803 2 8.0045 158.038 20.7405
804 2 11.9338 158.093 20.8625
805 2 15.8042 3.62056 20.8161
806 2 4.10645 3.90319 20.6192
807 2 8.07217 3.5198 20.5918
808 2 11.9925 3.70694 20.7377
809 2 -0.0755165 7.46823 20.713
810 2 4.15336 7.58781 20.6996
811 2 8.0049 7.59422 20.7763
812 2 11.929 7.53241 20.8969
813 2 15.9137 11.3994 20.6885
814 2 4.0347 11.556 20.5849
815 2 8.00511 11.3527 20.3903
816 2 11.8948 11.5117 20.6768
817 2 15.8547 15.5465 20.5922
818 2 3.93711 15.3387 20.6478
819 2 8.04314 15.4131 20.5567
820 2 11.986 15.6079 20.587
821 2 15.707 19.4156 20.2982
822 2 3.9605 19.1011 20.4775
823 2 7.90122 19.2763 20.562
824 2 11.5987 19.3621 20.3655
825 2 15.8505 23.167 20.4107
826 2 3.70007 23.0433 20.5107
827 2 7.92565 23.3045 20.552
828 2 11.8604 23.079 20.6312
829 2 -0.0103933 27.097 20.2929
830 2 3.87143 27.0588 20.4754
831 2 7.91716 26.9176 20.4424
832 2 11.8154 26.886 20.1244
833 2 -0.134749 31.0207 20.5074
834 2 3.78871 30.9242 20.4391
835 2 7.91528 31.07 20.373
836 2 11.6855 31.0507 20.4684
837 2 15.6874 35.0507 20.4027
838 2 3.71165 34.7991 20.3061
839 2 7.86914 34.9658 19.9093
840 2 11.7586 34.8377 20.3983
841 2 -0.18803 39.058 20.1693
842 2 3.802 38.9247 20.3803
843 2 7.75475 38.8947 20.2719
844 2 11.7216 38.7919 20.5334
845 2 -0.0279048 42.9462 20.4385
846 2 4.03636 42.9884 20.3419
847 2 7.89297 42.8389 20.4961
848 2 11.9098 42.9488 20.3737
849 2 0.00572053 46.9682 20.4483
850 2 3.94109 46.8427 20.4635
851 2 7.89431 46.9957 20.3689
852 2 11.9815 47.1207 20.4051
853 2 -0.139405 50.9816 20.4834
854 2 3.74955 50.8989 20.2998
855 2 7.62943 51.0303 20.4561
856 2 11.7999 51.0586 20.4043
857 2 -0.0696606 54.9386 20.6515
858 2 3.85932 54.9396 20.564
859 2 8.18943 54.9319 20.5627
860 2 11.7971 54.8913 20.5461
861 2 15.8692 59.2012 20.979
862 2 3.79745 58.9974 20.4498
863 2 8.02882 58.8825 20.5882
864 2 11.9319 58.8853 20.6493
865 2 15.8559 63.0808 20.9525
866 2 4.2276 63.0105 20.9389
867 2 8.1215 63.1113 20.676
868 2 11.939 63.0023 20.7774
869 2 0.0193122 67.1011 20.9268
870 2 3.94224 66.9636 21.0053
871 2 7.92638 67.051 20.8819
872 2 12.0873 67.0936 20.9407
873 2 0.0271107 71.4489 20.7459
874 2 4.11136 70.9947 20.8557
875 2 7.96887 71.1684 20.7115
876 2 11.7898 71.0531 20.9521
877 2 0.115754 75.2452 21.0035
878 2 4.05804 74.9706 21.0756
879 2 8.10005 75.2493 20.928
880 2 11.9441 75.1538 20.9129
881 2 0.0605016 79.2095 21.1436
882 2 3.94484 79.1214 21.1356
883 2 7.87089 79.2348 21.1431
884 2 11.8841 79.372 21.2295
885 2 0.137118 83.2036 21.0606
886 2 4.1063 83.0574 20.9901
887 2 7.76902 83.1713 21.1841
888 2 11.8415 83.3072 20.9298
889 2 0.0947585 87.2613 21.1709
890 2 4.07757 87.2604 21.2368
891 2 8.15979 87.0584 21.2899
892 2 11.8937 87.1781 21.0842
893 2 0.016228 91.1712 21.0754
894 2 4.04395 91.2529 21.2005
895 2 7.72747 91.2538 21.2659
896 2 11.9009 91.3537 21.3699
897 2 15.9191 95.3075 21.1685
898 2 3.96102 95.2961 21.3101
899 2 7.96973 95.3599 21.1486
900 2 11.9246 95.3684 21.3237
901 2 -0.121443 99.5193 21.5321
902 2 3.75231 99.2949 21.4706
903 2 7.87766 99.2694 21.4321
904 2 11.9341 99.3078 21.4412
905 2 15.767 103.447 21.3735
906 2 3.84832 103.44 21.5418
907 2 7.85277 103.215 21.4732
908 2 11.7592 103.303 21.4863
909 2 -0.0522339 107.414 21.2231
910 2 4.00415 107.053 21.4883
911 2 7.99814 107.251 21.4291
912 2 11.7392 107.244 21.4337
913 2 15.8409 111.188 21.3491
914 2 3.88004 111.157 21.4367
915 2 7.99932 111.195 21.5574
916 2 11.7427 111.33 21.2518
917 2 -0.0860162 115.163 21.3463
918 2 3.89675 115.191 21.3561
919 2 7.77982 115.146 21.2667
920 2 11.7384 115.155 21.3351
921 2 -0.248068 119.097 21.2524
922 2 4.01307 119.116 21.2357
923 2 7.89378 119.122 21.3735
924 2 11.8295 119.093 21.1779
925 2 -0.203599 122.901 21.2934
926 2 3.71412 123.079 21.244
927 2 7.71937 122.99 21.1995
928 2 11.6632 123.018 21.1479
929 2 -0.0858327 126.864 21.1336
930 2 3.95527 126.938 21.3108
931 2 7.83734 126.71 21.1598
932 2 11.7112 126.784 20.9675
933 2 -0.166724 130.907 21.1217
934 2 3.7824 130.738 21.096
935 2 7.87454 130.596 20.9964
936 2 11.7946 130.652 20.9973
937 2 15.667 134.636 21.0023
938 2 4.01234 134.571 21.1266
939 2 7.92834 134.663 20.9811
940 2 11.8529 134.503 20.966
941 2 15.8051 138.448 20.8716
942 2 4.07713 138.674 21.0865
943 2 7.9862 138.466 21.0066
944 2 12.0246 138.551 20.8669
945 2 15.7762 142.403 21.1029
946 2 4.02715 142.464 20.9848
947 2 7.96455 142.613 20.8999
948 2 11.8449 142.239 21.0444
949 2 -0.138159 146.366 20.9781
950 2 3.95767 146.25 21.0013
951 2 7.95268 146.464 20.9301
952 2 11.831 146.384 20.7623
953 2 15.9434 150.272 20.8032
954 2 4.06845 150.215 20.7345
955 2 7.96661 150.341 20.7433
956 2 11.8174 150.415 20.7906
957 2 0.127573 154.138 20.6168
958 2 3.94229 154.11 20.8201
959 2 7.99486 153.999 20.8907
960 2 11.9964 154.376 20.76
961 2 0.2881 158.092 24.6935
962 2 4.06669 158.18 24.8447
963 2 7.94637 158.101 24.9296
964 2 11.9105 158.092 24.5489
965 2 15.9941 3.75927 24.7713
966 2 3.92082 3.714 24.9004
967 2 7.74758 3.67069 24.8657
968 2 11.8143 3.74832 24.692
969 2 0.0949554 7.63401 24.7731
970 2 4.10065 7.5409 24.5758
971 2 8.0004 7.71636 24.7241
972 2 11.7052 7.56399 24.7531
973 2 0.0682253 11.4965 24.593
974 2 4.03412 11.5073 24.5612
975 2 8.02427 11.6101 24.5042
976 2 11.9656 11.414 24.5819
977 2 0.0386694 15.4846 24.6429
978 2 3.90195 15.4714 24.5331
979 2 8.07334 15.4291 24.6153
980 2 12.057 15.3369 24.5013
981 2 15.8253 19.3698 24.4239
982 2 4.02999 19.3597 24.7334
983 2 8.01816 19.3745 24.6882
984 2 11.9502 19.422 24.4863
985 2 0.0254149 23.2898 24.4709
986 2 3.95982 23.1381 24.5483
987 2 7.9745 23.3253 24.3647
988 2 11.9378 23.2141 24.6374
989 2 -0.00282784 27.0779 24.4023
990 2 3.93303 27.0106 24.455
991 2 7.79394 27.1121 24.4025