ITEM: TIMESTEP
18700
ITEM: NUMBER OF ATOMS
32000
ITEM: BOX BOUNDS xy xz yz pp pp pp
0.0000000000000000e+00 1.5832000000000001e+01 0.0000000000000000e+00
0.0000000000000000e+00 1.5831999999999999e+02 0.0000000000000000e+00
8.2323026236896624e-01 1.6015388773762839e+02 0.0000000000000000e+00
ITEM: ATOMS id type x y z
1 2 0.0711922 158.01 159.953
2 2 4.09863 158.125 159.827
3 2 8.27051 157.793 159.765
4 2 12.0629 157.796 159.849
5 2 15.9974 3.53415 159.767
6 2 3.86698 3.65653 159.806
7 2 8.1158 3.45164 159.733
8 2 11.9706 3.24636 159.784
9 2 0.0123633 7.42393 159.84
10 2 4.00204 7.48082 159.754
11 2 8.02836 7.25541 159.79
12 2 11.9504 7.13086 159.637
13 2 0.0232012 11.0973 159.614
14 2 3.98151 11.2961 159.662
15 2 7.97887 11.1429 159.643
16 2 11.9269 11.0591 159.735
17 2 15.8085 15.1769 159.685
18 2 3.91237 15.195 159.638
19 2 8.15907 15.2803 159.687
20 2 11.8299 15.0723 159.684
21 2 0.222513 19.0364 159.856
22 2 4.07403 19.0206 159.706
23 2 7.98771 19.1395 159.604
24 2 11.9006 19.1015 159.679
25 2 15.8334 23.0272 0.529847
26 2 4.099 23.1231 159.853
27 2 7.91309 23.0127 159.607
28 2 12.0526 23.281 159.824
29 2 15.8152 27.0765 160.047
30 2 3.92038 27.1302 159.795
31 2 7.94487 27.0817 159.777
32 2 11.7352 27.0188 159.84
33 2 16.0473 31.1636 160.091
34 2 4.05177 31.167 159.87
35 2 7.99115 31.1149 160.035
36 2 11.8394 31.1492 0.511365
37 2 15.8139 35.2854 160.084
38 2 3.96445 35.1576 0.661538
39 2 7.88746 35.1401 160.13
40 2 11.728 35.1457 0.576644
41 2 -0.0864961 39.1873 160.005
42 2 3.95736 39.0264 0.683295
43 2 7.88839 39.1097 0.615593
44 2 11.7357 39.1589 159.821
45 2 -0.028235 43.2584 0.823337
46 2 4.01406 43.3917 0.932838
47 2 7.66564 43.2699 0.870976
48 2 12.052 43.1105 0.875007
49 2 15.7849 47.2671 0.904776
50 2 3.75051 47.1902 0.867377
51 2 7.79263 47.2551 1.08753
52 2 11.8026 47.2707 1.03037
53 2 0.0336165 51.1623 1.15072
54 2 4.06385 51.332 1.08657
55 2 8.02124 51.2237 0.858401
56 2 11.6977 51.4618 160.336
57 2 -0.0414081 55.3932 1.03909
58 2 3.89402 55.3205 1.10551
59 2 7.96765 55.2502 0.976673
60 2 11.8529 55.2675 1.16089
61 2 0.0540274 59.48 1.05412
62 2 3.98308 59.4911 0.833537
63 2 8.18786 59.4231 1.17606
64 2 12.1346 59.3219 1.00072
65 2 0.0969664 63.3697 1.14481
66 2 4.23309 63.3978 1.14862
67 2 8.23774 63.411 0.987548
68 2 12.0394 63.3204 1.2531
69 2 0.2324 67.4127 1.20689
70 2 4.19361 67.4779 1.32624
71 2 8.15575 67.3984 1.2997
72 2 12.0823 67.469 1.38662
73 2 15.9989 71.4873 1.35431
74 2 4.0632 71.6889 1.29544
75 2 8.29406 71.4706 1.31776
76 2 11.8835 71.5329 1.28309
77 2 0.225214 75.3987 1.47096
78 2 4.00657 75.4879 1.47598
79 2 8.10514 75.5309 1.33854
80 2 12.2544 75.6413 1.35195
81 2 -0.00462525 79.4848 1.42751
82 2 4.15752 79.8157 1.42599
83 2 8.26738 79.4654 1.41397
84 2 12.0926 79.3791 1.35252
85 2 -0.0577416 83.4758 1.48296
86 2 4.05154 83.5073 1.68748
87 2 8.06445 83.5885 1.4555
88 2 12.0498 83.5698 1.65747
89 2 0.028018 87.6692 1.47428
90 2 4.04178 87.4523 1.52216
91 2 7.8929 87.4744 1.44245
92 2 11.8229 87.5325 1.56912
93 2 -0.00483279 91.4409 1.40113
94 2 4.08025 91.4256 1.27553
95 2 7.98401 91.2733 1.28062
96 2 12.088 91.3417 1.48187
97 2 0.0498903 95.4358 1.46172
98 2 4.00501 95.4571 1.27004
99 2 8.04407 95.2248 1.32041
100 2 11.9212 95.5275 1.43898
101 2 -0.0575108 99.2145 1.17083
102 2 4.1416 99.3676 1.18161
103 2 7.91777 99.2117 1.42292
104 2 11.7553 99.3654 1.30245
105 2 15.8438 103.116 1.33926
106 2 4.06126 103.173 1.32108
107 2 8.04115 102.935 1.02071
108 2 11.9047 103.313 1.17863
109 2 15.8485 106.948 1.20495
110 2 3.93801 106.957 1.24482
111 2 7.93463 106.96 1.29938
112 2 11.8427 107.003 1.12436
113 2 0.109628 110.891 1.12803
114 2 3.95159 111.056 1.09594
115 2 7.86146 110.961 1.13106
116 2 12.0272 111.078 1.11202
117 2 0.341529 115.016 0.979189
118 2 3.97717 114.828 1.21192
119 2 7.92003 114.911 0.995015
120 2 11.9763 115.019 1.06071
121 2 15.7245 118.84 0.962742
122 2 4.01169 118.724 1.14356
123 2 7.97495 118.798 0.816597
124 2 11.9934 118.916 160.227
125 2 0.0257528 122.711 0.777081
126 2 3.96374 122.59 0.859737
127 2 8.02888 122.771 0.956961
128 2 11.8119 122.813 0.813387
129 2 -0.0341499 126.774 160.308
130 2 3.8665 126.46 160.125
131 2 7.75367 126.626 0.863683
132 2 11.7796 126.689 0.934192
133 2 -0.118121 130.441 160.217
134 2 3.98778 130.339 160.371
135 2 7.85826 130.477 0.703919
136 2 11.9176 130.629 160.361
137 2 -0.0631252 134.475 160.165
138 2 3.73321 134.212 160.312
139 2 7.89166 134.237 0.966674
140 2 11.8032 134.301 160.375
141 2 -0.194157 138.319 160.366
142 2 3.91192 138.315 160.297
143 2 7.81106 138.237 160.234
144 2 11.7737 138.406 0.891389
145 2 15.7604 142.32 160.227
146 2 3.98547 142.224 160.058
147 2 7.96156 142.232 160.113
148 2 11.8185 142.388 159.911
149 2 -0.136882 146.262 160.075
150 2 3.85612 146.154 160.067
151 2 7.91247 146.026 160.026
152 2 11.9476 146.216 160.066
153 2 15.8083 150.004 160.041
154 2 3.97236 150.109 159.997
155 2 7.98491 149.919 160.024
156 2 11.8226 150.121 160.047
157 2 15.7822 154.004 159.867
158 2 3.94412 153.988 159.924
159 2 7.97423 153.98 159.828
160 2 11.9562 153.948 159.909
161 2 15.8949 158.045 4.54877
162 2 3.99837 157.754 4.41915
163 2 8.11193 157.906 4.55616
164 2 11.8576 157.892 4.75069
165 2 15.7142 3.61308 4.45905
166 2 4.00831 3.59571 4.51232
167 2 7.85797 3.40697 4.38103
168 2 11.7257 3.45357 4.55332
169 2 16.028 7.20818 4.52198
170 2 3.98613 7.4616 4.48741
171 2 8.08665 7.40435 4.33152
172 2 11.9936 7.3311 4.55595
173 2 15.9868 11.2791 4.45203
174 2 3.95257 11.3647 4.37981
175 2 7.89971 11.426 4.36985
176 2 11.9318 11.2501 4.51928
177 2 15.9235 15.3418 4.4278
178 2 3.93183 15.1154 4.33412
179 2 7.80376 15.2339 4.33379
180 2 11.8471 15.0402 4.2069
181 2 -0.252529 19.1554 4.41095
182 2 4.07211 19.1434 4.12248
183 2 8.04989 19.027 4.35508
184 2 11.9568 19.1466 4.40728
185 2 15.8499 22.9298 4.29606
186 2 4.16747 22.992 4.44198
187 2 8.00321 22.865 4.30742
188 2 11.8691 22.9959 4.42168
189 2 15.7492 27.104 4.48755
190 2 3.95366 26.9901 4.53846
191 2 7.82779 27.2474 4.44947
192 2 11.7547 26.9808 4.44296
193 2 15.7914 31.0379 4.56329
194 2 3.81234 31.0289 4.42307
195 2 8.02479 31.0536 4.72966
196 2 11.9579 31.2431 4.43411
197 2 -0.0219251 35.125 4.60687
198 2 4.00593 35.2037 4.65672
199 2 7.93591 35.1017 4.53634
200 2 12.0532 34.9807 4.67049
201 2 0.0857023 39.0641 4.74052
202 2 4.03834 39.3095 4.60823
203 2 7.91692 39.2883 4.75618
204 2 11.7927 39.1603 4.48124
205 2 -0.0604424 43.142 4.66637
206 2 3.8421 43.2609 4.88064
207 2 7.95369 43.3825 4.6699
208 2 11.8629 43.1401 4.75285
209 2 15.875 47.1616 4.88725
210 2 3.84994 47.309 4.79216
211 2 7.97469 47.3672 4.88621
212 2 11.6709 47.4205 4.86398
213 2 0.0772102 51.405 4.99309
214 2 3.80807 51.2082 4.90531
215 2 7.96483 51.1471 5.01468
216 2 12.0286 51.3025 4.88643
217 2 -0.0672262 55.4281 5.07914
218 2 4.00064 55.1821 5.06252
219 2 7.96762 55.34 4.94506
220 2 11.8367 55.1999 4.92701
221 2 0.229012 59.2855 5.05082
222 2 3.99506 59.2603 5.04673
223 2 7.99272 59.2204 5.03238
224 2 11.9222 59.256 4.84586
225 2 0.330325 63.4077 5.05587
226 2 4.11415 63.5523 5.08087
227 2 8.23505 63.3648 5.10759
228 2 12.0238 63.3989 5.02064
229 2 0.161331 67.3982 5.05046
230 2 4.03661 67.4252 5.32907
231 2 8.13219 67.3611 5.21248
232 2 12.1164 67.3699 5.25293
233 2 0.0354594 71.3618 5.30763
234 2 4.31821 71.6208 5.15374
235 2 8.06152 71.3536 5.1961
236 2 11.8895 71.4322 5.07891
237 2 0.154912 75.4264 5.25968
238 2 4.12573 75.4017 5.28668
239 2 7.99026 75.5131 5.15939
240 2 11.9176 75.3968 5.39114
241 2 0.169693 79.3555 5.39915
242 2 4.07127 79.6791 5.4235
243 2 7.8625 79.4277 5.33232
244 2 11.9979 79.4421 5.36781
245 2 15.8226 83.6807 5.40947
246 2 4.12946 83.5677 5.51294
247 2 8.0198 83.5902 5.37114
248 2 12.1141 83.4062 5.39462
249 2 0.181039 87.6859 5.57102
250 2 3.96211 87.5313 5.51319
251 2 7.98753 87.4348 5.47834
252 2 11.8873 87.7089 5.53612
253 2 0.178402 91.4026 5.26554
254 2 4.07513 91.3317 5.45846
255 2 7.70627 91.3492 5.39312
256 2 11.844 91.4284 5.23092
257 2 0.0653346 95.3321 5.27832
258 2 4.03801 95.2578 5.57786
259 2 8.11436 95.4865 5.35659
260 2 11.807 95.4775 5.48316
261 2 -0.0561857 99.3888 5.49018
262 2 3.94152 99.3112 5.28832
263 2 7.88282 99.4536 5.39696
264 2 11.9882 99.2923 5.24968
265 2 15.93 103.235 5.31532
266 2 3.87249 103.057 5.22475
267 2 7.97159 103.119 5.36528
268 2 11.9304 103.138 5.22376
269 2 0.0273286 107.146 5.27
270 2 3.88456 107.135 4.9773
271 2 7.94446 107.178 5.11957
272 2 11.8105 107.017 5.42323
273 2 -0.107519 110.817 5.1767
274 2 4.10884 110.944 5.05066
275 2 7.89288 111.085 5.15246
276 2 11.8601 110.941 5.25727
277 2 15.8819 114.72 5.10096
278 2 3.98006 114.956 5.31031
279 2 7.81618 115.031 5.00963
280 2 11.8523 114.881 5.15117
281 2 15.7025 118.798 5.08576
282 2 3.79681 118.743 5.11889
283 2 7.83407 118.837 4.94669
284 2 11.9186 118.844 5.06609
285 2 15.9318 122.889 4.8203
286 2 3.90239 122.564 5.0407
287 2 8.01294 122.838 5.07666
288 2 12.0337 122.817 5.03806
289 2 -0.123936 126.619 5.04152
290 2 3.94677 126.418 4.81478
291 2 7.8092 126.462 4.98742
292 2 11.7944 126.739 5.04141
293 2 0.0664774 130.363 4.92517
294 2 3.91504 130.546 4.98727
295 2 7.76848 130.412 5.11609
296 2 11.6603 130.621 5.11729
297 2 -0.0210512 134.484 4.76836
298 2 3.98053 134.413 4.84964
299 2 7.80947 134.299 5.12652
300 2 11.7874 134.418 4.83732
301 2 15.7087 138.508 4.87747
302 2 3.97449 138.341 4.97898
303 2 7.62253 138.339 5.00237
304 2 11.8546 138.386 4.90295
305 2 0.0653837 142.376 4.85163
306 2 3.98407 142.305 4.82506
307 2 8.03088 142.096 4.86288
308 2 11.8291 142.344 4.77047
309 2 15.8728 146.124 4.67805
310 2 3.81142 146.18 4.74241
311 2 7.97892 146.126 4.80879
312 2 11.8386 146.15 4.87797
313 2 0.06789 150.019 4.7809
314 2 3.96761 150.263 4.63406
315 2 7.97234 149.988 4.82082
316 2 11.9444 150.172 4.69444
317 2 15.7665 153.934 4.57332
318 2 3.85993 154.163 4.6611
319 2 8.1378 154.144 4.73764
320 2 11.816 154.088 4.55341
321 2 15.8132 157.963 8.62978
322 2 3.86965 157.819 8.58199
323 2 7.84658 158.029 8.75613
324 2 11.944 157.918 8.71348
325 2 15.926 3.43517 8.75395
326 2 3.99025 3.152 8.44836
327 2 7.86239 3.51104 8.66866
328 2 11.9097 3.52984 8.57677
329 2 0.125039 7.50642 8.59334
330 2 4.01247 7.60707 8.38893
331 2 7.80493 7.55319 8.38931
332 2 11.8524 7.45022 8.51087
333 2 15.7893 11.4186 8.56645
334 2 3.82813 11.4773 8.57482
335 2 8.02433 11.4334 8.38975
336 2 11.8809 11.3616 8.4134
337 2 0.0640078 15.2861 8.37685
338 2 3.9395 15.1454 8.23773
339 2 7.84271 15.4478 8.53317
340 2 11.7503 15.443 8.41544
341 2 0.0223584 19.025 8.15092
342 2 4.01008 19.1556 8.40748
343 2 7.70839 19.1212 8.62611
344 2 11.9545 19.1895 8.39108
345 2 0.0834004 23.0937 8.2203
346 2 3.81375 22.8612 8.10286
347 2 7.91835 23.11 8.30272
348 2 12.0337 23.156 8.29526
349 2 15.7335 27.069 8.19387
350 2 4.01918 26.9597 8.53081
351 2 7.94239 27.085 8.4226
352 2 11.9995 26.989 8.35049
353 2 15.7251 31.0702 8.46523
354 2 3.74832 31.0359 8.46838
355 2 7.80217 30.8673 8.36274
356 2 11.8112 30.9442 8.37162
357 2 16.0689 34.9859 8.56081
358 2 3.98244 34.9418 8.43588
359 2 8.16761 34.9738 8.40871
360 2 12.1111 35.1003 8.46566
361 2 15.6812 39.0249 8.52692
362 2 3.88055 39.2387 8.68015
363 2 7.96376 39.1195 8.64661
364 2 11.8797 39.223 8.44354
365 2 15.7495 43.112 8.75072
366 2 3.93495 43.0886 8.91995
367 2 7.85753 43.1721 8.63185
368 2 12.0049 43.1094 8.5004
369 2 0.0296812 47.1046 8.88077
370 2 4.00006 47.0793 8.79608
371 2 7.93772 47.1504 8.58951
372 2 12.1079 47.3726 8.63622
373 2 -0.00269877 51.3368 8.99134
374 2 4.09169 51.1536 8.91908
375 2 8.06176 51.1235 8.89483
376 2 11.8111 51.2417 8.78621
377 2 0.0392355 55.2334 8.94749
378 2 4.04901 55.0764 8.93621
379 2 7.93131 55.1443 8.92889
380 2 11.8392 55.2801 8.85144
381 2 15.8507 59.311 8.94718
382 2 4.01846 59.3126 8.49273
383 2 8.06744 59.1766 8.87482
384 2 12.0167 59.3803 9.01791
385 2 -0.0550739 63.3662 9.08159
386 2 4.05794 63.3193 8.81101
387 2 8.07912 63.384 9.03616
388 2 12.1067 63.2635 8.88012
389 2 0.157037 67.4763 8.9502
390 2 4.07995 67.3035 9.08013
391 2 8.04978 67.3309 8.9401
392 2 12.0217 67.2789 9.09885
393 2 0.0763026 71.2264 9.12912
394 2 3.87861 71.3868 9.05347
395 2 8.16114 71.4611 9.09611
396 2 11.9014 71.4326 9.13669
397 2 0.058443 75.4606 9.02532
398 2 3.93834 75.4038 9.23861
399 2 7.90476 75.5235 9.231
400 2 11.8003 75.4357 9.17468
401 2 0.127025 79.3607 9.2766
402 2 4.08219 79.3882 9.16034
403 2 7.88004 79.4601 9.20744
404 2 11.9208 79.4551 9.08885
405 2 0.0936012 83.5821 9.3401
406 2 4.15189 83.4467 9.22034
407 2 8.1275 83.5024 9.2151
408 2 11.8764 83.2949 9.35779
409 2 0.0926491 87.7123 9.34427
410 2 3.97843 87.4592 9.42512
411 2 8.10278 87.4547 9.56407
412 2 12.0032 87.5473 9.30962
413 2 -0.110594 91.5753 9.45098
414 2 3.9082 91.3655 9.30103
415 2 7.9435 91.5997 9.34452
416 2 11.7625 91.7863 9.28201
417 2 -0.168956 95.5572 9.3118
418 2 3.93471 95.5049 9.32932
419 2 8.11594 95.4219 9.2996
420 2 11.9429 95.6023 9.39313
421 2 15.7824 99.5455 9.51469
422 2 3.88361 99.4253 9.21989
423 2 7.79306 99.5035 9.52031
424 2 11.8427 99.4121 9.40353
425 2 0.0497546 103.385 9.23217
426 2 4.0194 103.404 9.13395
427 2 7.96365 103.311 9.37807
428 2 11.6502 103.241 9.22261
429 2 15.7206 107.134 9.30936
430 2 3.90664 107.312 9.31381
431 2 7.91834 107.137 8.99153
432 2 11.8679 107.18 9.36666
433 2 0.125351 111.071 9.172
434 2 4.22643 110.929 9.11313
435 2 7.96573 111.022 9.16083
436 2 11.8267 111.062 9.0271
437 2 0.19882 114.879 9.09896
438 2 3.92897 115.072 9.06637
439 2 7.88809 114.752 9.0452
440 2 11.8374 114.822 9.14085
441 2 -0.126104 119.08 9.06832
442 2 3.78261 118.847 9.12663
443 2 7.8523 118.806 9.05851
444 2 11.8118 118.889 9.08818
445 2 15.6469 122.739 9.14853
446 2 3.76892 122.724 9.14315
447 2 7.77622 122.706 9.05416
448 2 11.8062 122.794 9.11644
449 2 0.0478715 126.634 9.00494
450 2 4.03094 126.76 8.99032
451 2 7.77861 126.591 9.09386
452 2 11.8803 126.639 9.13668
453 2 -0.0896821 130.408 8.83424
454 2 3.78869 130.54 8.88045
455 2 7.79198 130.528 9.07094
456 2 11.9821 130.357 9.01085
457 2 -0.00208612 134.354 8.83852
458 2 3.69294 134.548 8.89454
459 2 7.83392 134.53 9.00007
460 2 11.7796 134.398 8.89721
461 2 0.0389396 138.153 8.81994
462 2 4.0473 138.5 8.85008
463 2 8.12109 138.397 8.97078
464 2 11.9669 138.323 8.86587
465 2 0.158304 142.288 8.78386
466 2 3.83116 142.366 8.96144
467 2 7.99766 142.362 8.90378
468 2 11.9104 142.382 8.85185
469 2 15.8579 146.11 8.82105
470 2 4.05096 146.155 8.829
471 2 7.88888 146.363 8.74714
472 2 11.9503 146.238 8.90142
473 2 15.8432 150.11 8.76345
474 2 4.06297 150.062 8.53889
475 2 7.95305 150.102 8.77247
476 2 11.9153 150.249 8.73242
477 2 15.8012 154.112 8.74316
478 2 4.02856 153.94 8.52649
479 2 7.91435 154.107 8.68107
480 2 11.9476 154.076 8.59654
481 2 15.777 158.014 12.6379
482 2 3.90625 157.96 12.7706
483 2 7.82834 158.069 12.5609
484 2 11.78 157.897 12.5578
485 2 15.919 3.67958 12.688
486 2 4.09668 3.57748 12.6684
487 2 8.02341 3.72907 12.6077
488 2 11.8394 3.61884 12.4628
489 2 0.0515215 7.49889 12.4256
490 2 4.14479 7.48023 12.6525
491 2 8.06887 7.40824 12.4003
492 2 11.9625 7.7261 12.2525
493 2 16.0925 11.4945 12.4144
494 2 3.96761 11.4175 12.6045
495 2 7.81877 11.6298 12.6297
496 2 11.9607 11.3106 12.5102
497 2 0.103627 15.308 12.5594
498 2 3.94668 15.2376 12.3996
499 2 7.88429 15.2551 12.5585
500 2 12.0756 15.2098 12.4879
501 2 15.929 19.1473 12.6286
502 2 3.8877 19.2335 12.5342
503 2 7.75888 19.356 12.5509
504 2 11.7824 19.1425 12.4741
505 2 15.6764 23.0177 12.2999
506 2 3.86877 23.1962 12.341
507 2 7.91673 23.2862 12.5182
508 2 11.8777 22.9447 12.327
509 2 15.8374 27.238 12.1263
510 2 3.95365 26.9744 12.3194
511 2 8.05736 26.9254 12.3793
512 2 11.7368 26.8942 12.3782
513 2 -0.0946604 31.024 12.381
514 2 3.94967 30.8595 12.2796
515 2 7.86395 30.8894 12.3861
516 2 11.7979 31.1397 12.5287
517 2 15.8343 34.8841 12.3948
518 2 4.02691 34.8954 12.5015
519 2 7.90456 34.9116 12.3042
520 2 11.9959 34.8775 12.3367
521 2 15.8712 38.9546 12.5045
522 2 4.08673 39.0742 12.4722
523 2 7.97985 38.9896 12.4242
524 2 11.8448 39.0199 12.3797
525 2 15.8764 43.0275 12.7019
526 2 3.89147 43.2101 12.8344
527 2 7.80559 43.0027 12.4311
528 2 11.7474 42.9581 12.8138
529 2 15.8582 47.0579 12.6664
530 2 4.11775 47.1238 12.7918
531 2 8.12801 46.9131 12.6837
532 2 11.8541 46.9892 12.4544
533 2 0.0214609 50.9597 12.8037
534 2 3.99532 51.1761 12.7773
535 2 8.01873 51.0937 12.7114
536 2 12.0126 51.0298 12.802
537 2 0.104184 54.9487 12.9685
538 2 4.1001 55.1326 12.9894
539 2 7.98628 55.2371 12.9096
540 2 11.8008 55.014 12.7758
541 2 0.100229 59.0409 12.8749
542 2 4.22396 59.189 12.7696
543 2 7.97219 59.1598 12.8237
544 2 12.1552 59.0388 12.8343
545 2 0.319861 63.2038 12.6929
546 2 4.06663 63.1391 12.8321
547 2 8.05385 63.3256 12.6534
548 2 12.1324 63.2155 12.9933
549 2 0.162435 67.2317 13.1621
550 2 4.2415 67.1908 13.0749
551 2 7.96611 67.2148 13.0202
552 2 12.0131 67.1933 13.0636
553 2 0.144996 71.3151 12.7914
554 2 3.9946 71.2677 12.8504
555 2 8.05958 71.3893 13.0877
556 2 11.9629 71.4451 12.9803
557 2 0.209549 75.2882 13.2108
558 2 3.97407 75.2859 13.0137
559 2 8.01086 75.4606 13.0656
560 2 12.136 75.1348 13.1262
561 2 0.221166 79.307 13.1437
562 2 4.00859 79.3557 13.1503
563 2 7.95471 79.2827 13.1466
564 2 12.1607 79.3984 13.2092
565 2 -0.0383108 83.3653 13.1642
566 2 4.01563 83.6835 13.2134
567 2 7.98044 83.5011 13.2823
568 2 11.927 83.4149 13.2883
569 2 -0.0903694 87.3655 13.4261
570 2 4.04875 87.6614 13.4416
571 2 8.03433 87.5077 13.1765
572 2 12.0762 87.6101 13.272
573 2 0.103775 91.4176 13.3052
574 2 3.94015 91.5273 13.1771
575 2 7.96096 91.48 13.1891
576 2 12.0782 91.6796 13.2913
577 2 0.0196423 95.5038 13.3999
578 2 3.93571 95.5311 13.3562
579 2 7.77968 95.2874 13.3408
580 2 11.9477 95.5792 13.4018
581 2 -0.0682227 99.4378 13.2875
582 2 3.86981 99.2879 13.5525
583 2 7.9238 99.1907 13.1607
584 2 11.9156 99.484 13.2785
585 2 0.016888 103.371 13.1892
586 2 3.97031 103.319 13.3308
587 2 7.64676 103.169 13.2855
588 2 11.7317 103.294 13.4233
589 2 15.7484 107.157 13.1835
590 2 3.81381 107.135 13.3755
591 2 7.87044 106.966 13.159
592 2 11.7963 107.383 13.3573
593 2 0.131704 111.318 13.2895
594 2 3.94951 110.979 13.3065
595 2 8.09743 111.19 13.0865
596 2 11.9861 110.944 13.1586
597 2 15.893 115.052 13.2753
598 2 3.88536 115.061 13.1304
599 2 7.90366 115.013 13.2135
600 2 11.9198 114.938 13.1445
601 2 15.6618 118.973 13.014
602 2 3.95229 119.01 13.0864
603 2 8.03659 118.947 13.0252
604 2 11.8937 118.809 13.197
605 2 0.0168571 122.891 12.9693
606 2 3.93573 122.651 13.1451
607 2 7.80581 122.797 12.9737
608 2 11.7801 122.818 12.8775
609 2 15.748 126.7 13.2871
610 2 3.76362 126.662 13.0614
611 2 7.8171 126.79 13.2474
612 2 11.8118 126.646 13.1333
613 2 15.7771 130.59 13.0074
614 2 3.82408 130.684 12.9519
615 2 7.89759 130.622 13.0094
616 2 11.8022 130.623 13.0191
617 2 0.131342 134.449 12.8507
618 2 3.92839 134.489 12.9732
619 2 7.87875 134.423 12.9206
620 2 11.9386 134.417 12.9993
621 2 -0.170989 138.534 12.9969
622 2 3.94124 138.293 12.9925
623 2 7.91874 138.373 12.9217
624 2 11.7295 138.401 13.0427
625 2 15.7839 142.489 13.0231
626 2 4.02417 142.208 12.8735
627 2 8.00453 142.504 12.7277
628 2 11.9573 142.394 12.6119
629 2 -0.0261001 146.371 12.9345
630 2 4.09727 146.423 12.8001
631 2 7.99321 146.181 12.6626
632 2 11.8723 146.151 12.769
633 2 15.8837 150.241 12.6862
634 2 3.74887 150.212 12.8012
635 2 7.86405 150.112 12.8349
636 2 11.7313 150.011 12.8122
637 2 15.6995 153.97 12.7538
638 2 3.90348 154.132 12.8046
639 2 7.98229 154.072 12.6274
640 2 11.8241 153.978 12.6497
641 2 15.7938 158.015 16.7331
642 2 3.86281 157.832 16.6844
643 2 7.99125 158.084 16.8188
644 2 11.8313 157.925 16.6944
645 2 15.8815 3.78205 16.5705
646 2 3.85908 3.56915 16.5329
647 2 7.85363 3.67759 16.6827
648 2 11.8442 3.48262 16.5873
649 2 -0.118573 7.51788 16.5028
650 2 3.88062 7.65651 16.533
651 2 7.87227 7.45378 16.6395
652 2 11.9781 7.38313 16.6551
653 2 15.8466 11.3238 16.6336
654 2 3.93974 11.3501 16.3851
655 2 8.10533 11.3661 16.4527
656 2 12.0017 11.4051 16.83
657 2 -0.0614481 15.3474 16.7334
658 2 3.91037 15.247 16.5967
659 2 7.8982 15.2967 16.561
660 2 11.9214 15.2733 16.5957
661 2 15.8526 19.2058 16.6646
662 2 4.18723 19.26 16.5989
663 2 8.02192 19.1617 16.6142
664 2 11.9389 19.2555 16.3345
665 2 15.7179 23.1929 16.5395
666 2 3.94171 23.2248 16.4815
667 2 7.78096 23.2168 16.4794
668 2 11.7308 23.041 16.4783
669 2 -0.0821667 27.0555 16.2348
670 2 3.96838 27.2651 16.4771
671 2 7.92424 27.0317 16.3823
672 2 11.9707 26.8877 16.2923
673 2 15.8751 30.9038 16.2362
674 2 4.07931 30.901 16.4242
675 2 7.89902 30.9953 16.3218
676 2 12.1461 30.8297 16.4423
677 2 15.8154 34.9353 16.3992
678 2 3.94048 34.9016 16.3138
679 2 8.009 35.0455 16.318
680 2 12.0099 34.7629 16.2679
681 2 0.102973 38.863 16.2603
682 2 4.17123 38.8544 16.2918
683 2 7.90672 38.9325 16.3058
684 2 11.9572 39.1061 16.3849
685 2 15.7277 42.8136 16.6192
686 2 3.84247 42.9953 16.5643
687 2 7.9082 42.9601 16.4084
688 2 11.8689 42.9705 16.5471
689 2 -0.0339765 47.0107 16.6801
690 2 3.87193 47.0061 16.6836
691 2 8.05738 47.0483 16.7649
692 2 11.841 46.9013 16.7888
693 2 15.9239 50.967 16.6356
694 2 4.18244 51.2133 16.6059
695 2 8.17312 51.1321 16.7002
696 2 11.988 50.9041 16.6545
697 2 -0.0259128 55.0225 16.7897
698 2 4.07084 55.0044 16.7332
699 2 7.87627 55.0545 16.8225
700 2 11.9226 55.2617 16.691
701 2 0.0730108 59.2679 16.9556
702 2 3.92199 59.1148 16.7588
703 2 8.01438 59.053 16.6787
704 2 12.0901 59.0814 16.6809
705 2 0.133465 63.2 16.5869
706 2 4.14661 63.1214 16.6824
707 2 8.25868 63.1548 16.6891
708 2 11.8957 63.0313 16.5526
709 2 0.333481 67.1426 17.0568
710 2 4.15227 67.128 17.106
711 2 8.04246 67.1552 16.8565
712 2 12.1842 67.1834 16.7954
713 2 0.0905733 71.2777 16.8634
714 2 4.0268 71.2663 17.1018
715 2 8.03824 71.0177 16.9542
716 2 12.0544 71.2319 16.9315
717 2 0.128708 75.1769 17.0948
718 2 4.13162 75.1506 17.1471
719 2 8.18043 75.4012 17.193
720 2 11.8569 75.352 16.993
721 2 0.201002 79.2206 16.9899
722 2 4.13038 79.2503 17.0005
723 2 8.18601 79.1998 17.0136
724 2 12.0574 79.2139 17.0126
725 2 0.41979 83.52 17.1047
726 2 4.16705 83.2965 17.1361
727 2 7.90841 83.2754 17.1439
728 2 11.9611 83.2934 17.2227
729 2 0.238367 87.3806 17.1679
730 2 4.02782 87.4788 17.0859
731 2 7.89914 87.5287 17.2601
732 2 11.9515 87.6027 16.9276
733 2 0.170776 91.4406 17.5602
734 2 4.04082 91.403 17.3617
735 2 7.96566 91.3385 17.405
736 2 11.8221 91.6417 17.2116
737 2 0.117527 95.4983 17.4544
738 2 4.04109 95.4612 17.3045
739 2 8.06368 95.4154 17.3332
740 2 12.0368 95.4248 17.2039
741 2 15.8576 99.5204 17.382
742 2 3.97972 99.2766 17.3643
743 2 7.73868 99.4084 17.3784
744 2 11.7297 99.3865 17.3582
745 2 15.7367 103.357 17.2609
746 2 3.97291 103.336 17.2755
747 2 7.96032 103.289 17.2902
748 2 11.7926 103.25 17.4323
749 2 15.8115 107.182 17.1481
750 2 3.9745 107.319 17.2317
751 2 7.84477 107.336 17.2573
752 2 11.9359 107.15 17.2172
753 2 -0.191663 111.316 17.3828
754 2 3.83633 111.108 17.1485
755 2 7.8683 111.152 17.4603
756 2 11.7883 111.063 17.2804
757 2 -0.143842 115.176 17.2279
758 2 3.80025 115.004 17.3175
759 2 7.90343 114.854 17.3238
760 2 11.7189 114.992 17.1264
761 2 0.0910223 118.902 17.1878
762 2 3.96363 119.033 17.0382
763 2 7.97549 119.067 17.331
764 2 11.8797 118.758 17.2587
765 2 0.0941137 122.671 17.1844
766 2 3.90797 122.802 17.127
767 2 7.8481 122.841 17.2309
768 2 11.9977 122.786 16.789
769 2 -0.0349998 126.729 17.159
770 2 4.0168 126.863 17.2493
771 2 7.78616 126.653 17.0739
772 2 11.9818 126.833 17.1227
773 2 0.0305666 130.731 17.0828
774 2 3.93166 130.772 17.2111
775 2 7.81425 130.627 17.0409
776 2 11.8675 130.751 17.0855
777 2 0.0649485 134.479 16.9544
778 2 3.95484 134.586 17.094
779 2 7.72815 134.614 16.9323
780 2 11.8797 134.404 17.0587
781 2 15.7664 138.519 17.072
782 2 3.78742 138.253 16.6309
783 2 8.07439 138.412 16.8672
784 2 11.8997 138.712 16.9264
785 2 15.9452 142.518 16.9494
786 2 4.03092 142.443 17.0998
787 2 7.76491 142.209 17.0197
788 2 11.9409 142.531 16.7538
789 2 15.7783 146.391 16.9886
790 2 4.01523 146.127 16.9554
791 2 7.85997 146.221 16.7976
792 2 11.9928 146.207 16.7567
793 2 15.8142 150.107 16.7977
794 2 4.11592 150.046 16.7695
795 2 7.9914 150.178 16.7907
796 2 11.8957 150.228 16.7992
797 2 -0.0485333 154.055 16.815
798 2 3.96464 154.08 16.9079
799 2 7.98741 154.129 16.7163
800 2 11.9333 154.259 16.827
801 2 0.237476 158.318 20.6624
802 2 4.19876 158.04 20.789
803 2 7.85305 158.035 20.8191
804 2 11.8831 158.181 20.7445
805 2 15.847 3.52494 20.7039
806 2 4.00787 3.57509 20.696
807 2 7.89696 3.48828 20.5959
808 2 11.915 3.71496 20.7168
809 2 0.101172 7.44103 20.7596
810 2 4.09271 7.54644 20.6036
811 2 7.97513 7.42848 20.6473
812 2 11.9132 7.55799 20.7665
813 2 15.8503 11.2562 20.6164
814 2 4.17681 11.4289 20.5417
815 2 8.03197 11.3338 20.3887
816 2 11.9266 11.3788 20.705
817 2 15.955 15.325 20.7129
818 2 4.06067 15.1974 20.6851
819 2 7.96251 15.4711 20.6158
820 2 11.9867 15.5087 20.7363
821 2 15.8982 19.3084 20.4142
822 2 4.14227 19.1629 20.5887
823 2 7.88261 19.3386 20.6355
824 2 11.7398 19.36 20.5046
825 2 15.8367 23.2391 20.5378
826 2 3.78138 23.0963 20.5404
827 2 7.96026 23.4437 20.5079
828 2 11.9283 23.2243 20.5435
829 2 0.0440786 27.0864 20.4473
830 2 3.89299 27.0164 20.4411
831 2 7.84278 27.0108 20.3783
832 2 11.8278 26.9617 20.286
833 2 -0.12411 30.8717 20.578
834 2 3.80568 30.956 20.341
835 2 7.7502 31.1288 20.4975
836 2 11.7399 30.8931 20.5662
837 2 15.7768 34.9565 20.4241
838 2 3.82013 34.8218 20.4173
839 2 7.95471 34.8638 20.1265
840 2 11.759 34.7202 20.2639
841 2 -0.0630441 38.9239 20.322
842 2 3.88305 38.7636 20.454
843 2 7.97577 38.7468 20.1865
844 2 11.9375 38.8197 20.3781
845 2 -0.0635257 42.8978 20.4521
846 2 4.07173 42.9011 20.4572
847 2 7.91888 42.8226 20.3811
848 2 11.9918 42.8724 20.3881
849 2 -0.060632 46.8195 20.5047
850 2 4.01443 46.8276 20.6576
851 2 8.01105 46.947 20.5073
852 2 12.0651 47.1407 20.5382
853 2 -0.104907 51.0283 20.5362
854 2 3.86621 50.8804 20.5459
855 2 7.74226 51.0335 20.6218
856 2 11.8746 50.8933 20.52
857 2 0.131873 55.0985 20.6749
858 2 4.14577 55.0812 20.6711
859 2 8.12129 55.1303 20.6582
860 2 11.9391 55.0192 20.6167
861 2 15.9251 59.0921 20.6388
862 2 3.84955 59.0126 20.4376
863 2 7.80749 59.0355 20.7289
864 2 11.84 58.9468 20.667
865 2 15.8311 63.1164 20.5818
866 2 4.14864 62.9942 20.7426
867 2 7.96423 62.949 20.7588
868 2 11.8334 63.0996 20.7685
869 2 0.0281695 67.134 20.8258
870 2 3.99911 66.9626 20.7893
871 2 7.79612 67.0304 20.8265
872 2 11.8756 67.0243 20.8193
873 2 0.0762649 71.2732 20.8418
874 2 3.97131 70.9572 21.0502
875 2 7.92644 71.1078 20.783
876 2 11.7554 71.0118 20.9554
877 2 -0.0626148 75.1276 20.9066
878 2 3.96584 74.9492 21.0915
879 2 8.00921 75.0783 20.9855
880 2 11.9932 75.0738 20.8973
881 2 -0.00882868 79.2754 21.0578
882 2 3.82078 79.175 20.8362
883 2 7.78934 79.366 21.0407
884 2 11.8733 79.2924 20.986
885 2 0.181315 83.3559 20.9663
886 2 4.15303 83.0638 20.9248
887 2 7.84091 83.0815 21.0298
888 2 11.8783 83.3497 20.7841
889 2 -0.0140811 87.2503 21.0906
890 2 4.16276 87.2895 21.1936
891 2 8.14064 87.1745 21.2045
892 2 11.8628 87.3184 20.9426
893 2 0.0516265 91.3654 21.3149
894 2 4.03929 91.2871 21.3978
895 2 7.88382 91.3248 21.2318
896 2 11.9658 91.6403 21.3271
897 2 15.9302 95.3858 21.3483
898 2 4.04129 95.3757 21.3986
899 2 7.8894 95.3096 21.0015
900 2 12.0115 95.316 21.1859
901 2 0.147092 99.479 21.2846
902 2 3.94477 99.3278 21.3928
903 2 7.91738 99.4618 21.4285
904 2 12.0928 99.4937 21.3146
905 2 15.8047 103.366 21.2066
906 2 4.00651 103.517 21.4673
907 2 7.92652 103.308 21.4566
908 2 11.8851 103.34 21.3658
909 2 -0.12062 107.409 21.4066
910 2 4.15584 107.026 21.2902
911 2 7.92618 107.082 21.3278
912 2 11.7858 106.925 21.2894
913 2 15.9565 111.362 21.2457
914 2 3.96131 111.058 21.4755
915 2 7.74337 111.117 21.3572
916 2 11.8256 111.271 21.4371
917 2 0.0569915 115.088 21.4262
918 2 3.81938 115.087 21.3035
919 2 7.74812 115.026 21.3653
920 2 11.7033 115.044 21.248
921 2 -0.0234341 118.908 21.1804
922 2 4.11786 119.008 21.1803
923 2 7.97571 118.988 21.3057
924 2 11.8721 118.925 21.2173
925 2 0.0155149 123.041 21.2703
926 2 3.89443 122.989 21.0738
927 2 7.80733 122.953 21.1018
928 2 11.7918 123.055 21.1379
929 2 -0.046607 126.856 21.2013
930 2 3.87482 126.917 21.2787
931 2 7.89861 126.612 21.0441
932 2 11.7958 126.728 21.0515
933 2 -0.116029 130.67 21.2346
934 2 3.90077 130.766 21.1857
935 2 7.90362 130.761 20.9471
936 2 11.6389 130.756 21.0046
937 2 15.5776 134.64 21.0688
938 2 4.0493 134.56 21.2116
939 2 7.88076 134.66 21.0189
940 2 11.6112 134.474 21.1568
941 2 15.7124 138.44 21.0691
942 2 3.74365 138.647 20.9647
943 2 7.96348 138.558 21.0668
944 2 11.7865 138.582 20.6561
945 2 15.6714 142.484 20.9383
946 2 3.8162 142.415 20.87
947 2 7.88749 142.626 20.9585
948 2 11.7151 142.281 21.061
949 2 -0.293322 146.299 20.9926
950 2 4.07242 146.425 20.9279
951 2 7.94366 146.658 20.9097
952 2 11.8445 146.271 20.6707
953 2 15.9042 150.272 20.8224
954 2 4.00008 150.142 20.8111
955 2 7.96398 150.339 20.8249
956 2 11.771 150.485 20.9348
957 2 0.0858561 154.011 20.7212
958 2 3.893 154.134 20.7271
959 2 7.9006 153.932 20.846
960 2 11.9088 154.295 20.8889
961 2 0.0258137 157.846 24.7628
962 2 4.0611 158.131 24.7533
963 2 7.97145 158.125 24.9913
964 2 11.9339 157.98 24.5301
965 2 16.0144 3.65497 24.8359
966 2 3.92149 3.66455 24.6882
967 2 7.80993 3.65434 24.8241
968 2 11.8258 3.62802 24.7518
969 2 0.105086 7.60633 24.8616
970 2 4.02354 7.5524 24.6375
971 2 7.92193 7.46467 24.782
972 2 11.9383 7.3393 24.8162
973 2 -0.048702 11.4368 24.6009
974 2 3.91415 11.4173 24.6771
975 2 7.73738 11.5863 24.5304
976 2 11.8585 11.3975 24.736
977 2 -0.166821 15.3484 24.6916
978 2 3.87035 15.359 24.5874
979 2 7.76867 15.3046 24.5809
980 2 11.8986 15.0887 24.4977
981 2 15.7348 19.2248 24.6024
982 2 3.98503 19.2853 24.6323
983 2 7.88319 19.2971 24.5537
984 2 11.925 19.4 24.5942
985 2 -0.0701232 23.2411 24.471
986 2 3.84476 22.9418 24.6443
987 2 7.95111 23.3502 24.6076
988 2 11.9577 23.2661 24.7279
989 2 -0.12183 27.2206 24.5423
990 2 3.80714 27.0725 24.6017
991 2 7.75429 27.2817 24.4316
992 2 11.8192 27.2313 24.5549