ITEM: TIMESTEP
18800
ITEM: NUMBER OF ATOMS
32000
ITEM: BOX BOUNDS xy xz yz pp pp pp
0.0000000000000000e+00 1.5832000000000001e+01 0.0000000000000000e+00
0.0000000000000000e+00 1.5831999999999999e+02 0.0000000000000000e+00
8.2209864659942866e-01 1.6015501935339776e+02 0.0000000000000000e+00
ITEM: ATOMS id type x y z
1 2 0.0685554 158.062 159.767
2 2 4.08964 157.78 159.972
3 2 7.83568 157.972 159.797
4 2 11.873 157.956 159.99
5 2 15.7559 3.53064 159.839
6 2 4.19839 3.49739 159.704
7 2 7.82661 3.58098 159.805
8 2 11.71 3.51174 159.713
9 2 -0.0689952 7.34851 159.705
10 2 4.0833 7.33818 159.501
11 2 7.90909 7.36856 159.598
12 2 11.775 7.50976 159.93
13 2 -0.0701776 11.4114 159.917
14 2 3.90618 11.2327 159.905
15 2 8.00421 11.406 159.803
16 2 11.8582 11.4044 159.785
17 2 15.9346 15.1304 159.642
18 2 3.98263 15.0086 159.587
19 2 7.86969 15.2018 159.599
20 2 12.0994 15.2993 159.625
21 2 -0.0284132 19.1459 159.545
22 2 4.08326 19.0609 159.617
23 2 7.98586 19.0198 159.65
24 2 12.1015 19.1094 159.772
25 2 16.0483 23.1165 0.482823
26 2 3.92948 23.0354 159.732
27 2 8.00117 23.2289 159.881
28 2 11.8312 23.0338 159.616
29 2 15.7573 27.1324 159.855
30 2 4.0706 27.2328 159.963
31 2 7.86872 27.245 159.895
32 2 11.9731 27.2067 159.769
33 2 15.7536 31.1084 159.848
34 2 3.91538 31.3016 160.015
35 2 7.81241 31.1837 159.981
36 2 11.9034 31.0666 0.563648
37 2 15.8273 35.0906 159.905
38 2 3.96645 35.3506 0.781685
39 2 7.85936 35.2257 159.91
40 2 11.9062 35.2232 0.704758
41 2 -0.0160778 39.2285 160.097
42 2 3.98975 39.3967 0.779051
43 2 7.8954 39.3615 0.794888
44 2 11.8198 39.4044 160.202
45 2 0.0535207 43.3439 0.709301
46 2 3.93402 43.1373 0.754508
47 2 8.02567 43.3526 0.788893
48 2 11.738 43.3539 0.872691
49 2 15.6664 47.3467 0.955766
50 2 4.0392 47.2113 1.00629
51 2 7.91302 47.291 0.811916
52 2 11.902 47.3039 0.991263
53 2 0.100875 51.3628 1.03144
54 2 3.94572 51.2551 0.96171
55 2 7.77781 51.5621 0.974603
56 2 11.9648 51.4911 160.113
57 2 0.0444927 55.2287 1.21779
58 2 3.86557 55.4306 1.01529
59 2 7.93745 55.4791 1.34268
60 2 12.0006 55.4285 0.990911
61 2 0.124023 59.28 1.14924
62 2 4.09429 59.2658 1.2809
63 2 8.02875 59.3549 1.01796
64 2 11.9054 59.3752 1.1967
65 2 0.0548751 63.3737 1.18167
66 2 3.98735 63.4014 1.03651
67 2 8.02176 63.4882 1.29173
68 2 11.9754 63.4661 1.05179
69 2 0.16899 67.5095 1.26863
70 2 3.97634 67.5735 1.3312
71 2 8.04951 67.5691 1.19418
72 2 11.9739 67.4095 1.08933
73 2 16.1014 71.6172 1.43143
74 2 4.13019 71.3828 1.49156
75 2 8.023 71.4936 1.32033
76 2 12.3026 71.4447 1.22885
77 2 0.319716 75.8143 1.34022
78 2 4.36406 75.688 1.27852
79 2 8.2378 75.4754 1.21605
80 2 12.1664 75.5297 1.28983
81 2 0.30226 79.6254 1.55427
82 2 3.984 79.4987 1.59983
83 2 7.74806 79.5236 1.42031
84 2 11.874 79.6122 1.4931
85 2 -0.0484746 83.5976 1.51808
86 2 3.92106 83.6064 1.43405
87 2 8.00902 83.5411 1.54126
88 2 11.9112 83.3011 1.24805
89 2 0.0183331 87.4091 1.50281
90 2 3.91985 87.4584 1.48283
91 2 8.00694 87.5021 1.60408
92 2 11.955 87.3641 1.43272
93 2 0.0649493 91.4384 1.34654
94 2 4.01542 91.3786 1.52145
95 2 7.97748 91.5616 1.52719
96 2 11.7146 91.4887 1.37823
97 2 -0.00220055 95.187 1.19652
98 2 3.98891 95.2509 1.42953
99 2 7.80986 95.3308 1.50201
100 2 11.8953 95.2542 1.20902
101 2 0.112372 99.1698 1.39002
102 2 3.7128 99.2259 1.35657
103 2 7.83543 99.2151 1.18816
104 2 12.0114 99.2772 1.3356
105 2 15.7854 103.436 1.05553
106 2 3.92834 103.129 1.05311
107 2 7.89891 103.381 1.32935
108 2 11.8012 103.186 1.18816
109 2 15.7336 107.203 1.19217
110 2 3.9487 107.11 1.14559
111 2 8.06761 107.064 1.03148
112 2 11.9135 107.316 1.16457
113 2 -0.114989 111.065 1.14734
114 2 4.03283 110.789 1.16007
115 2 8.00681 111.108 1.05971
116 2 11.8128 111.055 1.02178
117 2 -0.127389 114.734 0.961216
118 2 3.9459 114.866 0.783011
119 2 7.97063 114.878 0.975696
120 2 11.8214 114.827 1.01717
121 2 15.8961 118.62 1.01838
122 2 3.89144 118.824 0.90645
123 2 7.95258 118.66 0.96315
124 2 11.7868 118.917 160.301
125 2 -0.0621137 122.716 1.16145
126 2 3.7811 122.659 0.969675
127 2 7.82415 122.706 0.986145
128 2 12.0899 122.856 1.06083
129 2 -0.020254 126.549 160.274
130 2 4.16255 126.656 160.362
131 2 8.02927 126.611 1.02775
132 2 11.9818 126.788 0.955301
133 2 -0.0847322 130.499 160.241
134 2 3.86739 130.645 160.1
135 2 7.82344 130.344 1.07047
136 2 11.6258 130.541 160.129
137 2 -0.206818 134.284 160.365
138 2 3.99436 134.489 160.109
139 2 7.89912 134.512 0.85153
140 2 11.8524 134.607 160.22
141 2 0.0754584 138.278 160.063
142 2 3.72761 138.233 160.22
143 2 7.70545 138.372 160.277
144 2 11.8903 138.282 0.99732
145 2 15.6958 142.194 160.005
146 2 3.68479 142.389 160.014
147 2 7.727 142.046 160.067
148 2 11.7037 142.159 160.251
149 2 -0.0592569 146.136 159.997
150 2 4.05835 146.258 160.183
151 2 7.79833 146.158 160.091
152 2 11.787 146.242 160.09
153 2 16.059 150.1 160.057
154 2 4.10827 149.983 160.172
155 2 7.93231 150.14 160.013
156 2 11.9348 150.007 159.935
157 2 15.889 154.008 160.071
158 2 4.0739 153.995 160.003
159 2 8.05856 154.018 160.027
160 2 11.9744 153.918 160.046
161 2 15.6924 157.841 4.61631
162 2 3.79034 158.053 4.52302
163 2 7.8672 158.089 4.53804
164 2 11.8886 158.148 4.59257
165 2 16.0661 3.51614 4.57966
166 2 3.91319 3.44672 4.45966
167 2 7.72529 3.72265 4.5548
168 2 11.9834 3.50853 4.64816
169 2 15.7194 7.60277 4.4852
170 2 3.98487 7.53545 4.52447
171 2 7.85684 7.5822 4.57347
172 2 11.9615 7.31504 4.41443
173 2 15.6812 11.19 4.34559
174 2 3.92083 11.2664 4.49969
175 2 7.96516 11.3587 4.4099
176 2 11.9458 11.449 4.45103
177 2 15.7043 15.1377 4.33791
178 2 3.93491 15.1212 4.32726
179 2 7.95675 15.2637 4.33348
180 2 11.8571 15.2613 4.49279
181 2 0.254877 18.9629 4.36431
182 2 4.01966 18.7778 4.32003
183 2 8.21746 19.2702 4.31244
184 2 11.914 18.9711 4.25826
185 2 16.1011 23.077 4.35122
186 2 4.02675 22.9485 4.16808
187 2 8.15158 23.233 4.37164
188 2 11.9015 23.0353 4.27289
189 2 15.7293 26.8736 4.32182
190 2 3.81596 27.0596 4.47781
191 2 7.85563 26.9053 4.4663
192 2 11.7345 27.1519 4.45416
193 2 15.8952 31.0244 4.42254
194 2 4.05186 31.2405 4.66979
195 2 7.83663 31.0648 4.38022
196 2 11.9111 30.9625 4.55768
197 2 0.0768141 35.1665 4.44849
198 2 4.08078 35.2601 4.52332
199 2 8.0891 35.1693 4.52804
200 2 11.9725 35.2577 4.45467
201 2 -0.223887 39.2214 4.47404
202 2 3.96828 39.2099 4.64402
203 2 8.01113 39.0606 4.56417
204 2 11.8612 39.1727 4.79161
205 2 -0.038141 43.2379 4.70616
206 2 3.96142 43.1693 4.6452
207 2 7.84499 43.1226 4.89817
208 2 11.8497 43.3233 4.74161
209 2 15.7704 47.3872 4.88066
210 2 3.91774 47.1414 5.07886
211 2 7.85497 47.1428 4.72059
212 2 11.9903 47.186 4.82756
213 2 -0.0231089 51.0842 4.99235
214 2 4.12047 51.165 5.00278
215 2 7.7831 51.3062 4.73101
216 2 11.7581 51.224 4.8778
217 2 0.190828 55.263 4.96514
218 2 3.95674 55.348 5.11037
219 2 7.84743 55.2043 5.04757
220 2 11.9587 55.3431 4.96816
221 2 0.130012 59.3673 5.12342
222 2 4.13213 59.3826 4.87062
223 2 7.88323 59.3382 5.05728
224 2 12.0806 59.3163 5.36663
225 2 -0.0651188 63.3275 5.02852
226 2 3.99305 63.2602 4.91757
227 2 7.9173 63.3402 4.89591
228 2 11.9818 63.3251 5.04479
229 2 -0.0106069 67.3867 5.1618
230 2 4.21819 67.4388 5.0139
231 2 7.87309 67.3712 5.14692
232 2 11.875 67.4601 5.08716
233 2 0.112678 71.5296 5.26588
234 2 4.15733 71.3595 5.45298
235 2 8.23218 71.5535 5.11979
236 2 12.1665 71.5614 5.41564
237 2 0.171423 75.5288 5.1607
238 2 4.2443 75.6627 5.45356
239 2 8.20618 75.3758 5.19447
240 2 12.1945 75.5426 5.22162
241 2 0.169432 79.6933 5.3746
242 2 4.31879 79.5151 5.29721
243 2 8.22567 79.5526 5.30375
244 2 11.8287 79.5712 5.21438
245 2 15.9748 83.4742 5.59208
246 2 3.95775 83.4979 5.42853
247 2 8.02104 83.48 5.5639
248 2 11.8973 83.7012 5.51172
249 2 -0.0875024 87.4299 5.37499
250 2 3.97659 87.4177 5.4253
251 2 8.04172 87.5191 5.42027
252 2 12.0721 87.4144 5.43086
253 2 -0.0118038 91.666 5.36412
254 2 3.92044 91.5238 5.35686
255 2 8.05718 91.4737 5.36526
256 2 11.95 91.3621 5.552
257 2 -0.0318831 95.356 5.47738
258 2 4.04013 95.5219 5.24487
259 2 7.81483 95.3662 5.41022
260 2 11.8704 95.4782 5.14489
261 2 0.195724 99.2461 5.18035
262 2 4.05661 99.2015 5.13317
263 2 8.05416 99.3832 5.1424
264 2 11.9527 99.3906 5.25299
265 2 15.964 103.172 5.10797
266 2 4.11336 103.422 5.21748
267 2 7.99488 103.312 5.16105
268 2 12.0826 103.168 5.22983
269 2 -0.00344507 107.088 5.2768
270 2 4.06403 107.237 5.36726
271 2 7.80425 107.039 5.23805
272 2 11.8963 107.213 4.94887
273 2 0.00451558 111.063 5.10808
274 2 3.95003 111.169 5.17045
275 2 7.97471 111.031 5.14935
276 2 11.6928 111.199 5.05017
277 2 15.8789 114.875 4.84055
278 2 4.06195 114.948 4.87675
279 2 8.07762 115.011 5.11573
280 2 12.0098 115.094 5.10614
281 2 15.9335 118.757 5.00037
282 2 4.16155 118.809 5.00908
283 2 7.99092 118.958 5.04187
284 2 11.8678 118.802 4.96636
285 2 15.8182 122.703 5.12097
286 2 4.01823 122.634 4.92843
287 2 7.89601 122.651 4.92322
288 2 11.7072 122.667 4.96481
289 2 0.0177176 126.589 5.01988
290 2 3.81965 126.717 5.15603
291 2 7.80109 126.66 5.0375
292 2 11.6831 126.617 4.96462
293 2 0.116345 130.612 4.81181
294 2 3.93245 130.458 4.92359
295 2 8.05613 130.611 4.74908
296 2 11.9613 130.487 4.96846
297 2 -0.1991 134.358 5.12363
298 2 3.76329 134.434 5.02654
299 2 7.71845 134.498 4.7132
300 2 11.5468 134.567 5.02426
301 2 15.9272 138.309 4.98946
302 2 3.82577 138.433 4.79445
303 2 7.95077 138.523 4.79824
304 2 11.8099 138.271 5.01609
305 2 0.0836534 142.215 4.69634
306 2 3.80488 142.453 4.58889
307 2 7.82725 142.538 4.69533
308 2 11.9319 142.24 4.68538
309 2 15.6109 146.299 4.83941
310 2 3.96602 146.236 4.81137
311 2 7.83122 146.211 4.75658
312 2 11.8476 146.212 4.69734
313 2 -0.0190977 150.323 4.71708
314 2 3.98735 150.153 4.74865
315 2 7.9776 150.346 4.61739
316 2 11.8016 150.003 4.71783
317 2 15.8283 154.195 4.75249
318 2 4.22832 154.031 4.40561
319 2 7.88199 154.026 4.52866
320 2 11.9937 153.986 4.67987
321 2 15.8406 157.993 8.69528
322 2 3.80729 158.007 8.63575
323 2 7.83049 157.868 8.58326
324 2 11.7454 157.919 8.56726
325 2 15.7297 3.73442 8.58915
326 2 3.83196 3.61928 8.50601
327 2 7.88179 3.49855 8.5424
328 2 11.7724 3.6893 8.52676
329 2 0.0889617 7.42002 8.5495
330 2 3.9533 7.29953 8.67473
331 2 8.08099 7.39138 8.60666
332 2 11.8624 7.5934 8.41724
333 2 15.8602 11.3276 8.43395
334 2 4.13253 11.2809 8.42108
335 2 8.02713 11.4217 8.54285
336 2 11.8369 11.5046 8.49249
337 2 -0.0763715 15.1833 8.57942
338 2 3.92805 15.2707 8.24714
339 2 7.78787 15.3647 8.42566
340 2 11.7919 15.2179 8.50372
341 2 0.182487 19.0986 8.55676
342 2 3.95842 19.1464 8.46982
343 2 8.08406 19.3204 8.33813
344 2 12.0186 19.0787 8.42109
345 2 -0.200319 22.8852 8.40803
346 2 4.13905 22.9688 8.35572
347 2 8.05381 22.8892 8.3144
348 2 11.8699 22.9505 8.49829
349 2 16.0405 26.9943 8.3812
350 2 3.90488 26.9374 8.22497
351 2 7.71752 27.0003 8.2893
352 2 11.8178 26.9731 8.37984
353 2 16.0341 30.9745 8.44278
354 2 4.2169 31.0321 8.49933
355 2 8.14019 31.2587 8.49309
356 2 12.0823 30.997 8.4099
357 2 15.9659 35.1603 8.33573
358 2 4.40328 35.3685 8.41825
359 2 7.99463 35.3288 8.39014
360 2 11.8772 34.8969 8.4292
361 2 15.9667 39.0993 8.43239
362 2 3.80885 39.0987 8.4226
363 2 8.01477 39.1729 8.51691
364 2 11.9713 39.1006 8.75084
365 2 15.7051 43.0884 8.65858
366 2 3.89001 43.0527 8.50702
367 2 7.92276 43.0358 8.72965
368 2 11.8209 43.1376 8.83199
369 2 0.144502 47.1524 8.69038
370 2 4.08583 47.0779 8.80008
371 2 8.16291 47.1927 8.79195
372 2 11.9191 47.0379 8.83628
373 2 -0.158081 51.2111 8.88499
374 2 3.93 51.1227 8.8867
375 2 7.81653 51.1456 8.8649
376 2 11.9605 51.2721 8.83322
377 2 0.107246 55.2021 9.03766
378 2 3.96853 55.2066 8.94795
379 2 8.0049 55.1291 8.85684
380 2 11.9933 55.0845 8.92983
381 2 16.1031 59.1696 8.94717
382 2 4.27166 59.313 9.14399
383 2 8.08399 59.2443 8.96933
384 2 12.1094 59.1249 8.87966
385 2 0.160447 63.2174 8.97264
386 2 4.08818 63.2642 8.97754
387 2 8.07348 63.0514 8.90564
388 2 11.918 63.1971 9.07228
389 2 0.188807 67.1725 9.14303
390 2 4.22772 67.3985 8.95355
391 2 8.14428 67.2847 9.07606
392 2 12.0233 67.3099 8.85544
393 2 0.0589766 71.5425 9.06695
394 2 4.0267 71.377 9.13218
395 2 8.01457 71.3954 9.06007
396 2 12.0504 71.4228 9.31964
397 2 0.167937 75.4908 9.23181
398 2 4.1766 75.4471 9.16993
399 2 7.97878 75.4379 9.14932
400 2 12.0462 75.5527 9.24873
401 2 0.053892 79.4752 9.18601
402 2 3.94692 79.55 9.37781
403 2 7.99952 79.4916 9.31235
404 2 12.0443 79.3054 9.25633
405 2 0.0327309 83.4647 9.43322
406 2 4.04141 83.5878 9.47502
407 2 8.03139 83.5682 9.43178
408 2 12.034 83.5526 9.33713
409 2 0.0755157 87.5664 9.53712
410 2 4.11812 87.4812 9.35662
411 2 7.93591 87.6502 9.30217
412 2 11.9689 87.5403 9.51293
413 2 0.0336524 91.4781 9.34891
414 2 3.94673 91.3599 9.35995
415 2 7.9047 91.4084 9.41124
416 2 11.8975 91.3721 9.33994
417 2 -0.125143 95.2117 9.29674
418 2 3.85367 95.4046 9.25147
419 2 7.73808 95.3895 9.34904
420 2 11.5981 95.4267 9.19494
421 2 15.8212 99.2624 9.15949
422 2 3.88725 99.075 9.23342
423 2 7.93792 99.304 9.10551
424 2 11.8967 99.2232 9.21344
425 2 0.157094 103.074 9.19431
426 2 4.09954 103.125 9.37087
427 2 7.98182 103.067 9.13557
428 2 12.1417 103.39 9.27046
429 2 15.9361 107.035 9.18323
430 2 4.16041 106.941 9.19364
431 2 8.03702 107.058 9.36415
432 2 11.9629 107.173 9.12465
433 2 -0.0369564 110.915 9.0345
434 2 3.79102 111.186 9.28451
435 2 7.76318 111.014 9.15746
436 2 11.9385 110.972 9.35075
437 2 0.0763124 114.948 8.88296
438 2 4.00743 114.917 9.27322
439 2 7.83612 115.135 9.26423
440 2 12.0308 114.861 9.06443
441 2 -0.0763437 118.797 9.1586
442 2 3.92023 118.862 9.03149
443 2 7.9771 118.939 9.09893
444 2 11.86 118.853 9.08722
445 2 15.8544 122.832 8.82364
446 2 3.98164 122.899 8.97333
447 2 7.90456 122.829 9.02393
448 2 11.9525 122.723 9.02511
449 2 -0.138915 126.685 9.09946
450 2 3.86333 126.647 9.06302
451 2 7.97203 126.723 9.02435
452 2 11.8638 126.624 8.87876
453 2 0.0147939 130.759 9.08006
454 2 4.10888 130.635 8.9546
455 2 7.90863 130.5 8.97121
456 2 11.8591 130.618 8.96254
457 2 -0.316962 134.461 9.04973
458 2 4.06 134.543 9.02704
459 2 7.79764 134.288 8.94429
460 2 11.7463 134.472 8.78884
461 2 -0.0521283 138.36 9.06318
462 2 3.90003 138.284 8.86075
463 2 7.80463 138.324 8.74031
464 2 11.8468 138.489 8.87568
465 2 -0.00128753 142.295 8.9037
466 2 3.98684 142.13 8.90198
467 2 7.80796 142.154 8.6547
468 2 11.9539 142.291 8.75515
469 2 15.8246 146.472 8.82829
470 2 3.96741 146.348 8.59355
471 2 7.95126 146.154 8.83945
472 2 11.7664 146.385 8.69101
473 2 15.9723 150.176 8.75251
474 2 4.0259 150.25 8.66661
475 2 7.77017 150.264 8.69237
476 2 11.7722 150.101 8.59317
477 2 15.9355 153.918 8.62608
478 2 4.06664 154.352 8.6766
479 2 7.91678 154.121 8.74436
480 2 11.7891 154.028 8.81173
481 2 15.6453 157.922 12.7496
482 2 4.00473 158.114 12.6872
483 2 7.87941 157.971 12.8351
484 2 11.8726 158.077 12.7468
485 2 15.4619 3.48336 12.5999
486 2 3.8043 3.72117 12.4274
487 2 7.7673 3.52527 12.65
488 2 11.6638 3.56438 12.5481
489 2 -0.120176 7.48684 12.7095
490 2 3.94154 7.69276 12.3305
491 2 7.77552 7.54406 12.6839
492 2 11.8322 7.4873 12.7506
493 2 15.7816 11.3185 12.7005
494 2 4.05988 11.4035 12.4639
495 2 7.9963 11.2397 12.4081
496 2 12.0372 11.4351 12.4626
497 2 0.0425122 15.3077 12.5578
498 2 4.02964 15.2087 12.5067
499 2 8.06418 15.4377 12.4279
500 2 11.8741 15.4047 12.3176
501 2 15.8403 19.1396 12.3877
502 2 3.9745 19.1832 12.5409
503 2 7.83586 19.056 12.511
504 2 11.9183 19.2709 12.4918
505 2 15.9994 23.0579 12.433
506 2 3.94768 22.9923 12.4415
507 2 7.90257 22.9017 12.1505
508 2 11.8195 23.3098 12.4338
509 2 16.0046 26.6795 12.3118
510 2 3.94193 26.8721 12.2132
511 2 7.80856 27.0042 12.1945
512 2 12.0001 27.0514 12.2971
513 2 0.0984483 30.8285 12.3818
514 2 4.13162 31.1393 12.4938
515 2 8.10091 31.1088 12.3948
516 2 12.0021 30.8378 12.2507
517 2 15.9371 35.0226 12.4165
518 2 3.9551 35.0309 12.4001
519 2 8.04389 35.0469 12.2584
520 2 11.9481 35.0423 12.4245
521 2 15.871 38.9094 12.3521
522 2 3.86984 38.9528 12.41
523 2 7.95806 39.0404 12.5978
524 2 12.0062 38.9686 12.6331
525 2 15.8939 43.1223 12.6437
526 2 3.96341 42.9787 12.4876
527 2 8.06494 43.2293 12.5796
528 2 12.1591 43.1092 12.4715
529 2 15.9524 47.0624 12.7376
530 2 4.1138 47.0663 12.6685
531 2 7.95875 47.222 12.6682
532 2 11.9571 47.1002 12.8404
533 2 0.0827806 51.2145 12.7685
534 2 3.95238 50.929 12.7664
535 2 7.91708 51.1339 12.8957
536 2 11.8762 51.088 12.748
537 2 -0.0529324 55.3167 12.7677
538 2 3.84839 55.1469 12.7925
539 2 7.93903 55.0411 12.6765
540 2 11.854 55.3994 12.9305
541 2 0.237092 59.2082 12.7675
542 2 3.96019 59.1372 12.8134
543 2 8.07888 59.1833 12.7809
544 2 11.9551 59.26 12.9192
545 2 0.189859 63.3375 13.0402
546 2 4.07068 63.2703 12.8861
547 2 7.9914 63.1723 13.0929
548 2 12.063 63.2249 12.944
549 2 0.195634 67.2454 12.9431
550 2 4.18607 67.2718 12.8742
551 2 8.1662 67.2305 12.8353
552 2 11.878 67.3663 12.7899
553 2 0.0911979 71.2543 13.1671
554 2 4.23523 71.2174 13.0848
555 2 8.05229 71.1345 13.1568
556 2 12.0525 71.2247 13.1874
557 2 0.0509532 75.4032 13.1137
558 2 4.14416 75.3294 13.1983
559 2 7.8481 75.2146 13.1069
560 2 11.7877 75.5441 12.9725
561 2 0.0465515 79.449 13.2744
562 2 4.12843 79.5856 13.2083
563 2 8.189 79.4573 13.2026
564 2 11.971 79.41 13.0855
565 2 0.221181 83.5282 13.0975
566 2 4.13721 83.5941 13.0016
567 2 7.94397 83.3283 13.1855
568 2 11.9128 83.446 13.1915
569 2 0.180721 87.5884 13.2894
570 2 4.03199 87.6852 13.3573
571 2 8.21586 87.5075 13.4655
572 2 11.9489 87.3908 13.2841
573 2 -0.300987 91.703 13.3988
574 2 4.00606 91.5834 13.4064
575 2 7.78708 91.422 13.3986
576 2 11.7365 91.3581 13.4322
577 2 0.125598 95.4355 13.2889
578 2 3.91492 95.2667 13.365
579 2 7.74063 95.4653 13.274
580 2 11.7696 95.3954 13.4114
581 2 0.144507 99.3467 13.3547
582 2 4.02491 99.4323 13.1274
583 2 7.92906 99.3608 13.4046
584 2 11.9751 99.2939 13.191
585 2 0.115901 103.097 13.2764
586 2 3.92826 103.375 13.3569
587 2 7.98337 103.13 13.3966
588 2 11.9395 103.169 13.2781
589 2 15.7977 107.171 13.4169
590 2 3.90003 107.228 13.2863
591 2 7.90814 107.318 13.3814
592 2 11.8278 106.823 13.0742
593 2 -0.0683234 110.991 13.2129
594 2 3.92287 111.072 13.0665
595 2 7.94976 111.019 13.3453
596 2 11.886 111.054 13.2088
597 2 15.7076 114.947 13.1454
598 2 4.12186 115.026 13.1781
599 2 8.06629 114.867 13.1672
600 2 11.9827 114.859 13.1636
601 2 15.8596 118.663 13.219
602 2 4.03845 118.758 13.0261
603 2 7.86207 118.758 13.2069
604 2 11.8269 118.747 13.0082
605 2 -0.0299707 122.685 13.165
606 2 3.98296 122.876 13.0477
607 2 7.89388 122.765 13.2518
608 2 11.7435 122.804 13.2648
609 2 15.9118 126.648 13.0388
610 2 3.98403 126.628 13.1253
611 2 7.97873 126.581 12.993
612 2 11.8422 126.669 13.0241
613 2 15.8443 130.526 13.1626
614 2 3.84982 130.544 13.1575
615 2 7.8631 130.416 13.0244
616 2 11.8606 130.581 13.0678
617 2 -0.391666 134.537 13.0125
618 2 3.8377 134.414 13.0925
619 2 7.99519 134.247 12.7364
620 2 11.6478 134.488 12.971
621 2 -0.0440402 138.269 12.9569
622 2 3.91953 138.499 12.8877
623 2 8.04797 138.362 12.9011
624 2 11.8892 138.529 12.7996
625 2 15.9517 142.461 12.6955
626 2 3.88077 142.321 12.918
627 2 7.75039 142.222 12.8692
628 2 11.7921 142.331 12.9579
629 2 0.0133485 146.261 12.7906
630 2 3.94687 146.121 12.8011
631 2 7.82099 146.297 12.8487
632 2 11.8708 146.376 12.8338
633 2 15.9077 150.126 12.9367
634 2 4.13011 150.213 12.851
635 2 7.81946 150.195 12.7889
636 2 11.9355 150.339 12.5419
637 2 15.7334 154.08 12.6942
638 2 3.6871 154.076 12.6438
639 2 7.8128 154.013 12.8576
640 2 11.8346 154.062 12.857
641 2 15.9847 158.3 16.5839
642 2 4.03415 158.051 16.6733
643 2 7.65995 158.002 16.6488
644 2 11.9708 158.033 16.756
645 2 15.9119 3.57964 16.7785
646 2 3.94203 3.74259 16.6672
647 2 7.92117 3.64483 16.6714
648 2 11.6841 3.58123 16.6258
649 2 -0.0289362 7.37136 16.6596
650 2 3.94283 7.45735 16.6719
651 2 7.97243 7.59808 16.621
652 2 11.7565 7.60066 16.6001
653 2 15.8704 11.6172 16.7555
654 2 4.00672 11.4877 16.7942
655 2 7.98597 11.5435 16.6667
656 2 11.9567 11.5181 16.4762
657 2 -0.0632319 15.3706 16.5047
658 2 4.00782 15.3381 16.7201
659 2 8.12314 15.2475 16.429
660 2 11.9118 15.3173 16.4767
661 2 15.7492 19.4296 16.3014
662 2 3.85785 19.1351 16.5468
663 2 7.71008 19.3558 16.4232
664 2 11.6906 19.3361 16.5976
665 2 15.925 23.1348 16.4447
666 2 3.98628 23.232 16.3694
667 2 7.88117 23.3206 16.4136
668 2 11.8461 23.3253 16.3148
669 2 0.241903 27.1343 16.4532
670 2 4.08007 27.0358 16.3212
671 2 7.8559 27.1217 16.4977
672 2 11.9761 27.1388 16.5073
673 2 16.0465 31.0004 16.3724
674 2 3.97268 30.9508 16.3543
675 2 7.90632 30.9215 16.3122
676 2 11.583 30.892 16.1977
677 2 15.7833 34.8254 16.4566
678 2 3.93652 34.8874 16.4615
679 2 7.75764 34.8842 16.269
680 2 11.8999 34.9601 16.3514
681 2 0.0721944 38.8596 16.5792
682 2 3.95778 39.1722 16.3561
683 2 8.00787 38.8807 16.496
684 2 11.9052 38.7079 16.4291
685 2 15.9094 43.0173 16.4724
686 2 4.06627 42.9981 16.5269
687 2 7.85879 42.8508 16.6329
688 2 11.857 42.8715 16.4209
689 2 0.0215155 46.8841 16.6047
690 2 4.12252 46.9741 16.7643
691 2 7.82075 46.895 16.6396
692 2 11.8257 46.9973 16.4486
693 2 15.9436 50.9772 16.7606
694 2 3.98785 50.7485 16.7108
695 2 7.91229 51.0345 16.6569
696 2 12.0364 51.0926 16.5923
697 2 0.197641 55.0097 16.6731
698 2 3.9893 55.1555 16.8293
699 2 8.06451 55.0573 16.6859
700 2 11.9287 54.9279 16.8134
701 2 0.152624 58.9847 16.8705
702 2 3.95861 59.0331 16.8352
703 2 7.86101 59.1093 16.7162
704 2 11.8709 59.1111 16.8319
705 2 0.0275995 63.1599 16.9138
706 2 4.02217 63.0754 16.8026
707 2 7.98083 63.0542 16.9303
708 2 12.1526 63.2081 17.0432
709 2 0.00923672 67.2489 16.865
710 2 3.90682 67.1299 16.9406
711 2 8.04218 67.0848 16.9972
712 2 11.9356 67.2133 17.0263
713 2 -0.0902397 71.145 16.8922
714 2 4.04978 71.1574 16.6998
715 2 7.89273 71.2746 16.9824
716 2 11.884 71.4177 17.0222
717 2 0.0636941 75.3031 16.9766
718 2 3.89215 75.2855 16.9045
719 2 7.72729 75.1993 16.9765
720 2 11.9128 75.334 16.9836
721 2 0.0616041 79.4646 17.0555
722 2 4.02554 79.2717 17.1675
723 2 8.0084 79.2484 16.9706
724 2 12.0913 79.4098 17.2285
725 2 -0.0324535 83.2061 17.1005
726 2 4.18084 83.3929 16.916
727 2 8.02561 83.311 17.0791
728 2 12.0624 83.2834 16.998
729 2 0.0543589 87.3862 17.2083
730 2 4.05534 87.2777 17.1312
731 2 8.29713 87.4511 17.1899
732 2 12.051 87.1727 17.2285
733 2 -0.161269 91.3857 17.2681
734 2 4.0423 91.4076 17.2024
735 2 7.9546 91.4749 17.4586
736 2 11.9994 91.3848 17.3452
737 2 0.140331 95.3218 17.1827
738 2 3.90896 95.5669 17.3535
739 2 8.13249 95.3145 17.2303
740 2 11.954 95.5736 17.3915
741 2 15.8618 99.4305 17.3083
742 2 3.97505 99.4123 17.4016
743 2 8.13453 99.2452 17.3086
744 2 12.0134 99.3017 17.2179
745 2 15.9593 103.259 17.457
746 2 4.09979 103.327 17.3923
747 2 7.89343 103.218 17.3866
748 2 11.7286 103.242 17.2303
749 2 15.7893 107.25 17.4837
750 2 3.98512 107.247 17.3688
751 2 7.91065 107.248 17.3701
752 2 11.791 107.08 17.2349
753 2 0.119779 110.969 17.2208
754 2 3.96752 111.202 17.2391
755 2 7.80776 111.024 17.1383
756 2 11.9089 111.002 17.2324
757 2 0.10581 114.918 17.2891
758 2 4.05702 115.031 17.1989
759 2 7.73888 114.965 17.2195
760 2 11.725 114.991 17.3754
761 2 0.000838147 119.033 17.1352
762 2 4.13241 118.913 17.0998
763 2 7.94361 118.799 17.1303
764 2 11.8958 119.099 17.0695
765 2 0.0335899 122.896 17.1379
766 2 3.92967 122.93 17.2034
767 2 7.93764 122.796 17.0967
768 2 12.0035 122.716 17.2782
769 2 0.0968109 126.767 17.1757
770 2 3.99691 126.68 17.1092
771 2 8.13456 126.749 17.0687
772 2 11.8936 126.517 17.061
773 2 -0.109585 130.606 17.2018
774 2 3.88244 130.631 17.0535
775 2 7.93768 130.551 16.8783
776 2 11.9719 130.535 17.0175
777 2 0.00939247 134.691 17.0592
778 2 3.93673 134.524 16.9883
779 2 7.89171 134.485 17.009
780 2 11.8368 134.767 16.8996
781 2 15.931 138.379 16.8034
782 2 4.19177 138.56 17.0906
783 2 7.77553 138.459 16.962
784 2 11.8419 138.484 16.8473
785 2 15.6851 142.259 16.9006
786 2 3.79539 142.203 16.783
787 2 7.84812 142.524 16.8334
788 2 11.747 142.361 16.944
789 2 15.7692 146.195 16.8568
790 2 3.75542 146.262 16.8963
791 2 7.80506 146.283 16.8462
792 2 11.5722 146.356 16.9047
793 2 15.7159 150.139 16.8534
794 2 3.88816 150.354 16.9295
795 2 7.96276 150.031 16.7983
796 2 11.9286 150.144 16.909
797 2 0.168628 154.248 16.7553
798 2 4.01683 154.099 16.573
799 2 8.03141 154.065 16.6731
800 2 11.8344 154.137 16.7387
801 2 -0.168116 157.863 20.7824
802 2 4.02426 158.112 20.5734
803 2 7.99735 157.95 20.8568
804 2 11.904 158.011 20.6426
805 2 15.884 3.79232 20.7382
806 2 3.94782 3.65377 20.7195
807 2 8.14976 3.59742 20.7623
808 2 12.0199 3.49666 20.718
809 2 -0.170769 7.48218 20.6806
810 2 3.98958 7.43968 20.7154
811 2 7.92006 7.41988 20.6451
812 2 11.7851 7.39293 20.6694
813 2 15.9145 11.3785 20.6321
814 2 3.88962 11.2624 20.6293
815 2 7.89958 11.5513 20.7591
816 2 11.9022 11.2997 20.576
817 2 15.7716 15.3984 20.6093
818 2 3.91118 15.4381 20.6338
819 2 8.06338 15.2309 20.6072
820 2 11.9176 15.4193 20.5129
821 2 15.8605 19.2521 20.605
822 2 3.83945 19.2104 20.6074
823 2 7.90474 19.194 20.4866
824 2 11.9887 19.2057 20.517
825 2 15.6906 23.2316 20.4451
826 2 4.05401 23.1025 20.4861
827 2 8.00419 22.8537 20.5296
828 2 11.9036 23.0168 20.4709
829 2 -0.149928 27.1757 20.5015
830 2 3.90949 27.067 20.5957
831 2 7.86616 27.0934 20.6214
832 2 11.8646 27.1897 20.6322
833 2 0.0284499 31.2544 20.4008
834 2 4.03488 31.0108 20.6133
835 2 8.23974 30.8778 20.2857
836 2 12.0576 31.0004 20.2474
837 2 15.8025 34.7756 20.462
838 2 3.93843 34.9005 20.3518
839 2 7.86871 34.7593 20.3343
840 2 12.0126 35.0116 20.4463
841 2 0.064268 38.6598 20.3837
842 2 4.13465 38.8292 20.2035
843 2 7.88356 38.9038 20.4209
844 2 11.8444 38.8046 20.2972
845 2 0.339356 42.8133 20.4452
846 2 3.99055 42.7116 20.5403
847 2 8.12768 42.7573 20.5792
848 2 12.0578 42.8851 20.4761
849 2 0.20068 46.9719 20.5708
850 2 4.12442 46.9726 20.5119
851 2 7.96827 46.8453 20.6932
852 2 11.7974 46.7664 20.3579
853 2 0.00680392 50.9083 20.7576
854 2 4.00602 50.8774 20.5968
855 2 8.25078 50.9418 20.6
856 2 11.889 51.025 20.6455
857 2 -0.152017 54.7448 20.6658
858 2 3.89104 54.7716 20.6207
859 2 7.78 54.8196 20.7423
860 2 11.852 55.0335 20.6619
861 2 15.7755 59.0212 20.9116
862 2 4.07232 59.1089 20.7736
863 2 8.16398 59.0207 20.4863
864 2 12.0608 59.1508 20.6693
865 2 15.805 63.0791 20.9512
866 2 3.97143 63.0683 20.7902
867 2 7.92743 63.0524 20.7259
868 2 11.8113 63.0939 20.827
869 2 0.0238986 67.017 20.8297
870 2 3.85563 67.0982 20.8836
871 2 8.10605 67.0975 20.819
872 2 11.9202 67.0928 20.8481
873 2 -0.0447985 71.0855 20.7325
874 2 3.89298 71.2508 20.6736
875 2 7.93374 70.9753 20.8894
876 2 11.9266 71.2641 20.721
877 2 0.134342 75.1863 20.9127
878 2 4.22069 75.417 20.8983
879 2 7.83146 75.1029 20.9225
880 2 11.814 75.2994 20.9375
881 2 0.086672 79.0228 21.0385
882 2 4.09706 79.0903 21.1245
883 2 7.95553 78.9712 20.9865
884 2 11.8503 79.105 21.0529
885 2 0.105234 83.2536 20.9924
886 2 4.07709 83.3473 21.0281
887 2 8.07594 83.3414 20.9311
888 2 11.9716 83.0847 21.0608
889 2 0.299311 87.2782 21.0565
890 2 4.05979 87.1474 21.1544
891 2 7.93798 87.2787 21.1539
892 2 12.1026 87.2518 21.0976
893 2 0.132423 91.1897 21.1315
894 2 4.1551 91.4485 21.1322
895 2 7.96174 91.1616 21.2814
896 2 11.8554 91.1606 21.2053
897 2 16.0639 95.342 21.2066
898 2 4.12269 95.461 21.182
899 2 8.17806 95.3075 21.3227
900 2 12.2156 95.6818 21.2942
901 2 0.136865 99.5294 21.3544
902 2 4.16837 99.3658 21.3454
903 2 8.02901 99.2755 21.3863
904 2 12.0259 99.3082 21.3781
905 2 15.9921 103.403 21.4793
906 2 3.99766 103.201 21.3272
907 2 8.02461 103.13 21.2426
908 2 11.9453 103.234 21.3095
909 2 0.129109 107.089 21.2925
910 2 3.89893 107.351 21.3847
911 2 8.07121 107.246 21.4442
912 2 11.9067 107.401 21.199
913 2 15.7729 111.001 21.2853
914 2 3.91437 111.174 21.2306
915 2 7.97761 111.136 21.3237
916 2 11.9402 111.061 21.181
917 2 -0.135553 115.034 20.9891
918 2 4.13072 115.19 21.2038
919 2 7.99791 115.054 21.2926
920 2 11.9351 115.037 21.3212
921 2 0.0563509 118.988 21.2524
922 2 3.95752 119.023 21.2067
923 2 7.88209 118.989 21.2049
924 2 11.919 118.931 21.3528
925 2 -0.0932683 122.862 21.0664
926 2 3.89558 122.946 21.2787
927 2 7.88174 122.807 21.3254
928 2 11.8539 122.694 21.1943
929 2 -0.00312244 126.967 21.1952
930 2 4.03402 126.888 21.1784
931 2 7.97861 126.978 21.1556
932 2 11.7145 126.774 21.1253
933 2 -0.0956373 130.79 21.0435
934 2 4.05147 130.714 21.1226
935 2 7.96865 130.703 21.0968
936 2 11.8004 130.661 21.0649
937 2 15.8036 134.645 21.1045
938 2 3.73235 134.613 20.9351
939 2 7.87716 134.661 21.0768
940 2 11.9856 134.816 20.8898
941 2 15.7009 138.764 20.9974
942 2 3.9171 138.496 20.8987
943 2 7.76445 138.58 20.88
944 2 11.673 138.531 21.014
945 2 15.6052 142.51 21.0212
946 2 3.87005 142.403 21.1702
947 2 7.82639 142.458 21.0893
948 2 11.7176 142.629 20.847
949 2 0.0363161 146.394 20.8893
950 2 3.79208 146.382 20.8956
951 2 7.76418 146.238 21.031
952 2 11.6036 146.41 21.1603
953 2 15.6522 150.268 20.7827
954 2 3.8626 150.234 20.9065
955 2 7.94023 150.276 20.9269
956 2 11.9229 150.264 20.7622
957 2 -0.0541902 154.319 20.8586
958 2 4.00879 153.984 20.6988
959 2 7.90299 154.327 20.7376
960 2 11.8479 154.107 20.7451
961 2 0.293961 158.249 24.6635
962 2 4.0006 157.971 24.8474
963 2 7.83048 158.072 24.8033
964 2 11.9182 157.932 24.8997
965 2 15.8149 3.69344 24.6273
966 2 3.97832 3.64502 24.8769
967 2 7.89316 3.68029 24.8716
968 2 11.8302 3.54621 24.75
969 2 -0.0847503 7.50308 24.6167
970 2 4.03219 7.567 24.7522
971 2 7.80512 7.59876 24.8127
972 2 11.6998 7.69632 24.7822
973 2 0.033093 11.35 24.6209
974 2 3.85917 11.5503 24.543
975 2 8.17893 11.38 24.5494
976 2 11.9152 11.3559 24.6248
977 2 0.05368 15.2106 24.5958
978 2 3.94618 15.3743 24.7187
979 2 8.18314 15.316 24.6221
980 2 12.0153 15.4512 24.5788
981 2 15.8908 19.2857 24.6739
982 2 4.00597 19.1942 24.5548
983 2 7.86095 19.2522 24.7022
984 2 11.7072 19.2278 24.6482
985 2 -0.0543109 23.1126 24.6623
986 2 3.93942 23.3135 24.4352
987 2 7.8118 23.1001 24.6239
988 2 11.7578 23.3655 24.4343
989 2 -0.0225451 27.1358 24.6031
990 2 3.96316 27.1336 24.4031
991 2 8.01591 27.1438 24.5884
992 2 11.8918 27.1297 24.5601