ITEM: TIMESTEP
19200
ITEM: NUMBER OF ATOMS
32000
ITEM: BOX BOUNDS xy xz yz pp pp pp
0.0000000000000000e+00 1.5832000000000001e+01 0.0000000000000000e+00
0.0000000000000000e+00 1.5831999999999999e+02 0.0000000000000000e+00
8.6430457873186128e-01 1.6011281342126532e+02 0.0000000000000000e+00
ITEM: ATOMS id type x y z
1 2 15.755 157.704 159.899
2 2 3.81831 157.705 159.775
3 2 7.82586 157.918 160.054
4 2 11.6332 158.007 159.891
5 2 0.169683 3.423 159.83
6 2 3.99995 3.24168 159.856
7 2 7.79028 3.54181 159.893
8 2 11.9199 3.59517 159.901
9 2 15.8352 7.61283 159.834
10 2 4.09184 7.41383 159.908
11 2 7.92355 7.39926 159.783
12 2 12.0928 7.41824 159.677
13 2 15.6859 11.3866 159.997
14 2 3.9649 11.5945 159.802
15 2 7.95606 11.4475 159.948
16 2 11.9131 11.355 159.843
17 2 0.0480108 15.1423 159.813
18 2 4.07688 15.3791 159.82
19 2 8.09922 15.2213 159.726
20 2 11.8439 15.3978 159.893
21 2 15.9062 19.1475 159.762
22 2 3.78145 19.1926 159.818
23 2 8.08966 19.2261 159.729
24 2 11.9142 19.1227 159.629
25 2 15.7116 23.1608 159.749
26 2 3.98987 23.2072 159.753
27 2 7.93713 23.0885 159.848
28 2 11.88 23.2793 159.643
29 2 15.8257 27.2732 159.805
30 2 3.62957 27.1396 159.907
31 2 7.89765 27.0721 159.931
32 2 11.8923 27.1428 159.913
33 2 15.7766 31.1888 159.976
34 2 3.94529 31.2093 0.83476
35 2 7.91758 31.2158 159.762
36 2 11.9371 31.2418 159.955
37 2 0.00738535 35.1651 159.874
38 2 4.10148 35.2116 159.928
39 2 8.11789 35.2727 159.926
40 2 12.1424 35.1848 159.874
41 2 -0.0292745 39.282 159.968
42 2 3.95111 39.2592 0.753096
43 2 8.17478 39.1379 0.78034
44 2 12.0265 39.31 1.07007
45 2 -0.0248787 43.2091 160.135
46 2 4.10894 43.2231 159.965
47 2 8.0421 43.2402 0.858705
48 2 11.9948 43.4056 0.807978
49 2 0.334948 47.3077 1.0828
50 2 4.19854 47.3083 1.08855
51 2 8.13213 47.1894 0.991292
52 2 12.0474 47.3073 0.924989
53 2 0.0891295 51.2388 0.915946
54 2 3.7266 51.3887 0.98696
55 2 7.93415 51.3664 1.05944
56 2 12.0182 51.2759 1.05572
57 2 15.8875 55.2077 1.02671
58 2 4.00302 55.3789 1.16815
59 2 7.84277 55.2807 1.07879
60 2 11.93 55.1914 1.11477
61 2 0.05512 59.432 1.20969
62 2 3.93755 59.3084 1.20898
63 2 7.94644 59.2957 1.19156
64 2 11.9522 59.4768 1.24167
65 2 0.0542728 63.5073 1.20622
66 2 3.86591 63.4377 1.37488
67 2 7.80925 63.3731 1.15094
68 2 11.868 63.5251 1.16833
69 2 15.6596 67.5638 1.46629
70 2 3.9053 67.3954 1.38689
71 2 7.81547 67.5503 1.46438
72 2 11.9376 67.4563 1.393
73 2 0.00382161 71.4631 1.40704
74 2 3.8733 71.4998 1.58938
75 2 7.80455 71.3763 1.43282
76 2 11.8742 71.5729 1.34093
77 2 0.0199582 75.4618 1.51095
78 2 3.93947 75.4804 1.45665
79 2 7.94484 75.3187 1.4471
80 2 11.7883 75.5305 1.2795
81 2 0.144194 79.591 1.70032
82 2 4.0779 79.4091 1.45282
83 2 7.87233 79.5945 1.54495
84 2 12.0219 79.619 1.65257
85 2 0.164985 83.3151 1.53399
86 2 4.0472 83.3613 1.53294
87 2 7.90875 83.3392 1.41394
88 2 12.0265 83.4539 1.56653
89 2 0.164455 87.3316 1.3529
90 2 4.1156 87.5444 1.52417
91 2 8.06673 87.428 1.46776
92 2 12.2474 87.4813 1.33329
93 2 0.201308 91.1982 1.41675
94 2 4.05089 91.3085 1.55827
95 2 7.93984 91.2881 1.41668
96 2 12.0277 91.171 1.16638
97 2 16.0403 95.0231 1.30797
98 2 3.9655 95.0416 1.41336
99 2 7.96259 95.2989 1.37026
100 2 11.8737 95.0242 1.28741
101 2 0.0529799 99.1906 1.17242
102 2 4.07101 99.0091 1.2326
103 2 7.90395 99.1586 1.44636
104 2 11.9935 99.0043 1.27241
105 2 0.092136 103.095 1.53214
106 2 3.93146 103.202 1.3974
107 2 7.85762 103.098 1.30841
108 2 11.7106 103.13 1.30466
109 2 0.153645 107.151 1.2921
110 2 4.04339 107.036 1.30618
111 2 7.98518 107.079 1.32367
112 2 11.9468 106.995 1.42593
113 2 0.0899677 110.911 1.31757
114 2 4.02437 110.979 1.24017
115 2 8.0582 110.855 1.21227
116 2 11.7717 110.885 1.32964
117 2 15.7857 114.838 1.20985
118 2 3.94964 114.879 1.22251
119 2 8.0448 114.814 1.23783
120 2 12.0222 114.78 1.04254
121 2 0.0617347 118.91 1.24155
122 2 4.10438 118.715 0.95623
123 2 7.96421 118.944 1.16002
124 2 11.9588 118.694 1.20938
125 2 15.758 122.698 0.88059
126 2 4.01199 122.748 1.00641
127 2 7.92789 122.878 1.14393
128 2 11.8901 122.694 0.975106
129 2 0.0884992 126.629 0.936576
130 2 3.94019 126.584 1.03337
131 2 8.09912 126.75 0.846051
132 2 11.8299 126.649 0.997456
133 2 15.8027 130.588 0.92987
134 2 4.07094 130.459 0.996687
135 2 8.0541 130.693 0.89559
136 2 11.9312 130.544 0.997614
137 2 16.0619 134.344 0.652496
138 2 4.03464 134.602 0.717439
139 2 7.88014 134.405 160.203
140 2 11.6214 134.435 0.940306
141 2 0.0208524 138.198 0.893334
142 2 3.99928 138.359 159.981
143 2 7.99183 138.34 160.082
144 2 11.9353 138.244 0.704418
145 2 15.8545 142.233 160.103
146 2 3.84569 142.23 160.195
147 2 7.84333 142.332 160.243
148 2 11.9679 142.121 160.066
149 2 -0.130699 146.197 159.963
150 2 3.81515 146.082 159.936
151 2 7.87587 146.175 160.047
152 2 11.7581 146.005 160.001
153 2 15.6529 150.092 160.042
154 2 3.90155 150.159 159.983
155 2 7.94987 150.087 159.957
156 2 11.6961 149.947 0.747578
157 2 15.959 153.871 159.897
158 2 4.061 153.927 159.893
159 2 7.81327 153.969 160.136
160 2 11.549 153.988 159.924
161 2 15.891 157.885 4.61456
162 2 3.87285 158.006 4.67875
163 2 7.92267 157.902 4.75319
164 2 11.8105 157.768 4.59887
165 2 -0.0280436 3.4843 4.64309
166 2 3.93198 3.58192 4.83303
167 2 8.15247 3.54616 4.57928
168 2 12.1102 3.57436 4.63859
169 2 0.00960869 7.35626 4.48704
170 2 3.91967 7.28914 4.59096
171 2 8.06471 7.37664 4.62048
172 2 11.8555 7.65361 4.61072
173 2 -0.0793851 11.3269 4.64918
174 2 3.92906 11.2711 4.57027
175 2 7.86449 11.3952 4.65596
176 2 11.7942 11.3122 4.40874
177 2 15.6649 15.131 4.60702
178 2 3.81569 15.2033 4.71861
179 2 7.86759 15.3305 4.68168
180 2 11.8314 15.2853 4.78085
181 2 0.198674 19.0609 4.47223
182 2 4.01303 19.2335 4.4129
183 2 7.93923 19.36 4.29343
184 2 12.028 19.1949 4.35619
185 2 0.0298664 23.1147 4.57509
186 2 3.93547 23.3014 4.38078
187 2 7.99913 23.1016 4.36348
188 2 11.9754 23.1856 4.54075
189 2 15.7475 27.1749 4.56957
190 2 3.7766 27.0651 4.51035
191 2 7.83266 27.0537 4.5213
192 2 11.808 27.156 4.47247
193 2 -0.176957 31.1263 4.64085
194 2 4.1149 31.028 4.62391
195 2 7.90028 31.2735 4.65106
196 2 11.8308 30.9905 4.61859
197 2 0.0639772 35.1076 4.48869
198 2 4.28851 35.2262 4.71199
199 2 8.00138 35.1134 4.56476
200 2 11.9017 35.0174 4.6542
201 2 15.941 39.1692 4.70026
202 2 3.98411 39.0727 4.61527
203 2 8.16425 39.3897 4.73296
204 2 12.0229 39.2012 4.78362
205 2 -0.00648684 43.1634 4.80265
206 2 3.96091 43.0794 4.66927
207 2 8.13321 43.2285 4.7468
208 2 11.9007 43.0606 4.8874
209 2 0.102319 47.0546 4.93181
210 2 4.17975 47.2624 4.89553
211 2 8.12988 47.0965 4.84813
212 2 11.9668 47.02 4.91238
213 2 0.0457642 51.1906 4.9435
214 2 3.96147 51.1761 5.02331
215 2 7.90553 51.329 5.04975
216 2 11.9034 51.2407 4.87096
217 2 -0.0832746 55.1716 5.13511
218 2 4.00751 55.2431 4.96975
219 2 7.93211 55.2491 5.01211
220 2 11.9507 55.1521 5.05814
221 2 15.86 59.2341 5.12734
222 2 3.96285 59.2694 5.15978
223 2 8.09956 59.241 5.00946
224 2 11.9165 59.3508 5.07894
225 2 0.109924 63.2267 5.12683
226 2 3.87886 63.3312 4.96533
227 2 7.86549 63.3228 5.19903
228 2 11.748 63.3077 5.24738
229 2 15.656 67.362 5.49037
230 2 3.87084 67.3806 5.24312
231 2 7.99912 67.3858 5.15957
232 2 11.7748 67.4368 5.17501
233 2 15.721 71.5087 5.51164
234 2 3.79492 71.4674 5.45754
235 2 7.78157 71.334 5.48965
236 2 11.93 71.5122 5.41106
237 2 15.7545 75.6506 5.5541
238 2 4.02864 75.4034 5.41548
239 2 7.98603 75.3706 5.41644
240 2 11.767 75.4807 5.27364
241 2 0.0607377 79.4581 5.38112
242 2 3.94665 79.4566 5.49086
243 2 7.90538 79.448 5.58676
244 2 11.8524 79.3382 5.48235
245 2 15.7671 83.5643 5.50357
246 2 4.09075 83.5495 5.52078
247 2 7.91041 83.451 5.53644
248 2 11.8574 83.2653 5.46429
249 2 0.0160388 87.3389 5.41107
250 2 4.18912 87.355 5.44498
251 2 8.32045 87.3349 5.25158
252 2 12.0378 87.3149 5.25478
253 2 0.0424302 91.387 5.59647
254 2 4.01456 91.4595 5.41996
255 2 8.25701 91.3616 5.41849
256 2 12.153 91.3132 5.52195
257 2 15.9101 95.3415 5.36344
258 2 3.88947 95.4436 5.36833
259 2 7.91508 95.4323 5.3055
260 2 11.8648 95.2818 5.41305
261 2 0.11804 99.1613 5.41384
262 2 4.08327 99.4021 5.30998
263 2 8.02686 99.1603 5.30931
264 2 12.046 99.3767 5.29239
265 2 -0.00490058 103.252 5.34194
266 2 4.17167 103.129 5.51202
267 2 8.00566 103.234 5.21405
268 2 11.8819 103.231 5.28885
269 2 15.763 107.138 5.11566
270 2 4.00344 107.113 5.36483
271 2 8.0172 107.141 5.4354
272 2 11.9037 107.226 5.44251
273 2 15.819 111.084 5.19362
274 2 3.95266 110.954 5.39878
275 2 7.85255 110.995 5.32493
276 2 12.0658 110.956 5.27084
277 2 0.295122 115.115 5.27933
278 2 4.0912 114.888 5.23904
279 2 7.90374 114.995 5.09867
280 2 12.0319 114.942 5.15867
281 2 0.229684 118.766 5.07284
282 2 4.08577 118.907 4.90564
283 2 8.06112 118.767 5.0522
284 2 11.8798 119.084 5.01022
285 2 15.7159 122.732 5.02109
286 2 3.90062 122.911 5.23028
287 2 7.8261 122.731 5.06971
288 2 11.8342 122.832 5.19385
289 2 0.0783792 126.741 5.00191
290 2 4.06702 126.706 4.9848
291 2 7.86668 126.758 4.86141
292 2 12.0295 126.61 4.97058
293 2 -0.00290903 130.636 5.1887
294 2 4.06261 130.575 5.06448
295 2 7.84762 130.553 4.93711
296 2 11.9209 130.521 4.71614
297 2 15.7284 134.489 5.09992
298 2 3.83118 134.53 4.80744
299 2 7.93302 134.697 5.03128
300 2 12.0268 134.646 4.95258
301 2 0.0763143 138.178 4.76383
302 2 3.94288 138.414 4.89731
303 2 8.04436 138.508 4.85675
304 2 12.0936 138.453 4.8589
305 2 0.0845654 142.273 5.00202
306 2 3.88523 142.231 4.85257
307 2 7.99565 142.302 4.90135
308 2 11.84 142.313 4.89262
309 2 15.8989 146.371 4.82205
310 2 3.88233 146.281 4.77561
311 2 7.78789 146.303 4.73588
312 2 11.7226 146.24 4.94394
313 2 15.6426 150.069 4.75938
314 2 3.97527 150.113 4.74497
315 2 7.62416 150.058 4.82705
316 2 11.8492 150.096 4.84527
317 2 15.8219 154.048 4.87477
318 2 3.71162 154.115 4.87119
319 2 7.97649 153.945 4.69749
320 2 11.7081 153.968 4.61899
321 2 15.728 157.85 8.69387
322 2 4.00196 158.072 8.67424
323 2 7.84055 158.046 8.78928
324 2 11.6296 157.909 8.75629
325 2 15.722 3.46186 8.47299
326 2 3.94054 3.62474 8.73503
327 2 7.96658 3.55481 8.7397
328 2 11.8027 3.57462 8.53289
329 2 15.8943 7.48695 8.50589
330 2 4.06189 7.63328 8.55506
331 2 8.13397 7.47143 8.63576
332 2 12.0384 7.44501 8.77653
333 2 0.0545721 11.2231 8.61388
334 2 3.96792 11.3334 8.67758
335 2 8.05442 11.2392 8.52564
336 2 12.0248 11.2316 8.56845
337 2 15.7131 15.2183 8.44522
338 2 3.86705 15.189 8.6205
339 2 8.09088 15.338 8.50307
340 2 11.7768 15.331 8.61903
341 2 0.0200492 19.2312 8.6774
342 2 3.98893 19.0536 8.55992
343 2 7.91331 19.4317 8.55051
344 2 11.9177 19.1053 8.52822
345 2 0.272475 23.0253 8.51571
346 2 3.9963 23.3303 8.5144
347 2 8.09409 23.1828 8.56639
348 2 11.6524 23.2066 8.4854
349 2 -0.0769219 26.7385 8.52293
350 2 3.86723 27.0523 8.50078
351 2 7.6477 27.0282 8.36528
352 2 11.7757 27.0347 8.55607
353 2 0.180717 31.0761 8.49064
354 2 4.22478 31.1235 8.61214
355 2 8.07162 30.9589 8.53326
356 2 12.0466 30.9601 8.39334
357 2 15.8272 35.0446 8.44139
358 2 3.84828 35.1011 8.45073
359 2 8.05982 35.0979 8.53989
360 2 11.9482 35.1821 8.52126
361 2 0.0858532 39.0344 8.49462
362 2 4.04649 39.0597 8.47289
363 2 8.07579 38.9656 8.48734
364 2 12.0636 39.1039 8.66636
365 2 0.138064 43.1619 8.60117
366 2 4.09863 43.0622 8.46859
367 2 7.99967 43.1343 8.82051
368 2 11.8527 43.1776 8.67877
369 2 -0.0338223 47.1959 8.78494
370 2 4.29388 47.2579 8.89049
371 2 8.02226 47.1185 8.90261
372 2 12.0958 47.1143 8.84196
373 2 15.9342 51.0415 8.86179
374 2 4.00759 51.1136 8.91175
375 2 8.10898 51.3035 8.58804
376 2 11.8814 51.0143 8.83982
377 2 15.7816 55.1055 8.84222
378 2 3.92434 55.2654 8.92871
379 2 7.88406 55.2341 8.98727
380 2 12.1021 55.1961 8.99008
381 2 0.0465669 59.2008 9.12938
382 2 3.9998 59.1968 9.04735
383 2 8.03124 59.14 8.81708
384 2 11.9892 59.3261 9.03034
385 2 0.228583 63.3211 9.06657
386 2 4.13425 63.178 9.11317
387 2 7.88308 63.429 9.13295
388 2 12.0441 63.2507 8.99517
389 2 15.7821 67.4225 9.19168
390 2 4.03115 67.184 9.22709
391 2 7.93825 67.3915 9.12089
392 2 11.7254 67.399 9.15469
393 2 15.8545 71.2766 9.44671
394 2 3.94262 71.2895 9.33175
395 2 7.93601 71.2121 9.26701
396 2 11.8355 71.3128 9.38903
397 2 15.7421 75.2935 9.3608
398 2 4.03179 75.1988 9.37442
399 2 7.85592 75.2446 9.32134
400 2 11.8871 75.2368 9.30713
401 2 15.8026 79.5171 9.43519
402 2 4.03345 79.2823 9.28694
403 2 8.00242 79.4376 9.21653
404 2 11.715 79.4077 9.24087
405 2 0.11077 83.4549 9.39432
406 2 3.88394 83.594 9.4576
407 2 7.86589 83.572 9.43201
408 2 11.8719 83.5703 9.51994
409 2 0.171112 87.5234 9.38695
410 2 4.02489 87.7369 9.33638
411 2 8.05453 87.5056 9.28754
412 2 11.9582 87.4341 9.59971
413 2 0.127695 91.4898 9.46597
414 2 4.17168 91.4087 9.42142
415 2 8.0977 91.2155 9.30056
416 2 12.0446 91.3587 9.37703
417 2 15.8645 95.3727 9.41458
418 2 4.07388 95.2259 9.46179
419 2 7.78342 95.3751 9.23698
420 2 11.843 95.4419 9.43564
421 2 15.8634 99.1532 9.19393
422 2 4.13298 99.4617 9.36794
423 2 8.0546 99.1818 9.2523
424 2 11.9166 99.4599 9.35698
425 2 0.117801 103.177 9.45693
426 2 3.86898 103.2 9.42392
427 2 8.12481 103.445 9.39486
428 2 12.0236 103.04 9.34552
429 2 0.140786 107.163 9.32204
430 2 4.05985 107.129 9.40837
431 2 7.90221 107.267 9.46936
432 2 11.9451 107.071 9.22911
433 2 15.6911 111.174 9.27528
434 2 3.89447 111.187 9.20345
435 2 8.00156 111.086 9.36145
436 2 12.0012 110.988 9.19818
437 2 0.0828763 115.001 9.25042
438 2 4.06925 115.155 9.18256
439 2 8.15583 115.096 9.22564
440 2 11.9832 115.1 9.20493
441 2 0.148146 118.874 9.01436
442 2 4.0602 118.898 9.24592
443 2 7.85217 119.161 9.11186
444 2 12.0159 118.994 9.06765
445 2 15.6208 122.824 9.18167
446 2 3.9036 122.693 9.14824
447 2 7.93726 122.958 9.04704
448 2 11.9725 122.936 8.94978
449 2 15.7627 126.652 9.04164
450 2 3.81375 126.738 9.05493
451 2 7.96164 126.695 9.02506
452 2 11.7954 126.734 9.02471
453 2 -0.19322 130.725 9.12791
454 2 4.05394 130.635 9.18415
455 2 7.94811 130.568 9.00921
456 2 11.7629 130.718 8.88975
457 2 0.024267 134.779 9.08715
458 2 4.25344 134.402 9.03101
459 2 8.11183 134.382 8.88469
460 2 11.8235 134.603 9.15512
461 2 0.0548305 138.589 8.95712
462 2 4.0447 138.369 9.06699
463 2 7.92463 138.321 8.80587
464 2 11.8502 138.31 8.91729
465 2 0.237463 142.477 8.80545
466 2 4.14972 142.379 8.82907
467 2 8.0445 142.245 8.88052
468 2 11.9344 142.421 8.98584
469 2 15.7065 146.276 8.86428
470 2 4.02233 146.248 8.95585
471 2 7.8997 146.079 8.83061
472 2 11.8239 146.078 8.77382
473 2 15.5995 150.188 8.83646
474 2 3.89772 150.273 8.94921
475 2 7.93054 149.998 8.77591
476 2 11.7593 150.065 8.90787
477 2 15.6365 154.048 8.89138
478 2 3.80156 154.012 8.87218
479 2 7.73982 153.843 8.58741
480 2 11.6613 153.843 8.6831
481 2 15.7513 158.006 12.6616
482 2 3.65896 157.948 12.7523
483 2 7.83777 157.94 12.7746
484 2 11.7039 158.006 12.7748
485 2 15.5874 3.73672 12.6345
486 2 3.69022 3.8164 12.656
487 2 7.74923 3.69671 12.6657
488 2 11.7875 3.42279 12.8958
489 2 15.7485 7.45713 12.6243
490 2 3.80652 7.62684 12.5843
491 2 7.82706 7.49974 12.4991
492 2 11.7194 7.53305 12.6746
493 2 0.178853 11.3669 12.5393
494 2 3.97501 11.437 12.6652
495 2 7.97787 11.4165 12.623
496 2 11.9912 11.4607 12.748
497 2 0.00493699 15.1622 12.4947
498 2 3.98389 15.3213 12.4977
499 2 7.81149 15.3417 12.5695
500 2 11.9453 15.4927 12.6495
501 2 -0.0425457 19.3565 12.6074
502 2 4.02605 19.2022 12.4632
503 2 7.88603 19.3734 12.3929
504 2 11.9165 19.3905 12.3978
505 2 0.0437589 22.9143 12.3834
506 2 4.16645 23.2198 12.6054
507 2 7.86367 23.1197 12.6548
508 2 11.944 23.2687 12.701
509 2 0.219995 27.047 12.4628
510 2 3.94432 27.0955 12.4814
511 2 7.91212 26.9141 12.5011
512 2 11.9353 27.0997 12.374
513 2 0.172887 31.0244 12.5628
514 2 4.00419 31.0659 12.4881
515 2 8.1197 31.1693 12.51
516 2 12.1281 30.9998 12.3009
517 2 -0.0281014 34.9276 12.4377
518 2 4.06486 35.0535 12.5981
519 2 8.0033 35.0165 12.586
520 2 12.0788 34.9071 12.4414
521 2 0.0708014 39.2155 12.689
522 2 3.74276 39.0529 12.3874
523 2 7.95895 39.0971 12.6008
524 2 11.984 38.8776 12.5216
525 2 0.114693 43.0481 12.3913
526 2 4.02669 43.0265 12.4819
527 2 8.01547 42.9605 12.7102
528 2 11.9231 43.1241 12.576
529 2 -0.0334435 47.0088 12.7481
530 2 4.01374 47.0519 12.717
531 2 7.9182 46.9807 12.7383
532 2 12.1165 47.1844 12.6427
533 2 0.0810001 51.0496 12.9416
534 2 4.08058 51.2121 12.8611
535 2 8.00962 51.2471 12.504
536 2 11.9033 51.1685 12.7624
537 2 15.8471 55.1818 12.7443
538 2 3.8821 55.1956 12.8507
539 2 7.91562 55.216 12.8804
540 2 11.9243 55.1173 12.7525
541 2 15.6878 59.1583 12.9431
542 2 3.95115 59.1723 12.892
543 2 7.75041 59.2338 12.9626
544 2 11.8659 59.195 12.8848
545 2 15.8003 63.2799 13.191
546 2 3.99717 63.1735 13.0124
547 2 8.03643 63.1758 12.9255
548 2 11.878 63.0564 13.1473
549 2 0.0142133 67.115 13.1126
550 2 4.02809 67.1648 12.9394
551 2 8.02187 67.2774 13.134
552 2 12.0566 67.2351 13.0998
553 2 -0.0170286 71.2698 13.2945
554 2 3.86617 71.1728 13.3739
555 2 8.05326 71.3879 13.3092
556 2 11.8386 71.2478 13.1208
557 2 -0.0717234 75.3697 13.2262
558 2 4.0112 75.2969 13.1991
559 2 7.87871 75.2784 13.2429
560 2 11.8437 75.1848 13.3346
561 2 0.149729 79.387 13.1814
562 2 4.03572 79.2838 13.1657
563 2 7.90833 79.2497 13.1915
564 2 11.7756 79.391 13.224
565 2 0.194607 83.3502 13.05
566 2 4.18247 83.2224 13.3024
567 2 8.12434 83.3408 13.1819
568 2 12.2078 83.2385 13.0813
569 2 0.119318 87.5183 13.4163
570 2 4.14431 87.3345 13.3377
571 2 8.04128 87.5728 13.3607
572 2 11.9957 87.5148 13.3775
573 2 0.117927 91.5176 13.424
574 2 4.05341 91.3494 13.3327
575 2 7.94779 91.4254 13.4904
576 2 11.9184 91.3728 13.4031
577 2 -0.0540793 95.4705 13.4745
578 2 4.11567 95.5322 13.2861
579 2 7.90796 95.4361 13.4627
580 2 11.9114 95.325 13.2026
581 2 0.0436475 99.3247 13.3456
582 2 4.00961 99.4494 13.5405
583 2 7.94327 99.4436 13.4219
584 2 11.8195 99.3641 13.4068
585 2 -0.0117002 103.466 13.5558
586 2 3.89717 103.347 13.296
587 2 8.04162 103.436 13.4313
588 2 12.0122 103.076 13.2594
589 2 0.0786481 107.18 13.3367
590 2 4.18234 107.313 13.388
591 2 7.97317 107.286 13.315
592 2 11.99 107.327 13.3959
593 2 0.0680272 111.087 13.3194
594 2 4.03105 111.283 13.3286
595 2 8.03388 111.249 13.1774
596 2 11.8515 111.034 13.2674
597 2 0.185047 115.073 13.0937
598 2 4.1826 115.069 12.9774
599 2 7.99187 115.056 13.1535
600 2 12.1259 115.032 13.248
601 2 0.0673395 119.003 13.1038
602 2 3.99413 118.996 13.2556
603 2 7.97657 118.977 13.1154
604 2 11.9961 118.991 13.2826
605 2 0.0384554 122.867 13.2457
606 2 3.87105 123.003 13.3069
607 2 7.8938 122.792 13.1736
608 2 11.8638 122.8 13.1235
609 2 0.137255 126.753 12.9405
610 2 3.99016 126.809 13.0705
611 2 8.00594 126.685 13.1369
612 2 11.9097 126.653 13.2924
613 2 15.6293 130.829 13.1128
614 2 4.00731 130.562 13.0162
615 2 7.97705 130.513 13.1118
616 2 11.804 130.612 12.9795
617 2 15.6425 134.739 13.056
618 2 4.02771 134.528 13.0826
619 2 7.95613 134.531 13.1651
620 2 11.8451 134.719 12.9037
621 2 0.151188 138.509 12.9418
622 2 4.14623 138.541 12.9581
623 2 8.01691 138.388 12.8864
624 2 12.0635 138.538 12.9797
625 2 15.825 142.255 12.9712
626 2 4.05821 142.271 12.8485
627 2 8.09486 142.414 12.8838
628 2 11.9881 142.444 12.9018
629 2 0.0839877 146.16 13.0074
630 2 4.07598 146.206 12.9425
631 2 7.82274 146.162 12.948
632 2 11.7363 146.519 12.8527
633 2 0.0816221 150.165 12.7195
634 2 3.81931 150.013 12.9014
635 2 8.1179 150.087 12.932
636 2 11.7383 150.187 12.9779
637 2 15.7751 153.987 12.7507
638 2 3.96949 153.983 13.0039
639 2 7.83133 154.097 12.7776
640 2 11.7409 154.102 12.8471
641 2 -0.0182558 158.119 16.9206
642 2 3.90657 0.0553302 16.6469
643 2 7.82209 157.999 16.692
644 2 11.8786 158.21 16.7529
645 2 15.7321 3.66407 16.8409
646 2 3.92537 3.7043 16.7365
647 2 7.75563 3.64473 16.6551
648 2 11.8961 3.81554 16.8018
649 2 0.02114 7.65642 16.6903
650 2 4.03556 7.52477 16.9709
651 2 7.7513 7.63069 16.7009
652 2 11.7349 7.59578 16.6168
653 2 0.0011424 11.411 16.6192
654 2 3.97967 11.5323 16.7504
655 2 8.02831 11.5043 16.767
656 2 11.8346 11.684 16.5899
657 2 0.05684 15.2957 16.5217
658 2 4.03812 15.3625 16.6262
659 2 8.00375 15.4562 16.7374
660 2 12.0339 15.4382 16.4972
661 2 15.7324 19.1818 16.6135
662 2 3.83141 19.3068 16.4678
663 2 7.88042 19.4456 16.5611
664 2 11.889 19.3719 16.4019
665 2 0.113048 23.2299 16.5271
666 2 4.17458 23.2226 16.6222
667 2 8.14749 23.2811 16.3862
668 2 11.8787 23.2358 16.6983
669 2 0.332687 27.2117 16.6166
670 2 4.1145 26.9874 16.5065
671 2 7.91639 27.0668 16.4986
672 2 11.9143 27.0798 16.4473
673 2 -0.0163725 31.0305 16.5133
674 2 3.94854 31.0328 16.527
675 2 7.84158 30.8486 16.4435
676 2 11.9318 31.0303 16.1896
677 2 -0.0348597 34.8601 16.4619
678 2 3.96658 34.9782 16.4997
679 2 7.90997 34.7959 16.3675
680 2 11.8196 34.8663 16.3697
681 2 0.0789775 39.014 16.361
682 2 4.04882 38.8769 16.501
683 2 8.03769 38.9956 16.4933
684 2 11.8353 39.0169 16.51
685 2 0.224331 43.045 16.548
686 2 4.08576 42.935 16.5096
687 2 7.98667 42.9397 16.544
688 2 11.9215 43.1001 16.4683
689 2 15.9656 47.1339 16.6274
690 2 3.98852 46.9493 16.5497
691 2 8.03741 46.972 16.5453
692 2 11.8345 47.0003 16.4429
693 2 0.0587856 51.003 16.6994
694 2 3.93341 51.0488 16.7916
695 2 7.97739 50.9521 16.6874
696 2 11.8121 51.0264 16.6751
697 2 0.0134889 55.1634 16.7418
698 2 3.77739 55.101 16.5914
699 2 7.81341 54.9969 16.558
700 2 11.9092 55.1209 16.6789
701 2 -0.00234145 59.1546 16.6934
702 2 4.06401 59.0954 16.6928
703 2 7.87069 59.1265 16.7297
704 2 11.7775 59.2595 16.7628
705 2 0.175624 63.2568 17.082
706 2 3.73217 63.2445 17.0188
707 2 7.91309 63.3848 17.0445
708 2 11.7815 63.1432 16.9593
709 2 -0.0235261 66.9591 16.8745
710 2 4.03121 67.3079 16.8091
711 2 8.06723 67.1992 17.0666
712 2 11.8746 67.1157 17.1381
713 2 0.0487236 71.1499 17.1628
714 2 3.98819 71.2635 17.0999
715 2 7.93343 71.1255 17.1583
716 2 11.9419 70.9745 17.0917
717 2 0.114962 75.299 17.0661
718 2 4.03248 75.2469 16.9473
719 2 7.8505 75.2913 17.0543
720 2 12.0942 75.1591 17.2506
721 2 0.060949 79.1978 17.2549
722 2 3.98005 79.2706 17.2159
723 2 7.92425 79.2849 17.2325
724 2 11.9538 79.0364 17.1333
725 2 0.0146009 83.1344 17.0488
726 2 3.9846 83.3102 16.9814
727 2 8.14658 83.3855 16.8779
728 2 12.0298 83.3909 16.9393
729 2 0.102277 87.2794 17.1878
730 2 4.22583 87.393 17.2302
731 2 8.17132 87.2714 17.1914
732 2 12.1191 87.2837 17.2811
733 2 0.0913703 91.43 17.231
734 2 4.02369 91.4213 17.3486
735 2 8.35151 91.3046 17.4044
736 2 11.9403 91.4554 17.4271
737 2 0.0896284 95.5736 17.3438
738 2 4.00801 95.322 17.3032
739 2 7.98983 95.3641 17.3165
740 2 12.1235 95.4343 17.4287
741 2 0.219519 99.3008 17.3813
742 2 3.86746 99.4585 17.2853
743 2 8.0629 99.376 17.2386
744 2 12.1348 99.3241 17.4553
745 2 -0.0515657 103.391 17.4946
746 2 3.81468 103.298 17.4516
747 2 7.96904 103.165 17.2882
748 2 11.8177 103.158 17.4793
749 2 0.0477414 107.311 17.3705
750 2 4.05905 107.357 17.4373
751 2 7.88763 106.933 17.2314
752 2 11.7503 107.143 17.5803
753 2 0.268192 111.082 17.3509
754 2 4.10825 111.29 17.4611
755 2 8.07291 111.068 17.414
756 2 11.909 111.173 17.3242
757 2 0.216037 115.118 17.0688
758 2 4.17477 115.073 17.3182
759 2 7.99978 115.153 17.0533
760 2 12.1107 115.116 17.0107
761 2 0.132692 119.032 17.1964
762 2 3.87925 119.026 17.3254
763 2 7.77858 118.926 17.0494
764 2 12.0371 118.882 17.2423
765 2 -0.018401 122.912 17.2596
766 2 4.04207 122.878 17.2198
767 2 8.00081 122.756 17.1662
768 2 11.8699 122.956 17.1783
769 2 15.8186 126.705 17.1115
770 2 3.84727 126.719 17.0892
771 2 7.88444 126.698 17.0165
772 2 11.7269 126.666 17.1723
773 2 15.8452 130.893 17.009
774 2 3.87042 130.657 17.0066
775 2 7.95339 130.66 17.2164
776 2 11.6008 130.577 17.0133
777 2 15.7039 134.622 16.9614
778 2 3.96859 134.721 17.0669
779 2 8.03024 134.711 17.145
780 2 11.9992 134.726 17.0219
781 2 0.179141 138.593 16.958
782 2 3.93281 138.489 16.9969
783 2 7.90737 138.655 17.0642
784 2 11.8489 138.614 17.011
785 2 15.7001 142.347 16.9989
786 2 3.86239 142.379 16.8524
787 2 7.9453 142.381 17.0455
788 2 11.8213 142.393 16.9197
789 2 15.7138 146.207 16.9794
790 2 3.85968 146.247 16.9848
791 2 7.88445 146.436 17.0671
792 2 11.8481 146.363 16.9057
793 2 15.8376 150.159 16.8471
794 2 3.78134 150.303 16.7749
795 2 7.70772 150.256 16.9544
796 2 11.7748 150.183 17.0774
797 2 15.7281 154.241 16.9494
798 2 3.92566 154.136 16.9158
799 2 7.62387 154.134 16.8797
800 2 11.7993 154.041 16.8088
801 2 15.8335 158.236 20.9029
802 2 3.79805 158.037 20.8483
803 2 7.90871 158.194 20.6805
804 2 11.8976 158.049 20.767
805 2 -0.0599711 3.55596 20.7627
806 2 4.05724 3.79353 20.9339
807 2 7.82044 3.64544 20.8162
808 2 11.7347 3.45902 20.8319
809 2 15.725 7.61489 20.765
810 2 3.72246 7.59152 20.8705
811 2 7.85592 7.67715 20.8358
812 2 11.6983 7.5018 20.5647
813 2 15.6502 11.4077 20.7116
814 2 3.65668 11.5562 20.8367
815 2 7.90515 11.4584 20.7408
816 2 11.9428 11.4792 20.6739
817 2 15.8108 15.3493 20.5592
818 2 3.88081 15.5738 20.59
819 2 7.95882 15.3083 20.7095
820 2 11.916 15.2945 20.6784
821 2 -0.0150624 19.2919 20.6417
822 2 4.0947 19.3077 20.642
823 2 7.95562 19.1184 20.6582
824 2 12.0066 19.2995 20.5749
825 2 -0.108143 23.1133 20.637
826 2 3.99197 23.2271 20.6236
827 2 7.88731 23.0486 20.4599
828 2 11.9015 23.2225 20.5172
829 2 15.6784 27.0651 20.5852
830 2 3.98089 27.1556 20.5958
831 2 8.09928 27.1129 20.3812
832 2 11.9216 27.0022 20.6103
833 2 15.89 31.0673 20.2055
834 2 4.05136 31.1816 20.4487
835 2 8.01015 30.8477 20.5726
836 2 12.056 30.9745 20.4493
837 2 15.8473 35.2259 20.3199
838 2 4.09296 34.9701 20.4434
839 2 8.06965 34.8869 20.3134
840 2 12.0139 34.957 20.2664
841 2 0.198849 39.065 20.408
842 2 4.12863 38.9371 20.3224
843 2 7.96689 39.036 20.3351
844 2 12.0017 38.7812 20.196
845 2 15.7706 42.8235 20.4106
846 2 4.15505 42.9811 20.385
847 2 7.79603 43.0246 20.5162
848 2 11.733 42.8819 20.4474
849 2 15.8192 46.8959 20.4358
850 2 4.05244 47.0184 20.5883
851 2 7.92456 46.9823 20.4672
852 2 11.8166 46.9112 20.6257
853 2 0.256884 50.9983 20.5874
854 2 4.1136 50.9523 20.6899
855 2 8.02292 50.8941 20.606
856 2 12.0793 50.9677 20.5825
857 2 0.084109 55.0216 20.739
858 2 3.8741 55.0118 20.6665
859 2 8.00396 55.0676 20.3474
860 2 11.6949 54.7981 20.6557
861 2 15.8175 58.9046 20.7395
862 2 3.98071 58.7823 20.7463
863 2 7.8603 59.0204 20.7076
864 2 11.845 58.8679 20.6486
865 2 15.748 63.014 20.7608
866 2 3.86266 63.0254 20.7635
867 2 7.98298 63.1096 20.7432
868 2 11.8631 62.9521 20.8054
869 2 0.0280464 66.8667 20.8966
870 2 3.97101 67.0742 20.8989
871 2 8.04263 67.0392 20.8738
872 2 11.9977 66.9043 20.911
873 2 0.0883222 71.1094 20.7898
874 2 4.04468 71.0415 20.7748
875 2 8.09454 71.2633 21.0503
876 2 11.9861 71.111 20.7969
877 2 0.0608798 75.2321 21.0303
878 2 4.11144 75.0566 21.0611
879 2 7.91015 75.1981 21.0313
880 2 11.9564 74.968 21.0228
881 2 0.146066 79.1658 21.1471
882 2 4.23394 79.1913 21.2016
883 2 8.10729 79.2529 20.9732
884 2 11.946 79.0747 20.9521
885 2 -0.0792388 83.2008 20.9879
886 2 3.88347 83.2132 21.1342
887 2 7.85713 83.1903 21.0256
888 2 11.9791 83.216 21.0316
889 2 0.0761372 87.1676 21.1268
890 2 4.01729 87.2391 21.0087
891 2 8.01082 87.1549 21.227
892 2 11.8532 87.0786 21.2657
893 2 0.104119 91.3175 21.1536
894 2 4.19632 91.4069 20.9973
895 2 7.97305 91.316 21.2942
896 2 11.97 91.2022 21.1713
897 2 0.307496 95.5335 21.2489
898 2 4.24696 95.3026 21.3583
899 2 8.04697 95.5577 21.3244
900 2 12.0582 95.2775 21.3259
901 2 0.159597 99.4503 21.5506
902 2 4.04277 99.274 21.4741
903 2 8.00035 99.3071 21.4196
904 2 11.6691 99.3598 21.2182
905 2 -0.016781 103.163 21.4044
906 2 4.1019 103.268 21.2766
907 2 7.9798 103.348 21.3898
908 2 11.7845 103.394 21.4137
909 2 0.0630594 107.146 21.5064
910 2 4.05313 107.265 21.3081
911 2 7.85881 107.361 21.3747
912 2 12.0041 107.14 21.2932
913 2 -0.0482321 111.005 21.1202
914 2 3.87062 111.377 21.3112
915 2 8.07805 111.142 21.2262
916 2 12.0701 111.124 21.4283
917 2 15.8513 114.88 21.2791
918 2 4.02101 115.08 21.2299
919 2 8.04671 115.031 21.2309
920 2 11.9053 114.741 21.1682
921 2 0.108711 119.024 21.254
922 2 3.91361 118.996 21.1844
923 2 7.88968 118.795 21.2569
924 2 11.9534 118.949 21.2996
925 2 15.9634 122.818 21.2347
926 2 4.01355 122.925 21.0132
927 2 8.01962 122.847 21.2322
928 2 12.0156 122.687 21.3139
929 2 15.8886 126.75 21.0722
930 2 3.95009 126.759 21.1058
931 2 7.89251 126.919 21.126
932 2 11.834 126.615 21.1681
933 2 15.8047 130.741 21.0067
934 2 3.87623 130.716 20.9747
935 2 8.01427 130.737 21.2409
936 2 11.992 130.821 21.1194
937 2 0.0454333 134.643 20.9347
938 2 4.06159 134.566 20.9807
939 2 7.94059 134.468 20.8925
940 2 12.0507 134.723 21.1003
941 2 15.9185 138.552 21.0231
942 2 4.10568 138.588 21.0496
943 2 7.82989 138.453 21.0763
944 2 11.7736 138.67 21.0986
945 2 15.9221 142.436 21.0213
946 2 3.8944 142.412 20.9832
947 2 7.95976 142.439 21.0836
948 2 11.8875 142.566 21.1687
949 2 15.6434 146.461 20.8803
950 2 3.81834 146.372 21.2015
951 2 7.87143 146.222 20.8984
952 2 11.9531 146.529 20.9996
953 2 15.7227 150.396 21.0055
954 2 3.77219 150.371 20.9929
955 2 7.9489 150.263 20.9344
956 2 11.8418 150.196 21.1281
957 2 15.5873 154.24 20.735
958 2 3.97233 154.268 20.8572
959 2 7.96596 154.299 20.8901
960 2 11.7953 154.144 20.9821
961 2 -0.045345 158.152 24.8444
962 2 3.80187 158.121 24.9203
963 2 7.76829 157.92 24.8359
964 2 11.8534 158.311 25.0845
965 2 15.725 3.86514 24.9416
966 2 3.76215 3.74183 24.7181
967 2 7.82962 3.65998 24.8072
968 2 11.7573 3.74492 24.9902
969 2 15.5837 7.57278 24.7477
970 2 3.74754 7.53717 24.7676
971 2 7.76367 7.66971 24.9162
972 2 11.7439 7.63407 24.5779
973 2 15.6538 11.4223 24.7283
974 2 3.99443 11.4346 24.9931
975 2 7.80947 11.6056 24.8317
976 2 11.9043 11.5035 24.8206
977 2 0.0431231 15.4143 24.6233
978 2 3.97904 15.3856 24.6055
979 2 7.88631 15.3094 24.6911
980 2 11.924 15.4066 24.7995
981 2 -0.11616 19.2953 24.6702
982 2 3.82367 19.2963 24.6198
983 2 8.01859 19.3428 24.5627
984 2 11.8342 19.3096 24.7654
985 2 0.00477477 23.3206 24.5429
986 2 3.94099 23.3797 24.73
987 2 7.84835 23.1327 24.7056
988 2 11.7597 23.1497 24.7215
989 2 -0.0113322 27.1187 24.5121
990 2 4.17235 27.1648 24.581
991 2 8.14817 27.1705 24.4741
992 2 11.9028 27.2194 24.56
993 2 -0.0533457 31.177 24.4574