ITEM: TIMESTEP
19400
ITEM: NUMBER OF ATOMS
32000
ITEM: BOX BOUNDS xy xz yz pp pp pp
0.0000000000000000e+00 1.5832000000000001e+01 0.0000000000000000e+00
0.0000000000000000e+00 1.5831999999999999e+02 0.0000000000000000e+00
8.5236045527396698e-01 1.6012475754472311e+02 0.0000000000000000e+00
ITEM: ATOMS id type x y z
1 2 16.0583 158.148 159.975
2 2 4.02631 157.876 159.924
3 2 8.10272 157.738 159.948
4 2 11.8024 157.892 159.86
5 2 -0.0496292 3.65544 159.876
6 2 4.04323 3.66797 159.831
7 2 7.99302 3.60616 159.831
8 2 11.8194 3.4792 159.997
9 2 15.7491 7.29088 159.857
10 2 4.01157 7.44787 159.896
11 2 8.11137 7.43315 159.856
12 2 11.9203 7.46607 159.979
13 2 16.0413 11.2767 159.719
14 2 3.99547 11.242 159.783
15 2 8.00762 11.4236 159.849
16 2 12.228 11.5575 159.794
17 2 0.0956492 15.3961 159.663
18 2 3.94733 15.1617 159.742
19 2 7.90883 15.2368 159.838
20 2 12.0299 15.0985 159.612
21 2 15.6646 19.2424 159.858
22 2 4.00719 19.285 159.816
23 2 7.97629 19.3982 159.783
24 2 11.8266 19.3142 159.898
25 2 15.8269 23.2938 159.983
26 2 3.98251 23.235 160.008
27 2 7.80135 23.2275 159.931
28 2 11.788 23.155 159.881
29 2 15.8674 27.2842 160.075
30 2 4.05621 27.3269 159.922
31 2 7.90066 27.24 159.954
32 2 11.8875 27.3163 159.809
33 2 15.715 31.1725 159.828
34 2 3.91781 31.1312 0.493426
35 2 7.84575 31.345 160.037
36 2 11.8104 31.3179 159.994
37 2 -0.154357 35.4458 160.126
38 2 3.95769 35.2732 159.883
39 2 7.76737 35.2278 159.991
40 2 11.8963 35.1718 160.048
41 2 0.0692689 39.208 159.902
42 2 4.13223 39.2778 0.783074
43 2 7.87542 39.3043 0.605872
44 2 11.8145 39.3423 0.711607
45 2 -0.00256346 43.1599 160.116
46 2 3.85054 43.2219 160.229
47 2 7.99036 43.2896 0.837379
48 2 11.8555 43.2802 0.835124
49 2 -0.135279 47.3255 0.785048
50 2 3.68037 47.2847 0.802336
51 2 7.76969 47.0634 0.821084
52 2 11.6191 47.2489 1.12194
53 2 0.0342313 51.2808 1.09529
54 2 4.00191 51.2142 0.789627
55 2 7.77002 51.3668 1.003
56 2 11.9006 51.4089 0.865701
57 2 15.6988 55.1832 1.06721
58 2 4.0288 55.2291 1.21873
59 2 8.00086 55.3302 1.05144
60 2 12.0238 55.2391 0.993278
61 2 -0.028281 59.4021 1.11942
62 2 4.04147 59.3372 1.00753
63 2 7.94758 59.2766 1.10826
64 2 11.7898 59.3413 0.954672
65 2 -0.0743862 63.354 1.25178
66 2 3.83974 63.519 1.31534
67 2 8.11166 63.3345 1.34588
68 2 11.8421 63.4335 1.09704
69 2 15.7995 67.4797 1.25233
70 2 3.96457 67.4465 1.2584
71 2 7.84177 67.4971 1.2598
72 2 11.9244 67.5726 1.09618
73 2 -0.0395895 71.5212 1.23759
74 2 3.8667 71.4815 1.18237
75 2 7.8147 71.4222 1.26825
76 2 11.655 71.3878 1.33099
77 2 -0.058948 75.5561 1.64346
78 2 3.9181 75.6277 1.5465
79 2 7.86712 75.5571 1.58499
80 2 11.8951 75.6439 1.56256
81 2 -0.253358 79.6106 1.31634
82 2 3.81933 79.6856 1.4018
83 2 7.7406 79.5424 1.33518
84 2 11.7735 79.5753 1.46379
85 2 -0.114106 83.52 1.48253
86 2 3.82637 83.5755 1.47737
87 2 7.97927 83.4526 1.66662
88 2 11.8579 83.4611 1.46114
89 2 -0.22938 87.4998 1.50922
90 2 3.98941 87.3028 1.46087
91 2 8.02672 87.3742 1.53061
92 2 11.9033 87.3772 1.32513
93 2 0.166033 91.4185 1.59958
94 2 4.07194 91.3771 1.3601
95 2 8.06967 91.2645 1.58023
96 2 11.7109 91.3108 1.44596
97 2 15.9215 95.2164 1.60468
98 2 4.03034 95.3188 1.33052
99 2 8.0954 95.4085 1.38349
100 2 11.9824 95.4886 1.4876
101 2 0.276947 99.3056 1.31577
102 2 4.07983 99.2132 1.54455
103 2 7.97649 99.3955 1.34653
104 2 11.9981 99.2266 1.52951
105 2 0.138922 103.206 1.25366
106 2 4.30375 103.154 1.21297
107 2 8.17 103.186 1.3013
108 2 12.0147 103.114 1.22535
109 2 0.0330703 107.008 1.38798
110 2 4.09082 106.999 1.17958
111 2 8.09539 106.956 1.22751
112 2 12.0502 107.063 1.2195
113 2 0.280618 110.99 1.2217
114 2 3.98923 110.886 1.28256
115 2 8.1596 111.034 1.22141
116 2 11.9966 110.972 1.19095
117 2 16.0832 114.696 1.19681
118 2 4.13813 114.926 1.07618
119 2 7.82622 114.954 1.09525
120 2 11.9253 115.168 0.977422
121 2 0.0615907 118.677 1.09581
122 2 4.06048 118.775 1.07954
123 2 8.04517 118.654 1.08171
124 2 11.9349 118.875 1.12169
125 2 15.9268 122.783 1.1931
126 2 4.04025 122.714 1.13512
127 2 8.08504 122.55 0.998483
128 2 12.1129 122.744 1.06965
129 2 0.189934 126.603 0.998842
130 2 4.16608 126.794 0.802707
131 2 7.8997 126.572 1.06502
132 2 11.8726 126.868 0.91027
133 2 15.7846 130.536 0.754812
134 2 4.02078 130.555 0.817101
135 2 7.81203 130.346 0.973038
136 2 11.8942 130.688 0.915671
137 2 15.8705 134.609 1.04054
138 2 4.02739 134.576 0.866514
139 2 8.14742 134.304 160.099
140 2 12.1631 134.439 0.809628
141 2 0.152645 138.397 0.96297
142 2 3.82106 138.389 160.204
143 2 7.87689 138.414 160.278
144 2 11.8327 138.416 1.0488
145 2 15.6322 142.175 159.998
146 2 4.02238 142.312 160.029
147 2 7.86578 142.21 160.028
148 2 11.8536 142.443 160.091
149 2 0.265196 146.216 160.079
150 2 3.98122 146.238 160.237
151 2 8.00359 146.164 160.141
152 2 11.782 146.322 159.967
153 2 15.8923 150.06 159.961
154 2 3.93643 150.126 160.124
155 2 7.97482 150.203 159.859
156 2 11.9883 150.048 0.901904
157 2 15.774 154.198 160.094
158 2 3.93426 154.049 159.997
159 2 8.03185 153.958 159.809
160 2 11.9223 154.106 160.174
161 2 15.7756 158.118 4.76641
162 2 3.75525 157.903 4.69827
163 2 7.90979 157.944 4.57236
164 2 11.7929 158.061 4.64291
165 2 -0.00797453 3.66275 4.70349
166 2 3.84417 3.47898 4.49127
167 2 7.66404 3.64201 4.75078
168 2 11.8061 3.49015 4.68514
169 2 -0.0398194 7.50962 4.76549
170 2 3.90373 7.68444 4.49
171 2 7.88128 7.55055 4.85317
172 2 11.8975 7.51043 4.72516
173 2 0.14542 11.5759 4.69118
174 2 3.96123 11.5019 4.5326
175 2 8.25189 11.4247 4.60668
176 2 12.1463 11.3533 4.47593
177 2 15.9675 15.3317 4.42814
178 2 4.14757 15.1844 4.43818
179 2 8.25088 15.2754 4.41741
180 2 12.0941 15.2633 4.43142
181 2 -0.0180546 19.2627 4.48038
182 2 3.83111 19.0534 4.54779
183 2 7.9612 19.1667 4.43325
184 2 11.6929 19.0265 4.61239
185 2 0.0670852 23.4464 4.36298
186 2 3.89697 23.04 4.57535
187 2 7.7391 23.2955 4.47654
188 2 11.7383 23.2308 4.42402
189 2 15.8265 27.1036 4.4857
190 2 4.02709 27.0618 4.60392
191 2 7.973 27.1529 4.64425
192 2 12.0413 27.1408 4.53247
193 2 0.0824417 31.2023 4.39518
194 2 3.89345 31.0352 4.51925
195 2 7.96318 31.0316 4.49828
196 2 11.9893 31.1193 4.60517
197 2 0.051549 35.1951 4.74689
198 2 3.96255 35.1613 4.70149
199 2 8.03609 35.0911 4.72777
200 2 12.0895 35.149 4.61143
201 2 15.8688 39.1466 4.74127
202 2 3.88916 39.1588 4.78878
203 2 8.139 39.1804 4.67647
204 2 11.9371 39.2018 4.56494
205 2 0.0398697 43.1833 4.76673
206 2 4.09894 43.2615 4.77083
207 2 7.99133 42.9564 4.76141
208 2 12.0066 43.0594 4.6991
209 2 -0.162483 47.1355 4.58375
210 2 3.80937 47.0156 4.82493
211 2 7.82224 47.0538 4.81744
212 2 11.756 47.1586 4.9004
213 2 -0.0479074 51.2978 4.88459
214 2 3.93146 51.1201 4.85214
215 2 8.00031 51.0886 4.80455
216 2 11.7733 51.2524 4.91246
217 2 0.139448 55.0696 4.84367
218 2 3.97358 55.2226 4.95159
219 2 7.91326 55.0695 4.87732
220 2 11.8116 55.1814 4.97917
221 2 15.9111 59.3267 4.91138
222 2 3.97955 59.2295 5.06307
223 2 7.80218 59.3136 5.03989
224 2 11.8657 59.1906 5.00596
225 2 -0.0325648 63.2822 5.04197
226 2 3.90143 63.286 4.96968
227 2 7.95823 63.2966 5.06223
228 2 11.8665 63.2804 5.04101
229 2 15.9399 67.2513 4.98231
230 2 4.06965 67.2828 5.19457
231 2 7.79827 67.3846 5.14573
232 2 11.6971 67.3087 5.18565
233 2 15.7426 71.3522 5.12183
234 2 3.99016 71.4108 5.28303
235 2 8.08164 71.4849 5.18891
236 2 11.9319 71.1908 5.37795
237 2 15.8947 75.5669 5.22925
238 2 3.93854 75.4247 5.29687
239 2 7.82441 75.5271 5.44174
240 2 11.9601 75.675 5.5669
241 2 -0.0236598 79.5734 5.21697
242 2 3.85735 79.4692 5.48326
243 2 7.9712 79.4196 5.4119
244 2 11.745 79.5584 5.45592
245 2 15.877 83.5056 5.3793
246 2 4.02537 83.4008 5.39372
247 2 8.02189 83.4493 5.47787
248 2 11.9663 83.7894 5.59427
249 2 0.0917216 87.5188 5.48633
250 2 3.93342 87.4825 5.51426
251 2 7.77717 87.5037 5.62409
252 2 11.8334 87.6065 5.59199
253 2 0.20901 91.347 5.29063
254 2 3.91855 91.4186 5.44502
255 2 7.83975 91.3559 5.68159
256 2 11.9362 91.3753 5.4929
257 2 15.8455 95.2079 5.38664
258 2 4.30022 95.2102 5.43711
259 2 7.9126 95.2339 5.37182
260 2 12.0307 95.3322 5.45913
261 2 0.13259 99.2595 5.61735
262 2 4.01459 99.146 5.50722
263 2 7.8748 99.2819 5.4054
264 2 11.8292 99.1562 5.54711
265 2 0.0515798 103.136 5.44322
266 2 4.03032 103.16 5.24822
267 2 8.00437 103.165 5.37612
268 2 12.0439 103.037 5.30813
269 2 16.0132 107.031 5.21909
270 2 4.08161 107.362 5.19779
271 2 8.1409 107.071 5.24791
272 2 12.0246 107.113 5.23268
273 2 15.8855 110.863 5.25277
274 2 4.23238 111.038 5.20663
275 2 7.92288 110.867 5.20454
276 2 12.0559 111.047 5.21116
277 2 0.119825 114.799 5.2495
278 2 3.98762 115.142 5.00195
279 2 8.11405 114.79 5.12775
280 2 12.0574 114.835 5.12868
281 2 0.0138379 118.8 5.15535
282 2 3.9474 118.773 5.08719
283 2 7.96914 118.893 5.23469
284 2 11.8997 118.863 5.07882
285 2 15.7858 122.643 5.19871
286 2 4.18757 122.687 4.98873
287 2 8.19167 122.756 4.88011
288 2 12.0813 122.721 5.02631
289 2 -0.0764903 126.633 4.94301
290 2 4.05309 126.614 5.01382
291 2 7.86751 126.574 5.07047
292 2 11.7514 126.685 5.14125
293 2 -0.00692074 130.382 4.79647
294 2 4.07894 130.542 4.8804
295 2 8.04297 130.553 4.96895
296 2 12.0358 130.501 4.85685
297 2 15.907 134.521 4.96941
298 2 4.07656 134.466 4.95542
299 2 7.95175 134.466 4.92506
300 2 11.8207 134.428 4.98294
301 2 0.228743 138.591 4.76554
302 2 4.01035 138.496 4.98731
303 2 7.92978 138.39 4.78053
304 2 11.6407 138.287 5.13885
305 2 -0.0270619 142.256 4.88552
306 2 3.95521 142.322 4.91983
307 2 8.01552 142.377 4.83881
308 2 11.9717 142.194 4.94082
309 2 15.7059 145.967 4.75822
310 2 3.99705 146.079 4.79966
311 2 8.12998 146.212 4.89681
312 2 11.955 146.221 4.84121
313 2 15.7306 150.149 4.86079
314 2 4.22063 149.817 4.8041
315 2 8.09664 150.217 4.89009
316 2 11.8844 150.113 4.82182
317 2 15.9361 154.028 4.63982
318 2 4.04078 154.109 4.60236
319 2 8.13384 154.12 4.50225
320 2 11.9253 154.129 4.8706
321 2 15.8664 158.029 8.66997
322 2 3.88578 158.01 8.71631
323 2 8.05979 157.956 8.6561
324 2 11.9605 158.153 8.7294
325 2 15.8557 3.85348 8.73697
326 2 3.80899 3.55277 8.7042
327 2 7.81484 3.57182 8.63346
328 2 11.759 3.76724 8.62078
329 2 15.7209 7.66895 8.72885
330 2 3.77484 7.37261 8.64154
331 2 7.7663 7.49653 8.67667
332 2 11.7935 7.67026 8.5559
333 2 0.127933 11.2428 8.61279
334 2 3.91441 11.3369 8.5939
335 2 7.79289 11.4259 8.54069
336 2 11.7527 11.4492 8.61557
337 2 15.9912 15.3717 8.53488
338 2 3.90743 15.3663 8.70386
339 2 7.75817 15.3907 8.55181
340 2 11.9779 15.2263 8.39879
341 2 -0.102194 19.1904 8.50204
342 2 3.865 19.2978 8.62433
343 2 7.86393 19.0217 8.63084
344 2 11.9651 19.2309 8.56825
345 2 -0.100974 23.2473 8.41288
346 2 3.75808 23.2044 8.45502
347 2 7.88996 23.1454 8.59618
348 2 11.8145 23.2369 8.62049
349 2 0.126722 27.2781 8.44877
350 2 4.0611 27.0055 8.38221
351 2 8.11266 27.1156 8.53346
352 2 11.8947 27.1191 8.31835
353 2 -0.168689 31.1668 8.52591
354 2 3.88296 31.0704 8.42959
355 2 7.81401 31.1108 8.44194
356 2 11.9254 31.2282 8.64093
357 2 15.8407 35.1232 8.66701
358 2 4.01758 35.0401 8.56167
359 2 8.13728 35.0573 8.37611
360 2 12.0631 35.1311 8.45852
361 2 0.151588 39.0672 8.54066
362 2 4.02499 39.2328 8.64721
363 2 7.94917 39.1083 8.59437
364 2 11.9779 39.0601 8.61051
365 2 -0.00649109 43.0367 8.75955
366 2 3.8127 43.036 8.87183
367 2 8.05199 43.2047 8.49864
368 2 12.0284 43.0912 8.63417
369 2 -0.202285 47.0244 8.64255
370 2 4.12777 47.1245 8.74725
371 2 7.96613 47.063 8.65597
372 2 11.8677 47.0115 8.72934
373 2 15.6648 51.1977 8.85023
374 2 3.83557 51.0844 8.73267
375 2 7.84626 51.1938 8.76082
376 2 11.9378 51.0459 8.84966
377 2 15.7815 55.2186 8.83832
378 2 4.10107 55.158 8.79359
379 2 7.97293 54.9849 8.83927
380 2 11.795 55.1941 8.73792
381 2 0.112554 59.1485 8.7531
382 2 4.09074 59.2568 8.91136
383 2 7.86083 59.1958 8.97099
384 2 11.824 59.0948 8.90542
385 2 -0.124757 63.3473 8.95313
386 2 3.63142 63.356 9.07334
387 2 7.86449 63.2518 8.96793
388 2 11.7718 63.149 8.89206
389 2 15.8598 67.3188 9.07008
390 2 3.97362 67.4161 8.98391
391 2 8.00944 67.1161 9.11445
392 2 11.9613 67.3259 8.95966
393 2 15.7503 71.1929 9.11437
394 2 3.91577 71.4584 8.98483
395 2 7.94953 71.2993 9.14571
396 2 11.8997 71.3298 9.1043
397 2 15.9048 75.3191 9.13971
398 2 3.9728 75.489 9.26787
399 2 7.86075 75.3852 9.2142
400 2 11.8361 75.2391 9.27973
401 2 15.8065 79.4097 9.33654
402 2 3.81938 79.4052 9.41506
403 2 8.03578 79.5457 9.34845
404 2 11.8014 79.4471 9.30429
405 2 0.0146518 83.2803 9.49388
406 2 4.15668 83.4383 9.21619
407 2 8.10241 83.2639 9.45977
408 2 11.9551 83.3561 9.34121
409 2 0.120812 87.5042 9.57554
410 2 4.10609 87.2632 9.38121
411 2 7.9978 87.4763 9.46732
412 2 11.9898 87.4601 9.34482
413 2 0.061802 91.4118 9.50927
414 2 3.90494 91.3174 9.65211
415 2 7.95499 91.5211 9.56803
416 2 11.9629 91.3259 9.55608
417 2 15.7308 95.1754 9.36559
418 2 3.93669 95.2975 9.41326
419 2 8.03421 95.4154 9.49837
420 2 11.9169 95.1831 9.46816
421 2 15.6167 99.2887 9.4184
422 2 3.81492 99.2093 9.27758
423 2 8.06715 99.2372 9.34701
424 2 11.8303 99.3698 9.44044
425 2 0.0896639 103.147 9.38104
426 2 3.96881 103.284 9.27932
427 2 7.92185 103.049 9.39574
428 2 11.8575 103.379 9.38727
429 2 -0.0363973 107.218 9.21285
430 2 4.19574 107.016 9.34495
431 2 8.02423 107.072 9.11308
432 2 11.7895 107.342 9.13206
433 2 15.9974 110.964 9.27689
434 2 4.18062 111.256 9.15765
435 2 8.00039 110.904 9.32827
436 2 11.9475 110.923 9.23955
437 2 0.275526 114.96 9.18186
438 2 4.04664 114.855 9.16027
439 2 7.76171 114.955 9.27452
440 2 11.9093 114.79 9.20628
441 2 0.0292315 118.928 9.12116
442 2 3.85494 118.823 9.11515
443 2 7.90603 118.785 9.20996
444 2 11.9886 118.865 9.28718
445 2 16.0275 122.858 9.07635
446 2 4.14345 122.813 9.05402
447 2 8.08751 122.669 9.07588
448 2 12.017 122.697 9.06005
449 2 15.777 126.654 8.9284
450 2 3.94096 126.682 9.02396
451 2 7.8436 126.798 9.0487
452 2 12.0049 126.523 9.20042
453 2 0.137792 130.535 9.06917
454 2 4.02112 130.693 8.94606
455 2 7.87988 130.694 9.12209
456 2 11.9808 130.537 8.90822
457 2 -0.0644392 134.488 9.02336
458 2 3.82181 134.624 8.89405
459 2 7.80309 134.603 9.05294
460 2 12.0276 134.519 8.98964
461 2 -0.238717 138.287 8.93604
462 2 4.05881 138.551 9.07255
463 2 7.97708 138.628 8.90942
464 2 11.8999 138.242 8.90535
465 2 0.0602973 142.221 8.88799
466 2 3.91889 142.226 8.96842
467 2 7.8341 142.5 9.03002
468 2 11.7848 142.442 9.06456
469 2 15.8861 146.175 8.857
470 2 4.10296 146.209 8.8323
471 2 8.11062 146.282 8.88717
472 2 11.9807 146.282 8.91976
473 2 16.1084 150.11 8.71229
474 2 4.06076 150.16 8.78321
475 2 7.93766 150.28 8.74153
476 2 11.9855 150.256 8.80471
477 2 15.9573 153.978 8.68562
478 2 4.10333 154.129 8.67788
479 2 8.16096 154.151 8.6211
480 2 12.0278 154.107 8.96146
481 2 15.9768 158.139 12.7711
482 2 4.14863 157.978 12.7855
483 2 8.17529 158.077 12.8142
484 2 12.052 158.101 12.6892
485 2 15.9065 3.53839 12.7872
486 2 4.20432 3.74091 12.8089
487 2 8.0202 3.59935 12.4935
488 2 11.7714 3.77211 12.7155
489 2 15.8999 7.53674 12.7632
490 2 4.0027 7.57219 12.7607
491 2 7.95443 7.47813 12.6635
492 2 11.9541 7.44531 12.5969
493 2 -0.0870056 11.5753 12.5257
494 2 3.75554 11.416 12.6533
495 2 7.85115 11.3386 12.5554
496 2 11.9205 11.335 12.5632
497 2 -0.0304504 15.2263 12.7337
498 2 3.99078 15.2122 12.7416
499 2 7.82331 15.3498 12.6092
500 2 12.1105 15.3152 12.7659
501 2 -0.176609 19.0929 12.6179
502 2 3.91785 19.4777 12.656
503 2 7.93746 19.2084 12.6852
504 2 11.8224 19.2784 12.652
505 2 -0.0330951 23.2404 12.5958
506 2 3.75528 23.2537 12.3952
507 2 7.82102 23.1043 12.6522
508 2 11.6645 22.8948 12.4031
509 2 -0.187867 27.1706 12.4536
510 2 3.98273 26.9233 12.2689
511 2 7.81403 26.9362 12.5484
512 2 11.6529 27.1734 12.5144
513 2 -0.0518789 30.9783 12.3078
514 2 3.87071 30.921 12.5953
515 2 7.88748 31.003 12.5767
516 2 11.7703 31.0095 12.6214
517 2 0.0577629 34.8956 12.515
518 2 3.98346 34.9758 12.4228
519 2 7.95467 35.0262 12.4299
520 2 11.9833 34.9663 12.5212
521 2 0.105734 38.9626 12.41
522 2 4.01006 39.1564 12.6502
523 2 8.08455 39.1159 12.6074
524 2 11.7354 39.0059 12.4729
525 2 -0.0152977 43.0845 12.7454
526 2 4.0725 43.0459 12.7338
527 2 8.08709 43.1554 12.5673
528 2 11.8495 43.1727 12.4882
529 2 0.0402633 46.9805 12.631
530 2 3.91025 46.8369 12.6141
531 2 8.00819 47.0545 12.4436
532 2 11.9793 47.129 12.7113
533 2 -0.0184593 51.1459 12.5273
534 2 3.92738 51.0225 12.6098
535 2 7.88202 51.0034 12.725
536 2 11.8902 51.1383 12.5291
537 2 15.8274 55.3076 12.9007
538 2 4.08815 55.0342 12.7907
539 2 7.83304 55.022 12.7292
540 2 11.7932 55.1534 12.794
541 2 15.9711 59.016 12.6987
542 2 4.05858 59.0714 12.7724
543 2 7.96787 59.0316 12.856
544 2 12.1482 59.1341 12.6879
545 2 15.7157 63.1702 12.8971
546 2 3.94633 63.2752 12.8409
547 2 7.89497 63.0919 12.8689
548 2 11.9463 63.3796 12.9905
549 2 0.0637377 67.318 13.0299
550 2 3.90017 67.2768 13.0399
551 2 7.86258 67.0918 12.9159
552 2 11.7909 67.344 12.8105
553 2 0.0753505 71.2962 12.9786
554 2 3.96558 71.1155 12.9527
555 2 8.01228 71.2185 12.9069
556 2 11.9441 71.2066 12.9738
557 2 0.113452 75.2119 13.0995
558 2 3.89321 75.3213 13.1618
559 2 7.92436 75.3228 13.1401
560 2 11.7935 75.3066 12.97
561 2 -0.0388679 79.5272 13.246
562 2 3.88469 79.3159 13.3027
563 2 7.94026 79.4084 13.2906
564 2 12.0776 79.4679 13.3139
565 2 -0.139027 83.4819 13.3817
566 2 3.82956 83.3527 13.1957
567 2 7.79573 83.3948 13.2484
568 2 11.7116 83.3897 13.2738
569 2 0.112635 87.2988 13.2167
570 2 4.02047 87.3823 13.2126
571 2 8.13943 87.3583 13.2396
572 2 11.9635 87.2621 13.3711
573 2 -0.0374878 91.3297 13.3422
574 2 4.01877 91.3706 13.5149
575 2 8.07192 91.277 13.3353
576 2 11.865 91.3602 13.5557
577 2 0.0678442 95.392 13.5434
578 2 3.98724 95.3494 13.5195
579 2 8.00808 95.3332 13.4518
580 2 11.9931 95.5669 13.4748
581 2 0.0542824 99.3547 13.4681
582 2 3.96474 99.0457 13.4905
583 2 7.84096 99.281 13.5269
584 2 12.0101 99.2268 13.4498
585 2 0.0883092 102.933 13.3412
586 2 4.10962 103.257 13.512
587 2 7.87272 102.955 13.3533
588 2 11.6655 103.132 13.2437
589 2 -0.0481597 106.966 13.1342
590 2 3.78952 106.898 13.1795
591 2 7.8137 107.172 13.2504
592 2 11.9121 106.999 13.277
593 2 -0.0360508 111.105 13.2327
594 2 4.01651 110.991 13.1783
595 2 7.94886 110.937 13.146
596 2 11.9946 111.198 13.2306
597 2 0.00708607 115.089 13.3072
598 2 3.96549 114.914 13.2432
599 2 7.93579 114.871 13.258
600 2 11.9333 114.929 13.1224
601 2 -0.00537794 118.84 13.0197
602 2 4.1141 118.828 13.1067
603 2 7.91006 118.848 13.0772
604 2 12.038 118.838 13.2664
605 2 0.0315443 122.68 13.0707
606 2 4.08414 122.613 13.0751
607 2 7.96602 122.87 13.1035
608 2 11.8077 122.867 13.2057
609 2 0.141601 126.531 12.7942
610 2 3.89781 126.708 13.1274
611 2 7.88614 126.895 13.038
612 2 11.7149 126.799 13.1386
613 2 15.8992 130.425 13.1269
614 2 4.0449 130.578 13.0811
615 2 7.87443 130.575 12.8676
616 2 11.8891 130.716 13.1046
617 2 15.8385 134.471 13.0577
618 2 4.01296 134.735 12.9733
619 2 7.94791 134.72 12.92
620 2 11.9777 134.465 12.6667
621 2 -0.156036 138.45 13.0717
622 2 3.96468 138.592 13.1065
623 2 8.13153 138.401 12.8491
624 2 11.9914 138.491 13.1059
625 2 15.9141 142.463 13.0349
626 2 3.92676 142.449 12.9164
627 2 7.7836 142.44 12.9452
628 2 11.9622 142.394 13.063
629 2 0.0578529 146.476 13.005
630 2 3.98713 146.388 12.833
631 2 8.09615 146.4 12.7268
632 2 11.8371 146.161 12.668
633 2 0.108271 150.187 12.8292
634 2 4.02752 150.367 12.9781
635 2 7.8814 150.24 12.8018
636 2 11.9749 150.215 12.6746
637 2 15.6579 153.987 12.7423
638 2 3.95212 154.227 12.8385
639 2 7.94989 154.155 12.7288
640 2 11.85 154.21 12.7302
641 2 0.0119258 158.134 16.7978
642 2 4.02729 -0.248509 16.8645
643 2 7.90018 158.062 16.8229
644 2 11.8342 158.022 16.9864
645 2 15.7147 3.50512 16.7413
646 2 3.89207 3.43514 16.7741
647 2 7.90608 3.72534 16.8894
648 2 11.878 3.39311 16.902
649 2 0.0195752 7.46158 16.7463
650 2 3.88813 7.56793 16.5092
651 2 7.94326 7.48156 16.6292
652 2 11.8997 7.65468 16.8263
653 2 0.130902 11.5175 16.7304
654 2 3.79572 11.516 16.7645
655 2 7.94795 11.3522 16.7311
656 2 11.889 11.3412 16.6639
657 2 -0.0206602 15.417 16.7902
658 2 3.89065 15.3788 16.7578
659 2 7.96013 15.1271 16.5474
660 2 11.8672 15.2622 16.8659
661 2 15.7708 19.2737 16.669
662 2 4.08328 19.2801 16.8138
663 2 7.77082 19.403 16.7122
664 2 11.801 19.2828 16.7259
665 2 -0.269173 23.1791 16.5491
666 2 3.91314 23.2296 16.6034
667 2 7.90934 23.3658 16.4291
668 2 11.7652 23.0325 16.5585
669 2 -0.0785808 27.0198 16.5791
670 2 3.99415 27.1564 16.5228
671 2 7.84853 26.8789 16.5071
672 2 11.6941 27.0395 16.6437
673 2 0.140858 30.9089 16.3537
674 2 4.00332 30.9263 16.3713
675 2 7.98857 31.2082 16.4087
676 2 11.9292 31.0841 16.5551
677 2 0.206223 34.9 16.37
678 2 3.96237 35.0306 16.2547
679 2 7.98756 34.9024 16.4565
680 2 12.0667 34.8158 16.4015
681 2 -0.115261 38.8745 16.4535
682 2 3.89286 38.8468 16.4475
683 2 8.04296 38.9533 16.6117
684 2 11.9571 38.7588 16.4431
685 2 -0.0913036 42.91 16.518
686 2 3.95196 42.8968 16.4709
687 2 7.9604 42.9178 16.5733
688 2 11.7883 42.9679 16.4192
689 2 15.8059 47.0148 16.5998
690 2 4.05586 46.8769 16.6144
691 2 7.86349 46.8652 16.5773
692 2 11.8394 46.9207 16.5847
693 2 0.0674162 50.9912 16.3591
694 2 3.76973 51.0913 16.4807
695 2 8.13703 51.1742 16.8008
696 2 11.8364 51.0842 16.6022
697 2 0.0839016 55.1272 16.6477
698 2 4.16517 54.9152 16.6161
699 2 7.92238 55.2741 16.7159
700 2 11.8482 55.187 16.5891
701 2 0.106801 59.1849 16.6336
702 2 3.9551 58.9604 16.7505
703 2 7.8764 59.1895 16.7116
704 2 11.8374 59.1818 16.8937
705 2 0.101672 63.2673 16.6465
706 2 3.91471 63.0797 16.7165
707 2 8.13385 63.0457 16.6275
708 2 12.1446 63.0894 16.6611
709 2 0.037949 67.135 16.939
710 2 3.84082 67.0598 17.0649
711 2 7.96141 67.0987 16.914
712 2 11.7778 67.234 16.9089
713 2 -0.0261852 71.2648 16.833
714 2 3.93976 71.1324 16.8634
715 2 7.97234 71.0428 16.884
716 2 11.8208 71.22 16.9527
717 2 -0.221198 75.1791 17.0293
718 2 3.92273 75.1621 17.1522
719 2 7.85264 75.1734 16.9729
720 2 11.853 75.2896 17.0031
721 2 0.0313612 79.2858 17.0633
722 2 3.9295 79.2463 16.9746
723 2 7.85099 79.2436 16.939
724 2 11.7628 79.2898 17.1914
725 2 0.0785479 83.4354 17.2373
726 2 3.85363 83.3791 17.1977
727 2 7.78882 83.2622 17.291
728 2 11.7703 83.3971 17.4422
729 2 0.00904025 87.3384 17.2467
730 2 3.9466 87.269 17.1365
731 2 7.87095 87.3483 17.211
732 2 11.8003 87.2729 17.1405
733 2 -0.000754875 91.277 17.36
734 2 3.97347 91.2018 17.3278
735 2 7.82169 91.3696 17.385
736 2 11.9485 91.3262 17.122
737 2 0.0347139 95.274 17.3906
738 2 3.98352 95.5389 17.6109
739 2 7.86867 95.2959 17.401
740 2 11.7576 95.3768 17.6614
741 2 -0.213699 99.4143 17.3553
742 2 3.84799 99.2898 17.4873
743 2 7.8961 99.3254 17.5311
744 2 11.7681 99.4252 17.6539
745 2 0.1574 103.087 17.3152
746 2 4.0582 103.325 17.4319
747 2 7.95414 103.37 17.4138
748 2 11.7958 103.352 17.3041
749 2 0.00961183 107.179 17.3474
750 2 3.96128 107.071 17.2558
751 2 8.07378 107.319 17.4482
752 2 12.0861 107.207 17.2687
753 2 0.0493998 111.119 17.2906
754 2 3.92271 110.859 17.2923
755 2 7.84157 111.151 17.3205
756 2 11.8379 111.045 17.1995
757 2 -0.0456024 114.901 17.3296
758 2 3.82972 114.895 17.3041
759 2 7.73419 115.027 17.3572
760 2 11.7901 115.046 17.3788
761 2 0.227486 118.836 17.0812
762 2 4.14516 118.949 17.2084
763 2 8.11959 118.883 16.996
764 2 12.0023 119.005 17.155
765 2 0.257951 122.776 17.0278
766 2 3.89767 122.832 17.1701
767 2 7.86787 123.035 17.0362
768 2 12.1902 122.933 17.0521
769 2 16.2055 126.654 17.0245
770 2 4.10073 126.681 17.1621
771 2 8.07418 126.808 17.0547
772 2 12.0659 126.711 16.8795
773 2 16.0165 130.606 17.1795
774 2 4.0467 130.822 17.1402
775 2 8.04288 130.571 17.0001
776 2 11.8668 130.942 16.876
777 2 15.9335 134.576 17.1305
778 2 4.0623 134.623 17.0884
779 2 7.8119 134.589 17.0229
780 2 11.9281 134.577 17.0543
781 2 0.252366 138.556 16.8875
782 2 4.02167 138.487 17.1832
783 2 7.86419 138.369 16.864
784 2 11.969 138.384 16.9399
785 2 15.9243 142.378 17.0091
786 2 3.99745 142.345 16.9618
787 2 7.95377 142.322 16.8952
788 2 12.0881 142.428 16.9867
789 2 15.8867 146.366 16.9963
790 2 4.11699 146.435 16.8922
791 2 8.09637 146.359 16.9085
792 2 11.8511 146.333 16.819
793 2 15.8479 150.146 16.8894
794 2 4.0659 150.315 16.8926
795 2 8.18378 150.211 16.6677
796 2 12.0441 150.219 16.8962
797 2 15.9939 154.242 16.8256
798 2 3.9808 154.136 16.8613
799 2 8.11328 154.095 16.8429
800 2 11.9511 154.104 16.9091
801 2 15.6805 158.037 20.751
802 2 3.83825 157.891 20.8001
803 2 7.64711 158.182 20.8793
804 2 11.8566 158.122 20.962
805 2 -0.0546567 3.67449 20.933
806 2 3.83326 3.65811 20.7971
807 2 7.76077 3.78317 20.8758
808 2 11.984 3.72615 20.8833
809 2 15.8313 7.65088 20.7377
810 2 4.016 7.45116 20.6485
811 2 7.85389 7.40093 20.6685
812 2 11.9574 7.70686 20.8326
813 2 15.9377 11.493 20.9196
814 2 4.06098 11.2775 20.6946
815 2 7.90321 11.6126 20.7628
816 2 11.9021 11.4491 20.7296
817 2 15.633 15.4419 20.7133
818 2 4.04417 15.4703 20.7791
819 2 7.80018 15.44 20.6625
820 2 11.9587 15.4577 20.7522
821 2 0.0459279 19.4047 20.7555
822 2 3.8624 19.1425 20.7823
823 2 7.87684 19.3824 20.6785
824 2 11.8949 19.3341 20.8223
825 2 0.122294 23.2194 20.657
826 2 4.0718 23.2724 20.5793
827 2 8.01984 23.3315 20.4975
828 2 11.9641 23.2738 20.6246
829 2 15.8967 27.2575 20.5807
830 2 4.03079 27.1552 20.5161
831 2 7.84245 27.1801 20.7926
832 2 11.8366 27.2347 20.6343
833 2 15.7637 31.1301 20.616
834 2 3.97822 30.8636 20.3252
835 2 8.01021 30.983 20.4721
836 2 11.7986 30.992 20.6253
837 2 15.6977 34.7202 20.3027
838 2 3.93738 34.768 20.3908
839 2 7.72073 34.9501 20.5112
840 2 11.8152 35.0097 20.5628
841 2 0.0697378 38.687 20.4481
842 2 3.80968 38.9185 20.3115
843 2 7.76577 39.0147 20.2524
844 2 11.6162 38.9307 20.4113
845 2 15.9148 42.9837 20.379
846 2 3.9713 42.8132 20.4649
847 2 7.96544 42.8996 20.3556
848 2 12.1068 42.8394 20.3699
849 2 15.8671 47.0003 20.5343
850 2 4.03821 46.8366 20.5021
851 2 8.03321 47.0154 20.65
852 2 11.7665 47.0249 20.2827
853 2 -0.104445 50.9096 20.4896
854 2 3.85338 50.85 20.3742
855 2 7.79847 50.8733 20.5358
856 2 11.7743 50.9619 20.5556
857 2 0.00454825 55.0097 20.4918
858 2 3.81101 55.1275 20.5785
859 2 7.86843 54.9886 20.8195
860 2 11.7411 54.9724 20.6952
861 2 15.8014 59.1956 20.6664
862 2 3.83933 59.218 20.5407
863 2 8.01196 58.9754 20.7913
864 2 11.9047 59.2562 20.5771
865 2 15.8928 63.1131 20.7531
866 2 4.09859 63.287 20.6094
867 2 7.94838 62.9001 20.7872
868 2 11.643 63.1806 20.7506
869 2 -0.057421 67.1053 20.6352
870 2 3.81456 67.1002 20.7355
871 2 7.98532 66.9049 20.6841
872 2 11.7061 66.9922 20.6097
873 2 -0.212113 71.0733 20.9268
874 2 3.88533 71.1541 20.8179
875 2 7.82476 71.1155 20.8334
876 2 11.7856 71.2136 20.7861
877 2 -0.0151783 75.1073 20.8811
878 2 3.90621 75.0731 20.9735
879 2 7.85585 75.1282 21.0162
880 2 11.8148 75.2561 20.9968
881 2 -0.124841 79.0786 20.9526
882 2 3.78986 79.1913 20.9535
883 2 7.76753 78.9406 20.9124
884 2 11.8819 79.0003 21.0649
885 2 0.0161033 83.1884 21.2044
886 2 4.05142 83.2437 21.0176
887 2 7.98972 83.1766 21.063
888 2 12.0684 83.2493 21.2493
889 2 0.0325093 87.2121 21.1383
890 2 3.92529 87.262 21.2865
891 2 7.98729 87.4161 21.1655
892 2 11.9464 87.2015 20.8936
893 2 -0.0472507 91.2638 21.3127
894 2 4.03241 91.2189 21.3017
895 2 7.77939 91.1788 21.0932
896 2 11.8429 91.3908 21.1772
897 2 -0.0532996 95.2729 21.1585
898 2 3.76659 95.3971 21.3965
899 2 7.92735 95.2227 21.3491
900 2 11.8837 95.3787 21.3587
901 2 -0.0257156 99.2354 21.1922
902 2 3.94015 99.4258 21.3976
903 2 8.12301 99.3602 21.455
904 2 11.879 99.5197 21.2857
905 2 0.143963 103.387 21.3531
906 2 3.90358 103.286 21.4892
907 2 8.0199 103.312 21.4575
908 2 12.0084 103.361 21.3248
909 2 -0.00276382 107.297 21.3432
910 2 4.109 107.265 21.3154
911 2 8.07749 107.123 21.4083
912 2 11.9673 107.293 21.2031
913 2 0.105274 111.258 21.2009
914 2 4.07247 111.083 21.3809
915 2 7.94603 111.15 21.3518
916 2 11.8301 111.198 21.3798
917 2 15.974 115.086 21.2314
918 2 4.17469 115.07 21.1282
919 2 8.00815 114.996 21.3784
920 2 11.8789 115.105 21.3566
921 2 0.212223 119.08 21.0763
922 2 4.15959 118.927 21.1225
923 2 8.00937 119.125 21.2504
924 2 11.9682 119.089 21.0336
925 2 15.9726 122.802 21.0706
926 2 3.93414 122.897 21.0611
927 2 7.9637 122.917 21.1145
928 2 11.9868 123.066 21.1312
929 2 16.0029 126.872 21.1092
930 2 4.03733 126.881 21.1904
931 2 8.15213 126.823 21.0368
932 2 11.9791 126.886 21.0333
933 2 15.9753 130.691 21.2304
934 2 4.17772 130.676 21.263
935 2 7.96175 130.611 21.1854
936 2 11.8353 130.815 21.1273
937 2 0.0347236 134.698 21.1495
938 2 3.89166 134.6 21.161
939 2 7.89578 134.737 20.9789
940 2 11.8294 134.427 20.9486
941 2 15.6355 138.51 20.9696
942 2 3.90384 138.45 21.0884
943 2 7.98524 138.628 21.0239
944 2 11.834 138.504 20.9762
945 2 15.8184 142.533 20.9089
946 2 4.02771 142.492 20.9642
947 2 7.89992 142.404 20.8967
948 2 11.7939 142.374 20.936
949 2 15.9372 146.392 20.9191
950 2 4.04423 146.332 20.9516
951 2 8.05714 146.387 21.0554
952 2 11.8335 146.36 21.0152
953 2 15.7482 150.219 20.9706
954 2 4.18623 150.353 20.9096
955 2 7.97563 150.363 20.954
956 2 11.9063 150.227 20.8599
957 2 15.7954 154.135 20.9538
958 2 3.91626 154.022 20.7781
959 2 7.7838 154.125 20.9736
960 2 11.8149 154.328 20.7395
961 2 0.156241 158.018 24.6606
962 2 4.0186 158.171 24.926
963 2 7.7454 158.156 24.7785
964 2 11.6943 158.037 24.8656
965 2 15.8465 3.67541 24.7495
966 2 3.80348 3.69971 24.6818
967 2 7.93402 3.72124 24.8595
968 2 11.7561 3.65549 24.8456
969 2 15.9858 7.58495 24.828
970 2 3.9051 7.69302 24.9007
971 2 7.82897 7.46407 24.8386
972 2 11.7609 7.71188 24.7854
973 2 15.6993 11.5843 24.7444
974 2 3.89848 11.4738 24.7438
975 2 7.88801 11.5768 24.8281
976 2 11.8525 11.4251 24.7436
977 2 -0.00636719 15.2085 24.7734
978 2 3.84324 15.5779 24.6089
979 2 7.86532 15.2572 24.5555
980 2 11.9682 15.5511 24.7316
981 2 0.165511 19.4082 24.7796
982 2 3.9999 19.3313 24.7798
983 2 7.99578 19.5295 24.8467
984 2 11.8223 19.3693 24.641
985 2 0.0143447 23.2054 24.6238
986 2 4.0161 23.1615 24.5517
987 2 8.09752 23.3068 24.6342
988 2 12.1058 23.2727 24.5528
989 2 0.0521908 26.9955 24.471
990 2 4.0348 27.1736 24.703
991 2 7.98873 27.1349 24.7082
992 2 11.9425 27.2426 24.5562