ITEM: TIMESTEP
19500
ITEM: NUMBER OF ATOMS
32000
ITEM: BOX BOUNDS xy xz yz pp pp pp
0.0000000000000000e+00 1.5832000000000001e+01 0.0000000000000000e+00
0.0000000000000000e+00 1.5831999999999999e+02 0.0000000000000000e+00
8.3409404319878888e-01 1.6014302395679800e+02 0.0000000000000000e+00
ITEM: ATOMS id type x y z
1 2 15.6737 158.01 159.987
2 2 4.08574 157.947 159.976
3 2 7.86377 158.102 159.935
4 2 11.921 158.162 159.99
5 2 0.201768 3.62456 159.912
6 2 4.04622 3.56906 159.881
7 2 7.7651 3.56923 159.921
8 2 11.7336 3.56947 159.897
9 2 15.8485 7.4627 159.871
10 2 4.10307 7.60333 159.735
11 2 7.96665 7.42908 159.798
12 2 11.8723 7.26252 159.811
13 2 15.8778 11.3755 159.837
14 2 4.03429 11.2867 159.709
15 2 8.0407 11.1948 159.855
16 2 11.9476 11.0339 159.702
17 2 0.250375 15.1568 159.765
18 2 4.17289 15.2499 159.68
19 2 8.05098 15.1209 159.638
20 2 11.9363 15.2052 159.77
21 2 15.7593 19.276 160.011
22 2 3.69874 19.1282 159.941
23 2 7.93258 19.1373 159.969
24 2 11.8758 19.0616 159.841
25 2 15.738 23.108 159.847
26 2 4.02207 23.3098 159.895
27 2 7.95982 23.1946 160.004
28 2 11.8887 23.2627 159.683
29 2 15.9469 27.0838 159.696
30 2 3.87546 27.0554 159.846
31 2 8.06454 27.0428 159.826
32 2 11.9103 27.1095 159.766
33 2 15.8445 31.4283 159.893
34 2 4.04923 31.3708 0.806554
35 2 7.85172 31.1878 159.813
36 2 11.7672 31.2555 159.905
37 2 0.00946056 35.0864 159.908
38 2 3.84207 35.2329 160.149
39 2 7.86465 35.2863 160.087
40 2 11.8693 35.3178 159.909
41 2 -0.0232317 39.1529 159.9
42 2 3.94024 39.2117 0.801318
43 2 7.89652 39.0628 0.751244
44 2 11.7542 39.2927 0.897532
45 2 -0.0570403 43.2658 159.904
46 2 3.95706 43.1728 159.881
47 2 7.72631 43.1406 0.678698
48 2 11.8864 43.316 0.599017
49 2 -0.0579449 47.2651 0.971624
50 2 4.06573 47.1156 0.952986
51 2 7.853 47.293 0.79905
52 2 11.8683 47.3895 0.65836
53 2 0.0560576 51.2513 0.781177
54 2 3.71667 51.3028 0.807023
55 2 7.79035 51.1595 0.728991
56 2 11.8549 51.119 0.848957
57 2 15.89 55.3073 0.924683
58 2 3.86519 55.492 0.834934
59 2 7.86002 55.2077 1.0063
60 2 11.8149 55.2929 1.01356
61 2 -0.120524 59.2911 1.05137
62 2 3.90836 59.299 1.0107
63 2 7.84621 59.3417 0.987633
64 2 11.7721 59.4485 1.32121
65 2 -0.0987662 63.5568 1.15965
66 2 3.91883 63.2301 0.879717
67 2 7.72603 63.3749 0.931446
68 2 11.7785 63.4634 1.09683
69 2 15.8995 67.4598 1.30981
70 2 3.95173 67.3169 1.21118
71 2 7.87734 67.3963 1.29162
72 2 11.9432 67.2801 1.285
73 2 -0.110051 71.3501 1.19303
74 2 3.94625 71.4399 1.34667
75 2 7.86183 71.4676 1.27937
76 2 11.7997 71.6538 1.20103
77 2 -0.0367826 75.4607 1.28134
78 2 3.86317 75.5967 1.44272
79 2 7.96672 75.4222 1.46303
80 2 11.7727 75.5718 1.46216
81 2 -0.0254166 79.5219 1.4954
82 2 3.81247 79.6049 1.54191
83 2 7.74034 79.6458 1.5704
84 2 11.7211 79.6869 1.51424
85 2 -0.129645 83.476 1.49761
86 2 3.93793 83.5719 1.56969
87 2 7.95024 83.5534 1.53211
88 2 11.7953 83.5194 1.58679
89 2 0.164986 87.5496 1.44374
90 2 3.98699 87.493 1.54529
91 2 7.85589 87.4883 1.51355
92 2 11.8931 87.541 1.48204
93 2 -0.0585459 91.3774 1.46435
94 2 4.08214 91.1725 1.58259
95 2 7.83053 91.3736 1.44178
96 2 11.8729 91.5005 1.38323
97 2 15.845 95.1306 1.24123
98 2 4.04334 95.1211 1.41024
99 2 7.94104 95.1348 1.33599
100 2 11.8099 95.1581 1.39413
101 2 0.154352 99.1637 1.38652
102 2 3.89769 98.9765 1.18638
103 2 7.8524 99.0019 1.37516
104 2 12.1697 98.982 1.21359
105 2 0.158653 103.069 1.38851
106 2 3.9702 103.085 1.32935
107 2 8.02961 103.096 1.28421
108 2 11.9417 102.831 1.2502
109 2 0.14415 107.002 1.15032
110 2 4.15916 107.015 1.15599
111 2 8.24245 107.152 1.18021
112 2 12.1216 107.144 1.19944
113 2 -0.0285121 110.858 1.20153
114 2 4.24465 110.91 1.01317
115 2 8.09085 110.895 1.00444
116 2 11.9825 111.046 1.11296
117 2 15.8528 114.849 1.10996
118 2 3.96945 114.809 1.10545
119 2 8.1345 114.631 1.07429
120 2 11.9777 114.735 1.00153
121 2 0.103479 118.88 1.16148
122 2 4.06365 118.765 1.01248
123 2 8.04046 118.795 1.10932
124 2 12.0273 118.694 1.10136
125 2 15.8884 122.774 0.960337
126 2 4.07858 122.553 1.06334
127 2 8.04822 122.773 1.16073
128 2 12.0952 122.751 0.963302
129 2 0.0471257 126.579 0.972684
130 2 3.85352 126.397 1.17782
131 2 8.17517 126.489 0.885881
132 2 11.8832 126.741 0.899093
133 2 15.6371 130.768 1.0926
134 2 3.76455 130.575 1.13044
135 2 7.91713 130.577 0.924721
136 2 11.7432 130.633 0.982307
137 2 15.8086 134.469 0.846506
138 2 3.89904 134.414 0.922002
139 2 7.66213 134.42 160.301
140 2 11.4489 134.637 1.10688
141 2 -0.215134 138.317 0.859405
142 2 4.01468 138.439 160.157
143 2 7.81448 138.326 160.066
144 2 11.8731 138.326 0.761699
145 2 15.9234 142.297 160.247
146 2 3.92697 142.509 160.194
147 2 7.91371 142.334 160.307
148 2 11.9743 142.186 160.176
149 2 0.132595 146.184 159.946
150 2 4.21253 146.147 159.832
151 2 8.05698 146.157 159.949
152 2 12.0404 146.131 160.175
153 2 15.9444 150.254 160.259
154 2 4.13306 150.056 160.088
155 2 8.24798 150.03 160.064
156 2 12.0544 150.022 0.602925
157 2 15.9333 153.974 160.106
158 2 4.12551 153.989 160.119
159 2 8.05977 154.017 160.136
160 2 11.8527 153.859 159.807
161 2 15.8885 158.055 4.58194
162 2 3.9658 158.142 4.63156
163 2 7.82487 158.061 4.8743
164 2 12.0662 157.966 4.76375
165 2 -0.000227149 3.67826 4.63432
166 2 3.98974 3.73713 4.84383
167 2 8.02918 3.59591 4.65594
168 2 11.938 3.59033 4.78104
169 2 -0.0867846 7.57857 4.41126
170 2 3.907 7.46612 4.69205
171 2 7.89549 7.52173 4.53049
172 2 11.7334 7.56509 4.60312
173 2 0.0450135 11.3868 4.52595
174 2 4.12621 11.3258 4.46817
175 2 7.78907 11.4906 4.51271
176 2 11.9261 11.405 4.46461
177 2 15.8575 15.2086 4.64354
178 2 3.97578 15.3226 4.50639
179 2 7.81329 15.335 4.58746
180 2 11.8913 15.1701 4.61817
181 2 0.0296355 19.029 4.54471
182 2 4.12279 19.1766 4.36767
183 2 7.84622 19.1203 4.45729
184 2 12.0152 19.1759 4.35999
185 2 -0.0971559 23.0231 4.71049
186 2 3.96963 23.1982 4.57179
187 2 8.02812 23.043 4.6689
188 2 11.9282 23.0688 4.73921
189 2 15.7509 27.299 4.42929
190 2 3.8808 27.2034 4.61379
191 2 8.07041 27.068 4.45021
192 2 11.7796 27.1885 4.477
193 2 -0.0850188 31.07 4.54404
194 2 4.02293 31.1595 4.5832
195 2 7.80081 31.2167 4.54617
196 2 11.7746 30.9831 4.60336
197 2 0.145148 35.1131 4.53284
198 2 4.05162 35.0805 4.74261
199 2 7.86164 35.1326 4.56753
200 2 11.7401 35.0308 4.60069
201 2 15.823 39.0916 4.5779
202 2 3.90273 39.0909 4.63403
203 2 7.77687 39.2337 4.69445
204 2 11.8955 39.0916 4.69078
205 2 -0.0838485 43.0521 4.74698
206 2 3.70438 42.9321 4.66803
207 2 7.76061 43.3247 4.70027
208 2 11.7728 43.0663 4.67092
209 2 -0.0393465 47.1446 4.84083
210 2 3.86802 47.2844 4.9101
211 2 7.92714 47.188 4.62912
212 2 11.8797 47.0817 4.56003
213 2 0.0278135 51.0038 4.82496
214 2 3.90949 51.1486 4.89494
215 2 7.72217 51.2664 4.66545
216 2 11.8218 51.1642 4.65091
217 2 -0.14129 55.3412 4.96495
218 2 3.95479 55.1559 4.88869
219 2 7.8959 55.2856 4.86712
220 2 11.9605 55.2642 4.88881
221 2 15.7799 59.0555 5.02961
222 2 3.94989 59.2973 4.86221
223 2 7.94428 59.2875 4.83004
224 2 11.8293 59.305 5.01526
225 2 -0.0356963 63.1795 5.0202
226 2 3.87485 63.1852 4.96406
227 2 7.78108 63.2049 5.08107
228 2 11.8214 63.2796 5.1616
229 2 15.7601 67.3947 5.35266
230 2 4.01969 67.3694 5.00333
231 2 8.05674 67.2757 5.0348
232 2 11.8911 67.3643 4.9427
233 2 15.8362 71.4271 4.91313
234 2 3.82994 71.3698 5.08103
235 2 7.80441 71.3212 5.08988
236 2 11.9463 71.6397 5.17905
237 2 15.7404 75.6241 5.19837
238 2 3.98134 75.504 5.34107
239 2 7.94495 75.303 5.16854
240 2 11.7482 75.4566 5.24465
241 2 0.0381835 79.5192 5.4215
242 2 4.04856 79.4985 5.46746
243 2 7.81116 79.4559 5.39888
244 2 11.9369 79.4288 5.4152
245 2 15.622 83.579 5.51742
246 2 3.95798 83.3458 5.3366
247 2 7.96518 83.4035 5.57788
248 2 11.8531 83.3881 5.46082
249 2 -0.206909 87.581 5.45187
250 2 3.78899 87.2297 5.45779
251 2 7.98323 87.4846 5.39524
252 2 11.8083 87.495 5.39541
253 2 -0.058862 91.4909 5.67432
254 2 3.96081 91.3789 5.52465
255 2 7.96658 91.4507 5.46046
256 2 11.8845 91.5162 5.5873
257 2 15.9984 95.2715 5.48664
258 2 3.91859 95.4779 5.36767
259 2 8.02121 95.2871 5.49293
260 2 11.7758 95.3744 5.4662
261 2 0.0978935 99.0885 5.26461
262 2 4.02484 99.2262 5.23635
263 2 8.01802 99.2014 5.33962
264 2 12.1094 99.3762 5.19325
265 2 0.0403571 103.175 5.31095
266 2 4.1041 103.123 5.37665
267 2 7.89734 103.148 5.11769
268 2 11.8462 103.085 5.16775
269 2 15.861 106.849 5.15188
270 2 4.13291 106.906 5.25211
271 2 8.02791 106.913 5.20812
272 2 11.9385 107.174 5.245
273 2 15.9968 110.971 5.06325
274 2 3.94092 110.837 5.20868
275 2 7.94061 111.003 5.13366
276 2 11.9253 111.049 5.12613
277 2 0.078322 114.968 5.03129
278 2 4.15885 114.674 5.24293
279 2 7.86416 114.918 5.12738
280 2 11.9048 114.939 5.16087
281 2 -0.0134559 118.49 5.01656
282 2 4.02486 118.94 5.05046
283 2 7.93912 118.539 5.01988
284 2 11.8064 118.701 5.20023
285 2 15.9286 122.728 4.97186
286 2 4.04113 122.704 5.21697
287 2 7.9872 122.545 5.17608
288 2 11.8481 122.673 5.16372
289 2 0.298475 126.653 5.06628
290 2 4.22232 126.558 4.96954
291 2 8.09572 126.579 4.97092
292 2 12.0112 126.623 4.91856
293 2 0.278916 130.569 5.13078
294 2 4.09614 130.549 5.04326
295 2 7.89957 130.436 4.96603
296 2 12.0669 130.483 4.79843
297 2 15.7746 134.44 5.02024
298 2 3.89464 134.523 4.84182
299 2 7.81952 134.577 4.99136
300 2 11.9515 134.501 5.07147
301 2 0.00695368 138.253 4.92125
302 2 4.12965 138.368 4.81346
303 2 7.98808 138.594 4.93465
304 2 12.0506 138.515 4.83113
305 2 0.155477 142.37 4.92719
306 2 4.0563 142.406 4.86761
307 2 8.13696 142.454 4.84984
308 2 12.0208 142.398 4.9206
309 2 16.1538 146.441 4.868
310 2 4.09453 146.286 4.67849
311 2 8.00997 146.283 4.69048
312 2 11.9524 146.167 4.91872
313 2 16.1201 150.07 4.72554
314 2 4.08587 150.329 4.68133
315 2 7.85844 150.125 4.72655
316 2 12.0921 150.117 4.77606
317 2 16.0204 154.147 4.90565
318 2 4.03848 154.152 4.82431
319 2 8.15405 154.058 4.76383
320 2 12.2086 154.106 4.65592
321 2 16.0945 158.043 8.83878
322 2 4.23532 158.104 8.74241
323 2 7.96971 158.083 8.82334
324 2 12.0906 158.045 8.68823
325 2 15.9616 3.66438 8.71021
326 2 4.13659 3.68731 8.7734
327 2 7.95554 3.59801 8.71819
328 2 12.0471 3.73966 8.74844
329 2 15.908 7.48762 8.66682
330 2 4.04928 7.73876 8.61294
331 2 8.02298 7.63203 8.63725
332 2 11.9355 7.55958 8.83674
333 2 -0.145254 11.6156 8.68145
334 2 3.88488 11.5477 8.63658
335 2 7.83577 11.5701 8.62684
336 2 11.8114 11.5729 8.66057
337 2 15.784 15.3846 8.61034
338 2 3.8975 15.4967 8.536
339 2 7.89008 15.4419 8.6124
340 2 11.666 15.4491 8.68792
341 2 0.0806185 19.3726 8.67263
342 2 3.83141 19.3175 8.49931
343 2 7.77298 19.4952 8.45185
344 2 11.8648 19.0984 8.45349
345 2 -0.176858 23.0095 8.5429
346 2 3.92186 23.1342 8.45775
347 2 7.996 23.0179 8.48122
348 2 11.7492 22.9695 8.47267
349 2 -0.114153 26.8115 8.52952
350 2 3.90732 27.1901 8.56036
351 2 7.61039 27.1469 8.53014
352 2 11.803 27.0591 8.62546
353 2 0.173391 30.9531 8.44705
354 2 4.017 31.0257 8.63365
355 2 7.92094 31.0422 8.66267
356 2 11.7614 30.8908 8.45634
357 2 15.8269 34.9543 8.54172
358 2 3.86855 35.0892 8.57411
359 2 7.86745 35.0889 8.56772
360 2 11.7852 35.0191 8.49817
361 2 0.027476 39.0728 8.65219
362 2 4.15889 38.9955 8.70525
363 2 8.00889 38.959 8.54159
364 2 11.9988 39.0293 8.69943
365 2 -0.0794176 43.1551 8.63188
366 2 4.0247 43.1767 8.47911
367 2 7.87482 43.0177 8.75548
368 2 11.6765 43.1084 8.61499
369 2 0.0260695 47.2553 8.60662
370 2 3.97887 47.0767 8.68382
371 2 8.08029 47.1642 8.6538
372 2 11.9774 47.2553 8.69503
373 2 15.9736 51.115 8.71957
374 2 3.95532 51.1125 8.75461
375 2 8.0574 51.174 8.45559
376 2 11.7999 51.3079 8.58755
377 2 15.8876 55.0024 8.77293
378 2 3.88818 55.0831 8.87889
379 2 7.83175 55.2836 8.83745
380 2 12.037 55.0903 8.97427
381 2 0.0348518 59.2025 8.90997
382 2 3.98139 59.1432 8.82314
383 2 8.02655 59.1384 8.77199
384 2 11.8042 59.2519 8.79487
385 2 -0.0766556 63.2381 8.85604
386 2 3.98547 63.1834 8.8308
387 2 7.70171 63.1588 9.06066
388 2 11.9052 63.2652 9.04071
389 2 15.7778 67.2522 9.01221
390 2 3.96721 67.1417 8.91453
391 2 7.83702 67.3106 9.06536
392 2 11.6918 67.2554 8.93233
393 2 15.8525 71.4212 9.0641
394 2 3.83446 71.2396 8.94142
395 2 7.7838 71.2503 8.89194
396 2 11.7519 71.2815 9.04327
397 2 15.7406 75.3745 9.10278
398 2 3.95272 75.1881 9.04681
399 2 7.80332 75.357 9.24502
400 2 12.001 75.3726 9.03483
401 2 15.8078 79.5263 9.46492
402 2 4.03881 79.311 9.19923
403 2 7.9276 79.3231 9.47287
404 2 11.9871 79.1935 9.40088
405 2 0.00553496 83.4124 9.30932
406 2 3.84429 83.2576 9.24927
407 2 7.69196 83.5562 9.41111
408 2 11.7882 83.3853 9.23608
409 2 -0.0549014 87.3808 9.44343
410 2 3.72282 87.4098 9.29865
411 2 7.80487 87.3997 9.1683
412 2 11.8618 87.3602 9.57348
413 2 0.0486701 91.4462 9.59835
414 2 4.08659 91.3446 9.53063
415 2 8.03652 91.2492 9.43893
416 2 12.074 91.4363 9.37422
417 2 15.9191 95.3926 9.56929
418 2 4.0867 95.2059 9.63529
419 2 7.9356 95.2856 9.49836
420 2 11.8016 95.6232 9.48886
421 2 15.9354 99.1147 9.40104
422 2 4.00116 99.1436 9.42817
423 2 7.87864 99.1724 9.38003
424 2 11.8667 99.4152 9.35349
425 2 -0.0801659 103.11 9.42418
426 2 3.855 102.997 9.37721
427 2 7.90779 103.268 9.24801
428 2 11.9118 103.199 9.25231
429 2 0.209189 107.012 9.17223
430 2 3.9282 107.132 9.19119
431 2 7.93035 107.068 9.4717
432 2 11.9644 106.906 9.29238
433 2 15.8487 110.972 9.17305
434 2 3.84273 110.888 9.16664
435 2 8.01022 110.922 9.19836
436 2 12.0933 110.98 9.17008
437 2 -0.0743479 114.826 9.08644
438 2 3.97233 115.071 9.1769
439 2 8.15171 114.866 9.14613
440 2 11.8591 114.936 9.05585
441 2 -0.0374259 118.816 9.14824
442 2 4.04691 118.876 9.23703
443 2 7.82161 118.87 9.12567
444 2 11.7281 118.654 8.97289
445 2 15.7943 122.698 9.15496
446 2 4.00633 122.629 9.10521
447 2 7.96143 122.891 9.13614
448 2 12.0254 122.782 9.1617
449 2 16.0098 126.66 9.06767
450 2 3.98725 126.692 8.86862
451 2 8.09843 126.653 9.03529
452 2 11.9203 126.705 9.02704
453 2 0.112548 130.668 8.99383
454 2 4.05087 130.734 9.07495
455 2 8.06169 130.558 8.83215
456 2 12.0341 130.512 8.88771
457 2 0.155745 134.606 8.89451
458 2 4.01043 134.586 9.0724
459 2 7.999 134.361 8.8204
460 2 11.8346 134.261 8.76395
461 2 0.0938863 138.555 8.8639
462 2 3.69429 138.299 8.86912
463 2 7.67014 138.307 8.74255
464 2 11.717 138.375 8.90836
465 2 0.105192 142.428 8.90437
466 2 3.94344 142.451 8.89965
467 2 7.81678 142.213 8.79513
468 2 11.9912 142.173 8.86432
469 2 15.8392 146.392 8.85758
470 2 3.96645 146.314 8.78877
471 2 7.85448 146.214 8.83313
472 2 11.8265 146.146 8.83773
473 2 15.9414 150.173 8.8222
474 2 4.0975 150.427 8.76954
475 2 7.89214 150.156 8.73775
476 2 11.8997 150.101 8.82336
477 2 16.0312 154.005 8.78668
478 2 4.0311 154.248 8.78559
479 2 8.00687 154.008 8.57909
480 2 12.0114 154.021 8.55935
481 2 15.9835 157.943 12.6165
482 2 4.00622 158.051 12.7601
483 2 8.10499 157.985 12.5106
484 2 12.0771 158.138 12.7992
485 2 15.8463 3.81076 12.6997
486 2 4.00649 3.70793 12.6155
487 2 8.08752 3.69158 12.8122
488 2 12.0854 3.48384 12.8011
489 2 15.7816 7.50601 12.7289
490 2 4.02482 7.74792 12.6602
491 2 7.88316 7.55142 12.6081
492 2 11.8468 7.67369 12.8522
493 2 -0.110592 11.3821 12.6745
494 2 3.99543 11.5493 12.7375
495 2 7.86627 11.4949 12.6583
496 2 11.7881 11.5058 12.7341
497 2 0.062915 15.4148 12.58
498 2 4.02839 15.483 12.6821
499 2 7.86262 15.3099 12.7193
500 2 11.6122 15.3192 12.5975
501 2 0.0952763 19.3214 12.706
502 2 3.91579 19.2459 12.6566
503 2 7.87174 19.1374 12.5018
504 2 11.8679 18.8671 12.3284
505 2 -0.232084 23.0063 12.5344
506 2 3.89266 23.2881 12.6475
507 2 7.78652 23.0563 12.3707
508 2 11.9631 23.2801 12.6703
509 2 -0.130224 26.8553 12.5051
510 2 3.69565 27.2116 12.4406
511 2 7.81627 27.0518 12.4145
512 2 11.7331 27.1156 12.3533
513 2 -0.106299 30.8708 12.5911
514 2 3.8719 31.099 12.3954
515 2 7.83445 31.2147 12.4663
516 2 11.7952 30.9974 12.387
517 2 0.0153081 34.9503 12.4921
518 2 4.08136 35.145 12.4733
519 2 7.90273 35.0389 12.3661
520 2 11.9068 34.8489 12.3808
521 2 -0.0149601 39.2005 12.6657
522 2 3.95544 38.9958 12.4359
523 2 7.83233 38.9621 12.5904
524 2 12.0997 38.8595 12.588
525 2 0.0356515 43.0207 12.4641
526 2 3.9299 42.9856 12.5041
527 2 7.93396 42.8753 12.5619
528 2 11.866 42.9351 12.5094
529 2 -0.0576812 47.0246 12.6239
530 2 4.01612 47.0651 12.5425
531 2 7.75383 47.11 12.742
532 2 11.885 47.2419 12.5875
533 2 0.0482554 51.0684 12.7879
534 2 4.04739 51.04 12.6448
535 2 7.93137 51.1077 12.529
536 2 11.7026 51.3278 12.8553
537 2 15.7917 55.0986 12.7357
538 2 3.92199 55.1018 12.7532
539 2 8.0216 55.1095 12.9062
540 2 11.8021 55.1595 12.8376
541 2 15.8707 59.1951 12.7132
542 2 3.95233 59.1342 12.7198
543 2 8.00502 59.1783 12.8408
544 2 11.8674 59.0805 12.8366
545 2 15.747 63.3705 12.7738
546 2 3.81396 63.084 12.8577
547 2 7.94661 63.1387 12.7943
548 2 11.8187 62.982 12.894
549 2 -0.0353556 67.1583 12.8219
550 2 4.07051 67.2064 12.7314
551 2 7.8843 67.2635 12.9991
552 2 11.9395 67.2622 12.8629
553 2 0.0736398 71.2416 13.0296
554 2 4.04664 71.2433 12.9633
555 2 7.95288 71.3048 13.0918
556 2 11.804 71.3372 12.9346
557 2 0.00388861 75.4095 12.9352
558 2 4.13019 75.1799 12.9193
559 2 7.86474 75.2041 12.9867
560 2 11.9446 75.1726 13.0913
561 2 0.0477896 79.3453 13.2714
562 2 4.00779 79.2884 13.0396
563 2 8.09407 79.2522 13.2177
564 2 11.8081 79.1139 13.2849
565 2 -0.127814 83.309 13.264
566 2 3.97473 83.2934 13.3014
567 2 7.80569 83.217 13.3205
568 2 11.8434 83.2517 13.3419
569 2 -0.185006 87.3912 13.4513
570 2 3.93074 87.2188 13.3293
571 2 7.79988 87.3651 13.2857
572 2 11.7046 87.369 13.2627
573 2 -0.0223629 91.5242 13.5995
574 2 3.97628 91.1744 13.4398
575 2 7.81039 91.2995 13.5108
576 2 11.7846 91.3935 13.2687
577 2 0.0236109 95.4467 13.4557
578 2 4.17575 95.2512 13.426
579 2 7.94659 95.27 13.5639
580 2 11.9237 95.2847 13.4939
581 2 0.129706 99.2703 13.4008
582 2 3.98774 99.3264 13.3373
583 2 7.97609 99.1968 13.3496
584 2 11.8904 99.4043 13.5047
585 2 0.0355432 103.494 13.4175
586 2 3.90809 103.084 13.1774
587 2 7.83801 103.27 13.3834
588 2 11.9281 103.249 13.3492
589 2 0.0504461 107.172 13.3268
590 2 4.12376 107.329 13.3596
591 2 7.98143 107.169 13.2487
592 2 12.0146 107.202 13.3466
593 2 0.0942266 111.009 13.2625
594 2 3.90224 111.043 13.3579
595 2 8.0721 111.013 13.3403
596 2 11.9336 110.862 13.2705
597 2 0.0078459 114.877 13.1197
598 2 4.09476 114.806 13.0778
599 2 8.01475 114.89 13.1255
600 2 12.0253 114.894 13.312
601 2 0.0338846 118.656 13.1667
602 2 3.95481 118.766 13.2419
603 2 8.16786 118.797 13.1381
604 2 11.7994 118.949 13.0632
605 2 0.179609 122.63 13.1917
606 2 4.08422 122.97 13.1515
607 2 7.93233 122.722 13.0635
608 2 11.9473 122.773 13.0501
609 2 0.292617 126.817 12.9882
610 2 4.3003 126.763 12.9247
611 2 8.02606 126.688 13.0113
612 2 12.0929 126.721 13.1084
613 2 15.825 130.744 13.0753
614 2 3.99504 130.794 13.0046
615 2 7.99386 130.732 13.1394
616 2 11.8947 130.487 12.9031
617 2 15.6728 134.542 13.0034
618 2 3.91476 134.572 13.0297
619 2 7.88619 134.434 13.0287
620 2 11.6545 134.557 13.0258
621 2 0.0524899 138.452 12.8968
622 2 3.89877 138.605 12.894
623 2 8.02999 138.389 12.887
624 2 11.857 138.435 12.7697
625 2 15.6138 142.516 12.8505
626 2 3.78719 142.556 12.9163
627 2 7.89722 142.316 12.8403
628 2 11.8047 142.311 12.7419
629 2 0.0982891 146.238 12.866
630 2 4.0941 146.341 12.9882
631 2 7.70428 146.284 12.9844
632 2 11.9101 146.547 12.7594
633 2 0.296209 150.116 12.7735
634 2 4.14488 150.24 12.7389
635 2 8.16734 150.28 12.7992
636 2 11.9657 150.291 12.8829
637 2 15.8297 154.231 12.84
638 2 4.01343 154.132 12.8786
639 2 8.01997 154.289 12.6415
640 2 11.9382 154.25 12.8546
641 2 0.171343 158.121 16.8172
642 2 4.0374 -0.162363 16.5701
643 2 7.90918 158.091 16.7442
644 2 11.8882 158.216 16.7262
645 2 15.9353 3.73345 16.8352
646 2 4.04254 3.71264 16.6896
647 2 8.05437 3.56949 16.6198
648 2 11.9016 3.94296 16.7571
649 2 0.0659775 7.48934 16.6521
650 2 4.10284 7.44391 16.9118
651 2 7.98441 7.59146 16.829
652 2 11.9205 7.60237 16.6703
653 2 -0.0633262 11.4036 16.7894
654 2 4.02778 11.4233 16.8384
655 2 7.8751 11.3983 16.7202
656 2 11.8265 11.5103 16.6904
657 2 -0.100648 15.3612 16.6817
658 2 3.99245 15.3524 16.7063
659 2 7.89916 15.3636 16.7278
660 2 11.823 15.3849 16.5742
661 2 15.7663 19.2435 16.6938
662 2 3.61699 19.3145 16.5796
663 2 7.81006 19.2724 16.5715
664 2 11.6406 19.1238 16.4616
665 2 -0.0452983 23.2908 16.542
666 2 3.86301 23.3006 16.5658
667 2 8.0279 23.2326 16.5654
668 2 11.81 23.2739 16.632
669 2 0.0333682 27.0549 16.4735
670 2 3.91439 27.0528 16.4996
671 2 7.86854 27.3945 16.4016
672 2 11.8962 27.1238 16.3767
673 2 -0.173716 30.9098 16.4569
674 2 3.94153 30.9987 16.5003
675 2 7.82434 30.9697 16.6755
676 2 11.7111 30.9492 16.4217
677 2 -0.0656143 34.8479 16.5823
678 2 3.99775 34.8305 16.4536
679 2 7.88639 34.945 16.3828
680 2 11.8525 35.0263 16.4977
681 2 0.0248889 38.9139 16.3626
682 2 4.01873 38.9779 16.4387
683 2 7.98263 38.8553 16.4083
684 2 11.8221 38.9186 16.4209
685 2 -0.0107036 42.9568 16.5506
686 2 3.84752 42.951 16.5811
687 2 7.78106 42.91 16.4533
688 2 11.8524 42.9567 16.4059
689 2 15.794 46.9596 16.5844
690 2 3.80691 46.9188 16.4557
691 2 7.8327 47.0692 16.4444
692 2 11.6338 47.0947 16.3031
693 2 -0.118973 51.0555 16.5416
694 2 4.0537 50.738 16.5865
695 2 7.69555 50.8513 16.5375
696 2 11.9157 50.9791 16.4916
697 2 -0.0130499 55.112 16.7746
698 2 3.81701 55.0413 16.7548
699 2 7.92953 54.8722 16.7438
700 2 11.9593 55.1294 16.8812
701 2 0.121636 59.1119 16.7108
702 2 4.10702 59.1613 16.6767
703 2 7.92371 58.9709 16.7093
704 2 12.0142 59.2479 16.7248
705 2 0.236434 63.2235 16.8613
706 2 3.94222 63.1456 16.7384
707 2 7.7909 63.3171 16.6489
708 2 11.8442 63.1696 16.807
709 2 -0.147786 67.1993 16.7164
710 2 4.0368 67.4461 16.6197
711 2 7.84493 67.1539 16.7222
712 2 11.9296 67.1194 16.8355
713 2 -0.185524 71.1264 16.9651
714 2 3.92151 71.1814 16.8771
715 2 7.86412 71.2683 16.9316
716 2 11.81 71.0524 16.7674
717 2 0.187787 75.3119 16.8214
718 2 3.89226 75.2326 16.7595
719 2 7.73985 75.2424 16.8837
720 2 11.8953 75.0009 16.9963
721 2 -0.068058 79.1722 17.1501
722 2 3.80847 79.2548 17.2332
723 2 7.89781 79.2303 17.1813
724 2 11.9131 79.0965 17.1323
725 2 -0.186802 83.1228 17.2015
726 2 3.90289 83.3604 17.0593
727 2 7.77078 83.3289 17.0026
728 2 11.7682 83.287 17.1668
729 2 -0.00560033 87.3754 17.2485
730 2 3.99683 87.3953 17.2879
731 2 7.9025 87.1879 17.2827
732 2 12.0581 87.2718 17.323
733 2 -0.166401 91.3476 17.4009
734 2 3.66853 91.3342 17.3258
735 2 8.10961 91.2069 17.3427
736 2 11.8088 91.2503 17.4342
737 2 -0.0690236 95.1765 17.3544
738 2 3.89029 95.0379 17.2991
739 2 7.83097 95.1399 17.3073
740 2 11.8949 95.4064 17.2866
741 2 0.0780147 99.2978 17.4187
742 2 3.87481 99.3152 17.4468
743 2 7.80815 99.2437 17.3593
744 2 11.9903 99.2459 17.326
745 2 0.0322678 103.492 17.4508
746 2 3.90078 103.207 17.456
747 2 7.81166 102.987 17.3619
748 2 11.7981 103.141 17.3514
749 2 -0.0151281 107.31 17.3204
750 2 4.09138 107.268 17.3529
751 2 7.968 106.943 17.1632
752 2 11.7317 107.057 17.4613
753 2 0.124573 111.117 17.307
754 2 3.99308 111.231 17.3103
755 2 7.92706 110.947 17.3099
756 2 11.7238 111.175 17.3467
757 2 -0.0750376 115.106 17.1815
758 2 4.06125 114.977 17.2103
759 2 7.88654 114.91 16.9903
760 2 11.6939 115.133 17.1368
761 2 0.090955 118.894 17.1358
762 2 4.078 118.937 17.16
763 2 7.99621 118.986 17.1934
764 2 11.8816 118.988 17.2874
765 2 0.050298 122.882 17.1323
766 2 4.33896 122.921 17.0592
767 2 8.22851 122.793 17.1701
768 2 11.979 122.976 17.0901
769 2 15.8426 126.946 17.0681
770 2 4.09335 126.843 17.0284
771 2 8.03237 126.764 17.1087
772 2 12.1465 126.714 17.2596
773 2 15.976 130.733 16.9932
774 2 4.07032 130.709 17.0412
775 2 7.87622 130.825 17.194
776 2 11.8872 130.389 17.0106
777 2 15.7965 134.533 16.9756
778 2 3.96462 134.707 17.0827
779 2 8.07345 134.606 17.0255
780 2 11.9641 134.537 16.9783
781 2 0.172746 138.407 17.0059
782 2 4.10112 138.558 16.8066
783 2 8.01795 138.629 17.0127
784 2 11.8549 138.529 16.9392
785 2 15.8223 142.397 16.9953
786 2 4.09606 142.351 16.813
787 2 8.05192 142.426 16.9443
788 2 11.7906 142.287 16.7478
789 2 15.9115 146.124 16.8659
790 2 4.13253 146.248 17.0392
791 2 8.06493 146.315 16.8614
792 2 11.9732 146.175 16.7888
793 2 16.0974 150.131 16.7905
794 2 4.21304 150.336 16.8893
795 2 8.17932 150.234 16.8839
796 2 11.9978 150.26 16.8438
797 2 15.8006 154.138 16.8388
798 2 4.20756 154.188 16.8473
799 2 7.9849 154.138 16.8366
800 2 12.0616 154.083 16.679
801 2 15.8249 158.089 20.9887
802 2 3.83841 158.063 20.7794
803 2 7.98984 158.003 20.8352
804 2 11.7309 158.133 20.889
805 2 0.122743 3.77247 20.7337
806 2 4.21971 3.6914 20.7911
807 2 8.07264 3.58548 20.7926
808 2 11.8483 3.53836 20.9159
809 2 15.9011 7.52592 20.8391
810 2 3.99922 7.63287 20.9163
811 2 8.07268 7.68967 20.8367
812 2 11.8922 7.43599 20.6323
813 2 15.8402 11.5475 20.6646
814 2 3.78723 11.4847 20.8513
815 2 7.82876 11.3857 20.8171
816 2 11.9035 11.5149 20.7192
817 2 15.8387 15.3802 20.6333
818 2 3.9885 15.5511 20.5925
819 2 8.093 15.3495 20.7616
820 2 11.6866 15.4875 20.7489
821 2 0.0204479 19.4476 20.596
822 2 4.27099 19.5201 20.5199
823 2 8.0018 19.3377 20.6864
824 2 11.8618 19.4332 20.4898
825 2 -0.0451343 23.2044 20.5808
826 2 4.08412 23.2367 20.574
827 2 7.91316 23.1301 20.6397
828 2 11.9884 23.2777 20.5667
829 2 15.7465 27.042 20.5347
830 2 3.86628 27.1562 20.6835
831 2 8.06549 27.1992 20.358
832 2 11.9627 27.2074 20.6446
833 2 15.8163 31.0727 20.2346
834 2 4.0244 31.0219 20.547
835 2 7.96837 31.1044 20.6018
836 2 12.0094 31.1771 20.5303
837 2 15.7131 35.2718 20.595
838 2 3.82638 34.9557 20.3487
839 2 7.94104 35.0233 20.4286
840 2 11.8463 35.0873 20.5964
841 2 -0.0790942 39.0964 20.4738
842 2 3.89267 38.8923 20.4265
843 2 7.76531 38.9529 20.4949
844 2 11.926 38.8449 20.3048
845 2 15.6662 42.6548 20.4648
846 2 3.82343 42.981 20.4416
847 2 7.87453 42.9776 20.5946
848 2 11.7851 42.8584 20.4306
849 2 15.706 46.7291 20.3606
850 2 3.83251 46.9242 20.4479
851 2 7.78788 46.8053 20.4134
852 2 11.7965 46.7486 20.5083
853 2 0.0840981 50.9343 20.2156
854 2 4.17861 50.9441 20.4781
855 2 8.09509 50.9694 20.5615
856 2 12.0436 50.9401 20.3801
857 2 0.0274627 54.9365 20.6159
858 2 4.07686 54.8683 20.5267
859 2 8.05014 54.9946 20.4976
860 2 11.8935 54.96 20.5324
861 2 15.8941 59.0579 20.6823
862 2 4.14975 58.8696 20.6903
863 2 7.87831 59.0234 20.5378
864 2 12.0143 58.8345 20.6013
865 2 15.6737 63.1216 20.7837
866 2 3.91902 62.9355 20.6503
867 2 7.77477 63.2583 20.3154
868 2 11.9055 62.8788 20.5603
869 2 -0.0249221 67.0186 20.9617
870 2 3.94106 67.196 20.9455
871 2 7.82127 67.1175 20.7343
872 2 12.082 67.0691 20.8808
873 2 -0.0573083 71.1503 20.6637
874 2 3.83019 71.035 20.6436
875 2 7.87917 71.1553 20.8866
876 2 11.6705 71.0849 20.6873
877 2 -0.0939653 75.2125 20.8807
878 2 3.82817 75.1207 20.8876
879 2 7.60391 75.1928 20.836
880 2 11.6992 74.9431 20.7713
881 2 0.136814 79.261 21.069
882 2 4.08565 79.035 21.1584
883 2 7.96365 79.252 20.9855
884 2 11.7426 79.2072 20.9917
885 2 0.124741 83.2823 20.9518
886 2 3.97781 83.2211 21.1387
887 2 7.7843 83.1244 21.0054
888 2 11.7912 83.0105 20.9678
889 2 0.164468 87.2486 21.272
890 2 4.02461 87.1917 21.2728
891 2 7.95101 87.1344 21.2775
892 2 11.8994 87.1547 21.2306
893 2 0.0305024 91.2097 21.4022
894 2 3.83882 91.2092 21.3114
895 2 7.84544 91.2115 21.3354
896 2 11.7358 91.101 21.1543
897 2 -0.0260313 95.3937 21.3329
898 2 4.01364 95.2239 21.3485
899 2 7.88803 95.2893 21.1667
900 2 11.9538 95.382 21.3592
901 2 -0.0749035 99.4223 21.4455
902 2 3.91792 99.028 21.3869
903 2 7.63697 99.2013 21.3542
904 2 11.645 99.2105 21.3912
905 2 -0.0556662 103.129 21.4727
906 2 3.89837 103.215 21.2742
907 2 7.75964 103.264 21.2404
908 2 11.8507 103.342 21.3306
909 2 0.0484812 107.116 21.4023
910 2 3.95137 107.208 21.452
911 2 7.84844 107.3 21.444
912 2 11.9773 107.256 21.4536
913 2 -0.0951734 111.071 21.2583
914 2 3.73687 111.35 21.3319
915 2 7.92705 110.982 21.3228
916 2 11.9757 111.216 21.3005
917 2 15.6687 115.132 21.2004
918 2 3.96449 115.118 21.3726
919 2 7.96711 115.108 21.212
920 2 11.869 114.937 21.21
921 2 0.0421913 118.881 21.2866
922 2 3.98669 119.026 21.1553
923 2 7.8825 118.864 21.1696
924 2 11.8755 118.986 21.2941
925 2 15.8458 122.9 21.2188
926 2 4.06322 123.026 21.1865
927 2 8.00772 122.886 21.2547
928 2 11.971 122.68 21.0753
929 2 15.7117 126.981 21.0939
930 2 4.02951 126.771 21.1704
931 2 7.9467 126.895 21.1251
932 2 11.9077 126.767 21.1733
933 2 15.7263 130.788 21.0472
934 2 3.89956 130.764 21.0969
935 2 8.13005 130.704 21.1006
936 2 11.9509 130.72 21.1512
937 2 -0.00921622 134.658 20.9654
938 2 4.0353 134.57 21.0982
939 2 7.93086 134.569 21.0252
940 2 12.091 134.881 21.0233
941 2 15.9248 138.624 21.0468
942 2 4.08863 138.647 21.0537
943 2 7.90885 138.501 21.0301
944 2 11.6908 138.663 21.0626
945 2 15.8674 142.419 20.9902
946 2 3.91666 142.512 21.0255
947 2 7.99978 142.576 21.0651
948 2 11.9956 142.466 20.9982
949 2 15.9118 146.291 20.8213
950 2 4.08509 146.365 21.0458
951 2 7.94358 146.243 20.7385
952 2 12.0794 146.376 20.8211
953 2 16.0156 150.285 20.7307
954 2 3.91724 150.075 20.871
955 2 8.16021 150.274 20.8948
956 2 12.0364 150.255 20.9762
957 2 15.5636 154.352 20.6066
958 2 3.99624 154.035 20.8192
959 2 8.08425 154.309 20.9756
960 2 11.7549 154.161 21.066
961 2 0.141592 158.167 24.7863
962 2 3.931 158.046 24.8823
963 2 7.76942 158.022 24.9733
964 2 11.9818 158.276 24.9999
965 2 15.9361 3.81444 24.9488
966 2 4.14445 3.64897 24.9382
967 2 7.94831 3.67104 24.9222
968 2 12.0517 3.67827 24.8908
969 2 15.6913 7.70516 24.7208
970 2 4.16329 7.64288 24.8242
971 2 7.95283 7.65314 24.8865
972 2 11.8059 7.61081 24.527
973 2 15.9977 11.524 24.7674
974 2 4.11726 11.6016 24.8508
975 2 7.96475 11.524 24.715
976 2 11.9268 11.5559 24.6628
977 2 0.165046 15.503 24.5329
978 2 4.03457 15.4446 24.7908
979 2 7.9689 15.4502 24.6964
980 2 12.0274 15.4755 24.5961
981 2 -0.0250423 19.2221 24.543
982 2 3.99008 19.3396 24.663
983 2 7.96301 19.4629 24.5711
984 2 11.9519 19.3487 24.7423
985 2 0.147051 23.2955 24.6615
986 2 3.94084 23.4784 24.7524
987 2 7.77497 23.412 24.6504
988 2 11.7644 23.4543 24.6772
989 2 0.143409 27.2836 24.6772
990 2 3.9085 27.3189 24.4345
991 2 7.98433 27.2362 24.4974