ITEM: TIMESTEP
19600
ITEM: NUMBER OF ATOMS
32000
ITEM: BOX BOUNDS xy xz yz pp pp pp
0.0000000000000000e+00 1.5832000000000001e+01 0.0000000000000000e+00
0.0000000000000000e+00 1.5831999999999999e+02 0.0000000000000000e+00
8.2062890159602375e-01 1.6015648909840075e+02 0.0000000000000000e+00
ITEM: ATOMS id type x y z
1 2 16.0212 157.766 160.051
2 2 3.93583 157.938 160.096
3 2 7.97727 157.963 159.999
4 2 11.9515 157.691 160.066
5 2 -0.137939 3.38306 159.979
6 2 3.8157 3.43128 160.022
7 2 8.13718 3.4892 159.947
8 2 12.0259 3.52897 159.798
9 2 15.906 7.45172 159.852
10 2 3.82816 7.26688 159.908
11 2 7.78139 7.2994 159.87
12 2 11.9481 7.36992 159.674
13 2 15.826 11.3023 159.935
14 2 4.02844 11.4143 159.859
15 2 7.849 11.3187 159.635
16 2 11.6817 11.3042 159.699
17 2 -0.131715 15.0943 159.858
18 2 3.99918 15.0764 159.813
19 2 7.95555 15.1283 159.818
20 2 11.8135 15.1568 159.944
21 2 16.0706 19.0142 159.666
22 2 4.19179 19.2761 159.645
23 2 7.88777 19.0596 159.706
24 2 11.921 19.1451 159.701
25 2 15.9558 23.068 159.851
26 2 3.86548 22.9536 159.813
27 2 7.95687 23.0397 159.751
28 2 11.8729 23.0057 159.863
29 2 15.7022 27.1829 159.904
30 2 3.98276 27.182 160.048
31 2 7.77525 27.3237 159.847
32 2 11.9185 27.041 159.969
33 2 15.9304 30.9414 160.094
34 2 3.9462 31.0938 0.696049
35 2 8.08756 31.0845 159.894
36 2 11.9546 30.97 159.921
37 2 0.0606394 35.189 159.936
38 2 4.01614 35.1464 159.95
39 2 8.06032 35.115 159.874
40 2 11.788 35.0709 160.111
41 2 -0.16285 39.1703 160.211
42 2 3.7571 39.1981 0.603699
43 2 7.86844 39.3617 0.915873
44 2 11.9674 39.0533 0.708603
45 2 0.0145358 43.0987 160.182
46 2 3.89192 43.2661 160.113
47 2 8.03237 43.3077 0.916687
48 2 11.7554 43.0637 0.870811
49 2 0.156902 47.2124 0.815112
50 2 3.89881 47.3644 0.729267
51 2 8.10791 47.3452 0.891661
52 2 12.0436 47.0342 0.761795
53 2 -0.213352 51.2964 0.774315
54 2 4.03175 51.3709 1.01361
55 2 7.92061 51.3734 0.867358
56 2 11.8385 51.369 0.876152
57 2 15.7711 55.342 0.953655
58 2 3.82512 55.2249 0.790955
59 2 7.74575 55.2996 0.819043
60 2 11.6967 55.2724 0.948785
61 2 -0.118979 59.3913 1.05768
62 2 3.72231 59.4179 1.11589
63 2 7.77759 59.382 1.04778
64 2 11.7977 59.3228 0.955412
65 2 -0.0230762 63.2254 0.977985
66 2 3.8283 63.5037 1.27292
67 2 7.77122 63.4833 1.04616
68 2 11.7989 63.272 1.13362
69 2 15.6736 67.3477 1.08905
70 2 3.84531 67.4404 1.08143
71 2 7.99117 67.4251 1.02176
72 2 11.6509 67.6361 1.05948
73 2 -0.00841215 71.5819 1.23371
74 2 3.81749 71.4275 1.17525
75 2 7.91956 71.4624 1.11701
76 2 11.9455 71.3043 1.04288
77 2 -0.0397081 75.5811 1.15302
78 2 3.88739 75.3893 1.24485
79 2 7.71871 75.6683 0.968932
80 2 11.728 75.5271 1.14893
81 2 0.146892 79.5073 1.67162
82 2 4.06453 79.4544 1.56428
83 2 7.99276 79.4352 1.49091
84 2 11.9248 79.3966 1.58229
85 2 0.00615546 83.5419 1.59035
86 2 3.94952 83.4272 1.52166
87 2 7.74176 83.6644 1.46175
88 2 11.9163 83.5357 1.52894
89 2 0.0805433 87.4205 1.5631
90 2 3.95765 87.4737 1.61351
91 2 7.98119 87.5343 1.43812
92 2 11.9369 87.5011 1.52891
93 2 0.061279 91.2731 1.20065
94 2 3.81836 91.5241 1.32337
95 2 7.9184 91.3519 1.23024
96 2 12.0604 91.2643 1.45941
97 2 15.8482 95.1934 1.42497
98 2 3.96113 95.1655 1.44842
99 2 7.85613 95.2828 1.48754
100 2 11.9436 95.1677 1.34596
101 2 -0.129092 98.9821 1.17476
102 2 4.12802 99.2777 1.25669
103 2 8.15803 99.0958 1.16568
104 2 11.6982 99.2597 1.25972
105 2 0.0121365 103.074 1.12162
106 2 3.99792 102.997 1.25432
107 2 7.84427 102.9 1.19694
108 2 11.8927 103.278 1.30668
109 2 0.246677 107.057 1.11743
110 2 4.06817 107.032 1.27295
111 2 7.80485 106.91 1.16941
112 2 11.7966 106.833 1.17768
113 2 0.140583 110.866 1.05901
114 2 3.92618 110.943 1.09502
115 2 7.86046 110.713 1.23679
116 2 12.0149 110.709 1.17244
117 2 15.9098 114.958 0.938725
118 2 4.01423 114.778 1.14889
119 2 8.00061 114.905 1.11808
120 2 11.9701 114.667 1.24371
121 2 0.0410921 118.777 0.932631
122 2 4.01413 118.687 1.16262
123 2 7.96156 118.717 1.07406
124 2 11.9003 118.753 0.974545
125 2 15.8292 122.453 0.876238
126 2 4.0093 122.7 0.949508
127 2 7.91247 122.518 0.952138
128 2 11.6139 122.502 1.00383
129 2 -0.0962641 126.615 1.06892
130 2 4.12975 126.642 0.947727
131 2 7.82149 126.622 1.12301
132 2 12.0187 126.319 1.1751
133 2 15.9827 130.273 0.966817
134 2 4.13688 130.27 0.898022
135 2 7.93659 130.622 1.04465
136 2 11.8847 130.412 1.03625
137 2 15.5696 134.297 0.838899
138 2 3.8327 134.407 1.01344
139 2 7.89509 134.5 160.207
140 2 11.9467 134.115 0.577018
141 2 0.0447974 138.284 0.678502
142 2 3.90138 138.288 160.178
143 2 7.943 138.374 160.274
144 2 11.7791 138.33 0.892575
145 2 16.044 142.29 160.113
146 2 4.08172 141.973 160.159
147 2 8.17252 142.242 159.961
148 2 11.9683 142.215 160.189
149 2 0.00624887 146.177 160.28
150 2 4.11579 146.209 160.192
151 2 8.20826 146.173 160.146
152 2 12.0196 146.117 160.031
153 2 15.9941 149.86 159.926
154 2 4.13497 150.212 159.899
155 2 7.85342 150.112 160.103
156 2 12.0061 150.186 0.829172
157 2 16.0027 153.958 159.873
158 2 4.13609 154.189 159.969
159 2 7.95526 154.182 160.067
160 2 12.0579 154.072 160.17
161 2 16.0455 157.942 4.76207
162 2 4.2675 158.06 4.85823
163 2 8.3091 157.953 4.6502
164 2 11.9636 158 4.67085
165 2 0.117779 3.52531 4.70357
166 2 4.10783 3.66817 4.59239
167 2 8.12906 3.52449 4.65485
168 2 12.0038 3.68015 4.51713
169 2 0.0803536 7.50618 4.74009
170 2 4.00253 7.45026 4.67089
171 2 7.96567 7.55845 4.43031
172 2 12.0722 7.38538 4.61467
173 2 -0.160682 11.2292 4.45687
174 2 3.77732 11.3674 4.71516
175 2 7.83605 11.3311 4.55258
176 2 11.6324 11.379 4.69582
177 2 15.7558 15.191 4.48749
178 2 3.77031 15.4268 4.48187
179 2 7.76014 15.2168 4.5383
180 2 11.5909 15.3822 4.47078
181 2 0.0633452 19.0959 4.45239
182 2 3.97367 19.2851 4.36651
183 2 7.95486 19.1158 4.49114
184 2 12.0386 19.0767 4.27357
185 2 0.00239053 23.0583 4.4488
186 2 3.85949 23.2856 4.40823
187 2 7.98953 23.1187 4.33177
188 2 11.9919 23.2116 4.21066
189 2 15.7123 26.9078 4.52371
190 2 3.83886 27.0976 4.37462
191 2 7.61928 27.068 4.40363
192 2 11.7658 26.9496 4.52239
193 2 -0.132564 31.0507 4.63448
194 2 3.93229 31.0514 4.6831
195 2 7.93657 30.9106 4.58997
196 2 11.8309 31.2124 4.37619
197 2 -0.277025 34.9807 4.62445
198 2 3.80642 35.1201 4.54182
199 2 7.89311 35.0806 4.71929
200 2 11.8271 35.12 4.66487
201 2 15.6925 39.1416 4.68747
202 2 3.8688 39.1273 4.66683
203 2 7.8417 39.0251 4.6603
204 2 11.7866 39.1097 4.80018
205 2 -0.128685 43.185 4.53371
206 2 3.97253 43.347 4.65517
207 2 7.76511 43.1305 4.76974
208 2 11.646 43.3447 4.72006
209 2 0.0439207 47.1302 4.81126
210 2 4.08387 47.1387 4.56259
211 2 7.98832 47.2843 4.82792
212 2 11.8927 47.2605 4.7599
213 2 -0.0536364 51.4067 4.64926
214 2 3.96148 51.358 4.68802
215 2 7.91278 51.3186 4.79238
216 2 11.9689 51.2368 4.77153
217 2 -0.00930739 55.146 4.86376
218 2 3.85414 55.3982 4.75821
219 2 7.87365 55.2449 4.91847
220 2 11.7911 55.1101 4.80667
221 2 15.6612 59.5193 5.00236
222 2 3.88063 59.1395 4.92838
223 2 7.85938 59.1508 5.0583
224 2 11.8175 59.2244 4.95891
225 2 -0.061503 63.4494 4.99817
226 2 3.93005 63.389 5.04407
227 2 7.84788 63.3736 4.88217
228 2 11.7989 63.3236 4.82348
229 2 15.6994 67.3668 4.90828
230 2 3.74858 67.2146 5.10764
231 2 7.88496 67.3874 5.044
232 2 11.8711 67.3734 5.23734
233 2 15.8055 71.3422 5.33368
234 2 3.9291 71.4507 5.03814
235 2 7.83219 71.356 5.08952
236 2 11.7086 71.262 4.94417
237 2 15.7042 75.2159 5.22841
238 2 3.84507 75.2792 5.17376
239 2 7.85416 75.4165 5.1821
240 2 11.828 75.371 5.07418
241 2 -0.0674721 79.3733 5.52558
242 2 3.90359 79.4072 5.2334
243 2 7.90676 79.5119 5.44855
244 2 11.7655 79.3248 5.41403
245 2 15.7019 83.4155 5.42541
246 2 3.71119 83.6224 5.64288
247 2 7.71876 83.5828 5.43662
248 2 11.6489 83.3092 5.34997
249 2 -0.00119667 87.3716 5.61284
250 2 3.92987 87.678 5.34332
251 2 7.96725 87.3944 5.54152
252 2 11.8249 87.3176 5.55291
253 2 -0.0189742 91.3797 5.43583
254 2 4.03253 91.404 5.52206
255 2 8.02536 91.3737 5.50977
256 2 11.8825 91.3316 5.34684
257 2 15.78 95.4517 5.44144
258 2 3.8827 95.1559 5.51851
259 2 7.93273 95.4498 5.46794
260 2 12.0139 95.3286 5.38839
261 2 -0.128241 99.2437 5.1854
262 2 4.10529 99.2074 5.41045
263 2 7.98 99.1572 5.33218
264 2 11.8671 99.1 5.30778
265 2 0.0977283 102.977 5.10832
266 2 3.85353 102.974 5.13172
267 2 8.01286 102.984 5.3669
268 2 11.8414 103.255 5.30747
269 2 15.8134 107.124 5.25041
270 2 3.98088 106.847 5.16686
271 2 7.84136 107.147 5.23886
272 2 11.8861 106.834 5.2171
273 2 15.9295 110.892 5.23617
274 2 3.98282 110.906 5.08352
275 2 7.99645 110.867 5.24798
276 2 11.9237 110.739 5.25031
277 2 0.143473 114.72 5.12776
278 2 3.84184 114.832 5.03663
279 2 7.8999 114.701 5.09548
280 2 11.8594 114.79 5.03873
281 2 0.207061 119.065 5.10874
282 2 3.96332 118.543 5.17149
283 2 7.84465 118.827 4.92378
284 2 12.1075 118.808 4.91464
285 2 15.8919 122.671 5.17356
286 2 3.88205 122.742 4.95079
287 2 7.88378 122.792 5.06411
288 2 12.0213 122.567 5.00074
289 2 0.0456719 126.507 4.98789
290 2 3.98993 126.606 5.1105
291 2 8.12934 126.566 5.0115
292 2 12.2197 126.45 5.01094
293 2 -0.0953038 130.698 4.90501
294 2 3.91853 130.436 5.011
295 2 7.89783 130.565 4.97732
296 2 11.9326 130.522 5.22549
297 2 15.8333 134.532 4.79294
298 2 3.90758 134.484 4.99604
299 2 8.02394 134.408 4.9285
300 2 11.724 134.576 4.6892
301 2 -0.0252918 138.43 4.93352
302 2 3.66399 138.401 4.8273
303 2 7.9528 138.325 4.94749
304 2 12.0136 138.45 4.68716
305 2 0.186539 142.373 4.71584
306 2 4.04357 142.306 4.74973
307 2 7.80059 142.172 4.8725
308 2 11.8907 142.409 4.75399
309 2 15.8417 146.27 4.70746
310 2 4.13854 146.458 4.93169
311 2 7.86676 146.28 4.89666
312 2 12.0502 146.347 4.75276
313 2 16.026 150.302 4.70612
314 2 4.04302 150.334 4.80851
315 2 8.21709 150.097 4.75952
316 2 11.9974 150.258 4.57924
317 2 15.8967 154.087 4.63956
318 2 4.10237 154.194 4.82332
319 2 7.90862 154.128 4.81511
320 2 11.8579 154.007 4.60198
321 2 15.863 157.991 8.66717
322 2 4.05929 158.114 8.75533
323 2 8.17725 157.96 8.69343
324 2 11.9019 157.905 8.77535
325 2 15.9117 3.43938 8.73338
326 2 4.17416 3.87954 8.53148
327 2 8.22387 3.77305 8.79466
328 2 12.0428 3.43422 8.72161
329 2 15.8837 7.58043 8.7181
330 2 4.08022 7.60689 8.76347
331 2 8.01252 7.53459 8.75196
332 2 11.8925 7.46664 8.48338
333 2 -0.0281192 11.4468 8.57039
334 2 3.92732 11.5297 8.629
335 2 7.8745 11.4112 8.60995
336 2 11.9841 11.3034 8.61637
337 2 15.6739 15.3094 8.5711
338 2 3.90373 15.2531 8.49448
339 2 7.82936 15.3272 8.49177
340 2 11.9199 15.2861 8.49459
341 2 0.00628533 19.1846 8.41537
342 2 4.01656 19.219 8.49291
343 2 7.87011 19.3507 8.48071
344 2 11.6652 19.1935 8.48801
345 2 0.0640216 23.0783 8.49238
346 2 4.01635 23.1442 8.50189
347 2 7.61973 23.3167 8.38258
348 2 11.8758 23.055 8.45188
349 2 -0.155159 27.1429 8.40484
350 2 3.65682 26.9677 8.56502
351 2 7.8046 26.913 8.38694
352 2 11.6768 27.0114 8.43179
353 2 -0.151297 30.9772 8.57987
354 2 3.90441 30.9763 8.44083
355 2 7.8064 30.9759 8.40832
356 2 11.9335 31.0032 8.42728
357 2 15.7656 34.9695 8.47808
358 2 3.87183 34.9842 8.62585
359 2 7.84612 35.0372 8.67321
360 2 11.8842 34.8985 8.63603
361 2 -0.185566 39.0367 8.57432
362 2 3.63065 39.0587 8.41145
363 2 7.93872 39.2303 8.77598
364 2 11.7549 38.9816 8.46102
365 2 0.018822 43.0819 8.39769
366 2 3.9987 43.0299 8.50126
367 2 7.83538 43.1276 8.6658
368 2 11.7632 43.0578 8.54543
369 2 0.0799141 47.0939 8.84116
370 2 3.87397 47.1415 8.69162
371 2 7.86054 47.1002 8.66924
372 2 11.8875 47.0914 8.58191
373 2 15.757 51.1366 8.69133
374 2 4.24127 51.3248 8.74974
375 2 7.89866 51.2125 8.84098
376 2 11.8576 51.0659 8.57158
377 2 15.866 55.2405 8.91428
378 2 3.94241 55.205 8.79541
379 2 7.97404 55.1932 8.75518
380 2 11.8029 55.2502 8.72375
381 2 -0.098751 59.0781 8.90518
382 2 3.84808 59.1042 8.86234
383 2 7.71716 59.1997 8.90906
384 2 11.9639 59.1567 8.97999
385 2 0.0595479 63.1011 8.93406
386 2 3.99468 63.1668 8.92753
387 2 8.11465 63.2971 8.71326
388 2 11.8086 63.2597 8.92224
389 2 15.717 67.2461 8.91354
390 2 3.7783 67.2859 8.92439
391 2 7.76209 67.3608 8.66606
392 2 11.854 67.3214 8.96058
393 2 15.7385 71.2722 8.96018
394 2 4.04382 71.3124 9.1562
395 2 7.9492 71.3292 9.06665
396 2 11.8751 71.3544 8.97896
397 2 15.9219 75.3838 9.21549
398 2 3.87701 75.4266 9.11051
399 2 8.06275 75.2012 8.95991
400 2 11.7784 75.3438 9.0972
401 2 15.8879 79.2213 9.21815
402 2 3.94992 79.308 9.09273
403 2 7.88314 79.3466 9.09113
404 2 11.8008 79.5173 9.20213
405 2 -0.250228 83.5049 9.34495
406 2 3.7314 83.5203 9.51762
407 2 7.73488 83.4055 9.30786
408 2 11.7259 83.3569 9.5399
409 2 -0.225656 87.3851 9.4767
410 2 3.83122 87.477 9.6407
411 2 7.68771 87.2997 9.51517
412 2 11.5731 87.5844 9.40242
413 2 -0.0140449 91.4103 9.47075
414 2 3.887 91.3816 9.27908
415 2 7.79608 91.3418 9.36231
416 2 11.8015 91.4615 9.65478
417 2 15.9497 95.3851 9.41909
418 2 4.02654 95.4058 9.25349
419 2 8.00709 95.2823 9.44629
420 2 12.042 95.2579 9.44113
421 2 15.9375 99.3142 9.35035
422 2 4.15688 99.3451 9.4605
423 2 7.98057 99.3103 9.3738
424 2 12.012 99.1523 9.41329
425 2 0.0736182 103.166 9.13876
426 2 4.16197 103.213 9.17594
427 2 8.02215 103.174 9.34798
428 2 11.9382 102.933 9.36587
429 2 -0.0306629 106.929 9.39199
430 2 3.93851 107.077 9.28903
431 2 8.0222 107.082 9.16879
432 2 11.9602 107.073 9.24508
433 2 15.8121 110.964 9.20788
434 2 4.09066 110.922 9.32586
435 2 7.9249 111.055 9.1253
436 2 11.8139 110.909 9.17723
437 2 0.0238333 114.925 9.14821
438 2 3.9818 114.756 9.23426
439 2 7.85904 114.818 9.08917
440 2 11.9796 114.911 9.15769
441 2 0.136767 118.672 9.12316
442 2 3.96982 118.734 9.12592
443 2 8.13604 118.778 9.06348
444 2 11.9851 118.956 9.10764
445 2 15.8791 122.604 9.0418
446 2 3.92005 122.73 9.13256
447 2 7.94822 122.671 9.1034
448 2 11.8553 122.742 8.98257
449 2 16.0397 126.69 9.08339
450 2 4.34895 126.684 9.25455
451 2 8.16358 126.554 8.99904
452 2 12.1227 126.758 8.87704
453 2 0.0450533 130.631 8.98769
454 2 4.09002 130.388 8.96205
455 2 8.18539 130.448 9.00645
456 2 12.0298 130.584 9.13057
457 2 -0.09841 134.533 9.05026
458 2 4.18294 134.348 8.86692
459 2 8.05492 134.398 8.94022
460 2 11.8559 134.626 9.0322
461 2 0.0258753 138.473 8.98134
462 2 4.20144 138.55 8.75808
463 2 7.97725 138.305 8.99343
464 2 12.0133 138.506 8.79933
465 2 -0.0970399 142.536 8.80805
466 2 4.01406 142.395 8.7547
467 2 8.08323 142.275 8.79098
468 2 11.9073 142.445 8.65495
469 2 15.8898 146.362 8.84731
470 2 4.00586 146.348 8.93144
471 2 7.84547 146.245 8.80778
472 2 11.8227 146.322 8.79322
473 2 15.7304 150.279 8.87925
474 2 3.96404 150.115 8.87243
475 2 8.09294 150.135 8.89589
476 2 11.844 150.11 8.73021
477 2 15.7782 154.264 8.79763
478 2 4.08976 154.039 8.85404
479 2 8.09049 154.124 8.99763
480 2 11.9988 153.966 8.5701
481 2 15.858 158.079 12.9444
482 2 4.00827 158.095 12.7879
483 2 7.86766 158.021 12.7044
484 2 11.8296 157.94 12.7282
485 2 16.124 3.6283 12.7185
486 2 4.02232 3.57003 12.8403
487 2 7.82596 3.64054 12.7407
488 2 11.9909 3.77912 12.5608
489 2 15.9285 7.75686 12.6803
490 2 3.88506 7.43347 12.7079
491 2 8.03187 7.64298 12.8687
492 2 11.883 7.53609 12.6233
493 2 0.142222 11.4971 12.7612
494 2 3.97482 11.5006 12.5731
495 2 7.88772 11.4518 12.8245
496 2 11.8291 11.5264 12.7438
497 2 -0.140482 15.4355 12.6703
498 2 3.74421 15.2909 12.4736
499 2 7.75076 15.4552 12.5401
500 2 11.6998 15.354 12.5146
501 2 -0.140734 19.3741 12.507
502 2 3.92138 19.1479 12.4166
503 2 7.71263 19.5897 12.5909
504 2 11.8266 19.5211 12.7119
505 2 0.0100927 23.1813 12.5006
506 2 4.08498 23.1096 12.5552
507 2 8.06817 23.3545 12.5583
508 2 11.6413 23.1909 12.4947
509 2 -0.00646754 27.1794 12.3614
510 2 3.94265 27.0873 12.7422
511 2 7.77602 27.2052 12.4697
512 2 11.8415 26.9422 12.4933
513 2 -0.0781765 31.2858 12.5278
514 2 3.83354 31.0725 12.5697
515 2 7.82251 30.9081 12.5557
516 2 11.949 30.9337 12.3393
517 2 -0.115566 35.0295 12.4644
518 2 3.74979 34.8404 12.6043
519 2 7.93762 34.9183 12.6845
520 2 11.738 35.1101 12.5096
521 2 0.0333004 38.7982 12.4955
522 2 3.84675 38.8913 12.5514
523 2 7.92815 38.9211 12.414
524 2 11.8434 39.1455 12.5361
525 2 -0.0408421 42.9165 12.4812
526 2 3.83846 42.9881 12.4075
527 2 7.69617 43.0433 12.5514
528 2 11.8903 43.0124 12.6248
529 2 -0.0275648 47.0721 12.486
530 2 3.8701 47.1084 12.5929
531 2 7.98656 46.9453 12.4728
532 2 11.7017 46.8865 12.3777
533 2 -0.141412 50.9905 12.6315
534 2 3.86841 51.0895 12.7043
535 2 7.86006 51.1201 12.562
536 2 11.9156 50.9175 12.4539
537 2 15.8871 54.9865 12.7173
538 2 3.96868 55.1109 12.7587
539 2 7.93256 55.1755 12.6202
540 2 12.0025 55.0241 12.7023
541 2 15.6264 59.2976 13.0678
542 2 3.89294 59.1238 12.8158
543 2 7.85608 59.0823 12.7257
544 2 11.7781 59.2442 12.92
545 2 15.8804 62.9694 12.8618
546 2 4.03367 63.1883 12.8208
547 2 7.85573 63.2498 12.8778
548 2 11.8327 63.276 12.7678
549 2 -0.0141489 67.18 12.8558
550 2 3.77379 67.2099 12.7956
551 2 8.00563 67.2317 12.766
552 2 11.84 67.0644 12.9759
553 2 -0.218468 71.157 12.7828
554 2 3.80575 71.2858 12.8859
555 2 7.87637 71.1483 12.8209
556 2 11.8214 71.0685 12.9149
557 2 0.0498186 75.1534 13.0406
558 2 3.83011 75.3206 13.016
559 2 7.96371 75.2292 13.0476
560 2 11.8278 75.2765 13.1018
561 2 -0.00874484 79.0786 13.1012
562 2 4.00582 79.269 13.1623
563 2 7.73423 79.1641 13.1108
564 2 11.7841 79.3548 12.9686
565 2 0.115389 83.1501 13.2278
566 2 3.91111 83.2789 13.3214
567 2 8.00801 83.3786 13.1491
568 2 11.8041 83.3732 13.0752
569 2 -0.126861 87.3666 13.3971
570 2 3.65271 87.4689 13.4375
571 2 7.63236 87.2909 13.398
572 2 11.7404 87.3003 13.4122
573 2 -0.0959948 91.2515 13.3761
574 2 3.84915 91.3643 13.3294
575 2 7.88341 91.2749 13.3402
576 2 11.8807 91.2488 13.4612
577 2 -0.0545128 95.2387 13.4292
578 2 3.86888 95.2924 13.4587
579 2 7.92465 95.3138 13.3569
580 2 11.7268 95.2866 13.3302
581 2 -0.151865 99.2702 13.4644
582 2 4.02343 99.4051 13.5275
583 2 7.97744 99.3346 13.5265
584 2 11.8671 99.3227 13.3446
585 2 0.0301869 103.21 13.3626
586 2 3.8596 103.285 13.3771
587 2 7.99451 103.376 13.2239
588 2 12.0996 103.143 13.4735
589 2 0.160547 107.222 13.4938
590 2 4.13585 107.123 13.2984
591 2 8.13006 106.994 13.364
592 2 11.8618 107.116 13.2746
593 2 0.0828339 111.019 13.3456
594 2 4.17877 111.157 13.1063
595 2 7.92838 111.069 13.1866
596 2 11.9786 111.051 13.2543
597 2 -0.000627536 114.815 13.2651
598 2 3.98552 115.046 13.3184
599 2 7.99284 115.019 13.1997
600 2 11.8186 115.052 13.1078
601 2 0.0783966 119.049 13.2887
602 2 3.9308 118.982 13.0713
603 2 7.76622 118.954 13.1847
604 2 11.9969 118.899 13.1895
605 2 0.0905201 123.119 13.0356
606 2 3.96835 122.83 13.0604
607 2 8.15269 122.793 13.2217
608 2 12.2392 122.787 13.1148
609 2 0.0815023 126.772 13.2293
610 2 4.08067 126.873 13.1118
611 2 8.24112 126.62 13.1353
612 2 12.1806 126.548 12.9468
613 2 16.0162 130.855 12.7348
614 2 4.05438 130.634 13.0313
615 2 8.09354 130.519 13.0684
616 2 12.0741 130.592 13.1217
617 2 15.8834 134.744 12.8444
618 2 4.09045 134.518 12.9773
619 2 7.97044 134.557 13.0565
620 2 12.0319 134.595 13.0363
621 2 0.0184131 138.53 12.8651
622 2 4.02528 138.3 12.8817
623 2 7.61437 138.483 12.9114
624 2 11.7729 138.319 12.8887
625 2 15.8979 142.208 12.8231
626 2 4.16031 142.158 12.8163
627 2 8.01585 142.313 12.7922
628 2 11.8144 142.367 12.8179
629 2 -0.110919 146.256 12.7716
630 2 3.91335 146.222 12.7971
631 2 8.17345 146.231 12.7902
632 2 11.931 146.21 13.0619
633 2 -0.0839642 150.325 12.8861
634 2 4.10606 150.21 12.8815
635 2 7.996 150.237 12.8468
636 2 11.9768 150.226 12.8802
637 2 16.1465 154.121 12.7972
638 2 4.18745 154.035 12.6869
639 2 8.18311 154.051 12.9214
640 2 12.2039 154.005 12.6733
641 2 0.0458378 158.03 16.8633
642 2 4.04632 -0.322365 16.9447
643 2 8.10749 157.962 16.7879
644 2 12.1541 158.2 16.5877
645 2 15.9952 3.66903 16.7074
646 2 4.17585 3.79862 16.782
647 2 7.85129 3.65303 16.7287
648 2 11.9924 3.58552 16.6094
649 2 0.0523045 7.73755 16.8794
650 2 3.95216 7.71945 16.6824
651 2 7.90496 7.60515 16.8184
652 2 11.8152 7.53585 16.8249
653 2 -0.0250853 11.5212 16.5892
654 2 4.03167 11.5162 16.5277
655 2 7.9154 11.6436 16.807
656 2 11.8951 11.5692 16.8247
657 2 0.0399353 15.3268 16.6358
658 2 3.82827 15.4192 16.5843
659 2 7.77229 15.602 16.684
660 2 11.8554 15.5117 16.5672
661 2 15.6974 19.3764 16.5098
662 2 4.07032 19.3515 16.4802
663 2 7.99343 19.3572 16.5724
664 2 12.0346 19.4125 16.6143
665 2 0.0380186 23.086 16.6289
666 2 4.13876 23.2805 16.5815
667 2 7.8452 23.2596 16.5857
668 2 11.8738 23.2279 16.4652
669 2 -0.0886706 27.2946 16.4742
670 2 3.89594 27.1309 16.5361
671 2 7.94323 27.2662 16.5626
672 2 11.8095 27.1527 16.4564
673 2 -0.192958 31.2415 16.407
674 2 3.71958 31.0929 16.5592
675 2 7.85325 31.0537 16.3588
676 2 11.7945 31.0624 16.3752
677 2 -0.168507 35.1703 16.3743
678 2 3.79478 35.0531 16.5165
679 2 7.86623 34.9724 16.4644
680 2 11.6528 35.0487 16.5072
681 2 0.0370259 39.011 16.621
682 2 3.91097 38.9474 16.5564
683 2 7.65289 39.0202 16.4134
684 2 11.6852 39.0613 16.5027
685 2 -0.0915503 42.9808 16.4286
686 2 3.98537 42.9817 16.3848
687 2 7.88259 42.9982 16.4202
688 2 11.7183 42.9331 16.5968
689 2 15.6831 46.8936 16.2877
690 2 3.84882 47.0592 16.4307
691 2 7.88863 46.8116 16.5739
692 2 11.9585 46.8808 16.6381
693 2 0.0936313 50.8992 16.7276
694 2 3.90361 51.2331 16.6636
695 2 8.00153 51.0859 16.487
696 2 11.7828 50.9395 16.6591
697 2 0.0906606 54.9055 16.5978
698 2 3.99149 55.1098 16.5547
699 2 7.91551 55.1066 16.4969
700 2 11.9049 54.9375 16.4884
701 2 0.038655 58.9006 16.7532
702 2 3.87493 59.0752 16.5719
703 2 7.95828 59.1093 16.638
704 2 11.9797 58.9545 16.6175
705 2 -0.192226 63.0678 16.8759
706 2 3.92113 63.1604 16.8696
707 2 7.68738 63.0294 16.8299
708 2 11.6385 63.105 16.9241
709 2 0.100823 67.0572 16.802
710 2 3.86615 67.0613 16.6877
711 2 7.89941 67.0973 16.811
712 2 11.805 67.079 16.7224
713 2 0.0361486 71.1422 16.6969
714 2 3.80842 71.2105 16.8351
715 2 7.836 71.0793 16.8972
716 2 11.8721 71.2491 16.8775
717 2 -0.0817781 75.1668 16.9836
718 2 4.0037 75.2195 16.8777
719 2 7.91031 75.2175 17.0678
720 2 11.8342 75.2413 16.879
721 2 0.0136475 79.148 17.1181
722 2 3.99218 79.1184 17.0948
723 2 7.85239 79.143 17.0821
724 2 11.8527 79.2462 16.9981
725 2 0.055651 83.2594 16.9959
726 2 3.91644 82.99 17.194
727 2 7.91699 83.0914 17.1433
728 2 11.9376 83.1524 17.0021
729 2 -0.0961413 87.0297 17.2741
730 2 3.78284 87.1923 17.3492
731 2 7.91591 87.2751 17.2725
732 2 11.6971 87.2113 17.3008
733 2 -0.0564823 91.3392 17.3554
734 2 4.06352 91.2715 17.4102
735 2 7.69015 91.1506 17.316
736 2 11.8593 91.2524 17.4186
737 2 -0.0234394 95.5334 17.5095
738 2 3.94872 95.4546 17.2514
739 2 8.02933 95.4165 17.3488
740 2 11.8846 95.1844 17.3764
741 2 0.0626483 99.2503 17.4884
742 2 4.01734 99.2176 17.2407
743 2 7.96747 99.2021 17.3343
744 2 11.8318 99.2431 17.3571
745 2 -0.167845 103.171 17.4398
746 2 3.77415 103.27 17.08
747 2 7.93292 103.343 17.3715
748 2 11.9291 103.173 17.5462
749 2 0.116373 107.064 17.5009
750 2 3.88869 107.19 17.4736
751 2 7.71541 107.084 17.3914
752 2 11.8315 107.223 17.2303
753 2 -0.0713389 111.115 17.376
754 2 3.9994 111.297 17.2956
755 2 8.00248 111.097 17.3468
756 2 12.0783 111.003 17.3654
757 2 0.156443 115.167 17.1865
758 2 4.03512 115.233 17.2598
759 2 8.14469 115.002 17.3322
760 2 12.1499 114.874 17.2037
761 2 -0.00422805 119.13 17.2876
762 2 3.82097 118.983 17.1963
763 2 7.81501 118.876 17.2452
764 2 11.915 118.805 17.073
765 2 0.18614 122.956 17.2103
766 2 3.99497 122.834 17.1538
767 2 7.89219 122.832 17.2047
768 2 11.9022 122.735 17.2485
769 2 15.956 126.689 17.1583
770 2 4.04365 126.811 17.1434
771 2 7.98787 126.754 17.1701
772 2 11.7201 126.712 17.0483
773 2 15.7974 130.795 16.9558
774 2 3.95258 130.566 17.0535
775 2 8.02674 130.639 17.0094
776 2 11.9656 130.727 17.1091
777 2 15.9243 134.758 16.9675
778 2 3.95567 134.612 16.9123
779 2 8.0086 134.623 17.1231
780 2 11.8233 134.616 17.0587
781 2 -0.171643 138.591 16.882
782 2 3.97715 138.571 16.936
783 2 7.97148 138.51 17.0027
784 2 11.9306 138.541 17.0141
785 2 15.8533 142.365 16.7377
786 2 3.93428 142.433 16.9965
787 2 7.95531 142.555 16.8799
788 2 11.9125 142.44 16.9807
789 2 15.8948 146.385 16.8139
790 2 3.83839 146.428 16.6898
791 2 7.86283 146.31 16.8972
792 2 12.01 146.43 16.9946
793 2 15.9259 150.363 16.857
794 2 3.97888 150.151 16.7435
795 2 7.77406 150.332 16.9643
796 2 11.8751 150.18 16.7107
797 2 16.0049 154.165 16.8475
798 2 3.95492 154.184 16.787
799 2 7.89071 154.296 16.8675
800 2 11.8555 154.275 16.9208
801 2 16.0684 158.196 20.6429
802 2 4.22019 158.339 20.8709
803 2 8.08795 157.995 20.7933
804 2 12.126 158.019 20.7022
805 2 0.164367 3.54835 20.8432
806 2 4.03995 3.67646 20.8516
807 2 7.99268 3.51995 20.6968
808 2 11.8779 3.6784 20.5422
809 2 15.9404 7.63335 20.7738
810 2 3.98184 7.59266 20.7579
811 2 7.89974 7.54843 20.8093
812 2 11.8942 7.54566 20.8381
813 2 15.7995 11.4402 20.6846
814 2 4.07353 11.7489 20.6221
815 2 8.04417 11.5713 20.703
816 2 11.9007 11.5392 20.7603
817 2 16.0562 15.5418 20.6924
818 2 4.02478 15.398 20.7972
819 2 7.75411 15.5415 20.6444
820 2 12.0399 15.3563 20.5093
821 2 0.0213478 19.2115 20.6194
822 2 3.74649 19.4277 20.5258
823 2 7.90761 19.3272 20.5563
824 2 11.864 19.2964 20.6706
825 2 -0.0663191 23.2683 20.5862
826 2 3.86712 23.431 20.607
827 2 7.92451 23.3746 20.6262
828 2 11.6873 23.2491 20.6799
829 2 15.7402 27.1144 20.5138
830 2 4.06698 27.1371 20.3663
831 2 8.02507 27.1483 20.536
832 2 11.8461 27.0559 20.411
833 2 15.7493 30.9056 20.4285
834 2 3.77126 31.2214 20.5543
835 2 7.78152 31.1805 20.4688
836 2 11.749 31.1213 20.4325
837 2 15.8988 35.1777 20.3886
838 2 3.90525 35.2171 20.4688
839 2 7.89316 35.0227 20.3759
840 2 11.8902 34.9614 20.2672
841 2 -0.165145 39.1065 20.3474
842 2 3.98779 38.9713 20.412
843 2 7.96013 38.9433 20.4888
844 2 11.8441 39.096 20.4967
845 2 15.684 43.3012 20.4036
846 2 3.83516 42.8781 20.4357
847 2 7.64318 42.8723 20.4619
848 2 11.4927 42.9741 20.4282
849 2 15.7578 46.9911 20.4115
850 2 3.83509 46.9387 20.3751
851 2 7.83822 46.8859 20.387
852 2 11.8993 46.9393 20.4438
853 2 0.0626146 50.9862 20.7496
854 2 3.98967 50.9511 20.676
855 2 8.0779 51.0576 20.3374
856 2 11.8652 50.8566 20.5302
857 2 0.175567 55.0448 20.7145
858 2 4.08166 54.9648 20.6547
859 2 7.98127 54.9275 20.4418
860 2 12.1548 55.0971 20.672
861 2 15.9319 58.9125 20.6201
862 2 3.96852 59.0724 20.6872
863 2 8.03354 59.019 20.5432
864 2 11.7592 59.1223 20.772
865 2 15.8946 62.9892 20.5581
866 2 3.88409 63.0555 20.7147
867 2 8.05807 63.2063 20.7398
868 2 11.961 63.2516 20.7783
869 2 0.140515 67.2234 20.6307
870 2 3.96671 67.0408 20.5822
871 2 7.92259 67.243 20.769
872 2 11.7668 67.2307 20.773
873 2 0.0742242 71.1037 20.7027
874 2 4.0563 71.2374 20.8529
875 2 7.85974 71.0361 20.701
876 2 11.9661 71.0964 20.7704
877 2 -0.0598846 75.0892 20.7722
878 2 3.90449 75.2188 20.7273
879 2 8.09678 75.0605 20.8476
880 2 11.8911 75.2485 20.8
881 2 0.00598018 79.1234 21.0844
882 2 3.92763 79.3444 20.9665
883 2 7.91341 79.2414 21.0006
884 2 12.0296 79.3223 20.9182
885 2 0.0417121 83.0795 21.0616
886 2 3.89345 83.0673 21.0973
887 2 7.89706 83.2702 21.0598
888 2 11.7512 83.4137 21.0621
889 2 -0.131483 87.0693 21.1897
890 2 3.99679 87.1471 21.0368
891 2 7.81782 87.0999 21.019
892 2 11.8457 87.1203 21.3454
893 2 -0.104772 91.3006 21.0533
894 2 3.92347 91.2596 21.1261
895 2 8.07035 91.3142 21.2783
896 2 11.949 91.2571 21.3423
897 2 -0.0771233 95.2226 21.4092
898 2 3.98911 95.1031 21.1237
899 2 7.80785 95.1674 21.2684
900 2 11.5827 95.2487 21.0958
901 2 -0.0608794 99.2237 21.4139
902 2 3.75214 99.3974 21.3116
903 2 7.72364 99.3658 21.2046
904 2 11.7792 99.3404 21.2891
905 2 -0.171138 103.414 21.3762
906 2 3.83901 103.232 21.4921
907 2 7.77444 103.171 21.4976
908 2 11.6175 103.107 21.4914
909 2 -0.147651 107.28 21.3111
910 2 3.82812 107.247 21.3657
911 2 7.74469 107.147 21.2191
912 2 11.6793 107.113 21.3831
913 2 -0.100394 111.194 21.4191
914 2 4.04675 111.082 21.159
915 2 7.85035 111.238 21.353
916 2 11.7076 111.032 21.3451
917 2 15.8379 114.996 21.3724
918 2 3.8154 114.964 21.133
919 2 7.80209 114.937 21.2776
920 2 11.839 115.108 21.2395
921 2 -0.153966 119.041 21.1992
922 2 3.74861 119.059 21.2791
923 2 7.90615 119.006 21.2348
924 2 11.8972 118.803 21.2358
925 2 15.9164 123.017 21.0912
926 2 3.94042 122.908 21.1855
927 2 7.94474 122.922 21.1472
928 2 11.8966 122.972 21.3353
929 2 15.9197 126.641 21.1883
930 2 3.92226 126.948 20.9697
931 2 7.88814 126.813 21.2379
932 2 11.8579 126.766 21.2108
933 2 15.8995 130.87 21.0535
934 2 3.88595 130.811 20.9057
935 2 7.76292 131.015 21.0317
936 2 11.892 130.74 21.0239
937 2 0.0887909 134.698 21.0039
938 2 4.11459 134.905 20.9121
939 2 8.02943 134.648 21.1949
940 2 11.7757 134.677 21.1076
941 2 16.0864 138.611 20.8746
942 2 4.00295 138.578 20.762
943 2 7.91272 138.63 21.1035
944 2 12.2829 138.533 21.008
945 2 15.9169 142.558 20.9939
946 2 4.05234 142.439 20.9111
947 2 7.95323 142.453 20.9333
948 2 11.9613 142.57 21.0076
949 2 15.8998 146.422 21.0165
950 2 3.8875 146.46 20.7047
951 2 8.04464 146.449 20.9741
952 2 12.0127 146.513 20.9745
953 2 15.9067 150.398 20.916
954 2 3.95854 150.476 20.9318
955 2 7.97053 150.249 20.7855
956 2 11.9479 150.29 20.8585
957 2 15.9535 154.186 20.9477
958 2 3.973 154.372 20.9676
959 2 8.03229 154.083 20.6077
960 2 12.1762 154.077 20.7706
961 2 -0.0731248 158.188 25.0727
962 2 3.93411 158.005 24.6899
963 2 8.16766 158.149 24.8223
964 2 11.9712 158.102 24.8257
965 2 15.8387 3.71444 24.7653
966 2 4.02427 3.83217 24.8427
967 2 7.99343 3.80122 24.7995
968 2 11.9401 3.80472 24.8502
969 2 15.9317 7.64174 24.895
970 2 3.90932 7.54793 24.7261
971 2 8.09965 7.82841 24.6547
972 2 12.1265 7.60984 24.9389
973 2 15.8782 11.6088 24.7435
974 2 3.92133 11.5308 24.7085
975 2 8.08507 11.559 24.8501
976 2 12.0911 11.663 24.8629
977 2 0.0436941 15.6492 24.743
978 2 4.13825 15.4127 24.6586
979 2 8.04345 15.5517 24.8138
980 2 11.8435 15.4028 24.8437
981 2 -0.0716686 19.5043 24.6561
982 2 3.87242 19.5336 24.5539
983 2 7.91042 19.263 24.6861
984 2 11.8828 19.4938 24.647
985 2 -0.10356 23.3032 24.6385
986 2 3.88751 23.2679 24.5308
987 2 7.90901 23.2628 24.6849
988 2 11.78 23.2119 24.6535
989 2 -0.250587 27.3216 24.4675
990 2 3.85721 27.3075 24.5131
991 2 7.79659 27.3963 24.5541