ITEM: TIMESTEP
19700
ITEM: NUMBER OF ATOMS
32000
ITEM: BOX BOUNDS xy xz yz pp pp pp
0.0000000000000000e+00 1.5832000000000001e+01 0.0000000000000000e+00
0.0000000000000000e+00 1.5831999999999999e+02 0.0000000000000000e+00
8.2004217075433417e-01 1.6015707582924253e+02 0.0000000000000000e+00
ITEM: ATOMS id type x y z
1 2 15.97 157.957 159.943
2 2 4.08556 157.976 160.011
3 2 8.1055 157.813 159.965
4 2 12.0694 157.889 159.764
5 2 0.114348 3.43606 159.956
6 2 4.07502 3.52675 159.898
7 2 8.00779 3.56764 159.917
8 2 12.0305 3.40233 160.005
9 2 15.8305 7.3679 160.044
10 2 3.95807 7.35557 159.972
11 2 8.00669 7.40099 159.937
12 2 11.8254 7.47836 160.031
13 2 15.7063 11.1426 159.749
14 2 3.79402 11.1483 159.98
15 2 7.77521 11.2442 159.938
16 2 11.8546 11.405 159.921
17 2 -0.105594 15.2731 159.767
18 2 3.75291 15.2201 159.813
19 2 7.68182 15.2693 159.852
20 2 11.7864 15.2175 159.651
21 2 15.8301 19.0091 159.605
22 2 4.1515 18.8577 159.621
23 2 7.98494 19.0327 159.594
24 2 11.9775 18.9825 159.76
25 2 15.8185 23.0867 159.626
26 2 3.98105 23.1043 159.676
27 2 7.77297 23.1794 159.843
28 2 11.9234 23.0868 159.818
29 2 15.9151 27.1263 160.062
30 2 3.90842 27.0902 159.708
31 2 7.8201 26.9566 159.92
32 2 11.7448 27.1301 159.888
33 2 15.7594 31.2173 159.799
34 2 3.9476 31.0884 0.432426
35 2 7.92814 31.241 160.221
36 2 11.9947 31.1785 159.922
37 2 -0.124244 35.1231 160.185
38 2 3.96304 35.1102 160.045
39 2 7.77295 35.1873 160.155
40 2 11.9812 35.17 159.904
41 2 0.014653 39.3167 160.21
42 2 4.05801 39.2248 0.814901
43 2 7.87376 39.163 0.532937
44 2 11.6233 39.2854 0.641567
45 2 -0.181867 43.3894 160.201
46 2 4.06033 43.2467 160.187
47 2 7.9759 43.3285 0.672085
48 2 11.9283 43.392 0.75755
49 2 -0.200748 47.363 0.585577
50 2 4.06507 47.2949 0.745151
51 2 7.93345 47.3044 0.799934
52 2 11.7653 47.5333 0.924076
53 2 0.0650809 51.3901 1.01991
54 2 3.99273 51.219 0.808771
55 2 8.0084 51.4633 1.08097
56 2 11.8127 51.4053 0.846974
57 2 15.5917 55.3749 0.884996
58 2 3.92976 55.4834 1.08934
59 2 7.79741 55.6143 0.872328
60 2 11.8003 55.4405 0.826115
61 2 -0.031319 59.3957 1.03229
62 2 3.91993 59.3822 0.920931
63 2 7.83553 59.4117 1.03105
64 2 11.8337 59.297 0.885391
65 2 0.0379713 63.5009 1.03592
66 2 3.93346 63.5165 1.05987
67 2 8.02971 63.3035 1.18343
68 2 11.8793 63.53 0.89466
69 2 15.7909 67.5489 0.964039
70 2 3.87334 67.4559 1.08691
71 2 7.67379 67.5061 1.012
72 2 11.9167 67.4011 0.963759
73 2 -0.0778652 71.447 1.23142
74 2 3.89839 71.4679 1.16067
75 2 7.76573 71.4252 1.18666
76 2 11.7547 71.5863 1.29679
77 2 -0.157494 75.4102 1.46784
78 2 3.88054 75.4438 1.25334
79 2 7.94202 75.3552 1.32407
80 2 11.8682 75.3681 1.186
81 2 -0.128745 79.6096 1.43758
82 2 4.01173 79.4529 1.33897
83 2 7.92266 79.5895 1.39916
84 2 11.8618 79.5252 1.43823
85 2 0.0637141 83.4606 1.63348
86 2 3.96818 83.5071 1.66872
87 2 7.86468 83.2914 1.5951
88 2 11.7695 83.3824 1.61264
89 2 -0.093199 87.2946 1.55419
90 2 4.035 87.442 1.34373
91 2 7.85294 87.3421 1.64479
92 2 11.8695 87.2505 1.45198
93 2 0.0843677 91.4101 1.60387
94 2 4.1258 91.4036 1.38715
95 2 8.06763 91.3377 1.71896
96 2 11.8088 91.3472 1.51686
97 2 15.9102 95.4137 1.35031
98 2 3.93772 95.5058 1.35847
99 2 8.04018 95.3095 1.21134
100 2 12.024 95.2767 1.37337
101 2 0.123159 99.1849 1.11231
102 2 3.97917 99.1221 1.42154
103 2 7.82157 99.2718 1.44381
104 2 11.9629 99.238 1.33129
105 2 0.0333314 103.023 1.18786
106 2 4.0071 103.12 1.27434
107 2 7.96664 103.154 1.30473
108 2 11.923 103.053 1.17162
109 2 -0.118283 106.93 1.24384
110 2 3.82121 106.844 1.08424
111 2 7.84328 106.88 1.2047
112 2 11.8746 106.987 1.2797
113 2 -0.0206023 110.847 1.23069
114 2 3.98249 110.842 1.28231
115 2 8.11907 111.022 1.19086
116 2 11.8641 110.887 1.23457
117 2 15.8201 114.617 1.18012
118 2 4.05492 114.914 1.02031
119 2 7.91321 114.748 1.19282
120 2 11.8545 115.002 0.980236
121 2 -0.0422004 118.534 1.01616
122 2 3.92077 118.756 0.994077
123 2 7.86716 118.67 1.071
124 2 11.8019 118.62 1.07819
125 2 15.9134 122.65 1.14976
126 2 3.95115 122.705 0.993665
127 2 7.87036 122.618 1.06453
128 2 11.9655 122.662 1.01453
129 2 0.22861 126.343 0.999005
130 2 4.1406 126.555 0.937289
131 2 8.08221 126.506 0.96457
132 2 11.7437 126.654 0.884755
133 2 16.0024 130.344 0.819984
134 2 4.11351 130.646 0.994893
135 2 7.99084 130.181 1.01948
136 2 12.0459 130.205 0.914102
137 2 16.1289 134.232 0.940151
138 2 4.16058 134.232 0.78972
139 2 8.16935 134.312 160.305
140 2 12.1665 134.311 0.912051
141 2 0.0624742 138.215 1.08831
142 2 4.0633 138.141 160.343
143 2 8.02627 138.188 160.251
144 2 12.0047 138.311 0.872904
145 2 15.7902 142.256 160.106
146 2 4.27873 142.268 160.066
147 2 7.91064 142.25 160.315
148 2 11.9541 142.309 160.204
149 2 0.413262 146.134 160.085
150 2 3.98309 146.194 160.271
151 2 7.73129 146.212 160.24
152 2 11.8665 146.341 160.232
153 2 15.9939 150.158 159.944
154 2 3.93195 150.073 160.231
155 2 8.0182 150.167 159.971
156 2 11.8194 150.135 0.720302
157 2 15.9445 154.025 160.103
158 2 3.84275 153.895 160.117
159 2 7.90883 153.859 159.867
160 2 11.9978 153.918 159.978
161 2 15.914 157.935 4.76343
162 2 4.02239 157.836 4.62934
163 2 7.93054 158.058 4.48689
164 2 11.9444 157.955 4.71575
165 2 0.137337 3.5102 4.68258
166 2 4.15085 3.3938 4.65882
167 2 7.95579 3.57097 4.58623
168 2 12.0641 3.49416 4.67538
169 2 0.0900187 7.30337 4.62588
170 2 4.07826 7.53232 4.5308
171 2 8.07283 7.35544 4.78839
172 2 11.9125 7.46305 4.54243
173 2 -0.0755012 11.4166 4.65852
174 2 3.8881 11.4544 4.45765
175 2 7.95263 11.2569 4.58775
176 2 11.9223 11.2977 4.35382
177 2 15.6194 15.3732 4.31459
178 2 3.91292 15.2219 4.55375
179 2 7.89952 15.2833 4.49552
180 2 11.8668 15.2594 4.4653
181 2 -0.0498955 19.2272 4.3882
182 2 3.85981 19.0901 4.44983
183 2 7.91589 19.3469 4.41478
184 2 11.6276 19.2568 4.66242
185 2 0.0906178 23.005 4.25627
186 2 3.92704 22.799 4.37963
187 2 7.80761 23.0048 4.3328
188 2 11.7395 22.7522 4.33897
189 2 15.8365 27.0948 4.47648
190 2 3.88728 26.9396 4.4817
191 2 7.96192 27.0278 4.51958
192 2 11.8593 27.0383 4.38871
193 2 0.165559 31.0759 4.4759
194 2 3.82289 31.0347 4.46605
195 2 7.91263 31.126 4.54662
196 2 11.8084 30.9572 4.62732
197 2 0.0749548 35.1591 4.57909
198 2 3.96526 34.9889 4.55157
199 2 7.71081 35.0519 4.63543
200 2 11.7379 35.0357 4.63874
201 2 15.7879 39.0646 4.67981
202 2 3.94435 39.0497 4.62203
203 2 7.87211 39.1056 4.68929
204 2 11.6627 39.1096 4.47662
205 2 0.161275 43.2956 4.70351
206 2 4.17586 43.191 4.64108
207 2 8.0394 43.108 4.63486
208 2 11.9704 43.0643 4.78762
209 2 0.0863963 47.333 4.52552
210 2 3.83918 47.3398 4.72295
211 2 7.89313 47.0826 4.73672
212 2 11.9329 47.1804 4.88929
213 2 0.0857499 51.1712 4.86666
214 2 3.9174 51.1052 4.80952
215 2 8.01746 51.1602 4.91465
216 2 11.8575 51.2793 4.87497
217 2 -0.0741165 55.3636 4.83361
218 2 3.82272 55.2236 4.88456
219 2 7.83122 55.2783 4.74446
220 2 11.6874 55.4524 4.83787
221 2 15.719 59.2659 4.89165
222 2 3.83672 59.4454 5.04021
223 2 7.73003 59.4547 4.90282
224 2 11.7343 59.2425 4.86494
225 2 -0.146743 63.2469 4.95799
226 2 3.90977 63.2488 4.98968
227 2 7.99881 63.2907 4.88587
228 2 11.7203 63.3293 4.93786
229 2 15.7696 67.2746 4.94731
230 2 3.84543 67.528 4.96613
231 2 7.67147 67.3925 4.9276
232 2 11.708 67.2653 4.87663
233 2 15.739 71.3299 5.08312
234 2 3.90108 71.2008 5.15008
235 2 7.94493 71.3764 5.09505
236 2 11.8401 71.3834 5.08883
237 2 15.9009 75.3569 5.29888
238 2 3.99536 75.3081 5.08373
239 2 7.77824 75.3077 5.13538
240 2 11.8632 75.3064 5.18808
241 2 -0.18454 79.3909 5.18837
242 2 3.75506 79.3388 5.37454
243 2 7.82403 79.4051 5.19553
244 2 11.7742 79.4926 5.14158
245 2 15.8845 83.381 5.56306
246 2 3.92607 83.5869 5.49891
247 2 7.67132 83.4402 5.40894
248 2 11.8708 83.6687 5.54092
249 2 -0.029916 87.3725 5.43537
250 2 3.9233 87.5017 5.71092
251 2 7.74578 87.4899 5.56002
252 2 11.7778 87.5118 5.52326
253 2 0.126777 91.1704 5.28686
254 2 3.87378 91.4762 5.31334
255 2 7.83118 91.394 5.42376
256 2 11.8687 91.2463 5.58852
257 2 15.8391 95.2758 5.2304
258 2 4.1487 95.3206 5.25136
259 2 7.93987 95.0225 5.216
260 2 11.863 95.1244 5.45801
261 2 0.0463389 99.2106 5.45166
262 2 3.91458 99.1032 5.35622
263 2 7.92951 99.2361 5.44074
264 2 11.7648 99.203 5.45976
265 2 -0.0405666 103.09 5.31952
266 2 3.98965 103.086 5.328
267 2 7.92164 103.176 5.41973
268 2 12.1338 102.921 5.26288
269 2 15.9654 106.991 5.26036
270 2 3.92182 107.19 5.29345
271 2 7.9697 106.871 5.30557
272 2 11.9282 106.929 5.21034
273 2 15.7199 110.914 5.26593
274 2 4.04206 111.052 5.25699
275 2 7.92166 110.877 5.22604
276 2 11.9519 110.912 5.01581
277 2 -0.208166 114.831 5.24254
278 2 3.92769 114.959 5.11828
279 2 8.22444 114.832 5.22397
280 2 12.0069 114.728 5.26558
281 2 -0.0892882 118.636 5.0656
282 2 4.118 118.872 5.00938
283 2 8.06436 118.796 5.36869
284 2 11.9034 118.579 5.16986
285 2 15.9138 122.669 5.00671
286 2 4.14681 122.625 5.09616
287 2 7.97599 122.651 5.02261
288 2 12.021 122.681 5.0288
289 2 -0.0621177 126.568 5.03075
290 2 3.90028 126.682 5.0449
291 2 7.83346 126.598 5.16013
292 2 11.6656 126.596 5.07834
293 2 -0.0639406 130.38 4.93301
294 2 3.9081 130.588 4.95821
295 2 8.19935 130.551 5.06671
296 2 11.8582 130.576 4.86016
297 2 15.8551 134.489 5.04488
298 2 4.00244 134.35 4.90055
299 2 7.83948 134.376 4.90149
300 2 12.0187 134.416 4.97309
301 2 0.0221582 138.539 4.71409
302 2 4.15268 138.335 4.96155
303 2 7.85816 138.103 4.76784
304 2 11.8005 138.345 5.03228
305 2 -0.00875252 142.384 4.89006
306 2 3.95662 142.28 4.96962
307 2 8.00191 142.341 4.78727
308 2 11.8555 142.183 4.81277
309 2 15.8862 146.139 4.82177
310 2 3.87882 146.069 4.78363
311 2 8.0694 146.154 4.756
312 2 11.8057 146.318 4.6364
313 2 15.7352 150.194 4.77523
314 2 4.13502 149.992 4.84494
315 2 7.926 150.259 4.80085
316 2 11.8589 150.151 4.97276
317 2 16.0161 153.982 4.7698
318 2 4.02696 153.943 4.74443
319 2 7.87105 154.05 4.65404
320 2 11.8863 154.024 4.88326
321 2 15.8868 158.005 8.81501
322 2 3.93084 157.949 8.74225
323 2 8.00748 158.072 8.82309
324 2 12.0188 158.051 8.74825
325 2 15.9752 3.71072 8.71008
326 2 4.03137 3.38619 8.76259
327 2 7.87472 3.4473 8.55208
328 2 11.9043 3.60927 8.60965
329 2 15.9103 7.38426 8.66963
330 2 3.93209 7.31442 8.64129
331 2 7.85154 7.48255 8.60536
332 2 11.9445 7.4269 8.79739
333 2 0.160647 11.2233 8.57388
334 2 4.05371 11.2333 8.62448
335 2 7.94534 11.3403 8.60127
336 2 11.6965 11.4598 8.56889
337 2 15.8098 15.3393 8.41067
338 2 3.89112 15.312 8.60406
339 2 7.87463 15.3352 8.56368
340 2 11.7841 15.1351 8.44887
341 2 -0.296739 19.2441 8.37593
342 2 3.99957 19.1816 8.47656
343 2 7.9695 19.0109 8.50087
344 2 11.9485 19.4625 8.56295
345 2 -0.0324445 23.1851 8.34981
346 2 3.79109 23.0957 8.45393
347 2 7.85421 23.0912 8.39826
348 2 11.8441 23.247 8.36443
349 2 -0.166529 27.0614 8.50313
350 2 4.03927 27.1093 8.32875
351 2 7.96377 27.1338 8.37391
352 2 11.8467 26.9588 8.26157
353 2 -0.19251 31.1448 8.42406
354 2 3.7171 30.978 8.52559
355 2 7.7821 30.9178 8.44288
356 2 11.5911 31.0662 8.56191
357 2 15.769 35.0682 8.71332
358 2 4.00613 34.9691 8.4097
359 2 7.82716 34.9694 8.53702
360 2 11.638 35.1935 8.44187
361 2 -0.117133 39.0353 8.45112
362 2 3.88348 39.094 8.5841
363 2 7.60316 38.9332 8.47196
364 2 11.6996 39.1823 8.68011
365 2 -0.00158431 43.0499 8.68777
366 2 3.68859 43.0803 8.71048
367 2 7.7538 43.0261 8.48152
368 2 12.0735 43.0963 8.68488
369 2 -0.00242433 47.0148 8.40307
370 2 3.9272 47.2763 8.52069
371 2 7.74102 47.1916 8.70954
372 2 11.7997 46.9983 8.65778
373 2 15.8426 51.2219 8.66391
374 2 3.66461 51.0822 8.64112
375 2 7.71957 51.1355 8.76596
376 2 11.9113 51.1371 8.83688
377 2 15.7438 55.2016 8.74212
378 2 3.85493 55.2352 8.71855
379 2 7.8516 55.0694 8.78749
380 2 11.8291 55.1795 8.63985
381 2 -0.0854941 59.3295 8.86407
382 2 3.77907 59.3517 8.89739
383 2 7.93685 59.2465 8.8824
384 2 11.7205 59.2244 8.82992
385 2 -0.0666336 63.3196 8.92761
386 2 3.84363 63.329 8.98839
387 2 7.74144 63.2965 8.88628
388 2 11.7935 63.1461 8.74976
389 2 15.8769 67.2556 8.91266
390 2 3.91901 67.2462 8.96783
391 2 7.95972 67.1666 9.07425
392 2 11.8939 67.0847 9.04877
393 2 15.7765 71.1916 9.07379
394 2 3.90346 71.4153 8.93371
395 2 7.88817 71.1788 9.00569
396 2 11.8449 71.2176 9.07832
397 2 15.6689 75.0874 9.0695
398 2 4.09559 75.2195 9.2647
399 2 7.74738 75.3448 9.17574
400 2 11.7538 75.2618 9.2494
401 2 15.6257 79.3382 9.05381
402 2 3.75971 79.3764 9.31919
403 2 7.7111 79.3561 9.066
404 2 11.6355 79.322 9.01714
405 2 -0.0642819 83.3006 9.38294
406 2 3.85336 83.4987 9.4628
407 2 7.87096 83.2833 9.22679
408 2 11.7625 83.5344 9.19807
409 2 -0.120981 87.4914 9.40935
410 2 3.95115 87.4576 9.42177
411 2 7.92928 87.6173 9.65576
412 2 11.8017 87.3035 9.42772
413 2 -0.23169 91.2962 9.37378
414 2 3.76929 91.5101 9.56918
415 2 7.78869 91.509 9.62301
416 2 11.6903 91.2653 9.35353
417 2 15.7838 95.2371 9.29402
418 2 3.89876 95.4344 9.51948
419 2 7.87935 95.4144 9.43905
420 2 11.857 95.0593 9.35616
421 2 15.8655 99.2635 9.4241
422 2 3.86594 99.2254 9.31621
423 2 8.08994 99.176 9.38978
424 2 11.9308 99.153 9.46178
425 2 0.232833 103.143 9.48654
426 2 4.02522 103.309 9.37367
427 2 8.02761 103.075 9.36452
428 2 12.0529 103.398 9.32858
429 2 0.054237 107.323 9.25899
430 2 4.10044 107.058 9.34177
431 2 7.93516 107.018 9.22558
432 2 11.9037 107.126 9.3284
433 2 16.0139 111.014 9.42178
434 2 4.11535 111.109 9.19803
435 2 7.96042 110.914 9.37533
436 2 11.8768 111.083 9.40146
437 2 0.180441 114.821 9.29384
438 2 4.01672 114.933 9.19283
439 2 7.95864 115.196 9.1555
440 2 11.9507 114.977 9.22514
441 2 0.0405125 118.851 9.15572
442 2 4.1123 118.748 9.12315
443 2 7.9716 118.758 9.18743
444 2 12.0241 118.699 9.2423
445 2 16.1173 122.813 9.10277
446 2 4.30816 122.781 9.08481
447 2 8.08605 122.523 9.03011
448 2 11.9022 122.585 9.1422
449 2 15.909 126.667 8.95763
450 2 3.90205 126.575 8.90904
451 2 8.02152 126.554 9.13402
452 2 12.0188 126.499 9.18954
453 2 0.14889 130.614 8.99229
454 2 4.20979 130.453 8.9675
455 2 7.94821 130.574 9.09902
456 2 11.9692 130.654 8.91723
457 2 0.104356 134.571 8.90352
458 2 3.92452 134.374 8.74085
459 2 7.90751 134.558 9.04062
460 2 12.0084 134.61 8.91517
461 2 0.116314 138.371 8.79594
462 2 4.10591 138.314 9.00242
463 2 8.26348 138.569 8.75708
464 2 12.101 138.507 8.89545
465 2 0.150287 142.153 8.8472
466 2 4.04365 142.284 8.90598
467 2 8.03144 142.411 8.84085
468 2 11.9355 142.464 8.89547
469 2 15.9243 146.218 8.75974
470 2 4.01755 146.244 8.81118
471 2 8.07705 146.265 8.79244
472 2 12.1722 146.325 8.78167
473 2 16.0572 150.064 8.58457
474 2 4.02638 150.08 8.85305
475 2 7.97366 150.229 8.78726
476 2 12.0728 150.261 8.83788
477 2 16.084 154.095 8.75717
478 2 4.0167 154.102 8.76799
479 2 7.87184 154.14 8.67058
480 2 11.9069 154.201 9.06368
481 2 16.0034 158.021 12.6593
482 2 4.13786 157.955 12.739
483 2 8.03523 158.102 12.9589
484 2 11.9779 158.156 12.8191
485 2 15.8136 3.5514 12.709
486 2 4.12194 3.68853 12.6992
487 2 8.00356 3.53321 12.6913
488 2 11.8085 3.70071 12.8386
489 2 15.8339 7.40921 12.8133
490 2 4.13906 7.50386 12.7205
491 2 8.00905 7.58175 12.598
492 2 12.1109 7.56675 12.7439
493 2 -0.183544 11.6202 12.4332
494 2 3.9949 11.3396 12.6599
495 2 8.10067 11.544 12.4935
496 2 11.9499 11.4542 12.5013
497 2 -0.117239 15.4332 12.5215
498 2 3.95213 15.3657 12.5859
499 2 7.98109 15.5561 12.5863
500 2 11.9605 15.5965 12.715
501 2 -0.163915 19.1578 12.4335
502 2 3.7504 19.4423 12.5273
503 2 8.09525 19.1159 12.4997
504 2 11.7623 19.3632 12.4147
505 2 0.132673 23.4583 12.4651
506 2 3.77731 23.2906 12.3376
507 2 7.64493 23.3195 12.4642
508 2 11.9025 23.2467 12.2018
509 2 -0.053074 27.2171 12.5594
510 2 3.88358 27.033 12.2392
511 2 7.9375 27.0774 12.5426
512 2 11.9072 27.0856 12.3899
513 2 -0.15758 31.0411 12.3479
514 2 3.84965 30.9008 12.4222
515 2 7.8689 30.9569 12.1388
516 2 11.5846 31.001 12.4557
517 2 -0.275124 35.0484 12.5145
518 2 3.9043 34.9812 12.2818
519 2 7.63383 35.0163 12.3994
520 2 11.6341 35.0307 12.6188
521 2 -0.198826 39.0432 12.3701
522 2 3.84445 39.0317 12.4361
523 2 7.76171 39.0802 12.4793
524 2 11.5647 39.0056 12.4192
525 2 -0.153365 43.0496 12.5437
526 2 3.83014 43.0086 12.6176
527 2 7.94731 43.1359 12.456
528 2 11.7255 43.067 12.4221
529 2 -0.0290116 46.948 12.6193
530 2 3.81462 46.9672 12.6452
531 2 7.82592 47.0716 12.5713
532 2 11.9189 47.0922 12.7988
533 2 -0.00682703 51.0353 12.5572
534 2 3.88548 51.0139 12.6528
535 2 7.92485 50.8588 12.8506
536 2 11.8653 51.0596 12.7021
537 2 15.8224 55.1519 12.6925
538 2 3.89572 55.0358 12.6477
539 2 7.88926 54.9805 12.5837
540 2 11.8073 55.1522 12.602
541 2 15.861 58.9969 12.7535
542 2 3.86094 59.1112 12.7644
543 2 7.79189 59.2021 12.8364
544 2 11.8416 59.1303 12.6409
545 2 15.7228 63.2035 12.9021
546 2 4.01473 63.1793 12.7862
547 2 7.89558 63.0485 12.8014
548 2 11.7639 63.2767 12.9795
549 2 -0.0931473 67.1253 12.9954
550 2 3.87913 67.1113 12.9577
551 2 7.67129 67.0877 12.8771
552 2 11.7453 67.2177 12.7869
553 2 -0.0236979 71.2965 13.0509
554 2 3.92994 71.0953 12.9834
555 2 7.84774 71.1402 12.9924
556 2 11.8191 71.2072 12.995
557 2 -0.183922 75.2607 13.1393
558 2 3.90433 75.1556 13.1679
559 2 7.85757 75.3082 13.0774
560 2 11.7326 75.3207 12.9168
561 2 -0.136368 79.3498 12.998
562 2 3.76609 79.1847 13.1322
563 2 7.84828 79.4429 12.901
564 2 11.8959 79.3082 13.0207
565 2 -0.222276 83.4894 13.1428
566 2 3.85275 83.2437 13.1782
567 2 7.662 83.2966 13.2323
568 2 11.7967 83.2184 13.2391
569 2 -0.127591 87.2944 13.3704
570 2 3.93498 87.4144 13.4135
571 2 7.98246 87.3852 13.4391
572 2 11.7296 87.3495 13.4582
573 2 -0.0682196 91.2985 13.3334
574 2 3.78245 91.6683 13.4947
575 2 7.77619 91.4524 13.4191
576 2 11.7963 91.4336 13.5684
577 2 -0.0064615 95.305 13.5282
578 2 3.81942 95.4362 13.3733
579 2 7.70319 95.3108 13.38
580 2 11.9732 95.3607 13.5644
581 2 0.00908923 99.1901 13.3163
582 2 3.96282 99.1386 13.3295
583 2 7.84185 99.3058 13.3431
584 2 11.8151 99.0718 13.5134
585 2 0.0169277 103.004 13.3712
586 2 4.19125 103.288 13.3964
587 2 8.04464 103.041 13.5033
588 2 11.6895 103.255 13.2877
589 2 -0.107135 107.017 13.0662
590 2 3.89035 107.108 13.3914
591 2 7.85204 107.376 13.3398
592 2 11.9809 107.041 13.3699
593 2 0.0627664 111.077 13.2338
594 2 4.01479 111.04 13.4336
595 2 8.01733 111.057 13.3952
596 2 11.8505 111.257 13.2537
597 2 0.121309 115.136 13.2374
598 2 3.91118 115.022 13.2134
599 2 7.91904 115.042 13.3409
600 2 11.9015 115.013 13.3
601 2 -0.013599 119.038 12.9933
602 2 4.02088 118.947 13.2479
603 2 7.96036 118.917 13.1407
604 2 11.9468 118.872 13.2873
605 2 0.041272 122.77 13.1463
606 2 4.12198 122.767 13.1033
607 2 7.95388 122.844 13.0874
608 2 11.7251 122.786 13.1529
609 2 -0.00121798 126.669 12.8838
610 2 3.88561 126.599 13.1216
611 2 7.91154 126.655 13.1162
612 2 11.8473 126.822 13.1837
613 2 16.0705 130.506 13.1357
614 2 4.15276 130.534 13.0851
615 2 8.07237 130.522 12.9098
616 2 12.0153 130.739 13.0394
617 2 16.2187 134.605 12.935
618 2 4.08897 134.428 12.8704
619 2 8.11748 134.518 12.8178
620 2 12.0363 134.408 12.9234
621 2 0.0850652 138.474 12.9447
622 2 3.94307 138.4 12.8709
623 2 8.22118 138.479 12.9101
624 2 11.9558 138.643 13.0541
625 2 16.0845 142.371 12.7745
626 2 4.05746 142.367 12.8313
627 2 7.94296 142.399 13.0188
628 2 12.0623 142.394 13.0219
629 2 0.0914845 146.257 12.9065
630 2 4.07455 146.141 12.7106
631 2 7.96622 146.218 12.7966
632 2 11.9511 146.224 12.7114
633 2 0.00754197 150.217 12.7501
634 2 3.82897 150.171 12.8304
635 2 7.88159 150.153 12.9514
636 2 11.788 150.003 12.7388
637 2 15.8775 154.081 12.7082
638 2 4.12228 154.227 12.824
639 2 7.91839 154.091 12.7954
640 2 11.8362 154.116 12.9088
641 2 0.226502 158.162 16.6132
642 2 4.10279 -0.112461 16.7521
643 2 8.11617 158.194 16.7936
644 2 11.9719 157.941 16.8469
645 2 15.7612 3.73791 16.7591
646 2 3.85578 3.60272 16.8356
647 2 8.14374 3.80183 16.8585
648 2 11.9378 3.62404 16.8435
649 2 -0.0255218 7.63411 16.6506
650 2 3.92668 7.71218 16.7408
651 2 7.95966 7.74325 16.6098
652 2 11.9811 7.59594 16.6778
653 2 0.12319 11.6146 16.7466
654 2 3.93754 11.6541 16.8103
655 2 8.08209 11.5068 16.5427
656 2 11.8531 11.5064 16.5894
657 2 -0.0301482 15.6169 16.6311
658 2 4.03484 15.5468 16.6371
659 2 8.06139 15.4029 16.4663
660 2 11.8588 15.4292 16.7536
661 2 16.0654 19.3899 16.5261
662 2 4.16259 19.4246 16.6443
663 2 7.95135 19.4008 16.6896
664 2 11.8216 19.4647 16.7176
665 2 0.0555285 23.3142 16.3216
666 2 3.74576 23.1813 16.5074
667 2 7.87804 23.2514 16.5113
668 2 11.9841 23.3079 16.6588
669 2 -0.101474 27.0929 16.5264
670 2 3.85534 27.3685 16.4601
671 2 7.78852 27.029 16.5226
672 2 11.8495 27.1881 16.6132
673 2 -0.0557689 31.1077 16.503
674 2 3.90227 31.2917 16.4034
675 2 7.74774 31.1908 16.3346
676 2 11.8936 31.07 16.5047
677 2 -0.2952 35.2386 16.3595
678 2 3.87199 35.2528 16.3939
679 2 7.72604 35.0038 16.4389
680 2 11.7486 34.9707 16.3471
681 2 -0.381207 39.11 16.3857
682 2 3.67227 38.9506 16.3592
683 2 7.82677 38.9212 16.4326
684 2 11.759 38.992 16.4677
685 2 -0.0810835 42.8989 16.3922
686 2 3.78951 42.8769 16.3499
687 2 7.80202 42.9282 16.4041
688 2 11.7765 42.9541 16.3389
689 2 15.8672 47.1849 16.6601
690 2 4.02272 46.9771 16.5849
691 2 7.79999 47.2104 16.3221
692 2 11.8308 46.9475 16.4673
693 2 -0.144482 51.0921 16.5957
694 2 3.90975 51.0006 16.6725
695 2 8.02569 50.9852 16.5945
696 2 11.8742 51.103 16.6276
697 2 -0.104233 55.0173 16.7542
698 2 4.04382 54.9369 16.6515
699 2 8.04848 55.14 16.5225
700 2 11.9005 54.989 16.6031
701 2 -0.212589 59.1945 16.7703
702 2 3.94281 58.9341 16.8308
703 2 7.85731 59.1308 16.7658
704 2 11.5873 59.1221 16.856
705 2 -0.180588 63.0536 16.6389
706 2 3.89583 62.8873 16.6977
707 2 8.09475 63.0058 16.773
708 2 11.9025 63.0715 16.6623
709 2 -0.0890447 67.1296 16.8226
710 2 3.90794 67.0827 16.9213
711 2 7.82394 67.1327 16.8249
712 2 11.8428 67.1626 16.9025
713 2 0.0387805 71.1471 16.9256
714 2 4.16129 71.0843 16.8212
715 2 7.89368 71.1209 16.6673
716 2 11.8836 70.9743 16.8844
717 2 -0.150835 75.1439 17.0048
718 2 3.94291 75.1131 17.1205
719 2 8.02903 75.0979 16.8524
720 2 11.7894 75.368 16.881
721 2 0.067471 79.366 16.8395
722 2 4.02891 79.1735 16.9149
723 2 7.95963 79.3249 16.8253
724 2 11.7603 79.422 16.8361
725 2 -0.0205258 83.1641 17.1948
726 2 4.0955 83.3522 17.1537
727 2 7.98805 83.2567 17.2333
728 2 11.7869 83.294 17.2664
729 2 -0.190428 87.3974 17.2552
730 2 3.88656 87.2305 17.1685
731 2 7.63241 87.2206 17.2193
732 2 11.6977 87.267 17.2559
733 2 0.0504636 91.2482 17.3081
734 2 3.86439 91.2781 17.1961
735 2 7.97155 91.5098 17.2417
736 2 11.8148 91.2698 17.2357
737 2 0.0637744 95.3391 17.4383
738 2 3.94341 95.4457 17.5522
739 2 7.84249 95.3008 17.4324
740 2 11.774 95.3248 17.3689
741 2 -0.199701 99.3459 17.3783
742 2 3.97364 99.4232 17.572
743 2 7.81682 99.5666 17.4676
744 2 11.7021 99.333 17.5264
745 2 0.103636 103.099 17.2578
746 2 4.03032 103.142 17.6116
747 2 7.90865 103.305 17.4417
748 2 11.8033 103.361 17.2741
749 2 -0.0814064 107.239 17.2795
750 2 3.85225 107.128 17.2065
751 2 8.05228 107.466 17.2942
752 2 12.0665 107.252 17.3481
753 2 0.11021 111.046 17.2522
754 2 3.90406 110.858 17.2076
755 2 7.94501 111.292 17.2475
756 2 11.857 111.088 17.2419
757 2 0.116917 114.849 17.3621
758 2 3.94086 114.954 17.2969
759 2 7.86713 115.074 17.3598
760 2 11.8587 115.044 17.3592
761 2 -0.0935255 118.823 17.1315
762 2 4.05035 118.919 17.2533
763 2 8.01296 118.986 17.1753
764 2 11.8645 118.816 17.3244
765 2 -0.186847 122.804 17.1934
766 2 3.85057 122.899 17.2191
767 2 7.7327 122.858 17.1349
768 2 11.7526 122.835 17.1845
769 2 15.7586 126.788 17.11
770 2 4.02609 126.779 17.1198
771 2 7.8591 126.7 17.1126
772 2 11.9187 126.929 17.1081
773 2 15.7983 130.632 17.167
774 2 3.94019 130.819 17.0272
775 2 8.03135 130.544 16.9145
776 2 11.9997 130.949 17.0272
777 2 15.8236 134.64 17.0193
778 2 4.09517 134.521 16.9855
779 2 7.88573 134.577 16.8872
780 2 11.9744 134.682 16.9688
781 2 0.0499843 138.598 16.8888
782 2 3.93321 138.509 17.1005
783 2 7.94899 138.479 16.8643
784 2 11.8179 138.464 16.9526
785 2 15.904 142.532 17.0151
786 2 4.00665 142.618 16.796
787 2 7.87165 142.364 16.993
788 2 11.9808 142.595 16.9944
789 2 15.8457 146.429 16.9787
790 2 3.84674 146.324 16.7666
791 2 7.90157 146.448 16.8897
792 2 11.7807 146.355 16.8809
793 2 15.7275 150.326 16.8866
794 2 3.85828 150.202 16.8877
795 2 7.85628 150.182 16.6317
796 2 11.9049 150.333 17.0227
797 2 15.9774 154.252 16.7687
798 2 3.9996 154.154 16.8912
799 2 8.08977 154.031 16.7717
800 2 12.0048 154.103 16.7548
801 2 16.0337 158.165 20.9311
802 2 4.13179 158.038 20.8069
803 2 8.08645 158.363 20.8411
804 2 12.1463 158.201 20.819
805 2 -0.0190217 3.92456 20.7436
806 2 4.00724 3.80233 20.7393
807 2 7.91743 3.91977 20.852
808 2 12.1486 3.89679 20.8774
809 2 15.9046 7.65802 20.7197
810 2 4.13322 7.63279 20.6762
811 2 7.98737 7.6327 20.647
812 2 12.0087 7.77312 20.7658
813 2 15.9968 11.6355 20.836
814 2 4.21884 11.3603 20.7487
815 2 8.10089 11.6196 20.7324
816 2 12.0113 11.5777 20.7636
817 2 15.7637 15.3035 20.698
818 2 3.93023 15.4484 20.6496
819 2 7.94413 15.4643 20.6814
820 2 11.9465 15.4036 20.7781
821 2 -0.128544 19.4572 20.6113
822 2 3.85494 19.2939 20.7275
823 2 7.7824 19.4443 20.7288
824 2 11.8186 19.2957 20.649
825 2 0.0180908 23.3939 20.526
826 2 3.88281 23.2485 20.5248
827 2 7.67276 23.3434 20.5446
828 2 11.8747 23.1995 20.4557
829 2 15.8529 27.3054 20.4794
830 2 3.81591 27.3269 20.4734
831 2 7.59698 27.321 20.6018
832 2 11.6853 27.1723 20.4616
833 2 15.7616 31.23 20.6404
834 2 3.78264 31.1981 20.2663
835 2 7.7718 31.0355 20.4003
836 2 11.6897 30.975 20.4101
837 2 15.7342 34.7074 20.3359
838 2 3.94543 34.919 20.5485
839 2 7.79809 34.9586 20.4819
840 2 11.8035 34.957 20.4267
841 2 0.0549238 38.9042 20.484
842 2 3.87507 39.0287 20.5453
843 2 7.88481 38.8497 20.3045
844 2 11.7637 38.895 20.4894
845 2 16.0682 43.0547 20.3627
846 2 3.87412 42.9073 20.2677
847 2 7.92354 42.9081 20.2054
848 2 12.1165 43.0177 20.386
849 2 16.0549 46.9753 20.533
850 2 3.98854 46.8305 20.3884
851 2 7.88798 47.0275 20.5021
852 2 11.7947 46.916 20.4509
853 2 0.00568296 51.0054 20.6222
854 2 3.85924 50.8757 20.4328
855 2 7.6341 50.9304 20.5098
856 2 11.867 51.0401 20.5152
857 2 0.00238851 54.9341 20.5868
858 2 3.89154 55.1433 20.5487
859 2 7.83774 55.0495 20.7207
860 2 11.7577 54.884 20.4751
861 2 15.6882 59.0726 20.5562
862 2 3.88966 59.0971 20.4306
863 2 7.92293 58.9632 20.7268
864 2 11.8762 58.94 20.6001
865 2 15.8215 62.9891 20.7666
866 2 4.02259 63.1266 20.7086
867 2 7.91027 62.8099 20.7841
868 2 11.8892 63.215 20.7944
869 2 -0.0312228 67.1254 20.5403
870 2 3.99733 67.055 20.6911
871 2 7.91982 66.9191 20.6922
872 2 11.7855 67.1004 20.5114
873 2 0.0352086 71.1356 20.962
874 2 4.04503 71.1073 20.8483
875 2 8.10199 71.156 20.751
876 2 11.9937 71.0661 20.8608
877 2 0.205325 75.1535 20.8855
878 2 4.11947 75.1549 20.8785
879 2 8.10779 75.2567 20.8021
880 2 12.0808 75.182 20.8826
881 2 -0.0282364 79.0617 20.82
882 2 3.8547 79.0089 20.7787
883 2 7.95866 79.0641 20.9136
884 2 11.8758 79.075 20.8593
885 2 -0.242474 83.1485 21.1024
886 2 4.0234 83.2447 21.0083
887 2 7.99513 83.0809 21.2214
888 2 11.9236 83.0658 21.2236
889 2 -0.154202 87.2347 21.0363
890 2 3.72754 87.167 21.197
891 2 7.88673 87.3674 21.2672
892 2 11.707 87.357 20.903
893 2 -0.0616485 91.2006 21.1708
894 2 4.05809 91.23 21.0997
895 2 7.79128 91.0803 21.0912
896 2 11.8575 91.2521 21.2699
897 2 -0.115551 95.2371 21.1513
898 2 3.75688 95.4221 21.3021
899 2 7.76269 95.3755 21.4442
900 2 11.8817 95.2284 21.4053
901 2 -0.18194 99.2171 21.3648
902 2 3.90907 99.478 21.4505
903 2 7.9101 99.3376 21.447
904 2 11.8772 99.2962 21.5115
905 2 -0.0555653 103.419 21.3857
906 2 3.86488 103.375 21.3754
907 2 7.89297 103.368 21.332
908 2 11.8641 103.396 21.3627
909 2 -0.139694 107.231 21.4565
910 2 3.8412 107.168 21.2799
911 2 7.77937 107.058 21.3965
912 2 11.7036 107.18 21.1803
913 2 0.0630511 111.16 21.3184
914 2 3.90768 111.032 21.5208
915 2 7.86641 111.102 21.2764
916 2 11.8005 111.112 21.3518
917 2 15.8104 115.031 21.2604
918 2 4.02578 115.101 21.3455
919 2 7.91925 115.194 21.3228
920 2 11.8049 115.031 21.4139
921 2 -0.0564215 119.063 21.3292
922 2 4.0469 118.826 21.1866
923 2 7.86001 119.051 21.2908
924 2 11.8403 119.279 21.1743
925 2 15.632 122.839 21.282
926 2 3.80762 122.845 21.2477
927 2 7.81069 122.927 21.2305
928 2 11.8068 122.985 21.1024
929 2 15.7609 126.89 21.0469
930 2 3.9051 126.908 21.2331
931 2 7.89596 126.943 21.0476
932 2 11.8236 127.015 20.9346
933 2 15.838 130.614 21.098
934 2 3.966 130.919 21.1752
935 2 7.85598 130.552 21.099
936 2 11.887 130.709 21.1586
937 2 0.0554837 134.769 21.1569
938 2 3.85889 134.621 21.0649
939 2 7.83914 134.973 20.8573
940 2 11.849 134.463 20.9756
941 2 15.7413 138.587 21.1715
942 2 3.96376 138.637 21.1913
943 2 8.14836 138.689 20.8591
944 2 11.828 138.642 20.9707
945 2 15.954 142.539 20.9408
946 2 4.07842 142.552 20.9664
947 2 7.91381 142.491 20.9586
948 2 11.7686 142.505 20.8855
949 2 15.8066 146.499 20.9894
950 2 3.94685 146.41 21.0821
951 2 7.80741 146.381 20.9948
952 2 11.7704 146.291 20.9368
953 2 15.8523 150.259 21.0049
954 2 4.14586 150.387 20.8815
955 2 7.72728 150.35 20.9738
956 2 11.7964 150.277 20.7194
957 2 16.1381 154.185 20.8422
958 2 4.21711 154.323 20.8373
959 2 8.0649 154.181 20.9014
960 2 12.0419 154.399 20.7503
961 2 0.174293 158.169 24.7346
962 2 4.25603 158.323 24.9987
963 2 8.19489 158.304 24.6057
964 2 11.971 158.149 24.7787
965 2 15.8933 3.66188 24.9182
966 2 3.98492 3.72102 24.8091
967 2 8.1031 3.7357 24.7926
968 2 11.8539 3.79567 24.8102
969 2 16.0038 7.66869 24.7144
970 2 4.10202 7.74978 24.8454
971 2 8.05816 7.57792 24.8335
972 2 11.9975 7.73162 24.726
973 2 15.8353 11.6154 24.8427
974 2 4.04098 11.5482 24.68
975 2 8.01657 11.6393 24.6394
976 2 11.802 11.5459 24.6952
977 2 -0.0836726 15.3882 24.8278
978 2 3.8102 15.6189 24.7045
979 2 7.86963 15.5183 24.6265
980 2 11.9281 15.6895 24.66
981 2 -0.0153279 19.4348 24.7475
982 2 3.94272 19.4058 24.7825
983 2 7.76126 19.4854 24.6762
984 2 11.6306 19.3164 24.5851
985 2 -0.151494 23.4412 24.4609
986 2 3.88118 23.3147 24.5194
987 2 7.80626 23.3078 24.4524
988 2 11.9114 23.2079 24.3626
989 2 -0.135006 27.1012 24.3453
990 2 3.89613 27.1443 24.6498
991 2 7.82526 27.0446 24.5794