ITEM: TIMESTEP
19900
ITEM: NUMBER OF ATOMS
32000
ITEM: BOX BOUNDS xy xz yz pp pp pp
0.0000000000000000e+00 1.5832000000000001e+01 0.0000000000000000e+00
0.0000000000000000e+00 1.5831999999999999e+02 0.0000000000000000e+00
8.2620711776354483e-01 1.6015091088223318e+02 0.0000000000000000e+00
ITEM: ATOMS id type x y z
1 2 15.8913 157.901 160.028
2 2 3.93013 157.825 160.118
3 2 7.76698 157.94 160.113
4 2 11.8218 157.804 159.919
5 2 -0.178815 3.37109 159.947
6 2 3.89978 3.47823 159.882
7 2 7.92508 3.55499 159.918
8 2 11.84 3.58449 159.938
9 2 15.9715 7.53871 159.797
10 2 4.01628 7.18803 159.95
11 2 7.85458 7.39678 159.752
12 2 11.9337 7.47276 159.789
13 2 16.0881 11.1554 159.975
14 2 4.17129 11.3477 159.858
15 2 8.11968 11.1498 159.629
16 2 12.0078 11.1837 159.908
17 2 0.022594 15.0849 159.903
18 2 4.02189 15.1617 159.744
19 2 8.07898 15.0039 159.815
20 2 12.0832 15.1232 159.71
21 2 15.627 19.1017 159.657
22 2 3.85913 19.2567 159.835
23 2 7.72735 19.0302 159.933
24 2 11.851 19.1248 159.738
25 2 15.7177 23.0361 159.717
26 2 3.85069 22.9256 159.844
27 2 8.00108 23.0706 159.816
28 2 11.7597 22.9803 159.734
29 2 15.8668 27.1753 159.729
30 2 3.9564 27.1214 159.82
31 2 7.95408 27.0445 159.734
32 2 11.9427 26.8777 159.712
33 2 15.8908 31.0772 159.929
34 2 3.77737 31.2265 0.636012
35 2 7.89396 31.2331 159.95
36 2 11.8784 31.0472 159.828
37 2 -0.0206308 35.2012 159.803
38 2 4.04104 35.177 160.051
39 2 7.79788 35.3994 159.874
40 2 11.7585 35.2026 160.041
41 2 -0.0342252 39.2615 160.031
42 2 3.8815 39.2379 0.654959
43 2 7.86931 39.5545 0.755265
44 2 11.8781 39.1336 0.656553
45 2 -0.145476 43.1711 160.149
46 2 3.90867 43.2681 160.111
47 2 7.88885 43.3216 0.798515
48 2 11.6259 43.2255 0.656373
49 2 -0.104002 47.242 0.976856
50 2 3.68249 47.4204 0.949894
51 2 7.87828 47.2897 0.846859
52 2 11.8278 47.1351 0.792861
53 2 -0.1192 51.2056 0.8541
54 2 3.80652 51.3229 1.09856
55 2 7.79478 51.2865 0.877716
56 2 11.7432 51.1742 0.905873
57 2 15.9091 55.323 0.90989
58 2 4.00025 55.2595 0.717299
59 2 7.91367 55.3079 0.949469
60 2 11.9293 55.1879 1.13214
61 2 0.0506751 59.3417 0.974503
62 2 3.96582 59.2676 0.960969
63 2 7.84994 59.3015 1.0143
64 2 11.7688 59.2062 1.03103
65 2 0.0636117 63.2528 0.882123
66 2 3.8222 63.4911 1.20045
67 2 7.69636 63.3152 1.03419
68 2 11.7831 63.3359 1.19105
69 2 15.6787 67.2226 1.22319
70 2 4.09179 67.315 1.06439
71 2 8.0265 67.2866 1.11853
72 2 11.7862 67.3249 1.23241
73 2 0.106277 71.4674 1.42039
74 2 4.03195 71.2675 1.38293
75 2 7.99715 71.3422 1.38709
76 2 11.975 71.3327 1.24374
77 2 -0.0146376 75.3537 1.13703
78 2 3.92029 75.4004 1.35557
79 2 7.90082 75.3791 1.33693
80 2 11.7673 75.5475 1.39665
81 2 -0.124942 79.3104 1.47101
82 2 3.92789 79.4968 1.48889
83 2 7.70074 79.511 1.32233
84 2 11.7354 79.4207 1.52611
85 2 -0.323103 83.4629 1.30783
86 2 3.83278 83.2471 1.37512
87 2 7.81253 83.4385 1.32551
88 2 11.7341 83.4146 1.47406
89 2 -0.0517248 87.3978 1.52041
90 2 3.84896 87.4491 1.37731
91 2 7.91605 87.4976 1.41997
92 2 11.9084 87.6497 1.33194
93 2 -0.056751 91.4386 1.21304
94 2 3.72775 91.3986 1.2045
95 2 7.68043 91.2863 1.3458
96 2 11.6324 91.3796 1.39859
97 2 15.8827 95.1581 1.35502
98 2 3.86167 95.1426 1.53847
99 2 7.62794 95.213 1.5339
100 2 11.7771 95.0353 1.15979
101 2 -0.15427 98.9401 1.28503
102 2 3.85592 98.9671 1.38496
103 2 7.85715 99.0108 1.38323
104 2 11.7801 99.2823 1.45473
105 2 -0.138804 103.073 1.37584
106 2 3.93641 103.201 1.44161
107 2 7.93573 102.919 1.33824
108 2 11.9719 103.303 1.43844
109 2 0.128795 107.17 1.35016
110 2 4.13106 106.996 1.32487
111 2 7.82461 106.977 1.20739
112 2 11.8176 106.977 1.36642
113 2 -0.101874 110.916 1.17754
114 2 3.84001 110.83 1.26086
115 2 7.95931 110.82 1.14946
116 2 11.8425 110.856 1.2774
117 2 15.6419 114.93 1.17275
118 2 4.08206 114.775 1.15569
119 2 8.14769 114.724 1.27896
120 2 11.997 114.617 1.29302
121 2 0.161504 118.843 1.15354
122 2 4.13292 118.765 1.22796
123 2 8.03816 118.744 1.16896
124 2 12.1698 118.544 1.19093
125 2 15.9417 122.598 0.971997
126 2 4.0501 122.677 1.08954
127 2 8.00574 122.517 1.07064
128 2 11.8025 122.699 0.908706
129 2 -0.135767 126.581 1.13484
130 2 4.0408 126.387 1.02418
131 2 8.0738 126.692 1.07553
132 2 11.9309 126.5 1.14955
133 2 16.0313 130.636 0.954717
134 2 4.16644 130.469 1.02551
135 2 8.05411 130.577 1.07428
136 2 11.9454 130.305 1.11198
137 2 15.8764 134.35 0.94613
138 2 3.97454 134.561 1.01611
139 2 7.96645 134.694 160.231
140 2 11.9181 134.458 0.737666
141 2 0.206814 138.339 0.845017
142 2 4.23259 138.238 160.192
143 2 8.06033 138.314 160.25
144 2 11.8431 138.38 0.906426
145 2 15.9183 142.374 160.154
146 2 4.16894 142.268 160.19
147 2 8.14158 142.261 160.037
148 2 12.1205 142.048 160.233
149 2 0.0161118 146.106 160.188
150 2 4.12666 146.037 160.333
151 2 8.07188 146.14 160.247
152 2 11.8069 145.925 160.043
153 2 16.0074 149.747 159.916
154 2 4.01353 150.177 159.938
155 2 7.87773 149.906 160.089
156 2 11.7508 150.046 0.694083
157 2 15.8853 153.817 159.909
158 2 4.12285 153.975 160.093
159 2 7.91009 153.911 160.11
160 2 11.9574 153.901 160.133
161 2 15.9264 157.951 4.69773
162 2 3.89492 157.951 4.84844
163 2 7.98483 157.891 4.71073
164 2 11.8682 158.049 4.64753
165 2 -0.129748 3.52437 4.7023
166 2 3.80779 3.62124 4.62653
167 2 7.75001 3.39983 4.64974
168 2 11.9025 3.74888 4.58811
169 2 0.0191491 7.34231 4.65914
170 2 3.84224 7.41022 4.59862
171 2 7.85517 7.49962 4.63696
172 2 11.9764 7.41934 4.50957
173 2 0.0112814 11.2313 4.48958
174 2 3.91375 11.1909 4.60208
175 2 8.03961 11.2896 4.63417
176 2 11.743 11.3052 4.55936
177 2 15.848 15.1556 4.52346
178 2 3.97606 15.3239 4.5273
179 2 7.90975 15.1282 4.57517
180 2 11.8863 15.306 4.71879
181 2 -0.0317327 19.064 4.40112
182 2 3.71573 19.1934 4.39172
183 2 7.91589 19.1289 4.3544
184 2 11.8782 18.9852 4.34981
185 2 -0.252493 23.1075 4.6274
186 2 3.92069 23.1166 4.38184
187 2 8.13469 22.9702 4.38493
188 2 11.9032 23.0934 4.48662
189 2 15.826 26.8614 4.30831
190 2 3.96156 26.881 4.22014
191 2 7.8356 26.9626 4.38237
192 2 11.7808 27.0952 4.44291
193 2 -0.00390844 31.1081 4.45766
194 2 3.97969 31.2565 4.51457
195 2 7.92325 31.0901 4.48757
196 2 11.6363 31.1541 4.44066
197 2 -0.116037 35.0913 4.35607
198 2 3.90377 35.2749 4.42937
199 2 7.74486 35.1403 4.60634
200 2 11.7904 35.1464 4.55472
201 2 15.9273 39.3092 4.65942
202 2 3.96029 39.1279 4.65869
203 2 7.83807 39.1394 4.69123
204 2 11.7873 39.2939 4.69018
205 2 -0.337422 43.4569 4.67475
206 2 3.81466 43.438 4.75135
207 2 7.65453 43.2693 4.71526
208 2 11.6508 43.4383 4.53405
209 2 -0.047465 47.3695 5.13895
210 2 3.81107 47.4306 4.83652
211 2 7.64212 47.4229 4.73078
212 2 11.871 47.283 4.61796
213 2 -0.0721576 51.2686 4.86797
214 2 3.66917 51.2982 4.89118
215 2 7.87093 51.3305 4.80293
216 2 11.7824 51.2426 4.77899
217 2 0.0831637 55.2139 4.87227
218 2 3.81235 55.2699 4.68022
219 2 8.08562 55.2053 4.83536
220 2 11.8448 55.0573 4.92843
221 2 15.7112 59.3695 4.87399
222 2 4.07913 59.1992 4.77787
223 2 8.03581 59.1756 4.93488
224 2 11.805 59.1566 4.80249
225 2 0.0198003 63.3204 5.07222
226 2 3.85866 63.091 4.87369
227 2 7.88434 63.1981 4.9058
228 2 11.766 63.1649 4.96753
229 2 15.9087 67.1677 4.98675
230 2 3.91518 67.4252 5.31373
231 2 7.88467 67.3509 5.0564
232 2 11.9409 67.2622 5.30804
233 2 15.897 71.2741 5.28371
234 2 3.98431 71.1994 5.15111
235 2 7.75904 71.4741 5.0776
236 2 11.8211 71.2577 4.94937
237 2 15.5544 75.3037 5.12362
238 2 3.77277 75.3762 5.29315
239 2 7.84735 75.3235 5.3278
240 2 11.917 75.2512 5.24398
241 2 -0.151824 79.5373 5.35695
242 2 3.99792 79.4025 5.20894
243 2 8.0245 79.563 5.44755
244 2 11.7277 79.4897 5.46408
245 2 15.5786 83.6129 5.23282
246 2 3.91666 83.4553 5.19198
247 2 7.9587 83.5627 5.32501
248 2 11.7918 83.2374 5.23358
249 2 0.020349 87.43 5.7167
250 2 3.91574 87.3712 5.23082
251 2 8.07402 87.2189 5.4292
252 2 11.9778 87.4961 5.43396
253 2 -0.171104 91.456 5.44505
254 2 3.9857 91.1886 5.37561
255 2 8.03951 91.4033 5.41874
256 2 11.7035 91.3984 5.42031
257 2 15.6988 95.5152 5.42508
258 2 3.89842 95.2128 5.33173
259 2 7.78534 95.4029 5.3605
260 2 11.7668 95.3266 5.59113
261 2 0.0588914 99.3937 5.34866
262 2 3.90021 99.2756 5.43119
263 2 7.88161 99.27 5.2835
264 2 11.8051 99.3215 5.42441
265 2 -0.0560186 103.049 5.16475
266 2 3.98779 103.014 5.27415
267 2 7.88718 103.162 5.46048
268 2 11.8477 103.302 5.35682
269 2 15.778 107.156 5.31815
270 2 3.95314 106.956 5.39449
271 2 7.89469 107.131 5.37735
272 2 11.8203 107.094 5.26349
273 2 15.8697 110.974 5.40364
274 2 3.95694 110.839 5.33747
275 2 7.9645 111.027 5.41249
276 2 12.1306 111.065 5.13314
277 2 -0.021998 114.827 5.3272
278 2 3.96936 114.858 5.19307
279 2 7.96141 114.791 5.28888
280 2 11.853 115.063 5.15691
281 2 0.124467 118.964 5.20725
282 2 4.16629 118.656 5.36605
283 2 7.85573 118.835 5.29239
284 2 11.9084 118.705 5.20708
285 2 15.8159 122.815 5.2676
286 2 4.03637 122.645 5.133
287 2 7.7832 122.779 5.16106
288 2 11.9173 122.701 5.16213
289 2 0.262351 126.581 4.98049
290 2 4.02664 126.508 5.10875
291 2 8.12625 126.637 4.95415
292 2 12.1337 126.671 4.96972
293 2 0.189861 130.741 5.09039
294 2 3.89192 130.405 5.01558
295 2 7.9911 130.532 4.94713
296 2 11.945 130.487 5.14827
297 2 16.1376 134.433 4.9095
298 2 4.36494 134.408 5.02447
299 2 8.04548 134.504 4.91343
300 2 12.04 134.486 4.8489
301 2 0.102881 138.244 5.00104
302 2 4.05046 138.248 4.93403
303 2 8.04169 138.293 4.95056
304 2 12.3563 138.367 4.9759
305 2 0.337284 142.165 4.9058
306 2 4.15597 142.347 4.72566
307 2 8.04799 142.196 4.87568
308 2 11.9996 142.128 5.03416
309 2 15.9613 146.075 4.96494
310 2 4.11579 146.21 4.8571
311 2 7.99081 146.099 4.83839
312 2 11.9959 146.105 4.91071
313 2 16.101 150.053 4.77545
314 2 3.91548 150.2 4.70414
315 2 8.06413 149.937 4.78372
316 2 11.9309 149.96 4.74563
317 2 15.8918 153.968 4.60559
318 2 3.93667 153.978 4.71794
319 2 7.76646 153.759 4.78528
320 2 11.7414 153.837 4.76093
321 2 15.8707 157.817 8.65806
322 2 3.87493 158.083 8.78736
323 2 7.88479 157.868 8.7892
324 2 11.8157 157.924 8.71774
325 2 15.7292 3.48636 8.79727
326 2 3.98314 3.78447 8.53476
327 2 7.92947 3.64244 8.73604
328 2 11.9791 3.41171 8.58116
329 2 15.7825 7.46878 8.73407
330 2 3.95659 7.51579 8.69791
331 2 7.86145 7.46032 8.79803
332 2 11.7593 7.3913 8.48836
333 2 0.00607737 11.4573 8.61705
334 2 3.9892 11.4351 8.58219
335 2 7.942 11.3205 8.59471
336 2 11.8919 11.4508 8.72376
337 2 15.7056 15.4231 8.50756
338 2 3.99247 15.2868 8.55285
339 2 8.17284 15.4584 8.46496
340 2 12.0409 15.2425 8.64652
341 2 -0.111556 19.2118 8.49564
342 2 4.05187 19.2805 8.42379
343 2 7.90174 19.3274 8.42165
344 2 11.7007 19.0849 8.41338
345 2 -0.114893 22.9539 8.50962
346 2 3.90147 23.0942 8.2643
347 2 7.88404 23.0811 8.26174
348 2 11.8536 22.9339 8.44417
349 2 0.0888364 27.0014 8.36678
350 2 3.82812 26.9715 8.51012
351 2 7.98875 27.067 8.26812
352 2 11.6475 27.1441 8.54486
353 2 0.0423032 30.8751 8.33782
354 2 4.07831 31.0837 8.22146
355 2 7.93432 31.025 8.31326
356 2 11.7886 30.8793 8.24411
357 2 15.9202 34.9829 8.32309
358 2 3.96946 35.1199 8.42138
359 2 7.82823 35.2493 8.49814
360 2 11.8074 35.0081 8.3686
361 2 0.0577325 39.3469 8.69893
362 2 3.88356 39.1313 8.32853
363 2 8.04461 39.1877 8.61426
364 2 11.9307 39.1391 8.57846
365 2 -0.0195607 43.2601 8.57678
366 2 4.0201 43.0667 8.6213
367 2 8.00783 43.192 8.64633
368 2 11.8604 43.2094 8.64406
369 2 0.0115393 47.254 8.91879
370 2 3.89589 47.3966 8.67299
371 2 7.85917 47.2236 8.63708
372 2 11.8766 47.1435 8.51837
373 2 15.8463 51.3142 8.58452
374 2 4.06602 51.2402 8.7258
375 2 7.7968 51.29 8.69347
376 2 11.8258 51.2127 8.68348
377 2 15.7827 55.2646 8.93571
378 2 3.77739 55.33 8.77469
379 2 8.07031 55.18 8.80039
380 2 11.7798 55.2964 8.76349
381 2 0.0177173 59.1275 8.74398
382 2 3.81833 59.1587 8.6842
383 2 7.80179 59.2922 8.76994
384 2 11.8599 59.1955 8.88043
385 2 0.135757 63.1903 8.89162
386 2 3.98925 63.2008 8.96177
387 2 8.00907 63.2648 8.86228
388 2 11.6529 63.1733 8.83453
389 2 15.7957 67.3377 9.00188
390 2 3.8475 67.2683 9.07777
391 2 7.81462 67.2907 8.94705
392 2 11.7473 67.3938 9.08699
393 2 15.8742 71.1467 9.00048
394 2 4.09319 71.4974 9.11323
395 2 7.86936 71.3473 9.19799
396 2 11.9231 71.523 9.21446
397 2 15.8196 75.4346 9.19622
398 2 3.91381 75.5549 9.10326
399 2 7.97149 75.2916 9.08755
400 2 11.8335 75.3399 9.20543
401 2 15.8687 79.5025 9.37773
402 2 4.09929 79.4775 9.10198
403 2 7.96468 79.281 9.4256
404 2 11.9919 79.394 9.37492
405 2 -0.160995 83.4772 9.30306
406 2 3.91501 83.3914 9.12929
407 2 7.8663 83.3107 9.24682
408 2 12.0051 83.4903 9.45031
409 2 -0.107768 87.5188 9.32578
410 2 3.95547 87.3561 9.26869
411 2 7.82045 87.2121 9.25385
412 2 11.8927 87.7495 9.26297
413 2 0.0923363 91.5532 9.54365
414 2 4.08579 91.2688 9.42744
415 2 7.81693 91.3253 9.23944
416 2 11.8795 91.5784 9.55092
417 2 15.9641 95.4173 9.56606
418 2 3.95989 95.3522 9.56743
419 2 7.78548 95.3592 9.4427
420 2 11.9094 95.3341 9.46239
421 2 15.81 99.3999 9.35286
422 2 3.81542 99.2547 9.55951
423 2 7.7206 99.2389 9.42628
424 2 11.714 99.4098 9.43327
425 2 -0.0940318 103.188 9.14812
426 2 3.81137 103.33 9.1539
427 2 7.85829 103.243 9.42603
428 2 11.7031 103.158 9.39764
429 2 -0.251962 106.905 9.47085
430 2 3.84607 106.988 9.42336
431 2 7.84074 107.157 9.28183
432 2 11.902 107.11 9.34237
433 2 15.7668 111.131 9.25805
434 2 3.81795 110.916 9.39776
435 2 7.8857 111.041 9.41215
436 2 11.887 110.953 9.39017
437 2 -0.0644946 115.011 9.28386
438 2 3.92653 114.868 9.4343
439 2 7.91751 115.046 9.23385
440 2 11.9713 115.094 9.13165
441 2 -0.0811721 118.685 9.3095
442 2 4.02575 118.768 9.33823
443 2 7.92627 118.898 9.2315
444 2 11.7586 118.974 9.23386
445 2 15.6001 122.665 9.25096
446 2 3.79626 122.842 9.24485
447 2 7.71675 122.746 9.15007
448 2 11.5468 122.782 9.09201
449 2 15.8973 126.608 9.06145
450 2 4.01756 126.726 9.31298
451 2 7.85157 126.62 9.06693
452 2 11.8569 126.761 8.93612
453 2 0.0501228 130.517 8.99563
454 2 3.95634 130.414 9.02524
455 2 7.97823 130.644 9.15456
456 2 11.7642 130.535 9.13654
457 2 0.164348 134.406 9.09833
458 2 4.34071 134.54 8.79472
459 2 8.14621 134.296 9.03546
460 2 11.9289 134.497 9.08607
461 2 0.159842 138.451 9.061
462 2 4.13496 138.51 9.1574
463 2 8.11374 138.309 9.05947
464 2 12.2255 138.167 8.80292
465 2 0.195897 142.384 9.07324
466 2 3.99306 142.375 8.85924
467 2 8.13784 142.133 9.0095
468 2 12.0373 142.249 8.9225
469 2 15.9483 146.343 9.02892
470 2 4.03152 146.121 9.05202
471 2 7.81421 146.152 8.9902
472 2 11.9069 146.185 8.95254
473 2 15.6699 150.01 8.82648
474 2 3.92046 150.142 8.85647
475 2 8.00424 150.091 8.8347
476 2 11.8798 149.825 8.70821
477 2 15.8009 154.157 8.79252
478 2 3.92337 154.023 8.75588
479 2 7.96622 153.99 8.81501
480 2 12.0062 153.787 8.66437
481 2 15.7989 158.105 12.8322
482 2 3.76712 158.075 12.6061
483 2 7.91617 158.078 12.7747
484 2 11.7421 158.026 12.7924
485 2 16.0095 3.63234 12.5974
486 2 3.91503 3.50988 12.726
487 2 7.84798 3.44545 12.5129
488 2 12.0036 3.70491 12.6819
489 2 15.7547 7.59003 12.6577
490 2 3.78584 7.44514 12.4755
491 2 7.95092 7.63234 12.71
492 2 11.8277 7.45878 12.6147
493 2 0.0566947 11.4442 12.5418
494 2 4.1227 11.417 12.4492
495 2 7.94316 11.3668 12.6615
496 2 11.8327 11.2716 12.6796
497 2 -0.0574148 15.3521 12.6449
498 2 4.10264 15.2941 12.4043
499 2 8.04276 15.349 12.4155
500 2 11.912 15.2875 12.5741
501 2 0.146693 19.3199 12.5842
502 2 3.9537 19.2177 12.5037
503 2 7.82109 19.2088 12.4602
504 2 11.8812 19.2241 12.5557
505 2 -0.125209 23.278 12.4644
506 2 3.89131 23.2557 12.5283
507 2 8.06071 23.2504 12.456
508 2 11.7772 23.2996 12.3422
509 2 -0.177593 26.9594 12.1655
510 2 3.72377 26.9434 12.521
511 2 7.50129 27.1795 12.084
512 2 11.7336 27.1083 12.3262
513 2 -0.113674 31.0483 12.2825
514 2 3.85308 31.0025 12.2267
515 2 7.78217 31.1902 12.2599
516 2 11.8853 31.0004 12.2032
517 2 -0.107559 35.0714 12.2728
518 2 3.94298 34.9883 12.223
519 2 7.91195 34.9488 12.3444
520 2 11.8613 35.0594 12.3496
521 2 0.0937726 38.9826 12.4699
522 2 3.92658 39.073 12.4878
523 2 8.10819 38.9969 12.3219
524 2 12.0388 38.9973 12.4459
525 2 0.015346 42.9095 12.5213
526 2 3.94553 43.0214 12.438
527 2 7.88501 43.165 12.6497
528 2 12.0563 43.1005 12.6371
529 2 -0.0766701 47.0547 12.4944
530 2 3.94137 47.1046 12.54
531 2 8.08319 47.0708 12.5819
532 2 11.7319 47.0288 12.5698
533 2 -0.199101 51.1499 12.6433
534 2 4.00094 51.1082 12.5977
535 2 7.68262 51.2066 12.6395
536 2 11.7129 51.0145 12.6687
537 2 15.7082 55.1394 12.5185
538 2 3.82381 55.1321 12.6007
539 2 7.84841 55.2304 12.809
540 2 11.8139 54.9755 12.7236
541 2 15.6155 59.327 12.7379
542 2 3.93913 59.3058 12.5265
543 2 7.89554 59.2221 12.6391
544 2 11.8023 59.3432 12.8287
545 2 15.9239 63.1789 12.7469
546 2 4.01736 63.3369 12.6395
547 2 7.81972 63.1278 12.8079
548 2 11.8492 63.3948 12.9602
549 2 -0.00352993 67.1107 13.0535
550 2 4.03689 67.3275 12.8473
551 2 8.12975 67.3227 12.8872
552 2 11.9169 67.0682 13.0534
553 2 -0.197521 71.2055 12.8331
554 2 4.05634 71.1454 13.1826
555 2 7.98307 71.2251 13.1207
556 2 11.886 71.1282 13.0482
557 2 0.138227 75.1528 13.0912
558 2 3.96457 75.3179 13.0147
559 2 7.9758 75.2075 13.0579
560 2 11.8026 75.2287 13.1642
561 2 -0.156451 79.2233 13.2533
562 2 4.01221 79.4271 13.0833
563 2 7.80271 79.1077 13.262
564 2 11.7774 79.3946 13.3479
565 2 0.13911 83.3296 13.0619
566 2 3.99499 83.2687 13.2005
567 2 7.90367 83.3782 13.2515
568 2 11.7518 83.3455 13.116
569 2 -0.0806894 87.3211 13.3268
570 2 3.74671 87.4869 13.3896
571 2 7.78799 87.2877 13.3025
572 2 11.823 87.3947 13.1483
573 2 -0.0926528 91.5199 13.4633
574 2 4.02076 91.4148 13.38
575 2 8.08473 91.3935 13.4304
576 2 11.7772 91.2575 13.5763
577 2 -0.121572 95.3041 13.5254
578 2 3.88515 95.1657 13.3268
579 2 7.83542 95.2357 13.4125
580 2 11.5706 95.5825 13.2945
581 2 -0.18776 99.3962 13.3141
582 2 3.84222 99.316 13.5143
583 2 7.77154 99.4305 13.5889
584 2 11.81 99.553 13.4677
585 2 -0.131946 103.583 13.4545
586 2 3.70344 103.249 13.3172
587 2 7.75878 103.243 13.2105
588 2 11.9756 103.252 13.4667
589 2 0.0302004 107.245 13.473
590 2 3.93635 107.251 13.3163
591 2 7.84779 107.141 13.4476
592 2 11.7842 107.106 13.419
593 2 0.0349253 110.995 13.5114
594 2 3.87693 111.128 13.2858
595 2 7.80463 110.897 13.3083
596 2 11.8121 111.129 13.4183
597 2 -0.142355 114.799 13.3263
598 2 3.89335 114.901 13.3716
599 2 8.01259 114.995 13.3833
600 2 11.573 115.004 13.149
601 2 -0.0686766 118.921 13.2499
602 2 4.06315 118.952 13.1311
603 2 7.58492 119.048 13.058
604 2 11.7592 118.91 13.2975
605 2 -0.126755 123.039 13.1089
606 2 3.92093 122.784 13.1136
607 2 7.94584 122.894 13.2335
608 2 11.8401 122.706 13.1776
609 2 0.0404853 126.791 13.0983
610 2 3.86124 126.783 13.3536
611 2 7.84562 126.727 13.1286
612 2 11.7499 126.621 13.1211
613 2 15.6272 130.621 12.9886
614 2 3.93376 130.741 13.1503
615 2 7.82476 130.7 13.2155
616 2 11.7496 130.559 13.2582
617 2 15.8427 134.651 13.0681
618 2 3.94816 134.602 13.0791
619 2 8.02397 134.526 13.2077
620 2 11.8628 134.518 13.0988
621 2 0.142699 138.501 12.8994
622 2 3.96045 138.447 12.9868
623 2 7.89737 138.554 13.0663
624 2 11.9066 138.398 12.9416
625 2 15.9025 142.33 12.8313
626 2 4.11599 142.363 13.0481
627 2 8.03368 142.384 13.0123
628 2 11.9184 142.279 12.8953
629 2 0.0753852 146.293 12.9714
630 2 4.02001 146.339 12.9306
631 2 8.09725 146.305 12.8333
632 2 11.8801 146.338 13.0828
633 2 0.106302 150.301 12.8995
634 2 4.14632 150.201 12.9824
635 2 8.05869 150.249 13.0932
636 2 11.8681 150.177 12.899
637 2 16.0838 154.092 12.774
638 2 4.0596 154.176 12.721
639 2 8.04992 154.098 12.8879
640 2 12.1335 154.151 12.7928
641 2 -0.109707 158.006 16.8938
642 2 3.92502 -0.281357 16.8615
643 2 8.0068 157.999 16.589
644 2 11.9538 158.417 16.4971
645 2 15.8737 3.78226 16.6102
646 2 4.1261 3.7081 16.7001
647 2 7.9867 3.6487 16.6286
648 2 11.9958 3.75868 16.3713
649 2 -0.0227204 7.52881 16.8078
650 2 4.11989 7.58618 16.6833
651 2 7.97216 7.5785 16.6747
652 2 11.9562 7.47347 16.7169
653 2 0.058632 11.4986 16.6229
654 2 4.04407 11.4487 16.6348
655 2 8.04671 11.5137 16.7332
656 2 11.9277 11.5757 16.5867
657 2 0.0521848 15.4179 16.5391
658 2 3.81676 15.4389 16.6105
659 2 8.01785 15.5655 16.4341
660 2 11.9116 15.4335 16.3802
661 2 15.7483 19.431 16.5084
662 2 3.93329 19.4913 16.4465
663 2 7.81664 19.383 16.5612
664 2 11.8549 19.2478 16.5337
665 2 -0.13198 23.215 16.4092
666 2 3.82407 23.2883 16.5293
667 2 7.73714 23.2806 16.4242
668 2 11.735 23.3587 16.4278
669 2 -0.114191 27.3148 16.4908
670 2 3.79466 27.0643 16.3691
671 2 7.74342 27.2454 16.4467
672 2 11.628 27.2544 16.3032
673 2 -0.333934 31.0262 16.3272
674 2 3.79119 30.7041 16.416
675 2 7.72909 31.0178 16.3292
676 2 11.7418 31.1801 16.213
677 2 -0.0781578 34.8611 16.2481
678 2 3.97867 34.8511 16.288
679 2 7.79681 34.8197 16.248
680 2 11.8036 35.0141 16.2467
681 2 0.142518 39.0477 16.432
682 2 4.02704 38.8722 16.3415
683 2 7.82497 39.0025 16.1644
684 2 11.8899 38.9361 16.217
685 2 0.240217 42.9556 16.3713
686 2 4.09369 43.0501 16.4449
687 2 8.01882 42.956 16.43
688 2 11.8494 42.8692 16.4734
689 2 15.848 46.9294 16.2534
690 2 4.0548 47.0908 16.5364
691 2 7.8145 46.9559 16.5018
692 2 11.9263 46.8867 16.339
693 2 0.017104 50.8432 16.5086
694 2 3.90764 51.1599 16.563
695 2 7.91119 51.0449 16.3516
696 2 11.6251 51.1359 16.4903
697 2 -0.145626 54.96 16.5833
698 2 3.80925 55.2014 16.5644
699 2 7.7132 55.3208 16.6699
700 2 11.7081 54.9948 16.5597
701 2 0.119657 59.0175 16.6399
702 2 3.8386 59.1406 16.5744
703 2 7.91607 59.2192 16.5546
704 2 11.8731 59.0783 16.6557
705 2 -0.123591 63.1185 16.6945
706 2 3.99932 63.1087 16.6973
707 2 7.79909 62.98 16.7588
708 2 11.7365 63.0897 16.7028
709 2 0.0928631 67.0582 16.9412
710 2 4.02855 66.9834 16.6885
711 2 8.07184 67.1609 16.8532
712 2 11.9096 67.0483 16.8772
713 2 0.0555082 71.0656 16.8539
714 2 3.93302 71.1638 16.7713
715 2 7.85446 71.0708 17.0061
716 2 11.9315 71.2031 17.0639
717 2 0.0910636 75.2073 16.9916
718 2 3.91132 75.2168 16.8316
719 2 7.8388 75.143 17.0531
720 2 11.845 75.2401 16.9419
721 2 -0.115609 79.1913 17.2307
722 2 3.81647 79.1185 17.1131
723 2 7.87451 79.2216 17.2106
724 2 11.7815 79.3827 17.2032
725 2 -0.236129 83.2635 17.0406
726 2 3.84889 83.2076 17.0638
727 2 7.85133 83.2007 16.9945
728 2 11.8546 83.2345 16.9544
729 2 -0.0930801 87.2416 17.2095
730 2 3.90076 87.3018 17.2195
731 2 8.05156 87.3568 17.1961
732 2 11.8961 87.2682 17.2561
733 2 -0.262959 91.4009 17.3964
734 2 3.85038 91.2982 17.4981
735 2 7.65694 91.3152 17.3515
736 2 11.6877 91.3271 17.4109
737 2 -0.230677 95.6046 17.3705
738 2 3.72488 95.3474 17.2705
739 2 7.83403 95.3955 17.3413
740 2 11.9266 95.3841 17.4705
741 2 0.151864 99.3296 17.5793
742 2 3.95213 99.3479 17.431
743 2 7.89821 99.4941 17.4006
744 2 11.8641 99.5005 17.4409
745 2 -0.189506 103.321 17.644
746 2 3.98537 103.084 17.2837
747 2 7.91059 103.181 17.5401
748 2 11.7724 103.27 17.5853
749 2 0.17498 107.181 17.6467
750 2 4.01853 107.429 17.5318
751 2 7.73043 107.026 17.5446
752 2 11.6613 107.133 17.3423
753 2 -0.133903 111.059 17.3941
754 2 3.90986 111.187 17.3253
755 2 7.8989 110.938 17.1976
756 2 11.7809 111.047 17.4046
757 2 -0.0011936 115.278 17.2717
758 2 3.9418 115.183 17.351
759 2 8.05628 115.08 17.4331
760 2 11.7469 115.033 17.2667
761 2 -0.0630803 119.196 17.2749
762 2 3.93754 118.938 17.3188
763 2 7.81524 118.892 17.1884
764 2 11.7599 119.002 17.0831
765 2 -0.0210727 122.895 17.2775
766 2 4.14477 122.917 17.2175
767 2 7.84384 122.917 17.1812
768 2 11.8522 122.812 17.3677
769 2 15.7667 126.787 17.2776
770 2 4.03288 126.799 17.0365
771 2 7.9414 126.845 17.1195
772 2 11.6771 126.753 17.1702
773 2 15.6161 130.749 17.1252
774 2 3.89586 130.589 17.0828
775 2 7.96994 130.634 17.1583
776 2 11.832 130.436 17.1386
777 2 15.9003 134.488 17.1067
778 2 3.92389 134.55 17.0374
779 2 8.01402 134.596 17.2564
780 2 11.8721 134.587 17.1125
781 2 -0.063478 138.549 16.731
782 2 4.16079 138.484 17.145
783 2 8.16516 138.587 17.0987
784 2 11.9069 138.503 17.0605
785 2 15.7971 142.333 16.8555
786 2 4.0367 142.552 16.9927
787 2 8.09135 142.511 16.9892
788 2 11.816 142.377 17.1072
789 2 15.9334 146.189 16.9582
790 2 4.07482 146.199 16.7634
791 2 7.97075 146.299 17.0883
792 2 12.0177 146.375 17.0038
793 2 15.9561 150.282 17.01
794 2 4.14521 150.23 16.9542
795 2 7.98677 150.406 16.8522
796 2 11.9712 150.136 16.9365
797 2 15.8632 154.223 16.9884
798 2 3.969 154.117 16.7744
799 2 7.84513 154.254 16.9845
800 2 11.7415 154.283 16.893
801 2 15.893 158.267 20.6364
802 2 4.07204 158.167 20.8829
803 2 7.93211 158.065 20.8757
804 2 11.8904 158.067 20.8666
805 2 0.0476971 3.69842 20.6725
806 2 4.15924 3.795 20.8084
807 2 8.07286 3.57781 20.7084
808 2 11.9671 3.7597 20.6821
809 2 15.8089 7.60826 20.6235
810 2 4.03065 7.74364 20.6131
811 2 7.91645 7.6185 20.6841
812 2 11.9017 7.54076 20.8062
813 2 15.6546 11.6767 20.6912
814 2 3.94844 11.7747 20.5818
815 2 8.03935 11.6375 20.6589
816 2 11.8614 11.7562 20.7018
817 2 15.9299 15.6191 20.5094
818 2 4.08524 15.5653 20.6242
819 2 7.90103 15.6482 20.6096
820 2 11.9763 15.4131 20.4882
821 2 -0.0515439 19.5047 20.4365
822 2 3.91452 19.6271 20.3765
823 2 8.00358 19.4921 20.4378
824 2 11.8755 19.5068 20.5392
825 2 -0.132653 23.3259 20.4309
826 2 3.8999 23.415 20.5612
827 2 8.01814 23.2115 20.4948
828 2 11.758 23.4281 20.5206
829 2 15.7327 27.1684 20.3113
830 2 3.95481 27.0542 20.4081
831 2 8.14397 27.2245 20.4226
832 2 11.9794 27.2399 20.3888
833 2 15.7232 31.0896 20.3309
834 2 3.80204 31.2689 20.3929
835 2 7.93303 31.202 20.3753
836 2 11.6919 31.3286 20.373
837 2 15.803 35.1399 20.3314
838 2 3.7787 35.0283 20.3025
839 2 7.69012 35.1667 20.2801
840 2 11.8206 35.1828 20.0812
841 2 -0.147987 39.1242 20.1454
842 2 3.90802 38.9459 20.1657
843 2 7.95424 38.9267 20.3536
844 2 11.7443 38.8505 20.2227
845 2 15.7131 43.1282 20.2388
846 2 3.78155 42.9785 20.2638
847 2 7.78152 42.9032 20.433
848 2 11.603 42.7766 20.3652
849 2 15.8522 46.9181 20.0943
850 2 3.92835 47.0161 20.322
851 2 7.8625 47.0225 20.4719
852 2 11.7614 46.9882 20.4849
853 2 0.0403844 51.1366 20.3541
854 2 3.87961 50.7974 20.5317
855 2 7.85889 50.9806 20.3603
856 2 11.8576 51.0271 20.3317
857 2 -0.0179553 54.9841 20.3729
858 2 3.85247 54.9901 20.5998
859 2 7.83789 54.9902 20.4425
860 2 11.8928 55.0752 20.5897
861 2 15.8157 59.0146 20.5401
862 2 3.84818 59.0693 20.6335
863 2 7.94259 58.9206 20.4357
864 2 11.6702 59.1656 20.5365
865 2 15.8892 62.9082 20.6076
866 2 3.80341 63.1764 20.7084
867 2 8.02482 63.0441 20.4303
868 2 11.9813 63.2465 20.6033
869 2 0.0821603 67.105 20.8671
870 2 3.96515 66.9687 20.885
871 2 7.99322 67.088 20.7308
872 2 11.8693 67.1011 20.8074
873 2 -0.0767995 70.9406 20.7845
874 2 3.9467 71.0862 20.9469
875 2 7.76728 70.9156 20.8785
876 2 12.0459 71.0032 20.8048
877 2 0.101232 75.1157 20.8645
878 2 3.76242 75.2043 20.8057
879 2 7.83087 75.0964 20.8836
880 2 11.6885 75.1221 20.8179
881 2 -0.00303954 78.9488 21.1673
882 2 3.76692 79.3559 21.0958
883 2 7.90773 79.1827 20.9314
884 2 11.8985 79.2998 20.8347
885 2 -0.0105638 83.1265 20.8985
886 2 3.78996 83.2613 21.1089
887 2 7.82319 83.1914 21.0101
888 2 11.6321 83.3604 20.8994
889 2 -0.0107802 87.0608 21.1566
890 2 4.03452 87.1357 21.0817
891 2 7.91014 87.1502 20.955
892 2 11.8331 87.1573 21.141
893 2 -0.188591 91.2476 20.9921
894 2 3.69686 91.3341 21.187
895 2 7.73567 91.2638 21.303
896 2 11.9032 91.2832 21.1795
897 2 -0.0699895 95.4362 21.452
898 2 3.86982 95.2521 21.1984
899 2 7.81402 95.3988 21.3351
900 2 11.5235 95.5264 21.3348
901 2 0.0561091 99.1769 21.5867
902 2 3.92607 99.2488 21.283
903 2 7.7686 99.31 21.3856
904 2 11.8192 99.376 21.4635
905 2 0.0681163 103.504 21.3335
906 2 4.07073 103.237 21.4318
907 2 7.90874 103.197 21.4852
908 2 11.8678 103.297 21.6326
909 2 0.0488642 107.399 21.5057
910 2 4.11725 107.341 21.4129
911 2 8.05126 107.225 21.3412
912 2 11.977 107.274 21.2923
913 2 -0.0321061 111.191 21.3111
914 2 3.87179 111.195 21.3835
915 2 7.96516 111.321 21.4894
916 2 11.8295 111.113 21.4951
917 2 15.8901 114.995 21.3443
918 2 3.81356 115.119 21.1791
919 2 7.75863 115.083 21.252
920 2 11.8408 115.125 21.3082
921 2 -0.136937 119.247 21.3243
922 2 3.93115 118.921 21.3002
923 2 7.85616 118.947 21.2866
924 2 11.9728 118.977 21.1992
925 2 15.8162 122.867 21.3145
926 2 3.9652 122.967 21.2965
927 2 7.99855 122.86 21.1944
928 2 11.9855 122.74 21.4008
929 2 15.8304 126.764 21.2083
930 2 3.89035 126.802 21.185
931 2 7.98212 126.808 21.2098
932 2 11.9326 126.796 21.1766
933 2 15.8276 130.75 21.0702
934 2 3.98865 130.621 21.0377
935 2 7.72685 130.719 21.2946
936 2 11.9323 130.693 21.0604
937 2 -0.022887 134.623 21.1454
938 2 3.99574 134.641 21.038
939 2 7.96014 134.644 21.2771
940 2 11.7496 134.583 21.1269
941 2 15.8712 138.463 21.0829
942 2 3.95754 138.516 21.047
943 2 7.81137 138.484 21.0912
944 2 11.9673 138.489 21.1194
945 2 15.8746 142.513 20.9768
946 2 3.90944 142.391 20.9256
947 2 7.90199 142.317 21.003
948 2 11.8134 142.495 21.0111
949 2 15.8426 146.396 20.8199
950 2 3.94881 146.393 20.8354
951 2 8.07295 146.369 20.9735
952 2 12.0884 146.475 20.933
953 2 15.8429 150.26 20.9445
954 2 4.0278 150.279 20.8118
955 2 7.99967 150.377 20.7128
956 2 12.0783 150.195 20.703
957 2 15.7142 154.264 20.8724
958 2 3.77375 154.325 20.9463
959 2 8.02748 154.075 20.6999
960 2 11.9227 154.216 20.8869
961 2 0.00141225 158.202 24.7827
962 2 3.89756 158.189 24.7629
963 2 7.881 158.196 24.819
964 2 11.9171 158.272 24.817
965 2 16.0073 3.83976 24.726
966 2 4.05259 3.88541 24.7089
967 2 7.9104 3.88775 24.7563
968 2 11.953 3.83186 24.6279
969 2 15.8824 7.67075 24.6062
970 2 3.84587 7.66951 24.697
971 2 7.94826 7.91153 24.6762
972 2 12.0109 7.71995 24.6613
973 2 15.8516 11.757 24.4636
974 2 3.868 11.6693 24.5627
975 2 8.00102 11.6516 24.5998
976 2 11.9957 11.7293 24.5396
977 2 0.0456546 15.7422 24.4515
978 2 4.21948 15.5064 24.5828
979 2 8.07882 15.6611 24.5771
980 2 11.9239 15.4953 24.4699
981 2 0.0382378 19.5776 24.5466
982 2 4.02718 19.6663 24.4896
983 2 7.98974 19.3627 24.6244
984 2 11.8791 19.4783 24.468
985 2 0.0505804 23.45 24.5996
986 2 4.10402 23.5021 24.4381
987 2 7.88257 23.3996 24.6228
988 2 12.0053 23.406 24.5604
989 2 0.0484292 27.3872 24.4544
990 2 4.07034 27.2952 24.4679
991 2 7.92304 27.4799 24.5071
992 2 11.9374 27.4638 24.502