ITEM: TIMESTEP
20000
ITEM: NUMBER OF ATOMS
32000
ITEM: BOX BOUNDS xy xz yz pp pp pp
0.0000000000000000e+00 1.5832000000000001e+01 0.0000000000000000e+00
0.0000000000000000e+00 1.5831999999999999e+02 0.0000000000000000e+00
8.2664102374673121e-01 1.6015047697625010e+02 0.0000000000000000e+00
ITEM: ATOMS id type x y z
1 2 15.7834 157.692 160.037
2 2 3.92266 157.991 160.009
3 2 8.01732 157.781 160.011
4 2 11.8878 157.692 159.901
5 2 -0.0887769 3.37308 159.891
6 2 3.77724 3.41477 159.981
7 2 7.86688 3.4678 159.988
8 2 11.943 3.30389 159.925
9 2 15.8809 7.27949 159.921
10 2 3.93427 7.40442 159.823
11 2 7.86568 7.40719 159.932
12 2 11.7611 7.29735 159.833
13 2 15.7963 11.1896 159.641
14 2 4.10003 11.0704 159.768
15 2 7.99655 11.243 159.849
16 2 12.0387 11.4221 159.676
17 2 0.138272 15.0832 159.722
18 2 4.14237 15.1559 159.816
19 2 8.00391 15.2147 159.721
20 2 12.0159 15.1896 159.736
21 2 16.1623 19.0603 159.769
22 2 4.23889 18.9072 159.568
23 2 8.01071 19.1325 159.465
24 2 11.9756 19.038 159.834
25 2 15.7303 23.1731 159.65
26 2 3.96903 23.1285 159.66
27 2 7.75244 23.0561 159.794
28 2 11.9224 23.1934 159.819
29 2 15.8594 27.1077 160.035
30 2 3.92422 27.0338 159.818
31 2 7.79584 27.1373 159.83
32 2 11.7858 27.3758 159.849
33 2 15.7726 31.261 159.814
34 2 4.15787 31.1334 0.501337
35 2 8.05781 31.1774 159.993
36 2 11.9609 31.2284 159.798
37 2 0.00444313 35.2066 160.122
38 2 3.98019 35.3258 159.817
39 2 7.90012 35.119 160.018
40 2 12.0025 35.2292 159.931
41 2 -0.0583583 39.4172 160.273
42 2 3.8076 39.2154 0.673169
43 2 7.81599 39.0919 0.719871
44 2 11.732 39.2842 0.706293
45 2 -0.201835 43.384 160.199
46 2 3.80846 43.1722 160.196
47 2 7.79923 43.1854 0.861428
48 2 11.8934 43.2926 0.943492
49 2 -0.0891715 47.1772 0.694483
50 2 4.02124 47.1113 0.860481
51 2 7.74835 47.2652 0.854072
52 2 11.7411 47.4799 0.905051
53 2 -0.0302895 51.2622 0.976353
54 2 3.99119 51.1377 0.824923
55 2 7.99536 51.3624 1.01943
56 2 11.8578 51.2577 0.863672
57 2 15.7263 55.2193 0.888213
58 2 3.80448 55.3408 0.964626
59 2 7.77035 55.2976 0.860311
60 2 11.868 55.3243 0.849325
61 2 0.0359104 59.2748 1.05093
62 2 3.89357 59.2703 0.949621
63 2 7.86115 59.2538 1.06413
64 2 12.0323 59.3123 1.01912
65 2 0.109645 63.4584 1.29272
66 2 4.07972 63.2974 1.12242
67 2 8.16008 63.4093 1.21132
68 2 11.9433 63.3784 1.13524
69 2 15.9395 67.462 1.15137
70 2 3.99574 67.4341 1.28811
71 2 7.93345 67.4725 1.03423
72 2 12.0174 67.4058 1.20181
73 2 0.102952 71.322 1.28657
74 2 3.96877 71.5359 1.28062
75 2 7.94362 71.3856 1.23561
76 2 11.9346 71.4723 1.29846
77 2 -0.206858 75.4774 1.38614
78 2 3.8221 75.4556 1.2159
79 2 7.73939 75.4541 1.33425
80 2 11.6574 75.4725 1.29208
81 2 0.143732 79.5209 1.35608
82 2 3.96957 79.2536 1.44175
83 2 7.86092 79.4102 1.57787
84 2 12.0349 79.3999 1.48128
85 2 -0.0198113 83.5756 1.65925
86 2 3.84756 83.5756 1.55905
87 2 7.69022 83.4819 1.53838
88 2 11.6879 83.4497 1.46469
89 2 -0.121687 87.4701 1.46238
90 2 3.94543 87.5567 1.3804
91 2 7.75981 87.3785 1.53827
92 2 11.7625 87.3832 1.42018
93 2 -0.229352 91.338 1.48206
94 2 3.82259 91.2829 1.38287
95 2 7.91347 91.3935 1.50837
96 2 11.7358 91.2911 1.3907
97 2 15.5717 95.3065 1.49342
98 2 3.75391 95.3292 1.20781
99 2 7.86122 95.309 1.16154
100 2 11.8155 95.2416 1.37828
101 2 -0.105606 99.1082 1.33994
102 2 4.05341 99.2347 1.40015
103 2 8.00864 99.258 1.48701
104 2 11.7054 99.1968 1.34773
105 2 0.136984 103.104 1.14213
106 2 3.90774 102.962 1.24782
107 2 7.87216 103.157 1.3312
108 2 11.8563 103.14 1.3354
109 2 0.0137357 106.892 1.24924
110 2 3.82944 107.01 1.29329
111 2 7.82704 106.84 1.35459
112 2 11.9061 107.017 1.38175
113 2 0.113185 111.049 1.29796
114 2 4.00294 111.172 1.30654
115 2 7.85034 110.998 1.46083
116 2 11.9894 110.829 1.28283
117 2 16.0986 114.884 1.22197
118 2 4.06515 115.006 1.246
119 2 7.81964 114.972 1.28064
120 2 11.8222 115.208 1.13803
121 2 0.149391 118.721 1.11829
122 2 3.95654 118.714 1.13817
123 2 8.00915 118.779 1.20442
124 2 11.7528 118.829 1.08032
125 2 15.7894 122.646 1.32916
126 2 3.9948 122.667 1.16778
127 2 7.83216 122.759 1.21512
128 2 11.8659 122.534 1.31031
129 2 0.345018 126.494 1.08611
130 2 4.05016 126.762 1.12326
131 2 7.99498 126.57 1.09467
132 2 11.9354 126.564 1.15724
133 2 16.0277 130.374 1.04772
134 2 4.17269 130.571 1.00397
135 2 8.03719 130.424 1.18019
136 2 12.0283 130.456 0.990556
137 2 15.9124 134.367 1.01045
138 2 4.12184 134.271 0.919721
139 2 8.09643 134.354 160.433
140 2 12.0899 134.38 0.949557
141 2 0.0278076 138.271 1.043
142 2 3.92783 138.368 160.331
143 2 8.10875 138.404 160.142
144 2 12.0882 138.438 0.846351
145 2 16.016 142.173 160.117
146 2 4.21102 142.034 160.055
147 2 8.02027 142.16 160.352
148 2 11.9688 142.36 160.095
149 2 0.280821 146.082 160.179
150 2 3.96022 146.237 160.07
151 2 7.75658 146.037 160.131
152 2 12.0929 146.152 160.259
153 2 15.7485 150.074 160.073
154 2 3.99223 149.992 160.217
155 2 7.99053 150.028 160.018
156 2 11.9013 149.923 0.86162
157 2 15.8483 153.947 160.233
158 2 3.72621 154.085 160.03
159 2 7.95158 153.878 159.971
160 2 11.943 153.922 160.114
161 2 15.8615 157.863 4.82705
162 2 4.13398 157.936 4.62422
163 2 7.9481 157.947 4.59894
164 2 11.7589 157.665 4.67238
165 2 -0.0277466 3.46123 4.63125
166 2 4.06217 3.39083 4.67902
167 2 8.07622 3.64153 4.47669
168 2 11.8399 3.424 4.43702
169 2 0.00294816 7.40754 4.58092
170 2 4.00783 7.42468 4.61863
171 2 7.99406 7.33109 4.61817
172 2 11.8296 7.41523 4.55372
173 2 -0.120987 11.3343 4.63353
174 2 3.97592 11.5709 4.51005
175 2 7.7666 11.2751 4.3959
176 2 11.8845 11.2706 4.41736
177 2 15.8342 15.2181 4.34035
178 2 3.94991 15.2113 4.49652
179 2 7.933 15.2978 4.29663
180 2 11.9084 15.1584 4.22412
181 2 0.171646 19.108 4.27023
182 2 4.03858 19.1472 4.46001
183 2 7.93474 19.0823 4.36148
184 2 11.8418 19.1798 4.48892
185 2 0.0934744 23.1671 4.26835
186 2 3.82017 22.9051 4.36475
187 2 7.81033 23.1957 4.28403
188 2 11.8048 22.9052 4.19362
189 2 15.6513 27.1705 4.57999
190 2 3.79246 27.1188 4.51036
191 2 7.82344 27.071 4.34398
192 2 11.8358 27.0056 4.33554
193 2 0.0593651 31.0233 4.38274
194 2 3.95468 31.0129 4.33705
195 2 7.91125 31.0592 4.36022
196 2 11.8998 31.009 4.38293
197 2 -0.0636115 35.2313 4.57509
198 2 4.02345 35.0208 4.55616
199 2 7.91717 35.2576 4.50103
200 2 11.7929 35.1267 4.53476
201 2 15.6665 39.1248 4.6418
202 2 3.79351 39.1951 4.42984
203 2 7.87287 39.2259 4.69432
204 2 11.688 39.054 4.54047
205 2 -0.00192196 43.1874 4.73044
206 2 3.95965 43.0749 4.70382
207 2 7.78767 43.1974 4.69815
208 2 11.6886 43.0643 4.83616
209 2 -0.0398233 47.2982 4.54056
210 2 3.7961 47.2743 4.79626
211 2 7.83787 47.027 4.77276
212 2 11.6826 47.2016 4.93558
213 2 -0.127273 51.2346 4.85111
214 2 4.17304 51.2529 4.77278
215 2 7.9166 51.2439 4.8951
216 2 11.8689 51.142 4.8046
217 2 -0.0596507 55.3271 4.89668
218 2 4.00174 55.2395 4.88708
219 2 7.74603 55.1932 4.80741
220 2 11.9129 55.3731 4.93175
221 2 15.7595 59.1691 4.91586
222 2 3.95721 59.2871 5.01034
223 2 7.80941 59.2319 4.98064
224 2 11.889 59.1951 4.9716
225 2 -0.0788233 63.1339 4.94031
226 2 4.15575 63.4942 5.14137
227 2 8.04855 63.3614 4.91023
228 2 11.9272 63.2078 5.02903
229 2 15.6933 67.2838 5.16694
230 2 3.88691 67.3139 5.11141
231 2 7.75295 67.4241 5.17652
232 2 11.8215 67.2754 5.11706
233 2 15.7904 71.3788 5.21529
234 2 3.94284 71.3944 5.23682
235 2 8.07394 71.2785 5.32398
236 2 11.8768 71.4059 5.21136
237 2 15.9483 75.4883 5.41008
238 2 4.01141 75.3707 5.00825
239 2 7.8928 75.4283 5.09847
240 2 11.8437 75.4403 5.13771
241 2 -0.139094 79.4078 5.49847
242 2 3.78459 79.3485 5.3204
243 2 7.92398 79.4966 5.55554
244 2 11.8588 79.4348 5.33784
245 2 15.757 83.2344 5.49178
246 2 3.6511 83.4324 5.33372
247 2 7.70281 83.4799 5.35879
248 2 11.6273 83.5967 5.40706
249 2 0.0165518 87.4272 5.13727
250 2 3.841 87.502 5.58027
251 2 7.83661 87.4633 5.38719
252 2 11.9395 87.529 5.37547
253 2 0.121897 91.388 5.32551
254 2 3.91738 91.4874 5.43542
255 2 7.90914 91.3987 5.45459
256 2 11.9353 91.4648 5.56283
257 2 15.7171 95.3192 5.37861
258 2 3.92224 95.2391 5.54362
259 2 7.85564 95.1298 5.43904
260 2 11.8084 95.3548 5.31429
261 2 -0.302476 99.1159 5.37508
262 2 3.84226 99.0997 5.33654
263 2 7.90903 99.1809 5.60673
264 2 11.6826 99.1051 5.44027
265 2 -0.117797 103.153 5.29069
266 2 3.74534 103.004 5.22371
267 2 7.76282 103.102 5.35671
268 2 12.0129 102.995 5.38076
269 2 15.9461 107.02 5.41302
270 2 3.79898 107.164 5.29388
271 2 7.79966 107.04 5.30424
272 2 11.7731 107.002 5.3104
273 2 15.8086 110.987 5.29992
274 2 3.99974 111.135 5.31917
275 2 7.85062 110.902 5.28929
276 2 11.8135 110.924 5.23645
277 2 -0.110566 114.97 5.22806
278 2 3.85835 114.811 5.19434
279 2 8.03392 114.827 5.28781
280 2 11.92 114.719 5.39465
281 2 0.00551673 118.816 5.16
282 2 3.86519 118.757 5.05515
283 2 7.95775 118.799 5.26484
284 2 11.8737 118.891 5.17061
285 2 15.9493 122.707 5.12414
286 2 3.90724 122.8 5.27783
287 2 7.92498 122.728 5.10338
288 2 11.9021 122.815 5.07203
289 2 0.00592748 126.744 5.22466
290 2 3.95599 126.816 5.12484
291 2 7.86195 126.659 5.32521
292 2 11.9161 126.528 5.31992
293 2 -0.11093 130.518 5.01817
294 2 4.02237 130.631 5.0758
295 2 8.17814 130.675 5.18495
296 2 12.0732 130.684 4.96791
297 2 15.846 134.602 5.00547
298 2 3.80228 134.422 5.02598
299 2 8.05132 134.339 5.11503
300 2 12.1048 134.434 5.05137
301 2 0.243993 138.527 4.88263
302 2 3.96537 138.543 5.14298
303 2 7.91021 138.231 4.9092
304 2 11.7703 138.337 4.92196
305 2 0.104421 142.412 4.84912
306 2 4.07343 142.189 5.16009
307 2 8.00526 142.24 5.06379
308 2 12.0312 142.276 4.80697
309 2 15.9903 146.244 4.72261
310 2 3.97782 146.222 4.99123
311 2 8.09711 146.08 4.91995
312 2 11.8942 146.077 4.71451
313 2 15.6825 150.137 4.62258
314 2 4.17824 150.087 4.96607
315 2 7.89438 150.094 4.91075
316 2 11.8838 150.047 4.93541
317 2 15.7623 153.891 4.81684
318 2 4.01455 153.991 4.90224
319 2 7.8572 154.084 4.74777
320 2 11.9293 153.947 4.73778
321 2 15.5677 158.034 8.67608
322 2 3.93496 157.927 8.5356
323 2 8.10487 157.973 8.66138
324 2 11.8303 157.614 8.50373
325 2 15.84 3.61711 8.48146
326 2 4.00452 3.44638 8.7792
327 2 8.00398 3.39851 8.36224
328 2 11.7533 3.43002 8.56361
329 2 15.8854 7.57888 8.56148
330 2 3.96589 7.49295 8.52782
331 2 7.92553 7.44561 8.49499
332 2 11.8745 7.2797 8.75202
333 2 0.143059 11.3556 8.52739
334 2 4.00899 11.4768 8.61584
335 2 7.99372 11.3766 8.52931
336 2 11.8264 11.3101 8.3991
337 2 15.9785 15.261 8.49871
338 2 4.01073 15.3811 8.47161
339 2 7.88833 15.293 8.42003
340 2 11.7288 15.1696 8.33338
341 2 0.0146207 19.0955 8.46453
342 2 4.01752 19.1466 8.53344
343 2 7.96745 19.1231 8.45515
344 2 11.9911 19.2422 8.52576
345 2 0.0504737 23.0719 8.25807
346 2 3.84292 23.0302 8.43948
347 2 7.73553 23.1626 8.24031
348 2 11.8237 23.0396 8.11898
349 2 -0.258758 27.0882 8.41087
350 2 4.0303 27.3621 8.26465
351 2 7.57707 27.098 8.25498
352 2 11.8746 26.9302 8.14065
353 2 0.0283028 31.2156 8.17458
354 2 3.72783 31.0634 8.3612
355 2 7.86571 31.0131 8.27404
356 2 11.9496 31.1963 8.27937
357 2 15.8893 35.1152 8.53838
358 2 4.04819 34.9761 8.32246
359 2 8.08676 34.9647 8.59656
360 2 12.1336 35.1779 8.3244
361 2 -0.017064 38.9486 8.27136
362 2 3.92572 39.1181 8.52261
363 2 7.72013 39.0637 8.48556
364 2 11.9531 39.1999 8.54029
365 2 0.0219436 43.0107 8.51805
366 2 3.84069 43.2425 8.648
367 2 7.73724 43.1378 8.50749
368 2 11.9487 43.0556 8.51071
369 2 -0.0164556 47.1309 8.44457
370 2 3.92077 47.1757 8.73136
371 2 7.81678 47.1825 8.66643
372 2 11.6648 47.1047 8.65708
373 2 15.8969 51.2563 8.85333
374 2 3.82351 51.3291 8.68451
375 2 7.76978 51.1723 8.80588
376 2 11.7803 51.0362 8.71483
377 2 15.816 55.2217 8.74679
378 2 3.98347 55.3593 8.69366
379 2 7.7927 55.1576 8.80683
380 2 11.9198 55.0667 8.77894
381 2 -0.153211 59.3089 8.94896
382 2 3.98269 59.3487 8.73636
383 2 8.0663 59.0565 8.93139
384 2 11.8687 59.3446 9.01568
385 2 0.0197512 63.1898 9.01226
386 2 4.11634 63.2998 8.81522
387 2 7.86488 63.2604 8.78891
388 2 12.1852 63.1743 8.88899
389 2 15.7864 67.1167 8.91637
390 2 4.07461 67.3809 9.04788
391 2 8.07537 67.3214 8.99072
392 2 11.9713 67.0602 9.11379
393 2 15.8027 71.4261 9.20986
394 2 3.91235 71.5079 9.23974
395 2 8.11992 71.3661 9.04102
396 2 11.8902 71.1552 8.94571
397 2 15.8565 75.155 9.14578
398 2 4.2455 75.2869 9.20866
399 2 8.00158 75.239 9.23293
400 2 12.0025 75.339 9.26488
401 2 15.9433 79.1178 9.13362
402 2 3.99822 79.3082 9.09897
403 2 7.9547 79.3814 9.11125
404 2 11.8936 79.3634 9.33099
405 2 0.0722252 83.3011 9.2842
406 2 3.75748 83.4248 9.31884
407 2 7.85579 83.4205 9.18909
408 2 11.7754 83.6116 9.30272
409 2 -0.0655263 87.5166 9.4344
410 2 3.78296 87.4553 9.29898
411 2 7.86031 87.4607 9.43519
412 2 11.8187 87.3577 9.4755
413 2 -0.132745 91.4668 9.29969
414 2 3.83937 91.4277 9.30532
415 2 7.85935 91.3127 9.54894
416 2 11.7284 91.438 9.47597
417 2 15.9629 95.4322 9.28166
418 2 4.03529 95.5081 9.37006
419 2 7.92959 95.4909 9.47035
420 2 11.9963 95.2662 9.49995
421 2 15.808 99.2642 9.53697
422 2 3.98075 99.437 9.37287
423 2 7.94333 99.3978 9.47361
424 2 11.937 99.1545 9.55569
425 2 -0.0446036 103.152 9.53343
426 2 3.90742 103.178 9.5462
427 2 7.81601 103.056 9.39553
428 2 11.8809 103.433 9.3112
429 2 0.000870962 107.455 9.14769
430 2 3.86399 107.072 9.29255
431 2 7.85981 107.065 9.3545
432 2 11.6556 107.133 9.38405
433 2 15.7808 110.891 9.57597
434 2 4.05894 111.001 9.36015
435 2 7.88292 110.951 9.2492
436 2 11.6867 111.13 9.34817
437 2 -0.05917 114.798 9.36916
438 2 3.79115 114.812 9.14721
439 2 7.93628 114.881 9.24499
440 2 11.7334 114.959 9.42731
441 2 0.0137218 118.925 9.17317
442 2 3.78378 118.672 9.08339
443 2 7.72137 118.743 9.26242
444 2 11.9056 118.801 9.25993
445 2 15.991 122.816 9.11692
446 2 4.08108 122.801 9.20914
447 2 7.92517 122.661 9.14596
448 2 11.9004 122.75 9.17796
449 2 15.8341 126.769 9.14651
450 2 4.09711 126.677 9.07643
451 2 8.1443 126.663 9.23169
452 2 11.9252 126.632 9.31921
453 2 -0.0287445 130.79 9.22866
454 2 4.19658 130.564 9.19664
455 2 8.00969 130.349 9.13044
456 2 12.0562 130.575 9.07158
457 2 0.0184227 134.527 9.05644
458 2 3.96358 134.427 9.05715
459 2 7.85817 134.632 9.15368
460 2 11.8149 134.493 9.0807
461 2 0.113848 138.373 8.97519
462 2 4.15497 138.303 8.90647
463 2 8.18612 138.421 8.85143
464 2 11.9595 138.538 9.05703
465 2 -0.11667 142.332 8.87743
466 2 4.14389 142.416 9.04884
467 2 8.059 142.382 8.89537
468 2 11.9539 142.388 8.97059
469 2 15.7836 146.157 8.80277
470 2 3.85426 146.457 8.8605
471 2 7.99027 146.211 8.82033
472 2 12.0653 146.121 8.81832
473 2 15.9191 150.254 8.68967
474 2 3.93317 150.088 8.9963
475 2 7.91065 150.072 8.92326
476 2 11.9742 150.185 8.89328
477 2 15.9287 153.985 8.70702
478 2 4.07318 154.041 8.82343
479 2 7.92301 154.025 8.81763
480 2 11.8227 154.068 8.90437
481 2 15.8153 157.998 12.4777
482 2 4.01714 157.893 12.76
483 2 7.69792 157.903 12.7123
484 2 11.8906 158.075 12.6035
485 2 15.8536 3.56021 12.5771
486 2 4.03552 3.63195 12.6127
487 2 7.80572 3.59987 12.6758
488 2 11.6827 3.63482 12.4977
489 2 15.9491 7.54671 12.7374
490 2 4.09333 7.43426 12.8584
491 2 7.96906 7.40512 12.5572
492 2 12.0533 7.47584 12.6628
493 2 -0.0889128 11.459 12.6021
494 2 3.95118 11.3573 12.6664
495 2 7.96287 11.5008 12.5242
496 2 11.9248 11.5052 12.4678
497 2 -0.0889128 15.3826 12.4739
498 2 3.86528 15.2416 12.5683
499 2 7.81429 15.4077 12.6568
500 2 11.7964 15.4426 12.5602
501 2 -0.224895 19.1041 12.386
502 2 3.80289 19.4132 12.4184
503 2 7.95792 19.302 12.4895
504 2 11.6001 19.4893 12.379
505 2 -0.0499945 23.0767 12.3164
506 2 3.88494 23.1789 12.3396
507 2 7.63578 23.4004 12.2853
508 2 11.7382 23.1901 12.3199
509 2 -0.0299674 26.9991 12.3642
510 2 3.89966 27.1727 12.1932
511 2 7.91357 27.1377 12.4823
512 2 11.7093 26.9336 12.1767
513 2 -0.0422175 30.9938 12.2119
514 2 3.79601 30.9264 12.4591
515 2 8.09357 30.9583 11.997
516 2 11.7839 30.8864 12.2096
517 2 0.187262 34.9194 12.3197
518 2 4.00725 34.9578 12.3124
519 2 7.95565 34.9878 12.3131
520 2 12.0072 34.9801 12.3031
521 2 0.236825 38.9474 12.312
522 2 4.2411 38.9679 12.2696
523 2 8.0016 39.079 12.3501
524 2 11.9632 39.0622 12.3628
525 2 0.12398 43.0922 12.4285
526 2 4.15569 43.0568 12.5082
527 2 8.10071 43.0354 12.3684
528 2 11.8137 42.9767 12.4302
529 2 0.024781 47.0488 12.5852
530 2 3.87896 47.103 12.5944
531 2 7.76263 47.0677 12.4786
532 2 12.0655 47.0449 12.4165
533 2 -0.0793456 50.9981 12.5414
534 2 3.77583 51.2213 12.7515
535 2 7.97312 50.9775 12.723
536 2 11.7609 51.1144 12.5162
537 2 15.8786 55.1869 12.8958
538 2 3.88361 55.255 12.7753
539 2 7.82657 55.1556 12.4431
540 2 11.9192 55.3237 12.5757
541 2 15.7847 59.0845 12.8968
542 2 3.78076 59.1587 12.7938
543 2 7.83768 59.1614 12.8132
544 2 11.7893 59.1933 12.7594
545 2 15.9703 63.1859 12.921
546 2 4.07798 63.1578 12.8431
547 2 8.02345 63.2815 12.8127
548 2 11.8545 63.1791 12.7935
549 2 -0.0294228 67.2426 12.886
550 2 3.91666 67.0292 12.9598
551 2 7.7998 67.1711 12.812
552 2 11.8946 67.2543 12.8231
553 2 0.0947929 71.2228 13.0577
554 2 3.84125 71.335 12.7638
555 2 7.87883 71.1598 12.9752
556 2 11.8559 71.2443 13.0707
557 2 -0.0635731 75.3925 13.2072
558 2 4.00696 75.1736 13.1243
559 2 8.00127 75.3743 13.2282
560 2 12.0329 75.3792 13.1446
561 2 0.247822 79.2992 13.0981
562 2 3.95574 79.0781 13.1615
563 2 7.93455 79.5468 13.0131
564 2 11.9446 79.2322 13.0975
565 2 0.11614 83.4482 13.0723
566 2 3.89127 83.27 13.1102
567 2 7.67425 83.3592 13.0014
568 2 11.9399 83.2799 13.1763
569 2 -0.0144512 87.4049 13.3016
570 2 3.85389 87.4478 13.288
571 2 7.76662 87.2724 13.192
572 2 11.6629 87.3798 13.3378
573 2 -0.0360855 91.2007 13.3384
574 2 3.8537 91.3216 13.4845
575 2 7.82138 91.1779 13.1893
576 2 11.9375 91.4574 13.3916
577 2 -0.0230283 95.3573 13.4216
578 2 3.83597 95.3983 13.4492
579 2 7.80075 95.3815 13.3375
580 2 11.9383 95.2665 13.5833
581 2 -0.0767382 99.247 13.3717
582 2 3.9152 99.3644 13.4739
583 2 7.87982 99.3135 13.3647
584 2 11.7089 99.1116 13.4972
585 2 -0.0550419 102.997 13.4687
586 2 3.91274 103.474 13.5052
587 2 7.90643 103.246 13.6033
588 2 11.7178 103.293 13.4866
589 2 -0.171907 107.108 13.3742
590 2 3.76484 107.178 13.4981
591 2 7.80293 107.247 13.3645
592 2 11.8862 107.061 13.4232
593 2 -0.118069 111.004 13.2381
594 2 4.06521 111.139 13.5041
595 2 8.01789 111.196 13.357
596 2 11.8391 111.087 13.3183
597 2 -0.0344341 115.171 13.3598
598 2 3.89284 115.073 13.3952
599 2 7.57072 114.975 13.2248
600 2 11.9257 114.98 13.4502
601 2 -0.114744 119.152 13.1075
602 2 3.66171 119.004 13.3824
603 2 7.94483 118.777 13.2452
604 2 11.9067 118.89 13.2622
605 2 -0.0506555 122.844 13.1933
606 2 3.87138 122.951 13.2279
607 2 7.95158 122.795 13.0919
608 2 11.8627 122.849 13.252
609 2 -0.106228 126.757 13.0474
610 2 3.89274 126.786 13.0398
611 2 7.97067 126.612 13.2911
612 2 11.9435 126.699 13.252
613 2 15.9094 130.656 13.2781
614 2 3.86626 130.584 13.2118
615 2 7.92512 130.544 13.1308
616 2 11.9998 130.59 13.0961
617 2 16.0926 134.6 12.9559
618 2 3.95898 134.44 13.053
619 2 7.70205 134.562 12.9909
620 2 11.7812 134.388 13.1024
621 2 -0.0745567 138.395 12.9821
622 2 3.96981 138.344 13.0754
623 2 7.87011 138.393 13.0731
624 2 11.7161 138.391 13.1361
625 2 16.0543 142.205 12.9439
626 2 4.1173 142.265 12.8591
627 2 7.96067 142.287 13.051
628 2 11.9241 142.372 13.0803
629 2 -0.00226731 146.231 13.0251
630 2 4.04471 146.174 12.8692
631 2 8.06491 146.169 13.005
632 2 12.0278 146.101 12.9019
633 2 0.0566184 150.233 12.8886
634 2 3.8974 150.117 12.8389
635 2 7.99346 150.144 12.7143
636 2 11.9734 149.998 12.8669
637 2 15.8787 154.075 12.7402
638 2 4.16455 154.109 12.7419
639 2 7.98939 153.979 12.6901
640 2 11.9254 153.928 12.7911
641 2 0.0661197 158.247 16.5008
642 2 3.90262 -0.266337 16.6689
643 2 7.98015 158.124 16.9184
644 2 11.9545 157.906 16.7376
645 2 15.8901 3.61594 16.7873
646 2 3.93385 3.60658 16.7037
647 2 8.00168 3.6334 16.7947
648 2 11.7381 3.64028 16.8269
649 2 0.0205931 7.71866 16.5902
650 2 3.7815 7.58846 16.6284
651 2 7.90729 7.67258 16.6195
652 2 11.7472 7.53001 16.6657
653 2 -0.0350052 11.4627 16.6278
654 2 3.91955 11.6728 16.6534
655 2 7.9275 11.5914 16.4612
656 2 11.7228 11.4404 16.7678
657 2 -0.0701909 15.4788 16.4842
658 2 4.02551 15.4189 16.5258
659 2 7.69363 15.4862 16.5714
660 2 11.8288 15.3344 16.7983
661 2 16.0155 19.2546 16.4233
662 2 4.07428 19.3766 16.5114
663 2 7.99286 19.3827 16.4715
664 2 11.8283 19.4167 16.5491
665 2 -0.215275 23.2419 16.1975
666 2 3.93155 23.2494 16.416
667 2 7.98253 23.3358 16.472
668 2 11.8162 23.3076 16.3913
669 2 -0.234986 27.0154 16.1711
670 2 3.94307 27.2408 16.5029
671 2 7.89252 27.2569 16.3537
672 2 11.7806 27.3835 16.3837
673 2 0.0443814 31.1637 16.1715
674 2 3.86473 31.2427 16.2206
675 2 7.83727 31.1802 16.1513
676 2 11.81 30.9855 16.2554
677 2 0.121737 35.3091 16.1467
678 2 3.99155 35.0339 16.2803
679 2 7.99887 35.0089 16.121
680 2 11.8828 35.0177 16.178
681 2 -0.0188858 38.9785 16.2718
682 2 4.00081 38.9167 16.2987
683 2 8.0607 38.8976 16.3549
684 2 11.9573 39.0142 16.4945
685 2 -0.0711361 43.0081 16.2539
686 2 4.01708 42.8539 16.2299
687 2 7.7733 43.0645 16.3815
688 2 11.8674 43.0083 16.3466
689 2 15.7895 47.0916 16.4264
690 2 3.82657 47.0042 16.3065
691 2 7.98205 47.128 16.3765
692 2 11.7876 47.0366 16.5315
693 2 -0.232493 51.1515 16.4914
694 2 3.84713 51.0873 16.5755
695 2 7.93724 51.1662 16.6095
696 2 11.8448 51.0673 16.5287
697 2 0.0573424 55.0917 16.6939
698 2 3.919 54.9538 16.5497
699 2 7.95603 55.1721 16.3593
700 2 11.9345 55.0516 16.4905
701 2 -0.310498 59.1512 16.796
702 2 3.8888 59.0606 16.7337
703 2 7.78138 59.0275 16.6646
704 2 11.7308 59.1503 16.8595
705 2 -0.0458943 62.9983 16.7837
706 2 3.92551 63.0576 16.6809
707 2 7.98561 63.1887 16.759
708 2 11.9528 63.294 16.7807
709 2 0.184739 67.2377 16.7634
710 2 4.00978 67.1504 16.9733
711 2 7.75297 67.1774 16.8976
712 2 11.93 67.2558 16.8754
713 2 0.0337939 71.1868 16.8484
714 2 4.04938 71.0146 16.9407
715 2 7.77473 71.138 16.8185
716 2 11.9177 71.0128 16.8603
717 2 -0.245232 75.1684 17.0205
718 2 3.90721 75.0975 17.1103
719 2 7.98009 75.1308 17.0321
720 2 11.7426 75.133 17.0695
721 2 0.0111743 79.3168 16.9796
722 2 4.06166 79.2252 17.0637
723 2 7.76314 79.2736 17.0294
724 2 11.766 79.3467 16.8862
725 2 0.160387 83.1395 16.9933
726 2 4.04572 83.2252 17.1708
727 2 8.0219 83.3125 17.2308
728 2 11.8673 83.2691 17.0072
729 2 -0.064775 87.2573 17.1348
730 2 3.93163 87.1596 17.138
731 2 7.64278 87.1179 17.0285
732 2 11.7891 87.1744 17.1002
733 2 -0.00816941 91.4608 17.3422
734 2 3.91889 91.3264 17.1751
735 2 7.97364 91.2833 17.2252
736 2 11.8386 91.2438 17.2974
737 2 -0.106085 95.3351 17.4196
738 2 4.02839 95.3332 17.1619
739 2 7.88456 95.2592 17.3233
740 2 11.63 95.2982 17.3209
741 2 -0.155301 99.3418 17.3644
742 2 3.90762 99.2566 17.4304
743 2 7.78815 99.4054 17.4094
744 2 11.8447 99.2081 17.5136
745 2 0.166509 103.123 17.3057
746 2 3.78575 103.307 17.5859
747 2 7.86543 103.482 17.489
748 2 11.9984 103.281 17.4559
749 2 -0.117269 107.233 17.3594
750 2 3.89486 107.056 17.3924
751 2 7.87262 107.423 17.3413
752 2 11.9211 107.194 17.488
753 2 -0.0739131 111.169 17.2703
754 2 3.96133 111.158 17.3627
755 2 8.01055 111.377 17.4795
756 2 11.9468 110.966 17.3559
757 2 -0.0243904 114.907 17.3101
758 2 3.95729 115.118 17.3025
759 2 7.87414 114.997 17.2962
760 2 12.0557 115.009 17.3573
761 2 -0.104782 118.889 17.0419
762 2 3.84439 119.155 17.111
763 2 7.93904 119.052 17.1626
764 2 11.8379 118.712 17.3526
765 2 0.0670908 122.883 17.2893
766 2 3.81848 122.874 17.3165
767 2 7.85396 122.708 17.3471
768 2 11.78 122.642 17.1294
769 2 15.9488 126.662 17.0701
770 2 4.03304 126.902 17.3775
771 2 7.87498 126.549 17.296
772 2 11.9811 126.707 17.2479
773 2 15.7582 130.469 17.1824
774 2 3.83246 130.85 17.1791
775 2 7.91599 130.554 17.1629
776 2 11.8423 130.949 17.2183
777 2 15.652 134.747 17.0719
778 2 3.91176 134.525 17.2059
779 2 7.75766 134.472 16.978
780 2 11.8651 134.572 17.1188
781 2 -0.0934235 138.463 17.0301
782 2 3.81169 138.526 17.0589
783 2 7.77607 138.392 17.035
784 2 11.8447 138.35 17.035
785 2 15.9399 142.284 16.9924
786 2 4.10737 142.432 16.855
787 2 7.93596 142.335 17.0976
788 2 12.1213 142.451 16.96
789 2 16.1001 146.328 16.7801
790 2 4.02594 146.368 16.8906
791 2 8.12513 146.428 16.8004
792 2 12.0439 146.201 16.8807
793 2 15.981 150.357 16.7603
794 2 3.90769 150.062 16.779
795 2 7.84145 150.283 16.8497
796 2 12.0434 150.369 16.842
797 2 15.7755 154.206 16.6135
798 2 3.88888 154.189 16.9428
799 2 7.96426 154.144 16.6616
800 2 11.9556 154.174 16.6518
801 2 15.8881 158.129 20.9595
802 2 3.90795 158.135 20.805
803 2 7.93915 158.189 20.5975
804 2 11.9576 158.18 20.6428
805 2 0.0518797 3.75801 20.7243
806 2 3.89895 3.66899 20.5768
807 2 7.78424 3.78825 20.7355
808 2 11.8731 3.6843 20.801
809 2 15.74 7.58131 20.6075
810 2 3.92393 7.66685 20.7327
811 2 7.86184 7.63264 20.6263
812 2 11.7728 7.71991 20.5671
813 2 15.9185 11.5181 20.5292
814 2 4.21575 11.4106 20.6187
815 2 7.95312 11.5997 20.6154
816 2 11.9035 11.4009 20.5945
817 2 16.0421 15.5241 20.5254
818 2 3.93496 15.5895 20.5424
819 2 7.79008 15.5935 20.4876
820 2 12.029 15.5131 20.557
821 2 -0.0558957 19.4706 20.5878
822 2 3.83856 19.3953 20.6678
823 2 7.89237 19.4791 20.674
824 2 11.9509 19.3067 20.4756
825 2 0.0761103 23.4548 20.4092
826 2 4.08862 23.38 20.3959
827 2 7.91101 23.5734 20.4758
828 2 12.0215 23.2027 20.3429
829 2 15.9475 27.3356 20.4617
830 2 3.99762 27.3511 20.4273
831 2 7.87693 27.3977 20.5214
832 2 11.8793 27.1988 20.3806
833 2 15.7293 31.1796 20.3447
834 2 3.80996 31.0396 20.0792
835 2 7.75393 31.3117 20.3405
836 2 11.9315 31.2152 20.0707
837 2 15.7335 34.8291 20.152
838 2 3.87912 35.051 20.3727
839 2 7.84214 35.0063 20.3475
840 2 11.9112 35.0922 20.2943
841 2 -0.180837 38.9796 20.2618
842 2 3.86586 39.0086 20.3503
843 2 7.76876 38.9219 20.3106
844 2 11.6577 39.0099 20.2554
845 2 15.6827 43.1375 20.1853
846 2 3.69632 43.0435 20.3095
847 2 7.5869 43.0222 20.1719
848 2 11.7275 43.1385 20.2348
849 2 15.6969 47.2457 20.3355
850 2 3.79909 46.9077 20.3775
851 2 7.76188 46.9051 20.3205
852 2 11.8226 46.9036 20.2409
853 2 -0.133301 50.8864 20.5992
854 2 3.86491 51.0886 20.3755
855 2 7.71176 51.0265 20.2599
856 2 11.7622 50.9723 20.4725
857 2 -0.122696 54.9759 20.739
858 2 3.86395 55.1321 20.492
859 2 7.68196 55.0774 20.4727
860 2 11.6824 54.9219 20.4074
861 2 15.5889 59.0179 20.539
862 2 3.83389 59.1434 20.4036
863 2 7.73571 59.1311 20.6138
864 2 11.8315 58.8529 20.6282
865 2 15.8155 63.1087 20.8044
866 2 4.04188 63.0302 20.7383
867 2 7.85421 62.9417 20.9077
868 2 12.0203 63.1787 20.8491
869 2 0.146074 67.1631 20.5155
870 2 4.04644 67.1388 20.6737
871 2 7.82613 66.9462 20.8218
872 2 11.6589 67.2026 20.5846
873 2 0.050694 71.2687 20.8974
874 2 3.75429 71.073 20.8662
875 2 7.88167 71.2284 20.8219
876 2 11.7557 71.0565 21.0474
877 2 -0.160725 75.0461 21.0445
878 2 3.88283 75.041 20.943
879 2 7.78019 75.0158 20.9543
880 2 11.8806 75.0127 20.9023
881 2 -0.266025 79.2415 20.9767
882 2 3.7518 78.9918 20.8914
883 2 7.70699 79.1165 21.0001
884 2 11.7509 79.0368 20.9585
885 2 -0.11624 83.1532 21.0116
886 2 3.85049 83.0509 20.9701
887 2 7.7993 83.0871 21.1182
888 2 11.9624 83.0686 21.1508
889 2 -0.0519275 87.208 21.0616
890 2 3.75166 87.2135 21.03
891 2 7.87444 87.2195 21.1677
892 2 11.8187 87.2507 21.0519
893 2 -0.041793 91.2706 21.364
894 2 3.88943 91.2779 21.1252
895 2 7.93545 91.1628 21.0458
896 2 11.8482 91.1557 21.387
897 2 -0.256382 95.2383 21.189
898 2 3.89564 95.2283 21.2157
899 2 7.69355 95.1841 21.1872
900 2 11.8519 95.1019 21.1994
901 2 -0.0489452 99.3918 21.3924
902 2 3.94853 99.2531 21.4308
903 2 7.92869 99.2098 21.2132
904 2 11.8616 99.4211 21.5048
905 2 -0.166121 103.358 21.4915
906 2 3.76686 103.357 21.4502
907 2 7.82053 103.296 21.5375
908 2 11.816 103.281 21.4182
909 2 -0.061807 107.33 21.46
910 2 3.75503 107.282 21.4562
911 2 7.6365 107.213 21.5862
912 2 11.5714 107.141 21.5296
913 2 -0.0678994 111.391 21.432
914 2 3.98533 111.264 21.3768
915 2 7.84459 111.108 21.2761
916 2 11.8402 111.141 21.2249
917 2 15.6693 115.221 21.1937
918 2 3.82949 115.071 21.2983
919 2 7.92464 115.077 21.3687
920 2 11.8347 115.055 21.3906
921 2 -0.00801478 118.94 21.4085
922 2 3.87599 118.986 21.1136
923 2 7.91202 119.067 21.2898
924 2 11.8062 119.089 21.3895
925 2 15.8695 122.922 21.3446
926 2 3.98488 122.84 21.2859
927 2 7.88937 122.925 21.3803
928 2 11.7896 123.034 21.2122
929 2 15.9472 126.708 21.1362
930 2 4.00721 126.944 21.2891
931 2 7.99213 126.864 21.244
932 2 11.9036 126.777 21.2277
933 2 15.7975 130.547 21.1836
934 2 3.95763 130.871 21.2371
935 2 8.05182 130.693 21.1427
936 2 11.8126 130.614 21.4251
937 2 0.104947 134.663 21.1258
938 2 3.82382 134.635 21.0802
939 2 7.82356 134.771 20.9395
940 2 11.9306 134.35 21.1656
941 2 15.9077 138.604 21.0839
942 2 3.92101 138.582 21.0841
943 2 8.24029 138.591 20.9871
944 2 12.0604 138.479 21.1151
945 2 16.0329 142.442 20.9714
946 2 4.11854 142.57 20.8257
947 2 8.12559 142.509 20.9581
948 2 12.0615 142.398 21.0193
949 2 16.0279 146.406 21.1092
950 2 4.11433 146.352 20.9114
951 2 8.0649 146.405 20.936
952 2 12.0382 146.232 20.9294
953 2 15.9839 150.323 20.8527
954 2 4.07151 150.397 20.8395
955 2 7.88568 150.239 20.9333
956 2 11.87 150.299 20.8165
957 2 15.9542 154.143 20.9025
958 2 4.01437 154.329 20.8263
959 2 7.95802 154.293 20.8795
960 2 12.017 154.291 20.6992
961 2 -0.126193 158.227 24.9021
962 2 4.04171 158.211 24.9072
963 2 8.03252 158.236 24.6531
964 2 11.7766 158.163 24.7437
965 2 15.7054 3.70443 24.7533
966 2 3.92986 3.83237 24.7606
967 2 7.97855 3.80096 24.5957
968 2 11.7997 3.80367 24.8735
969 2 15.8474 7.733 24.6229
970 2 3.95709 7.90292 24.5671
971 2 8.05412 7.70715 24.6814
972 2 11.9609 7.72794 24.7366
973 2 15.7696 11.6369 24.7906
974 2 3.89513 11.5505 24.336
975 2 8.16735 11.7315 24.5491
976 2 11.9126 11.6732 24.7066
977 2 0.0268563 15.6171 24.7407
978 2 3.90275 15.6979 24.5189
979 2 8.05879 15.6188 24.5321
980 2 12.0033 15.7995 24.6912
981 2 0.108268 19.6196 24.6093
982 2 4.05214 19.4884 24.63
983 2 7.9568 19.6621 24.5677
984 2 11.8779 19.5134 24.6448
985 2 0.0577428 23.5967 24.4342
986 2 4.02412 23.4355 24.4911
987 2 8.1493 23.4791 24.3738
988 2 12.053 23.4427 24.4458
989 2 -0.0190926 27.3588 24.3833
990 2 3.94868 27.2695 24.4826