ITEM: TIMESTEP
20100
ITEM: NUMBER OF ATOMS
32000
ITEM: BOX BOUNDS xy xz yz pp pp pp
0.0000000000000000e+00 1.5832000000000001e+01 0.0000000000000000e+00
0.0000000000000000e+00 1.5831999999999999e+02 0.0000000000000000e+00
8.1370566644361020e-01 1.6016341233355323e+02 0.0000000000000000e+00
ITEM: ATOMS id type x y z
1 2 15.8581 157.905 160.012
2 2 3.95298 157.724 159.912
3 2 7.89754 157.788 159.876
4 2 11.8959 157.953 160.094
5 2 0.233235 3.56757 160.01
6 2 4.12408 3.43297 159.942
7 2 7.95666 3.31659 159.901
8 2 11.9259 3.33381 159.868
9 2 15.695 7.32843 159.957
10 2 4.00439 7.45444 159.953
11 2 8.11786 7.288 159.968
12 2 12.0846 7.28647 159.924
13 2 15.8598 11.2384 159.865
14 2 3.69998 11.3577 159.804
15 2 7.91519 11.3175 159.867
16 2 11.7736 11.1304 159.833
17 2 0.0544467 15.3159 159.473
18 2 3.92917 15.129 159.712
19 2 8.11298 15.3021 159.687
20 2 11.9206 15.2397 159.826
21 2 15.7984 19.1167 159.566
22 2 3.90848 19.1786 159.76
23 2 8.17887 19.2182 159.724
24 2 12.009 19.1198 159.57
25 2 16.0046 23.098 159.849
26 2 3.94253 23.2272 159.73
27 2 7.88748 23.1566 159.673
28 2 11.9433 22.9945 159.819
29 2 15.673 27.115 159.643
30 2 3.88161 27.206 159.763
31 2 7.90918 27.0402 159.839
32 2 11.7487 27.071 159.966
33 2 15.9311 31.0401 159.829
34 2 3.90819 31.1062 0.501144
35 2 7.8505 31.0479 159.793
36 2 11.8384 31.2742 160.018
37 2 0.0801411 35.1647 159.952
38 2 3.81524 35.0341 159.989
39 2 7.94633 35.0565 159.986
40 2 11.8406 35.1273 159.91
41 2 -0.170849 38.9499 159.948
42 2 4.06713 39.1033 0.751968
43 2 7.854 39.0929 0.636973
44 2 11.7724 39.1496 0.658235
45 2 -0.0870302 43.228 160.14
46 2 3.94354 43.2304 160.024
47 2 7.89513 43.1949 0.637886
48 2 11.7417 43.1946 0.794022
49 2 0.00579885 47.3704 0.801971
50 2 3.85151 47.2528 0.789708
51 2 7.97874 47.1309 0.828891
52 2 11.7567 47.0787 0.82093
53 2 0.0160394 51.2364 0.879193
54 2 3.98912 51.3542 0.858042
55 2 7.90065 51.1753 0.992825
56 2 12.0454 51.4646 0.983158
57 2 15.763 55.2389 1.13602
58 2 3.89467 55.2621 1.19332
59 2 7.92845 55.3435 1.10358
60 2 11.7077 55.4292 0.943797
61 2 -0.0230588 59.3613 1.12963
62 2 4.0579 59.4464 1.24681
63 2 8.04224 59.4624 1.11464
64 2 11.8456 59.4163 0.96884
65 2 -0.0388074 63.2969 1.18103
66 2 4.06108 63.4249 1.1276
67 2 8.00343 63.4745 1.06446
68 2 12.0397 63.3946 1.01442
69 2 15.9674 67.3901 1.17554
70 2 3.9042 67.4248 1.22908
71 2 7.95832 67.4634 1.37158
72 2 12.0108 67.4878 1.08534
73 2 -0.130179 71.5379 1.08527
74 2 3.8381 71.3364 1.15671
75 2 7.83894 71.454 1.16695
76 2 11.8141 71.4037 1.31409
77 2 -0.0168136 75.5194 1.42963
78 2 3.90744 75.3705 1.31605
79 2 7.80676 75.5898 1.13992
80 2 11.8493 75.3592 1.20953
81 2 -0.168138 79.5846 1.41639
82 2 3.80207 79.664 1.13137
83 2 7.96058 79.6541 1.32671
84 2 11.7302 79.6881 1.33714
85 2 -0.0349289 83.4267 1.47583
86 2 3.93502 83.5856 1.49354
87 2 7.92552 83.4573 1.55677
88 2 11.8275 83.4852 1.53739
89 2 -0.181677 87.466 1.23517
90 2 3.87078 87.3597 1.65858
91 2 7.84845 87.5196 1.47152
92 2 11.7323 87.3511 1.55417
93 2 0.0901576 91.3149 1.51324
94 2 4.04963 91.4535 1.6579
95 2 7.92704 91.44 1.39344
96 2 11.9417 91.3805 1.47732
97 2 15.8917 95.2983 1.23395
98 2 4.17364 95.4824 1.17888
99 2 8.02448 95.2661 1.51204
100 2 11.8387 95.4465 1.48504
101 2 0.216633 99.4207 1.27006
102 2 3.92826 99.2545 1.3583
103 2 7.81661 99.3495 1.22951
104 2 12.0234 99.1471 1.28781
105 2 -0.0640886 103.069 1.49526
106 2 3.96941 103.122 1.30729
107 2 7.91111 103.32 1.38192
108 2 11.8187 102.931 1.28974
109 2 -0.0716735 107.033 1.39205
110 2 3.8115 107.072 1.28216
111 2 8.04265 107.328 1.34884
112 2 11.9051 106.997 1.24492
113 2 0.01888 110.912 1.31792
114 2 4.05581 110.96 1.15988
115 2 8.07221 111.018 1.24868
116 2 11.8798 111.255 1.27736
117 2 15.7808 114.796 1.18127
118 2 3.89082 114.896 1.26733
119 2 7.90181 115.026 1.09008
120 2 11.9814 114.727 1.20629
121 2 -0.222377 118.774 1.24798
122 2 4.00065 118.934 1.19273
123 2 7.72462 118.849 1.19645
124 2 11.8017 118.999 1.28346
125 2 15.8797 122.78 1.09584
126 2 3.9343 122.783 1.23009
127 2 7.97045 122.796 1.13265
128 2 11.9599 122.964 1.12596
129 2 -0.023776 126.658 1.03223
130 2 4.0617 126.611 1.12879
131 2 7.84926 126.674 1.17467
132 2 11.9327 126.643 1.04491
133 2 15.7752 130.496 0.996769
134 2 3.74957 130.403 1.0112
135 2 7.97127 130.521 0.925942
136 2 11.9614 130.624 1.06143
137 2 16.0532 134.466 0.933692
138 2 4.01908 134.464 1.05953
139 2 7.86668 134.297 160.228
140 2 11.8413 134.405 1.10157
141 2 0.109031 138.335 0.826912
142 2 4.06606 138.145 160.177
143 2 7.85576 138.214 160.458
144 2 11.9603 138.206 1.01713
145 2 15.9056 142.142 160.33
146 2 3.85782 142.342 160.335
147 2 7.79442 142.232 160.21
148 2 11.8288 142.294 160.314
149 2 0.0284292 146.217 159.967
150 2 4.11337 146.099 160.167
151 2 8.03116 146.101 160.154
152 2 11.7997 146.253 160.097
153 2 15.8836 150.208 160.181
154 2 4.01246 150.039 160.138
155 2 7.92866 150.091 160.248
156 2 11.858 150.117 0.815484
157 2 15.7565 153.963 160.012
158 2 3.97235 153.764 160.121
159 2 7.75091 153.941 160.136
160 2 11.6108 153.959 159.852
161 2 15.8003 157.937 4.63241
162 2 3.9342 157.787 4.55146
163 2 7.81858 157.851 4.67303
164 2 12.0296 157.928 4.68019
165 2 0.148047 3.57989 4.64902
166 2 4.03591 3.54287 4.54633
167 2 7.99948 3.45509 4.68928
168 2 12.0102 3.31126 4.72624
169 2 -0.024803 7.47746 4.52087
170 2 4.06703 7.40122 4.43081
171 2 7.86899 7.44766 4.43784
172 2 11.9214 7.42512 4.62765
173 2 0.179976 11.3753 4.2966
174 2 3.96833 11.2545 4.45215
175 2 7.98869 11.3441 4.55025
176 2 11.9629 11.3966 4.57391
177 2 15.9188 15.2195 4.52781
178 2 4.01827 15.2194 4.2848
179 2 8.12929 15.2613 4.46099
180 2 12.0116 15.1159 4.38632
181 2 -0.0683151 19.1026 4.4678
182 2 4.26237 19.0397 4.3134
183 2 8.02733 19.1534 4.38393
184 2 12.0634 19.1151 4.40371
185 2 0.0769619 22.9467 4.13547
186 2 4.03052 23.2396 4.23785
187 2 7.69305 23.007 4.28108
188 2 11.72 23.1385 4.27641
189 2 15.8972 27.1261 4.39346
190 2 3.87192 27.2541 4.37824
191 2 7.92666 27.2174 4.45922
192 2 11.7727 26.9608 4.37462
193 2 -0.0412479 31.256 4.32039
194 2 3.90978 31.0919 4.38557
195 2 7.92896 31.1037 4.53471
196 2 12.0375 31.1924 4.48772
197 2 0.209737 34.9612 4.60923
198 2 3.96605 35.0508 4.50865
199 2 8.02091 34.8436 4.60187
200 2 11.9685 35.0404 4.46579
201 2 15.7914 38.9904 4.52375
202 2 3.99818 39.0308 4.6922
203 2 7.84007 38.9946 4.39208
204 2 11.8522 39.1229 4.62235
205 2 -0.00790579 42.9675 4.68873
206 2 3.84559 43.0642 4.60585
207 2 8.05413 42.9825 4.58862
208 2 12.0379 43.1251 4.62829
209 2 -0.117259 47.0597 4.5877
210 2 4.03437 46.9663 4.65418
211 2 7.96778 47.2236 4.75165
212 2 11.8745 47.1289 4.69903
213 2 0.159421 51.1323 4.66128
214 2 3.87484 51.1251 4.77732
215 2 7.908 51.1055 4.79103
216 2 11.8393 51.314 4.87372
217 2 -0.0591728 55.2325 4.87627
218 2 3.84521 55.3011 5.08369
219 2 7.96121 55.3821 4.93119
220 2 11.7237 55.2182 4.81969
221 2 15.9355 59.348 5.09619
222 2 3.87437 59.2993 4.95106
223 2 8.00439 59.2952 4.84576
224 2 11.8544 59.4979 5.10544
225 2 0.264986 63.4665 5.12941
226 2 4.11157 63.3863 5.03159
227 2 8.01985 63.3465 5.18619
228 2 12.015 63.5195 5.11115
229 2 16.0253 67.6208 5.13308
230 2 4.09689 67.4739 5.11458
231 2 8.08235 67.2758 5.03501
232 2 11.8863 67.4834 4.85778
233 2 15.8728 71.4783 5.0887
234 2 4.00161 71.4646 5.27217
235 2 7.85377 71.4053 5.06519
236 2 11.9923 71.4247 5.27768
237 2 15.9298 75.3235 5.17835
238 2 4.0734 75.356 5.35263
239 2 7.99626 75.3214 5.29027
240 2 11.8446 75.4247 5.16988
241 2 0.0351904 79.2891 5.15611
242 2 3.99304 79.3636 5.23251
243 2 7.76673 79.2754 5.03432
244 2 11.9004 79.3395 5.22918
245 2 15.7878 83.5615 5.44442
246 2 3.96254 83.5206 5.61449
247 2 7.72098 83.324 5.48181
248 2 11.8618 83.6006 5.61015
249 2 -0.299933 87.3778 5.32484
250 2 3.92147 87.5497 5.47915
251 2 7.68554 87.6944 5.62462
252 2 11.5707 87.4166 5.65772
253 2 -0.0893681 91.3652 5.52221
254 2 3.95696 91.6031 5.46836
255 2 7.81092 91.4635 5.49633
256 2 11.8529 91.3271 5.34045
257 2 15.9821 95.1029 5.2952
258 2 4.02836 95.5898 5.30798
259 2 7.94251 95.4353 5.40945
260 2 11.8742 95.2832 5.48236
261 2 0.0622732 99.2681 5.43207
262 2 4.01515 99.2736 5.3824
263 2 7.90087 99.2885 5.30366
264 2 12.0163 99.2642 5.32976
265 2 -0.011564 103.114 5.63569
266 2 3.84434 103.278 5.55722
267 2 7.90814 103.211 5.31147
268 2 11.6863 103.163 5.41655
269 2 15.6303 107.065 5.2814
270 2 3.95943 107.051 5.30128
271 2 7.84644 106.897 5.24733
272 2 11.9421 106.98 5.37931
273 2 15.6271 110.989 5.09967
274 2 3.94694 110.958 5.21001
275 2 7.90896 110.876 5.13628
276 2 11.7109 110.943 5.33982
277 2 -0.0136182 114.764 5.19666
278 2 4.03851 115 5.4023
279 2 7.84679 115.024 5.24263
280 2 11.8056 114.916 5.17622
281 2 -0.249867 118.63 5.13589
282 2 3.84512 118.993 5.25721
283 2 7.97714 118.756 5.07308
284 2 11.8124 118.814 5.32696
285 2 15.7992 122.789 5.20575
286 2 4.00405 122.847 5.14381
287 2 7.98767 122.67 5.34594
288 2 11.9155 122.734 5.40613
289 2 -0.0831961 126.634 5.14716
290 2 4.02369 126.653 5.25362
291 2 8.04675 126.679 5.05154
292 2 11.803 126.752 5.02804
293 2 0.137712 130.454 5.16163
294 2 4.08869 130.689 5.19721
295 2 7.85304 130.343 4.96442
296 2 11.939 130.457 5.11395
297 2 15.7299 134.468 5.1122
298 2 3.93103 134.563 5.04088
299 2 7.93099 134.563 4.97472
300 2 11.7523 134.467 5.04251
301 2 -0.192324 138.402 4.96918
302 2 4.17176 138.198 4.67895
303 2 8.02994 138.42 5.01454
304 2 11.8125 138.39 4.91591
305 2 -0.155048 142.228 4.92146
306 2 3.89203 142.41 4.76119
307 2 7.9604 142.314 4.76296
308 2 11.9116 142.378 4.80266
309 2 15.808 146.249 4.86235
310 2 4.02244 146.075 4.63559
311 2 7.8534 146.286 4.76502
312 2 11.9711 146.299 4.88304
313 2 15.8071 150.084 4.95365
314 2 3.89379 149.978 4.69324
315 2 7.95227 150.185 4.74864
316 2 11.7556 150.115 4.69824
317 2 15.9548 154.073 4.76578
318 2 3.98187 154.048 4.64237
319 2 8.02328 154.069 4.64511
320 2 11.8643 153.998 4.83885
321 2 16.0399 158.074 8.66214
322 2 3.95903 157.917 8.80714
323 2 7.75827 157.959 8.57015
324 2 11.9611 158.24 8.86228
325 2 15.9532 3.6536 8.58699
326 2 3.88333 3.5153 8.41572
327 2 7.89761 3.60183 8.77744
328 2 11.9013 3.74999 8.70128
329 2 15.9679 7.3639 8.50701
330 2 4.03765 7.36686 8.63794
331 2 7.94831 7.49723 8.50331
332 2 12.0532 7.62261 8.4055
333 2 -0.044438 11.4009 8.49811
334 2 3.98001 11.2432 8.41686
335 2 7.8577 11.3526 8.51374
336 2 11.9011 11.3222 8.49318
337 2 15.7879 15.1798 8.47113
338 2 3.96763 15.2457 8.57577
339 2 7.77454 15.1451 8.61606
340 2 11.7342 15.3958 8.20328
341 2 -0.0211003 19.0749 8.2048
342 2 3.76723 19.2053 8.24991
343 2 7.87742 19.1285 8.37001
344 2 11.8791 19.2469 8.12401
345 2 -0.028181 23.2148 8.22167
346 2 3.93832 23.1633 8.30749
347 2 7.72325 23.1689 8.41845
348 2 11.7369 23.0867 8.24735
349 2 -0.015724 26.9805 8.27178
350 2 3.62832 26.9238 8.2897
351 2 8.03787 27.0007 8.30942
352 2 11.8173 26.994 8.27614
353 2 -0.206129 31.0709 8.53979
354 2 4.18031 31.0918 8.47451
355 2 7.93589 30.9683 8.39249
356 2 11.7362 30.9496 8.43548
357 2 15.8672 34.9712 8.38669
358 2 3.96631 34.9943 8.592
359 2 7.85241 34.933 8.14572
360 2 11.7272 35.0111 8.68881
361 2 0.0835634 38.9974 8.5881
362 2 4.0688 38.931 8.53909
363 2 7.98067 38.9139 8.43789
364 2 11.7555 38.8175 8.44114
365 2 -0.0930361 43.074 8.64875
366 2 3.83919 42.9682 8.55319
367 2 7.92993 43.0636 8.49634
368 2 11.722 43.1001 8.65474
369 2 -0.155717 47.1768 8.48202
370 2 3.8815 46.9966 8.50125
371 2 7.80128 47.0189 8.62301
372 2 11.982 47.1903 8.76722
373 2 15.6876 51.009 8.64021
374 2 3.81904 50.9903 8.73101
375 2 7.97208 51.0618 8.70973
376 2 11.8837 51.2956 8.66866
377 2 15.7843 55.2178 8.77175
378 2 3.90642 54.994 8.88915
379 2 7.86242 55.211 8.69678
380 2 11.82 55.2658 8.76789
381 2 0.117042 59.2172 8.9583
382 2 4.02344 59.2162 9.11901
383 2 7.76099 59.3872 8.84634
384 2 11.8035 59.1018 8.76765
385 2 0.0609999 63.2788 8.91766
386 2 3.84358 63.103 9.04154
387 2 7.98953 63.2237 9.12715
388 2 11.7224 63.2692 9.0597
389 2 16.0022 67.3609 9.12046
390 2 3.98394 67.1864 8.98688
391 2 7.96466 67.218 9.17296
392 2 12.029 67.4319 8.80339
393 2 15.8049 71.29 9.14221
394 2 3.93863 71.1127 8.95636
395 2 7.89189 71.2582 9.1236
396 2 11.911 71.3659 9.23665
397 2 15.9057 75.4033 9.19686
398 2 3.86731 75.2134 9.16692
399 2 8.00156 75.3725 9.12928
400 2 11.8342 75.2177 9.08876
401 2 15.6705 79.3927 9.19199
402 2 3.91823 79.1801 9.42937
403 2 7.87875 79.3333 9.07712
404 2 11.7224 79.3283 8.99185
405 2 -0.196503 83.341 9.25593
406 2 3.91727 83.394 9.26797
407 2 7.72193 83.4429 9.31085
408 2 11.7466 83.1509 9.19191
409 2 -0.104369 87.287 9.38276
410 2 3.73411 87.4335 9.41819
411 2 7.74548 87.5907 9.40934
412 2 11.7427 87.2923 9.33027
413 2 -0.22087 91.2728 9.40897
414 2 3.68131 91.5699 9.48059
415 2 7.95047 91.6377 9.43988
416 2 11.8433 91.2531 9.37143
417 2 15.6633 95.3609 9.57756
418 2 3.80129 95.3842 9.52087
419 2 7.88893 95.2555 9.51493
420 2 11.6985 95.3874 9.41512
421 2 15.8185 99.2702 9.43535
422 2 4.03083 99.2623 9.28022
423 2 8.08461 99.2478 9.3716
424 2 11.8446 99.3517 9.26512
425 2 0.0216314 103.314 9.45056
426 2 3.95626 103.241 9.41764
427 2 7.87512 103.353 9.39528
428 2 11.8896 103.133 9.48628
429 2 0.0952552 106.992 9.44187
430 2 4.0153 107.217 9.44671
431 2 7.83414 107.025 9.35731
432 2 11.89 107.195 9.27557
433 2 15.8373 111.293 9.04213
434 2 3.84859 111.11 9.26414
435 2 7.79895 110.962 9.32024
436 2 11.8994 110.956 9.26432
437 2 -0.0181938 115.059 9.17708
438 2 3.93408 115.091 9.22361
439 2 7.69339 114.911 9.32803
440 2 11.8913 114.852 9.27301
441 2 -0.0513868 118.919 9.145
442 2 3.97136 119.082 9.14723
443 2 7.89538 118.872 9.17711
444 2 11.7796 118.817 9.21575
445 2 16.025 122.901 9.15372
446 2 4.11597 122.716 9.13917
447 2 8.06967 122.736 9.28604
448 2 12.1459 122.75 9.26082
449 2 15.8986 126.743 9.25912
450 2 3.93869 126.569 9.12569
451 2 7.93489 126.684 9.19706
452 2 11.9242 126.613 9.21367
453 2 0.128876 130.411 9.06138
454 2 3.81028 130.779 9.02832
455 2 8.00464 130.753 9.01519
456 2 11.8711 130.758 9.21419
457 2 -0.16232 134.743 9.0008
458 2 3.77996 134.575 9.14815
459 2 7.8745 134.463 8.91082
460 2 11.9846 134.547 9.09109
461 2 -0.143165 138.484 9.0678
462 2 3.89937 138.511 8.85117
463 2 7.73494 138.412 9.06328
464 2 11.7536 138.477 9.01734
465 2 0.215065 142.109 8.86359
466 2 3.97925 142.134 8.87876
467 2 7.89017 142.407 8.98401
468 2 11.8481 142.188 8.90473
469 2 15.9559 146.132 8.795
470 2 4.02765 146.053 8.72508
471 2 8.16342 146.256 8.88904
472 2 11.908 146.347 8.95387
473 2 15.9664 150.041 8.95928
474 2 4.16302 150.196 8.61695
475 2 8.00659 150.123 8.67452
476 2 11.9196 150.142 8.80662
477 2 15.913 154.037 8.77423
478 2 3.85487 154.089 8.76835
479 2 7.94438 154.08 8.71795
480 2 11.9096 154.085 8.63979
481 2 15.8657 158.08 12.7348
482 2 4.05923 158.131 12.7162
483 2 8.17285 158.074 12.6995
484 2 11.9409 158.004 12.7585
485 2 15.6387 3.61695 12.6873
486 2 3.92781 3.61051 12.6001
487 2 8.02268 3.62009 12.7079
488 2 11.8078 3.52309 12.7801
489 2 15.8018 7.3907 12.3566
490 2 3.97331 7.71338 12.374
491 2 7.84611 7.51413 12.5457
492 2 11.762 7.59655 12.5231
493 2 -0.109998 11.5204 12.5455
494 2 3.83974 11.5403 12.5201
495 2 7.97266 11.4162 12.5405
496 2 11.85 11.5851 12.5248
497 2 -0.113018 15.302 12.5021
498 2 3.85941 15.5491 12.5411
499 2 7.83547 15.3916 12.483
500 2 11.7313 15.4563 12.3488
501 2 -0.243776 19.2862 12.3061
502 2 3.99703 19.2592 12.5258
503 2 7.78685 19.4678 12.4451
504 2 11.876 19.1643 12.3461
505 2 -0.142112 23.0192 12.2278
506 2 3.75705 23.212 12.4381
507 2 7.76688 23.1495 12.3637
508 2 11.6587 23.0287 12.2637
509 2 -0.0613734 27.0692 12.3132
510 2 3.88289 27.199 12.2631
511 2 7.97576 26.9909 12.2803
512 2 11.8411 27.1249 12.1689
513 2 -0.0491708 30.9514 12.3542
514 2 4.12434 31.0985 12.2093
515 2 7.82987 30.9056 12.5469
516 2 11.9828 31.0343 12.409
517 2 -0.010662 35.0548 12.3945
518 2 4.06715 35.0682 12.4601
519 2 8.13618 34.9672 12.3319
520 2 11.9399 35.0197 12.4061
521 2 -0.162856 39.1546 12.3844
522 2 3.79425 39.0978 12.4834
523 2 7.88622 38.9081 12.4654
524 2 11.732 39.0024 12.3966
525 2 -0.133051 43.1621 12.3759
526 2 3.78315 43.0315 12.4645
527 2 7.85687 42.9736 12.4489
528 2 11.8322 43.098 12.2992
529 2 -0.112267 47.1942 12.4913
530 2 3.90795 47.0886 12.5292
531 2 7.797 47.1683 12.5341
532 2 11.6745 47.1148 12.6036
533 2 0.0951173 51.2655 12.6918
534 2 3.93908 51.0133 12.516
535 2 7.83457 51.2548 12.4576
536 2 12.1103 51.2715 12.6804
537 2 15.7663 55.1661 12.6525
538 2 3.99879 55.0639 12.6926
539 2 7.88168 55.072 12.7506
540 2 11.8297 55.0191 12.6863
541 2 15.8761 59.1118 12.7892
542 2 4.03295 59.0685 12.8937
543 2 7.84746 59.1264 12.8262
544 2 11.9118 59.0883 12.8661
545 2 15.7486 63.1359 12.936
546 2 3.9075 63.0458 12.9685
547 2 7.94327 63.0961 12.9295
548 2 11.9291 63.1113 12.9471
549 2 0.168455 67.144 12.8139
550 2 4.04097 67.3003 12.9094
551 2 7.90201 67.1689 13.0876
552 2 11.8791 67.2195 12.9572
553 2 0.140181 71.3773 13.0757
554 2 4.06404 71.1943 13.1183
555 2 7.91192 71.2254 12.9244
556 2 11.9021 71.22 12.8387
557 2 0.0398606 75.2076 13.0765
558 2 4.01373 75.309 13.1287
559 2 7.90059 75.1629 13.006
560 2 11.8421 75.1469 13.0665
561 2 0.0184386 79.2658 13.036
562 2 4.04822 79.3677 13.1178
563 2 8.06631 79.2531 12.9954
564 2 11.9438 79.3388 12.8904
565 2 -0.224074 83.0905 13.3282
566 2 3.88328 83.2636 13.2544
567 2 7.96916 83.2381 13.2035
568 2 11.8429 83.2258 13.203
569 2 -0.218169 87.3252 13.3217
570 2 3.93303 87.1797 13.2037
571 2 7.83534 87.4104 13.2225
572 2 11.8607 87.223 13.3536
573 2 -0.138906 91.4524 13.299
574 2 3.72755 91.3835 13.1355
575 2 7.63676 91.5126 13.3241
576 2 11.8371 91.3852 13.2141
577 2 0.0956145 95.4455 13.3959
578 2 4.01041 95.4991 13.4438
579 2 7.812 95.4838 13.4717
580 2 11.8599 95.3396 13.4153
581 2 0.0590247 99.2515 13.621
582 2 4.10817 99.3587 13.4744
583 2 8.00922 99.3312 13.4932
584 2 11.9359 99.325 13.3742
585 2 0.00638268 103.092 13.2608
586 2 4.11452 103.108 13.5454
587 2 7.94364 103.316 13.4209
588 2 11.8299 103.139 13.3897
589 2 -0.0527163 107.09 13.2586
590 2 4.0038 107.2 13.3722
591 2 7.95503 107.202 13.4718
592 2 11.7365 107.3 13.3615
593 2 -0.00242882 111.193 13.3509
594 2 3.74804 110.959 13.1764
595 2 7.80006 111.153 13.5088
596 2 11.7595 111.087 13.4243
597 2 0.0480299 114.933 13.253
598 2 3.83188 115.068 13.1413
599 2 7.93865 115.131 13.31
600 2 11.9031 115.041 13.2138
601 2 -0.00779436 118.731 13.2593
602 2 4.02442 118.89 13.0904
603 2 7.92784 118.884 13.3312
604 2 11.7631 118.891 13.1956
605 2 0.11236 122.795 13.2181
606 2 4.0378 122.841 13.2846
607 2 7.78084 122.65 13.327
608 2 11.7889 122.852 13.1163
609 2 0.113111 126.714 13.3881
610 2 4.24561 126.624 13.131
611 2 8.00807 126.813 13.1779
612 2 11.8815 126.795 13.2151
613 2 15.9807 130.568 13.1065
614 2 4.17024 130.503 13.02
615 2 8.03677 130.526 13.1281
616 2 11.8544 130.796 13.1666
617 2 15.6104 134.376 13.172
618 2 4.0167 134.492 13.1806
619 2 7.96644 134.416 13.0861
620 2 11.8519 134.587 13.0353
621 2 0.0248766 138.363 13.1896
622 2 3.99617 138.558 12.9121
623 2 8.04238 138.316 12.9505
624 2 11.9904 138.447 12.9728
625 2 15.8732 142.424 12.9885
626 2 3.96221 142.273 12.9956
627 2 7.91543 142.33 12.8911
628 2 11.9065 142.273 12.9248
629 2 0.218009 146.132 12.6095
630 2 4.00323 146.114 12.8689
631 2 7.86658 146.217 12.8728
632 2 11.9056 146.239 12.8324
633 2 -0.0118725 149.946 12.7127
634 2 4.02678 150.189 12.7821
635 2 7.77047 149.903 12.7506
636 2 11.9523 150.277 12.7283
637 2 15.6953 154.209 12.7202
638 2 3.80174 154.003 12.8817
639 2 7.78749 154.101 12.8985
640 2 11.662 154.243 12.7376
641 2 0.021934 158.057 16.584
642 2 4.00679 -0.254707 16.7384
643 2 7.83521 158.008 16.585
644 2 11.7816 158.009 16.7898
645 2 15.5939 3.72743 16.5793
646 2 3.76691 3.75088 16.5838
647 2 7.6851 3.67758 16.6425
648 2 11.9423 3.55995 16.675
649 2 -0.0858763 7.43925 16.557
650 2 4.00177 7.64936 16.6245
651 2 7.7954 7.55924 16.6011
652 2 11.799 7.76211 16.49
653 2 -0.165502 11.6833 16.4875
654 2 3.82518 11.3265 16.4827
655 2 7.74337 11.5609 16.584
656 2 11.8865 11.6261 16.4131
657 2 0.0168093 15.4295 16.6541
658 2 3.91918 15.5692 16.5381
659 2 8.01579 15.4299 16.6352
660 2 11.7685 15.5281 16.386
661 2 15.676 19.3437 16.4317
662 2 3.84469 19.4264 16.5177
663 2 7.88004 19.4049 16.5086
664 2 11.8772 19.3916 16.3955
665 2 0.124345 23.2956 16.5497
666 2 4.00331 23.2802 16.3942
667 2 7.88013 23.3213 16.4399
668 2 11.9396 23.1838 16.4835
669 2 0.120029 26.9904 16.1378
670 2 3.91238 27.3221 16.1945
671 2 7.93524 27.1429 16.3511
672 2 12.0202 26.9614 16.3498
673 2 0.101398 30.9806 16.25
674 2 4.06929 31.361 16.2798
675 2 7.92152 31.1206 16.3325
676 2 12.0053 31.0619 16.3583
677 2 0.0149533 34.9513 16.3596
678 2 3.98174 35.1583 16.3057
679 2 8.06022 35.0479 16.367
680 2 12.0027 34.937 16.341
681 2 -0.0866965 38.9676 16.2803
682 2 3.90933 39.0633 16.3175
683 2 7.93644 39.0541 16.3987
684 2 11.7878 38.9331 16.2803
685 2 -0.188838 42.9459 16.4183
686 2 3.58506 43.1208 16.4974
687 2 7.82391 42.953 16.2111
688 2 11.7483 43.1104 16.1023
689 2 15.6265 47.012 16.544
690 2 3.77 47.04 16.5076
691 2 7.71084 46.9898 16.3693
692 2 11.6825 47.1294 16.2617
693 2 -0.0991209 51.2248 16.5897
694 2 3.90664 50.9185 16.5311
695 2 7.66856 50.9401 16.4619
696 2 11.8588 51.0469 16.4879
697 2 -0.0906228 55.2197 16.6437
698 2 3.95102 55.1194 16.6872
699 2 7.88444 54.9144 16.5547
700 2 11.6655 55.1607 16.6663
701 2 -0.0936297 59.2057 16.7038
702 2 3.92262 59.1836 16.7434
703 2 7.90018 59.1431 16.8108
704 2 11.6517 59.1052 16.6653
705 2 0.0885087 63.3086 16.867
706 2 3.92087 63.1731 16.8564
707 2 8.13983 63.1982 16.7686
708 2 11.8651 63.0195 16.8577
709 2 -0.248185 67.0874 16.6828
710 2 3.90078 67.201 16.7875
711 2 8.00512 67.1155 16.8274
712 2 11.8411 67.124 16.76
713 2 -0.0731494 71.1123 16.979
714 2 3.79985 71.4316 16.9071
715 2 8.03858 71.1946 16.8496
716 2 11.7423 71.2895 16.8638
717 2 -0.00844362 75.2455 17.1642
718 2 3.93463 75.2568 17.0756
719 2 7.84693 75.2777 16.8535
720 2 11.916 75.1899 17.0042
721 2 0.0725399 79.0562 16.9705
722 2 3.89869 79.2703 16.9477
723 2 8.06345 79.2008 16.8376
724 2 11.8437 79.0748 16.964
725 2 -0.0363414 83.3813 17.2599
726 2 3.97624 83.1805 17.069
727 2 7.91377 83.0796 17.174
728 2 11.7484 83.1078 17.274
729 2 -0.111003 87.2239 17.2459
730 2 3.81918 87.245 17.1627
731 2 7.95689 87.3347 17.2181
732 2 11.661 87.2802 17.1354
733 2 0.0280406 91.0068 17.2822
734 2 4.06705 91.2599 17.0632
735 2 7.94394 91.1316 17.1939
736 2 11.9177 91.2884 17.0837
737 2 0.0803067 95.2721 17.3814
738 2 3.87825 95.3239 17.5037
739 2 7.77843 95.3035 17.3525
740 2 11.8376 95.2804 17.2536
741 2 -0.205964 99.307 17.4415
742 2 3.84301 99.3879 17.5577
743 2 7.87799 99.2194 17.5608
744 2 11.6591 99.353 17.382
745 2 -0.154164 103.235 17.3327
746 2 4.07382 103.466 17.4427
747 2 7.78432 103.231 17.4943
748 2 11.6694 103.358 17.4245
749 2 -0.239414 107.142 17.1733
750 2 3.7484 107.285 17.3527
751 2 7.9738 107.306 17.5184
752 2 11.8478 107.202 17.4905
753 2 0.133312 111.101 17.4578
754 2 3.84818 111.062 17.4671
755 2 7.73453 111.092 17.3798
756 2 11.7062 111.426 17.3456
757 2 0.0137118 114.955 17.3226
758 2 3.80892 115.016 17.382
759 2 7.72539 115.19 17.2368
760 2 11.7287 115.039 17.4149
761 2 -0.00969921 118.879 17.5132
762 2 4.01484 118.922 17.496
763 2 7.86976 118.896 17.4995
764 2 11.8761 119.181 17.3034
765 2 -0.224284 122.832 17.1963
766 2 3.91975 122.92 17.2218
767 2 7.96919 123.014 17.1923
768 2 11.867 123.004 17.2196
769 2 15.8945 126.835 17.3771
770 2 3.93111 126.606 17.2011
771 2 7.93841 126.917 17.2484
772 2 12.0059 126.807 17.1622
773 2 16.1185 130.779 17.1255
774 2 4.08144 130.584 17.2371
775 2 7.96775 130.676 17.174
776 2 11.903 130.55 17.1401
777 2 15.8456 134.477 17.0974
778 2 3.88986 134.648 17.1472
779 2 7.83824 134.567 17.0381
780 2 11.7412 134.49 17.091
781 2 0.001703 138.459 17.185
782 2 3.84675 138.382 16.8928
783 2 7.87471 138.428 17.1072
784 2 11.8165 138.533 16.9428
785 2 15.9988 142.569 17.049
786 2 4.00362 142.274 17.1749
787 2 8.04787 142.342 16.8744
788 2 11.9112 142.285 16.8723
789 2 15.7932 146.408 17.0171
790 2 4.11712 146.336 17.0092
791 2 8.02914 146.318 16.9336
792 2 11.9577 146.434 16.893
793 2 15.7727 150.046 16.7993
794 2 4.03859 150.491 16.8283
795 2 8.09946 150.078 16.8985
796 2 11.7876 150.158 16.7908
797 2 15.9553 154.149 16.7736
798 2 4.07972 154.129 16.6212
799 2 8.18702 153.994 16.7364
800 2 11.9843 154.012 16.8982
801 2 15.7778 158.074 20.6289
802 2 3.95082 158.134 20.5739
803 2 7.82048 158.139 20.8741
804 2 11.9519 158.146 20.7581
805 2 -0.179884 3.76198 20.7375
806 2 3.7916 3.78122 20.7669
807 2 7.78951 3.81616 20.5929
808 2 11.6992 3.7883 20.5303
809 2 15.8491 7.71123 20.7466
810 2 3.85167 7.60345 20.5913
811 2 7.9197 7.69439 20.6083
812 2 11.9562 7.71334 20.5708
813 2 15.8814 11.5616 20.6269
814 2 3.69945 11.6455 20.5135
815 2 7.83509 11.6161 20.6115
816 2 11.9394 11.6734 20.5965
817 2 15.576 15.4098 20.6252
818 2 3.91101 15.3878 20.6156
819 2 8.12876 15.4263 20.6769
820 2 11.7718 15.5256 20.6458
821 2 0.234301 19.4468 20.4545
822 2 4.13287 19.4146 20.491
823 2 7.94575 19.4626 20.4675
824 2 11.9241 19.4217 20.6337
825 2 0.237059 23.3538 20.4646
826 2 3.99794 23.4377 20.3524
827 2 8.00143 23.4498 20.37
828 2 12.0961 23.3316 20.3783
829 2 15.8144 27.2433 20.333
830 2 3.85034 27.4334 20.3023
831 2 7.64411 27.3445 20.1974
832 2 11.7643 27.5098 20.3171
833 2 15.8706 31.1812 20.2844
834 2 3.92488 31.2224 20.3764
835 2 7.85408 31.1983 20.3421
836 2 11.8866 31.0349 20.4072
837 2 15.7884 35.1042 20.293
838 2 3.94549 35.1593 20.1617
839 2 8.03181 35.0301 20.2729
840 2 11.7012 34.8682 20.3237
841 2 0.0159973 38.8781 20.3151
842 2 3.76051 38.9488 20.2433
843 2 7.8151 39.1032 20.0777
844 2 11.9238 39.0241 20.3522
845 2 15.8461 42.6972 20.3014
846 2 3.93265 42.863 20.3464
847 2 7.84899 42.9544 20.2153
848 2 11.7803 42.8615 20.1567
849 2 15.7063 46.7974 20.612
850 2 3.78258 46.9747 20.3112
851 2 7.73185 46.9667 20.2339
852 2 11.6738 46.9497 20.2493
853 2 -0.105245 51.0348 20.3348
854 2 3.81586 50.9293 20.3987
855 2 7.87266 50.973 20.6585
856 2 11.6586 51.0177 20.4016
857 2 -0.111939 55.025 20.4359
858 2 3.81421 54.8561 20.4782
859 2 7.91586 54.9462 20.5313
860 2 11.7478 55.1189 20.6156
861 2 15.8311 59.0479 20.7355
862 2 3.92114 58.9302 20.6898
863 2 7.7665 59.0657 20.6887
864 2 11.7853 59.167 20.6454
865 2 15.7054 63.1704 20.681
866 2 3.88531 62.9827 20.5888
867 2 7.88451 63.1854 20.7547
868 2 11.5388 62.957 20.6754
869 2 -0.253286 67.0596 20.8044
870 2 3.86216 66.9789 20.6896
871 2 7.90487 67.1203 20.6994
872 2 12.0583 66.9402 20.8173
873 2 -0.14898 70.9063 20.8799
874 2 4.08465 71.1256 20.7149
875 2 7.92199 71.044 20.7913
876 2 11.8445 71.1071 20.6161
877 2 -0.169 75.2517 20.7438
878 2 3.91637 75.0806 20.9576
879 2 7.93503 75.2298 20.7994
880 2 11.7916 75.2169 21.0024
881 2 0.00553589 79.2709 20.6672
882 2 4.06854 79.0888 20.9423
883 2 7.90855 79.06 20.9394
884 2 11.7466 79.1437 21.0123
885 2 -0.0638204 83.1902 21.1751
886 2 4.04279 83.1021 21.0051
887 2 8.14613 83.1662 21.0744
888 2 11.8466 83.1242 20.9762
889 2 -0.178228 87.2137 20.9244
890 2 3.88789 87.2991 21.1823
891 2 7.77437 87.0958 21.1276
892 2 11.8201 86.9985 21.0373
893 2 -0.125471 91.2009 21.2331
894 2 3.95286 91.0659 21.1011
895 2 7.85351 91.2213 21.031
896 2 11.7313 91.2002 20.9643
897 2 0.0921665 95.2165 21.1595
898 2 3.74761 95.1716 21.245
899 2 8.01418 95.2014 21.1499
900 2 11.9344 95.3385 21.2541
901 2 -0.239148 99.3488 21.168
902 2 3.72084 99.4131 21.3315
903 2 7.8116 99.3754 21.3803
904 2 11.7151 99.1984 21.3304
905 2 -0.0988383 103.218 21.5313
906 2 3.76957 103.291 21.4698
907 2 7.66432 103.357 21.3041
908 2 11.5783 103.309 21.2032
909 2 -0.297196 107.111 21.3041
910 2 3.68596 107.228 21.4051
911 2 7.91043 107.424 21.2717
912 2 11.924 107.419 21.3603
913 2 -0.0147839 110.951 21.408
914 2 3.81211 111.185 21.4683
915 2 7.71901 111.22 21.4567
916 2 11.8198 111.246 21.5544
917 2 15.8298 115.033 21.5683
918 2 4.10413 115.251 21.4417
919 2 7.90929 115.19 21.4419
920 2 11.8163 115.127 21.4229
921 2 0.0354129 118.95 21.1589
922 2 3.94471 118.996 21.4993
923 2 7.88466 118.987 21.3802
924 2 11.8842 118.974 21.3011
925 2 15.7845 122.736 21.2028
926 2 3.84764 122.886 21.2976
927 2 7.90985 122.981 21.2056
928 2 11.8949 122.935 21.2768
929 2 15.7834 126.869 21.3861
930 2 4.0539 126.761 21.2357
931 2 7.89876 126.856 21.2545
932 2 11.9064 126.827 21.3061
933 2 15.8702 130.778 21.2952
934 2 3.94436 130.752 21.3013
935 2 8.09693 130.748 21.0306
936 2 12.002 130.816 21.0197
937 2 -0.0454677 134.586 21.1574
938 2 4.03512 134.722 21.3156
939 2 7.94386 134.59 21.138
940 2 12.026 134.834 21.0578
941 2 15.9276 138.568 21.1554
942 2 4.27175 138.632 21.043
943 2 7.95279 138.729 21.0268
944 2 11.8397 138.634 20.9697
945 2 15.9938 142.476 21.0286
946 2 4.32107 142.444 21.1369
947 2 8.15916 142.602 20.941
948 2 12.0786 142.516 20.8504
949 2 15.9558 146.36 20.7573
950 2 4.19056 146.416 20.9926
951 2 8.10329 146.405 20.8232
952 2 12.0284 146.412 20.8492
953 2 15.918 150.283 20.8629
954 2 4.01788 150.246 20.9598
955 2 8.12041 150.364 20.9155
956 2 11.9926 150.367 20.9938
957 2 16.0727 154.293 20.6109
958 2 4.19865 154.002 20.6437
959 2 7.91597 154.22 20.7661
960 2 11.9724 154.104 20.7751
961 2 0.225686 158.19 24.663
962 2 4.07232 158.247 24.5947
963 2 8.00208 158.183 24.7608
964 2 11.9689 158.209 24.7631
965 2 15.8394 3.97953 24.7466
966 2 3.88921 3.74632 24.6957
967 2 7.88473 3.72099 24.7582
968 2 11.8895 3.8102 24.4753
969 2 15.8182 7.74334 24.7223
970 2 4.08661 7.71358 24.7581
971 2 7.83554 7.70151 24.5944
972 2 11.671 7.84842 24.6086
973 2 15.9206 11.6805 24.5382
974 2 4.09898 11.8039 24.8015
975 2 7.75781 11.7688 24.6468
976 2 11.9663 11.639 24.5533
977 2 0.00783966 15.3516 24.5454
978 2 3.91864 15.5236 24.7283
979 2 7.7871 15.5881 24.6026
980 2 11.8064 15.5088 24.5025
981 2 -0.020938 19.3451 24.4676
982 2 3.88 19.4868 24.5332
983 2 7.96988 19.7027 24.3388
984 2 12.0014 19.6034 24.4638
985 2 0.0957842 23.3269 24.419
986 2 3.90973 23.3441 24.5172
987 2 7.99229 23.491 24.3038
988 2 11.8006 23.4978 24.4051
989 2 -0.0570772 27.317 24.5195
990 2 3.96339 27.4651 24.4169
991 2 7.8237 27.391 24.195