ITEM: TIMESTEP
20700
ITEM: NUMBER OF ATOMS
32000
ITEM: BOX BOUNDS xy xz yz pp pp pp
0.0000000000000000e+00 1.5832000000000001e+01 0.0000000000000000e+00
0.0000000000000000e+00 1.5831999999999999e+02 0.0000000000000000e+00
8.2652357857791969e-01 1.6015059442141865e+02 0.0000000000000000e+00
ITEM: ATOMS id type x y z
1 2 15.8379 157.965 160.057
2 2 4.16126 157.931 159.986
3 2 7.9018 157.964 159.992
4 2 11.8414 157.929 159.974
5 2 -0.12465 3.64026 159.963
6 2 3.70154 3.57719 159.879
7 2 7.77307 3.61746 159.933
8 2 11.6582 3.46495 159.842
9 2 15.6526 7.39502 159.921
10 2 3.82927 7.34625 159.912
11 2 7.91627 7.52243 159.99
12 2 11.9197 7.31098 159.848
13 2 15.9878 11.1589 159.66
14 2 3.88919 11.1916 159.981
15 2 7.8031 11.2905 159.796
16 2 11.8584 11.3214 159.794
17 2 -0.091972 15.159 159.83
18 2 3.90003 15.0944 159.809
19 2 7.84392 15.1423 159.68
20 2 11.6208 15.265 159.929
21 2 15.8776 19.1023 159.656
22 2 3.9447 19.0397 159.805
23 2 7.76261 19.1333 159.44
24 2 11.6201 19.076 159.69
25 2 15.7566 23.084 159.795
26 2 3.80052 23.1934 159.765
27 2 7.68041 22.9265 159.596
28 2 11.8206 23.1483 159.719
29 2 15.7007 27.0328 159.721
30 2 4.02202 27.0304 159.854
31 2 8.00145 27.0696 159.879
32 2 11.6893 26.9844 159.807
33 2 15.7828 31.024 159.762
34 2 3.8686 30.9557 0.616716
35 2 7.88012 30.9909 159.764
36 2 11.7367 31.0735 159.909
37 2 0.0037471 35.1356 159.983
38 2 3.99939 34.9681 159.992
39 2 8.07113 35.1328 160.075
40 2 11.905 35.1258 159.926
41 2 -0.0276643 39.0945 159.939
42 2 4.07365 39.057 0.671127
43 2 8.09247 39.2653 0.525842
44 2 12.0769 39.0262 0.823826
45 2 0.115825 43.2577 160.069
46 2 3.9986 43.2199 160.093
47 2 7.96344 43.2091 0.731627
48 2 11.8607 43.0504 0.724486
49 2 -0.0871757 47.3166 0.654867
50 2 3.83405 47.4328 0.754031
51 2 7.81332 47.2233 0.754619
52 2 11.7495 47.2256 0.869018
53 2 0.0988026 51.2655 0.854086
54 2 3.78746 51.3088 0.870451
55 2 8.07232 51.2742 0.924837
56 2 11.7777 51.4481 0.673979
57 2 15.6408 55.2733 0.906076
58 2 3.7861 55.2754 0.796897
59 2 7.67507 55.5425 0.862434
60 2 11.7709 55.3339 0.827725
61 2 -0.0721567 59.155 1.02507
62 2 3.81698 59.319 0.989697
63 2 7.93313 59.3906 1.15417
64 2 11.9189 59.3591 0.996743
65 2 -0.122019 63.0871 1.20842
66 2 3.9182 63.3443 1.18642
67 2 7.99973 63.4471 1.06261
68 2 11.8082 63.2 1.07564
69 2 15.9804 67.3698 1.27466
70 2 4.07498 67.3076 1.28366
71 2 7.7794 67.432 1.15384
72 2 11.9388 67.3591 1.09096
73 2 -0.0825253 71.3734 1.29084
74 2 4.00773 71.3819 1.40934
75 2 7.85542 71.5927 1.34465
76 2 12.0315 71.3292 1.29179
77 2 -0.115954 75.5789 1.60938
78 2 3.84505 75.6185 1.48736
79 2 7.73558 75.7376 1.50107
80 2 11.4947 75.5691 1.26956
81 2 -0.00249994 79.5957 1.62133
82 2 3.90261 79.6137 1.42971
83 2 8.05883 79.654 1.58733
84 2 11.9235 79.3256 1.46704
85 2 0.021187 83.6929 1.4937
86 2 3.79614 83.5487 1.58368
87 2 7.92936 83.5032 1.51231
88 2 11.7677 83.6857 1.43104
89 2 -0.15621 87.6086 1.5206
90 2 3.81145 87.5629 1.36241
91 2 7.78941 87.3664 1.52109
92 2 11.7265 87.4287 1.40071
93 2 -0.048768 91.5567 1.5934
94 2 3.85365 91.3039 1.40205
95 2 7.93681 91.1714 1.34196
96 2 11.7288 91.368 1.45571
97 2 15.5879 95.2956 1.31098
98 2 3.88153 95.3402 1.4635
99 2 7.8016 95.1917 1.36758
100 2 11.5811 95.3645 1.49239
101 2 0.0301697 99.3567 1.37898
102 2 3.86324 99.1329 1.26757
103 2 7.9239 99.2639 1.24855
104 2 11.8371 99.1144 1.41676
105 2 0.0358507 103.09 1.32222
106 2 3.9676 103.146 1.40828
107 2 7.95873 103.233 1.40661
108 2 11.7681 103.161 1.27507
109 2 0.0417384 107.216 1.2259
110 2 4.07264 106.894 1.10334
111 2 7.81302 107.193 1.39862
112 2 11.863 107.135 1.23332
113 2 -0.129205 111.098 1.20969
114 2 3.90793 111.119 1.29993
115 2 7.84023 110.999 1.42196
116 2 11.6601 110.945 1.37576
117 2 15.8366 114.832 1.16192
118 2 3.78431 114.883 1.28621
119 2 7.75969 114.986 1.26566
120 2 11.7417 114.958 1.17763
121 2 0.00174042 118.676 1.25518
122 2 4.07553 118.818 1.03787
123 2 8.0197 118.801 1.33279
124 2 11.8504 118.88 1.15575
125 2 15.9531 122.695 1.13262
126 2 3.91921 122.775 1.0192
127 2 8.05027 122.571 1.19119
128 2 11.9198 122.743 1.21526
129 2 0.102267 126.52 1.0178
130 2 4.0162 126.458 1.041
131 2 7.99855 126.55 1.09013
132 2 11.9867 126.496 1.15856
133 2 15.8602 130.434 0.979676
134 2 3.98476 130.432 0.880808
135 2 7.90651 130.505 0.92148
136 2 11.8842 130.508 0.992983
137 2 15.7546 134.302 0.949255
138 2 4.07777 134.301 1.11346
139 2 8.01809 134.247 160.253
140 2 11.9 134.633 0.920333
141 2 0.302506 138.215 0.815514
142 2 3.99456 138.309 160.054
143 2 7.81286 138.41 160.369
144 2 11.9964 138.287 1.00395
145 2 16.0164 142.12 160.02
146 2 3.97304 142.176 160.228
147 2 7.85567 142.137 160.14
148 2 11.9568 142.12 160.238
149 2 0.0911541 146.236 160.064
150 2 4.18939 146.136 159.989
151 2 7.88203 146.05 160.12
152 2 11.7772 145.935 159.959
153 2 15.8823 150.12 160.05
154 2 3.95283 150.141 160.173
155 2 8.19478 150.055 160.085
156 2 11.8652 150.085 0.881262
157 2 16.058 153.912 160.233
158 2 4.17633 154.033 160.011
159 2 7.93993 154.026 160.086
160 2 11.9403 154.018 159.981
161 2 15.5944 157.944 4.68082
162 2 4.00089 157.88 4.68329
163 2 7.95189 158.08 4.38097
164 2 11.8933 157.737 4.70279
165 2 0.00662671 3.46749 4.73675
166 2 3.91971 3.4514 4.57366
167 2 7.94042 3.59627 4.62238
168 2 11.8856 3.37157 4.59632
169 2 -0.135681 7.41304 4.72835
170 2 3.94338 7.47029 4.65588
171 2 7.94086 7.36244 4.57847
172 2 11.7001 7.36812 4.42168
173 2 0.0730204 11.1811 4.65049
174 2 3.88559 11.435 4.51664
175 2 7.88289 11.2483 4.59925
176 2 11.9078 11.228 4.542
177 2 15.5395 15.1473 4.33837
178 2 3.97813 15.2945 4.51279
179 2 7.75404 15.1903 4.4999
180 2 11.8416 15.1406 4.33112
181 2 -0.118741 19.1374 4.44281
182 2 3.63372 19.2267 4.51565
183 2 7.80595 19.2254 4.44615
184 2 11.6548 19.3474 4.40641
185 2 -0.176653 22.977 4.06947
186 2 3.85287 23.2199 4.3375
187 2 7.6701 23.0873 4.21765
188 2 11.7552 23.0264 4.34396
189 2 15.7862 27.1672 4.44436
190 2 3.81934 27.1582 4.42619
191 2 7.81192 27.0174 4.33416
192 2 11.7975 27.0148 4.43896
193 2 -0.0794122 31.0736 4.31172
194 2 3.83045 31.0645 4.40206
195 2 7.85192 31.0946 4.48697
196 2 11.9382 31.1016 4.30516
197 2 0.0639293 35.0167 4.57444
198 2 4.01907 34.949 4.53182
199 2 7.98596 34.9821 4.68979
200 2 12.0265 35.1263 4.59755
201 2 15.8523 39.0257 4.53469
202 2 4.15632 39.0804 4.50048
203 2 7.95095 39.039 4.64243
204 2 11.7621 39.0681 4.71049
205 2 0.0721465 43.0689 4.48135
206 2 4.11096 43.0384 4.48714
207 2 8.26577 43.1918 4.5075
208 2 11.9904 43.0942 4.6701
209 2 -0.167319 47.2116 4.53215
210 2 4.04799 47.1733 4.7004
211 2 7.85694 47.0932 4.70479
212 2 11.7001 47.1313 4.66413
213 2 -0.0445382 51.1506 4.62367
214 2 3.93445 51.2681 4.64703
215 2 7.93538 51.1038 4.72468
216 2 11.7505 51.2691 4.72465
217 2 -0.117912 55.2265 4.88478
218 2 3.81838 55.1483 4.80514
219 2 7.7569 55.356 4.81525
220 2 11.7773 55.2994 4.931
221 2 15.6912 59.3168 5.04169
222 2 3.80853 59.2766 4.87062
223 2 7.59488 59.3318 5.01791
224 2 11.8442 59.2706 5.13691
225 2 -0.117552 63.3969 5.07802
226 2 4.11713 63.2469 5.15765
227 2 7.79608 63.2194 5.09286
228 2 11.7285 63.4095 5.03072
229 2 15.6884 67.3117 5.07747
230 2 3.80559 67.2807 5.23009
231 2 7.78961 67.1878 5.14293
232 2 11.5681 67.5191 5.0495
233 2 15.8774 71.3972 5.17974
234 2 3.87684 71.2693 5.18482
235 2 7.79701 71.3087 5.33524
236 2 11.816 71.3373 5.35767
237 2 15.5943 75.4378 5.30706
238 2 3.90495 75.3226 5.33813
239 2 7.93722 75.5245 5.30093
240 2 11.7787 75.3412 5.14221
241 2 -0.140373 79.6631 5.45048
242 2 3.8111 79.3352 5.54724
243 2 7.77645 79.4764 5.52354
244 2 11.7527 79.7488 5.47158
245 2 15.659 83.4184 5.50886
246 2 3.78681 83.4582 5.34172
247 2 7.74951 83.2804 5.55432
248 2 11.9745 83.6892 5.2242
249 2 -0.261492 87.5433 5.5353
250 2 4.07724 87.5771 5.41082
251 2 7.81994 87.2806 5.55848
252 2 11.6256 87.4164 5.44924
253 2 -0.0971334 91.4003 5.41469
254 2 3.86892 91.4278 5.59717
255 2 7.78926 91.3774 5.54764
256 2 11.8257 91.4882 5.54879
257 2 15.7531 95.2505 5.44038
258 2 3.72889 95.1575 5.39299
259 2 7.79094 95.2542 5.49516
260 2 11.7974 95.4535 5.43432
261 2 -0.126401 99.1536 5.41419
262 2 3.96573 99.1604 5.42581
263 2 8.01075 99.2919 5.41336
264 2 11.8649 99.3341 5.39732
265 2 -0.00820327 103.272 5.41283
266 2 3.94104 103.051 5.42843
267 2 7.94659 102.94 5.27782
268 2 12.1461 103.171 5.42308
269 2 16.0403 107.216 5.16421
270 2 4.03965 107.319 5.29583
271 2 7.90892 106.965 5.11938
272 2 12.0094 107.082 5.21931
273 2 15.7579 110.984 5.24582
274 2 3.89756 111.128 5.21023
275 2 7.79695 110.841 5.22648
276 2 11.7978 111.065 5.31837
277 2 0.0317866 114.905 5.31632
278 2 3.99863 114.902 5.33872
279 2 7.89101 114.942 5.33136
280 2 11.8336 115.114 5.20464
281 2 -0.0598968 118.848 5.18068
282 2 3.94495 118.829 5.30139
283 2 8.12444 118.949 5.12121
284 2 12.0601 118.981 5.29588
285 2 15.81 122.692 5.14077
286 2 4.02825 122.803 5.26432
287 2 7.92344 122.742 5.06352
288 2 12.0484 122.827 5.23911
289 2 -0.132372 126.762 5.09865
290 2 3.90244 126.792 5.01921
291 2 7.85028 126.673 5.0777
292 2 11.8262 126.61 5.10004
293 2 0.144076 130.457 5.09356
294 2 3.90639 130.635 5.16849
295 2 7.98971 130.617 5.05253
296 2 11.8489 130.553 5.13695
297 2 15.668 134.52 4.99028
298 2 3.85277 134.558 5.11668
299 2 7.94755 134.372 4.82868
300 2 11.8242 134.315 4.96469
301 2 0.00895568 138.146 4.81437
302 2 4.09333 138.355 4.91343
303 2 7.87962 138.307 5.12214
304 2 11.9614 138.242 4.94323
305 2 0.0933983 142.132 4.87494
306 2 4.00093 142.279 4.91345
307 2 7.92806 142.138 4.92879
308 2 11.9975 142.348 4.79284
309 2 15.855 146.227 4.81417
310 2 3.92804 146.32 4.8766
311 2 8.11904 146.287 4.87018
312 2 12.062 146.102 4.6667
313 2 15.7704 150.251 4.95508
314 2 3.96014 150.159 4.67644
315 2 7.93394 150.137 4.80976
316 2 11.66 150.112 4.76481
317 2 15.9396 154.037 4.86942
318 2 4.14537 154.084 4.79349
319 2 7.87294 154.161 4.70988
320 2 11.8051 153.799 4.67045
321 2 15.6479 158.024 8.6357
322 2 3.82691 158.029 8.61115
323 2 7.88759 157.915 8.70908
324 2 11.8524 158.099 8.71814
325 2 15.6375 3.44937 8.69656
326 2 3.67323 3.56392 8.56499
327 2 7.77354 3.59367 8.61881
328 2 11.7076 3.48444 8.77306
329 2 15.8022 7.348 8.78425
330 2 3.85665 7.41961 8.70568
331 2 7.81812 7.32643 8.62262
332 2 12.0399 7.53043 8.47505
333 2 -0.0879064 11.4434 8.38561
334 2 3.9879 11.4599 8.44775
335 2 7.92912 11.364 8.63587
336 2 11.9434 11.2414 8.40526
337 2 15.9055 15.1028 8.56552
338 2 3.86776 15.3372 8.47402
339 2 7.83209 15.1951 8.48745
340 2 11.8296 15.1527 8.35144
341 2 -0.149802 19.1748 8.38868
342 2 3.8994 19.1674 8.40382
343 2 8.00303 18.962 8.47236
344 2 11.8843 19.2628 8.32726
345 2 -0.0393419 23.1659 8.4264
346 2 3.87078 22.912 8.27013
347 2 7.65695 22.9385 8.46577
348 2 11.7676 23.1973 8.32182
349 2 -0.0506405 27.0448 8.46797
350 2 3.62844 26.7625 8.24449
351 2 7.80488 26.9447 8.26693
352 2 11.6604 26.7888 8.14568
353 2 -0.209625 31.0261 8.28174
354 2 3.94112 30.828 8.38446
355 2 7.89468 30.879 8.35533
356 2 11.7704 30.9024 8.39127
357 2 15.8525 35.0298 8.27077
358 2 3.79001 34.9516 8.50843
359 2 7.96447 35.0439 8.2595
360 2 11.9606 34.9255 8.52054
361 2 -0.0383968 38.8778 8.42298
362 2 3.99037 38.915 8.44754
363 2 7.8067 39.0172 8.52162
364 2 12.0338 38.9803 8.55021
365 2 0.186425 43.1496 8.50026
366 2 3.86757 42.9682 8.66795
367 2 7.93153 42.8835 8.50479
368 2 11.8129 43.0214 8.5566
369 2 0.0227232 47.0057 8.46104
370 2 3.969 46.8674 8.6365
371 2 7.89454 47.1237 8.55701
372 2 11.7868 47.0951 8.48803
373 2 15.5605 51.0967 8.51764
374 2 3.83339 50.9926 8.776
375 2 7.68559 51.1607 8.76116
376 2 11.9348 51.1013 8.68636
377 2 15.852 55.0416 8.824
378 2 3.92348 55.0842 8.78507
379 2 7.76856 55.2681 8.64451
380 2 11.8051 55.1961 8.69901
381 2 -0.0286263 59.272 8.8408
382 2 3.88843 59.0467 8.86687
383 2 7.76829 59.109 8.86115
384 2 11.6907 59.3143 9.18756
385 2 -0.253662 63.1974 8.88875
386 2 4.00981 63.1719 8.92346
387 2 7.81614 63.2835 9.00827
388 2 11.7855 63.1194 8.97926
389 2 15.704 67.1222 9.1168
390 2 3.77118 67.0645 9.18292
391 2 8.01657 67.1404 9.02568
392 2 11.7957 67.2362 9.06749
393 2 15.5076 71.3675 9.02542
394 2 3.73804 71.1553 9.2044
395 2 7.73169 71.0848 9.01762
396 2 11.7533 71.1606 9.10056
397 2 15.7249 75.2881 9.12977
398 2 3.77913 75.2619 9.07866
399 2 7.96371 75.3082 9.18982
400 2 11.751 75.5577 9.2415
401 2 15.6821 79.2168 9.32803
402 2 3.96999 79.3651 9.35268
403 2 7.76385 79.3424 9.52912
404 2 11.5843 79.4109 9.37575
405 2 -0.0326724 83.4208 9.35708
406 2 3.7854 83.3672 9.40136
407 2 7.7934 83.4468 9.49386
408 2 11.6634 83.5067 9.47211
409 2 -0.140469 87.583 9.48788
410 2 3.7128 87.5475 9.49851
411 2 7.80259 87.4369 9.45703
412 2 11.7014 87.4283 9.44715
413 2 -0.0881237 91.4316 9.50939
414 2 3.84648 91.4707 9.58601
415 2 7.88547 91.2533 9.57563
416 2 11.818 91.351 9.49202
417 2 15.9099 95.3991 9.62081
418 2 3.89443 95.3748 9.45651
419 2 7.99961 95.4321 9.52393
420 2 11.9196 95.3716 9.73052
421 2 15.8668 99.2798 9.40424
422 2 4.20068 99.1466 9.41117
423 2 8.18279 99.334 9.38968
424 2 11.9606 99.4382 9.42752
425 2 0.194868 103.216 9.52276
426 2 3.99207 103.158 9.22996
427 2 7.95304 103.214 9.42108
428 2 11.9695 103.41 9.19563
429 2 0.0940202 107.122 9.25104
430 2 4.09403 107.095 9.3801
431 2 7.7479 106.852 9.08452
432 2 11.8389 107.206 9.29213
433 2 15.7864 111.032 9.25658
434 2 3.9353 110.997 9.19851
435 2 8.00358 110.96 9.30964
436 2 11.7679 110.952 9.41719
437 2 -0.0382315 114.937 9.36402
438 2 3.9235 114.91 9.46939
439 2 7.7651 115.011 9.47772
440 2 11.9182 114.891 9.36153
441 2 0.0532835 118.858 9.10112
442 2 3.84402 118.781 9.0603
443 2 7.83008 118.77 9.36041
444 2 11.8659 119.112 9.35466
445 2 16.1785 122.899 9.0636
446 2 4.13232 122.822 9.13019
447 2 8.03608 122.68 9.17801
448 2 11.9615 122.765 9.30521
449 2 15.8394 126.545 9.09957
450 2 4.00931 126.463 9.14415
451 2 7.85857 126.757 9.24225
452 2 11.711 126.619 9.03413
453 2 0.158371 130.669 9.02497
454 2 3.9786 130.596 9.16613
455 2 8.1047 130.593 9.14046
456 2 11.9926 130.695 9.14649
457 2 0.11471 134.545 9.1032
458 2 3.82728 134.421 9.06584
459 2 8.09312 134.474 9.09158
460 2 12.0841 134.583 9.02484
461 2 -0.019697 138.448 9.03783
462 2 3.92837 138.512 8.8944
463 2 7.8765 138.336 8.9965
464 2 11.7363 138.357 8.94959
465 2 -0.166682 142.356 8.91425
466 2 3.94689 142.534 8.81658
467 2 7.84303 142.58 8.81669
468 2 11.8046 142.327 8.83594
469 2 15.6059 146.337 8.74691
470 2 3.85441 146.325 8.79804
471 2 8.07594 146.506 8.85912
472 2 11.8222 146.336 8.79138
473 2 15.8588 150.249 8.88892
474 2 4.00312 150.409 8.8742
475 2 7.89764 150.055 8.77218
476 2 11.9002 150.194 8.60944
477 2 15.7002 154.099 8.71346
478 2 3.93178 154.078 8.71665
479 2 7.93032 154.127 8.69816
480 2 11.7712 154.034 8.7591
481 2 15.6749 158.174 12.8526
482 2 4.00037 157.998 12.7554
483 2 7.86216 157.937 12.7815
484 2 11.8918 158.028 12.7072
485 2 15.6426 3.59451 12.6471
486 2 3.97766 3.62885 12.6608
487 2 7.72781 3.61606 12.9089
488 2 11.5914 3.68257 12.6216
489 2 16.1014 7.35604 12.6097
490 2 3.96014 7.69457 12.4471
491 2 7.94398 7.37303 12.6395
492 2 11.7731 7.68683 12.4046
493 2 -0.0302271 11.4886 12.6891
494 2 3.87083 11.1486 12.6158
495 2 7.78303 11.4813 12.6045
496 2 11.9843 11.3243 12.6823
497 2 0.0677869 15.2444 12.4517
498 2 3.89377 15.3732 12.5492
499 2 7.73991 15.3574 12.4442
500 2 11.8296 15.4361 12.2671
501 2 -0.129988 19.1201 12.3767
502 2 3.93093 19.1953 12.3534
503 2 7.92439 19.2054 12.4496
504 2 11.8314 19.3565 12.4026
505 2 -0.305192 23.0513 12.4692
506 2 3.97226 22.9706 12.1511
507 2 7.65183 23.123 12.4216
508 2 11.6496 23.1128 12.34
509 2 0.0200008 26.882 12.3775
510 2 4.01025 26.9018 12.3603
511 2 7.74204 26.9633 12.2079
512 2 11.7797 27.1754 12.4395
513 2 0.0102323 30.7298 12.4459
514 2 3.63721 30.9824 12.3712
515 2 7.59062 30.8128 12.3868
516 2 11.9109 30.8508 12.1851
517 2 0.00204778 34.8579 12.445
518 2 3.7047 34.9217 12.3958
519 2 7.81124 34.7911 12.1801
520 2 11.9738 34.8078 12.2628
521 2 -0.191329 38.8789 12.2817
522 2 4.00582 38.8834 12.3225
523 2 7.85853 39.0085 12.6358
524 2 11.6906 38.9699 12.4393
525 2 -0.0520203 42.8712 12.4351
526 2 4.03884 42.96 12.5523
527 2 7.96066 42.7634 12.2442
528 2 11.8465 43.0322 12.3583
529 2 -0.110787 47.126 12.2631
530 2 3.99956 46.9135 12.4525
531 2 8.0316 47.0664 12.5944
532 2 11.7489 46.9433 12.4117
533 2 -0.0736587 51.0852 12.6855
534 2 3.7223 50.8915 12.608
535 2 7.71332 51.0278 12.6228
536 2 11.9494 51.079 12.4515
537 2 15.9362 54.9708 12.6878
538 2 3.78489 55.0744 12.7401
539 2 7.91996 55.0793 12.4801
540 2 11.7741 55.0029 12.6876
541 2 15.7865 59.2642 12.7152
542 2 3.93644 59.2137 12.802
543 2 7.91509 59.1299 12.7304
544 2 11.9393 59.0994 12.7423
545 2 15.868 63.1175 12.6548
546 2 3.80621 63.0512 12.7387
547 2 7.86441 63.23 12.773
548 2 11.829 63.0734 12.7761
549 2 -0.16209 67.2253 13.0259
550 2 3.78029 67.193 12.929
551 2 7.60569 67.1393 13.1976
552 2 11.6591 67.1846 12.9629
553 2 -0.119568 71.1489 12.9029
554 2 3.7927 71.3863 12.822
555 2 7.59586 71.0421 12.8135
556 2 11.7907 71.0844 13.083
557 2 -0.17894 75.2138 12.9797
558 2 3.70175 75.2095 12.9865
559 2 7.6086 75.0981 13.2458
560 2 11.7273 75.237 13.1404
561 2 -0.0219405 79.1022 13.2452
562 2 3.80668 79.3625 13.3176
563 2 7.76135 79.3427 13.1715
564 2 11.717 79.4104 13.1245
565 2 0.00311506 83.1901 13.3379
566 2 3.64124 83.4191 13.2321
567 2 7.77005 83.4636 13.3537
568 2 11.8096 83.3738 13.4916
569 2 -0.306859 87.2826 13.3411
570 2 3.94127 87.3474 13.4566
571 2 7.61332 87.2797 13.2957
572 2 11.5821 87.3513 13.5869
573 2 -0.10429 91.4689 13.4455
574 2 3.98912 91.4703 13.512
575 2 7.76755 91.259 13.4663
576 2 11.7611 91.5506 13.6158
577 2 0.164635 95.276 13.5625
578 2 4.08528 95.2038 13.6226
579 2 7.90073 95.4636 13.6373
580 2 11.8481 95.3171 13.5772
581 2 -0.0988588 99.1554 13.5252
582 2 3.88358 99.4265 13.5127
583 2 7.98794 99.4044 13.5634
584 2 11.918 99.2378 13.4563
585 2 -0.110819 103.076 13.3237
586 2 3.98567 103.304 13.4265
587 2 7.90314 103.276 13.3884
588 2 11.9524 103.074 13.4873
589 2 -0.105038 107.229 13.1433
590 2 3.92538 107.162 13.4181
591 2 7.84453 107.083 13.3242
592 2 11.8125 106.995 13.3676
593 2 -0.0132554 110.911 13.3052
594 2 3.97479 111.171 13.1563
595 2 7.90776 111.035 13.528
596 2 11.683 110.933 13.3264
597 2 0.0921684 114.991 13.4358
598 2 3.85286 115.023 13.2478
599 2 7.89308 115.09 13.5208
600 2 11.9363 115.007 13.1529
601 2 0.0438449 118.931 13.1689
602 2 3.8528 119.069 13.1034
603 2 7.89205 118.847 13.3882
604 2 12.0461 119.096 13.113
605 2 0.251724 122.923 13.2061
606 2 3.83008 122.863 13.1938
607 2 7.95273 122.835 13.2683
608 2 11.9744 122.869 13.0834
609 2 -0.0842932 126.749 13.201
610 2 3.81078 126.805 13.2928
611 2 8.01836 126.703 13.2816
612 2 11.8164 126.612 13.1656
613 2 15.7087 130.563 13.0337
614 2 3.94685 130.732 13.1814
615 2 7.93104 130.4 13.181
616 2 11.863 130.724 13.2804
617 2 15.8037 134.571 13.0971
618 2 4.09306 134.53 12.9853
619 2 7.88163 134.65 13.0959
620 2 11.8894 134.657 13.1065
621 2 0.0114279 138.381 13.0983
622 2 3.97485 138.631 12.6663
623 2 7.94017 138.557 12.7746
624 2 11.838 138.647 12.8382
625 2 15.6397 142.404 12.748
626 2 3.94932 142.493 13.0874
627 2 7.69578 142.492 12.9175
628 2 11.8374 142.403 12.9605
629 2 -0.0402924 146.194 12.774
630 2 3.76434 146.264 12.686
631 2 7.95902 146.374 12.92
632 2 11.8444 146.227 12.9979
633 2 0.11712 150.09 12.8756
634 2 3.93502 150.11 12.8006
635 2 7.98833 150.152 12.9809
636 2 12.014 150.188 12.8694
637 2 15.7722 154.229 12.8536
638 2 4.02204 154.24 12.8777
639 2 7.88601 154.081 12.8563
640 2 11.6896 154.027 12.7802
641 2 0.0482872 158.274 16.7551
642 2 3.85254 -0.256217 16.7526
643 2 7.98521 158.215 17.0381
644 2 11.9054 158.023 16.9492
645 2 15.8354 3.82477 16.7242
646 2 3.88968 3.68724 16.8425
647 2 7.97599 3.69946 16.7591
648 2 11.8495 3.53683 16.7731
649 2 -0.0886872 7.61825 16.8182
650 2 3.87453 7.65797 16.5574
651 2 7.85622 7.55878 16.7296
652 2 11.8292 7.72071 16.7192
653 2 -0.114045 11.4683 16.5911
654 2 3.88275 11.5147 16.5145
655 2 7.81804 11.5397 16.7265
656 2 11.8711 11.4763 16.6142
657 2 0.167934 15.3976 16.5595
658 2 3.95472 15.5317 16.5536
659 2 7.88783 15.4399 16.5049
660 2 11.8362 15.5025 16.5259
661 2 15.6774 19.2605 16.216
662 2 3.90449 19.2636 16.3339
663 2 7.87781 19.1546 16.4848
664 2 11.8205 19.3513 16.5013
665 2 -0.223375 23.2689 16.2982
666 2 3.80076 23.2659 16.4369
667 2 7.80752 23.1751 16.4894
668 2 11.6859 23.141 16.4452
669 2 -0.0871413 27.1261 16.3275
670 2 3.97107 27.0216 16.4324
671 2 7.78537 26.9792 16.3655
672 2 11.5651 27.053 16.2968
673 2 -0.223511 30.9476 16.2328
674 2 3.86947 31.0753 16.4221
675 2 7.62169 31.0228 16.2451
676 2 11.7292 30.9849 16.1804
677 2 -0.00576444 35.034 16.4054
678 2 3.75092 35.0552 16.3084
679 2 7.73735 34.7401 16.2463
680 2 11.8433 34.8918 16.0894
681 2 -0.105756 38.9014 16.1347
682 2 3.87295 38.7384 16.2517
683 2 7.91621 38.832 16.4231
684 2 11.631 38.9287 16.4015
685 2 -0.0854415 42.9377 16.3371
686 2 3.81665 43.1767 16.2779
687 2 7.83381 42.9095 16.5308
688 2 11.8192 42.9768 16.3052
689 2 15.5814 46.9136 16.5071
690 2 3.89082 47.056 16.3107
691 2 7.8451 46.967 16.4803
692 2 11.9579 46.8392 16.5608
693 2 -0.234561 50.9516 16.4714
694 2 3.86754 51.0385 16.5585
695 2 7.7768 50.9226 16.5345
696 2 11.7335 50.9825 16.6028
697 2 0.0532353 55.1842 16.6275
698 2 4.11891 55.0858 16.5832
699 2 7.95236 55.008 16.4623
700 2 12.0007 55.1015 16.5239
701 2 -0.294284 59.0933 16.7381
702 2 3.66372 59.1319 16.5791
703 2 7.73601 59.0176 16.497
704 2 11.8477 58.9246 16.6292
705 2 -0.136068 63.0945 16.8028
706 2 3.85182 63.0621 16.7061
707 2 7.81538 63.1289 16.6687
708 2 11.7076 63.0216 16.8177
709 2 -0.338924 67.1842 16.6317
710 2 3.51579 67.2252 16.9711
711 2 7.658 67.1165 17.0318
712 2 11.4647 67.1228 16.9347
713 2 -0.116188 71.2005 16.9771
714 2 3.72551 71.3115 16.7863
715 2 7.70707 71.171 16.8531
716 2 11.856 71.1739 16.7688
717 2 -0.336347 75.1397 17.0537
718 2 3.73263 75.2333 17.0437
719 2 7.74929 75.1846 16.9512
720 2 11.7516 75.2157 17.1879
721 2 -0.093237 79.1059 17.032
722 2 3.67829 79.1834 17.0707
723 2 7.78199 79.057 17.1307
724 2 11.7289 79.2592 17.2299
725 2 0.00265671 83.1149 17.2257
726 2 3.90425 83.1382 17.2781
727 2 7.61568 83.2541 17.3002
728 2 11.726 83.1884 17.2328
729 2 -0.0781554 87.389 17.0379
730 2 3.83012 87.352 17.297
731 2 7.85105 87.2556 17.3023
732 2 11.6802 87.1876 17.2696
733 2 0.330652 91.2787 17.2792
734 2 3.97157 91.2823 17.4538
735 2 8.03342 91.3777 17.5485
736 2 11.8418 91.4337 17.4198
737 2 0.143413 95.3886 17.3597
738 2 3.94281 95.2964 17.466
739 2 7.93366 95.3926 17.4566
740 2 11.9007 95.3669 17.3784
741 2 0.101147 99.4597 17.5292
742 2 4.11599 99.4536 17.2592
743 2 7.97123 99.2615 17.5377
744 2 11.8994 99.5973 17.502
745 2 0.130209 103.285 17.4992
746 2 4.17659 103.502 17.6014
747 2 8.0363 103.346 17.4476
748 2 11.9555 103.208 17.5376
749 2 0.095433 107.13 17.2294
750 2 3.80881 107.242 17.3471
751 2 7.96839 107.256 17.5731
752 2 12.0652 107.306 17.3985
753 2 0.0690113 111.127 17.4138
754 2 3.97797 111.163 17.3507
755 2 7.83496 111.239 17.3905
756 2 11.9087 111.082 17.5101
757 2 0.0332012 114.927 17.4626
758 2 3.9741 115.129 17.16
759 2 7.89306 115.038 17.1546
760 2 11.967 114.804 17.2936
761 2 0.0579745 118.895 17.3068
762 2 4.10343 119.058 17.2475
763 2 8.03898 119.026 17.3336
764 2 11.9764 118.966 17.3225
765 2 0.00467979 122.834 17.242
766 2 4.07709 122.957 17.2266
767 2 7.84872 122.788 17.393
768 2 11.8987 122.875 17.135
769 2 15.7974 126.76 17.3178
770 2 3.82097 126.949 17.1966
771 2 7.7704 126.785 17.085
772 2 11.8746 126.694 17.1353
773 2 15.8207 130.758 17.1306
774 2 3.89915 130.754 17.0824
775 2 7.98842 130.659 17.1768
776 2 11.8905 130.775 17.0774
777 2 15.8313 134.805 17.019
778 2 4.02618 134.706 17.0689
779 2 7.94691 134.736 17.0482
780 2 11.974 134.696 17.0095
781 2 -0.138286 138.614 17.152
782 2 3.71358 138.654 16.9794
783 2 7.9918 138.475 16.7832
784 2 11.897 138.472 17.0818
785 2 15.9579 142.438 17.0808
786 2 3.78617 142.352 17.009
787 2 7.73613 142.446 16.8955
788 2 11.9264 142.458 16.8215
789 2 15.9518 146.337 17.0224
790 2 3.93507 146.356 17.061
791 2 7.89464 146.193 17.0583
792 2 11.9166 146.282 16.8378
793 2 15.7902 150.036 16.7884
794 2 3.92822 150.297 16.8842
795 2 7.98209 150.002 16.9681
796 2 11.9465 150.257 16.8161
797 2 15.6523 154.087 16.6198
798 2 3.89797 154.168 16.6345
799 2 8.04965 154.235 16.904
800 2 11.8534 154.21 16.814
801 2 15.8361 158.087 20.9434
802 2 3.87549 158 20.7786
803 2 7.73288 158.228 20.8228
804 2 11.8304 158.112 20.8785
805 2 0.0350974 3.67022 20.9455
806 2 3.86513 3.80403 20.8219
807 2 7.93412 3.86144 20.7772
808 2 11.9703 3.6762 20.6125
809 2 15.9301 7.52846 20.7915
810 2 3.90275 7.75577 20.8258
811 2 7.74894 7.604 20.6596
812 2 11.8197 7.64027 20.6236
813 2 15.9725 11.5557 20.6005
814 2 3.89797 11.5276 20.7418
815 2 7.84242 11.595 20.6271
816 2 12.015 11.667 20.6036
817 2 15.8714 15.5899 20.5279
818 2 3.9292 15.4919 20.6558
819 2 8.15751 15.5312 20.6968
820 2 11.965 15.5962 20.6846
821 2 0.0395515 19.5586 20.583
822 2 3.9117 19.4011 20.6773
823 2 7.87528 19.3892 20.5271
824 2 11.8381 19.1585 20.5021
825 2 0.00909775 23.3538 20.5855
826 2 3.77189 23.293 20.4487
827 2 7.99157 23.2289 20.4088
828 2 11.8244 23.1034 20.4575
829 2 15.6891 27.0323 20.2751
830 2 4.0313 27.0515 20.3951
831 2 7.79017 27.2456 20.3798
832 2 11.7392 27.2012 20.2226
833 2 15.7525 31.1289 20.4241
834 2 3.63839 30.8776 20.3884
835 2 7.95267 31.0865 20.5536
836 2 11.8433 31.0142 20.335
837 2 15.7355 35.1021 20.1497
838 2 3.91527 34.8813 20.1419
839 2 7.88849 34.7802 20.3232
840 2 11.6144 34.9236 20.3361
841 2 -0.0474213 38.952 20.207
842 2 3.87768 38.915 20.457
843 2 7.80789 38.844 20.4141
844 2 11.6659 38.8656 20.5012
845 2 16.0109 42.7237 20.2887
846 2 4.11278 42.8637 20.3451
847 2 7.80161 42.8632 20.4389
848 2 11.7337 42.8153 20.2006
849 2 15.9261 46.9317 20.3633
850 2 3.92414 46.8717 20.1357
851 2 8.08548 46.9956 20.4842
852 2 11.8703 46.8286 20.2855
853 2 -0.160931 51.0495 20.5033
854 2 4.01001 51.0159 20.3536
855 2 7.77386 51.0679 20.526
856 2 11.6973 51.1877 20.2831
857 2 -0.0866263 54.9445 20.614
858 2 3.75054 54.9712 20.4615
859 2 7.87352 54.8609 20.3246
860 2 11.7959 54.8336 20.7145
861 2 15.8355 58.9515 20.6429
862 2 3.84389 58.8544 20.3408
863 2 7.65992 58.969 20.5461
864 2 11.7738 59.0916 20.5044
865 2 15.7043 62.9933 20.7079
866 2 3.96008 62.9638 20.5042
867 2 7.83348 62.9064 20.7502
868 2 11.6647 63.0648 20.572
869 2 -0.181099 67.0217 20.5305
870 2 3.72589 67.0149 20.7844
871 2 7.72518 66.8105 20.7838
872 2 11.6704 67.1249 20.7492
873 2 -0.106102 70.9076 20.8244
874 2 4.05653 71.0093 20.7
875 2 7.86211 71.1139 20.7604
876 2 11.7518 70.9945 20.8106
877 2 -0.205713 74.9953 20.8847
878 2 3.94733 75.0538 21.1169
879 2 7.84563 75.128 20.8726
880 2 11.998 75.1052 20.8558
881 2 0.102223 79.208 21.042
882 2 3.77519 79.0929 21.1183
883 2 7.76994 79.0603 21.1339
884 2 11.6364 79.1538 21.0339
885 2 -0.112734 83.3054 21.1319
886 2 3.90012 83.2231 21.1496
887 2 7.86014 83.1357 21.2641
888 2 11.8915 83.1459 21.191
889 2 -0.0589738 87.0758 21.0162
890 2 3.70179 87.1093 21.177
891 2 7.74518 87.2075 21.0431
892 2 11.8871 87.1344 20.9444
893 2 -0.0691956 91.2561 21.2716
894 2 4.05895 91.3625 21.3582
895 2 7.77085 91.129 21.3806
896 2 11.8918 91.3615 21.272
897 2 -0.0188432 95.3067 21.3114
898 2 3.94552 95.1327 21.3463
899 2 8.01817 95.4198 21.3677
900 2 11.9834 95.3642 21.1555
901 2 0.151358 99.4488 21.3902
902 2 4.20843 99.3801 21.4605
903 2 8.09968 99.2047 21.3286
904 2 12.0315 99.4637 21.3844
905 2 0.115762 103.317 21.707
906 2 4.07252 103.426 21.5282
907 2 7.93446 103.302 21.5993
908 2 11.8617 103.289 21.5763
909 2 -0.239669 107.355 21.4562
910 2 3.89531 107.173 21.5187
911 2 7.9313 107.188 21.6057
912 2 11.9122 107.219 21.4668
913 2 0.133496 111.28 21.4218
914 2 3.98045 111.197 21.4348
915 2 7.83317 110.953 21.33
916 2 11.7169 111.206 21.4597
917 2 15.9014 115.232 21.2447
918 2 3.93689 115.299 21.2869
919 2 8.07912 115.034 21.295
920 2 11.8865 115.184 21.4394
921 2 -0.0323883 119.04 21.2713
922 2 3.99107 119.231 21.3455
923 2 7.89682 119.036 21.3483
924 2 11.9542 119.06 21.2326
925 2 15.8429 123.159 21.0056
926 2 3.84714 122.968 21.2466
927 2 7.79174 122.969 21.2504
928 2 11.987 122.98 21.3054
929 2 15.9328 126.874 21.2595
930 2 4.06035 126.863 21.1093
931 2 7.83681 126.797 21.2902
932 2 11.6255 127.002 21.2825
933 2 15.825 130.531 21.2838
934 2 3.83895 130.754 21.2388
935 2 7.83854 130.547 20.9991
936 2 11.9424 130.857 21.1744
937 2 0.0554596 134.711 21.1243
938 2 3.82142 134.646 21.1959
939 2 7.85915 134.733 21.0784
940 2 11.7361 134.486 21.0599
941 2 15.7848 138.461 21.2005
942 2 4.02704 138.369 21.1183
943 2 7.80554 138.562 21.1765
944 2 11.8902 138.636 21.1743
945 2 15.8155 142.433 21.1934
946 2 3.94376 142.484 21.1693
947 2 7.9395 142.518 20.8999
948 2 11.8804 142.42 21.0793
949 2 15.6769 146.343 20.9437
950 2 4.03562 146.314 21.1002
951 2 7.95149 146.384 20.9108
952 2 11.7765 146.238 20.919
953 2 15.8272 150.292 20.9202
954 2 4.13489 150.313 21.0124
955 2 7.9463 150.259 21.0017
956 2 11.8533 150.205 20.7991
957 2 15.9429 154.083 20.8014
958 2 3.84957 154.138 20.7742
959 2 7.67947 154.343 20.686
960 2 12.0313 154.199 20.717
961 2 -0.115521 158.204 24.7018
962 2 3.98457 158.108 24.719
963 2 8.01121 158.08 24.9939
964 2 11.8372 158.105 24.7769
965 2 15.7354 3.67134 25.0557
966 2 3.78526 3.7231 24.7125
967 2 7.88258 3.73995 24.6782
968 2 11.8544 3.71558 24.8476
969 2 15.72 7.70121 24.6438
970 2 3.91245 7.65461 24.6948
971 2 7.88874 7.67936 24.6599
972 2 11.7935 7.71705 24.7288
973 2 15.8227 11.6042 24.6571
974 2 3.95648 11.6625 24.662
975 2 8.22238 11.6397 24.4201
976 2 11.9899 11.47 24.7297
977 2 0.195637 15.4042 24.6842
978 2 4.04778 15.5424 24.6
979 2 7.97294 15.4853 24.7686
980 2 12.1594 15.6796 24.664
981 2 0.22405 19.3376 24.7305
982 2 3.95094 19.3204 24.6066
983 2 7.98821 19.3897 24.5836
984 2 11.9538 19.5544 24.7463
985 2 -0.171316 23.4212 24.6845
986 2 4.05767 23.1667 24.5005
987 2 8.00759 23.4323 24.5262
988 2 11.8224 23.2987 24.5301
989 2 -0.1638 27.166 24.496
990 2 4.0055 27.3526 24.5066
991 2 7.99754 27.0306 24.441
992 2 11.8861 27.2114 24.3476