ITEM: TIMESTEP
20800
ITEM: NUMBER OF ATOMS
32000
ITEM: BOX BOUNDS xy xz yz pp pp pp
0.0000000000000000e+00 1.5832000000000001e+01 0.0000000000000000e+00
0.0000000000000000e+00 1.5831999999999999e+02 0.0000000000000000e+00
8.1442176959912160e-01 1.6016269623039750e+02 0.0000000000000000e+00
ITEM: ATOMS id type x y z
1 2 15.7961 157.876 159.944
2 2 3.80468 157.759 160.018
3 2 8.06475 157.819 159.954
4 2 12.0247 157.694 159.865
5 2 0.030152 3.5177 159.909
6 2 4.05246 3.40771 160.044
7 2 7.8416 3.3569 159.998
8 2 12.1206 3.40372 159.931
9 2 15.8003 7.33285 160.007
10 2 3.93797 7.49912 159.987
11 2 8.14602 7.21773 159.79
12 2 11.845 7.29366 160.043
13 2 15.6987 11.2136 159.874
14 2 3.92291 11.4812 159.864
15 2 7.85827 11.1829 159.884
16 2 11.8313 11.2396 159.872
17 2 -0.130706 15.3728 159.785
18 2 3.95572 15.3127 159.842
19 2 7.92476 15.2192 159.787
20 2 11.9209 15.1535 159.748
21 2 15.5608 19.031 159.646
22 2 3.77064 19.0473 159.713
23 2 7.74482 19.0292 159.846
24 2 11.8018 19.0195 159.729
25 2 15.801 22.8911 159.72
26 2 3.92248 22.9626 159.727
27 2 8.02573 23.1277 159.653
28 2 11.8927 22.8986 159.844
29 2 15.9686 27.0461 159.738
30 2 3.8121 27.2724 159.883
31 2 7.90566 27.0095 159.785
32 2 11.9287 27.0548 159.959
33 2 15.845 31.1433 159.767
34 2 3.95224 31.1373 0.363091
35 2 8.07676 31.1347 159.99
36 2 12.0163 31.0689 159.835
37 2 0.0168446 35.1407 159.908
38 2 4.07098 35.2204 160.015
39 2 7.87123 35.0894 160.011
40 2 11.8283 35.1268 159.831
41 2 -0.072419 39.2072 160.015
42 2 3.9534 39.1727 0.53512
43 2 8.01609 39.2273 0.61913
44 2 11.7556 39.2681 0.669815
45 2 0.164877 43.1946 159.967
46 2 4.09703 43.19 159.916
47 2 7.99286 43.1523 0.505442
48 2 11.9193 43.232 0.648074
49 2 -0.0406129 47.2462 0.594221
50 2 4.10177 47.2166 0.547134
51 2 7.99809 47.3209 0.824693
52 2 12.0054 47.2513 0.590811
53 2 0.0165586 51.3313 0.715896
54 2 4.07987 51.3365 0.865034
55 2 7.80215 51.4542 0.902188
56 2 11.8492 51.2024 1.10429
57 2 15.7299 55.3547 0.873641
58 2 3.81837 55.4813 1.04522
59 2 7.84718 55.1591 0.989543
60 2 11.8075 55.4009 0.943514
61 2 0.0188133 59.4605 1.18769
62 2 3.7945 59.3663 1.08571
63 2 7.89772 59.2167 0.760418
64 2 11.714 59.367 1.17139
65 2 0.0797899 63.5612 1.01545
66 2 3.74514 63.3717 1.08236
67 2 7.72339 63.3247 1.09013
68 2 11.7533 63.5061 0.94961
69 2 15.7536 67.4598 1.2727
70 2 3.86814 67.6552 1.09744
71 2 7.9346 67.2799 1.23541
72 2 11.7566 67.2762 1.12458
73 2 0.0250447 71.5261 1.38754
74 2 3.88046 71.5447 1.19476
75 2 7.97825 71.3877 1.21424
76 2 11.682 71.4829 1.15751
77 2 0.0433413 75.379 1.33385
78 2 3.91621 75.3522 1.26595
79 2 7.80962 75.5615 1.58348
80 2 11.7935 75.6469 1.44548
81 2 -0.283048 79.4284 1.45317
82 2 3.69671 79.5038 1.40502
83 2 7.84996 79.4283 1.51368
84 2 11.7489 79.9845 1.61922
85 2 -0.0793793 83.5033 1.47576
86 2 3.96951 83.6336 1.43395
87 2 7.78787 83.3791 1.45599
88 2 11.8392 83.5714 1.51445
89 2 -0.105286 87.4977 1.4627
90 2 3.79747 87.3861 1.56538
91 2 7.83723 87.4247 1.54761
92 2 11.7829 87.4881 1.52568
93 2 -0.264591 91.3022 1.32608
94 2 3.87157 91.3366 1.51541
95 2 7.68128 91.3787 1.52802
96 2 11.674 91.4873 1.45128
97 2 15.7876 95.2873 1.29428
98 2 3.85629 95.3321 1.35408
99 2 7.75813 95.365 1.45193
100 2 11.7472 95.2392 1.30789
101 2 -0.11464 99.1374 1.3293
102 2 3.80548 99.1959 1.3593
103 2 7.71357 99.1795 1.33612
104 2 11.9141 99.1509 1.21121
105 2 0.116893 103.072 1.35874
106 2 3.93637 103.037 1.2217
107 2 7.84647 102.995 1.18279
108 2 12.0698 102.889 1.39976
109 2 0.0122499 106.965 1.48006
110 2 3.84534 107.161 1.41991
111 2 7.94856 106.97 1.12094
112 2 11.9554 107.017 1.4204
113 2 -0.144445 111.034 1.21739
114 2 4.08792 110.808 1.11636
115 2 7.92675 111.298 0.842402
116 2 11.7821 111.21 1.05302
117 2 15.6851 114.798 1.243
118 2 3.99361 114.994 1.05143
119 2 8.03807 114.964 1.14591
120 2 11.8312 114.973 1.19341
121 2 0.195739 118.856 1.11623
122 2 3.88373 118.821 1.2474
123 2 7.79485 118.938 1.00365
124 2 11.9812 118.845 1.17781
125 2 15.9444 122.655 1.12694
126 2 4.14121 122.586 1.24516
127 2 7.88276 122.761 1.01283
128 2 11.9757 122.775 0.963381
129 2 -0.120899 126.592 1.04456
130 2 3.89358 126.497 1.05363
131 2 7.91749 126.709 1.03216
132 2 11.8096 126.771 0.991593
133 2 15.9411 130.583 0.972121
134 2 3.86107 130.498 1.09383
135 2 7.88655 130.539 1.07845
136 2 12.0576 130.531 0.922812
137 2 16.0269 134.415 0.867021
138 2 3.86989 134.464 0.687986
139 2 7.8919 134.559 160.349
140 2 12.0403 134.366 1.02861
141 2 -0.00255613 138.446 0.744949
142 2 4.03556 138.249 160.296
143 2 8.07085 138.281 160.131
144 2 11.858 138.362 0.870527
145 2 15.9257 142.336 160.015
146 2 3.85934 142.195 160.035
147 2 7.85407 142.224 160.071
148 2 11.881 142.212 159.988
149 2 0.0101554 146.138 160.23
150 2 3.94325 146.143 160.242
151 2 7.98522 146.149 160.139
152 2 11.9197 146.085 160.188
153 2 16.0507 149.953 160.113
154 2 4.14854 149.989 160.055
155 2 7.84585 150.033 160.026
156 2 11.9658 149.874 0.598991
157 2 15.8668 154.085 159.804
158 2 3.97568 153.94 160.112
159 2 8.04223 154.053 159.994
160 2 11.9179 153.765 160.193
161 2 16.0312 157.82 4.69817
162 2 3.87442 158.067 4.70118
163 2 8.16031 157.846 4.91188
164 2 11.9482 157.998 4.62671
165 2 0.0605319 3.44288 4.42023
166 2 3.89347 3.70111 4.72558
167 2 7.57684 3.39106 4.4203
168 2 11.719 3.40653 4.74153
169 2 -0.198077 7.41595 4.5772
170 2 3.80102 7.49749 4.54467
171 2 7.87429 7.43128 4.69335
172 2 11.8277 7.50618 4.71661
173 2 -0.110099 11.6259 4.46307
174 2 3.79156 11.3222 4.57014
175 2 7.72565 11.3917 4.43424
176 2 11.7184 11.4271 4.60136
177 2 15.7589 15.2695 4.50674
178 2 3.71313 15.1709 4.37851
179 2 7.80598 15.254 4.55566
180 2 11.6603 15.3128 4.4881
181 2 -0.155765 19.1478 4.51458
182 2 3.8268 19.098 4.31997
183 2 7.68552 19.1207 4.4902
184 2 11.693 19.0149 4.41783
185 2 -0.210632 23.0656 4.528
186 2 3.71029 23.1271 4.32718
187 2 7.66023 22.9462 4.2416
188 2 11.6464 22.9358 4.30912
189 2 15.6227 27.0358 4.29809
190 2 3.87348 27 4.44032
191 2 7.75196 27.1279 4.39087
192 2 11.8268 27.0003 4.47113
193 2 0.0261934 31.0897 4.51556
194 2 3.97069 30.983 4.46303
195 2 7.93414 31.0838 4.6049
196 2 11.9211 30.9836 4.51827
197 2 0.10467 35.0317 4.41757
198 2 3.93006 35.0297 4.43052
199 2 7.92293 35.0186 4.3337
200 2 11.9364 35.0605 4.54482
201 2 15.9565 39.1435 4.52941
202 2 3.87342 39.0043 4.5129
203 2 7.90982 39.046 4.48554
204 2 11.9684 39.0929 4.57732
205 2 0.0439075 43.2506 4.5301
206 2 3.81377 43.2504 4.57472
207 2 7.6057 43.1389 4.58226
208 2 11.919 43.0818 4.60237
209 2 0.0398483 47.0752 4.56801
210 2 3.92267 47.1706 4.58067
211 2 7.89492 47.1683 4.71438
212 2 11.9277 47.1577 4.61966
213 2 -0.142721 51.2436 4.56393
214 2 3.87642 51.037 4.8841
215 2 7.8699 51.2201 4.83172
216 2 11.9726 51.1971 4.77742
217 2 0.059288 55.2069 4.83237
218 2 3.929 55.2243 4.86287
219 2 7.8378 55.138 4.8159
220 2 11.8444 55.2793 4.77355
221 2 15.8604 59.2916 5.00725
222 2 4.0018 59.3368 5.04638
223 2 8.02996 59.2093 4.6623
224 2 11.7811 59.3151 4.83435
225 2 -0.170593 63.1572 5.09071
226 2 3.92913 63.3128 4.91354
227 2 8.01396 63.3137 4.92341
228 2 11.8292 63.2446 5.06822
229 2 15.7907 67.2436 5.12297
230 2 3.93738 67.2547 5.01855
231 2 7.89178 67.4216 5.07576
232 2 12.0072 67.3861 4.90526
233 2 15.5498 71.3447 5.11687
234 2 3.94506 71.3912 5.26294
235 2 7.90049 71.4357 5.06205
236 2 11.6849 71.3284 5.19903
237 2 15.9004 75.4541 5.35993
238 2 3.86839 75.4347 5.43523
239 2 7.84257 75.2949 5.26408
240 2 11.9133 75.3718 5.37517
241 2 -0.240477 79.343 5.33649
242 2 4.03664 79.539 5.29906
243 2 7.72041 79.4636 5.40271
244 2 11.726 79.455 5.59116
245 2 15.8655 83.6146 5.41694
246 2 3.67098 83.5649 5.52382
247 2 7.65006 83.5826 5.3079
248 2 11.7399 83.3945 5.88618
249 2 -0.122418 87.3705 5.46947
250 2 3.86576 87.5618 5.56619
251 2 7.74105 87.6669 5.63103
252 2 11.759 87.4155 5.56543
253 2 -0.210043 91.3373 5.48157
254 2 3.83643 91.4884 5.37025
255 2 7.82737 91.5217 5.53898
256 2 11.6646 91.2665 5.45562
257 2 15.5362 95.278 5.52101
258 2 3.8749 95.365 5.55014
259 2 7.76498 95.2662 5.3465
260 2 11.6476 95.4061 5.4043
261 2 0.0240581 99.27 5.46527
262 2 3.6972 99.0514 5.39155
263 2 7.65215 99.1699 5.27757
264 2 11.8921 99.1447 5.4158
265 2 0.0275577 103.128 5.41256
266 2 4.04397 103.117 5.22468
267 2 7.97113 103.282 5.26717
268 2 11.7107 103.197 5.2532
269 2 15.6474 107.129 5.41084
270 2 3.87745 106.997 5.25559
271 2 8.08818 107.006 5.24163
272 2 11.7076 107.203 5.20848
273 2 15.8405 111.101 5.30583
274 2 3.91832 110.94 5.34622
275 2 8.00604 110.969 5.1295
276 2 11.8582 111.069 5.34511
277 2 0.0727283 114.765 5.16007
278 2 4.09543 114.934 5.20036
279 2 7.89003 114.945 5.24206
280 2 11.7596 114.923 5.24403
281 2 0.0399847 118.627 5.24433
282 2 4.09274 118.794 5.20792
283 2 7.91832 118.776 5.43231
284 2 11.898 118.685 5.23602
285 2 15.9049 122.719 5.24713
286 2 3.9512 122.735 5.16062
287 2 8.08267 122.698 5.20556
288 2 11.9145 122.63 5.03605
289 2 0.100294 126.63 5.02531
290 2 4.13273 126.684 5.06372
291 2 7.95258 126.698 5.01283
292 2 11.7636 126.587 5.03207
293 2 -0.0397982 130.564 4.97333
294 2 3.88073 130.57 4.85112
295 2 7.82133 130.548 5.04005
296 2 11.8479 130.455 4.87612
297 2 15.9831 134.376 4.91969
298 2 4.11558 134.488 4.91813
299 2 7.93855 134.37 5.04765
300 2 11.8783 134.431 5.01216
301 2 -0.0380036 138.48 5.06466
302 2 4.00521 138.266 4.96488
303 2 8.09176 138.4 4.73456
304 2 11.7702 138.389 5.00424
305 2 -0.0517781 142.254 4.79996
306 2 3.82499 142.37 4.68321
307 2 7.821 142.239 4.73184
308 2 11.9755 142.147 4.9002
309 2 15.7533 146.255 4.91475
310 2 3.86644 146.097 4.74074
311 2 7.83562 146.102 4.74976
312 2 11.7925 146.007 4.86445
313 2 15.9503 150.009 4.67284
314 2 3.87171 150.115 4.93548
315 2 7.74892 150.042 4.76573
316 2 12.0165 150.035 4.70254
317 2 15.7655 154.052 4.6682
318 2 3.97893 153.991 4.60582
319 2 8.1239 153.912 4.72137
320 2 11.9853 153.964 4.78296
321 2 15.9739 157.867 8.88474
322 2 3.87675 158.028 8.80034
323 2 7.72632 157.997 8.66772
324 2 11.7162 157.916 8.72609
325 2 15.7249 3.55144 8.7625
326 2 4.05654 3.41738 8.5859
327 2 7.7807 3.58853 8.67038
328 2 11.7271 3.73506 8.57201
329 2 15.7541 7.28241 8.36432
330 2 3.96953 7.36483 8.41582
331 2 7.92054 7.59798 8.6205
332 2 11.8578 7.43957 8.57381
333 2 0.108935 11.3212 8.76832
334 2 3.86889 11.1316 8.65224
335 2 7.83728 11.3663 8.53355
336 2 11.6964 11.4171 8.73783
337 2 15.5261 15.3818 8.38587
338 2 3.92495 15.1697 8.63462
339 2 7.74347 15.1553 8.53939
340 2 11.7335 15.2644 8.60141
341 2 -0.134462 19.1802 8.38483
342 2 3.72928 19.083 8.39319
343 2 7.71199 19.1049 8.21637
344 2 11.6645 19.1397 8.38112
345 2 -0.0122899 23.1904 8.4086
346 2 3.89625 23.0924 8.44302
347 2 7.87518 23.1616 8.24308
348 2 11.7402 23.1244 8.35198
349 2 -0.190984 26.9661 8.25025
350 2 4.06354 27.0723 8.29778
351 2 7.95661 26.9707 8.26417
352 2 11.906 27.133 8.41352
353 2 0.0722531 30.897 8.55678
354 2 3.82962 31.026 8.37057
355 2 7.81405 30.9377 8.40706
356 2 11.957 30.9705 8.49811
357 2 15.6399 35.0852 8.62809
358 2 3.96929 35.0344 8.41031
359 2 7.79193 34.8141 8.49433
360 2 11.7173 34.9932 8.43153
361 2 0.277391 39.2242 8.40048
362 2 4.11265 39.0061 8.5482
363 2 8.03898 38.8763 8.41022
364 2 11.6671 38.9667 8.57367
365 2 -0.00421293 42.8919 8.50654
366 2 4.15023 42.9429 8.32516
367 2 8.00086 43.0856 8.62048
368 2 12.0295 42.9322 8.4336
369 2 -0.0430929 47.0095 8.59526
370 2 3.79448 47.0945 8.50399
371 2 7.94416 47.0381 8.6542
372 2 11.8624 47.0371 8.62843
373 2 15.8671 51.1406 8.48447
374 2 3.81264 51.0797 8.66956
375 2 8.03647 51.0886 8.55136
376 2 11.7221 51.1575 8.72954
377 2 15.9409 55.3103 8.70862
378 2 4.01303 55.169 8.82748
379 2 7.90259 55.0876 8.71243
380 2 11.858 55.2094 8.64595
381 2 0.165231 59.1342 8.86907
382 2 4.01993 59.279 8.90652
383 2 7.93227 59.1547 8.78234
384 2 12.0499 59.0825 8.67455
385 2 -0.0566743 63.2217 8.97786
386 2 3.93758 63.2385 9.01565
387 2 7.94863 63.0938 8.94139
388 2 11.7555 63.5425 8.98037
389 2 15.8385 67.3471 8.80444
390 2 3.83089 67.3092 8.85168
391 2 7.5497 67.2298 9.12625
392 2 11.6055 67.2732 9.0935
393 2 15.7323 71.1946 9.17452
394 2 3.91239 71.3066 8.90791
395 2 7.80552 71.3226 9.26806
396 2 11.6604 71.4287 9.18009
397 2 15.752 75.401 9.18288
398 2 3.872 75.3453 9.16458
399 2 7.85856 75.3343 9.14479
400 2 11.8513 75.3805 9.11628
401 2 15.5518 79.4732 9.33558
402 2 3.76693 79.3737 9.31317
403 2 7.68873 79.4628 9.23506
404 2 11.6092 79.5651 9.22567
405 2 -0.219827 83.4121 9.48835
406 2 3.53998 83.5138 9.2529
407 2 7.56587 83.358 9.39447
408 2 11.6931 83.4178 9.59627
409 2 -0.23249 87.3833 9.55656
410 2 3.89096 87.3886 9.35687
411 2 7.84128 87.3069 9.54274
412 2 11.7501 87.3484 9.469
413 2 -0.00928516 91.3182 9.61245
414 2 3.82173 91.4439 9.39509
415 2 8.04246 91.5803 9.42486
416 2 11.978 91.3466 9.59484
417 2 15.6638 95.1984 9.49185
418 2 4.1215 95.3863 9.56333
419 2 7.97845 95.363 9.44501
420 2 11.7613 95.3139 9.26298
421 2 15.9175 99.4063 9.46184
422 2 3.87038 99.2935 9.44089
423 2 7.78246 99.3207 9.32701
424 2 11.812 99.2377 9.50238
425 2 0.0238695 103.322 9.16788
426 2 4.04412 103.272 9.44003
427 2 7.86026 103.139 9.24033
428 2 11.9041 103.226 9.38026
429 2 0.177756 107.144 9.27621
430 2 3.85383 107.256 9.26895
431 2 7.97624 107.263 9.41273
432 2 11.9559 107.139 9.38612
433 2 15.7734 111.157 9.31462
434 2 4.12677 111.105 9.4363
435 2 7.89862 110.977 9.19046
436 2 11.9106 111.099 9.20316
437 2 0.0894143 114.993 9.18143
438 2 3.98105 115.065 9.11448
439 2 7.93392 114.848 9.27768
440 2 11.7344 114.921 9.20524
441 2 -0.00728719 118.859 9.29627
442 2 4.02971 119.122 9.35596
443 2 8.06489 118.832 9.33191
444 2 11.9467 118.693 9.27498
445 2 15.7713 122.969 9.19754
446 2 3.89733 122.857 9.2695
447 2 7.87691 122.653 9.09261
448 2 11.8849 122.883 9.28433
449 2 15.8564 126.916 9.15852
450 2 3.97263 126.882 9.14988
451 2 7.91118 126.606 9.05953
452 2 11.8724 126.67 9.06161
453 2 -0.126541 130.563 9.19448
454 2 3.92411 130.675 8.97417
455 2 7.65474 130.51 9.04497
456 2 11.972 130.591 8.97276
457 2 0.00595251 134.544 9.04391
458 2 4.04153 134.591 8.92909
459 2 7.87635 134.489 9.03492
460 2 11.9213 134.466 9.04445
461 2 -0.0109555 138.51 8.82454
462 2 3.89859 138.336 9.06891
463 2 7.89005 138.497 8.93007
464 2 11.8211 138.308 8.89997
465 2 0.0719565 142.265 8.84291
466 2 3.95944 142.268 8.65197
467 2 7.90265 142.29 8.77113
468 2 11.7835 142.375 9.00997
469 2 15.8723 146.265 8.97623
470 2 4.09874 146.157 8.81228
471 2 7.77087 146.2 8.78419
472 2 11.6958 146.266 8.66021
473 2 15.7808 150.187 8.83238
474 2 3.887 150.041 8.74204
475 2 7.91339 150.245 8.90796
476 2 11.8206 150.209 8.9955
477 2 15.7957 154.105 8.8922
478 2 4.04474 154.311 8.74175
479 2 7.77337 153.963 8.7917
480 2 11.8683 154.104 8.85126
481 2 15.9782 157.971 12.7458
482 2 3.95451 158.064 12.8549
483 2 7.9413 158.059 12.8075
484 2 11.6354 157.966 12.8656
485 2 15.7207 3.66877 12.7832
486 2 3.84068 3.53734 12.7681
487 2 7.94431 3.48469 12.479
488 2 11.8091 3.39358 12.6664
489 2 15.6628 7.52501 12.545
490 2 3.98128 7.46087 12.6935
491 2 7.76933 7.49622 12.7464
492 2 11.7613 7.49005 12.8301
493 2 -0.0308213 11.3579 12.5121
494 2 4.04508 11.5832 12.5109
495 2 8.04423 11.3335 12.5619
496 2 11.7881 11.4202 12.5056
497 2 -0.193936 15.2366 12.4998
498 2 3.94507 15.3776 12.5602
499 2 7.97988 15.4184 12.593
500 2 11.7093 15.2955 12.6792
501 2 -0.166108 19.2188 12.4106
502 2 3.74202 19.2458 12.5633
503 2 7.95039 19.329 12.4103
504 2 11.9192 19.2094 12.3579
505 2 -0.0552844 23.1787 12.3814
506 2 3.94146 22.9794 12.514
507 2 7.97238 23.0447 12.3359
508 2 11.7375 23.0519 12.3507
509 2 -0.0283569 27.051 12.4768
510 2 3.71037 27.1114 12.4121
511 2 7.79255 26.9336 12.4023
512 2 11.7255 27.0115 12.2734
513 2 -0.0979319 31.0775 12.2539
514 2 4.05109 30.9724 12.3437
515 2 7.80401 30.9715 12.1501
516 2 11.556 31.0015 12.4765
517 2 -0.131517 35.0461 12.3703
518 2 4.07834 34.9668 12.2415
519 2 7.9171 34.8838 12.4061
520 2 11.6943 34.9478 12.4966
521 2 0.0754096 38.9569 12.5408
522 2 4.02561 38.8793 12.4202
523 2 7.94473 38.9297 12.4632
524 2 11.9227 38.7525 12.4067
525 2 0.153029 42.963 12.4061
526 2 3.7907 42.8814 12.3582
527 2 7.89334 43.121 12.6554
528 2 12.0564 43.0249 12.4372
529 2 -0.120187 46.9717 12.513
530 2 3.94452 47.0394 12.3619
531 2 7.68068 46.9738 12.5667
532 2 11.9165 47.1419 12.5298
533 2 -0.137313 51.0474 12.5118
534 2 3.84832 51.0732 12.6088
535 2 7.96811 51.0633 12.5573
536 2 11.8407 51.2866 12.6138
537 2 15.6948 55.1438 12.6804
538 2 4.08971 55.0633 12.5732
539 2 7.83592 55.0791 12.6969
540 2 11.9958 55.252 12.3987
541 2 15.9198 59.1448 12.8387
542 2 3.96391 59.2435 12.8207
543 2 8.01891 59.1722 12.6112
544 2 11.8983 59.1263 12.8153
545 2 15.6974 63.2203 12.9254
546 2 4.04811 63.2992 13.0302
547 2 7.79626 63.122 13.015
548 2 11.811 63.2112 13.0113
549 2 0.027044 67.1156 12.8595
550 2 3.83323 67.1524 12.9694
551 2 8.09888 67.3103 12.9144
552 2 11.969 67.1809 12.9005
553 2 -0.0350674 71.3129 13.0141
554 2 3.91966 71.1342 13.0004
555 2 7.86874 71.3466 13.1677
556 2 11.6368 71.3674 12.9124
557 2 -0.0789819 75.1997 13.123
558 2 3.83616 75.2475 13.0747
559 2 7.87857 75.2815 12.8631
560 2 11.6531 75.122 13.155
561 2 -0.21262 79.2772 13.0979
562 2 3.95307 79.2695 13.16
563 2 7.89445 79.1304 13.2736
564 2 11.7919 79.1251 13.208
565 2 -0.143865 83.3286 13.2338
566 2 3.94681 83.3073 13.3328
567 2 7.7356 83.2152 13.4035
568 2 11.6459 83.1482 13.3393
569 2 -0.0419793 87.4615 13.5454
570 2 3.77776 87.4549 13.2496
571 2 7.79177 87.3964 13.4063
572 2 11.901 87.41 13.3531
573 2 -0.0922294 91.3793 13.6797
574 2 4.02784 91.2604 13.2447
575 2 7.86004 91.4609 13.4575
576 2 11.7812 91.3559 13.5445
577 2 -0.0829925 95.5228 13.5985
578 2 3.97808 95.3394 13.3501
579 2 7.99428 95.3585 13.4347
580 2 11.872 95.4108 13.3549
581 2 0.166463 99.2973 13.3588
582 2 4.25688 99.1715 13.4604
583 2 7.99922 99.3833 13.4373
584 2 12.0019 99.4411 13.4771
585 2 0.21537 103.307 13.4569
586 2 4.09705 103.124 13.3333
587 2 8.02678 103.404 13.463
588 2 11.8105 103.375 13.0893
589 2 -0.0330739 107.049 13.5298
590 2 4.03947 107.132 13.3221
591 2 8.01742 107.172 13.5871
592 2 11.8273 107.196 13.4282
593 2 0.00104723 111.151 13.1855
594 2 3.93251 111.017 13.3963
595 2 7.87603 111.101 13.2973
596 2 11.9183 111.057 13.3374
597 2 -0.0249384 114.84 13.1758
598 2 3.91109 115.004 13.3505
599 2 7.98936 114.958 13.2159
600 2 11.9316 114.837 13.4042
601 2 0.0318717 118.802 13.2438
602 2 3.97621 118.888 13.3917
603 2 7.90985 118.923 13.2355
604 2 11.8921 118.89 13.2856
605 2 -0.154342 122.775 13.2926
606 2 3.99697 122.721 13.3868
607 2 7.77169 122.74 13.1921
608 2 11.9396 122.83 13.4343
609 2 0.138584 126.906 13.1492
610 2 4.10877 126.698 13.1866
611 2 7.74157 126.599 13.0136
612 2 11.8251 126.859 13.1248
613 2 15.9381 130.656 13.3093
614 2 4.10378 130.632 13.0237
615 2 8.07945 130.8 13.0756
616 2 11.8001 130.524 12.9647
617 2 15.8854 134.547 13.1599
618 2 3.97599 134.626 13.0075
619 2 8.09869 134.378 13.02
620 2 12.0067 134.533 13.0925
621 2 0.0856799 138.649 12.8041
622 2 4.13562 138.489 13.1583
623 2 7.88328 138.514 12.9598
624 2 11.8958 138.498 13.1059
625 2 15.8192 142.356 13.088
626 2 3.77456 142.441 12.6973
627 2 7.87768 142.408 12.8105
628 2 11.7718 142.372 12.911
629 2 0.00379014 146.337 12.9911
630 2 3.9097 146.221 12.9075
631 2 7.85817 146.243 12.9595
632 2 11.9575 146.235 12.6259
633 2 0.10994 150.162 12.735
634 2 3.98779 150.335 12.9115
635 2 7.77538 150.126 12.7905
636 2 11.8065 150.293 12.8768
637 2 15.6253 154.103 12.6434
638 2 3.80872 154.026 12.779
639 2 7.83349 154.097 12.8307
640 2 11.8473 154.244 12.8847
641 2 -0.10815 157.911 16.783
642 2 3.95886 -0.035342 16.7755
643 2 7.82946 157.991 16.6927
644 2 11.8727 158.073 16.7138
645 2 15.5583 3.52735 16.684
646 2 3.78793 3.68388 16.6365
647 2 7.67488 3.73019 16.7567
648 2 11.7986 3.92001 16.565
649 2 0.0428809 7.57865 16.3787
650 2 4.00162 7.43079 16.6483
651 2 7.83456 7.66196 16.7568
652 2 11.832 7.48646 16.5883
653 2 0.0493678 11.5017 16.5862
654 2 3.91047 11.5152 16.7002
655 2 7.98844 11.4033 16.6333
656 2 11.9106 11.488 16.5559
657 2 0.00809492 15.3041 16.3023
658 2 4.00054 15.3114 16.5801
659 2 7.99664 15.2049 16.4531
660 2 11.9203 15.4035 16.4872
661 2 15.6607 19.3683 16.7105
662 2 3.82466 19.2347 16.6867
663 2 7.73009 19.3597 16.5473
664 2 11.6981 19.2362 16.586
665 2 -0.0719904 23.0502 16.5739
666 2 3.94309 22.9847 16.3964
667 2 7.82466 23.1414 16.4749
668 2 11.7507 23.2686 16.4755
669 2 -0.178811 26.8623 16.3328
670 2 3.77122 27.1121 16.3414
671 2 7.67816 27.1868 16.4051
672 2 11.7122 27.129 16.3536
673 2 -0.187536 30.8648 16.3805
674 2 3.64268 31.1029 16.3005
675 2 7.79497 30.9817 16.3654
676 2 11.6102 30.9798 16.3816
677 2 -0.344792 34.7997 16.2776
678 2 3.76424 34.8712 16.235
679 2 7.89023 34.991 16.3444
680 2 11.7252 34.842 16.5706
681 2 -0.0884111 38.7966 16.5363
682 2 4.01027 39.0461 16.4889
683 2 7.73666 38.9976 16.2532
684 2 11.7298 38.8255 16.3895
685 2 0.0207988 42.7897 16.2672
686 2 3.86448 43.0701 16.3034
687 2 7.88637 42.9313 16.4407
688 2 11.9646 42.8894 16.2071
689 2 15.9091 47.0297 16.5229
690 2 3.86416 47.0336 16.5155
691 2 7.84034 46.944 16.4115
692 2 11.5839 46.9533 16.2421
693 2 -0.0183094 51.0774 16.6591
694 2 3.78775 50.9473 16.4834
695 2 7.86933 51.2537 16.3791
696 2 11.8629 50.9792 16.2977
697 2 -0.35124 54.9668 16.6159
698 2 3.64778 54.9498 16.5595
699 2 7.61092 55.083 16.5278
700 2 11.442 55.0405 16.6194
701 2 -0.0622769 58.9709 16.5913
702 2 3.82242 59.0528 16.6352
703 2 7.77989 59.1569 16.6476
704 2 11.646 59.1727 16.6042
705 2 -0.303793 63.157 16.7403
706 2 3.88531 63.1549 16.8928
707 2 7.83479 63.1059 16.9418
708 2 11.7243 63.0992 16.8036
709 2 -0.131927 67.1524 17.037
710 2 3.92384 67.1188 16.5837
711 2 7.83726 67.1375 16.8401
712 2 11.9484 67.0624 16.7042
713 2 -0.205304 71.0494 16.9369
714 2 3.86495 71.0693 16.894
715 2 7.71883 71.1907 16.8991
716 2 11.6977 71.1308 16.9071
717 2 -0.00255895 75.0912 17.1038
718 2 3.68131 75.0989 17.1196
719 2 7.91935 75.2565 16.9297
720 2 11.8312 75.1238 17.0794
721 2 -0.221004 79.1451 17.0115
722 2 3.88482 79.0468 17.2778
723 2 7.65285 79.1893 17.0739
724 2 11.8001 79.2499 16.9737
725 2 -0.193926 83.1686 17.254
726 2 3.75728 83.2528 17.1782
727 2 7.87565 83.1736 17.3081
728 2 11.6233 83.2372 17.2943
729 2 -0.209971 87.2006 17.3807
730 2 3.70845 87.2105 17.3206
731 2 7.71152 87.2984 17.3691
732 2 11.8878 87.2832 17.2072
733 2 0.0397259 91.5248 17.4665
734 2 4.17551 91.2844 17.4487
735 2 7.87615 91.2198 17.2706
736 2 11.8788 91.316 17.4299
737 2 0.134985 95.4708 17.602
738 2 3.96932 95.3377 17.4874
739 2 7.99225 95.4187 17.4739
740 2 11.9448 95.4191 17.4511
741 2 0.128028 99.3061 17.3957
742 2 3.98725 99.5531 17.4618
743 2 7.9651 99.3278 17.4722
744 2 11.9389 99.222 17.4456
745 2 -0.14296 103.266 17.3411
746 2 3.87038 103.291 17.3106
747 2 7.93574 103.296 17.6412
748 2 11.8271 103.379 17.4909
749 2 -0.0736246 107.117 17.4215
750 2 3.97951 107.321 17.4036
751 2 8.04291 107.22 17.3879
752 2 11.9255 107.17 17.4722
753 2 0.0827176 111.072 17.262
754 2 3.91442 111.069 17.3346
755 2 7.8659 111.055 17.3753
756 2 11.9787 111.1 17.3127
757 2 -0.122656 115.009 17.1576
758 2 3.95791 114.984 17.4705
759 2 8.01594 115.074 17.4185
760 2 11.8274 115.061 17.2653
761 2 -0.118815 118.876 17.2707
762 2 3.82586 118.808 17.2775
763 2 7.99679 118.764 17.0848
764 2 11.8584 119.015 17.1534
765 2 -0.0481186 123.032 17.2871
766 2 3.76064 122.861 17.3668
767 2 8.00752 122.979 17.15
768 2 11.8096 122.879 17.3958
769 2 15.8292 127.019 17.0411
770 2 3.98167 126.745 17.2875
771 2 7.96451 126.932 17.1137
772 2 11.875 126.773 17.3154
773 2 15.9771 130.874 17.212
774 2 4.0963 130.861 17.2224
775 2 7.8247 130.791 17.1892
776 2 11.9375 130.646 17.2448
777 2 15.9744 134.665 16.9954
778 2 3.84867 134.605 17.15
779 2 7.75678 134.556 17.1117
780 2 11.6429 134.479 17.1008
781 2 0.0856153 138.401 16.9426
782 2 4.04172 138.45 17.001
783 2 7.7838 138.468 16.9581
784 2 11.7216 138.487 16.8627
785 2 15.8098 142.367 17.0107
786 2 4.06664 142.391 16.9677
787 2 7.92848 142.404 16.9379
788 2 11.8989 142.255 17.011
789 2 15.7877 146.369 16.9165
790 2 4.08991 146.445 16.8752
791 2 8.01637 146.267 16.8136
792 2 11.954 146.355 16.8579
793 2 15.7855 150.338 16.9074
794 2 3.99327 150.337 16.7972
795 2 7.98017 150.259 16.7233
796 2 11.9116 150.26 16.8626
797 2 16.0383 154.204 16.9126
798 2 4.147 154.234 16.9419
799 2 7.80432 153.999 16.8425
800 2 11.878 154.105 16.8934
801 2 15.8098 158.152 20.6679
802 2 3.86306 158.229 20.8795
803 2 7.87384 158.223 20.8678
804 2 11.6627 158.138 20.7246
805 2 -0.297638 3.75901 20.622
806 2 3.79263 3.70244 20.8029
807 2 7.73067 3.63043 20.7957
808 2 11.7561 3.63629 20.863
809 2 15.7668 7.69432 20.5497
810 2 3.87523 7.52228 20.7022
811 2 8.00776 7.70317 20.7982
812 2 11.9444 7.69447 20.7266
813 2 15.728 11.4699 20.6588
814 2 3.93242 11.465 20.6142
815 2 7.8483 11.5372 20.509
816 2 11.9473 11.5451 20.6054
817 2 15.8521 15.2521 20.6425
818 2 4.01327 15.5077 20.5087
819 2 7.83902 15.3153 20.5391
820 2 11.9494 15.4442 20.4537
821 2 -0.0177206 19.1441 20.5137
822 2 4.03 19.36 20.4833
823 2 7.94275 19.146 20.6206
824 2 11.9888 19.5703 20.6536
825 2 0.0574764 23.2256 20.3933
826 2 3.95084 23.177 20.4599
827 2 7.80299 23.2484 20.6096
828 2 11.9438 23.4847 20.6138
829 2 15.6334 27.2826 20.3231
830 2 3.61936 27.0661 20.4739
831 2 7.66296 27.1188 20.442
832 2 11.6874 27.1475 20.4881
833 2 15.7681 30.8821 20.3052
834 2 4.10475 30.9785 20.4246
835 2 7.75606 30.9315 20.2904
836 2 11.8624 31.1186 20.5231
837 2 15.8032 34.8956 20.3799
838 2 3.79054 34.863 20.4351
839 2 7.54119 35.0309 20.2537
840 2 11.831 34.903 20.3361
841 2 -0.28497 38.7882 20.2781
842 2 3.58437 38.9309 20.2958
843 2 7.58743 38.8986 20.1357
844 2 11.6831 38.807 20.3068
845 2 15.5274 42.8753 20.0959
846 2 3.6297 42.7689 20.3927
847 2 7.85642 42.8493 20.3479
848 2 11.8557 42.7705 20.2638
849 2 15.7759 46.8746 20.3089
850 2 3.95733 46.7893 20.4449
851 2 7.67827 46.6927 20.2101
852 2 11.7823 46.9034 20.1768
853 2 -0.000445844 50.9339 20.4368
854 2 3.83456 50.8194 20.5483
855 2 7.85016 50.7383 20.413
856 2 11.7152 50.7919 20.4402
857 2 -0.0754763 55.0368 20.4557
858 2 4.00371 54.8948 20.5178
859 2 7.75203 55.0374 20.5271
860 2 11.775 55.1377 20.3698
861 2 15.6957 59.0003 20.6067
862 2 3.89524 59.1428 20.6082
863 2 7.92938 58.894 20.604
864 2 11.5845 58.9295 20.5706
865 2 15.568 63.0201 20.6385
866 2 3.62856 63.1028 20.6441
867 2 7.8026 62.9983 20.6352
868 2 11.9041 63.0336 20.8494
869 2 -0.0184238 67.0019 20.7779
870 2 3.95642 67.1752 20.6105
871 2 7.92781 67.2422 20.7475
872 2 11.9083 67.0098 20.8024
873 2 -0.09168 70.9386 20.8937
874 2 3.9469 71.2481 20.8305
875 2 7.91701 71.0359 20.8291
876 2 11.695 71.0879 20.9898
877 2 -0.0713565 75.0959 20.9274
878 2 3.91724 75.1525 20.758
879 2 7.91964 75.0351 21.0098
880 2 11.6198 75.1196 21.1198
881 2 -0.203994 79.2275 21.0012
882 2 3.9436 79.1212 21.0704
883 2 7.82136 79.1206 21.1323
884 2 11.8119 79.0271 21.0218
885 2 -0.017284 82.9242 21.1539
886 2 3.88415 83.1014 21.1317
887 2 7.88742 83.0089 21.0509
888 2 11.7369 83.136 21.2385
889 2 -0.0823564 87.2598 21.2065
890 2 4.0024 87.1844 21.2394
891 2 7.91926 87.0343 21.2963
892 2 11.8292 87.3098 21.1722
893 2 -0.0310168 91.1754 21.2555
894 2 3.72624 91.1536 21.3376
895 2 8.0206 91.313 21.2742
896 2 11.8539 91.1832 21.1153
897 2 0.0169061 95.5082 21.3378
898 2 4.18034 95.408 21.1704
899 2 8.08473 95.2756 21.3333
900 2 12.0165 95.3331 21.5181
901 2 0.0154153 99.3567 21.4371
902 2 3.86459 99.5513 21.3109
903 2 8.01984 99.327 21.4087
904 2 12.0157 99.1843 21.529
905 2 0.0587477 103.405 21.2824
906 2 4.01893 103.429 21.3923
907 2 7.92542 103.366 21.5211
908 2 12.0074 103.378 21.5687
909 2 0.220698 107.136 21.4669
910 2 4.00333 107.373 21.3045
911 2 8.01977 107.33 21.3948
912 2 11.8763 107.35 21.4444
913 2 -0.0231793 111.104 21.4151
914 2 3.90977 111.287 21.3454
915 2 7.70194 111.249 21.3923
916 2 11.8596 111.2 21.3032
917 2 15.8214 114.997 21.3991
918 2 4.04337 115.047 21.4011
919 2 7.89439 115.176 21.3164
920 2 11.84 114.97 21.2693
921 2 0.230103 119.031 21.1865
922 2 3.94144 118.907 21.2661
923 2 7.84643 118.96 21.0045
924 2 11.8209 118.995 21.2252
925 2 15.793 122.762 21.4704
926 2 4.14515 122.901 21.2416
927 2 8.00678 122.841 21.2931
928 2 11.8098 122.735 21.1495
929 2 15.7865 126.828 21.2754
930 2 3.87635 126.778 21.2988
931 2 7.99968 126.89 21.1395
932 2 11.9609 126.749 21.0967
933 2 15.7281 130.975 21.133
934 2 3.87447 130.772 21.1967
935 2 7.77871 130.854 21.2492
936 2 11.9516 130.603 21.0813
937 2 -0.309102 134.57 21.2173
938 2 4.01928 134.831 21.2134
939 2 7.87922 134.664 21.1355
940 2 11.6705 134.675 21.0565
941 2 15.5826 138.431 20.9347
942 2 3.83578 138.828 21.2098
943 2 7.9302 138.678 20.9711
944 2 11.7107 138.565 20.9112
945 2 15.9482 142.325 20.9057
946 2 4.07396 142.426 20.9987
947 2 7.98105 142.416 20.9679
948 2 11.9028 142.641 20.8946
949 2 16.0053 146.208 20.865
950 2 4.0368 146.438 20.9374
951 2 7.95363 146.45 20.9396
952 2 11.8826 146.456 21.0179
953 2 15.8282 150.226 20.8414
954 2 3.76332 150.355 20.828
955 2 7.76359 150.446 20.7359
956 2 11.7104 150.321 20.9236
957 2 15.6814 154.304 20.7833
958 2 3.90901 154.167 20.7428
959 2 8.00891 154.251 20.8888
960 2 11.7963 154.138 20.9075
961 2 0.0577869 158.167 24.9461
962 2 4.10243 158.069 24.7958
963 2 8.05905 158.172 24.6263
964 2 11.9807 158.089 24.8681
965 2 15.8318 3.7491 24.6162
966 2 4.04812 3.64186 24.9298
967 2 7.98092 3.7226 24.907
968 2 11.9193 3.77736 24.7403
969 2 15.8124 7.49759 24.8017
970 2 3.9513 7.72461 24.8776
971 2 7.88642 7.61073 24.7194
972 2 11.5915 7.70667 24.4686
973 2 16.0249 11.5165 24.7658
974 2 4.01019 11.5292 24.7588
975 2 7.88446 11.5455 24.7539
976 2 11.9758 11.6404 24.5922
977 2 0.0263219 15.4925 24.6541
978 2 3.99877 15.3735 24.7525
979 2 7.99377 15.3736 24.4506
980 2 11.7667 15.3961 24.5841
981 2 -0.0737376 19.2846 24.4709
982 2 3.92094 19.4277 24.6237
983 2 7.80255 19.4884 24.6001
984 2 11.9388 19.2856 24.4509
985 2 -0.081724 23.2708 24.5514
986 2 3.9545 23.4027 24.5155
987 2 7.96755 23.1454 24.5936
988 2 11.8269 23.2602 24.6034
989 2 0.0903111 27.2835 24.5323
990 2 3.94123 27.1217 24.5308
991 2 7.8515 27.2522 24.5686