ITEM: TIMESTEP
20900
ITEM: NUMBER OF ATOMS
32000
ITEM: BOX BOUNDS xy xz yz pp pp pp
0.0000000000000000e+00 1.5832000000000001e+01 0.0000000000000000e+00
0.0000000000000000e+00 1.5831999999999999e+02 0.0000000000000000e+00
8.0694374026522553e-01 1.6017017425973120e+02 0.0000000000000000e+00
ITEM: ATOMS id type x y z
1 2 15.9994 157.731 159.989
2 2 4.00462 157.782 159.981
3 2 7.84359 157.743 160.168
4 2 11.8284 157.878 160.172
5 2 0.249952 3.24525 159.884
6 2 4.08878 3.43269 159.934
7 2 8.08527 3.26567 159.934
8 2 11.8294 3.44691 159.993
9 2 15.8497 7.36222 159.807
10 2 4.01653 7.40971 159.892
11 2 7.70115 7.2217 159.958
12 2 11.8117 7.4074 159.901
13 2 15.5609 11.4527 159.88
14 2 3.97612 11.2129 159.844
15 2 7.89342 11.3293 159.859
16 2 11.78 11.213 159.922
17 2 -0.0876911 15.1335 159.826
18 2 3.76068 15.1529 159.697
19 2 7.81785 15.1438 159.755
20 2 11.7917 15.0744 159.613
21 2 15.746 19.1367 159.833
22 2 3.85137 19.0769 159.584
23 2 7.96758 19.053 159.702
24 2 11.8353 19.0431 159.759
25 2 15.8698 23.1508 159.761
26 2 3.99876 23.0142 159.722
27 2 7.94052 23.0619 159.839
28 2 11.7938 23.0918 159.689
29 2 15.7631 27.0907 159.981
30 2 4.09376 26.9625 159.92
31 2 7.86949 27.168 159.844
32 2 11.9988 27.1846 159.701
33 2 15.8925 31.0517 159.987
34 2 4.14987 31.128 0.620255
35 2 7.95223 31.1199 159.848
36 2 11.9205 31.0865 159.86
37 2 -0.0234228 35.1011 159.838
38 2 3.84225 35.0517 159.819
39 2 7.90496 35.154 159.69
40 2 11.9642 35.132 160.042
41 2 0.120589 39.152 159.909
42 2 3.87452 39.3055 0.689859
43 2 7.73852 39.0959 0.761906
44 2 11.887 39.2282 0.445459
45 2 -0.147559 43.1935 159.98
46 2 3.91298 43.3003 159.967
47 2 7.87556 43.3386 0.907235
48 2 12.0061 43.3532 0.760525
49 2 0.210556 47.2936 0.93573
50 2 3.9316 47.2339 0.824864
51 2 8.0811 47.2511 0.664928
52 2 11.8698 47.3089 0.794419
53 2 -0.240952 51.3889 0.800727
54 2 3.82354 51.2035 0.704877
55 2 7.86095 51.1401 0.740212
56 2 11.8355 51.3154 0.631469
57 2 15.9515 55.3052 0.920706
58 2 3.94661 55.2129 0.93644
59 2 7.91594 55.3023 0.81724
60 2 11.8638 55.1856 0.847944
61 2 -0.192111 59.454 0.878422
62 2 4.04964 59.315 1.05498
63 2 7.65732 59.4459 1.09105
64 2 11.785 59.3991 0.706101
65 2 -0.0827361 63.4462 1.03892
66 2 4.00606 63.3625 1.01917
67 2 7.802 63.377 1.0383
68 2 11.841 63.3258 1.1623
69 2 15.6223 67.459 1.08486
70 2 3.76922 67.2444 1.11699
71 2 7.74691 67.4349 1.08922
72 2 11.7575 67.6529 1.35637
73 2 -0.112247 71.4048 1.24997
74 2 3.78803 71.3488 1.1408
75 2 7.66827 71.415 1.19873
76 2 11.6207 71.6803 1.398
77 2 -0.194171 75.4693 1.34173
78 2 3.84233 75.4796 1.34612
79 2 7.90832 75.3142 1.14991
80 2 11.9125 75.4632 1.45912
81 2 -0.181649 79.693 1.40586
82 2 3.79908 79.4519 1.54813
83 2 7.56016 79.5609 1.40754
84 2 11.5726 79.3313 1.60444
85 2 -0.261768 83.3923 1.59774
86 2 3.75322 83.3345 1.63523
87 2 7.62341 83.7073 1.54951
88 2 11.6635 83.4136 1.73699
89 2 -0.0574217 87.1125 1.4816
90 2 4.01986 87.5156 1.56068
91 2 7.82953 87.4449 1.5083
92 2 11.7451 87.4041 1.67905
93 2 -0.0621481 91.2844 1.58739
94 2 3.77743 91.4078 1.51339
95 2 7.72739 91.5438 1.39007
96 2 11.8185 91.2037 1.54658
97 2 15.6862 95.2544 1.54817
98 2 3.80681 95.1815 1.45672
99 2 8.05306 95.3297 1.2753
100 2 11.9172 95.3288 1.48096
101 2 -0.0446539 99.0286 1.39376
102 2 3.96482 99.2163 1.38272
103 2 7.92749 99.1214 1.44074
104 2 11.6675 99.2485 1.51932
105 2 -0.158204 103.165 1.35367
106 2 3.93244 103.179 1.37493
107 2 7.98343 103.067 1.39201
108 2 11.7228 103.213 1.24994
109 2 -0.141356 107.007 1.20297
110 2 3.93393 106.986 1.26165
111 2 7.97107 107.053 1.32292
112 2 11.8071 106.972 1.13611
113 2 0.21025 110.793 1.22679
114 2 3.80577 110.968 1.34244
115 2 8.03259 110.691 1.11208
116 2 12.052 110.911 1.18609
117 2 15.9785 115.123 1.00767
118 2 4.11076 114.719 1.29347
119 2 7.96244 114.897 1.11017
120 2 11.99 114.884 1.15697
121 2 -0.153039 118.786 1.12214
122 2 4.07395 118.722 1.16783
123 2 8.09197 118.665 0.996303
124 2 11.8129 118.711 1.11483
125 2 15.7305 122.731 1.09976
126 2 3.80952 122.71 1.00238
127 2 7.95072 122.799 1.16195
128 2 11.8813 122.62 1.18756
129 2 0.0661096 126.599 1.11767
130 2 3.94114 126.701 1.12301
131 2 7.86645 126.577 1.08281
132 2 11.8717 126.498 1.07566
133 2 15.7852 130.494 1.03928
134 2 4.06354 130.541 0.973731
135 2 8.01171 130.579 1.0033
136 2 11.8696 130.552 1.09412
137 2 15.8016 134.664 0.918373
138 2 4.01838 134.555 1.05008
139 2 7.86898 134.422 160.207
140 2 11.8279 134.317 0.783479
141 2 -0.197278 138.314 0.845704
142 2 3.85801 138.528 160.198
143 2 8.00852 138.264 160.084
144 2 11.9474 138.315 0.731124
145 2 15.624 142.221 160.311
146 2 4.07451 142.211 160.167
147 2 7.96432 142.276 160.256
148 2 11.8248 142.344 160.276
149 2 -0.0395902 146.052 160.034
150 2 3.77785 146.047 159.94
151 2 7.96806 146.17 160.132
152 2 11.8746 146.3 160.147
153 2 15.7503 150.081 160.082
154 2 3.92221 150.069 160.122
155 2 7.85232 149.975 160.181
156 2 11.862 150.019 0.74864
157 2 15.6727 153.811 160.198
158 2 3.9371 153.883 159.961
159 2 7.8409 153.717 160.207
160 2 11.8044 153.909 159.926
161 2 15.7441 157.995 4.69608
162 2 4.05117 157.773 4.7432
163 2 7.69837 157.733 4.48083
164 2 11.8075 157.953 4.7976
165 2 -0.217755 3.43181 4.68177
166 2 3.97651 3.3707 4.54297
167 2 8.04192 3.44522 4.73507
168 2 11.842 3.74063 4.47449
169 2 0.0491453 7.49279 4.46896
170 2 3.80723 7.43024 4.59031
171 2 7.75137 7.46905 4.40988
172 2 11.813 7.42483 4.60644
173 2 -0.26519 11.3237 4.53539
174 2 3.79248 11.2574 4.51228
175 2 7.76753 11.3437 4.63438
176 2 11.6994 11.3311 4.53103
177 2 15.7279 15.3807 4.60713
178 2 3.7382 15.1669 4.5692
179 2 7.70138 15.2026 4.39697
180 2 11.7197 15.1806 4.59825
181 2 -0.13618 19.2499 4.38798
182 2 3.99888 19.1271 4.34191
183 2 7.7301 19.0999 4.24603
184 2 11.7339 19.1277 4.43725
185 2 0.0355946 23.101 4.49738
186 2 3.87188 22.8111 4.35587
187 2 7.98447 23.076 4.50317
188 2 11.7931 23.0992 4.38463
189 2 15.8886 26.8653 4.44124
190 2 3.91611 26.9383 4.27168
191 2 7.94789 26.8513 4.37646
192 2 11.8047 27.0107 4.23234
193 2 0.0230217 30.959 4.54473
194 2 3.97034 31.0511 4.49565
195 2 8.02872 30.9333 4.26529
196 2 11.7907 31.0668 4.48442
197 2 -0.151036 35.2034 4.56003
198 2 3.86268 35.1519 4.52554
199 2 7.84381 35.1748 4.43012
200 2 11.8395 35.0776 4.36758
201 2 15.7483 39.0721 4.53379
202 2 3.95978 39.2881 4.66796
203 2 7.99707 39.1656 4.55306
204 2 11.9729 39.1478 4.4491
205 2 -0.0172584 43.0462 4.65059
206 2 3.9622 43.0845 4.61801
207 2 7.94902 43.2281 4.70689
208 2 11.7036 43.2319 4.49901
209 2 0.147552 47.2107 4.80676
210 2 3.89814 47.1573 4.60362
211 2 8.01526 47.244 4.63096
212 2 12.0227 47.1435 4.71015
213 2 0.167374 51.1938 4.96303
214 2 3.96821 51.3562 4.64186
215 2 7.85569 51.1758 4.73392
216 2 11.8688 51.144 4.81998
217 2 0.0774138 55.3477 4.73255
218 2 4.00146 55.3601 4.92712
219 2 7.99944 55.1918 4.82622
220 2 11.9675 55.1925 4.77789
221 2 15.8365 59.2758 4.87248
222 2 4.10301 59.251 4.89353
223 2 7.96933 59.3885 5.04857
224 2 11.9554 59.2382 4.77066
225 2 0.0494728 63.3792 4.8731
226 2 3.73641 63.3379 4.96444
227 2 7.80981 63.3637 5.00219
228 2 11.8932 63.2879 4.92945
229 2 15.7964 67.4065 5.00683
230 2 3.94809 67.5587 4.94234
231 2 7.89102 67.3233 5.02837
232 2 11.7612 67.1933 5.30804
233 2 15.833 71.3767 5.2991
234 2 3.86081 71.4209 4.97869
235 2 7.89696 71.356 5.08669
236 2 11.8695 71.4844 5.09099
237 2 15.7947 75.2959 5.19856
238 2 3.85415 75.6098 4.98785
239 2 7.76497 75.5104 5.25402
240 2 11.7843 75.5466 5.38939
241 2 -0.0414461 79.4248 5.34916
242 2 3.46141 79.5383 5.28209
243 2 7.91289 79.4799 5.16949
244 2 11.6928 79.3595 5.25872
245 2 15.532 83.3933 5.64138
246 2 3.879 83.5138 5.58439
247 2 7.65183 83.6266 5.57231
248 2 11.4932 83.5098 5.26479
249 2 -0.0435194 87.6033 5.53567
250 2 3.63915 87.3886 5.62707
251 2 7.88695 87.5562 5.45706
252 2 11.8799 87.5122 5.61979
253 2 -0.0551733 91.4668 5.56136
254 2 3.73735 91.3041 5.63707
255 2 7.7678 91.2834 5.37579
256 2 11.8066 91.4043 5.48949
257 2 15.9 95.3141 5.25752
258 2 3.89054 95.3187 5.39386
259 2 7.83554 95.5211 5.57607
260 2 11.8378 95.1613 5.42541
261 2 -0.137085 99.2554 5.47529
262 2 3.94384 99.4436 5.49914
263 2 7.82372 99.389 5.48361
264 2 11.6881 99.2533 5.3953
265 2 -0.170116 103.097 5.24528
266 2 4.06205 103.306 5.31545
267 2 7.82408 103.229 5.45112
268 2 11.6618 103.108 5.44309
269 2 15.8031 106.984 5.31526
270 2 4.11128 107.042 5.32856
271 2 7.76448 107.267 5.3426
272 2 11.8602 107.067 5.38682
273 2 15.9015 110.955 5.30592
274 2 4.21073 110.926 5.07611
275 2 7.97239 111.081 5.22525
276 2 11.949 110.838 5.08489
277 2 0.119099 115.007 5.20248
278 2 3.92788 114.786 5.11349
279 2 7.96393 114.789 5.06703
280 2 12.0924 114.744 5.13091
281 2 0.0898824 119.012 5.17021
282 2 3.94476 118.863 5.13847
283 2 7.87247 118.91 4.87517
284 2 11.7937 118.83 4.99927
285 2 15.7729 122.697 5.12154
286 2 4.08232 122.66 5.13103
287 2 7.8145 122.722 5.12344
288 2 11.876 122.595 5.09989
289 2 0.0186694 126.521 5.15555
290 2 3.88413 126.444 5.16112
291 2 7.93131 126.541 5.17006
292 2 12.0443 126.649 5.09924
293 2 -0.0761496 130.569 5.07546
294 2 4.00769 130.469 5.11154
295 2 7.90214 130.45 4.9175
296 2 11.867 130.648 5.07642
297 2 15.7872 134.552 5.00856
298 2 3.94628 134.357 4.88618
299 2 8.03078 134.517 4.92362
300 2 11.9201 134.559 4.95379
301 2 0.0196588 138.337 4.71194
302 2 3.78549 138.513 4.76449
303 2 7.8569 138.371 4.85186
304 2 12.0236 138.35 4.73551
305 2 -0.146546 142.369 4.95055
306 2 3.91015 142.048 4.88607
307 2 7.87975 142.293 4.87417
308 2 11.5911 142.348 4.82264
309 2 15.7786 146.058 4.73678
310 2 3.94122 146.204 4.87138
311 2 7.75837 146.124 4.79744
312 2 11.6797 146.406 4.87168
313 2 15.8891 150.061 4.86375
314 2 4.10069 150.047 4.64068
315 2 8.0446 150.072 4.82753
316 2 11.9444 150.1 4.86871
317 2 15.8361 153.711 4.64811
318 2 3.81873 153.959 4.83799
319 2 7.95354 153.875 4.74962
320 2 11.9627 154.163 4.69814
321 2 15.6944 158.058 8.57197
322 2 3.99552 157.834 8.715
323 2 7.9759 157.9 8.73632
324 2 11.9492 157.985 8.74966
325 2 15.9916 3.55625 8.55883
326 2 3.94 3.72763 8.78768
327 2 8.05905 3.53471 8.64393
328 2 12.0015 3.50183 8.69335
329 2 15.6978 7.61875 8.67516
330 2 3.85601 7.44245 8.71576
331 2 7.81445 7.42975 8.64354
332 2 11.5993 7.42242 8.69285
333 2 -0.283918 11.3693 8.51125
334 2 3.72127 11.5716 8.56309
335 2 7.68243 11.3766 8.58937
336 2 11.8077 11.4568 8.48645
337 2 15.7533 15.3522 8.65328
338 2 3.66431 15.2869 8.46684
339 2 7.77936 15.5144 8.53226
340 2 11.5948 15.3782 8.62303
341 2 -0.135904 19.2707 8.62397
342 2 3.80932 19.2683 8.59813
343 2 7.50125 19.3935 8.60083
344 2 11.6766 19.2021 8.59802
345 2 -0.169611 22.9731 8.42052
346 2 3.85178 23.2713 8.55143
347 2 7.94949 23.152 8.30771
348 2 11.7516 22.9348 8.37053
349 2 0.0911555 26.9917 8.37053
350 2 4.06141 27.1103 8.4647
351 2 7.79992 27.0125 8.37473
352 2 11.8015 27.122 8.55773
353 2 0.0354695 31.0544 8.21401
354 2 3.87142 31.0667 8.41593
355 2 7.90295 31.0732 8.38239
356 2 11.7893 31.0669 8.26517
357 2 15.9046 34.8866 8.37823
358 2 3.98612 34.9808 8.2742
359 2 7.97511 35.151 8.42445
360 2 11.9095 35.0399 8.32966
361 2 -0.0826129 38.8857 8.58524
362 2 4.01429 39.0785 8.44419
363 2 7.8962 39.2072 8.45618
364 2 12.0351 39.151 8.18382
365 2 -0.0952787 43.1675 8.52161
366 2 3.93776 43.3437 8.5823
367 2 7.99984 43.0783 8.4793
368 2 11.7124 43.091 8.52609
369 2 -0.151521 47.251 8.75153
370 2 4.0733 47.2697 8.55427
371 2 7.90302 47.0888 8.53093
372 2 11.8223 47.0538 8.51819
373 2 15.892 51.1747 8.88125
374 2 4.15613 51.2555 8.64124
375 2 7.8645 51.1027 8.74472
376 2 11.9447 51.0499 8.55356
377 2 15.8101 55.1435 8.66698
378 2 3.93864 55.2814 8.67262
379 2 8.02353 55.2007 8.77656
380 2 11.9921 55.1149 8.76818
381 2 0.000662662 59.3934 8.91029
382 2 4.13591 59.3135 8.78014
383 2 8.11741 59.4205 8.74804
384 2 11.7669 59.3966 8.66167
385 2 0.162715 63.2275 9.01005
386 2 3.90521 63.2619 8.82014
387 2 7.86093 63.4304 8.87671
388 2 11.9601 63.0851 8.95963
389 2 15.7128 67.2517 9.01188
390 2 4.03605 67.358 8.86582
391 2 7.9736 67.4154 8.74802
392 2 11.8717 67.311 8.80099
393 2 15.9396 71.3646 9.07949
394 2 4.00953 71.3602 9.24888
395 2 7.90352 71.481 8.96732
396 2 11.9636 71.2229 8.9688
397 2 15.8376 75.2659 9.2748
398 2 3.84022 75.2881 9.34368
399 2 7.58145 75.3666 9.08781
400 2 11.7634 75.2279 9.21688
401 2 15.8609 79.4444 9.15513
402 2 3.71059 79.4108 9.16768
403 2 7.64663 79.3317 9.09503
404 2 11.8032 79.2176 9.22218
405 2 -0.258444 83.4198 9.48912
406 2 3.98458 83.3333 9.5076
407 2 7.7292 83.501 9.37403
408 2 11.6797 83.3276 9.27481
409 2 0.0121065 87.4464 9.54204
410 2 3.94548 87.4903 9.68669
411 2 7.78914 87.5753 9.51798
412 2 11.7161 87.4261 9.64192
413 2 -0.0938045 91.5979 9.4953
414 2 4.05347 91.3956 9.53487
415 2 7.79056 91.415 9.56715
416 2 11.7382 91.4764 9.47421
417 2 15.7843 95.4168 9.33387
418 2 3.68699 95.2842 9.37735
419 2 7.72163 95.3228 9.47171
420 2 11.8711 95.4255 9.4217
421 2 15.6199 99.1637 9.44501
422 2 3.70269 99.4405 9.35407
423 2 7.78063 99.2435 9.50217
424 2 11.8906 99.2436 9.33991
425 2 -0.214609 103.179 9.38349
426 2 3.91833 103.251 9.36354
427 2 7.96674 103.255 9.3631
428 2 11.7461 102.995 9.4268
429 2 -0.172316 107.117 9.39927
430 2 3.97716 107.009 9.34715
431 2 7.98563 107.147 9.37383
432 2 11.9219 106.994 9.35119
433 2 16.1097 110.944 9.23595
434 2 3.82505 110.997 9.10403
435 2 7.82997 111.13 9.38527
436 2 12.0513 111.079 9.23689
437 2 0.0898219 115.052 9.25567
438 2 4.05791 115.028 9.28874
439 2 7.98382 114.998 9.07039
440 2 12.0171 115.02 9.22804
441 2 0.0202368 118.935 9.31071
442 2 3.99525 118.712 9.24451
443 2 7.86894 118.988 9.07852
444 2 11.936 118.823 9.03034
445 2 15.6509 122.585 9.22969
446 2 3.73852 122.776 9.12795
447 2 7.89887 122.884 9.31491
448 2 11.9363 122.71 8.95541
449 2 15.8676 126.732 9.08552
450 2 3.85379 126.733 9.10016
451 2 7.99901 126.581 9.04001
452 2 11.9405 126.758 9.23383
453 2 0.0396975 130.759 8.91485
454 2 3.78462 130.705 9.10513
455 2 8.00191 130.73 8.94341
456 2 11.6523 130.457 9.01692
457 2 -0.101624 134.409 8.87077
458 2 3.90428 134.535 9.06133
459 2 7.84742 134.6 8.87574
460 2 11.6544 134.504 8.91668
461 2 -0.00333111 138.204 9.06821
462 2 4.12997 138.388 8.7303
463 2 7.92325 138.354 8.8585
464 2 11.9949 138.488 9.04259
465 2 -0.0185681 142.428 8.9623
466 2 3.94578 142.151 9.05323
467 2 7.91414 142.103 9.0298
468 2 11.964 142.333 8.78782
469 2 15.8219 146.161 8.78165
470 2 3.76738 146.136 8.9134
471 2 7.77815 145.978 8.77805
472 2 11.8935 146.178 9.03251
473 2 15.8753 149.979 8.77648
474 2 3.95878 150.03 8.788
475 2 7.85047 150.111 8.67661
476 2 11.76 149.948 8.74258
477 2 15.9765 153.892 8.61246
478 2 3.89398 153.803 8.79732
479 2 8.00283 154.078 8.73486
480 2 11.9386 154.018 8.67403
481 2 15.6326 157.88 12.6552
482 2 3.82339 157.959 12.7122
483 2 7.72291 157.975 12.6568
484 2 11.9552 157.969 12.6243
485 2 15.8987 3.36538 12.466
486 2 3.9358 3.68732 12.6412
487 2 7.97557 3.66215 12.7075
488 2 11.9577 3.66462 12.728
489 2 15.6658 7.56804 12.7098
490 2 3.75958 7.38323 12.6754
491 2 7.82005 7.64975 12.548
492 2 11.8724 7.31088 12.5253
493 2 0.049048 11.2863 12.5031
494 2 3.84257 11.5452 12.5984
495 2 7.71623 11.4695 12.6115
496 2 11.8615 11.5048 12.5867
497 2 -0.0750571 15.4726 12.6296
498 2 3.86607 15.4202 12.6146
499 2 7.80771 15.3076 12.6015
500 2 11.8953 15.3382 12.5901
501 2 -0.00642124 19.4002 12.6042
502 2 3.90537 19.2367 12.4612
503 2 7.66034 19.2147 12.517
504 2 11.5872 19.2234 12.6325
505 2 0.062156 23.175 12.413
506 2 3.75123 23.3619 12.4411
507 2 7.78877 23.2074 12.4962
508 2 11.9691 23.1316 12.503
509 2 -0.348524 27.1501 12.2417
510 2 3.90537 27.0022 12.4198
511 2 7.76642 27.1619 12.4667
512 2 11.7319 26.897 12.3944
513 2 -0.264534 31.0611 12.3526
514 2 3.82299 30.8656 12.2714
515 2 7.98526 30.9508 12.503
516 2 11.8642 31.0848 12.4125
517 2 -0.139823 34.9246 12.3053
518 2 3.87244 34.8859 12.5151
519 2 7.74222 35.1474 12.4775
520 2 11.7484 35.0781 12.411
521 2 0.112539 38.9686 12.3233
522 2 3.91461 39.0454 12.3896
523 2 7.92574 38.9667 12.1548
524 2 11.9859 39.1371 12.3257
525 2 -0.0568803 43.0557 12.331
526 2 4.13613 43.1554 12.2947
527 2 7.91423 43.0074 12.4078
528 2 11.7525 42.9235 12.4101
529 2 0.131501 47.0234 12.5689
530 2 3.82331 47.1072 12.6393
531 2 7.94352 47.1124 12.4186
532 2 11.8507 46.9704 12.4993
533 2 0.0229019 51.0867 12.5497
534 2 4.08301 51.1352 12.5183
535 2 7.89718 51.0825 12.4415
536 2 11.8522 50.8512 12.5557
537 2 15.7216 55.1285 12.5638
538 2 3.74956 55.1177 12.7083
539 2 7.83009 55.1977 12.7358
540 2 11.7143 55.1296 12.7703
541 2 15.6572 59.0645 12.7317
542 2 3.93348 58.9588 12.6773
543 2 7.75282 59.1008 12.8192
544 2 11.6719 59.1907 12.5515
545 2 15.7963 63.0351 12.9299
546 2 3.85431 63.1484 12.965
547 2 7.91914 63.1603 12.734
548 2 11.823 63.1612 12.726
549 2 -0.00528482 67.3792 12.7172
550 2 4.03067 67.1815 12.6875
551 2 7.81753 67.2671 12.7086
552 2 11.8722 67.1576 12.8456
553 2 -0.209884 71.2067 13.1092
554 2 3.86584 71.1982 13.1751
555 2 7.90058 71.2717 13.0892
556 2 11.9128 71.1528 13.0471
557 2 -0.0369269 75.3142 13.1503
558 2 3.92669 75.214 13.2203
559 2 7.99565 75.5489 13.1332
560 2 11.9528 75.4373 12.9998
561 2 -0.119827 79.3851 13.2817
562 2 3.71467 79.2039 13.1794
563 2 7.67141 79.3663 13.0753
564 2 11.7346 79.2865 13.1876
565 2 -0.21508 83.2972 13.4353
566 2 3.77138 83.1654 13.3365
567 2 7.69824 83.289 13.2041
568 2 11.6431 83.4698 13.1672
569 2 0.0707514 87.5702 13.4815
570 2 3.82707 87.232 13.4371
571 2 7.87732 87.3913 13.496
572 2 11.8365 87.2881 13.3713
573 2 0.19185 91.6398 13.3332
574 2 3.86569 91.3957 13.52
575 2 8.05443 91.4171 13.5313
576 2 12.0204 91.3186 13.3307
577 2 0.0172573 95.3233 13.3626
578 2 3.99749 95.4938 13.5156
579 2 7.96295 95.3559 13.4406
580 2 11.9643 95.4716 13.5338
581 2 0.0890246 99.5027 13.4443
582 2 3.80989 99.3339 13.2783
583 2 8.01289 99.1527 13.4175
584 2 11.8862 99.3337 13.3775
585 2 0.0215563 103.325 13.4026
586 2 4.03546 103.257 13.4283
587 2 7.93354 103.055 13.3571
588 2 11.9793 103.349 13.5561
589 2 0.186737 107.236 13.2645
590 2 4.0023 107.054 13.2991
591 2 7.98804 107.3 13.0931
592 2 11.9996 107.319 13.1916
593 2 0.142929 111.083 13.3926
594 2 4.00085 111.091 13.4216
595 2 7.99391 111.094 13.2356
596 2 12.1258 111.18 13.2494
597 2 -0.0298643 115.167 13.1361
598 2 4.14026 114.945 13.2692
599 2 7.81806 114.819 13.1691
600 2 11.7506 115.077 13.2094
601 2 -0.0387185 118.996 13.2911
602 2 3.9997 118.854 13.2961
603 2 7.97783 118.91 13.1447
604 2 11.8048 118.845 13.2151
605 2 -0.0527154 122.888 13.1729
606 2 3.8427 122.884 13.0815
607 2 8.114 122.919 13.1852
608 2 11.7507 122.917 13.0623
609 2 0.0194892 126.637 13.2565
610 2 3.97648 126.616 13.0307
611 2 8.08034 126.918 13.1364
612 2 11.9224 126.727 13.2432
613 2 15.8551 130.816 13.0063
614 2 3.99728 130.662 13.1243
615 2 7.76635 130.638 12.9908
616 2 12.0115 130.739 13.1507
617 2 15.785 134.557 12.9094
618 2 3.92213 134.54 13.0692
619 2 7.92226 134.615 12.9081
620 2 11.8276 134.504 13.0103
621 2 -0.127413 138.542 13.0517
622 2 3.7979 138.352 12.9408
623 2 8.01058 138.46 13.1569
624 2 11.8599 138.23 12.8859
625 2 15.8786 142.465 12.8641
626 2 4.00983 142.112 12.8841
627 2 8.13377 142.286 13.0621
628 2 12.0418 142.33 12.9185
629 2 0.0139801 146.336 12.823
630 2 4.04446 146.445 12.9284
631 2 7.84687 146.251 12.6947
632 2 11.9042 146.351 12.9645
633 2 -0.263615 150.287 12.9032
634 2 3.83171 150.08 12.7402
635 2 8.02947 150.29 12.6969
636 2 11.7667 150.104 12.7763
637 2 15.9261 153.98 12.9171
638 2 3.90481 154.032 12.7601
639 2 7.89552 154.123 12.7137
640 2 11.9355 154.04 12.6413
641 2 -0.0947693 158 16.7887
642 2 3.92264 -0.439205 16.804
643 2 7.74891 157.951 16.6608
644 2 11.5956 158.121 16.722
645 2 15.8461 3.62714 16.7376
646 2 3.85858 3.66156 16.7661
647 2 7.97569 3.63873 16.6453
648 2 11.7027 3.47772 16.8081
649 2 0.0120036 7.54477 16.7551
650 2 3.90217 7.58224 16.7676
651 2 7.92411 7.43642 16.5493
652 2 11.8558 7.53798 16.7296
653 2 0.100247 11.3642 16.5565
654 2 4.04842 11.3345 16.5446
655 2 7.85939 11.3373 16.5387
656 2 11.8783 11.4317 16.6929
657 2 -0.178812 15.3635 16.735
658 2 3.88456 15.2773 16.4707
659 2 7.89536 15.4663 16.7315
660 2 11.813 15.2268 16.69
661 2 15.8948 19.1771 16.4801
662 2 3.94145 19.252 16.4322
663 2 8.01514 19.2892 16.5437
664 2 11.9592 19.3703 16.539
665 2 -0.0656377 23.2669 16.4629
666 2 3.85626 23.1829 16.5845
667 2 7.88234 23.3139 16.455
668 2 11.8008 23.2234 16.5264
669 2 -0.161129 27.2073 16.4847
670 2 3.66201 27.0074 16.3364
671 2 7.76625 26.9973 16.4859
672 2 11.7883 27.0376 16.5515
673 2 -0.0509183 31.0085 16.3927
674 2 3.81905 30.8541 16.2168
675 2 7.85725 30.9773 16.4344
676 2 11.795 30.9593 16.5224
677 2 0.0425306 34.8155 16.3264
678 2 3.85913 34.7897 16.3038
679 2 7.73843 35.0325 16.4858
680 2 11.7009 34.9789 16.3069
681 2 0.0763418 38.9178 16.2162
682 2 3.68775 38.9758 16.2699
683 2 7.78152 38.9409 16.3731
684 2 11.9665 38.8993 16.206
685 2 -0.125057 43.1307 16.4218
686 2 3.96585 42.7784 16.4053
687 2 7.97907 42.8793 16.2077
688 2 11.7646 42.9185 16.5638
689 2 15.8378 46.9321 16.2551
690 2 3.97423 46.8787 16.447
691 2 7.8235 46.8906 16.3511
692 2 11.9598 47.119 16.3597
693 2 0.00229153 50.9539 16.3614
694 2 3.95218 50.9868 16.4058
695 2 7.92999 50.8114 16.4306
696 2 11.8125 51.0435 16.5354
697 2 -0.0580604 54.9861 16.5352
698 2 3.77656 55.0153 16.6516
699 2 7.75422 55.04 16.773
700 2 11.7935 54.9349 16.4765
701 2 0.095909 59.0661 16.6847
702 2 3.9565 58.9894 16.8064
703 2 7.79268 59.0285 16.8015
704 2 11.8036 58.9784 16.6779
705 2 0.115128 62.9957 16.7759
706 2 3.87438 63.0697 16.7043
707 2 7.80827 63.111 16.7454
708 2 11.8461 63.1267 16.7716
709 2 0.248305 67.1806 16.83
710 2 4.10149 67.0519 16.9131
711 2 8.14674 67.1212 16.6905
712 2 12.0079 67.2733 16.9054
713 2 -0.00287073 71.1098 16.8917
714 2 3.95345 71.063 16.9228
715 2 8.00358 71.059 17.0012
716 2 11.8282 71.1837 17.0368
717 2 -0.0425566 75.1275 16.909
718 2 4.13786 75.1768 16.8115
719 2 7.75402 75.0769 17.1461
720 2 11.8249 75.1729 16.8892
721 2 -0.00128842 79.4084 17.3156
722 2 3.84141 79.2569 16.9415
723 2 8.05387 79.372 17.2749
724 2 11.7503 79.043 17.2159
725 2 -0.178384 83.3435 17.1727
726 2 3.74146 83.2351 17.2299
727 2 7.80211 83.3303 17.0101
728 2 11.9211 83.2951 17.1215
729 2 0.0864281 87.2984 17.422
730 2 4.03037 87.297 17.2528
731 2 7.84988 87.1522 17.2619
732 2 11.7104 87.2209 17.3201
733 2 -0.125675 91.3777 17.4609
734 2 3.687 91.5446 17.0794
735 2 7.8865 91.38 17.2353
736 2 11.8535 91.2303 17.2483
737 2 -0.0195601 95.2465 17.3725
738 2 4.22038 95.4913 17.2842
739 2 7.98484 95.2566 17.382
740 2 11.9863 95.3877 17.4409
741 2 -0.110779 99.2491 17.3874
742 2 3.96656 99.092 17.4891
743 2 8.04388 99.5088 17.3365
744 2 11.9185 99.3604 17.4492
745 2 -0.0421466 103.259 17.3966
746 2 3.95047 103.115 17.406
747 2 7.81787 103.279 17.1726
748 2 11.9086 103.14 17.3331
749 2 -0.00385958 107.225 17.4627
750 2 4.13071 107.017 17.3714
751 2 7.81183 107.125 17.2666
752 2 11.7356 107.151 17.3262
753 2 -0.0854465 111.069 17.3978
754 2 4 111.139 17.394
755 2 8.13762 111.012 17.1372
756 2 11.8755 111.113 17.2771
757 2 -0.00557515 115.131 17.3315
758 2 3.93465 114.92 17.1811
759 2 7.88352 114.849 17.293
760 2 11.8803 115.161 17.3871
761 2 -0.0545805 119.136 17.1645
762 2 3.86292 119.028 17.2562
763 2 7.69417 119.012 17.3203
764 2 11.7836 118.952 17.3655
765 2 -0.00664634 122.84 17.2087
766 2 4.00324 122.814 17.1499
767 2 7.77697 122.914 17.1749
768 2 12.0156 122.925 17.1104
769 2 16.0789 126.792 17.2115
770 2 4.01805 126.671 17.117
771 2 7.94568 126.794 17.3017
772 2 11.9169 126.925 17.0831
773 2 15.8523 130.614 17.1266
774 2 3.90497 130.502 17.1206
775 2 7.89417 130.708 17.0601
776 2 11.7865 130.666 17.0063
777 2 15.723 134.444 17.2245
778 2 4.01395 134.653 17.032
779 2 7.91993 134.523 17.1168
780 2 11.9579 134.65 17.0599
781 2 0.0194252 138.67 16.959
782 2 4.0257 138.496 17.0521
783 2 7.8949 138.628 17.1337
784 2 11.8962 138.445 17.0663
785 2 15.8191 142.442 16.877
786 2 4.08765 142.571 16.8251
787 2 8.07153 142.537 16.9666
788 2 11.8462 142.636 16.9335
789 2 15.8703 146.336 16.8354
790 2 3.90925 146.204 16.7908
791 2 7.96224 146.516 16.8098
792 2 11.7981 146.394 16.9637
793 2 15.8871 150.295 16.8518
794 2 3.95442 150.151 16.9272
795 2 7.89898 150.398 16.8782
796 2 11.7988 150.19 16.9403
797 2 15.66 154.153 16.9175
798 2 3.72673 154.144 16.8267
799 2 7.90329 154.282 16.8442
800 2 11.8573 154.076 16.7736
801 2 15.6704 158.182 20.8578
802 2 4.0818 158.163 20.7139
803 2 8.01383 157.961 20.7166
804 2 11.9544 158.197 20.7827
805 2 0.0336411 3.65639 20.699
806 2 3.93901 3.65294 20.6606
807 2 7.92101 3.69523 20.7361
808 2 11.7493 3.85015 20.6247
809 2 15.7006 7.6057 20.8081
810 2 3.98236 7.44024 20.6345
811 2 7.84572 7.5028 20.6714
812 2 11.7177 7.51823 20.6851
813 2 15.891 11.5154 20.6632
814 2 3.989 11.5291 20.6646
815 2 7.93878 11.3975 20.8292
816 2 11.7869 11.307 20.6216
817 2 15.857 15.393 20.6159
818 2 3.93012 15.2149 20.7078
819 2 7.74475 15.3867 20.5318
820 2 11.6807 15.2023 20.596
821 2 0.00533458 19.2253 20.5656
822 2 3.90449 19.0727 20.5277
823 2 7.85266 19.4674 20.5348
824 2 11.6451 19.32 20.4725
825 2 -0.282908 23.1362 20.6116
826 2 3.87365 23.2652 20.6561
827 2 7.81912 23.2181 20.5193
828 2 11.6335 23.1952 20.469
829 2 15.77 27.0287 20.6515
830 2 4.04662 27.2336 20.3976
831 2 7.85994 27.0272 20.5233
832 2 11.7626 27.2302 20.6538
833 2 15.74 30.9968 20.4185
834 2 3.8292 31.2375 20.2461
835 2 7.71183 31.0723 20.2261
836 2 11.5637 31.0027 20.4422
837 2 15.6108 34.8357 20.3859
838 2 3.77165 34.9966 20.2967
839 2 7.7818 35.022 20.3569
840 2 11.8094 34.9794 20.4924
841 2 -0.01214 38.8652 20.3513
842 2 3.83934 38.8726 20.2208
843 2 7.72444 39.052 20.3168
844 2 11.8192 38.9435 20.0937
845 2 15.5919 42.9694 20.4236
846 2 3.72356 43.182 20.2654
847 2 7.79163 42.8646 20.0777
848 2 11.7063 42.9937 20.3628
849 2 15.5707 46.8225 20.3269
850 2 3.75485 47.0721 20.5146
851 2 7.83288 47.0282 20.2473
852 2 11.7063 46.8915 20.341
853 2 -0.150918 50.736 20.3958
854 2 3.85525 50.8364 20.3973
855 2 7.81218 50.9429 20.25
856 2 11.9309 50.8663 20.3106
857 2 -0.20136 54.86 20.4385
858 2 3.78488 54.9622 20.5045
859 2 7.79598 54.8802 20.5166
860 2 11.7357 54.8529 20.3381
861 2 15.7484 58.9329 20.5479
862 2 3.75906 58.8888 20.7536
863 2 7.84743 59.0937 20.7188
864 2 12.0328 58.998 20.7394
865 2 15.8665 62.96 20.6812
866 2 3.95587 63.0391 20.8487
867 2 7.82012 63.2259 20.7353
868 2 11.6976 62.9679 20.5538
869 2 0.0123552 67.0895 20.937
870 2 3.89002 66.9743 20.7138
871 2 7.93271 67.068 20.7551
872 2 11.7629 66.9979 20.8044
873 2 -0.134274 71.473 20.6696
874 2 3.76243 71.0285 20.8543
875 2 7.74048 71.1205 21.0051
876 2 11.8833 71.0804 20.838
877 2 -0.056607 75.1517 20.9564
878 2 3.80647 75.0262 20.9342
879 2 7.70892 75.0653 20.8799
880 2 11.7806 75.0509 20.8186
881 2 -0.129112 78.9186 21.0072
882 2 3.89315 79.0532 20.9353
883 2 7.89763 79.1076 20.9129
884 2 11.7371 79.1003 21.0185
885 2 -0.190802 83.2751 21.068
886 2 3.7702 83.0512 21.1179
887 2 7.70071 83.2583 21.0598
888 2 11.6984 83.099 20.9994
889 2 -0.0934419 87.1291 21.3746
890 2 4.04478 87.2444 21.1054
891 2 7.89349 87.3735 21.0955
892 2 11.7221 87.1552 21.5166
893 2 -0.0168174 91.3869 21.3161
894 2 4.03923 91.2668 21.0546
895 2 7.92232 91.2733 20.9653
896 2 11.8777 91.3017 21.3255
897 2 0.162317 95.1231 21.4402
898 2 4.08877 95.4546 21.3936
899 2 7.89253 95.2798 21.2218
900 2 11.8286 95.3662 21.3042
901 2 -0.00297606 99.3679 21.4612
902 2 3.91074 99.2978 21.4442
903 2 7.80052 99.5071 21.3983
904 2 11.7855 99.5024 21.3316
905 2 -0.0145802 103.213 21.4606
906 2 3.91331 103.281 21.3255
907 2 8.00645 103.416 21.2002
908 2 11.8698 103.25 21.3079
909 2 0.113789 107.266 21.3013
910 2 4.06766 107.233 21.4489
911 2 7.91166 107.365 21.2442
912 2 11.9918 107.183 21.3708
913 2 -0.0301382 111.138 21.2772
914 2 3.86446 111.055 21.3815
915 2 8.21721 111.274 21.3468
916 2 12.1014 111.158 21.3883
917 2 15.7451 115.07 21.2456
918 2 3.79778 114.978 21.2806
919 2 7.76026 115.062 21.2716
920 2 11.8717 115.199 21.3349
921 2 -0.17655 118.901 21.4798
922 2 4.01623 118.898 21.1203
923 2 7.84157 119.102 21.3188
924 2 11.8807 118.877 21.3949
925 2 15.8976 122.842 21.1261
926 2 3.93635 122.875 21.2307
927 2 7.84538 122.97 21.0841
928 2 11.8059 122.822 21.3127
929 2 15.7943 126.852 21.1007
930 2 3.90954 126.854 21.2471
931 2 7.73207 126.761 21.2487
932 2 11.9307 126.63 21.1834
933 2 15.8563 130.856 21.1521
934 2 4.02126 130.727 21.2558
935 2 8.0262 130.778 21.2725
936 2 11.6618 130.816 21.2161
937 2 0.0810292 134.83 20.9989
938 2 3.75699 134.709 21.0928
939 2 7.93198 134.673 21.2635
940 2 11.9914 134.745 21.1637
941 2 15.8333 138.788 21.0311
942 2 3.87113 138.514 20.8505
943 2 7.95277 138.517 21.1336
944 2 11.9265 138.548 21.0309
945 2 15.7992 142.588 20.8128
946 2 3.98016 142.606 20.8963
947 2 7.91533 142.594 21.1507
948 2 11.9124 142.388 21.0746
949 2 15.8693 146.442 20.9478
950 2 3.97933 146.461 20.7043
951 2 7.88781 146.363 21.0008
952 2 11.961 146.436 20.9105
953 2 15.7705 150.296 20.9631
954 2 3.93259 150.17 20.8773
955 2 7.96263 150.114 21.0114
956 2 12.0019 150.27 21.0026
957 2 15.7625 154.306 20.9241
958 2 4.08373 154.309 21.1147
959 2 7.91203 154.061 20.9291
960 2 11.7827 154.288 20.9223
961 2 0.231795 158.068 24.716
962 2 3.89084 158.243 24.9812
963 2 7.72942 158.17 24.9351
964 2 11.9328 158.324 24.8221
965 2 15.9871 3.81966 24.7296
966 2 4.07268 3.88399 24.7762
967 2 7.92473 3.74506 24.831
968 2 11.8649 3.76635 24.8037
969 2 15.9869 7.7745 24.7439
970 2 3.96769 7.45929 24.6439
971 2 7.78763 7.63557 24.8917
972 2 12.0381 7.55576 24.9491
973 2 15.701 11.5897 24.6172
974 2 3.96116 11.4231 24.7139
975 2 7.70355 11.5158 24.7484
976 2 11.6528 11.5887 24.7536
977 2 -0.112794 15.4368 24.6129
978 2 3.89514 15.5196 24.628
979 2 7.86131 15.5889 24.6008
980 2 11.7901 15.4046 24.6438
981 2 -0.0555485 19.4071 24.6379
982 2 3.98789 19.3486 24.6073
983 2 7.97828 19.2763 24.596
984 2 11.7362 19.2724 24.5076
985 2 0.259274 23.1605 24.3643
986 2 3.84149 23.1995 24.7083
987 2 7.72437 23.3061 24.5792
988 2 11.9637 23.4319 24.4807
989 2 0.0220638 27.1897 24.5343
990 2 3.88989 27.2186 24.519
991 2 7.87236 27.3359 24.4423