ITEM: TIMESTEP
21000
ITEM: NUMBER OF ATOMS
32000
ITEM: BOX BOUNDS xy xz yz pp pp pp
0.0000000000000000e+00 1.5832000000000001e+01 0.0000000000000000e+00
0.0000000000000000e+00 1.5831999999999999e+02 0.0000000000000000e+00
8.1337936213741102e-01 1.6016373863785901e+02 0.0000000000000000e+00
ITEM: ATOMS id type x y z
1 2 15.6843 157.875 160.046
2 2 3.99395 158.006 160.006
3 2 7.87328 157.908 159.81
4 2 11.7132 157.921 159.854
5 2 -0.336065 3.46329 160.069
6 2 3.75872 3.44781 159.889
7 2 7.84249 3.7177 159.874
8 2 11.742 3.46239 159.98
9 2 15.8044 7.37297 160.069
10 2 3.81556 7.15921 160.008
11 2 7.83942 7.63917 159.872
12 2 11.744 7.41181 159.856
13 2 15.8903 11.2957 159.709
14 2 3.68142 11.2027 159.886
15 2 7.81237 11.3954 159.92
16 2 11.8453 11.4711 159.752
17 2 -0.125808 14.9845 159.757
18 2 3.66895 15.0044 159.827
19 2 7.76184 15.1139 159.763
20 2 11.7693 15.1012 159.847
21 2 15.8459 19.0432 159.824
22 2 4.02607 19.1459 159.933
23 2 7.91643 19.0809 159.749
24 2 11.8822 19.1303 159.804
25 2 15.7412 23.0136 159.828
26 2 3.7753 23.1677 159.884
27 2 7.7041 23.0811 159.934
28 2 11.9721 23.1399 159.748
29 2 15.8477 27.0789 159.804
30 2 3.89889 27.1628 159.691
31 2 8.09957 27.0168 159.879
32 2 11.8535 27.0176 159.74
33 2 15.9449 31.1734 159.888
34 2 3.85523 31.0558 0.565471
35 2 7.80597 31.1266 159.821
36 2 11.7959 31.2592 159.964
37 2 0.0603743 35.1911 160.021
38 2 4.01429 35.2601 159.96
39 2 7.84206 35.2023 159.983
40 2 11.8153 35.1202 159.836
41 2 -0.0839853 39.2515 160.014
42 2 3.97203 39.1406 0.681624
43 2 7.84736 39.3617 0.518392
44 2 11.8976 39.1323 0.684972
45 2 -0.10257 43.4179 160.131
46 2 3.79491 43.2946 160.253
47 2 7.86602 43.3105 0.70211
48 2 11.7292 43.1974 0.552191
49 2 -0.249508 47.2778 0.789838
50 2 3.83862 47.3284 0.919919
51 2 7.73389 47.3225 0.643915
52 2 11.9752 47.1945 0.800849
53 2 0.0524128 51.1448 0.948464
54 2 3.92865 51.3669 0.974831
55 2 8.05282 51.3019 0.847025
56 2 11.9972 51.3085 0.768708
57 2 15.7426 55.3144 1.08089
58 2 4.04716 55.2939 0.866619
59 2 7.8727 55.4955 1.06914
60 2 11.8985 55.3526 1.0475
61 2 0.0897869 59.1765 0.923631
62 2 3.89678 59.3553 0.915983
63 2 8.10525 59.4331 1.24746
64 2 11.9281 59.2573 1.17151
65 2 -0.0242704 63.2632 1.04642
66 2 3.85831 63.3517 1.08357
67 2 8.14729 63.4351 1.11953
68 2 11.8896 63.359 1.02482
69 2 15.7966 67.3853 1.03911
70 2 4.00191 67.4348 1.19371
71 2 7.7839 67.5059 1.17739
72 2 11.7922 67.433 1.18792
73 2 -0.218764 71.3994 1.19868
74 2 3.79997 71.5159 1.31825
75 2 7.65682 71.6515 1.28358
76 2 11.8403 71.251 1.38779
77 2 -0.246718 75.5797 1.35886
78 2 3.6435 75.624 1.29715
79 2 7.59367 75.6824 1.42102
80 2 11.4768 75.4112 1.36804
81 2 -0.206059 79.4533 1.56116
82 2 3.74349 79.6195 1.54178
83 2 7.7457 79.6061 1.36928
84 2 11.9008 79.3723 1.15552
85 2 -0.236284 83.5544 1.58298
86 2 3.72085 83.6325 1.50136
87 2 7.85893 83.3128 1.56981
88 2 11.6455 83.6008 1.23978
89 2 -0.112966 87.5915 1.61485
90 2 3.60375 87.3978 1.5761
91 2 7.68647 87.6085 1.54788
92 2 11.7903 87.4557 1.38083
93 2 0.030195 91.4068 1.41651
94 2 3.95911 91.2396 1.38925
95 2 8.09077 91.2417 1.52955
96 2 11.8489 91.3323 1.48548
97 2 15.7834 95.2993 1.23654
98 2 4.02452 95.2984 1.45147
99 2 7.7549 95.1963 1.62742
100 2 11.7707 95.1515 1.49912
101 2 -0.0106861 99.353 1.44667
102 2 3.95196 99.1243 1.44006
103 2 7.87787 99.1868 1.44895
104 2 11.9296 99.2023 1.32836
105 2 -0.231218 102.979 1.26593
106 2 3.85746 103.046 1.44857
107 2 7.73586 103.309 1.37797
108 2 11.6489 103.147 1.28413
109 2 -0.17362 107.009 1.03611
110 2 4.06438 106.867 1.15746
111 2 7.89023 106.992 1.28832
112 2 11.7207 106.914 1.07442
113 2 -0.081688 110.914 1.16315
114 2 4.0957 110.973 1.15815
115 2 7.93768 110.972 1.5033
116 2 11.9297 110.76 1.20129
117 2 15.9604 114.731 1.23779
118 2 3.8274 114.972 1.10192
119 2 7.93843 114.672 1.23273
120 2 11.9921 114.666 1.23969
121 2 0.00524805 118.821 1.07726
122 2 3.92317 118.838 0.904245
123 2 7.90572 118.658 1.27069
124 2 11.9477 118.639 1.04979
125 2 15.7594 122.655 1.10941
126 2 3.84758 122.756 1.0558
127 2 7.83191 122.567 1.12273
128 2 11.8045 122.716 1.0819
129 2 0.0762231 126.605 1.09847
130 2 4.07216 126.683 0.969972
131 2 7.96789 126.585 1.07025
132 2 11.9134 126.684 1.094
133 2 15.8537 130.564 1.0088
134 2 4.03754 130.608 1.00675
135 2 7.92724 130.322 0.871735
136 2 11.7708 130.468 0.876216
137 2 15.7288 134.148 0.919121
138 2 4.00443 134.317 0.897044
139 2 7.91577 134.339 160.288
140 2 11.7283 134.508 0.878773
141 2 0.162436 138.34 0.837194
142 2 3.91787 138.237 160.121
143 2 7.69892 138.342 160.271
144 2 11.7244 138.314 0.888771
145 2 15.8512 142.353 160.078
146 2 3.8956 142.36 160.237
147 2 7.86879 142.215 160.209
148 2 11.7274 142.212 160.213
149 2 -0.0926942 146.236 160.222
150 2 4.00119 146.109 160.285
151 2 7.66237 146.082 160.074
152 2 11.6691 146.082 159.924
153 2 15.6732 150.01 160.086
154 2 3.62368 149.95 159.963
155 2 7.85554 150.11 160.043
156 2 11.7301 150.184 0.774829
157 2 15.8579 154.018 159.981
158 2 3.73676 153.866 160.091
159 2 7.79235 154.052 159.787
160 2 11.7841 154.191 160.019
161 2 15.6688 157.914 4.5883
162 2 3.79807 157.814 4.62383
163 2 7.77112 158.067 4.71258
164 2 11.7426 157.802 4.58064
165 2 0.169752 3.62708 4.65206
166 2 3.97128 3.35029 4.71393
167 2 7.99079 3.57457 4.60996
168 2 12.0335 3.5701 4.6622
169 2 -0.020184 7.31933 4.69913
170 2 4.05647 7.2847 4.59993
171 2 7.8017 7.38742 4.74999
172 2 11.7724 7.43841 4.24718
173 2 -0.0293453 11.1552 4.5961
174 2 3.83037 11.4213 4.59583
175 2 7.88952 11.3223 4.5779
176 2 11.8048 11.2192 4.53688
177 2 15.5936 15.3387 4.36469
178 2 4.016 15.461 4.50744
179 2 7.68046 15.2492 4.51968
180 2 11.7907 15.4659 4.396
181 2 -0.0714297 19.0894 4.4292
182 2 3.71856 19.0918 4.55237
183 2 8.0038 19.069 4.41274
184 2 11.7718 19.1437 4.35287
185 2 0.0398918 23.0121 4.16392
186 2 4.24123 23.2545 4.44536
187 2 7.96578 23.0361 4.37855
188 2 11.9766 23.0687 4.49696
189 2 15.8872 27.1946 4.54913
190 2 4.10322 27.0574 4.62438
191 2 8.02177 27.089 4.43822
192 2 12.0415 27.0352 4.55103
193 2 -0.0958302 31.0262 4.27459
194 2 4.05502 31.0921 4.46044
195 2 7.74636 31.1632 4.54977
196 2 11.8395 31.079 4.34459
197 2 -0.0051961 34.9842 4.43148
198 2 4.05709 35.0319 4.44272
199 2 7.89634 35.1187 4.61299
200 2 11.7313 35.0555 4.49345
201 2 15.868 39.2365 4.57983
202 2 3.90538 39.1185 4.51182
203 2 7.77075 39.0946 4.54133
204 2 11.5877 39.1483 4.455
205 2 -0.0516242 43.2401 4.61655
206 2 3.92533 43.2044 4.72501
207 2 8.05628 43.1812 4.57053
208 2 12.0745 43.0992 4.62521
209 2 -0.0926249 47.3572 4.80644
210 2 3.98068 47.3818 4.88676
211 2 7.85806 47.2278 4.58891
212 2 11.7707 47.3201 4.66736
213 2 -0.00998267 51.37 4.81188
214 2 4.16547 51.3348 4.69924
215 2 8.02705 51.2732 4.62949
216 2 11.8204 51.3221 4.59188
217 2 -0.0563181 55.2237 4.94183
218 2 4.0053 55.1495 4.74724
219 2 8.10685 55.4954 4.82986
220 2 11.8348 55.2804 4.89986
221 2 15.8206 59.2203 4.84682
222 2 3.7212 59.2891 4.87738
223 2 7.85364 59.3488 5.07643
224 2 11.8637 59.3462 5.07671
225 2 0.0719661 63.3838 5.00609
226 2 4.00896 63.3633 5.06444
227 2 7.8172 63.3176 4.94547
228 2 11.9335 63.3774 4.93751
229 2 15.7106 67.4195 5.12703
230 2 3.83279 67.2533 5.15684
231 2 7.77805 67.3421 5.01344
232 2 11.7492 67.6483 4.86484
233 2 16.0485 71.4391 5.16454
234 2 3.87717 71.4283 5.20567
235 2 7.68933 71.487 5.27814
236 2 11.9614 71.4319 5.34051
237 2 15.5508 75.4405 5.34648
238 2 3.81658 75.2498 5.26944
239 2 7.72809 75.3869 5.32476
240 2 11.6521 75.2906 5.23989
241 2 -0.355862 79.6856 5.51579
242 2 3.92542 79.3918 5.4626
243 2 7.60251 79.3156 5.39455
244 2 11.6539 79.4255 5.23865
245 2 15.6005 83.6412 5.47399
246 2 3.78647 83.5048 5.64856
247 2 7.89476 83.3407 5.58289
248 2 11.6831 83.4755 5.37637
249 2 -0.155776 87.3833 5.69528
250 2 4.06214 87.4369 5.4625
251 2 7.76894 87.2163 5.60187
252 2 11.7047 87.4775 5.49886
253 2 -0.0688166 91.2764 5.49576
254 2 4.06271 91.3824 5.44949
255 2 7.83483 91.5105 5.67723
256 2 11.8996 91.4016 5.63389
257 2 15.8534 95.4065 5.61215
258 2 3.98216 95.3291 5.48388
259 2 7.83554 95.2187 5.46339
260 2 11.7544 95.3115 5.51495
261 2 -0.133781 99.2049 5.25299
262 2 3.94938 99.407 5.20999
263 2 7.88737 99.1534 5.49529
264 2 11.7926 99.2361 5.46236
265 2 -0.0676376 103.213 5.34817
266 2 3.57659 103.163 5.43504
267 2 7.73777 103.066 5.36527
268 2 12.001 103.197 5.38651
269 2 16.0031 107.056 5.16513
270 2 3.79872 107.194 5.35386
271 2 8.01668 107.109 5.33629
272 2 11.9556 107.042 5.35239
273 2 15.8973 110.875 5.10324
274 2 3.89345 111.157 5.23742
275 2 8.05903 110.956 5.352
276 2 12.0312 111.107 5.32273
277 2 -0.00895925 114.918 5.1831
278 2 4.08966 114.999 5.22176
279 2 8.14089 114.927 5.24824
280 2 11.9627 114.961 5.11815
281 2 -0.0911963 118.728 5.01144
282 2 3.9319 118.688 5.05801
283 2 7.85655 118.768 5.09484
284 2 11.8523 118.772 5.25531
285 2 15.8393 122.772 5.00656
286 2 3.79849 122.678 4.97418
287 2 7.75633 122.796 5.02467
288 2 11.7222 122.946 5.13369
289 2 -0.10033 126.764 5.04068
290 2 3.8623 126.811 5.06976
291 2 7.8064 126.563 4.95941
292 2 11.7871 126.665 5.07157
293 2 0.179522 130.538 4.91496
294 2 4.0082 130.546 5.07422
295 2 7.92637 130.604 5.14883
296 2 11.8787 130.521 5.04722
297 2 15.6952 134.441 4.87685
298 2 3.77263 134.495 4.9844
299 2 7.73722 134.52 4.76332
300 2 11.7354 134.406 4.87132
301 2 -0.0792979 138.323 5.00496
302 2 3.94631 138.276 4.89276
303 2 7.86326 138.328 5.05673
304 2 11.7964 138.477 4.96242
305 2 0.0243753 142.118 4.75513
306 2 3.90662 142.45 4.8557
307 2 7.81706 142.23 4.968
308 2 11.8944 142.32 4.84296
309 2 15.9169 146.131 4.88974
310 2 3.89008 146.085 4.75258
311 2 7.9172 146.217 4.90636
312 2 12.0056 146.106 4.72129
313 2 15.6647 149.995 4.69659
314 2 3.93901 149.865 4.74221
315 2 7.87506 150.119 4.70097
316 2 11.6314 150.173 4.71759
317 2 15.8896 154.146 4.80107
318 2 4.03617 153.918 4.70716
319 2 7.72555 154.028 4.68756
320 2 11.6635 153.86 4.64185
321 2 15.896 157.902 8.63211
322 2 3.943 157.868 8.57871
323 2 8.06245 158.009 8.68541
324 2 11.885 157.876 8.66326
325 2 15.7828 3.51357 8.558
326 2 3.95458 3.42886 8.49347
327 2 7.91344 3.40313 8.69296
328 2 11.8015 3.5734 8.65253
329 2 15.7602 7.53798 8.73381
330 2 3.89711 7.60794 8.64824
331 2 7.67072 7.48142 8.65644
332 2 11.948 7.59238 8.56011
333 2 -0.277837 11.5976 8.3817
334 2 3.84605 11.5388 8.45639
335 2 7.82113 11.4413 8.68893
336 2 11.5755 11.4603 8.38408
337 2 15.5998 15.3253 8.58065
338 2 3.76248 15.5155 8.48032
339 2 7.83718 15.2776 8.53011
340 2 11.8288 15.3062 8.41918
341 2 -0.145491 19.2257 8.48088
342 2 3.91238 19.4495 8.49996
343 2 8.17829 19.219 8.54559
344 2 11.8236 19.1795 8.44497
345 2 -0.117198 23.1812 8.33342
346 2 3.88111 23.0928 8.31745
347 2 7.79757 23.0475 8.60824
348 2 11.8233 23.1558 8.49896
349 2 -0.0694127 27.0364 8.32741
350 2 3.73491 27.002 8.44967
351 2 7.82858 27.1329 8.48535
352 2 11.7346 26.8966 8.26368
353 2 -0.271256 30.9931 8.28541
354 2 4.17146 30.9056 8.4158
355 2 7.90925 31.0193 8.42351
356 2 11.6575 31.0143 8.39044
357 2 15.8932 35.1007 8.28753
358 2 4.02365 34.9697 8.57008
359 2 7.99565 35.2007 8.48692
360 2 11.8261 35.0116 8.48633
361 2 -0.00897599 39.1417 8.27611
362 2 3.63046 39.0883 8.49141
363 2 7.85211 38.9079 8.46465
364 2 11.8224 39.024 8.60681
365 2 0.0445838 43.1499 8.55406
366 2 3.8335 43.0578 8.63826
367 2 7.70611 43.1107 8.49129
368 2 11.9352 43.2185 8.58287
369 2 0.222206 47.0542 8.54799
370 2 3.98164 46.9789 8.72144
371 2 7.91101 47.3203 8.43475
372 2 11.8927 47.2791 8.6067
373 2 15.855 51.1337 8.69365
374 2 4.04468 51.2721 8.70669
375 2 7.9077 51.3167 8.63591
376 2 11.9443 51.2751 8.81213
377 2 15.7602 55.1955 8.8372
378 2 3.92251 55.2378 8.83074
379 2 7.95955 55.3221 8.76712
380 2 11.7913 55.2411 8.77033
381 2 -0.190091 59.0723 8.72927
382 2 3.78242 59.1568 8.83643
383 2 7.63699 59.1906 9.00918
384 2 11.756 59.2323 9.04635
385 2 -0.105183 63.289 8.7338
386 2 3.86554 63.2653 8.94762
387 2 7.79377 63.3028 8.96852
388 2 11.9315 63.3455 8.70326
389 2 15.9659 67.3032 9.08338
390 2 3.93683 67.257 9.18907
391 2 8.12895 67.3373 8.99246
392 2 12.0543 67.1809 9.19303
393 2 15.9088 71.3496 9.02088
394 2 3.98572 71.2891 9.19503
395 2 7.99934 71.2211 9.00933
396 2 11.8691 71.4056 9.23781
397 2 15.6729 75.3142 9.08825
398 2 3.9288 75.3552 9.1747
399 2 7.94701 75.3681 9.24121
400 2 11.7452 75.4798 9.34045
401 2 15.6535 79.1829 9.28303
402 2 3.90857 79.3487 9.31224
403 2 7.90427 79.3434 9.24293
404 2 11.8335 79.2904 9.25584
405 2 -0.166592 83.3628 9.34505
406 2 3.85246 83.4891 9.47389
407 2 7.99503 83.2819 9.32243
408 2 11.75 83.4421 9.20971
409 2 -0.0347619 87.4655 9.53246
410 2 3.74608 87.4141 9.52166
411 2 7.88799 87.4477 9.5695
412 2 11.9374 87.567 9.4347
413 2 0.0191931 91.483 9.42631
414 2 3.88896 91.4268 9.54817
415 2 7.81983 91.4139 9.49879
416 2 11.6359 91.4419 9.47035
417 2 15.8259 95.4286 9.52664
418 2 3.896 95.4888 9.29737
419 2 7.8237 95.3684 9.4937
420 2 11.7487 95.2414 9.52459
421 2 15.7454 99.3628 9.30357
422 2 4.00693 99.2014 9.42212
423 2 7.92071 99.2336 9.45915
424 2 11.7338 99.3034 9.48628
425 2 -0.0590723 103.171 9.4214
426 2 3.69108 103.072 9.38467
427 2 7.85093 103.179 9.52096
428 2 11.7275 103.44 9.28369
429 2 0.0285693 107.041 9.22764
430 2 3.99018 107.093 9.36159
431 2 7.74844 107.112 9.17078
432 2 11.7041 107.225 9.3167
433 2 15.6415 111.133 9.25405
434 2 4.03591 111.085 9.26786
435 2 8.14027 111.084 9.21344
436 2 11.8334 111.084 9.25164
437 2 0.0432771 114.879 9.20074
438 2 3.93431 114.8 9.2149
439 2 8.01319 115.069 9.24394
440 2 12.0242 114.983 9.06867
441 2 -0.00626315 118.74 8.92762
442 2 3.87494 118.723 8.95552
443 2 7.77501 118.793 9.03457
444 2 11.7034 118.95 9.15458
445 2 16.0473 122.742 8.98638
446 2 4.13347 122.63 9.11471
447 2 7.8915 122.702 8.95684
448 2 11.7501 122.732 9.15981
449 2 15.8127 126.475 9.06954
450 2 4.00658 126.536 9.09274
451 2 7.85972 126.897 9.19667
452 2 11.7743 126.702 8.91894
453 2 0.018554 130.499 9.08448
454 2 4.16975 130.351 9.01651
455 2 7.92795 130.586 9.07462
456 2 11.9981 130.753 9.09011
457 2 -0.0443427 134.599 9.01387
458 2 3.89297 134.352 8.86506
459 2 7.86625 134.464 9.09257
460 2 11.9435 134.488 8.91218
461 2 0.0239486 138.582 8.88244
462 2 3.79517 138.343 9.03252
463 2 7.97942 138.38 9.03527
464 2 11.7662 138.448 8.75037
465 2 -0.074634 142.177 8.88457
466 2 3.93772 142.399 8.96061
467 2 7.92459 142.487 8.88592
468 2 11.8423 142.215 8.93167
469 2 15.7063 146.082 8.81057
470 2 3.94904 146.237 8.8609
471 2 8.04205 146.243 8.98907
472 2 11.8257 146.13 8.78995
473 2 15.8108 150.151 8.78757
474 2 3.98507 150.132 8.89202
475 2 7.96445 150.042 8.84909
476 2 12.0122 150.141 8.77853
477 2 15.7557 154.011 8.79208
478 2 3.9381 153.985 8.7366
479 2 7.99233 154.055 8.74913
480 2 11.9275 154.009 8.67268
481 2 15.8707 157.976 12.7872
482 2 3.92563 157.927 12.5502
483 2 7.88507 157.913 12.7288
484 2 11.9356 157.916 12.6333
485 2 15.831 3.57967 12.7867
486 2 4.04568 3.4353 12.737
487 2 7.76484 3.53349 12.7845
488 2 11.8114 3.6567 12.6015
489 2 15.9089 7.2245 12.6868
490 2 3.95005 7.6955 12.5179
491 2 8.06082 7.49092 12.6245
492 2 11.8509 7.77142 12.5264
493 2 -0.316696 11.6203 12.7927
494 2 3.77211 11.2237 12.6616
495 2 7.78683 11.4751 12.6807
496 2 11.7453 11.3933 12.7441
497 2 -0.0378506 15.3439 12.6449
498 2 3.77695 15.2117 12.5274
499 2 7.74265 15.2558 12.5032
500 2 11.7457 15.323 12.4989
501 2 -0.0613453 19.1242 12.5817
502 2 3.99452 19.3357 12.663
503 2 7.86318 19.287 12.6933
504 2 11.8174 19.3444 12.6013
505 2 -0.327194 23.2305 12.6059
506 2 3.91863 23.2903 12.518
507 2 7.80066 23.2622 12.6035
508 2 11.6381 23.2649 12.6068
509 2 -0.145801 27.004 12.3304
510 2 3.84763 27.1959 12.3986
511 2 7.963 27.1395 12.491
512 2 11.7429 27.2923 12.4931
513 2 -0.142717 30.875 12.3412
514 2 3.71437 31.046 12.3874
515 2 7.79638 31.1248 12.4402
516 2 11.7888 30.958 12.2432
517 2 -0.0114439 34.812 12.2377
518 2 3.8871 34.9497 12.2494
519 2 7.84676 34.9048 12.2554
520 2 11.807 34.8619 12.2321
521 2 -0.215112 39.0811 12.2068
522 2 3.80062 38.9912 12.3158
523 2 7.7831 38.9819 12.5499
524 2 11.7653 38.9445 12.4132
525 2 -0.0374008 43.0015 12.5306
526 2 3.96425 42.9835 12.6786
527 2 7.96237 42.9478 12.2959
528 2 11.7069 43.1713 12.5366
529 2 -0.126421 47.1496 12.3736
530 2 4.09291 46.9088 12.511
531 2 8.23823 47.1032 12.5954
532 2 11.9354 47.0165 12.4552
533 2 0.12892 51.0648 12.5752
534 2 4.0253 51.0698 12.5745
535 2 7.90766 51.1021 12.7098
536 2 11.8569 51.2736 12.5943
537 2 15.8185 55.078 12.636
538 2 3.88449 55.2393 12.7299
539 2 7.90013 55.0048 12.6091
540 2 11.8057 55.034 12.6962
541 2 15.6986 59.254 12.675
542 2 3.84561 59.3066 12.7101
543 2 7.79773 59.1833 12.8365
544 2 11.8487 59.1165 12.8719
545 2 15.9558 63.3264 12.7839
546 2 3.92806 63.1506 12.5701
547 2 7.95825 63.2908 12.8558
548 2 11.9139 63.1262 12.8848
549 2 -0.0490767 67.0965 13.1147
550 2 4.02077 67.4186 13.1132
551 2 7.90176 67.1073 13.0265
552 2 11.7709 67.228 12.9339
553 2 0.209384 71.2086 12.9579
554 2 4.10216 71.2605 12.9236
555 2 8.02725 71.0664 12.7414
556 2 11.9004 71.2081 12.9926
557 2 -0.0504943 75.2192 13.0125
558 2 4.01516 75.3553 13.0198
559 2 7.86144 75.0947 13.194
560 2 11.7937 75.2903 13.0486
561 2 0.0142324 79.1975 13.2186
562 2 3.83907 79.3582 13.1906
563 2 7.84803 79.4454 13.1232
564 2 11.7496 79.4456 13.1159
565 2 -0.137311 83.4048 13.2291
566 2 3.72631 83.4595 13.2475
567 2 8.02988 83.3707 13.103
568 2 11.9011 83.2006 13.1653
569 2 -0.265941 87.2164 13.2183
570 2 4.01507 87.4638 13.5016
571 2 7.85328 87.317 13.3383
572 2 11.8332 87.4031 13.539
573 2 -0.140839 91.2393 13.396
574 2 4.04195 91.4975 13.5667
575 2 7.87869 91.3316 13.4143
576 2 11.9692 91.4649 13.4803
577 2 0.148913 95.39 13.2999
578 2 4.01242 95.3868 13.5071
579 2 7.98085 95.3731 13.5393
580 2 11.7833 95.2348 13.4714
581 2 -0.253132 99.1641 13.4092
582 2 3.76872 99.4247 13.5672
583 2 7.69627 99.3926 13.3363
584 2 11.7833 99.2413 13.4686
585 2 -0.1759 103.206 13.4516
586 2 3.78886 103.288 13.4145
587 2 7.80504 103.181 13.2491
588 2 11.731 103.188 13.3937
589 2 0.00912426 107.304 13.1913
590 2 3.99399 107.302 13.4575
591 2 7.94404 107.181 13.226
592 2 11.9869 107.065 13.3637
593 2 0.00997269 111.136 13.1725
594 2 4.04509 111.14 12.9684
595 2 8.0418 111.003 13.3048
596 2 11.8127 111.23 13.2712
597 2 0.0628248 115.072 13.4214
598 2 3.79357 115.062 13.2475
599 2 8.0201 115.165 13.3298
600 2 11.9703 115.117 13.1659
601 2 -0.0670314 119.031 13.1669
602 2 3.9138 118.95 13.0648
603 2 7.89965 118.946 13.2593
604 2 11.7881 119.031 13.0496
605 2 0.0913481 122.742 13.1187
606 2 4.18096 122.837 13.009
607 2 7.8212 122.851 13.0919
608 2 11.9606 122.791 13.1064
609 2 -0.167801 126.713 12.9314
610 2 3.87466 126.942 13.1599
611 2 7.87692 126.61 13.0879
612 2 11.9686 126.768 13.015
613 2 15.7558 130.463 12.848
614 2 3.74926 130.635 13.1219
615 2 7.88133 130.652 13.1579
616 2 11.7106 130.63 13.0436
617 2 15.7499 134.611 13.0833
618 2 3.86492 134.458 13.0858
619 2 7.72291 134.637 13.1345
620 2 11.7402 134.493 13.0619
621 2 -0.052821 138.22 13.0028
622 2 3.86815 138.362 12.9483
623 2 7.91864 138.423 12.7663
624 2 11.8387 138.542 13.0197
625 2 15.8975 142.185 12.9956
626 2 4.07928 142.454 13.054
627 2 7.8784 142.329 12.8725
628 2 11.8529 142.381 13
629 2 0.0208344 146.127 12.8509
630 2 3.91733 146.114 12.7751
631 2 8.00785 146.347 12.9697
632 2 11.7693 146.271 12.9651
633 2 0.0635401 150.109 12.7656
634 2 4.02428 150.107 12.8926
635 2 7.82951 150.212 12.9907
636 2 11.952 150.102 12.7422
637 2 15.7688 154.185 12.6678
638 2 4.04858 154.099 12.7286
639 2 7.92826 154.066 12.8491
640 2 11.7407 153.923 12.6652
641 2 0.0336135 158.118 16.7913
642 2 3.74246 -0.384652 16.6867
643 2 7.91372 158.019 16.8464
644 2 11.9406 157.876 16.8375
645 2 15.9497 3.65711 16.7565
646 2 4.14014 3.50459 16.6804
647 2 8.01597 3.36115 16.5688
648 2 12.1243 3.56536 16.5226
649 2 -0.0882904 7.53108 16.7906
650 2 3.92999 7.52621 16.634
651 2 7.84702 7.48663 16.6315
652 2 11.957 7.51991 16.6183
653 2 -0.229778 11.4258 16.7646
654 2 3.83592 11.4599 16.7694
655 2 7.90278 11.4714 16.7081
656 2 11.7911 11.3685 16.6624
657 2 -0.0306174 15.3368 16.6609
658 2 3.85634 15.4206 16.8358
659 2 7.78658 15.3787 16.555
660 2 11.7314 15.3522 16.6394
661 2 15.7778 19.2905 16.5072
662 2 4.02392 19.4062 16.6478
663 2 7.89139 19.1674 16.519
664 2 11.9157 19.2006 16.5717
665 2 -0.0441925 23.254 16.6717
666 2 3.75943 23.2794 16.5038
667 2 7.75124 23.0634 16.6845
668 2 11.9431 23.1195 16.5594
669 2 0.00261056 27.2673 16.6015
670 2 3.99466 27.1485 16.5621
671 2 7.96741 27.1842 16.4931
672 2 11.8645 27.1427 16.5065
673 2 -0.208934 31.071 16.4175
674 2 4.02214 30.9726 16.4208
675 2 7.85192 31.0687 16.3523
676 2 11.856 31.21 16.32
677 2 -0.0385874 35.1165 16.3826
678 2 4.01013 35.0598 16.3742
679 2 7.82557 34.964 16.2439
680 2 11.8265 35.109 16.1894
681 2 -0.194615 39.1242 16.0538
682 2 3.87621 38.846 16.2317
683 2 8.00583 38.8245 16.3295
684 2 11.8262 38.949 16.3416
685 2 -0.0606244 42.8772 16.5039
686 2 3.89797 43.0654 16.3929
687 2 7.68767 42.9346 16.447
688 2 11.7817 42.9561 16.3477
689 2 15.7158 46.9553 16.5354
690 2 3.87982 46.9547 16.4258
691 2 7.98514 46.9814 16.5408
692 2 11.927 46.7892 16.575
693 2 -0.0660209 50.9254 16.5203
694 2 4.06021 51.0258 16.6033
695 2 7.76729 51.0569 16.5616
696 2 11.8493 50.8488 16.546
697 2 0.196041 55.3112 16.3557
698 2 4.18718 55.0676 16.5532
699 2 8.16959 55.1159 16.5173
700 2 12.1431 55.1776 16.5937
701 2 -0.248689 59.1151 16.7239
702 2 3.87747 59.1618 16.6832
703 2 8.01928 59.0714 16.6662
704 2 11.9334 59.1709 16.7464
705 2 0.0864031 63.174 16.7279
706 2 4.08065 63.0892 16.7379
707 2 8.00102 63.0941 16.5175
708 2 11.9922 63.0656 16.6635
709 2 -0.123826 67.0407 16.7601
710 2 3.85677 67.1912 16.9053
711 2 7.76373 67.1683 16.8632
712 2 11.8495 66.9199 16.8716
713 2 0.140477 71.2585 16.9752
714 2 4.02621 71.252 17.0296
715 2 7.96316 71.1786 16.9113
716 2 11.9807 71.1124 16.8317
717 2 -0.204189 75.366 17.0337
718 2 3.91788 75.3405 17.0568
719 2 7.99496 75.2132 16.9101
720 2 11.672 75.2333 16.8912
721 2 -0.0760997 79.0774 17.0769
722 2 4.04404 79.2618 17.0546
723 2 7.8181 79.1419 16.861
724 2 11.8506 79.459 17.1279
725 2 -0.0505403 83.2574 17.2952
726 2 4.02987 83.286 17.1996
727 2 7.84278 83.1599 17.1702
728 2 11.7915 83.2298 17.0884
729 2 -0.11335 87.4784 17.2997
730 2 3.92593 87.329 17.2616
731 2 8.08125 87.4174 17.2233
732 2 11.8698 87.388 17.3702
733 2 -1.00464e-05 91.2416 17.3151
734 2 3.87059 91.2224 17.4989
735 2 8.02347 91.2792 17.3991
736 2 12.0084 91.3674 17.3944
737 2 -0.0664774 95.3263 17.414
738 2 3.87872 95.3119 17.5174
739 2 8.03417 95.3382 17.3191
740 2 11.8085 95.3934 17.3846
741 2 0.0231626 99.3375 17.5205
742 2 3.93332 99.3902 17.223
743 2 7.85375 99.1373 17.4701
744 2 11.8499 99.3156 17.4525
745 2 0.158689 103.349 17.503
746 2 4.05355 103.34 17.3361
747 2 8.05518 103.309 17.1852
748 2 11.931 103.443 17.3876
749 2 0.141774 107.277 17.1206
750 2 3.91961 107.241 17.2575
751 2 8.04203 107.285 17.3687
752 2 12.0406 107.173 17.1487
753 2 0.0714163 111.283 17.308
754 2 4.04694 111.05 17.2386
755 2 7.91917 111.177 17.4055
756 2 11.9495 111.175 17.3627
757 2 0.0371441 115.046 17.3359
758 2 3.97126 115.209 17.3454
759 2 7.77224 115.096 17.1667
760 2 11.8577 114.951 17.1502
761 2 0.0509429 118.897 17.3756
762 2 4.1316 118.897 17.1782
763 2 7.98854 119.055 17.3332
764 2 11.767 118.951 17.2176
765 2 0.126981 122.73 17.1019
766 2 4.10345 122.918 17.0187
767 2 8.02424 122.832 17.3021
768 2 11.6968 122.759 17.2044
769 2 15.6907 126.646 17.1759
770 2 3.92609 126.869 17.1199
771 2 7.87996 126.677 17.0078
772 2 11.9224 126.74 17.1844
773 2 15.7244 130.542 17.083
774 2 3.91063 130.707 17.0202
775 2 7.94728 130.615 17.2316
776 2 11.8681 130.901 17.1934
777 2 15.9856 134.649 16.9449
778 2 3.9826 134.488 17.1507
779 2 8.06961 134.656 17.0186
780 2 11.9468 134.592 17.1514
781 2 -0.0538501 138.521 17.1764
782 2 3.87783 138.62 16.9247
783 2 8.15209 138.513 16.941
784 2 11.9577 138.624 17.1776
785 2 15.9556 142.553 16.8591
786 2 4.01019 142.314 17.0396
787 2 7.84435 142.349 16.9446
788 2 11.9279 142.523 16.9307
789 2 15.8538 146.325 16.9654
790 2 3.99338 146.432 16.9727
791 2 7.79642 146.313 17.0137
792 2 11.8298 146.366 16.9494
793 2 15.6774 150.194 16.9126
794 2 3.92948 150.225 16.8492
795 2 7.80862 150.249 16.9765
796 2 11.8305 150.231 16.8458
797 2 15.623 154.059 16.6789
798 2 3.79678 153.929 16.6944
799 2 7.86757 154.083 16.7466
800 2 11.6558 154.296 16.8874
801 2 15.9873 157.994 20.8535
802 2 4.01899 157.933 20.7499
803 2 7.86934 158.033 20.8913
804 2 11.8593 158.081 20.9839
805 2 0.147817 3.70492 20.9555
806 2 4.19782 3.63757 20.8003
807 2 8.05437 3.64959 20.6843
808 2 12.0956 3.55903 20.8261
809 2 15.8558 7.47337 20.8238
810 2 3.89184 7.79395 20.7846
811 2 7.83369 7.54302 20.6664
812 2 11.8502 7.54331 20.8975
813 2 15.7795 11.5778 20.67
814 2 4.00183 11.4201 20.7494
815 2 7.78434 11.4827 20.6172
816 2 11.7476 11.4588 20.8638
817 2 15.6455 15.5108 20.7008
818 2 3.84405 15.4758 20.5884
819 2 7.94397 15.4274 20.8121
820 2 11.857 15.4146 20.7875
821 2 -0.202807 19.4267 20.6483
822 2 3.84538 19.407 20.6104
823 2 7.74676 19.3041 20.5944
824 2 11.7711 19.008 20.5887
825 2 0.0622403 23.2317 20.5906
826 2 3.78157 23.1449 20.3848
827 2 7.71755 23.2532 20.5132
828 2 11.8097 23.0125 20.5826
829 2 15.8658 27.1736 20.5172
830 2 4.05781 27.2045 20.5485
831 2 7.99926 27.2573 20.4963
832 2 11.8712 27.1207 20.3992
833 2 15.7301 31.2792 20.6354
834 2 3.68303 31.1101 20.5734
835 2 7.86522 31.1671 20.6404
836 2 11.8764 31.1219 20.3848
837 2 15.6982 35.1802 20.2436
838 2 3.9118 35.0762 20.2628
839 2 7.97108 35.0226 20.4621
840 2 11.6204 34.9774 20.2672
841 2 -0.0404097 39.0005 20.1391
842 2 3.9443 38.9612 20.3175
843 2 7.97185 38.7612 20.4047
844 2 11.8708 38.7611 20.3145
845 2 15.9503 42.7804 20.3988
846 2 3.90454 42.8093 20.3203
847 2 7.74209 42.9706 20.2982
848 2 11.6767 42.8048 20.2696
849 2 15.9187 46.958 20.4229
850 2 3.81849 46.7741 20.2555
851 2 7.91991 46.8463 20.59
852 2 11.8507 46.8176 20.4672
853 2 0.101541 51.0201 20.4228
854 2 3.98459 50.9869 20.3086
855 2 7.89386 50.9059 20.5633
856 2 11.7341 51.0067 20.3943
857 2 -0.0357514 54.8735 20.4055
858 2 3.8307 54.9162 20.4747
859 2 7.95216 54.911 20.4752
860 2 11.8969 54.9297 20.571
861 2 15.8344 59.0646 20.6096
862 2 3.95646 59.0496 20.524
863 2 7.82693 59.1243 20.5302
864 2 11.6931 59.1657 20.386
865 2 15.8114 63.1147 20.712
866 2 4.05542 63.0038 20.5223
867 2 7.91559 62.8562 20.6672
868 2 11.8643 63.1865 20.5831
869 2 -0.150524 67.0458 20.6117
870 2 3.91903 67.0709 21.0388
871 2 7.81488 66.9418 20.7447
872 2 11.8705 67.127 20.67
873 2 0.0378381 70.9846 20.9164
874 2 4.01925 70.9861 20.8874
875 2 7.93061 71.0955 20.7261
876 2 11.8702 71.0458 20.776
877 2 -0.0131376 75.0448 20.7965
878 2 3.88686 75.1589 21.076
879 2 7.80199 75.1299 20.9353
880 2 11.9954 75.2399 20.8293
881 2 0.162776 79.3043 21.0993
882 2 3.84648 79.1939 20.8809
883 2 7.75561 79.1577 20.9673
884 2 11.6749 79.2477 20.9386
885 2 -0.190183 83.3061 21.1101
886 2 3.98166 83.3392 21.0256
887 2 7.82273 83.3092 21.1152
888 2 11.8354 83.3387 21.131
889 2 -0.0350755 87.3949 21.1114
890 2 3.7772 87.2231 21.2114
891 2 7.8073 87.1693 21.1798
892 2 11.8464 87.3129 20.9885
893 2 0.0955117 91.168 21.2465
894 2 4.09964 91.4796 21.2206
895 2 7.83603 91.3227 21.426
896 2 11.8038 91.3271 21.4086
897 2 0.011429 95.386 21.2515
898 2 3.83596 95.285 21.3592
899 2 7.98525 95.3232 21.2988
900 2 11.9126 95.313 21.2992
901 2 0.0991857 99.1096 21.2542
902 2 4.06622 99.2246 21.2856
903 2 7.97753 99.2568 21.3427
904 2 11.7431 99.2066 21.2895
905 2 0.140334 103.342 21.1584
906 2 4.0176 103.141 21.3659
907 2 7.86133 103.12 21.3174
908 2 11.8887 103.294 21.1913
909 2 -0.139392 107.314 21.2707
910 2 4.03304 107.231 21.2453
911 2 7.973 107.175 21.387
912 2 11.8386 107.192 21.2203
913 2 0.0829494 111.163 21.4344
914 2 4.04229 111.086 21.288
915 2 7.85443 111.087 21.1858
916 2 11.7249 111.258 21.3289
917 2 15.8292 115.083 21.3578
918 2 3.90598 115.103 21.2236
919 2 7.8591 115.003 21.4249
920 2 11.7765 115.057 21.3459
921 2 0.0192979 119.091 21.0478
922 2 3.8287 119.017 21.479
923 2 7.96634 118.853 21.3909
924 2 11.7612 119.115 21.2648
925 2 15.6428 123.07 21.0066
926 2 3.74961 122.898 21.2161
927 2 7.8623 122.883 21.3622
928 2 11.9303 123.046 21.1705
929 2 15.8497 126.854 21.24
930 2 4.05958 126.794 21.0828
931 2 8.07061 126.863 21.2247
932 2 11.6409 127.054 21.2444
933 2 15.9543 130.54 21.1824
934 2 4.0707 130.734 21.1359
935 2 7.95143 130.52 20.9815
936 2 12.0917 130.762 21.1405
937 2 0.239121 134.621 21.1093
938 2 4.17606 134.378 20.9555
939 2 7.97786 134.605 20.9769
940 2 12.0324 134.572 21.0926
941 2 16.111 138.647 20.9226
942 2 4.25955 138.425 20.9022
943 2 7.89705 138.507 20.9919
944 2 12.0131 138.636 21.1211
945 2 15.8266 142.701 21.1438
946 2 3.89519 142.5 20.9947
947 2 7.91061 142.306 20.8503
948 2 11.8291 142.512 20.9479
949 2 15.6815 146.589 20.981
950 2 3.90705 146.338 21.1116
951 2 7.96897 146.37 20.9073
952 2 11.8306 146.314 20.946
953 2 15.91 150.41 20.9805
954 2 4.16532 150.376 20.9994
955 2 7.96993 150.43 20.9032
956 2 11.836 150.287 20.8501
957 2 15.9346 154.079 20.886
958 2 3.83431 153.994 20.6001
959 2 7.80605 154.246 20.8703
960 2 12 154.214 20.8681
961 2 -0.0808495 158.308 24.9421
962 2 4.13264 158.293 24.7707
963 2 8.068 158.142 24.9081
964 2 11.7315 158.194 24.8807
965 2 15.788 3.71638 24.9437
966 2 3.86393 3.63398 24.8223
967 2 7.89633 3.76482 24.8104
968 2 11.8465 3.73453 24.9543
969 2 15.7659 7.76854 24.7872
970 2 3.97125 7.75893 24.8922
971 2 8.07725 7.73051 24.7679
972 2 11.8617 7.71551 24.7741
973 2 15.7125 11.5615 24.8555
974 2 3.77327 11.6807 24.7811
975 2 8.08333 11.551 24.8353
976 2 11.8067 11.4247 24.7998
977 2 -0.117646 15.4093 24.6963
978 2 3.91302 15.4254 24.7567
979 2 7.85359 15.4134 24.8754
980 2 11.8973 15.538 24.7285
981 2 0.00431596 19.3264 24.6305
982 2 3.93741 19.2442 24.5996
983 2 7.84812 19.5113 24.6253
984 2 11.8549 19.4434 24.7548
985 2 -0.104705 23.2746 24.6388
986 2 4.07102 23.3279 24.4599
987 2 8.03124 23.4086 24.404
988 2 11.8358 23.1094 24.5909
989 2 -0.0358198 27.0266 24.375
990 2 4.08923 27.2628 24.5035
991 2 7.99285 27.1302 24.5427