ITEM: TIMESTEP
21100
ITEM: NUMBER OF ATOMS
32000
ITEM: BOX BOUNDS xy xz yz pp pp pp
0.0000000000000000e+00 1.5832000000000001e+01 0.0000000000000000e+00
0.0000000000000000e+00 1.5831999999999999e+02 0.0000000000000000e+00
8.2216407239882017e-01 1.6015495392759755e+02 0.0000000000000000e+00
ITEM: ATOMS id type x y z
1 2 15.5725 158.097 159.881
2 2 3.66043 157.903 159.908
3 2 7.81962 158.138 160.05
4 2 11.6576 157.834 159.964
5 2 -0.0187282 3.68006 159.85
6 2 3.83929 3.51967 160.037
7 2 7.65616 3.48963 160
8 2 11.7303 3.59913 159.958
9 2 15.5691 7.35877 159.818
10 2 3.80265 7.57269 159.717
11 2 7.9037 7.39659 159.948
12 2 11.8643 7.47166 159.967
13 2 15.7228 11.098 159.978
14 2 3.94628 11.2819 159.796
15 2 7.64717 11.2555 159.814
16 2 11.6931 11.256 159.974
17 2 -0.0149136 15.249 159.828
18 2 4.08389 15.3145 159.74
19 2 7.71528 15.2565 159.842
20 2 11.7689 15.3485 159.941
21 2 15.8811 18.9952 159.678
22 2 3.86296 19.0567 159.723
23 2 7.64326 19.1883 159.734
24 2 11.675 19.0527 159.693
25 2 15.9097 23.1226 159.782
26 2 4.01505 23.0746 159.841
27 2 8.08764 23.0728 159.596
28 2 11.7444 23.023 159.921
29 2 15.799 27.1926 159.919
30 2 3.9527 27.2098 160.094
31 2 7.81953 27.0855 159.764
32 2 11.8408 27.2628 160.101
33 2 15.5687 31.2395 159.778
34 2 4.01242 31.3262 0.383947
35 2 7.96188 31.1871 160.042
36 2 11.9011 31.1254 159.779
37 2 -0.0515936 35.2055 159.88
38 2 3.97673 35.212 159.966
39 2 8.0278 35.1763 160.092
40 2 11.8334 35.3641 159.89
41 2 -0.117935 39.2515 160.001
42 2 3.85981 39.3709 0.526515
43 2 7.96279 39.1963 0.6914
44 2 11.8029 39.2276 0.718228
45 2 0.173421 43.1056 160.148
46 2 3.98064 43.2557 160.049
47 2 7.84941 43.1943 0.617734
48 2 11.878 43.1982 0.893234
49 2 0.147801 47.2589 0.769266
50 2 3.89844 47.2537 0.74383
51 2 7.87136 47.2554 0.93699
52 2 11.7082 47.2666 0.691003
53 2 0.24038 51.3996 0.731888
54 2 4.17725 51.413 0.874441
55 2 7.92331 51.463 0.649228
56 2 11.8574 51.3283 0.978486
57 2 15.8824 55.3242 0.725258
58 2 3.8422 55.3746 0.969226
59 2 8.07825 55.2647 0.946929
60 2 11.8706 55.4677 0.828151
61 2 0.0460274 59.5173 1.13181
62 2 3.91174 59.3408 1.06621
63 2 8.0221 59.2942 0.880293
64 2 12.0228 59.4468 0.97368
65 2 -0.0328715 63.4171 1.03719
66 2 3.92422 63.4079 1.14556
67 2 7.72582 63.3355 1.20422
68 2 12.0176 63.5081 0.994218
69 2 15.9585 67.4249 1.37833
70 2 3.82911 67.5664 1.19173
71 2 7.90681 67.4436 1.33575
72 2 11.7403 67.3606 1.03607
73 2 0.0291622 71.638 1.34068
74 2 3.79836 71.6629 1.39101
75 2 7.78349 71.5194 1.32449
76 2 11.7301 71.4691 1.0464
77 2 -0.18281 75.4174 1.47186
78 2 3.70958 75.5835 1.50724
79 2 7.77077 75.6257 1.40139
80 2 11.739 75.5255 1.14156
81 2 -0.0227999 79.4976 1.49747
82 2 3.72721 79.6443 1.36173
83 2 7.90653 79.3505 1.5357
84 2 11.8498 79.8082 1.35595
85 2 0.0405583 83.5294 1.438
86 2 3.90033 83.5009 1.41453
87 2 7.82484 83.516 1.43865
88 2 11.8221 83.5117 1.36497
89 2 -0.0787229 87.5045 1.40503
90 2 3.99391 87.4375 1.30045
91 2 7.89048 87.1659 1.4773
92 2 11.7448 87.5281 1.46925
93 2 -0.0851175 91.4076 1.56424
94 2 3.93379 91.3519 1.57011
95 2 7.70311 91.3275 1.50891
96 2 11.8873 91.4151 1.54263
97 2 15.9713 95.2215 1.57761
98 2 3.88024 95.2536 1.52185
99 2 7.94592 95.2075 1.29439
100 2 11.7884 95.2617 1.30431
101 2 -0.174254 98.9955 1.18422
102 2 3.77196 99.1499 1.34585
103 2 7.93654 99.2082 1.3248
104 2 11.7651 98.9741 1.32059
105 2 0.0789953 103.202 1.27797
106 2 3.8283 102.954 1.04478
107 2 7.77695 102.893 1.20769
108 2 11.8711 102.804 1.26718
109 2 0.0845176 106.907 1.43832
110 2 3.8279 107.097 1.35539
111 2 7.83867 106.994 1.34395
112 2 11.8398 106.951 1.41168
113 2 -0.0386503 110.929 1.17744
114 2 3.96123 110.827 1.19756
115 2 7.82529 110.982 1.0737
116 2 11.6566 110.964 1.16474
117 2 15.5611 114.709 1.0985
118 2 4.0218 114.937 1.13085
119 2 7.91459 114.947 1.30081
120 2 11.7053 114.831 1.09434
121 2 0.0329911 118.688 1.13514
122 2 3.84918 118.804 1.23625
123 2 7.78864 118.956 1.05718
124 2 11.8523 118.882 1.25768
125 2 15.8473 122.732 1.08128
126 2 4.00126 122.678 1.12386
127 2 7.8802 122.627 1.02961
128 2 11.7614 122.775 0.896316
129 2 -0.262582 126.598 0.845933
130 2 3.88637 126.515 1.01751
131 2 7.86227 126.575 0.954368
132 2 11.7787 126.576 0.893773
133 2 15.8577 130.357 0.912038
134 2 3.80879 130.382 0.932357
135 2 7.80323 130.694 0.98639
136 2 11.9357 130.597 0.934485
137 2 15.8137 134.554 0.982017
138 2 3.76572 134.295 0.700385
139 2 7.91333 134.411 160.219
140 2 11.9245 134.435 1.13884
141 2 -0.07569 138.33 0.975205
142 2 3.93547 138.175 160.347
143 2 7.94602 138.485 160.331
144 2 11.8434 138.37 1.08451
145 2 15.899 142.065 160.188
146 2 3.8369 142.146 160.066
147 2 7.70762 142.277 160.092
148 2 11.9331 142.183 160.197
149 2 -0.1117 146.144 160.114
150 2 3.78122 146.25 160.069
151 2 7.88612 146.272 160.207
152 2 11.7129 146.061 160.341
153 2 15.5975 150.103 160.113
154 2 3.91781 150.135 160.232
155 2 7.68498 150.128 159.996
156 2 11.7033 150.068 0.652567
157 2 15.5921 154.065 159.969
158 2 3.8967 154.073 159.969
159 2 7.73588 154.214 160.02
160 2 11.6989 153.895 160.089
161 2 15.8314 157.874 4.77763
162 2 3.87803 158.059 4.58155
163 2 8.05114 157.883 4.63912
164 2 11.8365 157.91 4.63052
165 2 -0.156422 3.36843 4.67024
166 2 3.84806 3.69092 4.57364
167 2 7.65109 3.54581 4.50629
168 2 11.6615 3.30763 4.68473
169 2 -0.119205 7.53201 4.64005
170 2 3.90339 7.52782 4.68658
171 2 7.99343 7.46801 4.49193
172 2 11.7998 7.44779 4.87897
173 2 0.059166 11.5162 4.57023
174 2 3.97068 11.3938 4.61412
175 2 7.80158 11.3553 4.55793
176 2 11.8819 11.5147 4.54881
177 2 15.8482 15.0418 4.43288
178 2 3.80406 15.3104 4.58839
179 2 8.01535 15.2975 4.52452
180 2 11.7091 15.1257 4.40281
181 2 -0.0198554 19.1365 4.49953
182 2 4.03471 19.3326 4.53141
183 2 7.86999 19.2702 4.56218
184 2 11.9216 19.2845 4.52593
185 2 0.0680756 23.0695 4.4624
186 2 3.9071 23.2575 4.52399
187 2 7.94779 23.0532 4.38036
188 2 11.8326 22.9949 4.38694
189 2 15.7954 27.0695 4.29644
190 2 3.88714 27.189 4.42731
191 2 7.91215 27.1483 4.35659
192 2 11.7832 26.9949 4.40137
193 2 -0.0260261 31.2514 4.53797
194 2 3.75504 30.9616 4.44945
195 2 7.95377 31.056 4.53068
196 2 11.8102 31.0098 4.4791
197 2 0.047361 35.1584 4.59596
198 2 3.84661 35.1163 4.58191
199 2 7.8754 35.0408 4.53391
200 2 11.9579 35.1884 4.5234
201 2 15.6807 39.061 4.43548
202 2 3.93761 39.0363 4.54142
203 2 7.8296 39.146 4.61613
204 2 11.9034 39.1786 4.70239
205 2 -0.0158774 43.2832 4.58222
206 2 3.96927 43.3466 4.60522
207 2 7.7234 43.197 4.70977
208 2 11.6189 43.2786 4.74179
209 2 -0.110658 47.254 4.596
210 2 4.02936 47.1497 4.69404
211 2 7.96247 47.2283 4.71786
212 2 11.7618 47.1701 4.72969
213 2 -0.0859837 51.2008 4.64225
214 2 3.88108 51.1547 4.95904
215 2 7.98204 51.3013 4.96284
216 2 11.9529 51.235 4.8458
217 2 -0.0620497 55.2034 4.94623
218 2 3.87984 55.3207 4.8107
219 2 7.6488 55.1878 4.98541
220 2 11.8517 55.3143 4.86615
221 2 15.7294 59.2593 4.98469
222 2 3.9874 59.3178 4.93818
223 2 7.75528 59.1832 4.79094
224 2 11.6916 59.3332 5.02758
225 2 -0.176399 63.2231 4.95261
226 2 4.05189 63.2636 4.97307
227 2 8.0837 63.2618 5.08723
228 2 11.8155 63.3542 5.05538
229 2 15.9331 67.1999 5.07137
230 2 4.02733 67.2901 5.07414
231 2 7.98113 67.3415 5.21304
232 2 11.9093 67.3325 4.97269
233 2 15.469 71.3173 5.0922
234 2 3.94136 71.2507 5.25339
235 2 7.89103 71.3107 5.17963
236 2 11.6755 71.2602 5.13791
237 2 15.6936 75.5664 5.20331
238 2 3.74593 75.6007 5.44007
239 2 7.90493 75.3309 5.17006
240 2 11.7151 75.3883 5.11501
241 2 -0.0874949 79.3903 5.27794
242 2 3.90882 79.5384 5.55128
243 2 7.87884 79.7006 5.37002
244 2 11.7248 79.4636 5.33682
245 2 15.8195 83.4138 5.30301
246 2 3.86322 83.4563 5.34638
247 2 7.85581 83.3822 5.10811
248 2 11.87 83.463 5.50193
249 2 -0.091641 87.5003 5.26153
250 2 3.94501 87.4592 5.55213
251 2 7.84727 87.5888 5.43721
252 2 11.7745 87.3624 5.44612
253 2 0.0210525 91.4692 5.56967
254 2 3.87185 91.4501 5.53716
255 2 7.97172 91.1753 5.39563
256 2 11.8008 91.3898 5.42784
257 2 15.6128 95.1415 5.38353
258 2 3.79511 95.3413 5.53964
259 2 7.90533 95.277 5.4781
260 2 11.9911 95.4468 5.46255
261 2 -0.0979024 99.1814 5.53015
262 2 3.8081 98.935 5.52493
263 2 8.00596 99.2336 5.27866
264 2 11.9322 99.2642 5.38761
265 2 0.0326973 103.169 5.36169
266 2 4.13461 103.04 5.16033
267 2 7.97554 103.122 5.30756
268 2 11.7617 103.139 5.29325
269 2 15.6866 107.184 5.24826
270 2 4.02465 107.047 5.12898
271 2 7.84423 106.862 5.23753
272 2 11.8604 107.131 5.13863
273 2 15.8949 111.043 5.2472
274 2 3.91524 110.874 5.34439
275 2 7.84137 110.911 5.07982
276 2 11.831 110.893 5.26304
277 2 0.0843559 114.711 5.0637
278 2 3.94219 114.802 5.19804
279 2 7.73367 114.866 5.19914
280 2 11.7589 115.023 5.23739
281 2 -0.162183 118.752 5.13941
282 2 3.90408 118.777 5.06318
283 2 7.9352 118.81 5.26952
284 2 11.9441 119.02 5.05333
285 2 15.6668 122.701 5.1448
286 2 3.83803 122.857 5.11297
287 2 7.90852 122.583 5.0502
288 2 11.9382 122.671 4.99629
289 2 0.00514163 126.594 5.03193
290 2 4.08156 126.705 4.89476
291 2 7.91286 126.815 5.05632
292 2 11.7071 126.692 4.94475
293 2 -0.0851108 130.576 5.07958
294 2 3.87197 130.717 4.9608
295 2 7.91092 130.645 4.86265
296 2 11.8367 130.502 4.97971
297 2 15.7459 134.415 4.96882
298 2 3.97308 134.468 5.02239
299 2 7.86405 134.429 5.16537
300 2 11.8167 134.431 5.05856
301 2 -0.0410091 138.363 4.90002
302 2 3.9724 138.317 5.01678
303 2 7.87075 138.504 4.91018
304 2 11.6739 138.223 4.93763
305 2 0.130583 142.198 4.73572
306 2 3.93889 142.28 4.91121
307 2 7.93427 142.28 4.76281
308 2 12.0558 142.1 4.8372
309 2 15.6285 146.29 4.87545
310 2 3.93219 146.283 4.99974
311 2 8.02458 146.303 4.71703
312 2 11.8646 145.986 4.80396
313 2 15.6953 150.154 4.74386
314 2 3.65961 150.353 4.80848
315 2 7.64327 150.125 4.7464
316 2 11.7715 149.993 4.66071
317 2 15.5906 153.98 4.6048
318 2 3.75514 153.987 4.58101
319 2 7.82449 154.057 4.72886
320 2 11.7435 154.016 4.74563
321 2 15.788 157.983 8.86249
322 2 3.91722 158.023 8.84272
323 2 7.75277 157.855 8.59604
324 2 11.8271 157.99 8.61612
325 2 15.5597 3.57189 8.84882
326 2 3.93262 3.42728 8.74665
327 2 7.81796 3.78207 8.70221
328 2 11.6977 3.64235 8.664
329 2 15.866 7.28471 8.52523
330 2 3.84255 7.42417 8.65677
331 2 8.02718 7.45577 8.68318
332 2 11.8384 7.46041 8.70702
333 2 0.119485 11.3736 8.7108
334 2 3.8203 11.3215 8.70827
335 2 7.88987 11.4346 8.47158
336 2 11.8586 11.2906 8.77728
337 2 15.7235 15.3761 8.35184
338 2 4.07425 15.2774 8.67323
339 2 7.85307 15.2981 8.65472
340 2 11.7349 15.2667 8.61775
341 2 0.0877727 19.3206 8.51951
342 2 3.92761 19.0917 8.52444
343 2 7.86942 19.0926 8.4004
344 2 12.037 19.3511 8.49218
345 2 0.103862 23.1231 8.64057
346 2 3.97484 22.9824 8.50013
347 2 7.85522 23.2301 8.37392
348 2 11.8757 23.1883 8.52345
349 2 -0.145884 26.9734 8.45687
350 2 3.9071 26.9456 8.34187
351 2 7.91091 26.9076 8.41318
352 2 11.922 27.0765 8.33004
353 2 0.120168 31.0762 8.4898
354 2 3.6645 31.0173 8.31629
355 2 7.82381 30.848 8.43588
356 2 12.0251 30.9192 8.46118
357 2 15.5363 35.1236 8.37954
358 2 3.69434 35.2753 8.31112
359 2 7.73688 34.7368 8.41878
360 2 11.7925 35.0153 8.31702
361 2 -0.115613 39.1968 8.37781
362 2 4.07677 39.1088 8.44602
363 2 7.7998 39.1498 8.50979
364 2 11.6989 39.1193 8.54559
365 2 0.00444861 43.0422 8.59074
366 2 4.12874 42.9949 8.5593
367 2 8.0507 43.092 8.57882
368 2 11.8395 42.9839 8.47858
369 2 0.0128652 47.2354 8.54913
370 2 3.96915 47.2227 8.59388
371 2 8.07042 47.0629 8.75626
372 2 12.0232 47.0889 8.76282
373 2 15.8745 51.1798 8.57207
374 2 3.83624 51.0157 8.75526
375 2 8.06086 51.0545 8.72224
376 2 11.8269 51.1573 8.72129
377 2 15.8765 55.1877 8.82276
378 2 3.92365 55.0997 8.77429
379 2 7.64142 55.1659 8.79419
380 2 11.7473 55.25 8.84586
381 2 -0.0374356 59.2907 8.89956
382 2 3.71472 59.2763 8.85299
383 2 7.86069 59.2031 8.77323
384 2 11.8236 59.1865 8.92936
385 2 -0.183063 63.293 8.933
386 2 3.90817 63.2401 8.89252
387 2 7.96787 63.1667 8.86632
388 2 11.5927 63.4192 8.95742
389 2 15.773 67.2066 8.97709
390 2 4.0203 67.2129 8.97714
391 2 7.74649 67.0427 9.16996
392 2 11.7539 67.3739 8.90086
393 2 15.7136 71.1661 9.15644
394 2 3.88102 71.2895 8.87686
395 2 7.89636 71.2188 9.19266
396 2 11.999 71.2048 9.08661
397 2 15.7192 75.4092 9.1772
398 2 3.84937 75.3738 9.01948
399 2 8.03686 75.3157 9.16664
400 2 11.9047 75.2598 8.91936
401 2 15.7847 79.5358 9.28067
402 2 3.90647 79.4244 9.35571
403 2 7.86853 79.4244 9.29305
404 2 11.6914 79.4959 9.27979
405 2 0.0706534 83.4485 9.20344
406 2 3.71324 83.4434 9.2826
407 2 7.73235 83.4565 9.4249
408 2 11.9439 83.4277 9.53766
409 2 -0.187549 87.4496 9.44033
410 2 4.00298 87.451 9.19714
411 2 7.85073 87.2561 9.45599
412 2 11.7041 87.4612 9.50816
413 2 0.0305058 91.1576 9.57356
414 2 3.75308 91.3958 9.41902
415 2 7.91065 91.4159 9.51527
416 2 12.0909 91.3336 9.57855
417 2 15.7315 95.1444 9.48306
418 2 3.97196 95.3117 9.66766
419 2 8.00899 95.3656 9.45847
420 2 11.8767 95.3412 9.44613
421 2 15.7991 99.2826 9.56119
422 2 3.94032 99.3065 9.44263
423 2 7.85399 99.4064 9.373
424 2 11.8372 99.3092 9.39057
425 2 0.0114466 103.332 9.35155
426 2 3.96805 103.31 9.29569
427 2 7.62684 103.223 9.04313
428 2 11.9119 103.257 9.37287
429 2 -0.0109723 107.253 9.47019
430 2 3.91634 107.295 9.2747
431 2 7.87099 107.041 9.35971
432 2 11.9513 107.174 9.27097
433 2 15.727 110.986 9.18741
434 2 4.15877 111.012 9.22155
435 2 7.86513 111.013 9.23288
436 2 11.7958 111.002 9.32714
437 2 -0.0239171 114.992 9.24094
438 2 3.99123 114.987 9.15066
439 2 7.85419 114.843 9.23447
440 2 11.6687 114.925 9.30346
441 2 -0.0967735 118.953 9.19049
442 2 3.88176 118.96 9.18503
443 2 7.9857 118.777 9.2951
444 2 12.0099 118.967 9.16754
445 2 15.8443 122.846 9.02206
446 2 3.91923 122.773 8.9293
447 2 7.80717 122.702 8.91483
448 2 11.9154 122.861 9.07561
449 2 15.8492 126.773 9.02121
450 2 3.96844 126.713 9.02223
451 2 7.86375 126.496 8.92507
452 2 11.8417 126.595 9.11735
453 2 -0.0242158 130.534 9.04558
454 2 3.81802 130.689 8.95657
455 2 7.87147 130.614 9.19048
456 2 11.9317 130.639 8.88423
457 2 -0.00704489 134.531 9.06218
458 2 3.86402 134.459 9.1453
459 2 7.97468 134.493 9.07521
460 2 11.9499 134.53 9.14069
461 2 -0.170968 138.397 8.98374
462 2 3.9354 138.508 8.94599
463 2 7.69346 138.517 8.89904
464 2 11.7339 138.234 9.10652
465 2 0.0260392 142.327 8.92383
466 2 4.00051 142.426 8.77685
467 2 7.81862 142.301 8.82256
468 2 11.734 142.451 8.91477
469 2 15.8796 146.374 8.93208
470 2 4.09754 146.359 8.73702
471 2 7.92829 146.525 8.72996
472 2 11.9445 146.22 8.70921
473 2 15.8573 150.205 8.81673
474 2 3.8621 150.18 8.69855
475 2 7.94328 150.255 8.866
476 2 11.842 150.238 8.79547
477 2 15.8056 154.092 8.70199
478 2 3.96985 154.214 8.69301
479 2 7.77554 153.951 8.70614
480 2 11.746 154.065 8.86106
481 2 15.9558 158.122 12.6617
482 2 4.08467 158.018 12.9087
483 2 8.07677 157.993 12.8136
484 2 11.7822 158.069 12.8842
485 2 15.7559 3.75496 12.7361
486 2 3.87233 3.65405 12.6539
487 2 8.02771 3.51418 12.4824
488 2 11.8294 3.46906 12.7267
489 2 15.9018 7.78969 12.452
490 2 4.06691 7.51259 12.8244
491 2 7.68232 7.37029 12.7438
492 2 11.7907 7.45226 12.8036
493 2 -0.0361005 11.2842 12.5193
494 2 3.93187 11.5772 12.647
495 2 7.84052 11.3171 12.6508
496 2 11.7681 11.3789 12.4946
497 2 -0.21169 15.294 12.5717
498 2 3.89076 15.3048 12.5314
499 2 7.79427 15.4715 12.6672
500 2 11.6841 15.3792 12.7581
501 2 -0.0479428 19.2151 12.5515
502 2 3.76709 19.2134 12.4874
503 2 8.01138 19.2854 12.3784
504 2 11.9522 19.2279 12.528
505 2 -0.00528453 23.1305 12.4276
506 2 3.84835 23.0671 12.4825
507 2 7.84574 23.1948 12.5142
508 2 11.8 23.2803 12.4605
509 2 0.0892077 27.0714 12.6277
510 2 3.73793 27.1976 12.4686
511 2 7.72133 27.029 12.4871
512 2 11.8594 27.0583 12.4935
513 2 0.0510634 31.0097 12.3606
514 2 3.92785 31.0825 12.5039
515 2 7.67649 30.9439 12.1836
516 2 11.7662 30.933 12.4173
517 2 0.0550078 35.0813 12.4189
518 2 3.76716 35.0324 12.3001
519 2 7.89247 34.8995 12.3652
520 2 12.0054 34.912 12.3705
521 2 -0.11299 39.005 12.6061
522 2 3.89473 38.8719 12.4487
523 2 7.81555 38.9601 12.4229
524 2 11.6551 39.0179 12.3626
525 2 -0.0136521 43.2204 12.6369
526 2 3.83533 43.0521 12.3928
527 2 7.75198 43.2222 12.7155
528 2 11.9327 42.9938 12.2118
529 2 0.0202891 47.0022 12.6556
530 2 4.02732 47.1614 12.4898
531 2 7.66458 47.0479 12.4789
532 2 11.8691 47.1745 12.6226
533 2 -0.0296104 51.1133 12.722
534 2 3.89836 50.9944 12.7472
535 2 8.04982 51.0504 12.6849
536 2 11.9727 51.001 12.7476
537 2 15.985 55.1524 12.8024
538 2 4.13361 54.9816 12.6518
539 2 7.99313 55.2283 12.8049
540 2 12.1503 55.2773 12.5981
541 2 16.0082 59.1809 12.7984
542 2 3.88675 59.2388 12.8912
543 2 8.0686 59.153 12.6854
544 2 11.9893 59.261 12.8412
545 2 15.8015 63.1198 12.7142
546 2 4.07248 63.3222 13.0432
547 2 7.82475 63.0461 12.773
548 2 11.8805 63.2598 12.653
549 2 0.0752388 67.299 12.8388
550 2 3.91229 67.1119 13.0381
551 2 8.0098 67.2997 12.9846
552 2 12.0379 67.1473 13.0241
553 2 0.128146 71.4338 13.0519
554 2 3.99332 71.2533 13.003
555 2 7.76348 71.3501 13.2431
556 2 12.0345 71.221 13.013
557 2 0.0311638 75.2568 13.1792
558 2 3.86831 75.1631 13.062
559 2 7.88004 75.3316 12.94
560 2 11.8225 75.1639 13.2452
561 2 0.00462909 79.3655 13.1211
562 2 4.12027 79.4335 13.0911
563 2 7.90825 79.1115 13.2128
564 2 11.9814 79.1633 13.2714
565 2 0.0799581 83.2309 13.1586
566 2 4.13545 83.4368 13.3539
567 2 7.87881 83.3669 13.3881
568 2 11.9407 83.4092 13.3901
569 2 0.0268915 87.4275 13.4222
570 2 3.94424 87.4308 13.3338
571 2 7.94898 87.3271 13.2836
572 2 11.7746 87.4255 13.2761
573 2 0.0406548 91.3276 13.4709
574 2 3.90359 91.2666 13.4128
575 2 7.74244 91.3004 13.4344
576 2 11.6037 91.4133 13.5189
577 2 -0.201362 95.3592 13.6039
578 2 3.79588 95.2715 13.4377
579 2 7.67331 95.3758 13.4395
580 2 11.8137 95.4001 13.3735
581 2 -0.0979001 99.2607 13.3822
582 2 3.99322 99.1719 13.3573
583 2 7.88813 99.2935 13.5499
584 2 11.7575 99.3326 13.3986
585 2 -0.0549771 103.101 13.2115
586 2 3.8112 103.235 13.3713
587 2 7.8515 103.417 13.5311
588 2 11.6535 103.175 13.1556
589 2 -0.108687 107.034 13.4369
590 2 3.89894 107.17 13.1592
591 2 7.89052 107.118 13.5202
592 2 11.6836 107.225 13.3618
593 2 -0.152193 111.253 13.1599
594 2 4.0654 111.179 13.3959
595 2 7.81627 111.305 13.3191
596 2 11.7416 110.929 13.3268
597 2 -0.00215795 114.929 13.0511
598 2 3.97383 115.054 13.1639
599 2 7.88911 115.022 13.1527
600 2 11.8764 114.951 13.2846
601 2 0.100894 118.783 13.1014
602 2 3.85886 118.915 13.1523
603 2 7.91361 118.861 13.0849
604 2 12.1095 119.01 13.2097
605 2 0.0140204 122.82 13.1047
606 2 3.8203 122.744 13.2619
607 2 7.88205 122.681 13.1414
608 2 11.9753 122.816 13.1095
609 2 -0.0323921 126.638 13.1037
610 2 3.93151 126.634 13.0944
611 2 7.83702 126.692 13.0277
612 2 11.6018 126.606 13.0322
613 2 15.6414 130.572 13.2502
614 2 3.94484 130.616 13.03
615 2 7.95761 130.686 13.1097
616 2 11.7925 130.565 13.0713
617 2 15.7999 134.338 13.0323
618 2 3.8874 134.507 12.955
619 2 7.94618 134.377 12.9761
620 2 11.9956 134.646 13.0359
621 2 0.104415 138.629 12.8551
622 2 4.1032 138.604 13.072
623 2 7.75516 138.432 13.0527
624 2 11.864 138.565 13.0715
625 2 15.7424 142.404 12.9395
626 2 3.7053 142.37 12.7449
627 2 7.691 142.456 12.912
628 2 11.7339 142.365 12.9423
629 2 -0.0889028 146.223 12.9844
630 2 3.8991 146.261 13.0028
631 2 7.88237 146.236 12.9452
632 2 12.0147 146.098 12.7312
633 2 0.18994 150.066 12.7416
634 2 3.8882 150.325 12.8594
635 2 7.90349 150.054 12.7864
636 2 11.9697 150.266 12.9896
637 2 15.7209 154.07 12.7405
638 2 3.85791 154.085 12.851
639 2 7.8528 154.102 12.785
640 2 11.881 154.201 12.9875
641 2 0.0172247 158.018 16.7173
642 2 4.14243 -0.124213 16.8699
643 2 8.05773 158.056 16.8684
644 2 12.0349 158.259 16.7761
645 2 15.8761 3.64786 16.7995
646 2 4.07021 3.65959 16.7569
647 2 7.99404 3.76024 16.9159
648 2 11.9602 3.78228 16.8192
649 2 0.127999 7.47401 16.5464
650 2 4.02109 7.52311 16.781
651 2 7.95703 7.49407 16.9263
652 2 11.6701 7.49177 16.7684
653 2 -0.119333 11.4694 16.716
654 2 3.79938 11.4862 16.7038
655 2 7.82386 11.438 16.7561
656 2 11.791 11.4432 16.7903
657 2 0.0501081 15.3741 16.4954
658 2 3.89218 15.3662 16.4404
659 2 7.81867 15.1889 16.5469
660 2 11.8305 15.3523 16.6367
661 2 15.5979 19.3508 16.6576
662 2 3.72823 19.222 16.6174
663 2 7.69949 19.3496 16.6935
664 2 11.5497 19.2496 16.6257
665 2 -0.111616 23.2266 16.4808
666 2 3.9619 23.1317 16.363
667 2 7.97826 23.3566 16.4563
668 2 11.703 23.2556 16.5694
669 2 0.0181298 27.0138 16.3504
670 2 4.12593 27.3608 16.4312
671 2 7.90058 27.3099 16.6114
672 2 11.8916 27.351 16.4551
673 2 0.143685 31.2734 16.4748
674 2 3.82502 31.3995 16.5279
675 2 7.78268 31.1477 16.4895
676 2 11.702 31.1364 16.4623
677 2 -0.127575 35.0431 16.2621
678 2 3.76325 35.0343 16.4238
679 2 7.93179 34.8422 16.2553
680 2 11.834 34.75 16.3754
681 2 -0.12549 38.7683 16.485
682 2 4.12486 38.9692 16.415
683 2 7.80385 38.9666 16.2586
684 2 11.6041 38.9347 16.3461
685 2 0.0215761 42.8292 16.2526
686 2 3.82386 42.8664 16.3792
687 2 7.99823 42.9883 16.4282
688 2 11.7532 42.9381 16.4276
689 2 15.8346 47.0882 16.6456
690 2 3.91439 47.0165 16.3385
691 2 7.97729 46.9909 16.5449
692 2 11.7584 47.0322 16.4297
693 2 0.125505 51.1156 16.6214
694 2 3.88042 50.8635 16.4617
695 2 8.19835 51.109 16.6666
696 2 12.0294 51.1588 16.5685
697 2 0.103062 54.9471 16.8649
698 2 3.98766 55.1082 16.5417
699 2 7.9482 55.0045 16.5148
700 2 11.8512 55.0304 16.7574
701 2 0.201692 59.1759 16.6036
702 2 4.00686 59.0449 16.5366
703 2 7.87478 59.1449 16.5384
704 2 11.9246 59.0765 16.5596
705 2 -0.0331016 63.1232 16.6737
706 2 3.86462 63.1549 16.7095
707 2 7.888 63.156 16.9527
708 2 11.7714 63.1154 16.8469
709 2 -0.129622 67.2683 16.9601
710 2 3.83879 67.1658 16.9027
711 2 7.79597 67.111 16.9433
712 2 11.6402 67.3377 16.7183
713 2 -0.0513341 71.1591 16.8986
714 2 3.88655 71.2266 16.8927
715 2 7.78721 71.2146 16.8205
716 2 11.8166 71.1725 16.8636
717 2 -0.0216585 75.0715 16.9981
718 2 3.70833 75.197 17.1518
719 2 7.89541 75.2537 16.9692
720 2 12.0489 75.2617 17.2172
721 2 0.036033 79.3946 16.8946
722 2 3.86018 79.2379 17.2111
723 2 7.8102 79.3568 17.1472
724 2 11.8508 79.1386 16.9549
725 2 0.12304 83.2318 17.0839
726 2 3.9636 83.3267 17.0165
727 2 8.03291 83.3928 17.2693
728 2 11.8641 83.3156 17.2711
729 2 -0.0481518 87.1082 17.0724
730 2 3.87108 87.1984 17.279
731 2 7.84333 87.3418 17.3179
732 2 11.8682 87.3769 17.0985
733 2 0.169046 91.4399 17.296
734 2 4.27948 91.3114 17.3885
735 2 7.86229 91.3589 17.4956
736 2 11.7027 91.5194 17.48
737 2 0.0532994 95.5641 17.3743
738 2 3.82744 95.2409 17.2414
739 2 7.80724 95.3278 17.553
740 2 11.841 95.2058 17.4066
741 2 -0.0122028 99.35 17.2929
742 2 3.98143 99.4943 17.3863
743 2 7.86268 99.2978 17.3527
744 2 11.8303 99.3577 17.3006
745 2 -0.0697745 103.24 17.2072
746 2 3.91537 103.504 17.3242
747 2 7.98863 103.226 17.6498
748 2 11.9072 103.206 17.4613
749 2 0.0451859 107.409 17.3507
750 2 3.94344 107.427 17.2872
751 2 7.97893 107.144 17.2532
752 2 12.0127 107.316 17.4134
753 2 0.104955 111.146 17.1996
754 2 3.96444 111.278 17.2623
755 2 7.7895 111.205 17.1696
756 2 11.8415 111.045 17.2361
757 2 -0.018957 115.019 17.1855
758 2 3.93697 114.968 17.2312
759 2 8.00191 115.194 17.2765
760 2 11.8609 115.068 17.3478
761 2 -0.0362909 118.847 17.0374
762 2 3.92486 119.046 17.3115
763 2 8.06 118.82 17.0324
764 2 12.1173 118.9 17.1061
765 2 0.00609451 122.96 17.1771
766 2 3.8806 122.909 17.3558
767 2 7.86456 122.812 17.0757
768 2 11.9502 122.866 17.1834
769 2 15.7504 126.86 16.8637
770 2 3.85333 126.709 17.1707
771 2 7.94868 126.751 17.1718
772 2 11.6902 126.618 17.0622
773 2 15.8492 130.84 17.0824
774 2 3.99816 130.713 17.2177
775 2 7.97549 130.633 16.8399
776 2 11.9442 130.494 17.0683
777 2 15.8601 134.614 17.0595
778 2 4.00024 134.554 16.9942
779 2 7.86801 134.597 17.038
780 2 11.8144 134.592 17.0204
781 2 0.101898 138.431 16.8728
782 2 4.0205 138.373 17.0484
783 2 7.8327 138.386 16.9108
784 2 11.9079 138.485 16.821
785 2 15.8105 142.395 17.1783
786 2 3.8262 142.566 17.0157
787 2 7.83339 142.392 16.9847
788 2 11.8927 142.234 17.0278
789 2 15.7341 146.388 16.9871
790 2 3.87057 146.262 17.059
791 2 7.98329 146.212 16.9245
792 2 11.8584 146.291 16.9023
793 2 15.7685 150.201 16.71
794 2 3.79267 150.216 16.8362
795 2 8.02354 150.003 16.7207
796 2 11.8748 150.379 16.8842
797 2 15.8762 154.218 16.7316
798 2 4.04188 154.281 16.8232
799 2 7.84928 154.171 16.9384
800 2 12.0419 154.011 16.7767
801 2 15.9302 158.174 20.7396
802 2 3.91502 158.109 20.9105
803 2 7.90221 158.307 20.8165
804 2 11.8932 158.053 20.7163
805 2 0.0420314 3.69687 20.7427
806 2 3.89357 3.83059 20.8259
807 2 7.95211 3.71818 20.8565
808 2 11.8289 3.66884 20.7851
809 2 15.944 7.62975 20.6751
810 2 4.01233 7.52508 20.8508
811 2 7.98017 7.56521 20.9036
812 2 11.992 7.65815 20.6071
813 2 15.6974 11.4746 20.8436
814 2 3.76822 11.6048 20.7659
815 2 7.81879 11.5827 20.759
816 2 11.9235 11.6829 20.5679
817 2 15.8236 15.3147 20.6756
818 2 3.90296 15.5917 20.6947
819 2 7.79521 15.3034 20.6107
820 2 11.7761 15.4505 20.6502
821 2 -0.0150624 19.3036 20.5656
822 2 3.90253 19.4647 20.7067
823 2 7.90409 19.1502 20.6524
824 2 11.9085 19.5937 20.701
825 2 0.0910458 23.4277 20.4465
826 2 4.09945 23.3652 20.618
827 2 8.09328 23.2897 20.5553
828 2 12.0657 23.3581 20.4
829 2 15.8086 27.4258 20.3736
830 2 3.69237 27.217 20.4813
831 2 7.97727 27.2297 20.4574
832 2 11.9518 27.0886 20.3613
833 2 15.8996 31.1537 20.2179
834 2 4.18072 31.1788 20.4258
835 2 8.00473 31.1609 20.4143
836 2 12.0392 31.1679 20.4402
837 2 15.8441 35.1094 20.4258
838 2 3.89911 35.0694 20.5819
839 2 7.70994 34.9908 20.446
840 2 11.9112 35.113 20.3329
841 2 -0.179757 38.8963 20.3568
842 2 4.00245 38.7317 20.4719
843 2 7.85083 38.9116 20.3231
844 2 11.6909 39.0066 20.4158
845 2 15.7663 42.8106 20.061
846 2 4.13049 42.7155 20.3104
847 2 8.02403 42.6658 20.5819
848 2 11.9892 42.7834 20.3834
849 2 15.7686 46.8008 20.4274
850 2 4.24215 46.8606 20.3479
851 2 7.98824 46.768 20.277
852 2 12.0986 46.9276 20.4403
853 2 0.105527 51.026 20.5063
854 2 4.05867 50.9008 20.4353
855 2 8.00452 50.8516 20.4059
856 2 12.0296 50.8433 20.5563
857 2 0.220067 55.07 20.694
858 2 4.17182 55.0866 20.5342
859 2 8.06451 55.1528 20.4583
860 2 12.0481 54.9679 20.5881
861 2 15.8619 58.9599 20.5989
862 2 4.00432 59.0441 20.4037
863 2 7.939 58.8513 20.548
864 2 11.8188 58.896 20.6753
865 2 15.8568 62.9762 20.5982
866 2 3.76219 63.0811 20.6728
867 2 7.8783 63.1014 20.7014
868 2 11.9532 63.0173 20.8041
869 2 0.0808283 67.1367 20.7736
870 2 3.98735 67.1202 20.5811
871 2 7.89489 67.2092 20.8811
872 2 11.8188 67.042 20.7236
873 2 -0.0340259 71.1113 20.8528
874 2 4.10524 71.4749 20.8337
875 2 7.98902 71.1558 20.7945
876 2 11.7775 71.1277 20.7914
877 2 -0.05421 75.2944 20.9574
878 2 4.13101 75.1474 20.8717
879 2 8.14042 75.2341 20.8432
880 2 11.7667 75.1477 20.921
881 2 -0.160994 79.2649 20.8807
882 2 4.01834 79.1834 21.1992
883 2 7.9295 79.187 20.9684
884 2 12.0483 79.1801 20.9785
885 2 0.289524 83.0598 21.1557
886 2 3.92242 83.2198 21.0111
887 2 8.06675 83.0625 21.0415
888 2 11.9438 83.1788 21.0948
889 2 0.0378286 87.1911 21.0208
890 2 4.06459 87.279 21.1125
891 2 7.9382 87.2375 21.2011
892 2 11.9889 87.2152 21.025
893 2 -0.052005 91.3347 21.2697
894 2 3.79718 91.2452 21.5672
895 2 7.95879 91.2659 21.3547
896 2 12.0102 91.1813 21.2104
897 2 -0.00698904 95.289 21.3008
898 2 3.98795 95.2326 21.2372
899 2 7.86697 95.3324 21.4211
900 2 11.9782 95.1241 21.3157
901 2 0.0739149 99.4673 21.3203
902 2 4.05021 99.3903 21.2889
903 2 7.94489 99.2021 21.3345
904 2 12.137 99.3256 21.3405
905 2 0.153424 103.332 21.4234
906 2 4.08155 103.377 21.3079
907 2 8.00802 103.189 21.4741
908 2 12.0818 103.236 21.4366
909 2 0.0496405 107.16 21.4221
910 2 3.94516 106.993 21.2497
911 2 7.96517 107.014 21.2778
912 2 11.8527 107.294 21.4095
913 2 -0.0307576 111.171 21.1412
914 2 3.87569 111.32 21.2238
915 2 7.7851 111.053 21.382
916 2 11.6517 111.011 21.1511
917 2 15.7185 115.126 21.2625
918 2 4.05425 115.112 21.4468
919 2 8.07481 115.172 21.1696
920 2 11.7917 114.947 21.1257
921 2 -0.0847887 119.118 21.2059
922 2 4.01068 119.056 21.017
923 2 7.82228 119.057 21.1617
924 2 11.9059 119.022 21.1797
925 2 15.8776 122.898 21.3737
926 2 4.2211 122.845 21.2162
927 2 7.94182 122.878 21.199
928 2 11.7519 122.92 21.2836
929 2 15.8617 126.732 21.1282
930 2 4.04036 126.764 21.2599
931 2 7.82691 126.754 21.151
932 2 12.1045 126.723 21.0883
933 2 15.9153 130.759 20.9944
934 2 3.94271 130.507 21.0389
935 2 7.92792 130.802 21.2019
936 2 11.9845 130.737 21.0654
937 2 -0.0511867 134.575 21.127
938 2 4.0869 134.806 21.1043
939 2 8.08041 134.621 21.0232
940 2 11.8653 134.669 21.0525
941 2 15.7769 138.298 21.1785
942 2 3.80068 138.625 21.2411
943 2 8.10336 138.678 20.9349
944 2 11.9812 138.611 20.8988
945 2 15.9651 142.26 20.955
946 2 4.03936 142.389 21.1955
947 2 7.85591 142.527 21.0466
948 2 11.9321 142.678 21.0035
949 2 16.0392 146.299 21.0217
950 2 3.97701 146.524 21.0231
951 2 7.86381 146.465 21.1005
952 2 11.7766 146.492 21.061
953 2 15.8545 150.24 20.8493
954 2 3.76694 150.293 20.9028
955 2 7.74409 150.471 20.8339
956 2 11.7456 150.392 20.9142
957 2 15.7642 154.347 20.9075
958 2 3.80835 154.176 20.7641
959 2 7.95329 154.352 20.8165
960 2 11.873 154.188 20.899
961 2 0.0102754 158.113 24.9753
962 2 4.08448 158.067 24.9143
963 2 8.03217 158.113 24.7557
964 2 11.9997 158.098 25.029
965 2 15.793 3.74552 24.8132
966 2 4.01607 3.78503 24.93
967 2 7.94665 3.74827 24.9002
968 2 11.8997 3.65413 24.7179
969 2 15.717 7.39032 24.8103
970 2 3.92825 7.77906 24.6776
971 2 7.86891 7.51199 24.7271
972 2 11.7155 7.66954 24.5999
973 2 15.8946 11.5957 24.7152
974 2 4.02046 11.5203 24.7124
975 2 7.84286 11.5855 24.6486
976 2 12.1597 11.6335 24.6963
977 2 0.0950817 15.5545 24.8306
978 2 3.95509 15.5034 24.7325
979 2 7.92133 15.3785 24.4892
980 2 11.7943 15.4591 24.7667
981 2 -0.0564651 19.4507 24.7331
982 2 3.83852 19.5376 24.7399
983 2 7.71565 19.3179 24.6661
984 2 11.8501 19.3471 24.5954
985 2 -0.146563 23.3475 24.5559
986 2 3.93589 23.3899 24.4337
987 2 8.07049 23.23 24.5857
988 2 11.8232 23.3135 24.5944
989 2 0.0769434 27.3009 24.5822
990 2 3.98973 27.2173 24.4655
991 2 7.9293 27.1792 24.4855