ITEM: TIMESTEP
21200
ITEM: NUMBER OF ATOMS
32000
ITEM: BOX BOUNDS xy xz yz pp pp pp
0.0000000000000000e+00 1.5832000000000001e+01 0.0000000000000000e+00
0.0000000000000000e+00 1.5831999999999999e+02 0.0000000000000000e+00
8.2602404167478483e-01 1.6015109395832161e+02 0.0000000000000000e+00
ITEM: ATOMS id type x y z
1 2 15.786 157.916 159.911
2 2 3.81694 157.902 159.935
3 2 7.7345 157.67 160.025
4 2 11.9052 158.023 160.035
5 2 -0.0315163 3.42648 159.97
6 2 3.91058 3.65799 159.807
7 2 7.99232 3.27266 159.928
8 2 11.9018 3.46737 159.9
9 2 15.709 7.53353 159.859
10 2 3.80803 7.56157 159.9
11 2 7.78705 7.20187 159.758
12 2 11.726 7.31181 160.014
13 2 15.5704 11.6125 159.693
14 2 3.89102 11.4612 159.913
15 2 7.87711 11.2462 159.742
16 2 11.7682 11.3009 159.863
17 2 -0.101252 15.3137 159.921
18 2 3.83085 15.252 159.929
19 2 7.964 15.3213 159.885
20 2 11.7084 15.2446 159.684
21 2 15.4946 19.257 159.828
22 2 3.75656 19.1845 159.651
23 2 7.8153 19.1618 159.875
24 2 11.9302 19.138 159.844
25 2 15.8035 23.0619 159.688
26 2 4.07634 23.0725 159.633
27 2 7.91743 23.0346 159.765
28 2 12.0434 23.0927 159.646
29 2 15.7362 27.0857 159.671
30 2 3.97691 27.1043 159.741
31 2 7.77748 27.1471 159.861
32 2 11.861 26.9764 159.644
33 2 15.8706 31.1207 159.838
34 2 3.87597 31.0371 0.593788
35 2 7.94431 31.1841 159.776
36 2 11.8054 31.0679 159.941
37 2 -0.0395698 35.1103 159.978
38 2 3.86233 35.0721 159.916
39 2 7.90425 35.1732 159.855
40 2 11.8385 35.0624 160.192
41 2 0.136353 39.1578 160.043
42 2 4.12239 39.1012 0.813127
43 2 7.74424 39.1804 0.798098
44 2 11.8276 39.36 0.655228
45 2 -0.135467 43.2994 160.055
46 2 4.11666 43.2499 160.019
47 2 8.035 43.2564 0.90418
48 2 11.9392 43.368 0.741883
49 2 0.0359255 47.3359 0.810147
50 2 4.19213 47.3099 0.735405
51 2 8.10396 47.3581 0.729856
52 2 12.0261 47.331 0.944988
53 2 -0.0806769 51.4059 0.783835
54 2 3.98527 51.1591 0.873948
55 2 7.89697 51.1634 1.17344
56 2 11.8711 51.2385 0.934491
57 2 15.8957 55.3922 1.05378
58 2 4.09726 55.3236 1.00239
59 2 7.78676 55.2538 0.956931
60 2 11.9973 55.1922 1.03256
61 2 -0.163901 59.3427 1.11699
62 2 4.00042 59.3118 1.06479
63 2 7.70093 59.3644 1.00096
64 2 11.5783 59.5653 0.795947
65 2 -0.00252716 63.4877 1.15652
66 2 3.92478 63.3804 1.10929
67 2 7.87881 63.5072 1.0058
68 2 11.6233 63.3836 1.02937
69 2 15.5115 67.5356 1.08404
70 2 3.81326 67.3781 1.21613
71 2 7.86042 67.3305 1.05199
72 2 11.9058 67.5266 1.01861
73 2 -0.183844 71.3493 1.35936
74 2 3.88419 71.3448 1.28523
75 2 7.83467 71.264 1.25088
76 2 11.7628 71.5611 1.16304
77 2 0.081736 75.5215 1.32749
78 2 4.16526 75.3835 1.44898
79 2 7.93197 75.2476 1.3576
80 2 12.0178 75.5974 1.34331
81 2 -0.154798 79.6571 1.29409
82 2 4.10003 79.2588 1.3985
83 2 7.85428 79.6104 1.42982
84 2 11.6644 79.3993 1.72158
85 2 0.0672062 83.4995 1.41327
86 2 3.99317 83.3517 1.43562
87 2 7.74985 83.3463 1.3455
88 2 11.9037 83.4306 1.67905
89 2 0.12734 87.1021 1.3029
90 2 4.06029 87.5398 1.56617
91 2 8.07934 87.6066 1.43906
92 2 11.984 87.3221 1.53471
93 2 0.0137251 91.214 1.38544
94 2 3.83412 91.4038 1.46911
95 2 7.82625 91.5384 1.27698
96 2 11.7213 91.2817 1.30495
97 2 15.5595 95.2018 1.23588
98 2 3.9135 95.2866 1.41903
99 2 8.01353 95.3853 1.40293
100 2 11.9476 95.2787 1.41982
101 2 -0.0281938 99.0836 1.3925
102 2 3.91023 99.1398 1.2926
103 2 7.71439 98.995 1.33343
104 2 11.87 99.2295 1.35924
105 2 -0.00885209 102.861 1.46264
106 2 3.91195 103.033 1.40866
107 2 8.02565 102.958 1.25621
108 2 12.0164 103.141 1.32736
109 2 -0.126649 107.141 1.26552
110 2 3.93328 106.91 1.23694
111 2 7.81715 106.881 1.062
112 2 11.9358 107.065 1.28846
113 2 -0.0512238 110.944 1.33194
114 2 3.77597 110.982 1.26805
115 2 7.79333 110.735 1.09508
116 2 11.8568 111.066 1.29496
117 2 15.7095 115.053 1.01289
118 2 3.91114 114.733 1.26864
119 2 7.82972 115.006 0.963429
120 2 11.7498 115.041 1.17233
121 2 -0.205471 118.724 1.06681
122 2 3.93065 118.707 1.08673
123 2 7.97667 118.741 1.03255
124 2 11.7638 118.786 0.827091
125 2 15.8688 122.639 0.895076
126 2 3.9212 122.666 1.02754
127 2 7.81844 122.965 0.92536
128 2 11.8819 122.705 1.1291
129 2 0.0168303 126.595 1.07962
130 2 3.75483 126.557 1.02693
131 2 7.72183 126.758 0.975273
132 2 11.7296 126.629 0.961875
133 2 15.6627 130.546 0.878899
134 2 3.75688 130.456 0.876567
135 2 7.89589 130.612 0.939979
136 2 11.846 130.49 1.09224
137 2 15.8016 134.47 0.850295
138 2 3.85137 134.507 1.13787
139 2 7.81783 134.551 160.33
140 2 11.8795 134.345 0.756991
141 2 -0.0142345 138.276 0.849926
142 2 3.94955 138.479 160.151
143 2 7.99834 138.186 160.121
144 2 11.8847 138.368 0.782796
145 2 15.7532 142.296 160.231
146 2 3.95831 142.3 160.302
147 2 7.9586 142.487 160.339
148 2 11.873 142.31 160.19
149 2 0.009219 146.113 160.231
150 2 3.88655 146.241 160.211
151 2 7.86388 146.159 160.226
152 2 12.0508 146.339 160.064
153 2 15.9206 150.049 160.031
154 2 3.8779 150.214 160.082
155 2 7.82855 150.149 160.285
156 2 11.7008 150.043 0.789026
157 2 15.5784 154.054 160.005
158 2 3.82932 154.187 159.929
159 2 7.91073 153.878 160.129
160 2 11.6018 153.904 159.837
161 2 15.7022 158.103 4.65112
162 2 3.87164 158.082 4.87861
163 2 7.70808 157.876 4.67866
164 2 11.7947 158.106 4.83977
165 2 -0.207804 3.6042 4.5881
166 2 3.754 3.63254 4.70416
167 2 7.71802 3.4925 4.76039
168 2 11.7017 3.71985 4.59876
169 2 -0.0280693 7.50449 4.52031
170 2 3.69341 7.55621 4.50403
171 2 7.82001 7.5767 4.57386
172 2 11.859 7.47274 4.57891
173 2 -0.131492 11.3956 4.60894
174 2 3.9187 11.2664 4.50892
175 2 7.85507 11.4314 4.56472
176 2 11.8603 11.2841 4.71556
177 2 15.8022 15.4488 4.67068
178 2 3.94414 15.0516 4.41755
179 2 7.9474 15.3393 4.58813
180 2 11.9372 15.2569 4.68633
181 2 0.0136024 19.2135 4.43825
182 2 4.03516 19.1883 4.35915
183 2 7.90357 19.2233 4.50823
184 2 11.8839 19.1333 4.49127
185 2 -0.129541 23.0895 4.52392
186 2 3.62158 22.9297 4.29466
187 2 7.89628 23.192 4.49302
188 2 11.8443 23.0893 4.39082
189 2 15.6281 26.9533 4.4013
190 2 3.76854 27.011 4.19648
191 2 7.71621 26.9628 4.48406
192 2 11.762 27.0434 4.41412
193 2 -0.0692369 30.9931 4.52296
194 2 3.98296 31.2418 4.43375
195 2 7.86634 30.9877 4.54401
196 2 11.9578 31.1009 4.63166
197 2 -0.181973 35.2576 4.41439
198 2 3.80913 35.1011 4.48628
199 2 7.84896 35.0197 4.52259
200 2 11.8639 35.0138 4.58798
201 2 15.9727 39.299 4.66103
202 2 4.02997 39.2661 4.81479
203 2 8.02852 39.0873 4.59252
204 2 11.8627 39.0994 4.64408
205 2 -0.0425472 43.0161 4.71837
206 2 3.86141 43.0314 4.76013
207 2 7.89529 43.3379 4.78436
208 2 11.8761 43.1876 4.57679
209 2 0.127083 47.075 4.70639
210 2 3.89897 47.1788 4.62569
211 2 7.89841 47.2613 5.00557
212 2 12.1395 47.2167 4.75227
213 2 0.0809111 51.1817 4.78607
214 2 3.88989 51.2605 4.64631
215 2 7.88733 51.0896 4.83544
216 2 11.8725 51.1323 4.83995
217 2 -0.0697055 55.3675 4.6686
218 2 3.80946 55.2341 5.04748
219 2 7.97272 55.1753 4.80694
220 2 11.841 55.1088 4.8583
221 2 15.6979 59.3729 5.08882
222 2 3.92013 59.1802 4.99429
223 2 8.10756 59.2687 4.91109
224 2 11.9207 59.1962 4.67757
225 2 -0.0150349 63.3965 5.09027
226 2 3.78094 63.2993 5.02558
227 2 7.74462 63.3449 4.89232
228 2 11.8142 63.2056 4.92675
229 2 15.7299 67.4279 5.1041
230 2 4.00439 67.467 5.14548
231 2 7.95987 67.3227 4.99606
232 2 11.8823 67.2294 5.16711
233 2 15.7735 71.4222 5.28922
234 2 3.81453 71.5122 5.13474
235 2 7.87512 71.3352 5.10386
236 2 11.7739 71.4501 4.9908
237 2 15.6649 75.3132 5.25025
238 2 3.97411 75.5315 5.25596
239 2 7.82553 75.5519 5.24455
240 2 11.8583 75.5451 5.32961
241 2 0.0831646 79.3534 5.18471
242 2 3.91425 79.4915 5.30819
243 2 8.08262 79.4642 5.50208
244 2 11.9238 79.5894 5.59697
245 2 15.7458 83.4284 5.47222
246 2 4.00743 83.5075 5.30184
247 2 7.76683 83.6648 5.51307
248 2 11.8321 83.5173 5.5447
249 2 -0.12655 87.4462 5.37607
250 2 3.79409 87.4585 5.29427
251 2 8.12415 87.4907 5.39303
252 2 11.8956 87.4473 5.52552
253 2 -0.0884494 91.3395 5.45173
254 2 3.9162 91.3303 5.48108
255 2 7.78402 91.5897 5.35401
256 2 11.7767 91.3893 5.47679
257 2 15.9047 95.3834 5.46972
258 2 4.02114 95.2667 5.46812
259 2 7.91896 95.3818 5.50153
260 2 11.6581 95.1884 5.40377
261 2 0.123961 99.3372 5.40209
262 2 3.97786 99.3236 5.37387
263 2 7.77015 99.1769 5.35834
264 2 11.8838 99.2165 5.40575
265 2 -0.0259718 103.112 5.34097
266 2 4.06132 103.054 5.2411
267 2 7.94388 103.125 5.21621
268 2 11.8995 103.113 5.31387
269 2 15.715 106.919 5.40552
270 2 3.92857 106.904 5.29241
271 2 7.95049 107.011 5.04958
272 2 11.6561 107.041 5.32473
273 2 15.5693 111.1 5.20763
274 2 3.99489 110.867 5.00937
275 2 7.76398 111.023 5.25217
276 2 11.5927 111.001 5.10689
277 2 -0.217424 115.024 5.28927
278 2 3.72703 114.861 5.09916
279 2 7.74544 114.926 5.14694
280 2 11.731 114.657 5.09171
281 2 0.125767 118.803 5.19558
282 2 3.83083 118.816 5.267
283 2 7.91977 118.839 4.96046
284 2 11.8245 118.61 5.14874
285 2 15.9296 122.736 5.024
286 2 4.07815 122.582 5.02237
287 2 7.96262 122.794 5.14882
288 2 11.8917 122.68 5.0045
289 2 -0.0681171 126.569 4.9846
290 2 3.91988 126.627 5.07973
291 2 7.93786 126.585 4.93225
292 2 11.8928 126.596 5.04741
293 2 -0.151603 130.515 4.97851
294 2 3.87116 130.427 4.94322
295 2 7.76801 130.45 4.96906
296 2 11.7434 130.669 4.98438
297 2 15.8836 134.58 5.07335
298 2 3.99855 134.414 4.93132
299 2 8.01197 134.512 4.83279
300 2 11.8229 134.503 5.04849
301 2 -0.0124048 138.398 5.03568
302 2 3.9512 138.547 4.80566
303 2 7.8502 138.297 4.85647
304 2 11.9748 138.438 4.98086
305 2 -0.0984585 142.454 5.14222
306 2 3.93554 142.314 4.89171
307 2 7.8968 142.394 4.93541
308 2 11.6852 142.353 5.03697
309 2 15.7989 146.162 4.74468
310 2 3.94821 146.327 4.66096
311 2 7.80264 146.169 4.89499
312 2 11.7298 146.331 4.95317
313 2 15.7365 150.19 4.89315
314 2 3.82081 150.243 4.56604
315 2 7.98538 150.261 4.8762
316 2 11.8296 150.209 4.93664
317 2 15.5867 153.96 4.74733
318 2 3.59001 154.338 4.70178
319 2 7.85754 154.037 4.88351
320 2 11.8382 154.126 4.7716
321 2 15.6683 158.092 8.66089
322 2 3.78438 158.029 8.76263
323 2 7.74501 158.07 8.82134
324 2 11.7 158.024 8.93262
325 2 16.0014 3.54144 8.58999
326 2 3.85556 3.82035 8.70567
327 2 7.78952 3.47261 8.59603
328 2 11.7741 3.52587 8.727
329 2 15.6617 7.43972 8.69359
330 2 4.02165 7.38075 8.72273
331 2 7.87133 7.53222 8.56448
332 2 11.7195 7.41908 8.68156
333 2 -0.0544642 11.2874 8.7039
334 2 4.19756 11.389 8.63296
335 2 7.8696 11.2408 8.81858
336 2 12.0388 11.4469 8.59133
337 2 15.9505 15.2763 8.69109
338 2 3.91779 15.0575 8.51842
339 2 8.02803 15.525 8.42754
340 2 11.8908 15.3353 8.65888
341 2 -0.0150968 19.0005 8.52395
342 2 3.92877 18.9911 8.43949
343 2 7.72179 19.4117 8.48773
344 2 11.8189 19.1602 8.54434
345 2 0.00900107 23.2346 8.3578
346 2 3.97889 23.2919 8.46819
347 2 8.03913 23.1054 8.51295
348 2 11.8377 23.1327 8.42532
349 2 0.135179 27.0228 8.36632
350 2 4.08683 27.0589 8.32223
351 2 7.86968 27.0941 8.22774
352 2 11.8448 27.0336 8.56465
353 2 -0.204534 30.9906 8.44257
354 2 3.88782 31.1123 8.46079
355 2 7.77852 31.1129 8.34695
356 2 11.7503 31.0917 8.39089
357 2 15.7868 35.0656 8.73693
358 2 3.81295 35.0412 8.43387
359 2 7.94387 35.1401 8.45072
360 2 11.7343 34.9713 8.53088
361 2 0.0312235 39.0088 8.79706
362 2 3.9556 39.0449 8.56856
363 2 7.99433 39.0036 8.6018
364 2 11.9171 39.0932 8.39377
365 2 0.0685387 43.1401 8.54312
366 2 3.72089 43.2726 8.48362
367 2 7.91184 43.1299 8.72306
368 2 11.8834 43.0833 8.66303
369 2 -0.145975 47.0459 8.79848
370 2 3.8679 47.1834 8.49101
371 2 7.7999 47.078 8.82047
372 2 11.8297 46.9949 8.67822
373 2 15.7176 51.1628 8.90383
374 2 4.05992 51.1507 8.75717
375 2 7.88685 51.0796 8.83811
376 2 11.8938 51.0809 8.74355
377 2 15.8194 55.1098 8.70579
378 2 3.92251 55.1531 8.771
379 2 8.10241 55.1413 8.86562
380 2 11.9768 55.0368 8.73497
381 2 0.209232 59.3004 8.97214
382 2 4.25792 59.2608 8.86797
383 2 8.1452 59.2607 8.70897
384 2 11.9542 59.2185 8.56637
385 2 0.150929 63.1883 9.08008
386 2 4.02742 63.1822 8.89006
387 2 7.72999 63.2672 9.0433
388 2 11.9457 63.1675 9.03571
389 2 15.8002 67.2528 8.91743
390 2 3.78434 67.3659 8.9183
391 2 7.86674 67.5647 8.90935
392 2 11.651 67.3172 8.99863
393 2 15.7823 71.4091 9.03384
394 2 3.85208 71.3941 9.18896
395 2 7.79225 71.5467 9.2212
396 2 11.6305 71.3641 8.99708
397 2 15.8409 75.3425 9.18907
398 2 3.87907 75.264 9.23185
399 2 7.65131 75.3383 8.96301
400 2 11.7901 75.3917 9.29022
401 2 15.7476 79.4071 9.22171
402 2 3.95872 79.3677 9.12839
403 2 7.85597 79.344 9.31876
404 2 11.7854 79.3821 9.25184
405 2 -0.150168 83.4454 9.47623
406 2 4.08171 83.4194 9.26257
407 2 7.91313 83.5408 9.35721
408 2 11.7671 83.4255 9.40697
409 2 -0.00414575 87.3031 9.31319
410 2 3.9435 87.2597 9.4385
411 2 7.85013 87.6094 9.16008
412 2 11.8498 87.216 9.35816
413 2 -0.184362 91.4778 9.32788
414 2 4.05724 91.3024 9.44703
415 2 7.93522 91.3712 9.38932
416 2 11.7319 91.3761 9.42116
417 2 15.7242 95.4181 9.49108
418 2 3.80799 95.273 9.27075
419 2 7.86923 95.2722 9.41776
420 2 11.8145 95.3897 9.53759
421 2 15.7977 99.2295 9.35905
422 2 3.74643 99.3272 9.42151
423 2 7.80065 99.2831 9.4102
424 2 11.909 99.204 9.41515
425 2 -0.0664597 103.217 9.26937
426 2 3.9211 103.287 9.21794
427 2 7.97893 103.206 9.43615
428 2 11.7813 102.928 9.33036
429 2 -0.12516 107.072 9.18264
430 2 3.8125 107.039 9.27312
431 2 7.97401 107.178 9.29819
432 2 11.8376 106.966 9.36232
433 2 15.9773 111.068 9.30843
434 2 3.61738 110.855 9.19621
435 2 7.73807 110.907 9.26133
436 2 11.7966 110.966 9.09506
437 2 -0.127502 114.935 9.00007
438 2 3.9694 115.058 9.20071
439 2 7.87098 115.094 9.02449
440 2 11.8663 114.888 9.0829
441 2 0.112781 118.859 9.2632
442 2 4.08355 118.984 9.15779
443 2 7.94001 119.072 9.00023
444 2 11.8732 118.689 9.04639
445 2 15.6571 122.864 9.16233
446 2 3.724 122.951 9.16263
447 2 7.87549 122.751 9.29694
448 2 11.8787 122.79 9.06386
449 2 15.7376 126.84 9.09646
450 2 3.76177 126.866 8.97377
451 2 7.88387 126.601 9.04423
452 2 11.8625 126.741 9.10615
453 2 -0.158528 130.696 8.9876
454 2 3.80454 130.644 8.97887
455 2 7.79088 130.584 8.75106
456 2 11.6733 130.346 9.13901
457 2 -0.0672505 134.396 8.94016
458 2 3.94809 134.748 8.92912
459 2 7.80778 134.514 8.97483
460 2 11.6629 134.545 9.00938
461 2 0.0137833 138.378 8.93152
462 2 4.00894 138.463 8.89632
463 2 7.94133 138.374 9.0397
464 2 11.952 138.693 8.98899
465 2 -0.00761231 142.519 8.86413
466 2 3.87814 142.48 8.95925
467 2 7.91861 142.438 9.03682
468 2 11.8962 142.252 8.91853
469 2 15.9188 146.412 8.74112
470 2 3.94637 146.255 8.93582
471 2 7.78619 146.175 8.76371
472 2 11.8095 146.337 8.97652
473 2 15.6678 150.195 8.92029
474 2 3.97614 150.337 8.8284
475 2 7.74146 150.279 8.74947
476 2 11.6552 150.158 8.92181
477 2 15.6458 154.149 8.87296
478 2 3.77353 154.158 8.8641
479 2 7.84912 154.204 8.79082
480 2 11.8078 154.13 8.8077
481 2 15.7041 158.005 12.8473
482 2 3.88023 158.19 12.8109
483 2 7.81951 158.047 12.7634
484 2 11.8859 158.036 12.8093
485 2 15.8704 3.57313 12.7024
486 2 4.03419 3.6716 12.8648
487 2 7.94224 3.65938 12.8911
488 2 11.9513 3.71573 12.8762
489 2 15.765 7.39599 12.9095
490 2 3.80456 7.46246 12.6926
491 2 8.00708 7.73407 12.71
492 2 11.8691 7.39193 12.6833
493 2 0.0823993 11.4925 12.6746
494 2 4.00544 11.5129 12.5453
495 2 7.98236 11.4313 12.6481
496 2 11.9636 11.5024 12.7931
497 2 -0.0920669 15.3352 12.5174
498 2 3.97807 15.424 12.6819
499 2 8.07873 15.2564 12.6124
500 2 11.9227 15.3269 12.5419
501 2 -0.136631 19.4044 12.5345
502 2 3.99707 19.1455 12.5237
503 2 7.85984 19.341 12.5499
504 2 11.7059 19.2823 12.6005
505 2 0.152525 23.1975 12.5285
506 2 4.11238 23.1187 12.3674
507 2 7.9197 23.0986 12.4445
508 2 11.94 22.9592 12.4521
509 2 -0.168499 27.2051 12.3455
510 2 4.09742 27.0174 12.459
511 2 7.82935 27.1878 12.2467
512 2 11.8611 27.0529 12.4507
513 2 -0.0797038 31.0693 12.4116
514 2 3.94536 30.9489 12.2083
515 2 7.99349 30.9145 12.3385
516 2 11.8138 30.9576 12.4067
517 2 -0.330442 35.1074 12.3862
518 2 3.91581 34.9857 12.5275
519 2 7.7783 34.8717 12.2877
520 2 11.6466 35.0284 12.3805
521 2 0.074264 38.9763 12.4787
522 2 4.094 39.1066 12.3714
523 2 7.95301 38.9669 12.3746
524 2 11.8712 39.0461 12.4182
525 2 -0.0378914 42.7225 12.4313
526 2 3.87892 43.114 12.3598
527 2 7.86878 42.9714 12.5394
528 2 11.9135 43.0134 12.7266
529 2 0.0402292 47.0197 12.5945
530 2 3.62904 47.1033 12.6637
531 2 7.94335 47.0495 12.71
532 2 11.8827 46.861 12.6248
533 2 -0.0633935 51.105 12.6854
534 2 4.0596 51.0811 12.6074
535 2 7.95737 51.0633 12.6332
536 2 11.9537 51.0662 12.5899
537 2 15.8833 55.0723 12.613
538 2 3.98291 55.0722 12.6665
539 2 8.10929 55.0576 12.6436
540 2 11.9182 55.0728 12.8196
541 2 15.8171 59.0282 12.8015
542 2 4.20937 58.9939 12.6211
543 2 7.95865 59.0997 12.7462
544 2 11.953 59.027 12.6485
545 2 15.6488 63.2369 12.9509
546 2 3.87215 63.1637 12.9997
547 2 8.04239 63.247 12.9022
548 2 11.8216 63.1929 13.1414
549 2 -0.00527649 67.2256 12.7711
550 2 3.90148 67.2354 12.7504
551 2 7.86964 67.2407 12.8904
552 2 11.7619 67.2798 12.8561
553 2 -0.299649 71.1124 12.9336
554 2 3.8312 71.2375 12.9873
555 2 7.83403 71.4089 12.932
556 2 11.6239 71.3328 12.9906
557 2 -0.0289917 75.346 12.9705
558 2 3.98928 75.4355 13.1217
559 2 8.02567 75.3568 13.077
560 2 11.9856 75.4008 12.8906
561 2 -0.00296597 79.3202 13.0666
562 2 3.99085 79.1174 13.2313
563 2 7.97471 79.3703 13.164
564 2 11.7673 79.3516 13.0695
565 2 0.0703084 83.3936 13.176
566 2 4.07264 83.2195 13.0477
567 2 7.97163 83.2722 13.3713
568 2 11.6521 83.3505 13.2872
569 2 0.0626452 87.5279 13.4217
570 2 3.92644 87.1681 13.1914
571 2 7.81612 87.4984 13.3054
572 2 11.9025 87.3152 13.2711
573 2 -0.129718 91.5263 13.4708
574 2 3.84125 91.259 13.2672
575 2 7.90891 91.4818 13.4151
576 2 11.8878 91.3475 13.4001
577 2 -0.134018 95.3184 13.3915
578 2 3.77464 95.3362 13.3441
579 2 7.87719 95.3896 13.3559
580 2 11.7588 95.3889 13.5344
581 2 0.104509 99.4519 13.5213
582 2 4.04605 99.3039 13.2048
583 2 7.94836 99.3007 13.3182
584 2 11.7927 99.3574 13.2272
585 2 -0.0118954 103.237 13.5265
586 2 4.09521 103.169 13.3671
587 2 7.8476 103.082 13.301
588 2 11.9588 103.27 13.5176
589 2 -0.117838 107.118 13.3114
590 2 3.79054 106.986 13.368
591 2 7.8015 107.147 13.1108
592 2 11.8069 107.048 13.3018
593 2 0.0246481 110.926 13.4171
594 2 3.70176 110.992 13.3455
595 2 7.83586 110.953 13.1827
596 2 11.9646 111.131 13.2472
597 2 0.0446227 114.926 13.0617
598 2 4.04836 114.967 13.1215
599 2 7.89839 115.006 13.2178
600 2 11.6619 114.817 13.0251
601 2 0.0832633 118.905 13.2012
602 2 4.08022 118.857 13.2816
603 2 7.97023 118.954 13.2038
604 2 11.8647 118.729 13.0873
605 2 -0.0836199 122.9 13.1935
606 2 3.92659 122.823 12.983
607 2 7.90657 122.849 13.0533
608 2 11.5955 122.826 13.1353
609 2 0.0399228 126.857 13.1749
610 2 3.99804 126.584 12.9702
611 2 7.75565 126.727 13.0809
612 2 11.8227 126.703 13.066
613 2 16.0506 130.703 13.0265
614 2 4.07543 130.562 13.0574
615 2 7.708 130.482 12.7957
616 2 11.9713 130.69 13.0411
617 2 15.9292 134.621 13.0095
618 2 4.06584 134.668 13.0484
619 2 8.04957 134.46 12.9693
620 2 11.8439 134.576 13.0597
621 2 -0.00182641 138.575 13.0409
622 2 3.70876 138.453 12.8823
623 2 7.97486 138.553 13.0022
624 2 11.7703 138.335 12.839
625 2 15.6949 142.599 12.886
626 2 3.86655 142.478 12.9883
627 2 7.97681 142.415 12.9681
628 2 11.8435 142.299 12.9091
629 2 0.0650568 146.48 12.8135
630 2 3.97606 146.479 12.8514
631 2 7.77797 146.249 12.7098
632 2 11.805 146.291 12.9181
633 2 -0.217231 150.265 12.9304
634 2 4.05653 150.158 12.8813
635 2 7.98877 150.23 12.8683
636 2 11.6853 150.215 12.7939
637 2 15.9829 154.161 12.901
638 2 3.9635 154.202 12.9157
639 2 7.91713 154.062 12.8638
640 2 11.9185 154.225 12.7219
641 2 0.132121 158.106 16.875
642 2 4.08072 -0.247655 16.6886
643 2 7.88633 158.133 16.8172
644 2 11.7442 158.099 16.7836
645 2 15.8274 3.7051 16.7479
646 2 3.87742 3.77236 16.9037
647 2 7.79184 3.7881 16.7874
648 2 11.7721 3.77114 16.81
649 2 0.069187 7.67763 16.7612
650 2 4.01074 7.65667 16.8083
651 2 7.87211 7.81963 16.6345
652 2 12.0136 7.73912 16.7145
653 2 0.208328 11.494 16.5145
654 2 4.0407 11.5149 16.5922
655 2 7.86008 11.4804 16.6333
656 2 11.981 11.5863 16.5661
657 2 -0.247838 15.4695 16.7659
658 2 3.88768 15.3402 16.4786
659 2 7.87218 15.6642 16.7997
660 2 11.8082 15.4166 16.7117
661 2 15.8645 19.3238 16.5691
662 2 3.91754 19.2785 16.498
663 2 7.86064 19.4335 16.4752
664 2 11.9747 19.5036 16.5194
665 2 0.0626726 23.1526 16.4575
666 2 4.09674 23.1735 16.688
667 2 7.8557 23.3256 16.4883
668 2 11.8692 23.3177 16.3734
669 2 0.0457495 27.1534 16.4485
670 2 3.77325 26.9504 16.3949
671 2 7.80959 27.0325 16.289
672 2 11.8351 27.0919 16.3563
673 2 -0.088184 30.9512 16.3556
674 2 4.00729 31.0364 16.2544
675 2 7.90104 31.0878 16.3062
676 2 11.8356 30.8596 16.3657
677 2 -0.212735 34.867 16.4304
678 2 3.91924 35.0004 16.212
679 2 7.8696 34.9687 16.389
680 2 11.7701 35.0599 16.2915
681 2 0.129422 39.004 16.4695
682 2 3.80885 38.8638 16.4573
683 2 7.8293 38.8644 16.4054
684 2 11.8102 38.8633 16.3054
685 2 -0.000286689 42.9648 16.4868
686 2 4.02201 42.8867 16.4545
687 2 7.98443 42.8706 16.4421
688 2 12.0438 42.9248 16.368
689 2 15.9661 46.7837 16.4459
690 2 4.13732 46.9645 16.7357
691 2 7.89264 46.8338 16.3629
692 2 12.0636 47.0422 16.4821
693 2 0.199317 50.9702 16.6988
694 2 4.2096 51.1439 16.6545
695 2 8.03579 50.911 16.4348
696 2 12.101 51.0134 16.605
697 2 -0.0536256 55.0845 16.6532
698 2 3.98858 54.8105 16.6818
699 2 7.87467 54.9196 16.7408
700 2 11.8542 55.0705 16.4852
701 2 0.106008 58.9562 16.655
702 2 4.11461 59.0959 16.7582
703 2 8.05931 59.0551 16.7075
704 2 11.8696 59.0204 16.7263
705 2 -0.191609 63.114 16.8402
706 2 3.94966 63.079 16.8877
707 2 7.9075 63.0908 16.813
708 2 11.8226 63.2448 16.7938
709 2 0.0980148 67.2028 16.7671
710 2 3.97392 67.0554 16.6422
711 2 8.1272 67.2248 16.7946
712 2 11.9586 67.1037 16.9329
713 2 -0.168576 71.2007 16.9563
714 2 3.87812 71.0841 16.8384
715 2 7.80732 71.1206 17.0178
716 2 11.7039 71.3085 17.0459
717 2 0.101654 75.2914 17.1042
718 2 4.1389 75.2386 16.8685
719 2 7.87249 75.2415 16.9686
720 2 11.8742 75.1026 16.8844
721 2 0.139831 79.2108 17.1268
722 2 3.97883 79.2118 16.9184
723 2 8.11741 79.2007 17.1973
724 2 11.9538 79.2419 17.1228
725 2 0.0426962 83.2409 16.9903
726 2 4.04517 83.1163 17.2675
727 2 8.0532 83.2059 17.1716
728 2 12.0644 83.2282 17.0569
729 2 0.137371 87.3927 17.2754
730 2 4.0971 87.3897 17.2429
731 2 7.87892 87.2422 17.289
732 2 11.9414 87.2151 17.1425
733 2 -0.117278 91.2245 17.4902
734 2 3.65511 91.5614 17.1366
735 2 7.88593 91.4602 17.2326
736 2 11.851 91.1679 17.127
737 2 0.0429178 95.267 17.4198
738 2 4.16127 95.5693 17.3739
739 2 7.90605 95.425 17.3668
740 2 11.9633 95.4657 17.3538
741 2 0.101358 99.3259 17.3952
742 2 3.95805 99.2837 17.4611
743 2 8.03294 99.4304 17.4729
744 2 11.9163 99.1694 17.5504
745 2 -0.152687 103.297 17.2836
746 2 3.84078 103.076 17.4501
747 2 7.65995 103.221 17.174
748 2 11.8533 103.18 17.3695
749 2 -0.115914 106.949 17.4558
750 2 3.90781 107.19 17.4268
751 2 7.73999 107.084 17.4093
752 2 11.6547 107.094 17.3562
753 2 -0.097754 110.987 17.3009
754 2 3.85028 111.124 17.43
755 2 7.8238 111.034 17.3484
756 2 11.7747 111.092 17.3606
757 2 -0.0731804 115.052 17.2904
758 2 3.9463 115.108 17.2672
759 2 8.01243 114.952 17.1728
760 2 11.9159 115.055 17.2258
761 2 0.0780479 119.046 17.2804
762 2 3.86244 118.884 17.0691
763 2 7.92051 119.051 17.1383
764 2 11.9732 119.048 17.2467
765 2 -0.0467158 122.891 17.1834
766 2 3.94286 122.798 17.0841
767 2 7.9256 122.837 17.103
768 2 11.9843 122.935 17.0949
769 2 15.9426 126.929 17.2635
770 2 4.15677 126.731 17.1727
771 2 7.8852 126.829 17.1518
772 2 11.9537 126.857 17.1649
773 2 15.9198 130.694 17.1234
774 2 4.0216 130.579 16.8924
775 2 7.8626 130.746 17.2853
776 2 11.7456 130.558 16.9454
777 2 15.6873 134.516 17.1363
778 2 4.01512 134.733 17.0529
779 2 7.87425 134.393 17.0875
780 2 11.8379 134.619 16.8678
781 2 0.0783765 138.499 17.0041
782 2 3.96243 138.494 17.0599
783 2 7.76347 138.676 17.1508
784 2 11.7326 138.309 17.03
785 2 15.611 142.3 16.802
786 2 4.01457 142.331 16.977
787 2 7.97924 142.498 17.0687
788 2 11.6871 142.518 16.9928
789 2 15.6743 146.172 16.8719
790 2 3.94473 146.317 16.8157
791 2 7.93279 146.414 16.9223
792 2 11.8207 146.324 17.0272
793 2 15.8966 150.316 17.0843
794 2 4.18487 150.317 17.0187
795 2 7.95703 150.282 16.8559
796 2 11.8857 150.089 16.9389
797 2 15.9876 154.235 17.023
798 2 4.06875 154.2 17.0151
799 2 8.06478 154.153 16.8944
800 2 11.9552 154.256 16.8934
801 2 15.6921 158.128 20.9366
802 2 3.98104 158.226 20.8306
803 2 8.03845 158.008 20.8142
804 2 11.9613 158.151 20.827
805 2 -0.113417 3.7336 20.7748
806 2 3.764 3.61174 20.7578
807 2 7.86912 3.74457 20.9386
808 2 11.8394 3.93363 20.745
809 2 15.7597 7.64292 20.8275
810 2 3.99294 7.60826 20.684
811 2 7.94363 7.80493 20.8111
812 2 11.9393 7.74371 20.802
813 2 15.9558 11.6229 20.5834
814 2 3.83573 11.6066 20.4969
815 2 8.04019 11.5249 20.7816
816 2 11.9717 11.4872 20.7637
817 2 15.8962 15.6171 20.6135
818 2 3.95962 15.3628 20.5737
819 2 7.80762 15.615 20.586
820 2 11.8556 15.6376 20.5498
821 2 0.107785 19.419 20.6114
822 2 4.06064 19.3889 20.5187
823 2 8.06255 19.5921 20.5511
824 2 11.9218 19.4427 20.45
825 2 0.00088066 23.2755 20.4703
826 2 3.98181 23.3344 20.5543
827 2 7.99575 23.3139 20.5188
828 2 11.862 23.4665 20.6591
829 2 15.8601 27.0288 20.4282
830 2 4.13257 27.1458 20.3937
831 2 7.8583 27.1403 20.5791
832 2 11.9467 27.4438 20.5856
833 2 15.902 30.8952 20.4792
834 2 3.93238 31.0626 20.403
835 2 7.95252 31.0119 20.3816
836 2 11.8401 31.1345 20.4934
837 2 15.7875 34.9498 20.5632
838 2 3.91392 34.9441 20.3864
839 2 8.10306 34.9588 20.2664
840 2 11.9972 35.0475 20.6012
841 2 0.0698927 38.908 20.4083
842 2 3.93038 39.0721 20.2352
843 2 7.77837 38.9809 20.2117
844 2 11.7775 38.8807 20.2174
845 2 15.993 42.8817 20.362
846 2 3.91355 43.1648 20.4273
847 2 8.10771 43.165 20.0675
848 2 12.0329 42.8795 20.3165
849 2 16.0954 46.9043 20.3529
850 2 4.00203 47.1659 20.6188
851 2 8.09444 47.076 20.2615
852 2 11.8755 46.9089 20.2895
853 2 0.166943 50.7493 20.5541
854 2 4.08205 50.8447 20.6801
855 2 8.01018 50.9387 20.5513
856 2 12.0047 50.9996 20.5333
857 2 0.0740791 54.967 20.6314
858 2 4.10958 54.9093 20.5065
859 2 7.97847 54.8362 20.5192
860 2 11.9218 55.0664 20.5283
861 2 15.9012 58.9505 20.4169
862 2 4.037 58.9232 20.7183
863 2 8.1583 59.1857 20.7074
864 2 12.1279 59.007 20.6168
865 2 15.7435 63.0095 20.5879
866 2 4.05856 62.9891 20.7357
867 2 7.96317 63.0454 20.6815
868 2 11.8569 62.9244 20.5593
869 2 -0.0553599 67.0767 20.8124
870 2 3.85961 67.1147 20.6287
871 2 7.96771 67.0443 20.6168
872 2 11.9311 67.071 20.8658
873 2 -0.0959804 71.2432 20.8521
874 2 3.9468 71.0145 20.7677
875 2 7.80496 71.1816 20.9973
876 2 11.9303 71.0675 20.9205
877 2 0.110385 75.1156 21.0537
878 2 3.89642 75.2267 20.7882
879 2 7.90675 75.1472 20.8992
880 2 11.9423 75.0558 20.9798
881 2 0.138949 79.0915 20.9756
882 2 4.06918 79.1928 20.8419
883 2 8.07825 79.1946 21.1004
884 2 11.8659 79.1301 21.0278
885 2 -0.0745166 83.3655 20.8074
886 2 4.11892 83.028 21.1686
887 2 7.94222 83.2926 21.0062
888 2 11.9738 83.0674 21.0441
889 2 0.137255 87.1491 21.1366
890 2 4.18869 87.2731 21.1965
891 2 8.11398 87.2707 21.1012
892 2 11.9736 87.21 21.2621
893 2 0.0666775 91.1309 21.1863
894 2 3.94176 91.2289 21.0485
895 2 7.91091 91.2407 21.0991
896 2 11.8947 91.3189 21.0291
897 2 0.0351389 95.3032 21.3269
898 2 3.9921 95.2947 21.3241
899 2 7.97617 95.2811 21.3287
900 2 11.7729 95.3954 21.3175
901 2 0.110462 99.3065 21.4447
902 2 3.98445 99.4223 21.4081
903 2 8.08298 99.4483 21.3197
904 2 11.9861 99.3734 21.3436
905 2 -0.0695631 103.205 21.429
906 2 3.98393 103.403 21.401
907 2 8.15014 103.519 21.3427
908 2 11.9098 103.324 21.465
909 2 0.0804751 107.241 21.3576
910 2 3.9847 107.466 21.5214
911 2 7.84516 107.365 21.4649
912 2 12.0004 107.116 21.3716
913 2 -0.170427 111.205 21.4133
914 2 3.94002 111.102 21.5096
915 2 7.9604 111.172 21.2943
916 2 11.9369 111.166 21.4931
917 2 15.8244 115.061 21.2239
918 2 3.79614 115.113 21.1013
919 2 7.75112 115.085 21.2662
920 2 11.8594 115.045 21.359
921 2 0.107409 118.915 21.4386
922 2 4.06117 118.856 21.2214
923 2 7.98511 119.114 21.149
924 2 11.8982 118.988 21.2443
925 2 15.9589 122.809 21.0983
926 2 3.90445 123.02 21.2001
927 2 8.04619 122.933 21.1213
928 2 11.9526 122.779 21.0858
929 2 15.872 126.926 21.1228
930 2 3.87708 126.823 21.1325
931 2 7.93419 126.885 21.139
932 2 11.8387 126.756 21.0827
933 2 15.7379 130.858 21.2357
934 2 3.91836 130.879 21.2242
935 2 7.87393 130.836 21.1065
936 2 11.5486 130.701 21.0955
937 2 -0.169334 134.627 21.0324
938 2 3.68254 134.754 21.0936
939 2 7.78925 134.732 21.1994
940 2 11.7804 134.664 20.9734
941 2 15.663 138.722 20.9023
942 2 3.99713 138.633 20.9919
943 2 7.81186 138.489 21.1598
944 2 11.6803 138.535 21.0966
945 2 15.7819 142.386 20.9418
946 2 4.01641 142.575 20.9232
947 2 8.03129 142.57 21.1025
948 2 11.9108 142.287 21.067
949 2 15.7187 146.281 20.9363
950 2 3.95686 146.312 20.8783
951 2 7.91305 146.469 20.8755
952 2 11.9933 146.478 20.9768
953 2 15.5692 150.253 20.972
954 2 3.84977 150.282 20.8758
955 2 7.94781 150.139 20.9356
956 2 11.9464 150.281 21.0282
957 2 15.7833 154.222 20.7755
958 2 4.17011 154.291 21.0812
959 2 7.89595 154.171 20.9595
960 2 11.6912 154.234 20.8557
961 2 0.08895 157.952 24.75
962 2 3.81544 158.008 24.9765
963 2 7.71641 158.249 24.9969
964 2 11.9903 158.249 24.7193
965 2 15.9356 3.65061 24.8001
966 2 3.97063 3.72681 24.7643
967 2 7.95138 3.67394 24.8332
968 2 11.9197 3.71242 24.77
969 2 15.9623 7.90671 24.6175
970 2 3.93892 7.58152 24.7848
971 2 7.81947 7.75966 24.8772
972 2 11.902 7.63872 24.8741
973 2 15.9401 11.5673 24.7578
974 2 3.93538 11.5986 24.8859
975 2 7.88801 11.5024 24.8039
976 2 11.6231 11.6343 24.6722
977 2 -0.0611671 15.5381 24.5622
978 2 3.95453 15.519 24.7106
979 2 7.91071 15.575 24.7444
980 2 11.9499 15.4814 24.5842
981 2 -0.0468773 19.4425 24.5914
982 2 3.94923 19.4644 24.5004
983 2 8.07794 19.3366 24.5967
984 2 11.7957 19.3425 24.5418
985 2 0.271035 23.329 24.4676
986 2 3.87564 23.332 24.7674
987 2 7.64403 23.3045 24.5705
988 2 12.0158 23.4397 24.4942
989 2 -0.181999 27.3052 24.5584
990 2 3.80406 27.1989 24.5582
991 2 7.84338 27.3446 24.5049