ITEM: TIMESTEP
21300
ITEM: NUMBER OF ATOMS
32000
ITEM: BOX BOUNDS xy xz yz pp pp pp
0.0000000000000000e+00 1.5832000000000001e+01 0.0000000000000000e+00
0.0000000000000000e+00 1.5831999999999999e+02 0.0000000000000000e+00
8.3048928354720886e-01 1.6014662871644907e+02 0.0000000000000000e+00
ITEM: ATOMS id type x y z
1 2 15.8362 157.87 160.181
2 2 4.05245 158.165 160.08
3 2 7.94518 157.907 159.908
4 2 11.7271 157.865 160.01
5 2 -0.169555 3.48942 159.886
6 2 3.92641 3.49546 159.937
7 2 7.75772 3.61713 159.866
8 2 11.7189 3.51863 160.102
9 2 15.824 7.54814 159.921
10 2 3.94219 7.29312 159.896
11 2 7.65205 7.5664 159.788
12 2 11.7568 7.57791 159.602
13 2 15.8052 11.4794 159.861
14 2 3.79855 11.3759 159.863
15 2 7.8789 11.3565 159.927
16 2 11.759 11.4462 159.762
17 2 -0.28011 15.3004 159.739
18 2 3.77834 15.2233 159.723
19 2 7.87254 15.1851 159.711
20 2 11.8047 15.1614 159.8
21 2 15.8659 19.0601 159.747
22 2 3.98625 19.0612 159.767
23 2 7.99626 19.102 159.674
24 2 11.6465 19.2646 159.704
25 2 15.7174 23.0109 159.769
26 2 3.71415 23.106 159.598
27 2 7.67003 23.0715 159.815
28 2 11.5939 23.0433 159.701
29 2 15.7872 27.001 159.88
30 2 3.83761 26.9908 159.69
31 2 7.99139 27.0155 159.8
32 2 11.7531 27.0809 159.858
33 2 15.8182 31.0112 160.02
34 2 3.92709 31.0634 0.634742
35 2 7.71483 31.0345 159.834
36 2 11.7946 31.1412 159.979
37 2 -0.0832146 35.1423 160.005
38 2 3.83828 35.1558 159.975
39 2 7.78545 35.1174 159.903
40 2 11.8756 35.1343 159.752
41 2 0.0245824 39.2277 160.016
42 2 3.86947 39.2104 0.724719
43 2 7.99293 39.1828 0.60646
44 2 11.9785 39.0078 0.780704
45 2 0.16952 43.165 160.005
46 2 3.90047 43.1484 160.188
47 2 7.9502 43.3573 0.887571
48 2 11.7297 43.1046 0.736173
49 2 -0.0445818 47.1905 0.882015
50 2 3.90899 47.1573 0.920283
51 2 7.84502 47.1996 0.8877
52 2 11.8787 47.2241 0.953467
53 2 0.00465703 51.095 0.979823
54 2 3.70664 51.4095 0.888337
55 2 7.97568 51.2781 0.795438
56 2 11.8615 51.2724 0.863995
57 2 15.8752 55.3153 1.0557
58 2 3.94518 55.3092 1.02601
59 2 7.92036 55.4611 1.08459
60 2 11.722 55.3786 0.984084
61 2 0.00146701 59.2916 0.902339
62 2 3.80732 59.3607 0.984463
63 2 7.82202 59.3963 1.14031
64 2 11.845 59.1803 1.16114
65 2 -0.0116638 63.3532 1.28198
66 2 3.8516 63.3506 1.12062
67 2 7.74629 63.3004 1.00219
68 2 11.8862 63.3065 1.27631
69 2 15.8804 67.3647 1.25774
70 2 4.02653 67.3457 1.19394
71 2 7.82901 67.4549 1.18536
72 2 11.6687 67.3483 1.41789
73 2 0.023917 71.5442 1.18043
74 2 4.02152 71.3656 1.17153
75 2 8.04009 71.5539 1.16001
76 2 11.8744 71.4037 1.49185
77 2 0.134945 75.5761 1.12879
78 2 4.01024 75.4889 1.01939
79 2 8.15387 75.6663 1.17291
80 2 11.8666 75.4054 1.58708
81 2 -0.0183461 79.3845 1.52587
82 2 3.86805 79.5335 1.39286
83 2 7.97632 79.5028 1.56303
84 2 12.0096 79.541 1.30507
85 2 -0.0793546 83.2924 1.56197
86 2 4.06026 83.5959 1.52489
87 2 8.03164 83.6048 1.63064
88 2 11.7294 83.5039 1.40895
89 2 0.0303601 87.5761 1.61811
90 2 4.05676 87.2907 1.39474
91 2 7.8387 87.4975 1.44288
92 2 11.8534 87.3571 1.42035
93 2 -0.0478374 91.3841 1.39809
94 2 4.07779 91.3492 1.25079
95 2 8.10023 91.3706 1.36507
96 2 11.9793 91.3524 1.43924
97 2 15.9071 95.2223 1.39239
98 2 3.96054 95.0563 1.11704
99 2 7.81716 95.2019 1.30165
100 2 11.7805 95.2803 1.37295
101 2 0.178006 99.2782 1.3502
102 2 4.05544 99.0625 1.36948
103 2 8.16251 99.2477 1.19293
104 2 12.0272 99.3053 1.35237
105 2 0.00295597 103.252 1.0908
106 2 4.10468 103.168 1.32566
107 2 8.00861 103.302 1.32783
108 2 11.8142 103.219 1.35445
109 2 -0.00595734 106.953 1.11103
110 2 3.98541 106.962 1.24928
111 2 8.03979 106.979 1.33175
112 2 11.7664 107.086 1.18033
113 2 -0.100584 110.993 1.11151
114 2 3.95384 110.964 1.20175
115 2 7.91651 111.158 1.32744
116 2 11.8758 110.941 1.15489
117 2 15.8941 114.89 1.26253
118 2 3.71496 114.921 0.913963
119 2 7.66848 114.791 1.03641
120 2 11.9048 114.785 1.07548
121 2 -0.00723618 118.949 0.996509
122 2 3.96465 118.722 0.93521
123 2 7.86037 118.728 1.06915
124 2 11.7569 118.791 1.1123
125 2 15.7026 122.697 1.20084
126 2 3.84614 122.606 0.930254
127 2 8.03871 122.565 1.11074
128 2 11.8756 122.556 0.941903
129 2 -0.00913832 126.568 1.03561
130 2 4.04287 126.774 1.00568
131 2 7.99756 126.499 1.06002
132 2 11.9125 126.649 1.0582
133 2 15.8269 130.545 1.09419
134 2 4.04313 130.678 1.09549
135 2 7.7955 130.333 1.01133
136 2 11.6006 130.518 0.875072
137 2 15.8371 134.384 1.08245
138 2 4.03217 134.514 0.838711
139 2 7.8654 134.3 160.225
140 2 11.8025 134.502 0.872595
141 2 -0.015128 138.528 0.94093
142 2 3.97612 138.496 160.079
143 2 7.81135 138.31 160.225
144 2 11.9358 138.341 0.860913
145 2 15.7411 142.452 160.108
146 2 3.86647 142.388 160.147
147 2 8.03168 142.054 160.039
148 2 11.7422 142.311 160.288
149 2 0.0234536 146.363 160.062
150 2 4.07164 146.141 160.18
151 2 7.91913 146.238 160.093
152 2 11.8078 146.198 160.056
153 2 15.7801 150.155 160.13
154 2 3.86346 150.084 159.933
155 2 8.07085 150.075 160.052
156 2 12.0412 150.246 0.888318
157 2 15.9042 153.923 160.058
158 2 3.79483 153.928 160.197
159 2 7.87165 154.007 160.011
160 2 12.073 154.163 160.123
161 2 15.6047 158.03 4.6695
162 2 3.76907 157.906 4.54729
163 2 7.75068 158.105 4.80437
164 2 11.6053 158.021 4.56295
165 2 0.110013 3.78122 4.69987
166 2 3.98447 3.52015 4.57819
167 2 8.0302 3.69706 4.56686
168 2 11.9578 3.55713 4.67294
169 2 -0.158236 7.44668 4.66777
170 2 4.02314 7.36258 4.53784
171 2 7.80064 7.35573 4.63073
172 2 11.6351 7.45479 4.22597
173 2 -0.130926 11.207 4.41779
174 2 3.82093 11.373 4.60282
175 2 7.97751 11.3343 4.57673
176 2 11.6842 11.3543 4.40181
177 2 15.7487 15.2938 4.4412
178 2 4.07862 15.2613 4.46686
179 2 7.76231 15.2579 4.41054
180 2 11.794 15.3853 4.48369
181 2 0.0117269 19.2921 4.582
182 2 3.83868 18.9581 4.50766
183 2 7.81422 19.1209 4.42805
184 2 11.7133 19.1992 4.42919
185 2 -0.0873488 23.0604 4.29433
186 2 4.13786 23.0076 4.2313
187 2 7.78778 22.9136 4.41759
188 2 11.7657 23.1612 4.52483
189 2 15.8177 27.0868 4.45629
190 2 3.99592 26.9626 4.49148
191 2 7.9185 27.0399 4.34113
192 2 11.8828 27.0712 4.34605
193 2 -0.0667993 30.9617 4.47176
194 2 3.97749 31.0468 4.58451
195 2 7.80053 31.1198 4.32561
196 2 11.7362 31.0544 4.35575
197 2 -0.0834908 34.9028 4.65111
198 2 3.97959 35.0563 4.5862
199 2 7.85202 35.187 4.47289
200 2 11.7859 35.0504 4.57984
201 2 15.8956 39.0288 4.67632
202 2 4.02442 39.0342 4.56277
203 2 7.84384 39.1946 4.64399
204 2 11.8961 39.0706 4.46643
205 2 0.100064 43.1913 4.52899
206 2 4.08157 43.2288 4.57751
207 2 8.04114 43.0101 4.70548
208 2 12.0945 43.1191 4.76798
209 2 0.0204188 47.3935 4.92372
210 2 3.9045 47.1616 4.73644
211 2 7.90711 47.0045 4.65841
212 2 11.7597 47.1915 4.87663
213 2 0.0708955 51.2661 5.0393
214 2 4.06391 51.1637 4.88012
215 2 7.87511 51.2357 4.84583
216 2 11.8296 51.2168 4.77886
217 2 0.135444 55.1766 4.97132
218 2 4.10114 55.2264 4.8416
219 2 8.08984 55.4052 4.8803
220 2 12.0408 55.2823 4.80902
221 2 15.9391 59.1328 4.79228
222 2 3.97797 59.2936 4.95789
223 2 7.94022 59.4075 5.10015
224 2 11.9273 59.5292 5.06609
225 2 0.0455902 63.2384 5.03478
226 2 3.87746 63.3688 5.04522
227 2 7.70934 63.4027 5.03681
228 2 11.8827 63.4072 5.1003
229 2 15.5153 67.4872 5.18793
230 2 3.70437 67.2574 5.11892
231 2 7.66488 67.3205 5.06986
232 2 11.5977 67.4554 5.17188
233 2 15.9866 71.4428 5.09242
234 2 3.89423 71.3385 5.08335
235 2 7.78141 71.4668 5.10046
236 2 11.9723 71.5189 5.34518
237 2 16.0719 75.4161 5.25653
238 2 3.98019 75.2341 5.0263
239 2 7.88624 75.2662 5.28251
240 2 11.9121 75.3479 5.30227
241 2 0.0702988 79.5392 5.45076
242 2 3.95863 79.3209 5.06153
243 2 7.81097 79.3496 5.25374
244 2 12.0317 79.452 5.24868
245 2 15.9933 83.4753 5.45867
246 2 3.90771 83.3452 5.57073
247 2 8.00714 83.4626 5.58337
248 2 11.8293 83.4594 5.4207
249 2 0.0694619 87.3377 5.59953
250 2 3.9875 87.444 5.50287
251 2 7.74984 87.3965 5.41137
252 2 11.9469 87.5879 5.36628
253 2 -0.0705412 91.3283 5.31475
254 2 3.87639 91.3471 5.27359
255 2 7.82213 91.3909 5.43866
256 2 12.0055 91.3895 5.35876
257 2 15.8272 95.2435 5.37318
258 2 3.75885 95.1978 5.16716
259 2 7.80153 95.299 5.28702
260 2 11.9171 95.3154 5.34799
261 2 -0.0535596 98.9402 5.17877
262 2 4.09323 99.4256 5.11083
263 2 7.92267 99.2503 5.45044
264 2 11.6663 99.1164 5.38853
265 2 -0.101141 103.093 5.27082
266 2 3.75248 103.348 5.50854
267 2 7.8559 103.054 5.43213
268 2 11.7784 103.068 5.28723
269 2 15.9149 107.152 5.02486
270 2 3.85588 107.187 5.24554
271 2 7.77895 107.247 5.39427
272 2 11.9621 107.037 5.28153
273 2 15.8275 110.765 5.16821
274 2 3.70216 111.054 5.26941
275 2 7.77276 110.938 5.19941
276 2 11.7435 110.997 5.1881
277 2 -0.13931 114.985 5.0397
278 2 3.93668 114.981 5.17287
279 2 7.81022 114.886 5.09743
280 2 11.6747 114.95 5.11027
281 2 -0.129163 118.935 5.05006
282 2 4.16505 118.78 4.92445
283 2 7.80827 118.904 5.15546
284 2 11.7696 118.843 5.08504
285 2 15.8463 122.654 5.08547
286 2 3.91261 122.715 5.03255
287 2 7.80841 122.697 4.92505
288 2 11.8325 122.73 5.19469
289 2 -0.125362 126.73 5.16118
290 2 3.72194 126.507 5.03261
291 2 7.69771 126.464 4.97893
292 2 11.8058 126.659 5.09568
293 2 -0.0870109 130.749 4.91814
294 2 3.84169 130.505 5.09201
295 2 7.8542 130.565 5.07635
296 2 11.7792 130.48 5.07371
297 2 15.7473 134.497 4.80183
298 2 3.81114 134.543 4.90498
299 2 7.84542 134.5 4.89131
300 2 11.8431 134.604 4.71147
301 2 0.06709 138.524 4.85919
302 2 3.9205 138.466 4.9527
303 2 8.09501 138.389 4.91805
304 2 11.8013 138.629 4.8313
305 2 -0.143368 142.334 4.60974
306 2 3.9198 142.398 4.89793
307 2 7.77306 142.237 4.96509
308 2 11.694 142.472 4.72577
309 2 15.8509 146.348 5.04983
310 2 3.85242 146.284 5.00202
311 2 7.74969 146.362 4.9993
312 2 11.8836 146.492 4.79664
313 2 15.7065 150.175 4.74845
314 2 4.00048 150.205 5.01365
315 2 7.76089 150.212 4.86608
316 2 11.7766 150.301 4.85365
317 2 15.8692 154.301 4.89728
318 2 4.05568 153.912 4.8898
319 2 7.72064 154.165 4.72785
320 2 11.7236 154.174 4.82362
321 2 15.754 158.05 8.78897
322 2 3.83609 158.067 8.71276
323 2 7.94912 158.131 8.79589
324 2 11.7791 158.162 8.67404
325 2 15.7059 3.75543 8.65586
326 2 3.99934 3.53498 8.75764
327 2 7.85223 3.67842 8.87617
328 2 11.8563 3.63127 8.69662
329 2 15.8486 7.69377 8.70037
330 2 3.85794 7.78962 8.54325
331 2 7.75915 7.44418 8.77708
332 2 11.9237 7.48119 8.62754
333 2 -0.0182425 11.4911 8.44251
334 2 3.82878 11.3286 8.39766
335 2 7.96328 11.5929 8.40963
336 2 11.6722 11.4501 8.5059
337 2 15.8156 15.268 8.50085
338 2 3.94519 15.4523 8.44753
339 2 7.83473 15.1513 8.53135
340 2 12.0559 15.3122 8.40105
341 2 0.0337228 19.3368 8.47696
342 2 3.92919 19.4679 8.51574
343 2 7.96511 19.2042 8.54356
344 2 11.8114 19.1845 8.50359
345 2 -0.0455892 22.9563 8.36489
346 2 3.81523 23.0653 8.27014
347 2 7.80221 23.1517 8.34069
348 2 11.9908 23.0292 8.49519
349 2 0.0696957 27.1031 8.27498
350 2 3.87279 27.1172 8.37669
351 2 7.88223 27.0374 8.31037
352 2 11.8101 27.0398 8.31537
353 2 -0.0486855 30.9752 8.32388
354 2 3.92437 30.9122 8.36109
355 2 7.84127 31.0396 8.36294
356 2 11.6176 31.0296 8.36344
357 2 15.9687 34.9718 8.34224
358 2 4.01621 34.9003 8.58842
359 2 7.84097 35.1456 8.59908
360 2 12.0152 35.0818 8.45763
361 2 0.0767091 38.9911 8.34564
362 2 3.91814 38.9271 8.54414
363 2 7.92766 39.1783 8.39391
364 2 11.9581 38.9606 8.56406
365 2 -0.243584 43.0046 8.62437
366 2 4.07946 43.0084 8.69
367 2 7.71291 43.0796 8.56361
368 2 11.8136 43.1218 8.60175
369 2 0.0847939 47.1466 8.65557
370 2 3.88281 46.9893 8.86831
371 2 7.75312 47.1846 8.56646
372 2 11.6347 47.2472 8.65318
373 2 15.9523 51.0115 8.76725
374 2 3.9821 51.3504 8.6601
375 2 7.86798 51.1705 8.67542
376 2 11.8535 51.1242 8.76457
377 2 15.9146 55.2168 8.81626
378 2 4.17195 55.2208 8.84991
379 2 8.05609 55.2616 8.63838
380 2 12.0486 55.2148 8.75745
381 2 0.0199733 59.0551 8.8674
382 2 4.11226 59.1449 8.90272
383 2 8.02631 59.2156 9.05183
384 2 12.0208 59.2985 8.97386
385 2 0.00320417 63.2188 8.96314
386 2 3.94395 63.2022 9.0696
387 2 8.07898 63.2423 8.86888
388 2 11.9355 63.2296 8.85716
389 2 15.608 67.4143 9.08483
390 2 3.87181 67.2466 9.15518
391 2 7.86452 67.3855 8.67066
392 2 11.9667 67.137 9.0239
393 2 15.7071 71.3952 8.98794
394 2 3.89906 71.3151 9.18232
395 2 7.75017 71.3922 8.71693
396 2 11.7036 71.6184 9.18534
397 2 15.8187 75.3105 9.04925
398 2 3.96038 75.5163 9.24328
399 2 7.88976 75.5274 9.37024
400 2 11.7212 75.5003 9.22218
401 2 15.9134 79.252 9.0957
402 2 3.9093 79.3027 9.18569
403 2 7.87047 79.3597 9.08776
404 2 12.0767 79.3769 9.18998
405 2 0.00977911 83.3124 9.32277
406 2 4.03036 83.2831 9.29481
407 2 7.93197 83.3405 9.31469
408 2 11.8123 83.4322 9.24946
409 2 0.0632611 87.5375 9.50979
410 2 3.79556 87.6161 9.47754
411 2 7.91943 87.5873 9.53006
412 2 11.9655 87.6301 9.44938
413 2 -0.122543 91.5824 9.45689
414 2 3.78554 91.3313 9.38116
415 2 7.7292 91.3724 9.50113
416 2 11.6872 91.3816 9.45934
417 2 15.7798 95.4384 9.331
418 2 3.72457 95.3194 9.35171
419 2 7.69434 95.3825 9.38174
420 2 11.7783 95.2947 9.31227
421 2 15.7171 99.3011 9.26859
422 2 4.024 99.1128 9.21612
423 2 7.9035 99.0174 9.33148
424 2 11.8206 99.1727 9.37047
425 2 -0.1034 102.967 9.38374
426 2 3.87574 103.019 9.49002
427 2 7.94868 103.143 9.34636
428 2 11.8711 103.321 9.36053
429 2 -0.192764 106.962 9.27888
430 2 3.8839 106.883 9.26495
431 2 7.66386 107.053 9.19613
432 2 11.7143 107.072 9.19893
433 2 15.4817 110.928 9.13193
434 2 3.96522 111.138 9.19268
435 2 7.7954 111.157 9.18827
436 2 11.8125 111.018 9.25419
437 2 0.0986432 114.832 9.33575
438 2 3.85713 114.722 9.18094
439 2 7.78486 114.898 9.32813
440 2 11.9208 114.893 9.13799
441 2 -0.0412862 118.815 8.95194
442 2 3.85325 118.713 9.203
443 2 7.87716 118.81 9.08483
444 2 11.78 118.858 9.24313
445 2 15.7838 122.587 9.19015
446 2 4.06365 122.641 9.14883
447 2 7.94179 122.921 8.92735
448 2 11.8439 122.583 9.19895
449 2 15.6141 126.49 9.06341
450 2 3.78799 126.546 9.14523
451 2 7.88353 126.945 9.11358
452 2 11.7928 126.707 9.01711
453 2 -0.0879516 130.671 9.03302
454 2 4.07202 130.612 8.92012
455 2 7.76462 130.61 9.11776
456 2 11.8635 130.951 8.93269
457 2 -0.0358741 134.7 8.97094
458 2 3.94218 134.488 8.74922
459 2 7.78775 134.509 8.89962
460 2 11.8539 134.432 8.86728
461 2 0.191744 138.592 8.91714
462 2 3.94628 138.561 9.04664
463 2 7.95713 138.454 8.87592
464 2 11.9399 138.268 8.68563
465 2 -0.0904562 142.454 9.00218
466 2 3.93122 142.19 8.96895
467 2 7.90561 142.337 8.87372
468 2 11.8903 142.566 8.98533
469 2 15.6326 146.204 8.89016
470 2 3.73347 146.463 8.87539
471 2 7.769 146.262 9.08328
472 2 11.5964 146.329 8.89199
473 2 15.7854 150.324 8.84516
474 2 3.74658 150.199 8.95822
475 2 7.70873 150.235 8.94148
476 2 11.8139 150.301 8.86498
477 2 15.7607 154.101 8.86208
478 2 3.78092 154.093 8.7923
479 2 7.79013 154.234 8.90339
480 2 11.7751 154.269 8.77097
481 2 15.7567 158.085 12.9383
482 2 3.66702 157.902 12.6541
483 2 7.74823 158.05 12.8916
484 2 11.8789 158.095 12.8864
485 2 15.8108 3.53338 12.9208
486 2 3.88781 3.6096 12.8214
487 2 7.74026 3.76764 12.8359
488 2 11.7165 3.64729 12.7235
489 2 15.8178 7.40493 12.5343
490 2 3.92612 7.65444 12.6013
491 2 8.09755 7.52301 12.6063
492 2 11.9997 7.73583 12.6235
493 2 0.0567392 11.5089 12.7502
494 2 4.02386 11.3941 12.8065
495 2 8.06013 11.5779 12.6834
496 2 11.9016 11.4845 12.6015
497 2 0.300668 15.4921 12.6913
498 2 4.08925 15.2486 12.4225
499 2 7.90263 15.442 12.3321
500 2 11.9891 15.4528 12.6222
501 2 0.188594 19.2446 12.4667
502 2 4.05236 19.433 12.5153
503 2 7.9132 19.195 12.5588
504 2 12.0265 19.2679 12.5156
505 2 0.00126979 23.2485 12.2471
506 2 3.92852 23.2602 12.4971
507 2 8.05464 23.2819 12.444
508 2 11.9627 23.3514 12.4058
509 2 0.113247 26.9678 12.2255
510 2 3.97848 27.1189 12.2319
511 2 8.20539 27.0491 12.4035
512 2 11.9131 26.9747 12.2065
513 2 -0.147815 30.9202 12.3658
514 2 3.81237 30.9304 12.3173
515 2 7.91211 31.0959 12.4727
516 2 11.8399 31.0433 12.2289
517 2 0.0506121 34.8219 12.5425
518 2 3.9067 34.8572 12.3909
519 2 7.87521 35.1698 12.5334
520 2 11.7256 34.9889 12.4809
521 2 0.049691 38.9772 12.3721
522 2 3.90896 38.9298 12.5832
523 2 7.95613 39.0148 12.5455
524 2 11.9872 38.9019 12.5999
525 2 0.133254 43.1899 12.5569
526 2 4.19513 42.9628 12.6946
527 2 8.02328 42.9301 12.3669
528 2 11.7635 42.9685 12.5458
529 2 -0.0637745 47.0559 12.5542
530 2 4.13336 46.9465 12.5669
531 2 8.14447 47.0108 12.5502
532 2 11.9051 47.087 12.5111
533 2 0.198945 50.9669 12.678
534 2 3.91726 51.1438 12.6476
535 2 7.8347 50.9456 12.625
536 2 11.7283 51.1003 12.679
537 2 15.8654 55.0083 12.6509
538 2 3.86306 55.2102 12.8698
539 2 7.8611 54.9792 12.6774
540 2 11.7935 54.9668 12.6396
541 2 15.8852 59.0753 12.704
542 2 3.9497 59.2569 12.9282
543 2 7.97191 59.0559 12.8484
544 2 11.7568 59.0919 12.7176
545 2 15.984 63.1051 13.0021
546 2 3.94983 63.1064 12.6004
547 2 8.04259 63.2178 12.8801
548 2 11.9709 63.0459 12.6926
549 2 -0.285502 67.1541 12.9832
550 2 3.95204 67.3888 12.9398
551 2 7.70035 67.1336 12.7796
552 2 11.6454 67.3067 12.7452
553 2 -0.0406213 71.3275 13.0252
554 2 3.8889 71.3156 13.0358
555 2 7.85518 71.052 12.9376
556 2 11.8304 71.2255 12.9267
557 2 -0.0388393 75.1941 13.1892
558 2 3.93284 75.2668 13.087
559 2 7.8527 75.2655 13.2069
560 2 11.85 75.1725 13.2352
561 2 0.0272957 79.316 13.226
562 2 3.8574 79.4842 12.942
563 2 7.90458 79.32 13.1389
564 2 11.9193 79.363 13.0821
565 2 -0.0340834 83.2642 13.325
566 2 3.80478 83.3152 13.2405
567 2 7.91594 83.4783 12.9728
568 2 12.0356 83.3219 13.0719
569 2 0.041279 87.1911 13.1718
570 2 4.03606 87.4417 13.4057
571 2 7.80112 87.3033 13.4004
572 2 11.8654 87.2793 13.3445
573 2 -0.063099 91.3131 13.2941
574 2 3.88378 91.5271 13.3456
575 2 7.88404 91.5128 13.3311
576 2 11.9387 91.2704 13.1672
577 2 0.201622 95.4058 13.3619
578 2 4.08432 95.3834 13.4845
579 2 7.93739 95.3721 13.4763
580 2 11.9177 95.3748 13.3561
581 2 -0.0193082 99.1818 13.3325
582 2 3.79985 99.2874 13.5655
583 2 7.73182 99.1948 13.2663
584 2 11.9823 99.1905 13.6509
585 2 0.0745986 103.244 13.3205
586 2 3.82985 103.246 13.3442
587 2 7.96304 103.094 13.2779
588 2 11.8339 103.068 13.3211
589 2 -0.0700948 107.164 13.3139
590 2 3.92672 107.211 13.3478
591 2 7.8166 107.133 13.36
592 2 11.842 107.219 13.2946
593 2 -0.139752 111.034 13.2823
594 2 3.91866 110.956 13.0124
595 2 7.82769 110.906 13.2743
596 2 11.7051 111.046 13.2232
597 2 -0.0451192 114.943 13.4465
598 2 3.84812 114.808 13.382
599 2 7.94602 114.694 13.1987
600 2 11.9707 114.978 13.2438
601 2 -0.1479 118.951 13.2519
602 2 3.76413 118.733 12.9611
603 2 7.87597 118.803 13.1602
604 2 11.7385 118.735 13.1684
605 2 -0.12056 122.693 13.1857
606 2 4.06285 122.852 13.13
607 2 7.90858 122.881 13.163
608 2 11.999 122.756 13.2321
609 2 -0.0618353 126.718 13.0722
610 2 3.79524 127.001 13.1389
611 2 8.10157 126.691 13.0496
612 2 11.9562 126.937 13.2121
613 2 15.8939 130.813 12.8364
614 2 3.87101 130.871 12.9913
615 2 7.98987 130.728 13.1173
616 2 11.7423 130.673 13.052
617 2 15.6907 134.673 13.0082
618 2 3.95396 134.573 13.0304
619 2 7.74367 134.767 13.0396
620 2 11.7512 134.423 12.9948
621 2 -0.207951 138.354 12.9181
622 2 3.9393 138.479 13.0133
623 2 7.8614 138.373 12.8284
624 2 11.9154 138.394 13.0073
625 2 15.9 142.365 12.9965
626 2 4.17091 142.395 13.0227
627 2 8.00827 142.234 12.9374
628 2 12.0159 142.536 13.0256
629 2 -0.0770463 146.464 12.9246
630 2 3.86696 146.297 12.9378
631 2 7.91451 146.451 13.1239
632 2 11.6732 146.585 12.9584
633 2 -0.0366037 150.384 12.9501
634 2 3.84301 150.29 12.9525
635 2 7.726 150.451 12.9594
636 2 11.8444 150.209 12.957
637 2 15.6962 154.124 12.888
638 2 3.97429 154.164 12.8069
639 2 7.87866 154.306 12.9434
640 2 11.8226 153.978 12.8849
641 2 -0.216911 158.125 16.983
642 2 3.66117 -0.326531 17.0121
643 2 7.84334 158.189 16.8891
644 2 11.8711 158.123 16.9902
645 2 15.7597 3.66826 16.9751
646 2 4.01361 3.7071 16.7855
647 2 7.85626 3.63665 16.8309
648 2 11.6487 3.61655 16.735
649 2 -0.0718304 7.69259 16.8932
650 2 3.83043 7.60275 16.5562
651 2 7.96173 7.64833 16.7212
652 2 11.9243 7.64144 16.7809
653 2 0.0595091 11.5846 16.7975
654 2 4.1511 11.5698 16.6912
655 2 8.19267 11.6918 16.6514
656 2 11.9887 11.6113 16.8517
657 2 0.180624 15.4614 16.4702
658 2 4.10334 15.5932 16.8502
659 2 8.08925 15.3768 16.4382
660 2 11.9433 15.5669 16.5865
661 2 16.0705 19.3682 16.5107
662 2 4.19673 19.4199 16.5454
663 2 8.2461 19.3535 16.5721
664 2 12.1612 19.3409 16.4515
665 2 0.122424 23.3712 16.567
666 2 3.78739 23.4489 16.2107
667 2 8.03862 23.1119 16.5091
668 2 12.1493 23.31 16.5866
669 2 -0.0786063 27.1643 16.4737
670 2 3.98271 27.1636 16.3633
671 2 7.97113 27.1603 16.3445
672 2 11.8859 27.0754 16.5101
673 2 -0.0885229 30.9235 16.3836
674 2 3.91925 30.6675 16.2967
675 2 7.96707 30.8566 16.4623
676 2 11.9246 31.0993 16.4444
677 2 0.155499 34.886 16.4585
678 2 3.90097 34.6444 16.397
679 2 7.73648 34.9485 16.3653
680 2 11.8891 35.0514 16.4586
681 2 -0.000131372 38.9445 16.2165
682 2 3.94285 38.9423 16.2778
683 2 7.96789 38.9564 16.5233
684 2 12.1033 38.9896 16.5022
685 2 0.204302 42.9399 16.6333
686 2 4.13899 43.1518 16.4605
687 2 7.85807 42.9627 16.3608
688 2 11.9729 42.8797 16.616
689 2 16.0024 47.1767 16.4361
690 2 3.98991 47.0135 16.4567
691 2 8.06483 47.1235 16.6247
692 2 12.0915 46.867 16.4936
693 2 -0.0127363 50.9345 16.4991
694 2 4.02808 50.9381 16.5594
695 2 7.77359 50.9857 16.5327
696 2 11.8406 50.9423 16.558
697 2 0.201641 55.0923 16.3324
698 2 4.10471 55.2173 16.7055
699 2 8.09758 55.0906 16.6454
700 2 12.0352 54.9653 16.6982
701 2 -0.103456 59.0183 16.7534
702 2 4.03028 58.9798 16.7613
703 2 7.90342 58.8372 16.8289
704 2 11.9187 59.0073 16.78
705 2 0.340259 63.0843 16.7177
706 2 4.05846 62.9904 16.6894
707 2 7.92254 63.1223 16.554
708 2 11.9837 62.876 16.7084
709 2 -0.0751424 66.9755 16.7291
710 2 3.9612 67.3101 16.8275
711 2 7.77245 67.1103 16.7242
712 2 11.9333 67.185 16.8817
713 2 0.0292955 71.2524 16.7698
714 2 3.92375 71.1788 16.8547
715 2 8.02078 71.2516 16.9558
716 2 11.9165 70.9616 16.8727
717 2 -0.100429 75.1866 16.8924
718 2 3.95833 75.1082 16.9884
719 2 8.1005 75.0799 17.1691
720 2 11.8154 75.3528 16.8992
721 2 -0.0195075 79.2255 17.095
722 2 4.25345 79.2055 16.9809
723 2 7.99786 79.1951 16.9417
724 2 12.0561 79.3186 17.1529
725 2 0.126903 83.2954 17.1616
726 2 4.01573 83.3992 17.039
727 2 7.88128 83.238 17.0542
728 2 11.9699 83.2999 17.0104
729 2 0.165176 87.283 17.2665
730 2 4.13802 87.2044 17.0521
731 2 8.16567 87.3463 17.0293
732 2 11.9233 87.2575 17.2885
733 2 -0.0962868 91.4611 17.2026
734 2 3.8107 91.2988 17.1709
735 2 7.92772 91.2792 17.0235
736 2 11.9587 91.329 17.1926
737 2 -0.00541686 95.2721 17.3457
738 2 3.94429 95.3423 17.5107
739 2 8.15279 95.3428 17.1831
740 2 11.9603 95.3942 17.4647
741 2 0.0151054 99.1995 17.4757
742 2 4.02286 99.2581 17.449
743 2 7.87964 99.2336 17.4249
744 2 11.8964 99.4491 17.3142
745 2 0.0615246 103.083 17.6455
746 2 3.99707 103.233 17.4001
747 2 7.87807 103.346 17.304
748 2 11.563 103.325 17.3036
749 2 -0.0296578 107.165 17.2313
750 2 3.83216 106.957 17.4596
751 2 7.87468 107.305 17.3553
752 2 11.6175 107.15 17.1703
753 2 -0.150704 111.104 17.3968
754 2 3.8822 110.858 17.1467
755 2 7.99539 111.045 17.3673
756 2 11.7969 111.028 17.3686
757 2 -0.0608475 114.974 17.2552
758 2 3.8949 114.865 17.2365
759 2 7.77706 114.909 17.3343
760 2 11.7924 114.986 17.1631
761 2 -0.123387 118.866 17.1641
762 2 4.18012 118.861 17.1711
763 2 7.86585 118.931 17.2757
764 2 11.6262 118.707 17.0994
765 2 0.206964 122.67 17.0292
766 2 4.18124 122.833 16.9835
767 2 7.96692 122.947 17.2873
768 2 11.7438 122.833 17.1751
769 2 15.8698 126.664 17.0954
770 2 3.83111 126.813 17.0317
771 2 7.98216 126.742 17.0833
772 2 11.975 126.886 16.9909
773 2 15.7469 130.662 17.0778
774 2 3.86209 130.903 17.1214
775 2 7.85632 130.643 16.9645
776 2 11.8601 130.953 17.1632
777 2 15.8801 134.652 17.0192
778 2 3.82323 134.596 17.0728
779 2 7.92608 134.851 16.9603
780 2 11.8304 134.501 17.2389
781 2 -0.24683 138.594 17.101
782 2 3.8619 138.72 16.9448
783 2 8.02657 138.481 16.918
784 2 11.8594 138.756 17.0748
785 2 15.889 142.649 16.7683
786 2 4.01897 142.415 16.8694
787 2 7.85485 142.454 16.8524
788 2 11.905 142.486 16.8542
789 2 16.0418 146.481 16.9361
790 2 3.90484 146.434 16.9912
791 2 7.82855 146.431 17.0057
792 2 11.8753 146.425 16.9216
793 2 15.8976 150.26 16.8928
794 2 3.84581 150.167 16.9165
795 2 7.90969 150.419 17.1534
796 2 11.9325 150.376 16.9015
797 2 15.6961 154.069 16.8366
798 2 3.86592 154.055 16.8728
799 2 7.88 154.233 16.9346
800 2 11.6762 154.233 16.9035
801 2 15.8349 158.039 20.8422
802 2 4.02791 157.987 20.8136
803 2 7.91163 158.188 20.992
804 2 11.8018 158.247 21.0412
805 2 -0.0473309 3.79646 20.8553
806 2 4.22998 3.85104 20.8104
807 2 7.9727 3.86757 20.5749
808 2 11.7977 3.76951 20.9182
809 2 15.8504 7.75318 20.8049
810 2 3.87346 7.72682 20.9037
811 2 7.78609 7.58697 20.5857
812 2 11.7996 7.60547 20.8574
813 2 15.9737 11.6758 20.6558
814 2 4.34372 11.5438 20.7949
815 2 7.90674 11.6601 20.6012
816 2 11.7394 11.66 20.7431
817 2 15.8345 15.5098 20.6512
818 2 4.1278 15.4652 20.6395
819 2 8.08834 15.5848 20.7183
820 2 11.9914 15.3412 20.6643
821 2 -0.0429423 19.5253 20.5697
822 2 4.05525 19.2948 20.5117
823 2 7.90409 19.5187 20.5574
824 2 11.8991 19.4283 20.6941
825 2 -0.0139051 23.2246 20.7549
826 2 3.85875 23.1785 20.4019
827 2 7.73249 23.4337 20.5961
828 2 11.784 23.2947 20.3941
829 2 15.8502 27.2512 20.6682
830 2 3.9806 27.2667 20.5636
831 2 8.03662 27.2652 20.384
832 2 11.7196 27.0993 20.5142
833 2 15.7563 31.2862 20.5389
834 2 3.84204 31.0645 20.4368
835 2 7.71308 31.1436 20.411
836 2 11.8009 31.1602 20.4149
837 2 15.9085 34.8885 20.2032
838 2 4.04704 34.8912 20.1827
839 2 7.88311 34.906 20.3559
840 2 11.8211 34.8113 20.2128
841 2 0.109436 38.7968 20.2958
842 2 4.00189 38.8514 20.3585
843 2 8.03408 38.7831 20.367
844 2 12.1069 38.7792 20.3777
845 2 15.8684 42.9521 20.6051
846 2 4.14477 42.7927 20.3751
847 2 7.94331 42.9708 20.3191
848 2 11.9348 42.9139 20.4293
849 2 15.8241 46.9846 20.5381
850 2 3.94041 46.8892 20.4532
851 2 8.06721 46.9081 20.5228
852 2 12.0476 46.8849 20.5454
853 2 0.0762987 51.1121 20.5093
854 2 3.91694 51.1389 20.5204
855 2 8.14906 50.9662 20.4874
856 2 11.926 50.8875 20.3329
857 2 -0.0113685 54.7953 20.4292
858 2 3.88001 54.8289 20.6469
859 2 8.00903 54.9376 20.7752
860 2 11.9324 54.7659 20.5051
861 2 16.0418 58.9589 20.7979
862 2 4.02847 58.9501 20.7375
863 2 7.9185 58.799 20.6646
864 2 11.8855 59.0177 20.5457
865 2 16.0442 62.9972 20.8051
866 2 4.13717 62.9852 20.5474
867 2 8.00405 62.8964 20.6552
868 2 11.8891 63.1882 20.8133
869 2 -0.0249377 66.9262 20.5683
870 2 3.96392 66.9522 20.7482
871 2 7.8134 66.9703 20.768
872 2 11.8919 67.0024 20.7133
873 2 0.0847789 70.8877 20.7356
874 2 3.83745 70.969 20.7256
875 2 7.86969 70.9305 20.6907
876 2 11.8174 71.0595 20.8509
877 2 0.0323082 75.0438 20.6837
878 2 3.90448 75.0027 20.8903
879 2 7.77606 75.0728 20.997
880 2 12.102 75.1951 20.8268
881 2 0.158301 79.1708 21.0677
882 2 4.04538 79.1256 20.7969
883 2 8.02477 79.1163 20.8689
884 2 12.0328 79.1506 21.0301
885 2 0.169398 83.1219 20.9864
886 2 3.95312 83.4324 20.8115
887 2 8.12209 83.1602 21.0383
888 2 11.9189 83.3983 21.0149
889 2 0.102672 87.442 21.2857
890 2 3.95598 87.1015 21.0697
891 2 8.0403 87.1238 21.0234
892 2 11.9612 87.1701 21.1357
893 2 -0.00957805 91.2631 21.1793
894 2 4.26501 91.3695 20.8787
895 2 8.04197 91.2263 20.9745
896 2 11.7952 91.2412 21.1511
897 2 -0.0506656 95.2291 21.2576
898 2 4.00596 95.4048 21.2142
899 2 8.041 95.1831 21.0312
900 2 11.96 95.3147 21.3368
901 2 0.0487434 99.2412 21.4772
902 2 4.06431 99.3214 21.5214
903 2 7.95492 99.3728 21.4686
904 2 11.7561 99.2626 21.4891
905 2 -0.0778806 103.321 21.4589
906 2 3.82852 103.18 21.5458
907 2 7.68723 103.229 21.3649
908 2 11.8409 103.337 21.3635
909 2 -0.166105 107.166 21.4047
910 2 3.84242 107.158 21.3673
911 2 7.95454 107.325 21.3707
912 2 11.7661 107.267 21.4371
913 2 0.0445715 111.008 21.3918
914 2 3.92336 111.179 21.2436
915 2 7.93945 111.398 21.4338
916 2 11.8918 111.197 21.3619
917 2 15.8402 114.947 21.4447
918 2 3.85544 114.846 21.291
919 2 7.86107 115.03 21.2995
920 2 11.8172 115.164 21.3453
921 2 -0.0346402 118.92 20.8517
922 2 3.79808 119.14 21.3182
923 2 7.95162 118.918 21.3076
924 2 11.8525 118.88 21.2356
925 2 15.6078 123.079 20.9839
926 2 3.84721 122.835 21.1471
927 2 7.79105 122.916 21.2414
928 2 11.954 123.036 21.1545
929 2 15.6704 126.93 21.1836
930 2 3.99483 126.915 21.0765
931 2 7.82522 126.841 21.162
932 2 11.7007 126.928 21.202
933 2 15.6454 130.729 21.0535
934 2 3.94902 130.876 20.9729
935 2 7.7044 130.693 21.1855
936 2 11.9103 130.822 21.111
937 2 -0.110309 134.813 21.1249
938 2 3.87531 134.575 21.015
939 2 7.81529 134.616 21.0583
940 2 11.7524 134.675 21.2334
941 2 15.9776 138.623 21.0332
942 2 3.89606 138.522 20.9945
943 2 7.7947 138.552 21.0857
944 2 11.8332 138.522 21.1517
945 2 15.6575 142.703 21.0205
946 2 3.79385 142.549 21.0499
947 2 7.8251 142.327 20.9714
948 2 11.7161 142.371 21.0271
949 2 15.7868 146.537 20.853
950 2 3.81836 146.304 21.0586
951 2 7.91067 146.16 21.0116
952 2 11.7594 146.059 20.8768
953 2 16.0833 150.374 21.0295
954 2 4.1905 150.154 21.0812
955 2 8.10205 150.271 21.0488
956 2 11.9098 150.242 20.8763
957 2 15.9333 154.045 21.0471
958 2 4.00024 154.091 20.7231
959 2 8.01386 154.112 20.9946
960 2 12.0561 154.161 21.0077
961 2 -0.0736963 158.318 24.8955
962 2 3.98979 158.323 24.7571
963 2 8.0583 158.061 24.8227
964 2 11.6668 158.143 24.8616
965 2 15.7683 3.8397 24.8598
966 2 3.87977 3.66663 24.7521
967 2 7.76488 3.80316 24.8378
968 2 11.8101 3.89784 25.013
969 2 15.8329 7.74834 24.8691
970 2 4.00169 7.66918 24.851
971 2 7.99282 7.78484 24.6979
972 2 11.9263 7.71464 24.8595
973 2 15.6372 11.7148 24.607
974 2 3.86413 11.643 24.4394
975 2 7.87784 11.729 24.7719
976 2 11.8315 11.5426 24.7135
977 2 -0.0424135 15.4943 24.6686
978 2 4.08675 15.5213 24.593
979 2 7.92699 15.5853 24.6885
980 2 11.8542 15.5391 24.581
981 2 0.110093 19.345 24.5579
982 2 4.08442 19.2137 24.6196
983 2 7.94583 19.6265 24.6175
984 2 12.0158 19.6142 24.7212
985 2 -0.0206764 23.3243 24.6807
986 2 4.10304 23.3653 24.4936
987 2 8.03933 23.5101 24.4925
988 2 11.8418 23.2864 24.6947
989 2 0.118529 27.2387 24.4429
990 2 3.92798 27.3536 24.5665