ITEM: TIMESTEP
21500
ITEM: NUMBER OF ATOMS
32000
ITEM: BOX BOUNDS xy xz yz pp pp pp
0.0000000000000000e+00 1.5832000000000001e+01 0.0000000000000000e+00
0.0000000000000000e+00 1.5831999999999999e+02 0.0000000000000000e+00
8.3481008563811088e-01 1.6014230791435790e+02 0.0000000000000000e+00
ITEM: ATOMS id type x y z
1 2 15.8406 157.956 160.129
2 2 3.85536 158.087 160.002
3 2 7.75564 157.815 160.013
4 2 11.9544 158.026 160.049
5 2 0.0420326 3.38246 159.849
6 2 3.99813 3.67948 159.732
7 2 7.8971 3.51517 160.136
8 2 11.9877 3.59982 159.986
9 2 15.801 7.38953 159.891
10 2 3.92363 7.34724 159.881
11 2 7.84815 7.35713 159.743
12 2 11.8519 7.39447 160.142
13 2 15.7848 11.2804 159.743
14 2 4.00233 11.3833 159.667
15 2 7.85835 11.1362 159.749
16 2 11.8216 11.2461 160.05
17 2 0.196364 15.2343 159.672
18 2 3.79446 15.203 159.675
19 2 7.846 15.3864 159.81
20 2 11.7062 15.1894 159.714
21 2 15.6532 19.0229 159.583
22 2 3.75952 19.1433 159.584
23 2 7.68399 19.0843 159.656
24 2 11.7665 19.2623 159.631
25 2 15.9018 23.155 159.783
26 2 4.16179 23.1695 159.679
27 2 7.93482 23.0462 159.641
28 2 11.9247 23.1431 159.673
29 2 15.6564 27.1409 159.707
30 2 3.93285 27.1397 159.832
31 2 7.783 27.1549 159.956
32 2 11.7885 27.1233 159.676
33 2 15.6385 31.2331 159.673
34 2 3.86148 31.0638 0.673145
35 2 7.95478 31.205 159.773
36 2 11.7846 31.0498 159.871
37 2 -0.184554 35.2412 159.794
38 2 3.98688 35.0427 159.907
39 2 7.81818 35.2083 160.012
40 2 11.7779 34.9686 160.064
41 2 0.100316 39.1993 159.986
42 2 3.88707 39.0607 0.641557
43 2 7.70613 39.1553 0.743024
44 2 11.6403 39.2189 0.679009
45 2 0.0395717 43.1884 160.224
46 2 3.84329 43.1578 160.117
47 2 7.76886 43.2878 0.830468
48 2 11.6015 43.0996 0.800379
49 2 0.0120276 47.2918 0.899041
50 2 3.92697 47.1309 0.906489
51 2 7.89976 47.1882 0.818033
52 2 11.8665 47.2457 0.885475
53 2 -0.0329133 51.3063 0.876226
54 2 3.85522 51.2591 0.933967
55 2 7.92874 51.1448 1.10637
56 2 11.713 51.1805 0.960417
57 2 15.8905 55.3414 1.04651
58 2 4.05728 55.2292 0.954329
59 2 7.82645 55.1942 0.995855
60 2 11.9801 55.2333 1.09604
61 2 0.00615942 59.1864 1.21981
62 2 4.14358 59.1696 1.15912
63 2 7.83893 59.2187 1.03221
64 2 11.8557 59.2239 1.04747
65 2 0.207424 63.2822 1.19715
66 2 4.09962 63.2537 1.20734
67 2 8.00949 63.5421 1.23435
68 2 11.8957 63.4103 1.07723
69 2 15.7623 67.444 1.15526
70 2 3.92592 67.4017 1.33645
71 2 7.88412 67.3511 1.25936
72 2 12.0163 67.4445 1.05903
73 2 -0.0209313 71.4825 1.30873
74 2 3.859 71.4494 1.28336
75 2 7.82632 71.425 1.40653
76 2 11.8224 71.5538 1.08098
77 2 0.235526 75.5644 1.37712
78 2 3.98414 75.481 1.67146
79 2 7.8278 75.2617 1.50013
80 2 12.0571 75.3935 1.13594
81 2 0.243756 79.7265 1.24488
82 2 4.09801 79.3709 1.68514
83 2 8.19667 79.6014 1.38677
84 2 12.083 79.4579 1.4481
85 2 0.129774 83.3844 1.44556
86 2 4.20541 83.6879 1.26366
87 2 7.92052 83.4186 1.2131
88 2 12.0129 83.4556 1.40978
89 2 -0.0127416 87.3936 1.38733
90 2 4.15998 87.3961 1.49964
91 2 7.98024 87.4598 1.22776
92 2 11.9575 87.3451 1.53094
93 2 0.0958444 91.4622 1.34722
94 2 3.88504 91.5235 1.47974
95 2 7.8103 91.4035 1.30862
96 2 11.826 91.3459 1.42671
97 2 15.8021 95.187 1.273
98 2 4.00537 95.3639 1.39946
99 2 7.99628 95.3508 1.36541
100 2 12.0319 95.2455 1.38689
101 2 -0.0956414 99.0832 1.32234
102 2 3.81141 99.1744 1.10834
103 2 7.77519 99.0105 1.05972
104 2 11.7109 99.1634 1.10664
105 2 -0.00127054 103.052 1.23994
106 2 3.82085 103.303 1.32555
107 2 7.92959 103.008 1.15143
108 2 11.956 103.149 1.36272
109 2 0.000150951 107.166 1.21447
110 2 3.71537 107.038 1.23128
111 2 7.93394 106.938 1.02387
112 2 12.0225 107.128 1.24378
113 2 0.096688 110.966 1.38092
114 2 3.90409 111.167 1.2248
115 2 7.87243 110.998 1.10024
116 2 11.909 111.046 1.24493
117 2 15.8546 114.889 1.19593
118 2 4.17027 114.902 1.21484
119 2 7.90086 115.005 1.01883
120 2 11.7542 114.955 1.17795
121 2 -0.147639 118.851 1.22703
122 2 4.0647 118.769 1.37486
123 2 7.93723 118.871 1.17541
124 2 11.8279 118.913 1.13493
125 2 15.8449 122.68 1.1035
126 2 3.96133 122.725 1.26624
127 2 7.80889 122.924 1.15136
128 2 11.7871 122.738 1.13978
129 2 0.10284 126.652 0.942615
130 2 3.80571 126.626 1.07265
131 2 7.75401 126.918 0.992907
132 2 11.667 126.705 1.05166
133 2 15.7189 130.693 1.02212
134 2 3.7792 130.57 1.04916
135 2 8.02064 130.599 0.88768
136 2 11.9591 130.471 1.06364
137 2 15.6914 134.529 0.83767
138 2 3.83032 134.509 1.05715
139 2 7.82576 134.748 160.285
140 2 11.8963 134.604 0.92076
141 2 -0.0136201 138.264 0.925628
142 2 3.90602 138.312 159.86
143 2 7.73327 138.366 160.194
144 2 11.8146 138.501 0.915022
145 2 15.896 142.269 160.211
146 2 3.72579 142.287 160.164
147 2 7.96412 142.389 160.299
148 2 11.9743 142.148 160.074
149 2 -0.115136 146.005 160.088
150 2 3.85265 146.254 160.118
151 2 7.75419 146.186 160.021
152 2 12.0784 146.296 159.981
153 2 15.7585 150.101 159.993
154 2 3.82462 150.286 159.884
155 2 7.71397 150.19 160.188
156 2 11.7072 150.037 0.77257
157 2 15.5481 154.133 159.867
158 2 3.80438 154.053 160.02
159 2 7.94428 154.046 160.136
160 2 11.8092 154.05 159.915
161 2 15.8417 157.749 4.49332
162 2 4.01396 158.003 4.72147
163 2 8.03582 157.933 4.77642
164 2 12.0443 157.984 4.74425
165 2 -0.0526717 3.4977 4.65003
166 2 3.87328 3.69704 4.59927
167 2 7.73455 3.45547 4.58694
168 2 11.6688 3.61035 4.79756
169 2 0.0769892 7.4171 4.61434
170 2 3.76414 7.59638 4.51837
171 2 7.8011 7.57776 4.68208
172 2 11.881 7.57219 4.60594
173 2 -0.0444308 11.4406 4.61724
174 2 3.82523 11.4068 4.6251
175 2 7.87193 11.5534 4.56852
176 2 11.8664 11.4512 4.62435
177 2 15.7239 15.3714 4.49735
178 2 3.89061 15.262 4.29459
179 2 7.81875 15.3408 4.42583
180 2 11.7569 15.1173 4.48525
181 2 -0.0669717 19.0619 4.36592
182 2 3.87798 19.3532 4.34614
183 2 7.76216 19.1985 4.28483
184 2 11.8999 19.0732 4.27817
185 2 -0.0925816 23.0249 4.48386
186 2 3.78697 23.0365 4.49945
187 2 7.95098 23.0815 4.32138
188 2 11.7983 23.0196 4.24479
189 2 15.6412 27.1576 4.36655
190 2 3.81908 27.001 4.41923
191 2 7.70074 27.0682 4.41058
192 2 11.725 27.1261 4.22653
193 2 -0.0558965 30.9369 4.45279
194 2 3.89466 31.1825 4.41912
195 2 7.85343 30.863 4.61742
196 2 12.0898 30.9655 4.42613
197 2 -0.112169 35.2058 4.38997
198 2 3.87604 35.0241 4.41362
199 2 7.75622 35.0259 4.47111
200 2 11.967 34.9957 4.64472
201 2 15.6851 39.1171 4.69158
202 2 3.98368 39.0353 4.71975
203 2 7.80626 39.1221 4.70847
204 2 11.8105 39.0732 4.68863
205 2 -0.120682 42.9711 4.64938
206 2 3.86511 43.0686 4.67105
207 2 7.67459 43.2051 4.5559
208 2 11.7786 43.0138 4.68763
209 2 0.237806 47.0511 4.768
210 2 3.93825 47.1623 4.57878
211 2 7.92756 47.06 4.94648
212 2 11.8684 47.1718 4.68423
213 2 0.0388903 51.1803 4.8901
214 2 3.86967 51.092 4.85502
215 2 7.94572 51.23 4.93466
216 2 11.8893 51.0975 4.94237
217 2 -0.0676841 55.2766 4.77269
218 2 3.81003 55.0943 5.09454
219 2 7.7237 55.0146 4.87988
220 2 11.7444 55.0065 5.01278
221 2 15.6165 59.3653 5.07122
222 2 3.79366 59.1869 4.95599
223 2 8.0493 59.0884 4.90389
224 2 11.9141 59.123 4.82623
225 2 -0.0818394 63.3673 5.01596
226 2 3.96938 63.2947 4.85836
227 2 7.96586 63.3041 5.10832
228 2 11.9121 63.2696 5.07996
229 2 15.9304 67.3878 4.92146
230 2 4.25459 67.3623 5.14505
231 2 8.14885 67.2095 5.17724
232 2 12.1461 67.3074 5.14117
233 2 15.9063 71.3935 5.24275
234 2 3.92177 71.4668 5.25067
235 2 8.1365 71.3556 5.1691
236 2 11.8633 71.2746 5.05036
237 2 15.6809 75.375 5.27649
238 2 3.93471 75.509 5.40492
239 2 8.10678 75.4271 5.04661
240 2 11.933 75.5061 5.14871
241 2 0.150966 79.3302 5.20715
242 2 3.97162 79.5726 5.38468
243 2 8.15299 79.4592 5.23109
244 2 12.0574 79.4613 5.43074
245 2 15.9344 83.3774 5.40622
246 2 3.90455 83.4239 5.41316
247 2 7.77482 83.5004 5.33031
248 2 11.9444 83.2827 5.40653
249 2 -0.0755664 87.6655 5.48303
250 2 3.98537 87.5367 5.37419
251 2 8.1459 87.3574 5.15503
252 2 11.8699 87.654 5.30038
253 2 -0.00230833 91.5495 5.47809
254 2 3.95707 91.4193 5.43654
255 2 7.76581 91.5557 5.41723
256 2 12.1895 91.4633 5.29545
257 2 15.9625 95.5654 5.46868
258 2 4.17811 95.2634 5.45984
259 2 8.08929 95.3354 5.35005
260 2 11.7879 95.3344 5.41678
261 2 0.118308 99.3891 5.37359
262 2 3.9685 99.2461 5.39783
263 2 7.99065 99.2512 5.26466
264 2 11.8812 99.3172 5.47072
265 2 0.0253186 103.374 5.32535
266 2 4.09351 103.08 5.16637
267 2 8.00194 103.18 5.12469
268 2 11.9224 103.165 5.07053
269 2 15.8008 107.173 5.31109
270 2 3.99124 107.047 5.20692
271 2 8.02035 107.094 4.96681
272 2 11.6996 107.18 5.40195
273 2 15.8166 110.897 5.38129
274 2 4.18034 110.914 5.14735
275 2 7.99351 110.991 5.38073
276 2 11.7101 110.829 5.09843
277 2 0.0183762 114.972 5.34628
278 2 3.99144 114.811 5.2598
279 2 7.87475 114.966 5.23419
280 2 11.8515 114.627 5.17265
281 2 -0.0479679 118.856 5.33453
282 2 3.82304 118.831 5.24406
283 2 7.81527 118.828 5.23629
284 2 11.9438 118.882 5.13174
285 2 15.8926 122.797 5.05734
286 2 4.04311 122.708 5.07876
287 2 7.93883 122.924 5.21844
288 2 11.7841 122.728 5.16591
289 2 0.0644193 126.704 5.1278
290 2 4.18228 126.786 5.09558
291 2 8.03018 126.632 4.97885
292 2 11.9793 126.555 5.00799
293 2 0.0819304 130.518 4.86312
294 2 4.05762 130.7 4.97868
295 2 7.84959 130.72 5.01448
296 2 11.9751 130.667 5.02782
297 2 15.9173 134.526 5.08901
298 2 3.97173 134.473 5.02283
299 2 8.08857 134.454 4.8772
300 2 11.8055 134.52 5.0321
301 2 -0.0677549 138.463 5.02492
302 2 3.82741 138.457 4.92597
303 2 7.86114 138.393 4.80281
304 2 11.6359 138.482 4.95547
305 2 0.004815 142.369 4.94247
306 2 3.82605 142.281 4.93034
307 2 8.05339 142.458 4.8304
308 2 11.8221 142.178 4.79792
309 2 15.8266 146.228 4.84229
310 2 4.01864 146.399 4.69663
311 2 7.9679 146.177 4.8637
312 2 11.9346 146.277 4.77368
313 2 15.8304 150.144 4.72508
314 2 3.86169 150.254 4.70972
315 2 7.84581 150.175 4.86716
316 2 12.055 150.055 4.81165
317 2 15.776 153.899 4.74056
318 2 3.84424 154.18 4.70189
319 2 7.98465 154.001 4.84147
320 2 12.023 154.066 4.70955
321 2 15.95 158.041 8.63952
322 2 3.86319 157.959 8.747
323 2 7.87675 158.044 8.78742
324 2 11.689 157.932 8.90061
325 2 15.9749 3.46922 8.52289
326 2 4.00642 3.77699 8.68785
327 2 7.88064 3.44529 8.46915
328 2 11.8369 3.64856 8.61205
329 2 15.6871 7.52104 8.69736
330 2 4.01933 7.48863 8.48011
331 2 7.95152 7.51262 8.64827
332 2 11.7732 7.42101 8.58244
333 2 0.0274159 11.2451 8.66099
334 2 4.13911 11.3156 8.55088
335 2 7.85936 11.5311 8.75053
336 2 11.8699 11.4717 8.66326
337 2 15.8688 15.4925 8.61181
338 2 3.98186 15.3109 8.53073
339 2 7.8824 15.4515 8.46659
340 2 11.7711 15.3929 8.54759
341 2 0.0105872 19.2324 8.47588
342 2 4.0034 19.0266 8.35426
343 2 7.76623 19.3432 8.34435
344 2 11.9653 19.3089 8.41608
345 2 0.141228 23.2194 8.53411
346 2 4.08557 23.0902 8.49005
347 2 8.0988 23.126 8.405
348 2 11.8858 23.2431 8.29016
349 2 0.0127565 27.0342 8.51358
350 2 3.91072 27.0308 8.28584
351 2 7.99841 27.0116 8.20616
352 2 11.9674 26.8656 8.57298
353 2 0.135679 30.8526 8.35272
354 2 3.88626 30.9949 8.36569
355 2 7.94071 30.9476 8.43772
356 2 11.9614 30.9269 8.38643
357 2 15.9932 35.0284 8.51617
358 2 3.79832 34.9426 8.39086
359 2 7.84845 34.9227 8.46836
360 2 11.9124 34.9521 8.41631
361 2 -0.0201586 38.8687 8.6961
362 2 3.98672 38.9807 8.53041
363 2 8.00172 38.9559 8.62996
364 2 11.6394 39.021 8.43488
365 2 0.105881 43.19 8.69856
366 2 4.21651 43.2402 8.44436
367 2 7.96603 43.1885 8.81219
368 2 12.0082 43.1688 8.64662
369 2 0.136649 47.0449 8.67826
370 2 4.12251 47.1792 8.6646
371 2 8.06734 47.0786 8.8632
372 2 11.9098 46.9265 8.70442
373 2 15.8181 50.9967 8.64569
374 2 3.91341 51.1583 8.71173
375 2 8.05654 51.0006 8.81936
376 2 12.0173 50.9634 8.79777
377 2 15.7017 55.1808 8.81841
378 2 3.8104 54.9746 8.80889
379 2 7.83334 55.0861 8.96658
380 2 11.8815 55.1411 8.95164
381 2 -0.0749743 59.3327 9.18846
382 2 3.99124 59.2565 8.82508
383 2 7.84953 59.1901 8.77833
384 2 11.7822 59.1711 8.68536
385 2 -0.0642526 63.1598 8.987
386 2 3.94729 63.122 9.06079
387 2 7.82909 63.1908 9.08043
388 2 11.7597 63.191 8.97838
389 2 15.9802 67.2081 8.79107
390 2 4.1067 67.2789 8.81226
391 2 7.98151 67.3694 9.05903
392 2 11.869 67.1044 9.02137
393 2 15.9149 71.1637 9.06362
394 2 4.11552 71.2801 9.09277
395 2 8.10572 71.2891 9.25647
396 2 11.9625 71.2008 8.96911
397 2 15.9614 75.2598 9.15204
398 2 3.97956 75.3148 9.12888
399 2 8.01949 75.1819 8.93349
400 2 11.9322 75.2349 9.08857
401 2 15.8847 79.3165 9.1688
402 2 4.00821 79.3122 9.21762
403 2 7.83513 79.3495 9.35219
404 2 11.9566 79.2947 9.17496
405 2 0.0298485 83.2992 9.38321
406 2 3.97798 83.4587 9.17951
407 2 7.9321 83.3073 9.2766
408 2 11.9837 83.2999 9.29149
409 2 -0.0249587 87.4854 9.43437
410 2 3.93333 87.2385 9.39694
411 2 8.02175 87.5842 9.13715
412 2 11.9172 87.3367 9.45732
413 2 0.110371 91.3817 9.41598
414 2 4.14979 91.3145 9.53742
415 2 8.0272 91.3403 9.5128
416 2 11.9457 91.4892 9.53724
417 2 15.8826 95.2676 9.43499
418 2 4.11401 95.4714 9.31919
419 2 8.05486 95.413 9.51053
420 2 12.0626 95.5705 9.48377
421 2 15.8814 99.3256 9.38362
422 2 3.86559 99.3199 9.4474
423 2 7.79155 99.3911 9.31055
424 2 11.8893 99.2757 9.23569
425 2 -0.0881816 103.291 9.34824
426 2 3.89288 103.264 9.23635
427 2 7.89616 103.372 9.167
428 2 11.7615 102.99 9.2111
429 2 0.0186814 107.16 9.21597
430 2 3.94942 107.16 9.13758
431 2 7.86666 107.188 9.21325
432 2 11.8957 107.093 9.39063
433 2 15.8888 111.114 9.43677
434 2 3.90199 111.024 9.29197
435 2 7.70223 110.973 9.35346
436 2 11.9096 110.936 9.25412
437 2 -0.0930455 114.978 9.26748
438 2 4.03557 114.905 9.23449
439 2 7.82996 115 9.37618
440 2 11.7528 114.91 9.17467
441 2 -0.0468788 119.01 9.3011
442 2 3.91788 119.052 9.20209
443 2 7.87714 119.027 8.94664
444 2 11.8201 118.917 9.19181
445 2 15.6587 122.992 9.18752
446 2 3.72487 123.032 9.10758
447 2 7.78135 122.654 9.16139
448 2 11.8221 122.782 9.1414
449 2 15.9324 126.832 8.96685
450 2 4.02422 126.92 8.92835
451 2 7.88678 126.677 9.00642
452 2 11.8847 126.707 9.07153
453 2 -0.177438 130.667 9.20931
454 2 4.02471 130.745 9.06585
455 2 7.96185 130.591 8.94525
456 2 11.8171 130.47 9.24344
457 2 -0.09778 134.339 9.15437
458 2 3.8975 134.747 9.01183
459 2 7.80793 134.531 9.10646
460 2 11.7712 134.639 9.18371
461 2 -0.0198179 138.346 8.92238
462 2 3.91501 138.482 9.03785
463 2 7.68826 138.517 9.06388
464 2 11.6534 138.532 9.01107
465 2 0.0045379 142.51 8.84058
466 2 3.82187 142.321 8.89962
467 2 7.64559 142.543 8.75017
468 2 11.8169 142.381 9.01341
469 2 16.0524 146.429 8.72805
470 2 4.10344 146.569 8.71395
471 2 7.93004 146.333 8.76441
472 2 11.9577 146.274 8.94421
473 2 15.8735 150.256 8.82749
474 2 4.04154 150.338 8.64753
475 2 7.76599 150.269 8.57526
476 2 11.8594 150.111 8.94564
477 2 15.881 154.113 8.94992
478 2 3.93399 154.038 8.84543
479 2 7.79161 154.096 8.72885
480 2 11.9196 154.092 8.75735
481 2 15.7142 158.152 12.8414
482 2 3.97494 158.268 12.6333
483 2 7.83442 158.041 12.74
484 2 11.7845 158.19 12.8069
485 2 15.8412 3.66667 12.6465
486 2 4.0756 3.71737 12.7207
487 2 7.93996 3.74934 12.8382
488 2 11.9624 3.72323 12.7387
489 2 15.7564 7.58855 12.7126
490 2 3.76514 7.59044 12.6281
491 2 8.019 7.59436 12.5959
492 2 11.6722 7.51896 12.4962
493 2 0.0796967 11.4546 12.6227
494 2 3.82264 11.6117 12.5767
495 2 7.96003 11.4772 12.7708
496 2 11.957 11.4879 12.6842
497 2 -0.0607787 15.5697 12.701
498 2 3.89888 15.4613 12.6423
499 2 8.18717 15.3143 12.5721
500 2 11.7741 15.4242 12.6844
501 2 -0.100393 19.4918 12.3974
502 2 3.96208 19.2245 12.5617
503 2 7.85349 19.2577 12.5559
504 2 11.9069 19.202 12.5716
505 2 0.164292 23.2537 12.519
506 2 4.00821 22.9618 12.5587
507 2 7.91493 23.1754 12.4391
508 2 11.9317 23.0483 12.4119
509 2 -0.0852585 26.962 12.4674
510 2 3.81112 27.0525 12.5057
511 2 7.81125 27.0122 12.4395
512 2 11.8983 26.9703 12.4848
513 2 0.474365 31.0446 12.3436
514 2 4.05967 31.0226 12.2301
515 2 7.97598 30.8023 12.2647
516 2 11.9521 30.8537 12.4057
517 2 0.0690287 35.0513 12.3546
518 2 4.01695 34.9126 12.4052
519 2 7.93251 34.8282 12.1529
520 2 11.8334 34.9622 12.3802
521 2 0.158307 38.8853 12.5558
522 2 4.3051 39.1855 12.4599
523 2 7.95376 39.0199 12.4394
524 2 11.8794 38.9887 12.3865
525 2 0.170031 42.775 12.4393
526 2 4.00417 42.9508 12.4908
527 2 7.88306 43.0329 12.4905
528 2 11.9572 43.013 12.639
529 2 0.125893 46.9954 12.6822
530 2 3.84689 47.0087 12.5634
531 2 7.92144 46.9612 12.6876
532 2 11.9067 47.0109 12.5887
533 2 0.0414496 50.976 12.7533
534 2 3.79966 50.9646 12.66
535 2 8.11333 50.9408 12.7032
536 2 12.0105 51.0815 12.6764
537 2 15.9101 55.063 12.7427
538 2 4.03085 54.9892 12.691
539 2 7.964 55.0642 12.6375
540 2 11.9441 55.1469 12.8265
541 2 15.9384 59.1296 12.8106
542 2 3.99564 59.0592 12.7334
543 2 7.9122 59.1283 12.6644
544 2 12.0136 58.9991 12.5792
545 2 15.609 63.386 12.7387
546 2 3.86048 62.9682 13.0188
547 2 7.98335 63.1564 12.9323
548 2 11.8242 63.0876 13.0387
549 2 0.241661 67.0528 12.7261
550 2 4.24795 67.1576 13.0785
551 2 7.96423 67.0926 13.0429
552 2 12.1457 67.2142 12.8597
553 2 -0.0177212 70.9221 13.1023
554 2 3.95699 71.128 13.1115
555 2 7.94049 71.16 13.1016
556 2 12.0039 71.339 13.0943
557 2 0.0612328 75.0351 13.0405
558 2 4.04793 75.3301 12.9388
559 2 8.08813 75.2301 12.858
560 2 12.0898 75.1229 13.0566
561 2 0.0083329 79.2304 13.0552
562 2 4.00964 79.2033 13.0767
563 2 8.02729 79.1292 13.038
564 2 11.901 79.2118 13.0178
565 2 0.158039 83.3692 13.0289
566 2 4.10687 83.2075 13.1051
567 2 7.94969 83.26 13.3238
568 2 11.8344 83.3046 13.1599
569 2 -0.0423511 87.6292 13.3613
570 2 4.0381 87.1573 13.2524
571 2 7.89696 87.3769 13.3321
572 2 11.9816 87.344 13.2283
573 2 0.130989 91.5207 13.3425
574 2 4.15442 91.2742 13.2017
575 2 8.0432 91.3005 13.4449
576 2 11.8683 91.442 13.5165
577 2 -0.0865571 95.4785 13.5019
578 2 3.84755 95.3698 13.3746
579 2 7.9329 95.4805 13.4766
580 2 11.7762 95.366 13.5219
581 2 0.0542155 99.3286 13.2937
582 2 3.99426 99.2756 13.2896
583 2 7.90985 99.3933 13.3792
584 2 11.6947 99.3177 13.2837
585 2 -0.126552 103.326 13.3277
586 2 3.95926 103.209 13.2697
587 2 7.87569 103.199 13.3454
588 2 11.7168 103.363 13.3696
589 2 -0.207208 107.062 13.1612
590 2 3.91908 107.051 13.4092
591 2 7.81342 107.199 13.2795
592 2 11.6285 107.194 13.2417
593 2 -0.108022 110.992 13.4633
594 2 3.84859 111.285 13.4714
595 2 7.77299 111.028 13.3263
596 2 11.9264 111.071 13.437
597 2 -0.174306 114.975 13.195
598 2 3.82155 115.054 13.0059
599 2 7.87597 115.181 13.163
600 2 11.5503 114.94 13.2132
601 2 -0.0776669 118.953 13.315
602 2 3.81719 118.891 13.2609
603 2 7.91497 119.016 13.3172
604 2 11.8602 118.751 13.2437
605 2 -0.179248 122.897 13.1285
606 2 3.7776 122.81 13.189
607 2 7.78939 122.844 13.1458
608 2 11.6479 122.71 13.269
609 2 -0.0911912 126.781 13.1965
610 2 3.94127 126.628 13.2415
611 2 7.74195 126.642 13.1526
612 2 11.7456 126.669 13.1432
613 2 16.0141 130.654 13.1085
614 2 3.73988 130.514 13.0832
615 2 7.85359 130.529 12.9511
616 2 11.6858 130.599 13.1082
617 2 15.8399 134.552 13.0541
618 2 4.05741 134.571 13.0606
619 2 7.99528 134.469 13.0635
620 2 11.9001 134.666 13.0439
621 2 0.00593201 138.621 13.0287
622 2 3.88422 138.469 12.9363
623 2 7.63041 138.714 13.0904
624 2 11.9035 138.406 13.084
625 2 15.6859 142.444 12.981
626 2 3.80449 142.537 12.9326
627 2 7.73042 142.356 13.0418
628 2 11.7742 142.321 12.9469
629 2 0.184968 146.5 12.8567
630 2 3.77017 146.459 12.8644
631 2 7.88907 146.194 12.7592
632 2 11.9303 146.221 12.8988
633 2 -0.146112 150.297 13.0528
634 2 3.82962 150.166 12.9181
635 2 7.95505 150.227 12.8586
636 2 11.8465 150.25 12.8294
637 2 15.8153 154.121 12.9582
638 2 3.82825 154.211 12.8015
639 2 7.82272 153.98 12.8858
640 2 11.9229 154.15 12.7511
641 2 0.14419 158.198 16.7464
642 2 4.07614 -0.0982138 16.6893
643 2 7.8328 158.214 16.8297
644 2 11.6799 158.145 16.8269
645 2 15.7414 3.59878 16.6831
646 2 3.86943 3.9122 16.8216
647 2 7.96929 3.67464 16.9524
648 2 11.8317 3.7184 16.7396
649 2 -0.001607 7.83317 16.7614
650 2 4.13781 7.62622 16.6884
651 2 7.76896 7.74756 16.8057
652 2 11.8035 7.65448 16.765
653 2 0.0754525 11.5122 16.4626
654 2 3.90859 11.6052 16.6272
655 2 7.90895 11.6338 16.728
656 2 11.838 11.4193 16.6532
657 2 -0.256807 15.5269 16.6513
658 2 4.06277 15.3853 16.6578
659 2 7.9729 15.4007 16.8366
660 2 11.7069 15.2854 16.6531
661 2 15.8225 19.2353 16.6825
662 2 3.86144 19.1448 16.5962
663 2 7.80317 19.2301 16.5229
664 2 11.9036 19.2258 16.5321
665 2 0.0423609 23.0914 16.5468
666 2 4.07522 23.0668 16.5575
667 2 7.93675 23.2714 16.6712
668 2 11.8088 23.377 16.6311
669 2 0.126752 27.091 16.4382
670 2 3.856 27.21 16.4879
671 2 7.84646 27.2381 16.3012
672 2 11.8808 26.9339 16.4188
673 2 0.106468 31.1872 16.3777
674 2 4.16772 31.3346 16.4833
675 2 7.95461 31.0357 16.4608
676 2 11.9712 30.8845 16.4172
677 2 -0.0643531 34.9761 16.371
678 2 4.18088 34.9782 16.3138
679 2 8.22608 34.9121 16.3826
680 2 12.0379 34.964 16.3118
681 2 0.188481 38.8484 16.5011
682 2 4.09881 38.7965 16.3565
683 2 7.97188 38.9035 16.3788
684 2 11.7915 38.6999 16.3956
685 2 -0.0498896 42.838 16.4949
686 2 4.08713 42.8899 16.3501
687 2 7.81564 42.8681 16.5558
688 2 12.0309 42.9737 16.3734
689 2 15.8774 46.8769 16.5178
690 2 4.01858 46.8536 16.5263
691 2 7.86634 46.8524 16.3862
692 2 11.7698 47.1013 16.6273
693 2 0.0134173 50.9296 16.6398
694 2 4.07994 50.9696 16.4305
695 2 8.08598 50.8194 16.4446
696 2 12.1074 50.9389 16.5853
697 2 0.00996029 54.9771 16.755
698 2 3.88852 54.9064 16.5523
699 2 7.84757 55.0111 16.726
700 2 11.7847 55.0341 16.7575
701 2 0.281239 58.8634 16.5922
702 2 4.11048 59.1061 16.4673
703 2 8.09902 58.9606 16.7201
704 2 11.8594 59.0479 16.8439
705 2 -0.0446671 63.1139 16.8005
706 2 3.92655 63.0405 17.0413
707 2 7.77208 63.1221 16.7951
708 2 11.8808 63.1183 16.7063
709 2 0.286573 67.1456 16.9505
710 2 4.16262 66.9971 16.7377
711 2 8.08759 67.0981 17.067
712 2 12.2323 67.2955 17.0867
713 2 0.113703 71.2523 16.946
714 2 3.87083 71.0149 16.9673
715 2 7.9474 71.1203 17.0032
716 2 11.8527 71.0474 16.8846
717 2 0.182857 75.0844 17.0841
718 2 4.03367 74.9985 16.8959
719 2 7.95229 75.1122 16.9085
720 2 11.9035 75.0643 16.6805
721 2 -0.158963 79.0966 17.0128
722 2 3.89559 79.1293 17.0659
723 2 7.9027 79.0183 17.0933
724 2 12.114 79.0502 17.0693
725 2 0.110577 83.1823 16.8219
726 2 3.99207 83.1831 17.2382
727 2 7.92419 83.1301 17.1409
728 2 12.0179 83.1124 16.9952
729 2 0.148971 87.1319 17.1141
730 2 4.07331 87.2212 17.027
731 2 7.80476 87.2539 17.2178
732 2 11.7006 87.1276 17.0307
733 2 0.0299874 91.3729 17.4992
734 2 4.09875 91.6676 17.3071
735 2 7.96488 91.4024 17.4124
736 2 11.9701 91.2176 17.4143
737 2 0.11002 95.3125 17.3235
738 2 4.18876 95.4985 17.3541
739 2 7.7478 95.4804 17.4767
740 2 11.941 95.3485 17.3685
741 2 -0.0016282 99.326 17.3493
742 2 3.83267 99.3792 17.1797
743 2 7.81731 99.3358 17.4892
744 2 11.8585 99.1423 17.4294
745 2 0.0414491 103.361 17.2832
746 2 3.77416 103.159 17.3245
747 2 7.75683 103.19 17.2429
748 2 11.7832 103.27 17.4838
749 2 0.074876 107.247 17.3645
750 2 3.80588 107.318 17.3797
751 2 7.94785 107.196 17.3585
752 2 11.6092 107.276 17.3624
753 2 -0.0462434 111.04 17.3023
754 2 3.85624 111.34 17.3594
755 2 7.72762 110.915 17.2925
756 2 11.6593 111.097 17.3605
757 2 -0.280266 115.039 17.0879
758 2 3.9024 115.138 17.394
759 2 8.07878 114.966 17.344
760 2 11.9067 115.14 17.144
761 2 -0.188945 118.987 17.4159
762 2 3.77326 118.932 17.2375
763 2 7.80647 118.982 17.3725
764 2 11.9591 118.99 17.1754
765 2 -0.207587 122.93 17.3172
766 2 3.62091 122.838 17.1791
767 2 7.77115 122.934 17.3122
768 2 11.724 122.898 17.1374
769 2 15.5784 127.04 17.2774
770 2 3.99203 126.73 17.2939
771 2 7.76045 126.805 17.192
772 2 11.817 126.728 17.0826
773 2 15.8908 130.747 17.1115
774 2 3.97362 130.555 17.0745
775 2 7.88828 130.682 17.3208
776 2 11.7872 130.505 16.9854
777 2 15.7526 134.376 17.0853
778 2 3.89094 134.525 17.1073
779 2 7.93149 134.445 17.0326
780 2 11.8241 134.582 16.7027
781 2 0.150273 138.416 17.0862
782 2 4.07114 138.358 16.9957
783 2 7.77748 138.511 17.1551
784 2 11.7195 138.399 17.0178
785 2 15.6481 142.302 17.0199
786 2 3.83367 142.363 17.102
787 2 7.89154 142.422 17.1332
788 2 11.7335 142.387 17.1046
789 2 15.7378 146.281 16.9441
790 2 3.70333 146.523 16.8884
791 2 7.80462 146.351 16.9077
792 2 11.7701 146.317 17.0916
793 2 15.7122 150.309 16.9786
794 2 3.79254 150.388 16.9609
795 2 7.78929 150.245 16.8981
796 2 11.7307 150.117 16.7877
797 2 15.8041 154.33 16.8268
798 2 3.80735 154.198 16.8944
799 2 7.86316 154.02 16.7857
800 2 11.929 154.243 16.7669
801 2 15.6078 158.145 20.7967
802 2 3.94903 158.313 20.7722
803 2 7.93405 158.107 20.9206
804 2 11.7567 158.183 20.7975
805 2 -0.174293 3.78961 20.8133
806 2 3.87281 3.68372 20.8067
807 2 7.8769 3.68033 20.8069
808 2 11.8356 3.82619 20.5446
809 2 15.809 7.67701 20.7935
810 2 4.08704 7.76868 20.7623
811 2 7.9222 7.77402 20.7906
812 2 11.9724 7.67683 20.7979
813 2 15.843 11.5735 20.6096
814 2 3.87682 11.6478 20.7527
815 2 7.99889 11.6321 20.7438
816 2 11.9826 11.6141 20.6681
817 2 15.9014 15.5657 20.7052
818 2 4.03087 15.3807 20.6382
819 2 7.76501 15.3048 20.7045
820 2 11.9741 15.3203 20.5007
821 2 0.131637 19.3713 20.5042
822 2 4.18872 19.4252 20.558
823 2 8.04812 19.2449 20.5727
824 2 12.0303 19.4407 20.6026
825 2 -0.0325465 23.2932 20.4362
826 2 4.08543 23.2428 20.6127
827 2 8.24518 23.149 20.659
828 2 11.989 23.3191 20.5644
829 2 15.9722 27.041 20.3201
830 2 4.22306 27.191 20.4668
831 2 8.04073 27.085 20.4231
832 2 11.9254 27.1106 20.519
833 2 16.0426 31.0194 20.2996
834 2 3.92323 31.2135 20.3986
835 2 7.99282 30.9155 20.3078
836 2 11.9987 31.1339 20.2451
837 2 15.8139 34.923 20.2902
838 2 4.00757 35.0195 20.5167
839 2 8.04903 34.9302 20.3492
840 2 12.0951 35.0549 20.3996
841 2 -0.00478518 38.796 20.3303
842 2 4.04179 38.8941 20.3458
843 2 7.85278 38.9065 20.4536
844 2 11.8255 38.8451 20.3576
845 2 15.7471 42.8309 20.3015
846 2 4.01207 42.8921 20.4861
847 2 8.07314 43.1028 20.3794
848 2 11.9114 42.7695 20.4914
849 2 15.9269 46.9407 20.2633
850 2 3.99279 47.0252 20.4097
851 2 8.06094 46.9902 20.2758
852 2 11.8067 46.8207 20.4601
853 2 0.0499856 50.792 20.4803
854 2 3.96442 50.8513 20.6454
855 2 8.03235 50.9374 20.5564
856 2 11.8438 51.1179 20.5499
857 2 0.0380682 54.8939 20.7441
858 2 4.19684 55.0379 20.3876
859 2 7.97832 54.9528 20.5069
860 2 11.853 55.068 20.5687
861 2 15.9314 58.9392 20.4998
862 2 3.96709 58.999 20.6838
863 2 8.10854 59.1466 20.4864
864 2 12.0941 58.9504 20.6935
865 2 15.7193 62.9579 20.7538
866 2 4.00758 62.8391 20.8056
867 2 7.89262 62.9926 20.7932
868 2 11.8923 62.9735 20.7849
869 2 0.144288 67.037 20.742
870 2 3.97878 67.066 20.6611
871 2 8.00461 67.0376 20.7711
872 2 12.0423 67.1781 20.9288
873 2 0.0303741 71.0718 20.7644
874 2 4.11892 70.9595 20.7828
875 2 7.97227 71.0457 20.8817
876 2 11.8945 71.1806 20.9192
877 2 -0.0816539 74.9616 21.0954
878 2 3.98448 75.1527 20.6966
879 2 7.88686 75.0245 20.8021
880 2 12.0632 74.9908 20.9031
881 2 -0.131266 79.0047 20.9605
882 2 3.96123 79.0124 20.8544
883 2 7.90501 79.0515 21.092
884 2 11.8349 78.8008 20.8523
885 2 -0.103687 83.1189 20.8458
886 2 3.88587 83.0679 21.1883
887 2 7.85072 83.2694 20.8112
888 2 11.7917 82.9969 21.002
889 2 0.017817 87.1843 20.8227
890 2 4.0535 87.0884 21.1181
891 2 8.00218 87.2371 21.0012
892 2 11.9007 87.1936 21.1167
893 2 0.0709806 91.1049 21.1832
894 2 4.04313 91.2378 21.317
895 2 7.9658 91.3247 21.4203
896 2 12.0446 91.4734 21.138
897 2 0.10586 95.3538 21.3525
898 2 3.96713 95.2219 21.2713
899 2 8.02606 95.2215 21.488
900 2 11.9114 95.3665 21.1831
901 2 0.112584 99.2976 21.428
902 2 3.73229 99.432 21.2304
903 2 7.85455 99.4829 21.2808
904 2 11.8839 99.3429 21.3807
905 2 -0.0499868 103.308 21.388
906 2 3.89653 103.244 21.4881
907 2 7.89921 103.355 21.3699
908 2 11.8871 103.368 21.4504
909 2 0.0355762 107.153 21.4208
910 2 3.86863 107.338 21.4593
911 2 7.80299 107.07 21.3406
912 2 11.8899 107.076 21.3496
913 2 -0.0595888 111.269 21.3948
914 2 3.93312 111.181 21.328
915 2 7.94875 111.04 21.2741
916 2 11.6929 111.069 21.3218
917 2 15.8276 115.155 21.3075
918 2 3.99323 114.972 21.1897
919 2 7.85687 114.913 21.1194
920 2 11.6078 115.142 21.2303
921 2 0.0605511 118.973 21.5308
922 2 3.93472 119.015 21.4096
923 2 8.03013 119.158 21.0799
924 2 11.6339 118.948 21.2967
925 2 15.8491 122.727 21.3939
926 2 3.93438 122.822 21.3352
927 2 7.81098 122.745 21.3073
928 2 11.8166 122.815 21.194
929 2 15.7744 126.735 21.2575
930 2 3.85496 126.697 21.1278
931 2 8.01058 126.797 21.1672
932 2 11.8535 126.655 21.1939
933 2 15.7245 130.726 21.1464
934 2 4.09956 130.682 21.1169
935 2 8.02597 130.89 21.102
936 2 11.8711 130.554 20.9907
937 2 -0.0647538 134.411 21.0263
938 2 3.75239 134.524 21.0143
939 2 8.00209 134.523 21.0614
940 2 12.0381 134.707 20.8714
941 2 15.7684 138.429 21.0364
942 2 3.97067 138.6 21.0747
943 2 7.82456 138.607 21.1213
944 2 11.7234 138.446 21.0792
945 2 15.9362 142.411 21.0952
946 2 4.01555 142.663 21.0972
947 2 8.09871 142.621 21.089
948 2 11.9209 142.441 21.0004
949 2 15.9838 146.295 20.8894
950 2 3.77463 146.481 20.9891
951 2 7.70973 146.624 21.0378
952 2 11.9257 146.606 21.0413
953 2 15.6081 150.324 21.0347
954 2 3.51725 150.391 20.9389
955 2 7.69607 150.4 20.7918
956 2 11.7202 150.628 20.9559
957 2 15.549 154.264 20.7278
958 2 3.96829 154.35 20.8959
959 2 7.65115 154.238 20.9925
960 2 11.5278 154.211 20.8064
961 2 0.0137121 158.025 24.9689
962 2 3.8378 158.118 24.9876
963 2 7.94942 158.37 24.945
964 2 11.8337 158.206 24.7682
965 2 15.9032 3.71771 24.8676
966 2 4.08716 3.81066 24.8361
967 2 8.04115 3.75305 24.8488
968 2 11.9618 3.67605 24.8976
969 2 15.9202 7.7871 24.7246
970 2 4.10342 7.61613 24.861
971 2 7.80267 7.70369 24.6357
972 2 11.8097 7.53543 24.7855
973 2 16.0363 11.6315 24.6351
974 2 4.07293 11.6509 24.7054
975 2 8.00629 11.4589 24.6378
976 2 11.8127 11.7821 24.6177
977 2 0.0234476 15.6379 24.5955
978 2 4.05024 15.7409 24.6528
979 2 7.82019 15.5259 24.6669
980 2 12.0461 15.4606 24.545
981 2 -0.0638821 19.4883 24.5396
982 2 3.95292 19.4208 24.6058
983 2 7.95659 19.2696 24.6552
984 2 11.8884 19.3727 24.5662
985 2 0.24477 23.2929 24.6015
986 2 3.92643 23.3476 24.7331
987 2 7.84773 23.1711 24.4798
988 2 11.9971 23.2332 24.5086
989 2 0.00435231 27.3614 24.5104
990 2 3.9145 27.1639 24.5731
991 2 8.05148 27.0893 24.5989