ITEM: TIMESTEP
21600
ITEM: NUMBER OF ATOMS
32000
ITEM: BOX BOUNDS xy xz yz pp pp pp
0.0000000000000000e+00 1.5832000000000001e+01 0.0000000000000000e+00
0.0000000000000000e+00 1.5831999999999999e+02 0.0000000000000000e+00
8.3591574711401506e-01 1.6014120225288193e+02 0.0000000000000000e+00
ITEM: ATOMS id type x y z
1 2 15.8474 157.89 159.877
2 2 3.99347 158.139 159.911
3 2 7.98283 157.881 159.859
4 2 11.7094 157.944 159.89
5 2 -0.151238 3.52271 159.779
6 2 4.07369 3.57163 160.053
7 2 8.08094 3.31607 159.641
8 2 11.8311 3.50356 160.076
9 2 15.9397 7.53033 159.847
10 2 4.05478 7.52254 159.875
11 2 7.86629 7.39545 159.863
12 2 11.9835 7.35472 159.687
13 2 15.7999 11.4924 159.846
14 2 3.90495 11.31 159.933
15 2 8.0955 11.3453 159.795
16 2 11.8839 11.3079 159.675
17 2 -0.374507 15.2297 159.715
18 2 3.88806 15.1599 159.707
19 2 7.81119 15.1745 159.785
20 2 11.8161 15.1087 159.764
21 2 15.8052 19.135 159.719
22 2 3.87676 19.0908 159.703
23 2 8.02978 19.0795 159.705
24 2 11.8041 19.2758 159.72
25 2 15.7967 23.0097 159.77
26 2 3.79388 22.996 159.568
27 2 7.88597 23.0512 159.853
28 2 11.7824 23.0688 159.689
29 2 15.8202 27.0344 159.773
30 2 3.88475 27.0332 159.74
31 2 7.95611 27.1353 159.838
32 2 11.6759 27.1109 159.741
33 2 15.9167 31.1187 159.946
34 2 3.89512 31.2669 0.602575
35 2 7.79684 31.0285 159.962
36 2 11.8849 31.1048 159.943
37 2 -0.0676884 35.3448 159.999
38 2 3.74868 35.2495 159.902
39 2 7.93497 35.0768 159.806
40 2 11.8046 35.2445 159.917
41 2 -0.146552 39.2469 160.102
42 2 3.97669 39.2471 0.855922
43 2 7.95734 39.3207 0.723119
44 2 11.869 39.1329 0.838775
45 2 -0.172697 43.0829 159.947
46 2 3.89071 43.1273 160.022
47 2 7.80471 43.3201 0.798768
48 2 11.7987 43.354 0.742832
49 2 -0.101765 47.0844 0.886914
50 2 3.98841 47.2298 0.788485
51 2 7.81609 47.2191 0.91541
52 2 11.8965 47.1483 1.07277
53 2 -0.104328 51.1081 0.951865
54 2 3.89607 51.2427 0.841641
55 2 7.84927 51.2321 1.00229
56 2 11.8424 51.2338 1.05622
57 2 15.8527 55.1849 0.998191
58 2 3.79024 55.2803 1.26597
59 2 7.78168 55.3309 1.11256
60 2 11.735 55.2183 0.961945
61 2 -0.101075 59.3941 1.07358
62 2 3.78871 59.381 1.17235
63 2 7.8681 59.3082 1.08581
64 2 11.6653 59.3108 1.01861
65 2 0.0894762 63.4437 1.32946
66 2 3.97146 63.3884 1.16067
67 2 7.9035 63.1364 1.03605
68 2 11.969 63.0847 1.23243
69 2 15.901 67.3157 1.13177
70 2 4.10294 67.4118 1.30617
71 2 8.02915 67.39 1.19935
72 2 11.7929 67.2976 1.20396
73 2 -0.125041 71.3456 1.18679
74 2 4.03264 71.3282 1.42802
75 2 8.06216 71.3837 1.23596
76 2 11.8874 71.2398 1.18246
77 2 0.0339944 75.4702 1.25398
78 2 4.1888 75.4646 1.32251
79 2 8.24904 75.6035 1.11688
80 2 11.9774 75.5227 1.42512
81 2 0.218401 79.3713 1.34937
82 2 4.16163 79.58 1.19079
83 2 7.90421 79.4166 1.50898
84 2 11.9178 79.4244 1.31294
85 2 0.168975 83.4581 1.32514
86 2 4.07862 83.4069 1.53948
87 2 8.08966 83.4991 1.5456
88 2 11.9845 83.4743 1.44585
89 2 0.207736 87.4591 1.66303
90 2 4.07874 87.7423 1.4032
91 2 8.14723 87.6061 1.49675
92 2 11.9524 87.449 1.36985
93 2 -0.128051 91.4077 1.53221
94 2 4.01136 91.4584 1.42081
95 2 7.97303 91.6119 1.43209
96 2 11.8998 91.3853 1.39535
97 2 15.6987 95.4794 1.45242
98 2 3.81438 95.2859 1.16044
99 2 7.78206 95.4295 1.27324
100 2 11.6115 95.4127 1.28008
101 2 -0.00902657 99.1951 1.31619
102 2 3.78127 99.1541 1.35423
103 2 7.88281 99.2131 1.13901
104 2 11.995 99.1731 1.36362
105 2 -0.26005 103.124 1.21899
106 2 3.94687 102.951 1.24291
107 2 7.96667 103.036 1.26573
108 2 11.7715 103.052 1.16155
109 2 -0.0825869 106.995 1.17743
110 2 4.0637 107.015 1.22061
111 2 7.89356 106.873 1.11953
112 2 11.7755 107.141 1.10634
113 2 -0.0767741 111.168 1.1191
114 2 4.0012 110.886 1.33007
115 2 7.91204 111.089 1.23575
116 2 11.9424 111.185 1.10853
117 2 15.8456 114.988 1.31973
118 2 3.77081 114.815 1.19873
119 2 7.89335 115.079 1.15484
120 2 11.9858 115.033 1.21992
121 2 -0.0877544 118.888 1.00004
122 2 3.88125 118.764 0.959445
123 2 7.99465 118.881 1.03294
124 2 11.8073 118.82 1.16994
125 2 15.7538 122.81 1.16565
126 2 3.78575 122.624 1.02794
127 2 7.9345 122.746 1.14085
128 2 11.8823 122.69 1.08172
129 2 -0.0755956 126.54 1.12004
130 2 4.04735 126.892 1.04829
131 2 7.89774 126.677 1.17154
132 2 12.0802 126.763 1.09004
133 2 15.7949 130.523 1.01313
134 2 3.93739 130.789 1.00329
135 2 7.8346 130.717 1.09878
136 2 11.835 130.713 0.856995
137 2 15.9445 134.463 1.06019
138 2 3.96462 134.6 0.817712
139 2 7.96507 134.283 160.27
140 2 11.9276 134.439 0.74655
141 2 -0.0604471 138.435 0.86876
142 2 3.80389 138.515 160.351
143 2 7.81601 138.412 160.249
144 2 12.0781 138.183 0.745806
145 2 15.5865 142.307 160.141
146 2 3.95235 142.301 160.202
147 2 7.9947 142.138 160.174
148 2 11.7781 142.364 160.357
149 2 0.0896796 146.289 160.018
150 2 4.06843 146.128 160.179
151 2 7.99837 146.307 160.363
152 2 11.5437 145.992 160.112
153 2 15.7433 150.013 160.044
154 2 3.82392 150.194 160.061
155 2 7.97319 150.128 160.047
156 2 11.8747 150.167 0.761218
157 2 15.7714 153.855 159.899
158 2 3.78327 154.102 159.922
159 2 7.76173 154.032 159.896
160 2 11.7705 154.037 160.032
161 2 15.7399 158.072 4.77623
162 2 3.74368 157.942 4.46895
163 2 7.66331 157.917 4.64422
164 2 11.65 157.948 4.67951
165 2 0.0483678 3.73756 4.69476
166 2 3.88428 3.64447 4.572
167 2 7.9929 3.59605 4.66537
168 2 12.0372 3.63737 4.52684
169 2 -0.115138 7.60153 4.67445
170 2 4.07468 7.50974 4.57852
171 2 7.89755 7.49274 4.52153
172 2 11.7035 7.48307 4.51259
173 2 -8.28563e-05 11.3483 4.4774
174 2 3.96796 11.452 4.49411
175 2 8.06438 11.373 4.61593
176 2 11.8542 11.3452 4.57368
177 2 15.9154 15.2756 4.51208
178 2 4.04811 15.1052 4.53225
179 2 7.81622 15.4648 4.4463
180 2 11.9371 15.3639 4.50777
181 2 0.066543 19.3822 4.55331
182 2 3.79298 19.1036 4.49998
183 2 7.8332 19.2391 4.54532
184 2 11.8851 19.0829 4.36921
185 2 -0.147407 23.2032 4.41028
186 2 3.92203 23.0728 4.10447
187 2 7.80463 23.0032 4.51175
188 2 11.9443 23.1397 4.52136
189 2 15.7251 26.8925 4.47482
190 2 3.86187 26.9686 4.2665
191 2 7.81772 26.9931 4.422
192 2 11.8676 26.9808 4.4523
193 2 0.0599122 31.0163 4.58401
194 2 3.83135 31.0075 4.52077
195 2 7.99294 31.2622 4.51502
196 2 11.7681 31.0949 4.58623
197 2 -0.183914 35.0854 4.62578
198 2 3.81853 35.1726 4.43192
199 2 7.82992 35.2092 4.45568
200 2 11.7396 35.018 4.53777
201 2 15.8599 39.0692 4.71194
202 2 3.87559 39.1289 4.69901
203 2 7.80493 39.2132 4.67582
204 2 11.6787 39.132 4.5172
205 2 0.0557359 43.1699 4.63744
206 2 3.89098 43.2267 4.69459
207 2 8.1161 43.0403 4.91392
208 2 12.0458 43.1798 4.82689
209 2 0.018343 47.3527 4.84724
210 2 3.97171 47.1372 4.82604
211 2 8.00783 47.1816 4.70554
212 2 11.9885 46.9848 4.94245
213 2 0.0416778 51.1113 4.95099
214 2 4.08199 51.1213 4.86026
215 2 7.85838 51.0633 5.07734
216 2 11.8249 51.1424 4.86413
217 2 -0.0882791 55.0976 5.04282
218 2 3.82281 55.1687 4.90978
219 2 7.97909 55.2534 4.95059
220 2 11.905 55.2622 4.85516
221 2 15.8316 59.092 5.0343
222 2 4.02686 59.2235 5.21329
223 2 7.83749 59.3233 5.00734
224 2 11.672 59.3383 5.006
225 2 0.189337 63.1027 5.12601
226 2 3.9761 63.2445 5.28208
227 2 7.93335 63.2588 5.04747
228 2 11.9454 63.2333 5.04058
229 2 15.8761 67.2759 5.20848
230 2 3.96265 67.2209 5.20034
231 2 8.03666 67.322 4.9417
232 2 11.9484 67.2273 5.02023
233 2 15.9415 71.2683 5.1251
234 2 4.09244 71.1796 5.14034
235 2 8.08255 71.3046 5.10781
236 2 12.2414 71.4378 5.12656
237 2 16.0565 75.3739 5.2573
238 2 4.09701 75.1857 5.14756
239 2 7.99262 75.3162 5.38035
240 2 12.0675 75.312 5.1785
241 2 0.0807514 79.6156 5.25639
242 2 4.10979 79.2768 5.21025
243 2 8.05862 79.5193 5.40413
244 2 12.053 79.4296 5.16814
245 2 15.9272 83.5268 5.25506
246 2 4.02788 83.4646 5.35565
247 2 8.09173 83.4721 5.51025
248 2 11.8556 83.5654 5.31202
249 2 0.195441 87.2885 5.49002
250 2 4.03402 87.4174 5.47605
251 2 7.96008 87.6397 5.26943
252 2 12.0917 87.4136 5.37843
253 2 0.163416 91.4411 5.42066
254 2 3.91479 91.3664 5.45223
255 2 8.0725 91.4106 5.53145
256 2 11.8761 91.4276 5.50837
257 2 15.8894 95.2513 5.49017
258 2 3.95129 95.3537 5.3455
259 2 7.96432 95.4056 5.52844
260 2 12.0294 95.3288 5.50123
261 2 0.0427672 99.1244 5.37417
262 2 4.14631 99.5044 5.20484
263 2 7.77271 99.2685 5.37191
264 2 11.8403 99.1359 5.2427
265 2 -0.050437 103.105 5.25536
266 2 3.9598 103.358 5.39986
267 2 7.90404 103.086 5.28651
268 2 11.768 103.094 5.31477
269 2 15.921 107.161 5.22328
270 2 4.09716 107.039 5.10626
271 2 7.91567 107.13 5.30306
272 2 12.1326 106.967 5.01355
273 2 15.883 111.123 5.21275
274 2 3.82007 111.053 5.31424
275 2 7.81292 110.886 4.92703
276 2 11.7346 111.037 5.22187
277 2 -0.0851235 115.031 5.27324
278 2 3.87649 115.076 5.26013
279 2 7.96992 114.933 5.25379
280 2 11.7521 114.94 5.22723
281 2 0.0275163 118.936 5.184
282 2 4.14664 118.85 5.02516
283 2 7.95852 119.036 5.22307
284 2 11.8374 118.704 5.17049
285 2 15.9477 122.707 5.22146
286 2 4.02849 122.837 5.20381
287 2 8.04522 122.8 5.04154
288 2 12.1532 122.844 5.08723
289 2 0.0911105 126.797 5.12996
290 2 3.74076 126.657 5.10966
291 2 7.94335 126.725 5.08127
292 2 12.0239 126.835 5.1084
293 2 -0.107431 130.766 5.12612
294 2 3.89159 130.599 5.11013
295 2 8.15414 130.606 4.89408
296 2 11.7911 130.504 5.10313
297 2 15.7004 134.526 5.056
298 2 3.90845 134.546 5.02261
299 2 7.91194 134.558 4.94412
300 2 11.9639 134.613 4.9536
301 2 -0.113316 138.285 5.03603
302 2 4.00226 138.417 4.9768
303 2 7.91336 138.368 5.06797
304 2 11.9512 138.411 5.10424
305 2 -0.176611 142.232 4.82874
306 2 3.95652 142.159 4.69389
307 2 7.64235 142.238 4.9929
308 2 11.7075 142.301 5.03487
309 2 15.9448 146.23 4.87968
310 2 3.87906 146.238 4.8497
311 2 7.81546 146.234 4.84746
312 2 11.9779 146.269 4.81136
313 2 15.7036 149.995 4.57473
314 2 4.01711 150.36 4.58196
315 2 8.06694 150.224 4.58302
316 2 11.7809 150.2 4.73138
317 2 15.7707 154.211 4.73908
318 2 4.01223 154.049 4.78486
319 2 7.85461 154.137 4.69152
320 2 11.7801 153.998 4.77639
321 2 15.7042 158.017 8.76325
322 2 3.97606 158.048 8.62244
323 2 7.98632 157.944 8.74632
324 2 11.9664 158.03 8.59334
325 2 15.7813 3.57527 8.65903
326 2 3.99334 3.5003 8.55247
327 2 7.88629 3.62158 8.813
328 2 11.8814 3.27389 8.60569
329 2 15.8452 7.5717 8.70327
330 2 3.83296 7.7439 8.62871
331 2 7.86775 7.46385 8.62046
332 2 11.8541 7.46282 8.64129
333 2 0.047005 11.5573 8.65298
334 2 3.8659 11.4787 8.70447
335 2 8.11643 11.5352 8.48148
336 2 11.8512 11.4448 8.53764
337 2 15.83 15.0754 8.6188
338 2 3.85349 15.2874 8.60575
339 2 7.85474 15.3551 8.54654
340 2 12.0932 15.4338 8.53405
341 2 -0.0679457 19.2586 8.53097
342 2 3.81498 19.4185 8.52815
343 2 7.97496 19.2397 8.52537
344 2 11.6109 19.2038 8.56696
345 2 -0.0635079 23.0432 8.47689
346 2 3.95994 23.2277 8.44809
347 2 8.0389 23.2199 8.40241
348 2 12.0411 23.0095 8.57114
349 2 0.0929107 26.9945 8.44907
350 2 4.13995 26.9519 8.44685
351 2 7.9219 26.8974 8.33349
352 2 11.8475 27.3267 8.40604
353 2 -0.112401 31.0206 8.56136
354 2 3.90248 30.9998 8.31982
355 2 7.90019 30.9035 8.30165
356 2 11.7058 31.0722 8.54595
357 2 15.8011 34.8808 8.59345
358 2 4.07662 34.8958 8.48664
359 2 7.89182 35.0272 8.39296
360 2 12.0757 34.9111 8.46792
361 2 0.175154 38.9966 8.52991
362 2 3.93925 38.9059 8.5048
363 2 7.94806 39.252 8.34217
364 2 12.0627 38.959 8.45638
365 2 -0.218968 42.787 8.56104
366 2 3.86629 42.9949 8.66552
367 2 7.90551 43.0681 8.55471
368 2 11.8041 43.0278 8.67945
369 2 0.0521223 47.0129 8.67284
370 2 3.8417 46.9844 8.78332
371 2 7.69955 47.1646 8.67609
372 2 11.8443 47.1373 8.67787
373 2 15.8105 50.9936 8.98857
374 2 3.99324 51.1556 8.75133
375 2 7.79613 51.0298 8.88398
376 2 11.8522 51.0694 8.77848
377 2 15.7966 55.0671 8.83329
378 2 4.00476 55.2842 8.90338
379 2 7.97282 55.0912 8.66315
380 2 11.8983 54.9665 8.80951
381 2 -0.018202 59.0444 8.79928
382 2 4.0911 58.9886 8.88058
383 2 7.99805 59.0793 8.88845
384 2 11.8744 59.2029 8.86576
385 2 0.235068 63.2073 9.05959
386 2 4.06618 63.1959 8.98936
387 2 8.09863 63.2077 8.98363
388 2 11.965 63.1423 9.02998
389 2 15.9556 67.1325 9.13566
390 2 4.12099 67.1085 9.22769
391 2 8.12555 67.0797 8.9555
392 2 12.1641 67.1701 9.01853
393 2 16.0422 71.2472 9.05882
394 2 4.14975 71.2273 9.24429
395 2 8.0184 71.1904 8.75839
396 2 11.8107 71.3734 9.09643
397 2 15.9402 75.2406 9.03008
398 2 4.24868 75.3167 9.20623
399 2 8.01178 75.4397 9.20072
400 2 11.9589 75.4353 9.18267
401 2 15.9342 79.2712 9.16851
402 2 3.96196 79.3142 9.15355
403 2 8.08639 79.3419 8.94719
404 2 12.0789 79.4478 9.23619
405 2 -0.0359995 83.4316 9.3372
406 2 4.14728 83.2885 9.23256
407 2 8.07131 83.5909 9.42257
408 2 11.789 83.5268 9.26111
409 2 0.148015 87.2955 9.40982
410 2 3.98206 87.4176 9.24165
411 2 8.2256 87.3947 9.25642
412 2 12.1533 87.4396 9.17658
413 2 0.0475791 91.6317 9.50806
414 2 4.15136 91.3327 9.2441
415 2 8.04577 91.3665 9.47137
416 2 11.8916 91.3699 9.49506
417 2 15.9332 95.5876 9.44706
418 2 3.95022 95.2915 9.56811
419 2 7.96671 95.3109 9.40766
420 2 11.8649 95.2469 9.46364
421 2 15.7973 99.3597 9.33717
422 2 4.03875 99.3953 9.28532
423 2 7.94902 99.1788 9.45288
424 2 11.9856 99.2945 9.55945
425 2 -0.0192234 103.159 9.32201
426 2 3.95511 103.276 9.41852
427 2 8.1243 103.309 9.3512
428 2 11.9569 103.424 9.32397
429 2 -0.0206109 107.141 9.34345
430 2 3.92436 107.075 9.40961
431 2 7.84356 107.239 9.32765
432 2 11.8433 107.128 9.17198
433 2 15.7236 111.038 9.18204
434 2 3.90149 111.24 9.20116
435 2 7.88305 111.229 9.21921
436 2 11.8817 111.074 9.28305
437 2 0.0910138 114.941 9.23742
438 2 3.91031 115.016 9.29083
439 2 7.86746 115.002 9.16279
440 2 11.9464 114.877 9.17595
441 2 0.0235189 118.903 9.11502
442 2 3.87513 118.923 9.34379
443 2 7.84452 118.788 9.31385
444 2 11.9064 118.784 9.17951
445 2 15.7561 122.815 9.31702
446 2 4.07695 122.829 9.19768
447 2 8.04093 123.06 9.09969
448 2 11.8143 122.688 9.30216
449 2 15.6044 126.658 9.16735
450 2 3.7654 126.725 9.2012
451 2 7.95362 126.804 9.16287
452 2 11.8818 126.778 9.09346
453 2 -0.0434009 130.686 9.04676
454 2 4.05267 130.749 8.89704
455 2 7.83674 130.647 9.15326
456 2 11.7583 130.865 9.00544
457 2 -0.132026 134.636 8.93845
458 2 3.96649 134.508 8.94385
459 2 7.78616 134.572 8.97683
460 2 11.7478 134.364 9.01847
461 2 0.0105059 138.511 9.12124
462 2 3.84012 138.567 9.11399
463 2 7.9191 138.571 8.99634
464 2 11.8341 138.235 8.99357
465 2 -0.100903 142.426 9.06879
466 2 3.77745 142.319 8.97831
467 2 7.93548 142.388 8.96796
468 2 11.9239 142.396 8.96484
469 2 15.8912 146.124 8.88637
470 2 3.93312 146.369 8.78808
471 2 7.88229 146.197 8.94603
472 2 11.7576 146.218 8.82561
473 2 15.8769 150.218 8.7772
474 2 3.94771 150.179 8.91106
475 2 8.06728 150.165 8.89357
476 2 11.8764 150.067 8.64462
477 2 15.7944 154.045 8.65896
478 2 3.83826 154.146 8.68408
479 2 7.97509 154.075 8.84182
480 2 11.8926 154.099 8.83196
481 2 15.9095 157.997 12.7861
482 2 3.98319 157.937 12.7439
483 2 7.97191 157.989 12.812
484 2 11.9873 157.952 12.7808
485 2 15.9603 3.45858 12.8527
486 2 4.03628 3.74 12.7623
487 2 7.94337 3.65246 12.6078
488 2 11.9135 3.53621 12.6706
489 2 15.6422 7.23123 12.4544
490 2 4.00674 7.54391 12.5483
491 2 8.01951 7.65641 12.6485
492 2 11.9845 7.55919 12.7393
493 2 -0.184043 11.4733 12.6842
494 2 4.04893 11.3901 12.739
495 2 7.85579 11.4789 12.5272
496 2 11.743 11.505 12.5726
497 2 -0.0263301 15.322 12.4899
498 2 3.85361 15.2344 12.5419
499 2 7.53197 15.5169 12.345
500 2 11.8763 15.3387 12.5588
501 2 -0.134715 19.1873 12.6217
502 2 3.84032 19.2023 12.5524
503 2 7.75191 19.2768 12.5634
504 2 11.5563 19.3424 12.5761
505 2 0.00104865 23.0826 12.4132
506 2 3.9616 23.1606 12.3895
507 2 7.85583 23.1072 12.4616
508 2 11.8065 23.1987 12.5624
509 2 0.175246 27.1998 12.5027
510 2 4.15711 27.1754 12.329
511 2 8.00577 27.0279 12.3717
512 2 11.8369 27.0686 12.5835
513 2 -0.220269 30.9079 12.5634
514 2 4.09281 30.9371 12.3936
515 2 8.00985 31.0156 12.3939
516 2 11.9833 31.0605 12.3905
517 2 -0.13379 34.8354 12.696
518 2 4.04871 34.8987 12.4998
519 2 7.9057 35.0666 12.3871
520 2 11.8184 34.796 12.4183
521 2 0.183624 39.0051 12.3539
522 2 3.86781 38.7502 12.6261
523 2 8.10169 38.8501 12.3419
524 2 11.9796 38.8175 12.4981
525 2 -0.0840426 43.0007 12.4649
526 2 4.01328 42.8803 12.4988
527 2 8.07343 42.7985 12.461
528 2 11.8671 42.8373 12.6794
529 2 -0.119032 46.8299 12.5595
530 2 3.98608 46.898 12.6966
531 2 8.07285 47.051 12.7006
532 2 11.9714 46.8681 12.7516
533 2 0.139557 50.923 12.719
534 2 4.07545 51.2553 12.6132
535 2 7.86931 50.9288 12.6195
536 2 11.9599 50.9719 12.8558
537 2 15.7689 54.9977 12.7207
538 2 3.8393 55.114 12.7234
539 2 7.97751 54.8765 12.7724
540 2 11.8298 54.8543 12.792
541 2 15.7774 58.9773 12.7708
542 2 3.92898 59.2202 12.7988
543 2 7.91441 58.9939 12.745
544 2 11.618 59.1699 12.7877
545 2 15.9035 63.0109 13.1839
546 2 3.98287 63.2973 12.7561
547 2 7.99696 63.2179 13.0566
548 2 11.8924 63.1285 12.7953
549 2 -0.0556849 67.2209 12.974
550 2 4.02864 67.2741 12.8341
551 2 8.0343 67.1311 12.9634
552 2 11.7931 67.1973 13.0399
553 2 0.0668574 71.3154 12.7385
554 2 4.01535 71.251 13.038
555 2 8.13768 71.0559 12.8624
556 2 12.049 70.9409 12.9677
557 2 0.140816 75.2541 12.8955
558 2 4.10325 75.0653 13.0585
559 2 8.112 75.2166 13.0336
560 2 12.0265 75.163 12.9478
561 2 0.0875237 79.2021 13.1924
562 2 4.03592 79.2463 13.0413
563 2 7.9365 79.3973 13.3246
564 2 11.8892 79.1669 13.1672
565 2 0.0368168 83.1164 13.2747
566 2 3.89088 83.2638 13.1634
567 2 7.88035 83.2936 13.0316
568 2 11.8785 83.4026 12.9474
569 2 0.246814 87.3382 13.4367
570 2 4.05311 87.4561 13.1868
571 2 7.82186 87.2705 13.3777
572 2 11.8763 87.2749 13.3174
573 2 0.0342219 91.2931 13.496
574 2 3.92587 91.3565 13.3155
575 2 7.95829 91.617 13.4366
576 2 12.0845 91.1873 13.2504
577 2 0.113101 95.1903 13.2896
578 2 4.1312 95.2826 13.4049
579 2 7.84672 95.352 13.4241
580 2 11.7869 95.4866 13.3928
581 2 -0.0510597 99.3655 13.4557
582 2 3.75336 99.4048 13.4187
583 2 7.76506 99.3011 13.3137
584 2 12.0558 99.3542 13.6302
585 2 0.0446791 103.441 13.4325
586 2 3.92656 103.448 13.377
587 2 8.0965 103.298 13.2517
588 2 12.0092 103.063 13.3438
589 2 -0.0236996 107.342 13.4691
590 2 3.89416 107.343 13.2569
591 2 7.81945 107.181 13.3325
592 2 11.9285 107.317 13.3477
593 2 0.102941 111.147 13.2746
594 2 3.9291 111.034 13.2208
595 2 7.79743 111.167 13.3057
596 2 11.6426 111.218 13.091
597 2 -0.047175 115.079 13.2761
598 2 3.97096 115.096 13.536
599 2 7.86802 114.794 13.3127
600 2 11.84 115.023 13.1898
601 2 -0.123672 119.026 13.1584
602 2 3.87332 118.912 13.1839
603 2 7.69838 119.014 13.1179
604 2 11.6414 118.838 13.1547
605 2 -0.277101 122.885 13.2892
606 2 3.85516 122.84 13.1619
607 2 7.78352 122.819 13.2942
608 2 11.7209 122.939 13.2405
609 2 -0.0342286 126.79 13.1181
610 2 3.73406 126.831 13.0933
611 2 7.85678 126.551 13.1211
612 2 11.7874 126.851 13.2658
613 2 15.9281 130.809 12.8464
614 2 4.18751 130.704 13.0271
615 2 7.78989 130.542 13.1649
616 2 11.8863 130.579 13.141
617 2 15.9106 134.666 13.1176
618 2 4.06541 134.563 13.1345
619 2 7.89164 134.691 13.1186
620 2 11.8252 134.367 13.2203
621 2 -0.271086 138.361 13.0738
622 2 3.65346 138.572 13.2569
623 2 7.91798 138.388 12.8554
624 2 11.7264 138.414 12.9272
625 2 15.7288 142.467 13.0758
626 2 3.89064 142.472 13.11
627 2 7.9727 142.425 12.9887
628 2 11.9249 142.385 13.0542
629 2 -0.166282 146.468 12.8507
630 2 3.9725 146.307 13.0722
631 2 7.85981 146.279 12.9971
632 2 11.7053 146.411 12.9156
633 2 -0.0226239 150.371 12.7728
634 2 4.13593 150.21 12.7997
635 2 8.01335 150.337 12.8143
636 2 11.887 149.978 12.7954
637 2 15.9098 154.197 12.8181
638 2 4.26093 154.141 12.7101
639 2 8.12472 154.219 12.7391
640 2 12.0006 153.974 12.7175
641 2 -0.0898671 158.114 16.8894
642 2 3.9003 -0.211783 16.912
643 2 8.01571 158.076 16.6768
644 2 11.966 158.092 16.7598
645 2 15.9386 3.81771 16.8849
646 2 4.06846 3.6998 16.6906
647 2 7.82592 3.85746 16.5429
648 2 11.691 3.68488 16.6538
649 2 -0.0039042 7.52748 16.6486
650 2 3.62922 7.63081 16.5045
651 2 8.01179 7.72602 16.5496
652 2 11.9615 7.64228 16.6637
653 2 -0.11592 11.5786 16.8312
654 2 3.95876 11.4019 16.6073
655 2 7.79877 11.479 16.6548
656 2 11.8577 11.6083 16.74
657 2 -0.0445747 15.315 16.583
658 2 3.62704 15.4379 16.7136
659 2 7.54714 15.4239 16.4785
660 2 11.7191 15.5094 16.6269
661 2 15.7733 19.3034 16.5474
662 2 4.03345 19.2374 16.496
663 2 8.06421 19.3423 16.7383
664 2 11.8493 19.5229 16.5294
665 2 0.115899 23.3115 16.5751
666 2 3.81177 23.376 16.338
667 2 7.9421 23.0866 16.4527
668 2 12.0518 23.1553 16.4696
669 2 0.0353198 27.231 16.4982
670 2 4.00957 27.0863 16.4431
671 2 7.78855 27.1995 16.2773
672 2 11.965 27.1288 16.533
673 2 0.181715 30.9919 16.5751
674 2 4.10339 30.8414 16.3421
675 2 8.1848 31.0786 16.4984
676 2 12.0301 30.9993 16.3395
677 2 0.226423 34.9372 16.5745
678 2 4.04728 34.7483 16.4083
679 2 7.99292 34.9768 16.2773
680 2 11.9779 34.8737 16.3524
681 2 0.0157157 38.8904 16.3207
682 2 3.86626 38.8887 16.3781
683 2 7.8664 38.837 16.6
684 2 11.8758 39.0319 16.3107
685 2 0.100691 42.7931 16.5425
686 2 3.94187 43.054 16.6504
687 2 7.87772 42.9283 16.3197
688 2 11.8247 42.6939 16.5745
689 2 16.0353 47.0047 16.456
690 2 3.95723 46.9585 16.5049
691 2 7.99566 47.1318 16.6593
692 2 12.1052 46.6609 16.4421
693 2 0.137522 50.96 16.7193
694 2 4.12178 50.9644 16.7548
695 2 7.85561 51.0835 16.611
696 2 11.8776 51.068 16.6627
697 2 0.129843 55.0315 16.468
698 2 4.2107 55.2086 16.7197
699 2 7.997 55.0155 16.5608
700 2 12.0412 54.9879 16.6045
701 2 -0.201333 59.1453 16.7993
702 2 4.0302 58.9388 16.8004
703 2 7.83486 58.9732 16.6332
704 2 11.9755 58.9678 16.6026
705 2 0.122421 63.0223 16.7808
706 2 4.01976 63.0001 16.6736
707 2 8.03563 63.0682 16.794
708 2 11.9243 63.0111 16.8771
709 2 0.116023 66.9601 16.7316
710 2 4.09711 67.2695 16.9037
711 2 8.11022 67.1123 16.7112
712 2 12.0538 67.1715 17.0193
713 2 0.0517324 71.1737 16.8137
714 2 4.14807 71.3001 16.772
715 2 8.25456 71.2958 16.9912
716 2 12.0765 71.1705 17.048
717 2 -0.0554189 75.2004 16.9121
718 2 4.12692 75.2371 16.7485
719 2 8.09825 75.0223 16.9802
720 2 11.8356 75.201 17.0332
721 2 0.0694159 79.2037 17.0274
722 2 4.14762 79.0541 16.83
723 2 8.14271 79.1942 16.9979
724 2 11.7316 79.1674 17.0051
725 2 -0.0158864 83.1658 17.0915
726 2 3.91029 83.1418 17.0525
727 2 7.93966 83.1082 17.0906
728 2 11.8927 83.1951 16.919
729 2 0.121543 87.3105 17.2146
730 2 4.11503 87.4726 17.0368
731 2 8.09582 87.4377 17.1662
732 2 12.0648 87.2986 17.1762
733 2 -0.0564989 91.3172 17.249
734 2 3.81835 91.2834 17.2779
735 2 7.87355 91.3507 17.2628
736 2 11.7816 91.3708 17.0928
737 2 0.00702074 95.1839 17.1571
738 2 3.82344 95.4176 17.4394
739 2 8.02873 95.4462 17.3343
740 2 11.7565 95.3707 17.3893
741 2 -0.0819753 99.255 17.3293
742 2 3.96772 99.2923 17.4755
743 2 7.86669 99.4428 17.2894
744 2 11.9363 99.4767 17.4037
745 2 -0.085334 103.214 17.4855
746 2 4.00863 103.328 17.3042
747 2 7.87396 103.347 17.3876
748 2 11.7491 103.179 17.2052
749 2 -0.177234 107.234 17.3693
750 2 3.8941 107.049 17.4562
751 2 7.60615 107.211 17.2583
752 2 11.8281 107.025 17.1277
753 2 -0.247427 111.239 17.4099
754 2 3.72778 111.102 17.1071
755 2 7.96444 111.141 17.3606
756 2 12.0021 111.103 17.375
757 2 -0.0329427 115.052 17.4495
758 2 3.8877 115.054 17.2287
759 2 7.71045 115.048 17.2171
760 2 11.7637 114.955 17.2675
761 2 -0.000943024 118.914 17.1472
762 2 3.91623 118.837 17.3092
763 2 7.76599 119.117 17.1922
764 2 11.6123 118.816 17.2484
765 2 -0.0398904 122.71 17.1982
766 2 3.89502 122.778 17.1669
767 2 7.82118 122.785 17.3412
768 2 11.8671 122.918 17.3229
769 2 16.0673 126.518 17.2022
770 2 3.77601 126.663 17.1272
771 2 7.94513 126.626 17.2518
772 2 12.0049 126.951 17.1642
773 2 15.783 130.462 17.1043
774 2 3.97748 130.75 17.2479
775 2 7.78699 130.552 16.9112
776 2 11.8737 130.806 17.0965
777 2 15.9436 134.549 16.97
778 2 4.03839 134.586 16.9905
779 2 7.94854 134.778 17.0145
780 2 11.92 134.356 17.195
781 2 -0.257372 138.572 17.0807
782 2 3.77427 138.701 17.1061
783 2 7.92117 138.502 17.0404
784 2 11.7864 138.606 17.1437
785 2 15.7469 142.398 16.9724
786 2 3.98241 142.449 16.8681
787 2 7.77811 142.549 16.9027
788 2 11.7061 142.433 16.8492
789 2 15.7482 146.367 16.9647
790 2 3.89281 146.33 17.0004
791 2 7.71345 146.461 16.9901
792 2 11.7531 146.308 16.7637
793 2 15.7468 150.431 16.9056
794 2 3.88029 150.247 16.8824
795 2 7.82647 150.386 16.9667
796 2 11.8024 150.24 16.875
797 2 15.9048 154.128 16.8337
798 2 4.04711 154.28 16.7209
799 2 7.88688 154.286 16.8286
800 2 11.6652 154.285 16.7837
801 2 15.6891 158.068 20.7995
802 2 3.87448 157.968 20.8138
803 2 7.81858 158.25 20.8021
804 2 11.7754 158.216 20.8904
805 2 0.0291266 3.71339 20.6896
806 2 3.98516 3.85904 20.7922
807 2 7.79651 3.86228 20.5873
808 2 11.8466 3.83074 21.0069
809 2 15.8603 7.7254 20.7333
810 2 3.74303 7.54643 20.7844
811 2 7.95546 7.42361 20.5869
812 2 11.8693 7.56561 20.8077
813 2 16.0133 11.5226 20.6513
814 2 4.16554 11.4619 20.702
815 2 7.85575 11.4208 20.7091
816 2 11.7179 11.4586 20.7867
817 2 15.7093 15.5146 20.5458
818 2 3.81395 15.4487 20.7614
819 2 8.0219 15.7284 20.7353
820 2 11.8261 15.3349 20.7215
821 2 0.0446123 19.4765 20.6359
822 2 4.00469 19.2722 20.4902
823 2 8.04262 19.5434 20.6846
824 2 11.8604 19.3376 20.6374
825 2 0.148274 23.1754 20.6926
826 2 4.08798 23.1957 20.3859
827 2 7.77535 23.3846 20.4637
828 2 11.8844 23.4151 20.4891
829 2 16.0421 27.1583 20.6214
830 2 4.18287 27.1151 20.4798
831 2 8.16478 27.1557 20.5363
832 2 12.0398 27.348 20.5069
833 2 15.9792 31.0793 20.6141
834 2 4.22314 31.0298 20.5216
835 2 8.05739 31.1405 20.4659
836 2 12.1064 31.0077 20.5497
837 2 15.9601 34.952 20.5782
838 2 4.18347 35.0926 20.3593
839 2 8.18574 34.9524 20.4286
840 2 12.0384 34.8846 20.4401
841 2 0.101819 38.9192 20.4998
842 2 3.9025 38.8989 20.4528
843 2 8.01153 38.8565 20.1927
844 2 12.0468 38.9931 20.3909
845 2 15.9481 42.8437 20.5589
846 2 4.00618 42.8881 20.3474
847 2 7.93943 42.7562 20.3152
848 2 12.0234 42.943 20.2304
849 2 15.8422 46.8113 20.5682
850 2 3.87674 46.8391 20.6013
851 2 7.82773 46.9982 20.3773
852 2 12.0981 46.9051 20.3895
853 2 -0.069365 51.0491 20.687
854 2 3.93064 51.1069 20.499
855 2 7.96267 50.8388 20.3778
856 2 11.9099 50.8117 20.4391
857 2 -0.00316614 54.9245 20.2595
858 2 3.79279 54.8255 20.5523
859 2 7.95052 54.9223 20.7056
860 2 11.8976 54.8198 20.5916
861 2 15.9905 58.9728 20.7491
862 2 4.1107 58.8627 20.6168
863 2 8.01702 58.7959 20.6384
864 2 11.9948 59.0634 20.5911
865 2 16.0321 62.9732 20.7168
866 2 4.09484 63.0535 20.5473
867 2 8.06069 63.0759 20.5546
868 2 11.7724 63.2068 20.6336
869 2 0.00456518 66.9494 20.8567
870 2 4.11206 67.0545 20.7124
871 2 8.02109 67.0452 20.8153
872 2 12.0914 67.0702 20.9235
873 2 0.250256 71.1121 20.989
874 2 3.95804 71.1402 20.7788
875 2 8.04853 71.075 20.8533
876 2 12.0971 71.0466 21.0127
877 2 0.18422 75.0968 20.7638
878 2 3.87028 75.069 20.8934
879 2 7.79051 75.0893 20.9743
880 2 11.9422 75.1659 20.8026
881 2 0.073835 79.0979 21.0173
882 2 3.94574 79.1682 20.9239
883 2 7.93997 79.0823 20.8415
884 2 11.8211 79.3662 21.087
885 2 0.0199364 83.1234 20.7684
886 2 3.89541 83.2819 20.775
887 2 7.91571 82.9943 21.0544
888 2 11.7027 83.3839 20.8339
889 2 0.0869298 87.274 21.178
890 2 4.00002 87.1831 21.1133
891 2 8.04645 87.2417 21.0525
892 2 11.9624 87.0867 20.9498
893 2 -0.00469121 91.3795 21.134
894 2 3.9999 91.1882 21.0086
895 2 7.94321 91.1188 21.0093
896 2 11.9238 91.1649 21.059
897 2 -0.0605331 95.2257 21.19
898 2 3.90667 95.4862 21.3597
899 2 7.76803 95.3284 21.1708
900 2 11.7283 95.3345 21.2277
901 2 -0.164453 99.3361 21.271
902 2 3.97478 99.374 21.3502
903 2 7.99737 99.3695 21.3832
904 2 11.7558 99.3572 21.2776
905 2 -0.11291 103.394 21.4546
906 2 3.9227 103.567 21.2896
907 2 7.87775 103.461 21.1512
908 2 12.0338 103.387 21.2564
909 2 -0.108729 107.364 21.3516
910 2 4.03221 107.367 21.4572
911 2 7.96722 107.468 21.1993
912 2 11.8313 107.328 21.4515
913 2 -0.139194 111.127 21.3171
914 2 3.86026 111.253 21.3025
915 2 7.87775 111.354 21.4275
916 2 11.997 111.182 21.4521
917 2 15.6608 114.955 21.4548
918 2 3.73974 115.017 21.327
919 2 7.7751 115.087 21.2431
920 2 11.9185 115.09 21.3091
921 2 -0.0704541 118.912 21.1763
922 2 3.93767 118.923 21.2967
923 2 7.80337 118.798 21.3886
924 2 12.0209 118.922 21.3428
925 2 15.6562 122.981 21.1224
926 2 3.83869 122.939 21.2575
927 2 7.90438 122.934 21.2256
928 2 11.917 122.832 21.3574
929 2 15.7705 126.915 21.2824
930 2 3.98688 126.891 21.3555
931 2 7.8022 126.751 21.2001
932 2 11.7306 126.711 21.2136
933 2 15.7767 130.719 21.1547
934 2 3.93072 130.864 21.1852
935 2 7.76526 130.593 21.2871
936 2 11.7808 130.819 21.1533
937 2 -0.169926 134.773 21.0995
938 2 3.85564 134.727 21.1329
939 2 7.89319 134.675 20.9925
940 2 11.729 134.535 21.1286
941 2 15.9006 138.604 20.9873
942 2 3.90889 138.455 20.9458
943 2 7.96218 138.485 21.0456
944 2 11.9106 138.542 21.0803
945 2 15.6251 142.53 20.9053
946 2 3.93946 142.586 20.8769
947 2 7.94113 142.539 20.8703
948 2 11.8858 142.529 21.156
949 2 15.5095 146.423 20.9053
950 2 3.75973 146.447 20.915
951 2 8.00238 146.375 20.9687
952 2 11.8043 146.295 20.8826
953 2 15.6051 150.434 20.8838
954 2 4.04676 150.28 20.9811
955 2 7.77422 150.326 21.0897
956 2 11.7262 150.197 20.7866
957 2 15.696 154.155 20.8873
958 2 3.78561 154.338 20.7454
959 2 7.82693 154.235 20.7839
960 2 11.7809 154.342 20.8217
961 2 -0.134445 158.288 24.6299
962 2 3.77878 158.309 24.7124
963 2 7.67816 158.189 24.8505
964 2 11.5623 158.186 24.7069
965 2 16.0111 3.81883 24.6493
966 2 3.86676 3.67052 24.7063
967 2 7.66945 3.85629 24.7565
968 2 11.8881 3.9359 24.795
969 2 15.9396 7.75808 24.8772
970 2 3.91929 7.74698 24.7469
971 2 8.08753 7.76615 24.8663
972 2 12.0757 7.76236 24.7713
973 2 15.7462 11.8671 24.6559
974 2 3.99685 11.6762 24.6705
975 2 7.8561 11.7696 24.9585
976 2 11.9146 11.4292 24.7548
977 2 0.0884702 15.5727 24.7448
978 2 3.95843 15.4262 24.6885
979 2 8.01007 15.4422 24.8169
980 2 11.7506 15.588 24.698
981 2 0.0750918 19.3272 24.6834
982 2 3.98133 19.4175 24.7177
983 2 7.99586 19.4604 24.5565
984 2 11.9999 19.3739 24.7061
985 2 0.0655027 23.4152 24.5473
986 2 4.1213 23.285 24.6337
987 2 7.96435 23.3395 24.6863
988 2 12.0501 23.2984 24.6779
989 2 0.0991056 27.1562 24.4232
990 2 4.11246 27.1462 24.5541
991 2 7.94958 27.3652 24.5111