ITEM: TIMESTEP
21800
ITEM: NUMBER OF ATOMS
32000
ITEM: BOX BOUNDS xy xz yz pp pp pp
0.0000000000000000e+00 1.5832000000000001e+01 0.0000000000000000e+00
0.0000000000000000e+00 1.5831999999999999e+02 0.0000000000000000e+00
8.5142226385431741e-01 1.6012569573614121e+02 0.0000000000000000e+00
ITEM: ATOMS id type x y z
1 2 15.9888 157.992 160.004
2 2 3.99006 157.876 159.941
3 2 7.81311 157.823 159.937
4 2 11.7817 157.93 159.926
5 2 0.0585223 3.45415 159.571
6 2 4.07093 3.47076 159.793
7 2 7.91192 3.58067 160.087
8 2 11.9923 3.57119 159.738
9 2 15.7015 7.33447 159.851
10 2 3.96744 7.39676 159.691
11 2 7.90655 7.51498 159.711
12 2 11.9245 7.52841 159.928
13 2 15.8966 11.258 159.777
14 2 4.07236 11.4896 159.814
15 2 7.89046 11.1742 159.785
16 2 11.8854 11.4329 159.964
17 2 0.264643 15.2937 159.861
18 2 4.05543 15.3574 159.75
19 2 8.00289 15.3045 159.824
20 2 11.9351 15.118 159.797
21 2 15.8192 19.1631 159.787
22 2 4.11548 19.3679 159.737
23 2 7.92116 19.0832 159.672
24 2 11.8825 19.3105 159.58
25 2 16.0038 23.086 160.001
26 2 4.16693 23.1991 159.882
27 2 8.01341 23.1556 159.674
28 2 12.0873 23.1137 159.775
29 2 15.8803 27.0629 159.802
30 2 3.91447 27.022 159.996
31 2 7.87809 27.0808 159.853
32 2 11.878 27.0954 159.667
33 2 15.7248 31.1933 159.677
34 2 3.85116 31.1611 0.555559
35 2 7.95807 31.0433 159.641
36 2 11.7674 31.0603 159.741
37 2 0.0179126 35.1777 159.877
38 2 3.99402 34.9987 159.924
39 2 7.90828 35.1553 160.107
40 2 11.7578 35.0776 160.088
41 2 0.152074 39.2467 159.88
42 2 3.84616 39.0252 0.626463
43 2 7.94625 39.139 0.766733
44 2 11.9129 39.0992 0.702572
45 2 0.14147 43.2665 160.182
46 2 4.04539 43.0661 160.214
47 2 8.07368 43.3367 0.770298
48 2 11.9454 43.2162 0.707054
49 2 0.0396527 47.2925 0.956257
50 2 4.21784 47.2953 0.957934
51 2 7.97011 47.2532 0.813829
52 2 12.0943 47.227 0.760682
53 2 0.133401 51.4297 1.00543
54 2 3.9712 51.3811 1.02119
55 2 7.98629 51.1703 0.879556
56 2 11.7868 51.1858 1.01571
57 2 16.0114 55.2509 0.969244
58 2 4.10835 55.2856 0.948491
59 2 8.04277 55.2412 1.05746
60 2 11.9723 55.2572 1.07032
61 2 0.0612023 59.3429 1.12241
62 2 4.27617 59.2341 1.21462
63 2 8.10671 59.2925 1.19845
64 2 11.9062 59.3932 1.07481
65 2 0.0543886 63.3333 1.02053
66 2 4.04215 63.2388 1.06417
67 2 8.1174 63.3308 1.27166
68 2 11.9249 63.222 1.09801
69 2 15.928 67.3315 1.10895
70 2 3.90052 67.4213 1.12669
71 2 7.89126 67.4035 1.37433
72 2 12.0702 67.5065 1.25496
73 2 0.218648 71.5486 1.35206
74 2 4.01081 71.2894 1.1456
75 2 7.97446 71.3763 1.37685
76 2 12.0135 71.3924 1.36478
77 2 0.0926427 75.4744 1.36897
78 2 4.08878 75.4318 1.25512
79 2 7.92836 75.3144 1.24574
80 2 11.9552 75.3396 1.27312
81 2 0.255099 79.5692 1.30646
82 2 3.98188 79.4144 1.46033
83 2 8.10105 79.3834 1.37336
84 2 11.9553 79.4308 1.51031
85 2 0.0834396 83.5924 1.60336
86 2 4.06635 83.5458 1.43014
87 2 7.91888 83.4983 1.23413
88 2 11.9419 83.6698 1.67478
89 2 -0.0721172 87.5799 1.45945
90 2 3.94897 87.4283 1.57042
91 2 7.92164 87.5802 1.52213
92 2 11.8604 87.5058 1.60045
93 2 0.115691 91.5369 1.33171
94 2 3.84965 91.5163 1.60764
95 2 7.83098 91.3696 1.39497
96 2 11.8654 91.4673 1.4216
97 2 15.8278 95.4403 1.56507
98 2 3.99682 95.6189 1.5242
99 2 8.08708 95.5105 1.42538
100 2 12.0988 95.393 1.43584
101 2 -0.201424 99.2255 1.33051
102 2 3.80574 99.4098 1.4091
103 2 7.85142 99.3595 1.2641
104 2 11.6955 99.3788 1.39285
105 2 0.0433776 103.173 1.28917
106 2 4.04732 103.37 1.36018
107 2 7.82414 103.252 1.33542
108 2 11.9133 103.277 1.38004
109 2 0.0575237 107.125 1.14413
110 2 3.91863 107.223 1.26755
111 2 7.77466 107.111 0.994618
112 2 11.9188 107.184 1.24726
113 2 -0.0496683 111.058 1.19819
114 2 3.7925 111.151 1.13475
115 2 7.80509 110.858 1.17954
116 2 11.9468 111.006 1.12968
117 2 15.7702 114.928 1.10142
118 2 3.96735 114.961 1.00832
119 2 7.86816 114.905 1.04388
120 2 11.7285 114.863 1.05258
121 2 -0.069633 118.855 1.04987
122 2 4.016 118.975 1.23441
123 2 8.08971 118.829 1.05619
124 2 11.8304 118.779 1.19941
125 2 15.8555 122.81 1.03178
126 2 4.02622 122.675 1.17486
127 2 7.90706 122.671 1.18844
128 2 11.8655 122.673 1.13299
129 2 -0.0812694 126.499 0.839542
130 2 3.90607 126.616 0.883539
131 2 7.76005 126.725 1.05824
132 2 11.8285 126.692 1.13139
133 2 15.6827 130.607 0.99505
134 2 3.9573 130.43 1.04725
135 2 8.07222 130.529 0.992702
136 2 11.9698 130.46 1.07496
137 2 15.6845 134.565 1.05602
138 2 3.88159 134.315 1.11449
139 2 7.95442 134.496 160.357
140 2 11.8151 134.564 0.958731
141 2 -0.0122868 138.13 0.992122
142 2 4.17294 138.427 159.946
143 2 7.72774 138.529 160.204
144 2 12.0902 138.326 0.905964
145 2 16.0894 142.167 160.163
146 2 3.88256 142.222 160.211
147 2 7.94574 142.276 160.217
148 2 12.0399 142.08 160.115
149 2 -0.0315907 146.066 160.213
150 2 3.88251 146.289 160.111
151 2 7.91218 146.161 160.134
152 2 11.899 146.321 159.957
153 2 15.8524 150.17 160.103
154 2 4.14345 150.08 160.033
155 2 7.91615 150.116 160.128
156 2 11.7029 150.065 0.915221
157 2 15.8919 154.122 160.057
158 2 4.12369 153.956 160.062
159 2 8.0046 154 160.183
160 2 11.8397 153.919 159.99
161 2 15.7746 157.751 4.67217
162 2 4.13032 157.875 4.69075
163 2 8.17608 158.014 4.65067
164 2 12.0217 157.972 4.74201
165 2 -0.0705639 3.31316 4.65715
166 2 3.99256 3.60354 4.4513
167 2 7.86703 3.43954 4.42072
168 2 11.7197 3.59228 4.75233
169 2 0.154827 7.36764 4.57446
170 2 3.90556 7.50656 4.57893
171 2 7.96136 7.50768 4.51134
172 2 11.9002 7.52707 4.49478
173 2 0.088039 11.4074 4.56075
174 2 3.73847 11.4522 4.57499
175 2 7.92226 11.3742 4.73645
176 2 11.9823 11.4235 4.65409
177 2 15.7192 15.3334 4.64899
178 2 3.93629 15.1342 4.51039
179 2 7.95545 15.3015 4.52824
180 2 11.7488 15.1528 4.64386
181 2 -0.0737336 19.1852 4.63337
182 2 4.01711 19.5445 4.51086
183 2 8.01547 19.1288 4.53623
184 2 11.9633 19.1843 4.4438
185 2 0.132985 23.0419 4.46109
186 2 3.89415 23.2416 4.66363
187 2 8.01348 23.1148 4.43821
188 2 11.8537 23.0996 4.36045
189 2 15.866 27.0701 4.42128
190 2 4.05699 27.0817 4.43708
191 2 7.81809 27.1308 4.49913
192 2 11.7676 27.0221 4.42492
193 2 0.0399787 31.0495 4.48481
194 2 3.92127 31.0687 4.49482
195 2 8.01125 30.9378 4.61089
196 2 11.8501 31.0526 4.40985
197 2 -0.00850778 35.2132 4.37532
198 2 3.93768 35.1239 4.55642
199 2 7.89408 35.0516 4.57833
200 2 11.9723 35.0163 4.63147
201 2 15.7725 38.965 4.59982
202 2 4.0211 39.0082 4.70466
203 2 8.05455 39.0815 4.76268
204 2 11.9925 39.1567 4.64598
205 2 -0.076288 43.0839 4.72288
206 2 3.91796 43.0572 4.84384
207 2 7.89394 42.9823 4.63158
208 2 11.8342 43.0043 4.6869
209 2 -0.0476571 47.1628 4.83262
210 2 3.99839 47.2011 4.67496
211 2 7.92131 47.1313 4.90532
212 2 11.7359 47.1099 4.67739
213 2 -0.0871616 51.2569 4.82189
214 2 3.94331 51.1365 4.96139
215 2 7.85295 51.1582 4.774
216 2 11.8719 51.1761 4.83855
217 2 0.0845274 55.3276 4.78741
218 2 4.00156 55.2381 5.06928
219 2 7.85749 55.2173 4.95082
220 2 11.7618 55.1512 5.12804
221 2 15.8802 59.3022 5.07458
222 2 3.89907 59.282 4.95156
223 2 8.10543 59.1484 4.9789
224 2 11.9719 59.0976 5.10009
225 2 -0.0550347 63.2251 4.97624
226 2 3.99684 63.2371 4.86557
227 2 8.02521 63.2155 5.1711
228 2 11.8648 63.4082 5.05651
229 2 16.0243 67.4574 4.91261
230 2 4.16774 67.3457 5.16888
231 2 8.03385 67.3219 5.19098
232 2 12.0441 67.4134 5.32671
233 2 15.9514 71.4548 5.09395
234 2 4.10384 71.4131 5.15455
235 2 8.00153 71.2959 5.14629
236 2 11.9905 71.2858 5.22166
237 2 15.765 75.4431 5.25572
238 2 4.11907 75.6383 5.47819
239 2 8.0562 75.3688 5.28806
240 2 11.9843 75.3696 5.28542
241 2 0.041169 79.4259 5.13596
242 2 4.18795 79.4726 5.26784
243 2 8.02213 79.5838 5.08908
244 2 11.9529 79.2624 5.43815
245 2 16.0842 83.525 5.41809
246 2 3.93022 83.4775 5.29678
247 2 8.05971 83.4066 5.2378
248 2 11.9424 83.4539 5.44986
249 2 -0.0156546 87.6335 5.43066
250 2 4.05631 87.6996 5.54431
251 2 8.09458 87.5923 5.33973
252 2 11.6699 87.5977 5.46042
253 2 0.0495425 91.705 5.44784
254 2 3.85771 91.5813 5.42917
255 2 7.85151 91.4788 5.54147
256 2 11.9521 91.5996 5.30981
257 2 15.775 95.7039 5.29811
258 2 3.87981 95.4188 5.40205
259 2 7.93828 95.3957 5.44243
260 2 11.7913 95.5206 5.45134
261 2 -0.0953869 99.4607 5.27637
262 2 3.97382 99.2578 5.32499
263 2 7.8911 99.4871 5.2786
264 2 11.8096 99.4193 5.39286
265 2 0.0412762 103.418 5.44024
266 2 3.98021 103.094 5.31904
267 2 7.82637 103.286 5.2185
268 2 11.987 103.323 5.12856
269 2 15.6147 107.217 5.42617
270 2 3.92958 107.171 5.19179
271 2 7.86141 107.236 5.21198
272 2 11.81 107.158 5.57437
273 2 15.8959 111.094 5.32275
274 2 4.01635 111.116 5.27691
275 2 8.04354 111.096 5.16364
276 2 11.8532 111.224 5.21582
277 2 0.0487538 114.951 5.20464
278 2 3.89586 114.866 5.16997
279 2 7.98885 114.956 5.23509
280 2 11.95 114.906 4.98829
281 2 -0.118719 118.818 5.19637
282 2 3.68276 118.698 5.03154
283 2 7.85199 118.847 5.21476
284 2 12.0491 118.873 4.9641
285 2 15.6558 122.762 5.06395
286 2 3.83933 122.692 5.16572
287 2 7.87843 122.659 5.07873
288 2 11.7668 122.778 5.06051
289 2 -0.0340524 126.765 5.05998
290 2 3.9944 126.686 5.07029
291 2 7.98775 126.72 5.149
292 2 11.8451 126.672 5.20261
293 2 0.133268 130.468 4.98651
294 2 4.03616 130.655 5.03346
295 2 7.97121 130.712 5.02909
296 2 11.8766 130.499 5.14965
297 2 15.9333 134.494 5.10605
298 2 4.03767 134.477 5.1287
299 2 8.06596 134.251 5.07827
300 2 11.9611 134.459 5.09112
301 2 -0.096709 138.439 4.9003
302 2 3.98498 138.443 4.83084
303 2 7.8615 138.347 4.91074
304 2 11.8816 138.401 5.07218
305 2 0.0604407 142.454 4.82353
306 2 4.14038 142.261 4.88319
307 2 8.05798 142.515 4.81861
308 2 11.9436 142.254 4.8218
309 2 15.6154 146.266 4.96341
310 2 3.92879 146.291 4.83493
311 2 8.11163 146.045 4.75818
312 2 11.7982 146.356 4.59819
313 2 15.8291 150.192 4.81499
314 2 3.78804 150.132 4.65406
315 2 7.85341 150.085 4.76076
316 2 11.8206 150.064 4.80464
317 2 15.7807 153.92 4.81199
318 2 3.96876 154.127 4.85004
319 2 8.0387 154.034 4.72639
320 2 11.8697 154.114 4.705
321 2 15.8384 158.037 8.62617
322 2 3.94935 157.913 8.73976
323 2 7.96997 157.966 8.75533
324 2 11.7229 158.042 8.75879
325 2 15.8586 3.41406 8.48373
326 2 3.92787 3.53423 8.70995
327 2 7.96722 3.557 8.53356
328 2 12.0632 3.59348 8.63152
329 2 15.8037 7.49647 8.65265
330 2 4.03928 7.40936 8.4101
331 2 7.97987 7.47449 8.71217
332 2 11.8003 7.55813 8.55871
333 2 0.184398 11.397 8.76063
334 2 4.00398 11.4382 8.66344
335 2 7.73493 11.4101 8.73953
336 2 11.8351 11.3561 8.70796
337 2 15.8581 15.3139 8.72164
338 2 4.01327 15.2826 8.69453
339 2 7.79542 15.3759 8.72069
340 2 11.7582 15.3368 8.67398
341 2 0.0451482 19.3648 8.53088
342 2 3.99577 19.0006 8.61371
343 2 7.84529 19.2205 8.66227
344 2 11.8867 19.2993 8.52816
345 2 0.128714 23.1576 8.53532
346 2 4.01803 23.1377 8.66868
347 2 7.77783 23.2707 8.76677
348 2 11.6779 23.1156 8.37447
349 2 -0.055037 27.1231 8.35089
350 2 3.94057 26.9441 8.55586
351 2 7.95416 27.1357 8.46719
352 2 11.8682 26.8695 8.40607
353 2 -0.0219342 30.9742 8.26794
354 2 4.03379 31.1156 8.50758
355 2 8.07918 30.9889 8.62619
356 2 11.8839 30.9548 8.39574
357 2 15.7475 35.0462 8.43008
358 2 3.83187 35.0534 8.40914
359 2 7.73438 34.9162 8.59719
360 2 11.9099 34.931 8.43149
361 2 -0.110796 39.0341 8.67616
362 2 3.90614 38.9416 8.38923
363 2 7.93255 39.0855 8.69619
364 2 11.5002 39.1533 8.5046
365 2 -0.00869725 43.1826 8.76444
366 2 4.12578 43.0876 8.47698
367 2 8.03584 43.1455 8.59046
368 2 11.9985 43.0949 8.50687
369 2 0.075164 47.0955 8.56776
370 2 4.10027 47.2827 8.78107
371 2 7.98622 47.2064 8.71767
372 2 11.8232 47.0142 8.60052
373 2 15.7292 51.0464 8.67385
374 2 3.95924 51.1047 8.73939
375 2 7.96214 51.0475 8.77617
376 2 11.9863 51.0904 8.76975
377 2 15.8421 55.1457 8.8757
378 2 3.94955 55.1693 9.02077
379 2 7.67843 55.2445 8.94948
380 2 11.8871 55.0816 8.91991
381 2 0.146064 59.1983 9.09526
382 2 4.00286 59.0678 8.57915
383 2 7.84705 59.1486 8.86507
384 2 11.8561 59.1032 8.82439
385 2 0.0894325 63.2768 8.8846
386 2 3.96774 63.1619 8.94137
387 2 7.92846 63.1131 9.10256
388 2 11.6675 63.1738 9.10565
389 2 15.9486 67.268 8.95748
390 2 3.99861 67.2964 8.93404
391 2 7.83011 67.4162 9.22095
392 2 11.9213 67.1743 9.13307
393 2 15.9792 71.2896 9.28393
394 2 4.05117 71.4453 9.16026
395 2 8.06536 71.4976 9.34878
396 2 12.0151 71.4969 9.1428
397 2 15.9506 75.1663 9.22213
398 2 3.99573 75.3299 9.01712
399 2 7.91203 75.2571 8.98161
400 2 12.0294 75.2794 9.20821
401 2 16.0188 79.2384 9.24254
402 2 4.24478 79.3048 9.24717
403 2 7.98859 79.367 9.26938
404 2 11.9845 79.348 9.35466
405 2 0.245331 83.4248 9.27117
406 2 4.17963 83.3958 9.12929
407 2 8.02456 83.3519 9.17736
408 2 12.1144 83.2844 9.16319
409 2 0.0324363 87.4075 9.1212
410 2 3.95416 87.3928 9.288
411 2 7.98995 87.5075 9.25555
412 2 11.8232 87.285 9.25398
413 2 0.0991949 91.4679 9.22287
414 2 4.04834 91.5931 9.52684
415 2 7.86206 91.4719 9.51719
416 2 11.8736 91.6995 9.26505
417 2 15.7347 95.3056 9.37368
418 2 4.02223 95.4868 9.5141
419 2 7.943 95.5879 9.37568
420 2 11.8968 95.6542 9.49536
421 2 15.7298 99.4872 9.34469
422 2 3.88123 99.3832 9.36971
423 2 7.76629 99.4506 9.35515
424 2 11.8607 99.2522 9.41386
425 2 -0.0118524 103.331 9.49069
426 2 3.94238 103.325 9.40444
427 2 7.72755 103.456 9.20546
428 2 11.7614 103.163 9.25247
429 2 0.194613 107.176 9.33662
430 2 3.98592 107.161 9.41046
431 2 7.938 107.179 9.22825
432 2 11.9946 107.077 9.46332
433 2 15.8806 111.169 9.39732
434 2 4.01231 111.048 9.22816
435 2 7.86703 111.108 9.48655
436 2 12.0163 111.244 9.26637
437 2 -0.0629952 115.031 9.24396
438 2 4.00133 114.788 9.16722
439 2 7.95638 115.044 9.29353
440 2 11.7187 115.121 9.1634
441 2 -0.0457857 118.92 9.12203
442 2 3.95709 118.878 9.22113
443 2 7.97819 118.822 8.96521
444 2 11.9995 119.115 9.1174
445 2 15.8884 122.933 9.22759
446 2 3.92506 122.862 9.21684
447 2 7.7914 122.708 9.19759
448 2 12.0132 122.818 9.30408
449 2 16.0025 126.712 8.83483
450 2 4.1204 126.807 9.19441
451 2 8.04109 126.762 9.12169
452 2 12.0436 126.7 9.10319
453 2 -0.123296 130.586 9.20975
454 2 4.01185 130.741 9.11619
455 2 8.05742 130.578 9.20348
456 2 11.9787 130.602 9.03991
457 2 -0.102215 134.303 8.9759
458 2 3.85347 134.508 8.92353
459 2 7.99775 134.469 9.04195
460 2 12.0366 134.714 8.96886
461 2 0.0715984 138.352 8.80925
462 2 4.10982 138.385 9.05826
463 2 7.96767 138.376 8.84904
464 2 11.7328 138.465 8.88647
465 2 -0.0754678 142.473 8.89008
466 2 3.90737 142.129 8.81652
467 2 7.82753 142.296 8.71336
468 2 11.9192 142.353 9.06385
469 2 15.7623 146.227 8.8775
470 2 4.09296 146.434 8.74792
471 2 8.03511 146.392 8.97347
472 2 11.867 146.382 9.01532
473 2 15.7679 150.294 8.9019
474 2 3.91549 150.159 8.86186
475 2 7.80726 150.368 8.81432
476 2 11.7706 150.231 8.98764
477 2 15.9615 154.09 8.81146
478 2 3.96586 154.07 8.80251
479 2 7.86716 154.102 8.65727
480 2 11.9019 154.198 8.8041
481 2 15.5965 158.121 12.5779
482 2 4.02678 158.071 12.5951
483 2 7.95079 158.01 12.7396
484 2 11.7501 158.224 12.7342
485 2 15.7595 3.70661 12.7218
486 2 3.99675 3.57985 12.7223
487 2 7.87728 3.54717 12.7567
488 2 11.9744 3.63775 12.6961
489 2 15.7531 7.60676 12.6479
490 2 3.88426 7.39659 12.6399
491 2 7.84037 7.51592 12.789
492 2 11.6659 7.56337 12.5709
493 2 0.121857 11.5534 12.6185
494 2 3.84499 11.7033 12.6183
495 2 7.74321 11.2908 12.8369
496 2 12.0986 11.473 12.5051
497 2 0.0616395 15.4613 12.4933
498 2 3.93566 15.3939 12.5108
499 2 8.06739 15.3917 12.5417
500 2 11.9737 15.3337 12.6471
501 2 -0.0596081 19.5518 12.4646
502 2 3.99644 19.2899 12.6507
503 2 7.93929 19.3475 12.6269
504 2 11.9283 19.319 12.5094
505 2 0.165747 23.1804 12.4293
506 2 3.96941 23.1842 12.6182
507 2 8.04302 23.2571 12.471
508 2 11.838 23.0257 12.421
509 2 -0.105897 26.9836 12.4866
510 2 3.7657 27.0464 12.5218
511 2 7.86507 27.1035 12.5706
512 2 11.9623 27.077 12.4238
513 2 0.0692325 30.9523 12.3846
514 2 4.01442 30.8773 12.4749
515 2 7.88174 30.9064 12.5005
516 2 12.0669 31.0842 12.3287
517 2 -0.155211 34.9972 12.3549
518 2 3.86473 35.0792 12.5123
519 2 7.7882 34.8351 12.3889
520 2 11.9692 34.8508 12.4648
521 2 -0.0886632 38.9177 12.5241
522 2 3.96085 39.0423 12.6307
523 2 7.88742 39.0207 12.5011
524 2 11.6431 39.0926 12.5086
525 2 -0.012519 42.9809 12.462
526 2 3.66829 43.0364 12.3849
527 2 7.95956 42.8828 12.6396
528 2 11.95 42.9461 12.5265
529 2 0.0631593 46.9465 12.7562
530 2 3.92815 46.9891 12.5346
531 2 7.80975 46.9211 12.7067
532 2 11.8721 47.1025 12.4763
533 2 -0.0688971 51.0133 12.6197
534 2 3.69887 50.9789 12.6292
535 2 7.98729 50.9398 12.7895
536 2 11.8033 51.3141 12.6435
537 2 15.8936 55.0502 12.8107
538 2 4.08987 54.8609 12.7606
539 2 7.89576 54.9879 12.8587
540 2 11.8116 55.0744 12.9047
541 2 16.0655 59.0453 12.9958
542 2 4.09703 59.1361 12.9827
543 2 8.0428 59.0326 12.9369
544 2 12.0086 59.0413 12.8677
545 2 15.7114 63.2939 12.7798
546 2 3.98888 63.1086 13.0368
547 2 8.14986 63.1191 12.9071
548 2 11.9299 63.0438 13.0828
549 2 0.29629 67.1266 12.7278
550 2 4.2194 67.0359 12.8608
551 2 7.96617 67.2232 12.9422
552 2 12.0947 67.3534 12.8947
553 2 0.0450386 71.0237 13.1653
554 2 3.95806 71.4097 12.9665
555 2 7.83292 71.1565 13.1597
556 2 12.1333 71.3361 13.0564
557 2 0.165049 75.2057 13.0876
558 2 3.94454 75.3469 13.058
559 2 7.87648 75.4015 13.0581
560 2 12.0446 75.358 13.2241
561 2 0.12106 79.3084 13.1429
562 2 4.15605 79.5125 13.2328
563 2 8.09836 79.2365 13.1822
564 2 12.0174 79.2646 13.0911
565 2 0.191436 83.3303 13.0582
566 2 4.22448 83.2487 13.1619
567 2 8.18146 83.2662 13.1923
568 2 12.061 83.5539 13.2163
569 2 -0.137935 87.7713 13.1617
570 2 3.98782 87.3456 13.2392
571 2 8.06613 87.3322 13.1702
572 2 12.079 87.3501 13.0157
573 2 0.169647 91.444 13.2127
574 2 3.92761 91.4026 13.3643
575 2 7.93107 91.3338 13.2092
576 2 11.7627 91.4787 13.3497
577 2 -0.151044 95.654 13.5984
578 2 3.75693 95.4275 13.3801
579 2 8.01312 95.4682 13.3691
580 2 11.9051 95.427 13.3712
581 2 -0.0978948 99.5473 13.3429
582 2 3.96078 99.2665 13.359
583 2 8.05319 99.5941 13.5156
584 2 11.8818 99.4904 13.4979
585 2 -0.0668856 103.252 13.3957
586 2 3.98421 103.379 13.4664
587 2 8.08098 103.396 13.4545
588 2 11.9093 103.375 13.4535
589 2 0.109283 107.062 13.2222
590 2 4.11125 107.182 13.3987
591 2 8.01406 107.148 13.3446
592 2 11.8686 107.363 13.318
593 2 0.137351 111.021 13.4688
594 2 4.03482 111.137 13.4382
595 2 7.98108 111.239 13.3474
596 2 11.9619 111.135 13.3759
597 2 0.0650801 115.083 13.1694
598 2 4.0098 115.041 13.018
599 2 7.95563 115.15 13.2177
600 2 11.721 114.867 13.1123
601 2 0.281457 118.886 13.2463
602 2 4.05877 118.826 13.2901
603 2 8.0551 119.124 13.2358
604 2 12.1295 118.903 13.2748
605 2 0.229812 122.899 13.0963
606 2 4.0391 122.717 13.3263
607 2 8.19934 122.879 13.0929
608 2 12.0606 122.768 13.1564
609 2 0.0929076 126.663 13.2572
610 2 4.15972 126.817 13.261
611 2 8.03856 126.83 13.0504
612 2 11.9134 126.846 13.1446
613 2 15.8158 130.652 13.2128
614 2 3.76175 130.687 13.1515
615 2 7.91846 130.764 13.0959
616 2 11.7838 130.694 13.0887
617 2 15.735 134.584 13.0644
618 2 4.07806 134.493 13.1636
619 2 7.98325 134.463 13.0598
620 2 11.916 134.835 13.0574
621 2 0.207421 138.705 12.8624
622 2 3.92834 138.455 12.9425
623 2 7.9187 138.719 13.0642
624 2 12.0031 138.58 12.9875
625 2 15.8983 142.364 12.9872
626 2 3.95548 142.622 12.8375
627 2 7.85218 142.507 13.1007
628 2 11.7987 142.382 13.0003
629 2 0.248053 146.298 12.8065
630 2 3.98115 146.191 12.9015
631 2 8.13913 146.239 12.8207
632 2 11.9686 146.391 12.8758
633 2 -0.182716 150.269 12.9165
634 2 3.91967 150.229 12.9085
635 2 8.01886 150.195 12.8708
636 2 11.8527 150.381 12.8314
637 2 15.8459 153.97 12.8014
638 2 3.88775 154.157 12.867
639 2 7.84944 154.076 12.8661
640 2 11.8401 154.311 12.7818
641 2 0.144384 157.986 16.7083
642 2 4.02022 -0.367214 16.7357
643 2 7.77811 157.961 16.7015
644 2 11.7324 157.944 16.7159
645 2 15.8478 3.55199 16.7534
646 2 3.78869 3.82073 16.7296
647 2 8.03289 3.49891 16.9075
648 2 11.8288 3.66752 16.6091
649 2 0.184655 7.69756 16.7159
650 2 4.15179 7.45045 16.7499
651 2 7.70386 7.61606 16.7621
652 2 11.7292 7.5489 16.6432
653 2 0.0208432 11.5328 16.6217
654 2 3.97785 11.5615 16.5371
655 2 7.94334 11.4451 16.4906
656 2 12.0201 11.2148 16.7511
657 2 0.0634216 15.5146 16.536
658 2 4.00504 15.5017 16.5677
659 2 7.92532 15.4375 16.6798
660 2 11.8491 15.2677 16.6195
661 2 15.8603 19.2305 16.6708
662 2 3.78408 19.1907 16.5832
663 2 7.73572 19.4146 16.513
664 2 11.7792 19.3752 16.4217
665 2 -0.033339 23.1639 16.6649
666 2 4.05101 23.2306 16.6034
667 2 7.96331 23.2181 16.7146
668 2 11.7091 23.2094 16.6973
669 2 0.00112019 27.1859 16.507
670 2 3.94955 27.1459 16.5689
671 2 7.74834 27.2775 16.3209
672 2 11.9154 27.1657 16.4886
673 2 -0.0859274 31.0203 16.4142
674 2 3.94353 31.2763 16.4291
675 2 7.85926 30.9517 16.5734
676 2 11.9236 31.0432 16.399
677 2 -0.137332 35.007 16.1111
678 2 3.98467 34.9234 16.4123
679 2 8.04158 34.9111 16.3432
680 2 11.9114 34.8776 16.3891
681 2 0.163969 38.8822 16.48
682 2 4.08778 38.7944 16.3748
683 2 8.03887 38.9011 16.6175
684 2 11.6661 38.9287 16.4635
685 2 -0.123554 42.7683 16.4964
686 2 3.9667 42.956 16.6107
687 2 7.9342 42.8039 16.5481
688 2 12.1018 43.0103 16.3885
689 2 15.6935 46.7948 16.5543
690 2 3.91583 46.8749 16.5591
691 2 7.89764 46.7962 16.5261
692 2 11.7169 46.9758 16.5648
693 2 -0.237709 50.942 16.6035
694 2 3.98862 50.8213 16.5763
695 2 8.05857 50.8 16.5202
696 2 11.9422 51.0504 16.5313
697 2 -0.0336982 54.7964 16.9996
698 2 3.84589 54.8753 16.6939
699 2 7.7001 54.9409 16.7608
700 2 11.8128 54.952 16.7442
701 2 0.186933 58.8141 16.7937
702 2 4.04979 59.0528 16.6556
703 2 7.9849 58.9538 16.908
704 2 11.9184 59.1168 16.8843
705 2 0.00826664 63.1425 16.7948
706 2 3.95295 62.8864 17.0021
707 2 7.88279 63.1246 16.6989
708 2 11.9244 62.97 16.7409
709 2 0.100216 67.2058 16.8902
710 2 4.12154 66.9255 16.7533
711 2 8.05124 66.9503 16.8875
712 2 12.0037 67.205 16.7637
713 2 -0.000804671 71.3078 16.9364
714 2 3.88766 71.1701 16.9089
715 2 7.84874 71.1953 16.8547
716 2 11.7757 70.9944 16.7297
717 2 0.330219 75.1155 17.0642
718 2 4.08585 75.1808 16.9009
719 2 7.99042 75.1694 16.8689
720 2 11.789 75.3611 16.8892
721 2 0.0439926 79.3042 16.9418
722 2 3.88227 79.3049 17.0217
723 2 8.03591 79.3256 16.965
724 2 12.1324 79.1761 17.054
725 2 0.32646 83.4052 17.0109
726 2 4.08469 83.2471 17.1252
727 2 8.11206 83.1577 17.1375
728 2 12.0206 83.1464 17.2343
729 2 0.0307253 87.1911 17.1129
730 2 3.8693 87.3952 16.9189
731 2 7.8366 87.4384 17.22
732 2 11.7087 87.3047 17.1781
733 2 0.0389679 91.2444 17.2014
734 2 3.93893 91.4348 17.134
735 2 7.95612 91.1603 17.1288
736 2 11.9579 91.1698 17.2955
737 2 -0.0478347 95.4036 17.2639
738 2 3.98948 95.2064 17.1221
739 2 7.76223 95.2995 17.2601
740 2 11.828 95.1741 17.2457
741 2 -0.195423 99.5945 17.3291
742 2 3.94785 99.287 17.2692
743 2 7.92578 99.2454 17.5353
744 2 11.781 99.4777 17.2653
745 2 -0.0375354 103.265 17.4338
746 2 4.01623 103.556 17.3413
747 2 7.91235 103.334 17.6228
748 2 12.0263 103.398 17.5459
749 2 0.317552 107.411 17.3526
750 2 4.1073 107.362 17.4187
751 2 8.01033 107.18 17.419
752 2 11.977 107.52 17.3834
753 2 0.159653 111.071 17.4215
754 2 3.95538 111.409 17.199
755 2 7.75674 111.171 17.1775
756 2 11.8857 111.318 17.4814
757 2 -0.0579851 114.99 17.3092
758 2 3.97103 115.274 17.2695
759 2 8.0916 115.171 17.2646
760 2 12.0629 115.094 17.2643
761 2 0.0654575 119.083 17.4083
762 2 4.0092 119.036 17.2839
763 2 7.8776 119.108 17.2108
764 2 12.0476 119.167 17.306
765 2 0.0855173 123.069 17.192
766 2 3.89077 123.069 17.0956
767 2 7.8643 123.019 17.2963
768 2 11.8136 123.017 17.06
769 2 15.6882 127.082 17.2886
770 2 3.89113 126.88 17.253
771 2 7.86936 127.15 17.1229
772 2 11.8924 126.707 16.9647
773 2 15.6853 130.93 17.241
774 2 3.93186 130.683 17.1989
775 2 7.99171 130.95 17.1425
776 2 11.7861 130.758 17.0423
777 2 15.7911 134.641 17.1972
778 2 3.73918 134.775 16.9985
779 2 7.84405 134.65 17.1294
780 2 11.8112 134.839 16.9455
781 2 0.172395 138.689 17.0236
782 2 4.08254 138.359 16.9706
783 2 7.89739 138.339 17.1634
784 2 11.854 138.621 17.0782
785 2 15.738 142.407 17.045
786 2 3.95688 142.39 17.0035
787 2 7.86881 142.493 17.0185
788 2 11.9004 142.52 16.9751
789 2 15.8177 146.267 16.921
790 2 4.06076 146.394 16.8337
791 2 7.97503 146.317 16.7483
792 2 12.0053 146.283 16.9198
793 2 15.9042 150.297 16.926
794 2 4.05813 150.408 16.9086
795 2 8.01134 150.237 16.8196
796 2 12.0678 150.193 16.7892
797 2 15.9474 154.294 16.865
798 2 3.87025 154.106 16.7977
799 2 7.93386 154.031 16.7367
800 2 11.9716 154.272 16.7181
801 2 15.8909 158.232 20.927
802 2 3.98351 158.2 20.7964
803 2 7.92256 158.102 20.9765
804 2 11.9949 158.064 20.7622
805 2 -0.0482514 3.71731 20.8305
806 2 3.81254 3.64379 20.8556
807 2 7.87416 3.64947 20.7864
808 2 11.8724 3.77735 20.5677
809 2 15.8289 7.6635 20.7635
810 2 3.83963 7.63583 20.7389
811 2 7.8808 7.70602 20.6859
812 2 11.8978 7.7144 20.6485
813 2 15.8054 11.4358 20.5231
814 2 3.69239 11.6265 20.6152
815 2 7.99676 11.6971 20.6927
816 2 11.9981 11.6786 20.5734
817 2 15.8952 15.4823 20.5631
818 2 3.88682 15.3719 20.6855
819 2 7.82432 15.3959 20.7553
820 2 11.9111 15.5532 20.4907
821 2 0.102216 19.3161 20.4857
822 2 3.94146 19.5479 20.4736
823 2 7.94895 19.0583 20.5517
824 2 11.8065 19.4125 20.6175
825 2 -0.123308 23.4656 20.569
826 2 3.93013 23.3337 20.629
827 2 8.01085 23.2385 20.612
828 2 11.926 23.2059 20.5925
829 2 15.9034 27.1783 20.4792
830 2 3.9776 27.2442 20.5969
831 2 7.9495 27.2615 20.5902
832 2 11.9391 27.3887 20.5683
833 2 15.8611 31.0525 20.393
834 2 3.89955 31.1552 20.4673
835 2 7.88736 31.0491 20.4305
836 2 11.9783 31.1533 20.5047
837 2 15.9071 34.8907 20.2421
838 2 4.00542 35.1355 20.5582
839 2 7.91845 34.8773 20.5898
840 2 11.9692 34.8871 20.6222
841 2 0.236549 38.8737 20.344
842 2 4.10904 38.8033 20.3389
843 2 7.84976 39.0626 20.5325
844 2 11.6939 38.8161 20.3692
845 2 15.7225 42.8923 20.2181
846 2 3.93852 42.9364 20.5036
847 2 8.07311 42.8704 20.5769
848 2 11.9636 42.7312 20.4094
849 2 15.8771 46.776 20.349
850 2 4.04777 46.8662 20.5623
851 2 7.95459 47.0429 20.3756
852 2 11.84 46.9716 20.7007
853 2 0.0538254 50.8204 20.4688
854 2 4.08865 50.7297 20.561
855 2 7.87551 50.8308 20.6748
856 2 11.7879 50.984 20.527
857 2 0.0236548 54.8364 20.7487
858 2 4.16345 55.0211 20.4039
859 2 7.82895 54.9382 20.6289
860 2 11.9066 54.9014 20.6782
861 2 15.8912 58.9677 20.635
862 2 3.68458 59.0017 20.7722
863 2 7.91824 58.9443 20.6164
864 2 12.0481 59.04 20.8669
865 2 15.7636 62.894 20.7648
866 2 3.93311 62.78 20.8195
867 2 7.88327 62.9633 20.76
868 2 11.9468 63.0201 20.6
869 2 -0.00572258 67.0165 20.7374
870 2 3.91543 67.1156 20.7791
871 2 7.92243 67.0107 20.7838
872 2 11.8229 67.2024 20.5892
873 2 -0.0503269 71.0026 20.7119
874 2 4.0689 71.1537 21.0028
875 2 7.9269 71.0025 20.703
876 2 11.7358 71.1454 20.835
877 2 0.0586029 75.0733 20.9939
878 2 4.13503 75.1722 20.8213
879 2 8.07741 75.065 20.7875
880 2 12.0522 75.0161 20.6695
881 2 0.149685 79.1346 20.8451
882 2 4.19562 79.135 20.9229
883 2 8.06644 79.1886 21.0039
884 2 11.9926 78.9018 20.715
885 2 0.0917481 83.1455 20.8575
886 2 4.05264 83.0783 21.2192
887 2 8.06004 83.2227 20.8397
888 2 11.7851 83.1794 21.0985
889 2 -0.167082 87.268 20.8677
890 2 3.92423 87.1932 21.0165
891 2 7.75706 87.3833 20.9027
892 2 11.8445 87.1387 21.0961
893 2 -0.00365485 91.1348 21.014
894 2 3.85522 91.1796 21.1585
895 2 7.66821 91.2595 21.022
896 2 11.8087 91.2967 21.0164
897 2 -0.0179579 95.1037 21.2594
898 2 3.80936 95.0973 21.0312
899 2 7.982 95.2298 21.1531
900 2 11.8233 95.3741 21
901 2 0.259151 99.163 21.2802
902 2 3.75079 99.1588 21.2124
903 2 7.90495 99.0651 21.2501
904 2 11.7543 99.2808 21.3284
905 2 -0.116629 103.216 21.2479
906 2 4.07702 103.185 21.3575
907 2 7.78236 103.303 21.4707
908 2 11.9733 103.229 21.4097
909 2 -0.0272111 107.244 21.4255
910 2 3.9244 107.199 21.3961
911 2 7.92647 107.008 21.5208
912 2 12.0048 107.243 21.4956
913 2 -0.118332 111.409 21.334
914 2 4.00488 111.278 21.3665
915 2 7.97342 111.085 21.5517
916 2 11.8912 111.246 21.43
917 2 15.7199 115.195 21.341
918 2 4.0604 115.195 21.2961
919 2 7.94317 115.192 21.0791
920 2 11.7308 115.13 21.1852
921 2 -0.0213755 119.181 21.3432
922 2 3.9686 119.16 21.2069
923 2 7.86335 119.229 21.2668
924 2 11.7665 119.092 21.3362
925 2 15.8932 122.884 21.3417
926 2 3.97525 123.02 21.2231
927 2 7.81203 123.015 21.2458
928 2 11.8693 123.099 21.153
929 2 15.8616 126.87 21.3059
930 2 3.86205 126.776 21.2206
931 2 7.99318 126.964 21.1593
932 2 11.8775 126.771 21.2962
933 2 15.7204 130.85 21.1014
934 2 4.01037 130.499 21.1895
935 2 7.95318 130.93 21.4534
936 2 11.9385 130.888 21.1326
937 2 0.165524 134.58 21.2169
938 2 3.79405 134.683 21.3029
939 2 7.95064 134.589 21.1937
940 2 12.0273 134.841 20.9942
941 2 15.7837 138.616 21.1648
942 2 3.80081 138.635 21.1137
943 2 7.6772 138.673 21.2211
944 2 11.7468 138.629 21.1433
945 2 15.7341 142.437 21.1209
946 2 3.82002 142.569 21.1012
947 2 7.99645 142.741 20.9858
948 2 11.8134 142.466 21.0144
949 2 15.9922 146.28 20.9167
950 2 4.04516 146.489 20.887
951 2 7.8133 146.469 20.9613
952 2 11.9506 146.508 20.9377
953 2 15.8527 150.412 20.9973
954 2 3.90335 150.359 20.9286
955 2 7.95293 150.201 20.6922
956 2 12.0212 150.526 20.8959
957 2 15.8462 154.26 20.8692
958 2 4.11624 154.385 20.818
959 2 7.85324 154.289 20.9059
960 2 11.9289 154.171 20.7208
961 2 0.142012 158.153 24.8691
962 2 3.9727 158.181 24.8015
963 2 8.11518 158.225 24.8563
964 2 12.0477 158.2 24.6933
965 2 15.7751 3.77858 24.7015
966 2 3.99021 3.71572 24.78
967 2 7.88576 3.7838 24.7143
968 2 11.8862 3.66447 24.9357
969 2 15.5755 7.63043 24.6891
970 2 3.8823 7.69825 24.8375
971 2 7.62753 7.65504 24.4741
972 2 11.4813 7.55855 24.7089
973 2 15.9199 11.4181 24.6622
974 2 3.87106 11.5393 24.7892
975 2 7.93699 11.527 24.8612
976 2 11.804 11.6379 24.7859
977 2 0.0364012 15.411 24.8435
978 2 3.91868 15.463 24.6834
979 2 7.97919 15.4063 24.6543
980 2 11.8198 15.6622 24.6689
981 2 -0.0309459 19.223 24.6238
982 2 3.96726 19.4691 24.6528
983 2 7.80406 19.2513 24.6909
984 2 11.8964 19.2979 24.6808
985 2 0.097056 23.4477 24.6702
986 2 4.00294 23.3811 24.6878
987 2 7.78697 23.2328 24.5769
988 2 12.0835 23.2719 24.571
989 2 -0.0236769 27.3264 24.5049
990 2 3.96764 27.1575 24.6046
991 2 7.92188 27.222 24.6173
992 2 11.9209 27.3083 24.5506