ITEM: TIMESTEP
21900
ITEM: NUMBER OF ATOMS
32000
ITEM: BOX BOUNDS xy xz yz pp pp pp
0.0000000000000000e+00 1.5832000000000001e+01 0.0000000000000000e+00
0.0000000000000000e+00 1.5831999999999999e+02 0.0000000000000000e+00
8.6375510720544924e-01 1.6011336289279001e+02 0.0000000000000000e+00
ITEM: ATOMS id type x y z
1 2 15.9881 157.912 159.899
2 2 4.05626 158.08 159.92
3 2 8.16266 157.931 160.13
4 2 12.096 158.124 160.025
5 2 0.126175 3.42628 159.947
6 2 4.07199 3.57492 159.957
7 2 8.08967 3.31828 159.694
8 2 11.9514 3.5855 160.214
9 2 16.0841 7.34561 159.752
10 2 3.96135 7.48721 159.825
11 2 7.89168 7.39962 159.942
12 2 12.052 7.40966 159.843
13 2 16.0861 11.4692 159.729
14 2 3.98208 11.2824 159.857
15 2 8.18523 11.375 159.907
16 2 12.0047 11.2548 159.826
17 2 -0.060347 15.3107 159.798
18 2 4.1288 15.0967 159.69
19 2 7.86231 15.1219 159.777
20 2 12.0246 15.1956 159.805
21 2 16.083 19.0175 159.808
22 2 4.10624 19.2081 159.924
23 2 8.07222 19.1448 159.778
24 2 11.9939 19.3115 159.687
25 2 15.9863 23.1482 159.693
26 2 4.0215 23.0856 159.775
27 2 8.14376 23.0413 159.9
28 2 12.0051 23.1888 159.741
29 2 15.805 27.1379 159.796
30 2 4.00392 27.2536 159.691
31 2 7.98275 27.2575 160.004
32 2 11.8433 27.047 159.821
33 2 15.9755 31.024 159.79
34 2 4.01314 31.1206 0.569303
35 2 7.82761 31.1113 160.109
36 2 12.0361 31.084 159.832
37 2 0.17144 35.2661 159.692
38 2 4.07677 35.2733 159.701
39 2 7.98153 35.061 159.772
40 2 11.9495 35.0861 159.929
41 2 0.00167095 39.105 159.922
42 2 4.29323 39.2525 0.878131
43 2 8.03839 39.2488 0.825723
44 2 11.9814 39.185 0.743668
45 2 0.0203234 43.0333 159.99
46 2 4.04242 43.2124 160.07
47 2 7.9505 43.102 0.667399
48 2 11.8651 43.2729 0.692058
49 2 0.145389 47.2081 0.776739
50 2 4.04238 47.2903 0.812059
51 2 8.06579 47.2269 0.862713
52 2 11.8303 47.2266 0.954081
53 2 -0.0291956 51.1623 0.891253
54 2 4.02561 51.2843 0.767978
55 2 7.98235 51.4054 1.05889
56 2 12.018 51.3315 0.896218
57 2 16.0311 55.4504 1.03642
58 2 4.15438 55.3752 1.27179
59 2 7.91188 55.3329 1.15796
60 2 11.9795 55.3501 1.08761
61 2 0.162422 59.2976 1.18106
62 2 3.93139 59.3666 1.09262
63 2 7.97128 59.2718 1.06816
64 2 11.9234 59.2147 1.06737
65 2 0.303512 63.4756 1.3079
66 2 4.254 63.4867 1.16522
67 2 8.0413 63.3445 1.13542
68 2 12.0657 63.4275 1.24619
69 2 15.905 67.5384 1.07976
70 2 4.05261 67.362 1.38751
71 2 8.03624 67.4429 1.2651
72 2 11.8019 67.3398 1.28496
73 2 -0.202945 71.4682 1.12455
74 2 3.82581 71.5478 1.51839
75 2 7.83367 71.4214 1.3447
76 2 11.7291 71.3873 1.07614
77 2 0.0913725 75.5039 1.33477
78 2 4.04375 75.4787 1.60113
79 2 8.16256 75.5542 1.30847
80 2 12.0138 75.5629 1.19732
81 2 0.188401 79.434 1.37561
82 2 4.22921 79.5206 1.40333
83 2 8.03221 79.4995 1.42304
84 2 12.0868 79.5112 1.34806
85 2 0.164736 83.5512 1.39653
86 2 4.04719 83.6362 1.5673
87 2 7.99172 83.4273 1.43507
88 2 12.0288 83.4914 1.33275
89 2 0.0453778 87.5519 1.65803
90 2 3.92343 87.7414 1.35848
91 2 7.89193 87.4378 1.41533
92 2 11.7601 87.4753 1.44287
93 2 -0.124142 91.4311 1.6521
94 2 3.98706 91.5606 1.44632
95 2 7.87491 91.6813 1.47772
96 2 11.9129 91.3259 1.40929
97 2 15.7789 95.3502 1.3556
98 2 4.14685 95.257 1.27684
99 2 7.97482 95.4065 1.4793
100 2 11.6881 95.2964 1.4323
101 2 0.192267 99.3025 1.50453
102 2 3.87136 99.2927 1.36351
103 2 7.84003 99.1968 1.39324
104 2 12.1914 99.2184 1.40397
105 2 -0.113501 103.394 1.38605
106 2 3.82949 103.168 1.35986
107 2 8.08487 103.139 1.26508
108 2 11.9159 103.286 1.21238
109 2 -0.0402503 107.163 1.34197
110 2 3.78497 107.251 1.14158
111 2 7.87077 106.948 1.12698
112 2 11.7978 107.242 1.20699
113 2 -0.0407539 111.135 1.17933
114 2 4.07363 110.977 1.3214
115 2 7.87263 111.119 0.989552
116 2 11.8491 111.171 1.15831
117 2 15.8838 114.909 1.29069
118 2 3.93406 114.756 1.34116
119 2 7.84481 114.994 1.1429
120 2 11.9486 114.912 1.2139
121 2 -0.206127 118.869 1.14122
122 2 3.8574 118.58 1.05947
123 2 7.87507 118.799 1.12518
124 2 11.8092 118.755 1.04339
125 2 15.858 122.67 1.18285
126 2 3.81789 122.613 1.09156
127 2 7.82786 122.839 1.10662
128 2 11.6664 122.671 1.09896
129 2 -0.0137142 126.542 1.21386
130 2 4.04825 126.744 1.15127
131 2 7.89182 126.602 1.15413
132 2 11.8273 126.601 1.07676
133 2 15.7694 130.399 1.09544
134 2 3.79425 130.599 0.996856
135 2 7.77346 130.588 1.08071
136 2 11.8654 130.74 0.829094
137 2 15.8342 134.342 1.10586
138 2 3.81048 134.53 0.951241
139 2 7.78629 134.406 160.243
140 2 11.9766 134.414 0.970938
141 2 0.11414 138.442 0.870595
142 2 3.75416 138.272 160.487
143 2 7.98436 138.264 160.236
144 2 11.7664 138.341 0.904752
145 2 15.627 142.15 160.052
146 2 3.97682 142.304 160.112
147 2 7.97534 142.25 160.12
148 2 11.8915 142.339 160.175
149 2 0.114994 146.2 159.982
150 2 4.06502 146.152 160.169
151 2 7.93444 146.242 160.17
152 2 11.7985 145.876 160.011
153 2 15.823 149.985 159.911
154 2 3.74513 150.222 160.106
155 2 7.85656 150.251 160.07
156 2 11.9028 150.212 0.614473
157 2 15.8032 153.92 160.054
158 2 3.85012 154.191 159.956
159 2 7.99155 154.063 159.883
160 2 11.9465 154.178 160.073
161 2 16.0196 157.985 4.78864
162 2 3.96524 158.035 4.54635
163 2 7.87867 157.841 4.88849
164 2 11.9372 157.963 4.72238
165 2 0.0982933 3.62081 4.57821
166 2 3.91458 3.68892 4.76099
167 2 7.98828 3.64512 4.8489
168 2 11.9027 3.76145 4.57957
169 2 -0.132783 7.47671 4.59644
170 2 3.97161 7.56256 4.6287
171 2 7.74261 7.56176 4.63576
172 2 11.8349 7.54525 4.78155
173 2 -0.134709 11.2867 4.54231
174 2 3.93057 11.3447 4.61379
175 2 7.84625 11.4899 4.55363
176 2 11.8288 11.3534 4.72276
177 2 15.8408 15.3579 4.5325
178 2 4.00026 15.2322 4.52399
179 2 7.83986 15.4351 4.57311
180 2 12.0004 15.2088 4.54278
181 2 0.124532 19.1181 4.51504
182 2 4.01129 19.0628 4.63518
183 2 7.9907 19.1532 4.37077
184 2 11.9031 18.9354 4.30572
185 2 -0.187602 23.1452 4.69703
186 2 4.00284 23.1932 4.32958
187 2 7.97613 23.1111 4.61631
188 2 12.0255 22.902 4.45928
189 2 15.6342 26.9978 4.6324
190 2 3.83312 27.1882 4.52694
191 2 7.79445 27.1712 4.67088
192 2 11.8917 26.9693 4.39113
193 2 0.0602798 31.0049 4.38341
194 2 3.92836 31.0366 4.50984
195 2 7.94063 31.3093 4.70743
196 2 11.9868 31.0376 4.50207
197 2 -0.133667 35.0269 4.55523
198 2 3.89222 35.0508 4.30334
199 2 7.89768 35.0774 4.68086
200 2 11.7818 35.0257 4.5429
201 2 15.8897 39.143 4.71281
202 2 3.96022 39.1166 4.69279
203 2 7.84281 39.1489 4.70482
204 2 11.6991 39.0031 4.5109
205 2 0.120015 43.1323 4.67569
206 2 3.92303 43.1786 4.61886
207 2 8.09512 43.2375 4.80604
208 2 12.0921 43.1724 4.63733
209 2 0.259351 47.3559 4.61416
210 2 4.05383 47.1459 4.79856
211 2 7.99343 47.1927 4.5978
212 2 12.0453 47.0778 4.82466
213 2 0.100558 51.2015 4.8564
214 2 4.04621 51.2967 4.81462
215 2 8.03781 51.2462 5.09583
216 2 11.8172 51.2754 4.81049
217 2 -0.0956205 55.1169 5.01792
218 2 3.84628 55.1998 5.00456
219 2 8.02926 55.1017 5.06017
220 2 12.027 55.2498 4.9568
221 2 15.7507 59.2179 5.03574
222 2 4.0457 59.2637 5.12094
223 2 8.01722 59.4109 5.04144
224 2 11.9529 59.3983 4.95854
225 2 0.131518 63.3265 4.97147
226 2 4.02312 63.31 5.20768
227 2 7.90712 63.4247 5.04458
228 2 12.022 63.2958 5.04645
229 2 15.8888 67.3112 5.16687
230 2 4.01339 67.4192 5.28032
231 2 8.1337 67.4105 5.17987
232 2 12.0766 67.3798 5.10746
233 2 15.8408 71.3648 5.3441
234 2 3.96729 71.3286 5.30619
235 2 8.07987 71.4088 5.29294
236 2 12.0734 71.4901 5.1449
237 2 15.883 75.3216 5.38841
238 2 3.89074 75.2284 5.2636
239 2 7.95134 75.347 5.13672
240 2 11.9136 75.3338 5.15815
241 2 -0.0405681 79.6194 5.29037
242 2 3.93995 79.3227 5.38344
243 2 8.25729 79.3772 5.38934
244 2 12.0543 79.5813 5.25705
245 2 15.7757 83.5206 5.3183
246 2 4.07198 83.5 5.38789
247 2 7.85291 83.4852 5.32467
248 2 11.8638 83.4061 5.29002
249 2 -0.129442 87.6125 5.56211
250 2 3.90085 87.4696 5.41382
251 2 7.66698 87.763 5.22554
252 2 11.9599 87.51 5.41427
253 2 0.0312745 91.5159 5.48257
254 2 3.84519 91.4956 5.57808
255 2 7.88787 91.612 5.49168
256 2 11.674 91.5197 5.56447
257 2 15.9657 95.3609 5.63277
258 2 4.23706 95.5149 5.44365
259 2 8.05197 95.4899 5.46573
260 2 11.8904 95.4325 5.4881
261 2 0.152844 99.4959 5.49043
262 2 4.10055 99.6108 5.37136
263 2 7.8044 99.3082 5.43937
264 2 11.7531 99.4898 5.32716
265 2 -0.0490546 103.28 5.30298
266 2 3.92415 103.563 5.38883
267 2 7.9712 103.349 5.25051
268 2 11.7532 103.336 5.38227
269 2 15.8578 107.298 5.29566
270 2 3.97586 107.165 5.29111
271 2 8.01392 107.181 5.26769
272 2 11.8881 107.186 5.02483
273 2 15.8167 111.08 5.32034
274 2 3.9705 110.992 5.28082
275 2 7.95073 110.863 4.97945
276 2 11.8178 110.846 5.28846
277 2 -0.103277 115.003 5.34713
278 2 4.04033 115.005 5.24692
279 2 7.93485 114.998 5.17005
280 2 11.6973 114.723 5.31354
281 2 -0.058494 118.838 5.2239
282 2 3.98502 118.83 5.21426
283 2 7.82718 118.899 5.17527
284 2 11.6918 118.658 5.22202
285 2 16.0006 122.664 5.20828
286 2 4.04538 122.707 5.0774
287 2 7.90633 122.793 5.23771
288 2 12.0035 122.843 5.10244
289 2 0.253793 126.592 4.99478
290 2 3.98205 126.719 5.08096
291 2 7.92795 126.602 5.09785
292 2 12.1025 126.631 5.00139
293 2 0.00320418 130.745 5.09812
294 2 4.07405 130.529 5.09753
295 2 8.15072 130.489 5.03973
296 2 11.9156 130.504 4.96386
297 2 15.8302 134.546 5.09532
298 2 4.04915 134.447 4.95586
299 2 7.97887 134.655 4.83368
300 2 11.9193 134.607 4.97797
301 2 0.0747437 138.333 5.14614
302 2 4.05996 138.26 5.09718
303 2 8.08564 138.326 4.95053
304 2 11.8875 138.515 5.00967
305 2 0.0514216 142.26 4.96593
306 2 4.01068 142.326 4.74052
307 2 7.81846 142.209 4.96357
308 2 11.8486 142.308 5.02774
309 2 16.1154 146.22 4.82304
310 2 4.06958 146.381 4.93158
311 2 7.9105 146.307 4.89989
312 2 12.2311 146.246 4.89853
313 2 15.6008 149.953 4.67759
314 2 4.07007 150.287 4.69967
315 2 8.11743 150.139 4.84311
316 2 11.9516 150.27 4.85034
317 2 15.8173 154.079 4.79781
318 2 4.06546 154.037 4.80945
319 2 7.99776 154.086 4.96137
320 2 12.0571 153.948 4.89611
321 2 15.7666 158.021 8.88719
322 2 3.9701 158.112 8.61665
323 2 7.82764 157.956 8.78751
324 2 11.9298 158.014 8.85001
325 2 15.9757 3.64895 8.76865
326 2 4.05787 3.48767 8.43601
327 2 7.86689 3.66076 8.80774
328 2 11.7269 3.45795 8.57496
329 2 15.8189 7.49562 8.71094
330 2 3.80185 7.56941 8.75965
331 2 7.79628 7.51058 8.63876
332 2 11.8582 7.42025 8.64407
333 2 -0.0389782 11.4791 8.61423
334 2 3.96257 11.3725 8.68663
335 2 8.07418 11.4436 8.59758
336 2 11.8109 11.4555 8.54198
337 2 15.8704 15.3828 8.58253
338 2 3.95745 15.3265 8.56035
339 2 8.07146 15.4272 8.41284
340 2 12.0872 15.3617 8.60891
341 2 0.173488 19.1687 8.54201
342 2 4.07647 19.4079 8.40179
343 2 7.98933 19.3804 8.34853
344 2 11.7296 19.2047 8.49733
345 2 0.0399224 23.1232 8.49041
346 2 4.15999 23.158 8.38791
347 2 8.17887 23.2596 8.32123
348 2 12.0466 22.9829 8.53161
349 2 -0.117134 26.9221 8.60208
350 2 4.02417 27.0873 8.39
351 2 7.99236 27.0125 8.61177
352 2 11.9246 27.1657 8.53626
353 2 0.0980321 30.8853 8.4957
354 2 3.81572 31.0315 8.34791
355 2 7.90645 30.9093 8.45992
356 2 11.9141 30.9253 8.46084
357 2 15.8714 35.0293 8.57988
358 2 3.89411 34.8481 8.37875
359 2 7.94324 34.9816 8.38485
360 2 11.9803 34.9816 8.48952
361 2 0.0107013 38.9678 8.62282
362 2 3.96386 39.0751 8.68162
363 2 7.76569 39.1384 8.57876
364 2 12.0169 38.9328 8.51442
365 2 -0.0525802 42.884 8.47044
366 2 3.77234 43.126 8.5931
367 2 7.89825 43.1776 8.62856
368 2 11.8594 43.086 8.68389
369 2 0.0279415 47.1339 8.59738
370 2 3.99197 46.9889 8.61986
371 2 7.77244 47.1691 8.82689
372 2 11.8942 47.1412 8.59035
373 2 15.7791 51.1513 8.95436
374 2 3.84298 51.2164 8.73515
375 2 8.01497 51.116 8.92251
376 2 11.9091 51.0954 8.74213
377 2 15.79 55.1987 8.88354
378 2 3.92445 55.2184 8.83767
379 2 8.05967 55.0908 8.78312
380 2 11.8997 55.0373 8.94656
381 2 -0.0840881 59.1792 8.95314
382 2 4.02583 59.3148 9.2201
383 2 7.94671 59.1637 9.01499
384 2 12.0058 59.2163 8.98194
385 2 -0.118162 63.1635 8.9889
386 2 3.99837 63.133 8.90798
387 2 7.91735 63.2674 8.94696
388 2 11.9884 63.2936 9.01054
389 2 15.9546 67.1769 8.88507
390 2 4.07011 67.137 9.05418
391 2 8.06374 67.1811 8.9727
392 2 12.0071 67.3665 8.85866
393 2 15.9051 71.2847 9.07851
394 2 4.05958 71.2486 9.17983
395 2 7.97861 71.1924 8.94557
396 2 11.6644 71.2589 9.18017
397 2 15.9132 75.4681 9.09298
398 2 4.12823 75.4203 9.42276
399 2 7.96446 75.4433 9.32274
400 2 11.726 75.538 9.23232
401 2 15.8494 79.4348 9.17146
402 2 3.84048 79.3606 9.12833
403 2 8.1729 79.3816 9.02357
404 2 11.957 79.4676 9.2499
405 2 0.100377 83.4088 9.2635
406 2 4.14977 83.4151 9.25874
407 2 8.09405 83.4957 9.3309
408 2 11.822 83.5939 9.37268
409 2 -0.035041 87.499 9.43165
410 2 3.92437 87.3447 9.21992
411 2 8.08823 87.3904 9.14747
412 2 12.0179 87.6336 9.04677
413 2 -0.0935202 91.6173 9.46233
414 2 4.05486 91.4065 9.28534
415 2 8.04932 91.4109 9.47335
416 2 11.8738 91.539 9.59398
417 2 15.7685 95.8305 9.33518
418 2 3.84795 95.5295 9.43004
419 2 7.95422 95.4176 9.45662
420 2 11.8451 95.406 9.52219
421 2 15.6821 99.4708 9.31116
422 2 3.81644 99.4078 9.39254
423 2 7.79952 99.3962 9.44369
424 2 11.7145 99.5155 9.43363
425 2 -0.111083 103.271 9.23745
426 2 3.85243 103.28 9.29921
427 2 7.97706 103.309 9.46363
428 2 11.7077 103.452 9.38195
429 2 -0.0678929 107.162 9.44786
430 2 4.01836 107.095 9.31148
431 2 7.85222 107.343 9.46605
432 2 11.7628 107.22 9.1709
433 2 15.9026 111.043 9.31138
434 2 3.99159 111.162 9.40289
435 2 7.86019 111.198 9.15884
436 2 11.8859 110.997 9.42139
437 2 0.0667752 114.968 9.33602
438 2 4.03443 115.12 9.35764
439 2 7.96461 115.117 9.18487
440 2 12.0046 114.902 9.40118
441 2 0.14073 118.971 9.30853
442 2 3.94643 119.033 9.23842
443 2 7.94725 118.902 9.33151
444 2 11.9473 118.831 9.19769
445 2 15.8644 122.914 9.18815
446 2 4.11906 122.9 9.11514
447 2 8.14724 123.004 8.93463
448 2 11.8251 122.784 9.05291
449 2 15.912 126.724 9.24102
450 2 4.02634 126.804 8.97051
451 2 8.02559 126.592 9.12363
452 2 11.9818 126.651 9.13548
453 2 0.118493 130.607 9.00502
454 2 4.1236 130.682 8.98304
455 2 7.9405 130.593 9.05434
456 2 11.9249 130.689 9.14395
457 2 0.046521 134.631 9.06286
458 2 4.0827 134.632 9.15912
459 2 7.88214 134.51 9.07781
460 2 11.7163 134.415 9.14416
461 2 0.259955 138.602 9.05111
462 2 4.00051 138.524 9.00642
463 2 7.82728 138.493 9.08463
464 2 11.9649 138.471 9.03285
465 2 0.110683 142.391 8.99653
466 2 3.96221 142.481 8.76907
467 2 7.94718 142.528 9.00037
468 2 11.9234 142.387 8.81124
469 2 16.1554 146.238 8.74426
470 2 4.17632 146.414 8.8235
471 2 7.89796 146.147 8.77179
472 2 11.9404 146.161 8.80172
473 2 15.8979 150.276 8.80212
474 2 4.03329 150.283 8.82683
475 2 7.97427 150.174 8.91061
476 2 11.7631 150.094 8.76123
477 2 15.7319 154.118 8.93232
478 2 3.72523 154.136 8.85855
479 2 7.76445 154.046 8.9543
480 2 11.7537 154.111 8.91592
481 2 15.8294 158.101 12.9338
482 2 3.83931 158.147 12.9108
483 2 7.69624 158.071 12.8666
484 2 11.7628 158.04 12.8354
485 2 15.8907 3.58966 12.7778
486 2 3.8632 3.78024 12.7258
487 2 7.85886 3.722 12.5684
488 2 11.8015 3.73654 12.7731
489 2 15.6613 7.38509 12.6054
490 2 3.8603 7.49413 12.4842
491 2 8.00116 7.58407 12.6683
492 2 11.9554 7.40162 12.769
493 2 0.0628113 11.4179 12.8141
494 2 4.15401 11.275 12.7811
495 2 8.15861 11.4613 12.5115
496 2 11.8722 11.539 12.7397
497 2 -0.0336999 15.5932 12.5799
498 2 4.12739 15.4071 12.7286
499 2 8.10521 15.314 12.6057
500 2 12.0111 15.4322 12.5854
501 2 0.0434161 19.247 12.7094
502 2 4.11846 19.2773 12.5948
503 2 8.02722 19.2747 12.6225
504 2 11.7933 19.3217 12.6109
505 2 0.103517 23.0993 12.5149
506 2 4.09177 23.025 12.4428
507 2 7.85719 23.1698 12.7004
508 2 11.9779 23.1783 12.6171
509 2 -0.0702841 27.1112 12.6355
510 2 3.87501 27.1698 12.5156
511 2 7.78871 27.0886 12.5271
512 2 11.7555 26.9756 12.6949
513 2 0.127214 30.8547 12.4011
514 2 3.84797 31.0917 12.3375
515 2 7.87079 30.9151 12.3719
516 2 11.8942 30.9904 12.2763
517 2 -0.15535 35.0741 12.5101
518 2 3.88434 34.7929 12.364
519 2 7.84289 35.0413 12.2258
520 2 11.6136 35.0913 12.3818
521 2 0.187339 39.0309 12.4187
522 2 3.96183 38.9183 12.5567
523 2 7.9196 38.9576 12.3908
524 2 11.8365 38.8336 12.4753
525 2 -0.0680098 42.9656 12.525
526 2 4.13903 43.0163 12.4955
527 2 7.90796 43.0288 12.4932
528 2 11.8942 43.0485 12.6549
529 2 -0.146178 46.9951 12.4067
530 2 3.89576 46.9711 12.693
531 2 7.88921 47.0834 12.6446
532 2 11.8134 46.8456 12.6213
533 2 -0.00545642 50.9226 12.8114
534 2 3.9069 51.1656 12.6321
535 2 7.83398 50.9898 12.6321
536 2 12.0124 50.9456 12.7022
537 2 15.7888 55.1516 13.0011
538 2 3.85223 55.1428 12.8182
539 2 7.97132 54.9828 12.7907
540 2 11.8323 55.0486 12.8538
541 2 15.7587 59.0517 12.747
542 2 3.91675 59.3618 12.6135
543 2 7.94585 59.0037 12.7233
544 2 11.8493 59.039 12.7697
545 2 15.8134 62.9665 12.9995
546 2 3.85908 63.2021 12.8396
547 2 7.84506 63.1187 13.0558
548 2 11.8192 63.1785 12.7822
549 2 0.0202677 67.1166 12.8325
550 2 3.9607 67.2435 12.9414
551 2 7.96582 67.132 13.1071
552 2 11.7984 67.0808 12.9636
553 2 -0.03221 71.2919 12.838
554 2 3.84424 71.0467 13.2403
555 2 8.02473 71.1998 12.8797
556 2 11.8268 71.02 13.0254
557 2 0.114139 75.2735 13.0918
558 2 4.09596 75.2777 13.0843
559 2 8.07121 75.188 12.9943
560 2 11.9939 75.1035 12.8931
561 2 0.181458 79.2761 13.1395
562 2 4.14646 79.232 13.1067
563 2 8.10743 79.5468 13.2192
564 2 11.9913 79.2175 13.1961
565 2 0.207701 83.2935 13.1938
566 2 4.0754 83.553 13.0061
567 2 7.99003 83.4306 13.1866
568 2 12.075 83.3952 13.0016
569 2 0.247411 87.3712 13.1481
570 2 3.98166 87.3773 12.9867
571 2 7.80076 87.3113 13.3438
572 2 11.6852 87.4214 13.3637
573 2 -0.185228 91.3753 13.314
574 2 3.94324 91.4012 13.0434
575 2 7.97201 91.4379 13.3544
576 2 11.9981 91.2962 13.2416
577 2 -0.0309817 95.3493 13.1085
578 2 4.00416 95.3082 13.2068
579 2 7.83478 95.4798 13.4312
580 2 11.6837 95.5245 13.4916
581 2 -0.0588318 99.5538 13.4692
582 2 3.70642 99.4784 13.3274
583 2 7.60037 99.3918 13.2935
584 2 11.772 99.4115 13.4894
585 2 0.10117 103.554 13.6309
586 2 4.03458 103.223 13.3905
587 2 7.9575 103.333 13.2485
588 2 11.944 103.304 13.363
589 2 -0.0612502 107.336 13.6148
590 2 3.92905 107.298 13.4227
591 2 7.97177 107.384 13.4753
592 2 11.9849 107.229 13.5052
593 2 0.168522 111.232 13.242
594 2 3.94614 111.25 13.3018
595 2 7.85801 111.16 13.4573
596 2 11.9259 111.211 13.2507
597 2 -0.0314673 115.105 13.3419
598 2 4.10144 115.272 13.6021
599 2 8.11501 115.039 13.389
600 2 12.1367 115.164 13.3748
601 2 -0.00160208 119.129 13.1333
602 2 4.04501 119.134 13.1855
603 2 7.86244 119.002 13.0902
604 2 11.8904 118.944 13.1533
605 2 -0.0580601 122.985 13.3604
606 2 4.07542 123 13.0102
607 2 7.86896 122.852 13.3392
608 2 11.9456 123.023 13.3103
609 2 0.158059 126.997 12.9819
610 2 3.88639 126.775 13.1037
611 2 7.83872 126.494 13.1615
612 2 11.8544 126.784 13.2782
613 2 15.9289 130.824 12.8523
614 2 4.15765 130.696 13.0796
615 2 7.79798 130.577 13.0612
616 2 11.9244 130.719 13.1181
617 2 15.9817 134.726 13.0671
618 2 4.00616 134.682 12.9644
619 2 8.05276 134.872 13.0804
620 2 11.8883 134.555 13.1192
621 2 -0.16223 138.362 13.0293
622 2 3.84244 138.557 13.1154
623 2 7.98274 138.532 12.7659
624 2 11.8527 138.552 12.8668
625 2 15.8525 142.532 12.8959
626 2 4.055 142.457 12.9171
627 2 8.11976 142.404 12.801
628 2 12.1134 142.339 12.9351
629 2 0.0695278 146.381 12.8104
630 2 4.0658 146.509 12.8619
631 2 7.76412 146.22 12.9604
632 2 11.9729 146.295 12.8494
633 2 -0.0702723 150.291 12.8912
634 2 3.99334 150.013 12.8488
635 2 7.86618 150.283 12.9667
636 2 11.9046 149.928 12.9027
637 2 15.7299 154.374 12.9527
638 2 3.97927 154.168 12.7922
639 2 7.88271 154.137 12.852
640 2 11.9109 154.089 12.8965
641 2 -0.11289 158.272 16.8405
642 2 3.88689 -0.0256057 16.8588
643 2 7.97263 158.096 16.8761
644 2 11.9329 158.126 16.828
645 2 15.7639 3.78941 16.8226
646 2 4.07521 3.56223 16.8422
647 2 7.70036 3.813 16.6239
648 2 11.7287 3.67987 16.907
649 2 -0.0511771 7.56835 16.6284
650 2 3.69087 7.68873 16.6806
651 2 8.0111 7.66344 16.7294
652 2 11.8224 7.46715 16.712
653 2 0.145702 11.4978 16.7112
654 2 4.16952 11.5594 16.644
655 2 7.95951 11.4582 16.8363
656 2 11.9274 11.5936 16.5778
657 2 -0.0977988 15.3882 16.7166
658 2 3.82771 15.3661 16.7703
659 2 7.82303 15.3002 16.6125
660 2 11.7372 15.3445 16.5453
661 2 15.8021 19.3678 16.5621
662 2 4.24124 19.3473 16.5818
663 2 8.08311 19.2521 16.8832
664 2 11.9035 19.3025 16.7825
665 2 -0.0384228 23.3302 16.5828
666 2 3.89559 23.3155 16.5627
667 2 7.80921 23.3424 16.5409
668 2 11.9548 23.2781 16.5791
669 2 -0.270517 27.0973 16.5713
670 2 3.69222 27.1511 16.4831
671 2 7.68978 27.1989 16.5343
672 2 11.6572 27.0257 16.5179
673 2 0.0942722 31.1384 16.5654
674 2 3.99168 31.1531 16.5341
675 2 7.94645 31.238 16.5063
676 2 11.6864 30.9678 16.2466
677 2 -0.111274 35.1704 16.5985
678 2 3.98988 34.9289 16.3882
679 2 8.01269 34.8558 16.2821
680 2 11.7561 34.9829 16.206
681 2 -0.173036 38.9035 16.3835
682 2 4.06381 39.0498 16.4134
683 2 7.74709 39.118 16.486
684 2 11.8185 38.874 16.3756
685 2 0.0838203 42.9737 16.4518
686 2 3.86058 43.099 16.5802
687 2 7.69549 43.2053 16.4044
688 2 11.6464 42.7403 16.5765
689 2 15.6982 47.1659 16.4394
690 2 3.81896 47.0337 16.508
691 2 7.80675 47.0484 16.5761
692 2 11.8523 46.7619 16.4769
693 2 0.0636871 50.8559 16.7275
694 2 3.88305 50.9586 16.6574
695 2 7.84243 50.9747 16.6071
696 2 11.8109 50.9149 16.6372
697 2 0.0297988 55.1203 16.5206
698 2 4.09558 55.0403 16.5019
699 2 7.92264 55.1503 16.7021
700 2 11.873 55.0965 16.8886
701 2 -0.122001 59.1392 16.7701
702 2 4.03642 58.9801 16.8217
703 2 7.87529 59.0228 16.6695
704 2 11.9648 58.8552 16.742
705 2 -0.0875689 63.0109 16.7497
706 2 3.92247 63.0851 16.7564
707 2 7.96629 62.9122 16.9969
708 2 11.8235 63.0972 16.8203
709 2 0.244242 66.9212 16.6685
710 2 4.05812 67.2046 17.004
711 2 7.99956 67.2305 16.8973
712 2 12.0167 66.9745 16.9863
713 2 -0.074945 70.991 16.9168
714 2 3.89662 71.1635 16.9363
715 2 7.94524 71.0861 17.0154
716 2 11.9608 71.3548 17.0567
717 2 -0.0940634 75.2891 17.1133
718 2 4.16504 75.391 16.8777
719 2 7.9623 75.0895 16.9953
720 2 11.9584 74.956 16.918
721 2 0.169716 79.2678 17.0997
722 2 4.2698 79.074 17.0397
723 2 8.17338 79.0828 17.1576
724 2 11.9985 79.2019 16.9319
725 2 -0.019414 83.0344 16.9851
726 2 4.05864 83.1297 17.1213
727 2 8.0551 83.2236 17.1127
728 2 12.0946 83.3164 16.7319
729 2 0.107863 87.2732 17.0288
730 2 4.11261 87.2534 17.0015
731 2 7.8297 87.1771 17.0728
732 2 12.0034 87.1709 16.9749
733 2 -0.0455157 91.3221 17.2387
734 2 3.85686 91.3265 17.1818
735 2 7.86036 91.4285 17.242
736 2 11.7084 91.3799 17.0882
737 2 0.0746693 95.2287 17.2352
738 2 4.04293 95.4444 17.1845
739 2 8.0602 95.3909 17.3199
740 2 11.9445 95.4517 17.2158
741 2 0.158661 99.2048 17.3743
742 2 3.95647 99.2755 17.1965
743 2 7.76791 99.4576 17.1894
744 2 11.9023 99.2723 17.5675
745 2 0.108214 103.442 17.5429
746 2 3.98211 103.238 17.459
747 2 7.86853 103.286 17.3731
748 2 11.682 103.443 17.3592
749 2 -0.0445028 107.127 17.5516
750 2 4.0289 107.184 17.5692
751 2 7.79783 107.273 17.523
752 2 11.8723 107.036 17.3784
753 2 -0.0487207 111.376 17.4058
754 2 3.87937 111.247 17.4275
755 2 8.06913 111.142 17.5787
756 2 12.1734 111.04 17.3336
757 2 0.171736 115.289 17.462
758 2 4.14477 115.187 17.3758
759 2 8.10812 115.17 17.1489
760 2 11.8925 115.132 17.1911
761 2 0.0821042 119.116 17.1885
762 2 3.93426 119.002 17.3216
763 2 8.094 119.299 17.2537
764 2 11.899 119.005 17.2302
765 2 -0.110852 122.905 17.2289
766 2 4.0552 122.922 17.3461
767 2 7.97675 122.973 17.2843
768 2 11.98 122.994 17.3467
769 2 16.0985 126.706 17.199
770 2 3.95984 126.856 17.2253
771 2 7.99526 126.747 17.2334
772 2 11.9751 127.113 17.3432
773 2 15.7644 130.55 16.9053
774 2 4.01074 130.794 17.1679
775 2 7.77503 130.758 17.2148
776 2 11.7035 130.902 17.0675
777 2 15.8103 134.446 16.8476
778 2 4.04646 134.455 17.0762
779 2 7.83642 134.828 17.0606
780 2 11.8603 134.651 17.1087
781 2 -0.0496515 138.37 17.1014
782 2 3.97552 138.727 17.1563
783 2 7.85542 138.803 17.0528
784 2 11.8279 138.586 17.1339
785 2 15.9149 142.266 16.9735
786 2 4.19663 142.322 16.9577
787 2 7.96754 142.473 17.0839
788 2 11.7697 142.317 17.0177
789 2 16.004 146.216 16.9383
790 2 3.92492 146.385 17.0202
791 2 7.94571 146.403 17.1663
792 2 11.958 146.185 16.7592
793 2 15.8384 150.425 16.9145
794 2 3.8951 150.122 16.8807
795 2 7.98453 150.239 16.9279
796 2 11.8526 150.127 16.9489
797 2 16.0189 154.158 16.7135
798 2 4.03093 154.318 16.6953
799 2 7.82078 154.146 16.8766
800 2 11.6826 154.229 16.8219
801 2 15.7099 157.967 20.6628
802 2 4.10705 158.024 20.8622
803 2 8.10135 158.169 20.7526
804 2 11.9392 158.11 20.8579
805 2 -0.1162 3.68483 20.6327
806 2 4.0278 3.78059 20.778
807 2 7.96745 3.61125 20.7116
808 2 11.9392 3.74362 20.9207
809 2 15.7522 7.55431 20.7597
810 2 3.86724 7.6263 20.8041
811 2 7.88462 7.50196 20.7455
812 2 11.777 7.49248 20.8315
813 2 15.9387 11.5608 20.7879
814 2 4.24147 11.5283 20.7182
815 2 7.9176 11.4088 20.6836
816 2 11.8757 11.4286 20.8264
817 2 15.6722 15.442 20.6226
818 2 3.92548 15.4863 20.7035
819 2 8.09829 15.5519 20.6937
820 2 11.8949 15.2509 20.739
821 2 -0.00247653 19.4947 20.7543
822 2 4.04637 19.2636 20.6863
823 2 8.08317 19.5654 20.6958
824 2 12.0118 19.2777 20.6569
825 2 0.0685645 23.0602 20.6844
826 2 4.04583 23.178 20.4985
827 2 7.8044 23.2326 20.6604
828 2 11.7681 23.4312 20.698
829 2 15.8609 27.1417 20.6047
830 2 3.99484 27.1569 20.553
831 2 7.9511 27.0123 20.5293
832 2 11.79 27.0822 20.5673
833 2 15.8001 30.9806 20.5435
834 2 3.93173 31.0666 20.5844
835 2 7.85564 31.004 20.5041
836 2 11.8753 31.034 20.4133
837 2 15.6821 34.8739 20.4652
838 2 3.94136 34.977 20.421
839 2 7.96562 34.9758 20.3617
840 2 11.9045 35.0051 20.3425
841 2 -0.097844 38.7895 20.3649
842 2 3.88527 39.0533 20.4666
843 2 7.81981 38.9039 20.378
844 2 11.9569 38.8312 20.5297
845 2 15.9903 42.6712 20.4196
846 2 4.06525 42.8784 20.508
847 2 7.88898 42.8466 20.4832
848 2 11.9454 43.0023 20.3832
849 2 15.6898 46.9809 20.448
850 2 3.8642 46.8401 20.5501
851 2 7.89908 46.8401 20.5031
852 2 11.843 46.7681 20.331
853 2 -0.106482 50.8659 20.7172
854 2 3.86185 50.9949 20.5343
855 2 7.9455 50.8413 20.3969
856 2 11.6758 50.8151 20.6295
857 2 0.00841111 54.9055 20.3561
858 2 3.75802 54.7207 20.5926
859 2 7.86177 54.8391 20.5916
860 2 11.6735 54.9707 20.6799
861 2 15.8388 58.9425 20.8832
862 2 4.10679 58.8894 20.6913
863 2 7.92743 58.9362 20.8401
864 2 11.8188 59.0551 20.648
865 2 15.8925 62.9874 20.6882
866 2 3.88661 63.151 20.7691
867 2 7.89517 62.9843 20.7619
868 2 11.6183 63.0993 20.6246
869 2 -0.0874458 66.9397 20.8056
870 2 3.81717 67.054 20.6389
871 2 7.83612 66.9505 20.6751
872 2 12.0207 66.9515 20.8872
873 2 0.0510389 71.1521 20.921
874 2 3.77872 71.0489 20.6112
875 2 7.96743 71.1096 20.8712
876 2 12.0863 71.0727 20.9144
877 2 0.207552 74.9961 20.9242
878 2 3.89819 75.1574 20.8698
879 2 7.89603 75.0574 20.8207
880 2 11.9632 75.2153 20.8764
881 2 0.106309 79.0445 21.1135
882 2 4.01979 79.1926 20.9685
883 2 8.06399 78.9662 20.9854
884 2 12.0246 79.3352 21.2499
885 2 -0.00681399 83.1221 20.8288
886 2 3.93852 83.1819 20.9568
887 2 7.86507 82.9849 21.108
888 2 11.8372 83.2485 20.8644
889 2 0.124701 87.008 21.006
890 2 3.89269 87.016 21.1171
891 2 7.8534 87.0459 21.0196
892 2 11.7969 87.1479 20.8254
893 2 0.0863139 91.3203 21.077
894 2 3.9214 91.1723 21.0399
895 2 7.96366 91.1532 21.1286
896 2 11.8894 91.0214 21.0764
897 2 0.0264906 95.3172 21.0904
898 2 4.09566 95.4341 21.1691
899 2 7.919 95.1501 21.2983
900 2 11.899 95.1446 21.1203
901 2 -0.13741 99.21 21.1735
902 2 4.05087 99.4048 21.0845
903 2 7.94021 99.3303 21.2239
904 2 12.0206 99.341 21.1414
905 2 0.119689 103.279 21.5998
906 2 3.79233 103.416 21.3886
907 2 8.11551 103.172 21.3145
908 2 11.967 103.37 21.5169
909 2 0.129245 107.335 21.421
910 2 4.07686 107.349 21.6311
911 2 8.05908 107.5 21.23
912 2 11.9442 107.146 21.3706
913 2 0.0367576 111.256 21.364
914 2 4.12931 111.273 21.3749
915 2 8.08036 111.238 21.1117
916 2 11.9585 111.152 21.4635
917 2 15.8145 115.345 21.4786
918 2 3.82135 115.118 21.2758
919 2 7.9287 115.125 21.1737
920 2 11.8233 115.248 21.2291
921 2 0.0821185 119.078 21.3657
922 2 4.08921 118.934 21.461
923 2 7.90203 118.921 21.2915
924 2 12.0295 119.056 21.3516
925 2 15.7922 123.084 21.1659
926 2 3.95098 123.053 21.3874
927 2 7.8604 123.001 21.2459
928 2 11.8878 122.846 21.3723
929 2 15.6681 127.056 21.2913
930 2 3.98883 126.965 21.3867
931 2 7.92566 126.929 21.1894
932 2 11.8475 126.808 21.082
933 2 15.7793 130.842 21.2532
934 2 3.9506 131.028 21.2791
935 2 7.89502 130.741 21.0183
936 2 11.6991 130.841 21.0814
937 2 -0.360916 134.748 21.1065
938 2 3.85761 134.627 21.0016
939 2 7.74888 134.759 21.1435
940 2 11.683 134.792 21.2453
941 2 15.9234 138.522 20.9767
942 2 4.01669 138.551 21.1967
943 2 7.92545 138.493 21.1063
944 2 11.7813 138.548 21.1586
945 2 15.9513 142.516 20.9677
946 2 4.16803 142.643 21.0058
947 2 8.00829 142.576 21.0781
948 2 11.9954 142.501 21.2266
949 2 15.887 146.439 20.9726
950 2 3.88696 146.43 21.1023
951 2 8.14858 146.546 20.9402
952 2 12.1096 146.503 20.7551
953 2 15.8122 150.3 20.753
954 2 4.12671 150.302 20.9533
955 2 7.96084 150.488 21.0831
956 2 11.8618 150.299 20.7531
957 2 15.8671 154.249 20.78
958 2 3.98379 154.148 20.8303
959 2 8.03187 154.21 20.7796
960 2 11.8299 154.303 20.8695
961 2 0.11804 158.046 24.7775
962 2 3.95385 158.207 24.9201
963 2 7.99675 158.197 24.8951
964 2 11.97 158.017 24.9106
965 2 16.0073 3.63021 24.8525
966 2 4.01662 3.74068 24.8387
967 2 7.90212 3.75652 24.824
968 2 11.9659 3.75481 24.7591
969 2 15.8907 7.69255 24.8743
970 2 3.88879 7.58533 24.6957
971 2 7.95911 7.69399 24.8396
972 2 11.9411 7.54696 24.6641
973 2 15.6499 11.7667 24.7518
974 2 4.07535 11.5377 24.6471
975 2 7.77021 11.6099 24.6469
976 2 11.9271 11.2915 24.4836
977 2 0.0713264 15.5348 24.48
978 2 4.00418 15.4755 24.6952
979 2 7.76522 15.3849 24.7621
980 2 11.9304 15.2536 24.6556
981 2 0.0588867 19.4105 24.6425
982 2 3.7995 19.4559 24.6279
983 2 7.91176 19.228 24.5203
984 2 11.8974 19.3615 24.658
985 2 -0.0386573 23.3049 24.5232
986 2 3.9112 23.212 24.656
987 2 7.98409 23.1514 24.7022
988 2 11.7213 23.1099 24.6169
989 2 -0.0814689 27.1061 24.68
990 2 3.93212 27.0724 24.6494
991 2 7.92452 27.1229 24.5087
992 2 11.7798 27.0926 24.6112
993 2 0.0737388 31.1439 24.6301