ITEM: TIMESTEP
22000
ITEM: NUMBER OF ATOMS
32000
ITEM: BOX BOUNDS xy xz yz pp pp pp
0.0000000000000000e+00 1.5832000000000001e+01 0.0000000000000000e+00
0.0000000000000000e+00 1.5831999999999999e+02 0.0000000000000000e+00
8.6546091092969846e-01 1.6011165708906583e+02 0.0000000000000000e+00
ITEM: ATOMS id type x y z
1 2 15.8012 157.97 160.068
2 2 4.13065 157.978 160.058
3 2 7.88719 158.1 159.826
4 2 11.8777 157.85 160.01
5 2 0.0360789 3.67887 160.09
6 2 4.06445 3.54097 160
7 2 8.02026 3.65881 160.08
8 2 11.8478 3.32464 159.637
9 2 16.0346 7.6759 159.88
10 2 4.22704 7.39426 160.087
11 2 8.12763 7.39336 159.941
12 2 11.9115 7.38019 159.991
13 2 15.8254 11.3454 159.942
14 2 4.18778 11.181 159.739
15 2 7.94551 11.4507 159.728
16 2 12.114 11.2183 159.707
17 2 0.108351 15.0775 159.622
18 2 4.00985 15.1479 159.796
19 2 8.19488 15.2784 159.747
20 2 11.9543 15.3797 159.649
21 2 15.9859 19.371 159.649
22 2 4.00145 19.0012 159.657
23 2 8.02674 19.2055 159.797
24 2 12.0668 19.0436 159.894
25 2 15.7472 23.1698 159.655
26 2 3.95574 23.1216 159.755
27 2 7.6513 23.3052 159.733
28 2 11.762 22.9926 159.743
29 2 15.9696 27.0054 159.744
30 2 4.11199 26.9985 159.697
31 2 7.9682 26.9798 159.745
32 2 11.9808 27.1715 159.892
33 2 15.9785 31.1013 159.873
34 2 4.16881 31.038 0.584435
35 2 8.17094 31.244 159.8
36 2 12.0176 31.1019 159.968
37 2 0.163537 35.0032 159.943
38 2 4.0626 35.0927 159.969
39 2 8.08669 35.1442 159.83
40 2 12.1758 35.1778 159.704
41 2 0.174024 39.082 160.051
42 2 3.98105 39.3777 0.773125
43 2 8.08282 39.1035 0.712997
44 2 11.9128 39.0485 0.811923
45 2 0.109941 43.2937 159.992
46 2 4.05498 43.2802 159.774
47 2 8.01098 43.3384 0.880515
48 2 12.0625 43.1118 1.01346
49 2 0.0747974 47.2303 0.885193
50 2 4.06566 47.12 0.768702
51 2 7.89264 47.2436 0.867173
52 2 11.7787 47.5784 1.00841
53 2 0.316221 51.3169 0.962347
54 2 4.2385 51.2341 0.999985
55 2 8.08732 51.3183 0.979553
56 2 12.0859 51.4397 0.856587
57 2 15.8261 55.2847 1.21263
58 2 3.94401 55.3477 0.913899
59 2 8.06911 55.3663 0.9479
60 2 11.8341 55.2613 0.858109
61 2 -0.0401078 59.4372 1.03539
62 2 4.01288 59.3995 1.1214
63 2 7.86074 59.514 1.06792
64 2 11.938 59.373 1.13144
65 2 0.0339742 63.3167 1.12496
66 2 3.84197 63.4747 1.40459
67 2 7.80294 63.4641 1.10492
68 2 11.9269 63.4521 1.1974
69 2 15.9165 67.4186 1.47003
70 2 4.14852 67.645 1.29569
71 2 8.00885 67.5029 1.08639
72 2 11.9816 67.4216 1.09526
73 2 0.0235216 71.3828 1.41797
74 2 4.12067 71.4719 1.35678
75 2 8.04794 71.5253 1.1429
76 2 11.9916 71.6576 1.29542
77 2 0.136815 75.5364 1.34171
78 2 3.97768 75.5546 1.25045
79 2 7.96895 75.5056 1.45846
80 2 11.9861 75.4863 1.35313
81 2 -0.0480812 79.5302 1.52371
82 2 3.93987 79.5185 1.40457
83 2 8.0732 79.5158 1.41585
84 2 11.9651 79.5402 1.20564
85 2 0.065785 83.4437 1.42521
86 2 3.95166 83.4592 1.50967
87 2 8.02008 83.6511 1.62615
88 2 11.791 83.4764 1.20606
89 2 -0.088176 87.5885 1.4516
90 2 3.92491 87.5527 1.67845
91 2 7.7918 87.5747 1.47068
92 2 11.8624 87.5685 1.47869
93 2 0.134513 91.551 1.51667
94 2 4.0362 91.5468 1.31857
95 2 8.07385 91.3955 1.56942
96 2 11.7458 91.5273 1.63104
97 2 16.0216 95.3484 1.67678
98 2 3.84826 95.3509 1.49727
99 2 7.82824 95.3192 1.40058
100 2 12.0279 95.5219 1.46332
101 2 0.0838457 99.3563 1.45954
102 2 4.33114 99.1853 1.43172
103 2 8.20765 99.3544 1.44083
104 2 11.9314 99.3198 1.38317
105 2 0.0520195 103.143 1.33846
106 2 4.0378 103.239 1.24901
107 2 7.82685 103.14 1.31096
108 2 11.8611 103.105 1.39445
109 2 -0.122933 107.261 1.24943
110 2 4.0646 106.965 1.47356
111 2 7.96934 107.267 1.3981
112 2 11.7892 107.091 1.20081
113 2 0.0382081 111.045 1.31548
114 2 3.90355 111.026 1.18563
115 2 8.0736 111.171 1.36484
116 2 11.7753 111.012 1.28979
117 2 15.8446 115.007 1.15691
118 2 3.89914 114.997 1.07281
119 2 7.95049 114.957 1.20315
120 2 11.8239 115.035 1.19924
121 2 0.0951478 118.715 1.28634
122 2 3.82294 118.769 1.07345
123 2 7.71018 118.878 1.17724
124 2 11.7931 118.913 1.17735
125 2 15.6722 122.576 1.08399
126 2 4.04425 122.706 1.11663
127 2 7.94122 122.519 1.17826
128 2 11.9683 122.726 1.11835
129 2 0.118618 126.745 1.05573
130 2 3.88871 126.544 1.11062
131 2 8.08913 126.648 1.003
132 2 12.0365 126.514 1.00999
133 2 16.0338 130.562 0.935911
134 2 4.04806 130.688 1.02184
135 2 7.94785 130.49 1.01486
136 2 11.7013 130.499 1.02202
137 2 15.8987 134.379 0.675971
138 2 4.10094 134.471 1.01949
139 2 7.87769 134.303 160.036
140 2 11.9157 134.433 0.941678
141 2 -0.15264 138.517 0.99512
142 2 4.04282 138.473 160.043
143 2 8.03473 138.334 160.188
144 2 11.9631 138.397 0.928633
145 2 15.8126 142.445 160.218
146 2 4.00932 142.212 160.236
147 2 7.85671 142.318 160.268
148 2 11.6594 142.334 160.154
149 2 0.0381423 146.232 160.112
150 2 3.97464 146.178 160.178
151 2 7.95495 146.31 160.145
152 2 11.9535 146.362 160.306
153 2 15.78 150.118 160.135
154 2 4.07654 150.196 159.923
155 2 8.06434 150.095 160.068
156 2 11.9032 150.118 0.916674
157 2 15.8777 154.031 159.993
158 2 3.95851 154.036 160.11
159 2 7.85565 154.091 160.136
160 2 11.9281 154.025 160.038
161 2 15.7212 158.196 4.77545
162 2 3.96039 158.073 5.03823
163 2 7.88525 158.022 4.72813
164 2 11.8439 158.031 4.90147
165 2 0.03696 3.80561 4.94957
166 2 4.08336 3.52213 4.81331
167 2 7.97992 3.662 4.71675
168 2 12.0481 3.43561 4.92969
169 2 0.125478 7.63746 4.79409
170 2 3.97604 7.46153 4.79883
171 2 8.04489 7.4729 4.80377
172 2 11.8613 7.39277 4.56123
173 2 0.045837 11.4378 4.62661
174 2 4.14323 11.4187 4.64948
175 2 8.07495 11.4303 4.61481
176 2 11.7741 11.2936 4.31237
177 2 16.0626 15.1467 4.50707
178 2 4.02972 15.4032 4.69706
179 2 8.08308 15.1251 4.5114
180 2 12.0403 15.4346 4.45394
181 2 0.208336 19.2686 4.34317
182 2 4.02069 19.1314 4.25594
183 2 7.98468 19.1084 4.5261
184 2 11.9842 19.3388 4.63347
185 2 0.197 23.1101 4.31043
186 2 4.02037 22.9673 4.43138
187 2 7.95049 23.2198 4.37782
188 2 11.9798 23.2747 4.48348
189 2 16.0617 27.0469 4.38851
190 2 3.97817 26.941 4.48987
191 2 8.191 26.9476 4.47481
192 2 11.9582 27.1709 4.58598
193 2 -0.0977483 31.178 4.63124
194 2 3.89483 31.1334 4.48478
195 2 7.7713 30.9928 4.38039
196 2 11.9634 31.0916 4.62601
197 2 0.200501 35.083 4.62126
198 2 4.00531 35.1255 4.75031
199 2 8.00881 35.0396 4.4227
200 2 12.0481 35.1376 4.4491
201 2 15.9324 38.9938 4.53846
202 2 4.03995 39.0645 4.55954
203 2 7.88101 39.0972 4.56679
204 2 12.0061 39.2359 4.75715
205 2 0.0379103 43.1126 4.61656
206 2 4.19098 43.1526 4.65041
207 2 7.99316 43.2504 4.79815
208 2 11.8891 43.1369 4.78996
209 2 0.0503873 47.0298 4.74701
210 2 4.08425 47.2329 4.79382
211 2 8.04692 47.1994 4.92991
212 2 11.9928 47.4152 4.84202
213 2 0.147036 51.1078 4.83757
214 2 4.0795 51.112 4.78865
215 2 7.95297 51.2351 4.80023
216 2 12.1904 51.1201 4.92722
217 2 0.186969 55.3182 4.98385
218 2 4.1519 55.3514 4.88025
219 2 7.94441 55.4459 4.83012
220 2 11.975 55.2786 4.69953
221 2 16.0699 59.2949 4.99079
222 2 4.10365 59.2387 5.10814
223 2 7.85763 59.1312 5.12537
224 2 11.7621 59.2112 4.95419
225 2 0.187258 63.317 5.28495
226 2 4.11201 63.2922 5.13359
227 2 8.03276 63.1458 4.99218
228 2 11.9886 63.2013 5.02434
229 2 15.811 67.2955 5.20544
230 2 3.91051 67.2327 5.06816
231 2 7.90747 67.309 5.10873
232 2 11.8238 67.2429 4.86383
233 2 15.8994 71.2694 5.14022
234 2 3.91812 71.3559 5.28433
235 2 7.93883 71.4319 5.18772
236 2 11.8105 71.3928 5.09644
237 2 15.9887 75.4106 5.14817
238 2 4.12393 75.3919 5.20383
239 2 7.97423 75.4401 5.35195
240 2 11.9067 75.4397 5.20693
241 2 0.163086 79.2836 5.45538
242 2 4.05136 79.4901 5.24484
243 2 7.75306 79.471 5.29521
244 2 11.9983 79.493 5.22091
245 2 15.844 83.3613 5.2566
246 2 3.96944 83.3934 5.41139
247 2 8.02182 83.439 5.4457
248 2 11.8923 83.6183 5.09095
249 2 -0.00136995 87.3443 5.37742
250 2 3.76082 87.4067 5.26864
251 2 7.8688 87.3054 5.42837
252 2 11.858 87.3853 5.26623
253 2 -0.129711 91.4601 5.57247
254 2 4.13302 91.5014 5.43974
255 2 7.87196 91.4613 5.47409
256 2 11.988 91.4212 5.51625
257 2 15.7843 95.4614 5.29706
258 2 3.81081 95.456 5.51844
259 2 7.86657 95.5784 5.56433
260 2 11.9635 95.4551 5.46354
261 2 -0.00846049 99.1206 5.35462
262 2 3.84013 99.4621 5.48495
263 2 8.0592 99.4519 5.50095
264 2 11.9925 99.2626 5.44973
265 2 -0.121459 103.303 5.41954
266 2 4.05508 103.255 5.38194
267 2 7.86508 103.252 5.50156
268 2 11.9103 103.269 5.37592
269 2 16.0264 107.038 5.12318
270 2 4.01712 107.301 5.41409
271 2 7.80099 107.008 5.34977
272 2 11.8872 107.202 5.32079
273 2 15.7772 111.06 5.32485
274 2 3.88238 111.141 5.32512
275 2 7.78704 111.157 5.45177
276 2 11.9495 111.155 5.28228
277 2 0.0271903 114.863 5.24047
278 2 3.92159 114.951 5.38525
279 2 7.80081 114.983 5.26671
280 2 12.0379 115.24 5.32582
281 2 0.0852199 118.819 5.23033
282 2 4.09832 118.978 5.25903
283 2 8.08156 118.823 5.2292
284 2 11.9336 118.949 5.28651
285 2 15.9632 122.785 5.00155
286 2 4.11845 122.849 5.16637
287 2 8.07838 122.82 5.02271
288 2 11.9921 122.6 5.1637
289 2 -0.0648086 126.64 5.18723
290 2 4.05505 126.643 5.13248
291 2 8.05961 126.717 4.97235
292 2 11.9965 126.799 4.96795
293 2 -0.008082 130.451 5.06167
294 2 3.85746 130.598 5.06574
295 2 7.85424 130.568 4.99251
296 2 11.9809 130.741 5.08837
297 2 15.7341 134.453 4.92258
298 2 3.9642 134.497 5.01098
299 2 7.96747 134.531 5.16461
300 2 11.824 134.404 5.02822
301 2 0.107561 138.353 4.8331
302 2 3.93861 138.42 4.80508
303 2 7.96142 138.481 5.1062
304 2 12.0337 138.126 4.74704
305 2 -0.0175414 142.177 4.91519
306 2 3.94338 142.329 5.03124
307 2 8.04324 142.206 4.94046
308 2 11.9994 142.4 4.88991
309 2 16.0498 146.234 4.63344
310 2 4.15233 146.153 4.76805
311 2 7.93697 146.493 4.75282
312 2 11.7293 146.126 4.95832
313 2 16.1052 150.233 4.89926
314 2 4.1317 150.195 4.99114
315 2 8.01106 150.293 4.81278
316 2 11.9725 150.095 4.801
317 2 16.039 154.134 4.76173
318 2 3.90395 154.065 4.76989
319 2 7.77356 154.103 4.68223
320 2 11.785 154.227 4.76874
321 2 15.8186 158.051 8.83556
322 2 3.86427 157.958 8.96338
323 2 7.87117 158.007 8.80685
324 2 11.957 157.922 8.69101
325 2 15.589 3.68389 8.80591
326 2 3.85049 3.78389 8.96614
327 2 7.93771 3.50365 8.65766
328 2 11.8167 3.61781 8.81334
329 2 15.7336 7.63631 8.69467
330 2 4.03816 7.66936 8.76361
331 2 7.88994 7.62348 8.71844
332 2 11.9285 7.60453 8.79921
333 2 -0.101645 11.4688 8.55897
334 2 3.94456 11.6791 8.52569
335 2 7.9664 11.4992 8.56502
336 2 11.9879 11.5112 8.70925
337 2 16.004 15.3618 8.61525
338 2 4.11476 15.4039 8.63694
339 2 8.02466 15.3319 8.69411
340 2 11.9881 15.355 8.36918
341 2 0.0338953 19.2502 8.53795
342 2 4.06065 19.4379 8.60435
343 2 8.08708 19.2524 8.61037
344 2 12.1409 19.2338 8.5767
345 2 0.0107427 23.1455 8.57995
346 2 3.92107 23.1591 8.32238
347 2 8.11064 23.0064 8.39593
348 2 12.0368 23.2883 8.56529
349 2 0.265512 27.0598 8.41973
350 2 3.97073 26.9731 8.4689
351 2 7.90944 27.0023 8.40924
352 2 11.832 27.0814 8.6352
353 2 -0.178376 31.1277 8.51681
354 2 3.9921 30.9278 8.49281
355 2 7.76736 31.1034 8.31101
356 2 11.9223 31.0809 8.46934
357 2 15.7606 34.9589 8.46682
358 2 4.04048 35.1776 8.6427
359 2 8.11846 35.0249 8.44752
360 2 11.8148 35.0876 8.59506
361 2 0.171292 39.0177 8.3664
362 2 3.96108 39.0261 8.58471
363 2 8.0405 38.9631 8.33512
364 2 12.0637 39.048 8.5833
365 2 0.0317477 43.1449 8.69553
366 2 3.96241 43.0458 8.7141
367 2 7.92102 42.89 8.63396
368 2 11.7896 42.9788 8.65119
369 2 -0.0329456 47.0589 8.77432
370 2 3.82575 47.133 8.73117
371 2 7.98861 46.9946 8.51949
372 2 11.9938 47.0486 8.79675
373 2 16.0489 51.178 8.77584
374 2 4.06284 51.1113 8.84915
375 2 7.81262 51.2022 8.73002
376 2 11.767 51.105 8.85056
377 2 15.8383 55.0741 8.91095
378 2 4.01152 55.1103 8.77303
379 2 8.00574 55.0868 8.96044
380 2 12.0303 55.3066 8.80068
381 2 0.0415349 59.1662 8.81671
382 2 3.98332 59.1187 8.94965
383 2 8.08049 59.1352 8.88423
384 2 11.7347 59.2645 8.9592
385 2 0.106745 63.2088 9.04208
386 2 4.02413 63.3437 9.1668
387 2 8.18338 63.3732 8.82583
388 2 11.9851 63.1601 8.84216
389 2 15.7543 67.276 9.36806
390 2 3.99107 67.264 9.26747
391 2 7.9974 67.2011 9.03451
392 2 11.9294 67.067 9.16006
393 2 15.7294 71.3124 9.01766
394 2 3.9691 71.1918 9.13246
395 2 7.85667 71.1776 9.0906
396 2 12.169 71.2244 8.94555
397 2 15.8055 75.2801 9.29147
398 2 4.06549 75.3282 9.13581
399 2 8.04221 75.3002 9.17786
400 2 12.0366 75.1557 8.99614
401 2 15.7934 79.3588 9.16987
402 2 4.12061 79.3359 9.19382
403 2 7.87297 79.3236 9.25983
404 2 11.9589 79.3116 9.05933
405 2 -0.142795 83.3823 9.16822
406 2 3.8085 83.2894 9.24688
407 2 7.85015 83.2916 9.19009
408 2 11.8722 83.5489 9.23166
409 2 0.118841 87.4298 9.23336
410 2 4.11173 87.6145 9.16098
411 2 7.83541 87.3944 9.30083
412 2 11.8107 87.3042 9.43958
413 2 -0.117109 91.5605 9.52584
414 2 3.85713 91.4028 9.36287
415 2 7.99723 91.5286 9.20554
416 2 11.8665 91.3306 9.33512
417 2 15.7345 95.4284 9.48117
418 2 3.83039 95.4026 9.29104
419 2 7.84039 95.4573 9.58827
420 2 11.804 95.5038 9.38129
421 2 15.7832 99.4851 9.59043
422 2 3.86822 99.6115 9.47383
423 2 8.03133 99.4382 9.46751
424 2 11.915 99.5338 9.43809
425 2 -0.0849437 103.502 9.42632
426 2 3.96586 103.458 9.50247
427 2 7.96566 103.387 9.50355
428 2 12.1132 103.417 9.51643
429 2 -0.10159 107.336 9.28985
430 2 3.81382 107.389 9.42695
431 2 7.99352 107.108 9.39238
432 2 11.8858 107.327 9.55491
433 2 15.8822 111.132 9.36375
434 2 4.00543 111.207 9.30972
435 2 7.94734 111.102 9.35573
436 2 11.7462 111.085 9.17311
437 2 0.153177 115.091 9.29179
438 2 3.9743 115.114 9.31573
439 2 7.97527 114.849 9.39472
440 2 11.9308 114.907 9.26931
441 2 -0.0561525 118.856 9.29634
442 2 4.09919 118.84 9.3446
443 2 8.05269 119.037 9.31206
444 2 11.8486 118.795 9.38034
445 2 15.8708 122.621 9.09107
446 2 3.96583 122.81 9.14158
447 2 8.04442 122.761 9.35011
448 2 12.1322 122.924 8.97919
449 2 15.7831 126.815 9.11211
450 2 3.94605 126.653 9.19031
451 2 7.99099 126.931 9.0724
452 2 11.858 126.838 9.15949
453 2 0.217573 130.895 8.98314
454 2 4.07596 130.648 9.12422
455 2 8.05842 130.659 8.90067
456 2 11.8359 130.49 9.08507
457 2 0.120788 134.667 9.05766
458 2 4.1169 134.486 8.87229
459 2 8.03109 134.592 9.04022
460 2 11.9623 134.472 9.01828
461 2 -0.156315 138.376 9.05512
462 2 3.90121 138.562 8.94925
463 2 8.07719 138.566 8.95298
464 2 12.0478 138.41 8.98897
465 2 0.227022 142.277 8.87943
466 2 4.18609 142.511 9.11705
467 2 8.09731 142.259 8.96889
468 2 11.9952 142.474 8.86051
469 2 15.8955 146.455 8.89599
470 2 3.85093 146.211 8.93328
471 2 8.01582 146.265 8.93485
472 2 12.0273 146.259 8.88247
473 2 15.9004 150.093 8.8765
474 2 3.99708 150.314 8.84927
475 2 8.09272 149.998 8.82512
476 2 12.1482 150.139 8.91497
477 2 15.7538 154.141 8.7586
478 2 4.02775 154.098 8.69159
479 2 8.02008 154.233 8.88952
480 2 11.9416 153.933 8.76567
481 2 15.8252 158.072 12.8669
482 2 3.96156 158.037 12.7973
483 2 8.00605 158.068 12.6756
484 2 11.9067 157.916 12.9093
485 2 15.6062 3.65627 12.6411
486 2 3.93592 3.59655 12.7362
487 2 7.78709 3.71969 12.9082
488 2 11.636 3.40955 12.6583
489 2 15.9591 7.64935 12.799
490 2 3.99834 7.81745 12.8835
491 2 7.91629 7.51501 12.586
492 2 11.8686 7.78057 12.7377
493 2 -0.0744782 11.5477 12.5265
494 2 3.95221 11.5365 12.4206
495 2 7.9702 11.5982 12.6394
496 2 11.8881 11.4222 12.6836
497 2 0.238792 15.2106 12.8419
498 2 4.01549 15.2924 12.5815
499 2 7.69624 15.4878 12.5897
500 2 11.8412 15.4371 12.7165
501 2 0.262061 19.0825 12.4587
502 2 4.01712 19.247 12.3888
503 2 7.8764 19.1923 12.4475
504 2 11.9849 19.2843 12.7143
505 2 -0.0702867 23.2082 12.6547
506 2 3.866 23.2711 12.5432
507 2 7.91258 23.2109 12.4118
508 2 11.8747 23.3117 12.5917
509 2 0.117519 27.0893 12.3632
510 2 4.02904 27.0552 12.4918
511 2 7.83939 27.0884 12.3671
512 2 11.8393 27.263 12.2861
513 2 -0.259938 31.2399 12.5645
514 2 3.8479 30.9973 12.5246
515 2 7.76703 31.1509 12.3167
516 2 11.7284 30.9775 12.6291
517 2 0.162651 34.8655 12.5716
518 2 4.07311 35.0304 12.4297
519 2 7.94434 34.8895 12.5639
520 2 11.8891 35.0469 12.3796
521 2 -0.0726245 38.9372 12.5974
522 2 3.97685 38.9066 12.3373
523 2 7.80968 38.9744 12.5016
524 2 12.0614 39.0704 12.4438
525 2 0.0399546 43.0177 12.5858
526 2 3.93312 43.0543 12.7632
527 2 7.92144 43.0296 12.5143
528 2 11.7095 42.9536 12.5334
529 2 0.0246674 47.1583 12.6418
530 2 3.88021 47.1166 12.5101
531 2 7.92685 47.0204 12.4761
532 2 11.8881 47.0759 12.6753
533 2 0.092048 51.2333 12.7232
534 2 4.18543 51.1005 12.7309
535 2 7.99216 51.2269 12.7583
536 2 11.7128 50.99 12.7622
537 2 15.8524 54.9809 12.5346
538 2 3.89372 55.3131 12.745
539 2 7.84307 55.1485 12.7078
540 2 12.0573 55.0478 12.7244
541 2 15.6591 59.2811 12.8818
542 2 3.88171 58.9456 12.9622
543 2 7.79395 59.2782 12.8468
544 2 11.7273 59.2411 12.8667
545 2 15.9408 63.2539 12.9795
546 2 4.07119 63.063 12.7954
547 2 7.81632 63.1664 12.8804
548 2 11.7448 63.1042 12.847
549 2 -0.325202 67.2446 13.1801
550 2 3.80751 67.1342 13.0291
551 2 7.85946 67.1437 12.8737
552 2 11.8508 67.1498 13.0103
553 2 0.0754954 71.3333 12.9118
554 2 4.09835 71.2751 12.8059
555 2 7.99961 71.1091 13.1086
556 2 11.8414 71.2826 12.9088
557 2 0.0326039 75.1981 13.076
558 2 4.11197 75.0947 13.0983
559 2 7.98229 75.2108 13.2383
560 2 11.8246 75.2817 13.226
561 2 0.0803752 79.1996 13.0803
562 2 3.92624 79.1531 12.9934
563 2 7.97913 79.2121 13.0513
564 2 11.9775 79.2901 13.0455
565 2 -0.111272 83.2614 13.1982
566 2 3.86937 83.0949 13.1183
567 2 7.7815 83.3467 13.0023
568 2 11.8271 83.1693 13.1393
569 2 -0.0396942 87.1832 13.261
570 2 4.04163 87.3635 13.2528
571 2 7.88327 87.5261 13.1238
572 2 11.9639 87.2871 13.1276
573 2 0.0740439 91.3643 13.4262
574 2 4.00289 91.2797 13.285
575 2 7.79025 91.3135 13.3859
576 2 11.6338 91.4577 13.3067
577 2 0.11703 95.285 13.3856
578 2 3.94209 95.3454 13.3587
579 2 7.79133 95.3194 13.4061
580 2 11.871 95.4814 13.4116
581 2 -0.117446 99.3475 13.5301
582 2 3.82154 99.4485 13.4724
583 2 7.87001 99.2602 13.2921
584 2 11.8756 99.4003 13.4118
585 2 0.0263499 103.309 13.2198
586 2 3.78776 103.56 13.4035
587 2 7.66705 103.358 13.5334
588 2 11.8208 103.292 13.5957
589 2 0.161123 107.424 13.3305
590 2 3.89765 107.33 13.473
591 2 7.74273 107.342 13.4047
592 2 11.7752 107.29 13.3971
593 2 -0.0539279 111.294 13.4231
594 2 4.06506 111.223 13.4633
595 2 8.0123 111.155 13.35
596 2 11.9138 111.203 13.4737
597 2 0.259569 115.217 13.4615
598 2 3.98074 115.02 13.1644
599 2 7.90649 115.044 13.293
600 2 11.9091 115.136 13.3537
601 2 -0.0402941 119.172 13.3986
602 2 3.88813 119.13 13.2706
603 2 7.94999 118.901 13.4559
604 2 11.7817 119.191 13.3222
605 2 0.00995492 122.937 13.1188
606 2 3.98573 123.057 13.2244
607 2 7.97184 122.945 13.1281
608 2 11.8901 122.972 13.15
609 2 -0.126125 126.824 13.2187
610 2 3.94138 126.821 13.0618
611 2 7.99637 126.991 13.2263
612 2 12.0329 126.865 13.0702
613 2 16.0068 130.792 13.1245
614 2 4.08252 130.793 13.0851
615 2 8.16721 130.65 13.2251
616 2 11.9282 130.657 13.2198
617 2 15.7869 134.458 13.0449
618 2 3.87298 134.769 13.1455
619 2 7.76623 134.461 13.036
620 2 11.8384 134.35 12.9591
621 2 0.0684772 138.562 13.1266
622 2 4.24437 138.578 12.9334
623 2 7.96293 138.445 13.2263
624 2 11.914 138.391 13.226
625 2 15.9749 142.302 13.0125
626 2 4.03823 142.336 13.1059
627 2 8.07456 142.321 13.0126
628 2 11.9229 142.534 12.8932
629 2 -0.0871174 146.296 12.9833
630 2 3.95332 146.228 13.0002
631 2 8.1291 146.462 12.9532
632 2 11.9049 146.21 13.0141
633 2 0.195506 150.217 12.8047
634 2 4.03018 150.523 12.8947
635 2 7.93431 150.135 12.801
636 2 11.879 150.239 12.8122
637 2 15.9195 153.979 12.7757
638 2 3.94365 154.148 12.9587
639 2 7.94697 154.187 12.9237
640 2 11.7816 154.01 12.8563
641 2 -0.0767322 157.994 16.8142
642 2 3.92918 -0.260775 16.8808
643 2 7.93874 158.217 16.7845
644 2 11.8458 158.215 16.8786
645 2 15.8374 3.82545 16.7109
646 2 3.80375 3.94063 16.6994
647 2 7.92072 3.79252 16.7361
648 2 11.863 3.7196 16.6472
649 2 -0.189553 7.64325 16.8393
650 2 4.07921 7.70589 16.6709
651 2 7.97601 7.50886 16.6549
652 2 11.9984 7.87938 16.8618
653 2 -0.0879271 11.5093 16.7249
654 2 3.84303 11.49 16.8555
655 2 7.90113 11.5858 16.6404
656 2 11.8158 11.6676 16.7329
657 2 0.113845 15.3121 16.6842
658 2 4.08888 15.3733 16.5197
659 2 7.99893 15.4597 16.7319
660 2 12.0677 15.5544 16.8543
661 2 15.9227 19.3331 16.7538
662 2 3.90762 19.3313 16.72
663 2 8.01425 19.411 16.3687
664 2 11.9309 19.3829 16.6586
665 2 0.0691484 23.143 16.5085
666 2 3.81204 23.2141 16.5339
667 2 7.83821 23.1688 16.473
668 2 11.8876 23.1945 16.4978
669 2 0.0594593 27.268 16.4944
670 2 3.95156 27.258 16.4172
671 2 8.00717 27.1462 16.5895
672 2 11.8826 27.2796 16.5544
673 2 -0.221606 31.1021 16.4611
674 2 3.84516 30.8954 16.4939
675 2 7.67553 30.9442 16.326
676 2 11.8999 31.0958 16.5674
677 2 0.0564048 34.8063 16.4847
678 2 3.82306 35.0558 16.3778
679 2 7.58156 35.2115 16.5329
680 2 11.811 34.9174 16.4068
681 2 -0.0195385 39.0404 16.4138
682 2 3.7235 38.8963 16.5106
683 2 7.85534 38.8512 16.2046
684 2 11.9523 39.0262 16.4709
685 2 -0.0389445 42.9863 16.4559
686 2 3.81389 42.959 16.4287
687 2 7.84753 42.8808 16.5122
688 2 11.8345 43.1747 16.3981
689 2 15.8892 46.8333 16.5657
690 2 3.85351 46.9292 16.6632
691 2 7.72634 47.1012 16.6154
692 2 11.9697 46.9947 16.5683
693 2 0.0660024 51.1149 16.5876
694 2 3.96593 51.0366 16.5999
695 2 7.74491 51.0085 16.6593
696 2 11.7709 50.8517 16.6589
697 2 0.0325808 55.1198 16.6098
698 2 3.95109 55.0901 16.8136
699 2 8.13644 54.8187 16.5495
700 2 11.9641 54.8363 16.6044
701 2 -0.0813236 59.0823 16.813
702 2 3.84415 58.9937 16.7508
703 2 7.81339 59.0412 16.6665
704 2 11.6132 59.1773 16.7372
705 2 0.0167615 62.9323 16.8988
706 2 3.96117 63.1486 16.6248
707 2 7.80872 63.1537 16.6976
708 2 11.8275 62.9452 16.8462
709 2 -0.410129 67.1964 16.9875
710 2 3.7873 67.1078 16.7451
711 2 7.79786 67.0732 16.8954
712 2 11.7698 67.1759 16.8312
713 2 0.14742 71.2323 16.8424
714 2 4.0566 71.0078 16.7612
715 2 8.09196 71.1009 16.9365
716 2 11.9981 70.9664 16.9977
717 2 0.0402592 75.1476 16.8217
718 2 3.97653 74.8906 17.0038
719 2 8.07798 75.2192 17.1362
720 2 11.9738 75.3174 17.0279
721 2 0.0202625 79.0047 17.0551
722 2 4.08555 79.3035 16.9318
723 2 7.95024 79.1973 17.0034
724 2 11.8328 79.1545 17.1766
725 2 0.0656895 83.2466 17.0948
726 2 3.9266 83.1954 16.9193
727 2 7.7859 83.1686 16.9448
728 2 11.7999 83.2851 17.1103
729 2 0.0910166 87.2079 17.1677
730 2 3.95201 87.1947 17.3285
731 2 8.05112 87.216 17.103
732 2 11.971 87.2875 17.2108
733 2 -0.029687 91.3311 17.1581
734 2 3.94921 91.1089 17.1738
735 2 7.75184 91.2599 17.3399
736 2 11.9515 91.2375 17.2322
737 2 0.0848098 95.2125 17.1505
738 2 3.9445 95.2365 17.362
739 2 7.90378 95.218 17.3785
740 2 11.7119 95.4039 17.3945
741 2 0.0443245 99.2897 17.3429
742 2 3.87929 99.4415 17.5203
743 2 7.89407 99.3261 17.3124
744 2 12.003 99.391 17.1662
745 2 -0.0173969 103.276 17.4993
746 2 3.91911 103.391 17.5592
747 2 7.89849 103.41 17.2146
748 2 11.8985 103.094 17.393
749 2 -0.152397 107.449 17.365
750 2 3.86031 107.266 17.29
751 2 7.96564 107.319 17.3521
752 2 11.8194 107.247 17.4496
753 2 0.104217 111.178 17.4405
754 2 4.10214 111.115 17.5232
755 2 8.04103 111.297 17.1879
756 2 11.837 111.28 17.2873
757 2 0.053775 115.211 17.206
758 2 3.95294 115.063 17.3937
759 2 7.88956 115.076 17.5726
760 2 11.991 115.201 17.5231
761 2 0.0986492 119.067 17.378
762 2 4.156 119.174 17.2983
763 2 7.89006 118.815 17.3815
764 2 11.88 119.019 17.3474
765 2 0.181767 122.877 17.3928
766 2 3.98968 122.912 17.2955
767 2 8.05458 122.868 17.2655
768 2 11.912 122.936 17.2869
769 2 15.8238 126.794 17.0347
770 2 4.08598 126.812 17.1964
771 2 7.92791 126.711 17.274
772 2 11.9606 126.771 17.1382
773 2 15.9459 130.624 17.1912
774 2 3.87343 130.722 17.0969
775 2 7.92754 130.602 16.9613
776 2 11.9394 130.681 17.2713
777 2 15.753 134.618 17.2398
778 2 3.94511 134.763 17.1458
779 2 7.91031 134.682 17.0735
780 2 11.7748 134.56 17.2166
781 2 -0.0378809 138.534 17.0448
782 2 3.84409 138.452 16.9676
783 2 8.00483 138.576 16.9445
784 2 11.9357 138.426 16.9766
785 2 16.0068 142.52 16.941
786 2 3.89711 142.687 17.0655
787 2 8.11814 142.537 16.9574
788 2 12.0635 142.433 17.0055
789 2 15.8668 146.453 16.9594
790 2 4.07536 146.279 17.0281
791 2 7.91488 146.262 16.8337
792 2 11.8811 146.449 17.1307
793 2 15.8187 150.122 16.7358
794 2 3.94844 150.282 16.9341
795 2 7.77398 150.308 16.9563
796 2 11.8243 150.346 16.8457
797 2 15.5901 154.057 16.8995
798 2 3.99589 154.189 17.0666
799 2 7.91452 154.377 16.8908
800 2 11.9397 154.033 16.8841
801 2 15.9804 158.056 20.8262
802 2 3.82369 158.144 20.7899
803 2 7.86147 158.057 20.8508
804 2 11.7982 158.156 20.8935
805 2 0.208102 3.65536 20.9191
806 2 4.08914 3.66813 20.8429
807 2 7.89953 3.82379 20.9094
808 2 11.7909 3.64283 20.8284
809 2 16.0143 7.63059 20.6767
810 2 4.11409 7.67263 20.688
811 2 7.92898 7.56184 20.7557
812 2 11.9904 7.58072 20.803
813 2 15.8536 11.5765 20.7676
814 2 3.91474 11.4729 20.7924
815 2 7.89519 11.4565 20.7829
816 2 11.7936 11.3208 20.61
817 2 15.9386 15.4214 20.8384
818 2 4.03529 15.5655 20.5043
819 2 7.87277 15.3357 20.6452
820 2 11.8519 15.4729 20.7436
821 2 -0.0447511 19.1164 20.6471
822 2 4.0078 19.3007 20.6433
823 2 7.80925 19.3822 20.554
824 2 11.8366 19.3197 20.6652
825 2 0.0585655 23.386 20.4957
826 2 3.84189 23.2558 20.6937
827 2 7.95228 23.333 20.571
828 2 11.9303 23.0525 20.4857
829 2 15.6486 27.2104 20.5523
830 2 3.79131 27.1632 20.5412
831 2 7.70546 27.2728 20.5174
832 2 11.9295 27.0754 20.4689
833 2 15.6804 31.1603 20.5807
834 2 3.9599 30.9388 20.5061
835 2 7.93335 31.0615 20.5609
836 2 11.6906 30.998 20.5714
837 2 15.7738 35.0439 20.5824
838 2 3.85326 34.8328 20.4102
839 2 7.95573 35.0353 20.3631
840 2 11.6782 34.894 20.3122
841 2 -0.00472039 38.9053 20.4104
842 2 3.87122 38.7349 20.4657
843 2 8.05279 38.6863 20.2504
844 2 11.8881 39.0554 20.2038
845 2 15.8202 42.9646 20.5637
846 2 3.87218 42.7278 20.3768
847 2 7.86229 42.7828 20.1957
848 2 11.8049 42.7084 20.4066
849 2 15.7338 46.7212 20.5901
850 2 3.81309 46.8412 20.4297
851 2 7.85333 46.7037 20.5344
852 2 11.8746 46.7484 20.4118
853 2 -0.106449 50.9868 20.452
854 2 3.73101 50.8835 20.5831
855 2 7.82894 50.9091 20.5488
856 2 12.0539 50.7868 20.5331
857 2 -0.141684 54.9393 20.6404
858 2 3.99016 55.0322 20.6352
859 2 8.02518 54.8674 20.5597
860 2 11.9922 54.8518 20.5375
861 2 15.8247 58.8752 20.5239
862 2 3.95905 58.8992 20.4798
863 2 7.82776 58.8716 20.4599
864 2 11.7615 58.7651 20.6006
865 2 15.71 62.8661 20.6386
866 2 3.95413 62.9126 20.5067
867 2 7.82256 62.9793 20.6644
868 2 12.0069 62.8113 20.9121
869 2 0.102123 67.104 20.7134
870 2 4.0599 66.88 20.7827
871 2 8.08998 67.1803 20.8058
872 2 11.7668 66.9392 20.7792
873 2 0.140406 71.056 20.9715
874 2 4.05144 71.0961 20.9072
875 2 7.95795 71.0446 20.8378
876 2 11.9298 70.9843 20.7897
877 2 0.0249657 75.2242 20.8429
878 2 4.00085 74.9616 20.891
879 2 7.89101 75.038 21.0277
880 2 11.9226 75.0371 21.0288
881 2 0.0551915 79.1997 20.7654
882 2 3.99752 79.0186 21.0308
883 2 7.95415 79.2458 20.8697
884 2 11.8787 79.1226 20.875
885 2 0.166896 83.0498 21.0423
886 2 4.09217 83.0257 20.8814
887 2 8.03101 83.278 20.9544
888 2 12.1008 83.126 20.8011
889 2 0.15084 87.2838 21.0734
890 2 4.17457 87.2796 20.9613
891 2 8.05924 87.1111 21.0441
892 2 12.0481 87.1451 20.9859
893 2 -0.0335498 91.0557 21.1714
894 2 4.06582 91.1517 21.1282
895 2 8.11671 91.0807 21.0897
896 2 12.0457 91.2478 21.0644
897 2 0.230585 95.1309 21.1481
898 2 4.0529 95.1692 21.2903
899 2 7.97261 95.1887 21.0871
900 2 11.9306 95.1486 21.3486
901 2 -0.0171188 99.365 21.389
902 2 4.08135 99.1292 21.2726
903 2 8.08858 99.2923 21.2122
904 2 11.9323 99.1062 21.2286
905 2 -0.0176422 103.5 21.3793
906 2 4.04837 103.311 21.4272
907 2 7.93312 103.38 21.1791
908 2 11.8877 103.322 21.2644
909 2 -0.0194133 107.341 21.5621
910 2 3.95952 107.341 21.1983
911 2 7.98155 107.375 21.4098
912 2 11.9783 107.388 21.5416
913 2 0.0882381 111.139 21.4865
914 2 3.80918 111.18 21.4208
915 2 8.1087 111.414 21.4538
916 2 12.112 111.287 21.2487
917 2 15.9908 114.93 21.2242
918 2 4.04528 115.126 21.4931
919 2 7.93378 115.102 21.5825
920 2 12.1637 115.079 21.5556
921 2 0.0243424 119 21.3352
922 2 3.89073 119.152 21.2047
923 2 8.00856 119.039 21.3188
924 2 11.9739 119.053 21.3319
925 2 15.7306 123.045 21.3713
926 2 3.84304 122.895 21.2639
927 2 8.04635 122.954 21.3373
928 2 11.868 123.028 21.2255
929 2 15.9384 126.916 21.0741
930 2 3.92591 127.067 21.0348
931 2 7.82011 126.799 21.3729
932 2 11.7504 127.066 21.3072
933 2 15.8193 130.719 21.1919
934 2 3.79896 130.83 21.0276
935 2 7.72794 130.719 21.1759
936 2 11.8272 130.816 21.2795
937 2 -0.0377021 134.641 20.9978
938 2 3.951 134.864 21.1135
939 2 7.96872 134.771 21.0632
940 2 11.807 134.459 21.0373
941 2 15.8647 138.653 21.1795
942 2 3.96345 138.572 21.048
943 2 8.09965 138.66 21.0848
944 2 12.1628 138.682 21.0436
945 2 15.9317 142.499 21.091
946 2 3.97444 142.332 21.1164
947 2 7.94543 142.366 21.1141
948 2 11.9771 142.532 20.8383
949 2 15.8748 146.44 21.059
950 2 4.11058 146.379 20.9961
951 2 7.97081 146.366 21.1656
952 2 11.9053 146.217 21.1372
953 2 15.9224 150.348 20.9651
954 2 3.96126 150.204 20.9028
955 2 7.97907 150.202 20.9182
956 2 11.9583 150.215 21.0985
957 2 15.8993 154.033 20.9103
958 2 3.94751 154.188 20.9395
959 2 7.92224 154.219 20.9999
960 2 12.0793 154.179 20.9697
961 2 0.00775183 158.205 24.898
962 2 4.18509 158.153 24.8817
963 2 7.74096 158.027 24.8446
964 2 11.845 158.262 24.8885
965 2 15.834 3.70336 24.75
966 2 3.92892 3.71798 24.7943
967 2 7.99008 3.68106 24.9507
968 2 11.9277 3.68519 24.8593
969 2 16.0481 7.59715 24.634
970 2 4.04683 7.6385 24.7938
971 2 7.88949 7.58767 24.9065
972 2 12.1587 7.68878 24.9255
973 2 16.0682 11.4909 24.7097
974 2 3.84037 11.7235 24.7068
975 2 7.96097 11.5509 24.7463
976 2 11.7099 11.5972 24.8891
977 2 -0.127087 15.4728 24.8415
978 2 3.89567 15.5057 24.7402
979 2 8.05211 15.6669 24.6304
980 2 11.8317 15.4007 24.6018
981 2 -0.158104 19.4907 24.7724
982 2 4.17407 19.1843 24.74
983 2 7.93912 19.5161 24.8459
984 2 11.7792 19.3444 24.6916
985 2 -0.0596565 23.0793 24.7086
986 2 3.97306 23.2762 24.6332
987 2 7.74146 23.3321 24.6155
988 2 11.6988 23.4351 24.5957
989 2 0.0840143 27.1084 24.5488
990 2 3.95412 27.2471 24.4925
991 2 7.88425 27.2252 24.6661
992 2 11.9618 27.1997 24.6021