ITEM: TIMESTEP
22200
ITEM: NUMBER OF ATOMS
32000
ITEM: BOX BOUNDS xy xz yz pp pp pp
0.0000000000000000e+00 1.5832000000000001e+01 0.0000000000000000e+00
0.0000000000000000e+00 1.5831999999999999e+02 0.0000000000000000e+00
8.2615252019772356e-01 1.6015096547979761e+02 0.0000000000000000e+00
ITEM: ATOMS id type x y z
1 2 15.8827 157.83 160.038
2 2 4.08544 157.989 159.914
3 2 7.90282 157.883 160.166
4 2 11.985 158.176 160.099
5 2 0.0769637 3.42241 160.01
6 2 3.94452 3.54283 159.816
7 2 7.90063 3.43462 159.879
8 2 11.8595 3.66608 160.104
9 2 15.9156 7.38552 159.729
10 2 3.97752 7.48465 160.089
11 2 7.8724 7.43657 159.964
12 2 11.9593 7.57766 159.967
13 2 16.0405 11.461 159.901
14 2 4.0281 11.4313 159.961
15 2 8.15569 11.3426 159.884
16 2 12.0589 11.3194 160.157
17 2 0.179784 15.4379 159.871
18 2 4.2101 15.3872 159.675
19 2 8.07993 15.2047 159.865
20 2 11.901 15.2511 159.801
21 2 16.0446 19.0802 159.779
22 2 4.18875 19.2068 159.907
23 2 8.14294 19.1253 159.559
24 2 12.0215 19.214 159.544
25 2 16.2085 22.9824 159.799
26 2 4.18348 23.0574 159.731
27 2 8.13588 23.0645 159.717
28 2 12.2189 23.2325 159.665
29 2 15.8288 27.1178 159.906
30 2 4.20213 27.0916 159.719
31 2 8.06646 27.0567 159.673
32 2 11.7492 27.045 159.736
33 2 15.9237 31.2366 159.903
34 2 4.07115 31.1819 0.582553
35 2 8.00826 31.2673 159.992
36 2 12.0035 31.0548 159.764
37 2 0.232807 35.2735 159.918
38 2 4.09934 35.258 159.919
39 2 8.0174 35.1737 159.994
40 2 12.0786 35.1892 160.1
41 2 0.195033 38.9608 160.018
42 2 4.15894 39.2629 0.948078
43 2 8.19336 39.0811 0.876028
44 2 12.2613 39.3097 0.722827
45 2 0.235528 43.0346 160.204
46 2 4.03673 43.1792 160.184
47 2 7.86715 43.0769 0.720165
48 2 12.0136 43.106 0.713399
49 2 0.19695 47.232 0.909503
50 2 4.15546 47.2306 0.920537
51 2 8.05526 47.1637 0.770302
52 2 11.9183 47.0137 0.912358
53 2 -0.231792 51.1449 0.95667
54 2 3.95963 51.2225 0.789074
55 2 7.96226 51.2629 0.921894
56 2 11.85 51.2044 0.711016
57 2 15.9518 55.2632 0.862625
58 2 4.26431 55.2725 0.965005
59 2 7.97648 55.2776 0.88569
60 2 11.865 55.3991 0.930737
61 2 0.180521 59.2725 0.994251
62 2 4.08237 59.2568 0.91724
63 2 8.00506 59.2084 0.929303
64 2 11.9859 59.1881 0.950847
65 2 0.153248 63.4092 1.11883
66 2 4.13726 63.2951 1.02142
67 2 8.1116 63.2983 1.28006
68 2 12.0118 63.4242 1.01117
69 2 15.964 67.4459 1.10745
70 2 3.92358 67.2467 1.10099
71 2 7.98921 67.1974 1.23666
72 2 11.8957 67.3241 1.34306
73 2 0.0830987 71.3209 1.12091
74 2 4.0694 71.3073 1.1907
75 2 7.8983 71.3037 1.23843
76 2 11.8223 71.4105 1.31071
77 2 0.127249 75.4654 1.33753
78 2 3.99805 75.5958 1.43699
79 2 8.0673 75.3644 1.18747
80 2 11.8832 75.3204 1.24269
81 2 0.0414467 79.2974 1.25814
82 2 3.92901 79.3042 1.25423
83 2 7.65953 79.4594 1.22743
84 2 11.7558 79.4575 1.46919
85 2 0.121096 83.5196 1.54415
86 2 3.82018 83.5991 1.46783
87 2 7.77697 83.4325 1.42984
88 2 11.8383 83.5802 1.61428
89 2 0.0958299 87.4251 1.66675
90 2 4.18342 87.4877 1.38697
91 2 8.11956 87.3755 1.43036
92 2 11.8388 87.3935 1.68182
93 2 0.112704 91.4034 1.76686
94 2 3.9699 91.5631 1.50776
95 2 8.05298 91.4808 1.48127
96 2 12.1068 91.2914 1.48725
97 2 15.7055 95.3359 1.55134
98 2 3.87386 95.2491 1.46712
99 2 7.97363 95.3729 1.53318
100 2 11.7143 95.3849 1.58531
101 2 -0.0679146 99.1823 1.72062
102 2 3.77895 99.2263 1.55224
103 2 7.7785 99.3211 1.63831
104 2 12.021 99.2562 1.51267
105 2 0.010635 103.248 1.47666
106 2 3.98053 103.315 1.45144
107 2 7.99243 103.123 1.43759
108 2 11.9729 103.105 1.4307
109 2 0.0457205 107.201 1.46903
110 2 3.95909 107.084 1.39237
111 2 7.95457 106.942 1.43263
112 2 12.0479 107.177 1.20845
113 2 0.0663953 110.988 1.26819
114 2 3.98135 111.028 1.4463
115 2 7.86327 111.019 1.12474
116 2 11.8636 111.058 1.28454
117 2 15.9973 114.994 1.2735
118 2 3.94443 114.962 1.39135
119 2 8.04207 115.084 1.07553
120 2 11.9554 114.924 1.28649
121 2 0.0755044 119.079 1.19269
122 2 4.1487 118.658 1.07319
123 2 8.13341 119.038 1.06905
124 2 12.004 118.975 1.09464
125 2 15.7913 122.896 1.06938
126 2 4.10459 122.807 0.983738
127 2 8.0416 122.796 1.14917
128 2 11.938 122.785 0.899556
129 2 -0.0148041 126.793 1.10833
130 2 4.04881 126.823 1.12452
131 2 8.11562 126.767 1.11834
132 2 11.836 126.667 0.96343
133 2 15.8082 130.504 1.07183
134 2 3.96933 130.591 0.658415
135 2 7.99097 130.746 0.925056
136 2 11.8751 130.68 0.628603
137 2 15.7239 134.547 0.938254
138 2 3.97267 134.529 0.70721
139 2 7.92966 134.594 160.053
140 2 12.1325 134.514 1.05953
141 2 0.180877 138.512 0.810057
142 2 3.85555 138.553 160.198
143 2 7.95578 138.307 160.153
144 2 11.8559 138.466 0.921889
145 2 15.8737 142.268 160.204
146 2 4.04956 142.344 160.054
147 2 8.08149 142.48 160.106
148 2 12.0974 142.383 160.14
149 2 0.0369246 146.145 159.995
150 2 4.03619 146.175 160.188
151 2 8.04239 146.243 160.065
152 2 11.9525 146.102 160.16
153 2 15.9286 150.039 160.012
154 2 3.89958 150.204 160.202
155 2 7.86188 150.067 160.199
156 2 11.7542 150.159 0.608708
157 2 15.7095 153.944 160.069
158 2 3.99424 154.045 160.17
159 2 7.99891 153.878 160.116
160 2 11.8641 154.092 160.188
161 2 15.9441 157.819 4.74097
162 2 4.08678 157.995 4.59816
163 2 7.86659 157.818 4.82074
164 2 11.9175 158.054 4.79363
165 2 -0.0575452 3.50339 4.66927
166 2 4.11098 3.64201 4.592
167 2 7.9114 3.72442 4.58411
168 2 11.8722 3.7293 4.69453
169 2 0.0349571 7.52344 4.61999
170 2 4.08789 7.52371 4.52149
171 2 7.96394 7.51272 4.58909
172 2 12.0345 7.68645 4.72801
173 2 0.137431 11.2859 4.55554
174 2 4.14258 11.3392 4.68601
175 2 8.10634 11.4789 4.52566
176 2 11.9816 11.2865 4.61419
177 2 15.9722 15.4604 4.59079
178 2 4.12177 15.1775 4.49954
179 2 8.03215 15.4834 4.54223
180 2 12.056 15.0978 4.65116
181 2 0.212053 19.3296 4.49979
182 2 4.10453 19.2771 4.55384
183 2 8.16278 19.2807 4.22959
184 2 11.9926 19.1819 4.38019
185 2 0.127591 23.0691 4.53328
186 2 4.05726 23.2402 4.10367
187 2 8.02175 23.3492 4.42832
188 2 12.0356 22.9486 4.41381
189 2 16.0245 27.0719 4.5923
190 2 4.00959 27.044 4.41942
191 2 7.99008 27.0269 4.38376
192 2 11.8761 27.0048 4.15735
193 2 0.231757 31.0309 4.29107
194 2 4.24194 31.2468 4.43962
195 2 8.15168 31.2001 4.63922
196 2 12.1681 30.9749 4.44196
197 2 0.070717 35.173 4.67233
198 2 4.02095 35.1519 4.33754
199 2 8.1489 35.1803 4.70769
200 2 11.9996 35.035 4.63804
201 2 15.9224 39.0147 4.73938
202 2 4.11057 38.9392 4.67621
203 2 8.14927 39.2436 4.74493
204 2 11.8106 39.0159 4.53654
205 2 0.137087 43.0792 4.79302
206 2 4.20886 43.1003 4.77967
207 2 8.21028 43.2291 4.71104
208 2 12.127 43.1433 4.67122
209 2 0.280494 47.2972 4.73024
210 2 4.28663 47.2549 4.87759
211 2 8.00532 47.1284 4.71773
212 2 12.0322 47.0693 4.70816
213 2 0.0706789 51.1847 4.75612
214 2 4.11752 51.1555 4.69076
215 2 7.96121 51.0566 4.81717
216 2 11.8483 51.0284 4.71731
217 2 0.0155098 55.1413 4.72831
218 2 3.94719 55.2135 4.86372
219 2 7.9132 55.2851 4.84913
220 2 12.1042 55.2729 4.82352
221 2 15.8833 59.2508 4.92973
222 2 4.03963 59.2547 4.83456
223 2 8.10121 59.3386 4.90868
224 2 11.9488 59.4657 4.89136
225 2 -0.0861988 63.2011 4.86905
226 2 3.84924 63.1884 4.85883
227 2 7.83955 63.3203 5.05488
228 2 11.7916 63.2719 5.19234
229 2 15.8304 67.3457 4.91972
230 2 3.9296 67.3773 4.95192
231 2 7.9926 67.3431 5.18115
232 2 12.052 67.4208 5.13753
233 2 15.9884 71.273 5.12552
234 2 4.01755 71.2957 5.01329
235 2 8.11781 71.4738 5.23179
236 2 12.1311 71.4894 5.18365
237 2 15.7588 75.2149 5.25286
238 2 3.97429 75.1825 5.19549
239 2 7.95119 75.2529 5.04801
240 2 11.9358 75.2563 5.22567
241 2 -0.0994548 79.4107 5.21577
242 2 3.77586 79.3503 5.27259
243 2 7.90065 79.2463 5.33502
244 2 11.8273 79.3977 5.26823
245 2 15.7217 83.413 5.32486
246 2 3.88338 83.3062 5.31948
247 2 7.57863 83.5042 5.12982
248 2 11.7271 83.2776 5.32131
249 2 0.0195684 87.4004 5.55988
250 2 4.03944 87.273 5.50834
251 2 7.87273 87.4619 5.38806
252 2 11.8101 87.3935 5.44782
253 2 0.13283 91.4399 5.48952
254 2 3.91596 91.4016 5.615
255 2 7.75588 91.32 5.54947
256 2 11.9004 91.4704 5.57342
257 2 15.9277 95.3698 5.55686
258 2 4.04646 95.2749 5.56276
259 2 8.00629 95.3485 5.44031
260 2 11.9906 95.4094 5.59556
261 2 -0.00220662 99.1686 5.51076
262 2 3.91791 99.4056 5.30904
263 2 7.89185 99.2711 5.55444
264 2 11.8177 99.4338 5.48988
265 2 -0.0229629 103.294 5.5575
266 2 4.21638 103.42 5.52288
267 2 7.94067 103.22 5.38526
268 2 11.7747 103.237 5.54957
269 2 15.9098 107.221 5.35127
270 2 3.94182 107.189 5.48435
271 2 8.04409 107.15 5.30421
272 2 11.9692 107.161 5.28694
273 2 15.8196 111.228 5.44039
274 2 4.01015 111.08 5.36691
275 2 7.9094 110.998 5.2689
276 2 11.8863 110.861 5.28784
277 2 -0.123882 115.174 5.25991
278 2 4.05926 115.032 5.31997
279 2 7.97701 115.117 5.18597
280 2 11.7532 114.914 5.35881
281 2 -0.17443 118.95 5.20389
282 2 3.97963 118.925 5.12015
283 2 7.8949 119.013 5.03134
284 2 11.8604 119.094 5.06325
285 2 15.8875 122.953 5.00899
286 2 3.88786 122.699 4.96935
287 2 7.83419 122.964 5.04412
288 2 11.942 122.815 5.15793
289 2 0.110933 126.71 5.01349
290 2 3.93435 126.992 5.09109
291 2 7.96415 126.778 5.00698
292 2 11.9748 126.881 4.96211
293 2 0.0754624 130.874 4.99718
294 2 4.19939 130.699 4.89223
295 2 8.15769 130.636 5.14913
296 2 11.8935 130.506 5.00869
297 2 15.9405 134.675 4.98303
298 2 4.11845 134.343 4.82984
299 2 8.14774 134.502 4.89724
300 2 11.8965 134.81 4.93744
301 2 0.0769501 138.462 4.95522
302 2 4.1165 138.481 5.09492
303 2 8.08414 138.494 4.81793
304 2 11.9429 138.548 4.96262
305 2 0.0378705 142.467 4.92495
306 2 4.04568 142.46 4.65058
307 2 7.93466 142.286 4.78143
308 2 11.9266 142.43 4.83104
309 2 15.8832 146.264 4.77725
310 2 3.94644 146.273 4.82933
311 2 7.96752 146.338 4.70068
312 2 12.0489 146.365 4.88791
313 2 15.606 150.116 4.77147
314 2 3.93603 150.225 4.91919
315 2 8.01532 149.999 4.76692
316 2 11.8165 150.152 4.5983
317 2 15.927 153.995 4.90031
318 2 4.07961 153.924 4.69671
319 2 7.99959 154.108 4.78347
320 2 12.0667 154.042 4.90072
321 2 15.8962 158.095 8.72947
322 2 4.16293 157.938 8.66679
323 2 8.07578 158.108 8.79159
324 2 12.1774 158.273 8.74423
325 2 16.0699 3.52229 8.62079
326 2 4.24498 3.50696 8.60011
327 2 8.11504 3.58349 8.54998
328 2 12.0469 3.55623 8.58775
329 2 16.0471 7.47009 8.51601
330 2 3.92983 7.45798 8.66806
331 2 7.96597 7.56777 8.68166
332 2 12.2076 7.4461 8.71939
333 2 0.384119 11.4224 8.62121
334 2 4.07506 11.4642 8.69637
335 2 8.01355 11.3628 8.64997
336 2 11.8773 11.3781 8.62642
337 2 15.9921 15.4665 8.58614
338 2 3.95873 15.1567 8.70746
339 2 7.9335 15.3168 8.55692
340 2 12.0374 15.2484 8.52585
341 2 0.19886 19.3435 8.44326
342 2 4.0997 19.3173 8.63168
343 2 7.70701 19.3379 8.30891
344 2 11.6209 19.4165 8.48568
345 2 0.244924 23.3553 8.47592
346 2 4.10851 23.2933 8.41932
347 2 8.12115 23.45 8.33353
348 2 11.9153 23.302 8.43979
349 2 -0.0137281 26.9731 8.44758
350 2 4.13149 27.045 8.23705
351 2 8.13424 27.0409 8.45871
352 2 11.9186 27.0276 8.34835
353 2 0.241498 30.944 8.35353
354 2 4.11896 30.9631 8.29834
355 2 8.03497 30.9526 8.62288
356 2 12.129 31.0896 8.26961
357 2 16.0202 34.9652 8.39878
358 2 4.04909 34.9488 8.32175
359 2 7.85418 35.0766 8.55785
360 2 12.1819 34.8536 8.53749
361 2 0.0389497 38.7655 8.57159
362 2 4.05459 39.0045 8.71563
363 2 7.94015 39.0692 8.6222
364 2 12.0275 38.9827 8.4389
365 2 0.0321906 42.9567 8.63665
366 2 4.08403 43.101 8.56091
367 2 8.16985 42.9824 8.62021
368 2 11.9679 43.0338 8.5715
369 2 0.245206 47.0633 8.6925
370 2 4.1044 46.9075 8.57202
371 2 8.04272 47.072 8.85224
372 2 11.9289 46.9518 8.5629
373 2 15.948 51.1362 8.82581
374 2 3.95792 51.1693 8.77632
375 2 8.04886 50.917 8.81186
376 2 12.1783 51.1837 8.61229
377 2 16.0506 55.3214 8.82184
378 2 4.09879 55.1444 8.61845
379 2 7.94784 55.1904 8.6363
380 2 12.0279 55.2012 8.91926
381 2 0.117718 59.0919 8.71571
382 2 4.04191 59.2863 8.73663
383 2 7.8611 59.1606 8.69022
384 2 11.9036 59.2292 8.81485
385 2 -0.19187 63.1883 8.92903
386 2 3.8922 63.1884 8.79547
387 2 7.89152 63.2622 8.95451
388 2 11.7029 63.3514 9.05434
389 2 15.9287 67.1811 8.87127
390 2 4.03332 67.2031 9.02279
391 2 7.82883 67.1616 9.05671
392 2 11.8611 67.4457 9.07992
393 2 15.856 71.3122 9.16852
394 2 4.09677 71.1965 9.00291
395 2 7.73651 71.327 8.91256
396 2 11.8904 71.2378 9.30337
397 2 15.8612 75.4433 9.08249
398 2 3.97367 75.3607 9.21052
399 2 7.7089 75.393 9.15823
400 2 11.8187 75.3515 9.13546
401 2 15.707 79.4185 9.11407
402 2 3.83096 79.3281 9.14602
403 2 7.66812 79.3171 9.1098
404 2 11.8175 79.2674 9.14517
405 2 -0.00948898 83.201 9.31567
406 2 3.97205 83.1559 9.07173
407 2 7.83226 83.1531 9.30521
408 2 11.7847 83.4795 9.44904
409 2 -0.237128 87.3426 9.30809
410 2 3.95022 87.2398 9.27549
411 2 7.96351 87.2985 9.23719
412 2 11.8295 87.2123 9.17675
413 2 0.0937991 91.3868 9.27508
414 2 3.97525 91.196 9.48568
415 2 7.83056 91.2918 9.47581
416 2 11.7981 91.3427 9.51529
417 2 15.8464 95.6537 9.37212
418 2 3.92378 95.2983 9.53463
419 2 7.95771 95.1311 9.534
420 2 11.9681 95.343 9.44098
421 2 15.8098 99.2702 9.42496
422 2 3.99854 99.2156 9.50021
423 2 7.97598 99.2777 9.45135
424 2 11.7885 99.2628 9.44397
425 2 0.0460738 103.162 9.48309
426 2 3.94571 103.163 9.45677
427 2 7.8549 103.168 9.39987
428 2 11.8403 103.165 9.44459
429 2 0.0152247 106.995 9.57313
430 2 4.06027 106.986 9.37313
431 2 7.80857 107.241 9.50187
432 2 11.9043 107.047 9.34722
433 2 16.0399 111.012 9.22251
434 2 3.99511 111.122 9.32313
435 2 7.78185 111.357 9.12964
436 2 11.6596 111.02 9.29765
437 2 0.0520106 115.109 9.04781
438 2 3.93774 114.998 9.20988
439 2 7.88576 115.109 9.22172
440 2 11.8697 115.113 9.12213
441 2 0.0829431 119.022 9.14694
442 2 3.87078 118.86 9.23281
443 2 7.88641 119.04 9.23328
444 2 11.9036 119.011 9.16324
445 2 15.7186 122.963 9.21348
446 2 3.96144 122.991 8.99513
447 2 8.03608 122.896 9.17985
448 2 11.8612 122.933 9.01919
449 2 15.9056 126.762 9.3063
450 2 3.97944 126.784 9.00517
451 2 8.01482 126.802 9.24954
452 2 11.9898 126.857 9.15797
453 2 -0.038807 130.609 8.92841
454 2 3.94513 130.79 9.07563
455 2 8.03858 130.617 8.95785
456 2 11.8538 130.74 9.07244
457 2 0.0356851 134.523 8.94413
458 2 3.95787 134.448 9.04678
459 2 7.93908 134.35 8.97088
460 2 11.8596 134.543 8.99792
461 2 0.202561 138.513 8.9076
462 2 4.05334 138.453 8.90452
463 2 7.81978 138.489 8.88205
464 2 12.1338 138.445 8.85671
465 2 0.0215492 142.457 8.97924
466 2 3.98985 142.234 8.83954
467 2 7.86485 142.523 8.93539
468 2 11.7231 142.416 8.85361
469 2 15.9755 146.346 8.91209
470 2 4.00334 146.365 8.8645
471 2 8.08852 146.28 8.76496
472 2 11.8235 146.302 8.89952
473 2 15.9357 150.253 8.9159
474 2 3.91048 150.359 8.63216
475 2 7.98021 150.145 8.84732
476 2 11.9121 150.223 9.03578
477 2 15.9008 154.117 8.89479
478 2 3.95779 154.068 8.75486
479 2 7.86415 154.291 8.94264
480 2 11.8959 154.315 8.83817
481 2 15.9825 158.101 12.8599
482 2 4.12215 158.064 12.8882
483 2 7.98891 158.039 12.7681
484 2 11.8687 158.242 12.8385
485 2 16.12 3.58139 12.698
486 2 4.16345 3.67114 12.6833
487 2 8.09406 3.71458 12.7526
488 2 12.0674 3.6257 12.8218
489 2 15.6505 7.55807 12.4599
490 2 3.94942 7.46744 12.7765
491 2 8.00503 7.44468 12.608
492 2 12.0437 7.55139 12.733
493 2 0.139342 11.4159 12.8695
494 2 4.11699 11.4947 12.806
495 2 7.92684 11.4302 12.6969
496 2 12.0555 11.3465 12.7297
497 2 -0.143345 15.5808 12.5171
498 2 4.07182 15.4973 12.6959
499 2 7.95736 15.3388 12.5667
500 2 11.9284 15.3886 12.5393
501 2 0.0212173 19.4913 12.5505
502 2 3.94574 19.2387 12.4768
503 2 7.92349 19.1832 12.5848
504 2 11.7217 19.4422 12.496
505 2 0.101569 23.3382 12.361
506 2 4.05411 23.127 12.4296
507 2 7.90458 23.2957 12.5727
508 2 12.0103 23.217 12.3479
509 2 -0.111497 27.1893 12.5181
510 2 3.95382 27.1132 12.4578
511 2 7.8657 27.1229 12.5467
512 2 11.9855 27.0014 12.4655
513 2 0.224465 30.9165 12.3494
514 2 3.98426 31.0879 12.4212
515 2 8.01168 30.9342 12.3313
516 2 11.9347 30.9099 12.2702
517 2 -0.177635 34.9468 12.4333
518 2 3.837 34.8534 12.439
519 2 7.76322 34.9904 12.2906
520 2 11.8671 34.9778 12.3027
521 2 0.228443 38.9129 12.4188
522 2 4.13201 38.919 12.5776
523 2 7.83265 38.9383 12.552
524 2 11.9001 38.9705 12.3635
525 2 0.129032 42.9109 12.5675
526 2 4.20225 42.8501 12.6157
527 2 8.13182 42.9274 12.3669
528 2 12.1185 42.8142 12.6089
529 2 0.203048 46.8862 12.3846
530 2 3.99223 46.9571 12.6233
531 2 8.12734 47.0764 12.6087
532 2 11.9491 46.7792 12.522
533 2 0.0419035 50.954 12.6348
534 2 3.96283 51.0369 12.4597
535 2 7.98592 51.0715 12.5567
536 2 12.1569 51.156 12.5722
537 2 15.979 55.0331 12.8121
538 2 4.14169 55.1014 12.6932
539 2 7.91787 55.0268 12.6268
540 2 11.7586 54.9988 12.5915
541 2 16.0314 59.0624 12.6177
542 2 3.988 59.2012 12.5557
543 2 8.07337 59.1642 12.6818
544 2 11.939 58.9372 12.5901
545 2 15.851 63.1404 12.8266
546 2 3.86006 63.2751 12.9372
547 2 7.93143 63.088 13.0199
548 2 11.7423 63.2035 12.7351
549 2 0.116077 67.0963 12.6563
550 2 4.15466 67.1712 12.7783
551 2 7.86761 67.0887 12.9418
552 2 11.9408 67.061 12.8745
553 2 -0.00895617 71.2273 13.0137
554 2 3.75271 71.236 13.1412
555 2 7.91852 71.2587 12.9678
556 2 11.8745 71.1225 13.1304
557 2 -0.0796227 75.1697 13.045
558 2 3.73934 75.2022 13.0049
559 2 7.7293 75.2312 12.8859
560 2 11.8848 75.057 12.9906
561 2 -0.0774987 79.3643 13.0998
562 2 3.80837 79.2831 13.1022
563 2 7.62905 79.5847 13.153
564 2 11.7419 79.1667 13.1766
565 2 0.036224 83.2992 13.177
566 2 3.91998 83.4677 13.2051
567 2 7.76723 83.2785 13.1947
568 2 11.9183 83.2083 13.0393
569 2 0.0224583 87.0705 13.242
570 2 3.90049 87.3004 13.2809
571 2 7.73091 87.2816 13.27
572 2 11.6879 87.2326 13.2959
573 2 -0.0237845 91.252 13.2467
574 2 3.84308 91.3789 13.3639
575 2 7.91531 91.081 13.2568
576 2 11.9586 91.1608 13.1901
577 2 0.0257047 95.2073 13.2392
578 2 3.92612 95.2257 13.4532
579 2 7.98793 95.3263 13.4153
580 2 11.9605 95.2908 13.3532
581 2 -0.0784395 99.5632 13.4397
582 2 3.92725 99.3644 13.379
583 2 7.98855 99.3544 13.4411
584 2 12.0562 99.2934 13.3979
585 2 0.0993741 103.343 13.3503
586 2 4.1264 103.219 13.2409
587 2 8.0773 103.339 13.5415
588 2 12.0074 103.158 13.2404
589 2 -0.0472866 107.178 13.407
590 2 4.06868 107.083 13.3698
591 2 8.05045 107.368 13.4847
592 2 11.7757 107.287 13.2271
593 2 0.0132827 110.92 13.1057
594 2 3.85356 111.154 13.351
595 2 7.69746 110.985 13.2696
596 2 11.6884 110.945 13.3112
597 2 -0.0179844 114.941 13.3352
598 2 3.90811 115.044 13.4032
599 2 7.99103 114.993 13.2087
600 2 11.7618 115.034 13.3328
601 2 0.0354599 118.938 13.0524
602 2 3.8881 118.873 13.1182
603 2 7.92361 118.931 13.0897
604 2 11.9224 118.927 13.0034
605 2 -0.0246149 122.834 13.2907
606 2 4.10761 122.82 13.1335
607 2 7.80746 122.773 13.2401
608 2 12.066 122.88 13.2903
609 2 0.0351899 126.804 13.1448
610 2 3.98627 126.663 13.1382
611 2 8.03881 126.827 13.1001
612 2 11.8729 126.752 13.1688
613 2 15.7505 130.775 12.9271
614 2 4.04854 130.611 13.1725
615 2 8.01874 130.617 13.0359
616 2 11.8134 130.73 13.0822
617 2 16.1042 134.626 12.9018
618 2 4.12783 134.508 13.0801
619 2 8.19593 134.86 12.9799
620 2 12.0422 134.68 12.9588
621 2 0.00875345 138.519 13.0926
622 2 4.06902 138.591 12.994
623 2 7.97835 138.578 12.9078
624 2 11.9749 138.669 12.9867
625 2 15.9284 142.598 12.9681
626 2 4.06005 142.252 12.9239
627 2 8.08984 142.41 12.8021
628 2 11.9129 142.558 12.8551
629 2 0.15731 146.401 12.8342
630 2 4.10585 146.426 12.9559
631 2 7.89772 146.309 12.9915
632 2 11.9728 146.432 12.8458
633 2 -0.0627196 150.317 12.8115
634 2 3.94099 150.027 12.8696
635 2 8.17637 150.35 12.8961
636 2 12.1017 150.063 12.8991
637 2 15.9253 154.172 12.8185
638 2 4.07149 154.037 12.8095
639 2 8.15493 154.196 12.8699
640 2 12.0837 154.219 12.8919
641 2 0.0916954 158.12 16.9656
642 2 4.04334 -0.322831 17.0053
643 2 8.12286 157.96 16.8364
644 2 11.9304 158.118 16.8125
645 2 15.9945 3.64379 16.8602
646 2 4.21524 3.58533 16.9515
647 2 7.80729 3.74154 16.6916
648 2 11.8765 3.5456 16.9211
649 2 -0.0216492 7.70986 16.8631
650 2 4.01045 7.39943 16.7336
651 2 7.90921 7.57452 16.8526
652 2 11.9697 7.56805 16.7535
653 2 0.244206 11.4126 16.6475
654 2 4.07191 11.6488 16.7869
655 2 7.91436 11.4474 16.782
656 2 12.056 11.4147 16.5972
657 2 -0.103182 15.4712 16.5816
658 2 3.72958 15.3785 16.6101
659 2 7.70002 15.3545 16.6764
660 2 11.783 15.3648 16.5045
661 2 15.7403 19.464 16.5697
662 2 3.94136 19.3654 16.5911
663 2 8.06658 19.1822 16.7026
664 2 11.7784 19.2859 16.651
665 2 0.0376039 23.2871 16.5323
666 2 3.8552 23.2905 16.5406
667 2 7.98065 23.2191 16.4464
668 2 11.8989 23.2642 16.6294
669 2 -0.13546 27.0572 16.4598
670 2 3.76814 27.1368 16.3545
671 2 7.75318 27.2999 16.4873
672 2 11.7527 27.139 16.5906
673 2 0.102205 30.957 16.3414
674 2 4.05795 31.0834 16.3649
675 2 7.90078 31.0009 16.5368
676 2 11.9208 31.0478 16.3237
677 2 -0.0808186 34.8072 16.4602
678 2 4.00444 34.9979 16.1477
679 2 7.92295 34.8662 16.4054
680 2 12.0766 34.8034 16.242
681 2 0.0503822 38.8905 16.2223
682 2 4.12195 38.7583 16.4353
683 2 7.78763 38.9842 16.4929
684 2 11.8002 38.7804 16.5333
685 2 0.186424 42.9926 16.307
686 2 3.90936 42.98 16.3494
687 2 8.02222 42.9433 16.6041
688 2 11.8263 42.5872 16.5255
689 2 15.8494 46.9938 16.4803
690 2 4.0263 46.9045 16.5302
691 2 8.03746 47.0224 16.4559
692 2 12.0015 46.7936 16.4678
693 2 0.0621492 50.9373 16.6588
694 2 4.01101 50.9313 16.3671
695 2 8.06593 50.9833 16.3807
696 2 12.0413 51.0692 16.3828
697 2 0.116674 55.0967 16.4797
698 2 4.10139 55.0699 16.4079
699 2 7.8225 55.336 16.5718
700 2 11.8536 54.9787 16.7579
701 2 0.222128 59.1568 16.7851
702 2 4.02752 59.098 16.7764
703 2 7.81588 59.1141 16.5406
704 2 12.1126 58.9397 16.599
705 2 -0.110542 62.9874 16.6594
706 2 3.98458 63.0532 16.7191
707 2 7.90421 62.8906 16.7798
708 2 11.8636 63.0426 16.4766
709 2 0.175715 66.9518 16.6955
710 2 4.24674 67.1333 16.8482
711 2 7.9267 67.211 16.7841
712 2 12.0559 67.2945 16.8528
713 2 -0.0832428 70.9962 16.7707
714 2 3.75515 71.2128 17.0442
715 2 7.86751 71.1758 16.8945
716 2 11.7364 71.0318 17.0398
717 2 -0.235448 75.2654 17.0194
718 2 3.7774 75.2144 16.9384
719 2 7.89228 75.2419 16.8506
720 2 11.7104 75.1222 16.7903
721 2 -0.0745405 79.243 17.1153
722 2 3.90049 79.2806 16.9609
723 2 7.96179 79.0506 17.0956
724 2 11.7311 78.9497 17.0071
725 2 -0.137201 83.1634 17.0935
726 2 3.89894 83.1866 17.1997
727 2 7.97496 83.0842 17.3339
728 2 12.0664 83.4039 17.1575
729 2 -0.0514456 87.2237 17.1695
730 2 4.02441 87.2258 17.0987
731 2 7.82578 87.1826 17.1573
732 2 11.9806 87.2687 17.2087
733 2 0.0851514 91.2729 17.2664
734 2 4.13505 91.2309 17.1679
735 2 7.71814 91.3691 17.276
736 2 11.7761 91.146 17.1907
737 2 0.0660965 95.2783 17.3322
738 2 3.96734 95.1843 17.1846
739 2 8.21131 95.2197 17.3247
740 2 11.9463 95.4086 17.0497
741 2 0.0468071 99.2395 17.2143
742 2 4.04495 99.2153 17.1399
743 2 7.84132 99.4876 17.443
744 2 11.7792 99.2684 17.4426
745 2 0.0026921 103.298 17.3961
746 2 4.02076 103.18 17.3274
747 2 7.88143 103.399 17.3389
748 2 11.7066 103.294 17.4292
749 2 0.133336 107.378 17.4394
750 2 4.00285 107.22 17.27
751 2 7.70657 107.265 17.2893
752 2 11.894 107.28 17.3855
753 2 -0.10035 111.254 17.4255
754 2 3.62851 111.128 17.279
755 2 7.86172 111.056 17.4097
756 2 12.0227 111.041 17.2225
757 2 -0.125712 115.032 17.3275
758 2 4.02422 115.064 17.2968
759 2 7.89472 115.144 17.098
760 2 11.7395 114.995 17.1676
761 2 0.0225187 118.971 17.2648
762 2 3.86528 118.942 17.278
763 2 7.96378 119.167 17.1803
764 2 11.8811 118.892 17.1267
765 2 -0.0622981 122.784 17.1974
766 2 3.98192 122.847 17.3305
767 2 7.93171 123.086 17.1785
768 2 11.956 122.936 17.2694
769 2 16.0384 126.728 17.1448
770 2 3.98988 126.868 17.3357
771 2 8.0019 126.898 16.9972
772 2 12.0235 127.016 17.1579
773 2 15.9054 130.597 16.9976
774 2 4.02761 130.664 17.1836
775 2 7.98029 130.818 17.0167
776 2 11.9815 130.975 16.9366
777 2 16.0591 134.516 17.0892
778 2 4.2932 134.44 16.9924
779 2 8.21939 134.789 16.8935
780 2 12.1848 134.727 17.1199
781 2 0.269947 138.6 17.1276
782 2 4.08416 138.496 17.0364
783 2 7.95936 138.594 16.9035
784 2 11.998 138.767 17.0523
785 2 15.8991 142.292 16.9172
786 2 3.99727 142.38 16.7927
787 2 8.07041 142.558 16.8358
788 2 11.8634 142.272 17.0443
789 2 16.0508 146.277 16.948
790 2 3.95826 146.379 17.1259
791 2 8.02197 146.356 16.9802
792 2 11.9543 146.319 16.8182
793 2 15.9702 150.511 16.8826
794 2 3.9417 150.188 16.9359
795 2 8.09953 150.221 16.9686
796 2 12.1626 150.265 16.8395
797 2 16.1176 154.16 16.8848
798 2 4.21459 154.211 16.871
799 2 7.79612 154.091 16.7342
800 2 12.0049 154.121 16.8145
801 2 15.8682 158.089 20.8722
802 2 4.05385 158.084 21.0542
803 2 8.12701 158.106 20.9051
804 2 11.978 158.177 21.0327
805 2 -0.0139514 3.81449 20.9328
806 2 3.9789 3.82676 20.997
807 2 8.01002 3.59481 20.8032
808 2 12.0063 3.77384 20.9245
809 2 15.8514 7.59333 20.7452
810 2 3.87354 7.59793 20.839
811 2 7.70407 7.57828 20.7974
812 2 11.8507 7.73369 20.6414
813 2 15.9118 11.5369 20.7404
814 2 4.10221 11.4482 20.8559
815 2 8.00418 11.6415 20.6924
816 2 12.0108 11.6202 20.605
817 2 15.7821 15.5364 20.5865
818 2 3.86656 15.4547 20.5829
819 2 8.02281 15.6523 20.7241
820 2 11.8191 15.4191 20.7165
821 2 -0.113879 19.3671 20.5451
822 2 3.95754 19.2265 20.6234
823 2 7.97397 19.5583 20.7254
824 2 11.9969 19.4171 20.5712
825 2 -0.00384179 23.2864 20.3874
826 2 3.98624 23.2432 20.5043
827 2 7.89275 23.1355 20.6747
828 2 11.7999 23.4908 20.6015
829 2 15.8795 27.2795 20.6167
830 2 4.08405 27.2492 20.5924
831 2 7.87295 27.2647 20.5558
832 2 11.8755 27.3143 20.5723
833 2 15.8114 30.9204 20.3074
834 2 3.8427 31.2384 20.4048
835 2 7.78734 31.0614 20.4067
836 2 11.789 31.0979 20.4284
837 2 15.7329 34.7597 20.1835
838 2 3.78002 35.1372 20.3361
839 2 7.93303 35.1457 20.3536
840 2 11.6644 34.9964 20.3911
841 2 -0.131252 38.9206 20.1292
842 2 3.74461 38.9071 20.3184
843 2 7.64783 38.915 20.5057
844 2 11.6906 39.0386 20.3423
845 2 16.0099 42.9656 20.1895
846 2 3.88468 42.9144 20.3492
847 2 7.87499 42.8922 20.4806
848 2 11.9073 42.8592 20.3435
849 2 15.7738 46.8648 20.2545
850 2 4.07717 46.7884 20.2874
851 2 7.9033 46.7903 20.4221
852 2 11.9184 46.8289 20.299
853 2 0.0302048 50.9506 20.5345
854 2 4.09472 50.8675 20.4042
855 2 8.1833 50.8934 20.3521
856 2 11.8466 51.095 20.5496
857 2 0.180263 54.9167 20.3083
858 2 3.83692 54.8459 20.4003
859 2 7.98167 54.8701 20.5088
860 2 11.8264 54.9941 20.4521
861 2 15.947 59.0406 20.7234
862 2 4.00144 58.9397 20.4827
863 2 7.93263 58.9587 20.6384
864 2 12.1154 59.0155 20.3391
865 2 15.8531 62.9125 20.5584
866 2 3.94967 63.1175 20.7909
867 2 7.796 63.0035 20.628
868 2 11.8783 63.1052 20.4594
869 2 -0.223676 67.1481 20.6844
870 2 3.89671 66.9327 20.8112
871 2 7.92715 67.1687 20.6785
872 2 11.7941 66.9859 20.7847
873 2 -0.0795274 71.0837 20.859
874 2 3.80582 71.1473 20.8642
875 2 7.92166 71.0605 20.9904
876 2 11.916 70.9629 20.6887
877 2 0.0629485 75.0372 20.9462
878 2 3.85652 75.0845 20.9296
879 2 7.68776 75.0185 20.761
880 2 11.8734 75.2776 20.6873
881 2 -0.0287898 79.0523 20.9099
882 2 3.77825 79.2013 20.9957
883 2 7.94206 79.0578 20.8289
884 2 11.7623 79.2542 20.9341
885 2 -0.14205 83.1095 20.9366
886 2 3.85537 83.0742 20.9987
887 2 7.79643 83.1197 21.1613
888 2 11.6114 83.1444 20.9684
889 2 -0.0716822 87.2091 21.0182
890 2 3.82807 87.1952 21.0046
891 2 7.98099 87.0964 21.1282
892 2 11.7949 87.3307 21.1223
893 2 0.121741 91.2772 21.2521
894 2 4.00129 91.1899 20.9571
895 2 7.96739 91.1741 21.1042
896 2 11.9822 91.1217 21.0321
897 2 0.0972275 95.3257 21.385
898 2 3.95661 95.3766 21.2158
899 2 7.93656 95.1527 21.2055
900 2 11.8565 95.1241 21.0575
901 2 -0.0775068 99.2257 21.18
902 2 3.93746 99.2466 21.1396
903 2 7.79371 99.2914 21.2442
904 2 12.0263 99.3556 21.2721
905 2 -0.024557 103.052 21.2257
906 2 3.76596 103.276 21.3113
907 2 8.04342 103.176 21.4345
908 2 11.7963 103.361 21.4301
909 2 -0.0609631 107.211 21.3043
910 2 3.92972 107.234 21.481
911 2 7.88353 107.244 21.3278
912 2 11.8497 107.219 21.4118
913 2 -0.197375 111.234 21.3286
914 2 3.89023 111.283 21.3219
915 2 8.06667 111.248 21.2559
916 2 11.7307 111.151 21.3858
917 2 15.6769 115.307 21.4452
918 2 3.88587 115.105 21.2067
919 2 7.83875 115.087 21.124
920 2 11.8155 115.207 21.2936
921 2 0.070483 119.046 21.3387
922 2 4.04 118.928 21.2405
923 2 7.98249 118.94 21.1222
924 2 12.0048 119.07 21.1773
925 2 15.9548 122.996 21.02
926 2 4.15882 122.925 21.2762
927 2 7.99019 123.032 21.235
928 2 11.8738 122.741 21.2823
929 2 15.9277 126.925 21.2287
930 2 3.98725 126.818 21.1508
931 2 8.17077 126.855 21.1376
932 2 12.1185 126.706 21.2163
933 2 16.0407 130.764 21.1902
934 2 4.12862 130.679 21.192
935 2 8.25562 130.665 21.0753
936 2 12.2195 130.823 20.9401
937 2 -0.151654 134.774 20.9304
938 2 3.94656 134.512 20.9388
939 2 7.96839 134.625 21.0769
940 2 12.0806 134.738 21.1206
941 2 16.037 138.461 20.873
942 2 3.99762 138.521 21.1752
943 2 7.96807 138.412 21.0333
944 2 12.0029 138.567 21.1497
945 2 15.9105 142.511 20.9705
946 2 4.08968 142.608 21.0544
947 2 7.96213 142.488 21.1539
948 2 11.9626 142.458 21.0665
949 2 15.9314 146.411 20.9332
950 2 3.88969 146.482 20.9594
951 2 7.91021 146.415 20.95
952 2 12.0626 146.374 20.7734
953 2 15.8497 150.426 20.8004
954 2 4.03554 150.234 21.0257
955 2 7.8512 150.332 20.9775
956 2 11.9917 150.405 20.926
957 2 15.8485 154.305 20.8185
958 2 3.98711 154.241 21.0536
959 2 7.85327 154.328 20.9038
960 2 11.9197 154.364 20.9827
961 2 0.0859601 158.241 24.8879
962 2 3.95179 158.229 24.8377
963 2 8.01383 158.3 24.8085
964 2 11.941 158.044 25.0373
965 2 15.9606 3.69666 24.894
966 2 4.06568 3.91436 24.802
967 2 7.91587 3.63929 24.9569
968 2 12.0059 3.78196 24.7723
969 2 15.9096 7.68095 24.8946
970 2 3.98525 7.53762 24.707
971 2 7.94504 7.76418 24.9237
972 2 11.8098 7.63197 24.8704
973 2 15.9111 11.6531 24.8379
974 2 4.01063 11.4948 24.6238
975 2 7.96316 11.5122 24.7597
976 2 11.771 11.6364 24.8024
977 2 0.201844 15.584 24.6411
978 2 3.99804 15.3954 24.7254
979 2 7.77661 15.4857 24.8155
980 2 11.9519 15.3617 24.746
981 2 -0.0123392 19.5382 24.6321
982 2 3.85514 19.3557 24.6879
983 2 7.72108 19.1317 24.5532
984 2 11.9742 19.3496 24.7029
985 2 0.0242058 23.3875 24.4663
986 2 4.04143 23.5284 24.5863
987 2 7.83998 23.1808 24.491
988 2 11.7996 23.2002 24.5481
989 2 -0.152454 27.3327 24.382
990 2 3.90566 27.3139 24.488
991 2 7.67185 27.1389 24.4441