ITEM: TIMESTEP
22300
ITEM: NUMBER OF ATOMS
32000
ITEM: BOX BOUNDS xy xz yz pp pp pp
0.0000000000000000e+00 1.5832000000000001e+01 0.0000000000000000e+00
0.0000000000000000e+00 1.5831999999999999e+02 0.0000000000000000e+00
8.0361944703960830e-01 1.6017349855295581e+02 0.0000000000000000e+00
ITEM: ATOMS id type x y z
1 2 16.0313 157.952 160.099
2 2 4.19387 157.916 160.131
3 2 8.25757 158.012 159.816
4 2 12.0181 157.888 160.022
5 2 -0.0136329 3.56515 159.992
6 2 4.01892 3.39487 160.077
7 2 8.19373 3.58956 160.051
8 2 12.0411 3.44719 159.963
9 2 16.0213 7.54589 160
10 2 4.06091 7.55037 159.943
11 2 7.9969 7.46674 159.994
12 2 11.9115 7.4072 160.054
13 2 15.7516 11.4992 160.007
14 2 4.11373 11.2922 159.852
15 2 7.95557 11.6669 159.769
16 2 12.0188 11.3433 159.677
17 2 -0.0141249 15.216 159.909
18 2 4.034 15.1515 160.058
19 2 7.97104 15.4055 159.859
20 2 11.9615 15.3537 159.897
21 2 16.0431 19.2976 159.87
22 2 4.11406 19.0871 159.858
23 2 8.2245 19.2083 159.885
24 2 12.1919 19.1423 159.851
25 2 15.9356 23.2942 159.638
26 2 4.06704 23.1054 159.883
27 2 7.85069 23.161 159.82
28 2 11.9923 22.9275 159.728
29 2 16.0842 27.0309 159.686
30 2 3.97761 27.1556 159.827
31 2 7.84572 27.2297 159.88
32 2 11.9957 27.0947 159.825
33 2 16.0379 31.0359 159.623
34 2 4.06205 31.1321 0.545283
35 2 7.90051 31.2504 160.06
36 2 11.925 31.1572 160.139
37 2 0.0940939 34.9965 159.894
38 2 4.16658 35.1857 159.934
39 2 7.97594 35.1994 159.896
40 2 11.9618 35.1213 159.906
41 2 0.174614 39.2981 160.111
42 2 4.23617 39.3477 0.779613
43 2 8.06869 39.3511 0.645651
44 2 11.8308 39.032 0.690485
45 2 0.105127 43.256 159.995
46 2 4.19434 43.1966 160.066
47 2 8.27789 43.3431 0.77402
48 2 12.1526 43.2102 0.81002
49 2 0.146502 47.1448 0.693958
50 2 4.02076 47.185 0.681897
51 2 7.89276 47.2532 0.730914
52 2 11.9834 47.4791 0.706665
53 2 0.251493 51.3857 0.666056
54 2 4.0781 51.2666 0.695243
55 2 8.00693 51.2885 0.910637
56 2 11.8523 51.3708 0.778076
57 2 15.7131 55.2227 1.01246
58 2 3.71369 55.285 0.927586
59 2 7.96574 55.3056 1.00379
60 2 11.8903 55.0656 0.754048
61 2 -0.00461139 59.212 0.878471
62 2 3.97594 59.2934 0.913972
63 2 7.92275 59.412 0.9642
64 2 11.8551 59.2441 0.964998
65 2 0.231441 63.1545 0.956548
66 2 4.09085 63.2665 1.03304
67 2 7.95441 63.3229 0.852941
68 2 12.0653 63.1847 1.0859
69 2 15.9125 67.1583 1.06243
70 2 4.26886 67.3843 1.1257
71 2 8.06247 67.4401 1.14585
72 2 11.9545 67.3096 0.949836
73 2 -0.21136 71.2714 1.12477
74 2 3.94262 71.3003 1.23994
75 2 8.00277 71.2754 1.11113
76 2 11.8655 71.2309 1.08974
77 2 -0.0443061 75.2182 1.24951
78 2 3.98281 75.2409 1.32437
79 2 7.89976 75.3335 1.17863
80 2 11.9953 75.4237 1.14518
81 2 -0.0305014 79.4045 1.48128
82 2 3.98827 79.4523 1.23144
83 2 8.05889 79.2749 1.3641
84 2 11.8571 79.3733 1.3324
85 2 0.0995266 83.373 1.31886
86 2 3.99361 83.3171 1.36236
87 2 7.94245 83.3917 1.41357
88 2 12.0683 83.477 1.33691
89 2 0.0799441 87.5467 1.42916
90 2 3.92663 87.5491 1.62288
91 2 7.81199 87.612 1.35663
92 2 11.9947 87.4913 1.35472
93 2 -0.0705171 91.3641 1.43765
94 2 4.03923 91.3956 1.41505
95 2 8.08724 91.302 1.60094
96 2 11.7568 91.3485 1.61251
97 2 15.9165 95.2283 1.55602
98 2 3.88583 95.3888 1.35597
99 2 7.73824 95.106 1.34561
100 2 11.9188 95.2287 1.43063
101 2 0.176049 99.2946 1.3722
102 2 4.2363 99.2077 1.43948
103 2 8.14061 99.0637 1.42752
104 2 11.9314 99.1287 1.42683
105 2 0.0588523 103.176 1.47104
106 2 3.92926 103.127 1.40936
107 2 7.88263 103.046 1.45551
108 2 11.9275 103.02 1.37941
109 2 0.0119683 107.226 1.24991
110 2 4.03654 107.096 1.41196
111 2 8.10147 107.169 1.2155
112 2 11.9422 106.95 1.26609
113 2 0.12408 111.211 1.33839
114 2 4.23891 111.021 1.23107
115 2 8.11949 111.081 1.53876
116 2 11.8925 111.101 1.31634
117 2 15.8637 114.973 1.23351
118 2 4.20118 114.771 1.16644
119 2 8.10163 114.958 1.26639
120 2 11.9934 114.976 1.20187
121 2 0.0327046 118.702 1.17244
122 2 3.7942 118.811 1.11992
123 2 7.70044 118.818 1.16461
124 2 11.9461 118.776 1.10673
125 2 15.8531 122.701 1.09052
126 2 4.05264 122.678 0.984139
127 2 7.8577 122.723 1.08258
128 2 11.9013 122.872 1.16183
129 2 0.0657672 126.7 1.06612
130 2 3.95265 126.689 1.03963
131 2 7.87368 126.766 0.965236
132 2 12.0104 126.75 1.04417
133 2 15.8635 130.812 0.859109
134 2 3.90333 130.778 1.13838
135 2 7.90256 130.61 0.965444
136 2 11.7561 130.761 1.10739
137 2 16.1034 134.534 0.815993
138 2 3.96835 134.557 1.07776
139 2 7.98414 134.439 160.274
140 2 11.8804 134.662 0.613326
141 2 -0.130769 138.537 0.938832
142 2 4.14626 138.369 160.314
143 2 8.07199 138.527 160.312
144 2 12.151 138.437 0.652226
145 2 15.8344 142.305 160.173
146 2 4.10693 142.242 160.307
147 2 7.95449 142.321 160.138
148 2 11.6768 142.334 160.011
149 2 0.164117 146.164 160.069
150 2 3.97384 146.195 160.15
151 2 8.01251 146.384 160.166
152 2 11.9346 146.218 160.085
153 2 15.6471 150.004 160.159
154 2 3.93369 150.22 159.956
155 2 7.98559 150.182 159.97
156 2 11.9898 150.015 0.798468
157 2 15.928 154.002 160.093
158 2 3.83799 153.989 159.99
159 2 7.98142 154.255 160.031
160 2 12.0158 154.125 160.022
161 2 16.0236 158.077 4.62206
162 2 4.09262 157.894 4.85797
163 2 8.07821 157.999 4.59633
164 2 11.8966 157.942 4.73073
165 2 0.337216 3.70576 4.63344
166 2 4.1842 3.44674 4.58663
167 2 8.12698 3.65229 4.65236
168 2 12.1294 3.48479 4.70486
169 2 0.192247 7.48363 4.62289
170 2 3.9997 7.4518 4.70737
171 2 7.87833 7.59076 4.71878
172 2 11.7875 7.38006 4.53223
173 2 0.0842226 11.5918 4.55147
174 2 4.01299 11.4108 4.51018
175 2 7.93137 11.4281 4.68852
176 2 11.791 11.2994 4.43227
177 2 15.902 15.2921 4.62718
178 2 4.01533 15.3848 4.67238
179 2 7.97803 15.2414 4.61874
180 2 11.9627 15.4496 4.48642
181 2 0.0959346 19.0923 4.53692
182 2 4.11387 19.2475 4.49499
183 2 8.03492 19.1455 4.54716
184 2 11.9714 19.0381 4.57391
185 2 -0.120719 23.1945 4.46281
186 2 4.10535 23.0088 4.49332
187 2 8.19105 23.263 4.31714
188 2 12.0357 23.0333 4.1988
189 2 15.8243 26.8887 4.2756
190 2 3.95434 27.159 4.21315
191 2 8.13621 27.2253 4.47899
192 2 12.0671 27.0478 4.38275
193 2 -0.000896398 31.0556 4.36082
194 2 3.9995 30.96 4.29844
195 2 7.97678 31.0129 4.5123
196 2 11.9451 31.0655 4.40252
197 2 0.0840292 35.0293 4.32801
198 2 4.02085 35.0459 4.63873
199 2 7.9755 34.9764 4.46635
200 2 11.9374 34.9843 4.4186
201 2 15.8827 39.0442 4.51028
202 2 3.99202 39.2889 4.7109
203 2 7.79828 38.9846 4.65428
204 2 11.9805 39.1545 4.63664
205 2 0.224618 43.1126 4.47469
206 2 4.22727 43.2084 4.6344
207 2 8.2104 43.142 4.68459
208 2 12.1421 43.1866 4.63286
209 2 0.201891 47.0395 4.59823
210 2 4.06601 47.1175 4.61308
211 2 8.18297 47.1802 4.75861
212 2 12.081 47.249 4.57992
213 2 -0.040472 51.1132 4.76375
214 2 3.99298 51.1674 4.70271
215 2 8.05217 51.2524 4.80403
216 2 12.0619 51.2074 4.77672
217 2 0.0192469 55.1669 4.93817
218 2 3.98493 55.1283 4.71702
219 2 8.01195 55.1688 4.87624
220 2 11.8461 55.1234 4.72702
221 2 15.9329 59.1392 4.73557
222 2 4.03925 59.1907 4.95402
223 2 7.87785 59.108 4.97454
224 2 11.8217 59.047 4.79792
225 2 0.156318 63.1943 5.0714
226 2 4.11565 63.2331 4.99768
227 2 8.05092 63.1275 4.85345
228 2 12.0073 63.2121 4.73897
229 2 15.8978 67.1267 5.10037
230 2 3.96817 67.1044 4.95951
231 2 8.02774 67.262 5.07965
232 2 11.97 67.2433 4.84716
233 2 15.8776 71.2902 5.13383
234 2 3.97052 71.2936 5.2384
235 2 7.94539 71.2844 5.0579
236 2 11.8454 71.305 5.17005
237 2 15.8142 75.2672 5.13134
238 2 3.85855 75.2758 5.1516
239 2 7.89221 75.3566 5.27028
240 2 11.7635 75.3763 5.0803
241 2 -0.130558 79.2429 5.4203
242 2 4.02835 79.2968 5.17913
243 2 7.81504 79.3966 5.17631
244 2 11.765 79.368 5.26191
245 2 15.8047 83.2407 5.26267
246 2 3.91229 83.3337 5.25747
247 2 8.0594 83.2171 5.43647
248 2 11.8028 83.5746 5.16598
249 2 -0.0364524 87.4915 5.579
250 2 3.69998 87.4701 5.25844
251 2 7.75588 87.3311 5.3228
252 2 11.8075 87.2923 5.31225
253 2 -0.090299 91.3827 5.56047
254 2 4.08728 91.3077 5.41248
255 2 7.94715 91.4297 5.35476
256 2 11.9213 91.2658 5.57188
257 2 15.9689 95.196 5.43921
258 2 4.12869 95.456 5.45148
259 2 7.95348 95.4159 5.63941
260 2 11.9174 95.2143 5.43031
261 2 0.107933 99.2108 5.41808
262 2 3.96793 99.4251 5.6021
263 2 7.87612 99.2484 5.40792
264 2 11.9495 99.1925 5.37213
265 2 -0.0456098 103.186 5.34563
266 2 3.88437 103.162 5.44264
267 2 7.9404 103.133 5.46116
268 2 11.8041 103.228 5.30047
269 2 16.0224 107.092 5.30181
270 2 4.20837 107.224 5.33158
271 2 8.04755 106.957 5.20038
272 2 11.8912 107.123 5.40182
273 2 15.8777 110.925 5.22537
274 2 4.01467 111.091 5.36024
275 2 7.8723 111.03 5.29885
276 2 11.8853 111.041 5.37604
277 2 -0.10237 114.783 5.13128
278 2 3.89541 115.036 5.26888
279 2 7.86455 115.045 5.16482
280 2 11.9347 115.061 5.25787
281 2 0.0690473 118.999 5.07919
282 2 3.98404 119.036 5.18033
283 2 7.86362 118.948 5.19252
284 2 11.6823 118.768 5.26571
285 2 16.0574 122.783 4.98713
286 2 4.07948 123.014 5.11918
287 2 7.95289 122.927 5.08727
288 2 11.8592 122.756 5.02233
289 2 -0.0445745 126.911 5.17149
290 2 4.0232 126.636 5.05646
291 2 8.08619 126.833 4.91828
292 2 12.0591 126.708 5.00282
293 2 -0.0230576 130.593 5.11797
294 2 3.94473 130.599 4.99387
295 2 7.98355 130.699 4.76181
296 2 12.1231 131.004 4.97895
297 2 15.7803 134.531 4.92801
298 2 4.06391 134.749 4.84798
299 2 8.00629 134.671 5.00108
300 2 11.966 134.562 4.98896
301 2 0.214683 138.524 4.95807
302 2 4.15746 138.343 4.6513
303 2 7.97777 138.447 5.05008
304 2 11.9459 138.455 4.82304
305 2 -0.0417837 142.205 4.85882
306 2 4.04876 142.363 4.98098
307 2 7.99898 142.319 4.9619
308 2 11.9247 142.396 4.99499
309 2 16.0332 146.239 4.6675
310 2 4.15953 146.265 4.65878
311 2 7.87378 146.407 4.69846
312 2 11.8196 146.034 4.79025
313 2 15.9323 150.16 4.72488
314 2 4.19072 150.199 4.71349
315 2 8.05433 150.386 4.80155
316 2 11.9696 150.16 5.03733
317 2 15.8349 154.035 4.64916
318 2 3.91163 154.024 4.73018
319 2 8.09894 153.951 4.6844
320 2 11.7725 154.111 4.64633
321 2 16.1208 158.005 8.77537
322 2 4.05044 158.023 8.82123
323 2 8.02218 157.977 8.66843
324 2 11.9864 157.92 8.63768
325 2 16.0498 3.52832 8.60753
326 2 4.12747 3.61764 8.74748
327 2 8.15153 3.57928 8.62718
328 2 12.0294 3.53882 8.78666
329 2 15.8651 7.36261 8.67431
330 2 4.13688 7.63212 8.65871
331 2 8.07228 7.42121 8.65462
332 2 11.9481 7.55759 8.62092
333 2 -0.052368 11.4101 8.5612
334 2 3.99361 11.4343 8.62228
335 2 8.00728 11.3416 8.63011
336 2 12.1194 11.4363 8.64889
337 2 15.8381 15.2725 8.71517
338 2 4.07305 15.481 8.50606
339 2 8.09032 15.2612 8.61907
340 2 12.0573 15.1921 8.5338
341 2 -0.0494111 19.1481 8.59152
342 2 4.00205 19.458 8.4148
343 2 7.99306 19.3654 8.45909
344 2 11.9293 19.0754 8.56654
345 2 -0.0227239 22.9787 8.5647
346 2 4.24218 23.2176 8.25297
347 2 8.19501 23.1738 8.35614
348 2 12.0571 22.9051 8.49429
349 2 0.322448 26.9273 8.43085
350 2 4.13863 27.0123 8.48166
351 2 8.03219 27.1128 8.45464
352 2 11.9505 27.0809 8.45788
353 2 0.177377 30.8521 8.29551
354 2 4.08466 30.9152 8.30791
355 2 7.9784 30.9644 8.1905
356 2 12.1213 30.8947 8.29231
357 2 15.8249 34.8766 8.50223
358 2 4.03574 34.9594 8.43043
359 2 8.29776 34.8921 8.42147
360 2 11.9435 35.1229 8.48977
361 2 0.297122 39.175 8.46287
362 2 3.96622 38.9998 8.46545
363 2 7.98856 38.8815 8.40626
364 2 12.0558 38.916 8.63005
365 2 0.0887535 42.9002 8.51859
366 2 3.99984 42.8671 8.65358
367 2 7.90566 42.9422 8.61053
368 2 12.0655 42.8668 8.55157
369 2 0.0498488 46.9466 8.4483
370 2 3.90676 47.1765 8.57122
371 2 8.02537 47.0035 8.49599
372 2 12.2329 47.1257 8.60395
373 2 15.9237 51.0981 8.71903
374 2 4.1034 51.0377 8.63225
375 2 7.94906 51.2715 8.5776
376 2 11.828 51.0092 8.66225
377 2 15.8165 54.936 8.74611
378 2 4.02789 55.0761 8.6738
379 2 8.1543 55.0076 8.7996
380 2 11.9775 55.0844 8.60989
381 2 -0.0238224 59.2094 8.69198
382 2 3.95934 59.0565 8.83915
383 2 8.15222 59.1191 8.83702
384 2 11.885 59.1738 8.86922
385 2 0.0143323 63.1797 8.75959
386 2 3.92018 63.2934 8.91464
387 2 7.92822 63.2834 8.81111
388 2 11.9239 63.0795 8.7114
389 2 15.8623 67.2151 8.88185
390 2 4.12904 67.2402 8.94638
391 2 8.01663 67.2751 8.85748
392 2 11.9382 67.0302 8.98729
393 2 15.7738 71.2234 8.83971
394 2 3.82052 71.2379 9.13272
395 2 7.90891 71.0833 9.10843
396 2 11.8346 71.2702 8.87392
397 2 15.6833 75.2969 9.27673
398 2 3.82869 75.2475 9.08164
399 2 7.79803 75.2885 9.07915
400 2 11.6628 75.2176 9.09522
401 2 15.6502 79.371 9.10423
402 2 3.88647 79.2901 9.11851
403 2 7.87481 79.3055 9.22017
404 2 11.6396 79.4217 9.1415
405 2 -0.161608 83.6206 9.31012
406 2 3.88597 83.3755 9.26258
407 2 7.96225 83.3922 9.28071
408 2 11.6956 83.2775 9.20874
409 2 0.219633 87.2888 9.40873
410 2 4.11134 87.4285 9.28553
411 2 7.91909 87.2793 9.39061
412 2 11.8596 87.3697 9.47552
413 2 0.00400357 91.4978 9.58883
414 2 4.07472 91.343 9.36043
415 2 8.30767 91.4514 9.21879
416 2 11.9898 91.2608 9.51853
417 2 15.7538 95.3621 9.48162
418 2 4.01226 95.3943 9.34768
419 2 8.0169 95.427 9.47044
420 2 11.8392 95.3441 9.46433
421 2 15.7842 99.4359 9.44108
422 2 3.85987 99.4393 9.3946
423 2 7.88532 99.0929 9.44383
424 2 11.7933 99.4262 9.45117
425 2 -0.0418192 103.3 9.29193
426 2 4.07396 103.164 9.41685
427 2 8.01508 103.248 9.54054
428 2 11.9939 103.34 9.42361
429 2 -0.0149475 107.065 9.14814
430 2 3.8678 107.186 9.37678
431 2 7.96682 107.041 9.29564
432 2 11.8053 107.177 9.42536
433 2 15.751 110.982 9.40531
434 2 3.88964 111.148 9.1887
435 2 7.85521 110.976 9.39461
436 2 11.8734 111.026 9.05665
437 2 -0.101631 114.87 9.26652
438 2 3.91491 115.189 9.24294
439 2 7.90012 114.968 9.20049
440 2 11.8987 114.729 9.31041
441 2 -0.164909 118.902 9.22899
442 2 3.9457 118.998 9.13111
443 2 7.96516 119.096 9.20197
444 2 11.7673 118.713 9.19179
445 2 15.8502 122.7 8.91938
446 2 3.96343 122.757 9.02916
447 2 7.98575 122.888 9.09977
448 2 11.9924 122.988 9.0497
449 2 15.7731 126.96 8.93908
450 2 3.91281 126.782 9.15421
451 2 7.91569 126.708 8.78272
452 2 11.8491 126.72 8.96993
453 2 0.221187 130.96 9.03469
454 2 4.20609 130.535 8.99489
455 2 7.97449 130.596 9.0319
456 2 11.8851 130.612 9.14428
457 2 0.215439 134.748 9.0133
458 2 4.20724 134.581 8.83704
459 2 8.03235 134.802 8.9522
460 2 11.9426 134.632 9.07878
461 2 -0.0166346 138.52 9.0183
462 2 3.89192 138.547 8.88952
463 2 8.06521 138.58 8.9342
464 2 11.8745 138.594 9.0307
465 2 0.280584 142.434 8.79139
466 2 4.13289 142.679 8.94509
467 2 8.00493 142.353 8.88931
468 2 11.9378 142.513 8.85536
469 2 15.9632 146.507 8.66856
470 2 3.90161 146.461 8.69171
471 2 7.69456 146.332 8.88125
472 2 12.0773 146.288 8.71966
473 2 15.6994 150.241 8.75577
474 2 4.1578 150.28 8.96601
475 2 8.02064 150.139 8.85
476 2 11.9061 150.216 8.73008
477 2 15.6098 154.309 8.64489
478 2 3.97841 154.185 8.78713
479 2 8.04505 154.084 8.7961
480 2 11.845 154.037 8.81456
481 2 16.0709 158.063 12.8519
482 2 4.13757 158.153 12.7198
483 2 8.15925 158.09 12.6357
484 2 12.1991 157.916 12.8943
485 2 16.028 3.65202 12.7726
486 2 4.18494 3.64948 12.7942
487 2 7.99497 3.71103 12.6829
488 2 11.9397 3.47445 12.6338
489 2 16.1921 7.32082 12.7817
490 2 4.16975 7.70364 12.6783
491 2 8.11742 7.50736 12.539
492 2 12.0895 7.49406 12.6385
493 2 0.204227 11.4387 12.3771
494 2 4.06865 11.2552 12.5776
495 2 8.17729 11.3516 12.6065
496 2 11.9662 11.3535 12.5614
497 2 0.135073 15.2651 12.7079
498 2 3.93379 15.2207 12.5815
499 2 7.79115 15.3443 12.5978
500 2 11.7674 15.2854 12.5887
501 2 -0.0299406 19.0688 12.3354
502 2 4.061 19.2411 12.549
503 2 7.82817 19.189 12.3322
504 2 11.7548 19.1712 12.5237
505 2 -0.00715223 23.006 12.6454
506 2 3.97511 23.1171 12.587
507 2 7.86415 23.1824 12.4265
508 2 11.7918 23.0337 12.6023
509 2 0.271949 27.0691 12.2926
510 2 4.10429 27.1226 12.4369
511 2 7.98877 27.1829 12.4125
512 2 11.8704 27.0809 12.4682
513 2 -0.0734264 30.9892 12.3313
514 2 3.93201 31.068 12.4477
515 2 7.98868 30.9817 12.2446
516 2 12.0432 30.9165 12.3941
517 2 0.19193 34.9348 12.5167
518 2 4.11027 34.8773 12.1595
519 2 8.20475 34.7695 12.3753
520 2 11.8054 34.8746 12.3495
521 2 0.0987961 38.8097 12.4291
522 2 4.07015 38.8714 12.3787
523 2 8.06275 38.8921 12.376
524 2 12.0458 38.8834 12.5933
525 2 0.190793 42.8887 12.3466
526 2 4.24021 43.2091 12.6062
527 2 8.14343 43.0433 12.5171
528 2 11.9093 42.9482 12.3885
529 2 0.000768036 47.0483 12.5057
530 2 4.16568 47.0135 12.3617
531 2 8.06254 46.9058 12.4463
532 2 12.0988 47.0737 12.5197
533 2 0.185823 51.1402 12.6693
534 2 4.24182 51.0585 12.7074
535 2 8.17683 50.9865 12.5054
536 2 11.8363 50.8448 12.6251
537 2 15.9449 55.0696 12.5167
538 2 4.02001 55.2651 12.4734
539 2 8.07783 55.142 12.5814
540 2 12.1615 55.1462 12.9037
541 2 15.8107 59.1952 12.6727
542 2 4.09438 59.0972 12.7053
543 2 7.88296 59.123 12.5802
544 2 12.0509 59.2057 12.7818
545 2 15.9784 63.1011 12.7677
546 2 4.06072 63.0027 12.5067
547 2 7.86061 63.1863 12.8751
548 2 11.9181 62.9874 12.7586
549 2 -0.128767 67.174 12.9459
550 2 3.85248 67.1488 13.0234
551 2 8.03529 67.2036 12.9482
552 2 11.8439 67.2151 12.9008
553 2 -0.0449919 71.1847 12.7826
554 2 3.94027 71.2303 12.7886
555 2 7.85376 71.0807 13.029
556 2 11.6938 71.2483 12.7635
557 2 -0.258614 75.3779 13.0287
558 2 3.94285 75.1993 13.1345
559 2 7.85383 75.267 13.1054
560 2 11.5778 75.3808 12.8698
561 2 0.0911026 79.1672 13.1749
562 2 3.91959 79.2197 13.0338
563 2 7.92863 79.196 13.1739
564 2 11.9056 79.2667 12.9474
565 2 -0.0043174 83.0935 13.2138
566 2 3.91067 83.001 13.1036
567 2 8.00113 83.3777 13.2588
568 2 11.8221 83.1527 13.3288
569 2 0.146049 87.2552 13.3109
570 2 3.98516 87.237 13.1784
571 2 7.85306 87.3156 13.3138
572 2 12.1029 87.3194 13.2289
573 2 0.129611 91.1899 13.3937
574 2 4.11571 91.0989 13.1714
575 2 7.97821 91.5095 13.4663
576 2 11.8824 91.2886 13.4376
577 2 0.098514 95.2624 13.189
578 2 4.11384 95.2626 13.0726
579 2 7.93174 95.2208 13.5615
580 2 12.0224 95.3943 13.4515
581 2 -0.00652164 99.2918 13.4395
582 2 3.82734 99.1376 13.45
583 2 7.864 99.0654 13.2386
584 2 11.7274 99.3845 13.5741
585 2 0.16685 103.298 13.4532
586 2 4.04557 103.208 13.4376
587 2 7.93492 103.228 13.382
588 2 11.9099 103.264 13.6191
589 2 0.140266 107.172 13.3833
590 2 3.84396 107.303 13.4203
591 2 7.6889 107.136 13.3342
592 2 11.8914 107.13 13.4508
593 2 -0.205288 111.113 13.3169
594 2 3.89098 111.171 13.2864
595 2 7.87314 111.191 13.211
596 2 11.9425 111.194 13.1051
597 2 0.135727 115.095 13.1308
598 2 4.00374 115.018 13.1384
599 2 7.81979 114.889 13.2746
600 2 12.1111 114.905 13.0287
601 2 -0.110655 119.174 13.2979
602 2 3.86927 119.046 13.1639
603 2 7.86398 118.958 13.2949
604 2 11.8077 118.975 13.2698
605 2 0.0154024 122.98 13.0251
606 2 3.90394 122.98 13.0901
607 2 8.01255 122.886 13.0553
608 2 11.6735 122.969 12.9862
609 2 0.0270872 126.852 13.0891
610 2 3.89946 126.862 12.9122
611 2 7.82452 126.678 13.2668
612 2 11.9674 126.934 13.0943
613 2 16.0942 130.837 13.0614
614 2 4.29037 130.791 12.9099
615 2 8.12974 130.701 13.1737
616 2 11.9739 130.826 13.1517
617 2 15.9716 134.711 13.1204
618 2 4.04151 134.794 12.9574
619 2 7.82676 134.561 12.9243
620 2 12.0567 134.575 12.9471
621 2 0.0381546 138.606 12.9081
622 2 4.02145 138.537 12.912
623 2 8.0504 138.474 12.9919
624 2 11.9323 138.415 12.9484
625 2 15.942 142.361 12.8049
626 2 3.98421 142.485 12.9826
627 2 7.99842 142.362 12.9389
628 2 12.0625 142.574 12.6631
629 2 -0.00149488 146.305 12.9375
630 2 3.99106 146.234 13.0247
631 2 7.9649 146.498 12.8663
632 2 11.9731 146.217 13.0183
633 2 0.301122 150.274 12.8016
634 2 4.21866 150.567 12.8017
635 2 7.91909 150.092 12.7369
636 2 11.8216 150.308 12.7688
637 2 16.0429 154.327 12.8567
638 2 4.07404 154.241 12.8858
639 2 7.91162 154.192 12.9124
640 2 11.8381 154.093 12.7983
641 2 0.0633769 158.188 16.8292
642 2 4.17857 -0.0217205 16.7866
643 2 8.03393 158.209 16.7516
644 2 12.0271 158.217 16.9027
645 2 15.9352 3.76784 16.8218
646 2 3.91102 3.85927 16.7613
647 2 8.04953 3.69092 16.8607
648 2 11.9708 3.79033 16.5939
649 2 0.01129 7.38031 16.7265
650 2 3.94673 7.7915 16.7231
651 2 8.26081 7.58339 16.5865
652 2 11.9806 7.65678 16.8241
653 2 0.0679674 11.612 16.6947
654 2 3.91426 11.383 16.6981
655 2 7.99999 11.3962 16.6103
656 2 11.7914 11.7313 16.7018
657 2 -0.193431 15.3914 16.4015
658 2 3.91147 15.4623 16.5608
659 2 7.93869 15.2919 16.6291
660 2 11.9091 15.4335 16.7805
661 2 15.7404 19.4098 16.5638
662 2 3.99534 19.2553 16.6735
663 2 8.02797 19.3827 16.4173
664 2 11.8653 19.4104 16.5561
665 2 0.0558966 23.2137 16.5429
666 2 3.93882 23.2384 16.5115
667 2 7.69762 23.2411 16.6385
668 2 11.8066 23.3417 16.41
669 2 -0.0133487 27.2478 16.4822
670 2 3.93416 27.1963 16.5105
671 2 7.89161 27.0851 16.5172
672 2 11.7266 27.142 16.4024
673 2 -0.0759057 31.0109 16.5204
674 2 4.00303 31.1242 16.545
675 2 7.87583 31.1791 16.3095
676 2 11.8274 30.9351 16.4148
677 2 -0.0306995 35.0036 16.3242
678 2 3.91469 34.8193 16.3838
679 2 7.87258 35.2551 16.4043
680 2 11.697 35.0403 16.0844
681 2 -0.0208911 38.8643 16.3406
682 2 3.78316 39.0938 16.4733
683 2 7.90548 38.84 16.3614
684 2 11.8115 39.0709 16.2777
685 2 0.109682 42.8256 16.2508
686 2 4.22528 42.9518 16.4584
687 2 7.84203 43.0218 16.3683
688 2 12.0317 43.1543 16.1798
689 2 16.0272 46.9189 16.3893
690 2 4.06829 47.0481 16.3891
691 2 8.03062 47.0761 16.5692
692 2 12.0921 46.9915 16.281
693 2 0.172563 51.1983 16.4409
694 2 4.15395 51.0015 16.4852
695 2 7.87651 50.9796 16.5451
696 2 11.8806 50.8236 16.6579
697 2 0.302979 55.1056 16.4389
698 2 4.16942 55.1079 16.7403
699 2 8.20852 54.8475 16.4226
700 2 12.0939 55.0271 16.4688
701 2 0.103742 58.997 16.5701
702 2 4.1285 59.0272 16.6551
703 2 8.07898 59.0371 16.6575
704 2 11.8988 59.0736 16.5981
705 2 0.271388 63.0083 16.6617
706 2 4.08633 63.1795 16.6143
707 2 8.12613 63.2261 16.7601
708 2 12.0493 62.9807 16.8359
709 2 -0.173347 67.0458 16.7598
710 2 3.90494 67.1553 16.7571
711 2 7.95779 67.0065 16.8793
712 2 11.9539 66.9451 16.7612
713 2 -0.0632596 71.2309 16.7991
714 2 3.98226 71.0361 16.6522
715 2 7.88272 71.173 16.9286
716 2 12.0018 71.1646 16.6913
717 2 -0.247137 75.2471 16.9279
718 2 3.89116 75.068 16.8429
719 2 7.73668 75.107 17.0026
720 2 11.7931 75.1996 16.8458
721 2 -0.0393643 79.058 17.0726
722 2 4.12346 79.1347 16.9801
723 2 7.85101 79.2328 16.9922
724 2 11.8308 79.3335 17.1039
725 2 -0.0858237 83.1859 17.1292
726 2 3.91592 83.1164 17.1909
727 2 7.70295 83.2887 16.9767
728 2 11.6535 83.1019 17.0255
729 2 0.037814 87.1773 17.1746
730 2 3.79871 87.2631 17.4451
731 2 7.90286 87.1989 17.0929
732 2 11.6786 87.3762 17.1103
733 2 -0.141023 91.3849 17.2863
734 2 3.66143 91.2301 17.1993
735 2 7.87625 91.2016 17.3328
736 2 12.045 91.3194 17.1142
737 2 0.149241 95.082 17.1341
738 2 4.06011 95.2129 17.2753
739 2 8.04726 95.2676 17.2985
740 2 11.9501 95.2891 17.3616
741 2 0.0135689 99.1065 17.3079
742 2 3.89407 99.1023 17.225
743 2 7.90705 99.2676 17.3172
744 2 11.952 99.3311 17.2956
745 2 -0.0172324 103.262 17.4598
746 2 3.90846 103.182 17.4877
747 2 7.93297 103.324 17.3869
748 2 11.8087 103.166 17.4595
749 2 -0.262921 107.171 17.3359
750 2 3.71959 107.092 17.5048
751 2 7.84551 107.221 17.4485
752 2 11.8303 106.938 17.3306
753 2 -0.00404144 111.103 17.2985
754 2 4.01948 111.192 17.4699
755 2 8.00582 111.176 17.189
756 2 11.7597 111.193 17.3243
757 2 -0.157684 115.229 16.9849
758 2 3.78504 115.124 17.2068
759 2 7.84148 115 17.4238
760 2 11.8326 115.085 17.2778
761 2 0.0243632 119.008 17.1559
762 2 4.11789 119.081 17.1643
763 2 7.90166 118.868 17.1504
764 2 11.7143 118.968 17.1011
765 2 0.254233 122.886 17.2372
766 2 4.04507 122.911 17.1464
767 2 8.13832 122.762 17.2291
768 2 11.9269 122.944 17.0501
769 2 16.008 126.668 17.0589
770 2 4.14132 126.803 17.0278
771 2 8.08567 126.7 17.4173
772 2 12.126 126.902 17.0651
773 2 16.1633 130.578 17.0053
774 2 4.12701 130.759 17.0157
775 2 8.0717 130.704 16.9763
776 2 12.0978 130.697 17.1133
777 2 16.0115 134.565 16.8748
778 2 4.11589 134.678 16.974
779 2 8.06704 134.797 17.0545
780 2 11.8425 134.657 16.9948
781 2 -0.0596681 138.291 16.8762
782 2 3.96312 138.524 17.0028
783 2 8.01679 138.679 17.0419
784 2 11.9608 138.451 16.9326
785 2 15.9946 142.417 16.9037
786 2 4.11365 142.478 17.166
787 2 8.07869 142.474 17.0376
788 2 12.0464 142.524 16.9449
789 2 15.9387 146.465 16.8579
790 2 4.19441 146.237 16.8513
791 2 8.02058 146.298 16.9097
792 2 12.0099 146.362 17.0981
793 2 15.8661 150.207 16.6114
794 2 4.10995 150.312 16.904
795 2 7.97563 150.336 16.8954
796 2 11.8481 150.239 16.858
797 2 15.8126 154.358 16.7902
798 2 4.04691 154.208 16.9565
799 2 8.2312 154.206 16.9471
800 2 11.9865 154.143 16.8539
801 2 15.978 158.082 20.8816
802 2 3.99456 158.276 20.7386
803 2 8.04118 158.109 20.8301
804 2 11.8932 158.146 20.7795
805 2 0.101276 3.5913 20.8826
806 2 4.05381 3.67774 20.7744
807 2 7.92487 3.93623 20.9782
808 2 11.6915 3.75765 20.9165
809 2 15.6889 7.74264 20.7425
810 2 3.932 7.7932 20.7336
811 2 8.06422 7.67711 20.7603
812 2 11.8084 7.56409 20.9728
813 2 15.8483 11.5724 20.7391
814 2 3.99574 11.4891 20.633
815 2 7.96427 11.4447 20.6691
816 2 11.8698 11.3682 20.7478
817 2 15.7472 15.4045 20.761
818 2 3.885 15.5229 20.401
819 2 7.81891 15.3583 20.6611
820 2 11.9202 15.3274 20.6839
821 2 -0.0562754 19.2945 20.6787
822 2 3.9342 19.3333 20.5312
823 2 7.87508 19.2653 20.5532
824 2 11.7967 19.2751 20.7143
825 2 0.0679879 23.342 20.7145
826 2 3.92362 23.1744 20.5906
827 2 7.86538 23.4496 20.4137
828 2 11.9045 23.2202 20.526
829 2 15.7704 27.1754 20.4049
830 2 3.81208 27.1631 20.4343
831 2 7.75752 27.2911 20.3208
832 2 11.8912 27.1425 20.4609
833 2 15.736 31.2307 20.4659
834 2 4.02136 31.1792 20.4712
835 2 8.05861 31.4236 20.4321
836 2 11.8045 31.2321 20.4597
837 2 15.7111 35.0671 20.4145
838 2 3.82823 34.9538 20.3931
839 2 7.88819 35.105 20.4603
840 2 11.8637 35.0833 20.1435
841 2 -0.0880109 38.7842 20.1864
842 2 3.98287 38.9608 20.4714
843 2 7.99285 38.9744 20.1327
844 2 11.8557 39.0553 20.2449
845 2 15.8321 42.8296 20.4059
846 2 3.99191 42.7892 20.4037
847 2 7.83637 42.9699 20.3616
848 2 11.9382 42.8508 20.3056
849 2 15.8018 46.8544 20.4454
850 2 3.81361 46.9284 20.3638
851 2 8.01243 46.8866 20.3638
852 2 11.8918 46.7901 20.1409
853 2 -0.117682 51.0694 20.4386
854 2 3.76627 51.0513 20.27
855 2 7.73437 50.9378 20.3011
856 2 12.0643 50.8204 20.3378
857 2 -0.300785 54.9255 20.5602
858 2 4.06513 54.9545 20.4354
859 2 7.86284 54.9361 20.4082
860 2 11.8559 54.9488 20.442
861 2 15.9537 58.8666 20.4688
862 2 4.07742 58.988 20.7574
863 2 7.96389 58.953 20.546
864 2 11.6762 58.8354 20.6682
865 2 15.8077 63.1021 20.6289
866 2 4.00089 62.9049 20.5765
867 2 8.05444 62.9952 20.7249
868 2 11.8776 62.8125 20.6988
869 2 0.154817 66.8801 20.6199
870 2 3.8907 67.0304 20.5033
871 2 7.92291 66.9377 20.638
872 2 11.9704 66.8557 20.6147
873 2 0.0357044 71.1235 20.8969
874 2 3.8051 70.955 20.6389
875 2 7.77593 71.1348 20.5237
876 2 11.9208 71.0792 20.6733
877 2 -0.201863 75.14 20.818
878 2 3.74607 75.1118 20.668
879 2 7.72508 75.1986 20.8442
880 2 11.786 74.8535 20.9476
881 2 -0.0473407 79.1498 21.0361
882 2 3.94581 79.0327 21.0896
883 2 7.72581 79.2758 21.0392
884 2 11.7501 79.1199 21.0333
885 2 -0.216937 83.1674 21.0646
886 2 3.7983 83.1237 21.0895
887 2 7.70884 83.2452 21.1223
888 2 11.733 83.3262 20.8945
889 2 0.00143517 87.205 21.1747
890 2 3.88088 87.1188 21.1136
891 2 7.58395 87.1938 21.1174
892 2 11.7195 87.0782 20.9464
893 2 -0.25542 91.1253 21.0526
894 2 3.92319 91.114 21.2769
895 2 7.90751 90.9953 21.2625
896 2 11.8396 91.2413 20.9853
897 2 0.104135 95.062 21.0047
898 2 4.02869 95.0889 21.2895
899 2 7.87236 95.0964 21.136
900 2 11.8705 95.2108 21.3386
901 2 -0.100761 99.2511 21.2234
902 2 4.05618 99.0797 20.9365
903 2 8.08588 99.1638 21.2311
904 2 11.8314 98.9991 21.2362
905 2 -0.0140325 103.218 21.339
906 2 4.00193 103.221 21.4588
907 2 7.81208 103.387 21.1995
908 2 11.925 103.386 21.5237
909 2 0.0224228 107.194 21.4373
910 2 3.90481 107.437 21.2573
911 2 7.90999 107.444 21.2828
912 2 11.961 107.316 21.4356
913 2 -0.0101021 111.337 21.399
914 2 3.71124 111.246 21.3196
915 2 7.90357 111.286 21.3832
916 2 11.948 111.229 21.1677
917 2 15.7686 114.993 21.1501
918 2 3.87992 115.194 21.4169
919 2 7.80475 115.046 21.3554
920 2 11.9136 115.082 21.304
921 2 0.0588006 119.08 21.2235
922 2 3.91815 119.152 21.2312
923 2 7.93233 118.948 21.2126
924 2 11.9457 119.015 21.2768
925 2 15.7834 122.986 21.4608
926 2 3.96983 122.988 21.2736
927 2 8.09014 122.895 21.1987
928 2 11.9548 123.075 21.1587
929 2 16.0506 126.849 21.1056
930 2 4.2183 126.972 21.2427
931 2 7.99001 126.804 21.192
932 2 11.8902 127.053 21.0522
933 2 15.9517 130.826 21.0964
934 2 4.15567 130.995 21.0019
935 2 7.94007 130.792 21.0846
936 2 11.921 130.788 21.1945
937 2 0.00634291 134.629 21.1301
938 2 4.054 134.762 21.2002
939 2 8.16601 134.754 20.9421
940 2 11.673 134.568 20.97
941 2 15.8407 138.686 21.2445
942 2 4.00792 138.472 20.9371
943 2 7.9689 138.606 21.059
944 2 12.0403 138.705 20.9156
945 2 15.8571 142.461 21.0719
946 2 4.04064 142.271 20.9681
947 2 7.94895 142.467 21.0098
948 2 11.9285 142.544 20.9551
949 2 15.8212 146.523 20.9066
950 2 4.05085 146.386 20.9662
951 2 8.12191 146.534 21.0358
952 2 12.0168 146.433 21.0704
953 2 15.9013 150.387 20.9328
954 2 4.05693 150.358 20.8368
955 2 8.20995 150.353 20.9175
956 2 11.8845 150.246 20.8825
957 2 15.9526 154.103 20.8932
958 2 4.03389 154.222 20.8798
959 2 8.05571 154.09 20.958
960 2 11.9935 154.263 20.8277
961 2 0.0291461 158.037 25.0034
962 2 4.04039 158.257 25.0381
963 2 7.6842 158.135 25.0079
964 2 11.9123 158.235 24.7828
965 2 15.8546 3.73225 24.8248
966 2 3.84833 3.69282 24.9568
967 2 7.87638 3.96353 24.8605
968 2 11.9227 3.78249 24.9596
969 2 15.8337 7.76102 24.707
970 2 3.94996 7.7755 24.9979
971 2 7.88691 7.59298 24.9173
972 2 12.186 7.69323 24.8329
973 2 15.9857 11.6411 24.734
974 2 3.97395 11.7347 24.7327
975 2 7.8718 11.6169 24.8109
976 2 11.8711 11.353 24.7732
977 2 0.0253138 15.4498 24.8125
978 2 3.96057 15.4488 24.6016
979 2 8.11334 15.4774 24.571
980 2 11.924 15.2573 24.6376
981 2 -0.105113 19.5045 24.6344
982 2 4.03428 19.239 24.6238
983 2 8.06781 19.4764 24.7576
984 2 11.8605 19.2211 24.6644
985 2 -0.0380487 23.3058 24.6896
986 2 3.85179 23.1714 24.5345
987 2 7.8855 23.1785 24.5373
988 2 11.6742 23.6204 24.462
989 2 0.21106 27.1749 24.61
990 2 3.97795 27.2837 24.4659
991 2 8.03441 27.396 24.5392