ITEM: TIMESTEP
22500
ITEM: NUMBER OF ATOMS
32000
ITEM: BOX BOUNDS xy xz yz pp pp pp
0.0000000000000000e+00 1.5832000000000001e+01 0.0000000000000000e+00
0.0000000000000000e+00 1.5831999999999999e+02 0.0000000000000000e+00
8.0335151360308998e-01 1.6017376648639254e+02 0.0000000000000000e+00
ITEM: ATOMS id type x y z
1 2 15.8926 157.904 160.026
2 2 4.06463 158.17 159.854
3 2 7.89082 157.855 160.061
4 2 11.8889 158.046 160.07
5 2 0.0416721 3.33777 159.783
6 2 3.80681 3.54368 159.752
7 2 8.0379 3.46787 159.947
8 2 11.9902 3.61224 159.91
9 2 15.9651 7.35184 159.717
10 2 4.0062 7.4356 160.069
11 2 8.00693 7.32323 159.858
12 2 11.9283 7.44 160.008
13 2 15.8826 11.3797 159.981
14 2 4.03544 11.4233 159.887
15 2 7.82401 11.1675 159.851
16 2 12.1771 11.3815 160.123
17 2 0.00660335 15.2133 159.869
18 2 4.12488 15.4007 159.67
19 2 7.99912 15.1707 159.864
20 2 11.894 15.2591 159.916
21 2 15.6871 18.9592 159.865
22 2 4.01091 19.0577 159.891
23 2 7.93639 18.9935 159.742
24 2 11.7852 19.2688 159.726
25 2 15.9271 23.1057 159.97
26 2 3.98586 23.1257 159.812
27 2 8.08462 22.9675 159.955
28 2 12.1378 22.9779 159.795
29 2 15.7812 26.9598 159.865
30 2 3.87458 27.1901 159.89
31 2 8.18897 27.0514 159.84
32 2 11.9504 26.9554 159.859
33 2 15.9624 31.0644 160.008
34 2 3.94983 30.9952 0.494858
35 2 7.95191 31.096 159.83
36 2 11.7794 31.0015 159.796
37 2 -0.051222 34.9956 160.068
38 2 4.06416 35.0176 159.81
39 2 7.8928 34.986 159.877
40 2 11.9344 35.1405 160.113
41 2 -0.0305078 39.0933 159.917
42 2 3.86365 39.1335 0.636775
43 2 8.12068 39.0893 0.521352
44 2 12.1724 39.283 0.474256
45 2 -0.0749316 43.2186 160.077
46 2 3.76204 43.1459 160.15
47 2 7.69076 43.0743 0.582939
48 2 12.015 43.0342 0.538916
49 2 0.0206448 47.1045 0.790166
50 2 4.00294 47.3033 0.843108
51 2 8.14926 47.1496 0.627631
52 2 12.0252 46.9744 0.796821
53 2 -0.0377914 51.2473 0.773437
54 2 3.89067 51.3021 0.638415
55 2 8.06155 51.1637 0.762867
56 2 12.0679 51.2743 0.719929
57 2 16.0131 55.1277 0.731286
58 2 4.18813 55.1192 0.79321
59 2 8.09961 55.1874 0.933136
60 2 11.8726 55.2672 1.03715
61 2 0.135813 59.2617 0.97479
62 2 4.02857 59.1741 0.988917
63 2 8.03164 59.2537 0.852931
64 2 11.8942 59.2588 0.949139
65 2 0.0512717 63.3102 0.924659
66 2 4.04484 63.26 0.911892
67 2 8.0197 63.2453 1.14841
68 2 11.8812 63.3378 0.86606
69 2 15.9058 67.2878 1.11086
70 2 3.86851 67.2374 0.89209
71 2 7.90048 67.1788 1.10094
72 2 11.7737 67.388 1.18984
73 2 -0.0403501 71.3586 1.0313
74 2 4.11178 71.3524 1.12394
75 2 7.86921 71.2694 1.07815
76 2 11.8534 71.3715 1.18896
77 2 -0.00650421 75.3476 1.33645
78 2 4.02188 75.4753 1.49921
79 2 7.91901 75.5121 1.14114
80 2 11.8334 75.4848 1.2649
81 2 0.138994 79.4599 1.25181
82 2 4.09023 79.5205 1.34153
83 2 7.77081 79.3254 1.45427
84 2 11.8322 79.4235 1.42227
85 2 0.0190604 83.435 1.45201
86 2 3.82037 83.5147 1.51406
87 2 7.74046 83.3595 1.57461
88 2 11.9371 83.3005 1.47763
89 2 -0.123679 87.2889 1.40493
90 2 3.91699 87.3849 1.46703
91 2 8.07499 87.3614 1.55855
92 2 11.8403 87.328 1.53194
93 2 0.0552232 91.3153 1.60829
94 2 3.81187 91.3832 1.49641
95 2 7.98232 91.286 1.57423
96 2 11.9884 91.3315 1.47725
97 2 15.6962 95.2142 1.36737
98 2 4.02814 95.2845 1.28784
99 2 8.13576 95.3637 1.31913
100 2 11.8439 95.2608 1.39283
101 2 0.0194377 99.1031 1.51439
102 2 3.89046 99.1092 1.35985
103 2 7.84501 99.3743 1.55635
104 2 12.0015 99.4526 1.26581
105 2 0.0869186 103.065 1.2083
106 2 4.10695 103.169 1.18674
107 2 8.02906 103.205 1.46259
108 2 12.0106 103.099 1.29494
109 2 0.0748629 106.952 1.3344
110 2 3.95806 107.025 1.35227
111 2 7.87927 106.947 1.35833
112 2 11.9138 107.081 1.20772
113 2 0.0617557 110.862 1.21766
114 2 3.83814 110.905 1.27495
115 2 7.78111 110.84 1.27481
116 2 11.8868 111.118 1.23635
117 2 15.8472 114.927 1.2092
118 2 3.95528 114.825 1.40589
119 2 7.99911 114.926 1.13545
120 2 11.9715 114.699 1.31359
121 2 0.139052 118.82 1.22962
122 2 4.15142 118.862 1.1385
123 2 8.07608 118.915 1.12404
124 2 12.194 118.725 1.13717
125 2 15.8682 122.783 1.03808
126 2 4.10355 122.623 0.928856
127 2 7.81461 122.69 1.19003
128 2 12.0439 122.754 1.04994
129 2 0.0247535 126.731 1.13239
130 2 4.08596 126.569 1.08009
131 2 7.90341 126.474 1.18171
132 2 11.9131 126.46 0.998787
133 2 15.9561 130.443 1.07431
134 2 4.07946 130.415 0.699341
135 2 8.07241 130.694 1.08625
136 2 11.9443 130.506 0.920591
137 2 15.7905 134.395 1.06482
138 2 4.07343 134.482 0.994428
139 2 7.97048 134.394 160.264
140 2 12.1022 134.269 1.02714
141 2 0.0957263 138.417 0.939346
142 2 3.96672 138.58 160.314
143 2 7.78282 138.222 160.282
144 2 11.9837 138.454 0.879027
145 2 15.9508 142.255 160.264
146 2 4.15239 142.221 160.199
147 2 8.1305 142.272 160.105
148 2 12.1004 142.274 160.137
149 2 0.138203 146.268 160.094
150 2 3.97391 146.24 160.295
151 2 8.07924 146.107 160.148
152 2 11.9497 146.182 160.206
153 2 16.0494 150.18 160.14
154 2 4.14123 150.288 160.243
155 2 7.8217 149.857 160.084
156 2 11.8394 150.197 0.55908
157 2 15.8821 154.057 160.053
158 2 4.12787 154.047 159.945
159 2 8.19086 153.961 160.091
160 2 11.7981 154.195 160.055
161 2 15.986 157.821 4.58793
162 2 3.99041 158.271 4.63005
163 2 8.04187 157.889 4.75073
164 2 11.8898 158.029 4.7555
165 2 -0.024301 3.52081 4.65324
166 2 3.97877 3.7449 4.55849
167 2 7.93959 3.5031 4.45942
168 2 11.8359 3.61566 4.65088
169 2 0.11165 7.40173 4.60048
170 2 4.0983 7.47919 4.64994
171 2 8.04863 7.43381 4.59544
172 2 12.0591 7.55487 4.63087
173 2 0.162434 11.2878 4.45848
174 2 4.1362 11.292 4.58314
175 2 8.02101 11.4325 4.60132
176 2 11.9098 11.4127 4.62346
177 2 15.8229 15.3047 4.49538
178 2 3.98483 15.1127 4.60189
179 2 7.90005 15.5871 4.52389
180 2 12.088 15.2496 4.6027
181 2 -0.0269514 19.1752 4.4527
182 2 4.02568 19.0703 4.62451
183 2 7.97998 19.114 4.40934
184 2 11.9742 19.0815 4.56847
185 2 0.119945 23.0564 4.39519
186 2 3.94799 23.1281 4.17435
187 2 7.68736 23.0857 4.6083
188 2 12.0305 23.05 4.52621
189 2 16.0469 27.0575 4.6243
190 2 3.99115 27.1791 4.34762
191 2 7.74319 27.002 4.36961
192 2 11.7651 27.0273 4.46235
193 2 0.0591654 30.9814 4.36521
194 2 4.22914 30.9766 4.31808
195 2 8.0041 30.9262 4.46923
196 2 11.8894 31.0032 4.42336
197 2 0.0532286 35.0664 4.61551
198 2 4.1318 35.0975 4.3766
199 2 8.09494 35.0002 4.49185
200 2 11.8214 34.8719 4.51408
201 2 15.8997 39.1056 4.65641
202 2 4.18011 39.0494 4.50987
203 2 8.13612 39.1181 4.58056
204 2 11.8608 39.1857 4.35599
205 2 -0.0144614 43.081 4.67642
206 2 3.99161 43.0076 4.55713
207 2 7.84993 43.1182 4.39613
208 2 12.0996 43.2297 4.46915
209 2 0.128277 47.1811 4.71062
210 2 4.08134 47.1794 4.68794
211 2 7.9928 47.2172 4.58613
212 2 11.875 47.0406 4.61173
213 2 0.0808229 51.2565 4.77042
214 2 4.15499 51.2086 4.6576
215 2 8.04612 51.1955 4.72193
216 2 11.9134 51.1498 4.82067
217 2 0.0796467 55.1557 4.5646
218 2 4.00958 55.1561 4.88047
219 2 8.03087 55.3024 4.73301
220 2 11.9661 55.223 4.89191
221 2 15.8829 59.1966 4.92726
222 2 3.99125 59.3108 4.74067
223 2 8.17006 59.1571 4.87154
224 2 11.9818 59.2886 4.80463
225 2 -0.0918949 63.2294 4.89331
226 2 3.9326 63.1721 4.77016
227 2 7.86624 63.1288 4.81389
228 2 11.9389 63.2976 5.08912
229 2 15.736 67.1794 5.01306
230 2 4.00099 67.1115 4.99554
231 2 7.96332 67.2401 4.96196
232 2 11.9749 67.2765 4.95301
233 2 16.0074 71.2803 5.03918
234 2 3.97686 71.294 4.93012
235 2 7.97753 71.3559 5.11837
236 2 11.8869 71.3043 5.13732
237 2 15.7373 75.1289 5.12598
238 2 3.91185 75.1605 5.1396
239 2 7.94054 75.2868 5.13558
240 2 11.9692 75.3235 5.10379
241 2 0.0279375 79.3454 5.08407
242 2 4.03992 79.3409 5.23767
243 2 8.04554 79.279 5.37697
244 2 11.8926 79.2958 5.22454
245 2 15.8899 83.3747 5.28269
246 2 4.02896 83.3219 5.46969
247 2 7.83515 83.2726 5.30139
248 2 11.8796 83.1985 5.48872
249 2 0.10188 87.3096 5.38279
250 2 4.13574 87.2514 5.44881
251 2 8.15779 87.5891 5.44484
252 2 11.9403 87.4979 5.52008
253 2 0.075772 91.3027 5.28556
254 2 4.07808 91.2662 5.43135
255 2 7.69419 91.2921 5.37434
256 2 11.9577 91.4898 5.44779
257 2 15.8301 95.3999 5.38288
258 2 4.10155 95.2574 5.56576
259 2 8.115 95.3401 5.46199
260 2 11.8826 95.285 5.54327
261 2 0.136463 99.2628 5.36418
262 2 3.94557 99.2585 5.3319
263 2 7.90167 99.1692 5.3851
264 2 11.924 99.3559 5.45758
265 2 0.170359 103.1 5.56523
266 2 4.15854 103.073 5.46469
267 2 8.08129 103.168 5.34521
268 2 11.8891 103.238 5.46687
269 2 15.7446 107.119 5.42681
270 2 3.8347 107.081 5.38859
271 2 8.02642 107.182 5.30694
272 2 11.8897 106.981 5.35586
273 2 15.8214 111.165 5.39978
274 2 3.89288 110.756 5.30249
275 2 7.95444 110.815 5.20444
276 2 12.0309 110.794 5.29994
277 2 -0.0626873 114.915 5.25802
278 2 4.22057 114.671 5.15023
279 2 8.16593 114.778 5.14037
280 2 11.9643 114.821 5.19774
281 2 0.137381 118.768 5.24267
282 2 4.0735 118.776 5.1719
283 2 8.10554 118.655 5.11504
284 2 11.9771 118.831 5.10182
285 2 15.964 122.772 5.10207
286 2 3.93764 122.527 5.0996
287 2 7.87409 122.786 5.26875
288 2 11.901 122.773 5.22078
289 2 0.0659017 126.601 5.24429
290 2 4.03686 126.82 5.21754
291 2 7.84088 126.572 5.20237
292 2 11.923 126.675 5.04974
293 2 0.177378 130.655 5.07681
294 2 4.17464 130.62 4.84683
295 2 8.0619 130.516 5.07467
296 2 12.0044 130.427 5.02708
297 2 16.0372 134.59 4.88193
298 2 4.20844 134.444 4.752
299 2 8.02277 134.591 4.79535
300 2 11.8931 134.617 4.96982
301 2 0.289845 138.448 4.77171
302 2 4.1219 138.363 4.94869
303 2 7.96097 138.514 5.07298
304 2 11.8797 138.543 4.93555
305 2 0.187172 142.567 4.95792
306 2 4.09152 142.436 4.73673
307 2 8.02678 142.382 4.83811
308 2 12.0591 142.402 4.91466
309 2 15.8682 146.424 4.81813
310 2 4.05054 146.274 4.81609
311 2 8.12355 146.107 4.68647
312 2 12.1849 146.4 4.88928
313 2 15.7095 150.213 4.72642
314 2 3.99574 150.139 4.88324
315 2 8.02632 150.106 4.83363
316 2 11.9463 150.312 4.5887
317 2 16.0636 154.086 4.78712
318 2 4.09457 154.051 4.53419
319 2 8.28317 154.047 4.73913
320 2 12.132 154.037 4.83133
321 2 15.9387 158.05 8.7352
322 2 4.00776 157.942 8.79556
323 2 8.04854 158.086 8.73071
324 2 11.9955 158.185 8.66294
325 2 16.0186 3.53464 8.52961
326 2 4.03299 3.53284 8.69205
327 2 7.92639 3.58361 8.44382
328 2 11.8251 3.60298 8.74004
329 2 15.9425 7.5821 8.63795
330 2 4.03908 7.44024 8.63951
331 2 7.92768 7.56504 8.71864
332 2 11.9993 7.53426 8.77819
333 2 0.26186 11.4713 8.77432
334 2 4.08641 11.3622 8.60968
335 2 7.79169 11.2487 8.56358
336 2 11.7601 11.573 8.65511
337 2 15.8345 15.3821 8.55615
338 2 3.88619 15.0778 8.61333
339 2 7.9867 15.4209 8.57213
340 2 12.0046 15.4159 8.45274
341 2 0.228025 19.1617 8.26104
342 2 4.17269 19.003 8.591
343 2 7.85369 19.1569 8.42921
344 2 11.9237 19.2629 8.53358
345 2 0.251691 23.217 8.44836
346 2 4.00474 23.067 8.57143
347 2 7.90972 23.0784 8.52149
348 2 11.9529 23.2105 8.62071
349 2 -0.231944 27.1489 8.57486
350 2 3.93922 27.0561 8.37321
351 2 8.00004 26.9292 8.3814
352 2 11.6339 27.1112 8.24559
353 2 -0.107989 31.0843 8.48844
354 2 4.16662 30.9038 8.49078
355 2 7.83055 31.0057 8.62577
356 2 11.6994 31.0364 8.29327
357 2 15.9965 34.9456 8.34789
358 2 4.05902 35.1135 8.26215
359 2 7.84639 35.0785 8.43195
360 2 11.8011 34.9966 8.51358
361 2 0.128629 39.002 8.45312
362 2 3.92571 39.1427 8.37401
363 2 8.05823 39.0321 8.33616
364 2 11.9353 39.0248 8.3423
365 2 0.0537416 43.1064 8.57609
366 2 4.1561 43.1176 8.26433
367 2 8.05908 42.9924 8.41393
368 2 12.0809 43.1296 8.53214
369 2 0.106534 47.1123 8.57737
370 2 4.18448 47.1229 8.55797
371 2 8.03401 47.1375 8.89196
372 2 11.8146 47.0711 8.59081
373 2 15.8945 51.2307 8.5827
374 2 4.06025 51.1048 8.65574
375 2 8.09195 51.1219 8.66122
376 2 12.0874 51.238 8.40553
377 2 15.9908 55.2348 8.8008
378 2 4.21873 55.1399 8.75382
379 2 7.9121 55.0956 8.66696
380 2 11.8415 55.1346 8.65919
381 2 0.279464 59.2144 8.8232
382 2 4.14302 59.1598 8.71361
383 2 7.89566 59.0717 8.76581
384 2 11.9068 59.1323 8.79906
385 2 0.0459853 63.0447 8.8914
386 2 4.01635 63.1579 8.70622
387 2 8.0221 63.1656 8.89359
388 2 11.915 63.294 8.98577
389 2 16.0438 67.1821 8.60339
390 2 3.97035 67.1325 8.82517
391 2 7.73269 67.1809 8.8601
392 2 11.8271 67.2397 8.83349
393 2 15.7242 71.2634 9.14452
394 2 3.98292 71.1064 8.90595
395 2 7.8637 71.1083 8.86061
396 2 11.7668 71.1748 9.18011
397 2 15.8806 75.2755 9.11364
398 2 3.91963 75.2757 8.99587
399 2 7.97285 75.3088 9.12603
400 2 11.9155 75.1534 9.12025
401 2 15.8235 79.2073 9.12826
402 2 3.99747 79.0872 9.14881
403 2 8.0073 79.0956 9.09014
404 2 11.9744 79.1841 9.15918
405 2 0.196355 83.2848 9.35278
406 2 4.05725 83.1761 9.18885
407 2 8.06918 83.0919 9.20731
408 2 11.8821 83.3031 9.26095
409 2 -0.164714 87.4562 9.23815
410 2 3.93289 87.3406 9.39662
411 2 8.16416 87.3324 9.2469
412 2 11.9686 87.2317 9.20656
413 2 0.143826 91.392 9.30579
414 2 3.93815 91.332 9.53687
415 2 7.80667 91.4527 9.48144
416 2 12.0464 91.4474 9.42864
417 2 15.8994 95.4749 9.61201
418 2 4.12117 95.3321 9.6531
419 2 7.95281 95.2969 9.47955
420 2 11.906 95.2156 9.49681
421 2 16.0471 99.2666 9.47045
422 2 4.26651 99.1421 9.35905
423 2 7.92674 99.1479 9.50231
424 2 11.8161 99.2039 9.5094
425 2 -0.000440888 103.108 9.37043
426 2 3.86948 103.029 9.37602
427 2 7.7054 103.341 9.38206
428 2 11.959 103.199 9.389
429 2 -0.088955 107.198 9.41449
430 2 3.9529 107.105 9.47919
431 2 7.86411 107.166 9.30723
432 2 11.8717 107.128 9.45475
433 2 15.88 111.118 9.43854
434 2 4.03635 110.906 9.36669
435 2 7.902 111.168 9.416
436 2 11.8834 111.259 9.23391
437 2 -0.0325209 114.944 9.19486
438 2 4.09798 114.755 9.25795
439 2 8.05031 114.877 9.22009
440 2 11.9054 114.896 9.38137
441 2 0.131769 118.968 9.34804
442 2 4.07009 118.802 9.21064
443 2 7.98289 118.8 9.12635
444 2 11.9265 118.91 9.25542
445 2 15.9434 122.875 9.2059
446 2 4.013 122.741 8.93244
447 2 8.01681 122.798 9.17628
448 2 11.8266 122.905 9.08896
449 2 16.137 126.615 9.24255
450 2 4.1939 126.804 9.04626
451 2 7.98624 126.729 9.24298
452 2 12.0528 126.665 9.08662
453 2 0.0166566 130.501 8.80459
454 2 3.92983 130.763 9.16466
455 2 8.00986 130.823 8.97537
456 2 12.1422 130.739 8.86596
457 2 -0.011344 134.482 8.92455
458 2 3.95842 134.64 9.05741
459 2 7.98941 134.563 9.05982
460 2 12.0027 134.638 9.03333
461 2 0.241862 138.487 8.98311
462 2 4.15025 138.354 9.02715
463 2 8.13994 138.386 8.75328
464 2 12.1556 138.496 8.83392
465 2 0.0684262 142.365 9.05911
466 2 4.11641 142.212 8.94147
467 2 8.1186 142.511 8.83782
468 2 11.8833 142.13 8.81579
469 2 15.986 146.193 8.88068
470 2 4.22746 146.306 8.78112
471 2 8.14454 146.333 8.75043
472 2 12.0433 146.314 8.84177
473 2 15.9869 150.086 8.87014
474 2 4.28322 150.237 8.6471
475 2 8.11596 150.294 8.77613
476 2 11.992 150.325 8.79145
477 2 16.0045 154.18 8.82312
478 2 4.2508 154.059 8.65422
479 2 8.01631 154.109 8.87285
480 2 11.9847 154.077 8.69595
481 2 15.7884 158.07 12.7779
482 2 3.91098 158.029 12.6676
483 2 7.74598 158.081 12.5535
484 2 11.8292 158.072 12.8584
485 2 15.8708 3.64074 12.7252
486 2 3.98934 3.53563 12.7521
487 2 7.94401 3.66514 12.6962
488 2 11.9916 3.78517 12.7633
489 2 15.7295 7.57892 12.5072
490 2 3.8773 7.5407 12.7372
491 2 7.79452 7.53544 12.5541
492 2 11.7198 7.59698 12.599
493 2 0.000510335 11.5895 12.6236
494 2 3.91261 11.4734 12.7455
495 2 7.97596 11.381 12.643
496 2 11.8939 11.5311 12.5932
497 2 -0.144616 15.3316 12.4821
498 2 4.12178 15.477 12.6523
499 2 8.17195 15.525 12.5982
500 2 12.0774 15.4119 12.3883
501 2 0.0992963 19.4018 12.3987
502 2 4.02125 19.195 12.5549
503 2 8.09158 19.2641 12.6011
504 2 12.1189 19.4419 12.5117
505 2 0.208363 23.2598 12.445
506 2 4.20518 23.1672 12.5215
507 2 8.07477 23.2166 12.5459
508 2 12.0242 23.032 12.4426
509 2 -0.187312 27.3721 12.5099
510 2 3.99103 27.0212 12.4716
511 2 7.88229 26.9756 12.5499
512 2 11.9885 27.234 12.4069
513 2 0.0601554 31.0775 12.37
514 2 3.96791 30.9938 12.2844
515 2 8.06686 31 12.4699
516 2 11.7197 31.1403 12.3642
517 2 -0.159133 35.0357 12.4086
518 2 3.6846 35.0303 12.3479
519 2 7.8893 34.9527 12.309
520 2 11.6973 35.15 12.3546
521 2 0.00640202 38.991 12.2287
522 2 4.01067 38.9978 12.3223
523 2 8.07502 38.9857 12.3911
524 2 11.873 39.0473 12.2675
525 2 0.0115161 43.0052 12.391
526 2 3.96282 42.9722 12.2613
527 2 7.9549 43.0117 12.2683
528 2 12.1604 42.9477 12.5406
529 2 0.123961 46.9948 12.4476
530 2 4.02091 46.8988 12.6327
531 2 8.00791 47.1765 12.6829
532 2 11.9243 46.8903 12.4433
533 2 -0.0454348 50.9086 12.5055
534 2 3.91247 50.961 12.5219
535 2 8.11497 51.1065 12.6253
536 2 11.989 51.1651 12.526
537 2 15.9619 54.9493 12.6723
538 2 3.98858 55.0325 12.699
539 2 7.79484 55.1528 12.6058
540 2 11.6309 54.888 12.6807
541 2 15.8422 59.0824 12.6427
542 2 3.93188 59.1235 12.5542
543 2 8.02667 59.164 12.5927
544 2 12.1383 58.8419 12.654
545 2 15.7894 63.0933 12.8796
546 2 3.9317 63.0902 12.8106
547 2 8.01745 63.0252 12.9348
548 2 11.8644 63.0228 12.6807
549 2 0.0576335 67.0518 12.6879
550 2 4.08254 67.0602 12.6516
551 2 7.78676 67.0768 12.678
552 2 11.8351 67.1197 12.8478
553 2 -0.0348307 71.1311 13.009
554 2 3.82638 71.2904 12.9426
555 2 7.9725 71.1708 12.8049
556 2 11.8588 71.0072 12.9188
557 2 -0.0127012 75.0397 12.7816
558 2 3.95632 75.0547 12.9727
559 2 7.84936 75.2228 12.7646
560 2 11.9855 75.1391 12.9303
561 2 -0.171834 79.285 13.0169
562 2 3.87937 79.215 13.1856
563 2 7.7677 79.37 13.1323
564 2 11.7022 79.0773 13.1835
565 2 0.0280705 83.1652 12.9999
566 2 4.0573 83.4485 13.0843
567 2 7.9945 83.3007 13.0934
568 2 11.7438 83.0492 13.0661
569 2 -0.0746316 87.3914 13.1094
570 2 3.95899 87.3171 13.0422
571 2 7.96073 87.2811 13.1134
572 2 11.8267 87.2611 13.2029
573 2 0.0438967 91.3394 13.2913
574 2 3.86574 91.5546 13.4713
575 2 8.11863 91.1884 13.1751
576 2 12.0249 91.3272 13.3851
577 2 -0.00607496 95.2946 13.5426
578 2 3.83447 95.5834 13.6223
579 2 7.85213 95.4003 13.4007
580 2 12.0115 95.2812 13.3946
581 2 -0.0466131 99.5693 13.677
582 2 4.03836 99.3472 13.5411
583 2 8.08356 99.507 13.5287
584 2 12.0197 99.2368 13.5042
585 2 -0.189518 103.376 13.4085
586 2 3.84172 103.305 13.1726
587 2 8.18738 103.394 13.4737
588 2 11.9046 103.131 13.4466
589 2 -0.0259379 107.177 13.5118
590 2 3.9578 107.146 13.3663
591 2 8.0691 107.209 13.5552
592 2 11.7997 107.237 13.2349
593 2 -0.0969378 111.076 13.1594
594 2 3.9428 111.081 13.4865
595 2 7.85753 111.12 13.2221
596 2 11.94 111.108 13.3261
597 2 -0.0625803 114.89 13.3542
598 2 4.00101 115.003 13.3756
599 2 7.90671 115.051 13.36
600 2 11.9258 114.995 13.347
601 2 0.139583 118.875 13.1873
602 2 3.86062 118.813 13.2349
603 2 7.98113 119.014 13.219
604 2 12.016 118.999 13.2017
605 2 0.164439 122.828 13.3465
606 2 4.05967 122.822 13.3197
607 2 7.92994 122.737 13.0238
608 2 12.0792 122.777 13.2465
609 2 0.166443 126.776 13.2231
610 2 4.15055 126.741 13.0448
611 2 8.20003 126.938 13.0411
612 2 11.9753 126.678 13.0772
613 2 15.8321 130.684 13.0578
614 2 3.89244 130.741 13.1506
615 2 7.92483 130.741 13.0305
616 2 11.9676 130.765 13.0954
617 2 15.9975 134.603 13.0996
618 2 4.00296 134.485 13.1857
619 2 8.09037 134.721 12.9866
620 2 12.0713 134.794 12.9475
621 2 0.0418689 138.455 13.1552
622 2 4.05615 138.453 12.966
623 2 8.03364 138.577 13.0163
624 2 12.037 138.566 13.0674
625 2 16.045 142.645 12.9698
626 2 4.07417 142.433 12.8712
627 2 8.21728 142.413 12.8106
628 2 11.9243 142.496 12.8976
629 2 0.188294 146.291 12.7608
630 2 4.18938 146.505 12.9834
631 2 7.85066 146.605 12.8265
632 2 11.9608 146.538 12.9695
633 2 -0.0616251 150.248 12.7605
634 2 4.10974 150.113 12.7955
635 2 8.12285 150.406 12.6773
636 2 11.9612 150.204 12.9025
637 2 15.925 154.294 12.6829
638 2 3.93392 153.991 12.6912
639 2 8.07991 154.149 12.8038
640 2 12.0279 154.247 12.6828
641 2 0.0345427 157.99 16.7925
642 2 3.96778 -0.333323 16.8126
643 2 7.98092 158.026 16.5943
644 2 11.9924 158.052 16.8138
645 2 16.0801 3.65321 16.5965
646 2 3.94382 3.56038 16.6527
647 2 8.00751 3.64108 16.7806
648 2 11.9131 3.60193 16.6853
649 2 0.176675 7.6145 16.7271
650 2 4.00297 7.40383 16.5784
651 2 7.97368 7.71722 16.7348
652 2 11.8895 7.46539 16.8702
653 2 0.416754 11.5448 16.6989
654 2 4.05821 11.5365 16.7103
655 2 7.95579 11.4167 16.7011
656 2 11.9164 11.5026 16.6717
657 2 0.142518 15.3466 16.5737
658 2 3.96179 15.451 16.6519
659 2 7.74039 15.3617 16.7024
660 2 11.9129 15.1936 16.7156
661 2 15.9505 19.2913 16.7296
662 2 4.06177 19.3372 16.705
663 2 7.96167 19.2843 16.6179
664 2 11.8799 19.1513 16.5273
665 2 0.221234 23.1284 16.5969
666 2 4.08364 23.4456 16.5564
667 2 8.04521 23.1812 16.4875
668 2 12.0694 23.2364 16.5761
669 2 -0.0368897 27.1978 16.4756
670 2 3.99213 26.993 16.4711
671 2 7.86386 27.1723 16.5774
672 2 11.8641 27.28 16.5917
673 2 -0.0508896 31.0103 16.4586
674 2 4.12165 31.1473 16.3585
675 2 7.96841 30.9505 16.4031
676 2 11.9649 31.2189 16.3946
677 2 -0.0290933 35.0281 16.415
678 2 3.90433 34.9932 16.3439
679 2 8.11399 34.8379 16.3283
680 2 12.0337 34.9904 16.2549
681 2 0.0563227 38.9798 16.163
682 2 4.11548 38.8547 16.3595
683 2 8.11321 38.8413 16.212
684 2 11.9353 38.613 16.2906
685 2 -0.14873 43.079 16.2875
686 2 3.95585 42.9302 16.1227
687 2 7.96961 42.881 16.3822
688 2 11.8839 42.6711 16.3703
689 2 15.6655 47.0646 16.5235
690 2 4.09992 47.0196 16.5299
691 2 7.92595 47.0686 16.2952
692 2 11.7955 46.8469 16.4475
693 2 -0.189899 50.9144 16.657
694 2 4.04581 50.8408 16.5633
695 2 8.01953 51.0109 16.5323
696 2 11.9914 50.9003 16.4676
697 2 -0.044494 54.8424 16.5316
698 2 3.85941 54.9893 16.6917
699 2 7.79435 55.0573 16.7508
700 2 11.7035 54.9199 16.6001
701 2 -0.102702 59.0077 16.5614
702 2 3.93053 58.9926 16.6029
703 2 7.85238 59.0382 16.6532
704 2 11.9751 58.965 16.4724
705 2 -0.158978 63.1208 16.7284
706 2 3.74961 63.2062 16.6761
707 2 7.90185 62.9555 16.6482
708 2 11.6042 63.1726 16.6499
709 2 0.00353221 66.9231 16.8296
710 2 4.11789 67.1601 16.7428
711 2 7.79045 67.1603 16.6163
712 2 11.8214 67.2588 16.7739
713 2 -0.066119 70.9255 16.6727
714 2 3.90876 70.9909 16.9203
715 2 7.65844 71.294 16.714
716 2 11.7373 71.03 16.8557
717 2 -0.0772108 75.1551 16.9693
718 2 3.95319 75.1252 16.9304
719 2 7.8075 75.048 16.7728
720 2 11.8681 75.0449 16.7419
721 2 -0.101047 79.1238 16.8691
722 2 3.84541 79.2193 16.728
723 2 7.70879 79.1193 16.7852
724 2 11.7686 79.084 16.847
725 2 -0.104099 83.2882 16.8684
726 2 3.89723 83.2546 17.0351
727 2 7.92909 83.0597 17.127
728 2 11.9515 83.2154 17.0015
729 2 -0.0821022 87.2555 17.1466
730 2 4.01364 87.268 17.1107
731 2 7.99816 87.1781 17.1566
732 2 11.9756 87.3801 17.2224
733 2 0.0170423 91.2961 17.3121
734 2 4.10618 91.1859 17.163
735 2 7.71527 91.2598 17.2472
736 2 11.8892 91.1566 17.3079
737 2 -0.213385 95.32 17.6154
738 2 3.74468 95.342 17.3362
739 2 8.1264 95.3133 17.255
740 2 11.7596 95.2764 17.1455
741 2 0.0255539 99.3961 17.3314
742 2 3.99563 99.4154 17.4422
743 2 7.82555 99.2911 17.4662
744 2 11.7528 99.3598 17.3382
745 2 -0.0475575 103.545 17.3338
746 2 3.95413 103.418 17.3977
747 2 8.01552 103.477 17.2184
748 2 11.8556 103.341 17.3826
749 2 0.180429 107.497 17.4331
750 2 4.05474 107.22 17.3545
751 2 7.89697 107.139 17.4855
752 2 12.0873 107.213 17.4157
753 2 0.113442 111.16 17.515
754 2 3.78828 111.132 17.4101
755 2 7.96721 111.242 17.2684
756 2 11.9795 111.216 17.5635
757 2 0.0606259 115.04 17.3069
758 2 4.19714 115.181 17.3437
759 2 7.99003 115.247 17.3659
760 2 11.9516 115.076 17.3991
761 2 0.139789 118.97 17.3014
762 2 3.96434 118.971 17.2777
763 2 8.04249 119.325 17.2118
764 2 11.8502 119.009 17.2867
765 2 0.0217108 122.901 17.176
766 2 3.79422 122.903 17.2781
767 2 8.00441 123.111 17.206
768 2 11.7125 123.063 17.2388
769 2 15.8054 126.999 16.9822
770 2 3.88521 127.002 17.1842
771 2 7.98759 126.919 16.9821
772 2 11.82 126.989 17.1535
773 2 15.6772 130.746 17.0192
774 2 3.92586 130.77 17.1302
775 2 7.98194 130.825 17.0188
776 2 11.7662 130.894 17.0364
777 2 15.99 134.777 16.949
778 2 4.12382 134.44 16.9068
779 2 8.21682 134.681 17.0033
780 2 11.8525 134.685 16.983
781 2 0.301844 138.74 17.0378
782 2 4.12424 138.546 17.0232
783 2 7.86835 138.514 17.1545
784 2 11.8377 138.686 17.1821
785 2 15.7309 142.554 16.8376
786 2 3.99364 142.59 16.8403
787 2 7.94757 142.737 16.7983
788 2 11.8365 142.348 17.018
789 2 15.845 146.417 16.9711
790 2 4.05399 146.443 16.9884
791 2 7.98603 146.366 16.8927
792 2 11.8141 146.586 16.9876
793 2 15.8821 150.49 16.7809
794 2 3.9339 150.41 16.7896
795 2 8.05345 150.406 16.9734
796 2 11.9454 150.324 16.9963
797 2 15.9277 154.294 16.7276
798 2 4.06322 154.206 16.806
799 2 7.8214 154.038 16.6924
800 2 11.8183 154.192 16.8687
801 2 15.9576 158.3 20.8638
802 2 3.91658 158.248 20.8664
803 2 8.13141 158.164 20.7875
804 2 12.0077 158.1 20.7486
805 2 -0.00821451 3.79627 20.7984
806 2 4.07618 3.63585 20.7742
807 2 8.24791 3.63806 20.6964
808 2 12.1563 4.01361 20.7896
809 2 15.9458 7.82391 20.6432
810 2 4.02859 7.7046 20.7598
811 2 7.96181 7.62943 20.7656
812 2 11.9678 7.67743 20.6979
813 2 15.7404 11.5556 20.7748
814 2 4.07891 11.4429 20.8899
815 2 8.15277 11.5992 20.6948
816 2 12.1236 11.6794 20.5154
817 2 15.7999 15.4873 20.6774
818 2 4.00004 15.4649 20.6874
819 2 8.05059 15.6566 20.8179
820 2 11.9104 15.4425 20.7604
821 2 0.035238 19.2282 20.5367
822 2 4.08386 19.4776 20.6702
823 2 7.91815 19.5989 20.6337
824 2 11.9566 19.4474 20.6605
825 2 0.0195632 23.3549 20.5053
826 2 3.86323 23.318 20.4628
827 2 7.9974 23.2541 20.4638
828 2 11.877 23.4046 20.5285
829 2 15.9132 27.2809 20.5771
830 2 4.00128 27.1828 20.456
831 2 8.07864 27.0284 20.4314
832 2 11.9278 27.2744 20.5442
833 2 15.9415 30.9991 20.3564
834 2 3.86957 31.2234 20.3557
835 2 7.84199 31.0109 20.4168
836 2 11.765 31.0909 20.5321
837 2 15.991 34.9323 20.3896
838 2 3.96669 35.066 20.3439
839 2 8.01732 34.7878 20.364
840 2 11.8718 35.0096 20.5002
841 2 -0.0320836 39.0682 20.3196
842 2 4.05045 38.7381 20.206
843 2 7.76284 38.8661 20.293
844 2 11.8396 38.8173 20.3411
845 2 16.1093 43.0101 20.2458
846 2 3.99181 42.8107 20.1687
847 2 7.96745 42.7821 20.2198
848 2 11.9021 42.7914 20.3095
849 2 15.8326 46.8958 20.306
850 2 4.16787 46.7662 20.3538
851 2 7.91921 46.856 20.2198
852 2 11.7569 46.889 20.4518
853 2 0.0600511 50.9281 20.4667
854 2 4.23986 50.757 20.4633
855 2 8.05589 50.8434 20.3562
856 2 11.9464 51.0834 20.5673
857 2 0.125952 54.8099 20.385
858 2 4.15663 54.7769 20.3734
859 2 7.81325 54.9055 20.6595
860 2 11.8702 54.9904 20.3756
861 2 15.9437 59.0879 20.6916
862 2 3.98247 59.0043 20.47
863 2 8.08998 58.9507 20.6152
864 2 11.825 59.1196 20.4511
865 2 15.8217 63.1046 20.5666
866 2 3.90861 63.128 20.7356
867 2 7.79602 63.0995 20.4221
868 2 11.7652 63.1792 20.4319
869 2 -0.245959 66.9714 20.6661
870 2 3.81886 66.961 20.7033
871 2 7.87227 67.1053 20.5194
872 2 11.6546 66.9125 20.7039
873 2 -0.0896319 71.2095 20.723
874 2 4.07571 70.9554 20.8041
875 2 7.84244 71.1577 20.8184
876 2 11.9634 71.2566 20.7903
877 2 0.00359523 75.0305 20.8933
878 2 4.03307 75.1079 20.6481
879 2 7.73111 75.0018 20.7079
880 2 11.9411 75.169 20.8102
881 2 -0.0851594 79.1839 20.6675
882 2 3.79145 79.1299 20.9401
883 2 7.86021 79.2061 20.8015
884 2 11.7408 79.2233 20.9055
885 2 -0.0587735 83.0873 20.963
886 2 3.88667 83.1131 20.9331
887 2 7.86931 83.0036 20.9809
888 2 11.7722 83.1489 21.0415
889 2 0.0174396 87.2231 21.0307
890 2 3.74709 87.2203 20.8591
891 2 7.97485 86.9405 21.0724
892 2 11.7958 87.1159 21.1936
893 2 0.0222556 91.1028 21.1585
894 2 3.89753 91.1686 21.0687
895 2 7.79846 91.1375 21.2198
896 2 11.8539 91.1223 21.0513
897 2 -0.209885 95.2766 21.3362
898 2 3.73752 95.3379 21.2784
899 2 7.8864 95.1727 21.2491
900 2 11.7997 95.2427 21.0473
901 2 -0.0986805 99.4036 21.37
902 2 3.96689 99.2494 21.4089
903 2 7.68274 99.284 21.2521
904 2 11.8645 99.2752 21.4171
905 2 0.049661 103.268 21.1837
906 2 3.95406 103.367 21.4569
907 2 7.88599 103.195 21.3932
908 2 11.8114 103.243 21.1425
909 2 0.0461514 107.153 21.3611
910 2 4.06759 107.279 21.4436
911 2 8.00559 107.231 21.2859
912 2 11.7547 107.319 21.411
913 2 0.0985434 111.363 21.3397
914 2 4.19613 111.108 21.4643
915 2 8.05435 111.306 21.5236
916 2 11.6614 111.254 21.2568
917 2 15.7799 115.232 21.4677
918 2 4.07962 115.271 21.4588
919 2 7.83646 115.193 21.1819
920 2 11.9533 115.137 21.4525
921 2 0.105502 119.124 21.4557
922 2 3.98803 119.061 21.2803
923 2 7.90575 119.03 21.1901
924 2 11.9171 119.252 21.3108
925 2 16.0423 123.046 21.1478
926 2 4.05774 122.95 21.3124
927 2 7.79831 123.148 21.2095
928 2 11.8266 122.854 21.2589
929 2 15.7565 126.931 21.1543
930 2 3.89824 126.751 21.2027
931 2 7.91827 126.912 21.0705
932 2 12.0051 126.669 21.0884
933 2 15.9627 130.871 21.1192
934 2 4.02345 130.616 21.1598
935 2 8.01268 130.783 21.2532
936 2 11.964 130.91 21.0066
937 2 0.0378105 134.759 21.0112
938 2 3.84699 134.772 21.1387
939 2 7.99191 134.666 21.0915
940 2 11.8064 134.8 21.1585
941 2 16.0674 138.744 20.9698
942 2 4.11686 138.708 21.0183
943 2 7.99982 138.497 20.9578
944 2 11.8906 138.614 21.0639
945 2 15.8264 142.655 21.0681
946 2 4.20171 142.653 21.1107
947 2 7.97357 142.671 21.0251
948 2 11.933 142.502 20.9587
949 2 15.7664 146.471 20.8434
950 2 3.9445 146.588 20.9948
951 2 7.91162 146.481 20.9251
952 2 11.9579 146.45 20.9441
953 2 15.7856 150.413 20.9683
954 2 3.99726 150.393 21.1069
955 2 7.97503 150.408 20.8243
956 2 11.7193 150.366 20.8873
957 2 15.7025 154.298 20.8316
958 2 4.04585 154.304 21.1257
959 2 7.81403 154.246 20.8681
960 2 11.8089 154.333 20.9234
961 2 0.0482381 158.237 25.0123
962 2 4.01871 158.229 24.8517
963 2 7.86358 158.328 24.8792
964 2 12.0663 158.111 24.8004
965 2 16.0336 3.86165 24.8849
966 2 4.1296 3.81532 24.8216
967 2 7.98435 3.82868 24.6781
968 2 11.9873 4.03994 24.7141
969 2 15.756 7.82903 24.7724
970 2 4.12984 7.62159 24.7849
971 2 8.02271 7.84176 24.8202
972 2 11.9658 7.89604 24.6872
973 2 15.809 11.5571 24.8108
974 2 4.04795 11.7746 24.6991
975 2 8.02613 11.5656 24.8538
976 2 11.7007 11.7327 24.7936
977 2 0.0272202 15.6722 24.7259
978 2 3.89673 15.2748 24.7832
979 2 7.76237 15.6127 24.6166
980 2 11.9049 15.6635 24.5779
981 2 0.0944475 19.6528 24.6285
982 2 3.90875 19.6312 24.7339
983 2 7.69668 19.4616 24.6431
984 2 12.1435 19.4088 24.7364
985 2 0.178823 23.3637 24.4942
986 2 4.0243 23.5928 24.6847
987 2 8.04193 23.1981 24.6558
988 2 11.9827 23.427 24.7086
989 2 -0.120634 27.2317 24.4703
990 2 3.75404 27.3315 24.4702
991 2 7.92602 27.2888 24.7109
992 2 11.8846 27.344 24.5443