ITEM: TIMESTEP
22900
ITEM: NUMBER OF ATOMS
32000
ITEM: BOX BOUNDS xy xz yz pp pp pp
0.0000000000000000e+00 1.5832000000000001e+01 0.0000000000000000e+00
0.0000000000000000e+00 1.5831999999999999e+02 0.0000000000000000e+00
8.0791676616037478e-01 1.6016920123383488e+02 0.0000000000000000e+00
ITEM: ATOMS id type x y z
1 2 15.9932 157.912 159.998
2 2 3.94268 158.004 159.996
3 2 7.99152 157.979 160.085
4 2 11.9587 158.064 160.031
5 2 -0.0378943 3.42974 159.949
6 2 3.96545 3.43789 159.916
7 2 7.91072 3.38807 160.003
8 2 11.8932 3.43929 160.125
9 2 15.8602 7.30359 159.935
10 2 4.01514 7.3817 159.866
11 2 7.97142 7.16159 159.948
12 2 12.0234 7.34762 160.027
13 2 16.0771 11.519 159.663
14 2 4.09876 11.1815 159.878
15 2 8.17445 11.3811 159.879
16 2 11.9255 11.3044 159.76
17 2 0.0322245 15.2517 159.795
18 2 4.02779 15.1395 159.736
19 2 7.91377 15.2674 159.585
20 2 11.7627 15.1485 159.787
21 2 15.7749 19.1332 159.542
22 2 4.01972 19.0235 159.556
23 2 8.05879 19.1499 159.706
24 2 11.9745 19.1421 159.724
25 2 15.948 23.1551 159.555
26 2 3.98928 23.1056 159.769
27 2 7.92498 23.1562 159.563
28 2 11.9969 23.0794 159.668
29 2 15.9099 26.9632 159.996
30 2 3.9909 27.1554 159.749
31 2 7.8156 27.014 159.54
32 2 11.8227 26.9828 159.653
33 2 15.6992 31.0888 159.76
34 2 4.00488 31.146 0.449302
35 2 7.74644 31.1801 159.789
36 2 11.8594 30.9129 160.049
37 2 -0.033286 35.0595 160.013
38 2 3.91416 35.1133 159.925
39 2 7.91305 35.082 159.759
40 2 11.8335 34.8432 159.872
41 2 -0.082552 39 160.116
42 2 4.00564 39.2108 0.709684
43 2 8.06874 39.375 0.707133
44 2 12.1187 39.1882 0.634571
45 2 -0.124043 43.0379 160.086
46 2 3.83146 43.0541 160.083
47 2 7.96279 43.1647 0.563664
48 2 12.0201 43.2783 0.785371
49 2 0.051921 47.1807 0.822345
50 2 3.9392 47.019 0.785289
51 2 7.66284 47.2017 0.693356
52 2 11.8519 47.1912 0.73877
53 2 -0.110922 51.1435 0.785033
54 2 4.00245 51.2085 0.685933
55 2 7.93563 51.2302 0.730235
56 2 11.8183 51.0742 0.815053
57 2 15.5561 55.1563 0.938165
58 2 3.75771 55.1613 0.855322
59 2 7.8628 55.214 0.878236
60 2 11.6108 55.2858 0.802664
61 2 -0.131426 59.2868 0.995955
62 2 3.916 59.2296 0.981958
63 2 7.89336 59.3138 1.08287
64 2 11.6483 59.1687 0.938915
65 2 0.0682975 63.0952 0.917736
66 2 3.8254 63.1824 0.962385
67 2 7.76525 63.377 1.01035
68 2 11.9243 63.3298 1.18217
69 2 15.693 67.5373 1.02728
70 2 4.0955 67.238 1.17323
71 2 7.91917 67.444 1.15554
72 2 11.9017 67.4336 0.997148
73 2 -0.0518279 71.3604 1.22319
74 2 4.04918 71.3934 1.11787
75 2 7.88466 71.4239 1.13485
76 2 11.6311 71.444 1.34608
77 2 -0.0596602 75.475 1.28136
78 2 4.13734 75.5993 1.44317
79 2 7.98084 75.5123 1.25084
80 2 11.8855 75.2982 1.22509
81 2 0.293188 79.4915 1.15415
82 2 4.14718 79.4683 1.27339
83 2 8.00246 79.5486 1.36326
84 2 12.0095 79.4448 1.29583
85 2 0.273415 83.3988 1.41444
86 2 3.99483 83.5669 1.5776
87 2 8.01798 83.4574 1.35242
88 2 11.8411 83.5499 1.21036
89 2 -0.00807949 87.3788 1.48783
90 2 3.98365 87.3593 1.41557
91 2 8.15495 87.5396 1.35224
92 2 11.9672 87.4516 1.60364
93 2 -0.013323 91.4265 1.4434
94 2 4.00259 91.3981 1.43837
95 2 7.98812 91.3336 1.36698
96 2 11.9411 91.3627 1.4862
97 2 15.7994 95.3254 1.56045
98 2 3.7757 95.2677 1.37091
99 2 7.94075 95.2056 1.43395
100 2 11.9136 95.3656 1.64054
101 2 0.125696 99.1389 1.49328
102 2 4.12373 99.2614 1.42373
103 2 8.06738 99.371 1.27168
104 2 11.9348 99.3223 1.58294
105 2 0.132878 102.961 1.23927
106 2 3.93468 103.119 1.48572
107 2 8.09159 103.099 1.276
108 2 11.8972 103.206 1.22219
109 2 0.160426 107.032 1.10435
110 2 3.95459 106.885 1.25861
111 2 7.92274 106.85 1.26646
112 2 12.0446 106.892 1.21234
113 2 0.129331 111.107 1.22514
114 2 3.95736 110.776 1.42607
115 2 7.95941 110.909 1.31283
116 2 11.8486 110.695 1.22173
117 2 15.9923 114.888 1.21504
118 2 4.05392 114.632 1.10099
119 2 8.0822 114.956 1.36374
120 2 12.054 114.949 1.20296
121 2 -0.0136622 118.81 1.2748
122 2 3.8725 118.578 1.16196
123 2 7.79334 118.667 1.21382
124 2 12.0193 118.844 1.05683
125 2 15.7832 122.782 1.13865
126 2 3.99345 122.653 1.2168
127 2 8.06887 122.709 1.1521
128 2 11.8086 122.787 1.18808
129 2 -0.17671 126.667 1.05174
130 2 3.89325 126.692 1.13182
131 2 7.83863 126.661 1.11878
132 2 11.9223 126.576 1.27961
133 2 15.8147 130.589 1.05365
134 2 4.05736 130.671 1.11729
135 2 7.95188 130.407 0.957158
136 2 11.8805 130.474 1.02129
137 2 15.9695 134.536 0.860141
138 2 4.00346 134.418 0.862788
139 2 8.08023 134.283 160.333
140 2 11.9353 134.583 0.964462
141 2 0.084419 138.464 1.12855
142 2 3.91876 138.424 160.358
143 2 8.05651 138.353 160.314
144 2 11.7171 138.307 0.907793
145 2 15.975 142.218 160.202
146 2 4.08335 142.269 160.338
147 2 8.03021 142.316 160.359
148 2 12.0408 142.256 160.109
149 2 -0.12559 146.201 160.312
150 2 4.08364 146.197 160.317
151 2 7.86391 146.134 160.254
152 2 11.8753 146.075 160.07
153 2 15.6574 150.163 160.276
154 2 3.8018 149.967 160.121
155 2 7.94176 150.098 160.272
156 2 11.5846 150.017 0.941507
157 2 15.8346 154.074 160.179
158 2 3.99319 154.144 160.24
159 2 7.86171 153.961 160.156
160 2 11.8869 154.072 160.107
161 2 15.9922 158.035 4.79836
162 2 3.98671 157.981 4.66289
163 2 7.99653 157.93 4.65854
164 2 11.8433 158.027 4.82478
165 2 -0.0554476 3.6388 4.72332
166 2 3.95468 3.57673 4.65578
167 2 8.0317 3.72736 4.72377
168 2 11.969 3.52381 4.82377
169 2 0.157352 7.46828 4.64479
170 2 4.00589 7.24244 4.53816
171 2 7.93364 7.53095 4.65204
172 2 11.9597 7.50854 4.62486
173 2 0.0146687 11.3357 4.47126
174 2 4.12675 11.1543 4.72878
175 2 7.94036 11.3673 4.61995
176 2 12.0944 11.2052 4.43394
177 2 15.6914 15.318 4.49937
178 2 3.94778 15.265 4.33895
179 2 7.91907 15.3513 4.47171
180 2 11.8986 15.2032 4.42023
181 2 0.0433872 19.1297 4.30305
182 2 3.98222 19.143 4.10851
183 2 7.86204 19.2964 4.53415
184 2 11.9478 19.1455 4.45295
185 2 0.158144 23.1092 4.45132
186 2 3.91947 23.0788 4.04731
187 2 8.02774 23.2924 4.19191
188 2 12.0049 22.8389 4.17022
189 2 15.833 27.0853 4.40768
190 2 3.83483 26.9131 4.23818
191 2 8.06066 27.171 4.28264
192 2 11.865 27.0668 4.33623
193 2 0.18949 30.8828 4.35792
194 2 4.14543 30.843 4.37492
195 2 7.91886 31.0591 4.42503
196 2 11.7857 30.8403 4.31257
197 2 0.123958 34.9064 4.68338
198 2 4.16672 34.9619 4.44003
199 2 7.98924 35.1665 4.46606
200 2 11.7921 35.0366 4.66439
201 2 15.6943 39.1179 4.47552
202 2 3.82281 39.1882 4.71749
203 2 7.92377 39.117 4.53068
204 2 11.9127 39.0044 4.53855
205 2 0.086925 43.2647 4.69243
206 2 4.04019 43.107 4.63934
207 2 7.93375 42.9635 4.51693
208 2 11.844 43.0143 4.48571
209 2 -0.0396299 47.1082 4.69097
210 2 4.16342 47.222 4.72065
211 2 7.92145 46.9445 4.62578
212 2 11.8505 47.0953 4.57755
213 2 -0.164054 51.0548 4.73305
214 2 3.66917 51.0984 4.51629
215 2 7.83381 51.0905 4.68789
216 2 11.9022 51.0597 4.68047
217 2 -0.153866 55.1134 4.86293
218 2 3.79471 55.0752 4.65631
219 2 7.75768 55.2149 4.87847
220 2 11.5538 55.2184 4.88123
221 2 15.7146 59.1676 4.95563
222 2 3.96541 59.1245 4.99166
223 2 7.6932 59.2828 5.02145
224 2 11.7315 59.2355 5.01442
225 2 -0.041809 63.2657 5.08319
226 2 3.80044 63.212 4.82637
227 2 7.98684 63.4347 5.07405
228 2 11.7155 63.1089 4.86325
229 2 15.8661 67.2523 4.93864
230 2 3.65239 67.457 4.92252
231 2 7.76282 67.2108 5.09668
232 2 11.8999 67.3282 5.00029
233 2 15.7957 71.214 5.04223
234 2 3.84212 71.394 4.94944
235 2 8.04795 71.39 4.95387
236 2 11.9218 71.3182 5.2736
237 2 15.8218 75.3397 5.11452
238 2 3.9356 75.3876 5.29935
239 2 8.15399 75.6469 5.12475
240 2 11.9485 75.4174 5.13656
241 2 0.153777 79.2161 5.23222
242 2 4.09588 79.3725 5.15322
243 2 8.11523 79.3984 5.30787
244 2 12.0868 79.532 5.26327
245 2 16.022 83.4631 5.35045
246 2 4.08415 83.4714 5.49861
247 2 7.89311 83.3839 5.44693
248 2 12.0342 83.3694 5.18366
249 2 -0.139916 87.4449 5.43949
250 2 4.1767 87.3899 5.22452
251 2 7.98734 87.4192 5.3633
252 2 11.8281 87.4426 5.32668
253 2 0.0516521 91.427 5.54983
254 2 3.84792 91.2751 5.40668
255 2 7.76071 91.3753 5.52384
256 2 11.8192 91.6524 5.58458
257 2 15.9248 95.2292 5.46599
258 2 4.33653 95.3704 5.28048
259 2 7.98504 95.3343 5.56509
260 2 11.9455 95.4299 5.46395
261 2 0.174631 99.0715 5.53224
262 2 4.10259 99.1796 5.51949
263 2 7.8694 99.3327 5.37547
264 2 11.896 99.3123 5.42599
265 2 -0.000947382 103.103 5.34964
266 2 4.04111 103.241 5.53224
267 2 8.05619 103.177 5.40959
268 2 11.9598 103.269 5.49109
269 2 16.0091 107.076 5.28437
270 2 4.10367 107.202 5.34755
271 2 8.06889 106.871 5.10596
272 2 12.0371 107.141 5.35867
273 2 16.0802 110.919 5.3204
274 2 4.04191 110.975 5.39899
275 2 8.03712 110.773 5.29819
276 2 11.9189 111.144 5.23212
277 2 0.0597661 114.935 5.34402
278 2 4.09827 114.902 5.2814
279 2 8.32061 114.806 5.01381
280 2 12.127 114.843 5.32367
281 2 -0.0596929 118.958 5.10998
282 2 3.92982 118.801 5.07851
283 2 7.90987 118.926 5.13214
284 2 11.912 118.729 5.30159
285 2 15.9577 122.817 5.25926
286 2 4.09034 122.694 5.16103
287 2 7.95819 122.829 5.02833
288 2 11.8061 122.718 5.25009
289 2 0.156282 126.829 5.17242
290 2 3.93127 126.693 5.19005
291 2 7.81546 126.743 5.0967
292 2 11.8499 126.52 5.24787
293 2 0.140293 130.628 4.99479
294 2 4.06025 130.709 4.97883
295 2 8.21071 130.707 4.9796
296 2 12.0381 130.661 5.07349
297 2 15.7479 134.52 4.84462
298 2 4.04856 134.513 4.89085
299 2 7.97963 134.517 5.01726
300 2 11.9684 134.625 4.98138
301 2 0.125129 138.562 4.86672
302 2 4.07242 138.556 4.90765
303 2 7.93235 138.389 4.98832
304 2 12.0487 138.517 4.99672
305 2 -0.0159687 142.451 4.99535
306 2 3.92862 142.462 5.05343
307 2 7.98746 142.3 5.13512
308 2 11.8948 142.531 5.02252
309 2 15.8216 146.36 4.93077
310 2 3.65307 146.257 4.80019
311 2 7.90673 146.357 4.95485
312 2 11.8375 146.255 4.76107
313 2 15.8425 150.181 4.94409
314 2 3.79056 150.238 4.78591
315 2 7.86652 150.154 4.75639
316 2 11.8398 150.052 5.10726
317 2 15.9236 154.01 4.78426
318 2 4.04668 153.987 4.89886
319 2 8.11628 154.006 4.75687
320 2 11.9351 154.097 4.79801
321 2 15.9718 157.952 8.81635
322 2 4.06263 158.068 8.68495
323 2 7.75889 157.974 8.64949
324 2 12.043 158.149 8.75633
325 2 15.8035 3.57906 8.80686
326 2 4.06503 3.53537 8.65706
327 2 8.08021 3.55624 8.80644
328 2 11.9752 3.63674 8.57442
329 2 15.9927 7.37523 8.77922
330 2 4.00482 7.64154 8.58167
331 2 7.96506 7.43797 8.59524
332 2 11.8114 7.58115 8.64758
333 2 0.0900393 11.53 8.49124
334 2 3.87086 11.4366 8.62964
335 2 7.81883 11.486 8.63381
336 2 11.8767 11.4957 8.60459
337 2 15.8654 15.272 8.56145
338 2 3.95295 15.2094 8.54973
339 2 7.77676 15.3182 8.41129
340 2 11.8886 15.5305 8.53285
341 2 0.181652 19.2626 8.40456
342 2 3.911 19.2204 8.38829
343 2 7.87251 19.1361 8.33933
344 2 11.8136 19.4425 8.32494
345 2 0.0538725 23.3526 8.42951
346 2 4.09894 23.1317 8.27335
347 2 8.02947 23.3588 8.25959
348 2 12.1023 23.1501 8.31177
349 2 -0.116009 27.0246 8.3808
350 2 3.96303 27.0228 8.27912
351 2 7.85807 26.9491 8.47077
352 2 11.6522 26.8988 8.40742
353 2 0.061592 30.8793 8.28929
354 2 4.13096 30.8341 8.19557
355 2 7.93273 30.786 8.56914
356 2 11.649 31.0607 8.17494
357 2 15.9595 35.1313 8.39885
358 2 3.9075 34.849 8.24622
359 2 8.11162 35.0495 8.42301
360 2 11.8284 34.8882 8.53939
361 2 0.0374765 38.9404 8.27369
362 2 4.15162 38.9046 8.37498
363 2 7.84536 39.0685 8.30268
364 2 12.0121 39.0168 8.50911
365 2 -0.042587 42.888 8.56737
366 2 3.91339 42.9801 8.55459
367 2 7.86438 42.9031 8.39807
368 2 11.8335 42.9047 8.60952
369 2 -0.0220523 46.808 8.55374
370 2 4.02234 47.0796 8.69404
371 2 7.87843 47.0479 8.46717
372 2 11.7676 46.9102 8.48938
373 2 15.8201 50.9667 8.72141
374 2 3.82979 51.0535 8.60986
375 2 7.74451 51.1618 8.64391
376 2 11.6142 51.0025 8.60489
377 2 15.8651 54.9177 8.66602
378 2 3.8759 55.06 8.60996
379 2 7.69189 55.0992 8.76968
380 2 11.7248 55.1156 8.78288
381 2 -0.0824067 59.2018 8.74555
382 2 3.85024 59.1468 8.89114
383 2 7.92236 59.0605 8.73998
384 2 11.9119 59.0194 9.00771
385 2 -0.0676048 63.3652 8.97036
386 2 3.99599 63.0889 8.98546
387 2 7.8954 63.2204 8.98157
388 2 11.9755 63.1363 8.9823
389 2 15.9546 67.1192 8.86731
390 2 4.11851 67.1262 8.68718
391 2 7.79354 67.2065 8.7515
392 2 11.879 67.3021 8.99622
393 2 15.9295 71.0214 9.0094
394 2 3.95747 71.2433 8.94573
395 2 7.74868 71.1724 8.88435
396 2 11.9151 71.1685 9.22608
397 2 15.9263 75.1126 9.17939
398 2 4.09873 75.1916 9.18598
399 2 7.96587 75.343 8.93749
400 2 12.0151 75.2689 9.19682
401 2 16.0031 79.3744 9.19616
402 2 4.05849 79.3298 9.24666
403 2 7.90352 79.2586 9.16821
404 2 11.9896 79.3361 9.21926
405 2 0.117593 83.4437 9.2195
406 2 4.14525 83.4976 9.25684
407 2 8.1688 83.3498 9.3101
408 2 11.9799 83.3209 9.18135
409 2 -0.0403895 87.2101 9.36525
410 2 4.04648 87.4548 9.25503
411 2 8.04321 87.4229 9.23547
412 2 11.9027 87.2524 8.98103
413 2 0.0231208 91.381 9.29474
414 2 3.84681 91.4857 9.4639
415 2 7.72497 91.3382 9.3224
416 2 11.835 91.4597 9.55679
417 2 15.8337 95.4216 9.4337
418 2 3.86435 95.4311 9.53757
419 2 7.78283 95.2502 9.57097
420 2 11.8903 95.3539 9.478
421 2 15.8449 99.3575 9.29481
422 2 4.00755 99.258 9.59366
423 2 7.93302 99.1243 9.37034
424 2 11.9301 99.2436 9.40236
425 2 0.0027116 103.192 9.47454
426 2 4.02505 102.997 9.44738
427 2 8.02776 103.125 9.35744
428 2 11.7448 103.202 9.44116
429 2 -0.0307235 107.018 9.52418
430 2 3.92195 107.101 9.38938
431 2 7.78881 107.35 9.56074
432 2 11.8593 107.435 9.31252
433 2 16.0146 111.036 9.48107
434 2 4.09334 111.02 9.32333
435 2 7.78304 111.087 9.27584
436 2 11.996 111.148 9.34367
437 2 0.0640198 115.022 9.38384
438 2 4.29909 114.876 9.27886
439 2 8.22034 114.992 9.31038
440 2 11.9617 115.023 9.18193
441 2 -0.0254523 118.948 9.1272
442 2 3.99462 118.649 9.28454
443 2 8.01876 118.946 9.19906
444 2 11.8465 118.855 9.35027
445 2 16.0231 122.767 9.23092
446 2 4.07935 122.657 9.20675
447 2 8.21714 122.736 9.24586
448 2 12.0162 122.875 9.09451
449 2 15.9432 126.76 9.03139
450 2 4.01206 126.705 9.16364
451 2 8.1089 126.724 9.03563
452 2 12.0604 126.586 9.09028
453 2 0.0854669 130.694 9.17059
454 2 4.04322 130.918 8.95006
455 2 8.13384 130.581 8.93535
456 2 11.8702 130.461 9.15603
457 2 -0.000497753 134.667 9.11217
458 2 3.91221 134.544 9.08741
459 2 7.85695 134.679 8.97259
460 2 11.9142 134.587 8.92551
461 2 0.10609 138.33 9.0515
462 2 3.77665 138.397 9.14118
463 2 7.9638 138.589 9.10252
464 2 12.0292 138.294 8.92269
465 2 -0.0306723 142.327 9.05368
466 2 4.10319 142.349 9.17271
467 2 8.02167 142.18 9.01381
468 2 11.8568 142.264 9.02976
469 2 15.7973 146.28 9.00927
470 2 3.97979 146.317 8.93844
471 2 7.9896 146.227 8.80329
472 2 11.7753 146.187 8.82889
473 2 15.8615 150.134 8.89654
474 2 4.10096 150.132 8.93021
475 2 7.96535 150.17 8.85835
476 2 11.8565 150.141 9.03025
477 2 15.6221 154.112 8.7657
478 2 3.83626 153.99 8.97833
479 2 7.89031 154.173 8.8671
480 2 11.8269 154.218 8.99092
481 2 15.8801 158.059 12.8589
482 2 3.824 157.947 12.715
483 2 7.90455 158.072 12.7961
484 2 12.0643 158.315 12.8228
485 2 15.9358 3.80273 12.8273
486 2 4.0061 3.76891 12.721
487 2 7.83797 3.78439 12.7049
488 2 11.756 3.67242 12.6271
489 2 15.8775 7.47931 12.7723
490 2 3.89508 7.59622 12.6592
491 2 7.91285 7.66398 12.6081
492 2 11.8396 7.64303 12.648
493 2 0.0268679 11.6631 12.6921
494 2 4.0571 11.4681 12.5273
495 2 7.96279 11.4823 12.4382
496 2 11.8437 11.4915 12.4704
497 2 0.00646309 15.5037 12.6654
498 2 3.87692 15.5473 12.6917
499 2 7.89664 15.4904 12.5118
500 2 11.8583 15.4571 12.533
501 2 0.14231 19.47 12.3842
502 2 4.22218 19.4931 12.4044
503 2 8.09704 19.3953 12.3927
504 2 11.7589 19.3629 12.4401
505 2 -0.00300273 23.3213 12.436
506 2 4.02433 23.1726 12.5879
507 2 7.8885 23.2885 12.496
508 2 12.103 23.214 12.4769
509 2 -0.0872829 27.4802 12.2406
510 2 3.87997 27.042 12.2358
511 2 7.96726 27.2315 12.439
512 2 11.9044 27.1987 12.3159
513 2 -0.187394 31.2104 12.346
514 2 4.06797 31.0796 12.3844
515 2 7.7605 31.0161 12.3222
516 2 11.9681 31.185 12.2764
517 2 -0.117419 34.9504 12.3202
518 2 3.80155 34.975 12.303
519 2 7.87421 34.9305 12.3554
520 2 11.6774 34.9635 12.3012
521 2 0.0761125 38.8892 12.2506
522 2 3.94432 39.0078 12.3847
523 2 7.81845 38.7556 12.1203
524 2 11.9266 38.9043 12.3591
525 2 0.121807 42.9798 12.3586
526 2 3.92897 43.1074 12.3713
527 2 8.00012 42.9239 12.4064
528 2 11.975 42.8621 12.4145
529 2 -0.0745929 46.8279 12.461
530 2 3.94282 47.0751 12.4564
531 2 7.9692 46.8236 12.4708
532 2 11.8636 46.8586 12.461
533 2 -0.199767 50.9492 12.5604
534 2 3.88738 50.9068 12.6162
535 2 7.88941 50.8311 12.5061
536 2 11.844 50.9074 12.6014
537 2 15.6828 55.0124 12.5418
538 2 3.73888 55.2217 12.7412
539 2 7.66928 54.8771 12.6518
540 2 11.79 55.0603 12.7552
541 2 16.0338 59.0505 12.6733
542 2 4.00267 58.9505 12.6431
543 2 7.83158 58.9952 12.6324
544 2 11.7111 59.1057 12.7179
545 2 15.935 63.0665 12.9789
546 2 4.07447 63.1211 12.7919
547 2 8.02187 63.1823 12.8955
548 2 12.0246 63.1261 12.8329
549 2 0.188821 67.0316 12.8767
550 2 4.11074 67.0816 12.8435
551 2 8.01578 67.1855 12.7641
552 2 11.8152 67.1591 12.7377
553 2 0.147818 71.0775 12.8786
554 2 3.99933 71.0894 12.9194
555 2 7.90671 71.0867 12.8303
556 2 11.919 71.1347 13.0385
557 2 0.175076 75.2114 13.1559
558 2 4.02794 75.2287 12.9373
559 2 8.16775 75.1644 13.0385
560 2 11.9672 75.0661 12.8625
561 2 0.168856 79.1175 13.2088
562 2 3.89311 79.2099 13.0659
563 2 7.90352 79.0611 13.204
564 2 11.9527 79.1479 13.0624
565 2 0.0230949 83.3995 13.1884
566 2 4.08919 83.2124 13.0554
567 2 8.03794 83.1966 13.2918
568 2 11.9001 83.2471 12.982
569 2 -0.0585975 87.0509 13.1783
570 2 4.04586 87.3671 13.2342
571 2 8.06947 87.3196 12.9748
572 2 11.8785 87.3601 13.0989
573 2 0.0315642 91.2054 13.1344
574 2 3.92502 91.1266 13.2058
575 2 7.77565 91.3162 13.2876
576 2 12.0012 91.2806 13.1421
577 2 -0.211875 95.4034 13.3974
578 2 3.89536 95.2543 13.4464
579 2 8.01173 95.4355 13.3351
580 2 11.914 95.0619 13.3714
581 2 -0.220654 99.4637 13.3562
582 2 3.91144 99.3972 13.4726
583 2 7.99614 99.15 13.4715
584 2 11.7695 99.3792 13.5765
585 2 0.0198145 103.342 13.4057
586 2 3.93244 103.196 13.436
587 2 8.12981 103.508 13.5173
588 2 12.0707 103.209 13.54
589 2 0.0038339 107.273 13.4349
590 2 4.06939 107.24 13.5153
591 2 7.99579 107.279 13.4425
592 2 11.9667 107.138 13.4203
593 2 0.0146229 110.962 13.6218
594 2 3.94421 111.098 13.3374
595 2 7.90564 111 13.4675
596 2 11.908 111.156 13.2889
597 2 0.271794 115.076 13.4441
598 2 4.08015 114.931 13.259
599 2 7.95778 114.904 13.3129
600 2 12.0183 114.983 13.2737
601 2 0.0429808 118.952 13.541
602 2 4.00378 118.839 13.3174
603 2 7.92126 118.846 13.2589
604 2 12.0161 118.812 13.2977
605 2 0.23078 122.711 13.152
606 2 4.19997 122.636 13.1172
607 2 8.1775 122.806 13.2989
608 2 12.1073 122.848 13.1174
609 2 0.194501 126.596 13.0945
610 2 4.06822 126.798 13.1927
611 2 7.96753 126.578 13.1771
612 2 12.1188 126.81 13.1061
613 2 15.7983 130.664 13.292
614 2 4.14326 130.818 13.137
615 2 8.21886 130.736 13.1651
616 2 12.1101 130.741 13.0533
617 2 15.802 134.539 13.1585
618 2 4.08885 134.577 13.0609
619 2 8.00207 134.435 13.1319
620 2 12.0245 134.502 13.1773
621 2 0.0334221 138.611 13.2195
622 2 4.00914 138.48 13.1682
623 2 7.8474 138.323 13.0763
624 2 11.7443 138.387 12.9679
625 2 15.769 142.295 13.1254
626 2 4.08354 142.35 13.0322
627 2 7.93779 142.542 12.9706
628 2 11.9102 142.32 13.0619
629 2 -0.0754942 146.329 12.9947
630 2 3.89845 146.126 12.8539
631 2 8.09534 146.486 13.0525
632 2 11.9214 146.42 12.9871
633 2 0.172817 150.096 12.6816
634 2 4.04985 150.215 12.8174
635 2 7.99513 150.299 12.9836
636 2 12.0482 150.279 12.7279
637 2 15.7722 154.252 12.8115
638 2 4.02743 154.093 12.7495
639 2 7.76894 154.203 12.859
640 2 11.8039 154.142 12.8279
641 2 0.102949 158.261 16.6731
642 2 4.00034 -0.0879512 16.7612
643 2 7.94739 158.065 16.721
644 2 11.9439 158.224 16.7339
645 2 15.9452 3.66279 16.8291
646 2 4.03527 3.74463 16.8474
647 2 7.76346 3.75431 16.6574
648 2 11.8831 3.8195 16.8489
649 2 0.097172 7.64706 16.639
650 2 4.0044 7.88636 16.6281
651 2 7.95756 7.5106 16.7228
652 2 12.0744 7.72528 16.703
653 2 0.146875 11.6268 16.4409
654 2 4.08325 11.6249 16.5396
655 2 7.84234 11.5134 16.664
656 2 12.078 11.5573 16.7934
657 2 0.0520277 15.3283 16.6977
658 2 3.91475 15.5355 16.6384
659 2 7.74666 15.502 16.6653
660 2 11.8588 15.3061 16.6147
661 2 15.9147 19.4573 16.4865
662 2 4.00562 19.3869 16.4805
663 2 8.01813 19.4245 16.596
664 2 11.9481 19.54 16.5657
665 2 0.183255 23.5478 16.4948
666 2 3.91279 23.3403 16.4034
667 2 7.79057 23.5304 16.404
668 2 12.0364 23.204 16.3144
669 2 -0.132827 27.3488 16.3623
670 2 3.82083 27.3518 16.3466
671 2 7.89904 27.3273 16.361
672 2 11.7881 27.4161 16.4651
673 2 0.16208 31.2465 16.3401
674 2 4.07197 31.2964 16.4573
675 2 7.89991 31.4015 16.3459
676 2 11.8802 31.2719 16.4726
677 2 0.00411186 35.1246 16.3811
678 2 3.94439 35.2524 16.3759
679 2 7.98936 35.0741 16.2606
680 2 12.0046 35.1583 16.4026
681 2 -0.0311989 38.9973 16.0964
682 2 4.09702 38.9127 16.2604
683 2 7.96649 38.9092 16.1842
684 2 11.886 39.1064 16.3372
685 2 -0.0520917 42.8915 16.2643
686 2 3.79091 43.0224 16.2535
687 2 7.7723 42.7723 16.234
688 2 11.8388 42.7654 16.2986
689 2 15.6693 46.8616 16.5496
690 2 3.98425 46.9569 16.3963
691 2 7.93662 46.8639 16.5762
692 2 11.8622 46.9677 16.3763
693 2 -0.167994 50.8383 16.5561
694 2 3.92131 50.775 16.4922
695 2 7.95423 50.7039 16.3727
696 2 11.9104 51.0088 16.5301
697 2 0.0748243 54.8609 16.5099
698 2 4.0688 54.932 16.5516
699 2 7.75872 54.8326 16.4933
700 2 11.7977 54.808 16.4768
701 2 0.152061 59.1218 16.6019
702 2 3.91442 59.0797 16.718
703 2 7.9356 59.1269 16.5068
704 2 11.9349 58.7456 16.5368
705 2 -0.0216279 63.0675 16.7045
706 2 4.02605 63.0384 16.7773
707 2 8.04215 63.1098 16.692
708 2 12.0353 63.0223 16.4917
709 2 0.0706369 66.9665 16.6316
710 2 4.1372 66.9849 16.6937
711 2 7.86458 67.1354 16.6069
712 2 11.6882 67.0332 16.9756
713 2 -0.0460823 71.0721 16.9929
714 2 3.99671 71.0689 16.8658
715 2 7.98768 70.9028 16.9247
716 2 11.9826 71.0301 16.8857
717 2 -0.0462755 75.0394 16.9277
718 2 3.99908 75.019 16.7504
719 2 7.9179 75.0836 16.7604
720 2 11.8388 75.1233 16.6374
721 2 -0.0157993 79.1152 17.159
722 2 4.0292 79.3625 16.9399
723 2 8.08776 79.1751 16.925
724 2 11.9056 79.0813 16.9764
725 2 -0.0557169 83.1995 17.021
726 2 3.97514 83.2135 16.9938
727 2 8.00028 83.1154 17.1369
728 2 11.8325 83.1718 17.0554
729 2 0.1516 87.2574 17.0346
730 2 3.97491 87.1319 17.0136
731 2 8.05861 87.2578 17.0915
732 2 12.0699 87.2499 17.241
733 2 0.0674107 91.2833 17.298
734 2 3.61827 91.2065 17.2113
735 2 7.96725 91.2197 17.2753
736 2 11.9012 91.1691 17.0199
737 2 -0.0420285 95.4424 17.1138
738 2 3.90055 95.2692 17.1827
739 2 8.0225 95.1576 17.294
740 2 11.8713 95.2691 17.0107
741 2 0.0129651 99.567 17.5839
742 2 3.86561 99.2486 17.3451
743 2 7.79431 99.3938 17.4764
744 2 11.8919 99.2272 17.2956
745 2 0.079317 103.482 17.5438
746 2 3.84769 103.397 17.351
747 2 7.92089 103.342 17.4804
748 2 11.8428 103.198 17.3692
749 2 0.0830897 107.338 17.5482
750 2 3.98935 107.184 17.6612
751 2 7.9803 107.042 17.1245
752 2 11.928 107.157 17.6695
753 2 0.117219 111.182 17.5012
754 2 4.09752 111.094 17.4805
755 2 7.95409 111.072 17.5145
756 2 12.0914 111.126 17.3441
757 2 0.113551 114.924 17.4884
758 2 4.10448 115.101 17.3131
759 2 7.98465 115.259 17.3295
760 2 12.0243 115.129 17.3169
761 2 0.18161 118.879 17.3234
762 2 4.09404 118.943 17.3595
763 2 7.99167 118.918 17.3469
764 2 12.0832 119.08 17.2743
765 2 0.0758869 122.668 17.2776
766 2 4.07138 122.937 17.3913
767 2 7.94345 123.025 17.3109
768 2 12.029 122.848 17.2367
769 2 15.8474 126.545 17.2651
770 2 3.94137 126.858 17.2337
771 2 8.21598 126.856 17.4292
772 2 11.985 126.717 17.1711
773 2 15.8732 130.493 17.1109
774 2 3.93856 130.607 17.0389
775 2 8.05051 130.739 17.2185
776 2 12.0635 130.878 17.2416
777 2 16.0128 134.563 17.2537
778 2 4.1361 134.641 17.1843
779 2 8.07344 134.569 17.2416
780 2 11.9918 134.663 17.3128
781 2 0.0188375 138.513 17.1294
782 2 3.97342 138.487 17.0583
783 2 8.01294 138.496 16.8687
784 2 11.8625 138.594 17.0363
785 2 15.8837 142.314 16.9979
786 2 3.89763 142.603 17.0085
787 2 8.04568 142.442 17.0653
788 2 11.7414 142.416 17.1456
789 2 15.8948 146.476 16.7666
790 2 4.10311 146.451 16.9905
791 2 7.82109 146.463 16.999
792 2 12.0349 146.218 16.995
793 2 15.7902 150.476 16.8529
794 2 4.07023 150.323 16.9088
795 2 7.98602 150.424 16.92
796 2 12.0402 150.211 16.8499
797 2 15.8825 154.293 16.8707
798 2 4.06222 154.292 16.9679
799 2 7.88935 154.264 16.8871
800 2 11.9241 154.175 16.837
801 2 15.8004 158.181 20.8482
802 2 4.05334 158.234 20.8975
803 2 8.11425 158.311 20.8448
804 2 12.0049 158.353 20.7762
805 2 0.2266 4.00576 20.745
806 2 4.08399 3.90472 20.7979
807 2 7.96306 3.8531 20.7889
808 2 11.8207 3.71686 20.7387
809 2 15.5943 7.80104 20.7418
810 2 3.90326 7.71897 20.7915
811 2 8.05384 7.73226 20.6545
812 2 11.8641 7.86774 20.6859
813 2 16.0895 11.6175 20.5875
814 2 4.10615 11.501 20.6815
815 2 8.04145 11.5666 20.7218
816 2 11.9438 11.5511 20.7014
817 2 15.6962 15.5384 20.6805
818 2 3.89549 15.5595 20.6846
819 2 7.73134 15.6857 20.6795
820 2 11.8859 15.5631 20.7414
821 2 -0.132397 19.5135 20.5964
822 2 3.91953 19.5373 20.3248
823 2 7.95862 19.6703 20.588
824 2 11.8489 19.2629 20.4979
825 2 -0.0821394 23.3671 20.4382
826 2 4.018 23.6636 20.2541
827 2 7.89486 23.3567 20.5016
828 2 11.9559 23.4257 20.4493
829 2 15.8348 27.4732 20.4173
830 2 3.7828 27.3371 20.3932
831 2 7.73304 27.4208 20.3028
832 2 11.7182 27.3681 20.3577
833 2 15.6137 31.264 20.5872
834 2 3.85153 31.2862 20.3676
835 2 7.85132 31.2117 20.4052
836 2 11.9126 31.2909 20.5558
837 2 15.8152 35.2802 20.2819
838 2 3.91327 35.1662 20.3179
839 2 7.78348 35.0801 20.4376
840 2 11.9569 35.2305 20.3477
841 2 0.128325 39.0852 20.2316
842 2 4.02894 39.0794 20.4324
843 2 7.81108 38.9256 20.369
844 2 11.6157 39.078 20.3189
845 2 15.8583 42.9339 20.2515
846 2 3.99603 42.8624 20.1889
847 2 7.94029 42.7895 20.3025
848 2 11.8544 42.7464 20.4254
849 2 15.7614 46.6294 20.4318
850 2 3.92811 46.754 20.1159
851 2 7.81851 46.8538 20.3123
852 2 11.6524 46.7482 20.1611
853 2 -0.033271 50.6502 20.4355
854 2 3.93462 50.8434 20.2725
855 2 8.04989 50.8712 20.5659
856 2 11.9859 50.7201 20.4595
857 2 -0.113954 54.7714 20.3744
858 2 3.97799 54.8168 20.4531
859 2 7.87315 54.8987 20.4144
860 2 11.85 54.7405 20.4556
861 2 15.87 58.8979 20.4318
862 2 4.23131 58.9031 20.6292
863 2 7.99192 58.95 20.4543
864 2 12.0811 58.8794 20.4139
865 2 15.7846 62.8724 20.5061
866 2 3.95487 63.011 20.6917
867 2 7.99045 62.8497 20.5398
868 2 11.7707 62.8417 20.5341
869 2 -0.0295214 66.84 20.5713
870 2 4.03326 66.7808 20.6
871 2 7.96964 66.9618 20.453
872 2 11.7819 66.9033 20.6726
873 2 0.110442 70.855 20.903
874 2 3.95635 71.1102 20.9492
875 2 8.00634 71.0695 20.6812
876 2 12.0513 70.7496 20.6341
877 2 0.109887 74.9307 20.7212
878 2 4.02034 74.9492 20.8516
879 2 7.85367 75.1741 20.6496
880 2 11.9479 75.0007 20.8323
881 2 0.0544649 78.9002 20.9349
882 2 4.04629 79.1408 20.8501
883 2 7.95647 79.046 20.7298
884 2 11.928 79.0001 20.9188
885 2 -0.133553 83.1326 20.9144
886 2 3.89125 83.0247 20.889
887 2 7.92111 83.1425 21.1413
888 2 11.8528 83.1018 20.992
889 2 -0.00375402 87.2812 20.9951
890 2 4.12298 87.03 20.9229
891 2 7.89827 87.072 21.012
892 2 12.0482 87.1948 21.0908
893 2 -0.0253536 91.1783 21.1943
894 2 4.08319 91.0464 20.914
895 2 7.97357 91.1948 20.919
896 2 12.0323 91.1833 21.1521
897 2 0.0777985 95.1316 21.4324
898 2 3.91798 95.1625 21.2839
899 2 7.9272 95.1553 20.8853
900 2 11.8439 95.2318 21.1518
901 2 0.09944 99.1126 21.3183
902 2 4.12015 99.3366 21.3126
903 2 8.02887 99.2098 21.388
904 2 11.8333 99.2244 21.2766
905 2 -0.0599578 103.049 21.3852
906 2 3.99934 103.365 21.6448
907 2 8.00085 103.291 21.398
908 2 11.7863 103.179 21.4313
909 2 -0.149705 107.356 21.3756
910 2 4.05142 107.202 21.455
911 2 8.04769 107.293 21.4171
912 2 11.8816 107.304 21.3468
913 2 0.060896 111.184 21.5425
914 2 4.05238 111.215 21.493
915 2 7.94421 111.053 21.2916
916 2 11.7649 111.33 21.4087
917 2 16.03 115.164 21.5236
918 2 4.13549 115.081 21.3237
919 2 8.05327 115.223 21.4938
920 2 11.76 115.092 21.3971
921 2 0.223025 119.083 21.323
922 2 4.05242 118.952 21.4269
923 2 7.93992 118.894 21.247
924 2 12.0332 119.129 21.3224
925 2 15.8013 122.952 21.3971
926 2 3.99074 122.956 21.297
927 2 7.98239 122.807 21.1726
928 2 12.0504 122.965 21.2036
929 2 15.9519 126.834 21.355
930 2 3.97108 126.907 21.2351
931 2 8.03543 126.742 21.3835
932 2 11.9125 126.957 21.3014
933 2 15.8942 130.787 21.2767
934 2 3.85952 130.84 21.2771
935 2 8.02919 130.65 21.2719
936 2 12.1184 130.778 21.1859
937 2 -0.206645 134.872 21.2228
938 2 3.83511 134.63 21.1038
939 2 7.92327 134.669 21.189
940 2 11.7926 134.671 21.0696
941 2 15.9211 138.732 21.1553
942 2 4.16933 138.668 21.1769
943 2 7.80885 138.548 21.2363
944 2 11.9669 138.645 21.0407
945 2 15.9211 142.453 20.9129
946 2 3.99829 142.657 21.078
947 2 7.97404 142.464 21.0232
948 2 11.8568 142.421 20.8971
949 2 15.7835 146.52 21.0598
950 2 3.99014 146.448 20.8244
951 2 8.01285 146.488 20.9075
952 2 11.9047 146.539 20.8294
953 2 15.8404 150.387 20.8954
954 2 4.04491 150.389 20.9385
955 2 8.04918 150.387 21.0348
956 2 11.9489 150.39 20.854
957 2 16.0061 154.378 21.0734
958 2 3.86082 154.44 20.9262
959 2 7.95983 154.278 20.9787
960 2 11.7612 154.293 20.7168
961 2 -0.00571381 158.237 24.8437
962 2 4.00186 158.365 25.0578
963 2 7.83591 158.231 24.812
964 2 11.9115 158.278 24.9067
965 2 15.8848 3.9455 24.5986
966 2 3.94148 3.80194 24.7729
967 2 7.91879 3.90345 24.9048
968 2 11.9119 3.96343 24.7269
969 2 15.9882 7.84313 24.6498
970 2 4.01808 7.80288 24.7932
971 2 7.87815 7.77945 24.8624
972 2 11.975 7.90403 24.8257
973 2 15.7665 11.9389 24.7391
974 2 4.00187 11.6287 24.7338
975 2 7.92931 11.8513 24.5474
976 2 11.7298 11.7789 24.7491
977 2 -0.168834 15.6588 24.6719
978 2 3.96197 15.6375 24.5367
979 2 7.82947 15.6357 24.7295
980 2 11.8061 15.6891 24.683
981 2 0.0397188 19.6947 24.6458
982 2 3.92744 19.6429 24.5925
983 2 7.9448 19.5608 24.623
984 2 12.0452 19.6862 24.4722
985 2 0.0240419 23.6304 24.5964
986 2 3.8909 23.3391 24.5465
987 2 7.89558 23.3399 24.554
988 2 12.1033 23.5463 24.5997
989 2 0.137689 27.4978 24.4534
990 2 3.90721 27.3774 24.6362
991 2 7.86381 27.4083 24.486
992 2 11.8637 27.4092 24.5362
993 2 0.0905568 31.3362 24.4014