ITEM: TIMESTEP
23400
ITEM: NUMBER OF ATOMS
32000
ITEM: BOX BOUNDS xy xz yz pp pp pp
0.0000000000000000e+00 1.5832000000000001e+01 0.0000000000000000e+00
0.0000000000000000e+00 1.5831999999999999e+02 0.0000000000000000e+00
8.2919829774927223e-01 1.6014791970224567e+02 0.0000000000000000e+00
ITEM: ATOMS id type x y z
1 2 -0.0327866 157.855 160.058
2 2 3.98011 157.635 160.007
3 2 8.03742 157.842 160.043
4 2 11.909 157.902 160.082
5 2 0.266416 3.51894 159.913
6 2 4.03392 3.35895 159.9
7 2 7.917 3.712 159.933
8 2 11.8981 3.69772 159.915
9 2 15.9697 7.44452 159.89
10 2 3.92349 7.41269 159.81
11 2 7.8945 7.39782 159.914
12 2 12.0268 7.53589 159.818
13 2 -0.0336211 11.3283 159.966
14 2 3.88936 11.2723 159.75
15 2 8.01363 11.1456 159.846
16 2 11.9265 11.4701 159.836
17 2 0.274659 15.0688 159.929
18 2 4.13902 15.3719 159.766
19 2 8.00799 15.2237 159.672
20 2 11.9902 15.3013 159.783
21 2 0.0391884 19.1581 159.72
22 2 4.00751 19.2066 159.824
23 2 8.0417 19.1778 159.727
24 2 11.9273 19.149 159.727
25 2 0.154397 23.1287 159.694
26 2 4.09782 23.0161 159.742
27 2 7.90847 22.8709 159.699
28 2 12.1114 23.0804 159.535
29 2 0.194477 27.0485 159.701
30 2 3.98415 27.0512 159.608
31 2 7.98291 27.1043 159.802
32 2 11.9979 27.0731 159.62
33 2 15.8897 31.194 159.696
34 2 4.02005 31.1893 159.707
35 2 7.76832 31.1976 159.914
36 2 11.9617 31.0518 159.824
37 2 15.905 35.2767 159.779
38 2 3.87225 35.0403 159.934
39 2 7.95782 34.9392 159.834
40 2 11.7973 35.2389 159.885
41 2 -0.232999 39.1344 159.885
42 2 4.02887 39.1417 159.756
43 2 7.74275 39.1721 159.816
44 2 11.4706 39.1425 159.913
45 2 15.7204 43.0354 159.885
46 2 4.04693 43.1679 0.866294
47 2 7.90361 43.2782 160.066
48 2 11.8114 43.0663 159.902
49 2 15.9315 47.2076 160.065
50 2 4.04277 47.1692 159.998
51 2 7.95209 47.1443 159.933
52 2 11.8954 47.0609 160.019
53 2 15.8506 51.1702 0.895824
54 2 3.92627 51.2385 160.235
55 2 7.79696 51.1894 160.247
56 2 11.8118 51.2506 0.724883
57 2 15.8832 55.1665 0.896471
58 2 3.76848 55.2385 1.02927
59 2 7.87996 55.1945 0.721344
60 2 12.1105 55.2267 0.871179
61 2 0.111284 59.3355 0.896092
62 2 3.71543 59.292 0.936325
63 2 7.74875 59.2108 1.10093
64 2 11.7034 59.1179 1.01505
65 2 -0.0966924 63.2079 1.16758
66 2 3.87485 63.3559 1.09293
67 2 7.9724 63.1487 1.02073
68 2 11.8372 63.3618 1.20806
69 2 15.8098 67.3034 1.131
70 2 3.87633 67.2991 1.04003
71 2 7.74898 67.2978 0.949062
72 2 11.7493 67.253 1.07702
73 2 0.0977047 71.3568 1.1236
74 2 3.62843 71.4139 1.08002
75 2 7.90839 71.3343 1.17336
76 2 11.8504 71.3972 1.00759
77 2 0.00252349 75.6524 1.37386
78 2 3.77421 75.4238 1.17516
79 2 7.82923 75.5939 1.40221
80 2 11.8779 75.7169 1.30444
81 2 -0.274513 79.5076 1.27929
82 2 3.65619 79.2835 1.59617
83 2 7.90219 79.41 1.30363
84 2 11.6741 79.5458 1.26833
85 2 0.0176718 83.5131 1.51485
86 2 3.87768 83.7172 1.39054
87 2 7.91878 83.5365 1.52542
88 2 11.8404 83.5434 1.48323
89 2 -0.0175896 87.6583 1.52831
90 2 3.95315 87.5146 1.66565
91 2 7.8036 87.5547 1.58188
92 2 11.786 87.4055 1.34598
93 2 15.6987 91.5336 1.43476
94 2 4.09977 91.3603 1.43502
95 2 7.97297 91.4347 1.55663
96 2 11.8636 91.5452 1.45839
97 2 15.9139 95.3016 1.43311
98 2 3.84452 95.3236 1.51799
99 2 7.99813 95.4486 1.40355
100 2 11.9212 95.3493 1.49745
101 2 15.689 99.3369 1.32994
102 2 3.80096 99.2199 1.40846
103 2 7.97831 99.1775 1.40704
104 2 11.9268 99.3647 1.47127
105 2 0.115038 103.198 1.31134
106 2 4.16052 102.974 1.35713
107 2 7.94037 103.05 1.46718
108 2 11.7327 103.187 1.27007
109 2 15.8269 106.972 1.38905
110 2 3.9272 107.145 1.17081
111 2 7.70001 107.055 1.25914
112 2 11.708 107.152 1.29932
113 2 15.9368 110.834 1.38541
114 2 3.86451 111.087 1.06366
115 2 8.01932 110.72 1.09785
116 2 11.9447 110.97 1.14822
117 2 15.8045 114.793 1.21967
118 2 3.99282 114.821 1.12573
119 2 7.95826 114.658 1.09112
120 2 11.7942 114.728 1.29292
121 2 -0.0955012 118.834 1.26423
122 2 3.95047 118.95 1.17034
123 2 7.75485 118.966 1.17177
124 2 11.72 118.673 1.25886
125 2 -0.0885061 122.72 1.07077
126 2 3.70452 122.665 1.18358
127 2 7.53672 122.803 1.21006
128 2 11.5198 122.673 1.13923
129 2 -0.0823593 126.662 1.04035
130 2 3.835 126.615 1.1258
131 2 7.7129 126.54 1.25375
132 2 11.7978 126.656 1.06425
133 2 -0.0328153 130.553 1.05858
134 2 3.95327 130.523 1.14468
135 2 7.97019 130.713 0.956202
136 2 11.923 130.471 1.02032
137 2 16.0208 134.333 0.997106
138 2 4.0104 134.431 160.181
139 2 7.91839 134.44 1.05099
140 2 12.1171 134.505 1.00298
141 2 15.9988 138.378 0.964073
142 2 4.11243 138.405 0.966873
143 2 8.14023 138.348 0.895337
144 2 12.0028 138.379 0.920142
145 2 -0.025868 142.251 0.97655
146 2 3.92332 142.124 0.987996
147 2 7.86184 142.236 0.942589
148 2 11.952 142.31 0.828472
149 2 0.0565662 146.146 1.01148
150 2 3.9715 146.241 160.084
151 2 7.92682 146.19 0.896391
152 2 11.8024 146.345 160.119
153 2 0.0544722 149.999 160.023
154 2 4.01257 150.241 160.037
155 2 8.06028 150.271 0.752893
156 2 11.9375 150.163 0.667263
157 2 0.0132025 153.855 159.934
158 2 3.93824 153.865 160.1
159 2 7.97008 154.097 159.932
160 2 11.8006 153.999 159.931
161 2 -0.00493377 157.868 4.77809
162 2 3.94198 -0.330215 4.69742
163 2 7.99142 157.927 4.73959
164 2 11.891 158.06 4.88041
165 2 0.0649641 3.3849 4.60435
166 2 4.06481 3.65926 4.64453
167 2 7.98971 3.4923 4.59342
168 2 11.8079 3.61889 4.58254
169 2 0.0405506 7.48822 4.66878
170 2 3.89975 7.43938 4.61925
171 2 7.82208 7.45912 4.62555
172 2 11.9527 7.61253 4.66569
173 2 0.0754598 11.3573 4.4999
174 2 4.13073 11.5796 4.69844
175 2 7.82923 11.3912 4.49731
176 2 11.7845 11.6321 4.51493
177 2 0.27229 15.3799 4.50732
178 2 4.10524 15.2195 4.68845
179 2 7.82809 15.1688 4.55687
180 2 11.9795 15.4874 4.43332
181 2 -0.0781581 19.3453 4.47271
182 2 4.0248 19.3261 4.63072
183 2 8.14966 19.2969 4.3865
184 2 11.9478 19.3116 4.53742
185 2 0.0451673 23.1144 4.51625
186 2 4.03891 23.2971 4.48691
187 2 8.05541 22.9838 4.41533
188 2 11.9565 23.2564 4.48751
189 2 0.163117 27.0977 4.2674
190 2 4.22372 26.9652 4.43905
191 2 7.92433 26.8639 4.29226
192 2 11.9484 27.0435 4.44439
193 2 -0.0799994 30.9114 4.47273
194 2 3.94691 31.0068 4.42284
195 2 8.0875 31.0043 4.4627
196 2 11.9819 31.0261 4.33816
197 2 15.7734 34.8514 4.28256
198 2 3.97233 35.0223 4.37539
199 2 7.8757 34.8051 4.57185
200 2 11.9844 35.2543 4.45413
201 2 0.348196 39.2006 4.59635
202 2 3.91914 39.0084 4.5049
203 2 7.84564 38.9018 4.68128
204 2 11.8934 39.0172 4.41278
205 2 16.0003 43.1057 4.46945
206 2 4.03592 43.1357 4.6156
207 2 8.04831 43.1469 4.53545
208 2 12.0711 43.0253 4.60438
209 2 15.8461 47.0385 4.48149
210 2 3.99297 47.1572 4.67638
211 2 8.13739 47.1929 4.60726
212 2 11.8541 47.1647 4.62796
213 2 15.6989 51.1925 4.64588
214 2 4.01124 51.0482 4.862
215 2 7.95154 51.032 4.70575
216 2 11.8899 51.2705 4.62284
217 2 0.0036914 55.4101 4.73051
218 2 3.94091 55.1407 5.07651
219 2 7.99604 55.0699 4.58251
220 2 11.8226 55.1862 4.82443
221 2 15.6745 59.2457 4.89371
222 2 4.03706 59.2702 4.78667
223 2 7.90782 59.2312 4.94119
224 2 11.957 59.1391 4.81971
225 2 15.9712 63.27 5.17996
226 2 3.99022 63.2918 5.00195
227 2 7.77664 63.2243 4.96135
228 2 11.7239 63.2384 5.07992
229 2 -0.148188 67.1843 4.89116
230 2 4.0218 67.3444 5.03148
231 2 7.88167 67.1218 4.9539
232 2 11.8017 67.251 5.12392
233 2 -0.0900265 71.5726 5.02815
234 2 4.01725 71.3535 5.10859
235 2 7.75492 71.2374 5.01421
236 2 11.6891 71.4549 4.8159
237 2 15.8569 75.3353 5.20933
238 2 3.9539 75.1543 5.15881
239 2 8.01463 75.2406 5.28191
240 2 11.7953 75.4467 5.22457
241 2 0.101834 79.3771 5.3988
242 2 4.0337 79.4513 5.33663
243 2 7.88975 79.2839 5.19461
244 2 11.8486 79.4298 5.36529
245 2 0.0450359 83.4161 5.19731
246 2 4.09766 83.2992 5.17184
247 2 7.99109 83.4082 5.26184
248 2 11.9737 83.3579 5.44874
249 2 0.0825814 87.5026 5.28015
250 2 4.00654 87.529 5.64892
251 2 8.1761 87.6844 5.50867
252 2 11.9939 87.4056 5.4931
253 2 0.00246549 91.3646 5.58836
254 2 3.98945 91.588 5.68639
255 2 7.99173 91.5142 5.63521
256 2 11.8014 91.4475 5.47368
257 2 15.7185 95.4366 5.54776
258 2 3.88284 95.4507 5.58013
259 2 7.82333 95.4096 5.63798
260 2 11.9121 95.2144 5.4492
261 2 -0.0342829 99.4259 5.42992
262 2 3.80527 99.1706 5.39721
263 2 7.84185 99.3132 5.42324
264 2 11.8996 99.2025 5.39887
265 2 -0.174221 103.348 5.28667
266 2 3.96744 103.076 5.45208
267 2 7.86569 103.289 5.27549
268 2 11.8327 103.118 5.51762
269 2 -0.11362 107.243 5.22358
270 2 3.95044 107.064 5.3626
271 2 7.78584 107.301 5.0617
272 2 11.584 106.974 5.33132
273 2 15.8136 110.815 5.22172
274 2 3.9779 111.018 5.25547
275 2 7.90706 111.162 5.32904
276 2 12.0598 111.165 5.16625
277 2 15.8913 114.902 5.37869
278 2 3.99447 114.994 5.08193
279 2 7.77455 114.997 5.26044
280 2 11.8025 115.18 5.11043
281 2 15.8086 118.847 5.20302
282 2 3.86083 118.909 5.2283
283 2 7.81467 118.729 5.3899
284 2 11.8716 118.791 5.13929
285 2 -0.05589 122.72 5.22241
286 2 3.77498 122.876 5.36153
287 2 7.73709 122.758 5.20576
288 2 11.8964 122.671 5.01354
289 2 -0.17383 126.754 5.15466
290 2 3.82707 126.767 5.34753
291 2 7.93959 126.513 5.13711
292 2 11.7059 126.723 5.09393
293 2 -0.215185 130.723 5.02084
294 2 3.74027 130.502 5.0509
295 2 7.7857 130.541 5.04815
296 2 11.7578 130.791 5.12301
297 2 15.8647 134.651 5.08803
298 2 3.88152 134.743 5.12525
299 2 7.86692 134.419 4.97551
300 2 12.0374 134.558 5.20838
301 2 0.134648 138.368 4.91987
302 2 4.07207 138.382 5.05749
303 2 7.82167 138.363 5.02763
304 2 11.625 138.493 5.03083
305 2 0.0306036 142.277 4.9524
306 2 4.0435 142.399 4.88608
307 2 7.93132 142.31 4.89028
308 2 11.7842 142.164 4.86363
309 2 0.0134632 146.146 5.02391
310 2 4.04708 145.973 4.81858
311 2 8.06651 146.209 4.86694
312 2 11.7361 146.263 4.89267
313 2 15.7162 150.106 4.87829
314 2 4.04202 149.998 4.83093
315 2 7.8277 150.026 4.79721
316 2 11.9647 150.178 4.86587
317 2 -0.116307 153.979 4.61959
318 2 3.93463 153.994 4.93282
319 2 7.93177 154.08 4.85484
320 2 11.8773 154.113 4.6897
321 2 0.0201575 157.961 8.75509
322 2 4.01028 158.002 8.76063
323 2 8.0168 158.014 8.62844
324 2 11.8069 158.097 8.75453
325 2 15.8106 3.53903 8.67762
326 2 3.88138 3.55268 8.76144
327 2 7.8167 3.76214 8.73636
328 2 11.868 3.77208 8.75221
329 2 0.142222 7.59807 8.75628
330 2 3.89845 7.52381 8.5311
331 2 7.92585 7.63559 8.77102
332 2 11.9134 7.40129 8.7413
333 2 0.0448792 11.5509 8.61923
334 2 3.97102 11.4631 8.55354
335 2 7.99234 11.3352 8.6561
336 2 11.9628 11.4837 8.76628
337 2 -0.0703874 15.4867 8.68986
338 2 4.0327 15.4494 8.46138
339 2 7.88957 15.3966 8.64582
340 2 11.8772 15.3877 8.62119
341 2 -0.0377863 19.3075 8.54415
342 2 3.93075 19.5213 8.46108
343 2 8.01423 19.4739 8.44894
344 2 11.8187 19.0827 8.53069
345 2 0.00943441 23.2999 8.52546
346 2 4.04022 23.2517 8.40194
347 2 7.96944 23.2508 8.40095
348 2 11.9565 23.2746 8.56452
349 2 15.8366 27.0876 8.33245
350 2 4.15074 27.1054 8.44136
351 2 7.89249 27.1649 8.13544
352 2 12.0095 27.155 8.41451
353 2 -0.00554699 30.9417 8.48094
354 2 3.79472 30.9466 8.29953
355 2 7.99114 31.0192 8.38664
356 2 11.8543 30.9534 8.40047
357 2 15.7321 34.7891 8.2587
358 2 3.96983 35.0941 8.51638
359 2 7.96175 35.0524 8.35242
360 2 12.0426 34.8239 8.4106
361 2 15.7118 39.0055 8.55694
362 2 3.87642 38.9207 8.47745
363 2 7.82093 39.0371 8.50428
364 2 11.7808 38.9256 8.22089
365 2 15.8981 43.0211 8.51485
366 2 4.14403 42.9246 8.41556
367 2 8.02231 43.0681 8.44945
368 2 12.0683 43.1787 8.3601
369 2 15.8838 47.095 8.42362
370 2 3.89487 46.9922 8.55
371 2 8.15927 47.0329 8.69525
372 2 12.0916 47.2142 8.53279
373 2 -0.00857486 51.0892 8.4921
374 2 3.97829 51.0092 8.78933
375 2 7.8856 51.1242 8.63762
376 2 12.0923 51.034 8.50747
377 2 -0.20046 54.9676 8.74363
378 2 3.93331 55.1398 8.76482
379 2 7.86981 55.0557 8.62405
380 2 11.9191 55.0928 8.63993
381 2 15.889 59.2085 8.81693
382 2 3.89676 59.1515 8.84249
383 2 7.8439 59.1645 8.90299
384 2 11.7975 59.0722 8.71974
385 2 15.9377 63.2707 8.71628
386 2 3.8757 63.3235 8.80091
387 2 7.81336 63.1047 8.8841
388 2 11.7968 63.1847 8.87956
389 2 -0.0309215 67.2955 8.95997
390 2 4.067 67.1813 9.02255
391 2 7.96162 67.3279 9.12851
392 2 11.8005 67.1882 8.94254
393 2 15.725 71.2382 8.89266
394 2 3.8952 71.1541 8.97903
395 2 8.05419 71.2358 9.25027
396 2 11.8963 71.3172 8.90013
397 2 -0.00769526 75.2198 9.20981
398 2 3.97212 75.2526 9.02563
399 2 7.87402 75.2152 9.08833
400 2 12.0299 75.31 9.07741
401 2 15.9593 79.3574 9.20972
402 2 4.1358 79.3619 9.29785
403 2 8.03644 79.3194 9.31294
404 2 12.0868 79.41 9.1717
405 2 15.9663 83.2304 9.37222
406 2 4.23669 83.3372 9.32632
407 2 7.85566 83.238 9.19565
408 2 12.0851 83.466 9.22806
409 2 0.119417 87.5186 9.18161
410 2 4.10092 87.3102 9.43666
411 2 7.93081 87.4659 9.5855
412 2 11.9947 87.4245 9.424
413 2 -0.0139221 91.4681 9.48089
414 2 3.95974 91.2802 9.43022
415 2 7.966 91.447 9.42552
416 2 11.912 91.4525 9.43675
417 2 0.00943214 95.2951 9.49513
418 2 4.00429 95.3536 9.56254
419 2 7.89803 95.4248 9.42478
420 2 11.848 95.3886 9.48791
421 2 -0.00731435 99.5232 9.48937
422 2 3.95243 99.2151 9.38241
423 2 7.92576 99.4545 9.40557
424 2 11.6447 99.374 9.53101
425 2 -0.0765111 103.238 9.43615
426 2 3.67853 103.271 9.21328
427 2 7.77752 103.276 9.45458
428 2 11.9187 103.41 9.43314
429 2 -0.109191 107.131 9.24907
430 2 3.9012 107.25 9.38845
431 2 8.00256 107.158 9.41145
432 2 11.879 107.14 9.43309
433 2 -0.132516 111.267 9.28553
434 2 3.85492 111.005 9.30749
435 2 7.84859 111.097 9.38848
436 2 11.6816 110.994 9.25937
437 2 15.6917 114.924 9.24709
438 2 3.70184 115.038 9.27962
439 2 7.84337 114.938 9.40986
440 2 11.6469 114.983 9.32626
441 2 0.108828 118.757 9.20795
442 2 3.97147 119.025 9.33001
443 2 7.98204 118.976 9.24169
444 2 11.9292 118.8 9.41133
445 2 15.7246 122.88 9.29173
446 2 3.90811 123.025 9.18487
447 2 7.73613 122.798 9.32386
448 2 11.7082 122.961 9.158
449 2 -0.0367044 126.629 9.2758
450 2 3.9147 126.673 9.21068
451 2 7.85344 126.724 9.15063
452 2 11.8128 126.696 9.27387
453 2 15.8941 130.669 9.1015
454 2 3.78904 130.598 9.07356
455 2 7.83308 130.524 9.25727
456 2 12.0227 130.821 9.17862
457 2 15.8427 134.588 9.16541
458 2 4.15936 134.474 9.0794
459 2 8.02247 134.394 9.27386
460 2 11.7055 134.513 9.10102
461 2 -0.137117 138.432 8.99451
462 2 4.04919 138.342 8.95266
463 2 7.9433 138.475 8.96042
464 2 11.7954 138.612 9.01362
465 2 -0.136376 142.474 8.95198
466 2 3.88308 142.25 8.99784
467 2 7.74848 142.332 8.99156
468 2 11.78 142.457 8.99195
469 2 15.7892 146.302 8.91431
470 2 4.04357 146.199 8.91824
471 2 7.85002 146.164 8.92302
472 2 12.0089 146.153 8.86582
473 2 -0.052299 150.162 8.91489
474 2 3.94546 150.028 8.80764
475 2 7.95693 150.132 8.93632
476 2 11.731 150.21 8.91479
477 2 0.154695 154.014 8.60488
478 2 3.89411 154.001 8.79984
479 2 8.07684 153.917 8.84606
480 2 11.8205 154.038 8.71976
481 2 15.6971 157.947 12.7291
482 2 3.9019 158.116 12.7755
483 2 7.68244 157.962 12.6112
484 2 11.7002 158.059 12.7401
485 2 -0.141826 3.69021 12.668
486 2 4.01958 3.66451 12.7097
487 2 7.93075 3.60533 12.6101
488 2 11.999 3.61895 12.6684
489 2 15.9416 7.52598 12.6023
490 2 3.97877 7.58124 12.9431
491 2 7.87684 7.74685 12.8374
492 2 11.9349 7.4288 12.7433
493 2 15.8969 11.5483 12.6826
494 2 3.86886 11.4933 12.6793
495 2 7.89566 11.4148 12.7667
496 2 11.9507 11.4933 12.7149
497 2 15.9366 15.4423 12.5854
498 2 3.88121 15.3543 12.6519
499 2 7.93752 15.4241 12.7394
500 2 11.8584 15.3282 12.6737
501 2 15.8603 19.3675 12.3489
502 2 3.79118 19.2393 12.4665
503 2 7.81303 19.2759 12.6041
504 2 11.9684 19.39 12.5643
505 2 15.9511 23.0547 12.4387
506 2 3.98997 23.2846 12.3161
507 2 7.96636 23.2467 12.5448
508 2 11.8192 23.3722 12.635
509 2 0.00122926 27.0374 12.4926
510 2 3.93615 27.2805 12.5626
511 2 7.69591 27.1095 12.4221
512 2 11.7085 27.0931 12.3726
513 2 15.6635 31.0994 12.5624
514 2 3.89839 31.0073 12.4541
515 2 7.97021 31.0436 12.3676
516 2 11.8835 31.127 12.6804
517 2 0.177628 34.9763 12.3424
518 2 4.0773 34.8037 12.1297
519 2 8.05417 34.9253 12.32
520 2 11.865 34.9896 12.1241
521 2 -0.17796 38.9767 12.2909
522 2 3.85407 39.0529 12.3751
523 2 7.90891 38.9936 12.486
524 2 11.7626 38.8603 12.2201
525 2 -0.284319 42.8743 12.2887
526 2 4.01901 42.851 12.347
527 2 7.92662 43.0524 12.3394
528 2 11.7945 42.906 12.3062
529 2 0.167126 46.8686 12.3442
530 2 3.97637 46.968 12.5264
531 2 7.97549 46.9559 12.4452
532 2 11.9816 47.0861 12.5569
533 2 15.8205 50.9298 12.5939
534 2 4.14497 51.0096 12.4723
535 2 7.90415 51.0335 12.6237
536 2 11.8891 50.9405 12.4866
537 2 -0.0343864 55.0013 12.7098
538 2 3.9428 54.9173 12.603
539 2 8.11346 54.889 12.6137
540 2 11.8671 54.9375 12.7485
541 2 15.7168 59.0326 12.7964
542 2 3.97341 58.9653 12.7087
543 2 7.96962 59.0079 12.6849
544 2 11.9195 59.091 12.7336
545 2 15.9371 62.9939 12.6253
546 2 3.86542 63.1054 12.5656
547 2 7.6693 63.0484 12.8302
548 2 11.7273 63.0363 12.8466
549 2 -0.104392 67.0984 12.9495
550 2 3.93237 67.125 13.0481
551 2 7.89309 67.1169 13.0399
552 2 11.8631 66.9597 12.8038
553 2 -0.0742648 71.1531 12.9889
554 2 3.96477 71.1132 12.9535
555 2 7.9087 71.1417 12.9173
556 2 11.8566 71.1535 12.9935
557 2 -0.0829605 75.156 12.9371
558 2 3.93792 75.3922 13.1298
559 2 7.72929 75.1155 12.9886
560 2 11.9116 75.0718 13.1871
561 2 15.6947 79.246 12.9936
562 2 4.10178 79.2794 13.2312
563 2 8.19712 79.4546 13.024
564 2 11.9102 79.3408 13.103
565 2 0.226587 83.3296 13.152
566 2 4.1499 83.3671 13.3515
567 2 8.19304 83.5767 13.1714
568 2 11.9563 83.4708 13.1095
569 2 15.892 87.3331 13.2767
570 2 3.81571 87.3098 13.3385
571 2 8.09974 87.4045 13.4665
572 2 12.0702 87.3557 13.3671
573 2 -0.122299 91.4842 13.3243
574 2 3.88339 91.271 13.3988
575 2 8.00376 91.3482 13.3805
576 2 11.9095 91.4283 13.3824
577 2 0.0574963 95.3632 13.453
578 2 3.90163 95.5109 13.4262
579 2 7.65713 95.4021 13.4112
580 2 11.8398 95.5378 13.458
581 2 0.0952113 99.4856 13.6086
582 2 3.9277 99.3409 13.5735
583 2 7.86178 99.3454 13.4279
584 2 11.8847 99.3598 13.5824
585 2 15.7748 103.218 13.487
586 2 3.98594 103.286 13.3615
587 2 7.75727 103.12 13.4595
588 2 11.754 103.348 13.6635
589 2 15.8719 107.262 13.3875
590 2 3.82919 107.299 13.565
591 2 7.6944 107.017 13.2993
592 2 11.7414 107.446 13.3697
593 2 -0.278134 111.124 13.3055
594 2 3.89581 111.048 13.4305
595 2 7.81364 111.255 13.4447
596 2 11.6987 111.135 13.3262
597 2 -0.26092 115.062 13.2301
598 2 3.79671 114.898 13.1938
599 2 7.72083 115.243 13.4312
600 2 11.7739 115.145 13.4304
601 2 15.7583 118.793 13.2178
602 2 3.89998 119.011 13.2154
603 2 7.98772 118.975 13.1896
604 2 11.8314 118.941 13.1759
605 2 15.6338 122.798 13.2177
606 2 3.74255 122.833 13.284
607 2 7.88245 122.981 13.2589
608 2 11.7858 122.903 13.3517
609 2 -0.176242 126.763 13.2375
610 2 4.00653 126.703 13.1399
611 2 7.92161 126.8 13.1452
612 2 11.6345 126.799 13.2738
613 2 15.8532 130.617 13.1775
614 2 3.93969 130.559 13.2173
615 2 7.7624 130.698 13.4136
616 2 11.7879 130.608 13.15
617 2 0.194934 134.553 13.0365
618 2 3.82341 134.464 13.0162
619 2 7.94592 134.682 13.2999
620 2 11.9205 134.754 13.0507
621 2 -0.0330284 138.361 13.0732
622 2 3.96639 138.334 12.9482
623 2 7.96602 138.353 13.1619
624 2 11.768 138.552 12.9249
625 2 15.7953 142.304 13.043
626 2 3.98634 142.226 12.8532
627 2 7.9368 142.443 12.9426
628 2 11.9674 142.359 12.9968
629 2 15.8866 146.194 12.9759
630 2 4.05476 146.262 13.0274
631 2 7.8515 146.205 12.9506
632 2 11.9708 146.255 12.9543
633 2 -0.149812 150.223 12.863
634 2 3.7792 150.088 12.9458
635 2 7.9399 150.035 12.8223
636 2 11.7083 150.069 12.7741
637 2 -0.0170862 154.31 12.7556
638 2 4.04009 154.236 12.5239
639 2 7.94218 153.991 12.6959
640 2 11.959 154.051 12.8641
641 2 -0.0230118 158.277 16.6708
642 2 3.94085 158.208 16.8133
643 2 7.91473 158.188 16.6334
644 2 11.6486 158.001 16.7106
645 2 15.6873 3.54837 16.6916
646 2 3.87907 3.65234 16.6583
647 2 8.09623 3.75185 16.6424
648 2 11.9201 3.69026 16.8
649 2 15.7621 7.49878 16.7644
650 2 3.96025 7.51038 16.7896
651 2 7.95599 7.62874 16.6695
652 2 11.826 7.50899 16.7641
653 2 -0.216856 11.4579 16.7246
654 2 3.83222 11.2665 16.7447
655 2 7.95137 11.451 16.6794
656 2 11.8782 11.5957 16.6397
657 2 -0.0221837 15.5283 16.7131
658 2 4.09288 15.4459 16.7432
659 2 8.09923 15.423 16.7317
660 2 11.9268 15.3371 16.5395
661 2 15.706 19.3391 16.5137
662 2 4.09241 19.3595 16.6028
663 2 7.93013 19.2742 16.3537
664 2 12.0543 19.5067 16.4009
665 2 -0.0179968 23.3978 16.551
666 2 4.03624 23.3425 16.5178
667 2 7.91661 23.1786 16.5179
668 2 11.6939 23.1546 16.5883
669 2 15.8892 27.2379 16.4904
670 2 4.03503 27.2036 16.5884
671 2 7.85189 26.9242 16.5639
672 2 11.9429 27.3729 16.5048
673 2 15.73 31.2423 16.4162
674 2 3.91704 31.0351 16.5703
675 2 8.05185 31.0676 16.4124
676 2 11.8405 31.0189 16.234
677 2 15.7787 35.209 16.4218
678 2 3.98738 34.8184 16.3096
679 2 7.95745 35.0212 16.4512
680 2 11.9184 35.2587 16.3265
681 2 15.7909 39.0078 16.2805
682 2 3.87144 38.7385 16.2541
683 2 7.84929 38.8163 16.3039
684 2 11.817 38.8735 16.2841
685 2 0.0763898 42.8283 16.1137
686 2 4.19083 42.925 16.2814
687 2 7.8686 42.9218 16.4466
688 2 11.7455 42.7218 16.2053
689 2 15.8165 46.8734 16.3876
690 2 4.06916 46.8259 16.4021
691 2 8.05033 46.7773 16.2352
692 2 11.8998 46.8524 16.2503
693 2 15.9601 50.8903 16.4905
694 2 4.06239 50.8945 16.4178
695 2 7.85303 50.7958 16.509
696 2 11.9599 51.0417 16.5428
697 2 16.0178 54.8869 16.5944
698 2 3.96066 55.0487 16.4424
699 2 7.965 54.9888 16.7006
700 2 11.9173 55.0083 16.4294
701 2 15.918 58.9162 16.4696
702 2 3.98196 58.753 16.584
703 2 8.02507 58.9943 16.5924
704 2 11.9244 59.0448 16.578
705 2 15.8516 63.0815 16.618
706 2 4.02235 62.9853 16.7092
707 2 7.90259 63.0089 16.7044
708 2 11.8353 63.1722 16.6265
709 2 0.0914227 67.0975 16.872
710 2 3.91684 67.074 16.838
711 2 7.9197 67.11 16.778
712 2 12.0132 66.9199 16.9111
713 2 0.146737 70.9969 16.8974
714 2 3.90997 70.9096 16.7675
715 2 7.8174 70.8961 16.8214
716 2 11.7499 71.0077 16.8417
717 2 15.9686 75.1463 17.0404
718 2 4.05406 74.9302 17.0884
719 2 8.0649 75.1851 16.9026
720 2 11.9782 75.1011 16.9332
721 2 0.149086 79.1823 16.908
722 2 4.07148 79.0555 16.9845
723 2 7.82178 79.2414 16.8875
724 2 11.8414 79.0369 17.1148
725 2 0.0871547 83.2136 17.0659
726 2 4.12459 83.1835 17.2838
727 2 7.90111 83.3131 17.16
728 2 12.1096 83.1488 17.0437
729 2 -0.128929 87.2918 17.2947
730 2 4.00321 87.411 17.3575
731 2 8.04931 87.2815 17.2287
732 2 11.8862 87.2498 17.1467
733 2 0.136449 91.3743 17.2755
734 2 4.12025 91.3398 17.361
735 2 8.08553 91.2694 17.1756
736 2 11.9472 91.4056 17.3705
737 2 15.8639 95.3002 17.4797
738 2 3.96778 95.4102 17.4006
739 2 7.88736 95.2478 17.2881
740 2 11.8698 95.281 17.466
741 2 15.8119 99.2668 17.5666
742 2 4.0771 99.3746 17.7528
743 2 7.817 99.3004 17.4485
744 2 11.9637 99.3562 17.507
745 2 15.8094 103.254 17.536
746 2 4.17693 103.296 17.5543
747 2 7.95352 103.33 17.4624
748 2 11.7295 103.424 17.4599
749 2 15.9498 107.113 17.2617
750 2 4.07924 107.286 17.6089
751 2 7.81188 107.413 17.4009
752 2 11.8014 107.298 17.525
753 2 0.0742107 111.126 17.3195
754 2 3.7645 111.263 17.3345
755 2 7.80429 111.263 17.5564
756 2 11.7982 111.256 17.4936
757 2 15.8877 115.172 17.0898
758 2 3.98475 115.137 17.4035
759 2 8.04314 114.996 17.5431
760 2 11.7616 115.041 17.4447
761 2 0.0936 119.082 17.1456
762 2 3.91307 118.859 17.3899
763 2 7.96437 119.005 17.2757
764 2 11.7005 119.104 17.4453
765 2 0.0786361 123.03 17.3649
766 2 3.6829 122.791 17.3238
767 2 7.8238 122.906 17.2353
768 2 11.7886 122.959 17.3178
769 2 0.0215701 127.026 17.2975
770 2 3.7906 126.784 17.2919
771 2 7.80247 126.777 17.3717
772 2 11.7456 126.873 17.2476
773 2 15.7478 130.959 17.199
774 2 3.89828 130.698 17.2373
775 2 7.83739 130.788 17.2716
776 2 11.7838 130.888 17.1575
777 2 15.8264 134.657 17.0965
778 2 3.93976 134.628 17.3386
779 2 7.9146 134.816 17.0731
780 2 11.8844 134.564 17.1275
781 2 15.803 138.594 17.1271
782 2 3.89851 138.598 17.318
783 2 7.86055 138.768 17.0563
784 2 11.8929 138.558 17.2985
785 2 15.8181 142.616 16.9909
786 2 3.84079 142.226 16.9451
787 2 8.08513 142.429 17.0367
788 2 11.8782 142.594 16.9629
789 2 -0.0596525 146.271 16.9502
790 2 4.06616 146.232 16.9474
791 2 7.78046 146.125 16.8937
792 2 11.9299 146.474 17.0678
793 2 15.7423 150.242 16.8768
794 2 3.83372 150.223 16.8703
795 2 8.00368 150.276 16.7804
796 2 11.6794 150.326 16.8539
797 2 -0.0267048 154.192 16.7645
798 2 3.76014 153.954 16.7373
799 2 7.92472 154.028 16.6701
800 2 11.8097 154.382 16.9644
801 2 15.9011 158.087 20.8511
802 2 4.04895 158.018 20.677
803 2 7.75172 -0.116072 20.6998
804 2 12.0113 158.101 20.8366
805 2 15.7705 3.67292 20.7877
806 2 4.05834 3.65396 20.5803
807 2 7.93592 3.64221 20.9005
808 2 11.857 3.79313 20.967
809 2 15.8665 7.68807 20.6909
810 2 4.13047 7.60485 20.7129
811 2 8.02928 7.8521 20.6762
812 2 11.8654 7.65732 20.8133
813 2 -0.00882073 11.6416 20.6066
814 2 3.81822 11.8036 20.6098
815 2 7.76656 11.5206 20.7148
816 2 11.8916 11.5768 20.7291
817 2 15.8864 15.5587 20.5517
818 2 4.07018 15.4817 20.4801
819 2 8.01826 15.2967 20.5234
820 2 11.8384 15.7481 20.6578
821 2 0.278435 19.3668 20.4783
822 2 4.07643 19.3433 20.5432
823 2 7.81516 19.2525 20.5238
824 2 11.8228 19.4437 20.6408
825 2 15.9199 23.2603 20.6304
826 2 3.89235 23.3224 20.6217
827 2 7.88707 23.1721 20.5052
828 2 11.8084 23.5138 20.4181
829 2 0.15464 27.3097 20.4678
830 2 4.0532 27.1334 20.5242
831 2 8.17929 27.3107 20.3834
832 2 12.1166 27.1834 20.5429
833 2 15.9829 31.1045 20.4228
834 2 4.0234 31.1609 20.3725
835 2 7.94431 31.0418 20.323
836 2 11.9466 31.1328 20.4045
837 2 0.152505 34.9393 20.2774
838 2 4.12863 35.0978 20.438
839 2 8.00679 34.9829 20.394
840 2 11.8428 35.0982 20.3157
841 2 15.8035 38.8807 20.2475
842 2 3.79173 38.8054 20.3178
843 2 8.23872 39.1036 20.3737
844 2 12.0844 39.0016 20.4452
845 2 -0.0768213 42.8395 20.1804
846 2 3.90607 42.6685 20.3436
847 2 7.76191 42.8283 20.1051
848 2 11.913 42.8367 20.1635
849 2 -0.0183961 46.7428 20.2024
850 2 4.08457 46.6421 20.3262
851 2 8.09287 46.7699 20.2452
852 2 11.9558 46.7662 20.3936
853 2 0.098463 50.7093 20.3821
854 2 4.04614 50.6896 20.2396
855 2 7.86671 50.6476 20.2616
856 2 11.6334 50.7356 20.4521
857 2 15.7882 54.8477 20.5275
858 2 3.97658 54.6723 20.3437
859 2 8.01778 54.971 20.4282
860 2 11.8979 54.8545 20.3056
861 2 15.7559 58.779 20.4415
862 2 3.98138 58.8439 20.317
863 2 7.84467 58.9681 20.3587
864 2 11.8879 58.9597 20.4307
865 2 15.9267 62.7531 20.7229
866 2 3.9506 62.7968 20.566
867 2 7.90057 62.9794 20.5807
868 2 11.8863 62.9219 20.7105
869 2 15.7422 67.0198 20.896
870 2 3.79291 66.9935 20.8449
871 2 7.88296 66.9174 20.7724
872 2 11.9802 66.9786 20.6104
873 2 0.166998 71.0586 20.7379
874 2 4.17181 71.0341 20.6298
875 2 7.85959 70.9769 20.7215
876 2 11.7784 70.9803 20.7645
877 2 15.8951 75.1489 20.8545
878 2 4.00284 74.9405 20.7988
879 2 8.06103 74.9335 20.8325
880 2 12.1618 75.0688 20.9174
881 2 0.165746 79.275 20.8683
882 2 3.91835 78.9389 20.8243
883 2 8.00875 79.156 21.0391
884 2 11.8116 79.0215 20.8709
885 2 -0.0375713 83.0382 20.9956
886 2 3.97474 83.0798 20.947
887 2 7.95085 83.3062 20.9912
888 2 11.8783 83.0113 21.0456
889 2 15.7626 87.1793 21.0965
890 2 3.9525 87.1558 21.1084
891 2 7.93368 87.1468 21.2044
892 2 11.8686 87.1347 21.0294
893 2 15.7948 91.2454 21.1451
894 2 3.94562 91.172 21.2476
895 2 7.89849 91.1209 21.1801
896 2 12.0326 91.2087 21.3512
897 2 0.0866435 95.3483 21.3713
898 2 3.85284 95.2864 21.2216
899 2 7.85148 95.3027 21.4264
900 2 11.8981 95.2405 21.3478
901 2 15.6388 99.5998 21.2836
902 2 3.94193 99.3616 21.5173
903 2 7.99726 99.1708 21.328
904 2 11.8537 99.2979 21.2841
905 2 -0.142741 103.344 21.5001
906 2 3.76432 103.16 21.3196
907 2 7.91625 103.22 21.585
908 2 11.691 103.293 21.5287
909 2 15.7799 107.125 21.3432
910 2 3.94082 107.422 21.535
911 2 7.88188 107.349 21.623
912 2 11.8119 107.246 21.4518
913 2 15.858 111.141 21.3265
914 2 3.89831 111.171 21.485
915 2 7.87317 111.192 21.3807
916 2 12.1699 111.219 21.2868
917 2 0.0761134 115.161 21.286
918 2 4.0216 115.266 21.4213
919 2 7.85287 115.155 21.512
920 2 12.0055 115.024 21.3254
921 2 15.7469 119.173 21.3993
922 2 4.00324 119.166 21.3724
923 2 7.94076 119.08 21.3212
924 2 11.94 118.946 21.3115
925 2 15.7444 122.95 21.498
926 2 4.09593 122.984 21.4825
927 2 7.98971 123.088 21.3435
928 2 11.7707 122.859 21.4768
929 2 -0.051685 126.849 21.1502
930 2 3.7595 126.757 21.3518
931 2 7.78118 127.017 21.3239
932 2 11.8808 126.734 21.2936
933 2 0.0963834 130.802 21.3383
934 2 4.0769 130.798 21.2384
935 2 7.89677 131.023 21.2666
936 2 11.6847 130.769 21.0498
937 2 15.9398 134.665 21.1668
938 2 3.95709 134.636 21.2014
939 2 7.93935 134.816 21.2139
940 2 11.8559 134.825 21.2413
941 2 -0.137365 138.635 21.1739
942 2 4.10253 138.616 20.9965
943 2 7.97923 138.667 20.9564
944 2 11.6539 138.672 21.0754
945 2 15.7365 142.5 21.0547
946 2 3.90282 142.529 21.1547
947 2 7.97429 142.597 20.9506
948 2 11.9289 142.454 21.0545
949 2 15.8515 146.414 21.1067
950 2 4.05363 146.405 20.8938
951 2 7.99615 146.45 20.8477
952 2 12.0071 146.659 21.0473
953 2 15.8461 150.379 20.8136
954 2 3.96107 150.215 20.9305
955 2 7.78262 150.184 20.7404
956 2 11.9283 150.442 20.8396
957 2 -0.0176418 154.305 20.8448
958 2 4.1318 154.212 20.7823
959 2 7.97577 154.219 20.9715
960 2 11.8242 154.255 20.8442
961 2 -0.000491385 158.114 24.8996
962 2 3.93932 158.194 24.8789
963 2 7.78991 158.238 24.847
964 2 11.8346 158.192 25.0542
965 2 -0.104837 3.81243 24.8484
966 2 3.94499 3.56598 24.8643
967 2 7.90205 3.91474 24.9289
968 2 11.8567 3.93503 24.6524
969 2 15.7682 7.69949 24.695
970 2 3.84975 7.72733 24.5886
971 2 7.83658 7.77864 24.7887
972 2 12.0926 7.70193 24.9249
973 2 15.9293 11.4518 24.6496
974 2 4.06972 11.7568 24.8244
975 2 7.95832 11.5815 24.6841
976 2 11.8239 11.769 24.6581
977 2 15.9374 15.4965 24.6391
978 2 3.93342 15.5596 24.7459
979 2 8.00823 15.3593 24.7923
980 2 11.8598 15.5134 24.6685
981 2 -0.0567631 19.3586 24.6445
982 2 3.79566 19.5525 24.6668
983 2 7.83471 19.4878 24.7578
984 2 11.7885 19.3948 24.5674
985 2 15.8188 23.1523 24.5619
986 2 4.21159 23.2933 24.509
987 2 8.03094 23.3746 24.5699
988 2 11.8782 23.2595 24.5122
989 2 15.9004 27.1801 24.3581
990 2 4.14133 27.3089 24.4343
991 2 7.97132 27.3818 24.5271
992 2 12.1212 27.0413 24.4992
993 2 15.8992 31.1676 24.3728