ITEM: TIMESTEP
23500
ITEM: NUMBER OF ATOMS
32000
ITEM: BOX BOUNDS xy xz yz pp pp pp
0.0000000000000000e+00 1.5832000000000001e+01 0.0000000000000000e+00
0.0000000000000000e+00 1.5831999999999999e+02 0.0000000000000000e+00
8.2532354536857611e-01 1.6015179445462630e+02 0.0000000000000000e+00
ITEM: ATOMS id type x y z
1 2 0.00672114 157.82 160.012
2 2 3.98278 158.085 159.925
3 2 7.84024 157.934 160.091
4 2 11.9722 158.007 159.857
5 2 -0.0638152 3.4126 159.945
6 2 4.16238 3.53506 159.822
7 2 8.20676 3.26637 159.931
8 2 12.061 3.44488 160.04
9 2 15.7555 7.39649 159.958
10 2 4.04451 7.44645 159.841
11 2 8.02497 7.47004 159.931
12 2 11.9059 7.40974 160.04
13 2 0.126947 11.208 159.789
14 2 3.99712 11.5043 159.996
15 2 7.85915 11.2542 159.828
16 2 11.7855 11.3089 159.888
17 2 -0.04537 15.3565 159.639
18 2 3.98285 15.2517 159.847
19 2 7.97849 15.2159 159.803
20 2 11.998 15.1725 159.635
21 2 -0.00573488 19.2007 159.841
22 2 3.93189 19.1273 159.726
23 2 7.82591 18.9041 159.726
24 2 12.0061 19.2268 159.697
25 2 -0.1527 22.9165 159.635
26 2 4.00221 22.9461 159.523
27 2 8.08584 23.0429 159.766
28 2 11.9106 22.9952 159.702
29 2 0.0660507 26.9496 159.823
30 2 4.0073 27.0325 159.925
31 2 7.95597 26.9334 159.74
32 2 12.1022 26.9242 159.89
33 2 15.5769 31.0971 159.874
34 2 3.99078 31.0524 159.882
35 2 8.10975 31.077 159.838
36 2 11.7826 30.877 159.675
37 2 15.6839 34.9671 160.003
38 2 3.7003 35.2337 159.748
39 2 7.77097 35.1555 160.056
40 2 11.9162 34.9017 159.831
41 2 0.170748 39.1347 159.841
42 2 3.92105 39.045 160.042
43 2 7.98337 39.0593 160.031
44 2 12.1693 39.0329 159.842
45 2 15.8131 43.2223 159.948
46 2 3.80863 43.2119 0.683837
47 2 7.81273 43.068 159.997
48 2 11.8832 43.1917 160.149
49 2 15.8445 47.1218 160.127
50 2 3.99454 47.3183 160.24
51 2 7.97361 47.3454 160.07
52 2 11.8091 47.3605 160.03
53 2 15.8577 51.296 0.813472
54 2 4.05445 51.1941 160.199
55 2 8.03737 51.259 160.041
56 2 11.9202 51.2749 0.932974
57 2 15.8208 55.222 0.862205
58 2 4.14198 55.1885 0.943845
59 2 7.92225 55.1771 0.910165
60 2 11.7466 55.4135 1.02794
61 2 -0.00104235 59.207 0.936305
62 2 4.04564 59.1062 0.915689
63 2 7.79564 59.2877 0.820767
64 2 11.8973 59.3054 0.910507
65 2 0.00227659 63.3643 1.02194
66 2 3.827 63.1408 0.969246
67 2 7.69949 63.4076 1.05246
68 2 11.8854 63.1827 0.915475
69 2 15.6935 67.2508 1.10004
70 2 3.73252 67.3006 1.21022
71 2 7.80465 67.3198 1.24748
72 2 11.895 67.3909 1.09238
73 2 -0.088163 71.5324 0.884074
74 2 4.01401 71.2792 1.26457
75 2 7.80536 71.3493 1.20248
76 2 11.8791 71.4328 1.23355
77 2 -0.115874 75.4797 1.27102
78 2 4.05681 75.2798 1.4612
79 2 7.93622 75.4035 1.22437
80 2 11.9045 75.3239 1.24356
81 2 -0.0582775 79.5929 1.67287
82 2 4.07856 79.6888 1.29109
83 2 7.82032 79.5567 1.59032
84 2 11.8507 79.517 1.67438
85 2 -0.194753 83.549 1.48411
86 2 3.79676 83.3895 1.54091
87 2 7.91834 83.7035 1.56777
88 2 11.8476 83.5756 1.62811
89 2 0.0989224 87.3595 1.44878
90 2 3.74694 87.5712 1.51945
91 2 7.83073 87.5203 1.62269
92 2 12.0361 87.5453 1.72524
93 2 15.9125 91.5106 1.46507
94 2 3.85047 91.6509 1.65819
95 2 7.72849 91.3759 1.63103
96 2 11.8486 91.2918 1.69344
97 2 15.6603 95.3677 1.39796
98 2 3.84842 95.3817 1.42493
99 2 7.84061 95.2738 1.52002
100 2 11.8367 95.23 1.48428
101 2 15.8443 99.218 1.46422
102 2 3.95273 99.2402 1.47343
103 2 7.70475 99.2725 1.23587
104 2 11.8302 99.1545 1.36517
105 2 -0.0306201 103.19 1.38371
106 2 3.75129 103.345 1.45632
107 2 7.84103 103.047 1.2526
108 2 11.741 103.179 1.39087
109 2 15.8261 107.073 1.27787
110 2 3.80966 107.16 1.11671
111 2 7.78481 106.936 1.07258
112 2 11.8574 107.043 1.30093
113 2 15.6214 111.023 1.14102
114 2 3.87938 110.923 1.33338
115 2 7.94236 111.094 1.40134
116 2 11.8491 110.979 1.40346
117 2 15.8338 114.971 1.26907
118 2 3.93001 114.909 1.2996
119 2 7.80472 115.111 1.39245
120 2 11.8421 114.888 1.12139
121 2 -0.0627436 118.739 1.11408
122 2 3.78226 118.775 1.15365
123 2 7.9496 118.844 1.19659
124 2 11.792 118.796 0.9993
125 2 -0.0758596 122.662 1.25784
126 2 3.90117 122.783 1.13879
127 2 7.98394 122.762 1.02055
128 2 11.9881 122.68 1.06838
129 2 -0.0547269 126.536 1.16424
130 2 3.7647 126.636 1.05343
131 2 7.91774 126.719 1.06112
132 2 11.8832 126.611 1.23738
133 2 0.138981 130.648 1.05101
134 2 3.92585 130.521 0.946345
135 2 7.80374 130.522 1.12657
136 2 11.9178 130.455 1.07305
137 2 15.7755 134.608 0.962091
138 2 4.00006 134.578 160.31
139 2 8.08361 134.377 0.991521
140 2 11.9167 134.303 0.975049
141 2 15.8521 138.336 1.04953
142 2 4.0124 138.395 0.92643
143 2 7.91889 138.351 1.04349
144 2 11.8944 138.367 1.08867
145 2 0.195441 142.307 0.787856
146 2 4.02515 142.332 0.757961
147 2 8.04506 142.275 0.868536
148 2 11.9982 142.208 0.905587
149 2 -0.0215229 146.182 0.702317
150 2 4.01848 146.222 160.118
151 2 7.88872 146.173 0.847038
152 2 11.9097 146.32 160.038
153 2 0.0181904 150.087 160.046
154 2 3.94028 150.004 160.019
155 2 7.75142 150.059 0.76492
156 2 11.6909 150.233 0.812152
157 2 0.0492869 153.968 160.164
158 2 3.99718 154.162 160.031
159 2 7.61928 153.995 160.162
160 2 11.917 153.937 160.127
161 2 -0.149188 157.961 4.66515
162 2 3.84099 -0.0726889 4.51925
163 2 7.87093 157.873 4.78401
164 2 11.7236 157.967 4.59411
165 2 -0.0194936 3.6971 4.70078
166 2 3.95708 3.69144 4.61515
167 2 7.92242 3.65639 4.50664
168 2 11.9939 3.58992 4.73975
169 2 0.0249407 7.56808 4.60458
170 2 3.9452 7.50885 4.52549
171 2 7.94874 7.62226 4.59067
172 2 11.9108 7.52309 4.62749
173 2 -0.0629012 11.5414 4.64041
174 2 3.85641 11.379 4.59773
175 2 7.87211 11.4649 4.66404
176 2 11.8549 11.4267 4.58627
177 2 -0.125016 15.4272 4.49267
178 2 3.88097 15.6036 4.42326
179 2 8.07376 15.429 4.3389
180 2 11.9313 15.2803 4.53912
181 2 0.0260914 19.3329 4.5889
182 2 3.76826 19.359 4.32738
183 2 7.92028 18.9801 4.46483
184 2 11.9392 19.1678 4.43918
185 2 0.0504438 23.0798 4.41099
186 2 4.06988 23.0682 4.48361
187 2 7.87589 23.0143 4.34871
188 2 11.5888 23.0006 4.388
189 2 0.0497817 26.8871 4.31782
190 2 3.90865 27.0075 4.21465
191 2 8.0334 27.0316 4.33763
192 2 11.9331 27.0695 4.29616
193 2 0.160702 31.0136 4.34707
194 2 3.9474 30.8294 4.50362
195 2 7.78971 30.988 4.38165
196 2 11.8713 30.9941 4.21194
197 2 15.8307 35.1152 4.67945
198 2 3.81448 34.9237 4.55535
199 2 7.76575 35.0552 4.38361
200 2 11.8112 34.9143 4.52001
201 2 -0.140666 39.0782 4.42298
202 2 3.99345 39.0227 4.47445
203 2 8.07258 39.1019 4.31592
204 2 11.9535 39.0007 4.37036
205 2 16.0164 43.0629 4.60833
206 2 4.16611 43.1664 4.52028
207 2 8.00649 43.0329 4.53595
208 2 11.8967 43.1121 4.47675
209 2 15.853 47.2145 4.61827
210 2 4.16688 47.2201 4.72676
211 2 7.96212 47.1094 4.71577
212 2 12.0019 47.1071 4.68714
213 2 15.9493 51.1737 4.79255
214 2 3.97276 51.1965 4.73693
215 2 7.97052 51.2493 4.76699
216 2 11.8902 51.1181 4.75737
217 2 -0.0674706 55.1313 4.88244
218 2 3.94047 55.1821 4.75417
219 2 7.80791 55.2862 4.96597
220 2 11.7605 55.2571 4.75415
221 2 15.9314 59.3013 4.92715
222 2 3.75049 59.0656 4.98065
223 2 7.77819 59.1818 4.81747
224 2 11.8146 59.1834 4.89451
225 2 15.6305 63.3237 4.82463
226 2 3.7161 63.2642 4.88275
227 2 7.9574 63.26 4.87428
228 2 11.7134 63.2805 4.83912
229 2 -0.0170654 67.4329 5.24822
230 2 3.9046 67.2683 5.19037
231 2 7.82527 67.4225 5.09242
232 2 11.8941 67.2708 4.91287
233 2 -0.0549108 71.1143 4.99443
234 2 3.901 71.2655 5.06965
235 2 8.1708 71.2487 5.1435
236 2 11.9048 71.1407 5.21849
237 2 15.6418 75.3934 5.21941
238 2 3.83061 75.3983 5.22012
239 2 7.67691 75.2973 5.28697
240 2 11.8153 75.2938 5.20801
241 2 0.103076 79.3531 5.3683
242 2 4.06936 79.232 5.38856
243 2 7.99764 79.5078 5.48886
244 2 11.762 79.4643 5.35114
245 2 -0.0184102 83.3353 5.52652
246 2 3.93365 83.5089 5.39379
247 2 7.92101 83.3857 5.37571
248 2 11.9271 83.6924 5.61881
249 2 0.228585 87.5171 5.35082
250 2 4.03902 87.4504 5.52853
251 2 7.81799 87.2692 5.4723
252 2 11.8673 87.6357 5.53618
253 2 0.0830568 91.5601 5.46492
254 2 3.91754 91.5063 5.515
255 2 7.96928 91.464 5.46456
256 2 11.9803 91.3416 5.66198
257 2 15.7723 95.3458 5.52222
258 2 4.04136 95.418 5.51229
259 2 8.03473 95.428 5.44554
260 2 11.7149 95.578 5.53604
261 2 -0.193316 99.2959 5.33763
262 2 3.81742 99.3381 5.57943
263 2 7.72165 99.2536 5.43847
264 2 11.7079 99.3346 5.56468
265 2 -0.0284143 103.133 5.23837
266 2 3.87488 103.396 5.48123
267 2 7.84851 103.076 5.43694
268 2 11.812 103.192 5.41337
269 2 -0.158949 107.031 5.30214
270 2 3.94292 107.218 5.31309
271 2 7.79176 106.903 5.31655
272 2 12.0033 107.097 5.39641
273 2 15.8143 111.182 5.43002
274 2 3.80685 111.039 5.38438
275 2 7.67578 110.879 5.1714
276 2 11.6398 110.824 5.31771
277 2 15.727 114.817 5.11065
278 2 3.83737 114.891 5.33532
279 2 7.84332 114.903 5.26785
280 2 11.7225 114.746 5.27573
281 2 15.6349 118.686 5.16512
282 2 3.89709 118.763 5.16037
283 2 7.93631 118.991 5.02413
284 2 11.7901 118.786 5.24546
285 2 -0.236738 122.701 5.10509
286 2 3.91905 122.58 5.04034
287 2 8.00916 122.788 5.16294
288 2 11.6495 122.758 5.36268
289 2 -0.222706 126.593 5.01417
290 2 3.9485 126.565 4.98292
291 2 7.67305 126.785 5.10609
292 2 11.7116 126.628 5.24034
293 2 0.159002 130.597 5.17627
294 2 4.01229 130.514 5.06351
295 2 8.03181 130.533 5.00097
296 2 11.9056 130.442 5.06939
297 2 15.8123 134.346 4.94186
298 2 4.10248 134.244 4.94944
299 2 7.84422 134.399 5.06507
300 2 11.6968 134.559 4.94716
301 2 0.0141531 138.414 5.01056
302 2 3.96041 138.348 5.01719
303 2 7.87044 138.369 4.90321
304 2 12.0473 138.358 4.95565
305 2 -0.138022 142.284 4.82359
306 2 3.85861 142.097 5.08971
307 2 7.86437 142.41 4.90719
308 2 11.9306 142.482 4.99958
309 2 0.0395206 146.123 4.74137
310 2 3.77947 146.223 4.84571
311 2 7.73272 146.153 4.70877
312 2 11.9613 146.344 4.62359
313 2 15.762 150.039 4.80208
314 2 3.60856 150.142 4.74999
315 2 7.83668 150.154 4.88396
316 2 11.7688 150.079 4.859
317 2 0.038249 154.132 4.88421
318 2 3.90949 154.051 4.68376
319 2 7.87004 153.967 4.77406
320 2 11.997 153.983 4.8609
321 2 0.0884128 157.956 8.5948
322 2 3.89793 158.17 8.59265
323 2 7.75333 157.93 8.70086
324 2 11.9161 158.076 8.78046
325 2 15.6963 3.78249 8.72092
326 2 3.93787 3.73368 8.63081
327 2 7.80156 3.47731 8.58154
328 2 11.8024 3.72428 8.55214
329 2 -0.11902 7.70649 8.57357
330 2 3.9811 7.59101 8.66173
331 2 7.87896 7.45601 8.62108
332 2 11.7844 7.79981 8.5406
333 2 0.0333847 11.4474 8.66017
334 2 3.93647 11.5355 8.74213
335 2 7.91045 11.6889 8.66815
336 2 11.6785 11.5829 8.3998
337 2 0.112929 15.3249 8.35059
338 2 4.04417 15.3794 8.6542
339 2 8.01277 15.4797 8.53847
340 2 11.9127 15.3435 8.53302
341 2 -0.0510348 19.3228 8.57625
342 2 4.11638 19.1287 8.48735
343 2 7.85039 19.0788 8.55406
344 2 11.8441 19.4979 8.50429
345 2 0.0806841 23.2069 8.46708
346 2 4.19775 23.2559 8.48389
347 2 7.96497 23.1832 8.6123
348 2 11.8534 23.321 8.56059
349 2 15.8452 26.9653 8.30153
350 2 3.85503 27.1862 8.40934
351 2 8.21076 27.0185 8.39111
352 2 11.9376 27.0248 8.26646
353 2 -0.104863 31.1162 8.33699
354 2 4.02486 31.0301 8.44457
355 2 7.89787 30.9537 8.26222
356 2 11.9816 30.9663 8.18164
357 2 15.851 35.1311 8.5032
358 2 3.84723 34.8584 8.38428
359 2 7.80737 34.8053 8.24656
360 2 11.684 35.0417 8.31472
361 2 15.9225 38.9165 8.32567
362 2 3.97265 38.9601 8.4945
363 2 7.8065 38.8982 8.34995
364 2 11.9459 38.9934 8.31581
365 2 15.8677 42.8892 8.39302
366 2 4.11942 43.0763 8.30496
367 2 8.10953 42.9861 8.4835
368 2 11.9113 42.8422 8.46788
369 2 15.8586 46.912 8.51713
370 2 4.06785 47.0047 8.48526
371 2 7.84627 47.0637 8.58407
372 2 11.8372 46.9892 8.58667
373 2 0.0629246 50.9991 8.71407
374 2 3.99814 51.1131 8.54
375 2 7.93141 51.0728 8.79728
376 2 11.8197 51.0984 8.56182
377 2 0.22167 55.1775 8.83197
378 2 4.00746 55.0496 8.83936
379 2 7.92238 55.123 8.82917
380 2 11.8542 55.0403 8.72645
381 2 15.5652 59.2542 8.78015
382 2 3.94482 58.9638 8.81177
383 2 8.10824 59.1463 8.65471
384 2 11.9753 59.1786 8.81328
385 2 15.7136 63.2019 8.92656
386 2 4.07755 62.996 8.84475
387 2 7.84129 63.2099 8.94261
388 2 11.7342 63.1477 8.79854
389 2 -0.0050929 67.0969 8.96699
390 2 3.93589 67.2246 9.10517
391 2 7.88947 67.0932 8.91621
392 2 11.9217 67.153 8.93029
393 2 15.7869 71.2113 9.06206
394 2 3.83387 71.2104 9.10198
395 2 7.73088 71.2308 8.89842
396 2 11.8061 71.2065 9.11108
397 2 0.117977 75.3512 8.93741
398 2 4.00952 75.1987 9.24655
399 2 7.96023 75.1845 9.24204
400 2 11.8057 75.2447 9.14881
401 2 15.8918 79.2148 9.18686
402 2 4.06583 79.5552 9.39892
403 2 7.8286 79.3851 9.33055
404 2 11.7539 79.4055 9.27213
405 2 15.8531 83.4068 9.21584
406 2 3.79387 83.4753 9.09204
407 2 8.09194 83.4005 9.26727
408 2 12.0639 83.6177 9.4803
409 2 0.268307 87.4879 9.60883
410 2 3.8839 87.3695 9.35935
411 2 7.8707 87.3073 9.42127
412 2 12.0222 87.4158 9.1819
413 2 -0.0824386 91.4133 9.57183
414 2 4.08887 91.5186 9.38397
415 2 8.07524 91.4153 9.5406
416 2 11.9483 91.3487 9.54932
417 2 -0.0795906 95.5427 9.71031
418 2 3.81842 95.3759 9.60384
419 2 7.97161 95.3539 9.68331
420 2 11.9233 95.51 9.52833
421 2 -0.137143 99.3097 9.5645
422 2 3.77903 99.4327 9.53927
423 2 7.87299 99.3026 9.64531
424 2 12.0431 99.343 9.5094
425 2 -0.10412 103.36 9.40677
426 2 3.8733 103.318 9.49831
427 2 7.75684 103.283 9.43671
428 2 11.4873 103.215 9.45716
429 2 -0.0697899 107.231 9.56299
430 2 3.84375 107.093 9.45299
431 2 7.77526 107.22 9.34031
432 2 11.8109 107.153 9.25718
433 2 -0.0855205 111.018 9.38295
434 2 3.80063 110.997 9.36607
435 2 7.73275 111.171 9.23022
436 2 11.7099 110.912 9.04657
437 2 15.7061 115.104 9.34379
438 2 3.96181 114.95 9.24175
439 2 7.86034 115.065 9.15576
440 2 11.8794 114.805 9.14731
441 2 -0.013883 119.02 9.23498
442 2 3.91614 118.888 9.05136
443 2 7.79125 118.837 9.18642
444 2 11.8275 119.085 9.11598
445 2 15.7353 122.755 9.06951
446 2 3.74986 122.682 9.16675
447 2 7.89827 122.853 9.05942
448 2 11.7961 122.77 9.24135
449 2 -0.148444 126.749 9.0024
450 2 3.86323 126.705 9.14961
451 2 7.74656 126.819 9.25543
452 2 11.743 126.993 9.04621
453 2 15.6941 130.517 9.13371
454 2 3.96487 130.597 9.17897
455 2 7.91742 130.719 8.97315
456 2 11.6606 130.692 9.10805
457 2 15.8295 134.437 8.89393
458 2 3.9159 134.449 8.97957
459 2 7.81997 134.744 8.95935
460 2 11.9551 134.71 9.02413
461 2 0.122471 138.424 8.93297
462 2 3.75169 138.447 9.10767
463 2 8.01927 138.617 8.94509
464 2 11.9645 138.402 8.93581
465 2 -0.0509419 142.306 8.95795
466 2 3.83251 142.301 9.06322
467 2 7.86868 142.453 8.92313
468 2 11.9167 142.16 8.90903
469 2 15.7494 146.122 8.95249
470 2 3.76423 146.209 8.87828
471 2 7.84711 146.282 8.76997
472 2 11.6242 146.187 8.82055
473 2 0.0777871 150.029 8.77105
474 2 4.03518 150.165 8.86006
475 2 7.79908 150.112 8.60701
476 2 11.9674 150.097 8.90174
477 2 -0.0445994 154.124 8.90014
478 2 3.99297 154.066 8.79652
479 2 7.80293 154.21 8.76046
480 2 11.9121 154.071 8.93427
481 2 15.7219 158.098 12.6842
482 2 3.81 158.124 12.6576
483 2 7.99984 157.979 12.8095
484 2 11.8409 158.236 12.6797
485 2 0.0995997 3.68898 12.7817
486 2 4.01703 3.58908 12.7383
487 2 7.94369 3.65445 12.7333
488 2 11.8529 3.78161 12.6443
489 2 15.7621 7.72339 12.777
490 2 3.86969 7.40208 12.4989
491 2 7.90848 7.51323 12.6313
492 2 11.7367 7.74878 12.5581
493 2 15.7853 11.4937 12.6574
494 2 4.02693 11.5431 12.6396
495 2 7.88488 11.5685 12.6577
496 2 11.9233 11.4381 12.5643
497 2 15.7906 15.3901 12.6382
498 2 4.07374 15.4701 12.6076
499 2 8.03241 15.4413 12.6193
500 2 11.9966 15.3533 12.5891
501 2 15.7782 19.1611 12.691
502 2 3.87302 19.386 12.5075
503 2 8.11741 19.3059 12.477
504 2 11.9053 19.4392 12.4602
505 2 15.7954 23.32 12.544
506 2 4.17214 23.1036 12.6029
507 2 7.98605 23.2222 12.4648
508 2 11.9879 23.2693 12.4896
509 2 0.065911 27.0845 12.3297
510 2 3.85552 26.9904 12.3292
511 2 7.94067 27.211 12.3832
512 2 11.9272 27.2199 12.6088
513 2 15.8116 30.8684 12.2657
514 2 4.10241 30.967 12.328
515 2 7.96566 30.9521 12.2262
516 2 11.9578 30.8288 12.119
517 2 -0.0758071 34.9091 12.402
518 2 3.95584 34.9185 12.5182
519 2 7.8198 34.9162 12.3152
520 2 11.878 34.9008 12.3934
521 2 0.0757201 38.9059 12.4339
522 2 4.04509 38.8917 12.5224
523 2 8.01379 38.8474 12.2478
524 2 11.8336 38.9187 12.3503
525 2 0.154355 42.914 12.338
526 2 3.80063 43.0302 12.163
527 2 7.94515 42.8028 12.3461
528 2 11.9122 42.8661 12.4351
529 2 0.0170948 46.9574 12.4699
530 2 3.88741 46.8733 12.345
531 2 7.8697 46.7966 12.5594
532 2 11.8124 46.7956 12.3419
533 2 15.9542 50.9555 12.3835
534 2 3.84792 51.0963 12.6798
535 2 8.00594 50.7357 12.5157
536 2 11.8992 51.0022 12.4307
537 2 0.0159441 54.9771 12.5841
538 2 4.08774 55.1686 12.865
539 2 7.92404 54.9545 12.6866
540 2 11.8777 54.9373 12.4845
541 2 15.8937 59.054 12.5957
542 2 4.08972 59.0193 12.5754
543 2 8.01946 59.0371 12.6947
544 2 11.9217 58.929 12.6622
545 2 15.6175 63.0912 12.926
546 2 3.81558 62.9437 12.8825
547 2 7.99137 63.1257 12.9687
548 2 11.8593 63.176 12.6486
549 2 -0.0380183 67.11 12.8674
550 2 3.77779 67.0411 12.7406
551 2 7.94302 67.0698 12.7646
552 2 11.856 67.2347 12.8997
553 2 0.00771256 71.0629 12.8075
554 2 3.83955 71.1942 13.0019
555 2 7.9377 71.1151 12.9983
556 2 11.8699 71.1602 12.9528
557 2 -0.00405079 75.1806 13.0095
558 2 3.81532 74.9798 13.0905
559 2 8.14936 75.294 12.9387
560 2 11.8455 75.254 12.9647
561 2 15.9576 79.2051 13.1069
562 2 3.89027 79.1806 13.1195
563 2 7.78942 79.1013 13.2636
564 2 11.8611 79.0994 13.185
565 2 0.0462549 83.2677 13.2936
566 2 3.96475 83.3375 13.2254
567 2 8.00268 83.1559 13.2341
568 2 12.0815 83.1706 13.1573
569 2 15.7675 87.4635 13.4858
570 2 4.13364 87.3745 13.255
571 2 7.83565 87.1764 13.1746
572 2 11.7361 87.3641 13.3468
573 2 0.0842601 91.3331 13.5872
574 2 4.10429 91.4664 13.3505
575 2 7.89751 91.2512 13.3646
576 2 11.8241 91.2942 13.5067
577 2 -0.036716 95.2838 13.621
578 2 3.88858 95.3544 13.581
579 2 7.91317 95.3687 13.4415
580 2 11.7121 95.2628 13.4412
581 2 -0.0749276 99.1497 13.4227
582 2 3.90695 99.398 13.6173
583 2 7.73972 99.4745 13.5258
584 2 11.819 99.51 13.5282
585 2 15.801 103.396 13.549
586 2 3.72322 103.294 13.4364
587 2 7.72906 103.433 13.4523
588 2 11.8119 103.293 13.4082
589 2 15.6442 107.202 13.497
590 2 4.00779 107.317 13.3602
591 2 7.9541 107.459 13.4275
592 2 11.735 107.252 13.2405
593 2 -0.0837375 111.114 13.4712
594 2 3.83789 111.218 13.3291
595 2 7.84416 111.191 13.4184
596 2 11.8166 111.255 13.4265
597 2 0.027125 114.975 13.4117
598 2 3.95715 115.152 13.2039
599 2 7.96228 114.925 13.2951
600 2 11.6773 115.122 12.9629
601 2 15.8071 119.04 13.3622
602 2 3.89996 118.971 13.1456
603 2 7.84849 118.984 13.331
604 2 11.9182 118.959 13.3832
605 2 15.7495 122.998 13.3405
606 2 4.05058 122.82 13.1595
607 2 7.82535 122.678 13.2097
608 2 11.8875 122.836 13.0989
609 2 0.127628 126.715 13.2395
610 2 3.78423 126.8 13.3218
611 2 7.75224 126.661 13.3375
612 2 11.7724 126.637 13.0969
613 2 15.6683 130.722 13.1993
614 2 3.82282 130.789 13.0455
615 2 7.84301 130.825 12.8939
616 2 11.9195 130.809 13.1845
617 2 -0.161294 134.643 13.1991
618 2 4.00764 134.63 13.1423
619 2 7.86066 134.518 12.9711
620 2 11.8593 134.614 12.9364
621 2 0.0147778 138.487 13.0701
622 2 3.93589 138.468 13.0714
623 2 7.72791 138.613 12.9937
624 2 11.9513 138.446 13.0743
625 2 15.8933 142.377 13.0477
626 2 3.92254 142.276 13.0256
627 2 7.96647 142.41 13.0207
628 2 11.8786 142.332 12.9763
629 2 15.8094 146.351 12.9502
630 2 3.75032 146.161 12.8185
631 2 7.82672 146.276 13.0459
632 2 11.5664 146.397 12.8168
633 2 -0.0348963 150.249 12.8395
634 2 3.94161 150.158 12.7562
635 2 7.76994 150.168 12.9313
636 2 11.921 150.162 12.9741
637 2 -0.0270047 154.05 12.8341
638 2 3.96184 154.022 12.8883
639 2 7.92478 154.077 12.8542
640 2 11.8113 154.204 12.7015
641 2 -0.00118768 157.802 16.7966
642 2 3.99959 157.984 16.7327
643 2 7.87719 158.013 16.7001
644 2 11.8923 158.278 16.7157
645 2 15.7966 3.69972 16.7929
646 2 3.88447 3.67378 16.8153
647 2 7.88254 3.76585 16.8132
648 2 11.9001 3.83795 16.8133
649 2 15.9011 7.68685 16.6962
650 2 3.97042 7.5043 16.7732
651 2 7.85926 7.58376 16.8453
652 2 11.8954 7.63858 16.7463
653 2 0.254259 11.5203 16.6551
654 2 4.0255 11.6467 16.632
655 2 7.83066 11.5173 16.7868
656 2 11.8231 11.3686 16.6434
657 2 0.0456171 15.3457 16.6113
658 2 4.06718 15.4254 16.5331
659 2 7.82417 15.3804 16.6276
660 2 11.7599 15.476 16.745
661 2 16.0325 19.4068 16.6908
662 2 3.72328 19.4812 16.502
663 2 7.92824 19.2327 16.6443
664 2 11.8897 19.2983 16.5066
665 2 0.185996 23.2745 16.4997
666 2 4.08315 23.1807 16.518
667 2 7.9922 23.1847 16.5872
668 2 12.023 23.3247 16.4908
669 2 15.9014 27.0838 16.5392
670 2 3.99589 27.1525 16.4276
671 2 8.12074 27.2959 16.3157
672 2 11.9209 27.0591 16.577
673 2 15.9131 30.9859 16.4144
674 2 4.0396 30.9689 16.1773
675 2 7.83323 31.3715 16.3805
676 2 11.7367 31.1976 16.5684
677 2 15.8514 34.7573 16.2612
678 2 3.89748 34.9328 16.3234
679 2 7.99638 35.063 16.3263
680 2 11.862 34.7795 16.4291
681 2 15.8143 38.9216 16.3748
682 2 4.12609 38.8776 16.2902
683 2 8.03 38.983 16.3361
684 2 11.9933 38.8818 16.275
685 2 0.095706 42.9468 16.4515
686 2 3.9311 42.6666 16.2686
687 2 8.01757 42.6756 16.2595
688 2 12.026 42.9485 16.299
689 2 15.7656 46.9466 16.3985
690 2 3.8419 46.9903 16.1661
691 2 7.8511 46.7427 16.4574
692 2 12.016 46.9845 16.3394
693 2 15.8166 50.833 16.4529
694 2 3.85188 50.8888 16.3885
695 2 8.05546 50.7414 16.3364
696 2 12.0305 50.7813 16.3446
697 2 15.7195 54.8928 16.5148
698 2 4.0716 54.7713 16.5747
699 2 7.86489 54.8652 16.5048
700 2 11.8702 54.6544 16.6364
701 2 15.7136 58.9884 16.6568
702 2 3.9442 59.0536 16.4375
703 2 8.07554 59.2247 16.5158
704 2 11.9069 58.7411 16.6327
705 2 15.7989 62.9837 16.664
706 2 3.76989 62.9711 16.5488
707 2 7.84638 63.1108 16.6071
708 2 11.9981 62.8689 16.6882
709 2 0.0142047 67.0137 16.7693
710 2 4.05795 66.9318 16.7738
711 2 8.0135 66.9316 16.7669
712 2 11.9271 67.1644 16.7671
713 2 -0.190847 71.0454 16.6878
714 2 3.95097 71.1519 16.9505
715 2 7.87593 71.1208 16.8605
716 2 11.8532 71.0511 16.8423
717 2 15.7326 74.9484 16.8377
718 2 3.95813 75.1643 16.8628
719 2 7.70327 74.9435 17.0463
720 2 11.7638 75.0829 17.1753
721 2 -0.185211 79.1834 16.9865
722 2 3.87637 79.1783 17.1389
723 2 7.98892 79.1448 17.098
724 2 11.8905 79.3331 16.8996
725 2 0.213791 83.3026 17.1006
726 2 3.97599 83.24 17.0855
727 2 8.05579 83.2618 17.1245
728 2 11.9145 83.1881 17.0785
729 2 0.132336 87.317 17.1576
730 2 3.91224 87.1013 17.1475
731 2 7.86949 87.2924 17.2745
732 2 11.9315 87.2376 17.3487
733 2 0.015656 91.3095 17.2904
734 2 4.02475 91.4102 17.3819
735 2 7.77599 91.2556 17.3822
736 2 11.7141 91.252 17.3906
737 2 15.7912 95.2954 17.3018
738 2 4.06287 95.2385 17.4538
739 2 8.02638 95.2784 17.338
740 2 11.7355 95.4197 17.3774
741 2 15.7883 99.3401 17.3152
742 2 3.99824 99.2873 17.3352
743 2 8.10959 99.3808 17.4622
744 2 11.9606 99.2931 17.365
745 2 15.7197 103.536 17.4162
746 2 3.84563 103.413 17.386
747 2 7.92889 103.38 17.4756
748 2 11.818 103.557 17.3543
749 2 15.839 107.361 17.4983
750 2 3.97364 107.283 17.386
751 2 7.891 107.341 17.522
752 2 11.7287 107.441 17.4413
753 2 -0.21264 111.365 17.3721
754 2 4.00379 111.286 17.3686
755 2 7.87683 111.405 17.3145
756 2 11.7834 111.174 17.3429
757 2 15.735 115.022 17.5303
758 2 3.92163 115.275 17.119
759 2 7.68192 115.234 17.2564
760 2 11.8668 115.222 17.3312
761 2 -0.0349767 118.906 17.3934
762 2 3.95201 119.162 17.2869
763 2 7.91668 118.989 17.2946
764 2 11.9648 118.996 17.2244
765 2 -0.17087 122.925 17.2242
766 2 3.99372 122.95 17.3279
767 2 7.69063 122.933 17.1926
768 2 11.7875 122.872 17.306
769 2 -0.191666 126.767 17.203
770 2 4.01563 126.779 17.2029
771 2 8.06836 126.874 17.1493
772 2 11.8678 126.894 17.3087
773 2 15.7426 130.63 17.1648
774 2 3.97849 130.721 17.05
775 2 7.83884 130.574 17.1224
776 2 11.7095 130.712 17.146
777 2 15.8472 134.695 17.273
778 2 3.94685 134.687 17.0879
779 2 7.81538 134.622 17.2489
780 2 11.733 134.672 17.2805
781 2 15.7016 138.615 17.1194
782 2 3.82488 138.474 16.9958
783 2 7.82135 138.573 16.95
784 2 11.7809 138.434 16.8376
785 2 15.7838 142.441 17.1017
786 2 3.93721 142.51 17.1244
787 2 7.93067 142.424 16.8672
788 2 11.9426 142.368 17.1708
789 2 0.0810066 146.431 16.9784
790 2 3.92485 146.283 16.921
791 2 7.99192 146.332 17.035
792 2 11.9306 146.214 16.8762
793 2 15.9088 150.367 16.7738
794 2 3.91087 150.248 16.8262
795 2 7.88191 150.162 16.8411
796 2 12.0305 150.214 16.8714
797 2 -0.00407993 154.115 16.8669
798 2 4.15369 154.175 16.7681
799 2 7.76103 154.247 16.8552
800 2 11.8265 154.121 16.7308
801 2 15.793 158.207 20.844
802 2 3.78256 158.256 20.7668
803 2 7.93042 -0.0565266 20.7725
804 2 11.8169 158.196 20.743
805 2 15.9616 3.86357 20.8757
806 2 3.91502 3.84475 20.8436
807 2 8.0289 3.86798 20.8271
808 2 11.9088 3.65533 20.7409
809 2 15.8039 7.77923 20.8761
810 2 3.83503 7.60389 20.8378
811 2 7.88675 7.52295 20.8629
812 2 11.9441 7.706 20.7351
813 2 0.0956705 11.7091 20.7134
814 2 3.99093 11.3294 20.7088
815 2 8.10618 11.7207 20.6674
816 2 12.0291 11.7008 20.7388
817 2 15.8819 15.3842 20.7128
818 2 3.94172 15.4929 20.8703
819 2 7.86443 15.7204 20.7306
820 2 12.0198 15.4425 20.5646
821 2 -0.00224329 19.3574 20.5807
822 2 3.99856 19.3818 20.6785
823 2 8.0739 19.4897 20.6926
824 2 11.9362 19.3916 20.4051
825 2 15.6541 23.1977 20.4882
826 2 4.1701 23.3574 20.5423
827 2 8.0221 23.3152 20.6586
828 2 11.8784 23.182 20.7427
829 2 0.156893 27.2161 20.5763
830 2 4.19935 27.2779 20.4603
831 2 8.03726 27.1495 20.6001
832 2 12.0896 27.2734 20.3205
833 2 15.8514 31.1028 20.5422
834 2 4.0988 31.0685 20.4468
835 2 7.98686 31.0511 20.4514
836 2 11.9718 31.2276 20.459
837 2 -0.0582139 35.0076 20.2884
838 2 4.02485 35.0251 20.3959
839 2 7.80033 35.1659 20.2916
840 2 11.9879 35.0612 20.487
841 2 15.9152 38.9425 20.4732
842 2 3.86859 38.9337 20.2918
843 2 7.72227 38.9907 20.3288
844 2 11.8148 38.8691 20.2815
845 2 0.275805 42.8292 20.2488
846 2 3.95504 42.8845 20.2059
847 2 8.16797 42.8841 20.3485
848 2 12.0012 42.8204 20.4069
849 2 0.0864774 46.7311 20.3333
850 2 3.85286 46.7356 20.278
851 2 7.77564 46.6841 20.1574
852 2 11.7816 46.7302 20.1125
853 2 0.0975258 50.7464 20.2834
854 2 3.98963 50.7689 20.48
855 2 7.95349 50.8801 20.3605
856 2 11.9013 50.8879 20.2647
857 2 15.9562 54.7522 20.5018
858 2 4.00446 55.0097 20.3403
859 2 7.8426 54.8467 20.5442
860 2 11.9735 54.7535 20.5346
861 2 15.9357 58.8507 20.5191
862 2 3.92236 58.857 20.476
863 2 7.97251 58.8149 20.5354
864 2 12.0012 58.8075 20.4411
865 2 15.7858 62.9201 20.5153
866 2 3.94649 63.0067 20.5781
867 2 7.84646 62.8428 20.4541
868 2 11.7971 62.9519 20.4116
869 2 15.8177 66.8303 20.5869
870 2 3.9245 66.8508 20.5695
871 2 7.9132 66.9828 20.5561
872 2 11.8029 66.8579 20.8482
873 2 -0.0491329 70.8638 20.7407
874 2 3.83615 70.8824 20.9231
875 2 8.01595 70.9148 20.9
876 2 11.986 71.0578 20.73
877 2 15.8792 74.7977 20.8016
878 2 4.01724 75.0455 20.9025
879 2 7.95384 75.0503 20.9766
880 2 11.7075 74.9675 20.8518
881 2 -0.0522915 78.8821 20.8542
882 2 4.08799 79.0537 20.9466
883 2 7.77048 79.0164 20.9297
884 2 11.966 79.1288 20.7636
885 2 0.155023 83.2429 21.121
886 2 4.00282 83.1234 21.1739
887 2 7.93616 82.9662 21.1214
888 2 11.9236 83.0992 20.8173
889 2 15.627 87.1646 21.1393
890 2 3.88228 87.142 21.1751
891 2 7.90274 87.1102 21.129
892 2 11.7654 87.07 21.1576
893 2 15.8175 91.1767 21.029
894 2 4.00162 91.1596 21.1707
895 2 7.85973 91.2327 21.214
896 2 11.7059 91.2926 21.1928
897 2 0.036114 95.2334 21.2024
898 2 3.91797 95.3022 21.5655
899 2 7.98055 95.1698 21.1919
900 2 11.9304 95.2679 21.317
901 2 15.8654 99.1607 21.2383
902 2 3.87221 99.3094 21.2949
903 2 7.9808 99.3203 21.2608
904 2 11.8442 99.2828 21.5032
905 2 0.0382642 103.301 21.4822
906 2 3.96896 103.209 21.371
907 2 7.97832 103.31 21.2355
908 2 12.0582 103.342 21.3575
909 2 15.8853 107.368 21.4206
910 2 3.9309 107.183 21.3377
911 2 7.97767 107.369 21.2903
912 2 12.0634 107.483 21.4796
913 2 15.8958 111.221 21.468
914 2 3.82824 111.371 21.3681
915 2 7.87139 111.316 21.591
916 2 11.6891 111.285 21.5001
917 2 -0.120633 115.143 21.4443
918 2 3.7241 115.109 21.3039
919 2 7.95076 115.146 21.3717
920 2 11.8451 115.22 21.419
921 2 15.884 118.897 21.2698
922 2 3.95959 119.07 21.3722
923 2 7.94509 119.01 21.3579
924 2 11.8972 119.141 21.3018
925 2 15.846 122.968 21.2236
926 2 3.78336 122.856 21.2961
927 2 7.85244 122.914 21.3111
928 2 11.874 123.016 21.2412
929 2 0.0211004 126.882 21.3926
930 2 4.07676 126.73 21.2129
931 2 7.90411 126.741 21.3094
932 2 11.7443 126.827 21.2971
933 2 0.0643842 130.814 21.0544
934 2 3.98004 130.677 21.0978
935 2 7.88228 130.597 21.3266
936 2 12.1295 130.64 21.3659
937 2 15.5567 134.669 21.2989
938 2 3.77933 134.652 21.0763
939 2 7.91692 134.705 21.0882
940 2 11.7042 134.553 21.1036
941 2 0.0359988 138.586 21.1224
942 2 3.98283 138.723 21.2263
943 2 7.89707 138.821 21.1897
944 2 12.0466 138.578 21.2965
945 2 15.866 142.567 21.1907
946 2 3.90689 142.513 21.0403
947 2 7.88322 142.571 21.1547
948 2 11.8995 142.536 21.1272
949 2 15.7584 146.591 20.9835
950 2 3.99314 146.544 20.8339
951 2 7.87873 146.404 21.0986
952 2 11.6657 146.483 20.8398
953 2 15.8449 150.311 21.0372
954 2 4.04865 150.355 20.8166
955 2 8.02731 150.401 20.9912
956 2 11.8987 150.437 20.912
957 2 0.0271975 154.318 20.9084
958 2 3.88238 154.192 20.8435
959 2 7.80988 154.44 20.7031
960 2 11.8398 154.381 20.7604
961 2 0.0709198 158.319 24.9135
962 2 3.99342 158.102 24.9228
963 2 7.8753 158.174 24.8968
964 2 11.8102 158.123 24.7155
965 2 0.21029 3.64322 24.7846
966 2 4.19416 3.93783 24.702
967 2 7.99682 3.64968 24.7075
968 2 11.9007 3.79425 24.9458
969 2 15.9995 7.57171 24.9477
970 2 4.09425 7.74532 24.9541
971 2 7.79815 7.66566 24.7488
972 2 11.7553 7.63675 24.7009
973 2 15.6029 11.6338 24.7892
974 2 3.89949 11.5788 24.6441
975 2 8.00618 11.5347 24.7533
976 2 11.8636 11.4177 24.8683
977 2 15.7523 15.4466 24.8178
978 2 4.15683 15.3911 24.6305
979 2 7.91049 15.4637 24.574
980 2 11.9045 15.427 24.6232
981 2 0.131884 19.4475 24.6793
982 2 4.10997 19.3396 24.6976
983 2 7.98261 19.4113 24.6286
984 2 11.9186 19.2862 24.6793
985 2 15.8107 23.1806 24.3154
986 2 3.89638 23.5033 24.6287
987 2 7.87399 23.3361 24.6637
988 2 11.8696 23.4331 24.6635
989 2 15.8081 27.2415 24.6698
990 2 3.90433 27.2053 24.6204
991 2 7.9256 27.2899 24.6393
992 2 11.6368 27.4123 24.6015
993 2 15.871 31.1542 24.6185