ITEM: TIMESTEP
23700
ITEM: NUMBER OF ATOMS
32000
ITEM: BOX BOUNDS xy xz yz pp pp pp
0.0000000000000000e+00 1.5832000000000001e+01 0.0000000000000000e+00
0.0000000000000000e+00 1.5831999999999999e+02 0.0000000000000000e+00
8.0174603311702697e-01 1.6017537196687761e+02 0.0000000000000000e+00
ITEM: ATOMS id type x y z
1 2 -0.168712 158.021 160.09
2 2 3.90849 157.676 160.119
3 2 7.8789 157.964 160.178
4 2 11.8404 158.094 159.94
5 2 0.0168289 3.5506 160.024
6 2 3.7492 3.38328 159.935
7 2 7.75224 3.56253 160.079
8 2 11.7235 3.50826 159.919
9 2 15.803 7.35666 159.884
10 2 3.84229 7.48855 159.839
11 2 7.86035 7.54202 159.983
12 2 11.8508 7.38236 159.875
13 2 -0.171033 11.3661 159.878
14 2 3.81978 11.305 159.85
15 2 7.95073 11.1251 159.809
16 2 11.8072 11.4463 159.864
17 2 0.055768 15.1114 159.942
18 2 3.90147 15.2744 159.688
19 2 7.73343 15.3623 159.865
20 2 11.6839 15.2965 159.774
21 2 -0.177279 19.0038 159.65
22 2 3.98859 19.1585 159.774
23 2 7.84328 19.3568 159.795
24 2 11.663 19.1046 159.92
25 2 -0.0107655 23.1006 159.783
26 2 3.82085 23.0877 159.647
27 2 7.69491 22.9533 159.726
28 2 11.92 23.1929 159.743
29 2 -0.300171 27.0911 159.712
30 2 3.76167 26.9623 159.7
31 2 7.73888 27.007 159.759
32 2 11.6241 27.0707 159.609
33 2 15.6485 31.1046 159.875
34 2 3.78615 31.0386 159.772
35 2 7.75456 31.046 159.965
36 2 11.7851 31.0304 159.906
37 2 15.9489 35.2306 159.843
38 2 3.94241 35.2002 159.882
39 2 7.9944 35.0255 159.938
40 2 11.9196 35.1937 160.015
41 2 -0.121922 39.1448 159.963
42 2 4.03372 39.0746 159.918
43 2 7.6927 39.296 159.976
44 2 11.6049 39.0576 160.077
45 2 15.7287 43.0079 160.055
46 2 4.01758 42.9963 0.77575
47 2 7.97153 43.0151 160.125
48 2 11.9468 42.9755 160.038
49 2 15.9893 47.0567 160.217
50 2 3.99687 47.1581 159.919
51 2 7.85221 47.0761 160.017
52 2 11.7458 47.1054 160.087
53 2 15.7563 51.0996 0.758793
54 2 3.7998 51.1566 160.205
55 2 7.70371 51.1094 160.296
56 2 11.6265 51.1097 0.719342
57 2 15.7924 55.0876 0.90381
58 2 3.68987 55.2799 0.857464
59 2 7.85301 55.2036 0.737671
60 2 11.9841 55.1563 0.81009
61 2 -0.112702 59.431 0.867541
62 2 3.84314 59.2444 0.855897
63 2 7.92085 59.2775 0.950654
64 2 11.666 59.3377 0.789344
65 2 -0.149615 63.4679 1.08488
66 2 3.74881 63.2807 0.932484
67 2 8.10367 63.2784 0.85866
68 2 11.9159 63.2694 1.01263
69 2 15.7326 67.2368 1.05414
70 2 3.82231 67.4515 0.896303
71 2 7.87697 67.2704 1.00906
72 2 11.8067 67.4277 1.19853
73 2 0.0260826 71.4019 1.2971
74 2 3.78846 71.4024 1.21168
75 2 7.85957 71.2867 1.2295
76 2 11.7886 71.4848 1.26205
77 2 0.0277817 75.4459 1.53669
78 2 4.02315 75.3083 1.1929
79 2 7.86641 75.5845 1.43737
80 2 11.9462 75.5407 1.33803
81 2 -0.105118 79.493 1.38529
82 2 3.98282 79.558 1.61681
83 2 7.94744 79.5162 1.33913
84 2 11.9877 79.5521 1.49463
85 2 0.165507 83.7335 1.53931
86 2 4.10696 83.6094 1.67052
87 2 8.03023 83.5859 1.46676
88 2 11.912 83.5192 1.5791
89 2 0.0011512 87.6238 1.77846
90 2 4.02851 87.4247 1.64216
91 2 7.87269 87.4618 1.43186
92 2 11.6135 87.3818 1.52647
93 2 15.7413 91.4736 1.50525
94 2 4.14689 91.3128 1.53374
95 2 7.92791 91.4151 1.53686
96 2 11.7611 91.5579 1.43772
97 2 15.9588 95.2522 1.45686
98 2 3.83938 95.1439 1.6077
99 2 7.91531 95.4944 1.49491
100 2 11.9162 95.3513 1.41945
101 2 15.5527 99.2799 1.3494
102 2 3.85753 99.3839 1.39316
103 2 8.03187 99.248 1.36433
104 2 11.8493 99.3736 1.48221
105 2 0.0594927 103.32 1.34275
106 2 3.87055 103.051 1.50234
107 2 7.9147 103.149 1.3959
108 2 11.7798 103.249 1.30082
109 2 15.7483 107.035 1.35527
110 2 3.80853 107.084 1.218
111 2 7.68884 107.187 1.29726
112 2 11.5684 107.124 1.22535
113 2 15.6467 110.89 1.41204
114 2 3.69875 111.172 1.18435
115 2 7.7761 110.892 1.19932
116 2 11.8421 111.13 1.1373
117 2 15.6425 115.013 1.2011
118 2 3.82881 114.961 1.17644
119 2 7.83848 114.769 1.15142
120 2 11.6991 114.889 1.16217
121 2 0.00422929 118.851 1.06998
122 2 3.90231 118.79 1.20653
123 2 7.84856 118.818 1.11185
124 2 11.7986 118.844 1.16325
125 2 -0.0406353 122.821 1.03886
126 2 4.06186 122.798 1.06522
127 2 7.66207 122.766 0.989414
128 2 11.7288 122.744 0.90456
129 2 0.120833 126.65 0.988286
130 2 4.1249 126.687 1.05228
131 2 7.92619 126.622 1.05777
132 2 11.9442 126.565 0.936748
133 2 -0.0298721 130.562 0.893506
134 2 4.06193 130.547 0.964266
135 2 7.88354 130.711 0.905368
136 2 11.8069 130.596 1.01137
137 2 15.748 134.286 0.813905
138 2 3.86581 134.431 160.281
139 2 7.7772 134.423 1.03448
140 2 11.8733 134.515 0.901747
141 2 15.7809 138.318 0.941648
142 2 3.83993 138.431 0.755031
143 2 7.88021 138.408 0.84074
144 2 11.8371 138.427 0.937699
145 2 -0.212468 142.35 0.897708
146 2 3.78905 142.175 0.78823
147 2 7.63707 142.203 0.701004
148 2 11.7722 142.291 0.729069
149 2 -0.0449508 146.201 1.01834
150 2 3.84887 146.225 160.087
151 2 7.91983 146.208 0.899793
152 2 11.8512 146.213 160.201
153 2 -0.000651384 149.977 160.084
154 2 3.93252 150.196 160.088
155 2 8.07721 150.169 0.77596
156 2 11.8888 150.035 0.663573
157 2 -0.114078 154 159.953
158 2 3.90235 153.926 160.229
159 2 7.83925 154.002 160.037
160 2 11.9333 153.961 160.032
161 2 -0.06985 157.986 4.67657
162 2 3.9638 -0.375473 4.6891
163 2 7.80176 157.993 4.78627
164 2 11.8077 158.127 4.7121
165 2 -0.262512 3.42397 4.63638
166 2 3.97051 3.46126 4.73069
167 2 7.68583 3.46767 4.53662
168 2 11.781 3.51816 4.40751
169 2 -0.290893 7.23109 4.72595
170 2 3.81684 7.34277 4.54936
171 2 7.77634 7.36576 4.65435
172 2 11.8894 7.39158 4.67247
173 2 -0.200401 11.1338 4.4797
174 2 3.98071 11.2635 4.65629
175 2 7.98701 11.2775 4.46374
176 2 11.7414 11.3749 4.59362
177 2 0.0831404 15.1196 4.48972
178 2 4.00583 15.2162 4.58427
179 2 7.65583 15.0977 4.44562
180 2 11.7492 15.2443 4.67813
181 2 -0.103146 19.0431 4.24937
182 2 3.95369 19.0533 4.43178
183 2 7.90619 19.1566 4.49565
184 2 11.8543 19.0221 4.43007
185 2 -0.0264432 22.9338 4.25508
186 2 3.69253 23.0184 4.37976
187 2 8.09045 23.0552 4.37109
188 2 12.0349 23.2867 4.3269
189 2 -0.0388751 27.0628 4.39191
190 2 4.01842 27.0757 4.38282
191 2 7.83231 26.8665 4.22924
192 2 11.7125 27.0336 4.27401
193 2 -0.122137 30.828 4.43151
194 2 3.85042 30.9224 4.42469
195 2 8.00949 30.9846 4.49463
196 2 11.876 30.9476 4.34599
197 2 15.8273 34.8881 4.34514
198 2 4.11567 34.8842 4.45796
199 2 8.00836 34.8122 4.48383
200 2 11.991 35.0408 4.45238
201 2 0.195314 39.0706 4.66137
202 2 3.89801 38.8502 4.39726
203 2 7.88426 38.9209 4.63509
204 2 11.8601 39.0946 4.60672
205 2 15.8081 42.9151 4.59131
206 2 3.81418 43.0411 4.62456
207 2 7.73989 43.0432 4.58244
208 2 11.9146 43.0145 4.61629
209 2 15.6454 47.0466 4.52047
210 2 3.83607 47.061 4.69996
211 2 7.72847 46.9874 4.69128
212 2 11.812 47.0114 4.68906
213 2 15.7404 51.0393 4.62149
214 2 3.99458 50.9768 4.7669
215 2 7.78369 50.9916 4.65641
216 2 11.8218 51.1452 4.67194
217 2 0.128707 55.3282 4.68108
218 2 4.04619 55.1507 4.91466
219 2 8.05655 54.9703 4.61014
220 2 11.7966 55.2846 4.74274
221 2 15.8426 59.3242 4.74374
222 2 4.04491 59.2418 4.63129
223 2 7.93302 59.2289 4.90575
224 2 11.9773 59.0835 4.84167
225 2 15.9285 63.2265 4.94462
226 2 3.92073 63.4152 4.8662
227 2 8.00272 63.1649 4.94985
228 2 11.7702 63.1726 5.08587
229 2 -0.293072 67.3479 4.84462
230 2 4.03819 67.254 4.96628
231 2 7.80447 67.268 4.97354
232 2 11.8839 67.2418 5.1357
233 2 -0.0451444 71.3329 5.31411
234 2 4.01965 71.3258 5.2016
235 2 7.76746 71.2095 5.04043
236 2 11.6582 71.2704 5.12684
237 2 15.7962 75.3425 5.21465
238 2 4.10299 75.2641 5.09856
239 2 8.00315 75.0638 5.20176
240 2 11.9364 75.4619 5.28416
241 2 -0.0318666 79.4412 5.33889
242 2 3.74028 79.4237 5.42641
243 2 7.75577 79.4046 5.12261
244 2 11.9894 79.4272 5.21573
245 2 -0.00867383 83.5503 5.44842
246 2 3.96908 83.4744 5.47929
247 2 7.77507 83.4676 5.54577
248 2 11.8357 83.1564 5.39207
249 2 -0.183323 87.4526 5.40304
250 2 3.7217 87.3599 5.57649
251 2 8.06927 87.597 5.55663
252 2 11.8164 87.3948 5.63823
253 2 -0.0541598 91.2572 5.49501
254 2 3.76409 91.4645 5.52763
255 2 7.8457 91.5647 5.43585
256 2 11.6552 91.3928 5.45938
257 2 15.6761 95.373 5.53157
258 2 3.81016 95.2965 5.26077
259 2 7.64499 95.4306 5.37277
260 2 11.8847 95.3453 5.52916
261 2 -0.0150845 99.4623 5.39461
262 2 3.80007 99.2251 5.43903
263 2 7.93204 99.4431 5.424
264 2 11.8872 99.1652 5.53663
265 2 -0.186119 103.34 5.32149
266 2 3.82117 103.185 5.47737
267 2 7.71292 103.414 5.41679
268 2 11.7688 103.139 5.69277
269 2 -0.418821 107.217 5.20894
270 2 3.82877 107.034 5.37061
271 2 7.70287 107.426 5.41367
272 2 11.5523 107.191 5.41731
273 2 15.6153 110.884 5.32686
274 2 3.91667 111.135 5.27713
275 2 7.92319 111.2 5.44188
276 2 11.8663 111.309 5.37144
277 2 15.897 114.864 5.13208
278 2 3.94562 115.048 5.09608
279 2 7.70655 114.963 5.26818
280 2 11.7104 115.264 5.16529
281 2 15.8737 119.022 5.15141
282 2 3.8984 118.862 5.08129
283 2 7.90522 118.759 5.30853
284 2 11.8542 118.952 5.13295
285 2 0.077552 122.844 5.02414
286 2 3.87707 122.908 5.20563
287 2 8.06002 122.65 5.11485
288 2 12.0406 122.711 4.96344
289 2 -0.0677018 126.68 4.8639
290 2 4.04066 126.831 5.02953
291 2 8.12549 126.719 4.99972
292 2 12.0124 126.736 5.03981
293 2 -0.198537 130.649 4.90238
294 2 3.78534 130.665 4.91807
295 2 7.89697 130.507 4.90267
296 2 11.6633 130.689 4.92122
297 2 15.7018 134.606 4.99354
298 2 3.75378 134.668 4.91823
299 2 7.77265 134.551 4.94496
300 2 11.9015 134.597 4.99109
301 2 -0.179239 138.529 4.94477
302 2 3.90153 138.505 4.88413
303 2 7.80025 138.289 4.9669
304 2 11.6742 138.335 4.81037
305 2 -0.0514655 142.219 4.88308
306 2 3.90442 142.528 4.98396
307 2 7.94533 142.385 4.81322
308 2 11.8285 142.03 4.75095
309 2 0.0252241 146.268 5.0697
310 2 3.93981 146.265 4.86772
311 2 8.04073 146.29 4.77222
312 2 11.7222 146.186 4.86452
313 2 15.7521 150.209 4.89214
314 2 3.96336 150.145 4.78315
315 2 7.73992 150.095 4.86996
316 2 11.8127 150.053 4.73116
317 2 -0.22088 154.147 4.45505
318 2 3.89889 154.079 4.89511
319 2 7.72367 154.12 4.66238
320 2 11.751 154.155 4.6529
321 2 -0.0205793 157.969 8.67495
322 2 3.86676 158.016 8.80771
323 2 8.06656 158.111 8.66947
324 2 11.8592 157.964 8.83821
325 2 15.742 3.42378 8.68587
326 2 3.88395 3.50141 8.75037
327 2 7.79613 3.79516 8.78747
328 2 11.8248 3.66146 8.54165
329 2 0.0075742 7.51645 8.64787
330 2 3.7611 7.42406 8.46588
331 2 7.89211 7.47408 8.74918
332 2 11.8317 7.47168 8.57785
333 2 -0.151925 11.3435 8.68414
334 2 3.75746 11.3047 8.60863
335 2 8.08887 11.2449 8.69428
336 2 11.8494 11.3242 8.58926
337 2 -0.169685 15.3039 8.39202
338 2 3.942 15.3693 8.58464
339 2 7.90018 15.2564 8.62856
340 2 11.7835 15.0818 8.60587
341 2 -0.0914176 19.0691 8.40792
342 2 4.1725 19.168 8.46671
343 2 7.90048 19.2885 8.44281
344 2 11.7741 18.9092 8.41022
345 2 0.0327955 23.0863 8.38265
346 2 3.85875 23.1499 8.20077
347 2 8.03417 23.0435 8.47096
348 2 12.0484 22.9473 8.4266
349 2 15.9218 26.9737 8.41879
350 2 4.08095 26.9208 8.4028
351 2 7.97942 26.9205 8.31171
352 2 11.8981 26.9488 8.40058
353 2 0.0976538 30.9148 8.43081
354 2 3.90968 30.8639 8.17238
355 2 7.94728 31.0458 8.37183
356 2 11.8662 30.6952 8.47304
357 2 15.9016 34.7076 8.13921
358 2 4.11795 34.855 8.39114
359 2 7.99687 34.9074 8.3647
360 2 12.093 34.8297 8.41612
361 2 15.7716 38.8927 8.45825
362 2 3.88112 38.8962 8.46587
363 2 7.92366 39.0662 8.57483
364 2 11.8127 38.9439 8.31765
365 2 15.6785 43.0381 8.70481
366 2 4.0762 42.9378 8.58006
367 2 7.8531 43.1718 8.55183
368 2 11.8191 42.9761 8.44023
369 2 15.8456 46.8792 8.52576
370 2 3.82576 46.939 8.63182
371 2 8.01134 46.9097 8.54322
372 2 11.8968 47.3015 8.69672
373 2 -0.028944 50.9282 8.58664
374 2 4.00133 51.0184 8.68332
375 2 7.95973 51.0637 8.54557
376 2 11.9627 51.053 8.66303
377 2 -0.0828183 55.0596 8.73261
378 2 3.90081 55.1871 8.5202
379 2 7.97838 55.0666 8.60585
380 2 11.8751 55.032 8.86434
381 2 15.7915 59.1875 8.85972
382 2 3.90252 58.9901 8.76335
383 2 7.87856 59.0431 8.8413
384 2 11.8774 59.0892 8.74427
385 2 15.7947 63.2738 8.75997
386 2 3.79274 63.4314 8.62099
387 2 7.83925 63.2213 8.91441
388 2 11.9962 63.1172 8.95287
389 2 -0.178531 67.2808 8.95541
390 2 3.92245 67.2615 8.99798
391 2 7.96605 67.1815 8.98797
392 2 11.8231 67.1601 8.95988
393 2 15.8202 71.0523 9.19722
394 2 3.86317 71.0447 9.01904
395 2 8.12267 71.2396 9.15456
396 2 11.9396 71.2296 8.83791
397 2 0.051125 75.2294 9.43694
398 2 3.80433 75.2247 9.10486
399 2 7.8614 75.1953 9.18424
400 2 11.8434 75.1028 9.19606
401 2 15.7404 79.1938 9.23544
402 2 3.80965 79.3825 9.11658
403 2 7.96318 79.1515 9.19548
404 2 11.8736 79.3266 9.21367
405 2 15.7046 83.197 9.31345
406 2 4.00995 83.2731 9.32137
407 2 7.6541 83.2224 9.13585
408 2 11.5863 83.3494 9.19109
409 2 -0.149641 87.4069 9.24366
410 2 3.90062 87.311 9.50533
411 2 7.81131 87.4032 9.5616
412 2 11.7241 87.4101 9.38669
413 2 -0.0343131 91.4096 9.28754
414 2 3.93345 91.354 9.65295
415 2 7.79374 91.5165 9.49684
416 2 11.7083 91.5315 9.48992
417 2 -0.0278872 95.4659 9.5511
418 2 3.96592 95.3694 9.60453
419 2 7.77656 95.3818 9.36984
420 2 11.8277 95.5266 9.51235
421 2 -0.164022 99.4246 9.4716
422 2 4.01084 99.3532 9.37447
423 2 7.89036 99.6368 9.43442
424 2 11.6644 99.2076 9.3241
425 2 -0.0476036 103.209 9.44195
426 2 3.79517 103.28 9.30999
427 2 7.78379 103.387 9.39342
428 2 11.8574 103.404 9.51801
429 2 -0.170963 107.118 9.28319
430 2 3.82422 107.196 9.40602
431 2 7.87607 107.146 9.43581
432 2 11.8193 107.295 9.42222
433 2 -0.072655 111.173 9.21383
434 2 3.90909 111.083 9.25802
435 2 7.87578 111.076 9.40271
436 2 11.7542 111.096 9.30903
437 2 15.8055 114.923 9.11713
438 2 3.71156 115.017 9.29418
439 2 7.72979 114.906 9.3101
440 2 11.6641 114.903 9.40988
441 2 0.00811303 118.858 9.20858
442 2 4.02799 118.992 9.21832
443 2 7.82885 118.962 9.22469
444 2 11.7666 119.021 9.17481
445 2 15.7626 122.715 9.18006
446 2 3.98545 123.032 9.258
447 2 7.94795 122.748 9.00923
448 2 11.732 122.672 8.9548
449 2 0.0451091 126.771 9.04739
450 2 4.06224 126.827 9.05966
451 2 8.02326 126.726 8.96007
452 2 11.9499 126.73 8.96382
453 2 15.9874 130.634 9.03353
454 2 3.94359 130.806 8.96488
455 2 7.81803 130.541 8.89073
456 2 11.8824 130.618 8.94824
457 2 15.7138 134.735 9.0055
458 2 4.03118 134.457 8.83856
459 2 7.80274 134.306 9.134
460 2 11.6624 134.379 8.9861
461 2 -0.175264 138.6 8.94662
462 2 3.86267 138.599 8.84955
463 2 7.85997 138.381 8.88626
464 2 11.7095 138.497 8.92928
465 2 -0.0121001 142.442 8.80848
466 2 3.79193 142.408 8.97438
467 2 7.69442 142.317 8.98857
468 2 11.8688 142.442 8.92056
469 2 15.8624 146.428 8.87296
470 2 3.91384 146.43 8.84936
471 2 7.97191 146.275 8.86511
472 2 11.9774 146.145 8.87109
473 2 -0.20644 150.294 8.76083
474 2 3.79628 150.166 8.87521
475 2 7.78984 150.265 8.78218
476 2 11.658 150.344 8.96991
477 2 -0.123521 154.016 8.65257
478 2 3.70659 154.074 8.78579
479 2 7.9699 154.029 8.81318
480 2 11.7243 154.244 8.67401
481 2 15.8353 158.022 12.8246
482 2 4.02767 158.163 12.773
483 2 7.74012 158.018 12.7645
484 2 11.7397 158.011 12.848
485 2 -0.140567 3.67357 12.7526
486 2 4.08323 3.8005 12.6636
487 2 7.87605 3.63545 12.6434
488 2 11.853 3.54855 12.6977
489 2 15.9011 7.59866 12.6833
490 2 3.88079 7.57779 12.6907
491 2 7.95926 7.72651 12.7288
492 2 11.9221 7.47981 12.6675
493 2 15.805 11.4812 12.5169
494 2 3.89544 11.6714 12.5219
495 2 7.88918 11.634 12.617
496 2 11.9818 11.4115 12.5521
497 2 16.0578 15.4574 12.5553
498 2 4.0677 15.2575 12.6186
499 2 7.79722 15.2643 12.6131
500 2 11.7928 15.2869 12.6578
501 2 15.9661 19.2507 12.5524
502 2 3.97 19.2363 12.437
503 2 7.86246 19.2098 12.465
504 2 11.8496 19.3575 12.3963
505 2 15.9323 23.1114 12.6157
506 2 4.04561 23.155 12.5051
507 2 8.09091 23.1115 12.3689
508 2 11.9288 23.1625 12.5369
509 2 0.224512 26.8815 12.2932
510 2 4.07416 27.1359 12.4561
511 2 7.87373 26.923 12.211
512 2 11.95 26.8648 12.2663
513 2 15.8686 31.0171 12.464
514 2 4.01651 30.897 12.502
515 2 7.911 30.8692 12.3925
516 2 12.013 30.8992 12.574
517 2 0.338712 34.8492 12.2439
518 2 4.06797 34.7543 12.0539
519 2 7.8618 34.902 12.4342
520 2 11.8649 34.9106 12.0734
521 2 0.0285414 38.93 12.3789
522 2 3.93365 38.9787 12.4031
523 2 7.93959 38.9976 12.5826
524 2 11.7525 38.9236 12.3654
525 2 -0.0740728 42.8728 12.5159
526 2 3.988 43.0206 12.4509
527 2 7.99878 43.018 12.331
528 2 11.7102 42.936 12.5891
529 2 0.249839 46.986 12.513
530 2 3.88961 46.99 12.6445
531 2 7.97036 46.9397 12.3693
532 2 11.9228 47.1 12.4926
533 2 15.7886 50.8837 12.672
534 2 4.0553 51.081 12.5211
535 2 7.83688 51.0254 12.6073
536 2 11.6879 50.9911 12.6256
537 2 -0.0665167 54.9501 12.5856
538 2 3.84022 54.8657 12.4037
539 2 8.05708 54.9071 12.5567
540 2 11.9188 55.0748 12.563
541 2 15.7744 59.162 12.7499
542 2 3.97869 59.1004 12.6771
543 2 7.8006 58.9218 12.6904
544 2 11.9391 59.2011 12.6507
545 2 15.9241 62.9687 12.662
546 2 4.00404 63.0737 12.8265
547 2 7.75424 63.0177 12.834
548 2 11.8325 62.9362 12.8449
549 2 -0.214482 67.1456 12.9431
550 2 3.80051 67.0208 12.8332
551 2 7.88948 67.0283 12.9202
552 2 11.8989 66.8712 12.8593
553 2 -0.0545751 70.9737 12.9705
554 2 3.85141 71.2173 12.9187
555 2 7.88214 71.1447 12.923
556 2 11.848 71.0924 13.1084
557 2 0.0519294 75.0537 13.1094
558 2 3.90087 75.2637 13.1428
559 2 7.78439 75.1918 12.8331
560 2 11.7589 75.0831 13.1395
561 2 15.5787 79.2911 13.1319
562 2 3.78476 79.203 13.0035
563 2 8.09151 79.1765 13.054
564 2 11.7696 79.0788 13.1563
565 2 -0.0388594 83.1062 13.349
566 2 3.79956 83.352 13.3455
567 2 7.74623 83.3466 13.2806
568 2 11.6933 83.2488 13.2008
569 2 15.6952 87.122 13.1821
570 2 3.72141 87.1811 13.3636
571 2 7.86346 87.3285 13.3115
572 2 11.95 87.4043 13.3024
573 2 -0.0183636 91.3725 13.2652
574 2 3.88179 91.1888 13.4907
575 2 7.89123 91.6099 13.4496
576 2 11.8203 91.4171 13.4219
577 2 0.045675 95.5508 13.3105
578 2 3.9172 95.5165 13.456
579 2 7.78982 95.3444 13.5903
580 2 11.9258 95.4747 13.4551
581 2 -0.141002 99.3928 13.3283
582 2 3.82845 99.4735 13.5599
583 2 7.89326 99.4786 13.3568
584 2 11.7627 99.3538 13.4504
585 2 15.6363 103.294 13.4861
586 2 3.84007 103.374 13.2949
587 2 7.7545 103.11 13.4708
588 2 11.807 103.31 13.6223
589 2 15.8539 107.235 13.362
590 2 3.73115 107.349 13.4402
591 2 7.80814 107.033 13.3169
592 2 11.7476 107.401 13.4165
593 2 -0.158822 111.163 13.2256
594 2 4.03806 111.128 13.383
595 2 7.83786 111.103 13.4853
596 2 11.8224 111.095 13.5515
597 2 -0.0919531 115.143 13.3344
598 2 3.9068 114.979 13.3637
599 2 7.76146 115.129 13.587
600 2 11.7337 115.066 13.5399
601 2 15.7063 118.905 13.0055
602 2 3.92594 118.944 13.214
603 2 7.76661 119.03 13.2684
604 2 11.7937 118.931 13.2241
605 2 15.7335 122.84 13.2698
606 2 3.96468 122.935 13.1781
607 2 7.81237 122.966 13.265
608 2 11.9593 122.924 13.2394
609 2 0.120012 126.669 13.0294
610 2 4.03211 126.705 13.0102
611 2 8.00492 126.825 13.1606
612 2 11.6775 126.773 13.0881
613 2 15.9369 130.568 12.8748
614 2 3.98423 130.596 12.9452
615 2 7.7485 130.829 13.1569
616 2 11.7997 130.623 12.9914
617 2 -0.0541283 134.766 12.9576
618 2 3.81094 134.617 12.987
619 2 7.78048 134.573 13.1323
620 2 11.7967 134.668 12.7624
621 2 -0.123912 138.526 12.9078
622 2 3.87773 138.623 12.8649
623 2 7.76548 138.451 13.0326
624 2 11.6628 138.637 12.896
625 2 15.8076 142.329 12.8748
626 2 3.70935 142.503 12.7797
627 2 7.82906 142.493 12.9136
628 2 11.6457 142.377 12.8703
629 2 15.9564 146.392 12.884
630 2 3.97671 146.458 12.902
631 2 7.97536 146.419 12.922
632 2 11.8367 146.358 13.0047
633 2 -0.0803391 150.373 12.8627
634 2 3.81872 150.388 12.982
635 2 7.8199 150.353 12.9407
636 2 11.9564 150.178 12.9066
637 2 -0.0865463 154.165 12.8155
638 2 4.03754 154.276 12.804
639 2 7.79671 154.22 12.7057
640 2 12.1051 154.191 13.0089
641 2 0.00862767 158.393 16.6894
642 2 4.0514 158.174 16.9841
643 2 8.02455 158.069 16.7327
644 2 11.6987 158.006 16.7865
645 2 15.7427 3.7157 16.7743
646 2 3.94886 3.92084 16.6291
647 2 8.14819 3.73419 16.7311
648 2 11.8392 3.64521 16.7946
649 2 15.8652 7.59356 16.7207
650 2 3.97968 7.58635 16.8258
651 2 8.01617 7.56715 16.639
652 2 11.8482 7.60549 16.6975
653 2 -0.166393 11.4307 16.6894
654 2 3.84722 11.5184 16.6814
655 2 8.05001 11.6102 16.5799
656 2 12.0205 11.619 16.4758
657 2 -0.0206039 15.5301 16.7174
658 2 4.09464 15.3084 16.6689
659 2 8.23073 15.5283 16.6755
660 2 11.9726 15.5035 16.6337
661 2 15.8517 19.3286 16.5371
662 2 4.03211 19.4335 16.5007
663 2 8.06479 19.3309 16.5487
664 2 12.0563 19.3855 16.4841
665 2 -0.0417102 23.3153 16.5354
666 2 3.94301 23.1584 16.6158
667 2 8.06354 23.2749 16.5197
668 2 11.8351 23.1035 16.4235
669 2 15.9148 26.9711 16.3655
670 2 3.99727 27.2931 16.5133
671 2 7.8874 26.841 16.4828
672 2 12.0339 27.1768 16.5215
673 2 15.8395 31.1124 16.2274
674 2 3.91492 31.0857 16.4762
675 2 8.1025 30.9387 16.2931
676 2 11.9839 31.0397 16.2329
677 2 15.7525 35.031 16.3952
678 2 3.98554 34.8708 16.1965
679 2 7.89794 34.7837 16.2382
680 2 11.8897 34.9199 16.4295
681 2 15.9186 39.0242 16.2208
682 2 3.90583 38.7873 16.3617
683 2 7.75609 38.7578 16.2536
684 2 11.8285 38.8337 16.2268
685 2 0.224893 42.9499 16.3101
686 2 4.08657 42.94 16.5726
687 2 7.9816 42.8862 16.5001
688 2 11.7062 42.8004 16.2821
689 2 15.8204 46.978 16.4248
690 2 3.95902 47.0645 16.449
691 2 8.05858 46.8549 16.3838
692 2 11.9111 47.1429 16.4075
693 2 15.8856 50.9137 16.5507
694 2 3.93756 50.9985 16.184
695 2 7.72069 50.892 16.4492
696 2 11.8467 51.0538 16.5833
697 2 15.9661 55.0322 16.582
698 2 3.96881 54.943 16.4348
699 2 7.87328 55.044 16.5606
700 2 11.9138 55.2084 16.3676
701 2 15.9547 59.1702 16.6233
702 2 4.09052 58.9346 16.738
703 2 7.86012 59.0589 16.5395
704 2 11.9056 59.1303 16.6305
705 2 15.9541 63.1817 16.6732
706 2 4.03976 62.9974 16.7305
707 2 7.97803 63.0904 16.6725
708 2 11.8683 63.1172 16.7281
709 2 -0.10015 67.0903 16.7782
710 2 3.80335 66.9359 16.895
711 2 7.83249 66.9094 16.8192
712 2 11.9828 66.9394 16.6157
713 2 -0.0149706 70.8997 16.8532
714 2 3.76723 71.0367 16.662
715 2 7.91572 71.0539 16.7243
716 2 11.7739 70.9315 16.8635
717 2 15.8044 74.9861 17.0375
718 2 4.11567 75.0882 16.9835
719 2 7.96753 74.9513 16.9876
720 2 12.0284 75.0815 17.0071
721 2 -0.077481 79.1864 16.9317
722 2 3.96669 78.9718 17.0574
723 2 7.85126 79.1734 17.0308
724 2 11.723 79.122 17.1894
725 2 -0.19799 83.0952 17.1223
726 2 3.82205 83.1649 17.1047
727 2 7.78264 83.2895 17.2481
728 2 11.76 83.0535 17.2547
729 2 -0.205098 87.2289 17.2028
730 2 3.90311 87.1826 17.2763
731 2 7.89803 87.3555 17.2412
732 2 11.8413 87.1687 17.2205
733 2 0.0104779 91.3621 17.1957
734 2 3.94411 91.3628 17.233
735 2 7.99594 91.1793 17.1771
736 2 11.935 91.2551 17.2401
737 2 15.8655 95.2399 17.2458
738 2 3.7993 95.175 17.0765
739 2 7.88912 95.2126 17.3475
740 2 11.8268 95.2749 17.3858
741 2 15.8169 99.3096 17.3644
742 2 3.85883 99.3236 17.3218
743 2 7.65995 99.3889 17.3851
744 2 11.8292 99.2968 17.4657
745 2 15.8464 103.308 17.3813
746 2 4.15316 103.441 17.468
747 2 7.87152 103.317 17.5062
748 2 11.7124 103.482 17.3747
749 2 15.8345 107.123 17.3756
750 2 3.91246 107.26 17.5653
751 2 7.9854 107.341 17.4174
752 2 11.9006 107.289 17.5708
753 2 0.0168929 111.282 17.3684
754 2 3.77338 111.373 17.3855
755 2 7.88711 111.143 17.4639
756 2 11.8905 111.04 17.382
757 2 15.7547 115.227 17.26
758 2 3.91116 115.101 17.3074
759 2 7.99113 114.954 17.5181
760 2 11.8578 115.183 17.4555
761 2 -0.0491093 119.093 17.3158
762 2 3.93775 118.912 17.3612
763 2 7.91831 119.023 17.2295
764 2 11.6251 119.097 17.2819
765 2 0.222991 123.023 17.2354
766 2 3.95838 122.868 17.1388
767 2 7.74854 122.966 17.1208
768 2 11.9798 122.854 17.2723
769 2 0.052443 126.963 17.1329
770 2 3.86488 126.762 17.2423
771 2 7.85855 126.791 17.3134
772 2 12.0206 126.769 17.1548
773 2 15.7238 130.888 17.1287
774 2 3.84783 130.768 17.0602
775 2 7.80433 130.719 17.2137
776 2 11.8596 130.826 16.9665
777 2 15.7445 134.662 16.596
778 2 3.79436 134.658 17.0218
779 2 7.74654 134.806 16.8955
780 2 12.0109 134.567 17.1308
781 2 15.7425 138.692 16.9386
782 2 3.83469 138.634 17.0035
783 2 7.74865 138.825 16.8636
784 2 11.9737 138.55 16.8366
785 2 15.8074 142.64 16.8236
786 2 3.78227 142.406 16.8265
787 2 7.76797 142.653 16.7279
788 2 11.7032 142.707 17.0056
789 2 -0.0617825 146.345 17.0496
790 2 3.95049 146.458 16.8672
791 2 7.74887 146.351 16.8647
792 2 11.7703 146.502 16.8762
793 2 15.8742 150.306 16.8035
794 2 3.86596 150.409 16.9149
795 2 7.99762 150.416 16.7446
796 2 11.7978 150.338 16.9055
797 2 0.0912385 154.148 16.9276
798 2 3.96617 154.081 16.839
799 2 7.86795 154.265 16.8344
800 2 12.0392 154.363 16.9804
801 2 15.8647 158.081 20.9231
802 2 4.06196 158.071 20.6886
803 2 7.81356 -0.14967 20.8133
804 2 12.0747 158.077 20.8723
805 2 15.8774 3.69528 20.7137
806 2 3.9966 3.83 20.7895
807 2 7.89359 3.68284 20.9149
808 2 11.7486 3.73411 20.8878
809 2 15.9934 7.66202 20.7538
810 2 4.23221 7.49498 20.5277
811 2 8.04104 7.60721 20.7661
812 2 11.785 7.54621 20.6338
813 2 0.0530622 11.4845 20.5591
814 2 3.92702 11.6202 20.6388
815 2 7.71722 11.4843 20.7317
816 2 11.8986 11.5729 20.7409
817 2 15.8606 15.4076 20.6274
818 2 4.11152 15.4827 20.6128
819 2 8.0397 15.3264 20.6571
820 2 11.8274 15.5735 20.7426
821 2 0.188809 19.4465 20.4844
822 2 4.19959 19.3106 20.6691
823 2 7.87615 19.163 20.6105
824 2 11.8257 19.5141 20.6014
825 2 15.9415 23.144 20.4631
826 2 3.82531 23.2842 20.5813
827 2 7.98426 23.1757 20.563
828 2 11.92 23.4233 20.4498
829 2 -0.110653 27.3477 20.489
830 2 3.97381 27.0873 20.5146
831 2 8.04256 27.3874 20.475
832 2 11.9009 27.2048 20.3152
833 2 15.7153 31.1809 20.4228
834 2 3.81331 31.143 20.3986
835 2 7.79983 31.0358 20.493
836 2 11.6884 31.1854 20.3977
837 2 -0.125695 34.9467 20.3043
838 2 4.20953 35.0969 20.3957
839 2 7.91256 34.9335 20.3737
840 2 11.72 34.9169 20.2167
841 2 15.8357 38.7142 20.1648
842 2 4.09249 38.8768 20.3086
843 2 8.19402 38.7774 20.4571
844 2 12.0029 38.7554 20.4211
845 2 -0.221757 42.9152 20.1289
846 2 3.90791 42.6741 20.3406
847 2 7.78141 42.8945 20.1882
848 2 11.7499 42.8669 20.1585
849 2 -0.0336083 46.8477 20.1581
850 2 3.92426 46.8369 20.3611
851 2 8.0249 46.7703 20.5412
852 2 11.8931 46.8329 20.3393
853 2 -0.152534 50.9233 20.1975
854 2 3.86537 50.7768 20.3085
855 2 7.85865 50.899 20.2866
856 2 11.6484 50.9399 20.386
857 2 15.6657 54.8805 20.5794
858 2 3.94533 54.8068 20.5065
859 2 7.83889 54.9241 20.4291
860 2 11.9599 54.8493 20.3336
861 2 15.8335 58.7155 20.5441
862 2 3.73026 58.9218 20.7595
863 2 7.80983 58.9842 20.504
864 2 12.1203 58.9834 20.497
865 2 16.0079 62.8428 20.6318
866 2 3.98671 62.9335 20.6858
867 2 8.00281 62.9933 20.6145
868 2 12.0088 63.0643 20.5403
869 2 15.8739 66.854 20.6389
870 2 3.97673 66.8557 20.7431
871 2 7.8831 66.9862 20.7495
872 2 11.8369 66.9427 20.4613
873 2 0.107047 71.1068 20.7855
874 2 4.05225 70.9635 20.7543
875 2 7.85206 70.9596 20.7417
876 2 11.6952 71.1433 20.6905
877 2 15.6791 75.1203 20.883
878 2 3.96673 75.0769 20.8717
879 2 7.8895 74.9772 20.6892
880 2 11.9813 74.9727 20.7767
881 2 0.025401 79.1333 21.1226
882 2 4.04798 78.9349 21.0196
883 2 7.78064 79.0382 20.9993
884 2 11.6408 79.0595 20.9879
885 2 -0.136404 83.0777 21.1113
886 2 3.779 82.9835 21.0272
887 2 7.86113 83.2525 20.9237
888 2 11.704 83.056 21.0903
889 2 15.7295 87.0682 21.1432
890 2 3.80918 87.1408 21.0425
891 2 8.01221 87.2294 21.0086
892 2 11.7988 87.0225 20.9941
893 2 15.7321 91.1177 21.1605
894 2 3.976 91.003 21.1254
895 2 7.81745 91.0945 21.0672
896 2 11.8585 91.3058 21.2379
897 2 0.0519294 95.2883 21.298
898 2 3.80071 95.0962 20.9974
899 2 7.89621 94.9953 21.2751
900 2 11.7218 95.1126 21.176
901 2 15.793 99.3711 21.2736
902 2 3.90837 99.3736 21.3944
903 2 8.06876 99.2256 21.2496
904 2 11.8281 99.2043 21.0477
905 2 0.081891 103.379 21.4646
906 2 3.96003 103.524 21.2942
907 2 7.86117 103.368 21.3957
908 2 11.8556 103.366 21.4506
909 2 15.7323 107.312 21.3215
910 2 4.07052 107.379 21.5846
911 2 7.99169 107.326 21.5394
912 2 11.8829 107.304 21.3946
913 2 15.901 111.263 21.4998
914 2 3.81503 111.318 21.4366
915 2 8.19143 111.133 21.4976
916 2 12.023 111.329 21.4047
917 2 0.00460374 115.336 21.3268
918 2 3.92892 115.235 21.3152
919 2 7.96739 115.199 21.5542
920 2 11.9478 115.125 21.4625
921 2 15.6467 119.071 21.2889
922 2 3.85956 119.22 21.1785
923 2 7.8625 119.135 21.2137
924 2 11.8307 118.796 21.278
925 2 15.8644 123.04 21.3119
926 2 4.11247 123.07 21.3155
927 2 8.1459 123.156 21.1206
928 2 11.709 122.902 21.22
929 2 -0.0500151 126.919 21.0744
930 2 3.84972 126.941 21.1618
931 2 7.89486 127.081 21.1387
932 2 11.7899 126.908 20.9039
933 2 -0.171866 130.922 21.1364
934 2 3.91558 130.972 21.108
935 2 7.75547 130.977 21.1882
936 2 11.7349 130.707 20.9302
937 2 15.8718 134.777 21.2504
938 2 3.77668 134.658 21.1724
939 2 7.98019 134.691 21.0002
940 2 11.7988 134.807 21.0963
941 2 -0.232244 138.639 20.9501
942 2 3.84129 138.747 20.9152
943 2 7.84092 138.656 20.8439
944 2 11.6839 138.581 21.0993
945 2 15.6902 142.451 20.9567
946 2 3.80861 142.573 21.0422
947 2 7.81293 142.506 20.9757
948 2 11.8395 142.452 20.8914
949 2 15.7817 146.25 20.8981
950 2 3.95445 146.422 20.9277
951 2 7.9125 146.387 21.0754
952 2 11.9324 146.589 20.941
953 2 15.902 150.222 20.9195
954 2 3.84874 150.118 20.8739
955 2 7.66081 150.205 21.0052
956 2 11.8225 150.262 20.8913
957 2 0.113278 154.341 20.8914
958 2 4.1354 154.272 20.7988
959 2 7.91898 154.229 21.0459
960 2 11.8923 154.193 20.919
961 2 -0.0658932 158.328 24.8509
962 2 3.92329 158.217 24.8587
963 2 7.99783 158.253 24.8858
964 2 11.7686 158.226 25.0919
965 2 -0.119488 3.68334 24.6722
966 2 3.74288 3.7749 24.7192
967 2 7.89813 3.89031 24.8839
968 2 11.6968 3.91441 24.7079
969 2 15.8658 7.765 24.7738
970 2 3.85215 7.56018 24.7092
971 2 7.81572 7.7 24.6977
972 2 12.0388 7.74275 24.8835
973 2 16.0157 11.4746 24.5084
974 2 3.9966 11.6922 24.8731
975 2 7.94121 11.4876 24.8068
976 2 12.174 11.8276 24.5406
977 2 16.0059 15.3781 24.8011
978 2 4.12208 15.5097 24.6159
979 2 7.90422 15.4648 24.789
980 2 11.9979 15.6317 24.5761
981 2 -0.0663798 19.4231 24.6104
982 2 3.9922 19.4402 24.6821
983 2 7.88384 19.5635 24.6053
984 2 11.9556 19.4726 24.5948
985 2 15.8808 23.2619 24.5461
986 2 4.41069 23.352 24.48
987 2 8.0616 23.335 24.5691
988 2 11.8831 23.2903 24.5745
989 2 15.8685 27.4082 24.5615
990 2 4.20219 27.3335 24.4558
991 2 7.87188 27.2402 24.5363
992 2 11.8929 27.1603 24.4834
993 2 15.8012 31.1354 24.5121