ITEM: TIMESTEP
23800
ITEM: NUMBER OF ATOMS
32000
ITEM: BOX BOUNDS xy xz yz pp pp pp
0.0000000000000000e+00 1.5832000000000001e+01 0.0000000000000000e+00
0.0000000000000000e+00 1.5831999999999999e+02 0.0000000000000000e+00
8.0947647794808120e-01 1.6016764152204675e+02 0.0000000000000000e+00
ITEM: ATOMS id type x y z
1 2 -0.0116948 157.704 160
2 2 3.84676 157.959 159.96
3 2 7.83743 157.845 160.038
4 2 11.7197 157.944 159.944
5 2 -0.168571 3.38423 159.962
6 2 4.06161 3.48484 159.941
7 2 7.90205 3.55799 159.907
8 2 11.8434 3.69809 160.025
9 2 15.7567 7.5205 160.03
10 2 3.79779 7.28825 159.853
11 2 7.72309 7.34564 159.863
12 2 11.7896 7.56621 159.988
13 2 -0.10969 11.1043 159.938
14 2 3.95213 11.3082 159.945
15 2 7.87101 11.2657 159.893
16 2 11.6764 11.3934 159.965
17 2 0.0644279 15.1776 159.711
18 2 4.04435 15.1535 160.032
19 2 7.85838 15.1786 159.826
20 2 11.9898 15.3132 159.84
21 2 0.0559976 19.043 159.934
22 2 3.93329 19.1801 159.846
23 2 7.75209 19.1564 159.959
24 2 11.9422 19.3706 159.656
25 2 -0.137954 22.9922 159.8
26 2 3.87973 22.9436 159.641
27 2 8.02366 23.0037 159.81
28 2 11.8419 22.968 159.662
29 2 0.0373352 26.9449 159.805
30 2 3.86807 27.0377 159.897
31 2 7.80487 26.8935 159.76
32 2 11.9712 26.9239 159.893
33 2 15.674 31.0724 159.835
34 2 3.87812 31.0512 159.807
35 2 7.87729 31.3234 159.863
36 2 11.7001 31.079 159.667
37 2 15.6707 34.9937 160.007
38 2 3.79973 35.2565 159.84
39 2 7.6997 35.2103 160.247
40 2 11.8866 35.1037 159.946
41 2 0.00886303 39.1584 160.007
42 2 3.98553 39.0353 159.963
43 2 7.91963 38.9388 160.155
44 2 11.9136 39.0263 159.95
45 2 15.7887 43.138 160.114
46 2 3.84013 43.2228 0.818141
47 2 7.71131 43.0929 160.144
48 2 11.6654 43.1267 160.197
49 2 15.71 47.0896 160.081
50 2 4.03223 47.1041 160.311
51 2 7.92574 47.0729 160.128
52 2 11.8195 47.096 160.06
53 2 15.7942 51.1131 0.843182
54 2 4.00191 51.0537 160.236
55 2 7.94872 51.1658 160.022
56 2 11.8885 51.2845 0.737899
57 2 15.8421 55.2337 0.722267
58 2 4.00936 55.094 1.06393
59 2 7.8204 55.0801 0.802081
60 2 11.8356 55.3767 0.880736
61 2 0.0640358 59.2019 0.748997
62 2 3.93036 59.2259 0.858486
63 2 7.72555 59.208 0.886075
64 2 12.0561 59.1591 0.973014
65 2 0.145583 63.1646 0.996791
66 2 4.08265 63.2349 0.972928
67 2 7.95565 63.3593 1.22993
68 2 11.9155 63.1985 1.128
69 2 15.7197 67.3182 1.21816
70 2 3.71291 67.297 1.16367
71 2 7.76217 67.3589 1.13989
72 2 11.9149 67.3204 1.0242
73 2 -0.0663767 71.6062 1.05153
74 2 3.85474 71.3875 1.29145
75 2 7.75162 71.4717 1.21284
76 2 11.8765 71.3533 1.18602
77 2 -0.00876946 75.5983 1.20781
78 2 3.79058 75.5409 1.54642
79 2 7.99453 75.4566 1.44557
80 2 11.9878 75.4986 1.29746
81 2 -0.0417904 79.4277 1.47853
82 2 3.69949 79.5172 1.43393
83 2 7.93198 79.3982 1.27444
84 2 11.845 79.5113 1.27068
85 2 -0.0805703 83.5929 1.44368
86 2 3.73492 83.4135 1.49747
87 2 7.98209 83.6321 1.43238
88 2 11.9487 83.4307 1.46972
89 2 -0.00622331 87.468 1.27048
90 2 3.84894 87.5122 1.6143
91 2 7.84142 87.4178 1.7289
92 2 12.0543 87.4873 1.57156
93 2 15.8411 91.2986 1.49417
94 2 3.89409 91.3736 1.65362
95 2 7.82362 91.3727 1.69627
96 2 11.7846 91.2741 1.64603
97 2 15.694 95.2558 1.40955
98 2 3.96195 95.4569 1.31545
99 2 7.90355 95.3168 1.53604
100 2 11.948 95.3358 1.64177
101 2 15.9975 99.3089 1.51722
102 2 4.00991 99.087 1.54054
103 2 7.94728 99.3064 1.6028
104 2 11.933 99.2414 1.47224
105 2 -0.00103805 103.178 1.5049
106 2 4.01555 103.288 1.38473
107 2 7.86016 103.088 1.52997
108 2 11.7303 103.299 1.45082
109 2 15.8576 107.13 1.31652
110 2 3.89783 107.176 1.17932
111 2 7.7547 107.007 1.17489
112 2 11.6911 107.273 1.24526
113 2 15.8049 111.103 1.11123
114 2 3.93109 110.931 1.13303
115 2 7.94201 111.146 1.26974
116 2 11.7717 111.1 1.38032
117 2 15.945 114.966 1.1376
118 2 4.0242 114.903 1.12566
119 2 7.7675 115.068 1.24426
120 2 11.8545 115.034 1.16312
121 2 -0.0175601 118.94 1.1269
122 2 3.89092 118.967 0.991568
123 2 7.79599 119.006 1.12191
124 2 11.6876 118.91 0.924065
125 2 0.0542794 122.743 1.12843
126 2 3.72336 122.867 1.08101
127 2 7.93993 122.829 1.13061
128 2 11.8006 122.693 1.04148
129 2 -0.112598 126.735 0.991604
130 2 3.63124 126.79 0.879626
131 2 7.88098 126.717 1.01555
132 2 11.8233 126.676 1.08079
133 2 0.0590356 130.674 0.917774
134 2 3.8233 130.596 0.727567
135 2 7.8461 130.576 0.97469
136 2 11.9419 130.471 0.780031
137 2 15.7341 134.744 0.851544
138 2 3.93941 134.611 160.084
139 2 7.9338 134.485 0.68663
140 2 11.7274 134.337 0.802066
141 2 15.7089 138.418 0.818585
142 2 3.79568 138.423 0.965962
143 2 7.7964 138.366 0.881288
144 2 11.6144 138.356 0.909919
145 2 -0.046905 142.246 0.773785
146 2 3.72566 142.403 0.867242
147 2 7.83873 142.384 0.877795
148 2 11.702 142.264 0.905939
149 2 -0.131287 146.14 0.703265
150 2 3.99743 146.284 160.241
151 2 7.89118 146.321 0.824948
152 2 11.8422 146.331 160.066
153 2 -0.0145143 150.083 160.096
154 2 4.01099 149.977 160.065
155 2 7.77242 150.165 0.748582
156 2 11.8428 150.41 0.731119
157 2 0.0133373 153.933 160.145
158 2 3.97738 153.958 159.95
159 2 7.85875 154.071 160.162
160 2 11.747 154.03 160.053
161 2 -0.2732 157.831 4.60978
162 2 3.79872 -0.355643 4.74425
163 2 7.83668 157.909 4.69495
164 2 11.5638 158.015 4.56799
165 2 0.0405652 3.41247 4.63379
166 2 3.73798 3.43683 4.51632
167 2 7.78605 3.7328 4.56148
168 2 11.7749 3.67311 4.92125
169 2 0.12619 7.41295 4.39889
170 2 3.75871 7.42336 4.65311
171 2 7.74353 7.4673 4.53897
172 2 11.7715 7.40464 4.65246
173 2 -0.0445526 11.3854 4.66968
174 2 3.83079 11.31 4.60523
175 2 7.66662 11.1943 4.70669
176 2 11.7401 11.3412 4.60228
177 2 0.0683109 15.1774 4.30158
178 2 3.86835 15.2438 4.48292
179 2 7.93403 15.1568 4.27316
180 2 11.876 15.1396 4.34556
181 2 -0.00941014 18.9751 4.53483
182 2 3.7335 19.2518 4.50337
183 2 7.99166 19.1276 4.48708
184 2 11.8843 19.1261 4.39495
185 2 -0.053978 23.0537 4.52856
186 2 3.95047 23.1082 4.40306
187 2 7.83765 23.0567 4.44583
188 2 11.769 23.0125 4.55181
189 2 -0.0698458 26.7867 4.34731
190 2 3.96306 26.887 4.22666
191 2 7.93304 27.0563 4.30004
192 2 11.7716 27.0876 4.34818
193 2 0.124322 30.9939 4.32895
194 2 3.93562 30.7765 4.39438
195 2 7.75817 30.9306 4.43698
196 2 11.8853 30.9346 4.42382
197 2 15.957 35.0815 4.45538
198 2 3.88078 34.9839 4.48699
199 2 7.88635 34.9708 4.5466
200 2 11.8825 34.9647 4.59572
201 2 -0.0691964 39.0126 4.49738
202 2 4.00153 39.1491 4.77334
203 2 7.95019 39.0727 4.73428
204 2 11.8501 38.9097 4.4663
205 2 15.9104 43.1378 4.70004
206 2 4.05872 43.0358 4.7518
207 2 7.937 43.0816 4.83567
208 2 11.7728 43.0272 4.61729
209 2 15.735 47.0364 4.67825
210 2 3.90353 47.0477 4.73846
211 2 8.01724 47.1013 4.71253
212 2 11.792 47.0492 4.55141
213 2 15.6931 51.1434 4.6588
214 2 3.86522 51.17 4.83675
215 2 7.87955 51.1298 4.68418
216 2 11.6836 51.0858 4.62429
217 2 -0.0967472 55.0999 4.84248
218 2 3.89213 55.0977 4.76434
219 2 7.73835 55.285 4.7297
220 2 11.9165 55.1405 4.64909
221 2 16.0629 59.3157 4.83855
222 2 3.99453 59.1495 4.9892
223 2 7.90035 59.1311 4.75598
224 2 11.9553 59.2133 4.87886
225 2 15.7165 63.3754 4.96788
226 2 4.14278 63.2489 4.83737
227 2 7.85534 63.2729 5.00248
228 2 11.8393 63.2008 5.05059
229 2 0.0901308 67.429 5.15151
230 2 3.95933 67.3245 5.13007
231 2 7.86061 67.2879 4.9283
232 2 11.6899 67.2877 4.97094
233 2 -0.0768942 71.3254 4.94002
234 2 3.83483 71.1788 5.11517
235 2 8.08127 71.3049 5.18839
236 2 11.8604 71.332 4.97061
237 2 15.6823 75.3994 5.38751
238 2 3.93817 75.3926 5.35331
239 2 7.80522 75.4616 5.3486
240 2 11.7486 75.1812 5.27505
241 2 0.0861883 79.372 5.47604
242 2 4.07059 79.2203 5.33601
243 2 8.06603 79.188 5.34656
244 2 11.7206 79.413 5.36135
245 2 -0.133574 83.2099 5.44352
246 2 3.93574 83.3526 5.31761
247 2 7.86643 83.3168 5.03375
248 2 11.7569 83.6042 5.37078
249 2 -0.078803 87.3972 5.3299
250 2 4.09189 87.5721 5.69832
251 2 7.68169 87.4483 5.70389
252 2 11.688 87.4535 5.39439
253 2 -0.210514 91.4095 5.4545
254 2 3.91623 91.4273 5.65703
255 2 7.77741 91.5089 5.64419
256 2 11.8287 91.3753 5.58274
257 2 15.8641 95.1397 5.39046
258 2 3.80155 95.473 5.69278
259 2 7.90366 95.5186 5.35231
260 2 11.7178 95.4016 5.51541
261 2 -0.198221 99.2751 5.36677
262 2 3.85327 99.3668 5.5255
263 2 7.71612 99.2685 5.37398
264 2 11.8767 99.4121 5.50998
265 2 -0.0257953 103.327 5.30181
266 2 3.96505 103.367 5.50451
267 2 7.96178 103.268 5.44601
268 2 11.9171 103.444 5.27206
269 2 -0.00707655 107.202 5.31101
270 2 3.98622 107.479 5.31109
271 2 7.88612 107.179 5.16954
272 2 11.9242 107.288 5.26709
273 2 15.9836 111.352 5.22562
274 2 3.92457 111.049 5.31751
275 2 7.784 111.14 5.12178
276 2 11.8089 111.031 5.22604
277 2 15.7613 115.098 5.1375
278 2 3.86502 114.975 5.36644
279 2 7.92731 115.093 5.26043
280 2 11.8777 114.979 5.25679
281 2 15.7741 118.671 5.09271
282 2 3.96952 119.026 5.18804
283 2 7.98688 118.993 4.92509
284 2 12.0412 118.793 5.21605
285 2 -0.00471646 122.828 5.13253
286 2 4.13091 122.844 5.0616
287 2 7.98175 122.931 5.04785
288 2 11.9032 122.782 5.22773
289 2 -0.119511 126.867 5.00332
290 2 3.97833 126.737 5.07032
291 2 7.85661 126.668 5.08966
292 2 11.806 126.77 5.03065
293 2 0.0485393 130.861 5.10195
294 2 3.8069 130.696 5.04227
295 2 7.86495 130.548 4.85507
296 2 12.0001 130.658 5.02633
297 2 15.7127 134.667 4.83793
298 2 3.91689 134.464 4.90288
299 2 7.75722 134.408 4.96004
300 2 11.6009 134.565 4.93348
301 2 -0.0507816 138.432 4.92627
302 2 3.91983 138.448 4.999
303 2 7.7251 138.478 4.80552
304 2 11.6933 138.506 4.9506
305 2 -0.309195 142.541 4.71321
306 2 3.85673 142.102 4.89474
307 2 7.64559 142.434 4.80782
308 2 11.6512 142.537 4.97903
309 2 -0.0490919 146.161 4.57804
310 2 3.9558 146.2 4.79926
311 2 7.72178 146.149 4.82836
312 2 12.0247 146.245 4.62527
313 2 15.7494 150.013 4.70126
314 2 3.77095 150.078 4.79198
315 2 8.02951 150.163 4.76779
316 2 11.8467 150.278 4.92087
317 2 0.0158629 154.033 4.90979
318 2 3.88688 153.924 4.65006
319 2 7.96786 153.995 4.82959
320 2 11.867 154.07 4.77981
321 2 0.0350848 157.804 8.70454
322 2 4.01322 157.956 8.65712
323 2 7.77487 157.89 8.84034
324 2 11.8663 158.193 8.73413
325 2 15.7939 3.65355 8.79521
326 2 3.87588 3.59383 8.69632
327 2 7.83305 3.50483 8.57693
328 2 11.7648 3.59906 8.81532
329 2 0.0216697 7.41813 8.60446
330 2 4.03168 7.39325 8.84803
331 2 7.86888 7.46264 8.73697
332 2 11.8102 7.52362 8.72345
333 2 0.0744429 11.3761 8.53898
334 2 4.0057 11.4127 8.67866
335 2 7.719 11.3673 8.6485
336 2 11.7556 11.469 8.57827
337 2 -0.0043774 15.1407 8.36905
338 2 3.89581 15.1937 8.49569
339 2 7.89479 15.3069 8.50154
340 2 11.8192 15.2565 8.48723
341 2 -0.101609 19.2016 8.56093
342 2 3.94047 19.2112 8.34884
343 2 7.94098 19.0286 8.46742
344 2 11.8855 19.3703 8.36194
345 2 0.0591077 22.9695 8.3912
346 2 4.17377 23.0727 8.32954
347 2 7.9215 23.0734 8.27115
348 2 11.8555 23.2353 8.49566
349 2 15.8541 26.9442 8.38261
350 2 3.97756 27.1651 8.33597
351 2 8.04349 26.9515 8.2706
352 2 11.9414 27.0535 8.28729
353 2 -0.1159 30.8321 8.41623
354 2 3.98002 30.8252 8.52404
355 2 8.09448 30.7698 8.41901
356 2 12.0076 31.0597 8.42572
357 2 15.9177 35.1034 8.53029
358 2 3.9101 34.8448 8.35972
359 2 7.96334 34.7956 8.39295
360 2 11.9139 34.9549 8.32772
361 2 15.8734 38.9534 8.55559
362 2 3.86641 38.9945 8.64552
363 2 7.65186 38.9281 8.59934
364 2 11.8853 38.864 8.42074
365 2 15.7909 42.8865 8.50006
366 2 3.967 43.1112 8.43116
367 2 8.0277 42.9002 8.64669
368 2 11.9221 42.9628 8.57292
369 2 15.7488 47.0635 8.56899
370 2 3.95611 47.0952 8.55485
371 2 8.01632 47.207 8.69321
372 2 11.9901 46.9798 8.64906
373 2 -0.0319165 51.0274 8.62089
374 2 3.96028 51.093 8.53734
375 2 7.94153 51.0173 8.72991
376 2 11.9158 51.1347 8.38136
377 2 0.0176947 55.1336 8.63491
378 2 3.85428 54.9592 8.77565
379 2 7.92065 55.1676 8.56575
380 2 11.8577 55.1295 8.41075
381 2 15.7043 59.3018 8.7993
382 2 3.96189 59.1152 8.76977
383 2 8.00869 59.1345 8.76837
384 2 11.9355 59.1683 8.78952
385 2 16.01 63.119 8.81636
386 2 4.07609 63.0149 8.75519
387 2 7.75759 63.108 8.97243
388 2 11.6095 63.1621 8.88483
389 2 0.0422072 67.0973 8.86659
390 2 3.98084 67.1242 9.00215
391 2 7.93307 67.1576 9.04447
392 2 11.8534 67.0924 9.007
393 2 15.7023 71.3426 8.80465
394 2 3.85083 71.3044 9.01843
395 2 7.67566 71.093 8.97714
396 2 11.7843 71.2471 9.18237
397 2 -0.0624639 75.243 8.88515
398 2 4.05748 75.1651 9.23173
399 2 7.87946 75.1548 9.06838
400 2 11.8555 75.3957 9.17981
401 2 15.8815 79.2553 9.28709
402 2 4.16029 79.3716 9.39858
403 2 7.76046 79.3872 9.16073
404 2 11.6378 79.3775 9.15553
405 2 15.7727 83.347 9.38231
406 2 3.74069 83.3886 9.18091
407 2 7.92828 83.3714 9.41011
408 2 11.7396 83.4857 9.36106
409 2 -0.033593 87.2812 9.41112
410 2 3.77921 87.2344 9.46428
411 2 7.71991 87.4357 9.56619
412 2 11.7519 87.3248 9.22071
413 2 -0.344316 91.3998 9.39134
414 2 3.83806 91.2883 9.23493
415 2 7.79891 91.4434 9.5516
416 2 11.6942 91.4973 9.49722
417 2 -0.123749 95.3707 9.55951
418 2 3.68917 95.3217 9.28324
419 2 7.82569 95.4735 9.55299
420 2 11.7655 95.4048 9.40867
421 2 -0.104665 99.3886 9.42702
422 2 3.87207 99.205 9.42255
423 2 7.91206 99.2002 9.48322
424 2 11.8991 99.5108 9.48466
425 2 -0.150346 103.467 9.41726
426 2 3.77489 103.352 9.38967
427 2 7.84114 103.255 9.44524
428 2 11.5594 103.273 9.35332
429 2 0.0528614 107.337 9.53356
430 2 3.9225 107.2 9.35048
431 2 7.93522 107.375 9.32504
432 2 11.8719 107.204 9.41006
433 2 -0.220194 111.126 9.3752
434 2 3.7404 111.07 9.44293
435 2 7.76706 111.321 9.27842
436 2 11.7734 111.137 9.35102
437 2 15.6619 115.093 9.46255
438 2 3.96834 114.942 9.26422
439 2 7.82794 115.149 9.32804
440 2 11.9282 115.021 9.17409
441 2 0.127422 118.953 9.18435
442 2 4.02079 119.105 9.0919
443 2 7.897 118.862 9.30874
444 2 12.0639 118.841 9.22759
445 2 15.88 122.855 9.0878
446 2 3.81992 122.835 8.93225
447 2 8.0092 122.876 9.09852
448 2 12.062 122.981 9.27684
449 2 -0.0233361 126.691 8.92798
450 2 4.06771 126.754 8.97776
451 2 7.95503 126.752 9.18534
452 2 11.9546 126.923 9.16466
453 2 15.7563 130.672 9.03662
454 2 3.94262 130.54 9.06273
455 2 8.03358 130.613 8.95441
456 2 11.9206 130.748 9.20532
457 2 15.7862 134.581 8.85223
458 2 3.88794 134.585 9.04844
459 2 7.972 134.621 8.83498
460 2 11.9542 134.721 8.99289
461 2 -0.00741529 138.517 8.8507
462 2 3.78277 138.435 9.06761
463 2 7.7914 138.56 9.03776
464 2 11.6546 138.53 8.87775
465 2 -0.17719 142.634 8.88965
466 2 3.95688 142.462 8.96574
467 2 7.81234 142.624 8.80186
468 2 11.7721 142.273 8.85875
469 2 15.7224 146.296 8.88711
470 2 3.95234 146.285 8.96004
471 2 8.04684 146.413 8.80679
472 2 11.7395 146.429 8.89106
473 2 -0.0949934 150.104 8.76404
474 2 4.09134 150.299 8.83296
475 2 7.96358 150.131 8.85758
476 2 11.9603 150.125 8.77337
477 2 -0.12069 154.172 8.90007
478 2 4.02011 154.049 8.75424
479 2 7.78189 154.152 8.74864
480 2 11.845 154.057 8.96358
481 2 15.7697 158.066 12.8312
482 2 3.77817 158.161 12.7404
483 2 7.91589 157.987 12.7949
484 2 11.7238 158.074 12.7525
485 2 0.148585 3.48884 12.8669
486 2 3.94411 3.52627 12.926
487 2 7.94637 3.74155 12.851
488 2 11.9721 3.59409 12.7278
489 2 15.8352 7.49303 12.7334
490 2 3.96512 7.5928 12.7664
491 2 7.82883 7.58462 12.7795
492 2 11.9629 7.45945 12.7227
493 2 15.9416 11.472 12.7879
494 2 3.91154 11.4033 12.7748
495 2 7.77096 11.3007 12.7887
496 2 12.0098 11.3157 12.5774
497 2 15.7314 15.3738 12.5195
498 2 3.86092 15.4491 12.5494
499 2 7.95436 15.4075 12.6576
500 2 12.0059 15.3492 12.5128
501 2 15.8033 19.1442 12.4414
502 2 3.74635 19.2844 12.4831
503 2 7.92765 19.1365 12.374
504 2 11.9094 19.2563 12.3714
505 2 15.7402 23.1345 12.2629
506 2 3.99625 23.1002 12.3771
507 2 7.80871 23.0779 12.4338
508 2 11.9341 23.1841 12.3894
509 2 0.023679 26.9125 12.2819
510 2 3.77591 26.9136 12.3925
511 2 7.6459 26.911 12.3327
512 2 11.668 27.1684 12.6102
513 2 15.8075 30.9201 12.4934
514 2 4.01916 30.8741 12.3606
515 2 8.02833 30.8845 12.2836
516 2 11.851 30.8537 12.2595
517 2 -0.0881267 34.9798 12.2506
518 2 4.06235 34.8604 12.5175
519 2 8.00442 34.7973 12.1169
520 2 12.0236 34.9098 12.4057
521 2 -0.171061 39.0712 12.5027
522 2 3.82505 38.8818 12.4688
523 2 7.77428 38.8839 12.2397
524 2 11.7598 38.8174 12.1986
525 2 -0.0999785 43.0059 12.339
526 2 3.72454 43.1694 12.3682
527 2 7.68865 42.9335 12.6023
528 2 11.8138 43.0105 12.3423
529 2 -0.108318 47.046 12.5207
530 2 3.98171 47.0007 12.3402
531 2 7.88759 46.9581 12.6561
532 2 11.9408 47.0301 12.5844
533 2 15.9109 51.219 12.4434
534 2 3.97021 51.0611 12.3718
535 2 7.95882 50.8934 12.4491
536 2 11.8817 51.1427 12.5473
537 2 -0.122259 55.1232 12.6574
538 2 3.99901 55.3504 12.7217
539 2 7.87846 55.0902 12.6288
540 2 11.7659 54.8669 12.5966
541 2 15.9567 59.0168 12.6751
542 2 4.00257 58.9272 12.5609
543 2 7.99795 59.1303 12.6321
544 2 11.821 58.8897 12.7043
545 2 15.7824 63.1917 12.8473
546 2 3.80599 63.063 12.6549
547 2 7.93923 63.1144 12.8556
548 2 11.8324 63.1801 12.7514
549 2 0.0523129 66.9893 12.7882
550 2 3.89237 67.1752 12.8651
551 2 7.91841 67.1179 12.8542
552 2 11.9173 67.2006 12.875
553 2 -0.0669209 71.2964 12.7894
554 2 3.95052 71.0302 12.9801
555 2 7.95641 71.0757 12.9494
556 2 11.7667 71.2952 12.9073
557 2 -0.126938 75.286 13.1146
558 2 3.80537 75.0466 13.0358
559 2 8.01901 75.2441 12.9809
560 2 11.9966 75.3113 13.1282
561 2 15.7157 79.133 13.0312
562 2 3.98366 79.3197 13.1366
563 2 7.64566 79.2293 13.1187
564 2 11.7007 79.2475 13.2195
565 2 -0.140248 83.2252 13.1035
566 2 3.81288 83.1806 13.2835
567 2 7.86874 83.1513 13.1812
568 2 11.9326 83.1629 13.0892
569 2 15.5625 87.4785 13.2788
570 2 3.87045 87.3624 13.3185
571 2 7.85438 87.1673 13.4494
572 2 11.6546 87.2213 13.0794
573 2 -0.0724587 91.2402 13.2698
574 2 3.81518 91.4 13.1083
575 2 7.84444 91.1635 13.3418
576 2 11.8832 91.36 13.2743
577 2 -0.0817767 95.2385 13.4395
578 2 3.72999 95.4051 13.3135
579 2 7.81055 95.564 13.2804
580 2 11.6293 95.3571 13.3855
581 2 0.0111736 99.3239 13.5051
582 2 3.97748 99.3465 13.3837
583 2 7.78587 99.2979 13.5514
584 2 11.8142 99.4932 13.498
585 2 15.9296 103.215 13.4518
586 2 3.74179 103.212 13.3701
587 2 7.84822 103.41 13.4099
588 2 11.8681 103.419 13.3506
589 2 15.7368 107.085 13.5695
590 2 4.14232 107.235 13.3521
591 2 7.88406 107.327 13.4349
592 2 11.8946 107.187 13.4492
593 2 -0.076514 111.117 13.6055
594 2 3.71103 111.079 13.3625
595 2 7.87404 111.205 13.3783
596 2 11.7426 111.269 13.4043
597 2 -0.081547 114.901 13.3446
598 2 3.87591 115.092 13.2812
599 2 7.91886 115.002 13.2497
600 2 11.6549 115.118 13.0986
601 2 15.7558 119.004 13.4163
602 2 3.80999 118.887 13.1629
603 2 7.96728 118.953 13.2967
604 2 11.8509 118.958 13.4404
605 2 15.8569 122.842 13.2182
606 2 3.88994 122.728 13.1041
607 2 7.97345 122.853 13.1969
608 2 11.7743 122.826 13.1131
609 2 0.0486395 126.736 13.1884
610 2 3.98711 126.791 13.1741
611 2 7.89646 126.745 13.2211
612 2 11.8984 126.738 13.1048
613 2 15.775 130.769 13.1772
614 2 3.85157 130.694 13.0826
615 2 7.9753 130.703 13.0439
616 2 12.0567 130.8 13.1203
617 2 -0.0689666 134.615 12.9306
618 2 4.06069 134.589 12.894
619 2 8.03417 134.67 13.0084
620 2 11.8144 134.591 13.0292
621 2 -0.197027 138.509 12.9408
622 2 3.87472 138.351 12.8656
623 2 7.80195 138.553 12.9045
624 2 11.8068 138.57 12.8621
625 2 15.7176 142.567 13.0252
626 2 3.9381 142.272 12.9353
627 2 7.90195 142.441 12.9261
628 2 12.0249 142.521 12.9239
629 2 15.7351 146.414 12.96
630 2 3.89069 146.429 12.8291
631 2 7.76818 146.353 13.0033
632 2 11.8506 146.486 12.7724
633 2 -0.123443 150.282 12.8726
634 2 3.83623 150.194 12.6151
635 2 7.79176 150.215 12.8807
636 2 11.7513 150.294 13.0083
637 2 0.0943332 154.248 12.9311
638 2 3.78312 154.212 12.7939
639 2 7.90578 153.982 12.9452
640 2 11.7284 154.126 12.6946
641 2 0.0720646 157.738 16.9799
642 2 4.03724 158.091 16.6745
643 2 7.8615 157.994 16.8473
644 2 11.86 158.273 16.885
645 2 15.7407 3.58689 16.9066
646 2 3.98205 3.52527 16.8662
647 2 7.94813 3.68024 16.7536
648 2 11.9657 3.72859 16.9665
649 2 15.7721 7.53147 16.8175
650 2 3.94548 7.39397 16.7241
651 2 7.96949 7.67891 16.8163
652 2 11.928 7.42542 16.766
653 2 0.100013 11.6122 16.719
654 2 3.88852 11.4534 16.7441
655 2 7.90734 11.3576 16.7939
656 2 11.9014 11.429 16.7472
657 2 -0.0110294 15.3958 16.5746
658 2 4.06166 15.4835 16.508
659 2 7.89353 15.2063 16.473
660 2 11.8919 15.4205 16.574
661 2 15.9276 19.4284 16.582
662 2 3.92671 19.326 16.5616
663 2 7.87063 19.1576 16.462
664 2 11.8606 19.2563 16.4132
665 2 0.0403509 23.2093 16.4164
666 2 4.02668 23.2757 16.4487
667 2 7.72947 22.8991 16.4035
668 2 11.833 23.2897 16.423
669 2 15.7578 27.2411 16.5557
670 2 3.90567 27.0703 16.5043
671 2 7.88542 27.1017 16.405
672 2 11.7114 26.9633 16.3537
673 2 15.8173 31.128 16.5224
674 2 3.91349 30.9117 16.3919
675 2 7.82608 30.9466 16.2541
676 2 11.71 30.9827 16.3445
677 2 15.8436 34.9969 16.2452
678 2 4.01513 34.8306 16.4026
679 2 8.05798 35.0686 16.3238
680 2 11.8704 34.8903 16.2265
681 2 15.7272 38.8433 16.2291
682 2 3.87782 38.8193 16.1792
683 2 7.86182 38.8989 16.4207
684 2 11.8566 38.858 16.149
685 2 -0.210037 43.0487 16.3689
686 2 3.91228 42.7812 16.2891
687 2 7.68798 42.7748 16.3871
688 2 11.8773 43.0791 16.377
689 2 15.7538 47.0115 16.4413
690 2 3.94496 46.9172 16.3323
691 2 7.8767 46.888 16.5429
692 2 12.0459 47.0965 16.3683
693 2 15.8237 51.0563 16.4991
694 2 3.92317 51.1114 16.5762
695 2 7.93645 50.981 16.5285
696 2 11.8725 51.0019 16.525
697 2 15.6995 54.9631 16.5545
698 2 3.8953 54.957 16.5227
699 2 7.82609 55.0073 16.506
700 2 11.8113 54.7891 16.6314
701 2 15.7839 59.0066 16.6422
702 2 3.98573 59.0314 16.4652
703 2 8.07063 59.0582 16.6241
704 2 11.8829 58.8483 16.5371
705 2 15.9244 62.9256 16.7428
706 2 3.89404 63.0459 16.643
707 2 7.80914 62.9684 16.8057
708 2 11.9141 62.8214 16.6937
709 2 0.130596 67.0126 16.9164
710 2 4.18197 67.0885 16.7962
711 2 8.0275 67.0514 16.7506
712 2 11.8522 67.1079 16.9295
713 2 -0.0956574 71.156 16.7583
714 2 4.12094 71.1133 16.9525
715 2 7.84175 71.0133 16.82
716 2 11.8495 71.168 16.8772
717 2 16.0314 75.2103 16.9253
718 2 3.96961 75.2355 16.825
719 2 7.74355 75.1539 16.783
720 2 11.8126 75.1223 17.1281
721 2 -0.275456 79.148 17.0443
722 2 3.7499 79.2683 16.9998
723 2 7.85337 79.1449 16.9794
724 2 11.6779 79.2792 16.9459
725 2 0.00409872 83.2099 17.194
726 2 3.81596 83.2027 17.2544
727 2 7.63156 83.2794 17.0151
728 2 11.7579 83.2452 16.9913
729 2 -0.0693919 87.2123 17.1186
730 2 3.7112 87.1384 17.1836
731 2 7.94914 87.0774 17.1769
732 2 11.8559 87.253 17.057
733 2 -0.0972471 91.2288 17.1993
734 2 3.94514 91.0398 17.2324
735 2 7.84964 91.2183 17.2482
736 2 11.8577 91.4031 17.3635
737 2 15.6797 95.3744 17.2009
738 2 3.9052 95.3867 17.5355
739 2 7.76124 95.162 17.2323
740 2 11.7749 95.3034 17.1505
741 2 15.8412 99.665 17.5483
742 2 3.99192 99.338 17.6525
743 2 8.01553 99.2123 17.4267
744 2 11.9485 99.3098 17.2957
745 2 15.7836 103.321 17.5263
746 2 4.02255 103.387 17.4014
747 2 8.03601 103.336 17.4564
748 2 11.8295 103.309 17.5883
749 2 16.0016 107.244 17.459
750 2 4.1479 107.341 17.3765
751 2 7.9063 107.263 17.5504
752 2 11.7427 107.224 17.3885
753 2 -0.0117921 111.18 17.3922
754 2 4.09869 111.103 17.4819
755 2 7.83529 111.31 17.5259
756 2 11.9105 111.115 17.4287
757 2 15.8971 115.031 17.4068
758 2 4.04781 115.212 17.1505
759 2 7.77755 115.201 17.3787
760 2 11.9056 114.983 17.3436
761 2 0.0057046 118.996 17.2076
762 2 3.92517 119.101 17.2863
763 2 7.80593 118.999 17.3078
764 2 12.1018 119.005 17.3349
765 2 -0.17106 123.002 17.1683
766 2 3.8841 122.972 17.3513
767 2 7.85222 122.998 17.2281
768 2 11.8645 123.016 17.1861
769 2 -0.125269 126.915 17.1685
770 2 3.94552 126.932 17.1711
771 2 8.02355 127.134 17.0286
772 2 11.8364 127.177 17.0645
773 2 15.7409 130.755 16.8872
774 2 3.82414 130.879 17.012
775 2 7.82933 130.937 16.973
776 2 11.9232 130.957 17.0526
777 2 15.7957 134.817 17.1518
778 2 3.87234 134.821 17.0538
779 2 7.90297 134.78 17.1476
780 2 11.6786 134.886 16.8909
781 2 15.6667 138.686 16.9172
782 2 3.7479 138.578 16.9588
783 2 7.79979 138.729 16.8843
784 2 11.6063 138.704 16.8609
785 2 15.6173 142.514 17.0502
786 2 3.7821 142.538 16.9855
787 2 7.84392 142.549 16.9416
788 2 11.8997 142.51 16.8941
789 2 0.0959285 146.428 16.8012
790 2 3.87663 146.24 16.9315
791 2 7.8973 146.34 17.0063
792 2 11.8286 146.492 17.016
793 2 15.7584 150.395 16.9843
794 2 3.87827 150.159 16.8935
795 2 7.80488 150.199 16.9339
796 2 11.8628 150.416 17.0375
797 2 -0.0539969 154.299 16.9077
798 2 3.99892 154.306 16.935
799 2 7.87296 154.095 16.9334
800 2 11.6286 154.033 16.9355
801 2 16.0119 158.123 20.8643
802 2 3.88769 158.211 20.8529
803 2 7.8994 -0.0902608 20.9617
804 2 11.7632 158.012 20.8194
805 2 15.7993 3.76301 20.9846
806 2 3.91401 3.64386 20.7424
807 2 7.9785 3.80702 20.8961
808 2 11.9289 3.59059 20.8491
809 2 15.7188 7.83855 20.8299
810 2 3.88512 7.66042 20.8065
811 2 7.85397 7.71737 20.8073
812 2 11.9376 7.78631 20.8913
813 2 0.0345645 11.7478 20.775
814 2 3.99322 11.5087 20.602
815 2 8.07973 11.5522 20.6278
816 2 11.8257 11.7774 20.5998
817 2 15.9809 15.6302 20.6329
818 2 4.05753 15.5225 20.6825
819 2 7.88743 15.5007 20.5868
820 2 11.9598 15.5182 20.5966
821 2 0.0467317 19.2532 20.6127
822 2 3.91242 19.3006 20.5116
823 2 7.98425 19.4398 20.5237
824 2 11.985 19.4276 20.4287
825 2 15.6981 23.4228 20.557
826 2 4.05106 23.3335 20.5774
827 2 7.84007 23.1678 20.5
828 2 11.7826 23.1644 20.7406
829 2 0.203099 27.1721 20.5181
830 2 4.17285 27.2782 20.4145
831 2 8.00318 26.9437 20.4993
832 2 12.1516 27.31 20.4519
833 2 15.8704 31.1165 20.5839
834 2 3.98924 31.1084 20.4002
835 2 7.97389 31.0301 20.3594
836 2 11.8906 31.0668 20.2853
837 2 0.0748209 34.9624 20.3659
838 2 3.95721 34.9254 20.3845
839 2 8.07415 34.916 20.2502
840 2 11.9782 35.0461 20.3878
841 2 15.8666 38.9378 20.3974
842 2 3.79987 38.7067 20.2813
843 2 7.79692 38.8163 20.2071
844 2 11.9866 38.9937 20.1275
845 2 0.0221946 42.7433 20.2339
846 2 3.75397 42.9253 20.3425
847 2 8.05411 42.7535 20.3385
848 2 11.9008 42.7275 20.3183
849 2 0.0267281 46.7977 20.4573
850 2 3.95271 46.7313 20.419
851 2 7.98456 46.9906 20.2165
852 2 11.8878 46.8436 20.4302
853 2 0.0841202 50.7973 20.4788
854 2 4.11227 50.9246 20.4331
855 2 7.8242 50.8095 20.4394
856 2 11.7694 50.944 20.5565
857 2 15.8881 54.9401 20.5144
858 2 3.83957 55.0928 20.2647
859 2 7.88729 54.8996 20.6134
860 2 11.7047 55.0045 20.4755
861 2 15.8889 58.981 20.5294
862 2 4.07119 58.9625 20.3515
863 2 7.99913 58.8045 20.4797
864 2 11.7109 58.8928 20.3616
865 2 15.8258 62.9074 20.789
866 2 4.13389 62.9982 20.7704
867 2 7.90058 62.9536 20.6335
868 2 11.9067 62.8422 20.6054
869 2 15.7562 66.9936 20.795
870 2 3.86589 66.9914 20.7665
871 2 7.86487 67.0003 20.6245
872 2 11.8563 67.0005 20.9564
873 2 0.0173231 70.8655 20.5786
874 2 3.85507 70.9724 20.7587
875 2 7.9357 70.9093 20.6644
876 2 11.9811 70.8831 20.7289
877 2 16.0682 74.9233 20.8247
878 2 4.03723 74.9859 20.7472
879 2 8.10771 75.0155 21.0555
880 2 11.8515 75.1119 20.8745
881 2 -0.144638 78.9445 20.8563
882 2 3.78206 79.0253 20.8359
883 2 7.83579 79.0272 20.9485
884 2 11.8766 79.0276 20.93
885 2 -0.159322 83.0818 21.0443
886 2 3.85531 83.1482 20.9934
887 2 7.66516 82.9481 21.2181
888 2 11.7892 83.0197 20.9893
889 2 15.5771 87.1574 21.1042
890 2 3.85615 87.0728 21.1315
891 2 7.8898 87.0303 21.2293
892 2 11.7419 87.172 21.1981
893 2 15.8978 91.2618 21.0023
894 2 3.87095 91.192 21.092
895 2 7.97422 91.1712 21.0866
896 2 11.8971 91.1553 21.1975
897 2 0.0119598 95.2181 21.2282
898 2 3.92935 95.2562 21.4435
899 2 7.77082 95.2448 21.0656
900 2 12.0182 95.2624 21.3232
901 2 15.6665 99.2519 21.2144
902 2 3.8572 99.2128 21.3077
903 2 7.81019 99.1602 21.1661
904 2 11.8083 99.1728 21.292
905 2 -0.254657 103.27 21.4983
906 2 3.77841 103.226 21.5478
907 2 7.93438 103.322 21.629
908 2 11.6269 103.211 21.4054
909 2 15.9192 107.162 21.4926
910 2 3.79474 107.268 21.338
911 2 7.87792 107.378 21.5367
912 2 12.0749 107.409 21.5671
913 2 16.0073 111.2 21.2529
914 2 4.00038 111.265 21.4194
915 2 7.85617 111.381 21.4879
916 2 12.047 111.157 21.5009
917 2 0.0465218 115.158 21.4541
918 2 3.91871 115.269 21.2992
919 2 7.96936 115.193 21.2557
920 2 11.9947 115.16 21.2645
921 2 15.9052 119.116 21.3163
922 2 3.98608 119.215 21.4685
923 2 7.89208 119.12 21.415
924 2 11.9114 119.315 21.2674
925 2 15.6266 122.966 21.2367
926 2 3.77404 123.035 21.3275
927 2 7.71876 123.13 21.3339
928 2 11.8744 122.908 21.1771
929 2 -0.13459 126.89 21.3289
930 2 3.92505 126.975 21.2469
931 2 7.70712 126.984 21.1666
932 2 11.6799 126.751 21.1717
933 2 0.14845 130.959 21.0124
934 2 3.90958 130.77 21.1062
935 2 7.92541 130.812 21.1181
936 2 11.9784 130.879 21.2195
937 2 15.5691 134.746 20.9949
938 2 4.01965 134.959 20.9137
939 2 7.84413 134.821 20.9928
940 2 11.6274 134.647 20.8741
941 2 -0.0935456 138.527 21.0008
942 2 3.96045 138.598 21.125
943 2 7.84021 138.817 20.9575
944 2 11.8227 138.539 20.8996
945 2 15.7336 142.544 21.0312
946 2 3.79155 142.385 20.9287
947 2 7.88071 142.547 20.967
948 2 11.6922 142.521 21.0775
949 2 15.7173 146.631 21.0554
950 2 3.96303 146.467 20.8172
951 2 7.84794 146.392 20.9153
952 2 11.6441 146.571 20.8858
953 2 15.7312 150.371 21.032
954 2 3.91628 150.369 20.9597
955 2 7.99462 150.389 20.926
956 2 11.9052 150.483 20.9975
957 2 -0.0252093 154.259 21.0254
958 2 3.92614 154.113 20.9894
959 2 7.88124 154.289 20.8598
960 2 11.8335 154.3 20.9462
961 2 0.00840197 158.262 25.0448
962 2 3.9739 158.056 25.0806
963 2 7.66389 158.3 25.005
964 2 11.8796 158.212 24.7487
965 2 0.0480723 3.80172 24.8013
966 2 4.12899 3.95163 24.7317
967 2 7.80344 3.805 24.8343
968 2 11.9376 3.84325 24.8943
969 2 15.9251 7.55739 24.7565
970 2 4.00176 7.84026 24.9441
971 2 7.89526 7.83814 24.9224
972 2 11.8678 7.81338 24.6229
973 2 15.6895 11.6391 24.7239
974 2 3.78607 11.6647 24.4503
975 2 7.98684 11.6426 24.6977
976 2 11.7229 11.5147 24.8765
977 2 15.7497 15.4896 24.5643
978 2 3.96917 15.5117 24.8048
979 2 8.04431 15.3671 24.5765
980 2 11.9269 15.5042 24.6217
981 2 0.113472 19.3756 24.6245
982 2 3.96838 19.3032 24.667
983 2 7.99524 19.3266 24.7662
984 2 11.8245 19.2925 24.6383
985 2 16.03 23.2363 24.2762
986 2 3.75897 23.3701 24.5376
987 2 7.92338 23.3308 24.5875
988 2 12.0119 23.4081 24.5561
989 2 15.813 27.0178 24.475
990 2 3.87863 27.1156 24.521
991 2 8.07487 27.2886 24.5518
992 2 11.8488 27.2346 24.6146