ITEM: TIMESTEP
23900
ITEM: NUMBER OF ATOMS
32000
ITEM: BOX BOUNDS xy xz yz pp pp pp
0.0000000000000000e+00 1.5832000000000001e+01 0.0000000000000000e+00
0.0000000000000000e+00 1.5831999999999999e+02 0.0000000000000000e+00
8.2610662894801123e-01 1.6015101137104696e+02 0.0000000000000000e+00
ITEM: ATOMS id type x y z
1 2 -0.0192871 157.946 159.885
2 2 3.97228 158.106 160.018
3 2 7.77132 158 159.92
4 2 11.8054 157.915 160.205
5 2 -0.158936 3.52418 159.911
6 2 3.78373 3.45016 160.082
7 2 7.88875 3.38189 160.008
8 2 11.7738 3.28243 160.014
9 2 15.5654 7.22793 159.9
10 2 3.88145 7.34433 160.077
11 2 7.93807 7.31247 159.935
12 2 11.6932 7.28975 160.009
13 2 0.135469 11.4725 159.825
14 2 3.93686 11.2583 159.844
15 2 7.7451 11.4488 159.909
16 2 11.8938 11.1088 159.911
17 2 -0.0336952 15.1769 159.914
18 2 3.93111 15.2051 159.668
19 2 8.04883 15.1604 159.85
20 2 11.8641 15.1202 159.912
21 2 0.159752 19.315 159.717
22 2 3.87044 18.9819 159.786
23 2 8.00415 18.8876 159.548
24 2 11.9701 18.9572 159.857
25 2 0.10279 22.9403 159.644
26 2 4.00555 22.9854 159.882
27 2 7.80537 23.1233 159.748
28 2 11.7473 22.9454 159.85
29 2 0.0162844 26.9296 159.846
30 2 4.09367 26.9616 159.724
31 2 8.14662 27.194 159.791
32 2 11.9281 27.0779 159.729
33 2 15.8392 30.9905 159.82
34 2 4.07927 31.0708 159.961
35 2 7.96125 30.8504 159.889
36 2 12.0786 31.0664 160.036
37 2 15.7714 35.0683 159.849
38 2 3.7457 34.9224 160.083
39 2 7.86039 35.1176 159.85
40 2 11.6854 34.9036 159.872
41 2 -0.00990377 38.9077 159.897
42 2 3.7827 39.3239 160.168
43 2 7.95899 39.1407 159.929
44 2 12.0741 39.3244 159.91
45 2 15.9239 43.1235 160.012
46 2 3.90784 43.0815 0.701348
47 2 7.86093 43.2298 160.045
48 2 11.8855 43.1768 159.938
49 2 15.7858 47.2508 160.014
50 2 3.80826 47.1994 160.141
51 2 7.9372 47.2488 160.106
52 2 11.9619 47.1247 160.151
53 2 16.003 51.2354 0.814954
54 2 4.03716 51.2576 160.108
55 2 8.06675 51.2399 160.09
56 2 12.044 51.157 0.879878
57 2 15.8363 55.2988 0.987264
58 2 4.02629 55.2086 0.696507
59 2 8.01397 55.4176 1.07954
60 2 11.8331 55.1331 0.912529
61 2 0.0818223 59.1843 1.17503
62 2 3.99731 59.3489 1.05241
63 2 8.06909 59.1827 0.929305
64 2 11.8396 59.2995 1.00588
65 2 -0.0160145 63.304 0.985386
66 2 4.02105 63.4065 1.16874
67 2 7.83653 63.2651 1.00887
68 2 11.7872 63.3849 0.969211
69 2 15.9069 67.4555 1.01293
70 2 4.08864 67.3156 1.15566
71 2 7.91461 67.4424 1.29594
72 2 11.903 67.2811 1.13323
73 2 -0.158094 71.3279 1.04049
74 2 4.04012 71.5438 1.26507
75 2 7.93395 71.4332 1.3495
76 2 11.8419 71.3787 1.13416
77 2 -0.188236 75.2508 1.2295
78 2 3.99925 75.5018 1.40236
79 2 7.79848 75.3445 1.05531
80 2 11.719 75.2614 1.1692
81 2 -0.0734935 79.5068 1.47623
82 2 4.13314 79.3573 1.33157
83 2 7.92397 79.4885 1.54744
84 2 11.8867 79.2673 1.39321
85 2 -0.185231 83.294 1.60933
86 2 3.84542 83.6001 1.38067
87 2 7.79709 83.3897 1.47171
88 2 11.7512 83.494 1.43638
89 2 0.0404609 87.2447 1.56031
90 2 3.86202 87.4478 1.48697
91 2 7.88883 87.6054 1.49308
92 2 11.8465 87.4958 1.49181
93 2 15.7917 91.4418 1.65847
94 2 3.70651 91.618 1.41209
95 2 7.89382 91.4985 1.47369
96 2 11.9561 91.4022 1.57509
97 2 15.8011 95.3999 1.64607
98 2 3.97615 95.3571 1.57915
99 2 7.91745 95.2339 1.56956
100 2 11.6374 95.3339 1.44107
101 2 15.8359 99.2274 1.53036
102 2 3.92964 99.4375 1.44456
103 2 7.68347 99.2183 1.40758
104 2 11.7584 99.1792 1.47641
105 2 -0.0783056 103.071 1.32936
106 2 3.89695 103.333 1.16987
107 2 7.91555 103.243 1.25331
108 2 11.9336 102.996 1.26098
109 2 15.7891 107.222 1.16927
110 2 3.91882 107.126 1.47087
111 2 7.97328 107.082 1.35691
112 2 12.1047 107.1 1.4184
113 2 15.978 111.086 1.19686
114 2 4.04125 111.006 1.36711
115 2 7.90427 111.167 1.21887
116 2 11.8601 110.982 1.20705
117 2 15.8141 114.999 1.2568
118 2 3.9766 115.029 1.28362
119 2 8.07512 115.089 1.1418
120 2 11.941 114.998 1.15832
121 2 -0.104101 118.836 1.24634
122 2 3.94384 118.927 1.30492
123 2 7.97386 118.721 1.04827
124 2 11.9903 118.747 1.19793
125 2 -0.243306 122.793 1.09667
126 2 3.91023 122.814 1.03979
127 2 7.87488 122.808 1.03714
128 2 11.9862 122.882 1.18213
129 2 -0.252738 126.729 1.01676
130 2 3.73939 126.65 0.945696
131 2 7.63789 126.682 0.988406
132 2 11.7471 126.793 0.991133
133 2 -0.253147 130.688 0.969807
134 2 3.75995 130.699 1.09875
135 2 7.7378 130.342 0.797601
136 2 11.7142 130.763 1.06094
137 2 15.7211 134.565 0.916763
138 2 3.83985 134.453 160.308
139 2 7.73749 134.5 1.05159
140 2 11.7472 134.609 0.99668
141 2 15.5927 138.522 0.863265
142 2 3.91024 138.411 0.822553
143 2 7.71917 138.425 0.867192
144 2 11.8589 138.362 0.773199
145 2 -0.132177 142.32 0.825398
146 2 4.06407 142.302 0.741617
147 2 7.83829 142.398 0.894797
148 2 11.7756 142.362 0.894566
149 2 -0.030296 146.232 0.548545
150 2 3.79487 146.094 159.93
151 2 7.71282 146.199 0.78512
152 2 11.6729 146.299 160.168
153 2 -0.0985177 150.294 160.1
154 2 3.75121 150.223 160.105
155 2 7.78292 150.074 0.745088
156 2 11.7107 149.992 0.875395
157 2 -0.0683876 154.155 160.045
158 2 3.95841 154.186 160.016
159 2 7.75181 154.029 160.026
160 2 11.7889 154.169 160.152
161 2 -0.0274066 157.932 4.8963
162 2 3.75649 -0.436242 4.65815
163 2 7.75546 157.984 4.75547
164 2 11.986 157.929 4.93318
165 2 -0.157021 3.68333 4.73912
166 2 3.83352 3.56232 4.76008
167 2 7.90191 3.49788 4.84641
168 2 11.8629 3.41666 4.56891
169 2 -0.0186511 7.60095 4.7587
170 2 4.08788 7.39307 4.69701
171 2 7.8981 7.40539 4.79821
172 2 11.7663 7.509 4.73959
173 2 -0.00141777 11.3377 4.59251
174 2 3.84441 11.429 4.51868
175 2 7.95187 11.5201 4.48388
176 2 11.9012 11.165 4.63751
177 2 -0.27305 15.2642 4.70556
178 2 3.93984 15.299 4.516
179 2 8.06441 15.3846 4.72575
180 2 12.0204 15.2355 4.52448
181 2 -0.00308605 19.371 4.5595
182 2 4.07101 19.0476 4.48067
183 2 7.83652 19.0706 4.39807
184 2 11.9197 19.1556 4.52187
185 2 0.0276713 23.1152 4.42244
186 2 4.24846 23.0609 4.39339
187 2 7.86337 23.0436 4.35825
188 2 11.7859 22.9058 4.26108
189 2 0.15268 27.1251 4.39894
190 2 3.89401 27.0159 4.51623
191 2 7.9654 27.0209 4.54276
192 2 12.0502 26.8758 4.42218
193 2 -0.0324084 31 4.51351
194 2 4.09418 31.1671 4.49068
195 2 8.00896 30.9771 4.32878
196 2 11.8933 30.9904 4.39412
197 2 15.7321 35.019 4.68091
198 2 3.81155 35.0985 4.62665
199 2 7.78034 35.1243 4.54476
200 2 11.7013 34.9845 4.39215
201 2 -0.143197 39.024 4.47569
202 2 3.94531 39.1742 4.62342
203 2 7.89215 38.9442 4.4385
204 2 11.9071 39.0616 4.59738
205 2 15.7053 43.0363 4.55139
206 2 4.05576 43.18 4.488
207 2 8.02548 43.0073 4.56071
208 2 11.8985 43.017 4.69219
209 2 15.9791 47.247 4.85546
210 2 4.16015 47.1874 4.69198
211 2 7.98891 47.2009 4.6611
212 2 12.0037 47.0964 4.7833
213 2 15.8739 51.1062 4.82364
214 2 3.996 51.0794 4.55599
215 2 7.99602 51.2013 4.76723
216 2 11.9976 51.1961 4.72836
217 2 0.0146898 55.1464 4.74494
218 2 3.82469 55.1663 4.80922
219 2 7.80008 55.1374 4.90247
220 2 11.7429 55.0856 4.78334
221 2 15.7212 59.055 4.87711
222 2 3.81812 59.244 4.85986
223 2 7.9273 59.1823 4.8926
224 2 11.8437 59.2795 4.82254
225 2 15.8172 63.0835 4.86018
226 2 3.82591 63.0389 5.03598
227 2 8.00716 63.1487 4.95445
228 2 11.9765 63.3049 4.67606
229 2 0.0229579 67.0385 5.07603
230 2 3.75357 67.1896 5.0759
231 2 7.96794 67.268 5.20343
232 2 11.95 67.2533 5.02331
233 2 -0.0591047 71.3074 5.0386
234 2 3.9052 71.4423 5.04027
235 2 7.72904 71.3589 5.18269
236 2 11.922 71.248 5.14432
237 2 15.8369 75.3679 4.99787
238 2 3.71704 75.3529 5.23909
239 2 7.84999 75.4067 5.13862
240 2 11.7724 75.5655 5.02153
241 2 -0.189284 79.3603 5.27725
242 2 4.12633 79.659 5.20072
243 2 7.7921 79.7162 5.36478
244 2 11.8569 79.3523 5.30528
245 2 -0.134998 83.4663 5.35118
246 2 3.88239 83.3933 5.42369
247 2 7.86422 83.4528 5.44556
248 2 11.73 83.4694 5.47893
249 2 0.0551046 87.4207 5.57188
250 2 3.78983 87.4122 5.32871
251 2 7.78617 87.3723 5.19205
252 2 11.7267 87.5375 5.45285
253 2 -0.0840092 91.476 5.61994
254 2 3.95452 91.4768 5.37387
255 2 7.87565 91.4174 5.55535
256 2 11.7731 91.5435 5.62535
257 2 15.6647 95.6272 5.50648
258 2 4.09411 95.3833 5.42418
259 2 7.91088 95.3084 5.79399
260 2 11.8514 95.4756 5.47687
261 2 -0.00660084 99.3776 5.66465
262 2 3.99218 99.5127 5.44854
263 2 7.92099 99.3405 5.68075
264 2 11.7303 99.503 5.35919
265 2 0.12087 103.247 5.61506
266 2 3.98616 103.295 5.30964
267 2 7.97002 103.139 5.40814
268 2 11.9259 103.401 5.19368
269 2 0.242195 107.188 5.43311
270 2 4.0112 107.078 5.41654
271 2 8.09859 106.985 5.35469
272 2 12.1048 107.176 5.312
273 2 15.6937 111.151 5.05326
274 2 3.96689 111.249 5.33796
275 2 7.97644 111.08 5.39425
276 2 11.8405 110.968 5.28251
277 2 15.8213 114.989 5.36524
278 2 4.02405 115.047 5.1083
279 2 8.0759 115.059 5.14682
280 2 11.9347 114.711 5.14416
281 2 15.9453 119.007 5.20189
282 2 4.00633 118.834 5.12979
283 2 7.94834 119.038 5.24881
284 2 11.6898 119.066 5.1265
285 2 -0.135093 122.82 5.14464
286 2 3.83943 122.807 4.99147
287 2 7.76105 122.972 5.08998
288 2 11.7063 122.891 5.1029
289 2 0.0196188 126.744 5.18758
290 2 3.75562 126.649 4.91962
291 2 7.71211 126.891 4.99459
292 2 11.7238 126.781 5.11608
293 2 0.0430996 130.526 4.88607
294 2 4.1452 130.576 4.97015
295 2 7.82255 130.754 5.19028
296 2 11.8307 130.698 5.00481
297 2 15.7498 134.486 4.95814
298 2 4.02114 134.462 5.00264
299 2 7.98804 134.671 4.78155
300 2 11.8658 134.468 4.87595
301 2 -0.115885 138.471 4.86342
302 2 3.7377 138.303 4.8821
303 2 7.76588 138.484 4.95322
304 2 11.9169 138.621 4.7826
305 2 -0.0568401 142.306 4.98381
306 2 3.67546 142.508 4.631
307 2 7.85933 142.286 4.92619
308 2 11.7652 142.418 4.77021
309 2 -0.0683612 146.28 4.8175
310 2 3.71011 146.333 4.82251
311 2 7.86335 146.384 4.85909
312 2 11.7308 146.486 4.85589
313 2 15.9451 150.254 4.76403
314 2 4.05506 150.179 4.76722
315 2 7.87561 150.156 4.7388
316 2 11.9246 150.18 4.65987
317 2 -0.0151378 154.021 4.75377
318 2 3.90069 154.077 4.71454
319 2 7.87587 154.132 4.69537
320 2 11.8339 154.075 4.87352
321 2 -0.152519 158.171 8.89811
322 2 3.92222 158.067 8.87479
323 2 7.76725 158.025 8.70041
324 2 11.6905 158 8.69313
325 2 15.7706 3.64583 8.57974
326 2 3.93512 3.57238 8.73984
327 2 7.87946 3.42389 8.77846
328 2 11.8828 3.63251 8.72552
329 2 -0.108473 7.48713 8.79387
330 2 3.9004 7.55337 8.70074
331 2 7.84249 7.50994 8.65707
332 2 11.8739 7.46547 8.75625
333 2 0.00705187 11.2616 8.70678
334 2 3.95746 11.4287 8.6626
335 2 7.81992 11.6382 8.38114
336 2 11.8413 11.2353 8.66873
337 2 0.0298777 15.3334 8.74466
338 2 4.05604 15.2672 8.61087
339 2 7.89492 15.2442 8.55527
340 2 11.9317 15.3921 8.52301
341 2 0.074397 19.1666 8.413
342 2 3.81728 19.0736 8.60604
343 2 7.86913 19.1495 8.43884
344 2 11.9151 19.2456 8.52417
345 2 -0.110344 23.2718 8.43618
346 2 3.86094 23.0634 8.49688
347 2 7.82774 23.0271 8.6039
348 2 11.6162 23.2207 8.33459
349 2 15.7995 26.9778 8.26946
350 2 3.87592 26.9059 8.43302
351 2 7.8006 27.0066 8.50531
352 2 11.8365 27.0475 8.45034
353 2 0.119397 30.9493 8.23733
354 2 4.00704 31.1382 8.36061
355 2 7.75631 30.959 8.24891
356 2 11.9342 31.0153 8.063
357 2 15.7639 34.867 8.5461
358 2 3.80687 35.0174 8.56868
359 2 7.70421 35.0316 8.41987
360 2 11.7539 34.9133 8.36248
361 2 15.7253 39.0395 8.45684
362 2 3.99918 38.9915 8.461
363 2 8.07014 38.8874 8.38739
364 2 11.8818 39.0963 8.60073
365 2 15.8699 43.2146 8.38901
366 2 3.8415 43.0573 8.70275
367 2 7.85573 43.0869 8.64464
368 2 11.8433 43.035 8.57484
369 2 15.8389 47.1465 8.63529
370 2 4.13818 47.0735 8.54967
371 2 7.91442 46.9789 8.70557
372 2 11.7368 47.0285 8.57687
373 2 0.0315073 51.3646 8.63957
374 2 3.92977 51.0781 8.75826
375 2 7.83036 51.216 8.61611
376 2 11.7518 51.098 8.81422
377 2 -0.0782935 55.0544 8.75598
378 2 4.20673 55.3222 8.74612
379 2 7.86988 55.0044 8.83257
380 2 11.8263 55.2044 8.73339
381 2 15.8754 58.9605 8.72987
382 2 3.86315 59.2334 8.80625
383 2 7.91701 59.1014 8.67568
384 2 11.8334 59.1148 8.75292
385 2 15.5773 63.1266 8.98545
386 2 3.89004 63.1417 9.12109
387 2 8.07773 63.1394 8.76979
388 2 11.9081 63.2173 8.72175
389 2 0.000118833 67.1769 9.01978
390 2 3.88712 67.1653 8.89374
391 2 7.73993 67.2427 8.83331
392 2 11.8638 67.3149 8.89867
393 2 15.7446 71.2531 8.95935
394 2 3.96708 71.276 9.18036
395 2 7.95268 71.3048 8.99347
396 2 11.7658 71.1714 8.94716
397 2 -0.100435 75.488 9.07929
398 2 3.8633 75.3381 9.09375
399 2 7.91241 75.3342 9.13961
400 2 11.7346 75.2528 9.13164
401 2 15.7574 79.3686 9.06244
402 2 3.76175 79.232 9.19016
403 2 7.92441 79.3924 9.32301
404 2 11.8332 79.3045 9.31301
405 2 15.7526 83.2866 9.10599
406 2 3.83464 83.4171 9.3153
407 2 7.78282 83.4675 9.28345
408 2 11.981 83.1667 9.21751
409 2 -0.079633 87.3568 9.33283
410 2 3.83782 87.4904 9.23782
411 2 7.79696 87.2998 9.14799
412 2 11.7694 87.3424 9.28946
413 2 -0.137218 91.352 9.47777
414 2 3.59041 91.5369 9.44676
415 2 7.74749 91.4346 9.54917
416 2 11.7801 91.156 9.36542
417 2 -0.323729 95.4964 9.32001
418 2 3.77072 95.5609 9.56808
419 2 7.84934 95.4029 9.57963
420 2 11.6848 95.4362 9.64546
421 2 -0.1528 99.309 9.55993
422 2 3.69892 99.4856 9.60857
423 2 7.73173 99.3139 9.56515
424 2 11.8825 99.3907 9.56132
425 2 0.0126199 103.282 9.45986
426 2 4.05627 103.181 9.645
427 2 7.90664 103.229 9.41678
428 2 12.026 103.269 9.34465
429 2 -0.0965615 107.199 9.3297
430 2 3.99034 107.251 9.48868
431 2 7.87264 107.151 9.40044
432 2 11.8199 107.182 9.34462
433 2 0.0797115 111.164 9.42677
434 2 3.98944 111.193 9.26931
435 2 7.88502 111.019 9.2818
436 2 11.9253 111.012 9.26584
437 2 16.0535 115.038 9.18987
438 2 4.07875 115.252 9.29017
439 2 8.06482 115.183 9.11087
440 2 11.8769 115.152 9.24988
441 2 -0.0367585 119.027 9.19896
442 2 3.97032 118.753 9.29957
443 2 7.95255 119.172 8.92986
444 2 11.8659 119.111 9.20555
445 2 15.9028 122.997 9.16806
446 2 4.02112 122.69 9.07548
447 2 7.87184 122.897 9.24837
448 2 11.933 122.886 9.05638
449 2 0.104343 126.877 9.2741
450 2 3.84717 126.727 9.26207
451 2 7.83536 126.865 9.06108
452 2 11.699 126.696 9.07159
453 2 15.8444 130.657 9.03892
454 2 3.96397 130.713 9.09433
455 2 7.94663 130.82 9.17641
456 2 11.8931 130.685 8.87669
457 2 15.8998 134.546 9.04885
458 2 3.99704 134.648 8.97295
459 2 8.01637 134.795 8.90262
460 2 11.8645 134.755 8.85024
461 2 -0.0815895 138.502 8.99029
462 2 4.0553 138.543 8.81554
463 2 7.85421 138.629 8.79812
464 2 11.9635 138.567 8.91911
465 2 0.00755678 142.164 8.93951
466 2 3.80111 142.4 8.77967
467 2 8.00551 142.386 8.90677
468 2 11.7414 142.55 8.9182
469 2 15.8261 146.19 8.8294
470 2 3.84689 146.261 8.73691
471 2 7.57426 146.322 8.92016
472 2 11.8518 146.337 8.74634
473 2 0.19781 150.255 8.92407
474 2 3.94 150.12 8.75861
475 2 7.9142 150.326 8.77568
476 2 11.9578 150.223 8.78669
477 2 0.146506 154.084 8.82512
478 2 3.97787 154.195 8.7962
479 2 7.92259 154.149 8.85671
480 2 11.921 154.054 8.68409
481 2 15.7421 157.964 12.8205
482 2 4.01116 157.819 12.8917
483 2 7.95652 158.088 12.8138
484 2 12.0076 158.127 12.8379
485 2 -0.0654581 3.65851 12.5765
486 2 3.81351 3.56866 12.7521
487 2 7.9417 3.44584 12.7866
488 2 11.7998 3.69009 12.9132
489 2 15.7583 7.53348 12.7458
490 2 4.00528 7.31794 12.7652
491 2 7.95311 7.20127 12.6677
492 2 11.7578 7.62633 12.7535
493 2 15.778 11.2477 12.592
494 2 3.92671 11.25 12.6444
495 2 8.06731 11.3996 12.5607
496 2 11.7372 11.4555 12.6892
497 2 15.7053 15.1357 12.5688
498 2 3.87522 15.3222 12.5932
499 2 8.04677 15.1526 12.4009
500 2 11.8392 15.2352 12.5375
501 2 15.649 19.3916 12.4511
502 2 4.08834 19.1762 12.54
503 2 7.9381 19.2172 12.6284
504 2 11.8406 19.1513 12.6607
505 2 15.7592 23.0805 12.5115
506 2 3.75675 23.124 12.4562
507 2 7.78482 23.035 12.4359
508 2 11.664 23.18 12.5559
509 2 -0.274753 27.3169 12.5854
510 2 3.84174 27.0132 12.3751
511 2 8.11352 27.2147 12.467
512 2 12.0249 27.0255 12.2556
513 2 15.7976 30.9108 12.1363
514 2 3.82445 30.933 12.3187
515 2 7.77257 30.9306 12.3225
516 2 11.7814 31.0628 12.1793
517 2 -0.0405239 34.7742 12.5013
518 2 3.72672 34.9761 12.4402
519 2 7.89269 34.8774 12.4844
520 2 11.5896 34.88 12.3319
521 2 -0.0586692 38.8003 12.332
522 2 3.92794 38.9047 12.3378
523 2 7.81525 38.8245 12.4078
524 2 11.8375 38.9893 12.5792
525 2 -0.022007 42.9661 12.4843
526 2 3.86137 42.7704 12.4805
527 2 7.95773 42.9303 12.4475
528 2 11.8024 42.8571 12.4802
529 2 -0.104933 47.1085 12.4687
530 2 3.90601 47.0065 12.5313
531 2 7.89885 47.1386 12.6369
532 2 11.7215 46.9594 12.4908
533 2 15.8231 51.0713 12.465
534 2 3.87097 50.9494 12.7851
535 2 7.93341 51.1977 12.6746
536 2 12.0239 50.9285 12.5078
537 2 0.116079 54.8991 12.5775
538 2 4.02505 54.9103 12.7386
539 2 7.79087 54.9981 12.5948
540 2 11.8686 55.1407 12.6209
541 2 15.6025 59.1185 12.624
542 2 3.88871 59.2719 12.7679
543 2 8.0292 59.1195 12.6711
544 2 11.9352 59.1849 12.6699
545 2 15.6927 63.12 12.9079
546 2 4.08968 63.0636 12.8564
547 2 7.98145 63.0901 12.7663
548 2 12.0065 63.0552 12.8477
549 2 0.106196 67.2579 12.8517
550 2 4.13802 67.1434 12.9708
551 2 7.97663 67.1485 12.9634
552 2 11.9253 67.2123 12.931
553 2 0.00738943 71.1799 13.0503
554 2 3.87899 71.2162 12.8784
555 2 7.88016 71.1859 12.8797
556 2 12.009 71.0237 12.8967
557 2 -0.114145 75.2613 12.8866
558 2 4.02939 75.2596 12.8862
559 2 7.88281 75.2493 13.2385
560 2 11.7611 75.1367 12.8387
561 2 15.8819 79.2654 13.2137
562 2 3.78784 79.1306 13.1933
563 2 7.8673 79.3693 13.174
564 2 11.8552 79.3297 12.9929
565 2 -0.124356 83.3487 13.1583
566 2 3.90908 83.3035 13.0963
567 2 7.82594 83.3747 13.1515
568 2 11.7579 83.3058 13.2929
569 2 15.8307 87.2788 13.3858
570 2 3.89263 87.2964 13.108
571 2 7.7166 87.3328 13.1694
572 2 11.7554 87.4121 13.4187
573 2 -0.196431 91.3745 13.4035
574 2 3.75815 91.4648 13.2235
575 2 7.67906 91.2777 13.342
576 2 11.5643 91.1249 13.3192
577 2 -0.185807 95.3939 13.5185
578 2 3.76812 95.2357 13.5059
579 2 7.61963 95.183 13.3963
580 2 11.8135 95.3471 13.381
581 2 -0.0145325 99.3724 13.635
582 2 3.86088 99.2327 13.5561
583 2 7.84048 99.4484 13.4978
584 2 11.9184 99.383 13.4764
585 2 15.8645 103.343 13.4704
586 2 4.26346 103.247 13.5287
587 2 8.04571 103.349 13.3762
588 2 11.8042 103.165 13.4582
589 2 15.9057 107.323 13.3349
590 2 3.91743 107.037 13.4242
591 2 8.02076 107.331 13.4294
592 2 11.9197 107.174 13.4349
593 2 0.0618601 111.116 13.2373
594 2 4.01433 111.268 13.4122
595 2 7.93815 111.309 13.2044
596 2 11.8204 111.006 13.1973
597 2 0.0178117 115.102 13.3135
598 2 3.97038 115.051 13.3489
599 2 7.79924 115.094 13.074
600 2 12.0817 115.036 13.3525
601 2 15.8865 118.93 13.1783
602 2 4.04473 119.151 13.3996
603 2 7.9903 118.985 13.1061
604 2 11.9246 119.027 13.1216
605 2 15.8939 122.933 13.0162
606 2 4.03076 123.051 13.2416
607 2 7.86639 122.853 13.0873
608 2 11.8305 122.871 13.2605
609 2 -0.0948737 126.984 13.1555
610 2 3.90132 126.832 13.1059
611 2 7.78259 126.827 12.9187
612 2 11.9377 126.931 13.2193
613 2 15.9232 130.794 13.0799
614 2 3.97413 130.923 13.0669
615 2 7.91796 130.664 12.9127
616 2 11.7908 130.806 13.0562
617 2 0.113811 134.615 13.0733
618 2 3.95709 134.637 13.03
619 2 7.81826 134.599 12.7875
620 2 11.9756 134.783 12.9919
621 2 0.163337 138.639 13.0137
622 2 3.92555 138.624 13.0951
623 2 7.8881 138.738 12.9669
624 2 11.9896 138.52 13.0402
625 2 15.8211 142.513 12.8706
626 2 3.9163 142.507 12.9819
627 2 7.77019 142.543 12.9614
628 2 11.6972 142.548 12.9329
629 2 15.5839 146.358 12.7901
630 2 3.82672 146.207 13.0205
631 2 7.89177 146.221 12.8164
632 2 11.7058 146.346 13.1001
633 2 0.0308772 150.275 12.9545
634 2 3.94512 150.236 13.0259
635 2 7.88221 150.153 12.8326
636 2 11.7884 150.464 12.5348
637 2 -0.289025 154.063 12.7664
638 2 3.92101 153.921 12.9111
639 2 7.80534 154.269 12.8282
640 2 11.6036 154.236 12.8729
641 2 -0.171983 158.317 16.7411
642 2 3.9646 158.056 16.9632
643 2 7.86835 158.16 16.8963
644 2 11.9827 158.008 16.7815
645 2 16.1448 3.69017 16.742
646 2 3.99741 3.63223 16.9066
647 2 7.77612 3.64634 16.9921
648 2 11.7285 3.57408 16.6817
649 2 15.9114 7.59212 16.8083
650 2 3.96494 7.62868 16.8732
651 2 7.87716 7.4257 16.7482
652 2 11.9547 7.66642 16.848
653 2 0.145121 11.3962 16.6952
654 2 4.18329 11.4286 16.6376
655 2 7.88726 11.4907 16.5875
656 2 11.7787 11.4726 16.7028
657 2 0.10275 15.398 16.5397
658 2 3.84929 15.487 16.607
659 2 7.70691 15.2851 16.4343
660 2 11.8537 15.291 16.5872
661 2 15.6644 19.3162 16.4929
662 2 3.91722 19.2135 16.4998
663 2 7.88805 19.2224 16.5339
664 2 11.7634 19.3381 16.6654
665 2 -0.111352 23.2289 16.6061
666 2 3.7951 23.1752 16.4427
667 2 8.03284 23.3418 16.3781
668 2 11.9103 23.1808 16.524
669 2 15.8166 27.0741 16.3981
670 2 3.84568 26.9106 16.2081
671 2 7.84522 27.2151 16.4115
672 2 11.7851 27.1305 16.3744
673 2 15.7633 30.8497 16.3983
674 2 4.08997 30.936 16.2349
675 2 7.782 31.0856 16.4745
676 2 11.9296 30.9881 16.5037
677 2 15.8761 34.6726 16.4148
678 2 4.00521 34.8583 16.3159
679 2 7.89002 34.8363 16.4142
680 2 11.9191 34.8155 16.3593
681 2 15.7475 38.8382 16.4691
682 2 3.91779 38.8155 16.4896
683 2 7.95178 38.9279 16.2559
684 2 11.7404 38.8542 16.4144
685 2 -0.0991866 42.7202 16.433
686 2 3.60323 43.0354 16.3104
687 2 7.91065 43.057 16.2709
688 2 11.7237 42.7142 16.4219
689 2 15.9462 46.8875 16.5192
690 2 3.80376 46.9195 16.4465
691 2 7.84749 47.0255 16.3612
692 2 11.7227 46.7735 16.5362
693 2 15.8585 50.8691 16.4789
694 2 3.94698 50.7555 16.563
695 2 7.95161 50.9098 16.5112
696 2 11.9723 50.8158 16.4895
697 2 15.7753 54.8476 16.5284
698 2 3.90167 55.0686 16.6135
699 2 7.94324 54.7417 16.5683
700 2 11.8794 54.9356 16.5663
701 2 15.6877 58.907 16.6033
702 2 3.87503 59.0679 16.5524
703 2 7.85915 58.9202 16.6099
704 2 11.8575 58.9639 16.6405
705 2 15.6221 63.0509 16.7928
706 2 3.94589 62.9685 16.7001
707 2 7.95165 63.0074 16.5578
708 2 11.842 63.2192 16.6938
709 2 0.0503706 66.9994 16.6571
710 2 3.88722 67.0955 16.6718
711 2 7.95767 66.9922 16.7655
712 2 11.8601 67.0162 16.8673
713 2 0.041988 71.1393 16.8393
714 2 3.93413 71.0468 16.856
715 2 8.09788 71.2355 17.0105
716 2 12.0416 71.0899 16.8279
717 2 15.596 75.0827 16.858
718 2 3.88561 74.9257 16.9758
719 2 7.88356 75.2257 17.1428
720 2 11.6695 75.2086 16.6953
721 2 0.0510535 79.1647 17.0317
722 2 3.84961 79.244 17.047
723 2 7.7194 79.151 17.16
724 2 11.8408 79.1218 17.0287
725 2 -0.205719 83.2578 16.9335
726 2 3.82158 83.2277 17.0226
727 2 7.87886 83.0227 17.2277
728 2 11.8265 83.215 17.0426
729 2 -0.0851132 87.1353 17.1439
730 2 4.01632 87.1949 17.1269
731 2 7.70861 87.2092 17.2144
732 2 11.6531 87.1431 17.2392
733 2 -0.0741299 91.1924 17.1996
734 2 3.80583 91.3608 17.1884
735 2 7.60872 91.3028 17.2581
736 2 11.5686 91.1425 17.1918
737 2 15.7737 95.2663 17.4406
738 2 3.85791 95.3164 17.3766
739 2 7.84512 95.326 17.1443
740 2 11.7283 95.2335 17.2536
741 2 15.8098 99.1271 17.3968
742 2 3.99239 99.5452 17.2871
743 2 7.95438 99.3725 17.3725
744 2 11.7472 99.3248 17.4204
745 2 15.8309 103.53 17.5874
746 2 3.89857 103.213 17.6204
747 2 7.82769 103.309 17.5803
748 2 11.9455 103.247 17.4384
749 2 15.7349 107.337 17.5362
750 2 3.95078 107.071 17.3598
751 2 7.93731 107.202 17.3877
752 2 11.9826 107.171 17.4405
753 2 0.0539284 111.067 17.3919
754 2 3.96593 111.234 17.2702
755 2 8.06412 111.169 17.2597
756 2 11.7956 111.317 17.3969
757 2 15.7863 115.059 17.3708
758 2 3.93646 115.142 17.5945
759 2 7.99445 115.26 17.0662
760 2 11.8232 115.177 17.2844
761 2 -0.0125442 118.925 17.3636
762 2 3.93876 119.268 17.2554
763 2 7.87318 119.19 17.287
764 2 11.76 118.941 17.1596
765 2 -0.164095 122.922 17.2873
766 2 3.84584 123.21 17.0402
767 2 7.90934 122.972 17.2517
768 2 11.5758 123.087 17.1803
769 2 -0.0882967 126.729 17.1433
770 2 3.94326 126.972 17.048
771 2 7.67771 126.893 17.0153
772 2 11.6822 126.768 17.1611
773 2 15.9295 130.761 17.356
774 2 4.02959 130.794 17.2056
775 2 7.91549 130.773 17.1119
776 2 11.7938 130.666 17.1554
777 2 15.723 134.621 17.059
778 2 4.05558 134.615 16.9891
779 2 7.83785 134.572 16.8609
780 2 11.6902 134.758 16.9301
781 2 15.789 138.473 17.0815
782 2 3.93366 138.697 17.0037
783 2 7.82948 138.479 17.1077
784 2 11.7707 138.665 17.0308
785 2 15.8782 142.479 16.9392
786 2 3.91137 142.462 17.032
787 2 7.82411 142.406 17.0837
788 2 11.8011 142.455 17.0349
789 2 -0.161022 146.479 17.0422
790 2 3.86097 146.466 16.9841
791 2 7.89806 146.521 16.8094
792 2 11.8793 146.342 16.9277
793 2 15.7345 150.274 16.9465
794 2 3.8785 150.371 16.8828
795 2 7.75406 150.322 16.9601
796 2 11.8397 150.138 16.7972
797 2 -0.143456 154.028 16.9103
798 2 3.82839 154.084 16.8607
799 2 7.76296 154.206 16.9208
800 2 11.913 154.384 16.6589
801 2 15.5497 158.233 20.9017
802 2 3.96431 158.143 21.0939
803 2 7.93534 -0.196709 20.9217
804 2 11.8077 158.375 20.8976
805 2 15.8561 3.66593 20.8227
806 2 3.91638 3.72992 21.0438
807 2 7.9193 3.78279 20.6978
808 2 11.9363 3.91054 20.8697
809 2 15.7907 7.47033 20.7575
810 2 3.84358 7.66678 20.9195
811 2 7.88158 7.56226 20.7998
812 2 11.9154 7.61106 20.7174
813 2 -0.0217716 11.5272 20.679
814 2 3.9925 11.5668 20.8373
815 2 7.90185 11.6665 20.7178
816 2 12.0064 11.3973 20.7197
817 2 15.7374 15.4474 20.6471
818 2 3.92302 15.4004 20.5898
819 2 7.8936 15.6014 20.648
820 2 11.8956 15.4911 20.5106
821 2 -0.178198 19.4871 20.6083
822 2 3.91461 19.4946 20.5763
823 2 7.97263 19.4448 20.5833
824 2 11.7973 19.2145 20.6783
825 2 15.8825 23.2377 20.5094
826 2 4.04404 23.2112 20.3841
827 2 8.03302 23.3326 20.5781
828 2 11.8714 23.3274 20.2177
829 2 0.0175546 27.128 20.4656
830 2 3.96348 27.1767 20.5181
831 2 7.90013 27.1167 20.4324
832 2 11.6148 27.0098 20.5792
833 2 15.9445 30.9373 20.2302
834 2 4.20354 31.0303 20.4687
835 2 8.10331 31.0214 20.45
836 2 12.0915 31.0303 20.5542
837 2 -0.0767901 35.1141 20.4253
838 2 3.77878 34.8527 20.2742
839 2 7.95423 35.0771 20.4542
840 2 11.9291 35.011 20.4505
841 2 15.6803 38.8817 20.3175
842 2 3.83303 38.913 20.2601
843 2 7.68789 38.9147 20.1948
844 2 11.6112 38.7784 20.2695
845 2 0.0303536 42.8063 20.5075
846 2 4.09708 42.7596 20.1987
847 2 7.71206 42.8203 20.2958
848 2 11.8753 42.8581 20.3195
849 2 0.0366429 46.7819 20.3939
850 2 3.9981 46.9022 20.2792
851 2 7.80281 46.6807 20.2528
852 2 11.7988 46.866 20.2987
853 2 0.068859 51.0463 20.6239
854 2 3.83532 50.8937 20.4919
855 2 7.99213 50.9009 20.4725
856 2 12.1823 50.8125 20.3274
857 2 15.9751 55.123 20.336
858 2 4.06519 54.8574 20.5062
859 2 7.89505 54.8788 20.3297
860 2 11.9087 54.774 20.6405
861 2 15.8707 59.0511 20.6227
862 2 4.1101 58.9727 20.5085
863 2 7.86038 58.9798 20.5527
864 2 11.8776 58.9168 20.5961
865 2 15.8168 63.1145 20.4304
866 2 3.77934 62.9076 20.4518
867 2 7.83014 62.855 20.5027
868 2 11.76 62.9606 20.6677
869 2 15.9492 67.0535 20.6669
870 2 3.95797 67.1599 20.7286
871 2 7.92851 66.8644 20.6875
872 2 11.9116 66.9187 20.5789
873 2 -0.0510128 71.082 20.914
874 2 3.92427 71.0234 20.7927
875 2 7.99077 71.1583 20.9107
876 2 11.9118 71.0639 20.8027
877 2 15.6869 75.0644 20.7445
878 2 3.85305 75.0452 20.8626
879 2 7.59715 75.2085 20.734
880 2 11.878 74.9496 20.8967
881 2 -0.0986153 79.2044 20.762
882 2 3.80051 79.3951 21.0001
883 2 7.9636 79.0952 20.8219
884 2 11.8265 79.1983 20.7242
885 2 -0.0300185 83.2064 20.9549
886 2 3.97859 83.1295 21.1653
887 2 7.95506 83.1775 20.8962
888 2 11.7464 83.277 20.9456
889 2 15.9111 87.2118 20.9003
890 2 3.97628 87.1973 21.0538
891 2 7.78239 87.1651 20.9979
892 2 11.8187 87.1202 21.0184
893 2 15.675 91.2072 21.0809
894 2 3.98888 91.2176 21.109
895 2 7.92055 91.2274 21.2595
896 2 11.7066 91.1524 20.9633
897 2 -0.127734 95.1532 21.1056
898 2 3.88774 95.2336 21.2373
899 2 8.01204 95.2273 21.1848
900 2 11.7817 95.1816 21.1357
901 2 15.7895 99.212 21.489
902 2 3.82402 99.2296 21.4094
903 2 7.71581 99.2509 21.3656
904 2 11.8416 99.2315 21.4795
905 2 -0.0138453 103.333 21.3962
906 2 4.06074 103.157 21.3746
907 2 7.74437 103.345 21.2939
908 2 11.9415 103.304 21.3421
909 2 15.8318 107.348 21.5287
910 2 3.99678 107.166 21.4623
911 2 7.89728 107.377 21.2587
912 2 11.7991 107.333 21.3889
913 2 15.7776 111.241 21.4713
914 2 4.06512 111.179 21.4138
915 2 7.9133 111.26 21.3704
916 2 11.6549 111.208 21.342
917 2 0.0572377 115.037 21.2635
918 2 4.00958 115.089 21.5183
919 2 8.02365 115.177 21.2314
920 2 11.9034 115.236 21.3658
921 2 15.7804 119.032 21.3301
922 2 3.89099 118.972 21.2137
923 2 7.95049 119.081 21.2198
924 2 11.7682 119.14 21.3406
925 2 15.7298 122.982 21.1775
926 2 3.72691 123.031 21.0761
927 2 7.69368 122.839 21.1458
928 2 11.6619 123.29 21.3636
929 2 0.0033857 126.98 21.0386
930 2 3.80215 126.914 21.0377
931 2 7.88873 126.784 21.1646
932 2 11.8919 127.16 21.3156
933 2 -0.125287 130.712 21.1341
934 2 3.92599 130.913 21.1199
935 2 7.92146 130.73 21.0495
936 2 11.7456 130.83 21.099
937 2 15.7786 134.648 20.9665
938 2 3.89092 134.583 21.025
939 2 7.83869 134.773 21.1425
940 2 11.9404 134.712 21.1912
941 2 0.0169356 138.666 21.1136
942 2 3.799 138.633 20.9457
943 2 7.87162 138.508 21.1441
944 2 11.9167 138.829 21.0799
945 2 15.7767 142.63 20.9366
946 2 3.98828 142.62 21.0252
947 2 7.79451 142.62 21.0781
948 2 11.8893 142.631 20.9528
949 2 15.894 146.383 20.908
950 2 3.87448 146.471 21.1633
951 2 7.73643 146.517 20.9435
952 2 11.9106 146.259 21.0459
953 2 15.8369 150.502 20.8813
954 2 3.96004 150.495 21.0503
955 2 7.94149 150.348 20.9743
956 2 11.7763 150.342 20.9589
957 2 -0.150929 154.201 20.8721
958 2 3.71967 154.421 20.9628
959 2 7.85836 154.329 20.87
960 2 11.8194 154.305 20.9497
961 2 0.0512425 158.108 24.8552
962 2 4.0092 158.491 24.8294
963 2 8.12334 158.039 24.8279
964 2 11.9475 158.178 25.0473
965 2 0.127465 3.86213 25.09
966 2 3.94291 3.76084 25.1044
967 2 8.09491 3.82746 24.8833
968 2 11.9753 3.61037 24.856
969 2 15.7641 7.82243 24.8188
970 2 4.05688 7.73892 24.6227
971 2 8.01819 7.57423 24.6961
972 2 11.7338 7.60808 24.8726
973 2 15.787 11.6663 24.8279
974 2 4.03946 11.5618 24.8795
975 2 7.81354 11.7431 24.7258
976 2 11.8601 11.5924 24.7217
977 2 15.8191 15.6196 24.7765
978 2 3.88413 15.5107 24.583
979 2 7.88406 15.6507 24.7237
980 2 11.7937 15.3589 24.853
981 2 0.0533869 19.3672 24.5541
982 2 4.08457 19.4701 24.4875
983 2 7.93586 19.3176 24.4241
984 2 11.8111 19.4982 24.609
985 2 15.6817 23.2691 24.798
986 2 3.96238 23.161 24.6374
987 2 7.7581 23.3148 24.5811
988 2 11.7465 23.2338 24.6216
989 2 15.9244 27.2154 24.5384
990 2 3.92802 27.2441 24.5643
991 2 7.83517 27.1426 24.5563
992 2 11.9543 27.2124 24.5364
993 2 15.9081 31.2358 24.4269