ITEM: TIMESTEP
24100
ITEM: NUMBER OF ATOMS
32000
ITEM: BOX BOUNDS xy xz yz pp pp pp
0.0000000000000000e+00 1.5832000000000001e+01 0.0000000000000000e+00
0.0000000000000000e+00 1.5831999999999999e+02 0.0000000000000000e+00
8.7769805395909373e-01 1.6009941994603594e+02 0.0000000000000000e+00
ITEM: ATOMS id type x y z
1 2 -0.048415 157.789 159.88
2 2 3.88086 157.876 160.007
3 2 7.95348 157.911 159.971
4 2 11.7732 157.83 159.855
5 2 -0.107138 3.44801 159.786
6 2 4.15345 3.5585 159.911
7 2 7.98742 3.55579 159.987
8 2 11.9746 3.73593 159.91
9 2 15.9153 7.4281 159.88
10 2 3.96188 7.56167 159.875
11 2 7.90969 7.47677 159.776
12 2 11.9774 7.63295 159.745
13 2 -0.210135 11.3164 159.799
14 2 4.01432 11.4653 159.645
15 2 8.00929 11.3956 159.832
16 2 11.8244 11.4887 159.894
17 2 0.0523356 14.9955 159.681
18 2 4.15715 15.2279 159.798
19 2 7.71789 15.242 159.564
20 2 11.8288 15.3164 159.798
21 2 -0.0526256 19.1957 159.75
22 2 4.2196 19.3234 159.514
23 2 7.93332 19.1624 159.954
24 2 11.8254 19.1714 159.574
25 2 0.109915 23.0737 159.733
26 2 3.96327 22.9113 159.528
27 2 8.17868 23.1394 159.735
28 2 12.1399 23.09 159.541
29 2 0.0997541 26.9745 159.73
30 2 4.09191 27.1674 159.804
31 2 7.87442 26.9277 159.75
32 2 11.874 27.2366 159.872
33 2 15.687 31.1948 159.911
34 2 3.87279 31.0925 159.706
35 2 7.96383 31.2306 159.809
36 2 11.7324 30.8799 159.886
37 2 15.8835 35.317 159.796
38 2 3.82781 35.1139 159.77
39 2 7.93601 35.2797 160.082
40 2 11.8856 35.0981 159.861
41 2 -0.114752 39.0581 160.055
42 2 3.97036 39.2085 159.796
43 2 7.86787 39.0095 159.864
44 2 11.7638 39.1937 159.82
45 2 15.8469 43.1781 160.063
46 2 3.9521 43.179 0.731254
47 2 7.70226 43.1419 160.027
48 2 11.7124 43.0832 159.941
49 2 15.9007 47.4365 159.918
50 2 4.11792 47.2701 160.044
51 2 7.91205 47.2324 160.015
52 2 11.9562 47.1424 160.045
53 2 15.806 51.1858 0.926183
54 2 3.91815 51.1719 160.074
55 2 7.8342 51.1485 160.106
56 2 11.8872 51.4679 0.993104
57 2 15.8623 55.2925 0.908149
58 2 3.96987 55.1566 1.11403
59 2 7.92109 55.2953 0.943146
60 2 11.8144 55.4534 1.15022
61 2 -0.00448445 59.2202 1.16112
62 2 3.786 59.3925 1.04341
63 2 7.80251 59.3586 0.995702
64 2 11.9671 59.2139 1.20803
65 2 0.0411152 63.3006 1.2268
66 2 3.98218 63.3321 0.960663
67 2 8.00787 63.2031 1.23587
68 2 11.8857 63.2911 1.33329
69 2 15.7295 67.3448 1.26476
70 2 3.76658 67.1556 1.05529
71 2 7.81444 67.3319 0.988088
72 2 11.9274 67.1243 1.10471
73 2 -0.0644396 71.4565 1.12959
74 2 3.84605 71.4767 1.11329
75 2 7.68128 71.548 1.06672
76 2 11.9289 71.4432 1.15914
77 2 -0.114279 75.3841 1.31664
78 2 3.83757 75.344 1.3191
79 2 7.82965 75.4237 1.22509
80 2 11.8964 75.5013 1.44152
81 2 -0.268096 79.4585 1.28889
82 2 3.56277 79.4793 1.37232
83 2 7.66459 79.491 1.16757
84 2 11.5725 79.6579 1.1695
85 2 -0.156721 83.5264 1.36722
86 2 3.80288 83.6103 1.48759
87 2 7.65563 83.4784 1.46641
88 2 11.7962 83.4486 1.43557
89 2 0.0240187 87.7016 1.34903
90 2 3.8375 87.373 1.58088
91 2 7.80331 87.2866 1.55191
92 2 11.7826 87.6361 1.45204
93 2 15.8888 91.4893 1.45311
94 2 3.90564 91.4406 1.63856
95 2 7.87451 91.5065 1.60262
96 2 11.725 91.3722 1.48066
97 2 15.6915 95.3114 1.3749
98 2 3.83399 95.4411 1.38537
99 2 7.92609 95.4711 1.33606
100 2 11.9653 95.5826 1.52745
101 2 15.8579 99.4431 1.41108
102 2 3.924 99.1952 1.40116
103 2 8.07134 99.4108 1.4723
104 2 11.9781 99.3302 1.35702
105 2 0.00482561 103.23 1.53081
106 2 4.15551 103.152 1.27616
107 2 7.85247 103.127 1.49575
108 2 11.8218 103.332 1.35531
109 2 15.8154 107.039 1.35556
110 2 3.96779 107.063 1.28414
111 2 7.80178 106.874 1.2488
112 2 11.9435 107.199 1.34408
113 2 15.8582 110.931 1.34122
114 2 3.95083 110.767 1.26233
115 2 8.09898 111.041 1.29739
116 2 11.909 111.007 1.42978
117 2 15.9002 114.905 1.27609
118 2 4.0148 114.812 1.35078
119 2 8.00289 114.911 1.33478
120 2 11.9089 115.029 1.34053
121 2 -0.0423555 118.862 1.30727
122 2 3.93893 118.797 1.19961
123 2 7.76225 118.81 1.18411
124 2 11.7144 118.881 1.08866
125 2 0.0157217 122.713 1.22063
126 2 3.69349 122.923 1.16432
127 2 7.72376 122.775 1.24338
128 2 11.8912 122.704 1.01821
129 2 -0.00374581 126.581 1.28844
130 2 3.91434 126.688 1.0943
131 2 7.71905 126.665 1.25298
132 2 11.8019 126.555 1.22825
133 2 0.148611 130.57 1.1127
134 2 3.85232 130.559 1.06773
135 2 7.91164 130.656 1.13807
136 2 11.9185 130.471 0.957349
137 2 15.7945 134.615 0.969424
138 2 3.91131 134.539 159.978
139 2 7.79683 134.619 1.07823
140 2 12.0154 134.373 1.0015
141 2 15.7094 138.437 0.877451
142 2 3.99764 138.402 1.09913
143 2 7.87726 138.352 0.942661
144 2 11.872 138.319 1.00255
145 2 0.0491526 142.216 0.859037
146 2 3.94324 142.53 0.889264
147 2 7.97606 142.476 0.89165
148 2 11.8186 142.254 1.01606
149 2 -0.025716 146.058 0.726817
150 2 3.99742 146.197 159.962
151 2 8.01115 146.319 0.870072
152 2 11.8223 146.349 159.982
153 2 -0.0872804 150.059 159.943
154 2 3.88929 150.037 160.078
155 2 7.81111 150.142 0.823374
156 2 11.8147 150.127 0.818178
157 2 -0.113921 153.919 160.074
158 2 3.94618 153.842 159.974
159 2 7.8079 153.89 160.11
160 2 11.7605 153.997 159.901
161 2 -0.240443 157.908 4.63546
162 2 3.90199 -0.326698 4.68092
163 2 7.95586 157.929 4.65531
164 2 11.6725 158.068 4.60425
165 2 0.0108756 3.42184 4.56023
166 2 3.92459 3.51304 4.68209
167 2 7.93393 3.67307 4.5871
168 2 11.7999 3.71107 4.89165
169 2 0.16654 7.47697 4.48971
170 2 3.88884 7.47874 4.79279
171 2 7.97459 7.48585 4.55174
172 2 11.9724 7.4283 4.64122
173 2 -0.13619 11.4421 4.64303
174 2 3.94729 11.5025 4.69928
175 2 7.86187 11.2423 4.73581
176 2 11.8058 11.499 4.726
177 2 0.0542966 15.4561 4.35599
178 2 4.0486 15.3025 4.62747
179 2 7.90405 15.2879 4.51182
180 2 11.7986 15.3751 4.34846
181 2 -0.00547337 18.8959 4.37745
182 2 4.06222 19.3058 4.61298
183 2 8.00493 19.2396 4.50935
184 2 11.8509 19.101 4.56414
185 2 0.0327346 22.9991 4.46439
186 2 3.84661 23.1554 4.43184
187 2 7.78657 23.0533 4.37896
188 2 12.0151 23.0432 4.57229
189 2 -0.206002 27.0464 4.52915
190 2 3.94828 26.9539 4.37533
191 2 7.88791 27.1723 4.42798
192 2 11.7357 27.1743 4.5026
193 2 -0.132712 31.1005 4.5591
194 2 3.85392 30.8335 4.56021
195 2 7.72065 31.005 4.36489
196 2 11.8167 30.9451 4.55051
197 2 15.9676 34.9412 4.46327
198 2 3.91675 34.9497 4.44555
199 2 7.91503 34.9306 4.65432
200 2 11.901 34.9914 4.71285
201 2 -0.153892 39.0334 4.48406
202 2 3.88382 39.1109 4.61489
203 2 7.71468 39.1187 4.70017
204 2 11.8236 38.9626 4.53257
205 2 15.7885 43.0215 4.83229
206 2 3.91777 43.0417 4.51703
207 2 7.82313 43.1422 4.64033
208 2 11.841 43.0568 4.74493
209 2 15.7408 47.0437 4.74443
210 2 3.89646 47.0141 4.66125
211 2 7.92534 47.1995 4.68944
212 2 11.8921 47.1188 4.68882
213 2 15.785 51.0744 4.64394
214 2 4.06493 51.1803 4.92567
215 2 7.94109 51.1297 4.85893
216 2 11.7893 51.2779 4.72301
217 2 0.0422356 55.2597 4.84269
218 2 3.93932 55.2166 4.99248
219 2 8.07975 55.2597 4.75603
220 2 12.0965 55.096 4.9501
221 2 15.9918 59.3128 4.8128
222 2 3.96426 59.0379 4.97035
223 2 8.06918 59.0741 4.97861
224 2 11.8594 59.2227 4.91216
225 2 15.7028 63.4604 5.00809
226 2 3.95203 63.2566 4.82868
227 2 7.85079 63.2393 5.00365
228 2 11.8171 63.2133 5.11739
229 2 -0.153362 67.2789 5.20532
230 2 4.09332 67.3607 5.09482
231 2 8.02048 67.3054 4.84762
232 2 11.6342 67.3867 5.14177
233 2 -0.0850136 71.3099 5.15033
234 2 4.002 71.1989 4.90645
235 2 8.0854 71.3496 5.11853
236 2 11.8225 71.2262 5.13333
237 2 15.7963 75.4562 5.26128
238 2 3.90549 75.3308 5.1412
239 2 7.77071 75.3492 5.13699
240 2 11.7663 75.3748 5.12421
241 2 -0.281915 79.322 5.41549
242 2 3.92234 79.5122 5.09319
243 2 7.83475 79.226 5.09052
244 2 11.799 79.3689 5.1636
245 2 -0.234234 83.4141 5.42738
246 2 3.75918 83.3956 5.22481
247 2 7.73496 83.3094 5.10151
248 2 11.8386 83.4764 5.27469
249 2 -0.170344 87.5367 5.38176
250 2 3.70826 87.5213 5.55535
251 2 7.82007 87.3703 5.63645
252 2 11.7465 87.4423 5.425
253 2 -0.177191 91.3857 5.4675
254 2 3.98298 91.5858 5.45701
255 2 7.85926 91.5946 5.42705
256 2 11.7813 91.5091 5.56841
257 2 15.8435 95.2265 5.29405
258 2 3.76786 95.523 5.49837
259 2 7.80729 95.4176 5.14202
260 2 11.943 95.4442 5.37794
261 2 -0.15699 99.2074 5.4598
262 2 3.82209 99.3791 5.5337
263 2 7.83925 99.3191 5.47101
264 2 11.9944 99.1556 5.52958
265 2 -0.00901425 103.186 5.57759
266 2 3.87165 103.208 5.4111
267 2 7.93068 103.268 5.56251
268 2 11.8311 103.377 5.41741
269 2 -0.0647643 107.097 5.50869
270 2 3.89784 107.099 5.25298
271 2 8.04714 107.22 5.39433
272 2 11.865 107.176 5.54012
273 2 16.063 111.155 5.06774
274 2 4.06347 111.06 5.40209
275 2 8.06687 111.101 5.31962
276 2 12.0808 111.048 5.31984
277 2 16.029 115.051 5.2858
278 2 3.96651 114.955 5.29946
279 2 8.00403 115.048 5.34189
280 2 11.8788 114.89 5.23713
281 2 15.7918 118.813 5.1101
282 2 3.86227 118.865 5.33659
283 2 7.94904 118.738 5.20949
284 2 11.8326 118.856 5.24861
285 2 -0.132465 122.69 5.0793
286 2 4.06038 122.814 5.23668
287 2 7.92515 122.672 5.22969
288 2 11.7252 122.622 5.34329
289 2 -0.260083 126.814 5.11824
290 2 3.8418 126.852 5.21379
291 2 7.86424 126.545 5.20375
292 2 11.6734 126.661 5.06064
293 2 -0.215676 130.873 5.05162
294 2 3.7541 130.636 5.00247
295 2 7.78954 130.635 5.07475
296 2 11.9224 130.662 5.11624
297 2 15.5313 134.652 4.91621
298 2 4.01722 134.635 5.06037
299 2 7.73906 134.407 4.9237
300 2 11.6651 134.456 5.04393
301 2 0.0335268 138.446 4.90362
302 2 4.14143 138.593 5.11207
303 2 8.07215 138.354 4.8922
304 2 11.9379 138.575 5.11951
305 2 0.0548288 142.518 4.94451
306 2 4.04744 142.238 4.9988
307 2 7.82941 142.369 4.9296
308 2 11.8972 142.199 4.96967
309 2 0.187348 146.248 4.6786
310 2 4.01389 146.183 5.03658
311 2 7.91314 146.266 4.84911
312 2 11.9268 146.195 4.62327
313 2 15.5498 150.096 4.91045
314 2 3.69729 150.185 5.00447
315 2 7.83207 150.05 4.91711
316 2 11.5412 150.174 4.86465
317 2 -0.078597 154.147 4.96414
318 2 3.74731 153.969 4.73674
319 2 7.87787 154.163 4.85717
320 2 11.7238 154.087 4.85473
321 2 4.78526e-05 157.842 8.70217
322 2 4.1472 157.837 8.75874
323 2 7.7626 157.964 8.73869
324 2 11.8774 158.138 8.70257
325 2 15.7175 3.59022 8.73188
326 2 3.92296 3.70821 8.69247
327 2 7.83101 3.51667 8.652
328 2 11.8228 3.61945 8.8812
329 2 -0.079667 7.53556 8.62749
330 2 3.91918 7.39537 8.80833
331 2 8.03957 7.53359 8.72062
332 2 11.9404 7.49084 8.73526
333 2 -0.124112 11.3383 8.63435
334 2 3.98556 11.5589 8.70214
335 2 7.85853 11.4279 8.71276
336 2 11.9082 11.6267 8.68278
337 2 -0.103448 15.3623 8.68453
338 2 3.93831 15.2815 8.51902
339 2 7.74609 15.2605 8.63044
340 2 11.7172 15.3631 8.56393
341 2 -0.116671 19.0912 8.56386
342 2 3.92124 19.4109 8.57025
343 2 7.92317 19.1745 8.43732
344 2 11.8472 19.1642 8.41299
345 2 0.0856572 23.0344 8.48523
346 2 4.19293 23.0733 8.35817
347 2 7.89815 23.104 8.41155
348 2 11.9495 23.2062 8.53625
349 2 15.6896 26.9833 8.49952
350 2 3.89934 27.269 8.38114
351 2 7.88969 26.9955 8.32488
352 2 11.8986 27.0633 8.36898
353 2 -0.305052 30.9975 8.50161
354 2 3.60946 31.008 8.44601
355 2 7.89962 30.8812 8.65463
356 2 11.871 31.1685 8.63981
357 2 15.8638 35.0353 8.43224
358 2 3.79063 34.8283 8.31707
359 2 7.78886 34.8787 8.43279
360 2 11.8624 34.9954 8.38405
361 2 15.85 39.0095 8.72192
362 2 3.86711 38.8396 8.57014
363 2 7.57416 38.9229 8.62839
364 2 11.7329 38.9125 8.41189
365 2 15.7359 42.8867 8.46344
366 2 3.96699 43.142 8.61888
367 2 8.04673 43.0709 8.6658
368 2 11.9056 42.9602 8.56798
369 2 15.644 47.0288 8.63587
370 2 3.86084 47.0993 8.53649
371 2 7.9898 46.9851 8.54417
372 2 12.0485 46.8906 8.57874
373 2 0.0859471 51.0249 8.83048
374 2 4.05233 51.0619 8.67716
375 2 7.97293 51.137 8.78274
376 2 12.0509 51.0436 8.62974
377 2 0.000853958 55.1031 8.8331
378 2 3.94877 54.8439 8.86788
379 2 8.06202 54.9902 8.75933
380 2 12.0572 55.2029 8.65321
381 2 15.7392 59.3038 8.95855
382 2 3.97813 59.1077 8.74542
383 2 7.98528 59.1613 8.92973
384 2 11.9326 59.1099 8.95765
385 2 16.0282 63.2254 8.77476
386 2 4.03417 63.0105 8.79268
387 2 7.82349 63.0619 9.00007
388 2 11.6673 63.0498 8.96837
389 2 -0.120439 67.155 8.91519
390 2 4.07533 67.202 8.89234
391 2 8.07036 67.2822 8.98232
392 2 11.9575 67.2318 8.87849
393 2 15.8205 71.2223 8.91429
394 2 4.00191 71.257 9.02419
395 2 7.76558 71.1663 9.0982
396 2 11.8085 71.1342 9.3231
397 2 0.0730239 75.3227 9.03846
398 2 3.92742 75.182 9.14197
399 2 7.86765 75.1616 9.00902
400 2 11.9757 75.3922 9.15269
401 2 15.6986 79.3374 9.07598
402 2 3.84984 79.3027 9.10346
403 2 7.80145 79.3827 8.95668
404 2 11.751 79.4446 9.01913
405 2 15.6323 83.3408 9.22113
406 2 3.87309 83.5314 8.8924
407 2 7.77698 83.2768 9.15368
408 2 11.6787 83.3549 9.10494
409 2 -0.152532 87.4378 9.20745
410 2 3.78324 87.2374 9.3199
411 2 7.77911 87.4785 9.3648
412 2 11.7202 87.6955 9.14431
413 2 -0.147467 91.4073 9.52876
414 2 4.07141 91.2922 9.37196
415 2 7.95196 91.4508 9.43658
416 2 11.6386 91.6197 9.3524
417 2 0.138931 95.5466 9.59924
418 2 4.00243 95.3742 9.47421
419 2 7.9018 95.433 9.3662
420 2 11.8701 95.4393 9.31707
421 2 0.0607483 99.382 9.50012
422 2 4.12012 99.3981 9.40374
423 2 7.98821 99.3898 9.60548
424 2 12.0944 99.4754 9.52304
425 2 -0.0370467 103.392 9.4337
426 2 3.93421 103.371 9.48418
427 2 7.8518 103.262 9.43373
428 2 11.7185 103.241 9.37348
429 2 0.134855 107.319 9.41135
430 2 4.17487 107.158 9.53946
431 2 8.15936 107.374 9.46977
432 2 12.1091 107.279 9.47394
433 2 0.153927 111.122 9.41713
434 2 4.06993 111.048 9.40752
435 2 8.20622 111.216 9.23474
436 2 12.066 111.126 9.36598
437 2 15.9758 115.041 9.38763
438 2 4.15493 114.976 9.33097
439 2 7.86961 115.025 9.39458
440 2 11.9801 114.968 9.15289
441 2 0.114803 118.978 9.18532
442 2 3.98898 119.101 9.0942
443 2 7.75488 118.888 9.24685
444 2 11.8587 118.882 9.37703
445 2 15.6828 122.876 9.27597
446 2 3.66563 123.037 8.97633
447 2 7.77555 122.778 9.29781
448 2 11.774 122.808 9.22237
449 2 -0.0350763 126.605 8.9698
450 2 3.91146 126.95 9.19261
451 2 7.7743 126.87 9.21105
452 2 11.6879 127 9.20799
453 2 15.76 130.707 9.16118
454 2 3.79004 130.617 9.25769
455 2 7.84983 130.65 9.09062
456 2 11.6693 130.689 9.24476
457 2 15.7921 134.704 9.08449
458 2 3.86451 134.642 9.14987
459 2 7.78341 134.479 9.03825
460 2 11.7912 134.61 9.06227
461 2 0.0666448 138.6 8.99439
462 2 3.90846 138.551 9.20703
463 2 7.79856 138.43 9.11658
464 2 11.8104 138.42 9.0245
465 2 0.0787968 142.65 8.93192
466 2 3.97013 142.522 9.11399
467 2 8.06879 142.614 8.98999
468 2 11.8189 142.202 9.02169
469 2 15.7966 146.344 8.9192
470 2 3.9209 146.396 8.94798
471 2 7.99137 146.297 9.03703
472 2 11.7049 146.233 8.91633
473 2 -0.288627 150.177 8.83552
474 2 3.71178 150.248 8.78967
475 2 7.90063 150.124 8.91522
476 2 11.6998 150.175 8.97419
477 2 -0.379822 154.119 8.88237
478 2 3.80397 154.199 8.81312
479 2 7.76033 154.128 8.91201
480 2 11.7712 154.12 8.91131
481 2 15.5248 158.142 12.9859
482 2 3.92396 158.25 12.6853
483 2 7.86462 158.002 12.7965
484 2 11.7143 157.967 12.8007
485 2 0.0290118 3.56835 12.7561
486 2 3.83021 3.76844 12.8029
487 2 7.91631 3.86251 12.7365
488 2 11.8386 3.46029 12.7623
489 2 15.7439 7.64074 12.6
490 2 3.83623 7.77002 12.7998
491 2 7.87685 7.74169 12.7386
492 2 11.8624 7.50834 12.5722
493 2 15.8113 11.5184 12.7161
494 2 3.73667 11.6359 12.7617
495 2 7.89134 11.6465 12.8638
496 2 11.8663 11.5034 12.6994
497 2 15.6708 15.3859 12.6877
498 2 3.91633 15.5056 12.5326
499 2 7.90521 15.4962 12.7534
500 2 11.7044 15.4165 12.649
501 2 15.8445 19.2667 12.6672
502 2 3.80275 19.2842 12.6097
503 2 7.7827 19.3494 12.6705
504 2 11.7582 19.3161 12.6339
505 2 15.9128 23.1336 12.4553
506 2 3.98157 23.2435 12.4946
507 2 7.93619 23.1722 12.5814
508 2 11.9095 23.1556 12.6886
509 2 0.0398821 26.9058 12.5065
510 2 3.87961 27.0833 12.5106
511 2 7.66341 26.9638 12.415
512 2 11.6949 27.0691 12.576
513 2 15.7367 30.9853 12.577
514 2 3.78089 31.057 12.4415
515 2 7.8665 31.0185 12.4924
516 2 11.8521 30.924 12.5272
517 2 -0.112071 34.9636 12.2039
518 2 3.89895 34.912 12.37
519 2 7.86404 34.897 12.2871
520 2 11.8728 34.9906 12.6557
521 2 -0.0918427 39.0845 12.5512
522 2 3.82969 38.9375 12.3656
523 2 7.80554 38.8988 12.3682
524 2 11.6626 38.9734 12.3183
525 2 0.0726083 42.9408 12.5049
526 2 3.92737 43.0394 12.4496
527 2 7.93063 42.9267 12.5873
528 2 11.7413 42.9218 12.2997
529 2 0.112628 47.0597 12.6323
530 2 4.04795 46.8812 12.5453
531 2 7.98999 46.869 12.7155
532 2 11.8654 46.8884 12.5858
533 2 16.0021 51.0698 12.6984
534 2 4.08838 50.9808 12.5402
535 2 7.94756 50.8102 12.5726
536 2 11.8983 51.0518 12.601
537 2 -0.125247 55.1702 12.8437
538 2 4.03256 54.982 12.7649
539 2 7.9769 54.9954 12.6332
540 2 11.8873 54.8728 12.6479
541 2 15.9411 59.01 12.8144
542 2 4.0468 58.956 12.6941
543 2 7.91064 59.1256 12.8011
544 2 11.957 59.0292 12.8015
545 2 15.7621 63.1208 12.7034
546 2 3.78213 63.2128 12.5527
547 2 7.72283 63.1714 13.1014
548 2 11.9208 63.0134 12.977
549 2 -0.184436 67.1947 12.8973
550 2 3.72431 67.2243 13.0067
551 2 7.74188 67.0941 12.9822
552 2 11.9667 67.2621 12.9467
553 2 -0.0421466 71.234 12.9957
554 2 3.76234 71.0384 12.8972
555 2 7.92705 71.2617 12.7909
556 2 11.741 71.42 13.041
557 2 -0.0870103 75.3637 13.0727
558 2 3.74773 75.3913 12.9808
559 2 7.98928 75.2081 12.8567
560 2 11.9546 75.2787 13.1606
561 2 15.715 79.1899 12.8656
562 2 3.84129 79.225 13.0289
563 2 7.81402 79.2701 12.8209
564 2 11.7533 79.4068 12.9647
565 2 -0.0614744 83.2081 13.1785
566 2 3.90999 83.3076 13.1851
567 2 7.88461 83.2609 12.9598
568 2 11.9524 83.1366 13.2026
569 2 15.6713 87.5284 13.1967
570 2 3.82577 87.4431 13.1507
571 2 7.78943 87.3727 13.3639
572 2 11.8698 87.4469 13.1212
573 2 0.167228 91.3294 13.2486
574 2 4.04147 91.6338 13.2696
575 2 7.92392 91.2686 13.3234
576 2 11.8063 91.3682 13.3538
577 2 0.00478097 95.3317 13.4336
578 2 3.87117 95.362 13.4772
579 2 7.88132 95.5195 13.5505
580 2 11.8013 95.614 13.3749
581 2 -0.0887389 99.3346 13.4488
582 2 4.00121 99.3703 13.4132
583 2 7.78094 99.4781 13.5657
584 2 11.8 99.413 13.2912
585 2 15.8167 103.242 13.5338
586 2 3.91755 103.299 13.2982
587 2 7.7262 103.398 13.4583
588 2 11.8616 103.521 13.3648
589 2 15.8596 107.29 13.4633
590 2 4.18456 107.325 13.2927
591 2 8.00282 107.299 13.489
592 2 12.0492 107.43 13.4855
593 2 0.128323 111.223 13.409
594 2 3.90956 111.272 13.3978
595 2 8.09567 111.169 13.2654
596 2 12.0511 111.211 13.3789
597 2 0.111993 115.169 13.171
598 2 4.0807 115.008 13.0538
599 2 7.95327 114.934 13.2719
600 2 11.9033 115.232 13.2952
601 2 15.6511 118.979 13.2964
602 2 3.94672 118.936 13.1104
603 2 7.97714 119.09 13.3041
604 2 11.6821 119.055 13.3084
605 2 15.8293 122.903 13.1156
606 2 3.88558 122.958 13.1596
607 2 7.75186 122.998 13.2352
608 2 11.5536 122.778 13.109
609 2 -0.00263466 126.642 13.1903
610 2 4.02298 126.74 13.0945
611 2 7.71443 126.737 13.3885
612 2 11.8206 126.69 13.1573
613 2 15.8549 130.745 13.1754
614 2 3.7949 130.742 13.2089
615 2 7.73368 130.728 13.2358
616 2 11.7965 130.636 13.2143
617 2 -0.0315558 134.626 13.1125
618 2 4.0461 134.448 13.0994
619 2 7.8059 134.588 13.303
620 2 11.7976 134.598 13.2469
621 2 -0.13246 138.505 13.0439
622 2 3.86776 138.457 13.1426
623 2 7.87077 138.55 13.1076
624 2 11.8182 138.361 12.8958
625 2 15.8252 142.509 13.1645
626 2 4.19934 142.269 12.9943
627 2 7.90733 142.463 13.0773
628 2 12.1025 142.503 12.911
629 2 15.9037 146.299 12.8775
630 2 3.98112 146.484 12.9619
631 2 7.81844 146.28 13.07
632 2 11.957 146.201 13.0215
633 2 -0.0659981 150.259 13.0189
634 2 3.85661 150.537 12.6502
635 2 7.82088 150.259 13.0806
636 2 11.7155 150.198 13.0869
637 2 0.0470432 154.208 12.9791
638 2 3.84258 154.156 12.8035
639 2 7.92803 154.158 13.0496
640 2 11.8749 154.033 12.8347
641 2 -0.211597 157.917 16.982
642 2 4.11144 158.362 16.7405
643 2 7.86001 158.119 16.7918
644 2 11.8526 158.169 16.8369
645 2 15.6823 3.64785 16.9129
646 2 3.90502 3.73435 16.8661
647 2 7.99053 3.85086 16.7553
648 2 11.7843 3.69396 16.8577
649 2 15.6092 7.62262 16.8461
650 2 3.84401 7.41384 16.7497
651 2 7.98631 7.77579 16.6346
652 2 11.7863 7.52772 16.789
653 2 -0.196346 11.4767 16.9192
654 2 3.67028 11.4637 16.8095
655 2 7.91546 11.502 16.7852
656 2 11.839 11.478 16.6912
657 2 -0.201546 15.4201 16.7407
658 2 4.00982 15.4456 16.7896
659 2 7.95442 15.3232 16.6761
660 2 11.7137 15.3163 16.7551
661 2 15.7629 19.3254 16.7903
662 2 3.88107 19.2694 16.7876
663 2 7.86248 19.1965 16.6761
664 2 11.8343 19.4365 16.6488
665 2 -0.0471564 23.013 16.5248
666 2 3.81628 23.3693 16.5973
667 2 7.93206 23.01 16.6651
668 2 11.8212 23.2787 16.6658
669 2 15.747 27.0998 16.5501
670 2 3.84255 27.2126 16.6226
671 2 8.05552 27.0477 16.6426
672 2 11.8547 27.056 16.491
673 2 15.7448 31.1326 16.4389
674 2 3.78947 31.0974 16.3053
675 2 7.63737 30.9678 16.2871
676 2 11.813 30.9184 16.3981
677 2 15.6447 35.0343 16.2631
678 2 3.82148 34.9649 16.3948
679 2 7.74123 35.1802 16.3056
680 2 11.6143 35.0799 16.3671
681 2 15.7186 38.8658 16.3429
682 2 3.81526 38.7904 16.3684
683 2 7.90109 39.046 16.5428
684 2 11.6732 39.0493 16.2415
685 2 0.0379706 42.8345 16.4466
686 2 4.04207 42.8546 16.5374
687 2 7.93216 42.7607 16.4719
688 2 11.7596 43.0328 16.4721
689 2 16.0445 47.1086 16.5862
690 2 4.13678 46.6896 16.4429
691 2 7.92068 46.7957 16.5634
692 2 11.9188 46.8748 16.3535
693 2 15.9497 50.949 16.4698
694 2 4.13839 50.9809 16.5287
695 2 7.83113 50.9718 16.4854
696 2 11.743 50.8934 16.5921
697 2 15.8449 54.841 16.7212
698 2 4.01712 54.9404 16.5553
699 2 7.97155 54.9204 16.7337
700 2 11.944 54.7705 16.6975
701 2 16.0137 59.0739 16.7809
702 2 4.04818 59.1542 16.8413
703 2 7.98975 59.1369 16.8877
704 2 12.0854 59.0462 16.6413
705 2 15.9425 62.9425 16.7133
706 2 4.08402 63.0092 16.8599
707 2 7.88325 62.9773 16.8185
708 2 11.9651 62.9312 16.5938
709 2 0.0260272 67.0093 16.8548
710 2 3.85932 67.1503 16.6705
711 2 8.12145 67.0393 16.6045
712 2 11.7762 66.9643 16.854
713 2 -0.262325 71.1473 16.6896
714 2 3.91353 71.1862 17.0255
715 2 7.65086 71.2356 16.872
716 2 11.7834 71.3101 16.7029
717 2 15.9006 75.274 17.0133
718 2 3.85456 75.2683 16.9135
719 2 7.77287 75.3457 16.7771
720 2 11.8295 75.2335 17.125
721 2 -0.22188 79.3049 16.9533
722 2 3.98691 79.2306 16.8596
723 2 7.95813 79.1019 16.8794
724 2 11.7314 79.2433 17.0215
725 2 0.109684 83.1978 17.054
726 2 3.93063 83.2152 17.0966
727 2 7.78308 83.2988 17.0465
728 2 11.9012 83.419 17.0257
729 2 -0.182897 87.1979 17.0975
730 2 3.87285 87.1715 17.0602
731 2 8.02933 87.2306 17.1207
732 2 11.9808 87.3171 16.9578
733 2 -0.0829373 91.3302 17.3824
734 2 3.93601 91.1564 17.2179
735 2 7.96519 91.2187 17.1609
736 2 11.9375 91.4408 17.4661
737 2 15.7361 95.4145 17.2236
738 2 3.80707 95.2318 17.3262
739 2 7.79387 95.1037 17.3744
740 2 11.8677 95.2087 17.4334
741 2 15.8133 99.4038 17.4035
742 2 3.93237 99.3949 17.4825
743 2 7.8237 99.4707 17.3832
744 2 11.8589 99.2965 17.3718
745 2 15.7563 103.369 17.4605
746 2 3.8772 103.361 17.4338
747 2 7.75981 103.268 17.4179
748 2 11.7413 103.379 17.5124
749 2 15.8128 107.281 17.3894
750 2 3.98663 107.319 17.297
751 2 7.88232 107.169 17.5838
752 2 11.6653 107.217 17.382
753 2 0.0368186 111.33 17.3969
754 2 4.00941 111.199 17.3341
755 2 7.9188 111.278 17.4226
756 2 11.8089 111.207 17.5835
757 2 15.8448 115.19 17.2275
758 2 3.98549 115.113 17.2301
759 2 7.85876 115.089 17.3682
760 2 11.8461 115.038 17.3562
761 2 0.0109538 118.933 17.0756
762 2 4.01544 119.071 17.2539
763 2 7.88971 118.997 17.329
764 2 11.9259 118.938 17.3776
765 2 0.177588 123.144 17.2085
766 2 4.07282 122.872 17.3835
767 2 7.91717 122.831 17.2654
768 2 11.833 123.069 17.1526
769 2 0.0152422 126.881 17.3369
770 2 4.0034 126.77 17.3374
771 2 8.06035 127.045 17.1704
772 2 11.9114 127.11 17.2053
773 2 15.7495 130.739 17.1142
774 2 3.75668 130.792 17.2327
775 2 7.63576 130.823 17.1296
776 2 11.9946 130.771 17.2573
777 2 15.9494 134.796 17.2388
778 2 3.88843 134.722 17.1983
779 2 7.78676 134.654 17.2781
780 2 11.8447 134.791 17.0858
781 2 15.9143 138.563 17.0006
782 2 3.95175 138.628 17.0567
783 2 7.96915 138.796 17.037
784 2 11.8111 138.632 17.1593
785 2 15.8693 142.435 17.2352
786 2 3.9678 142.476 17.0604
787 2 8.03442 142.504 17.0848
788 2 12.0482 142.525 17.0321
789 2 0.168435 146.25 16.9712
790 2 4.01029 146.292 16.954
791 2 7.96651 146.328 16.9843
792 2 11.9403 146.489 17.0582
793 2 15.825 150.329 17.1019
794 2 3.87198 150.279 16.9591
795 2 7.72409 150.098 16.8862
796 2 11.9899 150.283 17.2019
797 2 -0.0289809 154.23 16.9591
798 2 4.0693 154.077 16.9023
799 2 7.88051 154.226 16.8294
800 2 11.8417 154.239 16.8963
801 2 16.0543 158.255 20.8342
802 2 3.98925 158.241 20.8386
803 2 7.85039 -0.0507193 20.9702
804 2 11.8001 158.028 20.8178
805 2 15.8025 3.75047 20.9913
806 2 3.97969 3.7 20.5091
807 2 7.85587 3.88862 20.8532
808 2 11.8784 3.62311 20.9806
809 2 15.822 7.79156 20.7836
810 2 3.99494 7.54776 20.7332
811 2 7.86295 7.56963 20.857
812 2 11.8055 7.70202 20.9331
813 2 -0.026077 11.5489 20.7767
814 2 3.99988 11.4396 20.715
815 2 7.88025 11.4582 20.8084
816 2 11.8428 11.6453 20.8247
817 2 15.7682 15.5234 20.8361
818 2 4.14024 15.3974 20.841
819 2 7.73545 15.5197 20.8271
820 2 11.7761 15.6993 20.7952
821 2 -0.0815553 19.2124 20.6464
822 2 3.77427 19.2681 20.9044
823 2 7.81366 19.3444 20.7954
824 2 11.8673 19.3474 20.734
825 2 15.5748 23.2675 20.5375
826 2 3.87049 23.1895 20.7463
827 2 7.86229 23.1858 20.8263
828 2 11.5634 23.2442 20.6243
829 2 0.099476 27.0741 20.4086
830 2 3.97812 27.2556 20.5314
831 2 7.922 27.0347 20.5431
832 2 11.8445 27.2665 20.4887
833 2 15.53 31.0965 20.5481
834 2 3.84417 31.0384 20.5133
835 2 7.59156 31.0688 20.4027
836 2 11.5609 31.1624 20.2912
837 2 -0.136689 34.9671 20.2561
838 2 3.95921 34.8727 20.3673
839 2 7.94876 34.99 20.2313
840 2 11.7693 35.0653 20.4295
841 2 15.8188 38.8201 20.2874
842 2 3.98201 38.8209 20.3909
843 2 7.82215 38.6546 20.496
844 2 11.8416 38.8452 20.388
845 2 -0.140487 42.6605 20.1894
846 2 3.85563 42.9453 20.3315
847 2 7.89635 42.6978 20.467
848 2 11.7958 42.7818 20.4305
849 2 -0.0021185 46.7772 20.369
850 2 3.98046 46.7594 20.4793
851 2 7.99972 46.8545 20.3749
852 2 11.7344 46.9014 20.4575
853 2 0.026025 50.6731 20.4681
854 2 4.11599 50.957 20.3661
855 2 7.79717 50.8254 20.5179
856 2 11.7337 50.7875 20.5213
857 2 15.7566 54.8923 20.737
858 2 3.73867 54.9111 20.4595
859 2 7.90901 54.9002 20.6894
860 2 11.9321 54.9425 20.4851
861 2 15.8392 58.9319 20.8179
862 2 4.10682 58.9717 20.4776
863 2 7.78152 58.9103 20.6419
864 2 11.9611 58.887 20.6088
865 2 15.9275 62.9751 20.6517
866 2 4.11365 63.0407 20.7969
867 2 7.95412 63.0014 20.7217
868 2 11.9437 62.9129 20.4981
869 2 15.7636 66.9981 20.5614
870 2 3.77602 66.9895 20.9131
871 2 7.95054 67.0161 20.7301
872 2 11.7319 66.8944 20.6132
873 2 -0.0378585 70.9123 20.6521
874 2 3.74229 71.1659 20.768
875 2 7.75472 71.08 20.5962
876 2 11.8323 71.1204 20.8147
877 2 15.8331 75.0599 21.0254
878 2 4.05231 74.9892 20.8458
879 2 7.94079 75.0254 20.9219
880 2 11.8257 75.0418 20.8926
881 2 0.0338538 79.0161 21.0569
882 2 3.97374 78.9878 20.8452
883 2 7.89901 79.0562 20.8833
884 2 11.8284 79.145 20.832
885 2 0.0910295 82.9632 20.95
886 2 3.97571 83.0786 20.787
887 2 7.80833 83.1045 20.8428
888 2 11.8096 83.0939 20.8301
889 2 15.6293 87.1311 21.2023
890 2 4.0101 87.2402 20.9836
891 2 8.05016 87.0746 20.9573
892 2 11.8353 87.1121 21.1136
893 2 15.8982 91.3835 21.1197
894 2 3.88842 91.1787 21.2086
895 2 7.95453 91.1526 21.0377
896 2 11.9055 91.1659 21.2003
897 2 0.00852305 95.2991 21.3181
898 2 3.82574 95.2439 21.4352
899 2 7.8222 95.2339 21.2894
900 2 11.863 95.239 21.5178
901 2 15.6722 99.2806 21.3039
902 2 3.93489 99.2728 21.2563
903 2 7.79075 99.2469 21.2905
904 2 11.857 99.1728 21.4057
905 2 -0.259136 103.124 21.194
906 2 3.84217 103.22 21.3613
907 2 7.72918 103.19 21.4221
908 2 11.6127 103.16 21.3668
909 2 15.5965 107.055 21.2589
910 2 3.68627 107.302 21.1364
911 2 7.66075 107.309 21.3918
912 2 11.8591 107.195 21.2809
913 2 15.6441 111.333 21.2538
914 2 3.87495 111.259 21.4977
915 2 7.73679 111.264 21.6031
916 2 11.8382 111.147 21.4767
917 2 -0.265967 115.219 21.375
918 2 3.59841 115.197 21.3486
919 2 7.86829 115.047 21.1468
920 2 11.6996 115.132 21.3265
921 2 15.9148 118.96 21.4879
922 2 3.87168 119.162 21.4002
923 2 7.92437 119.007 21.316
924 2 11.7698 119.002 21.255
925 2 15.8336 122.916 21.2877
926 2 4.03372 122.935 21.2299
927 2 7.95615 123.166 21.2177
928 2 12.0261 122.663 21.1657
929 2 -0.0333092 126.845 21.2027
930 2 3.97986 126.989 21.2442
931 2 8.08437 127.006 21.1184
932 2 11.8241 126.543 21.0751
933 2 0.156839 130.849 21.206
934 2 3.98278 130.805 21.2037
935 2 7.95243 130.717 21.2333
936 2 11.9488 130.767 21.3311
937 2 15.6494 134.778 21.2104
938 2 4.13779 134.797 21.1117
939 2 7.89018 134.648 21.3512
940 2 11.8345 134.62 21.2251
941 2 0.0724019 138.713 21.3007
942 2 4.01858 138.671 21.1406
943 2 8.09144 138.735 21.0547
944 2 11.9419 138.403 21.1609
945 2 15.7764 142.501 21.2209
946 2 4.0046 142.431 21.1254
947 2 8.01928 142.557 21.1196
948 2 11.9846 142.461 21.1442
949 2 15.763 146.465 21.0127
950 2 4.0323 146.448 21.0848
951 2 7.87251 146.379 21.0943
952 2 11.7389 146.367 21.0501
953 2 15.8993 150.338 20.8879
954 2 3.8799 150.331 21.0807
955 2 7.76745 150.156 20.9581
956 2 12.0489 150.427 21.0005
957 2 0.176205 154.14 20.9187
958 2 4.04616 154.054 21.0435
959 2 7.88598 154.341 20.8453
960 2 11.9754 154.289 21.0301
961 2 -0.00896585 158.348 24.844
962 2 3.90301 158.197 24.9084
963 2 7.64586 158.156 24.9427
964 2 11.6749 158.407 24.7462
965 2 -0.0304041 3.79155 25.0228
966 2 3.884 3.80004 24.7642
967 2 7.89859 3.88862 24.9097
968 2 11.8383 3.79875 24.8289
969 2 15.9142 7.50211 24.7132
970 2 3.90216 7.76777 24.8968
971 2 7.92193 7.66583 24.9489
972 2 11.8766 7.71843 24.6705
973 2 15.7529 11.5297 24.8889
974 2 3.86198 11.6127 24.6523
975 2 7.75134 11.6447 24.8207
976 2 11.8816 11.5382 24.9664
977 2 15.7594 15.4184 24.7486
978 2 3.80797 15.5544 24.9856
979 2 8.02842 15.3998 24.7194
980 2 11.8461 15.5693 24.797
981 2 0.0918636 19.3821 24.7977
982 2 3.93499 19.4864 24.7801
983 2 7.88519 19.367 24.8017
984 2 11.5833 19.4632 24.7323
985 2 15.9967 23.2766 24.6043
986 2 3.96746 23.3762 24.7655
987 2 7.90144 23.4103 24.655
988 2 11.9132 23.3602 24.6714
989 2 15.7901 27.1911 24.5707
990 2 3.91379 27.2661 24.6241
991 2 8.00421 27.3015 24.6277
992 2 11.6794 27.2184 24.6895
993 2 15.7261 31.0445 24.562