ITEM: TIMESTEP
24600
ITEM: NUMBER OF ATOMS
32000
ITEM: BOX BOUNDS xy xz yz pp pp pp
0.0000000000000000e+00 1.5832000000000001e+01 0.0000000000000000e+00
0.0000000000000000e+00 1.5831999999999999e+02 0.0000000000000000e+00
8.0306231014259311e-01 1.6017405568985220e+02 0.0000000000000000e+00
ITEM: ATOMS id type x y z
1 2 -0.0126434 158.034 160.1
2 2 3.88659 157.84 160.033
3 2 8.0102 158.132 160.073
4 2 11.9135 157.891 160.052
5 2 -0.0288395 3.62757 160.029
6 2 3.96148 3.43331 159.987
7 2 7.89349 3.54521 160.146
8 2 12.0261 3.64639 160.22
9 2 15.8526 7.37014 159.997
10 2 3.9852 7.37551 159.956
11 2 8.02334 7.42958 160.096
12 2 11.8744 7.41834 159.948
13 2 -0.0392283 11.3606 159.93
14 2 3.84364 11.2805 159.777
15 2 7.78265 11.5519 159.912
16 2 11.7253 11.2245 159.841
17 2 -0.112092 15.2597 159.834
18 2 3.74997 15.2608 159.943
19 2 7.6506 15.5564 159.801
20 2 11.9483 15.2342 159.912
21 2 0.0410527 19.2694 159.743
22 2 3.94472 19.1544 159.68
23 2 7.73213 18.9814 159.661
24 2 11.8763 19.2063 159.846
25 2 -0.0333821 23.0714 159.568
26 2 3.92822 23.0222 159.748
27 2 7.87232 22.9795 159.709
28 2 11.6695 22.9827 159.695
29 2 -0.0446676 26.988 159.829
30 2 3.84724 27.1388 159.702
31 2 7.8043 26.9777 159.71
32 2 11.8601 27.2272 159.763
33 2 15.7796 31.1406 159.803
34 2 4.00054 31.0959 159.831
35 2 7.9011 31.3143 159.993
36 2 11.7933 31.1062 159.757
37 2 15.7169 35.2255 159.807
38 2 3.89847 35.0778 159.948
39 2 7.79009 35.1662 159.978
40 2 11.8983 35.0601 160.068
41 2 0.0536745 39.1612 159.943
42 2 3.84374 39.2633 160.097
43 2 7.88067 39.1474 160.038
44 2 12.0713 39.2625 160.113
45 2 15.7408 43.2544 160.014
46 2 4.026 43.2943 0.779033
47 2 8.01944 43.0975 160.206
48 2 11.9078 43.1981 159.939
49 2 15.7954 47.1063 160.336
50 2 3.92037 47.4041 160.068
51 2 7.78209 47.1907 160.172
52 2 11.8325 47.3648 160.133
53 2 15.854 51.1944 0.932873
54 2 4.05866 51.2653 160.298
55 2 8.07111 51.2032 160.153
56 2 11.99 51.2403 0.650382
57 2 15.8362 55.1835 0.941543
58 2 3.97688 55.2302 0.818985
59 2 8.0432 55.2715 0.985423
60 2 11.8354 55.1705 0.756125
61 2 -0.0424144 59.3125 1.14176
62 2 4.06837 59.2581 1.14924
63 2 7.75711 59.4389 0.850262
64 2 11.8476 59.1508 1.0082
65 2 -0.118174 63.0973 0.873143
66 2 3.87806 63.1157 0.967113
67 2 8.05168 63.3282 1.05352
68 2 11.8281 63.1138 1.07043
69 2 15.7714 67.3146 0.886871
70 2 3.94093 67.3141 0.99425
71 2 7.93571 67.4371 1.32173
72 2 11.862 67.2543 1.14174
73 2 -0.000321463 71.3167 1.31631
74 2 3.82791 71.3175 1.19041
75 2 7.8591 71.1233 1.15043
76 2 11.6987 71.2353 1.0476
77 2 -0.128029 75.2579 1.23032
78 2 3.82786 75.2473 1.32507
79 2 8.03076 75.2911 1.1024
80 2 11.7398 75.264 1.19398
81 2 0.0402815 79.3379 1.27778
82 2 3.9856 79.4192 1.18165
83 2 8.18734 79.3438 1.31094
84 2 11.9524 79.3571 1.31645
85 2 -0.113521 83.3503 1.50011
86 2 3.82508 83.2979 1.24828
87 2 7.92158 83.4096 1.35259
88 2 11.7902 83.286 1.33663
89 2 -0.124778 87.3493 1.47653
90 2 3.82737 87.6067 1.18534
91 2 7.93952 87.6675 1.34176
92 2 11.8657 87.5576 1.43087
93 2 15.7662 91.3656 1.3639
94 2 3.72918 91.4099 1.27412
95 2 7.79611 91.3702 1.37288
96 2 11.8017 91.3379 1.51583
97 2 15.5221 95.3842 1.28594
98 2 4.01603 95.1339 1.41145
99 2 7.68564 95.3733 1.41611
100 2 11.8617 95.3723 1.52701
101 2 15.6615 99.1305 1.36566
102 2 3.76881 99.1983 1.40594
103 2 7.82221 99.2071 1.35197
104 2 11.5851 99.2912 1.35169
105 2 -0.114547 103.051 1.19703
106 2 3.69936 102.997 1.42323
107 2 7.74397 103.104 1.44806
108 2 11.9055 103.053 1.34499
109 2 15.7642 107.053 1.26913
110 2 3.94636 107.143 1.2223
111 2 7.83454 106.993 1.35589
112 2 11.8668 107.101 1.26534
113 2 15.941 111.072 1.37965
114 2 4.1285 111.093 1.1266
115 2 7.84947 111.097 1.18688
116 2 11.7795 110.796 1.13507
117 2 15.8616 114.776 0.943616
118 2 3.78792 114.925 1.16628
119 2 7.8753 114.849 0.973044
120 2 11.904 114.759 1.15627
121 2 0.036163 118.824 1.18097
122 2 4.04877 118.772 1.30935
123 2 8.11781 118.685 1.28166
124 2 11.8617 118.743 1.21209
125 2 -0.0328482 122.693 1.12824
126 2 4.12741 122.819 1.14721
127 2 8.138 122.765 1.23056
128 2 11.8516 122.73 1.05985
129 2 0.109541 126.768 1.05948
130 2 4.04187 126.552 0.944454
131 2 7.98472 126.644 0.981652
132 2 11.9879 126.653 0.97376
133 2 0.077309 130.756 0.972756
134 2 3.99918 130.651 1.05227
135 2 8.15127 130.504 1.1372
136 2 11.8879 130.875 0.860136
137 2 15.768 134.413 1.01904
138 2 4.07288 134.632 160.298
139 2 8.01666 134.425 0.966184
140 2 12.1514 134.668 0.978538
141 2 15.8348 138.465 0.959183
142 2 4.11799 138.332 0.941544
143 2 7.88597 138.401 0.867738
144 2 11.865 138.479 0.945312
145 2 0.00421594 142.249 0.888946
146 2 3.91636 142.179 0.723622
147 2 7.98608 142.111 0.750007
148 2 12.0117 142.43 0.89132
149 2 0.0954351 146.304 0.973058
150 2 4.02387 146.079 160.291
151 2 7.83623 146.056 0.851348
152 2 11.903 146.104 160.309
153 2 -0.0403067 150.069 160.08
154 2 4.09527 150.202 160.094
155 2 7.83739 150.335 0.82133
156 2 11.7389 150.028 0.891194
157 2 -0.114195 154.188 160.158
158 2 3.77941 154.157 159.916
159 2 7.87886 154.214 160.159
160 2 11.6618 154.235 160.073
161 2 -0.144876 157.925 4.73608
162 2 3.96761 -0.421065 4.92592
163 2 7.759 157.972 4.94961
164 2 11.8908 157.876 4.65609
165 2 -0.0192244 3.70127 4.77312
166 2 3.88405 3.54116 4.69084
167 2 7.92871 3.67302 4.76011
168 2 11.9046 3.66645 4.80779
169 2 -0.118669 7.51671 4.63223
170 2 3.87701 7.54898 4.67572
171 2 7.98091 7.73953 4.55248
172 2 11.8617 7.59687 4.83879
173 2 0.0135911 11.425 4.69403
174 2 3.83955 11.3012 4.54401
175 2 7.80668 11.7341 4.48984
176 2 11.9602 11.4796 4.56498
177 2 -0.315006 15.3372 4.47671
178 2 3.64359 15.3531 4.48451
179 2 7.92983 15.4061 4.50893
180 2 11.6886 15.3235 4.42456
181 2 -0.142764 19.4044 4.34195
182 2 3.66901 19.2823 4.29309
183 2 7.97784 19.2378 4.48074
184 2 11.8796 19.2688 4.32384
185 2 -0.219665 23.2876 4.30954
186 2 3.87331 23.2025 4.30628
187 2 7.87286 23.2537 4.60414
188 2 11.5603 23.1671 4.42039
189 2 -0.155671 27.17 4.35782
190 2 3.71351 27.1047 4.34638
191 2 7.70743 27.1347 4.21522
192 2 11.765 26.9818 4.26625
193 2 -0.213855 31.1378 4.31383
194 2 3.85443 31.186 4.51011
195 2 7.71812 31.159 4.36195
196 2 11.8134 30.9998 4.32267
197 2 15.6913 34.9913 4.57527
198 2 3.82398 35.2076 4.4926
199 2 7.81068 35.0501 4.5313
200 2 11.8421 35.1292 4.356
201 2 0.105819 39.2518 4.37968
202 2 4.03863 39.0577 4.4049
203 2 8.04639 39.1355 4.69503
204 2 11.834 39.1647 4.48658
205 2 15.8701 43.1285 4.57482
206 2 3.88339 43.0838 4.78609
207 2 7.90395 43.1278 4.57197
208 2 11.817 43.2274 4.68451
209 2 15.854 47.0894 4.64415
210 2 4.01197 47.1709 4.76244
211 2 7.96489 47.238 4.81255
212 2 11.8212 47.1617 4.71526
213 2 16.0048 51.1916 4.77207
214 2 3.95646 51.2796 4.65122
215 2 7.87847 51.2114 4.66305
216 2 12.0086 51.2814 4.41353
217 2 -0.0784558 55.1428 5.02203
218 2 3.9266 55.4472 4.5654
219 2 7.78722 55.1035 4.82039
220 2 11.6978 55.005 4.76306
221 2 15.7902 59.2301 4.9581
222 2 3.77813 59.1682 4.92511
223 2 7.87564 59.16 4.99776
224 2 11.9088 59.1114 4.75603
225 2 15.7754 63.245 4.90534
226 2 3.8084 63.3485 4.99481
227 2 7.83954 63.316 5.03177
228 2 12.0421 63.1844 5.03667
229 2 -0.0039468 67.1886 4.64904
230 2 3.8186 67.2052 4.95963
231 2 7.88076 67.2369 5.10447
232 2 11.932 67.2067 5.08573
233 2 0.0702309 71.3047 5.06443
234 2 3.76149 71.2469 5.08519
235 2 7.86624 71.2772 5.13203
236 2 11.8814 71.1534 5.0395
237 2 15.9287 75.3294 5.20476
238 2 4.11344 75.2162 5.15838
239 2 7.98266 75.1498 5.01548
240 2 12.0803 75.1372 5.14756
241 2 -0.0395317 79.2706 5.07385
242 2 4.03641 79.3257 5.21984
243 2 7.84157 79.284 5.12707
244 2 11.909 79.2533 5.20679
245 2 -0.0889992 83.3695 5.26455
246 2 3.94285 83.4606 5.37704
247 2 7.7837 83.3242 5.11041
248 2 11.6842 83.4418 5.06967
249 2 0.119386 87.457 5.40807
250 2 3.99127 87.3348 5.20716
251 2 7.85109 87.3396 5.18425
252 2 11.7408 87.3159 5.42109
253 2 -0.0236701 91.5317 5.33751
254 2 4.10836 91.2343 5.39849
255 2 8.05124 91.6273 5.35034
256 2 11.9575 91.2597 5.41715
257 2 15.8985 95.5638 5.45768
258 2 4.11125 95.2108 5.47889
259 2 7.95543 95.4226 5.53571
260 2 11.9086 95.402 5.55203
261 2 0.0106674 99.3688 5.22161
262 2 3.86821 99.2593 5.48661
263 2 7.74331 99.2226 5.31252
264 2 11.9031 99.4653 5.33195
265 2 0.0415451 103.296 5.22322
266 2 3.79902 103.104 5.38577
267 2 7.77836 103.168 5.42862
268 2 11.8263 103.271 5.31546
269 2 0.109203 107.251 5.30735
270 2 4.05747 106.961 5.29156
271 2 7.9263 107.098 5.29326
272 2 11.8779 106.926 5.22653
273 2 15.8273 110.945 5.16994
274 2 4.10064 110.827 5.26988
275 2 7.94335 110.99 5.29928
276 2 12.0195 110.947 5.3719
277 2 15.9249 114.849 5.23648
278 2 4.05371 114.97 5.15816
279 2 7.94255 114.866 5.02491
280 2 11.7329 114.883 5.21524
281 2 15.8455 118.928 4.90112
282 2 4.01884 118.941 5.18103
283 2 7.84552 118.878 5.15541
284 2 11.9542 118.932 5.06472
285 2 0.0666021 122.792 4.99343
286 2 3.87264 122.808 5.09499
287 2 7.78464 122.879 5.04185
288 2 11.9176 122.906 5.17448
289 2 0.139508 126.614 5.05125
290 2 3.97557 126.921 4.93749
291 2 7.9981 126.869 5.10836
292 2 12.0092 126.829 4.92112
293 2 0.128274 130.61 5.12435
294 2 4.11404 130.652 4.82159
295 2 8.10701 130.657 5.08126
296 2 11.8375 130.591 5.14103
297 2 16.1217 134.626 5.08428
298 2 4.1131 134.476 5.09782
299 2 7.98119 134.563 5.04627
300 2 12.0152 134.521 5.04042
301 2 0.138527 138.494 4.99619
302 2 3.90867 138.458 4.91803
303 2 7.88865 138.44 5.04873
304 2 11.7247 138.266 4.85555
305 2 0.0785854 142.149 5.0478
306 2 3.9887 142.407 4.94344
307 2 7.98872 142.419 4.98092
308 2 12.2027 142.485 4.90698
309 2 0.027766 146.272 4.91896
310 2 3.93425 146.256 4.9886
311 2 7.76789 146.368 4.77337
312 2 11.8658 146.326 5.10564
313 2 15.8832 150.109 4.80509
314 2 4.0004 150.195 4.77237
315 2 7.9443 150.075 4.67307
316 2 12.1135 150.207 4.87552
317 2 0.0495327 154.012 4.63974
318 2 3.67201 153.977 4.58082
319 2 7.78302 153.967 4.88698
320 2 11.9151 153.959 4.83316
321 2 -0.181911 158.006 8.79027
322 2 3.65416 157.89 8.76855
323 2 7.80746 158.223 8.70671
324 2 11.8346 157.909 8.66034
325 2 15.8218 3.64501 8.93951
326 2 3.87228 3.7383 8.74804
327 2 7.87236 3.78092 8.73194
328 2 12.0311 3.5311 8.78517
329 2 0.0529393 7.6395 8.72867
330 2 4.02838 7.43543 8.7177
331 2 7.74957 7.6521 8.3825
332 2 11.8079 7.70332 8.61819
333 2 -0.0881513 11.5769 8.60431
334 2 3.97458 11.6194 8.59483
335 2 7.6108 11.7109 8.66051
336 2 11.7534 11.5576 8.6059
337 2 -0.164914 15.4392 8.61833
338 2 3.71729 15.4564 8.41368
339 2 7.78477 15.4544 8.60715
340 2 11.746 15.3968 8.46701
341 2 -0.126756 19.315 8.34911
342 2 3.98929 19.253 8.36847
343 2 7.91717 19.3711 8.63197
344 2 11.8849 19.358 8.35029
345 2 -0.109723 23.1633 8.32708
346 2 4.04465 23.1097 8.56453
347 2 7.76657 23.2047 8.44221
348 2 11.7229 23.3437 8.42004
349 2 15.7581 27.1964 8.42204
350 2 3.85677 27.0377 8.39429
351 2 7.85085 27.2379 8.57106
352 2 11.9397 27.1617 8.63745
353 2 0.0281258 31.0178 8.30134
354 2 4.05306 30.951 8.34498
355 2 8.01154 30.9412 8.19946
356 2 11.9215 30.884 8.4575
357 2 15.8442 35.0704 8.44363
358 2 4.11798 34.981 8.43792
359 2 8.03888 35.1809 8.35488
360 2 11.889 34.9396 8.24493
361 2 15.7376 38.893 8.24177
362 2 3.96314 38.9022 8.61026
363 2 7.90718 39.0837 8.39779
364 2 11.8335 38.9003 8.47701
365 2 15.7226 42.9935 8.34898
366 2 3.98124 42.988 8.59245
367 2 7.73154 43.1103 8.70594
368 2 11.8158 43.0068 8.5718
369 2 15.9593 46.9138 8.58402
370 2 4.21042 47.1447 8.70312
371 2 7.90967 47.0317 8.6484
372 2 11.8699 47.1577 8.61793
373 2 -0.0864244 51.1145 8.65865
374 2 3.96289 51.1102 8.52285
375 2 7.94379 51.2089 8.53278
376 2 11.9649 51.0251 8.56055
377 2 0.0224737 55.0017 8.65469
378 2 3.99819 55.0241 8.78566
379 2 7.84879 55.1031 8.69614
380 2 11.633 55.1579 8.82676
381 2 15.6677 59.3126 8.86301
382 2 3.85929 59.1634 8.84552
383 2 7.87948 59.0962 8.82479
384 2 12.0774 59.2609 8.81689
385 2 15.8119 63.1936 9.09308
386 2 3.77392 63.1437 9.00736
387 2 7.88205 63.1901 8.65547
388 2 11.7601 63.1465 8.79436
389 2 -0.102102 67.1021 8.9421
390 2 3.71835 67.2408 8.96108
391 2 7.7604 67.2748 8.95855
392 2 11.7633 67.1966 8.88398
393 2 15.9394 71.1275 9.04055
394 2 4.00321 71.3733 8.9195
395 2 8.18191 71.1922 8.81891
396 2 12.0113 71.1274 8.77265
397 2 0.0917521 75.1734 9.23904
398 2 3.96045 75.3525 9.14598
399 2 8.02938 75.2379 9.04992
400 2 11.8286 75.3272 8.93566
401 2 15.9485 79.2501 9.21513
402 2 3.98716 79.3054 8.92304
403 2 8.05091 79.4947 8.98807
404 2 12.0112 79.3061 9.12004
405 2 15.9184 83.2606 9.03078
406 2 3.9526 83.428 9.08454
407 2 7.97574 83.2684 9.24212
408 2 11.8406 83.3267 9.07376
409 2 0.0825493 87.2126 9.13417
410 2 3.98556 87.4351 9.41638
411 2 7.85927 87.4648 9.08858
412 2 11.8898 87.3616 9.35542
413 2 0.0596162 91.2397 9.16337
414 2 4.00515 91.3386 9.48757
415 2 8.01666 91.559 9.41702
416 2 11.958 91.3829 9.33207
417 2 -0.104509 95.4068 9.3307
418 2 4.08897 95.2228 9.36774
419 2 8.0924 95.5959 9.37616
420 2 11.969 95.4422 9.31631
421 2 -0.109669 99.2597 9.32897
422 2 3.76385 99.2998 9.29609
423 2 7.88104 99.3754 9.33736
424 2 11.7107 99.6349 9.54563
425 2 0.0458796 103.291 9.38354
426 2 3.74463 103.317 9.40456
427 2 8.01532 103.266 9.49961
428 2 11.9321 103.223 9.5415
429 2 -0.0265325 107.086 9.33952
430 2 3.87486 107.052 9.35518
431 2 7.83196 107.155 9.2193
432 2 11.8527 107.256 9.35623
433 2 0.00934011 111.128 9.3094
434 2 4.04639 111.067 9.29262
435 2 7.87217 111.11 9.2494
436 2 11.9342 111.166 9.41007
437 2 15.8219 115.016 9.20442
438 2 3.86597 114.936 9.30774
439 2 7.79435 115.002 9.19109
440 2 11.9327 114.971 9.16008
441 2 -0.0417621 118.781 9.22051
442 2 3.7804 118.722 9.06447
443 2 7.89934 118.943 9.09237
444 2 11.7728 119.017 9.193
445 2 15.6501 122.85 9.21766
446 2 3.91089 122.836 9.28579
447 2 7.937 122.788 8.96665
448 2 11.8284 122.624 9.05181
449 2 -0.0947845 126.776 9.0521
450 2 3.83544 126.578 9.40807
451 2 7.81707 126.674 9.06384
452 2 12.0077 126.593 8.94251
453 2 15.9113 130.624 9.24409
454 2 3.91526 130.628 9.17769
455 2 7.79465 130.61 8.90028
456 2 11.8891 130.647 9.02051
457 2 15.8117 134.562 9.16426
458 2 3.9341 134.487 8.89597
459 2 8.0625 134.452 9.04909
460 2 11.9694 134.63 9.15153
461 2 0.187013 138.289 8.97742
462 2 3.98712 138.331 8.89057
463 2 8.01034 138.33 8.9802
464 2 11.9362 138.506 9.12298
465 2 0.211119 142.195 8.87587
466 2 3.88096 142.444 9.03983
467 2 7.97518 142.369 8.79733
468 2 11.9404 142.459 9.04919
469 2 15.8858 146.331 9.00089
470 2 3.93296 146.377 8.90358
471 2 7.92382 146.257 8.85663
472 2 11.9982 146.485 9.01924
473 2 0.0591342 150.389 8.96239
474 2 3.96045 150.067 8.94472
475 2 7.58282 150.18 8.69702
476 2 11.8722 150.451 8.95038
477 2 -0.0350833 154.058 8.80643
478 2 4.06456 154.109 8.85217
479 2 7.79169 154.159 8.8028
480 2 11.6276 154.039 8.65637
481 2 15.8702 158.256 12.8035
482 2 4.02988 157.927 12.7211
483 2 8.08208 158.086 12.8015
484 2 11.871 157.99 12.8118
485 2 -0.0236231 3.71217 12.8156
486 2 4.07113 3.34762 12.7406
487 2 7.91091 3.69027 12.7902
488 2 11.7819 3.85184 12.7937
489 2 15.8296 7.54062 12.8123
490 2 3.85593 7.54595 12.7192
491 2 8.03614 7.37326 12.7853
492 2 12.04 7.7343 12.6577
493 2 15.5975 11.5235 12.5589
494 2 4.03347 11.4254 12.5667
495 2 7.96433 11.5757 12.6054
496 2 11.6703 11.4831 12.6788
497 2 15.7506 15.4872 12.5501
498 2 3.87658 15.4056 12.5349
499 2 7.76421 15.3756 12.5366
500 2 11.635 15.4234 12.5972
501 2 15.6185 19.2796 12.5424
502 2 3.86878 19.2228 12.5549
503 2 7.89778 19.2066 12.463
504 2 11.8795 19.4032 12.5364
505 2 15.6213 23.372 12.458
506 2 3.75864 23.1123 12.5615
507 2 7.89229 23.16 12.3266
508 2 11.9444 23.0794 12.5479
509 2 0.125978 27.2605 12.4029
510 2 3.83216 27.0632 12.3872
511 2 7.81307 27.0196 12.4654
512 2 11.8251 27.1573 12.4377
513 2 15.9291 31.1631 12.4699
514 2 3.95763 31.0185 12.3733
515 2 7.8365 31.0207 12.2568
516 2 11.7493 30.9861 12.2679
517 2 -0.005526 34.9888 12.4637
518 2 3.97017 35.005 12.4739
519 2 7.79757 34.988 12.3112
520 2 11.8407 34.8606 12.2304
521 2 0.0191583 38.9299 12.423
522 2 3.84069 38.8473 12.4514
523 2 7.83505 39.0885 12.2065
524 2 11.8302 38.8899 12.4882
525 2 -0.088206 43.0061 12.4991
526 2 3.83182 43.0043 12.4131
527 2 8.02273 42.9503 12.5696
528 2 11.8335 42.8093 12.5328
529 2 0.182931 46.8977 12.3115
530 2 4.26419 47.2908 12.5596
531 2 8.17676 47.1233 12.4325
532 2 11.9915 47.0958 12.4991
533 2 15.8536 50.9179 12.5018
534 2 3.92974 51.0374 12.4614
535 2 8.02153 50.9553 12.5743
536 2 12.0359 51.0258 12.6717
537 2 0.0803409 55.1223 12.5142
538 2 3.95906 55.0079 12.6054
539 2 7.88172 55.1212 12.5836
540 2 11.8797 54.997 12.6928
541 2 15.6515 59.1273 12.7767
542 2 3.93826 59.0946 12.8369
543 2 7.85959 59.0387 12.6091
544 2 11.8754 59.0549 12.6423
545 2 15.7309 63.0115 12.8504
546 2 4.13659 63.1979 12.9455
547 2 8.18721 63.2451 12.6301
548 2 11.813 63.1258 12.6931
549 2 -0.119132 67.2819 12.7707
550 2 4.0216 67.155 12.7323
551 2 7.86838 66.9715 12.8497
552 2 11.902 67.0601 12.7077
553 2 0.0566319 71.0536 12.9875
554 2 3.93752 71.1349 12.9159
555 2 8.15715 71.2072 12.9342
556 2 11.8909 71.2658 12.8644
557 2 0.0425381 75.017 12.9706
558 2 4.16531 75.2793 12.8902
559 2 7.85815 75.2125 13.0462
560 2 11.9633 75.2033 12.9405
561 2 15.884 79.1351 13.1755
562 2 4.1325 79.2427 13.0073
563 2 7.98416 79.2348 13.1898
564 2 12.0129 79.3131 13.0751
565 2 0.00533428 83.2125 13.0881
566 2 3.78056 83.254 12.8705
567 2 7.87235 83.2594 12.9015
568 2 11.9261 83.2236 12.9358
569 2 15.8677 87.1622 13.2982
570 2 4.12725 87.1468 13.1319
571 2 7.98561 87.2304 13.0297
572 2 11.8987 87.1841 13.1957
573 2 -0.0906578 91.1418 13.3196
574 2 3.85693 91.1922 13.3339
575 2 7.84058 91.4012 13.4573
576 2 11.8945 91.0792 13.3189
577 2 -0.0470138 95.2996 13.2529
578 2 3.92457 95.2491 13.2888
579 2 7.84851 95.2174 13.2589
580 2 11.9234 95.4459 13.3207
581 2 -0.00437248 99.1628 13.2661
582 2 3.78539 99.4582 13.47
583 2 7.84413 99.1936 13.077
584 2 11.9392 99.2992 13.4906
585 2 15.8834 103.137 13.4419
586 2 4.06017 103.162 13.3956
587 2 7.9601 103.234 13.3942
588 2 11.9117 103.161 13.4451
589 2 15.8248 107.262 13.5576
590 2 4.04106 107.003 13.4296
591 2 7.80379 107.23 13.4136
592 2 11.8253 107.266 13.1966
593 2 0.141459 111 13.427
594 2 4.14457 110.993 13.39
595 2 8.05637 111.213 13.4155
596 2 11.8777 111.222 13.3691
597 2 0.0354169 114.83 13.389
598 2 3.91245 115.119 13.2112
599 2 7.73045 115.198 13.2686
600 2 11.8689 115.082 13.1608
601 2 15.9441 119.036 13.2234
602 2 3.97278 118.913 13.1761
603 2 7.79929 118.998 13.0967
604 2 11.8852 118.813 13.1408
605 2 15.7585 122.847 13.3473
606 2 3.94205 122.882 13.1981
607 2 8.02545 122.813 13.2574
608 2 12.0684 122.737 13.06
609 2 -0.123567 126.945 13.1447
610 2 3.8043 126.73 13.1466
611 2 8.04328 126.664 13.064
612 2 11.9478 126.752 13.0327
613 2 15.7482 130.783 13.171
614 2 4.13671 130.803 13.0853
615 2 8.05139 130.568 12.8788
616 2 11.7804 130.757 13.1727
617 2 0.0134532 134.601 13.2282
618 2 3.92395 134.595 13.0091
619 2 7.91654 134.476 13.0458
620 2 11.8718 134.582 13.0212
621 2 0.200859 138.496 12.9093
622 2 4.09765 138.685 12.9591
623 2 8.07424 138.455 12.9564
624 2 12.0776 138.663 13.0928
625 2 16.0251 142.465 12.9945
626 2 4.10087 142.405 13.0343
627 2 7.85484 142.399 13.0206
628 2 12.0531 142.578 13.1808
629 2 15.9316 146.423 13.0561
630 2 3.96075 146.287 13.0827
631 2 7.88995 146.152 12.8984
632 2 11.9733 146.369 12.8705
633 2 -0.173647 150.197 12.8803
634 2 3.94013 150.2 12.9589
635 2 7.84269 150.224 13.1604
636 2 11.8864 150.35 12.8129
637 2 -0.11638 154.092 12.7435
638 2 3.81201 154.206 12.9727
639 2 7.69982 154.074 12.8662
640 2 11.8234 154.208 12.7726
641 2 0.14991 158.062 16.7443
642 2 4.0419 157.943 16.8006
643 2 7.82316 158.245 16.9585
644 2 11.9299 158.119 16.7806
645 2 15.8688 3.81486 16.7178
646 2 4.00451 3.68915 16.7747
647 2 7.83531 3.55574 16.9644
648 2 12.0755 3.68299 16.8091
649 2 16.0943 7.55792 16.6638
650 2 4.13442 7.70628 16.5767
651 2 7.70734 7.59788 16.7217
652 2 11.9241 7.66781 16.7584
653 2 0.111457 11.5502 16.6245
654 2 4.08998 11.8277 16.5172
655 2 7.95401 11.5925 16.7956
656 2 11.8485 11.6115 16.6377
657 2 0.0611398 15.5511 16.5708
658 2 3.79247 15.382 16.5643
659 2 7.79895 15.6345 16.5964
660 2 11.8255 15.3586 16.7276
661 2 15.6752 19.5252 16.6805
662 2 3.88182 19.2473 16.4614
663 2 7.78558 19.2393 16.3967
664 2 11.8101 19.2939 16.4732
665 2 0.0832312 23.293 16.5651
666 2 3.81751 23.0075 16.4389
667 2 7.68382 23.2268 16.4679
668 2 11.7808 23.0607 16.5307
669 2 15.7178 27.2498 16.3276
670 2 3.78035 27.1441 16.2951
671 2 7.70159 27.0707 16.4147
672 2 11.8306 27.0623 16.3994
673 2 15.8444 31.0728 16.4827
674 2 4.02988 31.1246 16.4287
675 2 7.98604 31.1138 16.41
676 2 11.8211 31.1626 16.4989
677 2 15.8795 35.118 16.4526
678 2 4.28672 34.9752 16.4272
679 2 8.17582 34.9778 16.1891
680 2 11.8477 35.1125 16.3047
681 2 15.8725 38.9114 16.3858
682 2 4.01464 38.8857 16.3239
683 2 8.03079 38.9675 16.3319
684 2 11.8534 38.9191 16.3202
685 2 0.0752143 42.8808 16.3841
686 2 3.84585 42.9921 16.3973
687 2 7.77603 42.8083 16.3102
688 2 11.9327 42.9255 16.3712
689 2 15.7345 46.8689 16.3697
690 2 4.13069 46.8617 16.3937
691 2 8.0487 46.9375 16.5494
692 2 11.9075 46.8075 16.5805
693 2 15.7422 50.7641 16.5788
694 2 3.81559 50.8377 16.4749
695 2 8.06437 51.0184 16.4886
696 2 12.0265 50.9257 16.6169
697 2 15.9058 54.8989 16.5301
698 2 3.82998 54.8451 16.4141
699 2 7.63851 54.8991 16.4862
700 2 11.6558 55.0606 16.703
701 2 15.7101 59.1595 16.4569
702 2 3.88437 59.0085 16.6563
703 2 8.03087 58.9518 16.4898
704 2 11.8191 58.9592 16.6714
705 2 15.7823 63.052 16.7604
706 2 3.96836 62.9619 16.5807
707 2 8.05471 63.0077 16.567
708 2 11.9514 63.049 16.6606
709 2 0.0499728 67.1851 16.8223
710 2 3.80958 67.0534 16.6446
711 2 7.77759 67.1154 16.7165
712 2 11.7959 67.1179 16.8749
713 2 -0.065545 71.0172 16.7774
714 2 3.86415 71.0952 16.7663
715 2 7.77631 71.0713 16.9638
716 2 12.1363 70.9272 16.7095
717 2 15.7645 75.0785 16.8933
718 2 4.15062 75.2573 16.864
719 2 8.04608 75.1504 16.8826
720 2 11.7928 75.0382 16.7731
721 2 0.0301084 79.1567 16.995
722 2 4.00368 79.3281 16.908
723 2 7.9551 79.1627 17.0313
724 2 12.0074 79.1309 17.0355
725 2 -0.0367242 83.0631 16.9177
726 2 4.08726 83.3308 16.8987
727 2 8.08318 83.1242 16.9031
728 2 11.6709 83.2655 17.0663
729 2 0.12105 87.2382 17.0934
730 2 4.0803 87.2251 17.0788
731 2 7.98987 87.2683 17.1165
732 2 11.9772 87.2158 17.1157
733 2 -0.0081284 91.3083 17.284
734 2 4.02197 91.2255 17.0377
735 2 8.11331 91.4497 17.3153
736 2 11.8883 91.4252 17.1337
737 2 15.8957 95.2217 17.1734
738 2 3.91756 95.1779 17.059
739 2 7.8595 95.1553 17.1345
740 2 11.8754 95.4132 17.1511
741 2 15.6558 99.1227 17.1658
742 2 3.90787 99.1047 17.3084
743 2 7.72528 99.1348 17.1362
744 2 11.7391 99.0791 17.2254
745 2 15.6976 103.291 17.1797
746 2 4.14485 103.151 17.5079
747 2 7.87884 103.34 17.3169
748 2 11.7233 103.276 17.2993
749 2 15.8569 106.97 17.3547
750 2 3.74551 107.153 17.581
751 2 8.04705 107.412 17.5256
752 2 12.0233 107.277 17.2615
753 2 -0.0814389 111.059 17.4366
754 2 3.87432 110.996 17.3156
755 2 7.97593 111.191 17.3378
756 2 12.0489 111.201 17.3895
757 2 15.8687 115.026 17.3898
758 2 3.83071 114.99 17.4114
759 2 7.98334 115.197 17.3666
760 2 11.9378 115.31 17.2859
761 2 -0.0534121 119.061 17.2978
762 2 3.94519 119.173 17.1657
763 2 8.00143 119.236 17.2377
764 2 11.8165 118.917 17.3329
765 2 0.00127741 122.673 17.2083
766 2 4.03979 122.983 17.1426
767 2 7.84639 122.89 17.1679
768 2 11.8693 122.794 17.244
769 2 0.190373 126.712 17.2963
770 2 4.0725 126.919 17.2433
771 2 8.06995 126.687 17.2083
772 2 11.8492 126.682 17.3223
773 2 15.7035 130.701 16.9978
774 2 4.31384 130.782 17.0806
775 2 7.9709 130.754 17.1692
776 2 11.9279 130.601 17.3865
777 2 15.8037 134.586 17.1564
778 2 3.82826 134.753 17.1713
779 2 7.84199 134.753 17.18
780 2 11.8999 134.528 17.0418
781 2 15.7952 138.601 17.1118
782 2 3.98929 138.488 17.0318
783 2 7.8044 138.501 17.1388
784 2 12.0596 138.637 17.1124
785 2 15.8672 142.601 16.9676
786 2 4.0009 142.487 17.017
787 2 7.98521 142.346 17.2329
788 2 12.0082 142.35 17.102
789 2 -0.111226 146.45 17.0238
790 2 3.86178 146.271 16.9591
791 2 8.02029 146.201 17.0366
792 2 11.8869 146.338 16.9454
793 2 16.0663 150.307 16.739
794 2 3.97876 150.347 17.1057
795 2 7.96511 150.103 16.9278
796 2 11.8487 150.198 16.9239
797 2 -0.068664 154.187 16.8162
798 2 3.91238 154.1 16.915
799 2 7.99144 154.126 16.9786
800 2 11.9303 154.136 16.8381
801 2 15.6976 158.234 20.8367
802 2 3.88279 158.22 20.8194
803 2 7.94335 -0.24234 20.8692
804 2 11.8815 158.151 20.669
805 2 15.7641 3.62198 20.7335
806 2 4.0724 3.85802 20.9281
807 2 7.94994 3.72504 20.752
808 2 11.9058 3.76236 20.7526
809 2 15.8127 7.72887 20.7005
810 2 4.02074 7.71673 20.8281
811 2 7.8743 7.71595 20.6656
812 2 11.913 7.60796 20.5494
813 2 -0.0775394 11.4217 20.6961
814 2 3.8548 11.6641 20.7731
815 2 7.93841 11.5264 20.644
816 2 11.8496 11.5453 20.5772
817 2 15.8171 15.4656 20.6267
818 2 3.82238 15.476 20.5555
819 2 7.79487 15.4977 20.5589
820 2 11.9647 15.3958 20.5562
821 2 -0.0429544 19.5313 20.5774
822 2 4.014 19.5133 20.5978
823 2 7.89727 19.1656 20.4785
824 2 11.7582 19.3824 20.4581
825 2 15.9495 23.4293 20.6397
826 2 3.94545 23.24 20.5693
827 2 8.0507 23.3877 20.5855
828 2 11.7955 23.235 20.5875
829 2 -0.0923659 27.3263 20.5591
830 2 3.93653 27.269 20.4867
831 2 7.81082 27.125 20.3291
832 2 11.8852 27.0038 20.3645
833 2 15.934 31.2613 20.4862
834 2 4.1902 31.1 20.3838
835 2 8.22434 31.1801 20.424
836 2 11.869 30.9465 20.4772
837 2 0.0460961 35.0168 20.322
838 2 4.11171 35.2179 20.3711
839 2 8.03913 35.1324 20.3206
840 2 11.8374 35.088 20.454
841 2 15.9635 39.0131 20.288
842 2 4.05005 39.0753 20.264
843 2 8.04097 39.1436 20.4217
844 2 11.8766 39.0287 20.2625
845 2 0.0792424 42.7275 20.3716
846 2 3.93424 42.8341 20.334
847 2 7.89555 43.1381 20.532
848 2 11.8136 42.8083 20.1983
849 2 0.0439869 46.6868 20.3621
850 2 3.75047 46.7949 20.3242
851 2 7.79635 46.8803 20.5058
852 2 11.9465 46.8815 20.5082
853 2 -0.155889 50.7747 20.34
854 2 3.82009 50.8436 20.6424
855 2 7.80745 50.5807 20.4464
856 2 11.9974 50.9605 20.4233
857 2 15.7966 54.8434 20.3824
858 2 4.07582 54.7757 20.625
859 2 7.9436 54.7332 20.5127
860 2 11.8813 54.9003 20.4695
861 2 15.8787 58.8307 20.491
862 2 3.93828 58.9256 20.4016
863 2 7.94138 58.9085 20.5156
864 2 12.0573 58.8957 20.6987
865 2 15.992 62.9442 20.6877
866 2 4.0007 62.8457 20.5896
867 2 7.89293 62.9225 20.6474
868 2 11.9229 62.9053 20.4813
869 2 15.9262 67.1226 20.6592
870 2 3.97008 66.9042 20.6194
871 2 7.8331 67.091 20.5774
872 2 11.8693 67.0271 20.5435
873 2 0.0216576 71.1019 20.8364
874 2 4.01671 71.1857 20.6171
875 2 7.86254 70.9329 20.7989
876 2 11.8632 71.0663 20.7562
877 2 15.5808 75.0489 20.9567
878 2 3.95738 75.1025 20.7118
879 2 8.00447 75.1072 20.8835
880 2 11.6778 75.1811 20.6923
881 2 0.0673875 78.9314 20.8446
882 2 4.02854 79.1492 21.0286
883 2 7.93404 79.0208 20.7732
884 2 11.8973 79.1753 20.832
885 2 0.0493553 83.0903 20.8411
886 2 4.03459 83.0729 21.0275
887 2 7.92159 83.0109 21.0342
888 2 11.8321 82.9956 20.9473
889 2 15.8489 87.051 20.9336
890 2 4.03169 87.1939 20.8907
891 2 7.84494 87.2191 20.9186
892 2 11.9585 87.0625 21.0241
893 2 16.0102 91.1665 20.8584
894 2 3.97686 91.0514 21.0101
895 2 7.92057 91.2633 21.0745
896 2 11.7595 91.1421 21.1322
897 2 -0.068925 94.9873 21.1972
898 2 3.98648 95.1263 20.9852
899 2 7.96664 95.1826 20.9023
900 2 12.0261 95.1962 21.1267
901 2 15.8996 99.0208 21.3373
902 2 4.01373 99.1693 20.9921
903 2 8.05631 99.2416 21.0922
904 2 12.036 99.2106 21.1012
905 2 0.177063 103.146 21.1688
906 2 4.02877 103.146 21.1084
907 2 7.97658 103.302 21.1457
908 2 11.9348 103.268 20.9266
909 2 15.9275 107.251 21.5879
910 2 3.95894 107.353 21.5463
911 2 8.09181 107.247 21.5155
912 2 11.8543 107.505 21.3138
913 2 15.8844 111.117 21.45
914 2 3.96303 111.093 21.3957
915 2 7.74676 111.034 21.3664
916 2 11.8384 111.227 21.3869
917 2 0.228454 115.083 21.2686
918 2 4.16434 115.062 21.1604
919 2 8.06321 115.187 21.3383
920 2 11.8511 115.024 21.4671
921 2 15.7622 118.965 21.4189
922 2 4.03842 118.947 21.0236
923 2 7.82268 119.021 21.3738
924 2 11.8524 118.944 21.2711
925 2 15.8637 122.965 21.3725
926 2 3.95062 122.8 21.1547
927 2 7.80513 122.896 21.3295
928 2 11.8992 123.038 21.3786
929 2 0.152646 126.864 21.2257
930 2 3.92647 126.96 21.3228
931 2 8.02128 126.76 21.2839
932 2 11.8856 126.902 21.3555
933 2 0.0752409 130.697 21.0726
934 2 3.90723 130.787 21.1754
935 2 7.92718 130.758 21.1011
936 2 11.7693 130.944 21.2046
937 2 15.8384 134.536 21.2715
938 2 3.9384 134.702 21.0876
939 2 7.95106 134.754 21.2034
940 2 12.0018 134.815 21.1377
941 2 -0.0726584 138.55 21.1772
942 2 3.71329 138.542 21.0601
943 2 7.77836 138.62 20.9793
944 2 11.6974 138.746 21.1378
945 2 15.7696 142.431 21.2032
946 2 3.87853 142.619 21.0517
947 2 7.73823 142.55 21.1488
948 2 11.8918 142.54 21.1071
949 2 15.818 146.568 21.0057
950 2 4.00991 146.223 21.1236
951 2 7.87183 146.48 21.1445
952 2 11.9854 146.639 20.8777
953 2 15.8676 150.478 20.9413
954 2 4.09789 150.353 20.8735
955 2 7.8843 150.382 21.0381
956 2 11.9451 150.4 20.9202
957 2 -0.177532 154.329 20.9458
958 2 4.0275 154.432 20.8077
959 2 7.76688 154.352 20.7585
960 2 11.8555 154.393 20.8418
961 2 -0.0196771 158.256 24.8586
962 2 4.11302 158.23 24.9687
963 2 8.1274 158.282 25.0555
964 2 12.1068 158.342 25.0035
965 2 0.0288413 3.68689 24.9836
966 2 4.26252 3.73027 24.651
967 2 7.99585 3.73784 24.8955
968 2 11.8438 3.72766 24.706
969 2 15.7954 7.73459 24.8106
970 2 3.90513 7.75705 24.8579
971 2 8.0379 7.84494 24.8194
972 2 11.8208 7.69226 24.7502
973 2 15.937 11.6955 24.891
974 2 4.05288 11.5727 24.607
975 2 7.95249 11.633 24.6245
976 2 11.9341 11.5942 24.7487
977 2 15.8601 15.571 24.4588
978 2 3.86521 15.3857 24.7188
979 2 7.92595 15.742 24.5951
980 2 11.7785 15.5461 24.5363
981 2 -0.172289 19.4693 24.6964
982 2 3.92997 19.4178 24.5813
983 2 7.98146 19.6341 24.5666
984 2 11.7964 19.4767 24.6579
985 2 15.6606 23.391 24.4735
986 2 3.92039 23.2692 24.4336
987 2 7.8064 23.313 24.5914
988 2 11.7738 23.3085 24.5886
989 2 15.8859 27.3139 24.6032
990 2 4.00891 27.4177 24.5263
991 2 7.8402 27.1864 24.3815
992 2 11.8265 27.268 24.5721