ITEM: TIMESTEP
24900
ITEM: NUMBER OF ATOMS
32000
ITEM: BOX BOUNDS xy xz yz pp pp pp
0.0000000000000000e+00 1.5832000000000001e+01 0.0000000000000000e+00
0.0000000000000000e+00 1.5831999999999999e+02 0.0000000000000000e+00
8.6520316224572014e-01 1.6011191483774920e+02 0.0000000000000000e+00
ITEM: ATOMS id type x y z
1 2 0.0867521 157.852 159.963
2 2 4.01052 157.764 159.898
3 2 7.94241 158.049 160.072
4 2 11.7044 158.01 159.886
5 2 -0.0805271 3.62134 159.941
6 2 3.85572 3.43747 159.874
7 2 7.67283 3.57146 159.977
8 2 11.6403 3.53258 160.05
9 2 15.722 7.45752 159.869
10 2 3.854 7.44081 159.884
11 2 7.81641 7.51383 159.838
12 2 11.7806 7.55306 159.931
13 2 0.0268141 11.4971 159.859
14 2 4.04739 11.2538 159.8
15 2 7.98191 11.6736 159.895
16 2 11.806 11.3402 159.699
17 2 -0.033903 15.283 159.807
18 2 3.95663 15.342 159.944
19 2 7.93647 15.4649 159.741
20 2 12.0561 15.2132 159.758
21 2 0.0233753 19.1102 159.63
22 2 4.00391 19.2293 159.92
23 2 7.72803 19.1151 159.79
24 2 12.0713 19.133 159.775
25 2 0.0200991 23.0577 159.793
26 2 3.9771 23.0476 159.615
27 2 7.88348 23.0706 159.713
28 2 11.856 23.0887 159.878
29 2 -0.0407007 27.1296 159.98
30 2 3.87578 27.2114 159.763
31 2 7.94993 27.0968 159.651
32 2 11.9228 27.1389 159.783
33 2 15.8708 31.1462 159.651
34 2 4.05534 31.0623 159.66
35 2 8.0622 31.2159 159.789
36 2 11.8284 31.0209 159.64
37 2 15.8785 35.0446 159.731
38 2 3.86086 34.9904 159.752
39 2 8.02143 35.0615 159.742
40 2 11.9002 35.112 159.872
41 2 0.102532 39.0906 159.84
42 2 3.97176 38.9813 159.865
43 2 7.8814 39.104 159.727
44 2 11.9436 39.0771 160.034
45 2 15.7304 43.1751 159.923
46 2 4.05902 43.1755 0.817676
47 2 7.88797 43.0809 160.144
48 2 11.8945 43.2525 159.96
49 2 15.7871 47.0865 160.106
50 2 3.9294 47.2762 160.067
51 2 7.79161 47.2283 159.982
52 2 11.7678 47.3211 160.156
53 2 15.7276 51.2183 0.861555
54 2 3.90317 51.2497 160.297
55 2 7.94895 51.1044 160.174
56 2 11.7538 51.0905 0.668632
57 2 15.6102 55.2192 0.953306
58 2 3.85131 55.1365 0.805238
59 2 7.95685 55.2091 1.14725
60 2 11.6584 55.1789 0.965297
61 2 0.0770987 59.207 1.02786
62 2 4.09395 59.288 1.11421
63 2 7.78999 59.5268 0.977858
64 2 11.8339 59.1792 1.21696
65 2 -0.174172 63.2555 1.03424
66 2 4.08561 63.4166 1.03115
67 2 7.99394 63.4872 1.20834
68 2 11.6998 63.221 1.31131
69 2 15.778 67.447 1.0766
70 2 4.05245 67.2983 0.933446
71 2 7.9665 67.3162 1.35334
72 2 11.8322 67.3502 1.29859
73 2 0.183681 71.2645 1.27712
74 2 3.93667 71.3335 1.24968
75 2 7.91405 71.2392 1.18612
76 2 11.6734 71.3658 1.36564
77 2 -0.0754265 75.4621 1.40435
78 2 3.786 75.4258 1.43889
79 2 7.95421 75.3272 1.11156
80 2 11.7699 75.3396 1.34378
81 2 0.0409521 79.5189 1.474
82 2 3.88683 79.4289 1.26595
83 2 7.96106 79.2993 1.40223
84 2 11.8821 79.3906 1.27644
85 2 0.105133 83.377 1.63109
86 2 3.79223 83.415 1.68093
87 2 7.86458 83.5577 1.67083
88 2 11.9221 83.5145 1.48195
89 2 0.110709 87.238 1.55881
90 2 4.13817 87.4261 1.45554
91 2 8.0646 87.5345 1.6681
92 2 12.1454 87.5324 1.51478
93 2 15.7886 91.4565 1.47856
94 2 3.80159 91.2733 1.50678
95 2 7.86232 91.4161 1.48932
96 2 11.8112 91.3708 1.58721
97 2 15.8312 95.4113 1.34837
98 2 3.88141 95.2214 1.58602
99 2 7.93385 95.2828 1.56545
100 2 11.9375 95.4691 1.49687
101 2 15.9435 99.1222 1.4073
102 2 4.04912 99.0284 1.47567
103 2 8.1159 99.3543 1.45591
104 2 11.9827 99.4611 1.48127
105 2 0.124801 103.067 1.36863
106 2 3.96093 103.164 1.45685
107 2 7.84553 103.206 1.54809
108 2 11.9443 103.164 1.28289
109 2 15.8211 107.162 1.38287
110 2 3.97898 107.003 1.38907
111 2 7.92787 107.012 1.32424
112 2 11.7488 107.276 1.44663
113 2 15.8477 111.234 1.40228
114 2 3.99959 111.071 1.28375
115 2 7.91152 111.108 1.29628
116 2 11.6716 110.948 1.46605
117 2 15.7631 115.163 1.11769
118 2 3.70673 114.983 1.10155
119 2 7.73165 114.932 1.10789
120 2 11.9116 115.059 1.1928
121 2 -0.145007 118.982 1.23036
122 2 4.00621 119.024 1.2125
123 2 7.80454 118.748 1.11916
124 2 11.6989 118.833 1.24817
125 2 -0.105709 122.882 1.19021
126 2 4.03885 122.817 1.11695
127 2 7.93851 122.778 1.19209
128 2 11.7511 122.953 1.08767
129 2 -0.0640547 126.759 1.21634
130 2 3.75776 126.685 1.05538
131 2 7.80929 126.63 1.11616
132 2 11.8552 126.72 1.04953
133 2 -0.155745 130.533 1.16929
134 2 3.7357 130.586 1.01159
135 2 7.89243 130.502 1.2476
136 2 11.7368 130.536 1.00765
137 2 15.7794 134.338 1.07266
138 2 3.83376 134.603 160.269
139 2 7.93816 134.255 0.954869
140 2 12.0245 134.51 1.04071
141 2 15.9256 138.474 1.07591
142 2 4.06211 138.511 0.931443
143 2 7.8193 138.414 1.03697
144 2 11.6822 138.241 0.935261
145 2 -0.0657218 142.256 0.788678
146 2 3.87828 142.29 0.844637
147 2 7.93964 142.231 0.926144
148 2 11.8812 142.376 0.951442
149 2 -0.0135044 146.323 0.913466
150 2 3.88027 146.194 160.353
151 2 7.85787 146.165 0.879931
152 2 11.9045 146.098 160.213
153 2 0.0374307 150.14 160.105
154 2 3.89568 150.137 160.033
155 2 8.06989 150.214 0.962658
156 2 11.7871 150.003 0.828485
157 2 0.0783955 154.24 159.973
158 2 4.06917 154.119 159.996
159 2 7.87225 154.117 160.039
160 2 11.9096 154.127 160.167
161 2 -0.0215874 158.14 4.77656
162 2 4.09013 -0.344773 4.88466
163 2 7.91365 157.955 4.89328
164 2 11.8942 158.103 4.82013
165 2 0.00688399 3.5706 4.70305
166 2 3.84841 3.52321 4.8036
167 2 7.8625 3.70196 4.75966
168 2 11.727 3.59058 4.75873
169 2 -0.0440135 7.56111 4.63572
170 2 3.8343 7.44852 4.55282
171 2 7.7984 7.57701 4.69502
172 2 11.7569 7.59711 4.79416
173 2 0.272292 11.4759 4.72876
174 2 3.99505 11.208 4.4867
175 2 7.8353 11.5253 4.57772
176 2 12.004 11.3934 4.7232
177 2 0.00227867 15.2749 4.68919
178 2 4.06136 15.2163 4.6825
179 2 8.19019 15.2644 4.68652
180 2 11.8504 15.0887 4.65886
181 2 0.219281 19.185 4.51398
182 2 3.96651 19.1011 4.56742
183 2 7.97515 19.1882 4.58879
184 2 12.036 19.1653 4.45051
185 2 0.0371097 23.0248 4.5049
186 2 4.08281 23.1157 4.46861
187 2 8.06277 23.2178 4.44457
188 2 11.7972 22.9983 4.36863
189 2 0.0931762 27.1074 4.59342
190 2 3.8651 27.0793 4.48569
191 2 7.84594 27.0017 4.301
192 2 11.9118 26.8666 4.55008
193 2 -0.0107574 30.8884 4.34936
194 2 3.96916 31.0608 4.52611
195 2 7.78548 31.1235 4.43013
196 2 11.8036 31.0441 4.57923
197 2 15.8502 35.0945 4.65564
198 2 3.85713 34.9393 4.3924
199 2 7.83545 35.1442 4.45935
200 2 11.987 35.0336 4.51963
201 2 -0.0168914 39.1111 4.54758
202 2 4.17245 38.9706 4.65473
203 2 8.01163 38.9491 4.61878
204 2 11.7574 39.1615 4.49489
205 2 15.8556 43.0928 4.59374
206 2 3.9956 42.9804 4.68571
207 2 7.92109 43.0686 4.72089
208 2 11.7393 43.1515 4.64744
209 2 15.8331 47.1593 4.52897
210 2 4.01539 47.1907 4.69812
211 2 8.04947 47.0069 4.81128
212 2 11.741 47.0793 4.75115
213 2 15.7919 51.163 4.9756
214 2 3.89333 51.0688 4.77189
215 2 7.92418 51.1023 4.82392
216 2 11.925 51.0322 4.62926
217 2 0.00548361 55.1298 5.06783
218 2 3.98024 55.2446 4.72928
219 2 7.85926 55.0996 5.02583
220 2 11.7916 55.1778 4.79729
221 2 15.9029 59.1428 4.91222
222 2 3.92088 59.107 4.86069
223 2 7.77003 59.2412 5.02975
224 2 11.8687 58.9874 4.88758
225 2 15.9441 63.3361 5.0772
226 2 4.01912 63.3294 5.02982
227 2 7.88715 63.1785 4.99967
228 2 11.8294 63.2227 5.17077
229 2 0.128141 67.139 4.94858
230 2 4.0359 67.1519 5.05876
231 2 7.80765 67.3972 5.16075
232 2 12.0253 67.2025 5.23387
233 2 -0.0886861 71.2166 5.26237
234 2 3.82021 71.3515 5.13747
235 2 7.78693 71.3167 5.19752
236 2 12.0451 71.2349 5.1697
237 2 15.8183 75.514 5.4029
238 2 4.05912 75.4021 5.20546
239 2 7.92414 75.2296 5.03158
240 2 11.8755 75.2314 5.30966
241 2 -0.0975213 79.2675 5.28943
242 2 3.96402 79.2902 5.15687
243 2 7.70827 79.222 5.03961
244 2 11.8162 79.2432 5.5404
245 2 -0.07801 83.422 5.43468
246 2 4.15363 83.3465 5.51741
247 2 7.9573 83.2694 5.40516
248 2 11.9288 83.5149 5.38279
249 2 0.010957 87.5815 5.54208
250 2 4.1774 87.4964 5.50703
251 2 7.93421 87.4348 5.5475
252 2 11.9699 87.2827 5.51518
253 2 -0.186847 91.5892 5.40092
254 2 3.78192 91.2539 5.44897
255 2 7.75374 91.5243 5.57455
256 2 11.9086 91.2409 5.46252
257 2 15.9006 95.5127 5.5615
258 2 3.94037 95.2469 5.59849
259 2 7.9182 95.3745 5.44235
260 2 11.945 95.3351 5.56103
261 2 0.220453 99.3646 5.49835
262 2 3.95155 99.2401 5.46906
263 2 8.0315 99.1239 5.49665
264 2 11.97 99.51 5.46301
265 2 0.0168308 103.363 5.38343
266 2 4.0586 103.098 5.56167
267 2 7.86891 103.2 5.56808
268 2 11.8032 103.196 5.40623
269 2 -0.0299626 107.133 5.35032
270 2 3.9741 106.955 5.48594
271 2 7.93946 107.162 5.38886
272 2 11.8377 107.014 5.34077
273 2 15.7697 111.071 5.32765
274 2 3.82123 110.919 5.36284
275 2 7.8467 111.095 5.2526
276 2 11.8682 110.993 5.36382
277 2 15.6936 115.039 5.26674
278 2 3.82399 114.851 5.29139
279 2 7.94179 114.897 5.13007
280 2 11.7095 114.954 5.31695
281 2 15.9939 118.87 5.09126
282 2 4.02696 119.076 5.22027
283 2 7.9494 118.917 5.26258
284 2 11.9867 118.828 5.32211
285 2 0.159316 122.792 5.30293
286 2 4.01924 122.849 5.31072
287 2 7.76929 122.778 5.08902
288 2 11.8311 122.894 5.24202
289 2 0.0353512 126.597 5.14229
290 2 3.92313 126.865 5.19232
291 2 7.72649 126.787 5.20401
292 2 11.9366 126.761 5.02153
293 2 -0.0148921 130.566 5.13228
294 2 4.00015 130.688 5.06406
295 2 7.85958 130.494 4.9969
296 2 11.7965 130.407 5.15289
297 2 16.029 134.594 5.13766
298 2 3.97129 134.557 4.99071
299 2 7.79596 134.478 5.03745
300 2 11.9553 134.372 5.03063
301 2 -0.0969334 138.473 4.72446
302 2 3.92664 138.529 4.92956
303 2 7.83314 138.626 4.89402
304 2 11.7227 138.262 4.92317
305 2 -0.00184877 142.262 5.01777
306 2 4.05156 142.598 4.87654
307 2 8.10556 142.331 4.94547
308 2 12.0845 142.287 4.95392
309 2 -0.100423 146.199 5.04081
310 2 3.71198 146.375 4.86469
311 2 7.83514 146.347 4.92017
312 2 11.7801 146.209 5.10769
313 2 15.7091 150.181 4.81758
314 2 3.96182 150.215 4.93152
315 2 8.00454 150.132 4.79621
316 2 12.0734 150.194 4.96199
317 2 0.114799 153.953 4.75502
318 2 3.90662 154.002 4.7408
319 2 7.86719 154.098 5.00662
320 2 12.0365 154.019 4.89831
321 2 0.0602046 158.09 8.70689
322 2 3.89821 158.119 8.81275
323 2 7.93471 158.292 8.72841
324 2 11.9565 157.906 8.69652
325 2 15.8301 3.60074 8.83123
326 2 3.93109 3.69432 8.72816
327 2 7.86822 3.74626 8.84704
328 2 12.0458 3.56013 8.92471
329 2 0.136061 7.39771 8.7324
330 2 4.01405 7.57165 8.81945
331 2 7.80334 7.55282 8.57997
332 2 11.8158 7.56661 8.62964
333 2 0.20885 11.6635 8.77863
334 2 4.07954 11.4573 8.7097
335 2 7.82079 11.4239 8.84725
336 2 11.8442 11.3031 8.82749
337 2 0.0762577 15.3806 8.85345
338 2 4.11374 15.4389 8.46335
339 2 8.02142 15.4952 8.56343
340 2 12.0128 15.2922 8.61391
341 2 -0.00751151 19.33 8.51036
342 2 4.06016 19.2949 8.53207
343 2 7.94072 19.2692 8.65625
344 2 11.9464 19.4492 8.44377
345 2 0.117779 22.9852 8.34995
346 2 4.16605 23.1415 8.53712
347 2 7.90561 23.2101 8.39628
348 2 11.8018 23.2224 8.45277
349 2 15.7814 26.9006 8.42371
350 2 3.98278 27.0106 8.46943
351 2 7.98337 27.0998 8.45237
352 2 11.9217 26.9939 8.59111
353 2 -0.0378852 31.0298 8.39766
354 2 4.04005 30.9691 8.39674
355 2 8.05826 30.9891 8.19417
356 2 11.877 30.8975 8.58418
357 2 15.8417 35.0581 8.63192
358 2 4.05959 34.8487 8.45969
359 2 7.97085 35.0105 8.45783
360 2 12.0255 35.0538 8.51904
361 2 15.8286 38.8839 8.40888
362 2 3.8601 39.0321 8.61396
363 2 7.91687 38.9763 8.43384
364 2 11.9788 38.9119 8.67895
365 2 15.8503 42.9303 8.45036
366 2 3.90965 42.9436 8.56105
367 2 7.80343 43.0376 8.58194
368 2 12.0089 42.9047 8.66169
369 2 15.838 46.9141 8.7152
370 2 4.05525 46.963 8.56799
371 2 7.89031 47.0459 8.77572
372 2 11.9044 47.0034 8.71936
373 2 -0.238358 51.0826 8.70071
374 2 3.77429 51.0812 8.62157
375 2 7.90654 51.1452 8.69888
376 2 11.841 51.0655 8.76667
377 2 -0.0100689 55.0958 8.83513
378 2 4.13994 55.1914 8.96955
379 2 8.0233 55.1306 8.78205
380 2 11.9166 55.0199 8.87808
381 2 15.8952 59.1471 8.74184
382 2 3.98605 59.0312 8.90155
383 2 7.87052 59.114 8.83886
384 2 12.0094 59.2714 8.83651
385 2 15.9205 63.094 8.95533
386 2 4.04227 63.0819 8.91898
387 2 7.86021 62.9847 8.83437
388 2 11.6116 63.0055 8.80415
389 2 -0.0135629 67.0657 8.95576
390 2 3.97467 67.3558 8.96627
391 2 7.85663 67.22 9.14683
392 2 11.9344 67.0529 9.08952
393 2 15.8922 71.103 9.05773
394 2 4.1429 71.1517 9.00041
395 2 8.08412 71.2668 9.05889
396 2 11.8489 71.2404 9.13672
397 2 -0.120591 75.1575 9.35252
398 2 3.84918 75.3624 9.14632
399 2 7.84404 75.333 9.16561
400 2 11.7451 75.2969 9.24739
401 2 15.9727 79.231 9.3166
402 2 3.86074 79.2187 9.08049
403 2 8.0529 79.2997 9.13428
404 2 11.6645 79.2156 9.20606
405 2 15.9219 83.2032 9.24664
406 2 4.01591 83.2179 9.46724
407 2 8.03402 83.2959 9.32619
408 2 11.9479 83.3127 9.25222
409 2 -0.114484 87.3953 9.33725
410 2 3.89573 87.4042 9.49716
411 2 7.89039 87.404 9.09874
412 2 11.8232 87.3457 9.39073
413 2 -0.0521839 91.5286 9.37898
414 2 3.81047 91.3542 9.52994
415 2 7.82507 91.4154 9.50589
416 2 11.7302 91.4898 9.41836
417 2 -0.0517952 95.1918 9.58649
418 2 4.03469 95.1886 9.6205
419 2 8.2711 95.5075 9.56162
420 2 12.0219 95.4427 9.54498
421 2 -0.108865 99.1497 9.3333
422 2 4.02422 99.233 9.53082
423 2 7.95967 99.2149 9.44877
424 2 11.8749 99.4541 9.69097
425 2 -0.106512 103.267 9.50053
426 2 3.9455 103.269 9.5686
427 2 8.03139 103.194 9.37372
428 2 11.9792 103.232 9.52221
429 2 -0.207827 107.072 9.47525
430 2 3.83618 107.228 9.47875
431 2 7.72095 107.234 9.33279
432 2 11.8188 107.088 9.47784
433 2 -0.0410982 111.103 9.33929
434 2 3.86469 111.037 9.51274
435 2 7.89283 111.106 9.34401
436 2 11.8467 111.158 9.41566
437 2 15.9268 115.079 9.20821
438 2 3.8378 114.873 9.29305
439 2 7.97879 114.985 9.31237
440 2 11.9501 115.082 9.19505
441 2 -0.0318538 119.09 9.40821
442 2 3.99275 118.955 9.33397
443 2 8.04846 119.078 9.12212
444 2 12.0259 118.914 9.20292
445 2 15.8737 122.814 9.25525
446 2 4.06089 122.834 9.28334
447 2 8.16101 122.967 9.17351
448 2 11.9135 122.95 9.33837
449 2 0.145493 126.835 9.21198
450 2 3.91528 126.649 9.28264
451 2 8.08778 126.869 9.17451
452 2 11.9964 126.652 8.98939
453 2 15.9619 130.674 9.04574
454 2 3.98474 130.731 9.14623
455 2 8.02417 130.753 9.02366
456 2 12.1199 130.823 9.11429
457 2 15.5992 134.535 8.90224
458 2 3.96585 134.658 8.89404
459 2 7.84236 134.638 8.9771
460 2 11.9837 134.707 9.03754
461 2 -0.158689 138.49 8.86867
462 2 4.14294 138.587 9.0358
463 2 7.859 138.529 8.91355
464 2 11.75 138.554 9.13405
465 2 -0.0446845 142.317 8.95192
466 2 3.92456 142.722 8.91525
467 2 7.95514 142.261 8.9253
468 2 11.7656 142.391 9.04269
469 2 15.5787 146.284 8.90811
470 2 3.96662 146.4 9.16481
471 2 7.98648 146.301 8.89048
472 2 11.8356 146.284 9.04669
473 2 0.186595 150.383 9.05105
474 2 4.03638 150.236 8.94176
475 2 7.84718 150.217 8.97144
476 2 11.7547 150.293 9.01784
477 2 0.251759 154.21 8.90242
478 2 4.3271 154.105 8.87524
479 2 8.03713 154.137 9.10165
480 2 11.7388 154.122 8.90666
481 2 15.9008 158.131 12.8613
482 2 4.09564 157.984 12.8609
483 2 8.13629 158.161 12.914
484 2 11.9315 157.944 12.7977
485 2 -0.164464 3.63415 12.8535
486 2 3.91124 3.53411 12.7578
487 2 7.85671 3.84654 12.8847
488 2 11.5838 3.88851 12.8707
489 2 15.6504 7.60019 12.8414
490 2 3.75952 7.71764 12.8187
491 2 7.87601 7.44442 12.5749
492 2 11.9123 7.74129 12.6775
493 2 15.6391 11.6885 12.6348
494 2 3.95521 11.5246 12.6135
495 2 8.06066 11.4048 12.7436
496 2 11.8823 11.5773 12.7161
497 2 15.8893 15.5482 12.5981
498 2 3.83068 15.4994 12.66
499 2 8.02352 15.4901 12.6384
500 2 11.8848 15.5046 12.5849
501 2 15.7718 19.342 12.5081
502 2 3.86806 19.4852 12.5807
503 2 8.09278 19.3814 12.6048
504 2 12.0774 19.4938 12.5441
505 2 15.8661 23.11 12.2559
506 2 3.79748 23.3011 12.5268
507 2 8.01508 23.3233 12.5307
508 2 11.9496 23.2208 12.6996
509 2 0.0410369 27.2122 12.4685
510 2 4.02078 27.0587 12.5119
511 2 7.96385 27.2302 12.668
512 2 11.9838 27.1238 12.62
513 2 15.8033 31.0669 12.3804
514 2 4.04131 30.9766 12.312
515 2 7.89759 31.0607 12.4502
516 2 11.7404 31.1029 12.5824
517 2 -0.107699 34.784 12.5329
518 2 3.87336 34.8937 12.5269
519 2 7.82776 35.0109 12.4315
520 2 11.6481 34.8309 12.3098
521 2 0.0444146 39.003 12.3063
522 2 3.93023 39.0397 12.5274
523 2 7.85516 39.0146 12.2718
524 2 11.8711 38.7501 12.3888
525 2 -0.0537246 43.1118 12.5232
526 2 3.78025 42.9808 12.4536
527 2 8.07577 42.9065 12.5736
528 2 12.0149 42.9609 12.4438
529 2 0.162177 46.9676 12.4507
530 2 3.93202 47.0974 12.5687
531 2 7.99393 47.0833 12.4634
532 2 11.8007 46.9005 12.646
533 2 15.6764 50.9835 12.7769
534 2 3.80574 50.925 12.6176
535 2 7.89835 50.9643 12.5363
536 2 11.9675 51.0965 12.7226
537 2 0.0633088 55.0023 12.6142
538 2 3.94516 55.1299 12.628
539 2 7.90513 55.1351 12.7095
540 2 11.9855 55.1137 12.9031
541 2 15.9371 58.9695 12.801
542 2 3.92625 59.1493 12.8571
543 2 7.80702 59.0669 12.8162
544 2 11.9404 58.9693 12.7665
545 2 15.8785 63.0775 13.0244
546 2 4.22969 63.0839 12.9753
547 2 8.05806 63.1345 12.7756
548 2 11.8519 63.1365 12.7562
549 2 0.0143903 66.9941 12.6976
550 2 4.09712 67.1141 12.817
551 2 7.88531 67.1843 12.9809
552 2 11.9441 67.1085 13.0065
553 2 -0.0168591 71.0491 13.0664
554 2 3.90297 71.1526 12.9118
555 2 7.98981 71.1143 13.1282
556 2 11.8109 71.0559 13.0796
557 2 -0.0447029 75.006 13.0449
558 2 3.92636 75.039 12.9355
559 2 7.86232 75.1143 13.0521
560 2 11.811 75.4193 12.9282
561 2 15.8555 79.0765 13.2973
562 2 3.98707 79.1594 12.9322
563 2 7.82195 79.1147 13.0517
564 2 11.7621 79.0383 13.1933
565 2 -0.0968708 83.1551 13.2734
566 2 3.72432 83.1193 13.1617
567 2 7.89977 83.2427 13.2925
568 2 11.9163 83.2338 13.1339
569 2 15.6472 87.3133 13.3822
570 2 4.02292 87.1468 13.3886
571 2 7.9004 87.1607 13.4573
572 2 12.0145 87.1621 13.139
573 2 -0.0304579 91.109 13.3528
574 2 3.90313 91.1671 13.2666
575 2 7.89057 91.1141 13.3173
576 2 11.8486 91.0167 13.1759
577 2 0.178063 95.1441 13.4894
578 2 4.01927 95.3488 13.4749
579 2 7.91943 95.2436 13.2498
580 2 12.0354 95.2334 13.48
581 2 0.345174 99.3796 13.3288
582 2 4.06779 99.449 13.4938
583 2 8.11473 99.215 13.3913
584 2 12.0919 99.4595 13.704
585 2 16.0429 103.216 13.5265
586 2 4.16007 103.13 13.4364
587 2 7.99642 103.349 13.5372
588 2 11.8306 103.269 13.5667
589 2 15.8256 107.304 13.5464
590 2 4.07393 107.169 13.4471
591 2 7.91579 107.3 13.5038
592 2 11.7528 107.194 13.1779
593 2 0.112869 111.156 13.5497
594 2 4.15119 111.036 13.3935
595 2 7.99053 111.154 13.3887
596 2 11.8545 111.31 13.4644
597 2 -0.0964659 114.941 13.4629
598 2 4.00843 115.093 13.3452
599 2 7.85876 115.067 13.5027
600 2 11.8581 115.108 13.1086
601 2 15.9145 118.971 13.2859
602 2 4.12265 118.904 13.1589
603 2 7.88314 118.802 13.1214
604 2 11.8281 118.765 13.2677
605 2 15.737 122.978 13.5166
606 2 4.13905 122.88 13.1587
607 2 7.95129 122.98 13.1986
608 2 11.9824 123.01 13.0476
609 2 -0.0414395 127.033 13.2374
610 2 3.88422 126.776 13.2766
611 2 8.11564 126.708 13.1651
612 2 12.0182 126.845 13.3128
613 2 16.0443 130.746 13.2819
614 2 4.10035 130.663 13.0952
615 2 8.15061 130.599 12.9185
616 2 11.9514 130.82 13.2027
617 2 0.0101049 134.593 13.3042
618 2 3.9345 134.737 13.1446
619 2 7.92049 134.578 13.011
620 2 11.7959 134.6 13.1372
621 2 0.0683578 138.564 12.9939
622 2 4.03608 138.669 12.9537
623 2 7.97524 138.491 13.083
624 2 11.8704 138.689 13.092
625 2 15.8544 142.462 12.8484
626 2 4.00367 142.423 12.9732
627 2 7.85725 142.37 12.8789
628 2 11.7975 142.451 12.9714
629 2 15.7481 146.534 12.9207
630 2 3.88244 146.443 12.9932
631 2 7.87068 146.35 12.9466
632 2 11.8303 146.347 12.8864
633 2 -0.0949889 150.272 13.0337
634 2 4.08541 150.362 13.1039
635 2 7.96083 150.236 13.0859
636 2 11.8583 150.332 12.9336
637 2 0.0795333 154.272 12.9589
638 2 3.9499 154.347 12.9734
639 2 7.91651 154.188 13.0302
640 2 11.9569 154.343 12.7152
641 2 0.114785 158.071 16.9364
642 2 4.01159 158.039 16.7767
643 2 7.84364 158.384 16.8703
644 2 11.772 158.173 16.6635
645 2 15.7742 3.78113 17.0256
646 2 3.71226 3.76742 16.8711
647 2 7.87887 3.79745 16.8109
648 2 11.7528 3.70438 16.8676
649 2 15.8949 7.62012 16.7991
650 2 3.87468 7.92414 16.7402
651 2 7.61281 7.81241 16.7516
652 2 11.9018 7.62805 16.7019
653 2 0.134182 11.4761 16.7029
654 2 4.19774 11.759 16.4765
655 2 7.99255 11.5892 16.7317
656 2 11.9287 11.6244 16.7639
657 2 0.100506 15.6902 16.6073
658 2 3.85967 15.2239 16.5936
659 2 7.90927 15.4239 16.5739
660 2 11.9044 15.288 16.6654
661 2 15.7501 19.4071 16.8516
662 2 4.07891 19.4523 16.6698
663 2 7.89199 19.4621 16.5172
664 2 11.8872 19.3435 16.6363
665 2 0.172014 23.4219 16.7941
666 2 4.09264 23.1215 16.6514
667 2 7.8891 23.341 16.5644
668 2 11.9423 23.2503 16.6686
669 2 15.7691 27.2105 16.5062
670 2 4.03427 27.291 16.5929
671 2 7.92319 27.3571 16.5502
672 2 11.8959 27.1816 16.5732
673 2 15.6139 31.1183 16.6021
674 2 3.84533 31.024 16.3957
675 2 7.83309 31.2973 16.6343
676 2 11.7101 31.1149 16.5033
677 2 15.7483 34.8892 16.3231
678 2 3.956 34.944 16.3881
679 2 7.97199 35.113 16.4102
680 2 11.8648 34.9319 16.3852
681 2 15.9536 38.8875 16.4601
682 2 4.06812 38.7255 16.302
683 2 7.9 39.0383 16.3787
684 2 11.9162 38.9499 16.2732
685 2 -0.00420172 42.9635 16.318
686 2 3.92311 42.8458 16.3665
687 2 7.69368 42.8658 16.3451
688 2 11.9757 42.8492 16.3405
689 2 15.8022 46.8955 16.4569
690 2 4.05 46.848 16.4536
691 2 8.00505 46.8578 16.5192
692 2 11.8397 46.7119 16.614
693 2 15.901 50.8541 16.5624
694 2 3.9392 51.0515 16.642
695 2 7.94366 51.0119 16.5261
696 2 11.9131 51.0415 16.4182
697 2 15.8601 55.0119 16.7284
698 2 3.91029 54.925 16.6381
699 2 7.77796 54.9597 16.6475
700 2 11.6859 55.0715 16.7742
701 2 15.9146 59.0398 16.5503
702 2 3.9316 59.1158 16.7172
703 2 8.09949 59.0861 16.6151
704 2 11.7724 58.9738 16.8865
705 2 15.8963 63.1214 16.8146
706 2 3.99462 62.9665 16.7158
707 2 7.90907 62.8757 16.7997
708 2 11.9966 62.9465 16.6981
709 2 0.0762238 66.857 16.7824
710 2 3.83648 66.8605 16.7703
711 2 7.87795 67.0375 16.8589
712 2 11.7681 66.9221 16.9198
713 2 0.0456583 71.0877 16.9545
714 2 3.83887 71.108 16.7295
715 2 7.89055 70.894 16.9532
716 2 11.9462 70.8952 16.7818
717 2 15.8999 75.1112 17.2042
718 2 3.94919 74.9437 16.8722
719 2 7.89662 74.9896 16.8045
720 2 11.7976 74.8801 16.9206
721 2 0.0628556 78.9761 17.1859
722 2 3.79374 79.3381 17.155
723 2 7.71606 79.1093 16.8222
724 2 12.0006 79.1952 16.9021
725 2 0.017926 83.095 17.2005
726 2 3.89613 83.3154 17.1442
727 2 7.91982 83.0848 16.9444
728 2 11.753 83.1558 17.0252
729 2 -0.0378683 87.1764 17.2192
730 2 4.01509 87.0719 17.1818
731 2 7.91911 87.1571 17.2741
732 2 11.8639 87.1982 17.2057
733 2 -0.223084 91.1861 17.2463
734 2 3.99285 90.9883 17.1202
735 2 7.89255 91.2378 17.2481
736 2 11.7498 91.2723 17.108
737 2 15.8096 95.221 17.3111
738 2 3.84724 95.3602 17.3127
739 2 7.88499 95.1617 17.3022
740 2 11.8158 95.2848 17.1083
741 2 15.8154 99.2085 17.3638
742 2 4.04369 99.138 17.4279
743 2 8.0872 99.305 17.4655
744 2 11.7785 99.1694 17.4624
745 2 15.8231 103.352 17.2361
746 2 4.00144 103.254 17.472
747 2 7.93498 103.297 17.426
748 2 11.8615 103.192 17.4113
749 2 15.8627 107.036 17.5126
750 2 3.87941 107.251 17.607
751 2 7.92136 107.364 17.4294
752 2 12.0308 107.195 17.288
753 2 -0.0560396 111.275 17.4647
754 2 3.96974 111.171 17.4265
755 2 7.96661 111.25 17.3266
756 2 12.0495 111.287 17.3968
757 2 15.9761 115.234 17.3647
758 2 3.93762 115.263 17.4391
759 2 7.82124 115.079 17.3329
760 2 11.8603 115.266 17.4104
761 2 0.077331 119.082 17.3301
762 2 3.97613 119.003 17.2196
763 2 8.0856 118.986 17.1687
764 2 12.0173 119.03 17.3324
765 2 -0.0046803 122.809 17.2974
766 2 4.08405 123.163 17.1218
767 2 8.02947 122.962 17.1647
768 2 11.897 122.877 17.29
769 2 0.0485378 126.781 17.2824
770 2 3.86531 126.928 17.1987
771 2 7.84656 126.911 17.2125
772 2 11.9258 126.818 17.3747
773 2 15.9003 130.616 17.1885
774 2 4.20822 130.859 17.0481
775 2 7.96974 130.862 17.2092
776 2 11.9495 130.697 17.3728
777 2 15.7674 134.888 17.2513
778 2 3.873 134.871 17.1629
779 2 7.8809 134.833 17.0738
780 2 11.7113 134.615 17.0745
781 2 15.8199 138.61 17.0373
782 2 3.99319 138.61 17.0555
783 2 8.03217 138.478 16.8798
784 2 11.9966 138.566 16.9606
785 2 15.9854 142.514 17.0621
786 2 3.99293 142.456 16.9929
787 2 8.10259 142.346 17.0407
788 2 12.0506 142.417 16.9789
789 2 -0.183233 146.381 16.9965
790 2 3.93514 146.391 17.057
791 2 7.95417 146.382 16.8132
792 2 11.8422 146.26 16.9784
793 2 16.0331 150.335 16.8356
794 2 4.02419 150.22 17.1291
795 2 7.98681 150.211 16.9943
796 2 11.8371 150.339 16.86
797 2 -0.0138483 154.179 16.9581
798 2 4.08456 154.289 16.9998
799 2 7.96667 154.163 16.8364
800 2 11.9329 154.112 16.8919
801 2 15.7158 158.234 20.8632
802 2 3.79122 158.294 20.9176
803 2 7.85473 -0.121421 20.9408
804 2 11.7448 158.204 20.9613
805 2 15.8579 3.62172 20.814
806 2 3.83645 4.00761 20.9326
807 2 7.95312 3.95658 20.9259
808 2 11.6904 3.88163 20.7432
809 2 15.873 7.70125 20.7565
810 2 3.86992 7.67612 20.8566
811 2 7.98634 7.87735 20.7312
812 2 11.9713 7.68971 20.726
813 2 -0.0356663 11.6052 20.7715
814 2 4.03223 11.5978 20.7182
815 2 8.06878 11.6313 20.7082
816 2 12.0101 11.647 20.7556
817 2 15.8171 15.5744 20.8002
818 2 3.86919 15.6113 20.767
819 2 7.86677 15.514 20.6617
820 2 12.1275 15.544 20.831
821 2 -0.0184376 19.4843 20.7865
822 2 4.14513 19.4804 20.7124
823 2 7.78883 19.3411 20.614
824 2 11.8863 19.5103 20.6099
825 2 15.9366 23.511 20.8171
826 2 4.14647 23.371 20.559
827 2 8.09387 23.4612 20.6174
828 2 11.954 23.2438 20.6727
829 2 0.0935422 27.354 20.5603
830 2 3.91159 27.2019 20.5362
831 2 7.90025 27.2765 20.4403
832 2 11.9905 27.1458 20.5226
833 2 15.7294 31.1828 20.5867
834 2 3.89505 31.2964 20.4634
835 2 8.0998 31.1551 20.5228
836 2 11.8874 30.8777 20.5927
837 2 -0.13156 35.019 20.3937
838 2 3.767 35.0307 20.4119
839 2 7.79229 35.0749 20.4456
840 2 11.9384 35.1341 20.3875
841 2 15.8418 38.8618 20.3187
842 2 3.88264 39.0143 20.3193
843 2 7.91384 39.0502 20.2795
844 2 12.0357 39.0219 20.207
845 2 -0.00920308 42.8327 20.3926
846 2 3.94338 42.8722 20.5139
847 2 7.96452 42.9151 20.4187
848 2 11.8592 42.852 20.1384
849 2 0.134691 46.6803 20.3007
850 2 3.91128 47.0093 20.2698
851 2 8.0989 46.8274 20.3543
852 2 11.8719 46.8569 20.3621
853 2 0.104243 50.7847 20.3068
854 2 3.98155 50.7859 20.618
855 2 7.83788 50.7102 20.3317
856 2 11.9341 50.9956 20.5541
857 2 15.7577 54.9435 20.4019
858 2 3.97315 55.0363 20.6082
859 2 7.81409 54.9845 20.5573
860 2 11.7369 54.8697 20.5828
861 2 15.713 58.8962 20.5989
862 2 4.028 58.8171 20.478
863 2 7.7981 58.8225 20.7189
864 2 11.7026 58.984 20.729
865 2 15.8285 63.061 20.6799
866 2 4.13955 62.86 20.6667
867 2 7.79922 62.9627 20.8431
868 2 11.7895 62.8994 20.6786
869 2 16.0155 66.8757 20.854
870 2 4.09458 66.9361 20.8146
871 2 7.9752 66.9398 20.777
872 2 11.9309 66.8875 20.7652
873 2 0.165202 71.0665 20.8286
874 2 4.02965 71.0435 20.7001
875 2 8.02103 70.8177 20.8449
876 2 11.9475 70.9373 20.8397
877 2 15.8009 74.9183 20.9674
878 2 3.97856 74.9807 20.6904
879 2 7.99475 74.8264 20.7105
880 2 11.8573 74.8669 20.7793
881 2 0.0516947 78.9121 21.061
882 2 3.94396 79.0485 20.802
883 2 7.85254 78.9441 20.7162
884 2 12.044 79.1345 20.8763
885 2 0.0505495 82.9711 21.0074
886 2 3.99309 83.1109 21.0667
887 2 7.96632 83.0137 20.9305
888 2 11.9662 83.0793 20.9871
889 2 15.7038 87.1766 20.9476
890 2 3.96492 87.0301 21.0774
891 2 8.02714 87.0624 21.0055
892 2 11.9914 86.9246 21.1836
893 2 15.739 91.0355 21.1066
894 2 3.9296 91.1636 21.0995
895 2 7.83464 91.1232 21.196
896 2 11.6872 90.9619 21.2045
897 2 0.0694744 94.8343 21.2902
898 2 3.73672 95.1423 21.2621
899 2 7.91592 95.1106 21.1405
900 2 11.8871 95.1152 21.1164
901 2 15.8992 99.2041 21.4297
902 2 4.01987 99.1582 21.2144
903 2 8.10393 99.1931 21.2839
904 2 12.0478 99.3517 21.2374
905 2 0.0117103 103.116 21.2356
906 2 3.99471 103.207 21.2709
907 2 7.90254 103.364 21.3914
908 2 12.1074 103.261 21.2016
909 2 15.8437 107.155 21.4729
910 2 4.00905 107.285 21.5022
911 2 8.02672 107.151 21.2479
912 2 11.9014 107.342 21.3441
913 2 15.7999 111.212 21.5029
914 2 3.97096 111.374 21.325
915 2 7.9502 111.265 21.1907
916 2 12.0511 111.398 21.2317
917 2 0.0915436 115.168 21.3732
918 2 4.12912 115.189 21.3577
919 2 7.91072 115.264 21.4978
920 2 11.8591 115.043 21.5252
921 2 15.81 119.069 21.4827
922 2 4.15594 119.103 21.2299
923 2 7.9632 119.127 21.4355
924 2 11.8044 119.127 21.2291
925 2 15.8475 122.837 21.2432
926 2 4.01632 122.926 21.2394
927 2 7.85445 122.972 21.4299
928 2 11.9662 123.118 21.1968
929 2 0.0570846 126.952 21.2621
930 2 3.85867 126.992 21.269
931 2 7.88659 126.662 21.2509
932 2 11.8842 126.958 21.3854
933 2 -0.0916056 130.673 21.1557
934 2 3.95154 130.795 21.2635
935 2 7.78336 130.605 21.1162
936 2 11.9317 130.768 21.3196
937 2 15.8112 134.678 21.3031
938 2 3.95009 134.619 21.2662
939 2 8.14411 134.74 21.1796
940 2 11.9776 134.666 21.1392
941 2 0.18621 138.66 21.2169
942 2 4.01211 138.821 20.929
943 2 8.07395 138.618 21.0073
944 2 11.8432 138.771 21.1566
945 2 15.7634 142.478 21.1075
946 2 4.07165 142.636 21.0097
947 2 7.9622 142.599 21.1421
948 2 11.9129 142.682 21.0391
949 2 15.7635 146.523 20.9854
950 2 3.84473 146.307 20.9393
951 2 7.90745 146.498 21.0445
952 2 11.9562 146.392 20.9642
953 2 15.7913 150.491 21.0229
954 2 4.03926 150.186 20.8348
955 2 7.97952 150.45 20.8499
956 2 11.8933 150.552 20.933
957 2 -0.0780294 154.355 20.9991
958 2 4.05429 154.429 20.8995
959 2 7.81763 154.244 20.8363
960 2 11.8102 154.197 20.8627
961 2 -0.0459298 158.115 24.9263
962 2 3.94463 158.116 24.9695
963 2 7.96028 158.058 25.0727
964 2 11.9088 158.227 24.9607
965 2 0.0210729 3.85509 24.9183
966 2 4.1113 3.73124 24.7425
967 2 7.82772 3.75418 24.8784
968 2 11.8111 3.82669 24.7698
969 2 15.7229 7.57878 24.8973
970 2 3.8602 7.70026 24.8396
971 2 7.92254 7.79386 24.9851
972 2 11.8701 7.7077 24.8239
973 2 15.8876 11.7188 24.8818
974 2 4.08659 11.5208 24.9096
975 2 7.94702 11.7503 24.8228
976 2 11.9579 11.6115 24.6625
977 2 16.0334 15.6896 24.6661
978 2 4.01193 15.4226 24.7023
979 2 7.84358 15.6019 24.7143
980 2 11.7936 15.4715 24.7435
981 2 0.0618354 19.3958 24.7172
982 2 4.09721 19.2839 24.7294
983 2 7.92046 19.5678 24.7217
984 2 11.8954 19.6204 24.7035
985 2 15.9491 23.3829 24.5982
986 2 3.85163 23.2922 24.5688
987 2 7.88405 23.3728 24.6219
988 2 11.9123 23.4332 24.5598
989 2 15.9726 27.3296 24.708
990 2 3.89609 27.5497 24.5871
991 2 7.9476 27.3929 24.5868
992 2 11.9808 27.4047 24.7068
993 2 15.7839 31.19 24.5685