ITEM: TIMESTEP
31400
ITEM: NUMBER OF ATOMS
28125
ITEM: BOX BOUNDS xy xz yz pp pp pp
0.0000000000000000e+00 5.9369999999999997e+01 0.0000000000000000e+00
0.0000000000000000e+00 5.9369999999999997e+01 0.0000000000000000e+00
9.2254030215542571e-02 9.9407745969784031e+01 0.0000000000000000e+00
ITEM: ATOMS id type x y z
1 2 -0.125815 -0.143636 0.437007
2 2 3.97262 -0.0611348 0.337172
3 2 7.88057 -0.337023 0.42222
4 2 11.9478 -0.157412 0.324765
5 2 16.0021 0.040398 0.375462
6 2 19.9672 -0.0186188 0.444796
7 2 23.8262 -0.127555 0.472567
8 2 27.6939 -0.213558 0.395984
9 2 31.5694 -0.0766937 0.280086
10 2 35.7013 -0.19923 0.12321
11 2 39.6395 59.2091 0.375779
12 2 43.5273 -0.219621 0.315904
13 2 47.7433 0.026126 0.25761
14 2 51.6378 -0.0589455 0.327656
15 2 55.4791 59.2693 0.485308
16 2 0.0861208 3.80355 0.420224
17 2 3.81366 3.81182 0.280582
18 2 7.89654 3.60873 0.20446
19 2 11.889 3.93334 0.319906
20 2 15.9437 4.00525 0.363344
21 2 19.7154 3.93755 0.532502
22 2 23.9175 3.8048 0.194424
23 2 27.6661 3.71262 0.583761
24 2 31.816 3.74909 0.46008
25 2 35.7891 3.84742 0.229842
26 2 39.7859 3.85462 0.219027
27 2 43.7868 3.80577 0.371284
28 2 47.7035 3.71096 0.378089
29 2 51.5146 3.78618 0.459821
30 2 55.4788 3.79677 0.300253
31 2 -0.00911561 7.75156 0.415721
32 2 4.09288 7.48076 0.472977
33 2 7.86634 7.58877 0.40041
34 2 11.9331 7.82965 0.155291
35 2 15.9318 7.65879 0.419326
36 2 19.8459 7.99612 0.314829
37 2 23.9058 7.88963 0.296802
38 2 27.7182 7.86358 0.257074
39 2 31.8358 7.78658 0.25336
40 2 35.947 7.79533 0.31679
41 2 39.5887 7.81571 0.500325
42 2 43.7923 7.85558 0.415462
43 2 47.8042 8.02507 0.359734
44 2 51.6259 7.90969 0.207307
45 2 55.4196 7.76291 0.314889
46 2 59.5315 11.6002 0.209427
47 2 4.09061 11.5064 0.338741
48 2 8.04653 11.6195 0.296805
49 2 11.8758 11.947 0.339417
50 2 15.608 11.6741 0.387089
51 2 19.8743 12.0439 0.319352
52 2 23.9331 11.7634 0.412443
53 2 27.8574 11.8139 0.329874
54 2 31.6426 11.918 0.237613
55 2 35.5327 11.8796 0.267304
56 2 39.6164 11.625 0.266796
57 2 43.8256 11.568 0.269838
58 2 47.6902 11.6304 0.298505
59 2 51.5396 11.7246 0.276564
60 2 55.4151 11.8119 0.409536
61 2 0.232294 15.8397 0.124016
62 2 4.19285 15.6181 0.13843
63 2 8.04437 15.7732 0.22713
64 2 11.9305 15.5168 0.397591
65 2 15.8817 15.756 0.500068
66 2 19.9173 15.7337 0.186395
67 2 23.8372 15.6392 0.353404
68 2 27.7909 15.7922 0.386407
69 2 31.5888 15.8498 0.291948
70 2 35.669 15.796 0.363284
71 2 39.742 15.5101 0.268261
72 2 43.6474 15.5142 0.402911
73 2 47.6256 15.5083 0.30039
74 2 51.5644 15.7056 0.421146
75 2 55.5582 15.7353 0.434493
76 2 59.4851 19.5786 0.306889
77 2 4.05425 19.5156 0.308996
78 2 8.09015 19.4803 0.142484
79 2 11.9636 19.7046 0.299813
80 2 16.0878 19.5674 0.435536
81 2 19.9323 19.5583 0.357791
82 2 23.8363 19.6249 0.293155
83 2 27.7983 19.6188 0.353256
84 2 31.8595 19.8035 0.511998
85 2 35.8496 19.5751 0.277146
86 2 39.7325 19.5885 0.284326
87 2 43.5713 19.4681 0.404046
88 2 47.5752 19.4387 0.385856
89 2 51.4139 19.5404 0.308216
90 2 55.3659 19.5385 0.47753
91 2 0.0845075 23.5507 0.225473
92 2 4.02114 23.6663 0.517118
93 2 7.85476 23.4754 0.207243
94 2 11.8379 23.6134 0.322084
95 2 16.039 23.6829 0.292372
96 2 20.0764 23.6511 0.280769
97 2 23.8507 23.7186 0.411722
98 2 27.669 23.7703 0.400915
99 2 31.6629 23.7378 0.371181
100 2 35.7146 23.6193 0.276872
101 2 39.5944 23.4935 0.319317
102 2 43.7043 23.2971 0.0678176
103 2 47.7486 23.5964 0.157846
104 2 51.4186 23.5265 0.415571
105 2 55.4846 23.5925 0.414838
106 2 0.0329511 27.5413 0.377305
107 2 3.81321 27.611 0.210181
108 2 8.18991 27.5056 0.21427
109 2 11.9198 27.4624 0.35796
110 2 15.9152 27.5477 0.305654
111 2 20.0555 27.4802 0.406353
112 2 23.8952 27.6469 0.380384
113 2 27.6386 27.6655 0.424982
114 2 31.6741 27.5357 0.32123
115 2 35.5904 27.6432 0.492833
116 2 39.722 27.4702 0.472226
117 2 43.5439 27.5535 0.375769
118 2 47.5374 27.6718 0.200529
119 2 51.5494 27.3724 0.399343
120 2 55.5291 27.3458 0.286006
121 2 0.0785362 31.37 0.311198
122 2 4.27987 31.4033 0.371567
123 2 7.83003 31.3631 0.393002
124 2 11.8978 31.5357 0.342704
125 2 15.9009 31.5814 0.447521
126 2 19.7984 31.4483 0.384916
127 2 23.9071 31.5505 0.208964
128 2 27.8305 31.5437 0.327754
129 2 31.7111 31.4951 0.393004
130 2 35.6704 31.5928 0.407764
131 2 39.6075 31.517 0.309114
132 2 43.6318 31.5063 0.452902
133 2 47.4611 31.5115 0.367536
134 2 51.4849 31.3817 0.228198
135 2 55.2778 31.2705 0.208522
136 2 0.0464967 35.271 0.369794
137 2 3.86415 35.3619 0.366959
138 2 8.14071 35.4918 0.415038
139 2 12.0549 35.5923 0.380732
140 2 15.6981 35.4086 0.127303
141 2 19.7621 35.4517 0.399288
142 2 23.7944 35.5168 0.425224
143 2 27.7414 35.5559 0.164885
144 2 31.7237 35.4583 0.428703
145 2 35.6366 35.3353 0.331003
146 2 39.7976 35.4383 0.307258
147 2 43.669 35.6118 0.273453
148 2 47.5964 35.5229 0.536053
149 2 51.5774 35.3984 0.415627
150 2 55.4142 35.1765 0.392096
151 2 -0.118323 39.3573 0.484524
152 2 3.9654 39.4313 0.505348
153 2 7.80784 39.5375 0.387568
154 2 11.9061 39.5923 0.208882
155 2 15.798 39.515 0.0789172
156 2 19.7919 39.7143 0.431485
157 2 23.87 39.4868 0.445257
158 2 27.6553 39.5511 0.332033
159 2 31.5905 39.3756 0.457953
160 2 35.7007 39.3911 0.348992
161 2 39.9172 39.4087 0.217299
162 2 43.5067 39.5091 0.425409
163 2 47.4086 39.5699 0.411066
164 2 51.4342 39.2541 0.436963
165 2 55.4731 39.4268 0.377901
166 2 0.0779309 43.2657 0.510675
167 2 3.86199 43.4153 0.493522
168 2 7.90062 43.1747 0.360648
169 2 12.0559 43.4885 0.44372
170 2 15.9581 43.2986 0.156826
171 2 19.8879 43.477 0.494888
172 2 23.8817 43.3184 0.391983
173 2 27.8495 43.5443 0.37683
174 2 31.8326 43.2726 0.262257
175 2 35.5675 43.1893 0.361907
176 2 39.7586 43.4114 0.289605
177 2 43.4791 43.4573 0.372257
178 2 47.4437 43.3207 0.504022
179 2 51.5263 43.4657 0.303525
180 2 55.3829 43.4797 0.447446
181 2 -0.0175844 47.4088 0.570681
182 2 3.78818 47.1462 0.462086
183 2 7.95141 47.3251 0.3969
184 2 11.8068 47.2808 99.6917
185 2 15.9385 47.6294 0.375857
186 2 19.9961 47.341 0.385106
187 2 23.7461 47.5179 0.565256
188 2 27.8272 47.4212 99.6469
189 2 31.9103 47.378 0.509932
190 2 35.8325 47.2144 0.115484
191 2 39.6255 47.1844 0.369463
192 2 43.642 47.2478 0.355302
193 2 47.4917 47.192 0.351849
194 2 51.4962 47.323 0.135538
195 2 55.5161 47.4421 0.288925
196 2 -0.00149032 51.5891 0.315028
197 2 3.80226 51.3756 0.348914
198 2 7.90752 51.3563 0.501677
199 2 11.962 51.3937 99.6115
200 2 15.9186 51.2642 0.300744
201 2 19.7412 51.4929 0.460734
202 2 23.8148 51.4139 0.492214
203 2 27.8864 51.1881 0.119391
204 2 31.7804 51.1623 0.49819
205 2 35.7678 51.294 0.379089
206 2 39.7157 51.4052 0.383286
207 2 43.6309 51.0019 0.33711
208 2 47.6203 51.3402 0.405871
209 2 51.5697 51.3539 0.348953
210 2 55.3835 51.3745 0.341547
211 2 -0.0421359 55.2902 99.6749
212 2 4.03986 55.1476 0.418322
213 2 7.96195 55.2773 0.480252
214 2 11.9236 55.235 0.319485
215 2 15.7196 55.4174 0.541229
216 2 19.8643 55.2339 0.166367
217 2 23.8104 55.1908 0.341036
218 2 27.7959 55.0287 0.345572
219 2 31.9084 55.2537 0.200345
220 2 35.853 55.2087 0.363809
221 2 39.7043 55.2946 0.267987
222 2 43.4575 55.1479 0.504259
223 2 47.5354 55.2742 0.245529
224 2 51.5681 55.2073 0.264085
225 2 55.4075 55.2463 0.31759
226 2 -0.0157994 -0.131799 4.41077
227 2 4.12637 -0.331573 4.39646
228 2 7.95792 -0.286749 4.21651
229 2 11.9639 59.3455 4.3481
230 2 15.8298 -0.0380027 4.50697
231 2 19.8361 -0.0918371 4.3616
232 2 23.884 -0.0153376 4.40149
233 2 27.7492 -0.1617 4.34535
234 2 31.7734 -0.257982 4.00712
235 2 35.7687 -0.179183 4.23683
236 2 39.7522 -0.13578 4.45194
237 2 43.8115 -0.0477939 4.19251
238 2 47.7467 -0.338492 4.26547
239 2 51.7555 -0.284956 4.26319
240 2 55.538 59.1884 4.426
241 2 0.170315 3.68082 4.29786
242 2 4.20891 3.72313 4.39977
243 2 8.13226 3.77293 4.29001
244 2 11.8693 3.80205 4.16248
245 2 15.953 3.8065 4.30201
246 2 19.9655 3.92858 4.34378
247 2 23.8206 3.82807 4.16229
248 2 27.7113 3.94267 4.39006
249 2 31.8485 3.77356 4.11536
250 2 35.8065 3.85124 4.46742
251 2 39.7449 3.92787 4.15336
252 2 43.6672 3.95446 4.23221
253 2 47.7896 3.79728 4.44456
254 2 51.5211 3.82736 4.42803
255 2 55.4825 3.77541 4.23209
256 2 -0.0302338 7.74909 4.41795
257 2 4.05776 7.57161 4.35042
258 2 8.10686 7.69583 4.38827
259 2 11.9757 7.88811 4.35422
260 2 15.8848 7.70022 4.30433
261 2 19.9698 7.90496 4.19335
262 2 23.8016 7.73788 4.37663
263 2 27.8067 7.83123 4.30268
264 2 31.9519 7.8214 4.30701
265 2 35.9067 7.90898 4.25694
266 2 39.5106 7.91784 4.3995
267 2 43.7104 7.58275 4.31883
268 2 47.7512 7.82671 4.30915
269 2 51.7927 7.77774 4.32811
270 2 55.5173 7.69637 4.30785
271 2 -0.119011 11.5185 4.1784
272 2 3.9955 11.4926 4.39116
273 2 7.94634 11.6943 4.41107
274 2 11.7198 11.6835 4.4402
275 2 16.0998 11.7257 4.23165
276 2 19.8675 11.8544 4.17033
277 2 23.9218 11.705 4.38024
278 2 27.7872 11.826 4.20283
279 2 31.9112 11.6912 4.11699
280 2 35.8976 11.9967 4.18675
281 2 39.6772 11.5537 4.33988
282 2 43.6772 11.7264 4.37029
283 2 47.6009 11.8216 4.38872
284 2 51.6805 11.8301 4.23158
285 2 55.4856 11.6306 4.33189
286 2 0.268793 15.7103 4.00837
287 2 4.05499 15.4268 4.2248
288 2 8.01429 15.469 4.25042
289 2 11.9549 15.5867 4.44028
290 2 16.01 15.8571 4.30395
291 2 20.001 15.732 4.37105
292 2 23.9053 15.7442 4.43805
293 2 27.9478 15.7313 4.24173
294 2 31.8428 15.7595 4.25182
295 2 35.717 15.6719 4.46951
296 2 39.6914 15.7065 4.49628
297 2 43.4181 15.6959 4.39672
298 2 47.5749 15.667 4.27468
299 2 51.469 15.8397 4.25324
300 2 55.7413 15.7202 4.34626
301 2 0.246853 19.6634 4.36627
302 2 4.26184 19.5458 4.30112
303 2 7.9582 19.564 4.19992
304 2 11.9437 19.8612 4.51091
305 2 16.0822 19.639 4.42175
306 2 19.8755 19.7709 4.20114
307 2 23.7639 19.6668 4.24131
308 2 27.954 19.7 4.33998
309 2 31.8255 19.6178 4.47197
310 2 35.5598 19.7159 4.31372
311 2 39.598 19.5199 4.17085
312 2 43.5269 19.7023 4.27043
313 2 47.4591 19.619 4.44365
314 2 51.5273 19.6582 4.40215
315 2 55.5796 19.7055 4.26096
316 2 0.077644 23.4208 4.09784
317 2 4.13639 23.5569 4.22974
318 2 8.05656 23.4685 4.21057
319 2 11.9828 23.597 4.33671
320 2 16.0366 23.7616 4.31158
321 2 19.846 23.5731 4.19686
322 2 23.7268 23.4595 4.29708
323 2 27.7327 23.6724 4.31198
324 2 31.77 23.6089 4.38767
325 2 35.7237 23.651 4.35956
326 2 39.6019 23.5609 4.30717
327 2 43.6334 23.6497 4.2418
328 2 47.4197 23.5762 4.24411
329 2 51.3402 23.5465 4.33112
330 2 55.5311 23.57 4.35354
331 2 0.118318 27.4523 4.34455
332 2 4.17132 27.317 4.28278
333 2 8.04323 27.5474 4.34575
334 2 12.0911 27.5477 4.5131
335 2 15.9493 27.6184 4.33162
336 2 19.9104 27.7676 4.33433
337 2 23.5841 27.7945 4.32849
338 2 27.8447 27.5523 4.33678
339 2 31.7958 27.5524 4.32903
340 2 35.6004 27.3651 4.24579
341 2 39.7907 27.5565 4.12073
342 2 43.577 27.6755 4.26546
343 2 47.6695 27.441 4.36505
344 2 51.6482 27.5655 4.22226
345 2 55.5488 27.553 4.38631
346 2 -0.14539 31.3986 4.3186
347 2 4.00552 31.3131 4.38539
348 2 7.87942 31.4383 4.33095
349 2 12.0348 31.587 4.35845
350 2 15.7392 31.4091 4.17607
351 2 19.6304 31.8223 4.10043
352 2 23.7716 31.7749 4.12186
353 2 27.67 31.429 4.1088
354 2 31.7293 31.5236 4.24656
355 2 35.5042 31.5341 4.35282
356 2 39.6165 31.4512 4.35643
357 2 43.6197 31.3965 4.2966
358 2 47.5885 31.4358 4.35575
359 2 51.4665 31.3677 4.4023
360 2 55.2752 31.3916 4.38076
361 2 -0.0449182 35.2124 4.39134
362 2 3.97928 35.128 4.21224
363 2 7.86622 35.6269 4.20802
364 2 11.9797 35.4843 4.2312
365 2 15.8684 35.5404 4.4362
366 2 20.0133 35.5557 4.38846
367 2 23.9736 35.5586 4.15254
368 2 27.8294 35.243 4.46381
369 2 31.6941 35.6258 4.30405
370 2 35.7518 35.3851 4.2595
371 2 39.6769 35.3969 4.28026
372 2 43.5781 35.4629 4.37813
373 2 47.7391 35.5109 4.47385
374 2 51.553 35.5345 4.24476
375 2 55.3543 35.4188 4.40574
376 2 0.0493455 39.2782 4.43493
377 2 3.94253 39.3778 4.52106
378 2 7.73689 39.5729 4.39113
379 2 11.8362 39.6248 4.24002
380 2 16.06 39.3994 4.26282
381 2 19.8907 39.3468 4.39808
382 2 23.8342 39.429 4.22218
383 2 27.8895 39.3841 4.32131
384 2 31.7728 39.4096 4.3533
385 2 35.8339 39.4845 4.439
386 2 39.4294 39.5919 4.43403
387 2 43.7459 39.2253 4.4167
388 2 47.5528 39.6242 4.29516
389 2 51.6175 39.3093 4.4184
390 2 55.5028 39.2441 4.32689
391 2 -0.147695 43.1784 4.60965
392 2 3.99534 43.469 4.56745
393 2 7.91736 43.6261 4.48464
394 2 11.9979 43.3975 4.36553
395 2 15.9499 43.4819 4.39978
396 2 19.8771 43.3414 4.56033
397 2 23.8724 43.2334 4.32472
398 2 27.8328 43.3758 4.32176
399 2 31.6442 43.5243 4.32926
400 2 35.871 43.3678 4.22487
401 2 39.7819 43.3627 4.15902
402 2 43.7269 43.4098 4.34111
403 2 47.6562 43.5267 4.30565
404 2 51.7182 43.4626 4.47482
405 2 55.2688 43.3289 4.43197
406 2 -0.130963 47.2673 4.41793
407 2 3.91102 47.4111 4.27892
408 2 7.85594 47.3592 4.20808
409 2 11.9763 47.4793 4.29152
410 2 15.8865 47.3312 4.31201
411 2 19.8425 47.4236 4.38721
412 2 23.8923 47.3973 4.28771
413 2 27.6188 47.4214 4.36889
414 2 31.6931 47.2279 4.40702
415 2 35.7887 47.2927 4.24769
416 2 39.6368 47.0752 4.38445
417 2 43.5145 47.4719 4.32127
418 2 47.7571 47.38 4.39006
419 2 51.6139 47.2535 4.3598
420 2 55.4164 47.1803 4.4602
421 2 0.0731431 51.215 4.47676
422 2 3.96953 51.3321 4.28566
423 2 7.95691 51.3216 4.49289
424 2 11.7351 51.4322 4.32465
425 2 15.874 51.4193 4.21632
426 2 19.8171 51.5585 4.3385
427 2 23.5438 51.5434 4.51094
428 2 27.7557 51.3161 4.21402
429 2 31.9531 51.1934 4.46781
430 2 35.851 51.1514 4.19021
431 2 39.7161 51.2186 4.3604
432 2 43.6095 51.2766 4.31046
433 2 47.6326 51.4305 4.35652
434 2 51.3975 51.2824 4.28581
435 2 55.3708 51.2083 4.35318
436 2 -0.052106 55.1539 4.24815
437 2 3.96306 55.2792 4.54635
438 2 7.9886 55.3154 4.2348
439 2 11.8387 55.2776 4.41275
440 2 15.8942 55.4834 4.34734
441 2 19.8205 55.3818 4.53095
442 2 23.9508 55.3928 4.35544
443 2 27.9204 55.4467 4.3454
444 2 31.8901 55.1732 4.16488
445 2 35.9042 55.4029 4.12065
446 2 39.6831 55.2771 4.34205
447 2 43.6047 55.3003 4.30317
448 2 47.5432 55.3599 4.34141
449 2 51.5344 55.2292 4.328
450 2 55.411 55.3279 4.31593
451 2 0.0779324 59.2549 8.46024
452 2 3.91888 -0.159246 8.44771
453 2 8.06112 -0.159722 8.05672
454 2 11.9373 -0.210628 8.43042
455 2 15.8314 0.242913 8.17432
456 2 19.9479 -0.088666 8.18157
457 2 23.9539 -0.1093 8.25154
458 2 28.0123 -0.334709 8.15319
459 2 31.9083 -0.180322 8.35046
460 2 35.7944 59.3859 8.09577
461 2 39.561 59.362 8.25987
462 2 43.689 -0.104895 8.17898
463 2 47.5297 -0.0446513 8.2195
464 2 51.5039 0.00162461 8.35319
465 2 55.4989 -0.0773098 8.41735
466 2 0.0046452 3.77918 8.23514
467 2 4.03653 3.66704 8.30446
468 2 7.84096 4.01676 8.28886
469 2 12.0518 3.96284 8.25727
470 2 15.9585 3.95873 8.27064
471 2 19.944 4.11796 8.2325
472 2 23.937 3.83068 8.24458
473 2 27.8359 3.97313 8.37812
474 2 31.802 3.99351 8.44488
475 2 35.6986 3.78517 8.35422
476 2 39.8486 3.9193 8.19979
477 2 43.9027 3.72429 8.12315
478 2 47.7431 3.90415 8.24161
479 2 51.6499 3.92927 8.31071
480 2 55.6976 3.75938 8.2989
481 2 -0.122419 7.71249 8.35098
482 2 3.89212 7.74252 8.22712
483 2 8.0691 7.91919 8.36304
484 2 12.0017 7.90153 8.31014
485 2 16.0215 8.04491 8.08315
486 2 19.9539 7.90855 8.18622
487 2 24.0629 7.82289 8.23073
488 2 27.8203 8.03385 8.17379
489 2 31.9359 7.87586 8.2625
490 2 35.7057 7.93391 8.19196
491 2 39.8787 7.7132 8.30066
492 2 43.8044 7.82001 8.09317
493 2 47.683 7.92803 8.26787
494 2 51.6675 7.75544 8.45485
495 2 55.5253 7.78667 8.33205
496 2 0.080709 11.7903 8.39255
497 2 4.02277 11.7442 8.17683
498 2 7.90185 11.7438 8.34257
499 2 12.0147 11.8327 8.18419
500 2 16.0563 11.8233 8.07228
501 2 19.9579 11.8088 7.99713
502 2 23.9641 11.9101 8.22698
503 2 27.9615 11.8516 8.10333
504 2 31.7761 11.8387 8.33703
505 2 35.8075 11.8219 8.31271
506 2 39.8854 11.7703 8.34735
507 2 43.6355 11.6809 8.34244
508 2 47.5635 11.6875 8.3226
509 2 51.7026 11.8788 8.17777
510 2 55.5677 11.6961 8.30169
511 2 0.164331 15.8047 8.2161
512 2 4.14252 15.6308 8.26123
513 2 7.93386 15.8374 8.31072
514 2 12.0104 15.7559 8.31199
515 2 15.8582 15.949 8.34889
516 2 20.0222 15.7218 8.112
517 2 23.8828 15.6344 8.38004
518 2 27.7018 15.8103 8.39101
519 2 31.8117 15.6838 8.29317
520 2 35.7163 15.6983 8.32161
521 2 39.6022 15.6433 8.39147
522 2 43.8083 15.8034 8.44416
523 2 47.7421 15.6784 8.41194
524 2 51.6111 15.6235 8.39487
525 2 55.5583 15.8209 8.30195
526 2 0.265433 19.4384 8.294
527 2 4.10546 19.6394 8.24561
528 2 7.95336 19.5812 8.24897
529 2 11.9462 19.7873 8.27834
530 2 16.1341 19.7736 8.20813
531 2 20.0552 19.7546 8.26539
532 2 23.9582 19.7939 8.31729
533 2 27.6542 19.7087 8.32765
534 2 31.7245 19.4507 8.32201
535 2 35.8324 19.5358 8.45611
536 2 39.7464 19.6265 8.26827
537 2 43.5401 19.7427 8.0533
538 2 47.7145 19.5747 8.42034
539 2 51.6441 19.6134 8.22927
540 2 55.6635 19.6582 8.25056
541 2 0.226119 23.6324 8.43246
542 2 4.00229 23.4606 8.27291
543 2 8.0505 23.7272 8.40383
544 2 11.974 23.8757 8.35708
545 2 16.2234 23.8146 8.29872
546 2 19.9809 23.9592 8.24229
547 2 23.7489 23.9258 8.25336
548 2 27.9416 23.486 8.42666
549 2 31.8601 23.6825 8.41594
550 2 35.7699 23.5211 8.22693
551 2 39.8527 23.7137 8.12579
552 2 43.8084 23.6197 8.3068
553 2 47.6215 23.5025 8.09866
554 2 51.545 23.4565 8.13851
555 2 55.6232 23.7047 8.40697
556 2 59.5316 27.6836 8.36539
557 2 4.13141 27.471 8.23385
558 2 8.02951 27.7469 8.28981
559 2 11.9807 27.6157 8.29988
560 2 16.1012 27.9471 8.25649
561 2 19.7961 27.8726 8.24413
562 2 23.9648 27.7167 8.21799
563 2 27.8748 27.6821 8.41856
564 2 31.7261 27.6888 8.31789
565 2 35.768 27.6676 8.41855
566 2 39.831 27.506 8.13707
567 2 43.6039 27.3766 8.35811
568 2 47.6123 27.5201 8.30172
569 2 51.6978 27.4665 8.25362
570 2 55.5014 27.5173 8.24888
571 2 0.181941 31.6346 8.29543
572 2 4.01832 31.4988 8.4321
573 2 7.81187 31.6129 8.24231
574 2 11.6956 31.5848 8.37202
575 2 15.9777 31.7189 8.22142
576 2 19.9328 31.7194 8.19343
577 2 24.0964 31.3492 8.33531
578 2 27.9838 31.4811 8.27201
579 2 31.7033 31.5713 8.25122
580 2 35.7444 31.4545 8.34897
581 2 39.8092 31.6351 8.27948
582 2 43.541 31.4928 8.33446
583 2 47.4443 31.592 8.40949
584 2 51.6461 31.6329 8.20025
585 2 55.5229 31.4946 8.36885
586 2 0.079784 35.4439 8.46837
587 2 4.0205 35.699 8.21051
588 2 8.09638 35.6381 8.15793
589 2 11.8849 35.6146 8.08698
590 2 15.7513 35.8167 8.23333
591 2 19.8427 35.4819 8.19204
592 2 24.0163 35.2871 8.1768
593 2 27.7434 35.6583 8.3268
594 2 31.7142 35.4932 8.38723
595 2 35.7018 35.3027 8.1632
596 2 39.7362 35.5999 8.2524
597 2 43.6586 35.3665 8.19702
598 2 47.5351 35.4652 8.22364
599 2 51.6483 35.4646 8.26377
600 2 55.4826 35.5105 8.36961
601 2 0.283421 39.441 8.28852
602 2 4.12888 39.6021 8.50693
603 2 7.83166 39.4584 8.30568
604 2 11.9992 39.6114 8.23708
605 2 15.9878 39.6618 8.3489
606 2 19.8918 39.5129 8.35859
607 2 23.6691 39.3363 8.10529
608 2 27.6333 39.425 8.2995
609 2 31.8262 39.4327 8.27643
610 2 35.8055 39.3737 8.25795
611 2 39.8771 39.505 8.50403
612 2 43.5307 39.4297 8.27725
613 2 47.6779 39.454 8.45942
614 2 51.4382 39.3716 8.33861
615 2 55.5303 39.5173 8.33429
616 2 0.0407629 43.2568 8.3294
617 2 3.90821 43.4658 8.50405
618 2 7.88862 43.5315 8.32087
619 2 11.8162 43.3317 8.36591
620 2 16.0241 43.5328 8.12799
621 2 19.9589 43.425 8.43869
622 2 23.7908 43.3906 8.36204
623 2 27.6982 43.3012 8.30896
624 2 31.713 43.0957 8.13522
625 2 35.7765 43.4846 8.22021
626 2 39.9397 43.4838 8.15071
627 2 43.6499 43.4124 8.42592
628 2 47.4625 43.5559 8.18286
629 2 51.6208 43.4191 8.2938
630 2 55.5784 43.4089 8.26983
631 2 -0.0660303 47.4064 8.37807
632 2 3.76768 47.3521 8.24438
633 2 8.01265 47.425 8.38238
634 2 11.9973 47.3129 8.27274
635 2 16.0088 47.4714 8.22511
636 2 19.8598 47.5579 8.35989
637 2 23.8487 47.3306 8.34983
638 2 28.0003 47.2942 8.11686
639 2 32.0403 47.3694 8.22593
640 2 35.6948 47.3794 8.40086
641 2 39.7472 47.3771 8.32883
642 2 43.6735 47.3411 8.39678
643 2 47.6918 47.4374 8.37723
644 2 51.4399 47.5508 8.42394
645 2 55.5552 47.3821 8.35076
646 2 0.085377 51.3671 8.38119
647 2 4.07189 51.4339 8.30649
648 2 7.88788 51.3165 8.38929
649 2 12.0287 51.2098 8.38003
650 2 15.8535 51.2143 8.30938
651 2 20.0628 51.3813 8.26618
652 2 23.9428 51.3195 8.29849
653 2 27.9368 51.367 8.237
654 2 31.913 51.4401 8.10901
655 2 35.8887 51.4672 8.27941
656 2 39.5713 51.4369 8.35335
657 2 43.5136 51.3497 8.22695
658 2 47.4214 51.3059 8.24412
659 2 51.7597 51.4702 8.34894
660 2 55.45 51.5971 8.33827
661 2 0.0827694 55.4506 8.45082
662 2 4.16435 55.2603 8.29483
663 2 8.14335 55.2444 8.30071
664 2 12.0338 55.3359 8.24261
665 2 15.7743 55.1389 8.29343
666 2 19.7393 55.3835 8.31778
667 2 23.8283 55.234 8.38907
668 2 28.0314 55.1962 8.27789
669 2 32.0665 55.376 8.31504
670 2 35.7982 55.3262 8.20778
671 2 39.7747 55.3425 8.01159
672 2 43.5727 55.372 8.31549
673 2 47.5034 55.2442 8.45955
674 2 51.5584 55.474 8.41847
675 2 55.4404 55.4422 8.3805
676 2 0.114689 -0.155638 12.3658
677 2 4.16258 -0.0554288 12.406
678 2 8.13719 0.0426685 12.1285
679 2 12.1645 0.0721932 12.2063
680 2 15.9928 59.3293 12.3536
681 2 19.9163 0.15187 12.2218
682 2 23.8428 0.0332639 12.2416
683 2 27.9415 0.100458 11.9456
684 2 31.867 0.0109622 12.4424
685 2 35.9724 0.0183617 12.3242
686 2 39.8921 -0.0599124 12.1756
687 2 43.7728 -0.0477394 12.387
688 2 47.6487 0.0672412 12.4436
689 2 51.5921 0.120789 12.4548
690 2 55.4221 -0.04198 12.4926
691 2 0.0926843 3.91628 12.4975
692 2 3.99183 3.71623 12.1839
693 2 7.94707 3.98848 12.1685
694 2 11.9604 3.95496 12.0809
695 2 16.1168 3.96569 12.3529
696 2 19.9517 3.95356 12.1142
697 2 23.9016 3.6516 12.1807
698 2 27.9061 3.91088 12.0533
699 2 31.7901 3.78891 12.2878
700 2 35.8097 3.83574 12.3207
701 2 39.8018 3.94303 12.2105
702 2 43.6723 3.78024 12.0654
703 2 47.5162 4.02177 12.1176
704 2 51.592 3.973 12.3433
705 2 55.5684 3.9347 12.3968
706 2 0.153736 7.86995 12.3962
707 2 3.95573 7.70239 12.3316
708 2 8.12281 7.9017 12.2851
709 2 12.178 7.85544 12.2214
710 2 15.9127 8.131 12.2469
711 2 19.8281 7.91276 11.9458
712 2 23.8526 7.62139 12.3303
713 2 27.7863 7.94862 12.2866
714 2 31.8158 7.6828 12.3461
715 2 35.975 7.78231 12.1191
716 2 39.6797 7.90887 12.1583
717 2 43.6781 7.87487 12.1663
718 2 47.5992 7.92826 12.2394
719 2 51.6202 7.79381 12.4172
720 2 55.5628 7.70821 12.3067
721 2 0.242361 11.6962 12.352
722 2 3.97671 11.8419 12.1745
723 2 8.13617 11.8201 12.3256
724 2 12.0687 12.0037 12.2215
725 2 16.0703 11.9442 12.1008
726 2 19.7036 11.7544 12.3631
727 2 23.9899 11.8719 12.2918
728 2 28.1063 11.8318 12.0382
729 2 31.7438 11.6956 12.4106
730 2 35.8266 11.5532 12.4028
731 2 39.6782 11.8261 12.1589
732 2 43.7036 11.9296 12.2375
733 2 47.5172 12.0423 12.3977
734 2 51.544 11.8263 12.3826
735 2 55.6115 11.6456 12.3375
736 2 0.0369624 15.7682 12.3091
737 2 4.21327 15.7731 12.094
738 2 8.08975 15.8878 12.2402
739 2 11.9289 15.9213 12.3099
740 2 15.9552 15.8543 12.0262
741 2 19.6429 15.7641 12.2912
742 2 23.6333 15.5929 12.1159
743 2 27.7193 15.6907 12.2412
744 2 31.7189 15.7359 12.4262
745 2 35.8216 15.7381 12.315
746 2 39.7407 15.8908 12.2995
747 2 43.7414 15.7715 12.2321
748 2 47.448 15.7849 12.2711
749 2 51.5468 15.6304 12.4882
750 2 55.3334 15.7054 12.2807
751 2 0.160476 19.6807 12.2619
752 2 4.12167 19.6864 12.3218
753 2 8.04148 19.8652 12.2319
754 2 11.7437 19.8476 12.0324
755 2 15.9734 19.78 11.9963
756 2 19.9021 19.8899 12.4196
757 2 23.7262 19.8096 12.1931
758 2 27.6631 19.6087 12.0208
759 2 31.8673 19.7133 12.1891
760 2 35.6719 19.8054 12.2732
761 2 39.7499 19.8267 12.3749
762 2 43.627 19.8214 12.2426
763 2 47.6355 19.6081 12.4788
764 2 51.6118 19.8554 12.2076
765 2 55.5074 19.7155 12.1588
766 2 -0.0160546 23.6244 12.3557
767 2 3.98787 23.7043 12.2541
768 2 8.12332 23.6355 12.2059
769 2 12.0028 23.8742 12.2123
770 2 15.9823 23.8951 12.1916
771 2 19.8544 23.6815 12.2531
772 2 24.0084 23.7055 12.1544
773 2 27.9419 23.4891 12.3208
774 2 31.828 23.5932 12.2638
775 2 35.7033 23.7024 12.2467
776 2 39.8364 23.5642 12.3483
777 2 43.7807 23.5996 12.1872
778 2 47.6519 23.6227 12.4005
779 2 51.5555 23.8089 12.2531
780 2 55.6018 23.642 12.2911
781 2 0.210521 27.7161 12.3129
782 2 4.08006 27.5674 12.2152
783 2 7.9703 27.6598 12.2603
784 2 12.0108 27.89 12.1191
785 2 16.0003 27.8927 12.2672
786 2 19.9512 27.7453 12.2372
787 2 23.9414 27.4529 12.1537
788 2 27.6486 27.6356 12.2723
789 2 31.9136 27.4965 12.2443
790 2 35.7237 27.6145 12.3001
791 2 39.4866 27.5157 12.3318
792 2 43.4896 27.4823 12.2496
793 2 47.8539 27.3899 12.2413
794 2 51.5385 27.7187 12.1283
795 2 55.6036 27.921 12.1837
796 2 0.174234 31.4492 12.1723
797 2 4.14675 31.5085 12.269
798 2 7.87356 31.6991 12.0379
799 2 12.0105 31.813 12.1217
800 2 15.9019 31.6526 12.1079
801 2 20.1449 31.7511 12.1132
802 2 23.9113 31.8392 12.2623
803 2 27.8577 31.6568 12.2786
804 2 31.7553 31.727 12.1751
805 2 35.7525 31.6044 12.405
806 2 39.7238 31.5825 12.1916
807 2 43.6654 31.3415 12.1618
808 2 47.5315 31.5592 12.1944
809 2 51.6004 31.6767 12.0902
810 2 55.7079 31.5108 12.3179
811 2 0.221336 35.5935 12.3313
812 2 4.1614 35.4777 12.4465
813 2 8.1845 35.5889 12.1955
814 2 12.0314 35.6173 12.1767
815 2 15.9643 35.6582 12.1662
816 2 19.8872 35.6786 12.1817
817 2 23.9971 35.6943 12.0137
818 2 27.9621 35.4957 12.2041
819 2 32.0284 35.474 12.3059
820 2 35.661 35.5394 12.2506
821 2 39.6039 35.5042 12.3887
822 2 43.6851 35.3229 12.4128
823 2 47.5144 35.5098 12.3731
824 2 51.6652 35.5387 12.1195
825 2 55.6895 35.6693 12.2748
826 2 0.0542855 39.5774 12.3992
827 2 3.90146 39.514 12.4772
828 2 7.98434 39.3864 12.1877
829 2 11.796 39.5401 12.3464
830 2 15.8956 39.5753 12.1554
831 2 19.9309 39.4324 12.1958
832 2 23.7638 39.4341 12.3572
833 2 27.738 39.4431 12.3133
834 2 31.8761 39.5451 12.0872
835 2 35.9737 39.6432 12.2413
836 2 39.8985 39.4195 12.1461
837 2 43.8322 39.2834 12.1577
838 2 47.7567 39.3315 12.3129
839 2 51.3241 39.6457 12.2042
840 2 55.497 39.349 12.4951
841 2 0.137433 43.5729 12.4357
842 2 3.944 43.3698 12.3728
843 2 7.89699 43.5035 12.4266
844 2 11.8123 43.475 12.3029
845 2 16.0942 43.3239 12.2807
846 2 20.1551 43.3377 12.3066
847 2 23.88 43.5148 12.3122
848 2 27.9132 43.6643 12.1777
849 2 31.8062 43.4273 12.1274
850 2 35.786 43.5152 12.3383
851 2 39.6577 43.4046 12.2605
852 2 43.5034 43.1404 12.3924
853 2 47.4205 43.4757 12.388
854 2 51.7339 43.4518 12.1128
855 2 55.4263 43.3681 12.4126
856 2 0.031591 47.61 12.3802
857 2 3.98408 47.4815 12.1418
858 2 8.12711 47.5271 12.2772
859 2 12.037 47.2958 12.3386
860 2 15.9926 47.4723 12.1529
861 2 19.9801 47.5237 12.3396
862 2 24.0648 47.4815 12.176
863 2 27.9455 47.329 12.2286
864 2 31.775 47.5704 11.9441
865 2 35.9109 47.2874 12.1703
866 2 39.6997 47.4006 12.2485
867 2 43.7413 47.3105 12.1402
868 2 47.6164 47.2648 12.4619
869 2 51.4784 47.4908 12.2591
870 2 55.4725 47.5171 12.3695
871 2 0.104103 51.2805 12.514
872 2 4.0006 51.3455 12.313
873 2 8.06654 51.4749 12.2693
874 2 12.2171 51.2933 12.1721
875 2 16.0413 51.3331 12.4135
876 2 20.0734 51.4141 12.2296
877 2 23.929 51.4364 12.4035
878 2 28.0511 51.2382 12.2054
879 2 31.8302 51.2664 12.2733
880 2 35.8395 51.3775 12.3928
881 2 39.6798 51.2446 12.3441
882 2 43.4561 51.2675 12.306
883 2 47.2866 51.2747 12.2985
884 2 51.4223 51.4475 12.3293
885 2 55.4575 51.4663 12.2939
886 2 0.283381 55.3178 12.1544
887 2 4.15828 55.3113 12.457
888 2 8.09612 55.4423 12.2784
889 2 11.9197 55.1359 12.1442
890 2 16.1333 55.7533 12.12
891 2 20.1713 55.4081 12.3402
892 2 24.0783 55.6091 12.3164
893 2 28.0304 55.271 12.3277
894 2 31.7011 55.45 12.2854
895 2 35.7463 55.204 12.1656
896 2 39.722 55.5051 12.1572
897 2 43.4927 55.2609 12.1717
898 2 47.4852 55.3344 12.4902
899 2 51.4167 55.4122 12.3528
900 2 55.641 55.2395 12.3927
901 2 0.18448 -0.0319013 16.2944
902 2 4.17676 -0.0217588 16.312
903 2 8.36113 0.131021 16.081
904 2 12.2009 0.102766 16.0433
905 2 16.1197 0.195651 16.2959
906 2 19.8563 0.0991073 16.3928
907 2 23.7662 0.18469 16.2445
908 2 27.6152 0.0860047 16.3682
909 2 31.8429 0.011743 16.1035
910 2 35.8114 0.0389864 16.2505
911 2 39.9204 0.0951815 16.0409
912 2 43.7537 59.4281 16.1664
913 2 47.9061 59.4108 16.382
914 2 51.7007 59.3479 16.3517
915 2 55.6422 0.0457589 16.2043
916 2 0.296363 4.09703 16.199
917 2 4.07877 3.85683 16.4077
918 2 8.32554 3.84978 16.0677
919 2 12.1039 3.93627 16.329
920 2 16.0346 3.97831 16.4424
921 2 19.7762 4.16354 16.1491
922 2 23.9859 3.78194 16.1157
923 2 27.8373 3.99327 16.2999
924 2 31.8017 4.01153 16.1573
925 2 35.7701 3.95291 16.2295
926 2 39.8166 3.95219 16.1771
927 2 43.6771 4.17183 16.1855
928 2 47.5568 3.90962 16.2925
929 2 51.4563 4.00215 16.244
930 2 55.5024 3.93282 16.4576
931 2 -0.114356 8.08137 16.304
932 2 4.19706 7.81848 16.0511
933 2 8.03362 7.88888 16.1077
934 2 12.1661 7.71996 16.1484
935 2 15.7651 7.89349 16.2462
936 2 19.9313 8.02483 16.2299
937 2 23.6958 7.95558 16.2955
938 2 27.9418 7.82812 16.2888
939 2 31.7898 7.82311 16.1736
940 2 35.8263 7.85426 16.2584
941 2 39.8986 7.89275 15.976
942 2 43.5625 7.95908 16.1619
943 2 47.5831 7.805 16.2894
944 2 51.5593 7.99906 16.2599
945 2 55.5254 7.92087 16.3922
946 2 59.4859 11.9704 16.2873
947 2 4.06056 11.5159 16.1555
948 2 8.25804 11.8479 16.1487
949 2 11.9423 12.0355 16.1523
950 2 15.9346 11.704 16.1762
951 2 19.8431 11.8808 16.2436
952 2 23.8152 11.8533 16.3022
953 2 27.816 11.8902 16.2288
954 2 31.6962 11.7303 16.1456
955 2 35.6617 11.7674 16.3022
956 2 39.6429 11.995 16.2571
957 2 43.4877 11.8951 16.2801
958 2 47.4581 11.8262 16.267
959 2 51.4206 12.0181 16.2487
960 2 55.4918 11.9154 16.2331
961 2 0.167846 15.6772 16.2548
962 2 4.21829 15.6626 16.145
963 2 8.00061 15.7769 16.3577
964 2 12.2129 15.8081 16.1156
965 2 15.9263 15.9972 16.0367
966 2 20.0295 15.7943 16.1716
967 2 23.792 15.8109 16.3181
968 2 27.7303 15.9626 16.1863
969 2 31.7409 15.6047 16.229
970 2 35.8644 15.8135 16.3112
971 2 39.8028 15.7599 16.2122
972 2 43.7357 15.7784 16.3128
973 2 47.8012 15.7219 16.3653
974 2 51.7035 15.8404 16.4008
975 2 55.5645 15.9706 16.2431
976 2 0.10029 19.7562 16.0794
977 2 4.06498 19.7027 16.194
978 2 7.79845 19.811 16.2638
979 2 12.1398 19.8336 16.0985
980 2 15.9338 19.934 15.9679
981 2 19.9255 19.6947 16.144
982 2 23.8925 19.5643 16.3414
983 2 27.75 19.612 16.3786
984 2 31.6333 19.7704 16.1101
985 2 35.8696 19.7102 16.2343
986 2 39.7322 19.8933 16.2981
987 2 43.6231 19.7916 16.2603
988 2 47.6063 19.6865 16.212