ITEM: TIMESTEP
35200
ITEM: NUMBER OF ATOMS
28125
ITEM: BOX BOUNDS xy xz yz pp pp pp
0.0000000000000000e+00 5.9369999999999997e+01 0.0000000000000000e+00
0.0000000000000000e+00 5.9369999999999997e+01 0.0000000000000000e+00
1.0990131308165019e-01 9.9390098686918321e+01 0.0000000000000000e+00
ITEM: ATOMS id type x y z
1 2 -0.155298 -0.226476 0.557419
2 2 4.00964 -0.146145 0.426588
3 2 8.1079 -0.230107 0.211507
4 2 11.9232 0.0454559 0.366076
5 2 15.8605 -0.153936 0.410616
6 2 19.626 -0.111366 0.295941
7 2 23.5841 -0.206342 0.267713
8 2 27.7738 -0.107703 0.144268
9 2 31.7318 -0.309565 0.334296
10 2 35.5265 -0.0747723 0.385606
11 2 39.5093 59.0308 0.448796
12 2 43.6617 -0.0231887 0.346487
13 2 47.579 -0.137516 0.532478
14 2 51.4547 -0.284296 0.471876
15 2 55.2039 59.1397 0.605015
16 2 0.156213 3.72406 0.145269
17 2 4.02723 3.6965 0.398153
18 2 7.84714 3.89832 0.49457
19 2 11.9417 3.99271 0.472301
20 2 15.8113 3.82745 0.256169
21 2 19.7007 3.55408 0.416209
22 2 23.6375 3.64753 0.266083
23 2 27.7485 3.66657 0.282235
24 2 31.7652 3.73084 0.173014
25 2 35.6241 3.81616 0.4607
26 2 39.7087 3.84667 0.333014
27 2 43.4912 3.96221 0.450954
28 2 47.6823 3.84566 0.394762
29 2 51.5653 3.9417 0.516767
30 2 55.4792 3.84378 0.450584
31 2 -0.105477 7.70216 0.21103
32 2 3.99571 7.66459 0.367111
33 2 7.89798 7.78371 0.416943
34 2 11.8301 7.88709 0.453695
35 2 15.7569 7.68789 0.323178
36 2 19.8363 7.59968 0.413775
37 2 23.6723 7.59336 0.313286
38 2 27.69 7.49923 0.209681
39 2 31.4809 7.79501 0.168053
40 2 35.6942 7.67997 0.389926
41 2 39.6041 7.78064 0.506239
42 2 43.6399 7.86332 0.526358
43 2 47.5704 7.79377 0.378606
44 2 51.4366 7.52483 0.287217
45 2 55.2408 7.80171 0.562451
46 2 59.4777 11.7438 0.292043
47 2 3.93127 11.7862 0.428013
48 2 7.96866 11.9649 0.502654
49 2 11.8623 11.8501 0.592187
50 2 15.9659 11.6666 0.320344
51 2 19.7286 11.735 0.0556646
52 2 23.7552 11.6248 0.412013
53 2 27.7265 11.6325 0.280587
54 2 31.5371 11.5675 0.291098
55 2 35.5334 11.7306 0.349438
56 2 39.6042 11.6304 0.279051
57 2 43.5827 11.6106 0.340832
58 2 47.4417 11.67 0.370069
59 2 51.3955 11.6728 0.514119
60 2 55.3042 11.6604 0.565788
61 2 0.0662391 15.6701 0.341587
62 2 4.2485 15.6521 0.196406
63 2 8.04797 15.6878 0.302194
64 2 12.0448 15.7961 0.368959
65 2 15.8594 15.6001 0.385126
66 2 20.0197 15.7665 0.308701
67 2 23.885 15.5063 0.446826
68 2 27.7768 15.5918 0.174426
69 2 31.5477 15.4337 0.36524
70 2 35.6029 15.7066 0.291903
71 2 39.7433 15.7423 0.284929
72 2 43.5575 15.6498 0.434727
73 2 47.6418 15.6469 0.394664
74 2 51.5585 15.7385 0.424517
75 2 55.4556 15.5258 0.43983
76 2 59.3215 19.3743 0.380657
77 2 4.05571 19.4084 0.399466
78 2 8.07872 19.4802 0.354534
79 2 11.8881 19.5679 0.398035
80 2 15.7321 19.5518 0.285784
81 2 20.0145 19.7157 0.12977
82 2 23.8899 19.6198 0.242546
83 2 27.706 19.6902 0.345189
84 2 31.7094 19.6114 0.472141
85 2 35.8075 19.766 0.267154
86 2 39.512 19.7895 0.489535
87 2 43.6918 19.7227 0.285323
88 2 47.4661 19.7844 0.193042
89 2 51.4215 19.4515 0.351734
90 2 55.3426 19.6444 0.389089
91 2 0.0366925 23.3465 0.367041
92 2 4.28232 23.6415 0.333754
93 2 7.98826 23.5311 0.22304
94 2 11.9285 23.4841 0.309572
95 2 15.8288 23.5313 0.417214
96 2 19.9074 23.5871 0.264937
97 2 23.735 23.5182 0.401826
98 2 27.8409 23.8113 0.370015
99 2 31.6595 23.5564 0.48193
100 2 35.6098 23.6363 0.312069
101 2 39.5702 23.4825 0.462036
102 2 43.519 23.6821 0.473926
103 2 47.5684 23.4631 0.55754
104 2 51.39 23.5372 0.641894
105 2 55.3967 23.6816 0.496111
106 2 -0.0245719 27.429 0.245205
107 2 4.1157 27.4767 0.423783
108 2 7.96547 27.4277 0.341429
109 2 11.8382 27.4299 0.502079
110 2 15.8839 27.6373 0.319144
111 2 19.6695 27.3726 0.375539
112 2 23.7105 27.5492 0.383963
113 2 27.8296 27.669 0.194687
114 2 31.5167 27.2467 0.351283
115 2 35.6326 27.424 0.351909
116 2 39.9043 27.5734 0.207205
117 2 43.6572 27.4606 0.155868
118 2 47.7494 27.6893 0.233391
119 2 51.3731 27.4838 0.103295
120 2 55.4041 27.4805 0.263832
121 2 0.0214046 31.5557 0.535645
122 2 3.95543 31.5077 0.466644
123 2 7.82684 31.3974 0.233807
124 2 12.0204 31.4814 0.26776
125 2 15.8432 31.4629 0.388881
126 2 19.8428 31.5808 0.100435
127 2 23.7986 31.473 0.232159
128 2 27.6519 31.423 0.411859
129 2 31.806 31.1855 0.352196
130 2 35.9032 31.4937 0.446116
131 2 39.5939 31.4849 0.306309
132 2 43.1909 31.2268 0.390479
133 2 47.5356 31.6881 0.452685
134 2 51.4879 31.5642 0.511786
135 2 55.3716 31.3131 0.612512
136 2 0.0176185 35.2748 0.185945
137 2 3.79679 35.369 0.442079
138 2 7.93709 35.4944 0.3249
139 2 11.6534 35.2842 0.426069
140 2 15.7302 35.54 0.368206
141 2 19.6573 35.5147 0.418364
142 2 23.7248 35.6268 0.413435
143 2 27.8313 35.3529 0.401822
144 2 31.8821 35.4478 0.204192
145 2 35.8211 35.306 0.359043
146 2 39.8221 35.6218 0.28543
147 2 43.667 35.3651 0.478418
148 2 47.61 35.3582 0.341667
149 2 51.5763 35.4116 0.553318
150 2 55.3536 35.5363 0.17033
151 2 -0.217955 39.4481 0.40916
152 2 3.8225 39.0967 0.405184
153 2 7.80865 39.4699 0.249684
154 2 11.8641 39.4104 0.296303
155 2 15.8553 39.5602 0.508973
156 2 19.8328 39.2929 0.343
157 2 23.85 39.4394 0.151139
158 2 27.8388 39.4421 0.418712
159 2 31.6034 39.4945 0.43777
160 2 35.6261 39.337 0.373972
161 2 39.7155 39.3212 0.335107
162 2 43.5548 39.3284 0.40845
163 2 47.4259 39.4433 0.289855
164 2 51.4988 39.2862 0.449133
165 2 55.4076 39.4214 0.328057
166 2 -0.0414049 43.4489 0.534244
167 2 4.05224 43.1554 0.339543
168 2 7.87319 43.3586 0.293071
169 2 11.9152 43.4784 0.350032
170 2 15.7325 43.2879 0.450447
171 2 19.9294 43.1441 0.303357
172 2 23.8597 43.4556 0.471007
173 2 27.7671 43.34 0.458449
174 2 31.753 43.4154 0.514579
175 2 35.5332 43.4568 0.386381
176 2 39.3279 43.3114 0.19826
177 2 43.4686 43.378 0.542174
178 2 47.6331 43.4827 0.554431
179 2 51.4696 43.3401 0.0938044
180 2 55.1966 43.3599 0.456931
181 2 -0.0895547 47.4454 0.367796
182 2 3.99169 47.2563 0.333897
183 2 8.03617 47.3104 0.375274
184 2 11.7395 47.3073 99.7425
185 2 15.9688 47.4451 0.0304485
186 2 19.7559 47.327 0.458757
187 2 23.7264 47.3204 0.284805
188 2 27.7875 47.3416 99.5196
189 2 31.6687 47.1831 0.41994
190 2 35.6463 47.5056 0.48101
191 2 39.6218 47.3264 0.408668
192 2 43.4144 47.274 0.255775
193 2 47.5525 47.6248 0.528677
194 2 51.3084 47.3398 0.580515
195 2 55.2095 47.3454 0.412003
196 2 -0.00658938 51.244 0.416797
197 2 3.79965 51.2194 0.223587
198 2 7.94044 51.2824 0.391706
199 2 11.8426 51.2317 99.7595
200 2 15.7852 51.4923 0.32766
201 2 19.6937 51.2274 0.493701
202 2 23.6528 51.2611 0.568825
203 2 27.845 51.2515 0.419422
204 2 31.7867 51.5297 0.334181
205 2 35.7324 51.3317 0.524569
206 2 39.7765 51.2219 0.122532
207 2 43.4521 51.1375 0.337513
208 2 47.3941 51.452 0.370929
209 2 51.4109 51.2192 0.466824
210 2 55.3346 51.2473 0.452172
211 2 0.110539 55.3075 99.6043
212 2 3.90004 55.076 0.395411
213 2 7.82914 55.2003 0.359692
214 2 11.7662 55.3823 0.32264
215 2 15.6244 55.1167 0.27933
216 2 19.829 55.1936 0.525694
217 2 23.7992 55.3208 0.357015
218 2 27.6201 55.296 0.468946
219 2 31.8052 55.2839 0.319912
220 2 35.598 55.2243 0.472978
221 2 39.6494 55.3295 0.400117
222 2 43.3754 55.2676 0.4211
223 2 47.4204 55.23 0.480264
224 2 51.2392 55.3301 0.620526
225 2 55.3056 55.2597 0.511221
226 2 0.125146 -0.113218 4.60908
227 2 4.14601 -0.246212 4.27559
228 2 7.91351 -0.190375 4.18926
229 2 11.6307 59.3434 4.40854
230 2 15.8139 -0.0535926 4.40315
231 2 19.8569 -0.0585601 4.31348
232 2 23.829 -0.0587046 4.48508
233 2 27.9108 -0.0100493 4.15985
234 2 31.5959 -0.347623 4.38535
235 2 35.6244 -0.0992893 4.27523
236 2 39.46 0.131954 4.36967
237 2 43.3859 -0.206424 4.46582
238 2 47.4389 -0.20612 4.23809
239 2 51.357 -0.135489 4.48614
240 2 55.5008 59.1043 4.42475
241 2 0.0830023 3.67686 4.47598
242 2 3.90016 3.73595 4.34229
243 2 8.0714 3.90603 4.45306
244 2 11.9445 3.66368 4.58812
245 2 15.8477 4.05864 4.31129
246 2 19.6543 3.92058 4.15827
247 2 23.9243 3.71537 4.30638
248 2 27.7924 3.90021 4.40979
249 2 31.6969 3.69932 4.2668
250 2 35.5567 3.78291 4.41374
251 2 39.5691 3.88483 4.37907
252 2 43.6643 3.91109 4.37563
253 2 47.5625 3.62947 4.42936
254 2 51.3079 3.76134 4.60257
255 2 55.4603 3.88321 4.40182
256 2 0.0120399 7.67112 4.49301
257 2 3.80162 7.6016 4.41353
258 2 7.75212 7.83341 4.4129
259 2 11.8625 7.73424 4.3877
260 2 16.0029 7.73223 4.39968
261 2 19.9358 7.87495 4.27177
262 2 24.001 7.59497 4.22326
263 2 27.7927 7.62238 4.29644
264 2 31.5488 7.6456 4.35391
265 2 35.5354 7.65896 4.12159
266 2 39.4422 7.71857 4.50256
267 2 43.7612 7.95509 4.4625
268 2 47.5505 7.80308 4.44162
269 2 51.543 7.67795 4.52485
270 2 55.3975 7.82347 4.4666
271 2 0.19332 11.6324 4.34858
272 2 3.99909 11.6498 4.50436
273 2 8.02367 11.6168 4.44625
274 2 12.2331 11.6386 4.39153
275 2 16.1113 11.8992 4.13146
276 2 19.8814 11.6411 4.26122
277 2 23.7817 11.7139 4.26909
278 2 27.7553 11.7507 4.40432
279 2 31.7857 11.5652 4.07078
280 2 35.7038 11.6551 4.40043
281 2 39.7123 11.7595 4.3896
282 2 43.6633 11.9166 4.33046
283 2 47.5708 11.6655 4.35282
284 2 51.4788 11.6944 4.63208
285 2 55.5274 11.6329 4.54756
286 2 0.210515 15.4415 4.39
287 2 4.10816 15.5674 4.25089
288 2 7.83425 15.63 4.49128
289 2 11.9362 15.5245 4.65257
290 2 16.0209 15.8582 4.25366
291 2 19.8637 15.9102 4.3043
292 2 23.822 15.6361 4.19426
293 2 27.9248 15.8205 4.26188
294 2 31.7683 15.5618 4.24432
295 2 35.6973 15.509 4.37784
296 2 39.8001 15.6447 4.16305
297 2 43.6636 15.845 4.20334
298 2 47.6264 15.604 4.2483
299 2 51.5063 15.6939 4.31704
300 2 55.5432 15.7424 4.54742
301 2 0.113682 19.4879 4.2631
302 2 4.0474 19.6455 4.3323
303 2 7.97717 19.6006 4.31754
304 2 12.0074 19.5665 4.18955
305 2 15.9719 19.6287 4.28951
306 2 19.9906 19.5245 4.11389
307 2 23.9035 19.6961 4.31935
308 2 27.817 19.7469 4.36257
309 2 31.6591 19.6316 4.17972
310 2 35.7735 19.5324 4.52003
311 2 39.3572 19.6723 4.34819
312 2 43.6703 19.8594 4.23365
313 2 47.3559 19.5493 4.51331
314 2 51.1676 19.6071 4.45822
315 2 55.412 19.5196 4.37803
316 2 0.0885202 23.5624 4.31697
317 2 4.11542 23.6565 4.42048
318 2 7.94058 23.6505 4.60597
319 2 12.0312 23.4913 4.34079
320 2 15.8807 23.6169 4.5418
321 2 19.9517 23.4004 4.48571
322 2 23.8368 23.4986 4.31731
323 2 27.7918 23.6895 4.40026
324 2 31.6649 23.5035 4.3664
325 2 35.7534 23.6842 4.21299
326 2 39.6059 23.7185 4.38852
327 2 43.3414 23.6004 4.28415
328 2 47.2773 23.8247 4.28298
329 2 51.53 23.5163 4.37996
330 2 55.59 23.339 4.47691
331 2 0.158398 27.4381 4.1704
332 2 3.86652 27.3352 4.35975
333 2 8.076 27.5835 4.34581
334 2 11.9081 27.435 4.3836
335 2 15.8608 27.665 4.40083
336 2 19.8362 27.3403 4.26711
337 2 23.7264 27.4909 4.36478
338 2 27.586 27.5417 4.21047
339 2 31.8805 27.552 4.17191
340 2 35.6723 27.6877 4.52481
341 2 39.4813 27.569 4.48727
342 2 43.511 27.477 4.29538
343 2 47.5806 27.5005 4.33072
344 2 51.5113 27.487 4.30588
345 2 55.5567 27.273 4.25245
346 2 0.198707 31.3931 4.42379
347 2 4.13019 31.446 4.40547
348 2 8.12407 31.5353 4.24791
349 2 11.9417 31.8088 4.25806
350 2 15.9937 31.3764 4.27055
351 2 19.9457 31.6495 4.37149
352 2 23.5247 31.5384 4.19709
353 2 27.7587 31.4049 4.41429
354 2 31.7515 31.4258 4.23876
355 2 35.4795 31.557 4.3295
356 2 39.4563 31.4697 4.33798
357 2 43.4381 31.4722 4.37671
358 2 47.5203 31.4528 4.33051
359 2 51.5038 31.4413 4.37384
360 2 55.5624 31.3447 4.33261
361 2 -0.0109812 35.4625 4.43573
362 2 4.10416 35.4287 4.35883
363 2 8.1032 35.4618 4.2325
364 2 12.0471 35.5642 4.19117
365 2 15.8156 35.2921 4.25632
366 2 19.7478 35.567 4.3039
367 2 23.6745 35.5739 4.32451
368 2 27.7457 35.4035 4.16976
369 2 31.6151 35.5723 4.24664
370 2 35.6383 35.3882 4.50278
371 2 39.621 35.2801 4.23955
372 2 43.5439 35.5786 4.38457
373 2 47.375 35.3254 4.39279
374 2 51.4585 35.4994 4.54252
375 2 55.6237 35.4938 4.39004
376 2 -0.139736 39.3171 4.28273
377 2 3.9541 39.4457 4.18648
378 2 8.00093 39.3128 4.30033
379 2 11.8752 39.4351 4.23116
380 2 15.9791 39.3912 4.23299
381 2 19.9376 39.3912 4.40306
382 2 23.6606 39.3404 4.34994
383 2 27.7623 39.6238 4.27041
384 2 31.8101 39.3162 4.23807
385 2 35.6221 39.4686 4.45134
386 2 39.6402 39.3215 4.47911
387 2 43.7055 39.5935 4.35561
388 2 47.4497 39.3498 4.28769
389 2 51.4075 39.2699 4.49307
390 2 55.4543 39.4906 4.44766
391 2 0.0403288 43.3894 4.26114
392 2 4.0912 43.462 4.28869
393 2 8.0449 43.2658 4.38494
394 2 11.982 43.3744 4.16697
395 2 15.8803 43.1962 4.26548
396 2 19.9283 43.4253 4.25028
397 2 23.9523 43.4909 4.19574
398 2 27.8063 43.4082 4.35954
399 2 31.7869 43.5323 4.46944
400 2 35.658 43.3829 4.32567
401 2 39.6962 43.4343 4.17303
402 2 43.6883 43.4037 4.30598
403 2 47.5812 43.3777 4.39681
404 2 51.3508 43.3216 4.31244
405 2 55.2698 43.1978 4.29197
406 2 0.10641 47.5328 4.17736
407 2 3.92877 47.2494 4.16992
408 2 8.00815 47.3892 4.37761
409 2 12.1886 47.3585 4.21235
410 2 15.9893 47.4234 4.31211
411 2 19.8043 47.2964 4.28148
412 2 23.8852 47.4424 4.24868
413 2 27.8952 47.3806 4.2595
414 2 31.947 47.4801 4.37307
415 2 35.713 47.2821 4.37172
416 2 39.54 47.2661 4.40771
417 2 43.6523 47.3024 4.4424
418 2 47.5168 47.4187 4.40275
419 2 51.4989 47.2894 4.34655
420 2 55.5184 47.223 4.36408
421 2 -0.186684 51.1953 4.40524
422 2 3.88294 51.2113 4.40604
423 2 7.96108 51.3482 4.37612
424 2 11.9556 51.1015 4.32869
425 2 15.8494 51.5509 4.3777
426 2 19.9709 51.4371 4.32473
427 2 23.8327 51.3625 4.37604
428 2 27.7873 51.3605 4.28556
429 2 31.5704 51.5812 4.31913
430 2 35.6107 51.3712 4.33072
431 2 39.6415 51.2568 4.45789
432 2 43.531 51.2558 4.35032
433 2 47.5021 51.432 4.52133
434 2 51.4586 51.4318 4.44547
435 2 55.2551 51.2562 4.47708
436 2 0.0516053 55.1641 4.35109
437 2 4.11361 55.1149 4.29252
438 2 7.89378 55.2176 4.21681
439 2 11.859 55.353 4.35541
440 2 15.7713 55.3578 4.25559
441 2 19.8591 55.2985 4.15167
442 2 23.784 55.3633 4.24034
443 2 27.6404 55.0577 4.12997
444 2 31.6272 55.1963 4.4107
445 2 35.8498 55.2719 4.2652
446 2 39.3941 55.3757 4.54479
447 2 43.2801 55.4047 4.38946
448 2 47.4817 55.1812 4.39421
449 2 51.306 55.4035 4.68118
450 2 55.3105 55.0537 4.41559
451 2 0.187068 59.2637 8.26084
452 2 4.15481 -0.161447 8.32613
453 2 7.92692 -0.286159 8.23086
454 2 12.0005 -0.206975 8.36889
455 2 16.1436 -0.0470719 8.18454
456 2 19.7953 0.048645 8.33209
457 2 23.877 -0.100426 8.25703
458 2 27.8345 -0.215202 8.33486
459 2 31.6701 -0.197661 8.30527
460 2 35.5975 59.0872 8.1655
461 2 39.6029 59.3167 8.37567
462 2 43.474 -0.00821182 8.46294
463 2 47.4816 -0.0958007 8.3601
464 2 51.5816 -0.00853308 8.58394
465 2 55.5106 -0.251522 8.43535
466 2 0.269226 3.79659 8.49307
467 2 4.16735 3.69682 8.35022
468 2 8.17524 3.82512 8.33037
469 2 11.9985 3.83413 8.41319
470 2 15.8924 3.84935 8.33042
471 2 19.9617 3.80788 8.33055
472 2 23.7984 3.75015 8.26634
473 2 27.7792 3.82914 8.34991
474 2 31.624 3.73418 8.3821
475 2 35.5356 3.67201 8.18924
476 2 39.6039 3.91089 8.24126
477 2 43.5768 3.93383 8.18621
478 2 47.5143 3.88313 8.43092
479 2 51.5425 3.82132 8.48476
480 2 55.5182 3.60096 8.37303
481 2 0.265513 7.81919 8.30515
482 2 3.96405 7.75902 8.39816
483 2 7.99364 7.89345 8.33648
484 2 11.9775 7.90612 8.09625
485 2 16.0993 7.70932 8.13788
486 2 20.161 7.78688 8.4787
487 2 23.9368 7.78651 8.3244
488 2 27.6318 7.64339 8.47722
489 2 31.7753 7.80517 8.21252
490 2 35.7164 7.72284 8.14841
491 2 39.724 7.75589 8.39166
492 2 43.6008 7.89377 8.42614
493 2 47.5953 7.70024 8.25031
494 2 51.7099 7.75619 8.50133
495 2 55.6543 7.67409 8.31093
496 2 0.119002 11.8077 8.37135
497 2 3.9717 11.7731 8.39587
498 2 8.02489 11.6386 8.24167
499 2 12.0552 11.7085 8.49719
500 2 16.0197 11.7297 8.30715
501 2 19.9919 11.7478 8.35791
502 2 23.8939 11.8648 8.15344
503 2 27.8832 11.7846 8.11938
504 2 31.819 11.5703 8.16856
505 2 35.6736 11.7296 8.08659
506 2 39.6486 11.6361 8.26546
507 2 43.6114 11.6581 8.49411
508 2 47.6331 11.6322 8.46653
509 2 51.6022 11.6168 8.31007
510 2 55.4689 11.6659 8.49251
511 2 0.134802 15.5589 8.19632
512 2 3.91643 15.6829 8.29107
513 2 8.01516 15.448 8.31849
514 2 11.9367 15.5963 8.24119
515 2 16.1581 15.7903 8.11874
516 2 20.0959 15.6696 8.24529
517 2 23.9591 15.6866 7.95747
518 2 27.8791 15.7155 8.33684
519 2 31.6381 15.5273 8.30753
520 2 35.6399 15.5512 8.41913
521 2 39.7471 15.653 8.3045
522 2 43.5491 15.7432 8.25208
523 2 47.5229 15.6627 8.39644
524 2 51.5312 15.6606 8.28597
525 2 55.218 15.6336 8.35048
526 2 0.0101189 19.4651 8.35885
527 2 4.0471 19.6004 8.33148
528 2 8.03528 19.6959 8.31939
529 2 12.0212 19.5948 8.48017
530 2 15.9728 19.5136 8.4584
531 2 19.9493 19.7048 8.47503
532 2 23.8412 19.5944 8.20114
533 2 28.0908 19.7145 8.13167
534 2 31.7661 19.5805 8.32426
535 2 35.6699 19.6659 8.45708
536 2 39.4973 19.5323 8.195
537 2 43.5337 19.5271 8.29953
538 2 47.5482 19.6597 8.34512
539 2 51.4915 19.5104 8.29557
540 2 55.6374 19.5194 8.44941
541 2 0.0844082 23.3743 8.3336
542 2 4.16272 23.6492 8.3393
543 2 8.04756 23.6035 8.40691
544 2 12.0763 23.8891 8.28779
545 2 15.8599 23.5468 8.34001
546 2 20.1708 23.5095 8.30381
547 2 24.0727 23.7356 8.33608
548 2 27.7873 23.8563 8.18658
549 2 31.968 23.7644 8.32343
550 2 35.549 23.6346 8.42174
551 2 39.6585 23.4486 8.31804
552 2 43.5582 23.4687 8.42252
553 2 47.501 23.45 8.34895
554 2 51.5686 23.4652 8.16218
555 2 55.6067 23.7418 8.24466
556 2 59.3577 27.6318 8.32326
557 2 4.09241 27.5884 8.35757
558 2 8.1116 27.6173 8.17338
559 2 12.1217 27.6354 8.34316
560 2 15.8744 27.7425 8.24653
561 2 19.8958 27.5291 8.38847
562 2 23.9411 27.5917 8.36463
563 2 27.7478 27.713 8.26151
564 2 31.5341 27.5416 8.42878
565 2 35.3516 27.675 8.39874
566 2 39.4235 27.5408 8.4367
567 2 43.3769 27.5442 8.20531
568 2 47.3848 27.5001 8.24281
569 2 51.2885 27.4561 8.22202
570 2 55.4832 27.4941 8.2428
571 2 0.185131 31.4409 8.21054
572 2 4.12177 31.5064 8.13299
573 2 8.07916 31.3394 8.14774
574 2 12.1255 31.6081 8.21851
575 2 16.0441 31.4785 8.28461
576 2 19.9683 31.5559 8.3571
577 2 23.7127 31.6869 8.31602
578 2 27.7085 31.3072 8.27603
579 2 31.7 31.5344 8.2236
580 2 35.5514 31.5265 8.21302
581 2 39.5193 31.2798 8.12578
582 2 43.6775 31.57 8.28524
583 2 47.721 31.4472 8.33886
584 2 51.5457 31.6605 8.29736
585 2 55.3532 31.4795 8.17261
586 2 0.149213 35.3888 8.3095
587 2 4.04389 35.4836 8.32865
588 2 8.13626 35.4061 8.34291
589 2 11.8928 35.541 8.28106
590 2 15.9966 35.3823 8.22534
591 2 19.8024 35.7001 8.29798
592 2 24.0014 35.4346 8.22221
593 2 27.6839 35.5195 8.20694
594 2 31.5684 35.4744 8.39998
595 2 35.8242 35.4748 8.16332
596 2 39.6906 35.3781 8.30579
597 2 43.5307 35.3373 8.26159
598 2 47.3789 35.5243 8.36363
599 2 51.5265 35.3788 8.28472
600 2 55.4835 35.3556 8.28281
601 2 0.133189 39.4401 8.25498
602 2 3.87749 39.2583 8.18025
603 2 8.08176 39.5053 8.28743
604 2 12.0036 39.3193 8.06846
605 2 15.9826 39.4099 8.25943
606 2 19.8577 39.6752 8.27803
607 2 23.811 39.3077 8.36236
608 2 27.6883 39.7787 8.07056
609 2 31.5921 39.6202 8.2888
610 2 35.5323 39.1595 8.22149
611 2 39.6538 39.3145 8.30747
612 2 43.5287 39.4928 8.40689
613 2 47.5142 39.2475 8.25552
614 2 51.4781 39.4829 8.49761
615 2 55.4895 39.2597 8.3913
616 2 0.0349141 43.1492 8.27412
617 2 4.06623 43.2697 8.17334
618 2 7.97452 43.2045 8.22035
619 2 11.9614 43.3281 8.06049
620 2 16.0876 43.4531 8.20431
621 2 20.1097 43.4545 8.0194
622 2 23.8516 43.4691 8.25366
623 2 27.7192 43.327 8.22836
624 2 31.7777 43.3891 8.3737
625 2 35.7159 43.4711 8.30166
626 2 39.7166 43.3244 8.40693
627 2 43.6721 43.2744 8.38221
628 2 47.4518 43.4083 8.47866
629 2 51.3353 43.2513 8.11456
630 2 55.2856 43.5445 8.22413
631 2 0.168685 47.3242 8.42281
632 2 4.04485 47.1863 8.20646
633 2 8.1005 47.2572 8.436
634 2 11.9883 47.2716 8.22295
635 2 16.0299 47.246 8.18863
636 2 19.896 47.228 8.23686
637 2 23.8327 47.551 8.08312
638 2 27.741 47.2949 8.33067
639 2 31.6106 47.4124 8.50627
640 2 35.7516 47.2634 8.46899
641 2 39.7087 47.356 8.44788
642 2 43.6594 47.4062 8.42501
643 2 47.4568 47.5536 8.21058
644 2 51.3269 47.2205 8.26697
645 2 55.5691 47.3154 8.33717
646 2 -0.0196317 51.2106 8.29644
647 2 4.05031 51.2562 8.28084
648 2 8.17942 51.257 8.173
649 2 11.958 51.2458 8.23742
650 2 16.1741 51.3908 8.28676
651 2 20.0739 51.271 8.27491
652 2 23.948 51.1748 8.28521
653 2 27.6795 51.2797 8.43151
654 2 31.8131 51.1877 8.2352
655 2 35.7328 51.3073 8.45874
656 2 39.6684 51.1589 8.27235
657 2 43.6724 51.3107 8.57422
658 2 47.5023 51.2903 8.47847
659 2 51.2131 51.2664 8.29086
660 2 55.4114 51.2351 8.54605
661 2 0.145465 55.3293 8.20314
662 2 4.1185 55.0443 8.32679
663 2 7.99253 55.2475 8.32054
664 2 11.9297 55.4155 8.35153
665 2 15.978 55.2218 8.23776
666 2 19.9527 55.3043 8.20679
667 2 23.944 55.0896 8.21841
668 2 27.6689 55.3013 8.28471
669 2 31.8312 55.2962 8.33837
670 2 35.7737 55.134 8.23798
671 2 39.5946 55.0961 8.33659
672 2 43.4865 55.2671 8.46792
673 2 47.3984 55.1823 8.47401
674 2 51.349 55.335 8.44364
675 2 55.3385 55.3917 8.23247
676 2 0.114324 -0.220907 12.2197
677 2 4.09963 -0.174072 12.2557
678 2 8.12048 -0.0999239 12.393
679 2 11.9338 0.0992566 12.2165
680 2 16.0686 59.206 12.1932
681 2 20.0832 -0.142648 12.2963
682 2 23.8903 -0.11103 12.2518
683 2 27.7988 -0.0864356 12.2112
684 2 31.6378 0.0673991 12.2541
685 2 35.6894 -0.000541607 12.2592
686 2 39.6901 -0.0805705 12.3187
687 2 43.6361 -0.0466679 12.5111
688 2 47.6535 -0.223282 12.2702
689 2 51.5013 -0.0685228 12.4047
690 2 55.4965 -0.0665266 12.2633
691 2 0.428285 3.84419 12.2428
692 2 4.18016 3.64992 12.2657
693 2 8.09621 3.88731 12.2105
694 2 11.989 4.015 12.2985
695 2 15.8667 3.93748 12.3124
696 2 19.8516 3.78483 12.2787
697 2 23.8309 3.87938 12.3941
698 2 27.6457 3.91323 12.3635
699 2 31.7697 3.73025 12.3842
700 2 35.5846 3.8918 12.019
701 2 39.6075 3.7508 12.3106
702 2 43.6089 3.82616 12.0473
703 2 47.7097 3.67384 12.1494
704 2 51.5016 3.91349 12.1965
705 2 55.6621 3.86815 12.4932
706 2 0.103485 7.62871 12.515
707 2 4.07788 7.74583 12.2629
708 2 7.88899 7.93366 12.2947
709 2 12.0346 7.81858 12.4179
710 2 15.898 7.74776 12.136
711 2 19.7887 7.67363 12.4618
712 2 23.7679 7.69184 12.35
713 2 27.8353 7.97348 12.1788
714 2 31.7409 7.77955 12.2658
715 2 35.7559 7.71151 12.2811
716 2 39.5978 7.71741 12.3662
717 2 43.6585 7.72064 12.4553
718 2 47.5322 7.91852 12.1462
719 2 51.3349 7.84243 12.4153
720 2 55.3799 7.69946 12.3981
721 2 0.0379511 11.8887 12.2239
722 2 4.15585 11.5913 12.2174
723 2 8.12944 11.6359 12.1876
724 2 11.9258 11.7328 12.3582
725 2 15.8796 11.7315 12.222
726 2 20.0188 11.6152 12.47
727 2 23.9594 11.6601 12.2827
728 2 27.8983 11.8816 12.0688
729 2 31.7659 11.8166 12.2864
730 2 35.7095 11.7112 12.3207
731 2 39.6837 11.7169 12.388
732 2 43.7501 11.9118 12.2683
733 2 47.5271 11.9009 12.4129
734 2 51.6568 11.6156 12.3165
735 2 55.629 11.8748 12.228
736 2 0.0919051 15.7915 12.4068
737 2 4.19846 15.6904 12.4859
738 2 8.10974 15.6659 12.296
739 2 11.9524 15.5632 12.2105
740 2 15.9837 15.6732 12.2852
741 2 19.7323 15.5171 12.1873
742 2 24.0876 15.6423 12.1579
743 2 27.8372 15.9177 12.2617
744 2 31.8271 15.8903 12.2395
745 2 35.7013 15.6604 12.1419
746 2 39.6571 15.5596 12.203
747 2 43.6928 15.9181 12.3273
748 2 47.7513 15.659 12.4083
749 2 51.6524 15.6987 12.3148
750 2 55.711 15.706 12.2238
751 2 0.123292 19.8745 12.1395
752 2 4.04748 19.5246 12.2862
753 2 8.27395 19.6551 12.0917
754 2 12.1489 19.5647 12.2573
755 2 16.0431 19.7275 12.3892
756 2 20.0738 19.8105 12.1638
757 2 24.0054 19.5973 12.2535
758 2 27.8075 19.8673 12.1876
759 2 31.8088 19.7029 12.2151
760 2 35.7937 19.6179 12.1529
761 2 39.582 19.6 12.0824
762 2 43.6287 19.644 12.4334
763 2 47.6653 19.6916 12.2691
764 2 51.4567 19.4997 12.1693
765 2 55.4629 19.6308 12.2823
766 2 -0.0257426 23.6939 12.3278
767 2 4.09097 23.5365 12.2747
768 2 8.0791 23.5417 12.3422
769 2 12.0031 23.517 12.4078
770 2 15.9616 23.7027 12.3821
771 2 20.0147 23.7293 12.2233
772 2 23.8412 23.8266 12.119
773 2 27.8098 23.5716 12.4467
774 2 31.5646 23.8292 12.1815
775 2 35.5072 23.8162 12.4227
776 2 39.4668 23.4294 12.1792
777 2 43.4773 23.5973 12.3271
778 2 47.6444 23.616 12.1971
779 2 51.6076 23.5213 12.2712
780 2 55.5079 23.7491 12.3259
781 2 0.119229 27.5352 12.1903
782 2 4.20305 27.6615 12.1933
783 2 8.09961 27.4927 12.1423
784 2 11.9411 27.6534 12.1946
785 2 16.0581 27.3826 12.2707
786 2 19.9255 27.5652 12.3248
787 2 23.83 27.7742 12.2898
788 2 27.6875 27.614 12.4755
789 2 31.6965 27.7926 12.4834
790 2 35.6002 27.7296 12.421
791 2 39.5533 27.5083 12.1907
792 2 43.633 27.5589 12.3284
793 2 47.5628 27.4096 12.1902
794 2 51.6441 27.5123 12.1758
795 2 55.4777 27.5916 12.0378
796 2 0.174585 31.5243 12.0496
797 2 3.95245 31.7469 12.1799
798 2 7.96556 31.7001 12.0897
799 2 11.9222 31.6484 12.0527
800 2 16.0546 31.6171 12.2809
801 2 19.8355 31.4116 12.386
802 2 23.8168 31.7364 12.1567
803 2 27.682 31.7134 12.3636
804 2 31.5405 31.7143 12.3008
805 2 35.5824 31.7193 12.3477
806 2 39.5917 31.4644 12.0577
807 2 43.5955 31.6219 12.2768
808 2 47.5242 31.4123 12.3368
809 2 51.5512 31.3652 12.1397
810 2 55.7133 31.4525 12.2728
811 2 0.12786 35.5309 12.0686
812 2 4.0837 35.5288 12.1513
813 2 8.18873 35.4378 12.2014
814 2 11.9875 35.6833 12.3088
815 2 16.0046 35.6725 12.3115
816 2 19.9104 35.756 12.241
817 2 23.7969 35.751 12.2278
818 2 27.6396 35.484 12.2989
819 2 31.5889 35.5787 12.2652
820 2 35.7714 35.4177 12.1094
821 2 39.6772 35.5038 12.2361
822 2 43.5988 35.3409 12.3901
823 2 47.4595 35.2849 12.2131
824 2 51.5169 35.3062 12.2123
825 2 55.513 35.4038 12.4408
826 2 0.0928211 39.3279 12.1978
827 2 4.13669 39.411 12.2708
828 2 8.12208 39.4515 12.2577
829 2 12.1265 39.5617 12.2608
830 2 16.102 39.5896 12.2544
831 2 19.9578 39.6769 12.2658
832 2 23.6927 39.5091 12.1752
833 2 27.855 39.5339 12.28
834 2 31.7068 39.502 12.2205
835 2 35.5398 39.5218 12.0845
836 2 39.6298 39.5088 12.3675
837 2 43.7614 39.2464 12.3966
838 2 47.6709 39.2727 12.2237
839 2 51.6464 39.3436 12.2725
840 2 55.4156 39.3608 12.2225
841 2 0.269362 43.4203 12.3826
842 2 4.18754 43.379 12.0147
843 2 8.04523 43.3687 12.0947
844 2 12.0976 43.5082 12.2996
845 2 15.9905 43.353 12.151
846 2 20.014 43.4271 12.2981
847 2 23.9367 43.2527 12.3928
848 2 27.8308 43.4081 12.2236
849 2 31.7708 43.283 12.3788
850 2 35.7604 43.3608 12.0852
851 2 39.5945 43.4921 12.2039
852 2 43.7186 43.3077 12.3308
853 2 47.4962 43.2516 12.4268
854 2 51.3367 43.3749 12.1388
855 2 55.5272 43.1678 12.3435
856 2 0.185371 47.2356 12.2991
857 2 4.15046 47.2786 12.475
858 2 8.0409 47.1688 12.0325
859 2 12.0287 47.4069 12.2332
860 2 16.1791 47.4979 11.9749
861 2 19.9455 47.2974 12.3751
862 2 23.7698 47.1868 12.1365
863 2 27.9683 47.578 12.4241
864 2 31.8309 47.4464 12.2869
865 2 35.803 47.3333 12.3628
866 2 39.7406 47.1878 12.3388
867 2 43.4486 47.2562 12.3745
868 2 47.5234 47.1442 12.4324
869 2 51.3865 47.1401 12.1923
870 2 55.5176 47.231 12.3822
871 2 0.162406 51.3067 12.2244
872 2 4.1512 51.2121 12.3223
873 2 7.93072 51.2066 12.1658
874 2 11.9764 51.3455 12.1708
875 2 16.0424 51.1896 12.1754
876 2 19.7572 51.2856 12.2839
877 2 23.5562 51.283 12.209
878 2 27.7095 51.3046 12.4362
879 2 31.7209 51.3516 12.4155
880 2 35.7709 51.3453 12.3039
881 2 39.5964 51.4735 12.3189
882 2 43.3683 51.3111 12.5065
883 2 47.5055 51.3116 12.5156
884 2 51.4492 51.0681 12.1878
885 2 55.3414 51.2205 12.337
886 2 -0.002142 55.0873 12.1415
887 2 3.96496 55.1031 12.2989
888 2 7.87528 55.2064 12.2973
889 2 12.0276 55.1869 12.0091
890 2 16.0554 55.2092 12.3226
891 2 19.9765 55.2712 12.352
892 2 23.9812 55.3763 12.1695
893 2 27.9179 55.284 12.2887
894 2 31.9173 55.1635 12.25
895 2 35.6621 55.3325 12.4011
896 2 39.6212 55.4586 12.2853
897 2 43.6011 55.485 12.3073
898 2 47.4699 55.2027 12.3664
899 2 51.3131 55.146 12.1343
900 2 55.5802 55.1372 12.2734
901 2 0.26296 -0.339375 16.374
902 2 4.0954 -0.279551 16.3419
903 2 8.13343 -0.0770452 16.2917
904 2 12.0961 0.00926897 16.4039
905 2 15.9428 -0.0996412 16.2341
906 2 20.0789 -0.115486 16.2082
907 2 24.0601 -0.163143 16.3316
908 2 27.7387 -0.0942179 16.337
909 2 31.811 0.110244 16.3003
910 2 35.7247 -0.154007 16.2577
911 2 39.8243 -0.13395 16.3355
912 2 43.7334 59.2439 16.2451
913 2 47.6898 59.229 16.4497
914 2 51.7101 59.3407 16.1453
915 2 55.5888 -0.308241 16.2522
916 2 0.132095 3.78074 16.1543
917 2 4.12813 3.47669 16.034
918 2 8.08843 3.91163 16.1854
919 2 12.0845 3.92087 16.278
920 2 16.0215 3.71216 16.3063
921 2 19.8247 3.92938 16.1869
922 2 23.7016 3.71495 16.1919
923 2 27.7223 4.01336 16.1562
924 2 31.8034 3.89838 16.4197
925 2 35.5253 3.75889 16.4042
926 2 39.6449 3.92577 16.3763
927 2 43.5848 4.0699 16.1988
928 2 47.6582 3.73315 16.2539
929 2 51.7594 3.82386 16.2712
930 2 55.7053 3.7029 16.1694
931 2 0.192961 7.79148 16.289
932 2 3.99678 7.81592 16.444
933 2 7.98788 7.75291 16.4071
934 2 12.12 7.85971 16.3083
935 2 15.9822 7.9269 16.3715
936 2 19.8509 8.03818 16.1341
937 2 23.8414 7.80651 16.2389
938 2 27.7388 7.9017 16.2128
939 2 31.8698 7.68735 16.1342
940 2 35.7385 7.88299 16.1319
941 2 39.7509 7.97036 16.3831
942 2 43.5921 7.6497 16.2365
943 2 47.8065 7.75368 16.1115
944 2 51.7683 7.94954 15.9996
945 2 55.5873 7.8747 16.2404
946 2 59.5615 11.7836 16.2319
947 2 4.15778 11.8422 16.3331
948 2 8.21372 11.9758 16.3331
949 2 11.9729 11.8285 16.2826
950 2 16.0971 11.8283 16.2737
951 2 19.9614 12.058 16.277
952 2 23.9682 11.7788 16.2821
953 2 27.6871 11.8836 16.2393
954 2 31.738 11.9252 16.0962
955 2 35.5093 11.9409 16.334
956 2 39.7513 11.7855 16.2298
957 2 43.4738 11.6066 16.109
958 2 47.6782 11.7336 16.4152
959 2 51.4224 11.9355 16.3157
960 2 55.4049 11.6774 16.1696
961 2 0.138921 15.6301 16.0153
962 2 4.18967 15.4914 16.2408
963 2 8.133 15.7384 16.3275
964 2 12.1962 15.863 16.038
965 2 16.0185 15.7801 16.162
966 2 19.9427 15.8391 16.1462
967 2 23.8861 15.9902 16.113
968 2 27.9315 15.858 16.0166
969 2 31.9726 15.8762 16.2379
970 2 35.7499 16.0517 16.0177
971 2 39.5703 15.6957 16.3459
972 2 43.6968 15.5436 16.2213
973 2 47.4995 15.962 16.3485
974 2 51.4695 15.8543 16.2846
975 2 55.4317 15.7441 16.322
976 2 0.156657 19.7123 16.31
977 2 4.15575 19.7242 16.2003
978 2 8.07383 19.7023 16.2472
979 2 12.1887 19.6065 16.2574
980 2 16.0715 19.8172 16.1777
981 2 20.1459 19.6735 16.1484
982 2 24.0356 19.7241 16.0774
983 2 27.8459 19.8297 16.1664
984 2 31.852 19.8615 16.3254
985 2 35.7037 19.749 16.351
986 2 39.8798 19.8109 16.0569
987 2 43.671 19.721 16.3325
988 2 47.4763 19.8019 16.3076