ITEM: TIMESTEP
36100
ITEM: NUMBER OF ATOMS
28125
ITEM: BOX BOUNDS xy xz yz pp pp pp
0.0000000000000000e+00 5.9369999999999997e+01 0.0000000000000000e+00
0.0000000000000000e+00 5.9369999999999997e+01 0.0000000000000000e+00
9.7251073056334292e-02 9.9402748926943943e+01 0.0000000000000000e+00
ITEM: ATOMS id type x y z
1 2 -0.0494671 -0.11742 0.539594
2 2 3.99368 -0.247299 0.235774
3 2 7.75464 -0.238666 0.398162
4 2 11.7557 -0.195587 0.431788
5 2 15.8531 -0.268645 0.350057
6 2 19.9933 -0.0625204 0.603888
7 2 23.6113 -0.252473 0.392384
8 2 27.7882 -0.282069 0.210489
9 2 31.6651 -0.162071 0.385853
10 2 35.6141 -0.257547 0.381106
11 2 39.4976 59.3189 0.542147
12 2 43.502 -0.161152 0.579203
13 2 47.3088 -0.219667 0.589313
14 2 51.1733 -0.289879 0.268359
15 2 55.3756 59.1928 0.443853
16 2 -0.136404 3.78737 0.413436
17 2 3.98872 3.55728 0.370688
18 2 8.09762 3.78518 0.45373
19 2 11.8936 3.70585 0.234838
20 2 15.9755 3.69616 0.416485
21 2 19.9158 3.74902 0.468418
22 2 24.0727 3.79979 0.317448
23 2 27.841 3.69082 0.401462
24 2 31.7238 3.7831 0.383366
25 2 35.6626 3.76617 0.456469
26 2 39.1913 3.7917 0.53719
27 2 43.3329 3.83277 0.333109
28 2 47.3651 3.62257 0.0356705
29 2 51.295 3.57271 0.355514
30 2 55.1712 3.9275 0.497812
31 2 0.0461863 7.71811 0.27757
32 2 3.97508 7.60276 0.571127
33 2 7.96857 7.68845 0.254752
34 2 11.8695 7.73241 0.267191
35 2 15.823 7.56117 0.326408
36 2 19.8894 7.77023 0.241413
37 2 23.7879 7.72626 0.26052
38 2 27.8483 7.80244 0.323054
39 2 31.512 7.66698 0.418501
40 2 35.3657 7.84567 0.421026
41 2 39.4072 7.76626 0.365397
42 2 43.3438 7.73236 0.34902
43 2 47.2062 7.73277 0.29987
44 2 51.4056 7.8631 0.237754
45 2 55.2913 7.77385 0.583118
46 2 59.2703 11.6251 0.538525
47 2 3.87087 11.7348 0.560342
48 2 7.84126 11.7088 0.272222
49 2 11.8363 11.8187 0.361769
50 2 15.8236 11.6508 0.314393
51 2 19.8638 11.7717 0.0133511
52 2 23.7391 11.5107 0.387108
53 2 27.5124 11.5104 0.399535
54 2 31.6568 11.8493 0.418585
55 2 35.5063 11.7213 0.193244
56 2 39.6118 11.6929 0.462609
57 2 43.4613 11.9272 0.466127
58 2 47.6957 11.6859 0.207109
59 2 51.458 11.678 0.290105
60 2 55.4796 11.6736 0.579438
61 2 0.135327 15.7252 0.476169
62 2 4.01465 15.5981 0.266791
63 2 7.94206 15.8333 0.329138
64 2 12.0194 15.771 0.276307
65 2 15.9669 15.6615 0.388772
66 2 19.8566 15.6289 0.321481
67 2 23.7897 15.6911 0.397322
68 2 27.5904 15.4621 0.33441
69 2 31.671 15.751 0.424165
70 2 35.6593 15.678 0.254676
71 2 39.586 15.7457 0.239486
72 2 43.5466 15.6947 0.249087
73 2 47.5036 15.7383 0.34428
74 2 51.438 15.713 0.235942
75 2 55.3279 15.7324 0.406952
76 2 59.2858 19.8349 0.341351
77 2 3.96402 19.6855 0.36866
78 2 7.99916 19.6844 0.372394
79 2 11.9118 19.7795 0.398991
80 2 15.7894 19.6684 0.349736
81 2 19.805 19.6557 0.270713
82 2 23.7372 19.5872 0.476596
83 2 27.7315 19.6014 0.432921
84 2 31.6872 19.6163 0.546699
85 2 35.7255 19.486 0.385542
86 2 39.6624 19.6934 0.384881
87 2 43.5474 19.5652 0.252329
88 2 47.3826 19.4708 0.244888
89 2 51.2156 19.6326 0.298741
90 2 55.3225 19.7809 0.497818
91 2 0.0546274 23.5608 0.453515
92 2 3.84134 23.4294 0.208595
93 2 7.89326 23.6981 0.354338
94 2 11.7657 23.4786 0.136089
95 2 16.0413 23.5409 0.243847
96 2 19.9059 23.4709 0.149112
97 2 23.7794 23.3962 0.34521
98 2 27.8057 23.5748 0.371979
99 2 31.7555 23.5849 0.36982
100 2 35.6013 23.3311 0.176614
101 2 39.5332 23.662 0.0664952
102 2 43.3857 23.4907 0.349945
103 2 47.452 23.7381 0.175694
104 2 51.4509 23.6161 0.318579
105 2 55.4457 23.6702 0.310315
106 2 -0.187565 27.4712 0.355544
107 2 4.19375 27.5697 0.373545
108 2 7.95721 27.622 0.430792
109 2 12.0469 27.6041 0.473121
110 2 15.8281 27.5487 0.447813
111 2 19.7279 27.3431 0.12734
112 2 23.7979 27.4555 0.474272
113 2 27.816 27.4844 0.0298473
114 2 31.5888 27.7861 0.32499
115 2 35.6382 27.4825 0.380986
116 2 39.6769 27.4667 0.394702
117 2 43.4865 27.5793 0.502235
118 2 47.4362 27.5518 0.388084
119 2 51.4396 27.5564 0.405898
120 2 55.2592 27.5387 0.431219
121 2 0.14222 31.484 0.449561
122 2 3.94113 31.5512 0.411554
123 2 8.13003 31.666 0.41914
124 2 12.0774 31.6507 0.491272
125 2 15.9816 31.522 0.258364
126 2 19.9639 31.6615 0.348744
127 2 23.7442 31.4969 0.291425
128 2 27.6865 31.4449 0.480666
129 2 31.8018 31.7171 0.305473
130 2 35.6297 31.6118 0.421851
131 2 39.4668 31.5504 0.342878
132 2 43.3866 31.47 0.378935
133 2 47.3963 31.5519 0.24229
134 2 51.33 31.3401 0.404708
135 2 55.3937 31.52 0.425023
136 2 -0.108781 35.41 0.401301
137 2 3.98693 35.4844 0.317871
138 2 8.10209 35.5959 0.0580773
139 2 11.9615 35.5673 0.212555
140 2 16.0202 35.4677 0.11365
141 2 19.8409 35.352 0.316402
142 2 23.6514 35.5561 0.405303
143 2 27.6237 35.3766 0.375289
144 2 31.5858 35.504 0.593946
145 2 35.5651 35.4557 0.447822
146 2 39.4733 35.5006 0.46529
147 2 43.4546 35.4722 0.38754
148 2 47.5379 35.6454 0.329771
149 2 51.3004 35.3713 0.449849
150 2 55.2489 35.3969 0.323267
151 2 -0.12991 39.4146 0.159058
152 2 4.01805 39.4205 0.417452
153 2 8.05486 39.4229 0.303808
154 2 11.8662 39.3991 0.248243
155 2 15.8109 39.5208 0.348899
156 2 19.5654 39.1591 0.193334
157 2 23.7273 39.5189 0.39578
158 2 27.7828 39.3708 0.431487
159 2 31.8264 39.6284 0.269365
160 2 35.6112 39.2316 0.416006
161 2 39.5651 39.4675 0.420342
162 2 43.3783 39.4059 0.44878
163 2 47.3183 39.4569 0.271099
164 2 51.4786 39.5573 0.341271
165 2 55.3618 39.4911 0.258654
166 2 0.0154156 43.2634 0.524885
167 2 4.03206 43.4032 0.551125
168 2 8.09343 43.4077 0.157689
169 2 11.9145 43.5403 0.237065
170 2 15.8922 43.3532 0.413168
171 2 19.6081 43.1273 0.155126
172 2 23.8662 43.4049 0.132661
173 2 27.9384 43.2618 0.179936
174 2 31.6461 43.365 0.44258
175 2 35.6247 43.3508 0.328344
176 2 39.6089 43.4272 0.328829
177 2 43.6712 43.2956 0.407122
178 2 47.5038 43.461 0.453225
179 2 51.4407 43.3921 0.164554
180 2 55.5787 43.5089 0.270015
181 2 -0.102547 47.2008 0.0825843
182 2 3.89426 47.2692 0.302111
183 2 7.99426 47.3896 0.266215
184 2 11.9996 47.5206 99.659
185 2 15.7078 47.3787 0.239436
186 2 19.9329 47.2638 0.25896
187 2 23.9362 47.1798 0.231413
188 2 27.8301 47.3447 99.6291
189 2 31.5961 47.2679 0.30941
190 2 35.6598 47.3235 0.371302
191 2 39.6804 47.2425 0.388904
192 2 43.6971 47.3604 0.382515
193 2 47.5966 47.3762 0.428212
194 2 51.5536 47.5842 0.424988
195 2 55.415 47.347 0.348133
196 2 0.0593882 51.2385 0.377641
197 2 3.77541 51.2566 0.585575
198 2 8.13251 51.4093 0.205715
199 2 12.0302 51.1358 99.6637
200 2 16.0127 51.4068 0.194729
201 2 19.952 51.2908 0.234384
202 2 23.8657 51.4409 0.118099
203 2 27.7911 51.3301 0.237071
204 2 31.8035 51.344 0.288805
205 2 35.6584 51.1086 0.408813
206 2 39.3899 51.1726 0.415765
207 2 43.4407 51.1683 0.31606
208 2 47.3797 51.6705 0.236614
209 2 51.3674 51.361 0.421162
210 2 55.5019 51.2752 0.532483
211 2 0.0304553 55.2143 99.4009
212 2 3.99685 55.117 0.364461
213 2 7.89089 55.1634 0.213449
214 2 11.9373 55.215 0.2108
215 2 15.8135 55.2823 0.281694
216 2 19.994 55.3587 0.373883
217 2 23.8288 55.2085 0.107831
218 2 27.8079 55.1717 0.166037
219 2 31.6361 55.2681 0.41121
220 2 35.598 55.2726 0.279269
221 2 39.5741 55.0822 0.362634
222 2 43.6123 55.6111 0.261472
223 2 47.5512 55.376 0.50031
224 2 51.4841 55.2058 0.353696
225 2 55.5064 55.0454 0.237878
226 2 -0.0196867 -0.0899945 4.2886
227 2 3.98238 -0.3595 4.08371
228 2 8.03749 -0.297115 4.16012
229 2 11.909 59.1793 4.30186
230 2 15.769 -0.307302 4.43547
231 2 19.9822 -0.305041 4.38354
232 2 23.9605 -0.245171 4.32652
233 2 27.6538 -0.253256 4.27191
234 2 31.6392 -0.382665 4.36371
235 2 35.6076 -0.172994 4.43415
236 2 39.5638 -0.315985 4.47578
237 2 43.4028 -0.134148 4.50823
238 2 47.4763 -0.103445 4.48878
239 2 51.5765 -0.180896 4.33887
240 2 55.6505 59.2193 4.43006
241 2 0.0788394 3.73387 4.36861
242 2 3.92176 3.6317 4.38118
243 2 7.9713 3.89023 4.16463
244 2 12.2091 3.87256 4.28294
245 2 15.9894 3.76039 4.2154
246 2 19.888 3.58835 4.21907
247 2 23.837 3.77013 4.3987
248 2 27.8785 3.74485 4.31872
249 2 31.5713 3.66511 4.31966
250 2 35.5388 3.79554 4.32823
251 2 39.5083 3.73491 4.35017
252 2 43.4849 3.80901 4.33754
253 2 47.51 3.69835 4.22943
254 2 51.5276 3.616 4.2273
255 2 55.2388 3.97332 4.29929
256 2 -0.0834851 7.62847 4.36503
257 2 4.06405 7.71527 4.29543
258 2 7.94804 7.70226 4.33821
259 2 12.0187 7.79543 4.35796
260 2 15.8959 7.56482 4.10912
261 2 19.8845 7.65132 4.31754
262 2 23.9037 7.74153 4.26967
263 2 27.9168 7.74118 4.45816
264 2 31.5606 7.74208 4.51082
265 2 35.4865 7.74993 4.49275
266 2 39.5426 7.71402 4.28225
267 2 43.5749 7.75225 4.30187
268 2 47.3766 7.68624 4.29831
269 2 51.2274 7.73213 4.28115
270 2 55.2023 7.87857 4.34908
271 2 0.0302883 11.7366 4.22384
272 2 4.12281 11.6682 4.3384
273 2 7.97173 11.5049 4.27557
274 2 12.086 11.6555 4.3342
275 2 16.0425 11.7841 4.33567
276 2 19.9311 11.6188 4.36044
277 2 23.7952 11.6453 4.40369
278 2 27.7977 11.6784 4.4134
279 2 31.5716 11.6186 4.36403
280 2 35.576 11.7383 4.33473
281 2 39.5951 11.7509 4.37152
282 2 43.4591 11.7368 4.27059
283 2 47.4475 11.8396 4.25282
284 2 51.4519 11.6981 4.35699
285 2 55.3224 11.9372 4.36766
286 2 0.19909 15.8791 4.45469
287 2 4.11695 15.7334 4.39154
288 2 8.01328 15.7164 4.06494
289 2 12.0061 15.6343 4.32159
290 2 15.9499 15.6944 4.30951
291 2 19.8451 15.4707 4.28877
292 2 23.8117 15.6511 4.39074
293 2 27.7223 15.6063 4.36328
294 2 31.728 15.6194 4.27702
295 2 35.6319 15.5919 4.41517
296 2 39.5598 15.6394 4.39507
297 2 43.6107 15.7243 4.32818
298 2 47.522 15.6427 4.39254
299 2 51.4324 15.7619 4.36805
300 2 55.5013 15.641 4.15766
301 2 0.027387 19.8317 4.27029
302 2 4.03147 19.6956 4.3319
303 2 7.83481 19.7476 4.11858
304 2 11.8275 19.6736 4.3282
305 2 15.8033 19.7004 4.25884
306 2 19.6583 19.5301 4.29362
307 2 23.6767 19.7227 4.46882
308 2 27.6561 19.4948 4.52937
309 2 31.7753 19.7088 4.49157
310 2 35.759 19.6013 4.2484
311 2 39.7772 19.5842 4.16614
312 2 43.5383 19.6934 4.27996
313 2 47.5867 19.7438 4.17319
314 2 51.5472 19.718 4.27002
315 2 55.243 19.7482 4.38226
316 2 -0.0958707 23.8259 4.44101
317 2 3.93071 23.6905 4.27504
318 2 8.04309 23.681 4.41893
319 2 12.0133 23.8028 4.41539
320 2 15.8035 23.6322 4.28559
321 2 19.8644 23.4076 4.32833
322 2 23.7289 23.7339 4.39583
323 2 27.7932 23.4788 4.22827
324 2 31.6283 23.4914 4.40016
325 2 35.5283 23.4423 4.26514
326 2 39.5246 23.5917 4.29987
327 2 43.7306 23.5802 4.1457
328 2 47.4964 23.6922 4.29993
329 2 51.4854 23.8259 4.38455
330 2 55.5692 23.5062 4.45425
331 2 0.319122 27.6503 4.34007
332 2 4.07428 27.445 4.326
333 2 8.02052 27.5493 4.35814
334 2 11.9449 27.3587 4.44404
335 2 15.9314 27.4641 4.26998
336 2 19.8346 27.6168 4.33767
337 2 23.7938 27.5894 4.27407
338 2 27.8518 27.5164 4.13129
339 2 31.7212 27.5441 4.34656
340 2 35.6497 27.6047 4.27344
341 2 39.6961 27.6731 4.50685
342 2 43.6144 27.5706 4.2421
343 2 47.6102 27.7185 4.21298
344 2 51.6803 27.5998 4.23317
345 2 55.6003 27.6022 4.25736
346 2 0.196454 31.5924 4.16689
347 2 4.03406 31.6026 4.40104
348 2 7.98221 31.4356 4.29172
349 2 11.975 31.4832 4.20792
350 2 15.7347 31.3604 4.08488
351 2 19.7691 31.6394 4.488
352 2 23.7467 31.4481 4.29441
353 2 27.6434 31.3207 4.3056
354 2 31.7877 31.5038 4.29831
355 2 35.8063 31.5987 4.13853
356 2 39.6435 31.476 4.40552
357 2 43.5678 31.6314 4.53697
358 2 47.4036 31.6143 4.4322
359 2 51.5184 31.5735 4.3371
360 2 55.5172 31.775 4.3543
361 2 0.0893419 35.4994 4.18567
362 2 4.05183 35.4274 4.41687
363 2 8.04199 35.2487 4.25719
364 2 12.1082 35.5926 4.14314
365 2 15.7449 35.385 4.32018
366 2 19.9308 35.339 4.37417
367 2 23.7417 35.5718 4.31847
368 2 27.7898 35.4695 4.11138
369 2 31.7244 35.5297 4.31537
370 2 35.7339 35.5246 4.34181
371 2 39.478 35.3402 4.36762
372 2 43.6216 35.3489 4.27258
373 2 47.5032 35.5812 4.31588
374 2 51.2821 35.4311 4.33494
375 2 55.373 35.4297 4.34546
376 2 0.297885 39.4531 4.08412
377 2 4.08651 39.4209 4.1741
378 2 8.07726 39.38 4.21889
379 2 12.1584 39.5259 4.15574
380 2 15.8398 39.6969 4.30305
381 2 19.6948 39.1871 4.22638
382 2 23.8143 39.4253 4.33858
383 2 27.6374 39.5358 4.41483
384 2 31.6525 39.3704 4.33844
385 2 35.6718 39.4292 4.35642
386 2 39.6863 39.2596 4.43879
387 2 43.3359 39.4961 4.42632
388 2 47.4446 39.3822 4.33633
389 2 51.5259 39.4486 4.48859
390 2 55.5081 39.3717 4.25123
391 2 0.0706392 43.2916 4.21158
392 2 4.03514 43.3801 4.18712
393 2 7.99348 43.167 4.25048
394 2 11.7722 43.4358 4.33387
395 2 15.889 43.5658 4.40765
396 2 19.7313 43.4356 4.08122
397 2 24.0175 43.1956 4.30251
398 2 27.7095 43.4295 4.34003
399 2 31.6577 43.3501 4.50308
400 2 35.507 43.2934 4.61037
401 2 39.6469 43.4719 4.23343
402 2 43.4841 43.4195 4.43084
403 2 47.6175 43.3227 4.17643
404 2 51.5385 43.2103 4.22828
405 2 55.3901 43.4147 4.33184
406 2 -0.01473 47.4459 4.21413
407 2 4.10863 47.3433 4.28489
408 2 7.82956 47.2873 4.32796
409 2 11.8701 47.4531 4.14407
410 2 15.9352 47.4358 4.18863
411 2 19.8451 47.4846 4.22927
412 2 23.6353 46.9218 4.01618
413 2 27.6474 47.2531 4.15565
414 2 31.6535 47.3159 4.40512
415 2 35.6667 47.1696 4.22709
416 2 39.4977 47.337 4.38734
417 2 43.5147 47.4784 4.43271
418 2 47.5006 47.2398 4.33983
419 2 51.4883 47.5309 4.25061
420 2 55.5857 47.3405 4.26785
421 2 -0.096114 51.1406 4.37442
422 2 4.01725 51.1746 4.18343
423 2 8.02373 51.2128 4.29927
424 2 11.8506 51.1624 4.33696
425 2 15.8917 51.4135 4.38442
426 2 19.9702 51.2038 3.73149
427 2 23.9141 51.1251 4.16777
428 2 27.714 51.0979 4.24109
429 2 31.6595 51.2288 4.21043
430 2 35.761 51.2789 4.32116
431 2 39.5784 51.1869 4.48396
432 2 43.4462 51.2045 4.37797
433 2 47.3359 51.2566 4.32021
434 2 51.4823 51.2138 4.42046
435 2 55.4448 51.4094 4.30495
436 2 -0.0168684 55.2761 4.32012
437 2 4.06357 55.173 4.40035
438 2 7.96732 55.2502 4.30956
439 2 11.8746 55.2999 4.20676
440 2 15.9826 55.3038 4.34958
441 2 19.9919 55.2982 4.35832
442 2 23.6886 55.031 4.32712
443 2 27.6808 55.0297 4.43661
444 2 31.6844 55.3261 4.40166
445 2 35.7566 55.1552 4.26639
446 2 39.6271 55.1124 4.2867
447 2 43.2877 55.0049 4.34044
448 2 47.4916 55.1583 4.2511
449 2 51.5339 55.3335 4.33557
450 2 55.3684 55.4318 4.39602
451 2 0.238248 59.3431 8.25724
452 2 4.18462 -0.125293 8.23158
453 2 8.11946 0.0222174 7.96608
454 2 11.9496 -0.12169 8.39205
455 2 15.9929 -0.0678143 8.54347
456 2 19.9659 -0.260252 8.36725
457 2 23.8426 -0.219911 8.32107
458 2 27.8733 -0.23141 8.29243
459 2 31.7968 -0.0523254 8.41911
460 2 35.6127 59.1139 8.29191
461 2 39.7314 59.3075 8.36149
462 2 43.5465 -0.152645 8.40577
463 2 47.7394 -0.154632 8.25098
464 2 51.4353 -0.116591 8.40493
465 2 55.3466 -0.112998 8.28048
466 2 0.165607 3.83159 8.3248
467 2 4.04702 3.80179 8.35132
468 2 8.30192 3.68471 8.09767
469 2 12.0941 3.77279 8.15842
470 2 15.9478 3.77017 8.24615
471 2 19.8724 3.68843 8.21728
472 2 23.9486 3.61159 8.30937
473 2 27.8113 3.66167 8.25161
474 2 31.7944 3.64164 8.4161
475 2 35.8311 3.77416 8.32121
476 2 39.6162 3.85201 8.25305
477 2 43.6809 3.7899 8.37428
478 2 47.4763 3.80451 8.05989
479 2 51.5575 3.82702 8.11175
480 2 55.575 3.93303 8.33414
481 2 0.362799 7.79041 8.37474
482 2 4.05543 7.56372 8.11671
483 2 8.07828 7.70461 8.30775
484 2 11.8819 7.62644 8.42591
485 2 16.0452 7.58677 8.20363
486 2 19.8403 7.63983 8.31906
487 2 23.9065 7.682 8.38424
488 2 27.7495 7.68427 8.4653
489 2 31.7869 7.67 8.3145
490 2 35.7867 7.76307 8.34133
491 2 39.6367 7.67621 8.35866
492 2 43.4602 8.04625 8.33901
493 2 47.5904 7.91815 8.28788
494 2 51.4603 7.84746 8.33762
495 2 55.7233 7.71917 8.19243
496 2 0.293409 11.7511 8.01953
497 2 4.15072 11.5414 8.26303
498 2 8.13747 11.7716 8.25419
499 2 12.0209 11.5632 8.30932
500 2 16.0029 11.5447 8.47852
501 2 19.9422 11.5944 8.44827
502 2 23.7167 11.675 8.42038
503 2 27.8568 11.627 8.20845
504 2 31.768 11.8698 8.38832
505 2 35.6364 11.5281 8.33602
506 2 39.5802 11.7306 8.35121
507 2 43.5702 11.9248 8.14031
508 2 47.5713 11.8736 8.34341
509 2 51.5272 11.7045 8.35875
510 2 55.5593 11.7885 8.21173
511 2 -0.0623328 15.9655 8.25429
512 2 4.13702 15.6221 8.13522
513 2 8.15418 15.486 8.2339
514 2 11.8292 15.5131 8.2044
515 2 16.0775 15.6961 8.27378
516 2 19.9454 15.682 8.5254
517 2 23.6572 15.6643 8.20317
518 2 27.9414 15.6502 8.33842
519 2 31.9003 15.5639 8.37455
520 2 35.756 15.4931 8.23017
521 2 39.6241 15.8489 8.28667
522 2 43.7 15.8809 8.25912
523 2 47.5174 15.6929 8.26446
524 2 51.3478 15.77 8.37293
525 2 55.4272 15.6985 8.22793
526 2 0.106746 19.7838 8.34043
527 2 4.17085 19.7452 8.21546
528 2 8.06754 19.4791 8.13697
529 2 12.0699 19.5189 8.31877
530 2 15.8788 19.3955 8.36578
531 2 19.816 19.5879 8.3989
532 2 24.126 19.8681 8.20338
533 2 27.7802 19.6301 8.34091
534 2 31.8511 19.5603 8.42929
535 2 35.6555 19.6411 8.29206
536 2 39.6125 19.7558 8.4072
537 2 43.65 19.9229 8.13343
538 2 47.682 19.7185 8.17556
539 2 51.4957 19.5913 8.33732
540 2 55.4563 19.6013 8.34233
541 2 0.124274 23.7238 8.48172
542 2 4.10706 23.6675 8.28576
543 2 8.16091 23.5969 8.38501
544 2 12.0023 23.3072 8.33965
545 2 15.9866 23.5593 8.37674
546 2 19.6882 23.6443 8.13612
547 2 23.6993 23.5569 8.33146
548 2 27.703 23.6465 8.32996
549 2 31.5592 23.5839 8.24246
550 2 35.7732 23.5768 8.26639
551 2 39.6577 23.6756 8.38706
552 2 43.8875 23.6737 8.30167
553 2 47.77 23.7266 8.19124
554 2 51.6251 23.7165 8.32706
555 2 55.6751 23.6619 8.27666
556 2 59.3997 27.6962 8.29554
557 2 4.18923 27.5211 8.29593
558 2 8.13343 27.4875 8.33449
559 2 12.1351 27.6618 8.18553
560 2 15.828 27.5327 8.22331
561 2 19.8739 27.7581 8.23028
562 2 23.7551 27.4364 8.13718
563 2 27.7459 27.6621 8.37313
564 2 31.7319 27.5327 8.2292
565 2 35.7435 27.4866 8.20656
566 2 39.8847 27.6919 8.33685
567 2 43.7366 27.6055 8.34973
568 2 47.656 27.6714 8.334
569 2 51.7338 27.7612 8.31167
570 2 55.6489 27.7055 8.23806
571 2 -0.0634077 31.7227 8.18217
572 2 4.20438 31.5204 8.3361
573 2 8.19871 31.7366 8.27008
574 2 12.123 31.6393 8.36
575 2 16.0575 31.5252 8.15544
576 2 19.7189 31.6559 8.31709
577 2 23.9566 31.6528 8.12306
578 2 27.8685 31.5415 8.12624
579 2 31.7804 31.3893 8.15399
580 2 35.8582 31.4848 8.26785
581 2 39.6185 31.4418 8.39693
582 2 43.6647 31.4156 8.4971
583 2 47.5331 31.6122 8.36171
584 2 51.3173 31.5395 8.28667
585 2 55.6248 31.5482 8.48119
586 2 0.251709 35.5012 8.24393
587 2 4.32593 35.5715 8.21886
588 2 8.10872 35.7857 8.38189
589 2 12.0784 35.6095 8.03285
590 2 15.7875 35.3544 8.30291
591 2 19.8517 35.5421 8.20483
592 2 23.8564 35.3234 8.13694
593 2 27.9286 35.5594 8.43324
594 2 31.7935 35.4186 8.40329
595 2 35.4529 35.3272 8.32557
596 2 39.5879 35.5365 8.37198
597 2 43.6023 35.4865 8.28131
598 2 47.5066 35.6264 8.2916
599 2 51.5487 35.5417 8.28147
600 2 55.4802 35.5859 8.01628
601 2 0.122623 39.1179 8.15158
602 2 4.12508 39.5191 8.27595
603 2 8.22898 39.3967 8.26235
604 2 11.9196 39.4431 8.33508
605 2 15.9481 39.4281 8.17355
606 2 19.9378 39.3164 8.42357
607 2 23.813 39.3822 8.3132
608 2 27.8237 39.5931 8.42287
609 2 31.7144 39.3308 8.45407
610 2 35.7254 39.5187 8.31774
611 2 39.6627 39.3393 8.32281
612 2 43.6375 39.592 8.19044
613 2 47.483 39.5666 8.37607
614 2 51.4497 39.4871 8.40144
615 2 55.5937 39.4382 8.13183
616 2 0.195698 43.4958 8.19534
617 2 4.1539 43.4589 8.09825
618 2 8.08612 43.4698 8.28801
619 2 12.0708 43.5362 8.23128
620 2 16.1062 43.525 8.1844
621 2 19.8662 43.3113 8.27874
622 2 23.6619 43.5133 8.49155
623 2 27.5953 43.3715 8.36616
624 2 31.707 43.228 8.44618
625 2 35.5552 43.3123 8.3655
626 2 39.5597 43.2533 8.56066
627 2 43.4848 43.5719 8.30212
628 2 47.5058 43.3424 8.43863
629 2 51.4786 43.3809 8.29232
630 2 55.2472 43.2358 8.1451
631 2 0.204863 47.2723 7.97598
632 2 4.10699 47.29 8.22658
633 2 8.24227 47.404 8.19904
634 2 12.0305 47.5488 8.33159
635 2 16.0726 47.3928 8.09725
636 2 20.0048 47.2901 8.19759
637 2 23.8103 47.2807 8.3213
638 2 27.6382 47.1791 8.44305
639 2 31.5885 47.2148 8.25478
640 2 35.4949 47.4356 8.2603
641 2 39.5148 47.2783 8.43582
642 2 43.5223 47.264 8.36458
643 2 47.5881 47.1632 8.07886
644 2 51.5517 47.2656 8.18028
645 2 55.5839 47.2844 8.29084
646 2 -0.0339817 51.274 8.38144
647 2 3.90212 51.3542 8.28174
648 2 7.98691 51.3568 8.24751
649 2 12.0557 51.4215 8.25927
650 2 16.0374 51.207 8.28414
651 2 20.1142 51.1774 8.157
652 2 24.0124 51.358 8.32954
653 2 27.7085 51.1573 8.1398
654 2 31.551 51.139 8.08273
655 2 35.5633 51.2958 8.34966
656 2 39.4017 51.2379 8.35964
657 2 43.3626 51.1254 8.34515
658 2 47.4998 51.3238 7.98867
659 2 51.6959 51.3383 8.2046
660 2 55.4638 51.2653 8.36949
661 2 0.0645865 55.2042 8.20175
662 2 4.09906 55.3064 8.42674
663 2 7.89368 55.2035 8.2567
664 2 11.8968 55.4207 8.24264
665 2 16.0829 55.3106 8.21294
666 2 19.8654 55.1918 8.25949
667 2 23.6736 55.2885 8.31918
668 2 27.818 55.1468 8.36842
669 2 31.8122 54.9901 8.28762
670 2 35.6142 55.1097 8.13981
671 2 39.5081 55.2645 8.3389
672 2 43.6073 55.4868 8.40659
673 2 47.5987 55.0785 8.05733
674 2 51.6315 55.2907 8.27791
675 2 55.5628 55.3629 8.16007
676 2 0.0697102 -0.114414 12.1587
677 2 4.1834 0.0880726 12.2087
678 2 8.0405 -0.209011 12.1992
679 2 11.879 -0.297224 12.367
680 2 15.9849 59.1843 12.462
681 2 20.0282 -0.0556947 12.1864
682 2 23.9619 -0.0503005 12.3276
683 2 27.6609 -0.29869 12.288
684 2 31.7059 -0.25856 12.3412
685 2 35.541 -0.0784106 12.4584
686 2 39.5625 -0.106164 12.4284
687 2 43.6119 -0.130759 12.1807
688 2 47.752 -0.188163 12.2012
689 2 51.6455 -0.235902 12.4153
690 2 55.4257 -0.0934703 12.3917
691 2 0.0488466 3.90156 12.2955
692 2 4.0951 3.9201 12.3234
693 2 7.9754 3.82982 12.2136
694 2 11.9435 3.91657 12.3715
695 2 15.8867 3.73886 12.204
696 2 20.2362 3.86307 12.1634
697 2 24.0804 3.88615 12.2143
698 2 27.9347 3.93313 12.4098
699 2 31.8509 3.60499 12.2763
700 2 35.8188 3.89622 12.2105
701 2 39.6737 3.7757 12.1924
702 2 43.6827 3.86223 11.982
703 2 47.501 3.92903 12.3603
704 2 51.5538 3.84175 12.4323
705 2 55.6415 3.88565 12.2994
706 2 0.270749 7.70784 12.2633
707 2 4.26217 7.73598 12.3537
708 2 8.01015 7.86213 12.1619
709 2 12.1644 7.73873 12.3924
710 2 16.029 7.84122 12.3088
711 2 19.8999 7.60788 12.3677
712 2 24.0503 7.80637 12.3131
713 2 27.8298 7.90941 12.3177
714 2 31.7955 7.67953 12.4252
715 2 35.7817 7.67975 12.2839
716 2 39.8492 7.85283 12.4219
717 2 43.6707 7.94495 12.1191
718 2 47.4803 7.89166 12.0886
719 2 51.5127 7.82799 12.0333
720 2 55.2767 7.91375 12.2589
721 2 0.154644 11.6383 12.0159
722 2 4.15655 11.5771 12
723 2 8.01113 11.7388 12.3502
724 2 12.15 11.5797 12.3025
725 2 15.9949 11.6483 12.444
726 2 20.0277 11.7768 12.2037
727 2 24.0453 11.7656 12.2633
728 2 27.999 11.7021 12.0175
729 2 31.7391 11.6119 12.2785
730 2 35.6043 11.5052 12.4141
731 2 39.6456 11.8759 12.4454
732 2 43.601 11.7489 12.2722
733 2 47.5663 11.6431 12.4428
734 2 51.7988 11.7377 12.1949
735 2 55.6639 11.6582 12.3774
736 2 0.18745 15.8493 11.9624
737 2 4.08738 15.7674 12.1789
738 2 7.97866 15.7195 12.2452
739 2 12.0082 15.7431 12.2095
740 2 15.9095 15.6763 12.3316
741 2 20.0404 15.7866 12.3235
742 2 23.9796 15.6592 12.2919
743 2 27.901 15.6929 12.3688
744 2 31.833 15.6028 12.3889
745 2 35.9227 15.5413 12.1542
746 2 39.5695 15.9042 12.3449
747 2 43.7692 15.8983 12.0928
748 2 47.749 15.7766 12.5491
749 2 51.6871 15.6721 12.2721
750 2 55.7986 15.6499 12.1721
751 2 0.169569 19.6565 12.2013
752 2 3.97005 19.6412 12.1819
753 2 8.07255 19.7304 12.1939
754 2 12.0127 19.7526 12.4113
755 2 15.9738 19.7263 12.3629
756 2 19.9509 19.6878 12.3492
757 2 23.7977 19.8234 12.3099
758 2 27.893 19.6856 12.2897
759 2 31.8605 19.6123 12.3816
760 2 35.5394 19.6358 12.4824
761 2 39.7729 19.7511 12.2394
762 2 43.7348 19.8098 12.2122
763 2 47.6441 19.5777 12.2688
764 2 51.5599 19.7697 12.3129
765 2 55.3373 19.7233 12.1798
766 2 0.129177 23.8466 12.2336
767 2 4.10834 23.6027 12.2411
768 2 8.02415 23.8397 12.1463
769 2 12.0036 23.8118 12.1248
770 2 15.8602 23.5068 12.3148
771 2 19.6933 23.7761 12.1778
772 2 23.7984 23.5925 12.2724
773 2 27.8671 23.5488 12.2681
774 2 31.8056 23.6273 12.154
775 2 35.8502 23.7219 12.2117
776 2 39.6183 23.7655 12.198
777 2 43.7131 23.6232 12.1261
778 2 47.5697 23.677 12.1876
779 2 51.4844 23.9082 12.3067
780 2 55.7169 23.627 12.4089
781 2 0.126095 27.8156 12.1648
782 2 4.11462 27.6237 12.3987
783 2 8.12148 27.8806 12.1866
784 2 11.9526 27.6757 12.1328
785 2 15.8844 27.5281 12.061
786 2 20.0135 27.6735 12.2198
787 2 23.8992 27.3978 12.2409
788 2 27.8504 27.7599 12.344
789 2 31.6552 27.6249 12.1132
790 2 35.6591 27.2912 12.2872
791 2 39.8011 27.6227 12.2157
792 2 43.7159 27.6949 12.3677
793 2 47.6673 27.799 12.2224
794 2 51.8073 27.5558 12.2455
795 2 55.5897 27.5508 12.227
796 2 0.0269199 31.6658 12.212
797 2 4.18561 31.454 12.1776
798 2 8.21601 31.7976 12.127
799 2 11.9789 31.6252 12.2472
800 2 16.0688 31.6316 12.328
801 2 20.1373 31.3702 12.1505
802 2 23.7654 31.3961 12.2114
803 2 27.9374 31.4961 12.3985
804 2 31.8386 31.4225 12.2162
805 2 35.649 31.3287 12.1515
806 2 39.5598 31.6741 12.2457
807 2 43.7756 31.4801 12.3661
808 2 47.6477 31.5304 12.2399
809 2 51.6356 31.6277 12.2498
810 2 55.4698 31.5675 12.2568
811 2 0.0766927 35.3896 12.2786
812 2 4.07711 35.4468 12.2741
813 2 7.89998 35.6207 12.2065
814 2 12.0178 35.5727 12.3754
815 2 15.9235 35.3681 12.2447
816 2 19.9952 35.4129 12.1597
817 2 23.8148 35.3448 12.1942
818 2 27.8328 35.2575 12.2852
819 2 31.5416 35.5079 12.2731
820 2 35.7547 35.345 12.2262
821 2 39.715 35.565 12.2256
822 2 43.6206 35.3779 11.9668
823 2 47.5164 35.4271 12.1613
824 2 51.5774 35.4432 12.264
825 2 55.5745 35.4653 12.2593
826 2 0.215903 39.6989 12.1795
827 2 4.18286 39.3975 12.2118
828 2 7.95695 39.5345 12.1083
829 2 12.0596 39.6589 12.163
830 2 15.8109 39.4823 12.1912
831 2 19.8523 39.2277 12.2359
832 2 23.9127 39.3421 12.1266
833 2 27.9265 39.3106 12.1336
834 2 31.8578 39.377 12.1743
835 2 35.6718 39.1845 12.3208
836 2 39.72 39.3788 12.4206
837 2 43.6373 39.5001 12.4235
838 2 47.5161 39.4365 12.3507
839 2 51.372 39.3859 12.3102
840 2 55.6417 39.3741 11.9232
841 2 0.119793 43.3966 12.1009
842 2 4.27875 43.4123 12.1057
843 2 8.0392 43.4943 12.2827
844 2 12.1988 43.4995 12.0246
845 2 15.9627 43.294 12.2864
846 2 19.7845 43.1675 12.3378
847 2 23.749 43.3643 12.4257
848 2 27.7374 43.3375 12.3163
849 2 31.5615 43.506 12.4661
850 2 35.5574 43.2991 12.3621
851 2 39.3438 43.3171 12.5345
852 2 43.5011 43.2716 12.2755
853 2 47.5614 43.5281 12.2439
854 2 51.4648 43.2403 12.1601
855 2 55.4714 43.4034 12.1193
856 2 0.0496415 47.0803 12.2617
857 2 3.97624 47.4026 12.1593
858 2 8.09545 47.3604 12.2
859 2 12.152 47.3428 12.1992
860 2 16.1301 47.4454 12.0754
861 2 19.9781 47.4088 12.4183
862 2 23.7819 47.2536 12.2706
863 2 27.5862 47.3003 12.5359
864 2 31.5459 47.3187 12.465
865 2 35.4578 47.2247 12.34
866 2 39.5437 47.339 12.4051
867 2 43.6514 47.5544 12.1417
868 2 47.6637 47.3384 11.9698
869 2 51.5062 47.4235 12.109
870 2 55.4007 47.3675 12.3679
871 2 0.165441 51.222 12.2177
872 2 3.99819 51.3873 12.2924
873 2 7.96644 51.4569 12.2594
874 2 11.961 51.377 12.152
875 2 15.9429 51.3929 12.1596
876 2 19.8739 51.3168 12.2809
877 2 23.7046 51.2696 12.2697
878 2 27.6148 51.2385 12.365
879 2 31.7707 51.3787 12.3083
880 2 35.7292 51.3822 12.3869
881 2 39.4354 51.4118 12.3164
882 2 43.7162 51.4531 12.3038
883 2 47.618 51.4313 11.9976
884 2 51.5107 51.2259 12.2838
885 2 55.6813 51.1898 12.0768
886 2 0.0476378 55.2988 12.3388
887 2 3.98898 55.4202 12.3089
888 2 7.92375 55.3505 12.3948
889 2 11.7868 55.2583 12.1597
890 2 16.0561 55.4864 12.2278
891 2 20.0763 55.0879 12.3426
892 2 23.5861 55.2938 12.3507
893 2 27.7937 55.2015 12.3158
894 2 31.7681 55.2002 12.456
895 2 35.5872 55.3353 12.1753
896 2 39.6961 55.3282 12.28
897 2 43.5568 55.3286 12.2583
898 2 47.4458 55.3687 12.2777
899 2 51.5911 55.0475 12.2363
900 2 55.3948 55.3675 12.2132
901 2 0.333178 0.0192015 16.4157
902 2 4.32689 -0.171332 16.3208
903 2 8.13859 -0.136796 16.2598
904 2 12.098 -0.184228 16.302
905 2 15.9676 -0.101029 16.3059
906 2 19.9536 0.0231494 16.2977
907 2 23.8974 -0.112073 16.3346
908 2 27.7542 -0.0628608 16.099
909 2 31.6268 -0.134885 16.2476
910 2 35.7698 0.0487352 16.4482
911 2 39.8017 -0.204102 16.2996
912 2 43.8396 59.2016 16.136
913 2 47.688 59.4152 16.0795
914 2 51.5704 59.1506 16.1397
915 2 55.5953 -0.0532119 16.2155
916 2 0.122255 4.13343 16.2026
917 2 4.13646 3.96196 16.208
918 2 8.04797 3.83446 16.2927
919 2 11.9559 3.95476 16.2887
920 2 15.9238 3.73414 16.2228
921 2 19.8505 3.85214 16.3132
922 2 24.0218 4.01693 16.2467
923 2 27.9049 3.79625 16.1862
924 2 31.7553 3.82422 16.3406
925 2 35.9405 3.86844 16.4104
926 2 39.8588 3.69669 16.3456
927 2 43.6898 4.01976 15.9701
928 2 47.681 3.86669 16.2357
929 2 51.6696 3.69426 16.1966
930 2 55.6583 4.11391 16.1307
931 2 0.271709 7.87531 16.2769
932 2 4.0847 7.85024 16.1656
933 2 8.11962 8.01475 16.1913
934 2 12.0065 7.8783 16.2367
935 2 16.0228 7.71276 16.1773
936 2 20.069 7.81265 16.3432
937 2 24.0539 7.84245 16.253
938 2 28.0209 7.69528 16.2347
939 2 31.7958 7.74125 16.3527
940 2 35.8311 7.73295 16.2006
941 2 39.6883 7.98938 16.2836
942 2 43.7291 7.70208 16.3029
943 2 47.7582 7.74028 16.3345
944 2 51.5251 7.80821 16.2688
945 2 55.5461 7.93478 16.2603
946 2 59.6508 11.8022 15.9499
947 2 4.12939 11.8968 16.1886
948 2 8.07515 11.8712 16.3694
949 2 11.9478 12.0114 16.4862
950 2 15.8282 11.6715 16.2323
951 2 19.9169 11.7178 16.0279
952 2 23.9235 12.037 16.1512
953 2 27.6823 11.9223 16.1927
954 2 31.8874 11.7944 16.3032
955 2 35.6323 11.9238 16.1197
956 2 39.7437 11.6426 16.1286
957 2 43.8318 11.7227 16.1582
958 2 47.7795 11.8952 16.2447
959 2 51.582 11.951 16.2952
960 2 55.5607 11.6839 16.1762
961 2 0.0343532 15.9195 16.1928
962 2 4.06098 16.0609 16.1832
963 2 7.94338 15.6107 16.218
964 2 12.0292 15.9007 16.1889
965 2 15.9217 15.8349 16.2643
966 2 19.8144 15.6921 16.1795
967 2 23.9759 15.9858 16.3218
968 2 27.639 15.7635 16.2963
969 2 31.7313 15.6743 16.1617
970 2 35.8329 15.8482 16.061
971 2 39.7462 16.08 16.0692
972 2 43.7751 15.7891 15.992
973 2 47.6388 15.7564 16.1115
974 2 51.5751 15.892 16.345
975 2 55.5739 15.9021 16.035
976 2 0.239399 19.7374 16.1418
977 2 4.03815 19.8908 16.19
978 2 7.89769 19.6241 16.3012
979 2 11.9043 19.7798 16.3272
980 2 16.0031 19.6869 16.2734
981 2 19.8536 19.7649 16.0965
982 2 23.8232 19.9229 16.2347
983 2 27.6954 19.7764 16.4003
984 2 31.7364 19.7981 16.3727
985 2 35.5109 19.8219 16.3409
986 2 39.7511 19.9429 16.19
987 2 43.8641 19.6801 16.1826
988 2 47.6726 19.73 16.1056