ITEM: TIMESTEP
36500
ITEM: NUMBER OF ATOMS
28125
ITEM: BOX BOUNDS xy xz yz pp pp pp
0.0000000000000000e+00 5.9369999999999997e+01 0.0000000000000000e+00
0.0000000000000000e+00 5.9369999999999997e+01 0.0000000000000000e+00
7.3224588502526444e-02 9.9426775411497900e+01 0.0000000000000000e+00
ITEM: ATOMS id type x y z
1 2 0.0843169 -0.331569 0.359491
2 2 4.25711 -0.369776 0.418851
3 2 8.13362 -0.0218785 0.440282
4 2 11.8731 -0.00332829 0.317617
5 2 15.9022 -0.168532 0.316926
6 2 19.9593 -0.0469677 0.384678
7 2 23.9046 -0.177979 0.204589
8 2 27.6882 -0.283916 0.336895
9 2 31.6297 -0.126146 0.343712
10 2 35.6752 -0.25687 0.219443
11 2 39.545 59.009 0.379718
12 2 43.6488 -0.117088 0.342938
13 2 47.4283 -0.166561 0.384618
14 2 51.5152 -0.495856 0.370958
15 2 55.4994 59.206 0.37652
16 2 -0.0362525 3.71141 0.408368
17 2 3.9497 3.59541 0.257835
18 2 7.90466 3.97084 0.145539
19 2 12.1347 4.02976 0.159053
20 2 15.891 3.81279 0.293333
21 2 19.877 3.88808 0.329376
22 2 23.7128 3.76561 0.295513
23 2 27.7586 3.66878 0.134416
24 2 31.6518 3.63174 0.23713
25 2 35.4439 3.69821 0.25939
26 2 39.5237 3.75744 0.521559
27 2 43.5667 3.70665 0.368522
28 2 47.4723 3.6266 0.440101
29 2 51.3931 3.44628 0.314857
30 2 55.3415 3.96981 0.463329
31 2 -0.0805042 7.609 0.526716
32 2 4.03292 7.66855 0.214272
33 2 7.92356 7.77566 0.412415
34 2 11.8408 7.93456 0.206566
35 2 15.9584 7.99706 0.236786
36 2 19.8683 7.68489 0.34183
37 2 23.7876 7.65448 0.293991
38 2 27.6958 7.84537 0.342332
39 2 31.7447 7.80705 0.277536
40 2 35.598 7.73527 0.349365
41 2 39.388 7.66532 0.480386
42 2 43.4564 7.89329 0.307102
43 2 47.5497 7.69834 0.237843
44 2 51.2569 7.56251 0.10583
45 2 55.3406 7.81184 0.359672
46 2 59.235 11.6185 0.343386
47 2 3.75113 11.5302 0.30643
48 2 7.81068 11.6915 0.411715
49 2 11.9248 12.0243 0.411578
50 2 15.6594 11.8289 0.351011
51 2 19.8004 11.6292 0.392327
52 2 23.7604 11.5927 0.0691105
53 2 27.6987 11.7532 0.275546
54 2 31.6156 11.6798 0.231827
55 2 35.6597 11.6216 0.472824
56 2 39.581 11.8128 0.301762
57 2 43.6954 11.7226 0.216598
58 2 47.5324 11.8384 0.512055
59 2 51.5805 11.695 0.366014
60 2 55.3694 11.5103 0.595941
61 2 -0.144854 15.6553 0.467985
62 2 3.95899 15.5632 0.440108
63 2 7.78992 15.8366 0.44224
64 2 11.8806 15.9038 0.500847
65 2 15.7154 15.809 0.417682
66 2 19.8642 15.6558 0.253956
67 2 23.8861 15.5352 0.470905
68 2 27.75 15.7175 0.341715
69 2 31.7613 15.8146 0.448303
70 2 35.6401 15.7618 0.470112
71 2 39.6639 15.7072 0.517591
72 2 43.5835 15.6955 0.487151
73 2 47.3111 15.8343 0.330187
74 2 51.3017 15.5216 0.362067
75 2 55.5652 15.6282 0.367615
76 2 59.3203 19.557 0.371438
77 2 3.95242 19.5715 0.278894
78 2 7.75578 19.696 0.339262
79 2 11.8817 19.784 0.42293
80 2 15.9531 19.7601 0.477335
81 2 19.8488 19.4897 0.398234
82 2 23.8156 19.7042 0.456715
83 2 27.9282 19.5291 0.501981
84 2 31.6468 19.5871 0.300588
85 2 35.5075 19.5498 0.416184
86 2 39.7314 19.6271 0.323282
87 2 43.4442 19.6633 0.387474
88 2 47.3679 19.8076 0.439506
89 2 51.5162 19.4639 0.367223
90 2 55.4899 19.6798 0.305076
91 2 -0.0816597 23.4775 0.187087
92 2 3.91231 23.5268 0.146008
93 2 7.92207 23.3497 0.182157
94 2 12.0361 23.6852 0.419213
95 2 16.0052 23.5984 0.251864
96 2 20.043 23.2758 0.35692
97 2 23.8172 23.472 0.465636
98 2 27.7172 23.4449 0.406196
99 2 31.6892 23.6081 0.444075
100 2 35.4296 23.4824 0.418365
101 2 39.5001 23.3912 0.623726
102 2 43.3209 23.6067 0.386523
103 2 47.4918 23.5206 0.279592
104 2 51.417 23.4958 0.379807
105 2 55.3791 23.3851 0.322479
106 2 -0.0649409 27.4899 0.539672
107 2 4.0054 27.5269 0.311886
108 2 7.93296 27.5896 0.469438
109 2 11.8244 27.4506 0.387055
110 2 15.8692 27.4477 0.296722
111 2 19.8372 27.6254 0.255477
112 2 23.6351 27.4142 0.319002
113 2 27.7839 27.4647 0.427009
114 2 31.8718 27.6622 0.319998
115 2 35.7781 27.5641 0.204365
116 2 39.3419 27.5505 0.328421
117 2 43.4245 27.3095 0.377712
118 2 47.3347 27.5094 0.334786
119 2 51.5438 27.5447 0.316273
120 2 55.3536 27.4713 0.401995
121 2 -0.347794 31.5835 0.158363
122 2 4.08199 31.5483 0.335002
123 2 7.94038 31.5972 0.3238
124 2 11.9827 31.501 0.382363
125 2 15.822 31.4612 0.531708
126 2 19.8652 31.4348 0.325663
127 2 23.8248 31.5449 0.424102
128 2 27.7723 31.403 0.262179
129 2 31.5198 31.3304 0.309223
130 2 35.721 31.525 0.369962
131 2 39.6936 31.3311 0.474662
132 2 43.5171 31.4725 0.539571
133 2 47.5073 31.2376 0.316135
134 2 51.4246 31.3394 0.380564
135 2 55.3854 31.787 0.481385
136 2 0.0517275 35.4899 0.219222
137 2 3.84632 35.5226 0.372624
138 2 7.95036 35.2097 0.34299
139 2 12.0056 35.4048 0.333749
140 2 15.8684 35.4038 0.307461
141 2 19.823 35.4463 0.43312
142 2 23.6937 35.5631 0.550614
143 2 27.6037 35.4812 0.348688
144 2 31.7629 35.4106 0.376611
145 2 35.8145 35.3146 0.240626
146 2 39.6543 35.3955 0.278244
147 2 43.6772 35.3424 0.15462
148 2 47.6069 35.6151 0.291229
149 2 51.4757 35.3954 0.359185
150 2 55.3994 35.5686 0.386417
151 2 0.132278 39.493 0.334512
152 2 3.8531 39.375 0.247557
153 2 7.99659 39.2578 0.118028
154 2 11.754 39.3761 0.292789
155 2 15.8666 39.4033 0.18573
156 2 19.8658 39.2026 0.333762
157 2 23.9127 39.3605 0.343925
158 2 27.7898 39.4664 -0.00966279
159 2 31.6496 39.3892 0.398698
160 2 35.7044 39.3627 0.472428
161 2 39.5339 39.2633 0.292448
162 2 43.2414 39.4273 0.203549
163 2 47.3886 39.3335 0.354765
164 2 51.4148 39.389 0.102969
165 2 55.5295 39.4643 0.249715
166 2 0.1299 43.4727 0.178304
167 2 4.0411 43.4881 0.315609
168 2 8.03208 43.2443 0.250016
169 2 11.7396 43.3917 0.448458
170 2 15.7354 43.1705 0.320885
171 2 19.7072 43.1703 0.220071
172 2 23.7671 43.1957 0.418879
173 2 27.8537 43.4292 0.199158
174 2 31.6946 43.2924 0.104567
175 2 35.447 43.3944 0.347197
176 2 39.7196 43.1549 0.461283
177 2 43.7494 43.3674 0.302973
178 2 47.5307 43.2933 0.274398
179 2 51.6429 43.2588 0.287119
180 2 55.523 43.4769 0.339504
181 2 0.0250801 47.3656 0.433182
182 2 3.95004 47.4344 0.412953
183 2 8.22721 47.2067 0.174902
184 2 12.0395 47.3219 99.5586
185 2 15.9569 47.1685 0.300857
186 2 19.5816 47.2573 0.262925
187 2 23.6263 47.2299 0.233758
188 2 27.7438 47.5047 99.7471
189 2 31.6926 47.4481 0.399738
190 2 35.7134 47.3306 0.200426
191 2 39.3117 47.1519 0.123653
192 2 43.4894 47.239 0.404439
193 2 47.4977 47.418 0.370989
194 2 51.1949 47.5308 0.281753
195 2 55.289 47.3397 0.324536
196 2 -0.118306 51.229 0.275532
197 2 4.03457 51.3919 0.283065
198 2 7.85146 51.1891 0.293009
199 2 11.9048 51.2853 99.6151
200 2 15.8051 51.2318 0.364002
201 2 19.9275 51.2518 0.222692
202 2 23.6662 51.3353 0.129743
203 2 27.7196 51.2469 0.267629
204 2 31.7448 51.3051 0.142829
205 2 35.5846 51.4702 0.36166
206 2 39.582 50.9932 0.296791
207 2 43.6025 51.3162 0.402834
208 2 47.5443 51.1629 0.465457
209 2 51.4669 51.2881 0.361468
210 2 55.5659 51.2342 0.254967
211 2 0.104673 55.2012 99.8947
212 2 4.02722 55.0936 0.344818
213 2 8.13511 55.2239 0.105266
214 2 12.0284 55.2603 0.18646
215 2 15.7253 55.2645 0.279419
216 2 19.7142 55.1635 0.415525
217 2 23.6532 55.2532 0.325238
218 2 27.692 55.3117 0.190681
219 2 31.5717 55.2705 0.287695
220 2 35.7635 55.189 0.27539
221 2 39.6296 55.1984 0.318796
222 2 43.6292 55.1335 0.314562
223 2 47.5397 55.3825 0.306258
224 2 51.4056 55.0783 0.349534
225 2 55.3873 55.1661 0.388177
226 2 0.0544786 -0.0337606 4.43111
227 2 4.21557 -0.205131 4.24664
228 2 8.16223 -0.119741 4.17772
229 2 11.9998 59.1163 4.27698
230 2 15.9652 -0.0937845 4.21923
231 2 19.7685 0.0196428 4.31455
232 2 23.6298 -0.128501 4.38172
233 2 27.6806 -0.146092 4.41051
234 2 31.8028 0.0301081 4.23822
235 2 35.7178 -0.0130898 4.29263
236 2 39.494 -0.144295 4.37813
237 2 43.2898 -0.147122 4.42631
238 2 47.5406 -0.175721 4.41259
239 2 51.4516 -0.0633417 4.30427
240 2 55.4305 59.1729 4.34455
241 2 0.0449962 3.6829 4.30478
242 2 4.14244 3.69302 4.32703
243 2 8.06389 3.89417 4.2481
244 2 12.0241 4.143 4.10816
245 2 15.8152 3.89432 4.17803
246 2 19.8627 3.88889 4.32626
247 2 23.7589 3.80926 4.18837
248 2 27.7342 3.73165 4.28099
249 2 31.6037 3.69209 4.21701
250 2 35.6573 3.78819 4.26763
251 2 39.5942 3.86082 4.43979
252 2 43.4742 3.78184 4.52735
253 2 47.6016 3.73304 4.17487
254 2 51.3472 3.7042 4.36689
255 2 55.2887 3.59191 4.39574
256 2 0.264816 7.53623 4.32941
257 2 3.96946 7.59815 4.29793
258 2 8.08242 7.90508 4.21125
259 2 11.9492 7.82531 4.50771
260 2 15.7832 7.91892 4.36237
261 2 19.7585 7.73789 4.15692
262 2 23.7718 7.72789 4.3706
263 2 27.8595 7.78435 4.32678
264 2 31.5941 7.52894 4.11778
265 2 35.4246 7.60423 4.33731
266 2 39.4788 7.59749 4.17901
267 2 43.5604 7.79061 4.35142
268 2 47.2806 7.60725 4.33513
269 2 51.3209 7.66178 4.37116
270 2 55.2596 7.65858 4.38088
271 2 0.18234 11.8877 4.4617
272 2 4.00935 11.6523 4.452
273 2 8.03159 11.7491 4.32813
274 2 11.9177 11.8413 4.41945
275 2 16.0612 11.843 4.37359
276 2 19.7107 11.7726 4.22484
277 2 23.7979 11.7307 4.34482
278 2 27.7654 11.584 4.37015
279 2 31.7512 11.6698 4.39419
280 2 35.58 11.5948 4.28329
281 2 39.6179 11.6223 4.28248
282 2 43.5703 11.8264 4.45772
283 2 47.5401 11.5326 4.16285
284 2 51.3521 11.6337 4.37357
285 2 55.4202 11.6517 4.40213
286 2 0.0678684 15.8223 4.3142
287 2 4.16014 15.7062 4.18301
288 2 7.91929 15.668 4.38029
289 2 11.8429 15.7769 4.33686
290 2 15.9364 15.6163 4.1726
291 2 19.5943 15.5762 4.13831
292 2 23.586 15.6266 4.3114
293 2 27.6114 15.7053 4.08277
294 2 31.9053 15.6778 4.4929
295 2 35.6967 15.67 4.36613
296 2 39.6069 15.621 4.44084
297 2 43.3772 15.5837 4.44284
298 2 47.5168 15.6891 4.14748
299 2 51.5073 15.6271 4.15723
300 2 55.4591 15.607 4.49664
301 2 -0.0231741 19.7344 4.44489
302 2 4.12572 19.7211 4.35618
303 2 8.05252 19.6206 4.28585
304 2 11.9842 19.7156 4.25509
305 2 15.8724 19.4809 4.27008
306 2 19.7905 19.5833 4.38303
307 2 23.8173 19.7424 4.46255
308 2 27.834 19.866 4.42414
309 2 31.7461 19.6325 4.39639
310 2 35.6136 19.626 4.48189
311 2 39.4239 19.5284 4.48305
312 2 43.5149 19.5883 4.46073
313 2 47.4358 19.632 4.36646
314 2 51.5079 19.4289 4.3644
315 2 55.2731 19.4692 4.23707
316 2 0.099514 23.5874 4.19661
317 2 3.76521 23.5553 4.29764
318 2 7.91721 23.6238 4.49321
319 2 11.922 23.6332 4.41696
320 2 16.1238 23.6575 4.32315
321 2 19.8702 23.7027 4.23527
322 2 23.9316 23.6574 4.36066
323 2 27.72 23.5596 4.3791
324 2 31.5811 23.6353 4.41058
325 2 35.4043 23.4598 4.45801
326 2 39.6034 23.4722 4.42666
327 2 43.5344 23.6497 4.37169
328 2 47.6362 23.5574 4.23721
329 2 51.6535 23.6312 4.39262
330 2 55.259 23.5549 4.10531
331 2 0.156933 27.5825 4.29649
332 2 3.93594 27.5518 4.18978
333 2 7.93542 27.3855 4.37627
334 2 12.1655 27.4978 4.27543
335 2 15.9614 27.3548 4.31701
336 2 19.9005 27.6167 4.36917
337 2 23.8895 27.4918 4.44433
338 2 27.7608 27.4374 4.24378
339 2 31.7548 27.5727 4.27865
340 2 35.8143 27.4348 4.36193
341 2 39.6694 27.5315 4.38129
342 2 43.7977 27.4907 4.40373
343 2 47.4853 27.4341 4.43229
344 2 51.5808 27.7216 4.0821
345 2 55.6363 27.6407 4.2585
346 2 0.100873 31.6949 4.14949
347 2 3.87985 31.4861 4.30513
348 2 7.99415 31.3124 4.41003
349 2 11.997 31.3506 4.27481
350 2 15.961 31.4039 4.32837
351 2 19.9448 31.6929 4.28554
352 2 23.7063 31.4024 4.34147
353 2 27.6089 31.6566 4.11097
354 2 31.665 31.4705 4.24076
355 2 35.7995 31.5186 4.5745
356 2 39.6799 31.496 4.43577
357 2 43.3874 31.6811 4.32092
358 2 47.4707 31.6756 4.33521
359 2 51.2713 31.5786 4.29586
360 2 55.3263 31.6453 4.17304
361 2 0.118204 35.4229 4.20237
362 2 3.9844 35.5027 4.24979
363 2 7.97586 35.3189 4.27676
364 2 11.941 35.3746 4.30568
365 2 15.8775 35.4987 4.31815
366 2 19.6732 35.6597 4.47314
367 2 23.8273 35.5174 4.30208
368 2 27.909 35.5031 4.25787
369 2 31.7533 35.4069 4.38327
370 2 35.5187 35.4691 4.20791
371 2 39.729 35.3844 4.29757
372 2 43.6383 35.5398 4.14137
373 2 47.5709 35.6455 4.32795
374 2 51.3846 35.502 4.26855
375 2 55.5795 35.5833 4.25901
376 2 0.0654745 39.5517 4.31868
377 2 3.90767 39.5884 4.32292
378 2 8.04191 39.1196 4.22079
379 2 12.1124 39.2567 4.3533
380 2 15.909 39.5383 4.20585
381 2 19.8573 39.3044 4.38553
382 2 23.9171 39.5564 4.36894
383 2 27.6416 39.4772 4.25726
384 2 31.7886 39.6745 4.25976
385 2 35.6761 39.536 4.3372
386 2 39.5621 39.2408 4.24448
387 2 43.3855 39.426 4.31032
388 2 47.4252 39.5005 4.28364
389 2 51.469 39.4949 4.29226
390 2 55.2918 39.5922 4.32632
391 2 0.165821 43.6496 4.17208
392 2 4.1764 43.3435 4.19062
393 2 7.78562 43.0838 4.26344
394 2 11.9151 43.1398 4.31122
395 2 15.7465 43.5158 4.33017
396 2 19.7848 43.4435 4.12421
397 2 23.8908 43.5809 4.11707
398 2 27.6827 43.4032 4.21839
399 2 31.6269 43.5107 4.21065
400 2 35.5 43.2887 4.35423
401 2 39.5834 43.4491 4.35457
402 2 43.6019 43.6088 4.23218
403 2 47.5358 43.2753 4.23262
404 2 51.3838 43.265 4.29892
405 2 55.4989 43.3963 4.10152
406 2 0.254383 47.3237 4.39912
407 2 4.24312 47.3112 4.15635
408 2 8.03213 47.1436 4.35749
409 2 11.817 47.1801 4.40766
410 2 15.8656 47.3904 4.47441
411 2 19.797 47.1709 4.0954
412 2 23.9105 47.228 4.27561
413 2 27.5613 47.2112 4.32475
414 2 31.8306 47.6681 4.07934
415 2 35.7668 47.4052 4.24431
416 2 39.6227 47.528 4.27131
417 2 43.5565 47.3895 4.40836
418 2 47.4558 47.2178 4.39599
419 2 51.528 47.3338 4.33009
420 2 55.3532 47.3428 4.06172
421 2 0.0672839 51.3394 4.45234
422 2 4.02743 51.3026 4.21318
423 2 8.12719 51.1613 4.24056
424 2 12.0642 51.1215 4.07571
425 2 15.8959 51.1415 4.18584
426 2 19.8185 51.1935 4.17041
427 2 23.5715 51.2438 4.10183
428 2 27.5593 51.2826 4.49305
429 2 31.7366 51.6816 4.43379
430 2 35.8135 51.3629 4.27378
431 2 39.6019 51.4271 4.09071
432 2 43.5303 51.0989 4.57709
433 2 47.4193 51.2325 4.41734
434 2 51.5198 51.4671 4.27072
435 2 55.6109 51.1919 4.49015
436 2 0.104142 55.4305 4.32261
437 2 4.03459 55.1507 4.32445
438 2 7.99816 55.1032 4.20515
439 2 11.9862 55.1488 4.24891
440 2 15.9766 55.321 4.19207
441 2 19.7898 55.2921 4.3526
442 2 23.5447 55.3869 4.44219
443 2 27.78 55.329 4.24575
444 2 31.5858 55.3555 4.18037
445 2 35.7403 55.4172 4.22903
446 2 39.9178 55.2668 4.26008
447 2 43.5582 55.3412 4.46896
448 2 47.4766 55.0067 4.36708
449 2 51.5582 55.3086 4.35307
450 2 55.5621 55.1188 4.43028
451 2 -0.0345876 59.4875 8.22873
452 2 4.11342 -0.151516 8.17686
453 2 8.29047 -0.243208 8.18716
454 2 11.9876 -0.198532 8.16924
455 2 15.6802 -0.24269 8.30025
456 2 19.751 -0.202003 8.30452
457 2 23.8391 -0.22281 8.30104
458 2 27.6668 -0.102868 8.52822
459 2 31.8495 -0.43194 8.30842
460 2 35.692 59.2758 8.27759
461 2 39.3766 59.2808 8.41532
462 2 43.6571 -0.0656992 8.48758
463 2 47.5053 -0.245077 8.31642
464 2 51.473 -0.301749 8.27043
465 2 55.4402 -0.142137 8.43254
466 2 0.0881156 3.94024 8.52668
467 2 4.11866 3.67226 8.28019
468 2 8.18487 3.78794 8.0961
469 2 12.0521 3.99142 8.40238
470 2 15.8161 3.66541 8.24614
471 2 19.6244 3.79672 8.34045
472 2 23.7586 3.68969 8.15702
473 2 27.7284 3.84982 8.40302
474 2 31.8421 3.79931 8.5498
475 2 35.6147 3.81329 8.41184
476 2 39.7961 3.86996 8.40708
477 2 43.4088 3.9734 8.52034
478 2 47.5309 3.76997 8.28206
479 2 51.5051 3.88585 8.50216
480 2 55.478 3.93231 8.50281
481 2 -0.0145032 7.65603 8.33193
482 2 3.9366 7.7028 8.37594
483 2 7.88604 7.81281 8.21697
484 2 12.0943 7.8045 8.32069
485 2 15.7445 7.72861 8.34501
486 2 19.679 7.80898 8.41569
487 2 23.4073 7.71719 8.24665
488 2 27.7306 7.83933 8.1113
489 2 31.5679 7.65756 8.26807
490 2 35.7553 7.61711 8.31578
491 2 39.8079 7.86424 8.17483
492 2 43.6497 7.66567 8.38362
493 2 47.4153 7.90862 8.35608
494 2 51.4385 7.85436 8.35515
495 2 55.4488 7.78748 8.34818
496 2 0.0917134 11.6841 8.31396
497 2 4.08477 11.7478 8.28084
498 2 7.8638 11.559 8.38239
499 2 11.8756 11.794 8.47401
500 2 15.9514 11.8061 8.20834
501 2 19.69 11.7921 8.40387
502 2 23.6732 11.6183 8.22726
503 2 27.661 11.7875 8.2328
504 2 31.5561 11.7338 8.26628
505 2 35.6145 11.5797 8.32477
506 2 39.6379 11.7286 8.1483
507 2 43.4628 11.7314 8.36686
508 2 47.3566 11.6772 8.16466
509 2 51.6063 11.7346 8.3602
510 2 55.5804 11.5174 8.32391
511 2 -0.0604939 15.7656 8.29575
512 2 3.9694 15.7104 8.31266
513 2 8.04753 15.4585 8.1277
514 2 12.1448 15.6545 8.41692
515 2 15.9316 15.6794 8.46911
516 2 20.0667 15.8414 8.15762
517 2 23.9387 15.9179 8.22991
518 2 27.7377 15.625 8.14345
519 2 31.9127 15.7387 8.19121
520 2 35.7634 15.5141 8.40713
521 2 39.589 15.7767 8.41752
522 2 43.6702 15.7964 8.23858
523 2 47.5914 15.6991 8.25437
524 2 51.4931 15.5192 8.41948
525 2 55.4832 15.5163 8.23555
526 2 0.119612 19.6779 8.28274
527 2 4.04904 19.4874 8.31612
528 2 7.96677 19.5299 8.13129
529 2 11.8557 19.4159 8.33637
530 2 15.9084 19.6948 8.4292
531 2 20.076 19.7243 8.10121
532 2 23.6996 19.7209 8.28176
533 2 27.8163 19.7003 8.31457
534 2 31.7926 19.4901 8.36571
535 2 35.8179 19.4097 8.40414
536 2 39.7142 19.8426 8.34856
537 2 43.6355 19.7431 8.38588
538 2 47.675 19.6167 8.30459
539 2 51.4126 19.4669 8.26332
540 2 55.2122 19.682 8.30702
541 2 0.0408289 23.6179 8.21361
542 2 4.19172 23.3552 8.23385
543 2 8.05981 23.5616 8.33387
544 2 11.9306 23.6128 8.39075
545 2 15.8987 23.519 8.1448
546 2 19.9475 23.5368 8.37163
547 2 23.855 23.6838 8.18763
548 2 27.8455 23.6477 8.40981
549 2 31.7147 23.6245 8.41142
550 2 35.6108 23.6247 8.21182
551 2 39.6898 23.7582 8.43219
552 2 43.775 23.5719 8.24469
553 2 47.4929 23.6151 8.35947
554 2 51.4745 23.7369 8.29638
555 2 55.5739 23.5938 8.21228
556 2 59.333 27.5807 8.24248
557 2 3.95716 27.4153 8.29498
558 2 8.02975 27.3911 8.40861
559 2 12.0266 27.4456 8.47148
560 2 16.1501 27.6293 8.12194
561 2 19.7719 27.6657 8.32496
562 2 23.9724 27.6177 8.32626
563 2 27.6544 27.7568 8.33415
564 2 31.5693 27.6699 8.25045
565 2 35.6089 27.661 8.2583
566 2 39.5613 27.5575 8.28389
567 2 43.7229 27.5246 8.37081
568 2 47.4003 27.6826 8.05247
569 2 51.6247 27.4643 8.11135
570 2 55.6801 27.5257 8.12618
571 2 0.0399182 31.6083 8.13671
572 2 4.06727 31.5327 8.23885
573 2 8.05544 31.4717 8.2732
574 2 11.9 31.4926 8.03405
575 2 15.8149 31.4978 8.15437
576 2 20.0705 31.7777 8.23661
577 2 23.9012 31.3059 8.01399
578 2 27.7609 31.679 8.22339
579 2 31.8196 31.5746 8.31351
580 2 35.5435 31.6257 8.38756
581 2 39.7225 31.6702 8.30142
582 2 43.6276 31.5823 8.2095
583 2 47.4783 31.4401 8.29429
584 2 51.5325 31.579 8.38563
585 2 55.4912 31.6272 8.06563
586 2 0.0793217 35.5751 8.0817
587 2 3.99747 35.4873 8.42705
588 2 8.01554 35.5065 8.25847
589 2 12.0712 35.6482 8.42433
590 2 16.1604 35.374 8.22179
591 2 19.9895 35.5527 8.6033
592 2 23.9633 35.5896 8.39246
593 2 27.6221 35.6351 8.07821
594 2 31.4578 35.601 8.3876
595 2 35.7502 35.784 8.09214
596 2 39.5814 35.5238 8.34588
597 2 43.6755 35.6229 8.128
598 2 47.5504 35.5453 8.15344
599 2 51.5608 35.5879 8.27165
600 2 55.6707 35.5944 8.26584
601 2 0.224919 39.5599 7.97169
602 2 4.1868 39.1856 8.22568
603 2 8.08956 39.2595 8.32712
604 2 11.9832 39.5483 8.30927
605 2 15.9705 39.2576 8.30775
606 2 19.8217 39.3667 8.23491
607 2 23.9426 39.6537 8.27457
608 2 27.7399 39.5613 8.37192
609 2 31.7177 39.469 8.31709
610 2 35.6836 39.5221 8.24605
611 2 39.6545 39.6144 8.25491
612 2 43.553 39.6294 8.40444
613 2 47.505 39.4048 8.26652
614 2 51.3524 39.5849 8.23078
615 2 55.3158 39.3655 8.10404
616 2 0.141104 43.4283 8.13848
617 2 4.15265 43.5381 8.31639
618 2 8.07791 43.2524 8.37794
619 2 11.9782 43.2946 8.41498
620 2 15.9953 43.2837 8.28517
621 2 19.8744 43.2597 8.39207
622 2 23.583 43.5712 8.275
623 2 27.7621 43.6917 8.3548
624 2 31.6659 43.7373 8.29709
625 2 35.5321 43.5004 8.27805
626 2 39.5308 43.5805 8.18559
627 2 43.4579 43.4253 8.42346
628 2 47.3735 43.5833 8.19467
629 2 51.4578 43.4142 8.27681
630 2 55.4211 43.4633 8.21645
631 2 0.0564406 47.3018 8.30807
632 2 4.1146 47.3917 8.1748
633 2 8.0809 47.2007 8.27072
634 2 11.916 47.2938 8.19075
635 2 16.1208 47.315 8.34699
636 2 19.9265 47.3155 8.29985
637 2 23.7041 47.5485 8.20655
638 2 27.75 47.6286 8.02241
639 2 31.6756 47.5575 8.26627
640 2 35.6559 47.4124 8.14348
641 2 39.4964 47.3348 8.32196
642 2 43.3579 47.4206 8.44544
643 2 47.6439 47.3463 8.191
644 2 51.5986 47.4301 8.21374
645 2 55.4752 47.3851 8.19725
646 2 0.0355281 51.1898 8.33729
647 2 4.06417 51.2914 8.31582
648 2 8.12327 51.2483 8.16043
649 2 12.0324 51.0094 8.23476
650 2 15.7897 51.1339 8.27961
651 2 20.16 51.1847 8.18646
652 2 23.8432 51.4172 8.20777
653 2 27.7726 51.5098 8.26631
654 2 31.7669 51.3893 8.17054
655 2 35.6479 51.3269 8.2239
656 2 39.3686 51.3029 8.37389
657 2 43.5497 51.4404 8.30695
658 2 47.6774 51.3796 8.24221
659 2 51.6048 51.2583 8.27894
660 2 55.545 51.3409 8.28476
661 2 0.279725 55.4055 8.30322
662 2 4.18379 55.2324 8.17866
663 2 8.1631 55.2889 8.06271
664 2 11.8687 55.0457 8.19261
665 2 15.9844 55.2438 8.29077
666 2 19.9672 55.2349 8.36379
667 2 23.6063 55.3774 8.36126
668 2 27.9336 55.3508 8.30834
669 2 31.8437 55.3145 8.0709
670 2 35.765 55.2464 8.37426
671 2 39.7272 55.3277 8.24596
672 2 43.4481 55.2032 8.44786
673 2 47.7179 55.4033 8.27578
674 2 51.7129 55.1812 8.21493
675 2 55.6024 55.2957 8.24323
676 2 0.183601 0.00109068 12.2956
677 2 4.3305 -0.184137 12.1713
678 2 8.24826 -0.21591 12.2302
679 2 11.8986 -0.263222 12.3707
680 2 15.8866 59.1793 12.2623
681 2 19.7775 -0.153207 12.2799
682 2 23.6242 -0.105075 12.3303
683 2 27.6895 0.0150043 12.4348
684 2 31.6128 -0.020143 12.5037
685 2 35.5896 -0.121421 12.2933
686 2 39.64 0.00640653 12.4453
687 2 43.481 -0.0902107 12.2592
688 2 47.3888 0.0486209 12.3379
689 2 51.3837 -0.219077 12.3877
690 2 55.3744 -0.0822453 12.2723
691 2 0.279741 3.94863 12.321
692 2 4.1247 3.80052 12.282
693 2 7.94004 3.80408 12.3055
694 2 11.9337 3.71122 12.3466
695 2 15.8756 3.88158 12.2899
696 2 19.9165 3.58647 12.2205
697 2 23.8851 3.95317 12.0851
698 2 27.5853 3.93959 12.0615
699 2 31.815 3.80155 12.195
700 2 35.7349 3.82749 12.435
701 2 39.7798 4.00757 12.3205
702 2 43.7677 3.92962 12.2009
703 2 47.5507 3.87188 12.1284
704 2 51.4281 3.54422 12.3547
705 2 55.5666 3.89289 12.2868
706 2 0.172902 7.65424 12.3812
707 2 4.17804 7.53403 12.436
708 2 7.82887 7.83292 12.466
709 2 11.8988 7.64515 12.3664
710 2 15.8364 7.56652 12.3572
711 2 19.8335 7.88684 12.3785
712 2 23.6255 7.87514 12.3687
713 2 27.7278 7.86854 12.2678
714 2 31.7262 7.68553 12.2484
715 2 35.7335 7.91484 12.376
716 2 39.4807 7.93373 12.3392
717 2 43.5378 7.92229 12.0421
718 2 47.7411 7.87087 12.2626
719 2 51.3764 7.62834 12.2754
720 2 55.592 7.89625 12.3061
721 2 0.304144 11.4884 12.3112
722 2 4.13759 11.6196 12.3883
723 2 7.92315 11.8114 12.3997
724 2 11.9352 11.5814 12.2586
725 2 15.9671 11.5089 12.2667
726 2 19.8981 11.7075 12.2921
727 2 24.0083 11.6291 12.084
728 2 27.8284 11.9575 12.2135
729 2 31.621 11.7393 12.3167
730 2 35.6277 11.649 12.3351
731 2 39.5998 11.7549 12.308
732 2 43.6472 11.8998 12.2607
733 2 47.6649 11.8119 12.2608
734 2 51.7065 11.8353 12.2818
735 2 55.4488 11.6775 12.3011
736 2 0.12574 15.8064 12.1379
737 2 3.97146 15.6209 12.1019
738 2 8.00125 15.636 12.2321
739 2 12.0747 15.8141 12.4385
740 2 16.0823 15.7453 12.4023
741 2 19.9404 15.6436 12.1129
742 2 23.9794 15.7773 12.1296
743 2 27.7753 15.7522 12.1958
744 2 31.7597 15.525 12.2991
745 2 35.7323 15.6557 12.389
746 2 39.7792 15.7784 12.1691
747 2 43.859 15.8802 12.3752
748 2 47.5405 15.7679 12.3017
749 2 51.4941 15.7807 12.2504
750 2 55.5949 15.7036 12.1078
751 2 0.162222 19.6227 12.0478
752 2 4.16894 19.5635 12.2727
753 2 8.06288 19.5978 12.0705
754 2 12.0346 19.7057 12.231
755 2 15.9401 19.6456 12.0772
756 2 19.7069 19.6352 12.1909
757 2 23.8864 19.8375 12.3554
758 2 27.8059 19.6549 12.4082
759 2 31.8759 19.672 12.2793
760 2 35.6693 19.6669 12.2624
761 2 39.8087 19.8217 12.3021
762 2 43.6139 19.8079 12.2903
763 2 47.4787 19.7831 12.3875
764 2 51.4689 19.7633 12.2066
765 2 55.6585 19.5825 12.3123
766 2 0.34631 23.686 12.1879
767 2 4.13236 23.6572 12.3946
768 2 8.06392 23.7217 12.1515
769 2 11.9542 23.4488 12.2945
770 2 16.0362 23.6852 12.1551
771 2 19.8924 23.792 12.2774
772 2 23.8634 23.6711 12.2367
773 2 27.7805 23.6478 12.2397
774 2 31.8287 23.6435 12.3345
775 2 35.75 23.5643 12.3305
776 2 39.5757 23.5589 12.3214
777 2 43.713 23.8214 12.1505
778 2 47.6736 23.751 12.3445
779 2 51.6521 23.7509 12.1467
780 2 55.5588 23.6093 12.1347
781 2 0.14809 27.6752 12.2218
782 2 4.20233 27.6522 12.0342
783 2 8.10322 27.591 12.3822
784 2 12.0187 27.7609 12.2727
785 2 16.0586 27.579 12.389
786 2 19.7234 27.6502 12.2406
787 2 23.8291 27.6373 12.2995
788 2 27.9206 27.7475 12.4031
789 2 32.0777 27.5468 12.2436
790 2 35.93 27.8241 12.0363
791 2 39.8562 27.6936 12.0947
792 2 43.4417 27.5321 12.2327
793 2 47.6037 27.7459 12.1748
794 2 51.7126 27.6807 12.1461
795 2 55.6583 27.6669 12.1633
796 2 0.0252021 31.6058 12.2774
797 2 4.11073 31.4782 12.1263
798 2 8.03937 31.6783 12.2858
799 2 11.7621 31.6056 12.2271
800 2 15.9841 31.4041 12.1721
801 2 19.8119 31.6025 12.3748
802 2 23.9521 31.4167 12.3341
803 2 27.7828 31.4803 12.3727
804 2 31.602 31.5465 12.2062
805 2 35.7301 31.4606 12.318
806 2 39.7236 31.5 12.3362
807 2 43.7237 31.5472 12.2003
808 2 47.7011 31.5806 12.2104
809 2 51.6192 31.4316 12.1051
810 2 55.6614 31.5107 12.2002
811 2 0.160178 35.6942 12.2599
812 2 4.00985 35.4222 12.2759
813 2 8.01589 35.5074 12.203
814 2 12.0057 35.4422 12.2381
815 2 15.7812 35.5714 12.3913
816 2 19.9783 35.3418 12.2814
817 2 23.762 35.3199 12.2427
818 2 27.8219 35.5116 12.4467
819 2 31.7749 35.3047 12.1454
820 2 35.4944 35.5866 12.0419
821 2 39.6419 35.6069 12.256
822 2 43.7949 35.4566 12.2091
823 2 47.6539 35.5461 12.2641
824 2 51.6918 35.6114 12.1483
825 2 55.7033 35.7027 12.0695
826 2 0.195645 39.5362 12.1156
827 2 3.92248 39.5827 12.2366
828 2 8.09645 39.4634 12.1676
829 2 12.1116 39.4402 12.3958
830 2 15.9613 39.3908 12.3096
831 2 19.8992 39.288 12.3985
832 2 23.8995 39.4733 12.3844
833 2 27.8163 39.5757 12.253
834 2 31.7504 39.61 12.2254
835 2 35.7334 39.6144 12.2262
836 2 39.6473 39.5757 12.3591
837 2 43.6371 39.4837 12.0555
838 2 47.588 39.4468 12.3309
839 2 51.381 39.655 12.2113
840 2 55.4094 39.5402 12.2135
841 2 0.208529 43.3142 12.1892
842 2 4.30919 43.526 12.355
843 2 8.0418 43.2344 12.2172
844 2 12.2215 43.4903 12.2182
845 2 16.0339 43.4874 12.2839
846 2 19.8591 43.2492 12.3744
847 2 23.93 43.4331 12.1044
848 2 27.8376 43.6897 12.2466
849 2 31.7263 43.3437 12.228
850 2 35.5906 43.5376 12.3499
851 2 39.5709 43.341 12.3197
852 2 43.5298 43.544 12.1296
853 2 47.4361 43.3557 12.3335
854 2 51.4592 43.369 12.2613
855 2 55.5084 43.4977 12.1465
856 2 0.328945 47.3369 12.1867
857 2 4.08172 47.1277 12.2684
858 2 7.91903 47.2095 12.2901
859 2 12.0702 47.3312 12.1095
860 2 16.2242 47.3046 12.2736
861 2 19.8284 47.2526 12.3683
862 2 23.8807 47.2701 12.3155
863 2 27.7442 47.3493 12.1169
864 2 31.7553 47.4195 12.3541
865 2 35.7961 47.5709 12.3147
866 2 39.6401 47.3499 12.1981
867 2 43.5458 47.2914 12.2711
868 2 47.7206 47.405 12.0109
869 2 51.4185 47.4393 12.2144
870 2 55.6071 47.52 12.2604
871 2 0.110133 51.2923 12.1398
872 2 4.21959 51.3638 12.0824
873 2 8.01718 51.2136 12.2941
874 2 12.0861 51.1002 12.1834
875 2 16.0982 51.2806 12.2822
876 2 19.9273 51.4205 12.4641
877 2 23.7948 51.4545 12.2115
878 2 27.8433 51.4139 12.2199
879 2 31.8675 51.2621 12.1259
880 2 35.7974 51.2875 12.2305
881 2 39.5719 51.4467 12.3469
882 2 43.463 51.2479 12.3571
883 2 47.5771 51.3231 12.1798
884 2 51.561 51.3372 12.2346
885 2 55.5233 51.3836 12.3025
886 2 0.389642 55.3665 12.2626
887 2 4.25099 55.2866 12.1005
888 2 7.83101 55.1004 12.1973
889 2 11.9162 55.0183 12.2309
890 2 16.1137 55.1201 12.2111
891 2 19.7671 55.29 12.2612
892 2 23.6216 55.3561 12.3851
893 2 27.7378 55.2902 12.356
894 2 31.887 55.2859 12.0608
895 2 35.651 55.2097 12.4574
896 2 39.5769 55.451 12.3724
897 2 43.5841 55.2591 12.2819
898 2 47.47 55.2325 12.3365
899 2 51.4028 55.3275 12.5012
900 2 55.6281 55.2109 12.1232
901 2 0.242422 -0.190082 16.153
902 2 4.19235 0.00595116 16.2569
903 2 8.16596 -0.232911 16.239
904 2 11.8272 -0.0732274 16.2047
905 2 15.7785 -0.139561 16.3314
906 2 19.7158 -0.202847 16.3505
907 2 23.8684 -0.113669 16.2229
908 2 27.8104 -0.0562851 16.4895
909 2 31.6453 -0.0903715 16.4891
910 2 35.7403 -0.154873 16.2178
911 2 39.5779 -0.0978054 16.413
912 2 43.6004 59.4485 16.0055
913 2 47.6346 59.2824 16.3724
914 2 51.8092 59.184 16.1581
915 2 55.6106 -0.0882328 16.1945
916 2 0.46024 3.82592 16.3506
917 2 4.21874 3.84608 16.3647
918 2 8.05438 3.94413 16.3159
919 2 12.0608 3.69565 16.3808
920 2 15.9421 3.85288 16.451
921 2 19.8615 3.74761 16.2612
922 2 23.8175 3.88572 16.3155
923 2 27.6614 3.89411 16.4867
924 2 31.5739 3.75411 16.2752
925 2 35.6212 3.92373 16.3477
926 2 39.8453 3.92684 16.2772
927 2 43.7063 4.05305 16.2436
928 2 47.5999 4.05284 16.2765
929 2 51.4745 4.05268 15.9732
930 2 55.4251 3.83179 16.4228
931 2 0.0574784 7.6635 16.2643
932 2 4.05539 7.96744 16.4138
933 2 8.06753 7.93087 16.3275
934 2 11.9873 7.94848 16.1646
935 2 16.068 7.80855 16.2347
936 2 19.8924 7.79021 16.2704
937 2 23.7707 7.9351 16.2709
938 2 27.7115 7.94753 16.178
939 2 31.6902 7.71447 16.4261
940 2 35.8157 7.87535 16.2997
941 2 39.6554 7.86009 16.362
942 2 43.4808 7.9891 16.3836
943 2 47.367 7.71501 16.1943
944 2 51.4981 7.76636 16.089
945 2 55.4919 7.8903 16.4096
946 2 59.5634 11.8012 16.1266
947 2 4.22715 11.8267 16.3999
948 2 8.10996 11.9001 16.1969
949 2 11.8968 11.8825 16.1662
950 2 15.7528 11.7289 16.2184
951 2 19.8084 11.7921 16.3737
952 2 23.7174 11.9477 16.0637
953 2 27.5446 11.8432 16.2083
954 2 31.5263 11.9787 16.278
955 2 35.7135 11.7523 16.2633
956 2 39.6736 11.866 16.1524
957 2 43.6733 11.5943 16.1059
958 2 47.8228 11.5263 16.1435
959 2 51.6303 11.868 16.3993
960 2 55.5141 11.8062 16.1853
961 2 0.125067 15.8115 16.0274
962 2 4.02408 15.7077 16.272
963 2 8.2326 15.7374 16.2371
964 2 11.9346 15.9293 16.2294
965 2 16.1502 15.7051 16.1932
966 2 19.9982 15.7452 16.2491
967 2 23.6692 15.8488 16.1493
968 2 27.6536 15.8526 16.363
969 2 31.8838 15.7262 16.223
970 2 35.6112 15.9986 16.1698
971 2 39.744 16.0069 16.0226
972 2 43.7395 15.7694 16.243
973 2 47.7065 15.8615 16.2173
974 2 51.7436 15.9442 16.1389
975 2 55.4926 15.803 16.0622
976 2 0.181457 19.8191 16.1487
977 2 4.1527 19.6842 16.0928
978 2 8.04463 19.6178 16.1436
979 2 11.9707 19.7687 16.0654
980 2 15.963 19.5571 15.9905
981 2 19.8548 19.6656 16.3308
982 2 23.6225 19.8485 16.3116
983 2 27.8582 19.8306 16.0898
984 2 31.8695 19.6591 16.27
985 2 35.6115 19.879 16.2768
986 2 39.6888 19.7621 16.2216
987 2 43.7122 19.7082 16.1205
988 2 47.4883 19.5783 16.1392