ITEM: TIMESTEP
39400
ITEM: NUMBER OF ATOMS
28125
ITEM: BOX BOUNDS xy xz yz pp pp pp
0.0000000000000000e+00 5.9369999999999997e+01 0.0000000000000000e+00
0.0000000000000000e+00 5.9369999999999997e+01 0.0000000000000000e+00
8.6421447805101081e-02 9.9413578552195560e+01 0.0000000000000000e+00
ITEM: ATOMS id type x y z
1 2 59.5044 59.0393 0.355505
2 2 3.82169 59.1443 0.496851
3 2 7.75313 59.0069 0.392085
4 2 11.8566 59.0881 0.4295
5 2 15.8666 59.2281 0.274268
6 2 19.6985 59.1019 0.296184
7 2 23.7707 59.4168 0.494749
8 2 27.6073 59.1224 0.276514
9 2 31.5961 59.1175 0.325894
10 2 35.472 59.1923 0.254845
11 2 39.683 59.4832 0.414882
12 2 43.5834 59.4599 0.336313
13 2 47.549 59.3207 0.268493
14 2 51.3211 -0.218296 0.332609
15 2 55.2963 59.1907 0.352655
16 2 59.404 3.76727 0.334643
17 2 4.04915 3.70943 0.298972
18 2 7.96498 3.84303 0.383149
19 2 11.8297 3.66139 0.341266
20 2 15.744 3.88121 0.617091
21 2 19.8185 3.90398 0.468504
22 2 23.593 3.85971 0.103338
23 2 27.5687 3.90288 0.353309
24 2 31.7502 3.83585 0.309475
25 2 35.6875 3.69388 0.380155
26 2 39.7012 3.84583 0.101688
27 2 43.5342 3.90381 0.323822
28 2 47.2893 3.70868 0.60204
29 2 51.6369 3.85182 0.45727
30 2 55.5048 3.79803 0.422562
31 2 59.5261 7.69819 0.315502
32 2 4.01769 7.7525 0.440684
33 2 7.9234 7.5322 0.319304
34 2 11.9467 7.70875 0.211956
35 2 15.7704 7.83182 0.388652
36 2 19.6675 7.7959 0.248961
37 2 23.9291 7.78507 0.403726
38 2 27.8686 7.72684 0.42966
39 2 31.8104 7.75697 0.228113
40 2 35.711 7.76169 0.407696
41 2 39.5822 7.71461 0.0904431
42 2 43.4532 7.51591 0.185976
43 2 47.5588 7.8192 0.532561
44 2 51.6458 7.66344 0.400991
45 2 55.3041 7.91495 0.450715
46 2 59.5307 11.7803 0.484206
47 2 4.06321 11.9196 0.292977
48 2 7.934 11.7069 0.38298
49 2 11.9197 11.7135 0.156688
50 2 15.7996 11.5849 0.410777
51 2 19.8105 11.7251 0.425164
52 2 23.8868 11.8811 0.586299
53 2 27.6442 11.8327 0.494501
54 2 31.8532 11.5877 0.219714
55 2 35.6913 11.8236 0.400588
56 2 39.6703 11.593 0.1601
57 2 43.5735 11.8071 0.429599
58 2 47.4474 11.6762 0.386132
59 2 51.5563 11.7344 0.147683
60 2 55.4475 11.7919 0.534909
61 2 0.0593267 15.639 0.445035
62 2 3.83379 15.8292 0.513027
63 2 7.8408 15.8951 0.479719
64 2 11.8112 15.7019 0.248889
65 2 15.7867 15.6371 0.386907
66 2 19.6902 15.694 0.414684
67 2 23.729 15.684 0.0884864
68 2 27.9119 15.6443 0.280929
69 2 31.6363 15.8154 0.285654
70 2 35.6631 15.5011 0.273222
71 2 39.527 15.7266 0.243961
72 2 43.7099 15.7403 0.30109
73 2 47.5809 15.7472 0.411594
74 2 51.3561 15.8698 0.385138
75 2 55.5508 15.712 0.329654
76 2 59.4396 19.6881 0.449521
77 2 3.90414 19.5345 0.293614
78 2 7.91224 19.7869 0.357262
79 2 11.8894 19.646 0.199862
80 2 15.5558 19.5775 0.301341
81 2 19.7039 19.7054 0.513335
82 2 23.6021 19.6074 0.378066
83 2 27.565 19.4986 0.197988
84 2 31.6059 19.5033 0.121123
85 2 35.4786 19.6327 0.35908
86 2 39.4298 19.649 0.304666
87 2 43.4277 19.5668 0.475342
88 2 47.4769 19.8823 0.352745
89 2 51.6208 19.7814 0.482618
90 2 55.5853 19.7124 0.325559
91 2 59.1601 23.8448 0.266811
92 2 3.85159 23.6092 0.641226
93 2 7.77063 23.5768 0.395945
94 2 11.6326 23.6969 0.410762
95 2 15.6778 23.5757 0.369342
96 2 19.7488 23.6843 0.454385
97 2 23.7553 23.5157 0.255366
98 2 27.7529 23.687 0.258342
99 2 31.5647 23.6233 0.527698
100 2 35.4347 23.6955 0.442004
101 2 39.3307 23.4796 0.299234
102 2 43.2593 23.6578 0.462422
103 2 47.2797 23.624 0.418584
104 2 51.1395 23.6202 0.240276
105 2 55.1966 23.9282 0.2654
106 2 59.1082 27.83 0.522242
107 2 3.90601 27.5363 0.410732
108 2 7.77495 27.6172 0.385752
109 2 11.9388 27.6468 0.466662
110 2 15.7872 27.8554 0.467749
111 2 19.8278 27.4666 0.327247
112 2 23.8008 27.6815 0.369309
113 2 27.7218 27.5677 0.444378
114 2 31.598 27.6461 0.325759
115 2 35.5599 27.5252 0.443586
116 2 39.4392 27.5774 0.219067
117 2 43.3496 27.5547 0.418559
118 2 47.4158 27.4774 0.349155
119 2 51.4288 27.5767 0.299674
120 2 55.4023 27.7803 0.393861
121 2 -0.0591165 31.5627 0.26825
122 2 3.96083 31.3539 0.364898
123 2 7.66587 31.7557 0.492426
124 2 11.7915 31.5028 0.371203
125 2 15.9733 31.7191 0.438825
126 2 19.7734 31.5719 0.384638
127 2 23.6758 31.4554 0.358513
128 2 27.5282 31.4283 0.319585
129 2 31.5068 31.5556 0.398952
130 2 35.6911 31.5287 0.33383
131 2 39.7162 31.4071 0.279376
132 2 43.4788 31.3783 0.287781
133 2 47.3291 31.5279 0.292662
134 2 51.3122 31.6993 0.397144
135 2 55.2764 31.7516 0.528067
136 2 59.2857 35.45 0.197455
137 2 3.73352 35.5424 0.564696
138 2 7.85202 35.6201 0.406269
139 2 11.614 35.5427 0.277687
140 2 15.726 35.5389 0.337987
141 2 19.6943 35.4988 0.419474
142 2 23.7628 35.5285 0.421277
143 2 27.6455 35.3322 0.369695
144 2 31.5174 35.4243 0.445342
145 2 35.6571 35.5711 0.493733
146 2 39.5091 35.4667 0.408286
147 2 43.4872 35.462 0.284114
148 2 47.1501 35.3253 0.341591
149 2 51.2136 35.5502 0.293851
150 2 55.1694 35.4342 0.292481
151 2 59.2146 39.535 0.321669
152 2 3.86002 39.5857 0.444989
153 2 7.79384 39.3367 0.447766
154 2 11.7504 39.4099 0.36376
155 2 15.7857 39.5856 0.385524
156 2 19.7646 39.5427 0.410066
157 2 23.6647 39.629 0.474446
158 2 27.8806 39.227 0.439342
159 2 31.61 39.1446 0.203043
160 2 35.6724 39.377 0.32833
161 2 39.5846 39.5517 0.505303
162 2 43.6064 39.4326 0.266103
163 2 47.6964 39.3236 0.254469
164 2 51.498 39.3052 0.163747
165 2 55.427 39.5282 0.180888
166 2 -0.186617 43.3312 0.337851
167 2 3.92937 43.5137 0.336387
168 2 7.81197 43.3578 0.135715
169 2 11.6415 43.4727 0.197966
170 2 15.7074 43.3222 0.291445
171 2 19.7456 43.3537 0.307064
172 2 23.614 43.2794 0.30024
173 2 27.6265 43.6104 0.171319
174 2 31.6553 43.3541 0.321524
175 2 35.5673 43.1336 0.226369
176 2 39.6153 43.3144 99.7645
177 2 43.4934 43.4338 0.352242
178 2 47.4286 43.1664 0.0904995
179 2 51.2413 43.4463 0.369363
180 2 55.1296 43.4375 0.0563083
181 2 -0.388284 47.1588 0.296177
182 2 3.78003 47.3686 0.248436
183 2 7.60884 47.4466 0.313582
184 2 11.7393 47.1372 0.456144
185 2 15.6883 47.2482 0.245834
186 2 19.8009 47.1713 0.177766
187 2 23.7147 47.358 0.387082
188 2 27.7434 47.5177 0.272655
189 2 31.8418 47.4379 0.394758
190 2 35.7513 47.4302 0.36764
191 2 39.4147 47.5254 0.262972
192 2 43.591 47.1858 0.10204
193 2 47.3625 47.2446 0.235072
194 2 51.366 47.5122 0.505188
195 2 55.2004 47.25 0.41139
196 2 -0.0564509 51.1439 0.373384
197 2 3.84238 51.386 0.230997
198 2 7.88233 51.1795 0.38816
199 2 11.8769 51.2579 0.373032
200 2 15.8973 51.1254 0.142017
201 2 19.9037 51.3826 0.419328
202 2 23.6813 51.2058 0.366276
203 2 27.7742 51.4632 0.220535
204 2 31.628 51.1727 0.480479
205 2 35.5933 51.28 0.443853
206 2 39.6467 51.3278 0.284219
207 2 43.5206 51.3713 0.330126
208 2 47.488 51.1631 0.229392
209 2 51.4454 51.3647 0.443017
210 2 55.3575 51.2973 0.406814
211 2 59.5197 55.23 0.37559
212 2 3.88191 55.2636 0.366284
213 2 7.75617 55.2166 0.494322
214 2 11.7097 55.1789 0.368493
215 2 15.8138 55.3829 0.343438
216 2 20.0759 55.2256 0.257973
217 2 23.8301 55.2503 0.357924
218 2 27.8494 55.1062 0.138705
219 2 31.684 55.2742 0.327663
220 2 35.545 55.2313 0.409352
221 2 39.577 55.4478 0.521386
222 2 43.7545 55.3779 0.359822
223 2 47.5289 55.3431 0.462591
224 2 51.328 55.2416 0.257018
225 2 55.3462 55.3741 0.505546
226 2 0.00249589 59.1272 4.23177
227 2 3.91507 59.2638 4.5294
228 2 7.97678 59.1583 4.34447
229 2 11.9639 59.2841 4.35136
230 2 16.0918 59.1996 4.21521
231 2 19.8589 59.1177 4.24091
232 2 23.8518 59.1664 4.44993
233 2 27.7045 59.3275 4.37202
234 2 31.7077 59.1925 4.3323
235 2 35.6701 59.1754 4.30003
236 2 39.5638 59.1866 4.51
237 2 43.4386 59.2638 4.31626
238 2 47.4369 59.3108 4.27387
239 2 51.3444 59.5061 4.32974
240 2 55.4347 59.0322 4.31364
241 2 59.5105 3.82904 4.33101
242 2 3.94263 3.94904 4.30875
243 2 7.83208 3.64394 4.35763
244 2 11.8969 3.69955 4.37361
245 2 15.789 3.74517 4.29738
246 2 19.8253 3.7255 4.24445
247 2 23.7863 3.73924 4.39992
248 2 27.748 3.70886 4.09881
249 2 31.5627 3.71067 4.41867
250 2 35.5421 3.66671 4.28507
251 2 39.5573 3.93638 4.60054
252 2 43.6074 3.90131 4.31971
253 2 47.4721 3.89036 4.26697
254 2 51.4395 3.86446 4.33514
255 2 55.6257 3.78137 4.34
256 2 59.3435 7.79318 4.38525
257 2 3.80076 7.99749 4.44596
258 2 7.79679 7.61184 4.35394
259 2 11.7764 7.62941 4.23303
260 2 15.7097 7.48569 4.37476
261 2 19.798 7.6787 4.50646
262 2 23.8899 7.82696 4.32223
263 2 28.0282 7.79715 4.21723
264 2 31.8472 7.72053 4.14184
265 2 35.6991 7.89952 4.15539
266 2 39.6009 7.85125 4.24899
267 2 43.4967 7.80783 4.42391
268 2 47.5544 7.839 4.43956
269 2 51.4529 7.64407 4.46234
270 2 55.3291 7.74138 4.43843
271 2 59.4836 11.6518 4.44691
272 2 4.07739 11.796 4.23291
273 2 7.87954 11.6557 4.05471
274 2 11.7487 11.5715 4.45038
275 2 15.6209 11.4598 4.31022
276 2 19.7533 11.731 4.4143
277 2 23.6605 11.6877 4.42477
278 2 27.8048 11.7654 4.27832
279 2 31.6028 11.6684 4.14747
280 2 35.4575 11.6319 4.52139
281 2 39.6848 11.8686 4.20123
282 2 43.5902 11.5905 4.26243
283 2 47.7708 11.6534 4.36682
284 2 51.4311 11.7526 4.41432
285 2 55.3769 11.7621 4.36672
286 2 59.5917 15.7153 4.50487
287 2 4.08178 15.8117 4.47466
288 2 7.97554 15.6465 4.35825
289 2 12.0082 15.5308 4.24824
290 2 15.7719 15.7758 4.22918
291 2 19.525 15.6354 4.36531
292 2 23.5537 15.7011 4.21543
293 2 27.7635 15.5762 4.22479
294 2 31.6281 15.6791 4.24183
295 2 35.5227 15.6084 4.19796
296 2 39.7234 15.7172 4.26547
297 2 43.5999 15.6079 4.24559
298 2 47.644 15.5775 4.37341
299 2 51.6857 15.8258 4.22383
300 2 55.4685 15.8636 4.32361
301 2 59.2724 19.7614 4.39173
302 2 4.021 19.8861 4.55301
303 2 8.01544 19.6619 4.40857
304 2 11.8659 19.5151 4.35912
305 2 15.7923 19.5906 4.38645
306 2 19.7028 19.6696 4.24018
307 2 23.7453 19.6625 4.30085
308 2 27.5253 19.6553 4.34098
309 2 31.7954 19.4303 4.42756
310 2 35.5494 19.5322 4.14282
311 2 39.4097 19.4815 4.17198
312 2 43.5124 19.6315 4.47836
313 2 47.5483 19.7336 4.29708
314 2 51.6566 19.7631 4.34248
315 2 55.4759 19.9245 4.43533
316 2 59.3368 23.7292 4.36789
317 2 3.85334 23.6245 4.4345
318 2 7.75943 23.4586 4.36312
319 2 11.8663 23.6071 4.26935
320 2 15.6579 23.5372 4.33388
321 2 19.6196 23.7428 4.30824
322 2 23.6806 23.4521 4.16434
323 2 27.8052 23.3692 4.23873
324 2 31.673 23.4339 4.29448
325 2 35.4106 23.449 4.06676
326 2 39.4221 23.3906 4.21183
327 2 43.515 23.5221 4.43645
328 2 47.59 23.6869 4.40229
329 2 51.5986 23.6076 4.38962
330 2 55.2691 23.7745 4.32192
331 2 59.0888 27.5667 4.43994
332 2 3.88062 27.4786 4.53092
333 2 7.87699 27.6123 4.32504
334 2 11.8676 27.6774 4.21718
335 2 15.8034 27.6548 4.36532
336 2 19.6322 27.3833 4.4009
337 2 23.6561 27.486 4.38534
338 2 27.4875 27.4276 4.22289
339 2 31.6076 27.5055 4.3899
340 2 35.6451 27.751 4.29971
341 2 39.5981 27.3424 4.23908
342 2 43.4059 27.3767 4.2443
343 2 47.5981 27.4404 4.20949
344 2 51.4623 27.6124 4.49659
345 2 55.4484 27.6148 4.46926
346 2 0.0670075 31.7605 4.2696
347 2 3.76826 31.6196 4.46352
348 2 7.90976 31.6257 4.41247
349 2 11.8736 31.5788 4.25677
350 2 15.6867 31.3826 4.48171
351 2 19.8083 31.5284 4.35194
352 2 23.6946 31.4466 4.33172
353 2 27.6894 31.3875 4.29891
354 2 31.485 31.4909 4.3391
355 2 35.5641 31.5256 4.51603
356 2 39.6532 31.53 4.46176
357 2 43.5113 31.4066 4.24452
358 2 47.4572 31.4605 4.28405
359 2 51.3759 31.6357 4.40534
360 2 55.3593 31.689 4.47994
361 2 -0.389881 35.483 4.4072
362 2 3.71324 35.5762 4.48056
363 2 7.61786 35.4348 4.38723
364 2 11.7043 35.3869 4.23704
365 2 15.6326 35.4527 4.37657
366 2 19.816 35.5327 4.424
367 2 23.8765 35.4401 4.30098
368 2 27.5201 35.5226 4.47214
369 2 31.7641 35.5412 4.31157
370 2 35.6448 35.2758 4.25944
371 2 39.5283 35.3615 4.22683
372 2 43.5234 35.363 4.27882
373 2 47.6107 35.3992 4.36148
374 2 51.5545 35.5892 4.2711
375 2 55.3527 35.6954 4.37084
376 2 0.0298013 39.7647 4.4565
377 2 3.87019 39.4463 4.09353
378 2 8.0121 39.4473 4.35228
379 2 11.7988 39.4898 4.30731
380 2 15.7588 39.4148 4.41658
381 2 19.596 39.2435 4.50207
382 2 23.6067 39.3004 4.27178
383 2 27.7525 39.3338 4.45176
384 2 31.684 39.3681 4.14297
385 2 35.5978 39.342 4.33198
386 2 39.5871 39.4226 4.40734
387 2 43.4203 39.2054 4.32366
388 2 47.354 39.6272 4.39947
389 2 51.3479 39.4025 4.1151
390 2 55.3201 39.2867 4.23133
391 2 0.163715 43.393 4.21055
392 2 3.9896 43.3585 4.45418
393 2 7.77486 43.3798 4.41063
394 2 11.8487 43.2762 4.15258
395 2 15.8889 43.6454 4.20227
396 2 19.6758 43.3682 4.34027
397 2 24.063 43.315 4.10261
398 2 27.7178 43.1547 4.38594
399 2 31.7093 43.3546 4.2325
400 2 35.577 43.2529 4.295
401 2 39.5256 43.4712 4.31765
402 2 43.61 43.4159 4.43979
403 2 47.4891 43.2618 4.40191
404 2 51.4082 43.5583 4.43893
405 2 55.2734 43.3602 4.33543
406 2 59.1929 47.1256 4.34086
407 2 4.02654 47.1871 4.18615
408 2 7.96212 47.1913 4.39281
409 2 11.9038 47.1886 4.28222
410 2 15.6772 47.3984 4.1504
411 2 19.755 47.3322 4.15473
412 2 23.8114 47.2675 4.31151
413 2 27.7929 47.1536 4.3028
414 2 31.6758 47.2928 4.19111
415 2 35.8865 47.4348 4.23396
416 2 39.8313 47.3735 4.23601
417 2 43.5548 47.345 4.14488
418 2 47.4708 47.3295 4.47716
419 2 51.4468 47.4296 4.34064
420 2 55.3523 47.3381 4.40554
421 2 0.0351284 51.123 4.36736
422 2 3.81645 51.0046 4.402
423 2 7.92986 51.1483 4.2058
424 2 11.9091 51.2528 4.21608
425 2 15.9979 50.9518 4.30034
426 2 19.8043 51.2185 4.39103
427 2 23.6701 51.1851 4.1345
428 2 27.7524 51.3168 4.46189
429 2 31.8394 51.0931 4.25347
430 2 35.6151 51.2731 4.22926
431 2 39.5703 51.3202 4.20272
432 2 43.5488 51.2325 4.3216
433 2 47.319 51.3997 4.37733
434 2 51.5537 51.3197 4.42534
435 2 55.3791 51.3146 4.45151
436 2 0.0971553 55.1678 4.41357
437 2 3.93207 55.1286 4.27256
438 2 7.90022 55.1855 4.18444
439 2 11.9521 55.0745 4.28756
440 2 15.9989 55.2075 4.22025
441 2 19.7784 55.1055 4.34789
442 2 23.9931 55.2782 4.21736
443 2 27.8255 55.2435 4.1219
444 2 31.6052 55.1746 4.17663
445 2 35.9603 55.2675 4.42965
446 2 39.7552 55.2236 4.18816
447 2 43.537 55.4265 4.31474
448 2 47.5718 55.4676 4.35023
449 2 51.2425 55.2997 4.45548
450 2 55.5026 55.264 4.2724
451 2 -0.123382 59.0891 8.19128
452 2 3.94247 59.1888 8.13435
453 2 8.21534 59.2256 8.24335
454 2 12.1263 59.0062 8.25365
455 2 15.9573 59.3132 8.41071
456 2 19.8272 59.2676 8.23854
457 2 23.8542 59.3641 8.3304
458 2 27.9294 59.0804 8.43416
459 2 31.6639 -0.39918 8.35311
460 2 35.752 59.1418 8.2641
461 2 39.5824 59.1295 8.45871
462 2 43.5328 59.1161 8.35671
463 2 47.5744 59.354 8.33948
464 2 51.3987 -0.0967742 8.27979
465 2 55.3596 59.1598 8.27418
466 2 0.00733705 3.77266 8.27126
467 2 3.87841 3.77046 8.43255
468 2 7.93016 3.64119 8.25415
469 2 11.9418 3.67664 8.42902
470 2 15.7222 3.76896 8.31136
471 2 19.799 3.8352 8.08609
472 2 23.8076 3.8448 8.32399
473 2 27.8383 3.72455 8.15597
474 2 31.7411 3.81378 8.3635
475 2 35.5983 3.90216 8.03025
476 2 39.4606 3.79826 8.17152
477 2 43.6925 3.97514 8.31221
478 2 47.6402 3.7933 8.37059
479 2 51.5536 3.68539 8.25656
480 2 55.5394 3.8491 8.27663
481 2 0.042082 7.75995 8.40667
482 2 4.08543 7.87355 8.31083
483 2 7.77575 7.47737 8.26471
484 2 11.8428 7.74209 8.05988
485 2 15.7459 7.60652 8.25487
486 2 19.8404 7.76438 8.39659
487 2 23.9234 7.8154 8.22991
488 2 27.7838 7.6424 8.18136
489 2 31.8023 7.5751 8.24052
490 2 35.6768 7.73744 8.31798
491 2 39.4876 7.83396 8.3842
492 2 43.5361 7.93157 8.51457
493 2 47.4796 7.85058 8.34933
494 2 51.5237 7.71415 8.34315
495 2 55.4775 7.70859 8.36368
496 2 0.0859707 11.6615 8.31975
497 2 3.98606 11.6267 8.46285
498 2 8.00168 11.765 8.24063
499 2 11.8277 11.6226 8.21909
500 2 15.9407 11.6731 8.34765
501 2 19.8681 11.5841 8.3179
502 2 23.9897 11.6482 8.24695
503 2 27.7735 11.6731 8.03588
504 2 31.7756 11.609 8.48481
505 2 35.6357 11.7891 8.34283
506 2 39.3805 11.8526 8.3411
507 2 43.4551 11.5579 8.29671
508 2 47.4763 11.6968 8.2867
509 2 51.5839 11.7768 8.44192
510 2 55.5508 11.6773 8.28978
511 2 0.111456 15.6281 8.41567
512 2 4.05923 15.5787 8.35403
513 2 7.98541 15.4896 8.23568
514 2 11.8355 15.5883 8.25795
515 2 15.8273 15.5171 8.40773
516 2 19.6656 15.6301 8.28729
517 2 23.7417 15.6114 8.15063
518 2 27.6838 15.5446 8.29939
519 2 31.4351 15.8293 8.27807
520 2 35.585 15.7807 8.29156
521 2 39.6941 15.6498 8.0902
522 2 43.6013 15.5719 8.39967
523 2 47.3444 15.6878 8.43858
524 2 51.5564 15.6582 8.158
525 2 55.4093 15.65 8.32885
526 2 -0.0668821 19.5406 8.24485
527 2 4.03362 19.4357 8.22088
528 2 7.93153 19.7177 8.46553
529 2 11.7703 19.555 8.2767
530 2 15.7216 19.4483 8.41101
531 2 19.8075 19.5616 8.31078
532 2 23.7275 19.399 8.26271
533 2 27.7527 19.6576 8.18432
534 2 31.6797 19.6422 8.46829
535 2 35.7469 19.5984 8.36935
536 2 39.6359 19.6563 8.00045
537 2 43.7103 19.7326 8.23689
538 2 47.6321 19.5742 8.46038
539 2 51.5139 19.4513 8.4498
540 2 55.4602 19.4507 8.40888
541 2 0.0216455 23.5531 8.47855
542 2 3.9051 23.5718 8.2508
543 2 8.11194 23.5977 8.30737
544 2 11.945 23.5527 8.28621
545 2 15.8671 23.5364 8.2002
546 2 19.6483 23.5247 8.18672
547 2 23.5126 23.468 8.12375
548 2 27.5372 23.3203 8.11208
549 2 31.621 23.5838 8.04903
550 2 35.6282 23.63 8.01832
551 2 39.6609 23.7897 8.13848
552 2 43.6896 23.6523 8.23742
553 2 47.4317 23.7672 8.32254
554 2 51.3653 23.4423 8.49167
555 2 55.5702 23.5404 8.37511
556 2 -0.240649 27.7101 8.3622
557 2 3.98148 27.4848 8.38589
558 2 8.02332 27.6212 8.21629
559 2 11.9965 27.6025 8.40146
560 2 15.9113 27.5667 8.32032
561 2 19.9988 27.5579 8.30529
562 2 23.8602 27.3424 8.13987
563 2 27.5293 27.4296 8.38508
564 2 31.4954 27.3674 8.14008
565 2 35.7433 27.5277 8.26975
566 2 39.6787 27.5959 8.29761
567 2 43.7805 27.5739 8.31911
568 2 47.6154 27.6858 8.14372
569 2 51.5825 27.5099 8.48886
570 2 55.3523 27.4722 8.39179
571 2 -0.0418072 31.7172 8.37607
572 2 3.7918 31.4883 8.32517
573 2 7.95965 31.3633 8.25719
574 2 11.8392 31.5137 8.28579
575 2 15.8454 31.477 8.43956
576 2 19.829 31.3994 8.34223
577 2 23.8916 31.4552 8.18024
578 2 27.7238 31.373 8.11354
579 2 31.6987 31.3095 8.30534
580 2 35.7292 31.2763 8.1364
581 2 39.631 31.5288 8.52933
582 2 43.6086 31.417 8.3624
583 2 47.5693 31.5527 8.33442
584 2 51.3434 31.3377 8.28449
585 2 55.2268 31.5676 8.38965
586 2 -0.0155455 35.3969 8.46436
587 2 4.12258 35.4692 8.40748
588 2 7.78521 35.2261 8.19625
589 2 11.8972 35.5765 8.38085
590 2 15.767 35.456 8.36898
591 2 19.8121 35.3779 8.30342
592 2 23.8793 35.3576 8.26212
593 2 27.6109 35.4499 8.23708
594 2 31.5662 35.4744 8.41666
595 2 35.6201 35.2809 8.28422
596 2 39.4819 35.4489 8.52095
597 2 43.4835 35.4323 8.32454
598 2 47.5896 35.4194 8.31831
599 2 51.2509 35.4493 8.45236
600 2 55.456 35.3487 8.46051
601 2 0.0992319 39.3746 8.4384
602 2 4.04033 39.3915 8.18458
603 2 8.00208 39.2925 8.17463
604 2 12.0731 39.2758 8.36651
605 2 15.9331 39.4979 8.36183
606 2 19.7413 39.3909 8.27451
607 2 23.5914 39.5721 8.42166
608 2 27.6718 39.3988 8.43812
609 2 31.6616 39.4091 8.47186
610 2 35.4683 39.3777 8.37492
611 2 39.3644 39.1314 8.09313
612 2 43.5016 39.3812 8.29286
613 2 47.4733 39.4109 8.36461
614 2 51.394 39.243 8.10665
615 2 55.5456 39.5078 8.33097
616 2 0.0306331 43.2267 8.31189
617 2 3.94668 43.4588 8.26393
618 2 7.89247 43.2126 8.24047
619 2 12.0272 43.2982 8.22519
620 2 15.8483 43.3593 8.09857
621 2 19.7954 43.3325 8.13097
622 2 23.7255 43.3412 8.20003
623 2 27.6272 43.2732 8.27547
624 2 31.7402 43.4027 8.27287
625 2 35.5529 43.3749 8.33387
626 2 39.5607 43.3086 8.46765
627 2 43.4059 43.3286 8.47209
628 2 47.5506 43.5103 8.33966
629 2 51.4209 43.3737 8.48233
630 2 55.3845 43.483 8.37392
631 2 0.106055 47.3602 8.2209
632 2 4.16889 47.2965 8.20421
633 2 7.90681 47.2693 8.33786
634 2 11.8379 47.3368 8.19612
635 2 15.8298 47.1474 8.17433
636 2 19.5989 47.2875 8.24601
637 2 23.4586 47.3393 8.32602
638 2 27.6729 47.2732 8.30658
639 2 31.703 47.1133 8.1169
640 2 35.5234 47.1208 8.17328
641 2 39.5834 47.2871 8.31076
642 2 43.5756 47.4727 8.32703
643 2 47.5114 47.489 8.34218
644 2 51.394 47.4082 8.30634
645 2 55.4878 47.4121 8.40703
646 2 0.126546 51.3348 8.35585
647 2 4.05578 51.2525 8.27765
648 2 8.11243 51.2173 8.18763
649 2 12.0704 51.4453 8.21072
650 2 15.9295 51.1369 8.29083
651 2 19.786 51.5002 8.32667
652 2 23.804 51.0702 8.20637
653 2 27.6688 51.137 8.4156
654 2 31.5536 51.3793 8.40195
655 2 35.3594 51.1322 8.25746
656 2 39.7527 51.3723 8.24965
657 2 43.6091 51.3803 8.29974
658 2 47.4196 51.357 8.27343
659 2 51.4686 51.4676 8.28054
660 2 55.5039 51.3685 8.42694
661 2 -0.167646 55.147 8.37497
662 2 4.17931 55.1684 8.2488
663 2 8.1178 55.0167 8.3355
664 2 11.9812 55.1904 8.2059
665 2 15.7421 55.2354 8.06615
666 2 19.8269 55.4931 8.24005
667 2 23.7836 55.0723 8.29109
668 2 27.8524 55.155 8.20278
669 2 31.6813 55.2632 8.138
670 2 35.6854 55.146 8.28643
671 2 39.5662 55.0948 8.38175
672 2 43.4635 55.0421 8.25943
673 2 47.4023 55.2789 8.26547
674 2 51.3648 55.2507 8.32537
675 2 55.2351 55.3009 8.45318
676 2 0.088127 58.9798 12.1524
677 2 4.15086 58.989 12.1217
678 2 7.98649 59.2553 12.2011
679 2 12.0248 59.225 12.2719
680 2 16.1237 59.293 12.28
681 2 20.059 59.2187 12.0066
682 2 23.7788 59.1613 12.2467
683 2 27.8298 59.1839 12.2189
684 2 31.8482 59.0838 12.1417
685 2 35.6931 59.2204 12.1988
686 2 39.4792 59.1092 12.3753
687 2 43.4945 59.2629 12.2459
688 2 47.4591 59.2627 12.3076
689 2 51.4071 59.1792 12.2176
690 2 55.2572 59.425 12.0817
691 2 0.294159 3.85054 12.0035
692 2 3.91202 3.79146 12.195
693 2 7.70423 3.6179 12.299
694 2 11.8839 3.81213 12.2831
695 2 15.6948 3.84472 12.3169
696 2 19.876 3.84915 12.2137
697 2 23.9376 3.83092 12.2283
698 2 27.8673 3.78727 12.3393
699 2 31.8176 3.62142 12.4138
700 2 35.5848 3.67462 12.2281
701 2 39.7324 3.72445 12.2998
702 2 43.3676 4.01281 12.2776
703 2 47.3916 3.79876 12.3226
704 2 51.5451 3.76773 12.3042
705 2 55.5069 3.63324 12.3658
706 2 0.0516796 7.68821 12.325
707 2 4.07813 7.98451 12.1666
708 2 8.08495 7.46678 12.2046
709 2 11.878 7.4498 12.0454
710 2 16.1199 7.72969 12.2248
711 2 20.0416 7.70901 12.2575
712 2 23.952 7.72928 12.2094
713 2 27.8353 7.72219 12.1953
714 2 31.665 7.54999 12.1331
715 2 35.6225 7.71089 12.324
716 2 39.4117 7.64213 12.3076
717 2 43.3919 7.90148 12.1168
718 2 47.4294 7.72952 12.3242
719 2 51.5211 7.60903 12.2202
720 2 55.4262 7.83669 12.2982
721 2 0.0185099 11.8845 12.3054
722 2 4.03646 11.9174 12.2476
723 2 8.02581 11.697 12.2665
724 2 11.9454 11.2956 12.1476
725 2 15.6908 11.7189 12.383
726 2 19.9799 11.747 12.3299
727 2 23.9682 11.704 12.3059
728 2 27.8322 11.3396 12.0188
729 2 31.5955 11.6904 12.3336
730 2 35.6065 11.8525 12.3439
731 2 39.5869 11.7959 12.3641
732 2 43.5434 11.705 12.2039
733 2 47.7101 11.7331 12.2326
734 2 51.4042 11.7565 12.3076
735 2 55.5034 11.8365 12.3944
736 2 0.0460476 15.6295 12.3707
737 2 4.10446 15.6257 12.4797
738 2 8.07451 15.6105 12.3271
739 2 11.8691 15.7901 12.2866
740 2 16.0431 15.4265 12.281
741 2 19.8485 15.6487 12.0642
742 2 23.6181 15.7254 12.3779
743 2 27.7036 15.3841 12.1914
744 2 31.5983 15.6397 12.2243
745 2 35.4863 15.7118 12.2707
746 2 39.5829 15.8002 12.0951
747 2 43.5277 15.6678 12.3213
748 2 47.5336 15.7897 12.5058
749 2 51.7385 15.5546 12.2545
750 2 55.551 15.7574 12.3382
751 2 -0.100973 19.6737 12.4053
752 2 4.09269 19.5074 12.3997
753 2 7.88245 19.8459 12.3597
754 2 11.8674 19.5966 12.2945
755 2 15.647 19.4269 12.2451
756 2 19.7312 19.3207 12.2164
757 2 23.8974 19.6466 12.1318
758 2 27.732 19.569 12.0974
759 2 31.7426 19.5816 12.286
760 2 35.7821 19.7561 12.149
761 2 39.8083 19.7253 12.0637
762 2 43.4523 19.5537 12.3927
763 2 47.6066 19.5522 12.4143
764 2 51.5704 19.5731 12.3867
765 2 55.441 19.623 12.4863
766 2 59.4852 23.4853 12.3092
767 2 4.03955 23.6884 12.2571
768 2 7.90825 23.7477 12.1972
769 2 11.841 23.5933 12.2877
770 2 15.8628 23.3873 12.2942
771 2 19.6297 23.368 12.2386
772 2 23.6107 23.2812 12.141
773 2 27.6955 23.5324 12.2418
774 2 31.8286 23.5074 12.1628
775 2 35.6835 23.5182 12.3042
776 2 39.3643 23.5888 12.3555
777 2 43.6679 23.5734 12.3425
778 2 47.5896 23.4894 12.5004
779 2 51.3278 23.5402 12.6253
780 2 55.5534 23.5683 12.27
781 2 -0.0459417 27.4987 12.3435
782 2 4.07287 27.7132 12.3074
783 2 8.05241 27.4708 12.2814
784 2 11.8864 27.5072 12.3174
785 2 15.9871 27.5524 12.347
786 2 19.9103 27.4947 12.35
787 2 23.9699 27.4219 12.4019
788 2 27.6745 27.4602 12.326
789 2 31.4778 27.1908 12.1321
790 2 35.5084 27.4898 12.3806
791 2 39.5047 27.4856 12.4174
792 2 43.628 27.464 12.3731
793 2 47.5903 27.4457 12.2041
794 2 51.3503 27.4261 12.356
795 2 55.583 27.5122 12.3673
796 2 0.027873 31.5261 12.2385
797 2 3.99464 31.4957 12.1203
798 2 7.97269 31.4714 12.3349
799 2 12.0197 31.3458 12.2492
800 2 15.977 31.6416 12.3248
801 2 20.1642 31.439 12.2412
802 2 23.9471 31.6137 12.2657
803 2 27.6196 31.4868 12.1905
804 2 31.5803 31.3443 12.1927
805 2 35.5521 31.2419 12.2546
806 2 39.5482 31.2132 12.3125
807 2 43.6231 31.5436 12.1866
808 2 47.5673 31.2823 12.2685
809 2 51.2757 31.226 12.429
810 2 55.1552 31.5377 12.2538
811 2 0.135387 35.4126 12.5104
812 2 4.05264 35.6614 12.3221
813 2 8.0334 35.3973 12.2937
814 2 12.1512 35.3979 12.2769
815 2 15.908 35.5567 12.4199
816 2 20.0137 35.5373 12.3079
817 2 23.8814 35.436 12.1771
818 2 27.7131 35.4669 12.1321
819 2 31.5672 35.3607 12.1943
820 2 35.5086 35.4372 12.3716
821 2 39.4421 35.3897 12.2198
822 2 43.4798 35.4896 12.2799
823 2 47.4912 35.4958 12.3519
824 2 51.6978 35.4911 12.249
825 2 55.4395 35.3444 12.3956
826 2 0.202207 39.3232 12.1267
827 2 4.02736 39.608 12.1519
828 2 8.12099 39.3826 12.1914
829 2 11.9961 39.2825 12.4405
830 2 16.1182 39.3074 12.2886
831 2 20.0022 39.4102 12.217
832 2 23.8144 39.417 12.3705
833 2 27.7237 39.4866 12.2627
834 2 31.5909 39.4646 12.3897
835 2 35.6326 39.3685 12.282
836 2 39.6609 39.4736 12.0812
837 2 43.5942 39.4702 12.1673
838 2 47.6938 39.4241 12.2863
839 2 51.6957 39.4594 12.1834
840 2 55.576 39.408 12.2915
841 2 0.189806 43.2662 12.3532
842 2 4.20004 43.4027 12.0645
843 2 8.10005 43.4463 12.0315
844 2 12.172 43.3218 12.2076
845 2 16.0094 43.4381 12.2377
846 2 19.9251 43.3653 12.3754
847 2 23.8638 43.4396 12.1851
848 2 27.8205 43.3923 12.1984
849 2 31.899 43.2693 12.2104
850 2 35.648 43.2776 12.1605
851 2 39.7931 43.3296 12.167
852 2 43.6071 43.3973 12.3636
853 2 47.4035 43.4286 12.4775
854 2 51.391 43.1923 12.2168
855 2 55.448 43.3566 12.3266
856 2 0.128797 47.3641 12.4284
857 2 3.98801 47.3425 12.3893
858 2 8.01377 47.4373 12.4204
859 2 12.0299 47.1336 12.2404
860 2 15.9616 47.3207 12.3012
861 2 19.954 47.4271 11.9896
862 2 23.8058 47.387 12.2571
863 2 27.9714 47.4211 12.2544
864 2 31.9241 47.3408 12.2417
865 2 36.0581 47.3816 12.2909
866 2 39.6088 47.3633 12.2911
867 2 43.3481 47.2782 12.2249
868 2 47.4353 47.4902 12.3301
869 2 51.5744 47.3155 12.1579
870 2 55.3033 47.3397 12.2531
871 2 -0.0205835 51.306 12.3068
872 2 4.07685 51.4032 12.2336
873 2 8.19347 51.1935 12.3821
874 2 12.0868 51.1287 12.1594
875 2 15.9411 51.1084 12.1527
876 2 19.9778 51.392 12.0776
877 2 23.9505 51.2222 12.2895
878 2 27.884 51.3439 12.1604
879 2 31.7528 51.3558 12.1589
880 2 35.6279 51.0928 12.203
881 2 39.7857 51.2959 12.2912
882 2 43.4915 51.4448 12.2641
883 2 47.4692 51.3153 12.4628
884 2 51.4478 51.1863 12.4497
885 2 55.5175 51.2232 12.2878
886 2 0.260611 55.3508 12.3522
887 2 4.16807 55.245 12.1452
888 2 8.07518 55.2782 12.2911
889 2 11.9802 55.3072 12.2847
890 2 16.0041 55.1331 12.1805
891 2 19.9102 55.3554 12.4218
892 2 23.8675 55.0941 12.3001
893 2 27.6019 55.3549 12.1628
894 2 31.618 55.1154 12.3666
895 2 35.5445 55.0545 12.3025
896 2 39.3983 55.2501 12.3001
897 2 43.3924 55.136 12.2033
898 2 47.6193 55.5137 12.3359
899 2 51.4046 55.2579 12.3657
900 2 55.3879 55.2674 12.1827
901 2 0.0816886 59.2601 16.0451
902 2 4.06113 59.2253 16.2237
903 2 8.08281 59.2873 16.0672
904 2 11.984 59.1603 16.1834
905 2 15.998 59.2861 16.0901
906 2 19.8644 59.24 16.0962
907 2 24.0177 59.1916 16.1155
908 2 27.7747 59.1386 16.2694
909 2 31.706 -0.199945 16.2267
910 2 35.8665 59.3684 16.0983
911 2 39.6419 59.0896 16.3122
912 2 43.7294 59.1017 16.0894
913 2 47.6068 59.2902 16.3398
914 2 51.5935 59.2476 16.2592
915 2 55.7292 59.1222 16.171
916 2 59.3422 3.4796 16.2713
917 2 4.07967 3.6689 16.1774
918 2 8.04133 3.78092 16.0757
919 2 12.0078 3.70867 16.2773
920 2 16.0054 3.66832 16.2181
921 2 20.0562 3.78448 16.2816
922 2 23.9321 3.67504 16.2719
923 2 27.8868 3.7093 16.2166
924 2 31.9105 3.83283 16.2313
925 2 35.7646 3.74149 16.2015
926 2 39.6301 3.94854 16.2207
927 2 43.4608 4.08666 16.1459
928 2 47.4915 3.93003 16.3123
929 2 51.6293 3.68873 16.2117
930 2 55.5293 3.64437 16.1631
931 2 0.165149 7.77441 16.06
932 2 4.08394 7.71709 16.2182
933 2 8.03138 7.8749 16.3888
934 2 11.9489 7.94367 16.2952
935 2 16.0681 7.65539 16.2677
936 2 20.1097 7.99848 16.3905
937 2 23.7798 7.65671 16.3624
938 2 27.9024 7.63571 16.3052
939 2 31.5909 7.72222 16.2328
940 2 35.7373 7.84004 16.2225
941 2 39.5072 7.9972 16.3924
942 2 43.5742 7.90238 16.38
943 2 47.5933 7.65297 16.3037
944 2 51.6151 7.75558 16.1549
945 2 55.5219 7.68277 16.1129
946 2 -0.0854906 11.5052 16.1068
947 2 4.02161 11.5091 16.2875
948 2 7.97577 11.7123 16.0921
949 2 11.8521 11.5711 16.2445
950 2 15.7395 11.4745 16.2629
951 2 19.773 11.671 16.1786
952 2 23.5627 11.6867 16.2887
953 2 27.7796 11.8583 16.398
954 2 31.7743 11.8006 16.3363
955 2 35.5066 11.6612 16.3283
956 2 39.5824 11.7435 16.243
957 2 43.4864 11.8064 15.9986
958 2 47.6553 11.6052 16.2435
959 2 51.5989 11.545 16.0937
960 2 55.5094 11.6533 16.2541
961 2 -0.0421594 15.6148 16.3931
962 2 3.9616 15.7489 16.4034
963 2 8.21418 15.6489 16.2671
964 2 11.8709 15.5306 16.2576
965 2 16.1195 15.6452 16.1076
966 2 19.8757 15.4944 16.1716
967 2 23.8536 15.6476 16.4044
968 2 27.8648 15.5409 16.365
969 2 31.8358 15.8228 16.3235
970 2 35.8981 15.7014 16.0864
971 2 39.6612 15.6362 16.3443
972 2 43.3522 15.6105 16.2807
973 2 47.2942 15.4809 16.3605
974 2 51.403 15.5762 16.269
975 2 55.4258 15.6457 16.3184
976 2 59.5041 19.6445 16.3017
977 2 4.04878 19.676 16.4289
978 2 8.19416 19.6735 16.4475
979 2 12.1081 19.711 16.4431
980 2 16.0835 19.6277 16.1933
981 2 20.0146 19.6547 16.3742
982 2 23.8719 19.4012 16.0375
983 2 27.8189 19.7522 16.2952
984 2 31.5534 19.6539 16.2184
985 2 35.5491 19.6837 16.1145
986 2 39.5731 19.7181 16.2198
987 2 43.5402 19.6461 16.1549
988 2 47.4583 19.4287 16.3812
989 2 51.529 19.5445 16.4158
990 2 55.2742 19.6535 16.303
991 2 0.164494 23.712 16.4129
992 2 4.05455 23.5508 16.1815
993 2 7.9284 23.5631 16.445