ITEM: TIMESTEP
39700
ITEM: NUMBER OF ATOMS
28125
ITEM: BOX BOUNDS xy xz yz pp pp pp
0.0000000000000000e+00 5.9369999999999997e+01 0.0000000000000000e+00
0.0000000000000000e+00 5.9369999999999997e+01 0.0000000000000000e+00
9.8339426437661359e-02 9.9401660573562935e+01 0.0000000000000000e+00
ITEM: ATOMS id type x y z
1 2 59.2839 59.1556 0.280361
2 2 3.8404 59.3541 0.46931
3 2 7.74321 59.0677 0.33708
4 2 11.7421 59.2306 0.496947
5 2 15.8038 58.9783 0.165928
6 2 19.6843 58.9403 0.177237
7 2 23.7946 59.2528 0.545189
8 2 27.6713 59.0688 0.41684
9 2 31.4709 59.1022 0.332092
10 2 35.5667 59.1859 0.3401
11 2 39.641 59.1016 0.415424
12 2 43.2835 59.1053 0.0909964
13 2 47.5536 59.0071 0.154282
14 2 51.3749 -0.257048 0.277713
15 2 55.2797 59.0368 0.290304
16 2 59.1666 3.86092 0.240001
17 2 3.86762 3.70685 0.346952
18 2 7.87019 3.88316 0.528332
19 2 11.7725 3.77087 0.407755
20 2 15.7276 3.82227 0.349336
21 2 19.7012 3.62063 0.414097
22 2 23.6389 3.48997 0.0849822
23 2 27.7773 3.70748 0.371452
24 2 31.6843 3.6834 0.253708
25 2 35.777 3.81273 0.500597
26 2 39.7375 3.80013 0.347436
27 2 43.4194 3.69214 0.344155
28 2 47.2498 3.57914 0.37895
29 2 51.4261 3.98265 0.547013
30 2 55.4346 3.76177 0.354184
31 2 59.3586 7.66478 0.398245
32 2 3.78965 7.78105 0.375189
33 2 7.8604 7.57791 0.381048
34 2 11.8928 7.84953 0.312752
35 2 15.9649 7.87044 0.501302
36 2 19.7844 7.66458 0.294319
37 2 23.8268 7.46197 0.383216
38 2 27.6409 7.51551 0.38985
39 2 31.7544 7.70261 0.16453
40 2 35.6456 7.76134 0.573712
41 2 39.5454 7.68085 0.350361
42 2 43.6303 7.70901 0.290221
43 2 47.5797 7.96029 0.520082
44 2 51.4357 7.7582 0.416118
45 2 55.3545 7.74656 0.381566
46 2 59.2749 11.6464 0.525046
47 2 3.88921 11.8273 0.400953
48 2 7.92724 11.6183 0.245252
49 2 11.7761 11.853 0.198522
50 2 15.9301 11.68 0.575588
51 2 19.9303 11.4322 0.243695
52 2 23.8689 11.6994 0.487351
53 2 27.4884 11.6642 0.394021
54 2 31.5561 11.5562 0.156044
55 2 35.609 11.73 0.565131
56 2 39.5194 11.7364 0.389014
57 2 43.4461 11.6031 0.420327
58 2 47.3072 11.6716 0.480407
59 2 51.3826 11.7874 0.262107
60 2 55.3202 11.6973 0.470288
61 2 -0.133866 15.5457 0.295701
62 2 3.78221 15.7159 0.354622
63 2 7.7512 15.6553 0.363952
64 2 11.7945 15.6916 0.335498
65 2 15.8421 15.7016 0.433196
66 2 19.7763 15.5831 0.235664
67 2 23.8978 15.6895 0.0311819
68 2 27.8589 15.6376 0.378477
69 2 31.601 15.7327 0.448664
70 2 35.7083 15.5305 0.265792
71 2 39.5489 15.876 0.433652
72 2 43.5252 15.6373 0.334442
73 2 47.4855 15.7739 0.398821
74 2 51.1475 15.788 0.34311
75 2 55.3297 15.4955 0.236688
76 2 59.2015 19.497 0.392074
77 2 3.92281 19.4 0.264791
78 2 7.86199 19.5621 0.273437
79 2 11.8486 19.6604 0.378965
80 2 15.7324 19.5166 0.384221
81 2 19.8637 19.6701 0.237956
82 2 23.7302 19.5835 0.340082
83 2 27.5791 19.6138 0.430131
84 2 31.631 19.4633 0.309713
85 2 35.6476 19.6834 0.363737
86 2 39.5311 19.7223 0.117881
87 2 43.6311 19.5686 0.411966
88 2 47.5273 19.7539 0.368272
89 2 51.4464 19.7384 0.410283
90 2 55.3974 19.637 0.208236
91 2 59.2782 23.5277 0.263867
92 2 3.95336 23.5514 0.435462
93 2 8.01096 23.5647 0.313133
94 2 11.7547 23.7027 0.463978
95 2 15.9423 23.4912 0.379897
96 2 19.8778 23.5276 0.25003
97 2 23.84 23.4887 0.264096
98 2 27.8274 23.5783 0.479419
99 2 31.4319 23.569 0.51428
100 2 35.4999 23.6051 0.273005
101 2 39.6278 23.7047 0.257832
102 2 43.4185 23.7395 0.569722
103 2 47.335 23.6381 0.380188
104 2 51.1803 23.4944 0.261493
105 2 55.2607 23.6134 0.324092
106 2 59.2379 27.7049 0.428663
107 2 3.95255 27.4291 0.486715
108 2 7.88897 27.5962 0.276948
109 2 11.6486 27.6732 0.355316
110 2 15.8518 27.7251 0.447227
111 2 19.7782 27.5299 0.304344
112 2 23.6888 27.5816 0.380337
113 2 27.7758 27.501 0.357533
114 2 31.6712 27.5267 0.254627
115 2 35.5522 27.3556 0.308448
116 2 39.3674 27.5457 0.335233
117 2 43.5391 27.6834 0.566731
118 2 47.4975 27.5374 0.351549
119 2 51.2973 27.4859 0.487216
120 2 55.3463 27.6701 0.429398
121 2 0.0801779 31.4972 0.357665
122 2 3.97408 31.2926 0.31658
123 2 7.87112 31.5725 0.345458
124 2 11.8079 31.5404 0.403094
125 2 15.8152 31.851 0.415487
126 2 19.5583 31.5434 0.467514
127 2 23.4613 31.4558 0.18991
128 2 27.6378 31.4359 0.34558
129 2 31.6865 31.3731 0.284673
130 2 35.6168 31.3971 0.435172
131 2 39.5134 31.339 0.32123
132 2 43.4842 31.3192 0.335153
133 2 47.2698 31.3184 0.296065
134 2 51.3246 31.3721 0.416301
135 2 55.2047 31.5643 0.419357
136 2 59.3736 35.4567 0.449282
137 2 3.86553 35.3489 0.553752
138 2 7.78482 35.5464 0.403308
139 2 11.8703 35.3983 0.392231
140 2 15.729 35.5246 0.305484
141 2 19.6695 35.4318 0.533872
142 2 23.5105 35.5041 0.232071
143 2 27.5487 35.5016 0.283407
144 2 31.4624 35.4762 0.578765
145 2 35.4732 35.5262 0.516527
146 2 39.3728 35.4824 0.265299
147 2 43.4504 35.6229 0.36238
148 2 47.3294 35.3463 0.472891
149 2 51.2048 35.4826 0.303792
150 2 55.23 35.5378 0.440916
151 2 59.3174 39.4645 0.40983
152 2 3.94636 39.4311 0.430941
153 2 7.8101 39.5649 0.568171
154 2 11.839 39.3919 0.410542
155 2 15.6389 39.3479 0.536351
156 2 19.6645 39.5807 0.49043
157 2 23.74 39.6133 0.303135
158 2 27.7129 39.339 0.34511
159 2 31.4167 39.3618 0.3366
160 2 35.3211 39.4916 0.451619
161 2 39.4427 39.4523 0.372014
162 2 43.6754 39.5482 0.33912
163 2 47.5597 39.4385 0.378747
164 2 51.6772 39.3695 0.306184
165 2 55.4449 39.4985 0.503753
166 2 -0.143723 43.2625 0.312673
167 2 3.97365 43.4758 0.360279
168 2 7.88872 43.521 0.471097
169 2 11.7451 43.5079 0.317144
170 2 15.779 43.3327 0.407207
171 2 19.7852 43.5203 0.454528
172 2 23.6323 43.2763 0.357797
173 2 27.6251 43.3977 0.326222
174 2 31.6038 43.4195 0.439104
175 2 35.4446 43.4765 0.389613
176 2 39.4768 43.4193 99.7499
177 2 43.532 43.463 0.419252
178 2 47.4503 43.2815 0.318255
179 2 51.3516 43.4151 0.451649
180 2 55.3698 43.1831 0.280477
181 2 -0.169576 47.141 0.250193
182 2 3.70573 47.4495 0.270156
183 2 7.64415 47.4222 0.602731
184 2 11.7839 47.4185 0.497069
185 2 15.8152 47.3516 0.428761
186 2 19.6977 47.3539 0.36417
187 2 23.623 47.5081 0.464257
188 2 27.6478 47.3617 0.454625
189 2 31.8389 47.3288 0.416842
190 2 35.7551 47.279 0.474033
191 2 39.5524 47.3345 0.442798
192 2 43.366 47.2911 0.420562
193 2 47.4917 47.3002 0.508616
194 2 51.3905 47.3989 0.465983
195 2 55.3605 47.3466 0.327401
196 2 -0.128252 51.3059 0.460458
197 2 3.80267 51.5141 0.406067
198 2 7.80146 51.3147 0.498045
199 2 11.7136 51.162 0.484119
200 2 15.679 51.2384 0.467033
201 2 19.5485 51.3467 0.632567
202 2 23.5923 51.2038 0.483576
203 2 27.7461 51.4051 0.371432
204 2 31.6917 51.2638 0.416211
205 2 35.5134 51.3226 0.23956
206 2 39.6622 51.3275 0.193751
207 2 43.6282 51.4025 0.480729
208 2 47.4279 51.3507 0.426491
209 2 51.4521 51.4118 0.61804
210 2 55.4232 51.5091 0.254464
211 2 59.2549 55.3413 0.428943
212 2 3.91553 55.207 0.39131
213 2 7.69245 55.2578 0.416621
214 2 11.8217 55.1062 0.442964
215 2 15.6627 55.1798 0.394488
216 2 19.7876 55.1337 0.397264
217 2 23.5907 55.2183 0.398101
218 2 27.7398 55.2537 0.234303
219 2 31.7451 55.3161 0.326802
220 2 35.5941 55.2226 0.275801
221 2 39.4681 55.2224 0.307974
222 2 43.5935 55.2321 0.324994
223 2 47.555 55.2051 0.584686
224 2 51.31 55.31 0.415455
225 2 55.3329 55.2693 0.521105
226 2 -0.104192 59.282 4.44659
227 2 4.05712 59.4011 4.59342
228 2 8.0067 59.2288 4.40928
229 2 11.7132 59.3424 4.47225
230 2 15.8086 59.0964 4.1282
231 2 19.9128 59.0372 4.26352
232 2 23.917 59.1266 4.42575
233 2 27.7411 59.2382 4.33111
234 2 31.8495 59.2436 4.17578
235 2 35.6701 59.1574 4.3201
236 2 39.5433 58.9508 4.32021
237 2 43.4823 59.0827 4.40114
238 2 47.3218 59.2384 4.33154
239 2 51.4248 59.3443 4.4721
240 2 55.3762 59.1207 4.45327
241 2 59.3295 3.71952 4.27096
242 2 3.99272 3.8526 4.08722
243 2 7.81729 3.85054 4.28603
244 2 11.7795 3.79825 4.46365
245 2 15.7575 3.75561 4.38859
246 2 19.6222 3.567 4.24536
247 2 23.6857 3.69134 4.40822
248 2 27.8015 3.63047 4.2097
249 2 31.6162 3.58904 4.36625
250 2 35.6465 3.53934 4.23078
251 2 39.7293 3.7207 4.45661
252 2 43.5554 3.58024 4.25747
253 2 47.3989 3.70028 4.32383
254 2 51.3467 3.83256 4.37285
255 2 55.5491 3.63277 4.24711
256 2 59.1749 7.75311 4.27269
257 2 3.804 7.77187 4.49406
258 2 7.87396 7.84121 4.24304
259 2 11.9516 7.89499 4.16287
260 2 15.9636 7.65842 4.19346
261 2 19.8926 7.56121 4.24054
262 2 23.6232 7.45264 4.2232
263 2 27.7793 7.57723 4.26244
264 2 31.7413 7.59348 4.23778
265 2 35.6501 7.52171 4.26224
266 2 39.6831 7.6456 4.25868
267 2 43.4619 7.66203 4.4392
268 2 47.5192 7.76604 4.43853
269 2 51.3347 7.57829 4.41386
270 2 55.2941 7.7097 4.42164
271 2 59.1617 11.6239 4.41531
272 2 4.02939 11.8624 4.23101
273 2 7.85816 11.6153 3.94658
274 2 11.7719 11.7437 4.34878
275 2 16.0345 11.6525 4.26174
276 2 19.8448 11.6715 4.25563
277 2 23.5848 11.4462 4.35426
278 2 27.4919 11.5724 4.26364
279 2 31.6491 11.6046 4.26703
280 2 35.4869 11.6326 4.59279
281 2 39.7791 11.851 4.29891
282 2 43.3817 11.5494 4.41093
283 2 47.5536 11.6927 4.3599
284 2 51.4281 11.6513 4.3095
285 2 55.2521 11.8069 4.32678
286 2 59.1912 15.5896 4.43554
287 2 4.03182 15.7291 4.32414
288 2 7.86122 15.5115 4.1717
289 2 11.9335 15.5848 4.24406
290 2 16.0788 15.6609 4.27401
291 2 19.8911 15.654 4.17509
292 2 23.6132 15.686 4.05506
293 2 27.7074 15.6102 4.17414
294 2 31.6846 15.5681 4.26752
295 2 35.5441 15.3227 4.25157
296 2 39.6967 15.832 4.27719
297 2 43.4985 15.5554 4.48791
298 2 47.2479 15.578 4.4674
299 2 51.3229 15.7879 4.17976
300 2 55.4745 15.5503 4.27694
301 2 59.3371 19.7035 4.15562
302 2 3.9682 19.7077 4.43968
303 2 7.96694 19.4964 4.26565
304 2 11.8887 19.5693 4.50846
305 2 15.9544 19.7742 4.28761
306 2 19.9803 19.6139 4.2377
307 2 23.9126 19.5433 4.29169
308 2 27.5006 19.4734 4.34076
309 2 31.6333 19.2737 4.35104
310 2 35.5913 19.4963 4.44076
311 2 39.3456 19.5814 4.42425
312 2 43.3461 19.4676 4.44106
313 2 47.3677 19.5385 4.44871
314 2 51.2866 19.6373 4.47397
315 2 55.3243 19.6695 4.37207
316 2 59.4774 23.4767 4.30009
317 2 3.95425 23.6656 4.26931
318 2 7.83941 23.5124 4.32334
319 2 11.9064 23.5379 4.23791
320 2 15.845 23.5863 4.14877
321 2 19.927 23.714 4.26829
322 2 24.0114 23.6944 4.20559
323 2 27.8438 23.4781 4.1989
324 2 31.6382 23.4675 4.30942
325 2 35.5112 23.5173 4.24494
326 2 39.4729 23.3849 4.41604
327 2 43.4667 23.4732 4.4507
328 2 47.4336 23.5589 4.32846
329 2 51.4604 23.5062 4.45771
330 2 55.4028 23.6243 4.20878
331 2 59.4283 27.4825 4.42526
332 2 3.98005 27.5055 4.54761
333 2 7.87696 27.5523 4.49506
334 2 11.8086 27.3489 4.3303
335 2 15.7876 27.4556 4.2407
336 2 19.7986 27.5914 4.22282
337 2 23.7512 27.5523 4.36806
338 2 27.621 27.3803 4.33796
339 2 31.602 27.4719 4.43027
340 2 35.5021 27.5105 4.27497
341 2 39.4799 27.3213 4.31465
342 2 43.3748 27.4937 4.44841
343 2 47.4274 27.4868 4.40149
344 2 51.4755 27.6258 4.40363
345 2 55.4493 27.4498 4.43187
346 2 0.0979039 31.4147 4.30605
347 2 3.96808 31.4367 4.41675
348 2 8.06628 31.5622 4.41964
349 2 12.0486 31.7242 4.15537
350 2 15.7549 31.4409 4.43774
351 2 19.8121 31.5854 4.39449
352 2 23.6001 31.509 4.27982
353 2 27.7764 31.475 4.31394
354 2 31.4574 31.4645 4.35887
355 2 35.4057 31.381 4.25556
356 2 39.6371 31.3734 4.35516
357 2 43.394 31.4368 4.48504
358 2 47.3796 31.4517 4.49055
359 2 51.4878 31.4097 4.31429
360 2 55.3499 31.3046 4.37897
361 2 -0.214827 35.4559 4.33581
362 2 3.79382 35.5765 4.44543
363 2 7.85658 35.5039 4.51026
364 2 11.8429 35.5369 4.40318
365 2 15.9895 35.5948 4.32245
366 2 19.9352 35.6175 4.30153
367 2 23.9624 35.4794 4.12635
368 2 27.6432 35.4076 4.41512
369 2 31.8253 35.4972 4.28655
370 2 35.6779 35.3367 4.28149
371 2 39.6147 35.3484 4.21944
372 2 43.6766 35.3124 4.33051
373 2 47.6029 35.2792 4.2193
374 2 51.4849 35.4781 4.34493
375 2 55.4701 35.4607 4.43637
376 2 -0.0263012 39.5432 4.5853
377 2 4.04462 39.2964 4.30912
378 2 7.97133 39.6648 4.36488
379 2 11.7537 39.5115 4.42278
380 2 15.7249 39.4099 4.2722
381 2 19.9061 39.4045 4.39065
382 2 23.7159 39.4072 4.21178
383 2 27.7209 39.428 4.35622
384 2 31.7513 39.6667 4.23567
385 2 35.6035 39.5272 4.40609
386 2 39.8184 39.468 4.33165
387 2 43.4365 39.3356 4.28393
388 2 47.3634 39.2958 4.52272
389 2 51.2476 39.3876 4.14876
390 2 55.1109 39.3894 4.38322
391 2 -0.024873 43.3236 4.273
392 2 3.84988 43.4241 4.3706
393 2 7.9472 43.3043 4.57462
394 2 11.731 43.4072 4.32003
395 2 15.888 43.6844 4.31764
396 2 19.918 43.429 4.41304
397 2 23.9303 43.3754 4.29769
398 2 27.7452 43.3562 4.4332
399 2 31.7298 43.5277 4.3282
400 2 35.4675 43.4563 4.4362
401 2 39.5774 43.4259 4.27584
402 2 43.5729 43.2818 4.40517
403 2 47.3611 43.4235 4.41701
404 2 51.451 43.3455 4.42349
405 2 55.2227 43.1175 4.45685
406 2 59.2084 47.1623 4.29971
407 2 3.84913 47.3014 4.18207
408 2 7.80884 47.2509 4.3888
409 2 11.6266 47.288 4.66471
410 2 15.6947 47.4729 4.45174
411 2 19.9027 47.2571 4.21873
412 2 23.7668 47.3478 4.37031
413 2 27.8692 47.2122 4.2722
414 2 31.6363 47.3732 4.3928
415 2 35.8897 47.417 4.36776
416 2 39.7641 47.4332 4.31469
417 2 43.4048 47.366 4.2372
418 2 47.3077 47.255 4.36774
419 2 51.4307 47.3063 4.32287
420 2 55.5617 47.2598 4.35494
421 2 -0.0846423 51.28 4.49229
422 2 3.81892 51.0449 4.30872
423 2 7.74772 51.2255 4.39176
424 2 11.7255 51.2761 4.55668
425 2 15.7935 51.2073 4.46602
426 2 19.7907 51.174 4.51244
427 2 23.7103 51.4081 4.36226
428 2 27.9188 51.2925 4.4553
429 2 31.8742 51.2725 4.34522
430 2 35.5332 51.5527 4.56731
431 2 39.4037 51.1831 4.38658
432 2 43.3904 51.3049 4.30659
433 2 47.3404 51.3054 4.35628
434 2 51.5463 51.2983 4.35607
435 2 55.5263 51.2782 4.36227
436 2 0.0600389 55.2994 4.49339
437 2 4.0239 55.2957 4.39764
438 2 7.84399 55.4066 4.37397
439 2 11.8542 55.2598 4.49672
440 2 15.7079 55.1693 4.2287
441 2 19.7394 55.1307 4.33969
442 2 24.0001 55.289 4.37635
443 2 27.8246 55.4143 4.23291
444 2 31.8023 55.2826 4.27085
445 2 35.7617 55.3895 4.46775
446 2 39.525 55.2026 4.09632
447 2 43.4678 55.3124 4.41232
448 2 47.4602 55.3115 4.40832
449 2 51.2593 55.2066 4.38253
450 2 55.4425 55.3375 4.24893
451 2 -0.209544 59.2254 8.41491
452 2 3.78713 59.176 8.3925
453 2 7.90781 59.1601 8.28347
454 2 11.7984 59.069 8.2872
455 2 15.9202 59.0111 8.3729
456 2 19.812 59.1344 8.07559
457 2 23.9648 59.3057 8.3242
458 2 27.9423 59.2623 8.43129
459 2 31.7161 -0.115883 8.30411
460 2 35.6037 59.3847 8.35124
461 2 39.768 59.2101 8.43709
462 2 43.7969 59.0373 8.277
463 2 47.6124 59.2212 8.27629
464 2 51.6116 -0.142475 8.18915
465 2 55.319 59.2951 8.36548
466 2 -0.0113881 3.78007 8.41496
467 2 3.82307 3.70981 8.39614
468 2 8.01469 3.74309 8.24342
469 2 11.9284 3.75117 8.39399
470 2 15.8023 3.71597 8.23149
471 2 19.6847 3.6473 8.23506
472 2 23.6587 3.80129 8.45811
473 2 27.8099 3.85767 8.21643
474 2 31.6728 3.80428 8.39954
475 2 35.6408 3.92647 8.10817
476 2 39.654 3.68841 8.31209
477 2 43.6869 3.73848 8.23319
478 2 47.6256 3.80374 8.41603
479 2 51.5658 3.73727 8.36958
480 2 55.5116 3.92425 8.45656
481 2 -0.0469883 7.65404 8.17055
482 2 4.12141 7.73365 8.12296
483 2 7.8835 7.6254 8.2954
484 2 11.7953 7.98531 8.08065
485 2 15.7826 7.77092 8.29053
486 2 19.6495 7.72078 8.49342
487 2 23.6858 7.59238 8.34405
488 2 27.7828 7.58503 8.04758
489 2 31.6853 7.78654 8.37657
490 2 35.777 7.68671 8.29176
491 2 39.7115 7.67756 8.33229
492 2 43.5391 7.72103 8.38096
493 2 47.6801 7.62541 8.45211
494 2 51.585 7.63743 8.2683
495 2 55.342 7.67825 8.39272
496 2 -0.0777997 11.6602 8.11512
497 2 3.88534 11.4547 8.31429
498 2 7.99219 11.6919 8.21893
499 2 12.0028 11.7246 8.20738
500 2 16.0223 11.71 8.34372
501 2 19.9562 11.5781 8.28941
502 2 23.8053 11.6639 8.23868
503 2 27.77 11.6481 8.07082
504 2 31.7881 11.673 8.4549
505 2 35.808 11.5522 8.24752
506 2 39.4363 11.6806 8.43031
507 2 43.52 11.5583 8.42716
508 2 47.5571 11.672 8.33215
509 2 51.5115 11.6458 8.43422
510 2 55.4795 11.5946 8.18967
511 2 0.104443 15.6755 8.33261
512 2 3.89655 15.839 8.31085
513 2 7.96873 15.5527 8.17482
514 2 12.0164 15.7064 8.23102
515 2 16.0476 15.5214 8.19249
516 2 19.9058 15.5384 8.03819
517 2 23.9212 15.5992 8.09609
518 2 27.7346 15.6305 8.27046
519 2 31.6519 15.603 8.00144
520 2 35.6309 15.5497 8.26146
521 2 39.6356 15.6777 8.27289
522 2 43.5983 15.5307 8.56626
523 2 47.3206 15.4775 8.35203
524 2 51.2566 15.4896 8.207
525 2 55.2849 15.4708 8.20784
526 2 0.029635 19.4056 8.34576
527 2 3.96224 19.3836 8.28909
528 2 7.98451 19.6177 8.3674
529 2 12.0329 19.608 8.28069
530 2 15.931 19.7315 8.22506
531 2 20.0627 19.6698 8.1545
532 2 23.7203 19.5374 8.27021
533 2 27.8806 19.5704 8.28406
534 2 31.631 19.4603 8.39075
535 2 35.6941 19.6394 8.33771
536 2 39.5773 19.761 8.41103
537 2 43.594 19.7536 8.51981
538 2 47.6735 19.5991 8.29148
539 2 51.5094 19.4143 8.34304
540 2 55.3416 19.4297 8.30974
541 2 0.216329 23.3786 8.28961
542 2 3.85576 23.4537 8.47892
543 2 7.94278 23.5326 8.24689
544 2 11.9282 23.4552 8.04286
545 2 16.0636 23.5005 8.29033
546 2 19.9305 23.6071 8.24115
547 2 23.7428 23.6733 8.33331
548 2 27.6768 23.4249 8.30891
549 2 31.6613 23.6022 8.13657
550 2 35.6394 23.5409 8.23285
551 2 39.5463 23.7717 8.29684
552 2 43.5182 23.4407 8.45301
553 2 47.419 23.6553 8.31887
554 2 51.5144 23.4035 8.3393
555 2 55.5519 23.4531 8.23481
556 2 -0.0123776 27.7163 8.33921
557 2 4.03658 27.4497 8.39783
558 2 8.13389 27.563 8.26512
559 2 11.9805 27.4538 8.22616
560 2 15.8399 27.3828 8.28073
561 2 19.9984 27.5348 8.36052
562 2 23.9388 27.4193 8.32968
563 2 27.6951 27.5457 8.51255
564 2 31.74 27.4721 8.34326
565 2 35.4749 27.4288 8.44798
566 2 39.5003 27.4011 8.30738
567 2 43.4678 27.4934 8.27998
568 2 47.3322 27.5179 8.14053
569 2 51.5358 27.2107 8.24464
570 2 55.4554 27.3673 8.21889
571 2 0.0106255 31.5521 8.19123
572 2 3.93342 31.4161 8.38858
573 2 8.06407 31.6153 8.26754
574 2 12.0036 31.6258 8.12493
575 2 15.8195 31.4409 8.24492
576 2 19.7532 31.2986 8.33961
577 2 23.7544 31.4523 8.31744
578 2 27.8768 31.6008 8.19498
579 2 31.7775 31.5391 8.37123
580 2 35.5769 31.232 8.27564
581 2 39.5644 31.4045 8.48595
582 2 43.3916 31.4422 8.37995
583 2 47.3439 31.6147 8.23515
584 2 51.4774 31.3786 8.31402
585 2 55.3548 31.5322 8.18527
586 2 0.0399495 35.3962 8.19411
587 2 4.0668 35.3824 8.35433
588 2 7.92813 35.358 8.38008
589 2 11.9826 35.6634 8.29242
590 2 15.986 35.3253 8.03259
591 2 20.011 35.4035 8.22429
592 2 24.0174 35.5731 8.21047
593 2 27.9588 35.4596 8.06243
594 2 31.8562 35.3847 8.32608
595 2 35.7326 35.3485 8.28704
596 2 39.5176 35.4702 8.44828
597 2 43.4644 35.5019 8.40265
598 2 47.5194 35.2341 8.48717
599 2 51.4468 35.3029 8.40999
600 2 55.5386 35.2669 8.25514
601 2 0.0125274 39.2785 8.273
602 2 4.02372 39.2251 8.17962
603 2 7.97327 39.3591 8.432
604 2 12.0857 39.5096 8.36077
605 2 15.9109 39.6285 8.40534
606 2 19.9266 39.5129 8.42084
607 2 23.8258 39.5989 8.25562
608 2 27.806 39.4268 8.2453
609 2 31.8483 39.2601 8.39398
610 2 35.6777 39.3863 8.20629
611 2 39.6045 39.2999 7.99031
612 2 43.7567 39.3701 8.34075
613 2 47.5126 39.2232 8.27704
614 2 51.418 39.1277 8.20947
615 2 55.3854 39.4216 8.25787
616 2 -0.178447 43.2071 8.40519
617 2 3.75743 43.4048 8.45892
618 2 7.84634 43.2395 8.32118
619 2 12.0595 43.363 8.3345
620 2 15.9633 43.3664 8.26828
621 2 19.8765 43.399 8.26543
622 2 23.814 43.4125 8.28892
623 2 27.7301 43.362 8.37148
624 2 31.7405 43.6233 8.3476
625 2 35.6936 43.4165 8.42287
626 2 39.5737 43.4072 8.38302
627 2 43.478 43.3633 8.43645
628 2 47.5805 43.4655 8.36658
629 2 51.3676 43.2972 8.55039
630 2 55.26 43.2475 8.34531
631 2 0.0206544 47.3455 8.46481
632 2 3.88356 47.229 8.26729
633 2 7.78797 47.2743 8.47936
634 2 11.7802 47.4408 8.29712
635 2 15.9413 47.2979 8.31585
636 2 19.6735 47.2253 8.37776
637 2 23.5937 47.3216 8.31028
638 2 27.694 47.28 8.61492
639 2 31.6474 47.4 8.41106
640 2 35.6632 47.3667 8.26718
641 2 39.4784 47.3599 8.29633
642 2 43.6497 47.4576 8.29722
643 2 47.5714 47.3535 8.37631
644 2 51.4182 47.4484 8.21012
645 2 55.4358 47.2874 8.28003
646 2 0.0433509 51.3785 8.38159
647 2 3.87426 51.193 8.38664
648 2 7.84769 51.2222 8.38446
649 2 11.767 51.6323 8.43429
650 2 15.7984 51.1465 8.50942
651 2 19.7226 51.5488 8.4011
652 2 23.8627 51.1468 8.1317
653 2 27.6667 51.1011 8.25445
654 2 31.7704 51.4913 8.46343
655 2 35.466 51.3011 8.40033
656 2 39.3524 51.3749 8.34858
657 2 43.55 51.163 8.33092
658 2 47.4645 51.2729 8.2564
659 2 51.478 51.3543 8.4023
660 2 55.4072 51.3893 8.39561
661 2 -0.138784 55.0864 8.37863
662 2 4.07467 55.2954 8.25548
663 2 7.73855 55.2247 8.50828
664 2 11.7288 55.2895 8.41809
665 2 15.6271 55.2094 8.27766
666 2 19.8396 55.2449 8.5039
667 2 23.6779 55.1189 8.35169
668 2 27.7416 55.2181 8.03707
669 2 31.8135 55.3648 8.30444
670 2 35.6101 55.3409 8.39856
671 2 39.4474 55.1554 8.40731
672 2 43.5452 55.2502 8.52418
673 2 47.5475 55.1693 8.31384
674 2 51.4686 55.0718 8.41287
675 2 55.329 55.3691 8.3637
676 2 -0.0383747 59.0348 12.3236
677 2 3.83407 58.9606 12.0974
678 2 7.6825 59.1417 12.1658
679 2 12.0383 59.186 12.3139
680 2 15.9619 59.0115 12.2869
681 2 19.9346 59.0484 12.0184
682 2 23.8428 59.1875 12.1721
683 2 27.8967 59.1795 12.1661
684 2 31.888 59.2379 12.1712
685 2 35.7519 59.2848 12.2178
686 2 39.7298 59.1933 12.329
687 2 43.659 59.2856 12.1977
688 2 47.7789 59.1446 12.2762
689 2 51.4961 59.1314 12.3332
690 2 55.5157 59.3646 12.3671
691 2 0.205643 3.94192 12.3896
692 2 3.87445 3.74076 12.3388
693 2 7.77678 3.65559 12.2329
694 2 11.9103 3.90105 12.2716
695 2 15.8138 3.81778 12.2695
696 2 19.7743 3.58618 12.361
697 2 23.7231 3.74034 12.2931
698 2 27.7282 3.93498 12.3465
699 2 31.7455 3.84162 12.3339
700 2 35.6715 3.89642 12.0885
701 2 39.8685 3.72282 12.1095
702 2 43.7002 3.68879 12.2872
703 2 47.5616 3.91627 12.3738
704 2 51.4549 3.78279 12.3815
705 2 55.3507 3.79887 12.4844
706 2 -0.00108622 7.68518 12.3648
707 2 4.00842 7.88806 12.2996
708 2 8.19369 7.67449 12.224
709 2 12.0569 7.48604 12.1066
710 2 16.057 7.58867 12.3645
711 2 19.7332 7.45537 12.1381
712 2 23.7889 7.56312 12.1701
713 2 27.6809 7.86552 12.3825
714 2 31.776 7.88837 12.2512
715 2 35.7159 7.7286 12.2741
716 2 39.5091 7.43058 12.3089
717 2 43.569 7.72501 12.4156
718 2 47.393 7.72777 12.4592
719 2 51.3943 7.76079 12.315
720 2 55.295 7.83015 12.3387
721 2 0.213109 11.8645 12.1209
722 2 4.08934 11.6593 12.1745
723 2 7.98112 11.671 12.1788
724 2 12.0924 11.4609 12.0847
725 2 15.7398 11.7064 12.3181
726 2 19.7863 11.7113 12.2561
727 2 23.9223 11.6185 12.1196
728 2 27.797 11.5881 12.1032
729 2 31.7456 11.7659 12.3359
730 2 35.7266 11.6688 12.2777
731 2 39.7507 11.5799 12.4797
732 2 43.5568 11.7523 12.3418
733 2 47.7141 11.7304 12.3282
734 2 51.3779 11.6099 12.4239
735 2 55.3781 11.6527 12.1776
736 2 0.158433 15.6356 12.2262
737 2 4.15296 15.6683 12.3438
738 2 8.02507 15.5342 12.3429
739 2 12.0729 15.6582 12.162
740 2 15.8361 15.4431 12.2541
741 2 19.9989 15.6954 12.121
742 2 23.8352 15.57 12.2548
743 2 27.6633 15.5178 12.2638
744 2 31.712 15.571 12.3303
745 2 35.6666 15.5098 12.339
746 2 39.7361 15.6288 12.2563
747 2 43.8 15.7272 12.3336
748 2 47.7137 15.8017 12.4011
749 2 51.4563 15.5742 12.32
750 2 55.5816 15.6323 12.2278
751 2 -0.0902893 19.6421 12.3141
752 2 4.03845 19.5006 12.3727
753 2 8.07712 19.6926 12.306
754 2 12.0228 19.5934 12.1892
755 2 15.8186 19.4597 12.2879
756 2 19.8013 19.475 12.2563
757 2 24.0133 19.6815 12.3159
758 2 27.6636 19.6109 12.2369
759 2 31.7733 19.5202 12.184
760 2 35.8778 19.555 12.2592
761 2 39.7268 19.6768 12.2823
762 2 43.6747 19.7051 12.3179
763 2 47.6682 19.785 12.2063
764 2 51.7776 19.7761 12.2003
765 2 55.5277 19.649 12.4221
766 2 59.5972 23.4621 12.2759
767 2 4.09619 23.5907 12.2683
768 2 8.00647 23.6135 12.1711
769 2 12.1187 23.5302 12.0995
770 2 16.0438 23.5846 12.0194
771 2 19.9359 23.3751 12.2203
772 2 23.655 23.4314 12.2421
773 2 27.9325 23.5592 12.3074
774 2 31.9719 23.3846 12.2407
775 2 35.5631 23.717 12.3243
776 2 39.5324 23.3968 12.2884
777 2 43.5412 23.5395 12.3142
778 2 47.6599 23.579 12.176
779 2 51.6224 23.7258 12.3253
780 2 55.5031 23.7606 12.0611
781 2 0.165907 27.4568 12.1917
782 2 4.13114 27.6826 12.2263
783 2 8.11924 27.5459 12.1568
784 2 11.9894 27.3045 12.4021
785 2 15.8567 27.4595 12.3107
786 2 19.8613 27.5486 12.2395
787 2 23.9883 27.5003 12.2937
788 2 27.9019 27.6021 12.307
789 2 31.7454 27.4287 12.2976
790 2 35.4828 27.56 12.3788
791 2 39.4918 27.478 12.4625
792 2 43.5474 27.5773 12.4456
793 2 47.5232 27.3761 12.1361
794 2 51.608 27.4209 12.3591
795 2 55.6255 27.5434 12.211
796 2 -0.0180005 31.4993 12.1358
797 2 4.02311 31.3656 12.2896
798 2 8.04111 31.5221 12.3265
799 2 11.958 31.4743 12.0785
800 2 15.9582 31.6311 12.2553
801 2 19.8456 31.3691 12.0668
802 2 23.8 31.4869 12.1468
803 2 27.719 31.5019 12.2989
804 2 31.7129 31.4523 12.2284
805 2 35.6321 31.4644 12.3858
806 2 39.4958 31.2924 12.399
807 2 43.5314 31.5291 12.3891
808 2 47.4078 31.3238 12.2003
809 2 51.3131 31.3569 12.2553
810 2 55.4397 31.6793 12.0322
811 2 -0.00894863 35.3501 12.4432
812 2 4.0272 35.4554 12.4547
813 2 7.93185 35.4796 12.2536
814 2 11.9766 35.6017 12.0976
815 2 16.0624 35.4901 12.2656
816 2 19.8972 35.411 12.0628
817 2 23.7013 35.3723 12.2488
818 2 27.6034 35.4842 12.2472
819 2 31.753 35.2209 12.324
820 2 35.7791 35.4466 12.3751
821 2 39.6609 35.4463 12.3379
822 2 43.5169 35.4599 12.4896
823 2 47.4155 35.0704 12.4127
824 2 51.6907 35.3327 12.266
825 2 55.4829 35.5554 12.2582
826 2 0.0449105 39.4634 12.2717
827 2 3.88724 39.4142 12.1491
828 2 8.08551 39.3681 12.2867
829 2 11.7821 39.6877 12.4614
830 2 15.9462 39.452 12.3877
831 2 20.0396 39.2659 12.2087
832 2 23.7442 39.2076 12.2856
833 2 27.7484 39.3523 12.3955
834 2 31.5383 39.243 12.3018
835 2 35.6145 39.2965 12.2736
836 2 39.734 39.4575 12.2912
837 2 43.6261 39.4148 12.3501
838 2 47.5268 39.1883 12.3446
839 2 51.4991 39.4536 12.2962
840 2 55.4767 39.311 12.3724
841 2 0.0688074 43.3254 12.4238
842 2 4.13797 43.2795 12.1909
843 2 8.08521 43.3763 12.1434
844 2 12.0908 43.3232 12.1069
845 2 15.9881 43.4848 12.3693
846 2 19.8557 43.3137 12.4209
847 2 23.9151 43.2934 12.3766
848 2 27.8975 43.3775 12.256
849 2 31.7679 43.2911 12.2903
850 2 35.6105 43.2192 12.2801
851 2 39.6472 43.2946 12.4012
852 2 43.688 43.2471 12.3422
853 2 47.4488 43.2992 12.343
854 2 51.4163 43.1296 12.294
855 2 55.4287 43.2574 12.2623
856 2 0.020097 47.318 12.3759
857 2 3.91506 47.1016 12.3031
858 2 7.95458 47.1398 12.3125
859 2 12.0425 47.2729 12.0114
860 2 15.9658 47.5088 12.3688
861 2 20.0476 47.228 12.1941
862 2 23.9272 47.2068 12.4842
863 2 28.0262 47.3822 12.399
864 2 31.9008 47.3478 12.4794
865 2 35.8713 47.4028 12.449
866 2 39.5148 47.3936 12.5184
867 2 43.3415 47.238 12.2985
868 2 47.516 47.3053 12.2828
869 2 51.4748 47.2893 12.1722
870 2 55.4667 47.3334 12.1024
871 2 -0.121467 51.1895 12.3516
872 2 3.74446 51.0719 12.1711
873 2 7.78245 51.1665 12.3805
874 2 11.9167 51.03 12.1362
875 2 15.7686 51.2136 12.4274
876 2 19.8038 51.3469 12.401
877 2 23.8562 51.2376 12.343
878 2 27.999 51.2777 12.3804
879 2 31.9293 51.5132 12.397
880 2 35.8108 51.3523 12.325
881 2 39.8106 51.2846 12.3385
882 2 43.5488 51.2291 12.4332
883 2 47.3985 51.187 12.4221
884 2 51.4669 51.0729 12.227
885 2 55.4965 51.3448 12.3433
886 2 0.163736 55.21 12.5381
887 2 3.89367 55.1409 12.3442
888 2 7.73561 55.0493 12.4271
889 2 11.7307 55.1165 12.325
890 2 15.7991 55.0931 12.2248
891 2 19.8609 55.1719 12.4498
892 2 23.9733 54.9391 12.2329
893 2 27.7434 55.446 12.2294
894 2 31.736 55.4666 12.518
895 2 35.7111 55.255 12.3017
896 2 39.6556 55.463 12.3688
897 2 43.6839 55.267 12.1606
898 2 47.7507 55.3733 12.1696
899 2 51.3812 55.0341 12.4105
900 2 55.5096 55.3088 12.4897
901 2 -0.00719339 59.3808 16.1464
902 2 4.11045 59.4264 16.3209
903 2 8.1748 59.4347 15.9423
904 2 11.9837 59.3753 16.2641
905 2 15.95 59.1108 16.2849
906 2 19.8574 59.3117 16.2568
907 2 23.953 59.2133 16.0821
908 2 27.8696 59.3678 16.1242
909 2 31.7156 -0.0101447 16.2594
910 2 35.8713 59.1436 16.1819
911 2 39.7102 59.0887 16.3047
912 2 43.9139 59.3278 16.142
913 2 47.6333 59.3602 16.2455
914 2 51.5013 59.2008 16.2248
915 2 55.7272 59.1609 16.205
916 2 59.2098 3.97926 16.3901
917 2 4.09981 3.95824 16.107
918 2 8.11981 3.80805 16.2309
919 2 12.0515 3.93398 16.3727
920 2 15.8497 3.6693 16.3099
921 2 19.9812 3.6937 16.3211
922 2 23.9178 3.64999 16.2097
923 2 27.7863 3.88686 16.3137
924 2 31.7579 3.83491 16.341
925 2 35.6539 3.83559 16.3315
926 2 39.8057 3.63888 16.2032
927 2 43.6542 3.80029 16.0078
928 2 47.7165 3.87917 16.1592
929 2 51.6015 3.90356 16.3729
930 2 55.4487 3.86233 16.4913
931 2 0.0812475 7.67884 16.3141
932 2 4.13589 7.66436 16.2858
933 2 8.01505 8.02324 16.3039
934 2 11.9705 7.83202 16.3084
935 2 16.1342 7.49827 16.2705
936 2 20.0335 7.9065 16.2575
937 2 24.0252 7.77272 16.2002
938 2 27.7279 7.79194 16.2688
939 2 31.7152 7.71333 16.255
940 2 35.7757 7.56965 16.0026
941 2 39.5975 7.87223 16.5107
942 2 43.5803 7.75054 16.4498
943 2 47.6106 7.84364 16.376
944 2 51.6198 7.98162 16.328
945 2 55.6299 7.83128 16.1785
946 2 0.0412246 11.759 16.1701
947 2 4.07781 11.6339 16.2122
948 2 7.91949 11.7645 16.1446
949 2 12.0351 11.7302 16.1569
950 2 15.8098 11.6241 16.1252
951 2 19.8832 11.6376 16.1635
952 2 23.7574 11.5209 16.1319
953 2 27.5816 11.7675 16.2126
954 2 31.7952 11.786 16.3284
955 2 35.573 11.5474 16.3537
956 2 39.6546 11.5463 16.3152
957 2 43.7053 11.6411 16.1925
958 2 47.603 11.679 16.4332
959 2 51.5676 11.7988 16.3758
960 2 55.6182 11.6334 16.1629
961 2 0.246484 15.615 16.2511
962 2 4.09854 15.8042 16.3287
963 2 8.02599 15.8024 16.1996
964 2 11.9914 15.5984 16.339
965 2 15.9206 15.681 16.1467
966 2 20.0127 15.5822 16.1127
967 2 23.9988 15.657 16.2073
968 2 27.8936 15.467 16.3308
969 2 31.8412 15.9314 16.1888
970 2 35.9566 15.6644 16.2239
971 2 39.8047 15.5746 16.3394
972 2 43.7444 15.6538 16.1812
973 2 47.628 15.7321 16.3741
974 2 51.6598 15.6646 16.1559
975 2 55.5605 15.6717 16.2323
976 2 59.5585 19.6354 16.1892
977 2 4.11792 19.7895 16.241
978 2 8.18511 19.6296 16.1166
979 2 12.2122 19.6211 16.1858
980 2 15.9847 19.5242 16.2238
981 2 20.1181 19.7241 16.2677
982 2 23.9575 19.308 16.0544
983 2 27.8352 19.6054 16.2422
984 2 31.6473 19.4496 16.3469
985 2 35.7652 19.4837 16.3117
986 2 39.6486 19.3469 16.4017
987 2 43.6733 19.6645 16.3
988 2 47.6447 19.6773 16.3057
989 2 51.7189 19.6403 16.0868
990 2 55.5018 19.4929 16.3496
991 2 0.137544 23.4762 16.3538
992 2 3.99967 23.4903 16.1473
993 2 8.00459 23.4285 16.246