ITEM: TIMESTEP
41100
ITEM: NUMBER OF ATOMS
28125
ITEM: BOX BOUNDS xy xz yz pp pp pp
0.0000000000000000e+00 5.9369999999999997e+01 0.0000000000000000e+00
0.0000000000000000e+00 5.9369999999999997e+01 0.0000000000000000e+00
6.0255946750430667e-02 9.9439744053249782e+01 0.0000000000000000e+00
ITEM: ATOMS id type x y z
1 2 59.4692 59.3215 0.165998
2 2 4.0208 59.2919 0.385139
3 2 7.89968 59.069 0.307654
4 2 11.8967 59.1146 0.454512
5 2 15.879 59.2036 0.384081
6 2 19.7426 58.9957 0.423212
7 2 23.5343 59.2008 0.512088
8 2 27.5342 59.1915 0.26804
9 2 31.5245 59.4184 0.225166
10 2 35.4382 59.2424 0.20778
11 2 39.623 59.2937 0.189147
12 2 43.6602 59.1213 0.363343
13 2 47.6112 59.0985 0.306683
14 2 51.6521 -0.132982 0.250101
15 2 55.4472 59.2083 0.400332
16 2 59.4393 3.70088 0.185289
17 2 3.90785 3.78155 0.277343
18 2 8.05268 3.87134 0.361282
19 2 11.849 3.69326 0.334667
20 2 15.6735 3.66015 0.189045
21 2 19.4196 3.8041 0.267925
22 2 23.6173 3.74969 0.478634
23 2 27.6231 3.82519 0.548154
24 2 31.6834 3.75349 0.102387
25 2 35.6037 3.69801 0.276167
26 2 39.7822 3.96466 0.250602
27 2 43.7053 3.87458 0.336931
28 2 47.6581 3.77265 0.0563183
29 2 51.5203 3.7308 0.0102891
30 2 55.4159 3.79672 0.419798
31 2 59.6114 7.81999 0.303791
32 2 4.03758 7.7245 0.267429
33 2 7.90488 7.80176 0.401094
34 2 11.9263 7.62663 0.464177
35 2 15.8685 7.7691 0.390327
36 2 19.79 7.78344 0.28625
37 2 23.8691 7.67597 0.454973
38 2 27.7238 7.75646 0.436683
39 2 31.5784 7.77768 0.280896
40 2 35.5355 7.66267 0.267093
41 2 39.7975 7.71617 0.267206
42 2 43.7446 7.72918 0.456744
43 2 47.4051 7.75289 0.389921
44 2 51.3604 7.82432 0.493946
45 2 55.5792 7.72121 0.313977
46 2 59.5114 11.7449 0.110029
47 2 3.85316 11.8857 0.337609
48 2 7.92656 11.7332 0.433962
49 2 11.845 11.5997 0.394487
50 2 15.6483 11.6352 0.332902
51 2 19.8051 11.7821 0.395845
52 2 23.6432 11.8183 0.437487
53 2 27.5272 11.6643 0.107855
54 2 31.6546 11.7395 0.347839
55 2 35.4934 11.7227 0.208483
56 2 39.4946 11.7689 0.416952
57 2 43.5059 11.7168 0.257685
58 2 47.7016 11.9114 0.335599
59 2 51.7005 11.8487 0.169465
60 2 55.4651 11.5651 0.261093
61 2 -0.0843427 15.7034 0.395844
62 2 3.88848 15.5891 0.420496
63 2 7.74186 15.7221 0.355207
64 2 11.9409 15.6951 0.394202
65 2 15.9397 15.6045 0.440309
66 2 19.8375 15.6519 0.173158
67 2 23.7662 15.6807 0.417272
68 2 27.5261 15.7196 0.399629
69 2 31.6077 15.7671 0.270472
70 2 35.5558 15.7848 0.436939
71 2 39.6971 15.6728 0.325344
72 2 43.6106 15.6881 0.141636
73 2 47.4062 15.7035 0.53981
74 2 51.3152 15.62 0.304893
75 2 55.1895 15.7456 0.175628
76 2 59.3507 19.5054 0.327822
77 2 3.91712 19.7781 0.250626
78 2 7.83006 19.7417 0.342854
79 2 11.6625 19.7037 0.45663
80 2 15.8749 19.4966 0.443762
81 2 19.7221 19.507 0.376531
82 2 23.4229 19.9499 0.199714
83 2 27.5844 19.6625 0.433556
84 2 31.6246 19.7955 0.454848
85 2 35.5951 19.6424 0.385625
86 2 39.4231 19.5569 0.206931
87 2 43.5413 19.5629 0.241039
88 2 47.4595 19.7655 0.313179
89 2 51.4145 19.6881 0.315619
90 2 55.2506 19.4749 0.223634
91 2 59.3179 23.5432 0.295533
92 2 3.8546 23.6076 0.482351
93 2 7.79985 23.5042 0.309755
94 2 11.7725 23.593 0.239054
95 2 15.6122 23.6268 0.439668
96 2 19.5914 23.7217 0.326576
97 2 23.5496 23.6737 0.323936
98 2 27.5399 23.4697 0.182896
99 2 31.596 23.5995 0.527648
100 2 35.5987 23.631 0.328811
101 2 39.3578 23.6567 0.341697
102 2 43.4152 23.5196 0.318054
103 2 47.8438 23.6325 0.210482
104 2 51.5189 23.5611 0.22755
105 2 55.5696 23.4907 0.269023
106 2 59.1507 27.5092 0.278459
107 2 3.86289 27.608 0.365581
108 2 7.87426 27.6849 0.52662
109 2 11.6924 27.4737 0.212699
110 2 15.7122 27.5576 0.434119
111 2 19.6986 27.6412 0.404488
112 2 23.6115 27.5834 0.465269
113 2 27.5937 27.3048 0.178809
114 2 31.8196 27.6346 0.341787
115 2 35.5717 27.6817 0.310367
116 2 39.5143 27.6019 0.434353
117 2 43.5417 27.7349 0.377112
118 2 47.4739 27.449 0.360347
119 2 51.4111 27.4451 0.160386
120 2 55.4317 27.5666 0.287754
121 2 -0.192837 31.506 0.432684
122 2 3.75193 31.6249 0.247098
123 2 7.98352 31.4266 0.572107
124 2 11.87 31.7356 0.459996
125 2 15.6521 31.5808 0.382987
126 2 19.5631 31.5027 0.296121
127 2 23.6873 31.5244 0.252508
128 2 27.5937 31.5586 0.497947
129 2 31.3861 31.6391 0.367865
130 2 35.4016 31.7219 0.0651451
131 2 39.5261 31.4513 0.251315
132 2 43.519 31.3921 0.385928
133 2 47.4111 31.6393 0.203164
134 2 51.3674 31.4347 0.168821
135 2 55.4417 31.5309 0.40784
136 2 59.3745 35.3327 0.238239
137 2 3.99076 35.3047 0.22791
138 2 7.84927 35.4114 0.373566
139 2 11.717 35.5739 0.276514
140 2 15.6157 35.4248 0.473528
141 2 19.8931 35.4899 0.28994
142 2 23.8639 35.4355 0.343444
143 2 27.594 35.6529 0.434455
144 2 31.6516 35.5517 0.392554
145 2 35.633 35.5034 0.301953
146 2 39.741 35.534 0.368405
147 2 43.8051 35.2596 0.150222
148 2 47.4785 35.4835 0.457032
149 2 51.3794 35.6053 0.378371
150 2 55.257 35.5512 0.308687
151 2 59.1764 39.3412 0.233657
152 2 3.90875 39.3927 0.300603
153 2 7.83433 39.3072 0.295927
154 2 11.7329 39.4465 0.256853
155 2 15.7907 39.4138 0.317362
156 2 19.6371 39.3203 0.258488
157 2 23.5928 39.4452 0.440767
158 2 27.7472 39.5068 0.314158
159 2 31.5319 39.3229 0.333354
160 2 35.4945 39.3923 0.350644
161 2 39.4532 39.4543 0.239026
162 2 43.4757 39.3327 0.237697
163 2 47.6159 39.4174 0.30505
164 2 51.4693 39.5087 0.259087
165 2 55.3695 39.5556 0.362853
166 2 -0.0663623 43.4943 0.148585
167 2 4.02711 43.3075 0.400303
168 2 7.98891 43.4388 0.301525
169 2 11.9335 43.2662 0.319751
170 2 15.7583 43.5893 0.375766
171 2 19.7858 43.2179 0.447532
172 2 23.5425 43.5244 0.475058
173 2 27.4841 43.4123 0.333019
174 2 31.5185 43.3427 0.297001
175 2 35.4915 43.2286 0.262251
176 2 39.4889 43.3451 99.4769
177 2 43.4637 43.393 0.367514
178 2 47.4724 43.3679 0.38638
179 2 51.2782 43.4151 0.0281253
180 2 55.3136 43.3506 0.319493
181 2 -0.0462941 47.46 0.241627
182 2 4.02754 47.3187 0.343156
183 2 7.77534 47.1656 0.184064
184 2 11.7884 47.2872 0.430425
185 2 15.8678 47.3519 0.134379
186 2 19.7111 47.3432 0.422204
187 2 23.5221 47.2422 0.424274
188 2 27.6423 47.2968 0.298501
189 2 31.4454 47.3749 0.566728
190 2 35.633 47.2486 0.221128
191 2 39.5168 47.4062 0.26436
192 2 43.3963 47.3856 0.264247
193 2 47.5298 47.3065 0.10963
194 2 51.3945 47.2371 0.137415
195 2 55.3137 47.3519 0.384345
196 2 0.102954 51.2012 0.213074
197 2 3.8792 51.2584 0.182595
198 2 8.04747 51.1848 0.238226
199 2 11.8898 51.1955 0.401371
200 2 15.8513 51.2739 0.317839
201 2 19.8123 51.3399 0.578271
202 2 23.7826 51.4276 0.379557
203 2 27.8553 51.2854 0.169235
204 2 31.4327 51.4076 0.187836
205 2 35.5216 51.2348 0.19513
206 2 39.4144 51.2412 0.196944
207 2 43.6439 51.3202 0.22938
208 2 47.4675 51.0984 0.137541
209 2 51.5984 51.266 0.254162
210 2 55.5006 51.3921 0.475363
211 2 59.5276 55.1378 0.194801
212 2 4.11677 55.3506 0.175034
213 2 7.99928 55.2947 0.416592
214 2 11.9439 55.2378 0.186781
215 2 15.8965 55.1506 0.278669
216 2 19.8964 55.1815 0.398575
217 2 23.83 55.235 0.246441
218 2 27.7768 55.239 0.301287
219 2 31.5379 55.1559 0.226777
220 2 35.6065 55.2059 0.441335
221 2 39.689 55.2609 0.12984
222 2 43.751 55.3003 0.379424
223 2 47.4764 55.1315 0.156997
224 2 51.4576 55.1178 0.449591
225 2 55.5189 55.4696 0.429606
226 2 0.0986716 59.0374 4.16948
227 2 4.17424 59.1597 4.32355
228 2 8.05927 59.0487 4.23719
229 2 11.91 59.1383 4.3078
230 2 15.8093 59.3475 4.43828
231 2 19.9268 59.2014 4.53573
232 2 23.6939 59.1608 4.20266
233 2 27.694 59.1326 4.32555
234 2 31.5161 59.1724 4.22073
235 2 35.5522 59.1859 4.12049
236 2 39.6943 59.3088 4.27551
237 2 43.7498 58.998 4.19189
238 2 47.796 59.1325 4.22532
239 2 51.5773 59.2566 4.35235
240 2 55.4799 59.2027 4.27754
241 2 59.4292 3.70302 4.38587
242 2 4.00969 3.81699 4.33467
243 2 7.90064 3.70834 4.02489
244 2 11.8469 3.72408 4.24249
245 2 15.8932 3.81915 4.341
246 2 19.7573 3.9086 4.2594
247 2 23.6994 3.71074 4.27222
248 2 27.6286 3.7497 4.15754
249 2 31.7907 3.81432 4.21462
250 2 35.8215 3.85783 4.21744
251 2 39.8123 3.80819 3.98604
252 2 43.5945 3.65597 4.26879
253 2 47.4714 3.68809 4.24405
254 2 51.4338 3.74962 4.28042
255 2 55.5003 3.75926 4.41421
256 2 59.48 7.63226 4.25246
257 2 3.9576 7.93071 4.30175
258 2 7.93474 7.78614 4.31493
259 2 11.7333 7.71192 4.46566
260 2 15.6134 7.77485 4.32331
261 2 19.8353 7.67073 4.28889
262 2 23.7341 7.76342 4.37301
263 2 27.7078 7.79409 4.45453
264 2 31.5481 7.78943 4.37253
265 2 35.7613 7.70019 4.08393
266 2 39.7574 7.63242 4.19094
267 2 43.6949 7.66376 4.32555
268 2 47.4436 7.61794 4.17215
269 2 51.4834 7.59873 4.02569
270 2 55.646 7.79486 4.42477
271 2 59.3472 11.8304 4.32265
272 2 3.74146 11.8697 4.46069
273 2 7.90207 11.7832 4.11108
274 2 11.9908 11.7916 4.41878
275 2 15.8665 11.7408 4.27458
276 2 19.6345 11.7399 4.269
277 2 23.6469 11.4969 4.25676
278 2 27.7346 11.7697 4.38208
279 2 31.4092 11.7028 4.24339
280 2 35.7588 11.8237 4.29857
281 2 39.8114 11.7807 4.28266
282 2 43.6541 11.4767 4.27945
283 2 47.5524 11.5432 4.19599
284 2 51.6311 11.5893 4.11831
285 2 55.5049 11.827 4.14484
286 2 59.3108 15.6796 4.30812
287 2 3.84101 15.896 4.35935
288 2 7.73894 15.6562 4.40416
289 2 11.9282 15.7514 4.26947
290 2 15.9743 15.7494 4.28899
291 2 19.9102 15.7438 4.35312
292 2 23.923 15.6914 4.28491
293 2 27.9661 15.7015 4.2069
294 2 31.7104 15.8572 4.04672
295 2 35.6721 15.6735 4.26284
296 2 39.6638 15.6031 4.41438
297 2 43.4785 15.6192 4.25032
298 2 47.5144 15.6881 4.34912
299 2 51.5244 15.5552 4.36306
300 2 55.4164 15.6066 4.21217
301 2 59.4809 19.6142 4.25933
302 2 4.05639 19.7918 4.30658
303 2 7.87813 19.7517 4.39146
304 2 11.8701 19.6014 4.13751
305 2 15.8971 19.5895 4.27004
306 2 19.7998 19.513 4.19082
307 2 23.8347 19.8441 4.36083
308 2 27.7066 19.6346 4.487
309 2 31.5637 19.7672 4.22749
310 2 35.6392 19.6348 4.2875
311 2 39.6694 19.6633 4.24679
312 2 43.6077 19.4939 4.06492
313 2 47.6278 19.6709 4.33722
314 2 51.4105 19.5561 4.37455
315 2 55.2091 19.669 4.20844
316 2 59.2678 23.3751 4.3201
317 2 3.81947 23.7012 4.49458
318 2 7.97679 23.4805 4.252
319 2 11.848 23.5388 4.16109
320 2 16.0796 23.6732 4.3398
321 2 19.5574 23.5665 4.4993
322 2 23.8075 23.4874 4.29558
323 2 27.7944 23.5077 4.32383
324 2 31.6871 23.605 4.29122
325 2 35.7542 23.8235 4.40992
326 2 39.6665 23.527 4.12193
327 2 43.6285 23.4096 4.22071
328 2 47.4829 23.591 4.34858
329 2 51.4201 23.5692 4.22592
330 2 55.4384 23.5416 4.2452
331 2 59.2664 27.4605 4.50185
332 2 3.94542 27.3893 4.28909
333 2 7.7727 27.5862 4.37985
334 2 11.7938 27.6316 4.39946
335 2 15.6692 27.4607 4.35361
336 2 19.6598 27.5987 4.41403
337 2 23.5849 27.3923 4.24286
338 2 27.4071 27.5554 4.20741
339 2 31.5605 27.4112 4.14568
340 2 35.6091 27.7779 4.37089
341 2 39.4986 27.557 4.35096
342 2 43.5273 27.4555 4.2149
343 2 47.378 27.5754 4.21144
344 2 51.4829 27.3372 4.21108
345 2 55.3438 27.5541 4.08958
346 2 0.0975475 31.5596 4.33592
347 2 3.9066 31.4936 4.35155
348 2 7.73519 31.5478 4.31162
349 2 11.6641 31.5623 4.3376
350 2 15.6019 31.54 4.37418
351 2 19.5784 31.4717 4.38015
352 2 23.6276 31.5945 4.25323
353 2 27.4115 31.3173 4.25246
354 2 31.7132 31.4996 4.17245
355 2 35.6929 31.6243 4.39744
356 2 39.6681 31.5953 4.185
357 2 43.4472 31.5213 4.21701
358 2 47.447 31.577 4.37529
359 2 51.5358 31.4379 4.1454
360 2 55.3946 31.4754 4.46139
361 2 -0.167868 35.5855 4.25867
362 2 3.85113 35.6304 4.24555
363 2 7.74445 35.527 4.24653
364 2 11.6825 35.3887 4.14889
365 2 15.7394 35.4136 4.35266
366 2 19.7979 35.6544 4.15631
367 2 23.5598 35.3428 4.27486
368 2 27.6034 35.4523 4.28384
369 2 31.6424 35.3992 4.34162
370 2 35.7463 35.4338 4.35169
371 2 39.7722 35.5841 4.19626
372 2 43.697 35.4108 4.03562
373 2 47.4444 35.5955 4.38579
374 2 51.5937 35.45 4.26581
375 2 55.3334 35.4416 4.39609
376 2 0.0323266 39.227 4.24855
377 2 3.9195 39.2992 4.2929
378 2 7.96259 39.4209 4.29208
379 2 11.8605 39.5231 4.51394
380 2 15.9372 39.4264 4.20944
381 2 19.5968 39.4868 4.34669
382 2 23.7042 39.5565 4.41085
383 2 27.8581 39.5063 4.31325
384 2 31.7017 39.445 4.48592
385 2 35.7451 39.4259 4.16489
386 2 39.78 39.3335 4.09038
387 2 43.5632 39.4242 4.25658
388 2 47.5109 39.5202 4.2184
389 2 51.4201 39.2579 4.29708
390 2 55.3225 39.4586 4.35909
391 2 0.0102074 43.4537 4.18577
392 2 3.97521 43.3422 4.07696
393 2 7.83041 43.549 4.26571
394 2 11.7956 43.4752 4.26857
395 2 15.8117 43.2497 4.42245
396 2 19.6893 43.5862 4.41046
397 2 23.576 43.4761 4.44618
398 2 27.5462 43.4001 4.31376
399 2 31.7753 43.4968 4.26876
400 2 35.6392 43.3948 4.33636
401 2 39.6456 43.3954 4.13389
402 2 43.572 43.4339 4.38364
403 2 47.5204 43.4723 4.15596
404 2 51.295 43.5628 4.25565
405 2 55.5024 43.2674 4.35291
406 2 59.3294 47.1469 4.28044
407 2 4.00733 47.2832 4.31686
408 2 7.94805 47.3323 4.39656
409 2 11.666 47.4423 4.36147
410 2 15.8733 47.3278 4.39879
411 2 19.5615 47.503 4.3688
412 2 23.6065 47.5408 4.4017
413 2 27.5311 47.2462 4.07097
414 2 31.8415 47.3869 4.13927
415 2 35.7685 47.3254 4.17311
416 2 39.5654 47.3968 4.03234
417 2 43.4314 47.2776 4.20887
418 2 47.6481 47.2803 4.16506
419 2 51.6022 47.2884 4.18977
420 2 55.4081 47.2538 4.27537
421 2 -0.0321192 51.1889 4.30306
422 2 3.96562 51.3283 4.29199
423 2 7.99856 51.2027 4.33951
424 2 11.9741 51.4359 4.25712
425 2 15.8632 51.1744 4.45134
426 2 19.7824 51.4588 4.40126
427 2 23.7098 51.269 4.31396
428 2 27.5885 51.2251 4.26146
429 2 31.632 51.2759 4.23539
430 2 35.4818 51.3651 4.33578
431 2 39.4977 51.3523 4.35237
432 2 43.4419 51.089 4.21608
433 2 47.4945 51.2293 4.1734
434 2 51.4103 51.1577 4.25407
435 2 55.4815 51.3418 4.19481
436 2 0.240935 55.2 4.28235
437 2 4.11156 55.1889 4.31593
438 2 7.9182 55.1675 4.4819
439 2 11.9417 55.1805 4.28928
440 2 15.8953 55.343 4.33745
441 2 19.7951 55.4553 4.54483
442 2 23.8219 55.2746 4.3734
443 2 27.7327 55.2089 4.28418
444 2 31.6993 55.287 4.10177
445 2 35.7062 55.2291 4.15833
446 2 39.658 55.2735 4.26369
447 2 43.4979 54.9944 4.17874
448 2 47.4791 55.0365 4.14622
449 2 51.5996 55.1625 4.42296
450 2 55.4932 55.0844 4.10129
451 2 -0.036661 59.1526 8.16116
452 2 3.8805 59.1897 8.26988
453 2 7.95783 59.2764 8.31834
454 2 12.0083 59.2967 8.10694
455 2 15.9645 59.2549 8.40602
456 2 19.6113 59.36 8.29047
457 2 23.626 59.1031 8.34608
458 2 27.7091 59.2522 8.26923
459 2 31.8807 -0.0900797 8.12129
460 2 35.6813 59.0787 7.9566
461 2 39.6711 59.1929 8.31052
462 2 43.7427 59.0908 8.07517
463 2 47.6325 59.1841 8.3212
464 2 51.6354 -0.31402 8.2964
465 2 55.5071 59.1388 8.31433
466 2 -0.17256 3.66654 8.26605
467 2 3.7866 3.84083 8.27955
468 2 7.89057 3.79751 8.3368
469 2 11.6896 3.65949 8.17535
470 2 15.8128 4.00021 8.24447
471 2 19.8539 3.86397 8.3502
472 2 23.8695 3.66886 8.32928
473 2 27.8678 3.79826 8.17022
474 2 31.8387 4.12524 8.02327
475 2 35.675 3.68979 8.07731
476 2 39.5835 3.7071 8.01521
477 2 43.5846 3.67436 8.10144
478 2 47.6835 3.66296 8.32338
479 2 51.4229 3.47393 8.22113
480 2 55.5298 3.80746 8.16696
481 2 -0.00465202 7.70542 8.4385
482 2 4.08477 7.79752 8.18041
483 2 7.79799 7.92716 8.23384
484 2 11.638 7.66436 8.37456
485 2 15.9527 7.79678 8.34053
486 2 19.9538 7.94186 8.13747
487 2 23.997 7.63269 8.29722
488 2 27.7275 7.49657 8.33018
489 2 31.7438 7.91348 8.21208
490 2 35.9753 7.80441 8.25242
491 2 39.8413 7.73401 8.33853
492 2 43.6607 7.56423 8.2161
493 2 47.6012 7.59628 8.45414
494 2 51.522 7.643 7.93906
495 2 55.2411 7.70725 8.35276
496 2 0.0332797 11.6334 8.19753
497 2 4.14717 11.6323 8.1855
498 2 8.17918 11.8896 8.2657
499 2 12.0192 11.6345 8.12513
500 2 15.7534 11.6597 8.26356
501 2 19.5704 11.7482 8.37864
502 2 23.7545 11.544 8.17548
503 2 27.8051 11.6557 8.3403
504 2 31.8971 11.5635 8.12488
505 2 35.802 11.6951 8.29327
506 2 39.6573 11.8097 8.38283
507 2 43.8732 11.6521 8.00508
508 2 47.5695 11.6022 8.2166
509 2 51.4882 11.8126 8.36988
510 2 55.3672 11.5923 8.28592
511 2 0.0844171 15.7145 8.32417
512 2 3.96894 15.863 8.32902
513 2 7.92815 15.7711 8.29682
514 2 12.0789 15.6916 8.21319
515 2 15.7703 15.6297 8.24195
516 2 19.958 15.6913 8.22377
517 2 23.8078 15.6221 8.26781
518 2 27.9446 15.5296 8.23572
519 2 31.8174 15.5492 8.30219
520 2 35.5965 15.5432 8.14188
521 2 39.6735 15.7112 8.24748
522 2 43.6604 15.853 8.36116
523 2 47.5889 15.5081 8.22796
524 2 51.7036 15.6164 8.10342
525 2 55.4988 15.6484 8.19196
526 2 0.105764 19.6293 8.28422
527 2 3.87451 19.5893 8.25857
528 2 8.00283 19.6335 8.21336
529 2 11.9511 19.7398 8.36416
530 2 15.914 19.527 8.16259
531 2 19.8494 19.5969 8.16707
532 2 24.0222 19.69 8.36548
533 2 27.721 19.5341 8.36196
534 2 31.6539 19.48 8.21495
535 2 35.7417 19.5079 8.1501
536 2 39.3521 19.6646 8.25871
537 2 43.5866 19.6061 8.11901
538 2 47.4546 19.5396 8.29049
539 2 51.508 19.5973 8.29814
540 2 55.4447 19.6526 8.09999
541 2 -0.143238 23.6789 8.30936
542 2 4.05068 23.5548 8.13952
543 2 8.09362 23.4737 8.27834
544 2 11.809 23.6276 8.27701
545 2 15.8115 23.7015 8.41987
546 2 19.8299 23.6841 8.33997
547 2 23.5004 23.5934 8.40487
548 2 27.6876 23.6479 8.22328
549 2 31.6616 23.637 8.05478
550 2 35.6088 23.4709 8.29024
551 2 39.4951 23.5056 8.15943
552 2 43.6179 23.5851 8.14074
553 2 47.4626 23.3726 8.28016
554 2 51.3947 23.6456 8.30444
555 2 55.4515 23.5094 8.21137
556 2 -0.105716 27.4562 8.29197
557 2 3.89867 27.6457 8.32183
558 2 7.78987 27.4738 8.4355
559 2 11.9539 27.6129 8.34363
560 2 15.7634 27.7184 8.48692
561 2 19.6371 27.5564 8.28644
562 2 23.5952 27.4705 8.25052
563 2 27.6785 27.6192 8.12706
564 2 31.7489 27.5236 8.11767
565 2 35.8222 27.5033 8.32875
566 2 39.6863 27.6018 8.18641
567 2 43.454 27.5273 8.2438
568 2 47.5381 27.4334 8.45967
569 2 51.4141 27.4778 8.27189
570 2 55.2258 27.5693 8.06117
571 2 -0.010121 31.5606 8.43266
572 2 3.91881 31.5233 8.32626
573 2 7.98402 31.5868 8.1919
574 2 11.6995 31.4473 8.28881
575 2 15.9015 31.6418 8.27145
576 2 19.6566 31.4193 8.36467
577 2 23.666 31.4716 8.36892
578 2 27.6544 31.4855 8.26241
579 2 31.5212 31.3167 8.2416
580 2 35.6202 31.49 8.44121
581 2 39.964 31.3915 8.20213
582 2 43.8294 31.3549 8.28087
583 2 47.5022 31.3422 8.2673
584 2 51.4529 31.402 8.26002
585 2 55.3658 31.5506 8.46421
586 2 -0.0114827 35.6285 8.22867
587 2 4.08883 35.5869 8.26118
588 2 7.95295 35.471 8.30805
589 2 11.7469 35.3052 8.23155
590 2 15.5873 35.4443 8.30886
591 2 19.7818 35.4831 8.13466
592 2 23.6149 35.4411 8.06725
593 2 27.7583 35.4737 8.05648
594 2 31.717 35.3103 8.20768
595 2 35.6809 35.2623 8.2238
596 2 39.8026 35.4774 8.15032
597 2 43.6298 35.6029 8.24386
598 2 47.4333 35.5022 8.14895
599 2 51.3735 35.426 8.10411
600 2 55.3637 35.5 8.35527
601 2 0.144636 39.4032 8.20335
602 2 3.95259 39.333 8.40405
603 2 7.9417 39.2488 8.39446
604 2 11.9133 39.463 8.41391
605 2 15.7246 39.2212 8.30181
606 2 19.9522 39.4452 8.19607
607 2 23.8616 39.2049 8.20879
608 2 27.7541 39.2145 8.23841
609 2 31.7319 39.2974 8.25819
610 2 35.7206 39.3619 8.22892
611 2 39.5817 39.4533 8.34934
612 2 43.6566 39.6552 8.2567
613 2 47.4607 39.559 8.22309
614 2 51.3442 39.5303 8.40028
615 2 55.5258 39.3749 8.49893
616 2 0.0133912 43.2288 8.042
617 2 3.94315 43.2176 8.37723
618 2 7.75882 43.2123 8.19897
619 2 11.8623 43.4329 8.30715
620 2 15.8205 43.4296 8.34322
621 2 19.9085 43.361 8.54067
622 2 23.835 43.4147 8.36193
623 2 27.9197 43.2499 8.26062
624 2 31.7706 43.4272 8.15788
625 2 35.772 43.2845 8.12824
626 2 39.6899 43.3394 8.1706
627 2 43.6191 43.608 8.1191
628 2 47.5769 43.3934 8.19701
629 2 51.5065 43.3113 8.19655
630 2 55.4809 43.3616 8.12515
631 2 0.12424 47.4855 8.50062
632 2 4.04346 47.1365 8.05698
633 2 7.98153 47.5088 8.35391
634 2 11.8481 47.5244 8.33536
635 2 15.8587 47.1205 8.32241
636 2 19.6453 47.1933 8.26101
637 2 23.855 47.5214 8.31731
638 2 27.889 47.3375 8.25008
639 2 31.6635 47.2778 8.18734
640 2 35.7484 47.2921 8.03212
641 2 39.8219 47.3075 8.26879
642 2 43.6832 47.3637 8.20309
643 2 47.6559 47.3545 8.19693
644 2 51.7099 47.2108 8.01246
645 2 55.6322 47.3841 8.25496
646 2 -0.0621856 51.2224 8.24615
647 2 4.01861 51.0217 8.20501
648 2 7.6177 51.2452 8.21747
649 2 11.8749 51.3581 8.26284
650 2 15.7488 51.3424 8.4506
651 2 19.8485 51.3553 8.41588
652 2 23.8948 51.3535 8.39228
653 2 27.9019 51.3894 8.13694
654 2 31.6308 51.2988 8.27269
655 2 35.6597 51.4415 8.27995
656 2 39.6082 51.1988 8.2665
657 2 43.6287 51.4195 8.22923
658 2 47.5645 51.3066 8.17002
659 2 51.3067 51.2985 8.23817
660 2 55.5014 51.3018 8.36477
661 2 -0.0253282 55.1548 8.32598
662 2 3.90372 55.1269 8.2664
663 2 7.54018 55.2549 8.34075
664 2 11.8579 55.0789 8.32946
665 2 15.8094 55.413 8.36151
666 2 19.937 55.2203 8.28581
667 2 23.7332 55.3103 8.40409
668 2 27.6609 55.2298 8.31563
669 2 31.4 55.3021 7.91473
670 2 35.5719 55.1693 8.21868
671 2 39.8472 55.3682 8.37637
672 2 43.6132 55.1954 8.06208
673 2 47.6012 55.0827 8.25397
674 2 51.5467 55.2113 8.34973
675 2 55.5288 55.0968 8.34645
676 2 0.0208172 59.2146 12.409
677 2 3.99275 59.3697 12.3374
678 2 7.91107 59.3536 12.2797
679 2 11.835 59.3057 12.2795
680 2 15.665 59.4378 12.2785
681 2 19.9577 59.2463 12.3603
682 2 23.8542 59.2901 12.2362
683 2 27.8934 59.2684 12.1695
684 2 31.9983 59.3323 12.0543
685 2 35.9204 59.0513 12.0487
686 2 39.7112 59.0956 12.2953
687 2 43.5953 59.2016 12.057
688 2 47.7427 59.0947 12.1123
689 2 51.5004 59.2097 12.2252
690 2 55.401 59.315 12.2906
691 2 -0.120251 3.93298 12.0828
692 2 3.98181 3.74081 12.1825
693 2 7.79832 3.80998 12.278
694 2 11.8568 3.88925 12.1947
695 2 15.8955 3.99507 12.1879
696 2 19.7463 3.95929 12.3104
697 2 23.5615 3.78169 12.1615
698 2 27.618 3.64255 12.1425
699 2 31.8772 3.76599 12.1783
700 2 35.7156 3.73645 12.0473
701 2 39.5749 3.4977 12.0752
702 2 43.4649 3.74095 12.1139
703 2 47.403 3.75682 12.4382
704 2 51.3145 3.93773 12.2194
705 2 55.3456 3.7784 12.3165
706 2 0.169809 7.77219 12.4462
707 2 3.98524 7.85003 12.3282
708 2 7.89534 7.77045 12.2973
709 2 11.7844 7.73923 12.3397
710 2 15.8457 7.76254 12.3916
711 2 19.8339 7.80118 12.1048
712 2 23.9574 7.61081 12.1761
713 2 27.7703 7.83713 12.4881
714 2 31.9701 7.66299 12.3095
715 2 35.7509 7.48056 12.1728
716 2 39.6878 7.65081 12.1035
717 2 43.7279 7.89949 12.2503
718 2 47.6366 7.7245 12.1919
719 2 51.4341 7.66249 12.1877
720 2 55.3215 7.62257 12.1544
721 2 0.108195 11.8404 12.3264
722 2 4.05416 11.7648 12.0417
723 2 8.00846 11.7239 12.1223
724 2 11.8662 11.7689 12.3079
725 2 15.6624 11.6481 12.1641
726 2 19.9232 11.7158 12.3427
727 2 23.9071 11.6844 12.3688
728 2 27.7462 11.7864 12.225
729 2 31.8063 11.4661 12.0843
730 2 35.8685 11.62 12.2933
731 2 39.6526 11.5856 12.0646
732 2 43.8486 11.5957 12.2342
733 2 47.7451 11.731 12.2217
734 2 51.5792 11.7043 12.3426
735 2 55.3661 11.6845 12.346
736 2 0.00822941 15.618 12.2919
737 2 4.06927 15.7629 12.521
738 2 8.06688 15.7868 12.1017
739 2 11.8714 15.8222 12.3975
740 2 15.8951 15.7707 12.1497
741 2 19.857 15.5544 12.1768
742 2 23.9177 15.6037 11.8154
743 2 27.8787 15.6714 12.1013
744 2 31.7852 15.5398 12.2946
745 2 35.7611 15.5831 12.2551
746 2 39.8094 15.7399 12.321
747 2 43.7381 15.5344 12.4437
748 2 47.4642 15.7307 12.2457
749 2 51.2762 15.7895 12.2524
750 2 55.4198 15.6727 12.1537
751 2 0.254115 19.6671 12.3663
752 2 4.0302 19.6528 12.1866
753 2 8.04096 19.6842 12.3022
754 2 12.2278 19.6005 12.1997
755 2 15.9917 19.8318 12.2295
756 2 19.9077 19.4978 12.2472
757 2 23.9753 19.6307 12.323
758 2 27.6338 19.7108 12.3972
759 2 31.8449 19.7272 12.1316
760 2 35.8197 19.519 12.1003
761 2 39.686 19.4776 12.1313
762 2 43.5873 19.6721 12.1104
763 2 47.7534 19.42 12.2858
764 2 51.6934 19.7134 12.2795
765 2 55.5318 19.5464 12.1879
766 2 59.4628 23.6106 12.287
767 2 3.94161 23.6321 12.4138
768 2 7.84765 23.8158 12.3221
769 2 12.0115 23.5794 12.3325
770 2 16.1145 23.5003 12.2737
771 2 19.7937 23.4201 12.2936
772 2 23.8813 23.754 12.2716
773 2 27.7711 23.5147 12.254
774 2 31.5959 23.745 12.176
775 2 35.5992 23.5074 12.3329
776 2 39.5591 23.5352 12.163
777 2 43.6365 23.5661 12.0439
778 2 47.6411 23.4932 12.3453
779 2 51.3676 23.5117 12.2899
780 2 55.5801 23.6436 12.1219
781 2 -0.0424551 27.7798 12.4882
782 2 3.95747 27.5782 12.3253
783 2 8.24587 27.669 12.2882
784 2 11.9375 27.7821 12.214
785 2 15.8218 27.5414 12.4122
786 2 19.7252 27.5714 12.2669
787 2 23.9897 27.736 12.241
788 2 27.7341 27.4862 12.0823
789 2 31.6182 27.5866 12.2893
790 2 35.6959 27.6007 12.2226
791 2 39.7583 27.5761 12.0751
792 2 43.5387 27.3976 12.2931
793 2 47.5195 27.3379 12.2854
794 2 51.4347 27.4886 12.2236
795 2 55.3611 27.5804 12.3149
796 2 -0.0824509 31.4573 12.2765
797 2 4.08219 31.5869 12.3709
798 2 7.91925 31.7336 12.3119
799 2 11.7875 31.7395 12.3089
800 2 15.6644 31.7215 12.3984
801 2 19.9612 31.5652 12.3217
802 2 23.8531 31.6003 12.3277
803 2 27.7302 31.5519 12.1856
804 2 31.6555 31.624 12.1879
805 2 35.6517 31.5612 12.2359
806 2 39.3842 31.6372 12.2742
807 2 43.3977 31.4969 12.2142
808 2 47.36 31.3799 12.2156
809 2 51.3387 31.2852 12.2968
810 2 55.4814 31.5424 12.2076
811 2 0.173924 35.4156 12.1064
812 2 3.81852 35.5536 12.2943
813 2 7.88242 35.7231 12.3676
814 2 11.8879 35.6068 12.4445
815 2 15.8321 35.5547 12.3262
816 2 19.9207 35.6205 12.4021
817 2 23.8716 35.509 12.0704
818 2 27.8099 35.3906 12.0334
819 2 31.7326 35.3391 12.0953
820 2 35.7842 35.4011 12.0683
821 2 39.7862 35.5411 12.1622
822 2 43.5393 35.5976 12.3096
823 2 47.6727 35.3047 12.1942
824 2 51.3273 35.4257 12.306
825 2 55.2214 35.3539 12.2511
826 2 0.0739757 39.5534 12.3088
827 2 3.94009 39.474 12.3932
828 2 7.95587 39.501 12.4686
829 2 11.9991 39.414 12.1886
830 2 15.8814 39.403 12.1417
831 2 19.7404 39.4388 12.3454
832 2 23.9352 39.4543 12.0312
833 2 28.0453 39.6242 12.2353
834 2 31.6531 39.4169 12.2139
835 2 35.657 39.393 12.1264
836 2 39.7245 39.4112 12.266
837 2 43.7366 39.4659 12.3193
838 2 47.4356 39.3602 12.1019
839 2 51.5739 39.3277 12.2631
840 2 55.4552 39.4721 12.4219
841 2 -0.00073199 43.5678 12.1996
842 2 3.79553 43.3528 12.3399
843 2 7.75933 43.6081 12.2163
844 2 11.8751 43.5085 12.1694
845 2 16.0766 43.3807 12.072
846 2 19.9977 43.3352 12.3515
847 2 23.8668 43.4 12.1959
848 2 27.8441 43.3559 12.2332
849 2 31.8818 43.3651 12.2104
850 2 35.7291 43.2556 11.9949
851 2 39.6726 43.5147 12.0121
852 2 43.586 43.3392 12.2228
853 2 47.7024 43.5343 12.1376
854 2 51.6736 43.2365 12.4534
855 2 55.4369 43.3221 12.2031
856 2 0.199514 47.4427 12.0524
857 2 3.99749 47.1316 12.4842
858 2 7.95612 47.3481 12.3638
859 2 11.8753 47.3926 12.2571
860 2 15.9632 47.5505 12.2813
861 2 19.9467 47.3678 12.3246
862 2 23.7656 47.4157 12.4075
863 2 27.4822 47.3456 12.304
864 2 31.9697 47.1976 12.0816
865 2 35.7432 47.2586 12.1654
866 2 39.6094 47.3716 12.1745
867 2 43.6097 47.3685 12.1401
868 2 47.6583 47.337 12.149
869 2 51.6141 47.295 12.0327
870 2 55.6017 47.2827 12.1698
871 2 -0.001093 51.2193 12.4521
872 2 4.23685 51.2348 12.2935
873 2 8.08945 51.241 12.1893
874 2 11.8291 51.6428 12.2699
875 2 15.9685 51.3089 12.286
876 2 19.9748 51.458 12.2028
877 2 23.8788 51.3604 12.426
878 2 27.7935 51.3137 12.1678
879 2 31.5846 51.2266 12.0406
880 2 35.6631 51.5291 11.8888
881 2 39.7446 51.2716 12.1158
882 2 43.7821 51.332 12.2915
883 2 47.746 51.3087 12.259
884 2 51.5937 51.1807 12.3686
885 2 55.4133 51.4149 12.2106
886 2 0.053223 55.1782 12.2524
887 2 3.9687 55.2252 12.2844
888 2 7.79672 55.3826 12.4127
889 2 11.6446 55.35 12.3422
890 2 15.7262 55.3264 12.3779
891 2 19.6611 55.3716 12.3121
892 2 23.9644 55.3175 12.1707
893 2 27.7514 55.4061 12.2611
894 2 31.8323 55.3732 12.1564
895 2 35.7957 55.2745 12.2937
896 2 39.7387 55.2256 12.3743
897 2 43.5888 55.1967 12.3361
898 2 47.5379 55.2636 12.292
899 2 51.4994 55.3041 12.1722
900 2 55.3693 55.4028 12.3181
901 2 -0.082502 59.2519 16.208
902 2 3.74481 59.2962 16.0885
903 2 7.86668 59.2635 16.3142
904 2 11.9087 59.2162 16.3162
905 2 15.9591 59.3256 16.3163
906 2 19.8843 59.1951 16.0213
907 2 23.9005 59.2656 16.3377
908 2 28.0902 59.413 16.0531
909 2 31.9969 -0.222256 16.2237
910 2 35.7458 59.2394 16.2168
911 2 39.5645 59.2078 16.297
912 2 43.5947 59.1607 16.1922
913 2 47.6043 59.3427 16.3537
914 2 51.4266 59.2722 16.2551
915 2 55.4504 59.1166 16.2523
916 2 59.3017 3.92365 16.1259
917 2 4.17193 3.88305 16.4857
918 2 7.8521 3.77762 16.4673
919 2 11.9132 3.73894 16.5158
920 2 15.7251 3.85476 16.3217
921 2 19.9597 3.71815 16.3493
922 2 23.9484 3.91477 16.2944
923 2 27.9814 3.96748 16.0922
924 2 31.8346 3.89132 16.2777
925 2 35.9264 3.64107 16.1578
926 2 39.8822 3.71285 16.2358
927 2 43.7238 3.91245 16.0298
928 2 47.6871 3.7675 16.1486
929 2 51.484 3.73862 16.3235
930 2 55.2693 3.71327 16.3146
931 2 0.0878896 7.6367 16.1288
932 2 4.11663 7.84329 15.9662
933 2 7.89724 7.80942 16.3221
934 2 11.8536 7.83833 16.26
935 2 16.0356 7.74097 16.133
936 2 19.979 7.73505 16.2265
937 2 23.9299 7.90071 16.2971
938 2 28.0098 7.9014 16.1139
939 2 31.7756 7.90186 16.0737
940 2 35.7137 7.65781 16.2767
941 2 39.8154 7.87858 16.1037
942 2 43.5113 7.91803 16.337
943 2 47.4674 7.87681 16.3455
944 2 51.5188 7.84048 16.2152
945 2 55.4179 7.55244 16.1504
946 2 0.0873288 11.7578 16.2288
947 2 4.07233 11.8213 16.2178
948 2 7.89766 11.9609 16.2383
949 2 12.0616 11.7038 16.0416
950 2 16.1692 12.0075 16.12
951 2 19.8706 11.5973 16.2294
952 2 23.9154 11.817 16.2511
953 2 27.7913 11.7027 16.3545
954 2 31.7154 11.8085 16.2553
955 2 35.8642 11.6998 16.2838
956 2 39.7269 11.5601 16.1601
957 2 43.7848 11.677 16.2412
958 2 47.6932 11.6438 16.1233
959 2 51.7753 11.806 16.0973
960 2 55.7152 11.9313 16.1835
961 2 0.0175653 15.6286 16.375
962 2 4.1731 15.5775 16.259
963 2 8.07534 15.7691 16.3207
964 2 11.7983 15.7468 16.2138
965 2 15.9854 15.8517 16.1051
966 2 19.846 15.8304 16.1213
967 2 23.779 15.613 15.9636
968 2 27.8866 15.6952 16.2073
969 2 32.0069 15.6735 16.0341
970 2 35.6983 15.6568 16.1577
971 2 39.5954 15.6306 16.1739
972 2 43.5397 15.8397 16.1447
973 2 47.6286 15.7811 16.1723
974 2 51.4177 15.6531 16.1054
975 2 55.5073 15.6995 16.2472
976 2 59.4961 19.743 16.2582
977 2 4.05287 19.5912 16.3579
978 2 8.03018 19.8885 16.1427
979 2 11.9204 19.5954 16.3394
980 2 15.7692 19.7941 16.2207
981 2 19.9948 19.8558 16.1174
982 2 23.9521 19.4346 16.1413
983 2 27.7015 19.625 15.9726
984 2 31.6796 19.9439 16.272
985 2 35.7218 19.8528 15.9928
986 2 39.6177 19.5829 16.1272
987 2 43.6114 19.7519 16.1921
988 2 47.5303 19.6683 16.3577
989 2 51.6628 19.6643 16.2884
990 2 55.5727 19.5762 16.1864
991 2 0.214193 23.6108 16.3475
992 2 3.99281 23.5918 16.3435