ITEM: TIMESTEP
41400
ITEM: NUMBER OF ATOMS
28125
ITEM: BOX BOUNDS xy xz yz pp pp pp
0.0000000000000000e+00 5.9369999999999997e+01 0.0000000000000000e+00
0.0000000000000000e+00 5.9369999999999997e+01 0.0000000000000000e+00
7.7990545096326969e-02 9.9422009454903815e+01 0.0000000000000000e+00
ITEM: ATOMS id type x y z
1 2 59.3726 59.1268 0.178709
2 2 3.92873 59.4567 0.414701
3 2 7.88642 59.1952 0.282555
4 2 11.6882 59.0975 0.427198
5 2 15.8447 59.1263 0.393688
6 2 19.7719 59.152 0.399285
7 2 23.4633 59.3187 0.453932
8 2 27.6919 59.1314 0.434439
9 2 31.7272 59.2616 0.177285
10 2 35.6257 59.0665 0.306318
11 2 39.5571 59.1987 0.229711
12 2 43.4268 59.158 0.380377
13 2 47.4227 59.093 0.404655
14 2 51.4858 -0.269282 0.160818
15 2 55.4048 59.19 0.197426
16 2 59.2038 3.6309 0.314873
17 2 3.86942 3.87764 0.376205
18 2 7.92558 3.97335 0.286901
19 2 11.8699 3.67616 0.277479
20 2 15.7363 3.64992 0.226842
21 2 19.6633 3.76343 0.323283
22 2 23.5294 3.6306 0.156944
23 2 27.6134 3.69811 0.190009
24 2 31.6229 3.65787 0.0659759
25 2 35.6762 3.74809 0.3169
26 2 39.5098 3.70907 0.150283
27 2 43.517 3.62915 0.248317
28 2 47.3875 3.86086 0.0720429
29 2 51.5274 3.86449 0.204084
30 2 55.3309 3.76691 0.38405
31 2 59.3562 7.86887 0.454091
32 2 3.92042 7.59907 0.263857
33 2 8.16704 7.88348 0.397382
34 2 12.0947 7.61654 0.384051
35 2 15.9594 7.76138 0.532618
36 2 19.8743 7.90229 0.396504
37 2 23.9367 7.57652 0.254515
38 2 27.7854 7.69912 0.0710018
39 2 31.5856 7.62058 0.266443
40 2 35.3877 7.8076 0.392902
41 2 39.6199 7.8842 0.285956
42 2 43.5751 8.09961 0.318802
43 2 47.3387 7.81065 0.337782
44 2 51.2639 7.79386 0.352855
45 2 55.4019 7.66339 0.294298
46 2 59.3793 11.499 0.176531
47 2 4.18018 11.8254 0.368524
48 2 8.06019 11.8489 0.327018
49 2 11.8305 11.5619 0.335925
50 2 15.6745 11.7192 0.314408
51 2 19.7295 11.6645 0.483343
52 2 23.6964 11.6167 0.41771
53 2 27.6511 11.5226 0.140823
54 2 31.7107 11.7407 0.379316
55 2 35.6599 11.6452 0.332225
56 2 39.4121 11.728 0.376338
57 2 43.4654 11.9193 0.249043
58 2 47.7148 11.8226 0.126285
59 2 51.5829 11.6031 0.175049
60 2 55.467 11.6099 0.0650153
61 2 0.000532249 15.8189 0.369273
62 2 4.09231 15.6564 0.311124
63 2 8.09665 15.6157 0.31859
64 2 11.8928 15.6653 0.408204
65 2 15.7316 15.6362 0.569532
66 2 19.7549 15.5844 0.443971
67 2 23.7842 15.6722 0.310752
68 2 27.5261 15.4984 0.241613
69 2 31.5325 15.5477 0.218723
70 2 35.7474 15.6127 0.214061
71 2 39.7101 15.6357 0.12151
72 2 43.7487 15.7382 0.0993394
73 2 47.4112 15.8191 0.474612
74 2 51.3963 15.6479 0.219033
75 2 55.5769 15.6826 0.299744
76 2 59.5238 19.5993 0.35231
77 2 3.93647 19.4732 0.375321
78 2 8.01109 19.6502 0.209126
79 2 11.8469 19.7549 0.450961
80 2 15.6892 19.83 0.38297
81 2 19.7173 19.5786 0.520987
82 2 23.5268 19.7142 0.225588
83 2 27.6544 19.5352 0.48217
84 2 31.7545 19.6214 0.347592
85 2 35.6309 19.4537 0.273938
86 2 39.4537 19.5038 0.161806
87 2 43.4094 19.5979 0.318999
88 2 47.5295 19.6639 0.385488
89 2 51.5346 19.7044 0.290978
90 2 55.4633 19.7104 0.429414
91 2 59.3907 23.647 0.4878
92 2 3.88112 23.5357 0.289319
93 2 7.77499 23.601 0.271224
94 2 11.7528 23.8026 0.334656
95 2 15.7222 23.6208 0.480555
96 2 19.8286 23.5778 0.376132
97 2 23.7203 23.6553 0.511076
98 2 27.6032 23.3936 0.296188
99 2 31.5339 23.488 0.482917
100 2 35.5605 23.5479 0.378045
101 2 39.553 23.6117 0.350032
102 2 43.4781 23.6029 0.343409
103 2 47.7036 23.7098 0.261155
104 2 51.6576 23.5509 0.352641
105 2 55.4786 23.6649 0.323242
106 2 59.4605 27.5886 0.391192
107 2 4.23645 27.3932 0.183149
108 2 7.86496 27.5118 0.316301
109 2 11.8344 27.5706 0.44881
110 2 15.7876 27.5758 0.47684
111 2 19.954 27.6289 0.337698
112 2 23.7234 27.5864 0.499435
113 2 27.7237 27.5052 0.320046
114 2 31.649 27.5966 0.25835
115 2 35.6025 27.5496 0.323068
116 2 39.6099 27.5739 0.293746
117 2 43.6944 27.6496 0.362493
118 2 47.3792 27.3653 0.430534
119 2 51.4364 27.5724 0.259176
120 2 55.3097 27.545 0.351803
121 2 0.0449824 31.4824 0.371346
122 2 4.04385 31.453 0.13462
123 2 7.9867 31.4185 0.517292
124 2 11.8848 31.8111 0.584647
125 2 15.9206 31.4188 0.40828
126 2 19.507 31.4355 0.264292
127 2 23.6186 31.5365 0.318625
128 2 27.7143 31.5149 0.451192
129 2 31.4056 31.416 0.231866
130 2 35.5432 31.4556 0.0877455
131 2 39.4426 31.3713 0.23057
132 2 43.3151 31.4413 0.354691
133 2 47.319 31.4535 0.330037
134 2 51.323 31.2922 0.1634
135 2 55.442 31.5805 0.255621
136 2 59.3863 35.2613 0.310216
137 2 3.97879 35.4145 0.308668
138 2 7.85765 35.5186 0.386692
139 2 11.9881 35.7636 0.429582
140 2 15.8183 35.5675 0.532368
141 2 19.6719 35.3178 0.452379
142 2 23.8279 35.3445 0.249121
143 2 27.4696 35.4418 0.292806
144 2 31.6782 35.3417 0.345605
145 2 35.5577 35.3583 0.242965
146 2 39.6271 35.6224 0.538204
147 2 43.5332 35.466 0.261596
148 2 47.5104 35.454 0.464178
149 2 51.3213 35.6224 0.441118
150 2 55.4249 35.4118 0.260155
151 2 59.239 39.3703 0.323508
152 2 4.00125 39.5601 0.459181
153 2 7.81561 39.3931 0.37859
154 2 11.9237 39.5589 0.375723
155 2 15.7946 39.485 0.272722
156 2 19.6234 39.3814 0.282498
157 2 23.7773 39.3287 0.370566
158 2 27.5805 39.3496 0.315684
159 2 31.5753 39.4091 0.337711
160 2 35.4287 39.551 0.409508
161 2 39.5311 39.4855 0.472664
162 2 43.3811 39.5081 0.341496
163 2 47.3653 39.3561 0.204356
164 2 51.4019 39.4194 0.366801
165 2 55.4614 39.5769 0.219489
166 2 -0.0629711 43.4334 0.152832
167 2 3.86615 43.3478 0.286772
168 2 7.97945 43.3195 0.362256
169 2 11.9068 43.1816 0.352532
170 2 15.8066 43.698 0.177227
171 2 19.9807 43.2378 0.178375
172 2 23.9428 43.4114 0.307764
173 2 27.7948 43.3481 0.328541
174 2 31.6553 43.3471 0.403491
175 2 35.678 43.2647 0.410638
176 2 39.5956 43.2553 99.4297
177 2 43.6491 43.3152 0.453613
178 2 47.4211 43.2237 0.321205
179 2 51.4262 43.2519 0.183905
180 2 55.4549 43.2048 0.362791
181 2 0.0901644 47.3556 0.145696
182 2 3.91401 47.3097 0.313577
183 2 7.71298 47.2294 0.201706
184 2 11.7728 47.2202 0.439189
185 2 15.5945 47.3138 0.111322
186 2 19.7132 47.1895 0.200353
187 2 23.6992 47.281 0.226588
188 2 27.759 47.4128 0.365318
189 2 31.504 47.5002 0.448646
190 2 35.7777 47.1821 0.289774
191 2 39.7592 47.2573 0.346773
192 2 43.698 47.3159 0.130848
193 2 47.6081 47.2911 0.298761
194 2 51.4846 47.2101 0.143407
195 2 55.4604 47.2655 0.322301
196 2 -0.0112318 51.1697 0.340355
197 2 3.91801 51.3373 0.448236
198 2 7.81596 51.2028 0.423541
199 2 11.831 51.0682 0.440114
200 2 15.7133 51.2301 0.430532
201 2 19.772 51.3612 0.432206
202 2 23.7249 51.3583 0.325463
203 2 27.56 51.2323 0.216248
204 2 31.6964 51.3164 0.225479
205 2 35.467 51.2387 0.29263
206 2 39.5772 51.3216 0.349249
207 2 43.6241 51.1238 0.297769
208 2 47.6064 51.3158 0.354772
209 2 51.5694 51.2719 0.271217
210 2 55.4165 51.3897 0.456652
211 2 59.2165 55.1557 0.243533
212 2 4.06387 55.3314 0.343591
213 2 7.96119 55.1839 0.370419
214 2 11.8732 55.1111 0.241976
215 2 15.8121 55.2115 0.395746
216 2 19.6513 55.1146 0.429467
217 2 23.7635 55.2091 0.285039
218 2 27.5877 55.3292 0.391946
219 2 31.8098 55.2829 0.292758
220 2 35.7589 55.4128 0.425636
221 2 39.671 55.2482 0.370713
222 2 43.489 55.2973 0.453003
223 2 47.535 55.1764 0.316889
224 2 51.3354 55.1397 0.407768
225 2 55.5018 55.2927 0.361062
226 2 0.138444 59.0089 4.16068
227 2 4.17616 59.3159 4.38831
228 2 7.95202 59.1922 4.46708
229 2 11.7206 59.2287 4.39343
230 2 15.773 59.1778 4.407
231 2 19.8212 59.3197 4.29752
232 2 23.9219 59.0791 4.33308
233 2 27.7809 59.1375 4.46593
234 2 31.6614 59.0937 4.23994
235 2 35.6806 59.2358 4.37877
236 2 39.6546 59.2753 4.33034
237 2 43.8159 59.2444 4.45668
238 2 47.8397 59.2816 4.18832
239 2 51.4703 59.2339 4.22828
240 2 55.396 59.1075 4.29462
241 2 59.4191 3.65444 4.31073
242 2 4.00855 3.68252 4.32703
243 2 7.63273 3.94351 4.46189
244 2 11.9554 3.7223 4.31177
245 2 15.8097 3.68618 4.19073
246 2 19.8204 3.94509 4.29742
247 2 23.6087 3.90193 4.3004
248 2 27.7472 3.64694 4.29935
249 2 31.7919 3.8109 4.17898
250 2 35.7898 3.98688 4.41856
251 2 39.6588 3.82827 4.19025
252 2 43.5732 3.75535 4.25118
253 2 47.728 3.80359 4.22022
254 2 51.5619 3.83132 4.18388
255 2 55.3418 3.81057 4.22467
256 2 59.5043 7.53059 4.18066
257 2 3.97737 7.74047 4.29175
258 2 7.8651 7.82851 4.46295
259 2 11.947 7.70691 4.57255
260 2 15.6499 7.56837 4.32251
261 2 19.6629 7.61206 4.25666
262 2 23.8841 7.6668 4.31939
263 2 27.7663 7.87692 4.28964
264 2 31.614 7.69467 4.07403
265 2 35.4937 7.63198 4.09587
266 2 39.5447 7.85634 4.17067
267 2 43.6146 7.93241 4.34067
268 2 47.6074 7.66529 4.30756
269 2 51.4724 7.94949 4.2518
270 2 55.4951 7.95067 4.33267
271 2 59.4277 11.7452 4.34721
272 2 3.7794 11.7188 4.38903
273 2 8.09438 11.5529 4.26032
274 2 11.8177 11.7929 4.46302
275 2 15.7853 11.8029 4.44756
276 2 19.5562 11.7143 4.47658
277 2 23.64 11.5473 4.26814
278 2 27.6677 11.7075 4.22191
279 2 31.6644 11.7655 4.29144
280 2 35.6906 11.7315 4.3235
281 2 39.629 11.7279 4.33491
282 2 43.6766 11.846 4.30754
283 2 47.6246 11.8713 4.22848
284 2 51.6097 11.6437 4.23514
285 2 55.6137 11.8415 4.32333
286 2 59.344 15.6191 4.24283
287 2 3.9985 15.6446 4.31675
288 2 7.87504 15.5427 4.37668
289 2 11.8306 15.8387 4.34524
290 2 15.8108 15.7513 4.42794
291 2 19.9472 15.7227 4.45421
292 2 23.8485 15.6365 4.19195
293 2 27.7276 15.3677 4.25398
294 2 31.7124 15.6403 4.06297
295 2 35.7296 15.6011 4.3592
296 2 39.6138 15.5974 4.34677
297 2 43.6153 15.5933 4.13906
298 2 47.7361 15.6733 4.29443
299 2 51.667 15.7023 4.26775
300 2 55.6683 15.7971 4.35154
301 2 59.4096 19.6202 4.35842
302 2 4.19266 19.6966 4.2982
303 2 7.92041 19.581 4.3645
304 2 11.8352 19.5563 4.42844
305 2 15.6621 19.7532 4.53187
306 2 19.7409 19.5985 4.35101
307 2 23.7336 19.6109 4.21472
308 2 27.6302 19.3266 4.2477
309 2 31.6146 19.54 4.31916
310 2 35.5667 19.5512 4.22188
311 2 39.786 19.659 4.13342
312 2 43.7198 19.4983 4.08529
313 2 47.6586 19.5531 4.2464
314 2 51.4864 19.5012 4.31597
315 2 55.4298 19.7326 4.17503
316 2 59.1939 23.4757 4.26234
317 2 3.88133 23.7297 4.37542
318 2 7.98892 23.6337 4.27809
319 2 11.953 23.8061 4.39951
320 2 16.0027 23.5793 4.40301
321 2 19.7553 23.4721 4.35652
322 2 23.9557 23.5799 4.35579
323 2 27.5441 23.4894 4.30417
324 2 31.6759 23.5569 4.54421
325 2 35.7217 23.7153 4.33678
326 2 39.8336 23.6497 4.04526
327 2 43.6419 23.3671 4.29771
328 2 47.4419 23.5368 4.45368
329 2 51.6269 23.556 4.22201
330 2 55.5455 23.6059 4.26233
331 2 59.6123 27.6384 4.5648
332 2 4.06745 27.4941 4.0963
333 2 7.87718 27.6055 4.41654
334 2 11.9363 27.5809 4.46806
335 2 15.8244 27.4444 4.34697
336 2 19.8704 27.487 4.31082
337 2 23.756 27.5122 4.49615
338 2 27.7082 27.5633 4.33684
339 2 31.5271 27.4633 4.22629
340 2 35.4866 27.6556 4.28203
341 2 39.4159 27.5439 4.20108
342 2 43.6898 27.4634 4.26454
343 2 47.5623 27.5769 4.45351
344 2 51.3609 27.3702 4.20213
345 2 55.4447 27.6634 4.2233
346 2 0.386811 31.4604 4.26656
347 2 4.10463 31.4716 4.41113
348 2 7.92845 31.5387 4.42505
349 2 11.9876 31.4951 4.42806
350 2 15.9016 31.3485 4.22773
351 2 19.7926 31.5738 4.40327
352 2 23.7834 31.7189 4.39369
353 2 27.7528 31.4451 4.38689
354 2 31.6152 31.4528 4.23404
355 2 35.6516 31.3832 4.17277
356 2 39.4762 31.4366 4.20992
357 2 43.5502 31.4193 4.43559
358 2 47.4667 31.393 4.36765
359 2 51.5044 31.4189 4.17944
360 2 55.4757 31.3934 4.42541
361 2 -0.10257 35.3922 4.0751
362 2 3.93042 35.5731 4.39802
363 2 7.79249 35.5868 4.30311
364 2 11.8286 35.6427 4.3184
365 2 15.9197 35.4943 4.40057
366 2 19.9043 35.5606 4.2705
367 2 23.5744 35.3285 4.25267
368 2 27.8904 35.508 4.34927
369 2 31.6268 35.4132 4.44762
370 2 35.4495 35.305 4.34153
371 2 39.2934 35.6029 4.20282
372 2 43.4717 35.3853 4.22199
373 2 47.4221 35.2913 4.3875
374 2 51.4811 35.2469 4.24868
375 2 55.4867 35.3538 4.2637
376 2 0.110359 39.4194 4.28656
377 2 4.03203 39.668 4.29138
378 2 7.89342 39.4628 4.45851
379 2 11.8387 39.4785 4.56349
380 2 15.9535 39.6011 4.30694
381 2 19.722 39.624 4.18176
382 2 23.8679 39.3918 4.31601
383 2 27.7999 39.5045 4.00232
384 2 31.5516 39.4301 4.38091
385 2 35.4633 39.3251 4.22359
386 2 39.3882 39.239 4.2878
387 2 43.385 39.2773 4.34876
388 2 47.5046 39.3929 4.37319
389 2 51.4309 39.2304 4.20827
390 2 55.3572 39.4491 4.37406
391 2 -0.006043 43.4988 4.38238
392 2 3.9766 43.3765 4.3996
393 2 7.94724 43.351 4.39754
394 2 11.7907 43.2684 4.18097
395 2 15.6847 43.4183 4.26994
396 2 19.8263 43.4911 4.25931
397 2 23.7232 43.3034 4.4504
398 2 27.7486 43.3164 4.41282
399 2 31.6899 43.5024 4.27017
400 2 35.6033 43.4289 4.32825
401 2 39.4133 43.3646 4.29742
402 2 43.6583 43.3475 4.23939
403 2 47.5364 43.3429 4.11994
404 2 51.6949 43.2473 4.19742
405 2 55.5527 43.1833 4.31779
406 2 59.3762 47.1824 4.35911
407 2 3.96015 47.3116 4.28552
408 2 7.88938 47.2702 4.47324
409 2 11.8047 47.3084 4.30848
410 2 15.8217 47.3061 4.24095
411 2 19.708 47.3495 4.15445
412 2 23.6466 47.3357 4.34273
413 2 27.7397 47.3551 4.16056
414 2 31.8817 47.3326 4.27808
415 2 35.7091 47.335 4.25742
416 2 39.8671 47.383 4.19431
417 2 43.7436 47.2271 4.27572
418 2 47.582 47.2791 4.24951
419 2 51.5489 47.2255 4.31724
420 2 55.4125 47.202 4.28133
421 2 -0.0894067 51.1739 4.32445
422 2 3.86188 51.3196 4.18362
423 2 7.9087 51.2141 4.33276
424 2 11.8932 51.376 4.41335
425 2 15.9547 51.2197 4.29576
426 2 19.8734 51.2078 4.13949
427 2 23.7537 51.1352 4.26053
428 2 27.5957 51.0628 4.19458
429 2 31.8513 51.1163 4.27436
430 2 35.798 51.3792 4.33907
431 2 39.676 51.5069 4.24918
432 2 43.5618 51.1249 4.29744
433 2 47.5905 51.2653 4.32103
434 2 51.385 51.2367 4.37861
435 2 55.2356 51.158 4.33451
436 2 0.141064 55.2462 4.34503
437 2 3.93516 55.166 4.24518
438 2 7.95481 55.1897 4.57785
439 2 11.9542 55.2972 4.26462
440 2 15.9043 55.0966 4.21259
441 2 19.6802 55.2358 4.29938
442 2 23.9058 55.1405 4.30453
443 2 27.6701 55.1203 4.40076
444 2 31.7509 55.4133 3.97513
445 2 35.9425 55.2854 4.35735
446 2 39.8057 55.3689 4.40848
447 2 43.5774 55.1247 4.21493
448 2 47.6707 55.2061 4.2209
449 2 51.5308 55.2255 4.32603
450 2 55.564 55.1799 4.19512
451 2 0.0823145 59.1623 8.16079
452 2 3.84789 59.3025 8.38682
453 2 8.06454 59.3303 8.46378
454 2 11.9369 59.3042 8.42396
455 2 15.9378 59.0179 8.37045
456 2 19.9253 59.1899 8.23551
457 2 23.6973 59.2014 8.12799
458 2 27.813 59.201 8.40474
459 2 31.8579 -0.215797 8.39136
460 2 35.6661 59.069 8.23338
461 2 39.7242 59.1952 8.3199
462 2 43.8599 59.2038 8.22356
463 2 47.7577 59.2437 8.24029
464 2 51.5411 -0.180692 8.35449
465 2 55.4486 59.1162 8.27312
466 2 -0.0298839 3.64857 8.31711
467 2 3.96494 3.77382 8.28327
468 2 7.75594 4.01127 8.32039
469 2 11.8199 3.81588 8.28958
470 2 15.8274 3.64213 8.25639
471 2 19.7068 3.8303 8.12566
472 2 23.805 3.65015 8.37208
473 2 27.785 3.66143 8.26895
474 2 31.7737 3.96332 8.2159
475 2 35.4984 3.64617 8.30385
476 2 39.6038 3.84251 8.12137
477 2 43.7373 3.82814 8.17897
478 2 47.7108 3.94494 8.09871
479 2 51.7829 3.74882 8.20102
480 2 55.493 3.82764 8.25072
481 2 0.188089 7.71019 8.40266
482 2 4.05082 7.64227 8.21832
483 2 7.98747 7.86126 8.2945
484 2 11.7901 7.65386 8.5876
485 2 15.7467 7.75347 8.40512
486 2 19.8298 7.84267 8.17375
487 2 23.7849 7.6239 8.38579
488 2 27.7269 7.40499 8.23862
489 2 31.6492 7.81272 8.23837
490 2 35.7163 7.81113 8.08395
491 2 39.8282 7.91853 8.10781
492 2 43.7671 7.73628 8.30855
493 2 47.7712 7.68546 8.37438
494 2 51.7284 7.79752 7.85325
495 2 55.557 7.89861 8.41125
496 2 0.0562883 11.7373 8.38583
497 2 4.13267 11.6689 8.26022
498 2 8.09529 11.8388 8.34142
499 2 11.9604 11.5985 8.28037
500 2 15.8799 11.5205 8.37948
501 2 19.5156 11.6754 8.43265
502 2 23.6696 11.5933 8.30637
503 2 27.5882 11.5447 8.28325
504 2 31.9429 11.6294 8.13423
505 2 35.7642 11.7375 8.13417
506 2 39.7258 11.7026 8.2227
507 2 43.7577 11.7736 8.05123
508 2 47.6843 11.6858 8.22238
509 2 51.4668 11.8043 8.33885
510 2 55.502 11.6698 8.29336
511 2 0.038154 15.5759 8.2623
512 2 4.05007 15.5323 8.33902
513 2 7.96539 15.5589 8.20877
514 2 11.8834 15.6287 8.35557
515 2 15.8901 15.7058 8.36303
516 2 20.0617 15.5843 8.36337
517 2 23.7404 15.6243 8.14989
518 2 27.6408 15.4588 7.90899
519 2 31.8029 15.6414 8.41517
520 2 35.5963 15.6353 8.03007
521 2 39.8553 15.5891 8.33184
522 2 43.6733 15.8215 8.44438
523 2 47.6895 15.5537 8.1967
524 2 51.635 15.5599 8.22261
525 2 55.5126 15.8326 8.33255
526 2 0.215405 19.5161 8.31338
527 2 3.9173 19.4841 8.33955
528 2 7.84488 19.5486 8.32496
529 2 11.8406 19.7352 8.41769
530 2 15.7129 19.6592 8.44035
531 2 19.7249 19.6851 8.26701
532 2 23.8428 19.6866 8.34338
533 2 27.6095 19.4271 8.32173
534 2 31.5756 19.4489 8.4018
535 2 35.6731 19.6214 8.28109
536 2 39.6977 19.6671 8.2563
537 2 43.6766 19.6444 8.10119
538 2 47.6023 19.487 8.41784
539 2 51.5618 19.801 8.41191
540 2 55.4711 19.6962 8.29066
541 2 -0.07501 23.7216 8.34039
542 2 4.12474 23.5818 8.31751
543 2 8.14707 23.4615 8.2475
544 2 11.7193 23.535 8.23554
545 2 15.7067 23.5755 8.30208
546 2 20.062 23.655 8.2294
547 2 23.6379 23.7294 8.44666
548 2 27.7413 23.4832 8.32811
549 2 31.5704 23.382 8.2427
550 2 35.5089 23.3944 8.34167
551 2 39.6303 23.5845 8.12317
552 2 43.6418 23.5392 8.25829
553 2 47.4413 23.3639 8.1045
554 2 51.5079 23.6561 8.27412
555 2 55.5086 23.6358 8.3994
556 2 0.150045 27.4589 8.24373
557 2 3.92291 27.6709 8.38657
558 2 7.87424 27.55 8.47243
559 2 12.2146 27.5597 8.17081
560 2 15.815 27.6947 8.33313
561 2 19.8574 27.586 8.24125
562 2 23.7319 27.5135 8.17092
563 2 27.6624 27.6396 8.19403
564 2 31.7963 27.4718 8.38508
565 2 35.6405 27.4868 8.09567
566 2 39.5987 27.4169 8.33211
567 2 43.5384 27.4563 8.36847
568 2 47.7391 27.5693 8.32877
569 2 51.599 27.56 8.10408
570 2 55.3775 27.4619 8.03947
571 2 0.155267 31.5728 8.26542
572 2 3.89822 31.6769 8.45703
573 2 7.96456 31.5709 8.34583
574 2 11.9185 31.4638 8.38863
575 2 16.1285 31.6372 8.22447
576 2 19.8869 31.3828 8.313
577 2 23.8329 31.4914 8.33589
578 2 27.7957 31.6279 8.37476
579 2 31.5875 31.2041 8.29985
580 2 35.6408 31.4427 8.3502
581 2 39.7778 31.3542 8.15819
582 2 43.7009 31.4234 8.30247
583 2 47.6409 31.5805 8.2736
584 2 51.6129 31.6242 8.19587
585 2 55.5515 31.5597 8.39073
586 2 0.0137745 35.5993 8.24208
587 2 4.09162 35.2991 8.3102
588 2 7.95766 35.4412 8.44402
589 2 11.8708 35.3916 8.19456
590 2 15.848 35.3761 8.36008
591 2 19.743 35.3251 8.33575
592 2 23.7032 35.4283 8.38569
593 2 27.6115 35.6039 8.29447
594 2 31.8413 35.4882 8.36831
595 2 35.6172 35.3776 8.1424
596 2 39.4423 35.2429 8.10331
597 2 43.4147 35.3585 8.2499
598 2 47.4971 35.4634 8.17842
599 2 51.4186 35.5307 8.17065
600 2 55.5779 35.593 8.10518
601 2 0.123117 39.6069 8.14493
602 2 4.08753 39.4911 8.38889
603 2 7.92182 39.3861 8.29982
604 2 11.9017 39.3676 8.39424
605 2 15.8143 39.38 8.24521
606 2 19.9247 39.3963 8.32659
607 2 23.7578 39.2293 8.20322
608 2 27.6042 39.3533 8.44501
609 2 31.7544 39.4676 8.40401
610 2 35.5278 39.472 8.35853
611 2 39.387 39.2652 8.2157
612 2 43.4732 39.176 8.1047
613 2 47.5523 39.361 8.22423
614 2 51.4452 39.4361 8.35971
615 2 55.3803 39.2647 8.3984
616 2 0.10189 43.3956 8.2478
617 2 3.90367 43.4287 8.44477
618 2 7.89353 43.3545 8.26346
619 2 11.8357 43.4548 8.24091
620 2 15.8074 43.4216 8.36805
621 2 19.9091 43.4061 8.56775
622 2 23.9055 43.4211 8.12697
623 2 27.7071 43.235 8.30928
624 2 31.6443 43.475 8.30764
625 2 35.7215 43.3562 8.22063
626 2 39.5599 43.1243 8.19038
627 2 43.4265 43.3166 8.09971
628 2 47.5287 43.1664 8.14435
629 2 51.4504 43.214 8.31177
630 2 55.3071 43.3513 8.33284
631 2 0.090156 47.474 8.53959
632 2 4.02044 47.39 8.31885
633 2 8.04266 47.4698 8.58282
634 2 12.0014 47.4405 8.43901
635 2 15.8517 47.3302 8.31572
636 2 19.8043 47.2526 8.30834
637 2 23.9387 47.375 8.23798
638 2 27.874 47.2359 8.24494
639 2 31.76 47.3732 8.17814
640 2 35.8675 47.2642 8.2442
641 2 39.801 47.4277 8.24147
642 2 43.5888 47.289 8.16941
643 2 47.6138 47.1745 8.29783
644 2 51.4054 47.2019 8.1957
645 2 55.3934 47.2762 8.35264
646 2 0.0545796 51.2349 8.31178
647 2 3.95012 51.2593 8.32829
648 2 7.82266 51.3765 8.5591
649 2 11.9182 51.3818 8.30791
650 2 15.9273 51.3291 8.34426
651 2 19.966 51.2417 8.27606
652 2 23.8487 51.4178 8.30856
653 2 27.9442 51.404 7.99587
654 2 31.8782 51.3729 8.24953
655 2 35.9018 51.4554 8.27211
656 2 39.5536 51.1088 8.30785
657 2 43.7509 51.3319 8.22692
658 2 47.6338 51.3555 8.18114
659 2 51.4179 51.1746 8.26359
660 2 55.4241 51.3289 8.103
661 2 0.0818303 55.2643 8.17683
662 2 3.83942 55.3122 8.4661
663 2 7.89118 55.3341 8.52725
664 2 11.7782 55.1263 8.31362
665 2 15.9657 55.406 8.46136
666 2 20.0095 55.1642 8.12744
667 2 23.8956 55.3264 8.29213
668 2 27.7255 55.1545 8.27115
669 2 31.7177 55.11 8.34103
670 2 35.7187 55.1005 8.28893
671 2 39.9084 55.2783 8.34858
672 2 43.6715 55.341 8.20937
673 2 47.4428 55.3035 8.18342
674 2 51.7265 55.1745 8.19337
675 2 55.5934 55.1471 8.0795
676 2 0.125618 59.1605 12.3816
677 2 3.99803 59.2003 12.2522
678 2 8.04643 59.2983 12.3467
679 2 11.8915 59.2494 12.3342
680 2 15.9155 59.1978 12.0473
681 2 19.7629 59.3047 12.0895
682 2 23.8019 59.0522 12.3261
683 2 27.8599 59.0031 12.2923
684 2 31.9275 59.1496 12.2688
685 2 35.8297 59.2966 12.0628
686 2 40.0299 59.2439 12.2015
687 2 43.7366 59.3679 11.9209
688 2 47.6894 59.2098 12.1348
689 2 51.4767 59.2759 12.237
690 2 55.3843 59.2689 12.307
691 2 -0.107886 3.65857 12.2415
692 2 4.08986 3.63385 12.2408
693 2 7.87166 3.877 12.493
694 2 12.0953 3.87663 12.2112
695 2 15.9163 3.90925 12.0836
696 2 19.8818 3.88632 12.3882
697 2 23.5598 3.68086 12.1346
698 2 27.5256 3.60545 11.9349
699 2 31.8078 3.68063 12.1346
700 2 35.7433 3.85731 12.2431
701 2 39.6176 3.90198 12.1413
702 2 43.6681 3.69118 12.1372
703 2 47.3678 3.86747 12.4036
704 2 51.6453 3.85951 12.1312
705 2 55.4335 3.87426 12.2967
706 2 0.149005 7.8521 12.4491
707 2 3.96093 7.80384 12.2546
708 2 7.89748 7.70549 12.4186
709 2 11.9344 7.67831 12.4398
710 2 15.8154 7.77231 12.4413
711 2 19.662 7.85372 12.3743
712 2 23.7079 7.67966 12.0046
713 2 27.9055 7.8362 12.1821
714 2 31.8766 7.73178 12.1115
715 2 35.7453 7.74734 12.2553
716 2 39.8625 7.65501 12.1608
717 2 43.7665 7.83453 12.0018
718 2 47.6247 7.63454 12.2157
719 2 51.649 7.67759 12.2007
720 2 55.5693 7.78971 12.2388
721 2 0.100287 11.8515 12.2787
722 2 4.00861 11.7696 12.1045
723 2 7.88669 11.7316 12.3177
724 2 11.827 11.7091 12.4106
725 2 15.7594 11.8062 12.1512
726 2 19.9917 11.7345 12.3228
727 2 23.609 11.9421 12.2365
728 2 27.7566 11.775 12.1059
729 2 31.7494 11.5335 11.9584
730 2 35.8286 11.7504 12.0899
731 2 39.6788 11.564 12.1499
732 2 43.7832 11.5362 12.1834
733 2 47.6225 11.6177 12.1673
734 2 51.5319 11.503 12.2602
735 2 55.5089 11.661 12.3334
736 2 -0.11037 15.7215 12.3408
737 2 3.97261 15.7471 12.3126
738 2 7.93977 15.6739 12.2764
739 2 11.744 15.7403 12.3604
740 2 15.9652 15.6808 12.1656
741 2 19.8196 15.7024 12.2033
742 2 23.9495 15.6992 11.9694
743 2 27.8524 15.8298 12.2318
744 2 31.7152 15.5899 12.2349
745 2 35.8416 15.6318 12.2136
746 2 39.9797 15.5367 12.2389
747 2 43.6947 15.4569 12.285
748 2 47.4974 15.7097 12.2286
749 2 51.3559 15.7451 12.2231
750 2 55.3099 15.6914 12.1964
751 2 0.12536 19.5031 12.3147
752 2 3.97276 19.7434 12.2345
753 2 7.70838 19.8152 12.2516
754 2 11.9965 19.549 12.4071
755 2 15.9647 19.7663 12.3115
756 2 19.7488 19.6988 12.3018
757 2 23.8468 19.7447 12.3506
758 2 27.8326 19.6534 12.3406
759 2 31.825 19.5903 12.0168
760 2 35.8502 19.5421 12.089
761 2 39.7958 19.5223 12.1685
762 2 43.7843 19.7263 12.2291
763 2 47.8001 19.6257 12.3012
764 2 51.6684 19.8204 12.287
765 2 55.3674 19.7318 12.2685
766 2 59.4227 23.6103 12.0938
767 2 4.01221 23.7833 12.0339
768 2 7.97979 23.7328 12.0821
769 2 12.0208 23.6793 12.2615
770 2 15.8314 23.6581 12.3224
771 2 19.9082 23.5189 12.2427
772 2 23.9945 23.7203 12.1922
773 2 27.733 23.4819 12.2081
774 2 31.793 23.5506 12.0529
775 2 35.5888 23.6129 12.3399
776 2 39.7441 23.5852 12.3886
777 2 43.7201 23.7545 12.1471
778 2 47.6055 23.541 12.2597
779 2 51.3684 23.5208 12.3732
780 2 55.5286 23.6273 12.1168
781 2 -0.00330692 27.6472 12.2257
782 2 4.06861 27.5887 12.1835
783 2 8.2023 27.5835 12.1769
784 2 12.1966 27.5739 12.2664
785 2 16.0611 27.6038 12.2201
786 2 19.6859 27.5449 12.2726
787 2 24.0567 27.5028 12.3689
788 2 27.7642 27.3424 12.2273
789 2 31.7558 27.4442 12.1992
790 2 35.7094 27.4514 12.2877
791 2 39.7463 27.4857 12.2623
792 2 43.7642 27.5976 12.2558
793 2 47.7511 27.652 12.2868
794 2 51.4978 27.7589 12.3219
795 2 55.4414 27.5265 12.3014
796 2 -0.159365 31.6635 12.3153
797 2 4.06461 31.5416 12.3493
798 2 8.01516 31.5319 12.2948
799 2 11.8368 31.7997 12.2908
800 2 15.8213 31.5862 12.3124
801 2 19.7503 31.3527 12.189
802 2 23.813 31.4972 12.3523
803 2 27.8099 31.4653 12.2537
804 2 31.8014 31.3856 12.2319
805 2 35.8052 31.5296 12.3203
806 2 39.3466 31.485 12.2064
807 2 43.5838 31.4824 12.2169
808 2 47.6119 31.8199 12.0242
809 2 51.5475 31.4203 12.228
810 2 55.591 31.5125 12.1389
811 2 0.141406 35.5322 12.2493
812 2 3.8852 35.4225 12.3609
813 2 7.92942 35.6799 12.4271
814 2 12.0258 35.4928 12.3118
815 2 16.0649 35.4525 12.2599
816 2 19.9181 35.308 12.2194
817 2 23.8989 35.3582 12.3047
818 2 27.6803 35.4304 12.4438
819 2 31.8779 35.5999 12.2604
820 2 35.9044 35.5423 12.2933
821 2 39.7557 35.5023 12.0786
822 2 43.5184 35.4887 12.2702
823 2 47.6474 35.4208 12.3023
824 2 51.4619 35.6001 12.1874
825 2 55.5278 35.5623 12.288
826 2 0.147705 39.6415 12.2462
827 2 4.26847 39.4265 12.2951
828 2 8.10386 39.427 12.4782
829 2 12.0263 39.3202 12.2413
830 2 15.9374 39.5742 12.1896
831 2 19.7434 39.446 12.4039
832 2 23.8722 39.3677 12.2226
833 2 27.8459 39.691 12.3813
834 2 31.8825 39.4375 12.5072
835 2 35.7157 39.4434 12.3513
836 2 39.7972 39.1818 12.2627
837 2 43.5069 39.3261 12.3376
838 2 47.3698 39.2494 12.1625
839 2 51.6206 39.2297 12.2174
840 2 55.5563 39.3889 12.3915
841 2 0.0175712 43.5818 12.1464
842 2 4.1081 43.4383 12.3501
843 2 8.06835 43.5636 12.1886
844 2 11.8892 43.3318 12.3308
845 2 15.9343 43.3831 12.2889
846 2 20.0157 43.4356 12.2527
847 2 23.8198 43.6032 12.1305
848 2 27.7658 43.4085 12.2341
849 2 31.7242 43.4733 12.349
850 2 35.7129 43.2811 12.264
851 2 39.7465 43.1889 11.9912
852 2 43.4851 43.1476 12.1655
853 2 47.4648 43.3672 11.9991
854 2 51.4988 43.308 12.5325
855 2 55.5363 43.4879 12.2612
856 2 0.195032 47.5221 12.1892
857 2 4.0046 47.3516 12.3872
858 2 7.91641 47.3162 12.4593
859 2 12.0347 47.3387 12.2735
860 2 15.8355 47.5119 12.3897
861 2 19.9603 47.3683 12.1715
862 2 23.7628 47.3331 12.1484
863 2 27.7226 47.2892 12.2063
864 2 31.8404 47.2351 12.2727
865 2 35.7052 47.327 12.2916
866 2 39.5274 47.5098 12.3767
867 2 43.5265 47.2257 12.2087
868 2 47.2917 47.2879 12.0083
869 2 51.3857 47.1569 12.0802
870 2 55.4224 47.2935 12.321
871 2 -0.0121705 51.4219 12.479
872 2 4.12013 51.4486 12.3715
873 2 8.00208 51.3009 12.2895
874 2 12.0553 51.4605 12.4403
875 2 15.9518 51.2604 12.2359
876 2 19.9804 51.2229 12.0869
877 2 23.8677 51.2368 12.2549
878 2 27.7709 51.1192 11.9936
879 2 31.7579 51.139 12.2252
880 2 35.7129 51.3576 12.0744
881 2 39.9098 51.1003 12.2148
882 2 43.6955 51.3337 12.1599
883 2 47.6219 51.2249 12.2886
884 2 51.5043 51.0557 12.1425
885 2 55.3846 51.2945 12.1729
886 2 -0.0695836 55.2455 12.1427
887 2 4.02303 55.3127 12.2277
888 2 7.9173 55.3059 12.3964
889 2 11.7562 55.2999 12.425
890 2 15.8127 55.1859 12.2618
891 2 19.8325 55.2661 12.1736
892 2 23.7529 55.191 12.2808
893 2 27.9177 55.2264 12.3491
894 2 31.7447 55.1903 12.2424
895 2 35.8096 55.2768 12.1015
896 2 39.8827 55.0525 12.1747
897 2 43.8315 55.1836 12.2036
898 2 47.4468 55.264 12.2479
899 2 51.5358 55.2541 12.1951
900 2 55.6172 55.3372 12.283
901 2 -0.0319267 59.2433 16.2398
902 2 3.76795 59.2148 16.0528
903 2 7.98126 59.335 16.1957
904 2 11.8599 59.4233 16.2053
905 2 16.0401 59.1826 16.2231
906 2 19.8922 59.1301 15.9304
907 2 23.9269 59.0339 16.1609
908 2 27.8973 59.4703 15.9379
909 2 32.0006 -0.0957796 16.2456
910 2 35.8857 59.4341 16.0896
911 2 39.8042 59.1649 16.0484
912 2 43.6026 59.077 16.1276
913 2 47.5963 59.1254 16.1975
914 2 51.4197 59.1604 16.1708
915 2 55.3475 59.2296 16.1496
916 2 59.3888 3.84996 16.2236
917 2 4.0686 3.8 16.3773
918 2 8.15729 4.02316 16.2609
919 2 12.0866 3.86953 16.3474
920 2 15.9201 3.61191 16.1749
921 2 19.9761 3.82485 16.234
922 2 23.998 3.85722 16.0659
923 2 28.0154 3.90743 16.1416
924 2 31.8487 3.82214 16.1648
925 2 36.0847 3.89106 16.1154
926 2 39.8318 3.8567 16.0061
927 2 43.6002 3.78299 15.8756
928 2 47.6634 3.73195 16.0888
929 2 51.5016 3.63292 16.0238
930 2 55.3966 3.71002 16.383
931 2 0.0394281 7.61017 16.1625
932 2 3.93243 7.94267 16.1179
933 2 8.10612 7.83036 16.3326
934 2 11.9975 7.85375 16.3493
935 2 15.971 7.95829 16.2238
936 2 19.9539 7.80284 16.103
937 2 24.0739 7.8358 16.1151
938 2 27.8889 7.7342 15.9358
939 2 31.8991 7.95347 16.0383
940 2 35.7571 7.74595 16.1593
941 2 39.7617 7.81315 15.9748
942 2 43.5953 7.74521 16.2792
943 2 47.6153 7.66749 16.104
944 2 51.6347 7.8027 16.1125
945 2 55.6614 7.82727 16.3935
946 2 0.0320109 11.8575 16.2945
947 2 3.96961 11.7828 16.1447
948 2 7.88506 11.9347 16.3798
949 2 12.0604 11.7253 16.2599
950 2 16.0081 11.9906 16.4003
951 2 20.0119 11.6231 16.2703
952 2 23.9504 11.8081 16.1401
953 2 27.7184 11.7298 16.2006
954 2 31.6149 11.7293 16.0954
955 2 35.7573 11.7527 16.2469
956 2 39.7325 11.6626 16.0393
957 2 43.7886 11.727 16.3189
958 2 47.6863 11.5418 16.3266
959 2 51.7823 11.9434 16.2051
960 2 55.6068 11.8313 16.414
961 2 -0.0407603 15.901 16.3348
962 2 4.03323 15.9953 16.3747
963 2 7.95684 15.7452 16.258
964 2 11.8934 15.6827 16.1885
965 2 16.0868 15.8387 15.988
966 2 19.6977 15.6993 16.2818
967 2 23.7357 15.5263 16.0162
968 2 27.9386 15.6565 16.1511
969 2 31.8095 15.6161 15.9726
970 2 35.6822 15.7573 16.1819
971 2 39.7223 15.5269 16.1644
972 2 43.6947 15.6765 16.1751
973 2 47.6031 15.6112 16.1844
974 2 51.5457 15.5727 16.1754
975 2 55.3531 15.8583 16.323
976 2 59.4105 19.8636 16.2428
977 2 3.9728 19.7917 16.275
978 2 7.9809 20.0374 16.0216
979 2 11.721 19.8242 16.2472
980 2 15.7183 19.6149 16.251
981 2 19.8665 19.6409 16.2414
982 2 23.8184 19.3243 16.2194
983 2 27.8206 19.4323 16.0664
984 2 31.683 19.5983 16.0659
985 2 35.8094 19.6567 16.1317
986 2 39.6513 19.5291 16.1396
987 2 43.5882 19.8369 16.1332
988 2 47.539 19.5467 16.3796
989 2 51.4927 19.7574 16.3052
990 2 55.4442 19.7688 16.2358
991 2 -0.033478 23.543 16.2513
992 2 3.97851 23.8113 16.3353