ITEM: TIMESTEP
46700
ITEM: NUMBER OF ATOMS
28125
ITEM: BOX BOUNDS xy xz yz pp pp pp
0.0000000000000000e+00 5.9369999999999997e+01 0.0000000000000000e+00
0.0000000000000000e+00 5.9369999999999997e+01 0.0000000000000000e+00
1.3878238200329918e-01 9.9361217617997056e+01 0.0000000000000000e+00
ITEM: ATOMS id type x y z
1 2 59.3145 59.2517 0.364859
2 2 3.90345 59.0586 0.300245
3 2 7.97524 59.1911 0.37446
4 2 12.0071 59.4066 0.391077
5 2 15.9113 59.4836 0.220983
6 2 19.7963 59.2095 0.36962
7 2 23.9266 59.3423 0.311207
8 2 27.6715 59.1338 0.272301
9 2 31.6244 59.0739 0.29944
10 2 35.5729 59.1434 0.437829
11 2 39.6168 59.2714 0.427855
12 2 43.6667 59.1895 0.397675
13 2 47.7266 59.043 0.260209
14 2 51.6049 -0.233858 0.348113
15 2 55.5269 59.1869 0.526961
16 2 59.4674 3.84269 0.257319
17 2 4.1596 3.86608 0.213345
18 2 7.99946 3.66792 0.471027
19 2 11.9371 3.89307 0.432377
20 2 15.8621 3.95189 0.472722
21 2 19.9055 3.71943 0.467281
22 2 23.9168 3.80509 0.293886
23 2 27.732 3.90852 0.339339
24 2 31.7471 3.55574 0.544022
25 2 35.5665 3.71398 0.344312
26 2 39.7457 3.78398 0.284638
27 2 43.5466 3.84314 0.434276
28 2 47.563 3.75535 0.331283
29 2 51.4139 3.7498 0.435494
30 2 55.5051 3.57385 0.448817
31 2 59.3482 7.76486 0.495333
32 2 4.21664 7.86254 0.492246
33 2 8.04736 7.80663 0.440392
34 2 12.0146 7.76869 0.46607
35 2 15.8601 7.65016 0.415245
36 2 20.0586 7.70787 0.386517
37 2 23.8788 7.68145 0.201556
38 2 27.9492 7.77227 0.403241
39 2 31.7205 7.70899 0.331612
40 2 35.6192 7.61821 0.135645
41 2 39.5846 7.64769 0.753971
42 2 43.7745 7.71491 0.394428
43 2 47.7162 7.77453 0.499148
44 2 51.5593 7.83691 0.330114
45 2 55.5136 7.84809 0.3611
46 2 59.5729 11.6334 0.392799
47 2 4.01758 11.6065 0.398149
48 2 7.99032 11.7225 0.418543
49 2 12.0257 11.7386 0.323638
50 2 15.874 11.7029 0.363679
51 2 19.8238 11.638 0.363205
52 2 23.6615 11.6173 0.552619
53 2 27.7652 11.6189 0.395017
54 2 31.7607 11.7109 0.30102
55 2 35.7333 11.7485 0.490483
56 2 39.6777 11.6321 0.45554
57 2 43.651 11.5806 0.468723
58 2 47.7078 11.7499 0.305725
59 2 51.6545 11.6899 0.27423
60 2 55.6339 11.6752 0.39341
61 2 -0.00215456 15.5393 0.25329
62 2 4.16146 15.6891 0.393063
63 2 7.92579 15.6974 0.323906
64 2 11.7603 15.8717 0.325411
65 2 15.8787 15.8597 0.408751
66 2 19.9271 15.8011 0.237666
67 2 23.9041 15.7122 0.361208
68 2 27.8031 15.6347 0.402057
69 2 31.728 15.6609 0.247345
70 2 35.5091 15.7837 0.379708
71 2 39.4452 15.5622 0.341096
72 2 43.5356 15.5206 0.504032
73 2 47.4894 15.7237 0.469468
74 2 51.6864 15.4886 0.454222
75 2 55.308 15.476 0.344257
76 2 59.4767 19.8307 0.346325
77 2 3.8148 19.6168 0.446439
78 2 8.02155 19.6596 0.443753
79 2 11.8433 19.6114 0.361917
80 2 15.9159 19.7906 0.318902
81 2 19.9312 19.8455 0.46978
82 2 23.7439 19.5795 0.303499
83 2 27.5777 19.7201 0.328726
84 2 31.6269 19.6625 0.504784
85 2 35.8118 19.5805 0.623175
86 2 39.6188 19.5673 0.34335
87 2 43.7071 19.5966 0.426794
88 2 47.5582 19.5498 0.316101
89 2 51.6797 19.6026 0.309896
90 2 55.4452 19.6304 0.265672
91 2 59.4143 23.6058 0.46367
92 2 3.84535 23.5806 0.400804
93 2 7.73927 23.3587 0.381394
94 2 11.867 23.4799 0.372109
95 2 15.5875 23.6356 0.346028
96 2 19.8833 23.6759 0.567188
97 2 23.8516 23.4561 0.584002
98 2 27.7055 23.6333 0.491728
99 2 31.7003 23.6548 0.49007
100 2 35.5322 23.7371 0.595268
101 2 39.7558 23.3907 0.257918
102 2 43.6153 23.6569 0.309265
103 2 47.6944 23.5382 0.367909
104 2 51.7588 23.6298 0.369979
105 2 55.5068 23.5297 0.312087
106 2 59.2892 27.3512 0.536975
107 2 3.90421 27.7861 0.571791
108 2 8.04502 27.4723 0.473455
109 2 11.8251 27.4776 0.407595
110 2 15.6833 27.395 0.453921
111 2 19.7264 27.4657 0.572959
112 2 23.7263 27.5919 0.426568
113 2 27.7457 27.3844 0.317356
114 2 31.8631 27.5572 0.344538
115 2 35.7724 27.6263 0.378496
116 2 39.6538 27.6366 0.420273
117 2 43.6146 27.4518 0.328468
118 2 47.6752 27.4815 0.287439
119 2 51.6047 27.5538 0.355297
120 2 55.4223 27.5015 0.437433
121 2 0.0424763 31.3628 0.258858
122 2 3.84911 31.6921 0.518151
123 2 7.92755 31.4514 0.527795
124 2 11.9685 31.3957 0.26861
125 2 15.8699 31.477 0.536591
126 2 19.5814 31.4158 0.37167
127 2 23.7913 31.3312 0.481335
128 2 27.7711 31.5344 0.319821
129 2 31.6934 31.4851 0.492864
130 2 35.785 31.3894 0.393091
131 2 39.7332 31.6856 0.427209
132 2 43.5915 31.5165 0.357599
133 2 47.5588 31.405 0.477609
134 2 51.3713 31.4556 0.442641
135 2 55.449 31.4761 0.340222
136 2 59.3705 35.423 0.299762
137 2 3.91995 35.5227 0.381746
138 2 8.01608 35.5695 0.489458
139 2 12.0644 35.5001 0.233753
140 2 15.9412 35.3916 0.436475
141 2 19.8476 35.2277 0.501615
142 2 23.8587 35.5814 0.360702
143 2 27.7327 35.4466 0.362794
144 2 31.8152 35.3956 0.339765
145 2 35.8897 35.3344 0.268419
146 2 39.6301 35.3914 0.579656
147 2 43.6946 35.5467 0.35112
148 2 47.7297 35.5034 0.593257
149 2 51.6447 35.4976 0.28867
150 2 55.4474 35.399 0.288037
151 2 59.5984 39.5573 0.342941
152 2 4.00903 39.377 0.439195
153 2 7.91231 39.3779 0.466564
154 2 11.9443 39.3481 0.325786
155 2 16.1318 39.5088 0.34471
156 2 19.7407 39.3965 0.422888
157 2 23.7972 39.2705 0.291025
158 2 27.7124 39.4728 0.42849
159 2 31.7508 39.4704 0.394113
160 2 35.8569 39.3973 0.563613
161 2 39.6427 39.4997 0.491598
162 2 43.485 39.6028 0.271704
163 2 47.5529 39.3083 0.534534
164 2 51.32 39.3521 0.42312
165 2 55.323 39.392 0.402393
166 2 0.0263093 43.3819 0.335094
167 2 4.08108 43.3657 0.352743
168 2 8.12002 43.1655 0.252819
169 2 12.0579 43.4177 0.398281
170 2 15.9928 43.2855 0.128477
171 2 19.9761 43.4264 0.308453
172 2 23.879 43.3808 0.378501
173 2 27.6707 43.5821 0.319937
174 2 31.7211 43.2495 0.629466
175 2 35.5494 43.2568 0.359406
176 2 39.2819 43.476 99.7343
177 2 43.3779 43.2655 0.500592
178 2 47.536 43.3713 0.455625
179 2 51.5167 43.3332 0.451169
180 2 55.3391 43.258 0.514558
181 2 0.255491 47.3396 0.484369
182 2 4.05695 47.3752 0.421814
183 2 7.94364 47.1775 0.195561
184 2 12.0585 47.233 0.214067
185 2 15.9841 47.2115 0.547808
186 2 19.9337 47.2967 0.404205
187 2 23.9622 47.2696 0.445894
188 2 27.7322 47.4451 0.443007
189 2 31.6378 47.2167 0.503161
190 2 35.5611 47.6428 0.287055
191 2 39.5217 47.5455 0.390848
192 2 43.6576 47.2093 0.526461
193 2 47.4222 47.0956 0.336166
194 2 51.3151 47.1757 0.29971
195 2 55.5528 47.3539 0.325271
196 2 0.303524 51.1077 0.383136
197 2 4.22762 51.219 0.328898
198 2 8.09822 51.2561 0.566247
199 2 11.8537 51.134 0.300084
200 2 15.8941 51.2885 0.282424
201 2 20.0109 51.2322 0.431559
202 2 24.0292 51.1945 0.339193
203 2 27.8815 51.2252 0.322068
204 2 31.698 51.1768 0.444011
205 2 35.8021 51.3521 0.353682
206 2 39.6158 51.4797 0.403222
207 2 43.5823 51.3346 0.37363
208 2 47.5983 51.2862 0.433497
209 2 51.405 51.269 0.539745
210 2 55.4712 51.1418 0.494873
211 2 59.5432 55.3797 0.439848
212 2 4.02235 55.2059 0.299792
213 2 7.84653 55.1903 0.424957
214 2 12.0143 55.2745 0.374215
215 2 15.9272 55.1151 0.482361
216 2 19.7338 55.1384 0.142862
217 2 23.7244 55.2906 0.308266
218 2 27.7086 55.3205 0.273576
219 2 31.6773 55.2854 0.216537
220 2 35.8014 55.3044 0.389388
221 2 39.6313 55.2963 0.261839
222 2 43.6827 55.2403 0.52919
223 2 47.6613 55.1815 0.275907
224 2 51.3718 55.4079 0.462893
225 2 55.6092 55.232 0.569768
226 2 0.113554 59.3981 4.42806
227 2 4.04008 59.2812 4.27447
228 2 8.04723 59.2047 4.2872
229 2 11.9926 59.0715 4.31086
230 2 15.8578 59.0065 4.0777
231 2 19.9812 59.2526 4.33928
232 2 23.7357 59.1908 4.2818
233 2 27.7779 59.1159 4.43911
234 2 31.7027 59.3054 4.29289
235 2 35.692 59.2881 4.47558
236 2 39.8044 59.15 4.29405
237 2 43.7655 58.9846 4.53079
238 2 47.7659 59.2132 4.24124
239 2 51.5333 59.0597 4.41061
240 2 55.5064 59.0349 4.56809
241 2 59.6559 3.85524 4.42728
242 2 4.10938 3.63086 4.17993
243 2 8.09098 3.8682 4.46523
244 2 12.0834 3.9056 4.53433
245 2 15.879 3.83113 4.42464
246 2 19.9957 3.86928 4.20439
247 2 23.7069 3.72456 4.45144
248 2 27.854 3.87802 4.44617
249 2 31.7593 3.90753 4.16674
250 2 35.8257 3.85948 4.2337
251 2 39.7699 3.69225 4.41309
252 2 43.8765 3.85986 4.31205
253 2 47.7389 3.58108 4.44595
254 2 51.6282 3.91043 4.49187
255 2 55.4636 3.89212 4.34107
256 2 59.2735 7.81257 4.3059
257 2 4.02816 7.78369 4.30324
258 2 7.84726 7.8086 4.46354
259 2 11.8015 7.93807 4.45989
260 2 15.8579 7.5723 4.361
261 2 19.8348 7.73138 4.37261
262 2 23.7882 7.62038 4.41134
263 2 27.9309 7.76032 4.24497
264 2 31.7644 7.55615 4.4287
265 2 35.5617 7.57502 4.39113
266 2 39.6298 7.60043 4.38343
267 2 43.7122 7.70392 4.32335
268 2 47.68 7.56718 4.40099
269 2 51.7877 7.67485 4.31271
270 2 55.4917 7.77856 4.21086
271 2 59.6406 11.7254 4.30974
272 2 3.92947 11.6965 4.55779
273 2 7.83315 11.6938 4.26297
274 2 11.8934 11.8916 4.42567
275 2 15.9772 11.8582 4.4041
276 2 19.6573 11.7126 4.32806
277 2 23.7951 11.6035 4.42319
278 2 27.7473 11.534 4.2139
279 2 31.7029 11.7801 4.19909
280 2 35.7173 11.6479 4.30136
281 2 39.6551 11.7263 4.2599
282 2 43.6752 11.5674 4.43115
283 2 47.7915 11.8305 4.26616
284 2 51.493 11.6573 4.46515
285 2 55.4482 11.8572 4.28201
286 2 59.3859 15.5668 4.37492
287 2 4.13996 15.7586 4.29992
288 2 8.01392 15.6115 4.40171
289 2 11.7687 15.6117 4.35456
290 2 15.9061 15.6592 4.23801
291 2 19.8739 15.6335 4.24083
292 2 23.9939 15.6784 4.30752
293 2 27.7646 15.5583 4.41928
294 2 31.6316 15.7821 4.27202
295 2 35.5034 15.6886 4.61224
296 2 39.5879 15.6697 4.14012
297 2 43.7526 15.6155 4.28488
298 2 47.7255 15.4807 4.51725
299 2 51.438 15.5444 4.29057
300 2 55.6306 15.7933 4.31553
301 2 59.4865 19.6226 4.27655
302 2 4.04415 19.5654 4.56371
303 2 8.03936 19.6068 4.45659
304 2 11.889 19.496 4.27808
305 2 15.8784 19.5585 4.33519
306 2 19.9505 19.4184 4.32523
307 2 23.7568 19.6003 4.42953
308 2 27.8233 19.6799 4.27891
309 2 31.7255 19.6481 4.30917
310 2 35.7983 19.8359 4.43728
311 2 39.726 19.6064 4.29143
312 2 43.7166 19.5644 4.46058
313 2 47.8584 19.5931 4.22281
314 2 51.6045 19.4549 4.46241
315 2 55.6337 19.5036 4.28424
316 2 59.4685 23.5237 4.63152
317 2 3.94586 23.5796 4.32375
318 2 7.92586 23.6363 4.55664
319 2 11.8768 23.5506 4.51705
320 2 15.7262 23.4109 4.4406
321 2 19.8599 23.5972 4.53502
322 2 23.7444 23.5622 4.48792
323 2 27.7256 23.7844 4.23883
324 2 31.6529 23.5352 4.55246
325 2 35.7055 23.4789 4.30001
326 2 39.6134 23.6245 4.19339
327 2 43.8347 23.4415 4.25753
328 2 47.7321 23.4851 4.3848
329 2 51.453 23.485 4.58561
330 2 55.3851 23.585 4.39111
331 2 59.4677 27.319 4.41755
332 2 4.05788 27.4703 4.38935
333 2 8.05137 27.7132 4.29595
334 2 11.7245 27.4379 4.24194
335 2 15.7876 27.3757 4.4399
336 2 19.7598 27.6442 4.3956
337 2 23.8071 27.4668 4.55543
338 2 27.7772 27.5768 4.51035
339 2 31.5688 27.4464 4.49412
340 2 35.5647 27.5074 4.34483
341 2 39.5053 27.4867 4.4129
342 2 43.6188 27.307 4.39541
343 2 47.674 27.4242 4.35744
344 2 51.5221 27.3462 4.33681
345 2 55.5721 27.4703 4.27564
346 2 0.0860165 31.5216 4.32069
347 2 3.9703 31.4195 4.30459
348 2 8.03854 31.5753 4.56107
349 2 11.9544 31.525 4.64421
350 2 15.8671 31.4342 4.42066
351 2 19.803 31.4527 4.47299
352 2 23.836 31.5348 4.32664
353 2 27.7317 31.3781 4.38446
354 2 31.5579 31.2445 4.28823
355 2 35.6006 31.5887 4.32637
356 2 39.6356 31.3418 4.31073
357 2 43.7436 31.552 4.46601
358 2 47.4768 31.3914 4.13878
359 2 51.6353 31.3335 4.2622
360 2 55.5769 31.6119 4.44081
361 2 0.0269872 35.3827 4.28472
362 2 4.11124 35.4081 4.3476
363 2 8.07348 35.4398 4.29357
364 2 12.1792 35.4614 4.41887
365 2 15.9776 35.3652 4.19473
366 2 20.0293 35.4503 4.44879
367 2 23.8315 35.5501 4.35105
368 2 27.7465 35.5525 4.26617
369 2 31.5086 35.3401 4.36756
370 2 35.5667 35.386 4.44562
371 2 39.7278 35.5032 4.3253
372 2 43.7402 35.3593 4.3151
373 2 47.464 35.2272 4.36504
374 2 51.6477 35.3845 4.29154
375 2 55.5092 35.3006 4.18326
376 2 0.30386 39.1543 4.35825
377 2 4.24725 39.3978 4.36568
378 2 7.88438 39.5063 4.45992
379 2 11.9637 39.2564 4.28099
380 2 15.9629 39.3883 4.31209
381 2 19.9058 39.1204 4.35309
382 2 23.8106 39.3218 4.44573
383 2 27.9337 39.3128 4.38907
384 2 31.8154 39.1523 4.33699
385 2 35.6193 39.5389 4.49853
386 2 39.6215 39.3744 4.47446
387 2 43.6181 39.4737 4.3325
388 2 47.5237 39.3479 4.46415
389 2 51.2891 39.3492 4.39225
390 2 55.5472 39.2799 4.24031
391 2 0.250713 43.2742 4.22098
392 2 4.14207 43.227 4.44568
393 2 8.19307 43.3145 4.26274
394 2 12.1066 43.3286 4.37797
395 2 15.8614 43.4414 4.29638
396 2 20.0442 43.1712 4.31358
397 2 23.9224 43.2571 4.47492
398 2 27.8338 43.2703 4.2885
399 2 31.5359 43.2246 4.30275
400 2 35.7324 43.5843 4.35284
401 2 39.6358 43.5191 4.33618
402 2 43.5539 43.5008 4.42337
403 2 47.6223 43.1955 4.44302
404 2 51.5182 43.4002 4.47626
405 2 55.4822 43.1069 4.26275
406 2 59.2838 47.0952 4.32518
407 2 4.14242 47.2176 4.48404
408 2 7.99622 47.1609 4.19359
409 2 12.134 47.5322 4.2059
410 2 15.9676 47.1108 4.30452
411 2 19.8348 47.4373 4.49004
412 2 23.7682 47.4621 4.5253
413 2 27.7516 47.1786 4.31913
414 2 31.5742 47.2713 4.49304
415 2 35.6238 47.4323 4.54999
416 2 39.7415 47.2084 4.206
417 2 43.5261 47.471 4.48537
418 2 47.5125 47.2917 4.44101
419 2 51.5958 47.121 4.20618
420 2 55.6084 47.1795 4.33972
421 2 0.110573 51.2739 4.424
422 2 3.90946 51.4154 4.3704
423 2 8.02995 51.2481 4.18846
424 2 11.9151 51.1076 4.34986
425 2 15.9816 51.3265 4.33233
426 2 19.8835 51.2193 4.29476
427 2 23.7581 51.4738 4.29929
428 2 27.8112 51.3826 4.11483
429 2 31.8509 51.3445 4.26847
430 2 35.7293 51.2721 4.47243
431 2 39.6161 51.0086 4.43025
432 2 43.6183 51.3655 4.35861
433 2 47.6749 51.4004 4.52423
434 2 51.5759 51.1436 4.49699
435 2 55.3961 51.2202 4.22215
436 2 0.011012 55.1189 4.46008
437 2 4.12859 55.4757 4.50142
438 2 8.10904 55.1726 4.33241
439 2 12.0597 55.0719 4.2364
440 2 16.0661 55.3015 4.26851
441 2 19.9041 55.4153 4.23016
442 2 23.8314 55.4146 4.29949
443 2 27.8732 55.3157 4.44195
444 2 31.8043 55.5267 4.4449
445 2 35.7635 55.1752 4.45456
446 2 39.5866 55.2397 4.24019
447 2 43.7 55.3568 4.4265
448 2 47.5951 55.1372 4.33305
449 2 51.5301 55.1032 4.42163
450 2 55.2841 55.1943 4.38241
451 2 0.366366 59.3607 8.39219
452 2 4.03561 59.0449 8.40536
453 2 7.93767 59.211 8.27492
454 2 11.98 59.0617 8.26991
455 2 15.7482 59.1925 8.44104
456 2 19.8732 59.0664 8.3272
457 2 23.8798 59.3243 8.3397
458 2 27.7972 59.121 8.19098
459 2 31.7366 -0.0659473 8.34916
460 2 35.6614 59.3021 8.24008
461 2 39.6644 59.247 8.28797
462 2 43.4742 59.3248 8.35081
463 2 47.5248 59.0573 8.29433
464 2 51.5983 -0.208954 8.26959
465 2 55.6989 59.0084 8.28348
466 2 0.142293 3.84094 8.31761
467 2 4.18124 3.70246 8.31683
468 2 8.20752 3.75867 8.28857
469 2 11.9651 3.60241 8.42027
470 2 15.9822 3.80678 8.11392
471 2 19.9504 3.78342 8.27705
472 2 23.8426 3.8744 8.33459
473 2 27.7301 3.81664 8.42278
474 2 31.7652 3.8228 8.3385
475 2 35.7954 3.86816 8.23605
476 2 39.9026 3.8062 8.25497
477 2 43.5994 3.72458 8.39499
478 2 47.6328 3.64784 8.35924
479 2 51.4716 3.62326 8.24149
480 2 55.6186 3.84625 8.27915
481 2 0.0249893 7.48334 8.31078
482 2 3.86424 7.92402 8.37524
483 2 7.93238 7.68932 8.37807
484 2 11.6581 7.79649 8.5192
485 2 15.7489 7.65071 8.49154
486 2 19.8713 7.78944 8.31175
487 2 23.8772 7.82217 8.32707
488 2 27.8807 7.93011 8.25505
489 2 31.7675 7.72194 8.0319
490 2 35.8532 7.81329 8.38739
491 2 39.7049 7.56142 8.37004
492 2 43.6875 7.69365 8.33568
493 2 47.4491 7.74001 8.45226
494 2 51.5818 7.61378 8.38623
495 2 55.5044 7.81526 8.34259
496 2 0.225829 11.8968 8.32941
497 2 4.01855 11.7058 8.49719
498 2 8.08022 11.7946 8.27196
499 2 11.8527 11.4248 8.5862
500 2 15.8859 11.4182 8.15005
501 2 19.8728 11.65 8.37202
502 2 23.7727 11.7887 8.08248
503 2 27.6764 11.9316 8.32536
504 2 31.833 11.7373 8.39016
505 2 35.857 11.6134 8.33224
506 2 39.6195 11.7163 8.33522
507 2 43.7069 11.5295 8.19722
508 2 47.6315 11.6663 8.27757
509 2 51.823 11.6449 8.22453
510 2 55.7252 11.5658 8.13659
511 2 0.14588 15.7212 8.30508
512 2 3.96782 15.7056 8.49492
513 2 8.00232 15.9075 8.50213
514 2 11.9467 15.48 8.53023
515 2 15.8014 15.5381 8.42785
516 2 19.8067 15.7943 8.37929
517 2 23.882 15.8187 8.29522
518 2 27.7722 15.5447 8.28904
519 2 31.671 15.6309 8.31146
520 2 35.7547 15.7591 8.36871
521 2 39.8504 15.6988 8.22955
522 2 43.6379 15.5137 8.28845
523 2 47.6083 15.6615 8.54912
524 2 51.6969 15.7727 8.31583
525 2 55.6376 15.7205 8.49623
526 2 0.0341394 19.6885 8.3896
527 2 4.14518 19.7954 8.21252
528 2 7.98393 19.6477 8.39666
529 2 11.9775 19.5738 8.39057
530 2 15.8251 19.4877 8.37595
531 2 19.809 19.5037 8.28761
532 2 23.9283 19.6666 8.33326
533 2 27.6107 19.7218 8.20663
534 2 31.8593 19.7067 8.34652
535 2 35.7567 19.5206 8.32894
536 2 40.0044 19.6694 8.35861
537 2 43.7152 19.6405 8.35199
538 2 47.4647 19.6652 8.442
539 2 51.6968 19.5259 8.40997
540 2 55.527 19.4428 8.09254
541 2 0.137905 23.7055 8.32502
542 2 4.01535 23.7111 8.4029
543 2 8.06383 23.6067 8.33224
544 2 12.0969 23.5257 8.30618
545 2 15.9295 23.4786 8.21812
546 2 19.8632 23.8131 8.31582
547 2 23.903 23.4791 8.45759
548 2 27.8175 23.439 8.36664
549 2 31.8863 23.4338 8.55553
550 2 35.7509 23.4864 8.28344
551 2 39.7037 23.6959 8.27558
552 2 43.4322 23.5903 8.18991
553 2 47.4611 23.6138 8.3979
554 2 51.55 23.5321 8.46347
555 2 55.6623 23.5092 8.36552
556 2 0.2773 27.6562 8.25616
557 2 3.89938 27.6826 8.402
558 2 8.00884 27.5649 8.39697
559 2 11.8562 27.4304 8.20977
560 2 15.8999 27.5269 8.56968
561 2 19.8608 27.5008 8.40537
562 2 23.9467 27.6786 8.41871
563 2 27.8395 27.4858 8.44498
564 2 31.7272 27.472 8.3356
565 2 35.6531 27.6897 8.42185
566 2 39.7044 27.7123 8.23495
567 2 43.4632 27.455 8.16746
568 2 47.6569 27.4941 8.34985
569 2 51.6076 27.4833 8.33434
570 2 55.521 27.5215 8.25642
571 2 0.224237 31.5933 8.19105
572 2 4.01053 31.4936 8.24179
573 2 7.93805 31.6322 8.31304
574 2 12.0241 31.6397 8.4307
575 2 15.8199 31.6374 8.43241
576 2 19.947 31.5773 8.39782
577 2 23.8913 31.6167 8.25314
578 2 27.8108 31.4657 8.43598
579 2 31.6746 31.501 8.52617
580 2 35.8154 31.6128 8.18374
581 2 39.656 31.489 8.15451
582 2 43.473 31.5232 8.20981
583 2 47.521 31.4661 8.24448
584 2 51.6534 31.4207 8.11406
585 2 55.5474 31.3878 8.26264
586 2 0.173703 35.8119 8.42595
587 2 4.12593 35.4098 8.38719
588 2 8.05624 35.4402 8.39255
589 2 11.9418 35.6838 8.19747
590 2 15.908 35.6227 8.29339
591 2 19.8012 35.5054 8.43384
592 2 24.0476 35.4192 8.27545
593 2 27.7077 35.5457 8.35372
594 2 31.627 35.54 8.44993
595 2 35.695 35.4245 8.26515
596 2 39.6894 35.3255 8.33843
597 2 43.5274 35.4504 8.29286
598 2 47.5913 35.1215 8.35566
599 2 51.4084 35.5506 8.14617
600 2 55.5426 35.415 8.15387
601 2 0.302411 39.4617 8.38263
602 2 4.17635 39.5312 8.31732
603 2 8.14846 39.4524 8.36837
604 2 11.9934 39.4588 8.21964
605 2 15.8562 39.5473 8.16196
606 2 19.9918 39.3911 8.36794
607 2 23.7948 39.572 8.47036
608 2 27.7291 39.5247 8.57104
609 2 31.7501 39.4066 8.10483
610 2 35.8775 39.4313 8.39297
611 2 39.435 39.3315 8.22676
612 2 43.5898 39.3524 8.09484
613 2 47.6576 39.3965 8.42424
614 2 51.3494 39.386 8.46176
615 2 55.4945 39.3347 8.15345
616 2 0.0159623 43.2394 8.39007
617 2 4.07616 43.0752 8.30833
618 2 8.11779 43.4752 8.17237
619 2 11.9617 43.3696 8.28897
620 2 16.1718 43.1799 8.46455
621 2 19.8138 43.3174 8.42887
622 2 23.8447 43.4882 8.19342
623 2 27.8353 43.2933 8.11857
624 2 31.8342 43.2996 8.29812
625 2 35.7306 43.3973 8.34963
626 2 39.5678 43.3676 8.51025
627 2 43.482 43.4797 8.40828
628 2 47.4359 43.434 8.30795
629 2 51.4793 43.4384 8.47791
630 2 55.5651 43.3769 8.27991
631 2 -0.0921177 47.3904 8.47405
632 2 4.2284 47.3059 8.29216
633 2 8.14023 47.1475 8.27844
634 2 12.1392 47.4719 8.23419
635 2 15.9753 47.4431 8.25118
636 2 19.8861 47.4778 8.35613
637 2 24.0013 47.2819 8.3189
638 2 27.8429 47.2051 8.42289
639 2 31.6802 47.4398 8.49435
640 2 35.5547 47.4124 8.44866
641 2 39.6436 47.4024 8.49565
642 2 43.5488 47.2798 8.28554
643 2 47.6383 47.3693 8.40118
644 2 51.6645 47.3637 8.24069
645 2 55.746 47.0677 8.21935
646 2 0.187274 51.3016 8.20066
647 2 4.15751 51.1383 8.13128
648 2 8.14127 51.1747 8.06764
649 2 12.0391 51.2355 8.13387
650 2 15.9272 51.5023 8.34147
651 2 20.0482 51.3296 8.27112
652 2 23.7817 51.2729 8.35168
653 2 27.9331 51.3003 8.16497
654 2 31.6428 51.3771 8.31311
655 2 35.8442 51.4532 8.44876
656 2 39.6586 51.3055 8.36418
657 2 43.7305 51.5017 8.2795
658 2 47.4504 51.2473 8.41
659 2 51.5764 51.1683 8.42504
660 2 55.5439 51.1461 8.30405
661 2 0.136286 55.0108 8.13729
662 2 4.17147 55.1719 8.39706
663 2 8.02864 55.2838 8.10895
664 2 11.922 55.1722 8.42893
665 2 15.9951 55.3324 8.30876
666 2 19.9636 55.2755 8.25362
667 2 23.9722 55.0332 8.34332
668 2 27.7886 55.2215 8.48209
669 2 31.7369 55.1915 8.3345
670 2 35.6832 55.3262 8.24791
671 2 39.623 55.2762 8.53849
672 2 43.6367 55.2802 8.38864
673 2 47.7495 55.1127 8.28839
674 2 51.4919 55.1566 8.41039
675 2 55.6446 55.2461 8.34312
676 2 0.215457 59.2447 12.3166
677 2 4.22366 59.3603 12.285
678 2 7.90258 59.2599 12.2111
679 2 11.9115 59.1259 12.3297
680 2 15.8945 59.2178 12.4154
681 2 20.0436 59.1528 12.2539
682 2 23.8994 59.3699 12.4349
683 2 27.8214 59.2235 12.3436
684 2 31.6915 59.3914 12.2373
685 2 35.6284 58.983 12.1942
686 2 39.6977 59.2618 12.4525
687 2 43.68 59.211 12.3232
688 2 47.6682 59.2441 12.2032
689 2 51.8534 59.2283 12.1106
690 2 55.5829 59.2731 12.1215
691 2 0.186612 3.9944 12.3497
692 2 4.09308 3.82812 12.2735
693 2 8.08439 3.72518 12.3617
694 2 12.006 3.55628 12.0621
695 2 16.0511 3.74123 12.293
696 2 19.813 3.70289 12.1289
697 2 23.7075 3.78369 12.4287
698 2 27.8842 3.9457 12.1064
699 2 31.7875 3.93968 12.4352
700 2 35.7482 3.75934 12.2657
701 2 39.708 3.92287 12.3604
702 2 43.7382 3.87415 12.3311
703 2 47.7782 3.98283 12.3365
704 2 51.4901 3.70043 12.089
705 2 55.7802 3.81471 12.4182
706 2 0.228142 7.6013 12.4456
707 2 4.11359 7.69922 12.4987
708 2 7.94797 7.72127 12.5112
709 2 11.8553 7.72273 12.4494
710 2 16.0144 7.71611 12.3963
711 2 19.9862 7.82954 12.143
712 2 23.7163 7.76222 12.2082
713 2 27.9119 7.81834 12.0938
714 2 31.9597 7.94204 12.1809
715 2 35.774 7.83042 12.2222
716 2 39.787 7.83996 12.1691
717 2 43.608 7.91383 12.4996
718 2 47.8445 7.78634 12.1616
719 2 51.8811 7.84975 12.2159
720 2 55.6883 7.74739 12.2568
721 2 0.188277 11.4203 12.2035
722 2 3.99838 11.7578 12.1801
723 2 8.06201 11.6425 12.3427
724 2 12.0631 11.74 12.3278
725 2 16.0411 11.6325 12.1205
726 2 19.9564 11.8977 12.1931
727 2 23.9044 11.8241 12.3141
728 2 27.9196 11.8863 12.3653
729 2 31.8852 11.8066 12.0964
730 2 35.805 11.8341 12.2661
731 2 39.6462 11.9262 12.3043
732 2 43.6313 11.7509 12.1425
733 2 47.7625 11.6128 12.1807
734 2 51.7934 11.7033 12.2133
735 2 55.6763 11.5938 12.2449
736 2 0.0579606 15.6106 12.373
737 2 4.04971 15.703 12.3467
738 2 8.11412 15.5391 12.4062
739 2 12.0872 15.6416 12.4001
740 2 15.9204 15.5249 12.2111
741 2 19.7933 15.8758 12.2711
742 2 23.9205 15.7889 12.4285
743 2 27.9485 15.9298 12.2728
744 2 31.9691 15.8599 12.0554
745 2 35.8871 15.7127 12.3354
746 2 39.7981 16.0004 12.0895
747 2 43.5509 15.6446 12.254
748 2 47.8182 15.6317 12.1952
749 2 51.7738 15.6839 12.3321
750 2 55.523 15.7006 12.4357
751 2 0.246674 19.4469 12.0881
752 2 4.05465 19.8124 12.248
753 2 7.92032 19.8319 12.316
754 2 12.0842 19.7305 12.2375
755 2 15.9408 19.5928 12.1074
756 2 19.9177 19.8414 12.3809
757 2 23.9238 19.5867 12.3349
758 2 27.9459 19.6707 12.1631
759 2 31.822 20.0116 12.4687
760 2 35.7343 19.6832 12.355
761 2 39.6619 19.8614 12.3971
762 2 43.756 19.7235 12.3352
763 2 47.703 19.6513 12.1811
764 2 51.5584 19.5252 12.4156
765 2 55.6168 19.6827 12.1788
766 2 59.3952 23.5298 12.307
767 2 4.00454 23.6922 12.1637
768 2 8.15495 23.6934 12.2554
769 2 12.2297 23.6499 12.2893
770 2 16.0913 23.7483 12.2534
771 2 20.1273 23.5698 12.295
772 2 23.8683 23.6491 12.3626
773 2 27.8821 23.8167 12.2887
774 2 32.0711 23.7955 12.4196
775 2 35.8891 23.4627 12.1447
776 2 39.7432 23.5188 12.3048
777 2 43.649 23.8401 12.3831
778 2 47.594 23.6432 12.3361
779 2 51.7303 23.5535 12.2497
780 2 55.4991 23.625 12.3518
781 2 0.196088 27.6586 12.2734
782 2 4.10943 27.6543 12.2859
783 2 8.08994 27.6166 12.3849
784 2 11.9405 27.7854 12.2567
785 2 16.0398 27.6308 12.379
786 2 19.8756 27.3598 12.2703
787 2 23.8677 27.4343 12.181
788 2 27.9324 27.6364 12.3093
789 2 31.8237 27.6451 12.4252
790 2 35.9312 27.4041 12.1909
791 2 39.6288 27.7717 12.1764
792 2 43.6252 27.6058 12.0007
793 2 47.6354 27.6968 12.3691
794 2 51.5075 27.3865 12.2515
795 2 55.4786 27.5212 12.271
796 2 -0.0547429 31.8271 12.2331
797 2 4.00161 31.625 12.3684
798 2 8.10024 31.54 12.4731
799 2 12.1623 31.5038 12.4177
800 2 16.0945 31.6689 12.3328
801 2 19.893 31.6079 12.2689
802 2 23.7985 31.5683 12.3774
803 2 27.8227 31.5077 12.346
804 2 31.8978 31.6161 12.2447
805 2 35.7324 31.635 12.2332
806 2 39.7522 31.4917 12.2073
807 2 43.7897 31.3512 12.1899
808 2 47.8208 31.6811 12.2179
809 2 51.7225 31.3465 12.1575
810 2 55.5633 31.6989 12.2145
811 2 -0.0509652 35.687 12.3871
812 2 4.00923 35.4917 12.2803
813 2 7.89548 35.6062 12.4731
814 2 12.0573 35.5479 12.2611
815 2 15.9238 35.6158 12.4907
816 2 19.9154 35.4122 12.1796
817 2 23.873 35.406 12.2052
818 2 27.8996 35.7333 12.4238
819 2 31.6837 35.3248 12.2381
820 2 35.5934 35.4349 12.3917
821 2 39.7133 35.523 12.3741
822 2 43.6291 35.3466 12.2035
823 2 47.6575 35.3121 12.4124
824 2 51.6155 35.5503 12.2149
825 2 55.5107 35.7744 12.2761
826 2 0.100869 39.4482 12.3293
827 2 4.11919 39.4632 12.5436
828 2 8.14575 39.4488 12.4007
829 2 11.8714 39.7838 12.1145
830 2 15.9907 39.5579 12.3491
831 2 20.1727 39.3577 12.1687
832 2 23.7926 39.5516 12.4294
833 2 27.815 39.4468 12.2921
834 2 31.8876 39.3164 12.2806
835 2 35.7244 39.5266 12.3035
836 2 39.779 39.3712 12.1252
837 2 43.7877 39.1713 12.1494
838 2 47.5209 39.3065 12.3965
839 2 51.7169 39.3116 12.1772
840 2 55.6248 39.3814 12.1773
841 2 0.255042 43.6132 12.3572
842 2 4.18114 43.4394 12.1689
843 2 8.19815 43.5126 12.3064
844 2 12.0907 43.6791 12.3809
845 2 15.9045 43.4357 12.477
846 2 19.7735 43.4187 12.3465
847 2 23.9706 43.4445 12.4303
848 2 27.8985 43.4113 12.1898
849 2 32.0386 43.2932 12.219
850 2 35.9135 43.3772 12.2055
851 2 39.6296 43.1336 12.4206
852 2 43.8347 43.3445 12.2751
853 2 47.5943 43.3113 12.221
854 2 51.6238 43.235 12.2719
855 2 55.6073 43.1105 12.4134
856 2 0.170995 47.4701 12.4029
857 2 4.00216 47.2967 12.0972
858 2 8.0899 47.3803 12.2761
859 2 12.0096 47.3923 12.3058
860 2 16.0027 47.3329 12.3122
861 2 20.0034 47.1953 12.3297
862 2 23.9808 47.2354 12.2745
863 2 27.8584 47.287 12.3172
864 2 31.7216 47.2677 12.4127
865 2 35.7285 47.4011 12.4026
866 2 39.6985 47.352 12.4608
867 2 43.7077 47.2527 12.2544
868 2 47.6748 47.3051 12.401
869 2 51.6264 47.2283 12.3545
870 2 55.6733 47.3163 12.13
871 2 0.195806 51.5157 12.2445
872 2 4.1585 51.333 11.9751
873 2 8.17005 51.3429 12.1631
874 2 11.8954 51.2322 12.3276
875 2 15.7309 51.3638 12.3673
876 2 19.9093 51.2918 12.3896
877 2 23.7975 51.3831 12.3679
878 2 27.7912 51.1856 12.2681
879 2 31.633 51.2798 12.3282
880 2 35.8068 51.4595 12.0669
881 2 39.5888 51.3257 12.2915
882 2 43.5669 51.3384 12.2815
883 2 47.5366 51.2742 12.2972
884 2 51.7619 51.3787 12.489
885 2 55.5452 51.4077 12.3887
886 2 0.217088 55.1648 12.1278
887 2 4.29682 55.0881 12.3182
888 2 7.82262 55.1146 12.3135
889 2 12.1237 55.1893 12.2775
890 2 15.8713 55.3465 12.0144
891 2 19.9779 55.1933 12.223
892 2 23.9358 55.3837 12.3258
893 2 27.6734 55.2608 12.3408
894 2 31.6388 55.2491 12.349
895 2 35.6266 55.3025 12.3278
896 2 39.7498 55.3216 12.3086
897 2 43.5134 55.2456 12.4893
898 2 47.5303 55.2612 12.4079
899 2 51.4459 55.3759 12.0444
900 2 55.5786 55.3923 12.1829
901 2 0.126358 59.2622 16.1777
902 2 4.14609 59.2966 16.1647
903 2 8.18365 59.3318 16.3763
904 2 12.112 59.1138 16.168
905 2 15.945 59.1178 16.3934
906 2 19.8094 59.3052 16.1999
907 2 23.9852 59.434 16.3073
908 2 27.7316 59.2401 16.2515
909 2 31.6538 -0.106292 16.4991
910 2 35.7466 59.2619 16.24
911 2 39.7176 59.2757 16.3356
912 2 43.8385 59.5128 16.1782
913 2 47.7922 59.2743 16.1791
914 2 51.7435 59.4603 16.1896
915 2 55.6158 59.2942 16.1877
916 2 59.5153 3.74692 16.4787
917 2 4.1911 3.8338 16.3015
918 2 8.17485 3.79309 16.3154
919 2 12.0026 3.84394 16.3327
920 2 15.8499 3.79118 15.9878
921 2 19.677 4.09847 16.3113
922 2 23.9002 3.9194 16.3719
923 2 27.8318 4.00466 16.0783
924 2 31.8433 3.87899 16.17
925 2 35.7497 3.93026 16.1692
926 2 39.645 3.75373 16.2579
927 2 43.8209 3.94424 16.0993
928 2 47.6182 3.90008 16.2789
929 2 51.6757 4.03528 16.3083
930 2 55.6935 3.7378 16.2196
931 2 0.109386 7.81931 16.5262
932 2 4.03123 7.65292 16.3502
933 2 8.02148 7.7904 16.3882
934 2 12.2681 7.74848 16.1456
935 2 15.9867 7.93069 16.1407
936 2 20.119 8.09048 16.2899
937 2 23.9282 7.75017 16.2611
938 2 27.8855 7.92125 16.2416
939 2 31.7013 7.91156 16.2019
940 2 35.8102 7.93919 16.2035
941 2 39.9041 7.74178 16.377
942 2 43.775 7.91399 16.2533
943 2 47.8144 8.03546 16.1281
944 2 51.6159 7.83812 16.1636
945 2 55.5179 7.86919 16.3598
946 2 0.130938 11.7288 16.138
947 2 4.0976 11.8335 16.3422
948 2 8.0511 11.76 16.438
949 2 11.865 11.7861 16.4594
950 2 15.7518 11.8181 16.3145
951 2 19.8586 11.8059 16.3438
952 2 23.8986 11.8196 16.1964
953 2 27.8851 11.8785 16.2761
954 2 31.8221 11.7927 16.0559
955 2 35.8092 11.8872 16.0764
956 2 39.815 11.9131 16.3164
957 2 43.6622 11.8703 16.2323
958 2 47.58 11.8367 16.1754
959 2 51.5403 11.8796 16.2212
960 2 55.474 11.7859 16.4472
961 2 0.232247 15.7327 16.2102
962 2 4.09553 15.7044 16.2787
963 2 8.044 15.7526 16.0954
964 2 11.9105 15.8538 16.051
965 2 15.9596 15.867 16.1723
966 2 19.9039 15.709 16.3074
967 2 23.7198 15.695 16.3723
968 2 27.785 15.8449 16.1759
969 2 31.7956 15.8038 16.2847
970 2 35.6965 15.7385 16.1807
971 2 39.8627 15.7915 16.1182
972 2 43.7477 15.8363 16.2776
973 2 47.634 15.679 16.2141
974 2 51.691 15.773 16.1271
975 2 55.6875 15.6203 16.2242
976 2 59.6833 19.7827 16.0696
977 2 4.24732 19.5633 16.1844
978 2 8.17189 19.6725 16.2147
979 2 11.9863 19.6692 16.3519
980 2 15.9696 19.6841 16.2518
981 2 19.7895 19.6896 16.4686
982 2 23.8723 19.5359 16.2545
983 2 27.5975 19.7705 16.1993
984 2 31.6147 19.6194 16.2221
985 2 35.8221 19.6311 16.2915
986 2 39.6579 19.5848 16.2151
987 2 43.6493 19.7317 16.1811
988 2 47.7184 19.8101 16.2951
989 2 51.4824 19.753 16.4175
990 2 55.5838 19.823 16.2753
991 2 0.237016 23.7107 16.2407
992 2 4.2412 23.7292 16.2349
993 2 8.03707 23.7311 16.2453