ITEM: TIMESTEP
48100
ITEM: NUMBER OF ATOMS
28125
ITEM: BOX BOUNDS xy xz yz pp pp pp
0.0000000000000000e+00 5.9369999999999997e+01 0.0000000000000000e+00
0.0000000000000000e+00 5.9369999999999997e+01 0.0000000000000000e+00
9.8128366186024607e-02 9.9401871633814437e+01 0.0000000000000000e+00
ITEM: ATOMS id type x y z
1 2 59.3991 59.1027 0.474983
2 2 4.11926 59.1636 0.464106
3 2 8.10681 59.2041 0.280555
4 2 11.9169 59.2154 0.374157
5 2 15.9455 59.1876 0.616499
6 2 19.8119 59.0679 0.378431
7 2 23.9538 59.0472 0.261392
8 2 27.9997 59.0906 0.27337
9 2 31.9251 59.4188 0.223947
10 2 35.9077 59.2245 0.398932
11 2 39.8011 59.1375 0.435734
12 2 43.4788 59.0232 0.273706
13 2 47.5036 59.2858 0.119739
14 2 51.5628 -0.309672 0.503005
15 2 55.5825 59.1448 0.446238
16 2 59.5509 3.78759 0.209208
17 2 3.97565 3.77289 0.342121
18 2 7.91884 3.84677 0.419462
19 2 11.8793 3.71887 0.341553
20 2 15.8645 3.72551 0.300271
21 2 19.9965 3.88723 0.48284
22 2 23.9076 3.78598 0.361445
23 2 27.8204 3.81014 0.363032
24 2 31.829 3.87508 0.181836
25 2 35.8839 3.87655 0.384309
26 2 39.7612 3.8176 0.385144
27 2 43.5762 3.69425 0.42347
28 2 47.6489 3.88013 0.39363
29 2 51.5357 3.72194 0.418095
30 2 55.4552 3.69988 0.416579
31 2 59.5481 7.70312 0.369783
32 2 4.04368 7.7283 0.139689
33 2 7.76266 7.83212 0.342392
34 2 11.8072 7.74404 0.261562
35 2 15.923 7.91579 0.219951
36 2 19.8518 7.74879 0.383707
37 2 23.7099 7.64791 0.274333
38 2 27.7764 7.57922 0.444972
39 2 31.7226 7.72149 0.356699
40 2 35.7061 7.73853 0.423476
41 2 39.7314 7.87903 0.304083
42 2 43.6442 7.65092 0.346489
43 2 47.6105 7.66082 0.336444
44 2 51.6062 7.68199 0.371244
45 2 55.4918 7.78971 0.331051
46 2 59.6141 11.7686 0.24277
47 2 3.9847 11.8073 0.497173
48 2 8.06997 11.7289 0.475591
49 2 12.037 11.6193 0.421452
50 2 15.7904 11.6669 0.306538
51 2 19.7896 11.6164 0.392908
52 2 23.9075 11.6442 0.266192
53 2 27.8373 11.6293 0.318825
54 2 31.7041 11.7958 0.518709
55 2 35.7241 11.8721 0.502088
56 2 39.7412 11.7374 0.353571
57 2 43.7041 11.8662 0.336392
58 2 47.5159 11.5904 0.325726
59 2 51.5059 11.4583 0.366334
60 2 55.4933 11.7708 0.381455
61 2 -0.0593169 15.7687 0.239141
62 2 3.95391 15.6243 0.428014
63 2 8.05762 15.7839 0.430181
64 2 12.0576 15.6401 0.290712
65 2 15.9738 15.6332 0.441934
66 2 19.8516 15.3812 0.523252
67 2 23.733 15.7221 0.421986
68 2 27.8025 15.7426 0.427143
69 2 31.5963 15.7957 0.320465
70 2 35.6368 15.5759 0.417466
71 2 39.6729 15.5319 0.23243
72 2 43.5203 15.6294 0.521943
73 2 47.7036 15.7173 0.369849
74 2 51.4955 15.5277 0.425972
75 2 55.3192 15.6673 0.429591
76 2 59.5006 19.6577 0.327585
77 2 4.05398 19.5413 0.479489
78 2 7.89166 19.6157 0.360965
79 2 11.9534 19.8082 0.304574
80 2 15.8924 19.6229 0.43553
81 2 19.8477 19.583 0.466391
82 2 23.6933 19.6274 0.433332
83 2 27.7731 19.5924 0.380276
84 2 31.9051 19.7231 0.225627
85 2 35.7985 19.7204 0.423544
86 2 39.7071 19.6328 0.42732
87 2 43.7373 19.5951 0.36563
88 2 47.5353 19.7352 0.441429
89 2 51.5825 19.6245 0.276197
90 2 55.4936 19.4166 0.234035
91 2 59.426 23.5838 0.484877
92 2 3.87356 23.4337 0.32302
93 2 7.99236 23.4904 0.281148
94 2 11.7974 23.7046 0.257016
95 2 15.6211 23.599 0.196716
96 2 19.6617 23.7055 0.456162
97 2 23.7822 23.4937 0.338602
98 2 27.7558 23.6651 0.433183
99 2 31.684 23.58 0.44375
100 2 35.7542 23.7435 0.237172
101 2 39.7517 23.6109 0.302795
102 2 43.4585 23.6692 0.284762
103 2 47.6372 23.5732 0.354537
104 2 51.7228 23.7506 0.311361
105 2 55.4651 23.5242 0.166477
106 2 59.5089 27.5337 0.253456
107 2 4.07065 27.3825 0.295345
108 2 8.0685 27.6883 0.345103
109 2 11.9291 27.5423 0.381277
110 2 15.9067 27.5362 0.377213
111 2 20.112 27.589 0.334182
112 2 23.7606 27.4091 0.232085
113 2 27.6572 27.323 0.392789
114 2 31.7719 27.5628 0.232964
115 2 35.4887 27.5627 0.340906
116 2 39.6891 27.5521 0.350426
117 2 43.7931 27.5352 0.211121
118 2 47.6258 27.4867 0.191672
119 2 51.7154 27.5818 0.330878
120 2 55.5687 27.5028 0.269763
121 2 0.0891193 31.4259 0.309712
122 2 4.06373 31.4611 0.323377
123 2 8.04053 31.6701 0.212474
124 2 12.0023 31.4437 0.274306
125 2 16.0042 31.5211 0.111616
126 2 19.8272 31.3868 0.257783
127 2 23.8863 31.4748 0.43623
128 2 27.6431 31.2999 0.336197
129 2 31.5361 31.5015 0.398433
130 2 35.6111 31.4983 0.570578
131 2 39.6365 31.3439 0.334717
132 2 43.3822 31.6034 0.235339
133 2 47.6908 31.5385 0.411802
134 2 51.5845 31.4178 0.243814
135 2 55.6368 31.5681 0.194195
136 2 59.2767 35.2802 0.402171
137 2 4.17763 35.2966 0.355325
138 2 8.03499 35.4653 0.341606
139 2 12.0686 35.5368 0.341269
140 2 16.0988 35.2922 0.229127
141 2 19.9878 35.3639 0.0667135
142 2 23.8281 35.2691 0.271157
143 2 27.7885 35.3766 0.432238
144 2 31.6801 35.2852 0.423893
145 2 35.7596 35.584 0.513388
146 2 39.6917 35.5081 0.547832
147 2 43.5455 35.5899 0.519875
148 2 47.4851 35.4507 0.453223
149 2 51.4516 35.3073 0.409219
150 2 55.3834 35.6326 0.331042
151 2 59.3418 39.3506 0.439418
152 2 4.12957 39.3481 0.301472
153 2 8.07611 39.3345 0.0728127
154 2 11.9821 39.2655 0.324849
155 2 16.061 39.3676 0.244655
156 2 19.8446 39.2493 0.231094
157 2 23.7456 39.5617 0.3544
158 2 27.75 39.338 0.465038
159 2 31.7127 39.5269 0.506755
160 2 35.6555 39.4485 0.489155
161 2 39.4664 39.2917 0.251859
162 2 43.6784 39.3018 0.27515
163 2 47.576 39.4802 0.292623
164 2 51.472 39.4985 0.484109
165 2 55.3571 39.6046 0.389293
166 2 0.00928026 43.4552 0.277385
167 2 3.99544 43.3201 0.377406
168 2 8.06316 43.4333 0.208847
169 2 11.948 43.4241 0.275896
170 2 16.0213 43.3415 0.356115
171 2 19.9004 43.48 0.398793
172 2 23.7599 43.4444 0.356914
173 2 27.7718 43.5499 0.468341
174 2 31.7277 43.2443 0.360266
175 2 35.6618 43.3076 0.337138
176 2 39.6536 43.1995 99.6335
177 2 43.6477 43.4579 0.378599
178 2 47.714 43.4656 0.325274
179 2 51.6784 43.5198 0.500489
180 2 55.4116 43.4543 0.500336
181 2 -0.0658952 47.2692 0.343441
182 2 4.07171 47.5314 0.456396
183 2 7.88319 47.2359 0.312651
184 2 11.9474 47.4056 0.460938
185 2 16 47.2475 0.248076
186 2 19.746 47.3344 0.560288
187 2 24.0111 47.3331 0.288518
188 2 28.056 47.4163 0.245872
189 2 31.9358 47.55 0.360631
190 2 35.5187 47.2937 0.366407
191 2 39.4337 47.3269 0.537298
192 2 43.7502 47.5426 0.361914
193 2 47.6071 47.3757 0.419112
194 2 51.4627 47.3357 0.42548
195 2 55.5046 47.4418 0.32715
196 2 -0.0329989 51.2586 0.45941
197 2 3.93183 51.0854 0.261994
198 2 7.99041 51.4799 0.50588
199 2 11.9664 51.4094 0.391237
200 2 15.8279 51.4069 0.555716
201 2 19.9112 51.4 0.335009
202 2 23.8464 51.2861 0.449339
203 2 27.8282 51.441 0.383228
204 2 31.871 51.2943 0.425425
205 2 35.8179 51.0993 0.490821
206 2 39.677 51.2076 0.415661
207 2 43.5953 51.4301 0.693617
208 2 47.4826 51.2571 0.404513
209 2 51.4702 51.2749 0.465719
210 2 55.6123 51.147 0.254253
211 2 59.3599 55.1847 0.369867
212 2 3.98174 55.26 0.431479
213 2 8.10613 55.3101 0.346574
214 2 11.9575 55.1958 0.130082
215 2 15.875 55.1915 0.29925
216 2 20.0186 55.2582 0.263183
217 2 23.8433 55.2605 0.236262
218 2 28.0042 55.153 0.0928323
219 2 31.9471 55.3137 0.00251089
220 2 35.7793 55.2468 0.342033
221 2 39.6505 55.2971 0.0989628
222 2 43.43 55.2449 0.410619
223 2 47.5235 55.3327 0.462772
224 2 51.2751 55.2901 0.600365
225 2 55.5766 55.2425 0.343742
226 2 0.213399 59.4104 4.29516
227 2 4.06094 59.2391 4.28181
228 2 7.84152 59.4295 4.40947
229 2 11.9164 59.2686 4.6097
230 2 15.9198 59.1631 4.30353
231 2 19.923 59.2402 4.13869
232 2 24.1962 59.1669 4.23291
233 2 27.9925 59.2626 4.26285
234 2 31.9181 59.2843 4.05763
235 2 35.7841 59.4646 4.23993
236 2 39.7338 59.1076 4.24509
237 2 43.615 59.0973 4.098
238 2 47.5435 59.3437 4.43176
239 2 51.5645 59.2646 4.41718
240 2 55.5241 59.5069 4.22039
241 2 59.4014 3.87808 4.41533
242 2 3.95726 3.99002 4.24987
243 2 8.04507 4.02019 4.33629
244 2 12.0324 3.9233 4.21318
245 2 15.8388 3.78282 4.49406
246 2 19.9709 3.61955 4.29614
247 2 23.8184 3.63882 4.28343
248 2 27.6661 3.78397 4.3406
249 2 31.7443 3.95708 4.2876
250 2 35.7195 4.0225 4.38483
251 2 39.5115 3.86697 4.4993
252 2 43.5846 3.77959 4.29332
253 2 47.5445 3.88392 4.43618
254 2 51.3079 3.90654 4.28897
255 2 55.5068 3.92084 4.2631
256 2 59.325 7.76991 4.25923
257 2 3.91544 7.77346 4.29075
258 2 7.95162 7.80625 4.12757
259 2 11.8632 7.77333 4.27754
260 2 15.8867 7.72676 4.33597
261 2 19.9116 7.85589 4.34155
262 2 23.7375 7.76284 4.27428
263 2 28.0368 7.93988 4.1453
264 2 31.7668 7.77059 4.15251
265 2 35.8385 7.92184 4.21193
266 2 39.8427 7.98759 4.27432
267 2 43.5431 7.83783 4.21511
268 2 47.5713 7.85153 4.16836
269 2 51.7227 7.76136 4.26262
270 2 55.5059 7.71321 4.41318
271 2 59.428 11.7856 4.28546
272 2 3.94669 11.7962 4.44024
273 2 7.90545 11.6779 4.43225
274 2 11.9906 11.6021 4.41358
275 2 15.9007 11.7682 4.19334
276 2 19.768 11.6707 4.25572
277 2 23.994 11.7585 4.30079
278 2 27.654 11.562 4.22592
279 2 31.7693 11.8579 4.36269
280 2 35.7545 11.7662 4.35528
281 2 39.6402 11.8214 4.25152
282 2 43.7527 11.7403 4.37766
283 2 47.5722 11.9045 4.45335
284 2 51.4892 11.7147 4.20317
285 2 55.6814 11.7755 4.23451
286 2 59.3873 15.7683 4.36039
287 2 4.2019 15.7742 4.41219
288 2 8.0543 15.6831 4.26905
289 2 11.9988 15.7102 4.25767
290 2 15.8765 15.6827 4.29885
291 2 20.0203 15.5207 4.37824
292 2 23.7519 15.3954 4.40292
293 2 27.849 15.7279 4.1377
294 2 31.7522 15.6786 4.54683
295 2 35.7075 15.7013 4.40636
296 2 39.6342 15.6911 4.51092
297 2 43.6486 15.7939 4.46775
298 2 47.6691 15.6346 4.25561
299 2 51.4857 15.6797 4.38666
300 2 55.5206 15.92 4.17667
301 2 59.3747 19.8281 4.32869
302 2 3.96975 19.6102 4.47522
303 2 7.97559 19.7505 4.29539
304 2 11.971 19.5837 4.3027
305 2 16.0249 19.6621 4.22426
306 2 19.7179 19.5966 4.45306
307 2 23.9557 19.5628 4.42756
308 2 27.8525 19.5862 4.46674
309 2 31.8663 19.677 4.22532
310 2 35.8745 19.6675 4.20289
311 2 39.6668 19.6633 4.39002
312 2 43.6984 19.4443 4.36426
313 2 47.6986 19.6576 4.39996
314 2 51.6816 19.5464 4.31011
315 2 55.6679 19.6396 4.27139
316 2 59.5256 23.5289 4.38661
317 2 3.9529 23.7458 4.31354
318 2 7.89149 23.7603 4.33065
319 2 12.0023 23.5855 4.40361
320 2 15.9211 23.6067 4.4176
321 2 19.8246 23.43 4.27081
322 2 23.8524 23.6867 4.2929
323 2 27.8511 23.5579 4.30108
324 2 31.7152 23.5616 4.09614
325 2 35.7408 23.665 4.22186
326 2 39.6741 23.7135 4.26273
327 2 43.4752 23.7157 4.09633
328 2 47.6401 23.7007 4.35712
329 2 51.6614 23.6897 4.21686
330 2 55.5346 23.5397 4.28222
331 2 59.4319 27.5318 4.46514
332 2 4.15052 27.4922 4.29255
333 2 7.97183 27.4973 4.23068
334 2 11.9031 27.5254 4.27239
335 2 16.0251 27.6211 4.26579
336 2 19.8929 27.4356 4.3709
337 2 23.7722 27.5976 4.37538
338 2 27.7982 27.5508 4.33127
339 2 31.8533 27.5213 4.37209
340 2 35.6051 27.4153 4.42791
341 2 39.7215 27.5268 4.3098
342 2 43.5486 27.6648 4.13077
343 2 47.4986 27.5707 4.33949
344 2 51.5453 27.6763 4.24641
345 2 55.6534 27.5265 4.15952
346 2 0.0360924 31.6989 4.25433
347 2 4.40756 31.4469 4.21521
348 2 8.23977 31.6577 4.3118
349 2 11.8447 31.5455 4.31699
350 2 15.8795 31.3374 4.19614
351 2 19.795 31.4187 4.25734
352 2 23.6874 31.6516 4.39601
353 2 27.8036 31.5156 4.39165
354 2 31.7625 31.5039 4.52065
355 2 35.6121 31.2834 4.32347
356 2 39.6101 31.4279 4.43309
357 2 43.614 31.583 4.27199
358 2 47.5989 31.3876 4.47729
359 2 51.3933 31.547 4.39158
360 2 55.3988 31.477 4.26536
361 2 0.141923 35.447 4.29472
362 2 4.16639 35.4343 4.36769
363 2 8.00997 35.5068 4.19067
364 2 12.1507 35.4976 4.22575
365 2 15.8282 35.1983 4.30157
366 2 19.7699 35.3813 4.42658
367 2 23.8286 35.5978 4.18622
368 2 27.866 35.6666 4.37308
369 2 31.607 35.4661 4.39968
370 2 35.6908 35.4947 4.27424
371 2 39.4893 35.4468 4.42109
372 2 43.5227 35.4338 4.42648
373 2 47.5862 35.377 4.3015
374 2 51.6618 35.5343 4.20129
375 2 55.5856 35.347 4.37188
376 2 0.105579 39.4359 4.56697
377 2 4.0216 39.2393 4.19665
378 2 8.20072 39.4864 4.12597
379 2 12.135 39.6235 4.31903
380 2 15.9347 39.4849 4.10946
381 2 19.7914 39.307 4.36071
382 2 23.664 39.4281 4.16928
383 2 27.6579 39.5736 4.42715
384 2 31.6953 39.3683 4.35676
385 2 35.4848 39.2801 4.43094
386 2 39.6858 39.5512 4.32756
387 2 43.626 39.4192 4.33484
388 2 47.5387 39.4211 4.3273
389 2 51.5527 39.4389 4.38939
390 2 55.486 39.3939 4.26332
391 2 0.0159848 43.1448 4.16261
392 2 4.05448 43.2614 4.241
393 2 8.11397 43.4075 4.24875
394 2 12.0333 43.4538 4.3217
395 2 15.9892 43.342 4.34447
396 2 19.9892 43.3924 4.48562
397 2 23.8353 43.5062 4.27984
398 2 27.7609 43.4333 4.29135
399 2 31.6712 43.3853 4.29361
400 2 35.7961 43.4974 4.27585
401 2 39.7597 43.7021 4.36275
402 2 43.6519 43.1948 4.3488
403 2 47.6115 43.3446 4.16894
404 2 51.3539 43.439 4.45959
405 2 55.4306 43.507 4.33849
406 2 59.5092 47.203 4.34025
407 2 3.95452 47.2749 4.57596
408 2 8.01069 47.3077 4.38973
409 2 11.9737 47.3604 4.38164
410 2 15.9982 47.125 4.29171
411 2 19.9369 47.4726 4.32341
412 2 23.7786 47.4915 4.54003
413 2 27.7597 47.4335 4.44752
414 2 31.6112 47.4456 4.43071
415 2 35.5084 47.3209 4.38403
416 2 39.6264 47.3009 4.29799
417 2 43.6054 47.4097 4.52467
418 2 47.5985 47.4676 4.41329
419 2 51.4896 47.3037 4.46207
420 2 55.4839 47.2795 4.38656
421 2 -0.0475835 51.2577 4.28153
422 2 3.87949 51.4602 4.3749
423 2 7.98869 51.348 4.4938
424 2 11.9538 51.291 4.24069
425 2 15.9188 51.3548 4.44913
426 2 19.9113 51.2585 4.30198
427 2 23.9068 51.4249 4.26694
428 2 27.8648 51.6136 4.4177
429 2 31.8906 51.2971 4.44143
430 2 35.7744 51.4227 4.44273
431 2 39.5282 51.1664 4.48628
432 2 43.5113 51.4951 4.46182
433 2 47.7032 51.4846 4.36891
434 2 51.5826 51.3411 4.30685
435 2 55.5585 51.2125 4.18097
436 2 0.17945 55.2784 4.49182
437 2 4.18629 55.3273 4.2203
438 2 8.09339 55.3447 4.23829
439 2 11.8551 55.3123 4.38615
440 2 15.8678 55.4245 4.39266
441 2 19.8172 55.2756 4.4931
442 2 23.8918 55.3212 4.18789
443 2 27.8796 55.4801 4.50083
444 2 31.7979 55.3452 4.28889
445 2 35.7083 55.4167 4.32276
446 2 39.8964 55.4285 4.46018
447 2 43.7482 55.4144 4.47406
448 2 47.4445 55.3007 4.38813
449 2 51.4154 55.2727 4.46766
450 2 55.5105 55.3416 4.47027
451 2 0.163049 59.3874 8.29968
452 2 4.08758 59.4371 8.33712
453 2 7.96543 59.4166 8.38323
454 2 12.0797 59.287 8.44699
455 2 15.9237 59.3802 8.35853
456 2 19.9114 59.4134 8.21067
457 2 23.9472 59.2726 8.02601
458 2 28.0449 59.3891 8.21055
459 2 31.8539 0.0353505 8.29763
460 2 35.731 59.3561 8.30886
461 2 39.559 59.3865 8.38081
462 2 43.4764 59.4477 8.30318
463 2 47.5627 59.418 8.34999
464 2 51.5796 -0.199413 8.44807
465 2 55.4998 59.2654 8.25269
466 2 0.160797 3.69081 8.25062
467 2 3.92059 4.1802 8.32214
468 2 7.7505 3.93016 8.31545
469 2 12.0699 3.85703 8.03757
470 2 15.9612 3.88977 8.36525
471 2 19.7943 3.91791 8.29535
472 2 23.8758 3.82549 8.34002
473 2 27.9036 3.94061 8.27867
474 2 31.7879 4.07052 8.21351
475 2 35.6732 4.0062 8.18414
476 2 39.6952 4.02533 8.54399
477 2 43.7132 4.02844 8.29688
478 2 47.5516 3.96362 8.23591
479 2 51.5008 3.80806 8.21223
480 2 55.5502 3.97071 8.26811
481 2 -0.0340718 7.91199 8.40647
482 2 3.93634 8.13604 8.32234
483 2 7.98612 7.85106 8.51688
484 2 11.8683 8.01828 8.3758
485 2 16.0261 7.86662 8.25689
486 2 19.9886 7.85851 8.27015
487 2 23.7299 7.92937 8.20004
488 2 27.7791 7.84141 8.14568
489 2 31.8454 7.91775 8.2137
490 2 35.7992 7.81272 8.33087
491 2 39.6598 7.8372 8.33122
492 2 43.5871 7.81851 8.49611
493 2 47.5823 8.01406 8.26252
494 2 51.4763 8.12609 8.21492
495 2 55.3659 8.00188 8.36708
496 2 0.105006 11.9373 8.31976
497 2 4.10401 11.7991 8.02716
498 2 8.04265 11.7935 8.27435
499 2 12.112 11.8323 8.33719
500 2 15.9764 11.9544 8.294
501 2 19.8018 11.8897 8.41719
502 2 24.0766 11.8018 8.37601
503 2 27.9288 11.67 8.29198
504 2 31.7667 11.8044 8.31548
505 2 35.8693 11.6777 8.23932
506 2 39.6646 11.8155 8.46209
507 2 43.5569 11.7264 8.46403
508 2 47.5379 11.9582 8.25094
509 2 51.6283 12.099 8.21371
510 2 55.5242 11.9333 8.23887
511 2 0.237678 15.9109 8.45528
512 2 4.05547 15.9691 8.49722
513 2 8.00044 15.7938 8.14603
514 2 11.845 15.9413 8.2331
515 2 16.0465 15.7643 8.26782
516 2 19.9343 15.7067 8.28064
517 2 23.9712 15.7742 8.18591
518 2 27.761 15.6406 8.41949
519 2 31.7138 15.6884 8.49498
520 2 35.6876 15.9282 8.45791
521 2 39.5566 15.851 8.41767
522 2 43.49 15.9172 8.41433
523 2 47.4854 15.8404 8.34866
524 2 51.6135 15.7363 8.26413
525 2 55.5774 15.9725 8.33224
526 2 0.25789 19.6158 8.33168
527 2 4.13785 19.6616 8.39887
528 2 7.92992 19.9537 8.37618
529 2 11.9972 19.63 8.31174
530 2 15.89 19.7232 8.42583
531 2 19.9064 19.959 8.22294
532 2 24.0698 19.6203 8.40038
533 2 27.8793 19.8013 8.31482
534 2 31.8791 19.7354 8.05905
535 2 35.7409 19.9553 8.3105
536 2 39.6174 19.9744 8.19974
537 2 43.7252 19.6985 8.32554
538 2 47.5673 19.8031 8.34794
539 2 51.8506 19.6736 8.21876
540 2 55.6111 19.7465 8.36427
541 2 0.117898 23.598 8.36263
542 2 3.86768 23.7981 8.32583
543 2 7.83851 23.5512 8.22472
544 2 11.9695 23.6121 8.37886
545 2 16.0903 23.8179 8.32212
546 2 19.869 23.7301 8.24732
547 2 23.9981 23.5385 8.33085
548 2 27.8634 23.7431 8.19556
549 2 31.8566 23.6844 8.44126
550 2 35.7712 23.9065 8.32772
551 2 39.714 23.8195 8.20623
552 2 43.7475 23.5767 8.10209
553 2 47.6237 23.8757 8.27922
554 2 51.6736 23.7237 8.34378
555 2 55.3331 23.5778 8.25831
556 2 0.0361364 27.7254 8.44393
557 2 3.95803 27.65 8.36047
558 2 7.94201 27.6787 8.35095
559 2 11.8377 27.4831 8.10197
560 2 15.9544 27.7469 8.30589
561 2 19.811 27.7503 8.38033
562 2 23.8666 27.3489 8.4547
563 2 27.6335 27.8153 8.20629
564 2 31.8189 27.5693 8.41799
565 2 35.7542 27.6129 8.51388
566 2 39.614 27.7434 8.40564
567 2 43.6255 27.5128 8.3592
568 2 47.6211 27.7965 8.21751
569 2 51.6703 27.4021 8.33492
570 2 55.5384 27.6209 8.17044
571 2 0.290011 31.5805 8.3618
572 2 3.93987 31.5897 8.16799
573 2 7.92719 31.6308 8.21738
574 2 11.9317 31.4842 8.5461
575 2 15.9115 31.4372 8.4934
576 2 19.9523 31.6143 8.47407
577 2 23.7981 31.6114 8.45392
578 2 27.9942 31.6032 8.31856
579 2 31.9014 31.7023 8.29577
580 2 35.6709 31.6518 8.23769
581 2 39.6882 31.6273 8.26765
582 2 43.6049 31.5767 8.19686
583 2 47.3787 31.5925 8.53776
584 2 51.7094 31.5009 8.12912
585 2 55.6383 31.5871 8.25153
586 2 0.250091 35.6537 8.12974
587 2 4.41336 35.6914 8.28084
588 2 8.13792 35.7852 8.19225
589 2 11.9565 35.5761 8.23724
590 2 15.7732 35.3237 8.28749
591 2 19.8116 35.6034 8.21036
592 2 23.9613 35.4221 8.08582
593 2 27.9874 35.4362 8.31245
594 2 31.8092 35.5894 8.37331
595 2 35.7454 35.7051 8.3793
596 2 39.6925 35.4845 8.27577
597 2 43.5709 35.6827 8.33603
598 2 47.65 35.6923 8.19709
599 2 51.5219 35.5711 8.25231
600 2 55.4682 35.4909 8.30912
601 2 0.393342 39.4651 8.24433
602 2 4.19269 39.6934 8.50076
603 2 8.22844 39.5678 8.26776
604 2 12.0653 39.476 8.33165
605 2 15.9895 39.4863 8.35802
606 2 19.9406 39.4366 8.22717
607 2 23.8124 39.4327 8.12101
608 2 27.65 39.4679 8.26752
609 2 31.644 39.6517 8.35558
610 2 35.7846 39.6453 8.06011
611 2 39.7256 39.7491 8.22677
612 2 43.7039 39.7608 8.36651
613 2 47.6657 39.5706 8.41499
614 2 51.6672 39.4874 8.24035
615 2 55.5289 39.5341 8.25479
616 2 0.0501045 43.3351 8.16397
617 2 3.94867 43.5279 8.11315
618 2 7.96213 43.5397 8.2247
619 2 12.1463 43.3505 8.17316
620 2 16.041 43.4561 8.16922
621 2 20.0417 43.3218 8.1722
622 2 23.9475 43.4197 8.22295
623 2 27.9144 43.3754 8.31578
624 2 31.7638 43.5503 8.42902
625 2 35.826 43.4295 8.30714
626 2 39.7128 43.4605 8.20676
627 2 43.6191 43.6996 8.37594
628 2 47.4148 43.4528 8.09585
629 2 51.6349 43.3148 8.36984
630 2 55.585 43.4873 8.31889
631 2 0.185236 47.4181 8.33476
632 2 4.04869 47.274 8.18887
633 2 7.93741 47.3619 8.4437
634 2 12.0551 47.498 8.29885
635 2 15.9625 47.5645 8.18103
636 2 19.8917 47.3998 8.3461
637 2 23.8384 47.5193 8.3342
638 2 27.8576 47.4746 8.4102
639 2 31.7926 47.451 8.38347
640 2 35.5684 47.3703 8.43078
641 2 39.6662 47.5082 8.46269
642 2 43.8219 47.4059 8.3561
643 2 47.6147 47.4739 8.4698
644 2 51.5231 47.2967 8.23823
645 2 55.6142 47.4608 8.22821
646 2 0.0318424 51.271 8.31803
647 2 3.97206 51.5074 8.20676
648 2 8.17556 51.4104 8.40273
649 2 12.14 51.267 8.38023
650 2 15.983 51.4537 8.41065
651 2 19.9574 51.3703 8.26185
652 2 23.8273 51.4752 8.30731
653 2 27.7563 51.4953 8.53816
654 2 31.7613 51.5605 8.366
655 2 35.6428 51.4518 8.29311
656 2 39.782 51.464 8.31416
657 2 43.7447 51.343 8.38166
658 2 47.7922 51.3896 8.35516
659 2 51.6119 51.2204 8.22208
660 2 55.4381 51.4158 8.07705
661 2 0.305377 55.4254 8.43993
662 2 4.04293 55.474 8.04886
663 2 8.16522 55.2031 8.34248
664 2 11.8447 55.3443 8.29608
665 2 16.1687 55.3396 8.23467
666 2 20.0595 55.4031 8.5133
667 2 23.932 55.2363 8.31609
668 2 27.7496 55.4145 8.36707
669 2 31.8693 55.2692 8.40163
670 2 35.7472 55.3483 8.36498
671 2 39.689 55.3249 8.47646
672 2 43.5048 55.4065 8.33768
673 2 47.5242 55.3538 8.49064
674 2 51.6078 55.1965 8.42205
675 2 55.7201 55.5382 8.187
676 2 0.0534069 59.5214 12.3984
677 2 4.13914 59.3237 12.2383
678 2 7.89373 59.2806 12.1954
679 2 11.9434 59.1427 12.3785
680 2 16.0356 59.4714 12.2225
681 2 19.8484 59.3417 12.2218
682 2 23.8034 59.6599 12.2737
683 2 27.8253 59.3611 12.2898
684 2 31.8736 59.2018 12.0607
685 2 35.7842 59.3773 12.2549
686 2 39.6551 59.408 12.3608
687 2 43.6362 59.1741 12.2444
688 2 47.5139 59.3475 12.3288
689 2 51.682 59.3973 12.2799
690 2 55.312 59.357 12.2796
691 2 0.0593684 4.0368 12.257
692 2 3.90804 4.03707 12.2654
693 2 7.87976 3.99943 12.1556
694 2 11.7243 3.91157 12.3148
695 2 16.0099 3.90428 12.3315
696 2 19.9602 3.80534 12.1138
697 2 24.0591 4.03526 12.1299
698 2 27.6111 4.09807 12.2595
699 2 31.7413 3.92949 12.4697
700 2 35.5231 4.0308 12.2217
701 2 39.716 4.03633 12.2516
702 2 43.5037 3.92958 12.4056
703 2 47.4417 4.03387 12.3429
704 2 51.4223 4.18164 12.4537
705 2 55.668 4.05788 12.0035
706 2 0.0614626 8.07247 12.1816
707 2 4.08357 8.07185 12.2389
708 2 7.94493 7.79784 12.3177
709 2 11.9993 7.86986 12.1275
710 2 15.9689 7.83725 12.2363
711 2 19.9685 7.91432 12.3351
712 2 23.783 7.88195 12.3188
713 2 27.766 8.02662 12.3572
714 2 31.5987 7.87356 12.2389
715 2 35.6822 8.03109 12.3665
716 2 39.7371 7.95224 12.3861
717 2 43.681 8.08734 12.3469
718 2 47.4884 8.00146 12.1255
719 2 51.4282 7.93855 12.3912
720 2 55.4335 7.99307 12.1589
721 2 0.132946 11.9441 12.3733
722 2 4.25054 11.8946 12.1988
723 2 7.97486 11.8202 12.318
724 2 12.0936 11.9768 12.0787
725 2 15.8185 11.8153 12.1499
726 2 19.9751 11.9427 12.1739
727 2 23.768 11.7768 12.3283
728 2 27.7234 11.8512 12.2934
729 2 31.7653 11.8453 12.1879
730 2 35.8391 11.9938 12.532
731 2 39.7217 11.9674 12.3033
732 2 43.5903 11.8606 12.2899
733 2 47.4336 12.0766 12.2252
734 2 51.3381 12.0298 12.4346
735 2 55.4593 11.7707 12.1975
736 2 0.148465 15.6971 12.086
737 2 4.26812 15.71 12.2361
738 2 8.02622 15.701 12.3383
739 2 11.9424 15.7663 12.3455
740 2 15.9234 15.8312 12.5629
741 2 20.0165 15.9138 12.0752
742 2 23.7732 15.8975 12.2646
743 2 27.7421 15.9789 12.119
744 2 31.8851 15.862 12.3548
745 2 35.7967 15.8447 12.3553
746 2 39.5958 16.0426 12.3219
747 2 43.4978 15.9449 12.3131
748 2 47.7159 15.9594 12.359
749 2 51.3922 15.8856 12.3027
750 2 55.5387 15.8728 12.3412
751 2 0.0172585 19.7522 12.3537
752 2 4.15091 19.6205 12.2921
753 2 8.17351 19.8232 12.185
754 2 11.9438 19.7707 12.2527
755 2 15.9481 19.751 12.2644
756 2 19.8579 19.9017 12.0863
757 2 23.8792 19.8787 12.3116
758 2 27.8669 19.6658 12.3223
759 2 31.8693 19.9389 12.43
760 2 35.7071 19.8669 12.2681
761 2 39.5307 19.9177 12.2627
762 2 43.6038 19.8484 12.2793
763 2 47.5904 19.8837 12.3189
764 2 51.5144 19.9536 12.3419
765 2 55.5144 19.7202 12.3676
766 2 59.6333 23.6731 12.528
767 2 4.04022 23.5219 12.2969
768 2 8.10139 23.6695 12.4189
769 2 11.9783 23.8232 12.1476
770 2 15.8544 23.8304 12.452
771 2 19.915 23.711 12.3836
772 2 23.7607 23.9076 12.3321
773 2 27.9836 23.7846 12.3521
774 2 31.8276 23.9061 12.2522
775 2 35.6119 23.905 12.2061
776 2 39.578 23.5817 12.1611
777 2 43.5722 23.7916 12.3568
778 2 47.5128 23.8788 12.1368
779 2 51.5581 23.5596 12.1532
780 2 55.6931 23.668 12.2766
781 2 0.252052 27.6941 12.2358
782 2 4.09645 27.6477 12.1307
783 2 8.00708 27.5805 12.2782
784 2 11.8617 27.7123 12.3732
785 2 15.9005 27.7579 12.2931
786 2 19.9235 27.753 12.4021
787 2 23.9121 27.7683 12.3215
788 2 27.8969 27.7351 12.2281
789 2 31.7373 27.6593 12.2476
790 2 35.6897 27.5959 12.2994
791 2 39.6491 27.8381 12.4823
792 2 43.4548 27.744 12.273
793 2 47.5912 27.748 12.345
794 2 51.7397 27.6104 12.2209
795 2 55.4066 27.7115 12.228
796 2 0.154489 31.8795 12.099
797 2 3.94815 31.637 12.3209
798 2 7.96534 31.8097 12.1411
799 2 11.8433 31.5318 12.1972
800 2 15.7689 31.7381 12.2589
801 2 19.8743 31.789 12.2799
802 2 23.8818 31.4706 12.1884
803 2 27.846 31.5021 12.3254
804 2 31.8013 31.6388 12.2329
805 2 35.8245 31.7161 12.4121
806 2 39.7431 31.7399 12.3482
807 2 43.5007 31.5614 12.3164
808 2 47.7337 31.5106 12.1833
809 2 51.7526 31.668 12.243
810 2 55.7425 31.6683 12.1896
811 2 0.151469 35.7291 11.9887
812 2 4.22603 35.5832 12.3486
813 2 8.12612 35.7076 12.2664
814 2 12.0478 35.6689 12.3083
815 2 15.856 35.7256 12.3893
816 2 19.8399 35.5031 12.3979
817 2 23.8434 35.6089 12.2714
818 2 27.8319 35.6791 12.2701
819 2 31.8035 35.6845 12.411
820 2 35.7134 35.7224 12.3238
821 2 39.7822 35.7783 12.1454
822 2 43.6896 35.5383 12.2293
823 2 47.8171 35.6304 12.19
824 2 51.5978 35.5479 12.3732
825 2 55.4998 35.7054 12.022
826 2 0.140573 39.696 12.0575
827 2 3.8628 39.5523 12.3549
828 2 7.97107 39.7689 12.141
829 2 12.1533 39.8115 12.2147
830 2 15.8826 39.4049 12.3419
831 2 19.8045 39.4533 12.3045
832 2 23.8859 39.3425 12.2128
833 2 27.8111 39.4888 12.3274
834 2 31.7168 39.6769 12.4109
835 2 35.7699 39.6937 12.1875
836 2 39.6451 39.7433 12.0516
837 2 43.6998 39.4685 12.3351
838 2 47.5618 39.484 12.4373
839 2 51.6106 39.5326 12.2358
840 2 55.6135 39.7525 12.1037
841 2 0.192885 43.5058 12.1971
842 2 4.00697 43.605 12.1016
843 2 8.17893 43.6076 12.1945
844 2 12.0632 43.4734 12.3031
845 2 16.1346 43.2934 12.2781
846 2 20.098 43.6273 12.0973
847 2 24.0078 43.4304 12.3583
848 2 27.9367 43.5312 12.3756
849 2 31.9513 43.5386 12.1482
850 2 35.7899 43.4081 12.2532
851 2 39.7775 43.5318 12.2264
852 2 43.6448 43.6663 12.257
853 2 47.6907 43.4302 12.4538
854 2 51.5599 43.5115 12.2818
855 2 55.516 43.6835 12.0324
856 2 0.200198 47.4151 12.164
857 2 4.19392 47.6051 12.4606
858 2 8.04876 47.4449 12.1566
859 2 12.1585 47.4016 12.2161
860 2 16.0286 47.4082 12.0554
861 2 20.0422 47.4641 12.2837
862 2 23.8235 47.5061 12.2918
863 2 27.9398 47.4661 12.2403
864 2 31.8246 47.2871 12.3004
865 2 35.7612 47.3951 12.3541
866 2 39.643 47.5593 12.344
867 2 43.7266 47.5064 12.2649
868 2 47.7169 47.517 12.2206
869 2 51.6807 47.3068 12.0531
870 2 55.6185 47.5996 12.2105
871 2 0.187654 51.5042 12.0315
872 2 4.07414 51.597 12.155
873 2 8.00524 51.3774 12.2453
874 2 11.9763 51.3705 12.4211
875 2 16.0538 51.3592 12.2675
876 2 19.9956 51.3989 12.2436
877 2 23.9445 51.4599 12.3182
878 2 27.8141 51.4536 12.3074
879 2 31.9208 51.4656 12.1711
880 2 35.768 51.3859 12.3541
881 2 39.5202 51.5409 12.3368
882 2 43.7071 51.5374 12.4175
883 2 47.8513 51.3054 12.1109
884 2 51.7934 51.5007 12.0614
885 2 55.7061 51.5602 12.3249
886 2 0.256199 55.5108 12.243
887 2 4.06131 55.4436 12.228
888 2 8.03416 55.5304 12.1697
889 2 12.1905 55.2647 12.307
890 2 15.9927 55.2565 12.2515
891 2 19.9621 55.5252 12.231
892 2 23.93 55.4954 12.3493
893 2 27.8271 55.3917 12.3063
894 2 31.6931 55.3009 12.2573
895 2 35.6347 55.3987 12.4125
896 2 39.6851 55.3914 12.4807
897 2 43.7488 55.3739 12.2924
898 2 47.6937 55.4942 12.3098
899 2 51.6107 55.4068 12.1157
900 2 55.6902 55.4501 12.1853
901 2 0.265421 59.4512 16.0944
902 2 4.03934 59.407 16.2647
903 2 8.14952 59.3709 16.2661
904 2 11.8205 59.3966 16.2321
905 2 15.9043 59.3862 16.3557
906 2 19.9627 59.3695 16.0608
907 2 23.7139 59.3569 16.2967
908 2 27.9023 59.3622 16.0845
909 2 31.7395 -0.110063 16.204
910 2 35.7016 59.1961 16.3557
911 2 39.4693 59.5823 16.2532
912 2 43.4559 59.3922 16.3647
913 2 47.5052 59.5643 16.1534
914 2 51.6691 59.4207 16.0536
915 2 55.5419 59.4179 16.1462
916 2 59.2911 4.02624 16.2758
917 2 4.0064 4.06191 16.4109
918 2 8.03983 3.87573 16.2712
919 2 12.1083 3.9692 16.1348
920 2 15.8175 4.02714 16.3004
921 2 19.7827 3.83879 16.1487
922 2 23.822 3.91269 16.2028
923 2 27.8699 4.14481 16.1398
924 2 31.7958 4.0028 16.4332
925 2 35.7397 3.85491 16.163
926 2 39.5638 4.084 16.1628
927 2 43.5588 4.10359 16.2585
928 2 47.6769 3.94384 16.3194
929 2 51.5344 4.04355 16.2656
930 2 55.4461 3.92106 16.2281
931 2 0.212805 7.8029 16.1802
932 2 4.17002 7.70155 16.1082
933 2 8.17063 7.96774 16.2286
934 2 11.9416 8.04169 16.1297
935 2 15.9899 8.01931 16.0824
936 2 19.9444 8.00392 16.223
937 2 23.8172 7.86014 16.4362
938 2 27.8782 7.99057 16.2232
939 2 31.7363 8.18254 16.3817
940 2 35.6833 8.04349 16.2319
941 2 39.6067 8.09955 16.3929
942 2 43.6292 7.94352 16.4057
943 2 47.5198 8.02498 16.1926
944 2 51.5827 7.86497 16.3656
945 2 55.631 8.11382 16.1141
946 2 0.19211 11.9051 16.1862
947 2 4.03918 11.9211 16.3075
948 2 8.10814 11.8783 16.2964
949 2 11.9136 11.8386 16.2362
950 2 16.0124 11.766 16.2755
951 2 19.9472 11.8976 16.2443
952 2 23.9054 11.9885 16.2081
953 2 27.9079 11.9951 16.2139
954 2 31.6981 11.8758 16.3341
955 2 35.6413 11.8582 16.1785
956 2 39.7867 12.0359 16.2591
957 2 43.7603 11.9437 16.297
958 2 47.7979 11.8124 16.4087
959 2 51.5971 11.8707 16.3648
960 2 55.429 11.9941 16.4036
961 2 0.0999817 15.9453 16.2471
962 2 4.17732 15.7974 16.3536
963 2 8.16298 15.9225 16.3934
964 2 11.9529 15.8799 16.3393
965 2 15.9546 15.8204 16.181
966 2 19.9759 15.7009 16.1734
967 2 23.9088 15.7374 16.097
968 2 27.9013 15.7705 16.296
969 2 31.7569 15.8761 16.2721
970 2 35.5856 15.7919 16.3194
971 2 39.7368 15.9122 16.383
972 2 43.6388 15.9561 16.4194
973 2 47.4722 15.8284 16.3181
974 2 51.3896 15.7306 16.1729
975 2 55.4563 15.8963 16.175
976 2 59.5574 19.6954 16.4453
977 2 4.08882 19.6995 16.1734
978 2 8.11223 19.789 16.154
979 2 12.1155 19.7529 16.1261
980 2 16.0606 19.7942 16.1598
981 2 19.9558 19.7619 16.2421
982 2 23.9933 19.9235 16.0667
983 2 27.7093 19.811 16.2738
984 2 31.5905 19.841 16.2377
985 2 35.7281 19.7827 16.3281
986 2 39.5447 19.8914 16.2284
987 2 43.7458 19.9331 16.1747
988 2 47.6626 19.8397 16.3773
989 2 51.6024 19.7712 16.2384
990 2 55.4369 19.6861 16.3001
991 2 0.136936 23.8944 16.1963
992 2 4.13522 23.7018 16.1713
993 2 8.05665 23.8619 16.1519