ITEM: TIMESTEP
49800
ITEM: NUMBER OF ATOMS
28125
ITEM: BOX BOUNDS xy xz yz pp pp pp
0.0000000000000000e+00 5.9369999999999997e+01 0.0000000000000000e+00
0.0000000000000000e+00 5.9369999999999997e+01 0.0000000000000000e+00
8.4506446989898620e-02 9.9415493553010265e+01 0.0000000000000000e+00
ITEM: ATOMS id type x y z
1 2 59.4582 59.2031 0.566181
2 2 4.09963 59.265 0.356285
3 2 8.03435 59.4643 0.497492
4 2 12.0263 59.2217 0.259061
5 2 15.9304 59.2521 0.397405
6 2 19.9946 59.3851 0.273299
7 2 23.7998 59.141 0.399254
8 2 27.8982 59.1868 0.317029
9 2 31.8781 59.1726 0.45486
10 2 35.8805 59.249 0.187355
11 2 39.7655 59.2221 0.296208
12 2 43.5311 59.2739 0.410842
13 2 47.5249 59.3171 0.344048
14 2 51.4629 -0.0321461 0.362156
15 2 55.4934 59.2761 0.324657
16 2 59.3954 4.02408 0.423766
17 2 4.10423 4.05489 0.139632
18 2 8.11239 3.83969 0.359359
19 2 12.1777 3.83058 0.295799
20 2 15.9129 3.68391 0.364407
21 2 20.0542 3.8094 0.391771
22 2 23.9279 3.81246 0.343851
23 2 27.8767 3.76002 0.456171
24 2 31.7482 3.90336 0.500102
25 2 35.3977 3.95103 0.28109
26 2 39.4388 3.84715 0.422525
27 2 43.6406 3.87358 0.410574
28 2 47.5803 3.73391 0.405411
29 2 51.325 3.70478 0.346632
30 2 55.3831 3.65871 0.254684
31 2 59.4467 7.92527 0.409727
32 2 4.11639 7.90462 0.297482
33 2 8.01928 7.72321 0.195906
34 2 11.9568 7.90135 0.413016
35 2 16.1613 7.67068 0.187698
36 2 20.0261 7.90701 0.362225
37 2 23.7793 7.79354 0.307233
38 2 27.833 7.80716 0.267022
39 2 31.824 7.85716 0.437539
40 2 35.659 7.83534 0.383153
41 2 39.7187 7.57524 0.336105
42 2 43.4592 7.58092 0.304054
43 2 47.4141 7.69897 0.322426
44 2 51.5356 7.63797 0.359955
45 2 55.5209 7.85591 0.482994
46 2 59.6196 11.6923 0.194773
47 2 4.17822 11.5346 0.385395
48 2 8.1564 11.8667 0.27784
49 2 12.1828 11.6772 0.34578
50 2 16.0697 11.7832 0.212124
51 2 19.7041 11.9672 0.14929
52 2 24.0008 11.7817 0.166463
53 2 27.8014 11.775 0.53165
54 2 31.7417 11.8381 0.369701
55 2 35.5591 11.682 0.359627
56 2 39.5619 11.787 0.301087
57 2 43.6818 11.7191 0.44026
58 2 47.7062 11.8107 0.336769
59 2 51.4175 11.4501 0.418721
60 2 55.3655 11.7084 0.454796
61 2 -0.0112964 15.7645 0.315661
62 2 4.18215 15.6547 0.289162
63 2 7.9148 15.699 0.266326
64 2 11.9846 15.6018 0.228814
65 2 15.8811 15.7897 0.250581
66 2 20.0719 15.6699 0.182268
67 2 23.7383 15.5357 0.0512527
68 2 27.7925 15.7474 0.219645
69 2 31.7921 15.6919 0.190396
70 2 35.6728 15.8273 0.422272
71 2 39.5342 15.5573 0.467643
72 2 43.6046 15.6846 0.436599
73 2 47.7314 15.7636 0.261594
74 2 51.5442 15.5396 0.502679
75 2 55.7359 15.593 0.239628
76 2 59.5778 19.7046 0.0436011
77 2 3.86027 19.6866 0.27169
78 2 7.81879 19.5385 0.219946
79 2 11.7656 19.7813 0.189708
80 2 16.0752 19.7289 0.104693
81 2 19.9221 19.6144 0.202198
82 2 24.0116 19.6308 0.343329
83 2 27.8536 19.5839 0.354338
84 2 31.6948 19.5715 0.518633
85 2 35.6051 19.823 0.440512
86 2 39.5582 19.5802 0.403756
87 2 43.5527 19.6652 0.191495
88 2 47.5334 19.6741 0.495713
89 2 51.708 19.7844 0.11059
90 2 55.6747 19.7499 0.247481
91 2 59.4079 23.5694 0.462398
92 2 4.22759 23.7036 0.273512
93 2 7.96671 23.4967 0.35385
94 2 11.895 23.583 0.149605
95 2 16.0923 23.7014 0.192128
96 2 20.0007 23.7907 0.241785
97 2 23.7176 23.6417 0.103032
98 2 27.5665 23.3793 0.116561
99 2 31.6591 23.5408 0.266247
100 2 35.7099 23.5658 0.282679
101 2 39.7539 23.5586 0.346892
102 2 43.6285 23.5308 0.318232
103 2 47.5562 23.6609 0.519318
104 2 51.8157 23.5775 0.221225
105 2 55.5954 23.5878 0.294833
106 2 59.4257 27.6411 0.331772
107 2 4.03017 27.597 0.359793
108 2 8.01195 27.4801 0.300693
109 2 12.0218 27.5119 0.223553
110 2 15.9095 27.7296 0.257778
111 2 20.0321 27.4719 0.270633
112 2 23.945 27.5 0.358927
113 2 27.7679 27.4079 0.126676
114 2 31.8067 27.4119 0.268165
115 2 35.8512 27.5355 0.209642
116 2 39.8353 27.4037 0.102434
117 2 43.6395 27.6673 0.437696
118 2 47.677 27.4998 0.377422
119 2 51.6057 27.6248 0.207111
120 2 55.7163 27.4634 0.30013
121 2 0.248878 31.6838 0.485391
122 2 4.07879 31.5582 0.28429
123 2 8.03458 31.6389 0.356417
124 2 11.9848 31.6823 0.283826
125 2 15.7129 31.3782 0.275029
126 2 20.038 31.507 0.246386
127 2 23.7614 31.5039 0.309204
128 2 27.8552 31.5929 0.303526
129 2 31.8926 31.397 0.436902
130 2 35.8147 31.7313 0.422221
131 2 39.6847 31.3319 0.404275
132 2 43.4907 31.6408 0.363155
133 2 47.3367 31.5797 0.42514
134 2 51.5185 31.8013 0.431078
135 2 55.6849 31.4489 0.163048
136 2 59.5341 35.4646 0.430081
137 2 4.10874 35.6735 0.249082
138 2 7.94575 35.6362 0.27715
139 2 11.9323 35.5853 0.327609
140 2 16.0069 35.4376 0.256048
141 2 20.0548 35.4104 0.23644
142 2 24.0603 35.4727 0.39595
143 2 27.8871 35.4382 0.330157
144 2 31.7953 35.3022 0.418231
145 2 35.8415 35.5146 0.292626
146 2 39.7001 35.4141 0.297106
147 2 43.4802 35.5626 0.462143
148 2 47.4335 35.5237 0.433045
149 2 51.6794 35.5043 0.252725
150 2 55.5957 35.4504 0.170604
151 2 59.4711 39.3685 0.394222
152 2 4.16958 39.5598 0.292599
153 2 7.94072 39.4936 0.317513
154 2 12.0533 39.3617 0.166253
155 2 15.9877 39.4024 0.130955
156 2 20.111 39.4146 0.375883
157 2 23.942 39.517 0.4976
158 2 27.9373 39.2577 0.311899
159 2 31.8376 39.3103 0.42983
160 2 35.7227 39.3731 0.370262
161 2 39.6637 39.5372 0.250688
162 2 43.5017 39.3518 0.402186
163 2 47.5826 39.3808 0.164294
164 2 51.4984 39.4626 0.2626
165 2 55.638 39.4767 0.378935
166 2 0.187831 43.3384 0.457259
167 2 4.13402 43.4112 0.43599
168 2 8.43672 43.5368 0.517536
169 2 12.0857 43.4953 0.414075
170 2 15.9709 43.3871 0.329946
171 2 19.9583 43.484 0.448453
172 2 23.854 43.4148 0.253013
173 2 27.9 43.2725 0.392377
174 2 31.7814 43.4232 0.403317
175 2 35.7889 43.4043 0.298077
176 2 39.5411 43.6167 99.7097
177 2 43.6152 43.2719 0.164963
178 2 47.47 43.6339 0.386468
179 2 51.6599 43.3578 0.556915
180 2 55.6519 43.5249 0.329392
181 2 0.288004 47.413 0.40624
182 2 4.17268 47.2158 0.520743
183 2 8.05088 47.3992 0.285645
184 2 11.9179 47.3955 0.357313
185 2 16.0079 47.4382 0.379228
186 2 19.8802 47.3407 0.442226
187 2 23.851 47.4362 0.398854
188 2 27.8128 47.3123 0.440635
189 2 31.7464 47.0791 0.280281
190 2 35.7262 47.501 0.427272
191 2 39.6871 47.374 0.475737
192 2 43.6936 47.3714 0.404574
193 2 47.6103 47.3996 0.459536
194 2 51.604 47.5398 0.473703
195 2 55.5651 47.4455 0.43479
196 2 0.135198 51.2623 0.480533
197 2 4.19421 51.2726 0.282625
198 2 8.01536 51.0768 0.291036
199 2 12.0681 51.3219 0.476262
200 2 16.0082 51.2139 0.319328
201 2 19.9299 51.2305 0.406116
202 2 23.8581 51.354 0.213823
203 2 27.689 51.496 0.304264
204 2 31.7951 51.0313 0.539978
205 2 35.8523 51.2107 0.470158
206 2 39.8736 51.3111 0.371065
207 2 43.7862 51.2113 0.424547
208 2 47.5575 51.3042 0.423257
209 2 51.7461 51.3664 0.506161
210 2 55.6262 51.3227 0.463413
211 2 59.4526 55.3335 0.472024
212 2 4.05283 55.3031 0.422055
213 2 7.75178 55.4235 0.137619
214 2 12.1111 55.3692 0.489428
215 2 15.9556 55.2779 0.30625
216 2 19.955 55.4014 0.391249
217 2 23.8181 55.1868 0.315542
218 2 27.9894 55.3417 0.240923
219 2 31.7329 55.129 0.451555
220 2 35.6685 55.232 0.507923
221 2 39.9203 55.1305 0.390042
222 2 43.8405 55.327 0.354098
223 2 47.7957 55.4838 0.45456
224 2 51.6693 55.4645 0.480785
225 2 55.6358 55.1197 0.54318
226 2 0.2746 59.3123 4.16364
227 2 4.29069 59.2603 4.32052
228 2 8.06316 59.3459 4.28143
229 2 12.0411 59.417 4.40083
230 2 16.0029 59.4412 4.13517
231 2 20.0707 59.3534 4.26447
232 2 23.9162 59.4756 4.2363
233 2 28.0126 59.3854 4.49636
234 2 31.9537 59.2265 4.45862
235 2 35.6406 59.3323 4.50771
236 2 39.6631 59.4175 4.33358
237 2 43.653 59.44 4.3081
238 2 47.7409 59.3143 4.57243
239 2 51.6386 59.2676 4.53799
240 2 55.4629 59.4467 4.22322
241 2 59.672 3.89471 4.21855
242 2 4.15796 4.00107 4.10386
243 2 7.93547 3.89715 4.32227
244 2 12.0305 3.92591 4.23596
245 2 15.9303 4.06886 4.34942
246 2 19.8814 3.75336 4.44762
247 2 24.0002 3.99927 4.27698
248 2 27.8793 4.06403 4.2287
249 2 31.7601 3.90787 4.36551
250 2 35.7834 3.86726 4.40404
251 2 39.6743 3.86968 4.43881
252 2 43.7492 3.92784 4.24746
253 2 47.5626 3.88136 4.52804
254 2 51.6287 3.90306 4.4024
255 2 55.5304 4.03438 4.43857
256 2 59.5129 7.67862 4.32065
257 2 4.15545 7.88659 4.333
258 2 8.20486 7.86282 4.2255
259 2 11.9216 7.81052 4.30966
260 2 16.0077 7.93725 4.12286
261 2 19.9388 7.88751 4.23021
262 2 23.6655 7.92792 4.27121
263 2 27.7088 7.91583 4.33227
264 2 31.6667 8.03078 4.50475
265 2 35.6832 7.77146 4.55632
266 2 39.6567 8.00235 4.28697
267 2 43.7447 7.87608 4.28143
268 2 47.5075 7.79298 4.08234
269 2 51.381 7.68583 4.55522
270 2 55.5594 7.81044 4.35322
271 2 59.5296 11.933 4.26136
272 2 4.03055 11.6882 4.20934
273 2 8.07323 11.9267 4.13781
274 2 12.1121 11.8136 4.1985
275 2 16.0942 11.8535 4.39582
276 2 19.9289 12.0461 4.07628
277 2 23.6123 12.0757 4.24552
278 2 27.6852 11.802 4.25128
279 2 31.7474 12.0287 4.34815
280 2 35.6884 11.8241 4.35081
281 2 39.6321 11.8955 4.25699
282 2 43.7039 11.7388 4.27764
283 2 47.51 11.7122 4.37489
284 2 51.6188 11.7471 4.31336
285 2 55.6509 11.8778 4.29462
286 2 59.4464 15.6505 4.349
287 2 4.1877 15.7513 4.2226
288 2 8.01791 15.7148 4.20048
289 2 12.0262 15.9813 4.31704
290 2 15.9789 15.8747 4.06529
291 2 19.7816 15.8927 4.06027
292 2 23.8757 15.7595 4.1797
293 2 27.7607 15.8416 4.27248
294 2 31.7145 15.7567 4.4151
295 2 35.7711 15.7542 4.28793
296 2 39.841 15.8661 4.32808
297 2 43.6044 15.5229 4.33657
298 2 47.6627 15.9304 4.15198
299 2 51.7053 15.8267 4.27222
300 2 55.3545 16.0441 4.25596
301 2 59.6056 19.7658 4.12326
302 2 4.03539 19.7457 4.08537
303 2 8.1116 19.7257 4.15473
304 2 11.9221 19.8425 4.16189
305 2 16.0075 20.0297 4.30211
306 2 20.0848 19.8075 4.27915
307 2 23.881 19.711 4.36054
308 2 27.783 19.6964 4.2753
309 2 31.7016 19.6707 4.45641
310 2 35.867 19.7578 4.36805
311 2 39.6385 19.7862 4.14117
312 2 43.6142 19.5981 4.29833
313 2 47.9624 19.6991 4.33319
314 2 51.6405 19.7353 4.35471
315 2 55.5357 19.7225 4.22905
316 2 59.5727 23.7087 4.40364
317 2 4.19262 23.8162 4.34101
318 2 8.23555 23.5468 4.33197
319 2 12.1483 23.8865 4.15671
320 2 16.1127 23.6531 4.33236
321 2 19.8744 23.649 4.19397
322 2 23.9038 23.7089 4.29591
323 2 27.7643 23.7587 4.30442
324 2 31.6424 23.6267 4.34361
325 2 35.611 23.7842 4.2715
326 2 39.6323 23.8043 4.25876
327 2 43.5926 23.6701 4.38538
328 2 47.5846 23.6411 4.32066
329 2 51.7214 23.8231 3.90837
330 2 55.5994 23.6165 4.43505
331 2 59.6247 27.7266 4.30449
332 2 4.34913 27.7171 4.24303
333 2 8.1252 27.658 4.26362
334 2 12.0915 27.6837 4.25684
335 2 15.9924 27.4763 4.43651
336 2 19.9199 27.9132 4.35579
337 2 23.9449 27.5994 4.08071
338 2 27.7539 27.7013 4.22494
339 2 31.6221 27.3593 4.2953
340 2 35.7328 27.6097 4.37508
341 2 39.8031 27.4907 4.18973
342 2 43.672 27.6246 4.12441
343 2 47.8348 27.6081 4.31681
344 2 51.6364 27.5366 4.42475
345 2 55.6956 27.4369 4.17915
346 2 0.0608011 31.6941 4.38852
347 2 4.16967 31.4843 4.32369
348 2 8.16337 31.6731 4.29042
349 2 11.963 31.6236 4.24741
350 2 15.9432 31.7891 4.32139
351 2 19.831 31.4585 4.23271
352 2 23.8956 31.5349 4.37841
353 2 27.6849 31.5567 4.28137
354 2 31.6348 31.2339 4.41435
355 2 35.5754 31.5792 4.28451
356 2 39.6998 31.5904 4.40344
357 2 43.7783 31.6658 4.57345
358 2 47.7207 31.6514 4.39816
359 2 51.7087 31.5732 4.11428
360 2 55.6502 31.5489 4.32981
361 2 0.114332 35.4902 4.30924
362 2 4.04591 35.5435 4.17565
363 2 8.07304 35.5716 4.37756
364 2 12.1176 35.3805 4.15022
365 2 16.0624 35.499 4.04175
366 2 19.8382 35.4358 4.26256
367 2 23.9243 35.5257 4.40103
368 2 28.0165 35.4946 4.40888
369 2 31.9558 35.677 4.1809
370 2 35.8769 35.7241 4.22891
371 2 39.6251 35.7177 4.44187
372 2 43.4989 35.5979 4.36001
373 2 47.6317 35.7217 4.2387
374 2 51.6308 35.5949 4.37518
375 2 55.5313 35.7666 4.27562
376 2 0.151839 39.3319 4.45775
377 2 4.1546 39.5009 4.2682
378 2 8.00575 39.641 4.37886
379 2 12.0033 39.2491 4.22877
380 2 15.8824 39.5046 4.28121
381 2 19.8328 39.4378 4.28393
382 2 23.8301 39.5446 4.36375
383 2 27.9391 39.5158 4.20501
384 2 31.7 39.3121 4.40136
385 2 35.5499 39.5761 4.26541
386 2 39.6965 39.7037 4.39175
387 2 43.5666 39.4302 4.3762
388 2 47.5777 39.5106 4.36086
389 2 51.7711 39.421 4.30773
390 2 55.732 39.5042 4.27776
391 2 0.0554595 43.4681 4.28717
392 2 4.11654 43.4401 4.30507
393 2 8.24837 43.7069 4.28239
394 2 12.1006 43.4753 4.37412
395 2 15.7926 43.4412 4.28226
396 2 19.9273 43.5913 4.18921
397 2 23.925 43.4167 4.42522
398 2 27.7841 43.5531 4.52912
399 2 31.8117 43.4172 4.17206
400 2 35.6292 43.3264 4.2059
401 2 39.8166 43.4528 4.28314
402 2 43.6838 43.3282 4.14727
403 2 47.6867 43.2956 4.36621
404 2 51.6341 43.2925 4.26565
405 2 55.5052 43.5061 4.18566
406 2 59.5652 47.571 4.31439
407 2 4.04652 47.3914 4.3907
408 2 8.12285 47.5195 4.256
409 2 11.9916 47.4223 4.32538
410 2 16.0274 47.2578 4.378
411 2 19.9687 47.442 4.24827
412 2 23.9157 47.4136 4.49272
413 2 27.6773 47.504 4.43672
414 2 31.7559 47.4845 4.17881
415 2 35.7504 47.2439 4.51177
416 2 39.7517 47.243 4.379
417 2 43.6511 47.3107 4.36775
418 2 47.7443 47.263 4.24945
419 2 51.6899 47.4426 4.36479
420 2 55.4368 47.4783 4.4418
421 2 0.191833 51.5486 4.43461
422 2 4.25549 51.4602 4.30962
423 2 8.19765 51.5044 4.07943
424 2 12.0759 51.4513 4.39921
425 2 15.842 51.4719 4.39961
426 2 19.7554 51.4166 4.38554
427 2 23.7557 51.5358 4.20439
428 2 27.7754 51.5623 4.43223
429 2 31.8113 51.5257 4.31898
430 2 35.9423 51.3491 4.45768
431 2 39.6121 51.5716 4.48756
432 2 43.6048 51.3914 4.4397
433 2 47.7331 51.3964 4.34561
434 2 51.6036 51.5481 4.28663
435 2 55.5689 51.2936 4.44498
436 2 0.223674 55.3267 4.23123
437 2 4.19424 55.428 4.29427
438 2 8.16941 55.4643 4.21008
439 2 12.003 55.4459 4.28098
440 2 15.9104 55.5073 4.2495
441 2 20.0458 55.4918 4.15271
442 2 24.0484 55.3693 4.28646
443 2 27.6406 55.565 4.51629
444 2 31.6468 55.33 4.4313
445 2 35.794 55.4503 4.39072
446 2 39.6313 55.3224 4.39571
447 2 43.5649 55.2167 4.4167
448 2 47.5625 55.5032 4.29621
449 2 51.5331 55.4777 4.48283
450 2 55.5562 55.5582 4.40344
451 2 0.204314 59.4457 8.12751
452 2 3.96008 59.52 8.10513
453 2 8.26265 59.2138 8.4222
454 2 11.9734 59.3402 8.23143
455 2 15.8564 59.3651 8.25724
456 2 19.918 59.163 8.24329
457 2 24.0417 59.4329 8.27528
458 2 27.7833 59.365 8.34179
459 2 31.9199 -0.112649 8.44684
460 2 35.7966 59.2498 8.4035
461 2 39.657 59.3911 8.30774
462 2 43.708 59.1477 8.30122
463 2 47.699 59.4518 8.38555
464 2 51.6902 0.073455 8.33637
465 2 55.7008 59.3656 8.14071
466 2 0.0239159 4.05904 8.37098
467 2 4.19062 3.975 8.1935
468 2 7.9113 3.79722 8.24635
469 2 12.0123 3.75035 8.10634
470 2 16.1148 4.01194 8.23814
471 2 20.038 4.08066 8.40671
472 2 23.8038 3.86001 8.28738
473 2 27.9355 4.10991 8.13377
474 2 31.7867 4.14336 8.25564
475 2 35.8258 4.10912 8.3419
476 2 39.9208 3.81404 8.20798
477 2 43.6934 3.85534 8.27425
478 2 47.5554 4.07178 8.42231
479 2 51.4676 3.98634 8.32419
480 2 55.5425 3.97584 8.51006
481 2 0.252033 8.00085 8.34542
482 2 4.38656 8.04551 8.0869
483 2 8.33263 7.86059 8.29197
484 2 12.1968 7.97334 8.25866
485 2 15.9701 8.04971 8.30782
486 2 19.9942 8.13719 8.13572
487 2 23.848 7.79326 8.31515
488 2 27.8266 8.0335 8.34429
489 2 31.7127 8.07538 8.35648
490 2 35.9475 7.9877 8.37597
491 2 39.8673 7.9361 8.18364
492 2 43.5765 8.05715 8.2308
493 2 47.8043 7.97616 8.25841
494 2 51.5552 8.00271 8.19849
495 2 55.5294 7.94573 8.24909
496 2 0.288885 11.8705 8.23259
497 2 4.06566 11.8284 8.25219
498 2 8.16561 11.7958 8.38893
499 2 12.2488 12.0227 8.36142
500 2 16.1331 11.6924 8.26424
501 2 19.9619 12.0376 8.1581
502 2 23.9923 11.8615 8.29258
503 2 27.7228 11.8155 8.33758
504 2 31.8285 11.8989 8.10238
505 2 35.872 11.9478 8.31351
506 2 39.699 11.9 8.30022
507 2 43.5837 11.8508 8.26487
508 2 47.6794 11.8272 8.35638
509 2 51.5898 11.9571 8.15411
510 2 55.7414 11.6968 8.34157
511 2 0.299976 15.8647 8.28039
512 2 4.14865 15.9452 8.20991
513 2 8.10551 15.8032 8.12476
514 2 11.9392 15.7754 8.10428
515 2 15.8838 15.9327 8.18887
516 2 19.6573 15.9575 8.22378
517 2 23.9032 15.9769 8.26761
518 2 27.9814 15.698 8.37576
519 2 31.7225 15.7839 8.32158
520 2 35.565 15.839 8.53585
521 2 39.5729 15.9116 8.26229
522 2 43.4734 15.7753 8.14547
523 2 47.6412 15.9049 8.09943
524 2 51.7566 15.9485 8.26754
525 2 55.6658 15.7806 8.26431
526 2 0.166613 19.7939 8.1889
527 2 4.20789 19.8509 8.16708
528 2 8.03662 19.7658 8.09015
529 2 11.8076 19.7472 8.44067
530 2 15.9135 20.0026 8.27531
531 2 20.039 19.7782 8.15117
532 2 23.9536 19.7023 8.30763
533 2 27.8027 19.707 8.28722
534 2 31.6285 19.8002 8.36455
535 2 35.5033 19.8969 8.45724
536 2 39.5321 20.0014 8.20659
537 2 43.6686 19.9088 8.16065
538 2 47.7068 19.867 8.29862
539 2 51.6976 19.8619 8.32621
540 2 55.6439 19.9221 8.26475
541 2 0.37833 23.6817 8.3387
542 2 4.17219 23.8246 8.29788
543 2 8.06142 23.8235 8.25342
544 2 12.0088 23.5742 8.17506
545 2 15.9529 23.5842 8.31011
546 2 19.8685 23.6202 8.30585
547 2 23.9637 23.6841 8.01099
548 2 27.7439 23.6868 8.34262
549 2 31.5489 23.7944 8.57636
550 2 35.7972 23.6855 8.33916
551 2 39.73 23.8089 8.11224
552 2 43.7601 23.6915 8.15536
553 2 47.6296 23.5822 8.22301
554 2 51.5447 23.6178 8.3921
555 2 55.4823 23.8195 8.30452
556 2 0.00858278 27.8658 8.08856
557 2 4.36402 27.5663 8.27473
558 2 8.27184 27.7459 8.21562
559 2 12.1161 27.5832 8.37713
560 2 15.9405 27.6472 8.33006
561 2 19.9016 27.5268 8.25915
562 2 23.9123 27.4627 8.20695
563 2 27.5864 27.6453 8.36454
564 2 31.7332 27.7112 8.24214
565 2 35.7548 27.65 8.31945
566 2 39.6984 27.8442 8.10338
567 2 43.6838 27.6549 8.32101
568 2 47.6819 27.5847 8.09058
569 2 51.6779 27.8158 8.15276
570 2 55.6226 27.824 8.5093
571 2 0.07722 31.599 8.10441
572 2 3.92054 31.5571 8.39495
573 2 8.16577 31.6286 8.38414
574 2 11.9837 31.6346 8.2983
575 2 16.042 31.6686 8.34672
576 2 19.9319 31.6414 8.53647
577 2 23.8742 31.5315 8.15596
578 2 27.7118 31.6188 8.26323
579 2 31.7662 31.716 8.0401
580 2 35.87 31.7514 8.24996
581 2 39.7335 31.6461 8.19422
582 2 43.7359 31.7378 8.16293
583 2 47.548 31.5915 8.2282
584 2 51.6515 31.7246 8.30988
585 2 55.5536 31.5746 8.28376
586 2 -0.00979224 35.5964 8.33642
587 2 4.05927 35.7223 8.27507
588 2 8.17939 35.6839 8.1497
589 2 11.9703 35.6043 8.31495
590 2 15.9633 35.6914 8.29117
591 2 20.1032 35.4242 8.18284
592 2 23.9514 35.6125 8.25473
593 2 27.8193 35.4338 8.41397
594 2 31.8017 35.5339 8.30762
595 2 35.7471 35.5718 8.19401
596 2 39.5734 35.738 8.30961
597 2 43.4238 35.563 8.38845
598 2 47.8013 35.6686 8.4408
599 2 51.743 35.6276 8.25179
600 2 55.4518 35.5778 8.31216
601 2 0.231086 39.6455 8.34506
602 2 4.16026 39.6845 8.32451
603 2 7.94461 39.4762 8.20869
604 2 12.0611 39.5774 8.28371
605 2 16.0895 39.4844 8.19881
606 2 19.9065 39.6768 8.29779
607 2 23.8399 39.5275 8.34742
608 2 27.9817 39.6146 8.26339
609 2 31.8953 39.5965 8.38465
610 2 35.6868 39.5831 8.44243
611 2 39.8351 39.5454 8.37431
612 2 43.7946 39.5022 8.38945
613 2 47.6612 39.6488 8.3227
614 2 51.5799 39.5511 8.27103
615 2 55.6029 39.6787 8.27018
616 2 0.0673554 43.5895 8.11604
617 2 4.19856 43.586 8.184
618 2 8.19608 43.4217 8.30923
619 2 12.0621 43.3905 8.33884
620 2 15.8579 43.5449 8.23689
621 2 19.8256 43.546 8.31208
622 2 23.8164 43.4982 8.26099
623 2 27.8469 43.5938 8.29372
624 2 31.8694 43.633 8.31958
625 2 35.6723 43.6604 8.54363
626 2 39.5807 43.4926 8.30842
627 2 43.5886 43.3188 8.25744
628 2 47.668 43.5181 8.17624
629 2 51.7046 43.4415 8.22808
630 2 55.7956 43.3411 8.30771
631 2 0.109664 47.425 8.33122
632 2 3.94598 47.597 8.26266
633 2 8.14032 47.6045 8.28926
634 2 12.2145 47.5146 8.11361
635 2 15.9044 47.5843 8.39474
636 2 19.7991 47.5336 8.3075
637 2 23.6286 47.6981 8.31747
638 2 27.9845 47.5641 8.11904
639 2 31.9016 47.4631 8.29184
640 2 35.6972 47.5152 8.46868
641 2 39.6926 47.6391 8.42422
642 2 43.7359 47.2344 8.23079
643 2 47.7604 47.4383 8.19679
644 2 51.6025 47.4112 8.37693
645 2 55.7201 47.4691 8.16485
646 2 0.245752 51.4584 8.34457
647 2 4.32875 51.3608 8.27475
648 2 8.04593 51.5602 8.08118
649 2 12.0951 51.5664 8.16097
650 2 15.9132 51.5105 8.31809
651 2 19.9479 51.4013 8.29181
652 2 23.897 51.3912 8.60488
653 2 27.8484 51.5341 8.33456
654 2 31.8263 51.5066 8.08851
655 2 35.6063 51.3322 8.38004
656 2 39.7088 51.4549 8.40228
657 2 43.7279 51.3802 8.19363
658 2 47.6522 51.1023 8.0553
659 2 51.6477 51.5493 8.40454
660 2 55.7253 51.6082 8.3101
661 2 0.248623 55.4524 8.47704
662 2 4.12389 55.3982 8.37451
663 2 8.06772 55.4 8.39292
664 2 12.1183 55.4368 8.21182
665 2 16.1005 55.502 8.19506
666 2 20.0445 55.3277 8.13085
667 2 23.8124 55.5868 8.30318
668 2 27.7789 55.5322 8.46885
669 2 31.8087 55.2741 8.34266
670 2 35.812 55.2844 8.27904
671 2 39.6269 55.4337 8.31063
672 2 43.6024 55.4177 8.33283
673 2 47.5063 55.4316 8.11103
674 2 51.7105 55.3638 8.45395
675 2 55.6523 55.4262 8.25768
676 2 0.147606 59.0464 12.1355
677 2 4.24586 59.3001 12.1107
678 2 8.08035 59.4347 12.4494
679 2 11.969 59.4936 12.313
680 2 16.119 59.5836 12.0597
681 2 19.9419 59.1977 12.2298
682 2 23.6949 59.574 12.4417
683 2 27.8555 59.5033 12.2719
684 2 31.9639 59.4569 12.2261
685 2 35.6802 59.241 12.3567
686 2 39.5948 59.4224 12.2066
687 2 43.6432 59.365 12.1752
688 2 47.4268 59.4232 12.3468
689 2 51.6093 59.4252 12.4424
690 2 55.5629 59.533 12.1429
691 2 0.120397 4.07675 12.1507
692 2 4.21178 4.11181 12.0588
693 2 7.98266 4.01491 12.1887
694 2 12.1781 4.0274 12.343
695 2 15.9259 4.04761 12.2635
696 2 20.0758 3.94418 12.3585
697 2 24.0104 3.98957 12.2028
698 2 27.8925 4.04976 12.1961
699 2 31.9223 3.94611 12.1271
700 2 35.7357 4.03593 12.0467
701 2 39.8038 3.81853 12.3711
702 2 43.6447 3.93612 12.5396
703 2 47.7097 4.08838 12.3239
704 2 51.7218 3.89246 12.1087
705 2 55.6133 4.15538 12.2846
706 2 0.17905 8.09951 12.3257
707 2 4.20008 7.94803 12.2626
708 2 8.1333 7.92508 12.3356
709 2 12.068 7.99465 12.3735
710 2 15.973 7.90954 12.1895
711 2 20.0145 7.9433 12.2577
712 2 23.961 8.00273 12.1658
713 2 27.8402 7.82484 12.3883
714 2 31.8397 8.09032 12.2543
715 2 35.6839 8.03488 12.3437
716 2 39.6592 7.96687 12.3861
717 2 43.6657 8.00347 12.3745
718 2 47.4428 8.08242 12.0906
719 2 51.7327 7.86704 12.0308
720 2 55.4212 8.00284 12.2876
721 2 0.320311 11.897 12.2038
722 2 4.05932 11.9484 12.3071
723 2 7.96738 11.9945 12.2654
724 2 12.0846 11.8636 12.3874
725 2 16.0043 11.8851 12.2657
726 2 19.9591 11.865 12.1533
727 2 23.9868 11.9749 12.1837
728 2 27.8746 11.9776 12.3347
729 2 31.8531 11.7598 12.2849
730 2 35.8748 11.8805 11.9945
731 2 39.7316 12.031 12.3384
732 2 43.8036 11.929 12.1287
733 2 47.5343 11.9413 12.3968
734 2 51.646 12.059 12.2267
735 2 55.5532 11.9647 12.1359
736 2 0.202261 16.0134 12.0775
737 2 4.02751 15.8895 12.2699
738 2 8.09779 15.977 12.3965
739 2 11.9819 15.7619 12.1835
740 2 15.9935 15.9303 12.1811
741 2 19.8774 15.7497 12.3338
742 2 23.7522 15.9109 12.2566
743 2 27.8439 15.831 12.3507
744 2 31.7932 15.8502 12.3536
745 2 35.8052 15.8139 12.4345
746 2 39.5192 15.869 12.1379
747 2 43.6661 15.949 12.0459
748 2 47.6478 16.0556 12.1138
749 2 51.6766 15.7338 12.2461
750 2 55.661 15.9036 12.1981
751 2 0.181978 19.8655 12.3294
752 2 4.02002 19.8843 12.1951
753 2 7.9283 19.7057 12.3454
754 2 12.2141 19.7825 12.1209
755 2 16.0271 19.8137 12.342
756 2 19.912 19.5794 12.194
757 2 23.8844 19.7949 12.3739
758 2 27.7787 19.7942 12.4273
759 2 31.8213 19.8869 12.339
760 2 35.7881 19.8625 12.2904
761 2 39.8732 19.8703 12.1384
762 2 43.585 19.599 12.2615
763 2 47.3875 19.7795 12.2183
764 2 51.5357 19.7898 12.3274
765 2 55.5173 19.8337 12.3054
766 2 59.4838 23.8012 12.1133
767 2 4.02489 23.6506 12.2683
768 2 8.0056 23.6407 12.2264
769 2 11.7732 23.7285 12.2943
770 2 15.9821 23.8224 12.1573
771 2 20.0922 23.9192 12.3846
772 2 23.7628 23.7477 12.2081
773 2 27.93 23.6272 12.3583
774 2 31.7156 23.766 12.1845
775 2 35.8267 23.7052 12.3527
776 2 39.6355 23.8173 12.1863
777 2 43.7798 23.8068 11.9811
778 2 47.6071 23.8717 12.2423
779 2 51.6522 23.8228 12.2393
780 2 55.6929 23.8182 12.1711
781 2 0.239163 27.8462 12.3504
782 2 4.15168 27.5879 12.3289
783 2 7.95497 27.793 12.2182
784 2 12.024 27.4984 12.2092
785 2 16.0752 27.658 12.3527
786 2 19.9672 27.8845 12.3395
787 2 23.7477 27.5803 12.3984
788 2 27.6657 27.7618 12.2765
789 2 31.8385 27.7079 12.2688
790 2 35.8143 27.8148 12.0509
791 2 39.75 27.6256 12.224
792 2 43.8372 27.7685 12.1529
793 2 47.6315 27.9626 12.0692
794 2 51.7077 27.6712 12.378
795 2 55.539 27.6675 12.2657
796 2 0.337544 31.6617 12.1715
797 2 4.17802 31.5543 12.2183
798 2 8.01976 31.6713 12.3348
799 2 12.1294 31.6329 12.3364
800 2 16.0415 31.7035 12.2971
801 2 19.8636 31.709 12.2349
802 2 23.9029 31.6999 12.3021
803 2 27.8781 31.4491 12.2418
804 2 31.6263 31.6547 12.4597
805 2 35.9239 31.6601 12.3625
806 2 39.6267 31.628 12.2497
807 2 43.8428 31.5326 12.2138
808 2 47.6281 31.6828 12.2139
809 2 51.6694 31.6224 12.1563
810 2 55.6102 31.7215 12.4026
811 2 0.24417 35.6392 12.0469
812 2 4.19824 35.6838 12.2593
813 2 8.16917 35.487 12.4673
814 2 11.86 35.512 12.3861
815 2 15.8886 35.8242 12.0933
816 2 20.0175 35.5843 12.269
817 2 24.0332 35.7494 12.2071
818 2 27.8224 35.652 12.3659
819 2 31.7572 35.6513 12.4147
820 2 35.5499 35.7498 12.1736
821 2 39.6375 35.5221 12.3092
822 2 43.8944 35.701 12.1918
823 2 47.9107 35.6366 12.1938
824 2 51.8219 35.7414 12.2935
825 2 55.5811 35.5447 12.1973
826 2 0.297173 39.584 12.2443
827 2 4.13958 39.6477 12.2723
828 2 7.91787 39.5364 12.3567
829 2 11.936 39.455 12.3335
830 2 16.0121 39.6557 12.2657
831 2 20.0105 39.5652 12.4047
832 2 23.8907 39.6325 12.2081
833 2 27.911 39.6783 12.25
834 2 31.9046 39.563 12.2591
835 2 35.9227 39.5594 12.2901
836 2 39.8049 39.5 12.4178
837 2 43.768 39.4428 12.2657
838 2 47.7478 39.493 12.3497
839 2 51.6673 39.6025 12.3875
840 2 55.5917 39.5712 12.4393
841 2 0.388962 43.4326 12.1261
842 2 4.21081 43.6289 12.0079
843 2 8.0767 43.7249 12.4037
844 2 11.8366 43.5757 12.1595
845 2 16.0173 43.669 12.4148
846 2 19.8383 43.633 12.1371
847 2 23.9114 43.5237 12.22
848 2 27.8395 43.6004 12.1609
849 2 31.8554 43.5513 12.3451
850 2 35.8068 43.5737 12.3382
851 2 39.6856 43.6124 12.3357
852 2 43.6749 43.5115 12.1276
853 2 47.8163 43.4701 12.4077
854 2 51.7184 43.6183 12.1611
855 2 55.4672 43.7691 12.2461
856 2 0.0706716 47.7504 12.2075
857 2 4.12692 47.4585 12.2889
858 2 8.04229 47.5635 12.3707
859 2 11.9435 47.543 12.2113
860 2 16.0658 47.5205 12.3166
861 2 19.9478 47.2871 12.276
862 2 23.7962 47.6315 12.2513
863 2 27.8396 47.4675 12.3056
864 2 31.5693 47.6212 12.2229
865 2 35.5864 47.6001 12.2516
866 2 39.6642 47.4412 12.2638
867 2 43.6446 47.5442 12.2707
868 2 47.6235 47.3423 12.2714
869 2 51.6529 47.6838 12.3772
870 2 55.7455 47.5157 12.2606
871 2 0.318156 51.6452 12.2082
872 2 4.17593 51.4405 12.4244
873 2 7.87504 51.5418 12.2999
874 2 11.9459 51.5106 12.2739
875 2 16.1374 51.5582 12.3272
876 2 19.8556 51.4769 12.4349
877 2 23.8827 51.5424 12.4083
878 2 27.6973 51.5673 12.1724
879 2 31.7457 51.5101 12.1987
880 2 35.7215 51.487 12.2402
881 2 39.7833 51.4165 12.2062
882 2 43.8045 51.4111 12.0061
883 2 47.3597 51.5523 12.1416
884 2 51.3723 51.5016 12.1696
885 2 55.5525 51.5255 12.2381
886 2 0.193231 55.3061 12.2371
887 2 4.31017 55.5686 12.1126
888 2 7.91803 55.445 12.4187
889 2 12.025 55.5182 12.2232
890 2 16.0483 55.5586 12.2344
891 2 19.6978 55.2725 12.1931
892 2 23.7918 55.3904 12.2559
893 2 27.8419 55.3954 12.3117
894 2 31.9564 55.4266 12.2819
895 2 35.9254 55.497 12.272
896 2 39.7211 55.3143 12.1006
897 2 43.6468 55.3831 12.3526
898 2 47.5833 55.5155 12.3636
899 2 51.589 55.2666 12.2237
900 2 55.5345 55.4618 12.2793
901 2 0.233652 59.5083 16.2765
902 2 4.00021 59.4 16.2034
903 2 8.02166 59.4823 16.115
904 2 12.1001 59.3795 16.4766
905 2 15.8663 59.5194 16.1745
906 2 20.0324 59.4373 16.2754
907 2 23.9862 59.3809 16.2583
908 2 27.9323 59.2228 16.2995
909 2 31.7681 0.234462 16.2588
910 2 35.7292 59.0404 16.2565
911 2 39.4782 59.3526 16.1149
912 2 43.5375 59.5547 16.3535
913 2 47.6914 59.5093 16.0813
914 2 51.5672 59.446 16.2305
915 2 55.5146 59.5435 16.2399
916 2 59.5412 4.08313 16.189
917 2 4.15678 3.90463 16.3188
918 2 8.26081 3.98043 16.1642
919 2 12.0804 3.96724 16.3603
920 2 16.2574 3.87608 16.1665
921 2 20.0035 4.10692 16.2537
922 2 24.0352 3.93183 16.1433
923 2 28.055 4.08215 16.1898
924 2 31.6402 4.12274 16.2311
925 2 35.9128 4.07758 16.0188
926 2 39.8352 4.18989 16.1498
927 2 43.7361 4.23624 16.2238
928 2 47.4789 4.24487 16.3018
929 2 51.5581 4.00686 16.1118
930 2 55.7904 3.95833 16.1779
931 2 0.167364 8.013 16.3175
932 2 4.22682 7.86826 16.2157
933 2 8.14718 8.03409 16.3896
934 2 11.9002 7.95572 16.3815
935 2 16.1014 7.99644 16.3521
936 2 20.1173 7.97514 16.4031
937 2 23.7983 7.97569 16.2733
938 2 28.1197 8.0981 16.19
939 2 31.9698 7.97358 16.1402
940 2 35.8131 7.90181 16.2609
941 2 39.7329 8.05723 16.2394
942 2 43.6663 7.99286 16.3377
943 2 47.7878 8.06478 16.0428
944 2 51.5548 7.94515 16.2247
945 2 55.409 7.87518 16.3057
946 2 0.157178 11.8223 16.3101
947 2 4.13359 11.7361 16.3899
948 2 7.99802 12.0027 16.2449
949 2 11.9098 11.8168 16.2767
950 2 16.1244 12.0345 16.1801
951 2 19.9268 11.8148 16.0868
952 2 23.7596 11.9617 16.2217
953 2 27.6787 11.9583 16.1913
954 2 32.0074 11.7186 16.4435
955 2 36.0189 11.9484 16.2971
956 2 39.7937 12.1147 16.3218
957 2 43.6978 12.0313 16.2892
958 2 47.7957 11.9684 16.2343
959 2 51.6805 11.9026 16.1062
960 2 55.789 11.9673 16.3297
961 2 0.318125 15.7431 16.3024
962 2 4.07915 15.6724 16.2899
963 2 8.05283 16.0743 16.2774
964 2 12.0282 15.9187 16.2391
965 2 16.0753 15.7794 16.3765
966 2 20.0233 15.6923 16.3112
967 2 23.9444 15.7583 16.2683
968 2 27.9396 15.9334 16.1942
969 2 31.7715 15.6524 16.2053
970 2 35.7409 15.9512 16.1498
971 2 39.8956 15.9247 16.2562
972 2 43.6469 15.9191 16.1227
973 2 47.7367 15.8552 16.149
974 2 51.7953 15.7807 16.2203
975 2 55.7513 15.7344 16.371
976 2 59.2785 19.6574 16.2936
977 2 4.08677 19.7956 16.2595
978 2 7.90905 19.7944 16.4451
979 2 12.0619 19.9019 16.2334
980 2 15.842 19.6813 16.2856
981 2 19.8363 19.8869 16.1716
982 2 23.9963 19.8336 16.2146
983 2 27.7599 19.8044 16.3535
984 2 31.9197 19.7416 16.2259
985 2 35.8498 19.7424 16.2368
986 2 39.8614 19.8144 16.2386
987 2 43.8079 19.7837 16.2683
988 2 47.7166 19.9125 16.1802
989 2 51.6076 19.846 16.1612
990 2 55.4931 19.8253 16.2678
991 2 0.356712 23.6281 16.1561
992 2 4.17242 23.8206 16.403
993 2 8.12952 23.8088 16.3251
994 2 11.9357 23.7142 16.3296