ITEM: TIMESTEP
1505000
ITEM: NUMBER OF ATOMS
16875
ITEM: BOX BOUNDS xy xz yz pp pp pp
0.0000000000000000e+00 5.9369999999999997e+01 0.0000000000000000e+00
0.0000000000000000e+00 5.9369999999999997e+01 0.0000000000000000e+00
3.3718467907165817e-01 6.0029234320931394e+01 0.0000000000000000e+00
ITEM: ATOMS id type x y z
1 2 59.4992 0.231888 9.7548
2 2 4.19586 0.221711 9.82235
3 2 8.01842 -0.0727581 10.0458
4 2 12.0403 59.4025 9.80243
5 2 15.9649 0.0641428 9.92604
6 2 19.8379 0.0698084 9.74919
7 2 24.0577 0.00328736 9.78289
8 2 27.8278 0.0469913 9.74612
9 2 31.8915 -0.172359 9.73789
10 2 35.6101 -0.0486068 9.9161
11 2 39.646 0.15837 9.86678
12 2 43.4833 -0.0149495 9.9416
13 2 47.6361 0.0698839 9.77173
14 2 51.5976 -0.0686571 9.74427
15 2 55.4926 -0.135826 9.83705
16 2 59.2738 4.20444 9.87281
17 2 3.8864 4.05361 9.85805
18 2 7.91802 4.16966 9.75309
19 2 12.0236 3.92815 9.79349
20 2 16.1363 4.0256 9.74852
21 2 19.9251 3.99547 9.67486
22 2 23.8567 3.90243 9.79284
23 2 27.7531 4.02428 9.63817
24 2 31.5317 3.93467 9.65589
25 2 35.7738 3.97824 9.88333
26 2 39.5833 4.22126 9.72725
27 2 43.7861 4.05049 9.71547
28 2 47.4787 4.06507 9.7217
29 2 51.3308 4.25041 9.73947
30 2 55.4431 3.99684 9.7341
31 2 59.3424 8.09263 9.90579
32 2 3.90162 8.03523 9.68877
33 2 7.93127 8.18054 9.73073
34 2 12.0531 8.03407 9.89075
35 2 15.9214 7.90004 9.87801
36 2 19.8607 7.99194 9.78528
37 2 23.8068 8.01597 9.79188
38 2 27.8815 7.93443 9.75182
39 2 31.8932 7.88759 9.87917
40 2 35.552 7.94649 9.86462
41 2 39.7354 7.9102 9.81045
42 2 43.6684 8.06536 9.87196
43 2 47.6864 8.1042 9.78194
44 2 51.64 8.12791 9.75293
45 2 55.5456 8.08513 9.77799
46 2 0.0930999 12.0465 9.85831
47 2 3.90158 12.2499 9.79739
48 2 7.85814 12.0072 9.80866
49 2 11.8934 11.999 9.852
50 2 15.9624 11.8673 9.92861
51 2 19.9497 11.9325 9.81406
52 2 23.8707 11.8214 10.1062
53 2 27.8871 11.9753 9.55597
54 2 31.7028 11.8231 9.85563
55 2 35.7124 12.1461 9.95872
56 2 39.5654 12.0698 9.8097
57 2 43.7459 12.1414 9.83282
58 2 47.6327 11.7938 9.6721
59 2 51.4604 12.0014 9.79007
60 2 55.3158 11.9258 9.73635
61 2 0.107009 16.0817 9.82624
62 2 4.0587 16.0219 9.64362
63 2 8.22515 15.9652 9.71904
64 2 11.9276 15.8622 9.92146
65 2 15.9062 15.9671 9.96137
66 2 19.9387 15.7726 9.83333
67 2 23.6857 15.7009 9.73449
68 2 27.7103 15.7515 9.87123
69 2 31.6982 15.9055 9.85726
70 2 35.6031 16.1606 9.62822
71 2 39.6549 16.105 9.66365
72 2 43.6033 16.0585 9.90209
73 2 47.5077 16.0292 9.67338
74 2 51.5147 16.0124 9.67351
75 2 55.5827 15.6401 9.7518
76 2 59.5262 19.8549 9.76376
77 2 4.18595 19.8816 9.76111
78 2 8.09171 19.7449 9.84438
79 2 12.1154 19.7891 9.79835
80 2 15.8116 19.7194 9.82966
81 2 19.7408 19.7752 10.0597
82 2 23.8827 19.8492 9.93819
83 2 27.7372 19.8568 9.96065
84 2 31.9266 19.8427 9.77272
85 2 35.7643 20.1254 9.54675
86 2 39.7148 19.9583 9.80778
87 2 43.5426 20.1439 9.80895
88 2 47.4959 19.9831 9.94383
89 2 51.4461 19.7961 9.73902
90 2 55.4094 20.0508 9.51394
91 2 59.372 24.0329 9.90072
92 2 4.08549 23.9069 9.91099
93 2 7.9552 23.9351 9.91101
94 2 11.9224 23.8558 9.8315
95 2 15.8425 23.8856 9.7069
96 2 19.9488 23.8284 9.79845
97 2 23.907 23.8821 9.97418
98 2 27.856 23.8157 9.7746
99 2 31.6902 23.6779 9.83713
100 2 35.7165 23.9159 9.66029
101 2 39.6244 23.7966 9.81941
102 2 43.5905 23.9457 9.82854
103 2 47.5903 23.9879 9.7747
104 2 51.6635 23.7039 9.81783
105 2 55.5251 23.7881 9.82366
106 2 0.0579761 27.9029 9.60002
107 2 3.97832 27.9429 9.82016
108 2 8.17604 27.9146 9.85452
109 2 11.8925 27.8677 9.66243
110 2 15.9819 27.9128 9.66952
111 2 19.9491 27.8651 9.80554
112 2 23.9331 27.9315 9.77433
113 2 27.8159 27.7579 9.77841
114 2 31.6244 27.68 9.73453
115 2 35.6414 27.8433 9.86933
116 2 39.858 27.5569 9.486
117 2 43.7472 27.5512 9.78099
118 2 47.6731 27.852 9.68149
119 2 51.6295 27.6948 9.77627
120 2 55.4723 27.9126 9.58036
121 2 0.198044 31.8219 9.77673
122 2 4.07906 31.7578 9.82903
123 2 8.03255 31.6941 9.93215
124 2 11.9163 31.8584 9.73845
125 2 15.8369 31.7669 9.82645
126 2 19.9195 31.8439 9.69124
127 2 23.9717 31.8028 9.83313
128 2 27.8384 31.8268 9.83186
129 2 31.7958 31.7138 9.87436
130 2 35.6666 31.6375 9.80115
131 2 39.4239 31.8868 9.89052
132 2 43.5729 31.4689 9.64067
133 2 47.5845 31.4375 9.84199
134 2 51.5576 31.76 9.82774
135 2 55.4461 31.6856 9.90581
136 2 59.4061 35.6715 9.8454
137 2 3.92776 35.7049 9.78986
138 2 8.196 35.5152 9.92763
139 2 12.0792 35.663 9.72929
140 2 16.0103 35.7535 9.81189
141 2 19.8582 35.6353 9.74184
142 2 23.6897 35.6976 9.7326
143 2 27.8515 35.7158 9.80752
144 2 31.8917 35.9173 9.73974
145 2 35.6951 35.8453 9.70147
146 2 39.8206 35.5343 9.75904
147 2 43.6445 35.5945 9.69352
148 2 47.5915 35.4454 9.5904
149 2 51.5266 35.8024 10.1127
150 2 55.3067 35.8607 9.77937
151 2 59.4873 39.5514 9.90949
152 2 4.09988 39.6278 9.76366
153 2 8.06451 39.6294 9.90453
154 2 12.1495 39.5421 9.86783
155 2 16.0434 39.9263 9.92907
156 2 19.8247 39.5991 9.84388
157 2 23.9568 39.6468 9.87958
158 2 27.8287 39.879 9.7962
159 2 31.8038 39.6731 9.78566
160 2 35.9184 39.611 9.66973
161 2 39.6039 39.6643 9.86552
162 2 43.6156 39.675 9.81859
163 2 47.6404 39.5224 9.83289
164 2 51.4152 39.5606 9.96146
165 2 55.4656 39.8433 9.85314
166 2 59.3504 43.5814 9.64361
167 2 3.95116 43.3486 9.8582
168 2 8.1051 43.5106 10.065
169 2 12.1784 43.5244 9.8771
170 2 15.8931 43.6375 9.69515
171 2 19.9466 43.5147 9.82367
172 2 24.0143 43.6746 9.84581
173 2 27.9112 43.6538 9.81108
174 2 31.8879 43.4609 9.77753
175 2 35.7372 43.4327 9.96243
176 2 39.6565 43.3545 9.75878
177 2 43.7936 43.4915 9.81112
178 2 47.5442 43.3878 9.97528
179 2 51.5881 43.6239 9.76146
180 2 55.6672 43.4871 9.70125
181 2 59.3446 47.597 9.79049
182 2 4.09101 47.422 9.98879
183 2 8.02318 47.6054 9.75965
184 2 12.0846 47.5805 9.65227
185 2 15.9609 47.4785 9.80285
186 2 20.0554 47.6324 9.93673
187 2 23.7881 47.551 10.0143
188 2 27.8225 47.6502 9.62457
189 2 31.8727 47.6863 9.84108
190 2 35.8407 47.5392 9.94807
191 2 39.8892 47.4331 9.85989
192 2 43.6781 47.5227 9.82589
193 2 47.5933 47.5581 9.83464
194 2 51.4482 47.5219 9.80165
195 2 55.3817 47.5343 9.91238
196 2 -0.0250415 51.372 10.0573
197 2 4.07259 51.5664 9.83036
198 2 7.93937 51.3322 9.78442
199 2 12.0771 51.5495 9.67852
200 2 16.0338 51.6361 9.76822
201 2 19.8961 51.6499 10.0278
202 2 23.6055 51.635 9.84954
203 2 27.8544 51.4715 9.85223
204 2 31.9603 51.3937 9.71778
205 2 35.6444 51.4709 9.80075
206 2 39.8171 51.5287 9.97066
207 2 43.8595 51.4981 9.93834
208 2 47.6828 51.3822 10.0311
209 2 51.4957 51.3464 9.89653
210 2 55.4052 51.4428 9.91364
211 2 59.5868 55.555 9.99465
212 2 4.1594 55.5087 9.97189
213 2 7.95114 55.4049 9.88507
214 2 11.9179 55.474 9.82268
215 2 15.8863 55.5792 9.92655
216 2 19.8679 55.427 9.99443
217 2 23.8702 55.6113 9.93123
218 2 27.8659 55.6092 9.73693
219 2 31.8346 55.4207 9.75812
220 2 35.6873 55.3334 9.78644
221 2 39.6045 55.3943 9.95768
222 2 43.5651 55.438 9.93632
223 2 47.581 55.3461 9.79314
224 2 51.6546 55.4327 9.96665
225 2 55.5356 55.1575 9.96494
226 2 59.4671 0.1589 13.7268
227 2 4.18199 0.210898 13.8044
228 2 8.03382 0.154868 13.5885
229 2 11.9679 59.5903 13.7763
230 2 16.159 0.0781962 13.7521
231 2 20.0429 0.213207 13.6396
232 2 23.7864 -0.0556109 13.8365
233 2 27.8901 -0.0463193 13.6868
234 2 31.8179 -0.0964894 13.8182
235 2 35.8758 59.4458 13.595
236 2 39.8579 0.136858 13.5814
237 2 43.8314 0.133255 13.7586
238 2 47.6448 59.4196 13.8194
239 2 51.4219 0.102439 13.6081
240 2 55.4984 0.0442676 13.9021
241 2 59.425 4.23093 13.738
242 2 4.21502 4.17164 13.7765
243 2 8.06092 4.28773 13.6397
244 2 12.1578 4.01506 13.803
245 2 16.0171 4.10762 13.6229
246 2 20.0576 3.9577 13.7938
247 2 23.8504 4.1828 13.7126
248 2 27.8871 4.02449 13.7287
249 2 31.6254 3.86748 13.6764
250 2 35.6332 3.96219 13.5755
251 2 39.5344 4.06853 13.8152
252 2 43.4685 4.03657 13.7593
253 2 47.3863 4.13498 13.7439
254 2 51.3699 4.1216 13.5163
255 2 55.4565 4.12175 13.6736
256 2 59.3384 8.03186 13.8348
257 2 3.96201 8.24108 13.8135
258 2 8.11304 8.02115 13.8563
259 2 11.9868 8.07306 13.9271
260 2 15.9491 8.15247 13.6859
261 2 19.686 7.97985 13.9766
262 2 23.9708 7.9454 13.7635
263 2 27.8283 7.91924 13.6091
264 2 31.8365 8.01906 13.6286
265 2 35.7087 8.03392 13.9229
266 2 39.533 8.01311 13.7815
267 2 43.4103 7.98615 13.7529
268 2 47.3482 7.96061 13.676
269 2 51.3827 7.95421 13.9468
270 2 55.2959 7.98962 13.7739
271 2 -0.0252134 12.0366 13.8884
272 2 4.0333 11.9007 13.5323
273 2 8.07239 11.9954 13.761
274 2 11.9976 12.0054 13.8001
275 2 16.0344 12.1299 13.8085
276 2 20.0526 11.8731 13.8407
277 2 23.8375 11.8296 13.8985
278 2 27.8169 11.9182 13.7081
279 2 31.7809 12.0571 13.8464
280 2 35.7538 12.0938 13.7536
281 2 39.711 12.086 13.6852
282 2 43.6373 12.0241 13.9884
283 2 47.4958 12.0621 13.7144
284 2 51.3945 12.0796 13.5792
285 2 55.5286 11.6964 13.8335
286 2 59.3456 15.837 13.8182
287 2 4.01289 16.1569 13.6469
288 2 7.97545 15.9731 13.9673
289 2 11.9383 15.9234 13.8862
290 2 15.8359 15.8846 13.8595
291 2 19.9058 15.8721 13.8845
292 2 23.8753 15.7008 13.9621
293 2 27.8421 15.922 13.8158
294 2 31.8759 15.9509 13.8609
295 2 35.8007 15.7662 13.7272
296 2 39.7108 16.1381 13.8721
297 2 43.5852 16.1588 13.8941
298 2 47.4674 15.9775 13.8336
299 2 51.5908 15.8979 13.5727
300 2 55.3661 15.8538 13.5962
301 2 59.7331 19.8435 13.6936
302 2 4.10011 19.9401 13.6482
303 2 8.06882 19.701 13.8016
304 2 12.0547 19.9557 13.8578
305 2 15.9453 19.866 13.8935
306 2 19.925 19.8498 13.8405
307 2 23.84 19.9431 13.7621
308 2 27.8687 19.8277 13.8359
309 2 31.8011 19.8851 13.8466
310 2 35.6686 19.951 13.7354
311 2 39.5571 19.921 13.7549
312 2 43.5386 19.9563 13.6931
313 2 47.462 19.9715 13.7827
314 2 51.6835 19.6269 13.64
315 2 55.4572 19.9289 13.5835
316 2 59.4553 23.7442 13.8477
317 2 4.30981 23.9675 13.7549
318 2 7.98501 23.6703 13.889
319 2 11.8666 23.8732 13.8468
320 2 15.9585 23.9396 13.9177
321 2 19.7927 23.8145 13.7847
322 2 23.7962 23.8849 13.81
323 2 27.9527 23.8188 13.7794
324 2 31.797 23.7673 13.7411
325 2 35.6401 23.964 13.8444
326 2 39.5238 23.9287 13.665
327 2 43.6375 23.8708 13.8521
328 2 47.6549 24.0034 13.9364
329 2 51.5105 23.7055 13.5883
330 2 55.5175 23.6176 13.791
331 2 -0.0497518 27.605 13.8053
332 2 4.02795 27.8602 13.6143
333 2 7.97537 27.7915 13.8738
334 2 12.0029 27.635 13.6755
335 2 15.946 27.862 13.721
336 2 19.9673 27.9537 13.8166
337 2 23.7272 27.8297 13.7057
338 2 27.8212 27.88 13.7464
339 2 31.6891 27.6438 13.7765
340 2 35.6154 27.7912 13.6242
341 2 39.7357 27.9005 13.7348
342 2 43.618 27.7911 13.8261
343 2 47.6956 27.8074 13.8911
344 2 51.7889 27.8799 13.838
345 2 55.5037 27.7994 13.8734
346 2 59.3009 31.7855 13.8841
347 2 3.91754 31.6458 13.8143
348 2 8.00177 31.8382 13.807
349 2 11.862 31.6101 13.8097
350 2 15.7989 31.706 13.8871
351 2 19.6678 31.7743 13.7912
352 2 23.8686 31.7678 13.6841
353 2 27.8062 31.7629 13.7958
354 2 31.9433 31.9907 13.5549
355 2 35.539 31.7362 13.5869
356 2 39.6091 31.7488 13.7899
357 2 43.5241 31.7985 13.6965
358 2 47.5961 31.7365 13.6507
359 2 51.6273 31.8051 13.8821
360 2 55.356 31.8451 13.7601
361 2 -0.167954 35.5894 13.8268
362 2 4.08149 35.6699 13.7339
363 2 8.06489 35.6652 13.835
364 2 12.0549 35.7653 13.7277
365 2 15.9659 35.572 13.8137
366 2 19.892 35.5777 13.9209
367 2 23.9113 35.7167 13.6658
368 2 27.7607 35.5776 13.7169
369 2 31.969 35.8496 13.7524
370 2 35.8002 35.781 13.7625
371 2 39.5922 35.4744 13.8474
372 2 43.5979 35.6856 13.8048
373 2 47.3416 35.6448 13.8071
374 2 51.445 35.5623 13.949
375 2 55.3918 35.7234 13.7924
376 2 59.5597 39.4423 13.8764
377 2 4.12922 39.7157 13.8508
378 2 8.07511 39.5271 13.7753
379 2 12.0493 39.4836 13.8008
380 2 15.9177 39.7315 13.65
381 2 19.9202 39.655 13.9363
382 2 23.939 39.5154 13.7623
383 2 27.9354 39.776 13.7631
384 2 31.784 39.5583 13.8437
385 2 35.6796 39.7323 13.8832
386 2 39.7447 39.6221 13.8147
387 2 43.521 39.4295 13.946
388 2 47.5866 39.64 13.9378
389 2 51.445 39.4795 13.821
390 2 55.4173 39.7641 13.8928
391 2 -0.132009 43.5961 13.8345
392 2 3.96156 43.8343 13.7503
393 2 7.92978 43.5744 13.9033
394 2 11.9732 43.5519 13.8329
395 2 15.8382 43.625 13.7563
396 2 19.7601 43.5514 13.8407
397 2 23.8666 43.7459 13.9585
398 2 27.6201 43.6287 13.8962
399 2 31.5515 43.6428 13.8395
400 2 35.5102 43.494 14.019
401 2 39.7078 43.7765 13.7677
402 2 43.5548 43.5552 13.6395
403 2 47.3794 43.5506 13.6383
404 2 51.4274 43.5559 13.8094
405 2 55.2072 43.6282 13.7643
406 2 59.319 47.6155 13.8181
407 2 4.13441 47.6006 13.9312
408 2 8.06109 47.6724 13.8376
409 2 11.9605 47.7262 13.6265
410 2 15.6837 47.4224 13.8126
411 2 19.6792 47.6034 13.8116
412 2 23.7783 47.57 13.8683
413 2 27.4961 47.5726 13.7834
414 2 31.7462 47.5345 13.8095
415 2 35.7351 47.5056 13.6511
416 2 39.5994 47.5329 13.7475
417 2 43.5839 47.4702 13.7568
418 2 47.4679 47.5951 13.783
419 2 51.6004 47.5166 13.7114
420 2 55.2779 47.5139 13.8709
421 2 59.4676 51.5849 13.9399
422 2 3.93549 51.5972 13.8754
423 2 8.19258 51.631 13.5426
424 2 11.9709 51.5725 13.8657
425 2 15.9236 51.4474 13.6439
426 2 19.7583 51.5271 13.9175
427 2 23.7165 51.5444 13.9596
428 2 27.8349 51.4682 13.7684
429 2 31.811 51.5516 13.9232
430 2 35.6909 51.5177 13.9386
431 2 39.5596 51.6047 14.007
432 2 43.7311 51.3877 13.8501
433 2 47.5246 51.5027 13.8538
434 2 51.4225 51.5404 13.8661
435 2 55.5585 51.4721 14.1164
436 2 59.4278 55.6884 13.7802
437 2 4.09222 55.5438 13.8783
438 2 7.9506 55.4265 13.9439
439 2 11.863 55.523 13.7528
440 2 15.9062 55.627 13.5354
441 2 19.7904 55.572 13.8575
442 2 23.8303 55.4502 13.8029
443 2 27.9867 55.2794 13.6273
444 2 31.8079 55.5699 13.8694
445 2 35.7274 55.5232 13.6546
446 2 39.6464 55.3748 14.0537
447 2 43.7075 55.5117 13.8075
448 2 47.5686 55.5268 13.6903
449 2 51.7184 55.5516 13.7987
450 2 55.6158 55.4083 13.9222
451 2 59.4211 0.193554 17.8127
452 2 3.80363 0.0964316 17.6931
453 2 7.96737 59.4822 17.7509
454 2 11.8391 0.132037 17.6513
455 2 15.7182 0.185207 17.766
456 2 19.7791 -0.0383537 17.815
457 2 23.7869 0.232533 17.5313
458 2 27.823 0.158978 17.6857
459 2 31.7344 0.224006 17.7233
460 2 35.6712 0.0654694 17.6849
461 2 39.5551 -0.15831 17.9107
462 2 43.557 59.5531 17.7121
463 2 47.5582 0.271275 17.7908
464 2 51.3632 0.231487 17.5521
465 2 55.4592 0.315861 17.7758
466 2 59.3711 3.97137 17.5899
467 2 3.93686 4.19459 17.839
468 2 7.73328 4.0573 17.7571
469 2 11.9974 4.17277 17.7333
470 2 15.9294 4.12694 17.708
471 2 19.7583 4.11918 17.9377
472 2 23.6515 4.15485 17.6511
473 2 27.711 4.1241 17.6241
474 2 31.8178 3.89715 17.7351
475 2 35.6299 4.10281 17.8875
476 2 39.476 4.07528 17.818
477 2 43.3208 3.89879 17.8141
478 2 47.4426 4.05598 17.7202
479 2 51.2931 4.21547 17.656
480 2 55.348 4.22085 17.6638
481 2 59.4295 8.02179 17.8909
482 2 3.86591 7.94472 17.9108
483 2 7.82046 8.11056 17.8192
484 2 12.0504 8.10538 17.7963
485 2 15.9405 8.16792 17.8212
486 2 19.7195 8.01381 17.9417
487 2 24.0303 8.00271 17.5165
488 2 27.9098 8.1269 17.6999
489 2 31.6595 7.86385 17.5689
490 2 35.786 8.21315 17.7884
491 2 39.6673 8.00888 17.6456
492 2 43.4499 8.11908 17.7133
493 2 47.3055 7.94272 17.785
494 2 51.3674 7.92936 17.5956
495 2 55.3144 7.99242 17.8822
496 2 59.4356 12.0566 17.8251
497 2 4.06735 12.045 17.8732
498 2 8.01461 11.9584 17.7069
499 2 11.9262 12.0535 17.8938
500 2 15.8835 12.151 17.7507
501 2 19.9598 11.8414 17.7534
502 2 23.7328 11.9705 17.9454
503 2 27.8521 11.8342 17.8763
504 2 31.816 11.8562 17.8629
505 2 35.7999 12.0624 17.8535
506 2 39.6409 11.9085 17.7973
507 2 43.5277 12.0829 17.777
508 2 47.5307 11.9263 17.7728
509 2 51.4864 11.9585 17.5943
510 2 55.473 12.032 17.6731
511 2 59.3001 15.8227 17.6728
512 2 3.87592 15.7826 17.8103
513 2 7.96011 15.9293 17.9852
514 2 11.8974 15.8419 17.9015
515 2 15.805 16.1771 17.9343
516 2 19.8905 15.8509 17.7935
517 2 23.9549 15.9944 17.8871
518 2 27.8094 15.9842 17.815
519 2 31.6446 15.9431 17.925
520 2 35.7432 15.9299 17.7751
521 2 39.593 16.1375 17.7923
522 2 43.5275 16.023 17.9224
523 2 47.6337 15.9364 17.735
524 2 51.5051 15.8861 17.843
525 2 55.2781 16.0911 17.7446
526 2 0.0459463 19.7503 17.8625
527 2 4.01752 19.8732 17.8263
528 2 8.06691 19.9733 17.8781
529 2 11.8834 19.775 17.8864
530 2 15.8962 19.9105 17.8771
531 2 19.9173 20.015 17.7407
532 2 23.6986 19.8133 17.689
533 2 27.6747 20.0145 17.6691
534 2 31.7362 19.7957 17.7456
535 2 35.8103 19.7739 17.7623
536 2 39.5159 20.0097 17.8022
537 2 43.5523 19.9672 17.7837
538 2 47.5307 20.0583 17.6297
539 2 51.6452 19.8795 17.6445
540 2 55.5538 20.1064 17.7301
541 2 59.5084 23.7389 17.8329
542 2 4.12241 23.7138 17.6388
543 2 7.96214 24.1562 17.7795
544 2 11.9192 23.7605 17.6023
545 2 15.7642 23.8266 17.7099
546 2 19.7838 23.8277 17.7845
547 2 23.6993 23.7214 17.8038
548 2 27.5866 23.8543 17.7306
549 2 31.639 23.9385 17.7506
550 2 35.6264 23.8835 17.6984
551 2 39.642 23.8937 17.7942
552 2 43.5627 23.9071 17.8224
553 2 47.7239 23.8178 17.8432
554 2 51.6384 23.8447 17.6728
555 2 55.5594 23.7909 17.6643
556 2 59.3416 27.8454 17.5391
557 2 3.84153 27.8726 17.6378
558 2 7.99387 27.9862 17.897
559 2 12.0888 27.838 17.7464
560 2 15.7935 27.8127 17.8766
561 2 19.8023 27.6854 17.6913
562 2 23.8121 27.9183 17.8635
563 2 27.754 27.84 17.8799
564 2 31.5348 27.7031 17.7578
565 2 35.4398 27.9264 17.562
566 2 39.5064 28.0054 17.6659
567 2 43.5598 27.7872 17.9106
568 2 47.2662 27.8206 17.8234
569 2 51.2621 27.7974 17.6123
570 2 55.5672 27.7228 17.6835
571 2 59.4494 31.7397 17.8182
572 2 3.92702 31.9554 17.7007
573 2 7.80319 31.7452 17.6097
574 2 11.7351 31.7649 17.7846
575 2 15.68 31.7129 17.5366
576 2 19.6503 31.9582 17.6375
577 2 23.7292 31.5925 17.8133
578 2 27.7142 31.7838 17.8504
579 2 31.5794 31.8406 17.6943
580 2 35.5029 31.913 17.6307
581 2 39.5105 31.713 17.7332
582 2 43.6126 31.7045 17.9206
583 2 47.4668 31.7699 17.9015
584 2 51.2872 31.5659 17.7563
585 2 55.3758 31.7576 17.7023
586 2 59.4628 35.54 17.8726
587 2 3.96115 35.8689 17.6322
588 2 8.06122 35.8902 17.7584
589 2 11.8646 35.7956 17.9266
590 2 15.9132 35.9021 17.7098
591 2 19.6453 35.7016 17.7997
592 2 23.7159 35.7589 17.7784
593 2 27.5641 35.7431 17.8322
594 2 31.4925 35.85 17.8294
595 2 35.6298 35.84 17.8948
596 2 39.6217 35.5331 17.6595
597 2 43.5233 35.5969 17.9145
598 2 47.5086 35.7419 17.7836
599 2 51.3921 35.2551 17.8432
600 2 55.4661 35.781 17.8018
601 2 59.3041 39.6955 17.8462
602 2 3.8574 39.7165 17.6627
603 2 7.9437 39.6697 17.8125
604 2 11.9781 39.7868 17.7154
605 2 15.6708 39.6463 17.708
606 2 19.8215 39.7422 17.8462
607 2 23.5218 39.7694 17.6407
608 2 27.782 39.551 17.8116
609 2 31.536 39.707 17.9117
610 2 35.8151 39.6745 17.9389
611 2 39.628 39.6908 17.751
612 2 43.8015 39.6135 17.9013
613 2 47.7033 39.5389 17.6532
614 2 51.4384 39.5753 17.8802
615 2 55.4446 39.6146 17.8979
616 2 59.4739 43.7068 17.8586
617 2 3.92212 43.5964 17.5424
618 2 7.96876 43.3956 17.7993
619 2 11.836 43.7374 17.7387
620 2 15.794 43.7133 17.8967
621 2 19.5687 43.6591 17.7996
622 2 23.6 43.641 17.8104
623 2 27.8314 43.7733 17.8356
624 2 31.6725 43.5621 17.855
625 2 35.5096 43.5255 18.0494
626 2 39.654 43.7243 17.7631
627 2 43.6508 43.6071 17.7812
628 2 47.4976 43.6653 17.5902
629 2 51.3939 43.7407 17.7518
630 2 55.3198 43.5035 17.7687
631 2 0.317314 47.5451 17.8417
632 2 4.02499 47.6166 17.8782
633 2 7.68071 47.6067 17.7537
634 2 11.8289 47.6891 17.5469
635 2 15.9388 47.5551 17.859
636 2 19.9547 47.6653 17.8577
637 2 23.769 47.6151 17.9035
638 2 27.7267 47.6528 17.6597
639 2 31.5949 47.7674 17.8349
640 2 35.6654 47.6111 17.8613
641 2 39.7233 47.4548 17.7895
642 2 43.3265 47.7836 17.8396
643 2 47.6255 47.5423 17.7543
644 2 51.7132 47.5401 17.8913
645 2 55.4681 47.5684 17.9046
646 2 59.5666 51.5165 17.9404
647 2 4.28941 51.4343 17.8908
648 2 7.88767 51.5748 17.8221
649 2 12.0253 51.7197 17.6934
650 2 15.7981 51.81 17.6129
651 2 19.8081 51.6101 17.9159
652 2 23.896 51.5515 17.6962
653 2 27.8073 51.688 17.783
654 2 31.6776 51.5922 17.6666
655 2 35.681 51.5108 17.9959
656 2 39.5718 51.6266 17.9337
657 2 43.5628 51.3102 17.8417
658 2 47.6062 51.5597 17.8786
659 2 51.4268 51.6476 17.7885
660 2 55.3555 51.4079 17.9221
661 2 59.4511 55.6041 17.8059
662 2 3.8744 55.4024 17.4643
663 2 7.8673 55.3534 17.8947
664 2 11.9219 55.4936 17.685
665 2 15.8421 55.64 17.5131
666 2 19.6368 55.4169 17.8921
667 2 23.9211 55.544 17.6371
668 2 27.8005 55.5083 17.8303
669 2 31.6103 55.4946 17.769
670 2 35.6871 55.5771 17.8517
671 2 39.7727 55.5715 17.7703
672 2 43.6185 55.5807 17.8231
673 2 47.6139 55.6221 17.7544
674 2 51.6438 55.5043 17.8095
675 2 55.6339 55.5957 17.7314
676 2 -0.198824 0.154034 21.7002
677 2 3.88923 0.0171389 21.6721
678 2 7.77091 0.0917694 21.6785
679 2 11.988 0.332207 21.6934
680 2 16.0136 0.249842 21.6422
681 2 19.8628 59.351 21.7075
682 2 23.6495 59.6101 21.8625
683 2 27.6738 59.2774 21.7524
684 2 31.4665 -0.038438 21.539
685 2 35.4848 59.5452 21.7008
686 2 39.4113 59.3342 21.7116
687 2 43.5589 59.3766 21.7488
688 2 47.5782 59.4908 21.6669
689 2 51.2963 0.228959 21.7315
690 2 55.272 0.246745 21.6346
691 2 59.3572 4.09887 21.7381
692 2 3.89901 4.06755 21.7378
693 2 7.67558 3.9736 21.5909
694 2 11.8491 4.29092 21.6914
695 2 15.8749 4.13293 21.7719
696 2 19.6381 4.14874 21.7351
697 2 23.7004 4.12982 21.7855
698 2 27.6657 3.89215 21.6116
699 2 31.8518 4.04519 21.6221
700 2 35.6545 4.16312 21.6432
701 2 39.5551 4.00148 21.718
702 2 43.3146 3.91127 21.7939
703 2 47.3887 4.20939 21.7392
704 2 51.2799 4.20244 21.5466
705 2 55.3699 4.21098 21.7911
706 2 59.5048 7.81883 21.7323
707 2 3.80709 8.1018 21.5963
708 2 7.78444 8.16922 21.8455
709 2 11.6461 8.16036 21.7681
710 2 15.7266 8.19969 21.7705
711 2 19.8975 8.23469 21.8287
712 2 23.7271 8.00374 21.7574
713 2 27.709 8.05128 21.6459
714 2 31.7135 7.89653 21.7845
715 2 35.5514 8.09643 21.5402
716 2 39.5972 7.79781 21.9758
717 2 43.6886 7.82314 21.7823
718 2 47.5644 7.89755 21.7711
719 2 51.4986 8.14635 21.568
720 2 55.5365 7.97295 21.9377
721 2 59.3527 11.7051 21.8949
722 2 3.9872 12.022 21.8909
723 2 8.00289 11.8699 21.8441
724 2 11.6289 11.959 21.6886
725 2 15.8153 12.2433 21.74
726 2 19.734 12.048 21.6877
727 2 23.8747 11.9399 21.9643
728 2 27.7595 11.8332 21.7979
729 2 31.7288 12.1097 21.811
730 2 35.6475 12.1007 21.7734
731 2 39.5947 11.9694 21.8738
732 2 43.4636 11.9939 21.7988
733 2 47.4994 11.9506 21.6917
734 2 51.3381 11.8211 21.6674
735 2 55.369 11.8272 21.6379
736 2 0.032592 15.9011 21.6307
737 2 3.89577 15.9215 21.9166
738 2 7.93568 16.1319 21.7934
739 2 11.8831 16.0044 21.8867
740 2 15.8316 16.0677 21.7889
741 2 19.7123 15.8133 21.6173
742 2 23.7323 15.7309 21.694
743 2 27.6189 15.8865 21.704
744 2 31.7125 15.9149 21.8278
745 2 35.6272 16.1263 21.8046
746 2 39.4269 16.0279 21.8182
747 2 43.4926 15.925 21.8705
748 2 47.3858 15.9638 21.7471
749 2 51.206 16.0126 21.6747
750 2 55.3143 15.9044 21.6606
751 2 59.3504 19.7473 21.8249
752 2 4.03606 19.8192 21.7649
753 2 7.88712 19.9993 21.8164
754 2 11.9771 19.9498 21.8076
755 2 15.7645 19.9685 21.7835
756 2 19.7779 19.9883 21.6893
757 2 23.6295 19.7914 21.799
758 2 27.6269 19.9872 21.5855
759 2 31.5923 20.0913 21.5097
760 2 35.6662 20.0622 21.6534
761 2 39.5096 20.0616 21.8256
762 2 43.6381 19.7913 21.8032
763 2 47.5105 19.8897 21.8931
764 2 51.3468 19.9677 21.8512
765 2 55.5535 19.7738 21.8141
766 2 59.4877 23.938 21.7103
767 2 3.87232 23.8864 21.6484
768 2 8.0348 23.8366 21.8507
769 2 11.743 24.1068 21.6053
770 2 15.8068 23.8264 21.942
771 2 19.7114 23.8484 21.7423
772 2 23.7798 23.9558 21.7793
773 2 27.6451 23.8836 21.8732
774 2 31.5127 23.8498 21.7275
775 2 35.7048 23.8971 21.744
776 2 39.5787 23.9262 21.6792
777 2 43.6231 23.8595 21.7895
778 2 47.4416 23.8583 21.6018
779 2 51.4583 23.7406 21.9283
780 2 55.4512 23.6801 21.7011
781 2 59.4452 27.8652 21.6183
782 2 3.85526 27.9026 21.6005
783 2 7.7208 27.7152 21.5495
784 2 11.7591 27.943 21.6071
785 2 15.8058 27.9386 21.8945
786 2 19.65 27.7695 21.6481
787 2 23.6044 27.8242 21.6917
788 2 27.5907 27.8177 21.8122
789 2 31.7551 27.7964 21.7235
790 2 35.4924 28.0154 21.8718
791 2 39.5174 27.8367 21.6124
792 2 43.5042 27.8998 21.828
793 2 47.3747 27.7539 21.8082
794 2 51.4512 27.4791 21.69
795 2 55.3677 27.6946 21.8306
796 2 59.3049 31.8704 21.8637
797 2 3.77137 31.9002 21.8681
798 2 7.90786 31.8315 21.895
799 2 11.7099 31.8989 21.7955
800 2 15.9148 31.7507 21.7185
801 2 19.765 31.9539 21.7052
802 2 23.7435 31.6817 21.7674
803 2 27.7536 31.6504 21.8939
804 2 31.6037 31.6158 21.6092
805 2 35.5393 31.722 21.6806
806 2 39.5257 31.8482 21.7711
807 2 43.277 31.7352 21.769
808 2 47.6972 31.6829 21.6708
809 2 51.6765 31.5622 21.7606
810 2 55.538 31.6661 21.6349
811 2 0.0853047 35.6511 21.683
812 2 4.0201 35.7992 21.6515
813 2 8.09579 35.7825 21.8034
814 2 11.9571 35.6434 21.7477
815 2 15.8711 35.8706 21.7888
816 2 19.57 35.7638 21.6982
817 2 23.6597 35.785 21.6664
818 2 27.7657 35.5654 21.809
819 2 31.6058 35.6298 21.7826
820 2 35.5292 35.5868 21.8277
821 2 39.7427 35.6803 21.7633
822 2 43.6946 35.8173 21.6595
823 2 47.5285 35.6886 21.8439
824 2 51.3564 35.5468 21.8846
825 2 55.3158 35.5123 21.7724
826 2 -0.0544049 39.8341 21.9106
827 2 4.06239 39.6601 21.6973
828 2 7.85284 39.7981 21.6617
829 2 11.773 39.86 21.8688
830 2 15.7733 39.8772 21.5148
831 2 19.7087 39.8105 21.7565
832 2 23.7121 39.5372 21.8092
833 2 27.6339 39.5956 21.5541
834 2 31.6404 39.8053 21.7319
835 2 35.8544 39.6041 21.7358
836 2 39.6815 39.6844 21.7135
837 2 43.7105 39.764 21.8642
838 2 47.5354 39.5016 22.0747
839 2 51.3035 39.6711 21.6243
840 2 55.5128 39.6304 21.6908
841 2 59.2175 43.4709 21.8461
842 2 3.77774 43.7526 21.8686
843 2 7.86492 43.5937 21.6784
844 2 11.8712 43.8128 21.6866
845 2 15.7644 43.7572 21.7568
846 2 19.626 43.8301 21.7653
847 2 23.777 43.7769 21.7005
848 2 27.5363 43.6712 21.674
849 2 31.5117 43.8407 21.7768
850 2 35.7022 43.8451 21.7368
851 2 39.7255 43.6056 21.8462
852 2 43.4037 43.5736 21.7809
853 2 47.4515 43.6812 21.6262
854 2 51.4917 43.5641 21.8999
855 2 55.4587 43.6045 22.01
856 2 -0.0107373 47.696 21.773
857 2 3.88634 47.6402 21.7593
858 2 7.9227 47.3826 21.7305
859 2 11.8458 47.5386 21.6728
860 2 15.9194 47.7609 21.9549
861 2 19.7542 47.6296 21.8284
862 2 23.7811 47.6557 21.8023
863 2 27.6615 47.6653 21.7918
864 2 31.5929 47.7175 22.002
865 2 35.4554 47.7686 21.7219
866 2 39.6537 47.6538 21.9016
867 2 43.6023 47.5486 21.8523
868 2 47.5404 47.7197 21.7631
869 2 51.4692 47.4167 21.8188
870 2 55.4048 47.6239 21.6654
871 2 59.2778 51.5585 21.792
872 2 4.03968 51.6347 21.8247
873 2 8.09067 51.4247 21.7843
874 2 11.9088 51.4989 21.8196
875 2 15.8437 51.7201 21.7383
876 2 19.9876 51.6477 21.7935
877 2 23.7171 51.535 21.8696
878 2 27.6283 51.6007 21.8295
879 2 31.5161 51.8109 21.7255
880 2 35.6548 51.7459 21.657
881 2 39.5523 51.498 21.948
882 2 43.4523 51.714 21.7349
883 2 47.5683 51.7297 21.8469
884 2 51.4529 51.7219 21.7717
885 2 55.3526 51.4729 21.6848
886 2 59.4316 55.4885 21.5059
887 2 3.87811 55.5421 21.6104
888 2 7.92398 55.5316 21.6937
889 2 11.8695 55.6306 21.7997
890 2 15.6216 55.4029 21.7464
891 2 19.9493 55.5568 21.7566
892 2 23.8517 55.7188 21.5999
893 2 27.7163 55.5184 21.9056
894 2 31.6652 55.6064 21.833
895 2 35.1906 55.5121 21.7951
896 2 39.4511 55.5017 21.7281
897 2 43.6186 55.4751 21.7335
898 2 47.4917 55.5033 21.8221
899 2 51.531 55.8401 21.7165
900 2 55.2396 55.5101 21.6618
901 2 59.2301 0.0488468 25.5809
902 2 3.87799 59.4053 25.6838
903 2 7.72353 0.145691 25.6563
904 2 11.6487 -0.0267482 25.4792
905 2 15.7292 59.4744 25.6107
906 2 19.9067 0.106728 25.7924
907 2 23.7217 0.248273 25.7291
908 2 27.6925 0.130116 25.6353
909 2 31.484 59.6526 25.6338
910 2 35.5399 0.127584 25.7826
911 2 39.479 0.0593595 25.7477
912 2 43.5872 0.182356 25.758
913 2 47.3902 0.146227 25.7519
914 2 51.4294 0.0460693 25.8676
915 2 55.2436 59.3932 25.7209
916 2 59.2457 3.99216 25.699
917 2 3.77158 4.10301 25.6327
918 2 7.79681 3.98728 25.6285
919 2 11.7628 3.89472 25.6278
920 2 15.9887 3.94212 25.516
921 2 19.7428 3.97121 25.7298
922 2 23.7273 4.20301 25.6058
923 2 27.7191 4.11384 25.5205
924 2 31.5995 4.091 25.771
925 2 35.3914 3.9398 25.5897
926 2 39.6242 3.90834 25.7722
927 2 43.5414 3.86605 25.6557
928 2 47.5667 3.98522 25.8579
929 2 51.4716 3.95489 25.7786
930 2 55.4786 4.05523 25.8673
931 2 59.29 7.98922 25.8581
932 2 3.95837 7.99829 25.6913
933 2 7.89135 7.86618 25.8339
934 2 12.1126 7.99839 25.5052
935 2 15.964 7.89708 25.6602
936 2 19.7579 7.98267 25.8837
937 2 23.5316 7.9181 25.6607
938 2 27.6486 7.89475 25.7494
939 2 31.6211 8.05784 25.7356
940 2 35.5673 8.11444 25.7163
941 2 39.4618 7.9747 25.9122
942 2 43.5952 8.01901 25.8066
943 2 47.6333 8.02666 25.6212
944 2 51.6346 7.80254 25.7579
945 2 55.3826 7.93025 25.7964
946 2 59.1982 11.8477 25.7874
947 2 3.90223 12.0384 25.7712
948 2 7.81872 12.0694 25.5062
949 2 11.717 11.9345 25.7356
950 2 15.7966 12.0721 25.7703
951 2 19.6258 12.1033 25.6334
952 2 23.4743 12.0355 25.5939
953 2 27.511 11.902 25.7545
954 2 31.5882 11.981 25.6024
955 2 35.5194 12.14 25.672
956 2 39.5591 11.9244 25.8353
957 2 43.4068 11.8579 25.7615
958 2 47.437 11.9186 25.9386
959 2 51.2036 11.9167 25.4986
960 2 55.1471 11.9723 25.5726
961 2 59.3688 15.7449 25.6413
962 2 3.81789 15.8374 25.4448
963 2 7.83666 15.8597 25.8564
964 2 11.7771 15.9986 25.7924
965 2 15.68 15.7287 25.7914
966 2 19.6176 16.1472 25.6236
967 2 23.452 15.9 25.7078
968 2 27.5404 15.8232 25.632
969 2 31.4282 16.1419 25.5048
970 2 35.4606 16.0921 25.6569
971 2 39.6046 15.8646 25.7255
972 2 43.4435 16.0612 25.8146
973 2 47.3701 15.9911 25.8401
974 2 51.3645 15.8539 25.7977
975 2 55.3358 15.9557 25.524
976 2 59.3044 19.8291 25.7743
977 2 3.81105 19.8791 25.7856
978 2 7.8056 19.8197 25.7398
979 2 11.8053 19.9923 25.6998
980 2 16.0205 19.9011 25.7856
981 2 19.752 19.9406 25.7908
982 2 23.5348 19.8795 25.8374
983 2 27.5777 19.6764 25.5851
984 2 31.46 19.836 25.7517
985 2 35.4569 20.1042 25.6869
986 2 39.3662 20.0639 25.7554
987 2 43.5235 19.8102 25.5352
988 2 47.3938 19.9754 25.8848
989 2 51.2606 19.6915 25.8963
990 2 55.3724 19.8963 25.7517
991 2 59.3256 23.7992 25.7666
992 2 3.85975 23.9007 25.4766
993 2 7.99729 23.8221 25.7923
994 2 11.8263 23.7679 25.7617
995 2 15.6587 23.8387 25.8584
996 2 19.7601 23.8875 25.6858
997 2 23.6089 23.9125 25.7416
998 2 27.7103 23.8949 25.7722
999 2 31.6029 23.664 25.8671