ITEM: TIMESTEP
1505500
ITEM: NUMBER OF ATOMS
16875
ITEM: BOX BOUNDS xy xz yz pp pp pp
0.0000000000000000e+00 5.9369999999999997e+01 0.0000000000000000e+00
0.0000000000000000e+00 5.9369999999999997e+01 0.0000000000000000e+00
3.2522062297741883e-01 6.0041198377025616e+01 0.0000000000000000e+00
ITEM: ATOMS id type x y z
1 2 59.4099 0.244201 9.63407
2 2 3.89773 0.107114 9.7581
3 2 8.01844 0.0159712 9.89969
4 2 11.8009 59.5997 9.84737
5 2 16.0035 0.0690933 9.90186
6 2 19.689 0.129126 9.66232
7 2 23.7765 0.200686 9.74569
8 2 27.8387 -0.201801 9.81704
9 2 31.7132 0.21028 9.70276
10 2 35.5687 0.254432 9.64544
11 2 39.5217 0.118917 9.6423
12 2 43.6338 0.218277 9.7294
13 2 47.7152 0.169891 9.89756
14 2 51.5584 0.156049 9.90604
15 2 55.5295 0.341266 9.88991
16 2 59.6866 3.99034 9.77792
17 2 4.13382 4.26841 9.8177
18 2 8.11098 4.03634 9.94832
19 2 11.8763 4.09475 9.92144
20 2 15.9751 4.17346 9.83495
21 2 19.988 4.09895 9.57654
22 2 23.7945 4.17089 9.74679
23 2 27.9103 4.03316 9.75309
24 2 31.8646 3.99799 9.82129
25 2 35.7498 4.32756 9.84756
26 2 39.5058 4.07658 9.94305
27 2 43.3834 4.18647 9.86648
28 2 47.6085 4.11708 9.59514
29 2 51.7084 4.09971 9.8277
30 2 55.707 4.11046 9.81438
31 2 59.5011 8.10244 9.81721
32 2 3.92792 8.08106 9.76875
33 2 8.00439 8.20422 9.83167
34 2 12.0806 7.8961 9.79805
35 2 15.9541 8.14379 9.72119
36 2 20.0597 8.00757 9.77011
37 2 23.7453 8.13002 9.51798
38 2 27.6811 8.12595 9.87363
39 2 31.7932 7.96135 9.752
40 2 35.6818 8.0803 9.95566
41 2 39.8293 8.13617 9.70428
42 2 43.6209 8.11012 9.92092
43 2 47.5665 8.08344 9.88648
44 2 51.559 7.94013 9.75453
45 2 55.4583 7.90283 9.79287
46 2 0.0612064 11.8956 9.78153
47 2 4.06347 11.9827 9.83474
48 2 8.08715 12.037 9.82476
49 2 12.0462 11.9641 9.70926
50 2 15.8075 11.8847 9.79789
51 2 19.7422 11.9504 9.74144
52 2 23.7687 11.9849 9.78646
53 2 27.6549 11.8471 9.94052
54 2 31.6873 12.0769 9.77759
55 2 35.7073 11.8543 9.69473
56 2 39.6083 12.1195 9.83124
57 2 43.5418 11.9672 10.0535
58 2 47.5971 12.1692 9.78227
59 2 51.8627 11.694 9.85695
60 2 55.6065 11.9646 9.86244
61 2 0.0694286 16.0521 9.68296
62 2 3.8536 16.025 9.95039
63 2 8.0988 15.8712 9.9356
64 2 11.9269 16.0002 9.88232
65 2 15.9464 15.9014 10.1097
66 2 20.0124 15.8486 9.96462
67 2 23.8001 15.9773 9.95889
68 2 27.8167 15.8332 9.86412
69 2 31.4265 15.9443 9.90502
70 2 35.4704 15.8846 9.84827
71 2 39.519 15.8707 9.81647
72 2 43.2957 15.9265 9.71875
73 2 47.6433 15.8627 9.94917
74 2 51.4341 15.8951 9.8622
75 2 55.2047 15.9147 9.7088
76 2 59.3485 19.7475 9.7127
77 2 4.20342 19.8868 9.76968
78 2 8.09331 20.0671 9.8612
79 2 11.9115 19.8654 9.63852
80 2 15.8756 19.8872 9.86443
81 2 19.8566 20.0147 9.72961
82 2 23.9627 19.7814 9.69331
83 2 27.851 19.9004 9.87531
84 2 31.7192 20.0896 9.82032
85 2 35.4445 19.8306 9.82611
86 2 39.5373 19.9807 9.94974
87 2 43.3992 19.7154 9.84618
88 2 47.4491 19.7963 9.65621
89 2 51.3137 19.9967 9.81151
90 2 55.5059 19.8036 9.94551
91 2 59.729 23.823 9.68898
92 2 4.32455 23.8317 9.64594
93 2 8.11067 24.0307 9.83607
94 2 12.0382 23.8178 9.86721
95 2 15.8894 23.9427 9.93583
96 2 19.7846 23.8304 9.88434
97 2 23.7809 23.8536 9.83246
98 2 27.8168 23.6553 9.77915
99 2 31.76 23.8248 9.83704
100 2 35.8518 23.7257 9.55184
101 2 39.687 23.9374 9.78666
102 2 43.6784 24.0156 9.75776
103 2 47.4488 23.8435 9.86194
104 2 51.5457 24.1296 9.81715
105 2 55.5207 23.9324 9.68789
106 2 0.359434 27.5562 9.80277
107 2 3.94167 27.8969 9.92522
108 2 8.00331 27.7077 9.85355
109 2 11.9439 27.7956 9.99281
110 2 15.8872 27.7779 9.89716
111 2 19.7876 27.7736 9.85042
112 2 23.858 27.8468 9.76987
113 2 27.6819 27.5119 9.90719
114 2 31.6891 27.8155 9.76509
115 2 35.7582 27.8027 10.0074
116 2 39.5625 27.9019 9.88039
117 2 43.5657 28.0265 9.76086
118 2 47.5944 27.8203 9.80998
119 2 51.6301 27.8524 9.9181
120 2 55.5834 27.7126 9.90766
121 2 0.0580947 31.9127 9.88365
122 2 4.0721 31.6989 9.74689
123 2 8.01615 31.7032 9.87321
124 2 11.9505 31.8013 9.95882
125 2 16.1267 31.7162 9.50584
126 2 19.932 31.7841 9.96347
127 2 23.945 31.6562 9.91308
128 2 27.772 31.9904 9.78826
129 2 31.5851 31.6504 9.76234
130 2 35.6566 31.9747 9.67989
131 2 39.6996 31.8787 9.52676
132 2 43.6444 32.0315 9.96901
133 2 47.5802 31.9662 9.62688
134 2 51.5421 31.7105 9.81313
135 2 55.4911 31.9021 9.72731
136 2 59.5889 35.8685 9.6777
137 2 4.1603 35.6479 10.0867
138 2 7.98467 35.7067 9.81349
139 2 11.9272 35.6423 9.87578
140 2 15.8848 35.6482 9.93923
141 2 20.0778 35.8333 9.91711
142 2 23.9935 35.6968 9.91945
143 2 27.8338 35.7261 9.84181
144 2 31.7296 35.6967 9.75147
145 2 35.6109 35.7846 9.94119
146 2 39.7467 35.6939 9.76038
147 2 43.3516 35.6836 9.69811
148 2 47.6895 35.9181 9.95323
149 2 51.4523 35.6552 9.80646
150 2 55.6056 35.634 9.75898
151 2 59.2346 39.7957 9.89173
152 2 4.23044 39.5902 9.94534
153 2 8.1382 39.6395 9.83641
154 2 12.0427 39.5974 9.84323
155 2 16.0014 39.3772 9.92447
156 2 19.7818 39.5392 9.88447
157 2 23.7963 39.7756 9.78935
158 2 27.7712 39.6607 9.88753
159 2 31.7448 39.625 9.98316
160 2 35.6945 39.515 9.90236
161 2 39.8555 39.6844 9.86132
162 2 43.7974 39.4917 9.94596
163 2 47.5854 39.7976 9.67371
164 2 51.6493 39.7877 9.57964
165 2 55.478 39.5752 9.85718
166 2 59.2934 43.7184 9.84345
167 2 4.15371 43.3824 9.94495
168 2 8.05584 43.5855 9.96332
169 2 11.9285 43.5235 9.87387
170 2 16.0062 43.3957 9.90647
171 2 19.6191 43.4973 9.99427
172 2 23.7976 43.7022 9.83296
173 2 27.7296 43.5158 10.0267
174 2 31.5762 43.4682 10.0531
175 2 35.781 43.711 9.63822
176 2 39.6788 43.5796 9.94668
177 2 43.5647 43.6936 9.93673
178 2 47.6336 43.81 9.76236
179 2 51.5158 43.7945 9.73826
180 2 55.4554 43.8274 9.82394
181 2 59.5833 47.793 9.89555
182 2 4.13003 47.7742 9.74977
183 2 8.18337 47.5837 9.85127
184 2 11.9798 47.3555 9.85417
185 2 15.8976 47.3506 9.77774
186 2 19.8217 47.4901 9.95224
187 2 23.8332 47.563 9.82957
188 2 27.7205 47.6072 9.83079
189 2 31.8332 47.6586 9.89109
190 2 35.6315 47.5555 9.91304
191 2 39.618 47.8004 9.77163
192 2 43.65 47.5566 9.61627
193 2 47.7642 47.7871 9.6366
194 2 51.5597 47.7904 9.91786
195 2 55.5928 47.8783 9.80095
196 2 -0.050803 51.502 9.78657
197 2 4.08625 51.6499 9.88992
198 2 7.9728 51.4794 9.96504
199 2 12.186 51.3725 9.73558
200 2 15.9145 51.3896 9.83999
201 2 19.767 51.3359 9.85225
202 2 23.7742 51.3892 9.91844
203 2 27.7577 51.5874 9.95658
204 2 31.7701 51.4688 9.88016
205 2 35.6 51.4498 9.91554
206 2 39.2433 51.6526 9.64702
207 2 43.6697 51.6804 9.6089
208 2 47.493 51.7378 9.75166
209 2 51.5923 51.7768 9.72213
210 2 55.6302 51.5341 9.70727
211 2 59.2603 55.46 10.0945
212 2 4.0206 55.4671 9.90612
213 2 7.9893 55.557 9.8191
214 2 11.8763 55.4534 9.88487
215 2 15.9129 55.4146 9.74266
216 2 19.6698 55.5373 9.55377
217 2 23.6755 55.2824 9.75605
218 2 27.6994 55.4017 9.99092
219 2 31.8233 55.5423 9.82467
220 2 35.8189 55.5143 9.76086
221 2 39.7619 55.3939 9.62699
222 2 43.4742 55.3944 9.73233
223 2 47.4462 55.5323 9.84666
224 2 51.7464 55.7003 9.79618
225 2 55.5736 55.6425 9.83186
226 2 59.4794 -0.0114178 13.8704
227 2 3.96238 0.126655 13.9532
228 2 7.93068 -0.042091 13.8608
229 2 11.9218 59.5504 13.8222
230 2 15.9058 0.0796386 13.7679
231 2 19.8033 0.0174448 13.7047
232 2 23.7581 0.101089 13.6648
233 2 27.6988 0.223502 13.686
234 2 31.7903 0.00670091 13.8336
235 2 35.6301 59.5052 13.9111
236 2 39.4875 0.0234632 13.8124
237 2 43.3052 0.152055 13.8206
238 2 47.4336 59.5737 13.5772
239 2 51.6492 0.21109 13.7431
240 2 55.4202 0.213934 13.7902
241 2 59.4093 4.07913 13.8394
242 2 3.86678 4.24387 13.7402
243 2 7.97106 4.03843 13.8015
244 2 11.9747 4.19707 13.7639
245 2 15.7885 4.12066 13.6687
246 2 20.0081 4.05103 13.5114
247 2 23.7956 3.88238 13.7466
248 2 27.7132 4.1298 13.7387
249 2 31.5689 4.00455 13.6604
250 2 35.6356 4.03119 13.6035
251 2 39.589 4.13694 13.8786
252 2 43.4688 4.11103 13.8458
253 2 47.3927 4.08582 13.8266
254 2 51.3204 4.11202 13.9003
255 2 55.3045 4.19017 13.7552
256 2 59.5341 8.00321 13.819
257 2 3.95884 8.08283 13.7169
258 2 7.85448 8.04971 13.8411
259 2 11.8592 8.02686 13.5972
260 2 16.084 7.96594 13.8477
261 2 19.9835 8.00344 13.7804
262 2 23.772 7.77036 13.6986
263 2 27.8048 8.02241 13.7677
264 2 31.8041 8.01982 13.9113
265 2 35.7482 8.16983 13.8261
266 2 39.5094 8.05778 13.8292
267 2 43.5416 8.01312 13.8031
268 2 47.4078 8.02682 13.6511
269 2 51.3719 8.08286 13.9033
270 2 55.5749 7.86788 13.8794
271 2 -0.0841318 11.9901 13.8951
272 2 4.03524 12.0674 13.8481
273 2 7.98922 12.1106 13.9393
274 2 11.7602 12.1116 13.9241
275 2 15.7698 11.9131 14.0158
276 2 19.8794 11.8763 13.8184
277 2 23.7238 12.0418 13.8138
278 2 27.7637 11.9267 13.9926
279 2 31.757 12.1144 13.8277
280 2 35.5877 11.8618 13.656
281 2 39.5739 12.0496 13.8291
282 2 43.4752 12.0773 13.8584
283 2 47.5235 12.0446 13.776
284 2 51.5456 11.9501 13.9312
285 2 55.497 11.9834 13.9308
286 2 59.2353 15.9684 13.7464
287 2 4.0623 15.983 13.7848
288 2 7.83975 15.9875 13.7711
289 2 12.1339 15.7637 13.804
290 2 16.0817 15.8262 13.6686
291 2 19.7459 15.9333 14.0074
292 2 23.6751 16.0223 13.9014
293 2 27.7813 15.8174 13.8918
294 2 31.631 15.9348 13.7882
295 2 35.4953 15.8716 13.719
296 2 39.4447 16.0795 13.8474
297 2 43.5385 16.1446 13.5938
298 2 47.4998 15.9636 13.7133
299 2 51.26 15.9625 13.6823
300 2 55.3412 15.9291 13.8012
301 2 59.6287 20.0587 13.6067
302 2 4.05819 19.5998 13.8936
303 2 8.1947 20.0883 13.7409
304 2 11.7632 19.7552 13.7922
305 2 15.7922 19.894 13.7522
306 2 19.7893 19.801 13.7262
307 2 23.8534 19.9555 13.7934
308 2 27.6703 19.8508 13.9535
309 2 31.6303 20.0087 13.901
310 2 35.5603 19.925 13.8491
311 2 39.5563 20.0531 13.8334
312 2 43.4956 19.7675 13.92
313 2 47.3669 20.0303 13.6375
314 2 51.3757 20.0975 13.8855
315 2 55.3017 19.9752 13.7057
316 2 59.5102 23.8523 13.6696
317 2 3.82235 23.6973 13.7958
318 2 8.02866 23.8766 14.0048
319 2 11.9133 23.7926 13.8568
320 2 15.7706 23.6352 13.929
321 2 19.986 23.8985 13.7913
322 2 23.7849 23.891 13.826
323 2 27.6485 23.8113 13.7065
324 2 31.4217 23.9115 13.7819
325 2 35.7151 23.877 13.6956
326 2 39.6395 23.8869 13.6294
327 2 43.566 23.9 13.8557
328 2 47.398 23.9133 13.7933
329 2 51.2189 24.0014 13.8381
330 2 55.6185 23.949 13.5997
331 2 -0.0641223 28.0077 13.6091
332 2 3.85439 27.7783 13.7746
333 2 7.70793 27.8264 13.8389
334 2 11.9965 27.8512 13.9511
335 2 15.7988 27.7583 13.8529
336 2 19.9173 27.7965 13.8548
337 2 23.7594 27.6171 13.8132
338 2 27.7615 27.8501 13.7462
339 2 31.6689 28.0126 13.7728
340 2 35.4489 28.039 13.7784
341 2 39.4275 27.9203 13.9672
342 2 43.5137 28.0359 13.5104
343 2 47.3842 27.7673 13.7711
344 2 51.2058 27.7323 13.9082
345 2 55.4373 27.8713 13.7464
346 2 59.346 31.8683 13.8593
347 2 4.09877 31.7414 13.694
348 2 8.09023 31.6723 13.8899
349 2 12.0632 31.6555 13.9612
350 2 16.0566 31.84 13.7801
351 2 19.9069 31.6182 13.8797
352 2 23.904 31.7184 13.9487
353 2 27.6174 31.8903 13.8564
354 2 31.5244 31.8553 13.7823
355 2 35.5728 31.9183 13.6946
356 2 39.3273 31.6837 13.7865
357 2 43.5095 31.8227 13.926
358 2 47.4426 31.6666 13.7139
359 2 51.262 31.6607 13.8688
360 2 55.2712 31.6454 13.7314
361 2 -0.0148201 35.8821 13.8266
362 2 4.21291 35.6501 13.9762
363 2 8.13555 35.5441 13.8919
364 2 11.9909 35.6141 13.7232
365 2 15.7808 35.7507 13.8586
366 2 19.8778 35.8251 13.8987
367 2 23.7446 35.7356 14.2102
368 2 27.6043 35.8395 13.9261
369 2 31.5413 35.8111 13.8965
370 2 35.682 35.7861 13.8018
371 2 39.5263 35.8983 13.7606
372 2 43.6154 35.6829 13.7722
373 2 47.7075 35.5277 13.9599
374 2 51.4957 35.8483 13.7556
375 2 55.3881 35.6245 13.6475
376 2 59.3738 39.8285 13.5243
377 2 4.02951 39.6176 13.9648
378 2 8.04902 39.6428 14.0002
379 2 11.9572 39.7984 13.9588
380 2 15.7791 39.5922 13.8538
381 2 19.7781 39.7627 13.9967
382 2 23.6084 39.743 13.9413
383 2 27.5368 39.7614 13.9016
384 2 31.5964 39.8743 13.7079
385 2 35.6726 39.7493 13.7674
386 2 39.732 39.6044 13.727
387 2 43.6947 39.7064 13.7958
388 2 47.4836 39.6941 13.7299
389 2 51.535 39.9345 13.7509
390 2 55.2773 39.4454 13.7515
391 2 0.104509 43.7186 13.7959
392 2 4.05548 43.4591 13.9891
393 2 7.90436 43.6415 13.7738
394 2 11.9968 43.6057 13.8004
395 2 15.7875 43.4622 13.8649
396 2 19.8193 43.4487 14.0254
397 2 23.8311 43.7168 13.9108
398 2 27.7015 43.7075 13.8024
399 2 31.7954 43.544 13.9284
400 2 35.911 43.6269 13.7453
401 2 39.6496 43.5574 13.8012
402 2 43.5441 43.7735 13.8507
403 2 47.475 43.6016 13.5164
404 2 51.5382 43.732 13.785
405 2 55.5328 43.762 13.6803
406 2 59.5899 47.5089 13.8547
407 2 3.87634 47.5152 13.5688
408 2 7.908 47.6041 13.9481
409 2 11.9923 47.5244 13.8971
410 2 15.8488 47.7371 13.8379
411 2 19.7182 47.4001 13.8672
412 2 23.7542 47.7658 13.7782
413 2 27.9437 47.5842 13.8314
414 2 31.8275 47.5138 13.8987
415 2 35.5506 47.4283 13.788
416 2 39.5899 47.6964 13.683
417 2 43.7029 47.538 13.6952
418 2 47.5097 47.7613 13.8341
419 2 51.359 47.5951 13.6535
420 2 55.4976 47.6945 13.6362
421 2 59.4565 51.592 13.6546
422 2 4.09331 51.6499 13.7148
423 2 7.91268 51.6834 13.8794
424 2 11.8563 51.6672 13.8043
425 2 15.7326 51.7768 13.8314
426 2 19.791 51.4769 13.702
427 2 23.73 51.4314 13.9125
428 2 27.8567 51.6121 13.816
429 2 31.6677 51.3762 13.7501
430 2 35.9275 51.5456 13.8005
431 2 39.6557 51.456 13.8304
432 2 43.4133 51.6551 13.6479
433 2 47.6083 51.7146 13.623
434 2 51.538 51.6028 13.748
435 2 55.5488 51.5453 13.911
436 2 59.4226 55.5988 13.9253
437 2 4.09933 55.6245 13.8355
438 2 7.96774 55.6002 13.7414
439 2 11.9728 55.753 13.647
440 2 15.7883 55.541 13.9074
441 2 19.8562 55.4375 13.8644
442 2 23.8195 55.5587 13.6303
443 2 27.6648 55.3885 13.8026
444 2 31.741 55.4213 13.6572
445 2 35.7794 55.534 13.7509
446 2 39.5961 55.7007 13.6887
447 2 43.5476 55.7593 13.7531
448 2 47.5663 55.5818 13.796
449 2 51.3764 55.3357 13.7834
450 2 55.3707 55.5901 13.7616
451 2 59.4308 0.127036 17.6551
452 2 3.93004 0.109963 17.9607
453 2 7.93786 59.5973 17.7672
454 2 11.8817 0.271634 17.6897
455 2 16.031 0.231907 17.7698
456 2 19.9464 0.0137594 17.7781
457 2 23.6986 -0.037414 17.8635
458 2 27.4901 0.0827304 17.85
459 2 31.6326 0.0293491 17.9766
460 2 35.3952 -0.0145021 17.6457
461 2 39.6982 0.199488 17.8418
462 2 43.4502 59.5162 17.8
463 2 47.5185 -0.00461289 17.7807
464 2 51.5473 0.0480837 17.6003
465 2 55.4141 0.160255 17.7393
466 2 59.4376 4.0979 17.8283
467 2 4.05423 4.25932 17.6962
468 2 7.94384 4.30542 17.702
469 2 11.8441 4.27619 17.7178
470 2 16.0122 4.11658 17.7497
471 2 19.7879 4.02633 17.6918
472 2 23.7647 4.04784 17.6948
473 2 27.7016 3.98655 17.5372
474 2 31.5033 4.1058 17.469
475 2 35.6443 3.98878 17.6409
476 2 39.3896 4.11389 17.7256
477 2 43.4567 4.03736 17.7387
478 2 47.4164 3.89763 17.7455
479 2 51.301 4.01816 17.9332
480 2 55.4607 3.86999 17.9607
481 2 59.4876 8.14126 17.796
482 2 4.1048 7.97545 17.8104
483 2 7.99786 8.23915 17.711
484 2 11.8687 8.17537 17.8058
485 2 15.8821 8.07823 17.716
486 2 19.701 8.03235 17.6771
487 2 23.8547 7.99298 17.8154
488 2 27.6694 8.11565 17.8166
489 2 31.7187 8.11438 17.7683
490 2 35.6228 7.9458 17.6439
491 2 39.4427 7.96247 17.7449
492 2 43.4265 7.93749 17.8627
493 2 47.3927 8.13092 17.9276
494 2 51.4595 7.85337 17.8692
495 2 55.2617 8.02241 17.8676
496 2 59.249 11.8442 17.8099
497 2 3.88321 11.9889 18.0169
498 2 7.90293 12.038 17.7739
499 2 11.8867 12.0964 17.9092
500 2 15.9067 11.9518 17.7507
501 2 19.9402 12.1748 17.6942
502 2 23.552 11.9588 17.7401
503 2 27.8386 11.956 17.8159
504 2 31.8692 12.0478 17.7857
505 2 35.5842 12.1068 17.7373
506 2 39.5807 12.0086 17.7403
507 2 43.4903 12.0834 17.6985
508 2 47.3828 11.9667 17.6092
509 2 51.3635 11.8323 17.7874
510 2 55.3193 11.8504 17.7172
511 2 59.5344 15.7606 17.7391
512 2 3.95354 16.0371 17.7291
513 2 7.94461 15.8227 17.9403
514 2 12.0898 16.0554 17.6608
515 2 15.9015 15.843 17.763
516 2 19.7544 16.0421 17.8651
517 2 23.8246 15.932 17.8152
518 2 27.8233 15.7969 17.8609
519 2 31.7085 16.023 17.7518
520 2 35.637 16.0071 17.8446
521 2 39.6689 16.0038 17.8586
522 2 43.4231 15.8633 17.6044
523 2 47.2985 15.9279 17.7317
524 2 51.2757 16.1536 17.6758
525 2 55.486 15.9549 17.494
526 2 -0.061206 19.9058 17.6899
527 2 4.03445 19.7599 17.8098
528 2 7.98662 19.7204 17.8538
529 2 11.6486 19.8928 17.6734
530 2 15.7852 19.8995 17.8314
531 2 19.7147 19.9548 17.7022
532 2 23.7712 19.7743 17.8483
533 2 27.6591 19.8445 17.9046
534 2 31.517 20.0175 17.8234
535 2 35.5285 20.0552 17.7619
536 2 39.4256 19.9994 17.7438
537 2 43.5395 19.8924 17.9047
538 2 47.3769 19.84 17.6824
539 2 51.4328 20.0599 17.6999
540 2 55.462 19.8771 17.6899
541 2 59.3933 23.8932 17.7331
542 2 3.95415 23.7724 17.6368
543 2 7.73055 23.5485 17.8095
544 2 11.907 23.8401 17.8145
545 2 15.8254 23.7625 17.7524
546 2 19.7937 23.9507 17.9449
547 2 23.8997 23.7792 17.7068
548 2 27.7956 23.8621 17.6421
549 2 31.4789 24.0222 17.7207
550 2 35.4299 23.9442 17.6475
551 2 39.3582 23.9562 17.6503
552 2 43.5551 23.8399 17.7318
553 2 47.4235 23.7537 17.8527
554 2 51.3529 23.8709 17.9006
555 2 55.3207 23.7986 17.6894
556 2 59.1074 27.7679 17.5484
557 2 3.68214 27.7463 17.8825
558 2 7.74626 27.5417 17.6414
559 2 11.7595 27.7111 17.8576
560 2 15.6554 27.7596 17.903
561 2 19.6745 27.6519 17.9255
562 2 23.5425 27.8474 17.8045
563 2 27.5934 27.8003 17.8099
564 2 31.6569 27.7842 17.7605
565 2 35.5779 27.6828 17.6425
566 2 39.3005 27.886 17.799
567 2 43.5032 27.6768 17.736
568 2 47.4984 27.8047 17.8499
569 2 51.5853 27.7897 17.766
570 2 55.2839 27.7243 17.7565
571 2 59.2025 31.776 17.6901
572 2 3.71761 31.5942 17.7361
573 2 7.93232 31.6878 17.8447
574 2 11.8018 31.7334 18.0815
575 2 15.85 31.6782 17.8782
576 2 19.7065 31.5964 18.0531
577 2 23.5697 31.8487 17.8034
578 2 27.8044 31.8167 17.8559
579 2 31.5523 31.7699 17.894
580 2 35.594 31.8058 17.7986
581 2 39.3629 31.7308 17.7408
582 2 43.3149 31.9176 17.7164
583 2 47.425 31.6594 17.9247
584 2 51.5601 31.8479 17.7149
585 2 55.2324 31.7207 17.8096
586 2 59.3392 35.9296 17.6379
587 2 3.7052 35.7766 17.7811
588 2 7.96773 35.6288 17.8898
589 2 12.0055 35.7454 17.7621
590 2 15.7701 35.5188 17.739
591 2 19.7265 35.7488 17.8847
592 2 23.6097 35.6018 18.1243
593 2 27.95 35.8896 17.7336
594 2 31.8113 35.719 17.8703
595 2 35.5084 35.7519 17.8402
596 2 39.7992 35.7798 17.8771
597 2 43.6103 35.7881 17.7958
598 2 47.4226 35.6788 17.8086
599 2 51.4617 35.7338 17.7259
600 2 55.3844 35.6793 17.81
601 2 59.1366 39.8361 17.745
602 2 3.99718 39.9278 17.8267
603 2 8.15406 39.5356 18.0001
604 2 11.8784 39.5732 17.7784
605 2 15.6809 39.5269 17.8912
606 2 19.9349 39.798 18.0007
607 2 23.9812 39.7775 17.9144
608 2 27.7922 39.6869 18.0901
609 2 31.7627 39.7465 17.6158
610 2 35.6469 39.7328 17.7217
611 2 39.5582 39.6579 17.98
612 2 43.3907 39.9544 17.716
613 2 47.3025 39.6168 17.5943
614 2 51.4754 39.8287 18.074
615 2 55.4352 39.6772 17.7326
616 2 59.1705 43.7949 17.6804
617 2 3.84548 43.7619 17.8463
618 2 8.08775 43.6725 17.7444
619 2 11.7613 43.6479 17.8503
620 2 15.8461 43.857 17.8371
621 2 19.929 43.5459 17.8155
622 2 23.8564 43.7178 17.8284
623 2 27.5365 43.8819 17.6489
624 2 31.6191 43.5879 17.8772
625 2 35.6163 43.6127 17.8824
626 2 39.4914 43.6055 17.7831
627 2 43.4077 43.7174 17.6213
628 2 47.5216 43.6547 17.8586
629 2 51.516 43.7242 17.6091
630 2 55.2135 43.616 17.7676
631 2 -0.00704454 47.7772 17.7378
632 2 3.98159 47.6571 17.6967
633 2 8.02425 47.8052 17.8007
634 2 11.9576 47.6553 17.7691
635 2 15.7104 47.753 17.6932
636 2 19.5361 47.6017 17.8251
637 2 23.6282 47.6171 17.9091
638 2 27.7044 47.6245 17.8533
639 2 31.5155 47.5096 17.9309
640 2 35.4645 47.4675 17.8591
641 2 39.4173 47.6019 17.6906
642 2 43.4595 47.6886 17.9147
643 2 47.363 47.7234 17.64
644 2 51.25 47.6457 17.6745
645 2 55.4559 47.7089 17.8696
646 2 59.3219 51.5682 17.6826
647 2 4.07213 51.6509 17.7809
648 2 7.84919 51.4984 17.7282
649 2 12.0404 51.6941 17.7552
650 2 15.7177 51.685 17.902
651 2 19.7814 51.5687 17.8921
652 2 23.6313 51.64 17.7626
653 2 27.4782 51.7514 17.8003
654 2 31.7135 51.5161 17.8757
655 2 35.3694 51.6223 17.8929
656 2 39.5847 51.7578 17.5223
657 2 43.7285 51.5509 17.7102
658 2 47.4589 51.6803 17.7829
659 2 51.7293 51.5977 17.6102
660 2 55.5125 51.5923 17.7576
661 2 59.3722 55.5233 17.7614
662 2 4.01609 55.6104 17.8825
663 2 8.07228 55.603 17.8236
664 2 11.7935 55.4482 17.7214
665 2 15.9449 55.5106 17.9545
666 2 19.8257 55.7082 17.6604
667 2 23.6595 55.4297 17.9183
668 2 27.5292 55.4061 17.6783
669 2 31.6254 55.4699 17.6263
670 2 35.5847 55.6878 17.8202
671 2 39.4285 55.5802 17.6176
672 2 43.5416 55.5909 17.9518
673 2 47.49 55.5718 17.7122
674 2 51.343 55.5141 17.7891
675 2 55.3497 55.4734 17.731
676 2 -0.0433321 0.191917 21.8392
677 2 4.03334 -0.0701179 21.6413
678 2 8.00863 0.226419 21.5579
679 2 11.647 0.0446385 21.6576
680 2 15.5988 0.0794751 21.6275
681 2 19.6158 59.5933 21.6825
682 2 23.8658 59.4922 21.8407
683 2 27.6175 59.5382 21.671
684 2 31.5577 0.294903 21.7123
685 2 35.4605 59.5388 21.7291
686 2 39.7067 59.5745 21.7619
687 2 43.3825 59.4706 21.7938
688 2 47.3586 59.555 21.6775
689 2 51.4604 0.163535 21.7569
690 2 55.4511 0.0851658 21.6348
691 2 59.2568 4.05881 21.7887
692 2 3.78777 3.95275 21.7677
693 2 7.85418 4.20834 21.7611
694 2 11.9943 4.16767 21.8916
695 2 15.6974 4.07546 21.5794
696 2 19.7053 4.19527 21.7934
697 2 23.555 4.12017 21.5466
698 2 27.7005 4.05437 21.714
699 2 31.4254 4.1977 21.602
700 2 35.5562 4.11803 21.6875
701 2 39.5712 3.89863 21.8001
702 2 43.6593 4.10645 21.8348
703 2 47.4406 4.21982 21.736
704 2 51.3616 4.20913 21.7791
705 2 55.4676 4.03363 21.7476
706 2 59.4432 7.91906 21.831
707 2 3.9072 7.85547 21.8984
708 2 7.91524 8.04894 21.7329
709 2 11.9879 7.97864 21.8804
710 2 16.0047 7.99899 21.7653
711 2 19.7492 8.11037 21.6523
712 2 23.5519 7.97821 21.7085
713 2 27.5659 8.25284 21.7335
714 2 31.8147 8.00438 21.5268
715 2 35.7797 8.01768 21.716
716 2 39.5014 8.03345 21.7042
717 2 43.4169 8.06374 21.753
718 2 47.3069 8.10928 21.5694
719 2 51.3369 8.12478 21.7266
720 2 55.3464 8.06028 21.8545
721 2 59.2561 12.0004 21.6769
722 2 3.98493 12.0373 21.8087
723 2 7.9953 12.0344 21.7422
724 2 12.0119 12.0446 21.9237
725 2 15.9407 12.0606 21.7747
726 2 19.6511 12.0187 21.8891
727 2 23.5387 11.9513 21.675
728 2 27.6251 12.003 21.7288
729 2 31.4449 12.0052 21.5315
730 2 35.5484 11.9374 21.7068
731 2 39.49 11.9169 21.8462
732 2 43.4676 12.0758 21.8297
733 2 47.4817 12.1485 21.5128
734 2 51.3274 12.0913 21.7979
735 2 55.1506 11.927 21.7996
736 2 -0.113118 16.0014 21.6896
737 2 4.08514 15.8426 21.8118
738 2 7.87879 15.7975 21.7497
739 2 11.7466 16.0052 21.7593
740 2 15.5573 15.9209 21.6556
741 2 19.7034 15.8969 21.8877
742 2 23.8527 16.0064 21.7864
743 2 27.5563 15.8429 21.7241
744 2 31.636 16.0248 21.7897
745 2 35.5587 15.9083 21.6417
746 2 39.5203 16.0404 21.7528
747 2 43.44 16.0986 21.6435
748 2 47.4427 15.9485 21.6538
749 2 51.5306 15.909 21.7038
750 2 55.3534 15.9734 21.6222
751 2 59.3574 19.9351 21.7814
752 2 3.87635 19.7671 21.7533
753 2 7.84771 19.8532 21.8546
754 2 11.7911 19.8315 21.6696
755 2 15.5735 19.6822 21.7486
756 2 19.6953 19.7062 21.8096
757 2 23.6382 19.8465 21.8163
758 2 27.6089 19.8702 21.8142
759 2 31.6516 19.9184 21.9098
760 2 35.5146 19.9043 21.7783
761 2 39.3933 19.9558 21.7476
762 2 43.4682 20.0601 21.8028
763 2 47.4818 19.9772 21.9707
764 2 51.6122 19.6987 21.5563
765 2 55.4541 19.8076 21.5226
766 2 59.2817 23.8723 21.8762
767 2 3.82271 23.919 21.8405
768 2 7.86032 23.9005 21.7734
769 2 11.6917 23.7176 21.8145
770 2 15.8799 23.6869 21.7492
771 2 19.7364 23.5868 21.9235
772 2 23.5225 23.716 21.6639
773 2 27.5137 23.8141 21.7381
774 2 31.5806 23.9276 21.8468
775 2 35.5921 23.8419 21.5997
776 2 39.7092 23.9404 21.7748
777 2 43.4168 23.7352 21.811
778 2 47.4489 23.8494 21.6567
779 2 51.5611 23.9761 21.7475
780 2 55.3681 23.94 21.7365
781 2 59.1295 27.6325 21.541
782 2 3.73466 27.7978 21.7139
783 2 7.62557 27.979 21.4717
784 2 11.8519 27.5854 22.0155
785 2 15.6673 27.8698 21.7774
786 2 19.7304 27.7668 21.8116
787 2 23.806 27.6985 21.9173
788 2 27.5811 27.8569 21.7723
789 2 31.5765 27.7508 21.731
790 2 35.392 27.8021 21.8465
791 2 39.3836 27.7469 21.6701
792 2 43.3098 27.8063 21.7592
793 2 47.488 27.7543 21.7827
794 2 51.5176 28.0444 21.5627
795 2 55.1462 27.7818 21.7225
796 2 59.128 31.5923 21.6068
797 2 3.55904 31.7406 21.5795
798 2 7.73197 31.7748 21.7892
799 2 11.7926 31.8467 21.7559
800 2 15.7078 31.7741 21.8231
801 2 19.5759 31.6757 21.8676
802 2 23.7578 31.7262 21.918
803 2 27.5909 31.7185 21.818
804 2 31.4977 31.8332 21.88
805 2 35.2807 31.6234 21.7603
806 2 39.454 31.8633 21.8104
807 2 43.4665 31.7537 21.9175
808 2 47.2645 31.5633 21.7069
809 2 51.0453 31.9218 21.8595
810 2 55.3902 32.0416 21.6423
811 2 0.0560118 35.896 21.7441
812 2 3.6324 35.6531 21.7296
813 2 7.84303 35.6116 21.8414
814 2 11.8087 35.8547 21.8185
815 2 15.7097 35.8127 21.8141
816 2 19.8286 35.7406 21.8662
817 2 23.7982 35.6712 21.9126
818 2 27.5633 35.6385 21.8191
819 2 31.6113 35.8185 21.7443
820 2 35.5478 35.9681 21.7609
821 2 39.3813 35.6772 21.8456
822 2 43.5165 35.5578 21.8321
823 2 47.3789 35.7822 21.8274
824 2 51.3474 35.9362 21.8372
825 2 55.4095 35.6847 21.8514
826 2 -0.146053 39.8829 21.7957
827 2 3.86553 39.614 21.7872
828 2 7.672 39.6827 21.8165
829 2 11.7961 39.7358 21.8442
830 2 15.939 39.6649 21.781
831 2 19.7174 39.4956 21.7845
832 2 23.8656 39.6679 21.8599
833 2 27.6051 39.7049 22.0008
834 2 31.389 39.6156 21.8859
835 2 35.4776 39.7099 21.9052
836 2 39.6852 39.709 21.8565
837 2 43.6148 39.7852 21.6034
838 2 47.3228 39.7707 21.5275
839 2 51.2602 39.7013 21.773
840 2 55.5488 39.728 21.8273
841 2 59.5087 43.766 21.6024
842 2 3.98412 43.84 21.6667
843 2 7.77167 43.504 21.6864
844 2 11.6754 43.75 21.6626
845 2 15.679 43.637 21.6545
846 2 19.7608 43.7192 21.7821
847 2 23.7615 43.4294 21.7025
848 2 27.6326 43.7137 21.954
849 2 31.6064 43.5555 21.661
850 2 35.498 43.5957 21.987
851 2 39.6418 43.9095 21.607
852 2 43.4939 43.8944 21.7144
853 2 47.595 43.6345 21.7189
854 2 51.3734 43.6273 21.5165
855 2 55.3364 43.783 21.693
856 2 -0.0563231 47.8183 21.8356
857 2 4.07428 47.4674 21.7914
858 2 7.83649 47.6951 21.8426
859 2 11.7204 47.7913 21.8167
860 2 15.8155 47.3734 21.7869
861 2 19.7368 47.5697 21.9102
862 2 23.7518 47.5587 22.0068
863 2 27.6627 47.8862 21.8485
864 2 31.5734 47.4983 21.7165
865 2 35.617 47.6677 21.6081
866 2 39.3746 48.0816 21.7411
867 2 43.5102 47.6658 21.6444
868 2 47.5322 47.6482 21.6277
869 2 51.3544 47.7027 21.7319
870 2 55.4165 47.5393 21.9593
871 2 59.4129 51.5575 21.8761
872 2 3.86384 51.5519 21.6434
873 2 7.86095 51.3174 21.6589
874 2 11.9405 51.6688 21.8495
875 2 15.9284 51.4443 21.9875
876 2 19.8582 51.434 21.967
877 2 23.7354 51.4766 21.9377
878 2 27.6172 51.6489 21.8136
879 2 31.5948 51.7191 21.8692
880 2 35.3694 51.5546 21.7903
881 2 39.3505 51.6785 21.6698
882 2 43.4617 51.6633 21.7347
883 2 47.3977 51.5801 21.6951
884 2 51.3464 51.3823 21.7934
885 2 55.4932 51.5951 21.7539
886 2 59.4682 55.4231 21.6447
887 2 4.06102 55.3955 21.912
888 2 7.82732 55.4832 21.8982
889 2 11.714 55.5739 21.8452
890 2 15.7219 55.6063 21.6737
891 2 19.7222 55.4519 21.8209
892 2 23.7121 55.3494 21.8839
893 2 27.5451 55.4907 21.5851
894 2 31.5978 55.5842 21.6372
895 2 35.7263 55.6388 21.7429
896 2 39.3811 55.6155 21.6988
897 2 43.3661 55.3913 21.6943
898 2 47.4121 55.5144 21.7534
899 2 51.3905 55.4564 21.6191
900 2 55.3308 55.5209 21.8067
901 2 59.2675 -0.0471704 25.7879
902 2 3.71534 59.3163 25.7282
903 2 7.75901 -0.0373507 25.632
904 2 11.7645 0.192517 25.6978
905 2 15.6671 59.3631 25.8764
906 2 19.6332 0.0167118 25.7518
907 2 23.4325 -0.0665813 25.6527
908 2 27.4666 0.0476008 25.8584
909 2 31.5942 59.4154 25.8825
910 2 35.2506 0.0857741 25.7323
911 2 39.3902 -0.0524363 25.7119
912 2 43.3903 -0.0391597 25.7599
913 2 47.362 0.122582 25.6704
914 2 51.2509 0.226059 25.661
915 2 55.1996 59.4893 25.7633
916 2 59.4286 3.91818 25.7067
917 2 3.82192 3.92059 25.6653
918 2 7.90214 4.10561 25.6177
919 2 11.6115 4.11935 25.8364
920 2 15.5692 3.91799 25.9528
921 2 19.6923 3.87017 25.7457
922 2 23.5645 3.89364 25.8384
923 2 27.4755 3.94033 25.7726
924 2 31.491 3.85465 25.6928
925 2 35.7085 4.1916 25.6686
926 2 39.5163 4.04803 25.703
927 2 43.328 4.0131 25.7918
928 2 47.4194 4.11618 25.5912
929 2 51.4026 4.25587 25.5795
930 2 55.4344 4.00605 25.5724
931 2 59.3101 8.04788 25.8064
932 2 3.93026 8.00959 25.9138
933 2 7.85174 8.00625 25.8704
934 2 11.6941 7.82938 25.5871
935 2 15.6423 7.84185 25.8285
936 2 19.6057 8.03841 25.6145
937 2 23.6468 7.95671 25.753
938 2 27.4869 7.99608 25.7336
939 2 31.5729 8.14855 25.7606
940 2 35.6654 8.01224 25.7853
941 2 39.5359 8.03282 25.5134
942 2 43.5947 8.08493 25.6844
943 2 47.3585 8.13468 25.6701
944 2 51.2562 8.11496 25.6593
945 2 55.3914 7.92203 25.6799
946 2 59.3408 12.1988 25.7505
947 2 3.92691 12.0409 25.7422
948 2 7.91471 11.9216 25.6859
949 2 11.8615 11.7599 25.9487
950 2 15.7492 11.8941 25.8347
951 2 19.7104 11.8545 25.8434
952 2 23.6681 11.7864 25.66
953 2 27.6906 11.8653 25.7534
954 2 31.5184 11.8621 25.7972
955 2 35.3099 12.0414 25.5266
956 2 39.4474 12.0323 25.7859
957 2 43.4857 11.9376 25.7156
958 2 47.2828 12.1512 25.7025
959 2 51.4391 12.0804 25.8728
960 2 55.3768 11.8648 25.7871
961 2 59.2735 15.9936 25.7029
962 2 3.94411 15.8447 25.8438
963 2 7.78807 15.7101 25.8266
964 2 11.94 15.792 25.9684
965 2 15.6768 15.7682 25.6871
966 2 19.5813 15.7549 25.6719
967 2 23.7875 15.8392 25.868
968 2 27.7196 15.9684 25.8051
969 2 31.5344 15.8019 25.7186
970 2 35.4171 15.8337 25.7059
971 2 39.5326 15.9068 25.6078
972 2 43.2724 16.0078 25.5806
973 2 47.2497 16.0861 25.5393
974 2 51.1311 16.0359 25.4858
975 2 55.2752 15.7942 25.6452
976 2 59.2065 19.8801 25.7036
977 2 3.88827 19.8229 25.7947
978 2 7.83958 19.7614 25.923
979 2 11.7206 19.642 25.7034
980 2 15.4879 19.8988 25.6026
981 2 19.5304 19.7995 25.6362
982 2 23.6643 19.8959 25.7177
983 2 27.6272 19.9598 25.6514
984 2 31.533 19.7906 25.7753
985 2 35.433 19.9122 25.7132
986 2 39.4839 19.8682 25.8195
987 2 43.4865 19.9134 25.9
988 2 47.4196 19.9489 25.7902
989 2 51.5098 19.8826 25.7315
990 2 55.402 19.8748 25.781
991 2 59.2745 23.8721 25.7368
992 2 3.90402 23.758 25.7126
993 2 7.82883 23.8502 25.8055
994 2 11.7534 23.8547 25.857
995 2 15.7681 23.7391 25.7938
996 2 19.5287 23.9992 25.691
997 2 23.6712 23.6565 25.9268
998 2 27.458 23.7136 25.8468
999 2 31.5367 23.9876 25.8217