ITEM: TIMESTEP
1507600
ITEM: NUMBER OF ATOMS
16875
ITEM: BOX BOUNDS xy xz yz pp pp pp
0.0000000000000000e+00 5.9369999999999997e+01 0.0000000000000000e+00
0.0000000000000000e+00 5.9369999999999997e+01 0.0000000000000000e+00
3.1654191705179713e-01 6.0049877082951248e+01 0.0000000000000000e+00
ITEM: ATOMS id type x y z
1 2 59.3427 0.0374646 9.74475
2 2 4.05646 0.0998849 9.79067
3 2 8.12609 0.0532367 10.0807
4 2 12.0165 59.4781 9.75196
5 2 15.94 0.0389513 9.8843
6 2 19.7468 0.161896 9.8293
7 2 23.7552 0.106994 9.98737
8 2 27.9979 0.11942 9.84583
9 2 31.7589 0.179215 9.76439
10 2 35.6223 0.100617 9.7737
11 2 39.9134 0.0396696 9.862
12 2 43.8107 -0.103195 9.95473
13 2 47.5697 -0.0501704 9.56683
14 2 51.6743 0.024487 9.80865
15 2 55.5985 -0.0858604 9.7737
16 2 59.4281 4.11037 9.71696
17 2 3.88839 3.92649 9.85344
18 2 7.78519 4.02177 9.81014
19 2 11.4819 4.04706 9.71066
20 2 15.6502 4.02467 9.77912
21 2 19.8613 4.02825 9.86268
22 2 23.7558 3.99092 9.78406
23 2 27.8924 4.10785 9.94712
24 2 31.6599 4.21309 9.8469
25 2 35.787 3.8803 9.93252
26 2 39.5976 3.94399 9.81994
27 2 43.7128 4.00758 9.7247
28 2 47.5885 4.12367 9.75851
29 2 51.4945 4.09641 9.87895
30 2 55.4918 4.08955 9.73458
31 2 59.391 8.09775 9.77817
32 2 3.98754 8.15242 9.9201
33 2 8.05226 8.02788 9.89543
34 2 11.7267 7.94969 10.001
35 2 15.7573 8.14281 9.59865
36 2 19.8239 7.95081 9.82786
37 2 23.6179 8.04646 9.8168
38 2 27.6416 7.98596 9.87732
39 2 31.5178 8.01307 9.69858
40 2 35.5854 7.92794 10.0499
41 2 39.5808 7.97091 9.94103
42 2 43.6968 7.96901 9.84592
43 2 47.426 7.95549 9.83076
44 2 51.5371 8.0074 9.71567
45 2 55.4534 8.045 9.74829
46 2 0.023727 12.0269 9.77987
47 2 3.99789 12.0336 9.95569
48 2 7.76757 12.207 9.63914
49 2 11.8284 11.9125 9.7271
50 2 15.6714 11.8532 9.76976
51 2 19.6966 11.917 9.71767
52 2 23.6462 11.866 9.99856
53 2 27.6351 11.9058 9.97546
54 2 31.7156 11.9841 9.72035
55 2 35.7099 11.8008 9.98815
56 2 39.7217 11.9608 9.72519
57 2 43.5376 11.9316 9.98634
58 2 47.7513 12.0944 9.66799
59 2 51.6924 12.1067 9.69978
60 2 55.4421 12.1247 9.68507
61 2 0.254238 15.9734 9.90641
62 2 4.04201 15.9196 9.91784
63 2 7.94192 16.201 9.68298
64 2 11.9073 15.7635 9.93372
65 2 15.906 15.9675 9.78147
66 2 19.8335 15.9851 9.91481
67 2 23.8791 15.9047 9.91296
68 2 27.8763 15.9646 9.66734
69 2 31.6081 15.8538 10.0516
70 2 35.7166 15.9791 9.8998
71 2 39.6052 15.8739 9.90484
72 2 43.4688 15.946 10.0201
73 2 47.6135 16.0318 9.78358
74 2 51.5402 16.2831 9.72878
75 2 55.5399 15.8526 9.8124
76 2 59.5601 19.9616 9.80807
77 2 4.21566 19.9294 9.87437
78 2 8.02438 19.7687 9.6147
79 2 12.0359 19.8652 9.6823
80 2 15.9374 19.7565 9.86626
81 2 19.8877 19.7747 9.83913
82 2 23.9401 19.849 9.81324
83 2 27.6993 20.0467 9.91641
84 2 31.8956 19.8016 9.61062
85 2 35.7832 19.8476 9.9367
86 2 39.6995 19.7336 10.0605
87 2 43.6149 19.8416 9.84413
88 2 47.5551 19.8709 9.85755
89 2 51.6068 19.9687 9.79253
90 2 55.5696 19.7659 9.75279
91 2 59.58 23.7996 9.81829
92 2 4.3224 23.7057 9.63322
93 2 8.1209 23.8179 9.81726
94 2 12.0221 23.8712 9.91173
95 2 15.9434 23.6559 9.96426
96 2 19.7982 23.801 9.83639
97 2 23.7545 23.9506 9.85002
98 2 27.821 23.8918 9.88551
99 2 31.8784 23.7575 9.72913
100 2 35.5976 23.7762 9.63688
101 2 39.6984 23.6768 9.93916
102 2 43.5979 23.7788 9.77881
103 2 47.6979 23.6761 9.76616
104 2 51.622 23.7769 9.8515
105 2 55.4614 23.8001 9.93486
106 2 0.139472 27.7189 9.68481
107 2 4.09902 27.7848 9.84498
108 2 8.0632 27.5878 9.77236
109 2 12.0647 27.6746 9.90609
110 2 16.032 28.0763 9.74177
111 2 19.8155 27.6748 9.71923
112 2 23.6416 27.7936 9.82461
113 2 27.7558 27.7026 9.82411
114 2 31.5693 27.9083 9.78466
115 2 35.5566 27.7296 9.7897
116 2 39.4692 27.8455 9.80604
117 2 43.4979 27.7264 9.89915
118 2 47.4897 27.7372 9.83284
119 2 51.4773 27.8452 9.83592
120 2 55.4946 27.8449 9.83189
121 2 -0.0596389 31.5891 9.87558
122 2 4.08547 31.8032 9.77777
123 2 7.95536 31.724 9.80864
124 2 12.0918 31.771 9.83934
125 2 15.9425 31.9886 9.87418
126 2 19.8381 31.7163 9.78491
127 2 23.7843 31.5998 9.79326
128 2 27.6668 31.8006 9.8871
129 2 31.5731 31.6414 9.91234
130 2 35.6402 31.9213 9.70759
131 2 39.6017 31.6199 9.69214
132 2 43.4892 31.7325 9.8626
133 2 47.4795 31.6452 9.91888
134 2 51.4004 31.4862 9.91404
135 2 55.564 31.9405 9.72844
136 2 59.8451 35.6594 9.86215
137 2 4.21872 35.7132 9.90577
138 2 8.05927 35.6651 9.84671
139 2 11.9815 35.7784 9.75538
140 2 15.9544 35.6896 9.79679
141 2 19.9524 35.6471 9.92545
142 2 23.8007 35.5515 9.89416
143 2 27.9539 35.844 9.82848
144 2 31.7883 35.9256 9.87518
145 2 35.733 35.7656 9.88729
146 2 39.6194 35.5733 9.9953
147 2 43.5886 35.5985 10.1579
148 2 47.5837 35.6617 10.0014
149 2 51.5373 35.6754 9.82579
150 2 55.5281 35.6018 9.80595
151 2 59.6409 39.5414 9.96251
152 2 4.20422 39.4856 9.75131
153 2 8.12636 39.6297 9.84556
154 2 11.9702 39.4955 9.8693
155 2 15.9371 39.6819 9.8652
156 2 19.7117 39.5544 9.84072
157 2 23.7628 39.4505 10.0226
158 2 27.732 39.6559 9.92763
159 2 31.6753 39.6991 9.83662
160 2 35.5536 39.5937 9.90859
161 2 39.5881 39.6919 10.002
162 2 43.6483 39.7672 9.87208
163 2 47.5949 39.6659 9.75549
164 2 51.4497 39.7257 9.84328
165 2 55.5079 39.4665 9.77615
166 2 59.569 43.6565 9.87537
167 2 3.95345 43.4803 9.95635
168 2 8.15243 43.4602 9.77678
169 2 11.8581 43.5522 9.74455
170 2 15.8655 43.6595 9.86308
171 2 19.8507 43.6732 9.82396
172 2 23.859 43.615 9.92446
173 2 27.7008 43.6157 9.92106
174 2 31.4686 43.7055 9.78939
175 2 35.7488 43.7361 9.90224
176 2 39.787 43.6499 9.75071
177 2 43.5278 43.5086 10.0103
178 2 47.5821 43.7601 9.78988
179 2 51.6435 43.6612 9.83175
180 2 55.54 43.5994 9.71063
181 2 59.457 47.613 9.78756
182 2 4.18217 47.552 9.77253
183 2 8.00048 47.4661 9.94875
184 2 11.8874 47.5545 9.93936
185 2 15.9909 47.5281 10.05
186 2 19.8544 47.6695 9.89432
187 2 23.6762 47.5039 9.86972
188 2 27.9048 47.4743 9.84209
189 2 31.7573 47.6123 9.6552
190 2 35.5794 47.6812 9.74914
191 2 39.6113 47.6937 9.67804
192 2 43.6419 47.5708 9.86676
193 2 47.4403 47.6241 9.79898
194 2 51.4566 47.5012 9.87705
195 2 55.4275 47.4972 9.8772
196 2 0.184172 51.642 9.95701
197 2 4.17613 51.4452 9.73792
198 2 8.05134 51.3943 9.79429
199 2 12.0475 51.372 9.91692
200 2 15.9773 51.4137 9.79965
201 2 19.7419 51.5827 9.74134
202 2 23.8395 51.6407 9.67009
203 2 27.8569 51.5885 9.87727
204 2 31.7098 51.566 9.81204
205 2 35.8423 51.7529 9.6533
206 2 39.4566 51.4705 9.89512
207 2 43.6447 51.5963 9.78145
208 2 47.5306 51.5468 9.7853
209 2 51.4505 51.2924 9.80687
210 2 55.667 51.412 9.98614
211 2 59.6573 55.4441 9.83455
212 2 3.99974 55.4667 9.87777
213 2 7.92471 55.5 9.90447
214 2 12.1234 55.6137 9.86803
215 2 15.9823 55.3065 9.93278
216 2 19.9557 55.429 9.95888
217 2 23.7797 55.4584 9.9386
218 2 27.6156 55.4943 9.87526
219 2 31.6564 55.5941 9.92015
220 2 35.6526 55.4499 9.78689
221 2 39.6978 55.6777 9.73203
222 2 43.6031 55.3634 9.85768
223 2 47.6136 55.4694 9.86708
224 2 51.5653 55.4269 9.79181
225 2 55.713 55.4106 9.71839
226 2 59.3046 0.0977483 13.8682
227 2 3.93271 -0.000405342 13.7913
228 2 7.88785 0.105393 13.8387
229 2 11.9465 59.4378 13.7748
230 2 15.8961 0.133439 13.9429
231 2 19.8966 0.170749 13.9997
232 2 23.7741 0.0328952 13.8533
233 2 27.8995 0.234477 13.8967
234 2 31.6428 0.211129 13.9402
235 2 35.7441 59.471 13.8534
236 2 39.7496 0.127981 13.7512
237 2 43.5679 0.22216 13.7693
238 2 47.5847 59.5177 13.9074
239 2 51.6063 0.191272 13.7829
240 2 55.5308 0.124209 13.799
241 2 59.4718 4.14753 13.7437
242 2 4.0637 4.05653 13.6781
243 2 7.89196 4.19779 13.7995
244 2 11.8167 4.19279 13.8774
245 2 15.7152 4.1022 13.6388
246 2 19.6787 4.19919 13.8845
247 2 23.6822 3.89727 13.7529
248 2 27.6032 4.13493 13.6007
249 2 31.8347 4.1388 13.7371
250 2 35.5642 4.24503 13.7812
251 2 39.7 4.05249 13.8524
252 2 43.6903 4.15755 13.9116
253 2 47.4544 4.13776 13.6943
254 2 51.5109 4.20061 13.8379
255 2 55.5488 4.2074 13.7537
256 2 59.5579 7.98932 13.8067
257 2 4.11248 8.03108 13.734
258 2 7.92133 8.11604 13.9225
259 2 12.1837 8.03598 13.7455
260 2 15.8904 8.10865 13.6392
261 2 19.4874 8.0116 13.8877
262 2 23.6669 7.93851 13.9555
263 2 27.6226 7.98325 13.9159
264 2 31.5387 7.97946 13.8447
265 2 35.6128 8.08737 13.9221
266 2 39.5649 8.0146 13.9711
267 2 43.5472 8.06662 13.8406
268 2 47.7119 8.10132 13.6099
269 2 51.2468 8.02038 13.7495
270 2 55.1123 8.15485 13.7622
271 2 -0.0218362 12.0194 13.7583
272 2 3.95354 12.1074 13.8246
273 2 8.15222 12.0154 13.7348
274 2 11.888 11.833 13.8342
275 2 15.8719 12.1172 13.7881
276 2 19.8607 12.0196 13.8029
277 2 23.8641 11.9991 13.8993
278 2 27.7377 11.9145 13.9253
279 2 31.4633 11.9616 13.6218
280 2 35.6998 12.0123 13.9153
281 2 39.523 12.0095 14.0489
282 2 43.6544 11.9284 14.0155
283 2 47.5186 12.0407 13.7659
284 2 51.5341 12.14 13.6501
285 2 55.3657 11.9642 13.9034
286 2 59.3044 15.7935 13.7999
287 2 3.83734 15.9905 13.9719
288 2 7.91185 15.9687 13.6234
289 2 12.0368 15.8713 13.8369
290 2 15.8382 15.9258 13.9574
291 2 20.0302 15.8998 13.9715
292 2 23.8576 15.7254 13.9025
293 2 27.7329 15.8486 13.8542
294 2 31.691 15.9759 13.8627
295 2 35.8137 15.6917 13.7202
296 2 39.6594 15.834 13.7217
297 2 43.7963 15.742 13.9535
298 2 47.5279 15.9232 13.8203
299 2 51.3208 16.1187 13.6782
300 2 55.157 16.1132 13.9054
301 2 59.3854 20.1099 13.7428
302 2 3.90604 19.9731 13.741
303 2 8.00372 19.8519 13.8882
304 2 12.0501 19.7369 13.8929
305 2 15.8327 19.6516 13.8615
306 2 19.8121 19.6881 13.696
307 2 23.6521 19.789 13.759
308 2 27.6924 20.058 13.7615
309 2 31.7524 19.8321 13.8544
310 2 35.672 19.9049 13.9274
311 2 39.5793 19.9644 13.7771
312 2 43.5903 19.7828 13.8075
313 2 47.5841 19.9299 13.7677
314 2 51.7212 19.8248 13.6
315 2 55.4607 19.9537 13.7946
316 2 59.6384 24.0382 13.7362
317 2 4.13997 23.9221 13.8044
318 2 7.81596 23.8418 13.7537
319 2 11.8604 23.728 13.8542
320 2 15.9044 23.5645 13.6986
321 2 19.7964 23.6499 13.8257
322 2 23.7416 23.9148 13.8139
323 2 27.6907 23.8749 13.7273
324 2 31.7271 23.9464 13.7532
325 2 35.6471 23.8186 13.7558
326 2 39.5983 23.9066 13.5772
327 2 43.6891 23.6223 13.7035
328 2 47.6679 23.8284 13.7585
329 2 51.4359 24.0923 13.7671
330 2 55.5609 23.8925 13.8718
331 2 0.237735 27.9253 13.9031
332 2 3.94806 28.0342 13.6611
333 2 8.00806 27.7002 13.7881
334 2 12.056 27.6885 13.8058
335 2 15.6651 27.738 14.0105
336 2 19.7375 27.6389 13.8678
337 2 23.7278 27.9458 13.9024
338 2 27.7517 27.7569 13.8918
339 2 31.6468 27.621 13.8971
340 2 35.5597 27.9189 13.8812
341 2 39.562 27.8483 14.0083
342 2 43.5752 27.7849 13.9308
343 2 47.575 27.8864 13.8985
344 2 51.6324 27.8231 13.7488
345 2 55.5585 27.8999 13.6942
346 2 59.3946 31.5548 13.822
347 2 4.14957 31.7329 13.9891
348 2 7.91864 31.8143 13.9173
349 2 11.9157 31.6171 13.9262
350 2 15.9079 31.7413 13.9177
351 2 19.8023 31.526 13.9114
352 2 23.8181 31.5797 13.9618
353 2 27.6001 31.5754 13.8362
354 2 31.5154 31.6651 13.754
355 2 35.4104 31.8587 13.5567
356 2 39.4563 31.6121 13.7888
357 2 43.6716 31.7924 13.7886
358 2 47.6366 31.6245 13.9413
359 2 51.6348 31.6557 13.599
360 2 55.4828 32.0149 13.6449
361 2 0.105934 35.498 13.9308
362 2 3.90296 35.6164 13.8034
363 2 8.026 35.6321 13.7636
364 2 12.1468 35.6918 13.9004
365 2 15.9853 35.652 13.7856
366 2 19.8499 35.79 13.9777
367 2 23.7466 35.6061 13.9015
368 2 27.6279 35.5205 13.8092
369 2 31.4089 35.685 13.7866
370 2 35.5402 35.819 13.8921
371 2 39.6004 35.7078 13.7452
372 2 43.754 35.7572 13.9197
373 2 47.4633 35.5731 13.9641
374 2 51.2794 35.5967 13.9514
375 2 55.552 35.8278 13.6356
376 2 59.243 39.633 13.7866
377 2 4.23607 39.6597 13.7044
378 2 8.05035 39.6091 14.1037
379 2 11.8767 39.5297 13.8689
380 2 15.9209 39.9377 13.8206
381 2 19.8332 39.6963 13.8539
382 2 23.8842 39.4953 13.9425
383 2 27.7871 39.4831 13.7183
384 2 31.7693 39.7668 13.7617
385 2 35.6062 39.4989 13.8764
386 2 39.5363 39.6287 13.8861
387 2 43.5737 39.7307 13.8434
388 2 47.5895 39.6426 13.7784
389 2 51.306 39.825 13.5599
390 2 55.3661 39.5545 13.805
391 2 0.176934 43.5419 13.8913
392 2 4.06563 43.5766 13.987
393 2 8.04232 43.5657 13.7619
394 2 11.8385 43.4017 13.9417
395 2 15.8335 43.6964 13.8686
396 2 19.9829 43.4635 13.8658
397 2 23.8181 43.5077 13.7237
398 2 27.6303 43.6746 13.8816
399 2 31.6118 43.833 13.6746
400 2 35.8443 43.7032 13.7623
401 2 39.6588 43.7868 13.8731
402 2 43.7033 43.5269 13.7365
403 2 47.6176 43.8374 13.8082
404 2 51.4622 43.6528 13.8411
405 2 55.6436 43.4943 13.7722
406 2 59.4055 47.4653 13.7879
407 2 4.21534 47.5287 13.723
408 2 7.96188 47.688 13.7914
409 2 12.1306 47.4574 13.906
410 2 15.8746 47.7049 13.8658
411 2 19.9516 47.5185 13.9773
412 2 23.8223 47.88 13.5904
413 2 27.6507 47.612 13.7596
414 2 31.9182 47.7931 13.6578
415 2 35.6718 47.6826 13.762
416 2 39.6034 47.5551 13.8784
417 2 43.5237 47.4963 13.6948
418 2 47.5135 47.6907 13.7735
419 2 51.6689 47.5208 13.8132
420 2 55.54 47.4999 13.8505
421 2 59.4427 51.7373 13.9755
422 2 4.00704 51.6556 13.8068
423 2 8.1777 51.5504 13.9276
424 2 12.0906 51.5363 13.991
425 2 16.0357 51.629 13.7259
426 2 19.9296 51.4033 13.8464
427 2 24.0154 51.5514 13.9774
428 2 27.9371 51.5527 13.8444
429 2 31.5332 51.7349 13.7658
430 2 35.7808 51.5924 13.7097
431 2 39.7134 51.4413 13.7902
432 2 43.5078 51.5324 13.6063
433 2 47.3747 51.5294 13.7272
434 2 51.5924 51.6241 13.9098
435 2 55.2879 51.271 13.8164
436 2 59.4361 55.5075 13.9095
437 2 4.16528 55.4787 13.7446
438 2 8.01632 55.5023 13.6551
439 2 12.0169 55.4635 13.8685
440 2 15.9134 55.6014 13.8627
441 2 19.9362 55.5198 13.9193
442 2 23.8881 55.6346 13.8891
443 2 27.8656 55.5952 13.7823
444 2 31.842 55.7129 13.6954
445 2 35.6139 55.5871 13.8111
446 2 39.8003 55.6558 13.6604
447 2 43.7722 55.5533 13.8691
448 2 47.5754 55.6201 13.9258
449 2 51.3631 55.5622 13.7498
450 2 55.3992 55.3873 13.851
451 2 59.5342 0.199595 17.7263
452 2 3.99703 0.235315 17.6726
453 2 7.87889 59.5709 17.8097
454 2 11.8688 0.190217 17.6612
455 2 15.9009 0.0749242 17.9648
456 2 19.7684 -0.0777767 17.9401
457 2 23.8085 0.0761632 17.9273
458 2 27.7338 0.0789829 17.8899
459 2 31.664 0.130062 17.8813
460 2 35.5496 0.234078 17.6129
461 2 39.5975 -0.00922019 17.8919
462 2 43.3432 59.4411 17.5602
463 2 47.4321 0.237776 17.7089
464 2 51.4947 0.104626 17.7032
465 2 55.2962 0.0484481 17.6094
466 2 59.6779 4.06007 17.7432
467 2 4.07034 3.95768 17.8632
468 2 7.95934 4.05084 17.8908
469 2 11.9152 4.1651 17.7156
470 2 15.9741 4.11101 17.7365
471 2 19.7709 4.05484 17.6932
472 2 23.7309 3.9465 17.9552
473 2 27.7796 4.14607 17.7544
474 2 31.5574 4.19806 17.8949
475 2 35.58 4.21927 17.6655
476 2 39.4304 3.87144 17.8104
477 2 43.5497 4.3609 17.8204
478 2 47.367 4.15107 17.7649
479 2 51.4515 3.95345 17.7576
480 2 55.5235 4.09511 17.7784
481 2 59.6186 7.98197 17.8448
482 2 4.06185 8.11579 17.7398
483 2 7.79315 8.14202 17.8233
484 2 11.8091 7.95878 17.8909
485 2 15.8175 8.19567 17.8648
486 2 19.9941 8.02055 17.6579
487 2 23.6405 7.98482 17.5974
488 2 27.8493 8.13587 17.9027
489 2 31.8066 8.00278 17.6988
490 2 35.5017 8.06537 18.0052
491 2 39.5504 8.17797 17.9744
492 2 43.5994 8.15208 17.7905
493 2 47.5209 8.10731 17.7906
494 2 51.6443 7.87279 17.7167
495 2 55.4279 7.86812 17.6784
496 2 59.1768 12.0482 17.9203
497 2 3.99686 11.9921 17.814
498 2 7.95604 12.059 17.6816
499 2 11.8781 12.2751 17.6916
500 2 15.9737 12.0009 17.8303
501 2 19.7815 11.9707 17.7927
502 2 23.8193 11.8495 17.8806
503 2 27.6229 12.0756 17.9441
504 2 31.5808 11.9377 17.8234
505 2 35.6265 12.107 17.792
506 2 39.5387 12.2116 17.9313
507 2 43.5423 11.9456 17.8674
508 2 47.6076 11.8515 17.7934
509 2 51.5268 11.9299 17.8214
510 2 55.4984 11.9051 17.8695
511 2 59.276 15.9328 17.887
512 2 3.96623 15.8605 17.6278
513 2 7.98073 15.9356 17.8943
514 2 11.7283 16.0125 17.784
515 2 15.9461 15.8982 17.7348
516 2 19.824 15.9336 17.8749
517 2 23.8175 15.9199 17.9352
518 2 27.778 15.9027 17.867
519 2 31.5984 16.0037 17.6684
520 2 35.6338 16.0011 17.7404
521 2 39.4669 16.1926 17.7422
522 2 43.5065 16.0375 17.8614
523 2 47.5201 15.8574 17.8483
524 2 51.5597 15.8735 17.6901
525 2 55.4618 15.7513 17.8552
526 2 -0.112025 19.8613 18.1533
527 2 3.7243 19.7078 17.8505
528 2 7.92623 19.9403 17.9053
529 2 11.8191 19.7322 17.9565
530 2 15.8338 19.7435 17.8804
531 2 19.6998 19.8383 17.8257
532 2 23.7378 19.9824 17.9423
533 2 27.776 20.0608 17.8586
534 2 31.7277 20.0498 17.7491
535 2 35.6825 19.9522 17.8297
536 2 39.4999 19.9038 17.5511
537 2 43.7096 19.9316 17.7871
538 2 47.6488 20.0887 17.8254
539 2 51.6094 19.9897 17.8989
540 2 55.3774 20.0516 17.6168
541 2 59.2124 23.9211 17.6971
542 2 3.9428 23.7213 17.8754
543 2 7.97587 23.8516 17.8119
544 2 11.8389 23.6777 17.7408
545 2 15.8232 23.4133 17.83
546 2 19.6864 23.7386 17.7172
547 2 23.7346 23.7527 17.6516
548 2 27.6921 23.898 17.7396
549 2 31.715 23.8141 17.801
550 2 35.6674 23.8725 17.6383
551 2 39.83 23.8977 17.8356
552 2 43.6746 24.0551 17.872
553 2 47.4422 23.8906 17.8829
554 2 51.3881 23.8196 17.8945
555 2 55.1823 23.9381 17.8076
556 2 59.1912 27.9339 17.7797
557 2 3.92594 27.8013 17.7196
558 2 8.0619 27.5924 17.8444
559 2 11.9259 27.6754 17.7849
560 2 15.8294 27.5156 17.9261
561 2 19.6653 27.5189 17.9275
562 2 23.6407 27.6389 17.8384
563 2 27.675 27.7151 17.9714
564 2 31.6803 27.5911 17.7436
565 2 35.7619 27.7059 17.9967
566 2 39.7989 27.7381 17.8839
567 2 43.5955 27.872 17.9163
568 2 47.6512 27.7522 17.7724
569 2 51.4035 27.7402 17.8865
570 2 55.3972 27.7484 17.7825
571 2 59.3317 31.7816 17.7531
572 2 4.04263 31.439 17.8777
573 2 8.06831 31.6662 17.7516
574 2 11.9241 31.8134 17.8099
575 2 16.1705 31.5488 17.8063
576 2 19.7461 31.662 17.7717
577 2 23.9381 31.673 17.949
578 2 27.6945 31.7026 17.9724
579 2 31.6313 31.655 17.704
580 2 35.8036 31.7814 17.6202
581 2 39.3549 31.7879 17.6841
582 2 43.5498 31.7686 17.709
583 2 47.4059 31.7607 17.7456
584 2 51.44 31.855 17.6693
585 2 55.4593 31.7681 17.8007
586 2 59.5493 35.7637 17.7905
587 2 3.92563 35.5768 18.0489
588 2 8.0289 35.6287 17.945
589 2 12.0273 35.7096 17.944
590 2 16.0975 35.7055 17.8227
591 2 19.8294 35.9325 17.7812
592 2 23.8395 35.5842 18.0293
593 2 27.7288 35.7678 17.6661
594 2 31.5943 35.6927 17.669
595 2 35.7207 35.842 17.8279
596 2 39.7841 35.7714 17.9691
597 2 43.5535 35.7716 17.7208
598 2 47.4479 35.7534 17.6815
599 2 51.4743 35.8094 17.8722
600 2 55.2644 35.7298 17.561
601 2 59.4312 39.7467 17.8046
602 2 4.07098 39.6998 17.8809
603 2 7.97967 39.7296 17.9642
604 2 11.9219 39.6806 18.0465
605 2 15.8134 39.5098 17.7979
606 2 19.9969 39.7393 17.8141
607 2 23.934 39.759 17.7098
608 2 27.7591 39.8448 17.8807
609 2 31.5597 39.8071 17.7377
610 2 35.4774 39.7555 17.5796
611 2 39.6095 39.8325 17.7716
612 2 43.4077 39.8022 17.7557
613 2 47.4401 39.6855 17.8795
614 2 51.4545 39.7787 17.8348
615 2 55.3868 39.8059 17.7361
616 2 59.4395 43.6939 17.7254
617 2 3.80925 43.63 17.725
618 2 7.93389 43.5396 17.8552
619 2 12.1236 43.5355 17.8806
620 2 15.9948 43.4673 17.9206
621 2 19.744 43.5814 17.8776
622 2 23.6975 43.5749 17.6735
623 2 27.7654 43.8513 17.5235
624 2 31.7599 43.9509 17.5803
625 2 35.7632 43.6528 17.6079
626 2 39.5396 43.6657 17.7679
627 2 43.5221 43.6977 17.6506
628 2 47.5457 43.7391 17.7262
629 2 51.5924 43.6469 17.7589
630 2 55.541 43.8129 17.691
631 2 0.0374656 47.6355 17.7661
632 2 4.10644 47.5782 17.8139
633 2 7.97202 47.5687 17.7276
634 2 11.7733 47.383 17.8791
635 2 15.9024 47.6132 17.6655
636 2 19.8657 47.6949 17.8251
637 2 23.7287 47.4192 17.8055
638 2 27.7039 47.5267 17.9367
639 2 31.6856 47.9234 17.5801
640 2 35.6558 47.7066 17.9393
641 2 39.6047 47.4534 17.852
642 2 43.519 47.8 17.7787
643 2 47.5082 47.7003 17.7623
644 2 51.4094 47.8137 17.8812
645 2 55.3555 47.6843 17.7291
646 2 59.2414 51.6256 17.773
647 2 3.8773 51.7055 17.7124
648 2 7.93789 51.6666 17.8348
649 2 11.8332 51.6526 18.0086
650 2 15.781 51.4532 17.6985
651 2 19.9397 51.679 17.8869
652 2 23.8688 51.5627 17.7355
653 2 27.7616 51.5049 17.8972
654 2 31.7523 51.7593 17.895
655 2 35.8236 51.532 17.7803
656 2 39.544 51.626 17.7803
657 2 43.5683 51.7755 17.7831
658 2 47.5958 51.6318 17.6807
659 2 51.4979 51.6394 17.8119
660 2 55.2541 51.6734 17.7398
661 2 59.255 55.5717 17.7492
662 2 4.00105 55.7199 17.8144
663 2 7.8977 55.6758 17.971
664 2 11.7628 55.7338 17.7313
665 2 15.8818 55.3258 17.7777
666 2 19.9953 55.3919 17.8904
667 2 24.0089 55.3959 17.892
668 2 27.883 55.6038 17.8212
669 2 31.8238 55.4837 17.8477
670 2 35.525 55.6045 17.7554
671 2 39.4513 55.5104 17.7453
672 2 43.6797 55.5281 17.8386
673 2 47.4041 55.5798 17.7253
674 2 51.5511 55.5801 17.7819
675 2 55.4505 55.5439 17.9417
676 2 -0.0492731 0.158459 21.783
677 2 3.95452 0.160873 21.9554
678 2 7.92425 0.249146 21.6031
679 2 11.9276 0.0198222 21.7053
680 2 15.7151 0.269553 21.9034
681 2 19.6923 59.3329 21.7717
682 2 23.7853 59.3719 21.7939
683 2 27.7959 59.2937 21.8255
684 2 31.7258 0.165108 21.8864
685 2 35.6618 59.5124 22.01
686 2 39.4953 59.482 21.7583
687 2 43.4099 59.6203 21.6488
688 2 47.2956 59.6356 21.6622
689 2 51.426 0.101415 21.7701
690 2 55.524 0.385764 21.6849
691 2 59.4064 3.91394 21.7071
692 2 3.92282 4.06936 21.7363
693 2 7.85833 4.13795 21.7695
694 2 11.8397 4.18628 21.9553
695 2 15.7882 4.29255 21.7716
696 2 19.6216 4.14018 21.853
697 2 23.6811 3.97153 21.7354
698 2 27.3664 4.09522 21.6172
699 2 31.5052 4.10191 21.7702
700 2 35.5962 4.05069 21.689
701 2 39.5952 4.21593 21.7282
702 2 43.3879 4.13279 21.7511
703 2 47.5589 3.90605 21.766
704 2 51.2443 4.00751 21.4933
705 2 55.3354 4.03661 21.8832
706 2 59.5521 8.15738 21.5879
707 2 3.99252 8.01354 21.8479
708 2 7.96677 8.03651 21.7139
709 2 12.056 7.97926 21.7152
710 2 15.6046 8.01526 21.711
711 2 19.7103 8.214 21.7539
712 2 23.6688 7.92767 21.8123
713 2 27.4318 8.11418 21.7802
714 2 31.689 7.96316 21.8429
715 2 35.6532 7.96709 21.8505
716 2 39.5718 8.07438 21.5467
717 2 43.5939 7.93578 21.8125
718 2 47.5516 7.85917 21.776
719 2 51.3757 8.06118 21.7573
720 2 55.383 8.00215 21.7287
721 2 59.2595 11.9213 21.7113
722 2 3.86638 11.948 21.7321
723 2 7.92512 11.9385 22.0087
724 2 12.0549 12.0342 21.9565
725 2 15.8671 11.8082 21.9274
726 2 19.7292 11.934 21.995
727 2 23.7156 12.06 21.9527
728 2 27.6129 12.1377 21.8572
729 2 31.5843 12.1591 21.8809
730 2 35.4356 11.777 21.7683
731 2 39.6227 12.2806 21.7795
732 2 43.5365 11.984 21.8944
733 2 47.605 12.0785 21.5845
734 2 51.4478 11.9806 21.6708
735 2 55.3091 11.8218 21.7408
736 2 0.177796 15.8552 21.9318
737 2 4.05678 15.9534 21.8281
738 2 7.94942 15.7124 21.6895
739 2 11.9337 15.8124 21.9146
740 2 15.6503 15.8578 21.7333
741 2 19.7166 15.9151 21.8413
742 2 23.7665 16.0588 21.7701
743 2 27.7252 15.9178 21.831
744 2 31.8706 15.9794 21.6762
745 2 35.7175 15.991 21.612
746 2 39.4917 15.8885 21.7776
747 2 43.4812 15.9417 21.9275
748 2 47.5163 16.0511 21.8238
749 2 51.3857 15.9003 21.705
750 2 55.3614 15.6962 21.8167
751 2 59.2253 19.9889 21.7775
752 2 3.88169 19.8059 21.7906
753 2 7.84528 20.126 21.8156
754 2 11.9631 19.8631 21.8343
755 2 15.7722 19.6817 21.8329
756 2 19.791 19.8327 21.9174
757 2 23.8063 19.9063 21.9024
758 2 27.6184 19.8809 21.8912
759 2 31.6901 19.8784 21.9933
760 2 35.6447 19.9463 21.8343
761 2 39.4745 19.9497 21.6178
762 2 43.4667 19.6239 21.7662
763 2 47.5225 20.1218 21.8257
764 2 51.5667 19.8113 21.946
765 2 55.3481 19.6226 21.7338
766 2 59.3916 23.8414 21.9715
767 2 3.76126 23.89 21.634
768 2 7.70981 23.7687 21.8801
769 2 11.8952 23.8171 21.9522
770 2 15.7856 23.6255 21.7944
771 2 19.7789 23.6891 21.9696
772 2 23.8231 23.7953 21.899
773 2 27.7297 23.8709 21.8714
774 2 31.6508 23.7195 21.9231
775 2 35.6483 23.8343 21.8396
776 2 39.6708 23.8474 21.9656
777 2 43.6633 23.751 21.9842
778 2 47.3503 23.8165 21.7375
779 2 51.4862 23.9772 21.8811
780 2 55.3619 23.7635 21.7861
781 2 59.354 27.8382 21.9077
782 2 3.87832 27.9648 21.8147
783 2 7.9055 27.6185 21.87
784 2 12.0277 27.7187 21.9382
785 2 15.9518 27.6611 21.9637
786 2 19.8991 27.8294 21.9299
787 2 23.7723 27.899 21.8631
788 2 27.5456 27.8618 21.7886
789 2 31.7019 27.7433 21.8673
790 2 35.5443 27.916 21.6934
791 2 39.7179 27.8118 21.7715
792 2 43.54 27.9561 21.7482
793 2 47.2501 27.8898 21.7188
794 2 51.4583 27.8902 21.923
795 2 55.3489 27.862 21.7252
796 2 59.1961 31.7777 21.7709
797 2 3.76992 31.7452 21.6375
798 2 7.66027 31.6347 21.735
799 2 11.8296 31.6855 21.8578
800 2 16.0343 31.7708 21.6571
801 2 19.7847 31.7167 21.771
802 2 23.6082 31.5939 21.9014
803 2 27.6831 31.6146 21.7674
804 2 31.5852 31.6489 21.6701
805 2 35.4071 31.7186 21.607
806 2 39.2952 31.7117 21.7273
807 2 43.3956 31.8429 21.8223
808 2 47.4584 31.8488 21.6823
809 2 51.3504 31.7622 21.6591
810 2 55.405 31.764 21.5667
811 2 -0.13779 35.7389 21.7136
812 2 3.65541 35.6657 21.6655
813 2 7.87933 35.5955 21.8396
814 2 11.9126 35.6292 21.8858
815 2 15.9371 35.6896 21.6661
816 2 19.7656 35.7868 21.7207
817 2 24.0111 35.6978 21.7681
818 2 27.7438 35.5129 21.8193
819 2 31.7101 35.7484 21.6617
820 2 35.6104 35.8152 21.8408
821 2 39.5319 35.7337 21.8875
822 2 43.3425 35.5223 21.7341
823 2 47.3443 35.8523 21.7578
824 2 51.2566 35.7693 21.7848
825 2 55.2283 35.7845 21.758
826 2 0.0872242 39.5715 21.6322
827 2 3.99891 39.766 21.9369
828 2 7.7312 39.4557 21.7353
829 2 11.79 39.6267 21.8069
830 2 15.9152 39.689 21.8583
831 2 19.8062 39.7202 21.7423
832 2 23.8102 39.8504 21.7872
833 2 27.8934 39.5908 21.7164
834 2 31.6249 39.804 21.7181
835 2 35.4858 39.7975 21.7523
836 2 39.4513 39.7287 21.8013
837 2 43.5342 39.797 21.8182
838 2 47.3342 39.7743 21.6607
839 2 51.4558 39.7302 21.8554
840 2 55.5911 39.5372 21.7941
841 2 59.2931 43.649 21.5974
842 2 3.93266 43.6297 21.5723
843 2 7.82037 43.4784 21.7698
844 2 11.9574 43.461 21.6094
845 2 15.7913 43.7209 21.747
846 2 19.6221 43.6864 21.5329
847 2 23.6818 43.558 21.737
848 2 27.6662 43.7123 21.7652
849 2 31.6136 43.6071 21.8063
850 2 35.6232 43.6489 21.7794
851 2 39.6669 43.4713 21.7493
852 2 43.7611 43.7691 21.6146
853 2 47.5525 43.6593 21.6918
854 2 51.3292 43.6471 21.6969
855 2 55.5337 43.6921 21.6225
856 2 0.0920242 47.6868 21.666
857 2 4.01484 47.7095 21.8638
858 2 7.73736 47.4703 21.9243
859 2 11.669 47.4713 21.6828
860 2 15.644 47.6203 21.7034
861 2 19.5291 47.5777 21.7936
862 2 23.8056 47.5212 21.5783
863 2 27.7134 47.6257 21.7781
864 2 31.642 47.5596 21.6949
865 2 35.6393 47.6517 21.8875
866 2 39.7944 47.5153 21.691
867 2 43.3989 47.6415 21.8356
868 2 47.5018 47.5489 21.641
869 2 51.4864 47.3327 21.8091
870 2 55.2443 47.5637 21.6466
871 2 59.4622 51.7056 21.758
872 2 3.97815 51.3827 21.4898
873 2 7.8574 51.6529 21.7245
874 2 11.8457 51.4064 21.8539
875 2 15.7716 51.4502 21.8249
876 2 19.5161 51.4658 21.6547
877 2 23.6467 51.4422 21.8257
878 2 27.5412 51.5574 21.8238
879 2 31.7864 51.5519 21.8964
880 2 35.6878 51.6876 21.8347
881 2 39.6553 51.6503 21.7635
882 2 43.5282 51.5289 21.8174
883 2 47.5948 51.673 21.7638
884 2 51.4716 51.5937 21.8215
885 2 55.3621 51.3798 21.8604
886 2 59.2961 55.6238 21.6484
887 2 3.92401 55.764 21.6588
888 2 7.96568 55.6751 21.8868
889 2 12.0369 55.3914 21.827
890 2 15.8302 55.6409 21.7977
891 2 19.7403 55.5696 21.9448
892 2 23.8965 55.3562 21.7286
893 2 27.9309 55.2074 21.8698
894 2 31.6964 55.4075 21.8774
895 2 35.6774 55.5722 21.8218
896 2 39.5698 55.6656 21.6015
897 2 43.7218 55.532 21.6874
898 2 47.4557 55.5807 21.6241
899 2 51.3593 55.4692 21.6292
900 2 55.3345 55.7429 21.7852
901 2 59.5104 0.162008 25.6552
902 2 3.86979 59.3244 25.7888
903 2 7.93212 0.214449 25.7499
904 2 11.8475 0.0744455 25.5865
905 2 15.8555 59.5454 25.8928
906 2 19.8504 0.0343855 25.87
907 2 23.8151 0.0570141 25.7318
908 2 27.7118 0.192443 25.7381
909 2 31.5062 59.5498 25.8755
910 2 35.5419 0.101064 25.7195
911 2 39.3936 0.172421 25.6788
912 2 43.2706 0.200736 25.7861
913 2 47.351 0.0337386 25.7922
914 2 51.4044 0.013442 25.7635
915 2 55.0281 59.3529 25.6971
916 2 59.1953 4.14974 25.7078
917 2 3.96345 4.0802 25.7195
918 2 7.87462 4.1452 25.798
919 2 11.7579 4.07138 25.7919
920 2 15.8524 3.95961 25.8843
921 2 19.8613 3.95213 25.5739
922 2 23.8078 3.92528 25.8545
923 2 27.6261 4.03777 25.7864
924 2 31.5372 4.13314 25.7376
925 2 35.5321 4.25596 25.749
926 2 39.3406 4.30749 25.5944
927 2 43.3922 4.27053 25.6825
928 2 47.5142 3.85217 25.68
929 2 51.4372 3.97942 25.7833
930 2 55.2764 4.16108 25.6243
931 2 59.3315 8.01556 25.8055
932 2 3.92167 7.9713 25.864
933 2 7.88103 7.85655 25.7999
934 2 11.8116 7.91946 25.9921
935 2 15.7727 7.85363 25.8168
936 2 19.7955 8.05777 25.8348
937 2 23.5975 7.76625 25.9326
938 2 27.8115 8.05584 25.8005
939 2 31.3283 8.08737 25.7523
940 2 35.4469 8.04257 25.7796
941 2 39.3891 8.07659 25.6998
942 2 43.6419 8.10568 25.9034
943 2 47.429 8.03116 25.827
944 2 51.346 8.09039 25.7292
945 2 55.2288 7.85129 25.6108
946 2 59.2169 11.9353 25.6124
947 2 3.91452 11.8828 25.7538
948 2 7.77071 11.9649 25.7879
949 2 11.7548 11.9091 26.0598
950 2 15.7211 12.0331 25.9427
951 2 19.7967 12.0569 25.9039
952 2 23.9518 12.0097 25.9588
953 2 27.5717 12.0808 25.8163
954 2 31.475 12.1348 25.8328
955 2 35.39 11.8316 25.7544
956 2 39.4552 11.8507 25.8584
957 2 43.4399 11.97 25.8616
958 2 47.4396 11.9674 25.6005
959 2 51.3834 11.9335 25.8418
960 2 55.3946 11.9831 25.646
961 2 59.1351 15.9813 25.7812
962 2 3.80094 16.0647 25.6911
963 2 7.70753 15.6532 25.6701
964 2 11.7905 15.9627 25.678
965 2 15.7671 15.9009 25.8575
966 2 19.6871 15.9308 26.0075
967 2 23.6374 16.0395 25.8481
968 2 27.5426 15.9073 25.7792
969 2 31.6973 16.1051 25.7902
970 2 35.5323 15.8013 25.8075
971 2 39.5051 15.7648 25.7296
972 2 43.4043 15.809 25.7936
973 2 47.5488 15.846 25.8381
974 2 51.3728 16.1487 25.6666
975 2 55.1891 15.7158 25.7531
976 2 59.1449 19.8889 25.7787
977 2 3.91443 19.741 25.7099
978 2 7.8533 19.7374 25.7395
979 2 11.9407 19.9429 25.7978
980 2 15.7841 19.8909 26.023
981 2 19.699 19.8743 25.9045
982 2 23.8453 19.8084 25.815
983 2 27.7115 19.8289 25.9242
984 2 31.5504 19.8301 25.9448
985 2 35.5624 20.0059 25.7668
986 2 39.5535 19.7301 25.5106
987 2 43.6455 19.9295 25.7721
988 2 47.4401 19.63 25.7901
989 2 51.26 19.9317 25.9413
990 2 55.3039 19.9075 25.6036
991 2 59.2088 23.7922 25.6998
992 2 3.63383 23.5898 25.5416
993 2 7.52102 23.9077 25.8756
994 2 11.858 23.827 25.7304
995 2 15.9624 24.0338 25.8268
996 2 19.7715 23.7248 25.8884
997 2 23.6378 23.9519 25.8596
998 2 27.8395 23.8363 25.783
999 2 31.6482 23.8957 25.8449
1000 2 35.5659 23.7057 25.7143