ITEM: TIMESTEP
1510400
ITEM: NUMBER OF ATOMS
16875
ITEM: BOX BOUNDS xy xz yz pp pp pp
0.0000000000000000e+00 5.9369999999999997e+01 0.0000000000000000e+00
0.0000000000000000e+00 5.9369999999999997e+01 0.0000000000000000e+00
3.2280287818772280e-01 6.0043616121815191e+01 0.0000000000000000e+00
ITEM: ATOMS id type x y z
1 2 59.6182 0.105135 9.98634
2 2 4.11998 0.235498 9.81252
3 2 8.06116 0.133558 9.75765
4 2 12.0216 59.4911 10.0488
5 2 15.9403 0.264437 9.92356
6 2 19.8162 0.14232 9.94008
7 2 23.6875 -0.0728039 9.85082
8 2 27.8745 -0.149166 9.66205
9 2 31.8645 -0.0125215 9.81125
10 2 35.7243 0.141417 9.91278
11 2 39.6274 -0.132897 9.74578
12 2 43.6198 -0.0102544 9.95463
13 2 47.4128 -0.127465 9.9307
14 2 51.6849 0.000854185 9.94977
15 2 55.5643 0.109499 9.92387
16 2 59.4676 3.97509 9.78828
17 2 4.00313 4.07751 9.85252
18 2 7.75068 4.11448 9.72359
19 2 11.8453 4.16418 9.94701
20 2 16.0288 3.96091 9.9636
21 2 20.0305 4.14824 9.80066
22 2 24.1876 4.03939 9.78649
23 2 28.0191 3.94943 9.79537
24 2 31.8034 3.94582 9.82034
25 2 35.8021 4.01037 9.94753
26 2 39.6624 4.00756 10.019
27 2 43.6886 4.0993 9.75301
28 2 47.7259 4.02621 9.90192
29 2 51.3055 4.00852 9.86304
30 2 55.2888 3.98327 9.76066
31 2 59.6172 7.8675 9.76288
32 2 4.21994 7.93339 9.85193
33 2 7.95289 7.92099 9.91486
34 2 11.9464 8.04449 9.80362
35 2 16.0282 7.92408 9.92482
36 2 19.9062 7.82658 9.95228
37 2 24.0391 7.94278 9.75059
38 2 27.8253 7.93496 9.91452
39 2 31.6916 8.05754 9.90156
40 2 35.5916 7.99132 9.84853
41 2 39.897 7.86637 9.85175
42 2 43.7704 7.8267 9.93494
43 2 47.585 8.15459 10.0118
44 2 51.4822 7.8771 9.90022
45 2 55.5847 7.9137 10.0531
46 2 0.0241821 11.8343 10.0228
47 2 3.92826 11.8127 9.94903
48 2 8.15547 11.6647 9.74808
49 2 12.1187 11.9116 9.8167
50 2 16.1262 11.7601 9.84111
51 2 20.0121 11.7913 9.97131
52 2 23.8901 11.8286 9.67656
53 2 27.8452 12.1291 9.67302
54 2 31.6334 11.8775 9.80728
55 2 35.9509 11.8654 9.98851
56 2 39.6458 11.7134 9.99716
57 2 43.6555 11.99 10.001
58 2 47.5073 12.1608 9.85151
59 2 51.386 12.0506 9.97945
60 2 55.6564 11.925 9.94128
61 2 0.146273 15.7641 9.84922
62 2 3.98743 15.6686 9.95924
63 2 8.08818 15.7581 9.89777
64 2 11.9173 15.8048 9.89154
65 2 15.9373 15.8108 9.8986
66 2 19.9118 15.6662 9.94884
67 2 23.9299 15.9779 9.91191
68 2 27.7201 15.8187 9.91965
69 2 31.7249 15.7489 9.93041
70 2 35.5397 15.9878 9.8289
71 2 39.5223 15.6748 9.76488
72 2 43.2914 15.8395 9.75496
73 2 47.5159 15.9153 9.97572
74 2 51.5175 15.8535 9.89093
75 2 55.3751 15.9566 9.76406
76 2 59.6937 19.9364 9.77812
77 2 4.23889 19.7975 9.92868
78 2 8.14007 19.7622 9.94929
79 2 12.1017 19.7506 10.0187
80 2 15.9859 19.7697 9.88478
81 2 19.7564 19.8689 9.90372
82 2 23.9761 19.839 10.0464
83 2 27.8244 19.9604 10.0019
84 2 31.5734 19.6661 9.8968
85 2 35.5401 19.7786 10.0015
86 2 39.6756 19.697 9.88137
87 2 43.4481 19.6796 9.71381
88 2 47.6355 19.679 9.98946
89 2 51.6091 19.8313 10.0491
90 2 55.6152 19.6051 9.74585
91 2 59.5246 23.772 10.0361
92 2 4.31823 23.7521 9.89752
93 2 8.2211 23.5158 9.80674
94 2 12.123 23.682 9.99198
95 2 15.9521 23.6175 9.90496
96 2 19.9519 23.6413 9.96676
97 2 23.7288 23.6953 10.0863
98 2 27.9452 23.9891 9.62733
99 2 31.8242 23.9893 9.97655
100 2 35.8198 23.7109 9.91237
101 2 39.8126 23.8062 9.88544
102 2 43.7136 23.6906 9.73571
103 2 47.6585 23.6328 9.97033
104 2 51.76 23.7757 9.76423
105 2 55.6895 23.6229 9.92799
106 2 0.0852154 27.9402 9.79343
107 2 4.03877 27.5746 9.94546
108 2 8.16409 27.7033 9.69945
109 2 11.9169 27.6854 9.93095
110 2 15.9359 27.692 9.79148
111 2 19.8059 27.8036 9.88434
112 2 23.6229 27.7872 10.12
113 2 27.637 27.8542 9.83754
114 2 31.8558 27.7848 9.69271
115 2 35.5641 27.684 9.961
116 2 39.5942 27.8499 9.78027
117 2 43.8189 27.8732 9.71967
118 2 47.6066 27.7136 9.83322
119 2 51.636 27.6266 9.42812
120 2 55.6231 27.732 9.87966
121 2 0.283276 31.591 9.95603
122 2 4.06163 31.7122 9.89124
123 2 8.05226 31.8325 9.84264
124 2 11.8927 31.7373 9.81676
125 2 15.8321 31.7072 9.88938
126 2 19.8789 31.6882 9.83422
127 2 23.9559 31.6829 9.87097
128 2 27.7943 31.7588 9.78527
129 2 31.9852 31.7488 9.9599
130 2 35.6987 31.6309 9.91704
131 2 39.8345 31.6749 9.90296
132 2 43.6391 31.8168 9.8227
133 2 47.5079 31.6876 9.8685
134 2 51.587 31.7394 9.70384
135 2 55.4695 31.7603 9.71432
136 2 59.3963 35.4889 9.99968
137 2 4.13797 35.5666 9.82772
138 2 8.06423 35.5892 9.91357
139 2 11.8483 35.703 9.89685
140 2 15.9395 35.616 9.85517
141 2 19.8851 35.5448 9.8897
142 2 23.8505 35.7777 9.91987
143 2 27.8525 35.7776 9.93806
144 2 31.7633 35.7383 9.84379
145 2 35.7304 35.5506 9.70125
146 2 39.7876 35.6199 10.0567
147 2 43.7332 35.7085 9.8513
148 2 47.6414 35.6033 9.92088
149 2 51.5315 35.7474 9.657
150 2 55.3909 35.5888 9.79821
151 2 59.2924 39.4615 9.8546
152 2 4.00629 39.4969 9.92688
153 2 7.92461 39.5405 9.92331
154 2 12.0209 39.7021 9.77451
155 2 15.9647 39.4427 9.72918
156 2 19.9542 39.2961 9.73149
157 2 23.7081 39.4576 9.91242
158 2 27.6322 39.5944 9.84382
159 2 31.8868 39.576 10.0659
160 2 35.7355 39.6949 9.94803
161 2 39.5783 39.6849 9.90995
162 2 43.7954 39.6613 9.77444
163 2 47.6565 39.4759 9.73989
164 2 51.5007 39.556 9.86011
165 2 55.3956 39.6528 9.62632
166 2 59.5935 43.5744 9.72326
167 2 4.05732 43.5112 9.86788
168 2 8.1076 43.5798 9.89558
169 2 11.9651 43.662 9.91937
170 2 15.8436 43.5216 10.082
171 2 19.7854 43.5112 10.0273
172 2 23.8797 43.5341 9.92889
173 2 27.8215 43.6674 9.86114
174 2 31.7276 43.5761 9.80995
175 2 35.6359 43.6387 9.77724
176 2 39.7019 43.7377 9.73461
177 2 43.6846 43.3691 9.8139
178 2 47.5332 43.4047 9.75059
179 2 51.3916 43.4755 9.75389
180 2 55.5035 43.6095 9.94901
181 2 59.4696 47.5046 9.7562
182 2 3.99216 47.4636 9.97797
183 2 8.19376 47.5295 9.62183
184 2 12.0192 47.5289 9.89485
185 2 15.8254 47.3775 9.75667
186 2 19.7513 47.4867 9.94033
187 2 23.7459 47.4784 10.023
188 2 27.8801 47.7096 9.88591
189 2 32.0328 47.6127 9.75955
190 2 35.9624 47.5676 9.92879
191 2 39.6891 47.4432 9.77271
192 2 43.5184 47.3689 10.0367
193 2 47.4867 47.4501 9.80844
194 2 51.5748 47.553 9.90321
195 2 55.4452 47.4549 9.6853
196 2 0.136056 51.4203 10.0126
197 2 3.91821 51.5894 9.9332
198 2 7.96427 51.4758 9.72128
199 2 11.7893 51.3723 9.91997
200 2 16.0924 51.5211 10.071
201 2 19.9399 51.514 9.73559
202 2 23.8393 51.6971 9.76872
203 2 27.7183 51.6661 9.84267
204 2 31.8692 51.5539 9.95839
205 2 35.8493 51.4976 9.73306
206 2 39.8054 51.2364 9.6793
207 2 43.6276 51.4811 9.92338
208 2 47.5731 51.568 9.75459
209 2 51.5413 51.5378 9.75606
210 2 55.3915 51.5186 9.73954
211 2 59.5527 55.4029 9.85313
212 2 4.06907 55.5143 9.98972
213 2 7.83741 55.5102 9.85169
214 2 12.0939 55.3461 9.89055
215 2 15.8523 55.2814 9.96293
216 2 19.9609 55.5881 9.83527
217 2 23.8587 55.4558 9.81859
218 2 27.8034 55.5487 9.92949
219 2 31.8536 55.3459 9.7518
220 2 35.6329 55.5697 9.73732
221 2 39.8338 55.1972 9.81911
222 2 43.4618 55.3079 9.84445
223 2 47.7231 55.4532 9.93137
224 2 51.5684 55.5883 9.76497
225 2 55.5613 55.4627 9.71903
226 2 59.4649 0.123672 13.8359
227 2 4.25322 -0.00408262 13.9414
228 2 8.12633 0.0852261 13.7882
229 2 11.8558 59.5281 13.8891
230 2 16.0295 0.0635611 13.9191
231 2 20.0391 0.153568 13.9545
232 2 23.8844 0.116311 13.9338
233 2 27.7834 0.19461 13.8624
234 2 31.834 -0.0442761 13.8386
235 2 35.6819 59.3378 13.774
236 2 39.5867 0.145026 13.857
237 2 43.5571 0.085751 13.8936
238 2 47.3081 59.5816 13.7683
239 2 51.5242 0.130012 13.9361
240 2 55.5426 0.2202 13.8161
241 2 59.4721 3.92301 13.8515
242 2 3.9149 4.02806 13.8093
243 2 8.07427 3.87421 13.9156
244 2 11.9844 3.95128 13.8017
245 2 15.8476 3.87473 13.9788
246 2 19.9068 4.1442 13.5466
247 2 23.7879 4.19925 13.801
248 2 27.7955 4.0472 13.8151
249 2 31.9309 4.04976 13.9205
250 2 35.7032 4.18306 13.6336
251 2 39.7252 3.98171 13.8368
252 2 43.6192 3.97946 13.827
253 2 47.3245 4.00729 13.9722
254 2 51.4593 4.03098 13.7997
255 2 55.518 3.97444 13.9043
256 2 59.6333 8.02413 13.7975
257 2 4.11266 7.99743 13.839
258 2 8.00816 7.84983 14.0588
259 2 11.9469 7.9717 13.7669
260 2 15.8073 7.9475 13.976
261 2 19.8118 8.11291 13.7305
262 2 23.9112 8.06914 13.7884
263 2 27.7027 7.94599 13.8176
264 2 31.8467 8.23509 13.7844
265 2 35.6677 8.04858 13.8772
266 2 39.7294 7.7791 14.1305
267 2 43.6352 7.93473 13.8294
268 2 47.5537 7.98906 13.9163
269 2 51.625 8.01186 13.6913
270 2 55.5665 7.87136 13.9699
271 2 0.0127725 11.9816 13.8403
272 2 3.9041 11.9286 13.9203
273 2 8.03916 11.998 13.7691
274 2 11.9629 11.9714 13.7375
275 2 15.8918 12.0471 13.8707
276 2 20.0633 11.8368 13.7972
277 2 23.7883 11.9226 13.9518
278 2 27.6468 11.9145 13.9266
279 2 31.5807 11.9241 13.8765
280 2 35.8248 11.9686 13.8295
281 2 39.6418 11.9137 13.9599
282 2 43.6194 11.7277 14.0292
283 2 47.3811 12.0827 14.062
284 2 51.6736 11.6557 13.912
285 2 55.2923 12.0999 13.7696
286 2 59.3597 15.923 13.9801
287 2 4.1487 15.8413 13.9337
288 2 8.15518 15.8526 13.8259
289 2 12.0558 15.9158 13.922
290 2 15.9174 15.8856 13.9896
291 2 19.8106 15.9826 13.8991
292 2 23.8157 15.9314 13.8637
293 2 27.7778 16.0626 13.8896
294 2 31.7316 15.6468 13.935
295 2 35.6895 15.9409 13.6859
296 2 39.6384 16.0155 13.7455
297 2 43.6673 15.9659 13.9375
298 2 47.5611 15.9936 13.8597
299 2 51.5772 16.0017 13.6364
300 2 55.5239 16.0092 13.9924
301 2 59.6432 19.8672 13.8526
302 2 4.02513 19.7592 13.8711
303 2 8.01073 19.5609 13.8666
304 2 12.0776 19.9161 13.9532
305 2 15.9754 19.9181 13.7828
306 2 19.8633 19.997 13.9901
307 2 23.7944 19.8738 13.9082
308 2 27.8664 19.8742 13.7718
309 2 31.6422 19.94 13.9129
310 2 35.7846 19.7355 13.8522
311 2 39.5222 19.9404 13.8879
312 2 43.5828 20.0128 13.8153
313 2 47.4127 19.9335 13.7878
314 2 51.5432 20.2186 13.7468
315 2 55.2661 19.8055 13.7028
316 2 59.4091 23.7646 14.0106
317 2 4.04507 23.9818 13.8181
318 2 7.87094 23.7747 13.8889
319 2 11.9757 23.8974 13.9414
320 2 15.8404 23.9754 14.0631
321 2 19.7722 23.7707 14.0233
322 2 23.8678 23.963 13.9888
323 2 27.6575 23.8484 13.7558
324 2 31.7103 23.8116 13.7133
325 2 35.5618 23.9596 13.8224
326 2 39.5631 23.9229 13.8814
327 2 43.7649 23.8396 13.7085
328 2 47.7051 23.809 13.7112
329 2 51.6089 23.9401 13.8236
330 2 55.5926 24.1024 13.8176
331 2 0.159993 27.6728 13.8402
332 2 4.14837 27.5866 13.8311
333 2 8.17557 27.6586 13.6008
334 2 11.9705 27.6979 14.0225
335 2 15.9258 27.7528 13.8639
336 2 19.7381 27.6737 13.8959
337 2 23.956 27.8564 13.9081
338 2 28.0335 27.928 13.6604
339 2 31.7665 27.7407 13.6066
340 2 35.6315 28.0026 13.7278
341 2 39.7615 27.6331 13.8204
342 2 43.5768 27.7959 13.7835
343 2 47.6551 27.8948 13.683
344 2 51.647 27.8605 13.812
345 2 55.3778 27.8205 13.7985
346 2 59.3597 31.6887 13.7702
347 2 4.20844 31.5109 13.8334
348 2 7.89021 31.7821 13.7075
349 2 11.918 31.8498 13.8597
350 2 15.8842 31.6932 13.8751
351 2 19.8614 31.8922 14.0476
352 2 23.9017 31.7403 13.8255
353 2 27.8262 31.7293 14.0016
354 2 31.7057 31.8934 13.9153
355 2 35.7141 31.6277 13.7874
356 2 39.7007 31.9004 13.9805
357 2 43.6532 31.5779 13.9301
358 2 47.3213 31.758 13.8988
359 2 51.2925 31.6157 13.6791
360 2 55.4062 31.6469 13.6161
361 2 0.012857 35.7849 13.9038
362 2 4.03923 35.5625 13.747
363 2 7.89084 35.6676 13.8448
364 2 12.0097 35.7804 13.9449
365 2 15.8844 35.5906 13.6982
366 2 19.8952 35.7088 13.9763
367 2 23.8225 35.5813 13.871
368 2 27.6184 35.6382 13.8799
369 2 31.5898 35.6872 13.8991
370 2 35.7986 35.7156 13.7936
371 2 39.4738 35.8591 13.8759
372 2 43.4947 35.7942 13.9528
373 2 47.3969 35.6619 13.963
374 2 51.3834 35.5441 13.6773
375 2 55.3274 35.7509 13.7356
376 2 59.3863 39.7254 13.8655
377 2 4.03267 39.8183 13.8496
378 2 7.84403 39.5562 13.794
379 2 11.8965 39.6633 13.8125
380 2 15.9541 39.7776 13.915
381 2 19.8096 39.5052 13.904
382 2 23.799 39.7961 13.8824
383 2 27.7359 39.5491 13.954
384 2 31.66 39.8229 13.8936
385 2 35.6183 39.6684 13.8746
386 2 39.5757 39.7833 13.8098
387 2 43.5754 39.9296 13.9967
388 2 47.5111 39.5077 13.7971
389 2 51.4627 39.6507 13.8141
390 2 55.1904 39.731 13.5366
391 2 -0.131097 43.7552 13.776
392 2 3.91899 43.6869 13.6979
393 2 7.86465 43.6337 13.8578
394 2 11.7926 43.4225 13.8432
395 2 16.0322 43.6254 13.9347
396 2 19.7765 43.5497 13.907
397 2 23.9311 43.6557 13.7974
398 2 27.6293 43.5207 13.8153
399 2 31.6244 43.7406 13.7193
400 2 35.7114 43.8094 13.8459
401 2 39.6937 43.7562 13.8788
402 2 43.6703 43.5738 13.8883
403 2 47.6146 43.7968 13.6846
404 2 51.5213 43.6622 13.6851
405 2 55.5129 43.4392 13.8206
406 2 59.2877 47.7382 13.7355
407 2 4.00812 47.7497 13.7737
408 2 8.00689 47.5488 13.9422
409 2 11.9497 47.6685 13.7171
410 2 15.6474 47.5969 13.7408
411 2 19.8685 47.5963 13.7074
412 2 23.9686 47.6363 13.5981
413 2 27.8822 47.7468 13.6448
414 2 31.7242 47.699 13.8099
415 2 35.6701 47.5914 13.8511
416 2 39.6241 47.7075 13.8236
417 2 43.6388 47.5407 13.8109
418 2 47.7464 47.8294 13.6866
419 2 51.6492 47.5942 13.6554
420 2 55.3509 47.5804 13.9651
421 2 59.1563 51.7353 13.9942
422 2 3.96003 51.6774 13.9991
423 2 8.15823 51.353 13.5802
424 2 11.9637 51.6383 13.7445
425 2 15.9726 51.5441 13.8827
426 2 20.0443 51.4602 13.9837
427 2 23.7994 51.7902 13.8108
428 2 28.0426 51.6265 13.6907
429 2 31.5543 51.5935 13.7103
430 2 35.6049 51.556 13.7525
431 2 39.5949 51.5266 13.8271
432 2 43.7923 51.4689 13.8021
433 2 47.5729 51.6882 13.8548
434 2 51.4518 51.4392 13.6588
435 2 55.4073 51.5933 13.733
436 2 59.3636 55.6637 13.8728
437 2 3.93484 55.3706 13.8883
438 2 8.08795 55.6189 13.9276
439 2 12.1815 55.7382 13.7251
440 2 15.9855 55.5563 13.9135
441 2 19.6792 55.4953 13.967
442 2 23.6151 55.5487 13.9296
443 2 27.6261 55.5264 13.7331
444 2 31.808 55.4649 13.848
445 2 35.8205 55.5169 13.7777
446 2 39.596 55.4643 13.8781
447 2 43.4933 55.4279 13.8155
448 2 47.4899 55.4476 13.7769
449 2 51.441 55.4226 13.8359
450 2 55.661 55.6519 13.8078
451 2 59.3273 0.0775396 17.8433
452 2 3.78963 0.272681 17.7224
453 2 8.01863 59.6239 17.9502
454 2 11.9868 0.15999 17.8802
455 2 15.9644 0.195258 17.7815
456 2 20.0055 0.398667 17.8487
457 2 23.816 0.265697 17.8802
458 2 27.6528 0.147052 17.8221
459 2 31.6964 0.13179 17.8186
460 2 35.6964 0.0101195 17.9428
461 2 39.6311 0.153517 17.7047
462 2 43.4307 59.4986 17.7989
463 2 47.5438 0.298338 17.8009
464 2 51.4651 0.139619 17.8731
465 2 55.4102 0.165406 17.8662
466 2 59.2903 4.0013 17.7962
467 2 4.22862 4.05617 17.8039
468 2 7.97454 3.89618 17.8527
469 2 12.0138 4.07608 17.7534
470 2 15.8499 4.14153 17.807
471 2 19.9781 4.20933 17.7665
472 2 23.8292 4.07363 17.7715
473 2 27.7264 4.04704 17.7244
474 2 31.8485 4.06678 17.8466
475 2 35.743 4.05617 17.7725
476 2 39.5887 4.16658 17.9225
477 2 43.5844 4.1746 17.7889
478 2 47.5288 4.1571 17.9498
479 2 51.4465 4.13621 17.794
480 2 55.3957 4.08597 17.9302
481 2 59.4717 8.06185 17.7381
482 2 4.15591 8.1221 17.7455
483 2 8.02752 7.92689 17.762
484 2 11.9822 8.0901 17.8791
485 2 15.8834 8.03991 17.7928
486 2 19.7868 7.87845 18.0061
487 2 23.7884 8.13144 17.8117
488 2 27.7545 7.95064 17.8611
489 2 31.7667 8.06628 17.9061
490 2 35.5973 8.05617 17.8127
491 2 39.5911 8.04561 17.7909
492 2 43.6743 7.87273 18.0066
493 2 47.5606 7.96064 17.8627
494 2 51.5098 8.12673 17.6198
495 2 55.3467 8.01097 17.9387
496 2 59.5344 11.96 17.7777
497 2 4.0368 11.8825 17.9012
498 2 7.94137 12.0208 17.9993
499 2 11.9056 12.0474 17.8355
500 2 16.0109 12.0689 17.9269
501 2 19.9446 11.8969 17.7491
502 2 23.7746 11.9951 17.6855
503 2 27.7282 11.9046 17.7798
504 2 31.6742 11.9918 17.7555
505 2 35.6957 12.0305 17.9125
506 2 39.5799 12.0498 17.8711
507 2 43.4522 11.7984 17.9713
508 2 47.5738 12.0966 17.9528
509 2 51.2362 12.0848 17.7958
510 2 55.3962 11.876 17.8456
511 2 59.2661 16.0193 17.937
512 2 4.0762 15.8252 17.7932
513 2 8.06578 15.9413 17.8581
514 2 11.898 15.9718 17.8066
515 2 15.9219 15.9787 17.7492
516 2 19.8816 15.7967 17.9761
517 2 23.7582 15.9509 17.8595
518 2 27.7616 15.8416 17.8658
519 2 31.7172 16.0726 17.8949
520 2 35.7526 15.8019 17.919
521 2 39.6726 16.1451 17.8408
522 2 43.4459 15.9509 17.7482
523 2 47.6101 16.0336 17.8667
524 2 51.5281 15.7893 17.708
525 2 55.4875 16.0436 17.9904
526 2 -0.0283783 19.9342 17.9424
527 2 3.86594 20.05 17.6848
528 2 7.91798 19.941 17.8254
529 2 11.8954 19.9462 17.7147
530 2 15.8367 19.9114 17.8761
531 2 19.7929 19.9308 17.9668
532 2 23.7839 19.9283 17.9325
533 2 27.7936 20.0261 17.7271
534 2 31.8326 19.9323 17.7202
535 2 35.5029 19.7331 17.873
536 2 39.7128 19.9145 17.8543
537 2 43.6795 19.8547 17.9108
538 2 47.7809 19.7903 18.0291
539 2 51.5245 19.8964 17.8597
540 2 55.2312 19.8496 17.7732
541 2 59.476 23.6855 18.0147
542 2 4.11135 24.0169 17.8869
543 2 7.84521 24.0283 18.0383
544 2 12.0304 23.7911 17.9164
545 2 15.6285 23.8294 17.9623
546 2 19.6332 23.8782 18.0205
547 2 23.6572 23.9213 17.9169
548 2 27.7152 24.0678 17.7826
549 2 31.7794 23.7372 17.9676
550 2 35.6183 24.0054 17.6116
551 2 39.7568 23.6614 17.7018
552 2 43.7941 23.7518 17.7146
553 2 47.8744 23.9229 17.795
554 2 51.6607 23.8087 17.7805
555 2 55.6381 23.7586 17.6783
556 2 59.447 27.8621 17.8727
557 2 3.98734 27.9115 17.9254
558 2 7.83389 27.8452 17.7516
559 2 11.8519 27.9077 17.8616
560 2 15.7363 27.9453 17.653
561 2 19.787 27.9048 17.8094
562 2 23.6949 27.8736 17.8076
563 2 27.7987 27.8124 17.9136
564 2 31.7487 27.7981 17.6861
565 2 35.7679 27.8571 17.5598
566 2 39.5412 27.737 17.8913
567 2 43.5536 27.6614 17.8074
568 2 47.6431 27.7016 17.8365
569 2 51.6543 27.7345 17.8384
570 2 55.6382 27.9636 17.7655
571 2 59.3513 31.8545 17.7657
572 2 3.92695 31.6827 17.9252
573 2 7.96405 31.741 17.7998
574 2 11.8746 31.7197 17.7284
575 2 15.873 31.8825 17.9137
576 2 19.7935 31.9364 17.8508
577 2 23.7198 31.6528 17.763
578 2 27.7406 31.5519 17.8646
579 2 31.5928 31.963 17.8682
580 2 35.7166 31.7404 17.7923
581 2 39.5062 31.9783 17.7104
582 2 43.4133 31.6275 17.8957
583 2 47.5618 31.7265 17.7185
584 2 51.6675 31.8166 17.8674
585 2 55.3353 31.7718 17.7944
586 2 59.3787 35.8564 17.9298
587 2 3.90009 35.6911 17.9165
588 2 7.9019 35.7276 17.6857
589 2 12.0995 35.6426 17.7632
590 2 16.0084 35.7626 17.8654
591 2 19.9019 35.8006 17.7929
592 2 23.6806 35.6855 17.8185
593 2 27.6355 35.6041 17.8645
594 2 31.8825 35.7302 17.9048
595 2 35.7535 35.7979 17.8753
596 2 39.7016 35.9214 17.8309
597 2 43.5423 35.7058 17.7197
598 2 47.4686 35.6828 17.838
599 2 51.2892 35.518 17.9686
600 2 55.6301 35.8364 17.7694
601 2 59.2921 39.4639 17.9214
602 2 3.99646 39.593 17.748
603 2 7.88493 39.6409 17.943
604 2 11.9594 39.4744 17.8966
605 2 15.9185 39.8736 17.8749
606 2 19.9434 39.6981 17.8899
607 2 24.0797 39.6483 18.0609
608 2 27.8343 39.672 17.7849
609 2 31.6787 39.7147 17.8752
610 2 35.631 39.778 17.7755
611 2 39.5746 39.7867 17.8362
612 2 43.5609 39.7695 17.835
613 2 47.5166 39.6727 17.7547
614 2 51.4353 39.6032 17.9295
615 2 55.3047 39.6676 17.6638
616 2 59.2784 43.6207 17.6361
617 2 4.00476 43.7726 17.682
618 2 8.00827 43.6317 17.542
619 2 11.8933 43.4564 17.8905
620 2 16.0115 43.8213 17.634
621 2 19.8721 43.8326 17.6723
622 2 23.7004 43.7431 17.5626
623 2 27.6235 43.7203 17.6985
624 2 31.7855 43.5935 17.909
625 2 35.6081 43.7417 17.997
626 2 39.5957 43.7224 18.026
627 2 43.4639 43.6792 17.7877
628 2 47.3504 43.6138 17.6399
629 2 51.3672 43.4853 17.6934
630 2 55.4282 43.6265 17.8722
631 2 0.120468 47.6529 17.8289
632 2 3.98729 47.5007 17.8826
633 2 7.97684 47.5612 17.9751
634 2 11.8607 47.778 17.7698
635 2 15.7526 47.4884 17.6904
636 2 19.7351 47.6266 17.7076
637 2 23.9365 47.6059 17.6012
638 2 27.6742 47.7336 17.5434
639 2 31.6435 47.6287 17.7705
640 2 35.5504 47.7722 17.5666
641 2 39.7652 47.5895 18.0125
642 2 43.5948 47.3495 17.7149
643 2 47.69 47.5461 17.7954
644 2 51.4775 47.4608 17.7319
645 2 55.3084 47.4348 17.9119
646 2 59.5855 51.5251 17.9984
647 2 4.07303 51.433 17.8284
648 2 7.90842 51.6292 17.9479
649 2 11.7989 51.6216 17.8111
650 2 15.6861 51.5293 17.7211
651 2 19.8349 51.512 17.8608
652 2 23.5858 51.6323 17.744
653 2 27.8227 51.6771 17.9004
654 2 31.792 51.6933 17.7015
655 2 35.7468 51.5214 17.8864
656 2 39.7469 51.4244 17.9752
657 2 43.571 51.5481 17.7938
658 2 47.4811 51.5517 17.9264
659 2 51.4946 51.7238 17.4115
660 2 55.6104 51.5411 17.6826
661 2 59.326 55.2674 17.8273
662 2 3.95369 55.5056 17.9242
663 2 7.86328 55.4954 17.742
664 2 11.8881 55.3763 17.6141
665 2 15.8146 55.4515 17.8206
666 2 19.6054 55.389 17.9053
667 2 23.8119 55.5365 18.0127
668 2 28.0637 55.6485 17.8278
669 2 31.9076 55.4585 17.631
670 2 35.6052 55.3965 17.7938
671 2 39.8149 55.4277 17.7882
672 2 43.6108 55.5974 17.6911
673 2 47.4398 55.6733 17.6898
674 2 51.4994 55.8289 17.6143
675 2 55.4882 55.4734 17.8564
676 2 -0.00962803 0.125029 21.8324
677 2 3.89482 -0.00800986 21.8589
678 2 7.87494 0.105512 21.6509
679 2 11.9136 0.0875855 21.6705
680 2 15.7615 0.166668 21.9441
681 2 19.6231 59.4634 21.9122
682 2 23.6972 59.3883 21.8906
683 2 27.5793 59.3181 21.7117
684 2 31.5549 0.189909 21.7626
685 2 35.6426 59.362 21.7151
686 2 39.7204 59.3586 21.7301
687 2 43.4732 59.5209 21.6344
688 2 47.5578 59.4805 21.7615
689 2 51.3752 0.166142 21.8441
690 2 55.4346 0.105261 21.9851
691 2 59.5684 4.1711 21.8589
692 2 4.07173 4.16513 21.879
693 2 7.92882 4.08073 21.7645
694 2 11.889 4.08216 21.8613
695 2 15.8889 4.02954 21.6088
696 2 19.6969 4.19031 21.6755
697 2 23.6195 3.85155 21.8928
698 2 27.6038 4.14265 21.84
699 2 31.5545 4.05398 21.7075
700 2 35.6943 4.1382 21.7263
701 2 39.6212 3.97981 21.6551
702 2 43.5796 4.0083 21.9741
703 2 47.3505 3.98007 21.8202
704 2 51.6252 4.03478 21.8333
705 2 55.43 4.1677 21.7653
706 2 59.1696 8.20597 21.7283
707 2 3.75179 8.08788 21.7484
708 2 7.89934 8.01818 21.6899
709 2 11.9445 8.10403 21.8438
710 2 15.7689 8.13033 21.8637
711 2 19.7332 8.08153 21.8224
712 2 23.6208 7.98398 21.6491
713 2 27.7201 8.04196 21.588
714 2 31.7797 8.03667 21.9418
715 2 35.5372 8.09674 21.9189
716 2 39.5082 7.97834 21.7639
717 2 43.5666 8.16399 21.974
718 2 47.5186 7.94659 21.7764
719 2 51.3851 7.99441 21.8815
720 2 55.3102 8.14736 21.9331
721 2 59.5277 12.0063 21.903
722 2 3.90849 11.9326 21.9085
723 2 7.83913 12.0669 21.5868
724 2 12.0025 11.8893 21.8662
725 2 15.803 11.8537 21.8434
726 2 19.8434 11.8509 21.8118
727 2 23.8511 11.9951 21.8421
728 2 27.7874 12.0003 21.9445
729 2 31.5849 11.8778 21.705
730 2 35.6575 12.0638 21.6294
731 2 39.6019 12.0984 21.9164
732 2 43.4103 11.9082 21.9085
733 2 47.2375 11.9286 21.9153
734 2 51.4913 11.9625 21.8552
735 2 55.1302 11.8745 21.8852
736 2 -0.259542 15.994 21.7165
737 2 3.79485 16.0858 21.8194
738 2 7.85045 16.1414 21.6007
739 2 12.0197 15.8938 22.0148
740 2 15.7959 16.1449 21.7043
741 2 19.8377 15.9004 21.9343
742 2 23.6261 15.8748 21.6925
743 2 27.5436 15.903 21.9241
744 2 31.5175 16.1117 21.7742
745 2 35.6439 15.987 21.9322
746 2 39.6899 15.9319 21.5537
747 2 43.8007 15.8554 21.7231
748 2 47.5739 15.9078 21.6637
749 2 51.3499 16.008 21.8317
750 2 55.3745 15.9673 22.0414
751 2 59.3613 19.8925 21.8528
752 2 3.91928 19.8365 21.8922
753 2 7.86925 19.9863 21.9857
754 2 12.0097 19.8517 21.8151
755 2 15.9525 19.906 21.9069
756 2 19.932 19.8418 21.8376
757 2 23.8029 19.7906 21.809
758 2 27.7035 19.8781 21.6903
759 2 31.7571 19.9945 21.7639
760 2 35.598 19.8242 21.9001
761 2 39.6534 19.9676 21.6507
762 2 43.6975 20.0526 21.7377
763 2 47.5393 19.9186 21.9526
764 2 51.3329 19.9818 21.9393
765 2 55.4785 19.7517 22.0084
766 2 59.4101 23.9471 21.9881
767 2 4.05169 23.9923 21.9574
768 2 7.91215 23.8037 21.7179
769 2 11.88 23.8224 21.8618
770 2 15.7917 24.0499 21.7036
771 2 19.7309 23.7137 21.9558
772 2 23.6276 24.0106 21.9219
773 2 27.734 24.126 21.8253
774 2 31.871 23.7735 21.874
775 2 35.5743 23.9465 21.9198
776 2 39.4569 23.9208 21.7486
777 2 43.6694 23.9343 21.6873
778 2 47.4902 23.8883 21.8088
779 2 51.4871 23.9488 21.8484
780 2 55.5784 23.9418 21.6976
781 2 59.2108 27.7846 21.9669
782 2 4.02807 27.7172 21.8323
783 2 7.97539 27.7705 21.886
784 2 11.9424 27.8764 21.9689
785 2 15.8777 27.9581 21.9182
786 2 19.6913 27.855 21.7313
787 2 23.6408 27.7673 21.6411
788 2 27.6995 27.9702 21.8973
789 2 31.7612 27.9911 21.7862
790 2 35.609 27.8518 21.7738
791 2 39.6056 27.8532 21.8894
792 2 43.4022 27.6211 21.8357
793 2 47.4457 27.7941 21.7228
794 2 51.4281 27.8234 21.8157
795 2 55.3685 27.8191 21.8497
796 2 59.4583 31.7214 21.8379
797 2 4.07323 31.7786 21.794
798 2 7.97188 31.7729 21.8185
799 2 11.902 31.9397 21.8396
800 2 15.8681 31.747 21.9012
801 2 19.6996 31.8222 21.826
802 2 23.7067 31.9574 21.8029
803 2 27.7307 31.9104 21.6972
804 2 31.6463 31.8751 21.7165
805 2 35.7198 31.9161 21.773
806 2 39.5178 31.7653 21.7341
807 2 43.4609 31.6247 21.7988
808 2 47.2125 31.457 21.5224
809 2 51.5523 31.7274 21.9026
810 2 55.5547 31.7016 21.8968
811 2 -0.00386282 35.7457 21.9743
812 2 3.84609 35.8643 21.8189
813 2 7.73545 35.6699 21.6612
814 2 11.7875 35.8563 21.8414
815 2 15.7344 35.9768 21.8428
816 2 19.8902 35.6472 21.7452
817 2 23.6815 35.7604 21.8668
818 2 27.8596 35.8156 21.8495
819 2 31.6347 35.8196 21.7456
820 2 35.715 35.901 21.7038
821 2 39.4374 35.9307 21.7063
822 2 43.5117 35.6243 21.8759
823 2 47.5549 35.6978 21.7095
824 2 51.4247 35.6792 21.9127
825 2 55.3336 35.727 21.6163
826 2 0.113109 39.8949 21.6745
827 2 4.12809 39.9034 21.8834
828 2 7.67209 39.5418 21.689
829 2 11.8589 39.7653 21.7747
830 2 15.9098 39.7911 21.9296
831 2 19.6287 39.8283 21.8671
832 2 23.6585 39.5771 21.9457
833 2 27.4838 39.7144 21.4758
834 2 31.6874 39.6649 21.8081
835 2 35.5308 39.7112 21.9152
836 2 39.5576 39.6911 21.8506
837 2 43.5501 39.7677 21.8132
838 2 47.4947 39.6938 21.8825
839 2 51.4117 39.7291 21.8281
840 2 55.2792 39.5934 21.8463
841 2 59.0178 43.5494 21.83
842 2 3.84675 43.6399 21.7932
843 2 7.81501 43.6992 21.7196
844 2 11.9037 43.562 21.9238
845 2 15.7474 43.8099 21.625
846 2 19.7538 43.7193 21.7203
847 2 23.7927 43.6302 21.9193
848 2 27.731 43.5941 21.7546
849 2 31.6131 43.8364 21.7825
850 2 35.6143 43.847 21.7902
851 2 39.5865 43.7088 21.7609
852 2 43.6677 43.5884 21.6703
853 2 47.4254 43.627 21.7713
854 2 51.4023 43.5859 21.9655
855 2 55.2186 43.5062 21.8198
856 2 -0.0496332 47.4357 21.8748
857 2 4.02077 47.3925 21.7843
858 2 7.97874 47.3848 21.7911
859 2 11.8129 47.5751 21.6862
860 2 15.8251 47.4739 21.7113
861 2 19.7232 47.712 21.7006
862 2 23.8544 47.376 21.7389
863 2 27.6824 47.7012 21.6118
864 2 31.6677 47.7546 21.7857
865 2 35.6167 47.6107 21.7882
866 2 39.7155 47.7749 21.926
867 2 43.4878 47.6605 21.9115
868 2 47.3672 47.547 21.8033
869 2 51.5161 47.6973 21.628
870 2 55.2003 47.4705 21.6561
871 2 59.1707 51.3526 21.7225
872 2 3.8203 51.3135 21.8451
873 2 7.72985 51.4524 21.879
874 2 11.6804 51.6724 21.6502
875 2 15.783 51.4614 21.5145
876 2 19.7663 51.4746 21.7712
877 2 23.8089 51.4094 21.8147
878 2 27.5723 51.6833 21.6706
879 2 31.6096 51.5765 21.7735
880 2 35.4825 51.493 21.7783
881 2 39.4805 51.5864 21.853
882 2 43.5443 51.5723 21.6405
883 2 47.4738 51.624 21.7562
884 2 51.3169 51.5537 21.4976
885 2 55.3057 51.5649 21.695
886 2 59.4483 55.3738 21.7409
887 2 3.77521 55.5527 21.8596
888 2 7.93899 55.408 21.8511
889 2 11.9399 55.5681 21.9256
890 2 15.8706 55.7291 21.7688
891 2 19.7254 55.4106 21.6286
892 2 23.7228 55.5325 21.6148
893 2 27.7084 55.4663 21.8287
894 2 31.5343 55.5778 21.862
895 2 35.5289 55.5617 21.7564
896 2 39.5798 55.5563 21.8611
897 2 43.7187 55.5347 21.8237
898 2 47.588 55.6448 21.8078
899 2 51.3896 55.7094 21.6264
900 2 55.4243 55.5845 21.8371
901 2 59.3346 0.219347 25.8361
902 2 4.02951 59.5047 25.6456
903 2 7.60464 -0.0613635 25.6634
904 2 11.5834 0.166203 25.5797
905 2 15.898 59.463 25.7787
906 2 19.9209 -0.0581478 25.7333
907 2 23.7947 -0.0072666 25.7937
908 2 27.7642 0.0385199 25.7728
909 2 31.6559 59.3572 25.7767
910 2 35.6187 0.12141 25.77
911 2 39.4971 0.0948866 25.7334
912 2 43.6091 0.116802 25.8177
913 2 47.46 0.0279571 25.8443
914 2 51.5819 0.0741391 25.6128
915 2 55.2904 59.4774 25.7183
916 2 59.2007 4.10304 25.8402
917 2 3.88704 4.00885 25.7951
918 2 7.92583 4.07302 25.5583
919 2 11.5792 4.00662 25.7293
920 2 15.7348 3.92063 25.8006
921 2 19.6857 4.13276 25.7363
922 2 23.7726 4.18445 25.7595
923 2 27.4443 4.10229 25.6613
924 2 31.5326 3.96319 25.7204
925 2 35.5485 3.99428 25.6718
926 2 39.4842 4.12863 25.6307
927 2 43.4187 3.99137 25.9877
928 2 47.3016 3.90921 25.703
929 2 51.4085 4.37662 25.7119
930 2 55.4337 3.9543 25.8469
931 2 59.2829 8.11234 25.8026
932 2 3.91176 7.94157 25.6842
933 2 7.71399 7.95883 25.8751
934 2 11.7098 8.11645 25.6985
935 2 15.7849 7.91975 25.9586
936 2 19.8868 8.10174 25.7382
937 2 23.8314 7.99038 25.8115
938 2 27.5145 7.8726 25.7148
939 2 31.4873 7.81657 25.8122
940 2 35.513 8.14055 25.832
941 2 39.6158 8.06593 25.9425
942 2 43.5329 7.70131 25.6803
943 2 47.6144 7.84664 25.776
944 2 51.4663 8.0192 25.8363
945 2 55.6029 7.91302 25.8286
946 2 59.335 12.0699 25.8047
947 2 3.90231 11.9887 25.8701
948 2 7.98786 12.2714 25.6432
949 2 11.8393 12.0673 25.644
950 2 15.8924 11.932 25.7355
951 2 19.8743 11.9764 25.7027
952 2 23.7721 11.9296 25.7881
953 2 27.7432 11.7802 25.8093
954 2 31.4889 11.9366 25.7536
955 2 35.6097 12.1519 25.6202
956 2 39.4204 12.0414 25.6912
957 2 43.4351 11.7863 25.765
958 2 47.3816 11.8803 25.7479
959 2 51.3835 11.733 25.5586
960 2 55.3436 12.0238 25.8609
961 2 59.1679 15.9566 25.782
962 2 3.86649 15.9131 25.8247
963 2 7.84732 15.9776 25.7605
964 2 11.6297 15.9925 25.6286
965 2 15.8466 15.9387 25.8183
966 2 19.857 15.8366 25.9473
967 2 23.8283 15.802 25.7349
968 2 27.5674 16.0522 25.846
969 2 31.6004 15.9958 25.8323
970 2 35.6778 16.0189 25.7353
971 2 39.5732 15.9058 25.7261
972 2 43.3925 16.0452 25.594
973 2 47.6076 15.8151 25.97
974 2 51.4337 15.816 25.9932
975 2 55.4575 16.0355 25.7337
976 2 59.0793 20.1559 25.7894
977 2 4.00538 19.9155 25.806
978 2 7.92337 19.9191 25.7541
979 2 11.739 19.956 25.791
980 2 15.7535 20.0677 25.6343
981 2 19.6167 19.7642 25.8702
982 2 23.5786 19.98 25.7347
983 2 27.5675 19.8326 25.9027
984 2 31.3601 19.8693 25.7389
985 2 35.5846 19.7677 25.7352
986 2 39.5222 19.9835 25.6464
987 2 43.4783 19.6273 25.8193
988 2 47.3496 19.8245 25.8241
989 2 51.3423 19.9487 25.9051
990 2 55.3026 20.0158 25.7349
991 2 59.4382 23.7625 25.8628
992 2 3.83902 23.8702 25.8011
993 2 7.92566 24.0083 25.7875
994 2 11.9157 23.7998 25.8119
995 2 15.8502 23.9188 25.9324
996 2 19.7364 23.8479 25.8311
997 2 23.6535 23.9453 25.8946
998 2 27.5699 23.8264 25.7923