ITEM: TIMESTEP
1516600
ITEM: NUMBER OF ATOMS
16875
ITEM: BOX BOUNDS xy xz yz pp pp pp
0.0000000000000000e+00 5.9369999999999997e+01 0.0000000000000000e+00
0.0000000000000000e+00 5.9369999999999997e+01 0.0000000000000000e+00
3.4113733704451832e-01 6.0025281662958051e+01 0.0000000000000000e+00
ITEM: ATOMS id type x y z
1 2 0.113772 -0.000991321 9.87323
2 2 4.14654 -0.113734 9.83458
3 2 8.12855 59.3729 9.89139
4 2 12.0369 0.0908256 10.0529
5 2 16.0622 59.3336 9.86605
6 2 19.9583 -0.0969667 9.95722
7 2 23.8737 59.4847 9.96818
8 2 27.9543 -0.0793986 9.82084
9 2 31.781 -0.0476938 9.75808
10 2 35.8463 59.2696 9.76491
11 2 39.6596 59.4273 9.60849
12 2 43.6221 59.5488 9.74878
13 2 47.6971 59.3686 9.8763
14 2 51.5336 59.3484 9.99325
15 2 55.6468 59.2432 9.7835
16 2 0.189974 3.94068 9.87272
17 2 3.91728 3.96144 9.84842
18 2 7.98339 4.05433 9.89937
19 2 11.9097 3.98813 9.80023
20 2 15.995 4.10708 10.0039
21 2 19.9437 4.00518 9.86085
22 2 23.9852 4.14707 9.80125
23 2 27.8304 3.8326 9.81093
24 2 31.7798 3.79007 9.91719
25 2 35.8335 3.85613 9.73639
26 2 39.6358 3.90675 9.84819
27 2 43.5677 3.91312 9.76264
28 2 47.5175 4.01211 9.98794
29 2 51.552 3.80538 10.0001
30 2 55.5745 3.90339 9.89184
31 2 0.119082 7.82128 9.93175
32 2 4.02966 7.94347 10.003
33 2 8.0684 7.69969 9.70839
34 2 11.9343 8.0904 9.92426
35 2 15.9417 7.95265 9.97964
36 2 20.0013 7.90382 10.0097
37 2 24.0608 7.85979 9.99692
38 2 27.8173 7.96085 9.79795
39 2 32.0478 7.95385 9.64086
40 2 35.6448 7.72074 9.855
41 2 39.7095 7.88756 9.94345
42 2 43.5751 8.06878 9.78171
43 2 47.5033 7.88611 9.8322
44 2 51.6393 7.88995 9.92546
45 2 55.4503 8.07417 9.91265
46 2 0.0213736 11.7744 9.93501
47 2 4.17662 11.8411 9.99099
48 2 8.03751 11.7488 10.0129
49 2 11.9292 11.8329 10.2016
50 2 15.9107 11.8941 9.95497
51 2 19.9443 11.6993 10.0082
52 2 23.9938 11.8908 9.84185
53 2 28.0171 11.7099 9.7855
54 2 31.8379 11.988 9.72933
55 2 35.8273 11.6527 9.76778
56 2 39.751 11.6398 9.79895
57 2 43.6718 11.8398 9.97372
58 2 47.7278 11.7395 9.67139
59 2 51.5303 11.8898 9.98277
60 2 55.4217 11.8732 9.90186
61 2 0.13194 15.6758 9.9367
62 2 3.9336 15.7053 9.88378
63 2 7.95476 15.9276 9.92683
64 2 11.9033 15.5712 9.81866
65 2 15.9402 15.8092 10.1085
66 2 19.9132 15.6998 9.88499
67 2 23.882 15.8358 9.85321
68 2 27.7938 15.7851 9.82448
69 2 31.8752 15.8651 9.99924
70 2 35.5662 15.8291 9.88847
71 2 39.8961 15.8034 9.80613
72 2 43.5673 15.8883 9.92337
73 2 47.5656 15.8674 9.9002
74 2 51.4426 15.8574 9.98085
75 2 55.4643 15.8492 9.96755
76 2 -0.0184916 19.4256 9.9821
77 2 4.1119 19.862 9.94817
78 2 8.07382 19.8598 9.79954
79 2 12.0814 19.551 9.92762
80 2 15.9367 19.7155 10.0696
81 2 19.9967 19.5952 9.86793
82 2 23.9526 19.91 10.015
83 2 27.8847 19.8498 9.91295
84 2 31.9823 19.6512 10.0651
85 2 35.8515 19.7684 9.80558
86 2 39.7393 19.8756 10.0924
87 2 43.5542 19.8201 9.90031
88 2 47.4672 19.7366 9.86827
89 2 51.6279 19.605 9.90017
90 2 55.3793 19.7524 9.89953
91 2 0.0952215 23.7552 9.99518
92 2 4.19179 23.8043 9.98299
93 2 8.12885 23.605 9.86634
94 2 12.0342 23.5146 9.83813
95 2 15.9445 23.8974 9.90945
96 2 20.0131 23.6453 10.0807
97 2 24.0451 23.794 9.84264
98 2 28.004 23.7731 9.91902
99 2 31.9629 23.7596 9.97979
100 2 35.7268 23.6443 9.88008
101 2 39.7424 23.6399 9.7862
102 2 43.7227 23.7398 9.74815
103 2 47.6943 23.7317 9.8192
104 2 51.6001 23.5634 9.90135
105 2 55.4422 23.5843 9.96365
106 2 -0.0245321 27.6636 10.021
107 2 4.04083 27.9052 9.92954
108 2 8.01024 27.5877 10.1053
109 2 11.9855 27.6652 10.0661
110 2 16.0299 27.5487 9.98084
111 2 20.0002 27.4594 9.98927
112 2 23.8083 27.6545 9.83389
113 2 27.929 27.7006 9.97288
114 2 31.7076 27.748 9.90129
115 2 35.7005 27.696 9.90065
116 2 39.649 27.7781 9.93776
117 2 43.7369 27.8233 9.96105
118 2 47.6749 27.6819 9.8831
119 2 51.6226 27.5371 9.91041
120 2 55.5717 27.5883 9.97209
121 2 59.4172 31.5518 9.79753
122 2 4.13515 31.7093 10.0636
123 2 7.98285 31.5552 9.90461
124 2 11.9904 31.633 10.0432
125 2 16.1128 31.6942 10.0987
126 2 20.0133 31.4682 9.97816
127 2 23.8883 31.6655 10.0045
128 2 27.8744 31.4253 9.89058
129 2 31.7123 31.5969 9.74897
130 2 35.8009 31.521 10.0225
131 2 39.6523 31.4824 9.92499
132 2 43.6708 31.7098 9.9076
133 2 47.6686 31.5517 9.94048
134 2 51.6661 31.6937 9.69316
135 2 55.6513 31.6037 9.8745
136 2 0.0180139 35.5059 9.93006
137 2 3.99751 35.5812 9.71689
138 2 7.96352 35.5172 10.0965
139 2 11.9452 35.3613 10.0087
140 2 16.0445 35.6708 9.95172
141 2 19.8946 35.7148 9.93238
142 2 23.8232 35.6111 9.98586
143 2 28.014 35.4422 9.91471
144 2 31.7661 35.5187 10.0006
145 2 35.7366 35.6325 9.94924
146 2 39.8251 35.4193 9.96584
147 2 43.8497 35.3911 10.0824
148 2 47.6109 35.4566 9.86606
149 2 51.6634 35.4159 10.0238
150 2 55.6125 35.5174 9.92193
151 2 0.185725 39.4725 9.64473
152 2 4.11787 39.6488 9.82769
153 2 7.96747 39.6909 9.71213
154 2 12.0249 39.316 9.9459
155 2 15.8636 39.4316 9.86586
156 2 19.9428 39.457 9.80545
157 2 23.8046 39.5601 9.98808
158 2 27.7335 39.6022 10.0311
159 2 31.7084 39.4272 10.0735
160 2 35.7509 39.59 9.93136
161 2 39.8884 39.3428 9.89896
162 2 43.8297 39.4812 9.91109
163 2 47.6203 39.4403 9.9843
164 2 51.5755 39.5329 9.83704
165 2 55.5935 39.4212 9.9439
166 2 0.113982 43.335 9.98487
167 2 4.165 43.6238 9.91119
168 2 7.9077 43.5744 9.75159
169 2 11.8225 43.3913 10.0251
170 2 15.8491 43.4691 9.84008
171 2 19.9335 43.5579 10.0308
172 2 23.7142 43.4804 9.86615
173 2 27.7013 43.5658 9.92381
174 2 31.7019 43.6067 10.1231
175 2 35.6711 43.4599 10.0378
176 2 39.8079 43.3593 9.85634
177 2 43.8609 43.3179 9.87673
178 2 47.7197 43.481 9.85801
179 2 51.683 43.5222 9.7169
180 2 55.5506 43.4508 9.82314
181 2 59.4299 47.2279 9.76093
182 2 3.96568 47.4813 9.95271
183 2 7.9115 47.4398 9.90042
184 2 12.0928 47.5013 9.79525
185 2 15.7848 47.4187 9.86198
186 2 19.9542 47.4761 9.9798
187 2 23.8363 47.5049 9.98412
188 2 27.7241 47.3851 10.0009
189 2 31.7582 47.3488 10.0823
190 2 35.7391 47.2605 10.1071
191 2 39.6864 47.463 9.86545
192 2 43.6537 47.4974 9.97466
193 2 47.4835 47.4027 9.94203
194 2 51.551 47.5177 9.93154
195 2 55.7173 47.3694 9.72035
196 2 59.5278 51.3539 9.86546
197 2 4.23057 51.392 9.78235
198 2 8.0559 51.4523 9.82594
199 2 12.1598 51.6159 9.85819
200 2 16.206 51.3918 9.90561
201 2 19.9093 51.5782 9.81643
202 2 23.8212 51.6571 9.74102
203 2 27.8124 51.4087 9.88769
204 2 31.8706 51.232 10.0257
205 2 35.7918 51.2684 9.95221
206 2 39.5179 51.4636 10.0387
207 2 43.6084 51.5628 9.89217
208 2 47.7202 51.5411 9.94401
209 2 51.6766 51.3314 9.76339
210 2 55.4621 51.3509 9.87195
211 2 0.0450276 55.4323 10.0291
212 2 4.21788 55.3828 9.99762
213 2 8.1823 55.2979 9.92978
214 2 12.0545 55.4258 9.99623
215 2 15.8945 55.3869 9.75783
216 2 19.9144 55.591 9.83544
217 2 23.9335 55.5696 9.91759
218 2 27.7902 55.3209 9.96279
219 2 32.1536 55.4525 9.86935
220 2 35.9602 55.4048 9.87084
221 2 39.7134 55.2271 10.0141
222 2 43.7004 55.4499 9.84266
223 2 47.5272 55.5271 9.79869
224 2 51.7126 55.4129 9.9041
225 2 55.7096 55.3969 9.85436
226 2 59.32 59.3886 13.9717
227 2 4.17589 -0.00364293 13.7242
228 2 8.04791 0.00846672 13.9424
229 2 12.0625 0.0256892 13.8709
230 2 15.8406 0.324526 13.7862
231 2 19.9759 59.4851 13.888
232 2 24.0523 0.0258276 13.8434
233 2 27.7875 0.0854368 14.0028
234 2 31.7931 0.230222 13.5881
235 2 35.7038 0.0782526 14.026
236 2 39.8655 -0.0318086 13.8266
237 2 43.7172 0.17682 13.824
238 2 47.7473 59.2377 13.7956
239 2 51.5095 59.4761 13.8296
240 2 55.5214 0.119433 13.8992
241 2 0.121599 4.0999 13.7976
242 2 4.0367 3.64534 13.9049
243 2 8.0598 3.96196 13.762
244 2 11.8733 3.9272 13.7833
245 2 16.0197 4.15436 13.8498
246 2 19.9919 3.96808 13.8445
247 2 24.0901 3.96831 13.7739
248 2 27.98 4.04942 13.7037
249 2 31.7715 4.1794 13.8336
250 2 35.6605 3.82221 13.9423
251 2 39.6579 3.90027 13.8833
252 2 43.6669 4.10536 13.9587
253 2 47.5329 4.10325 14.0265
254 2 51.6112 4.04664 13.8382
255 2 55.5876 4.14767 13.7765
256 2 0.0649776 7.93268 13.7412
257 2 4.0266 7.77904 14.0392
258 2 7.88758 7.88561 14.0226
259 2 11.9685 7.95297 13.8395
260 2 15.9599 8.05123 14.026
261 2 20.0697 7.99353 13.8972
262 2 23.9391 7.73943 13.8996
263 2 27.8777 7.9729 14.0031
264 2 31.6996 8.04705 13.7497
265 2 35.7215 7.92213 14.0354
266 2 39.7918 7.82392 13.9036
267 2 43.6263 8.08091 13.7484
268 2 47.5823 7.85187 13.9782
269 2 51.6424 7.92165 13.8194
270 2 55.5353 7.91969 13.9124
271 2 0.00617905 11.9228 13.9192
272 2 4.06388 11.9987 13.9616
273 2 8.05225 11.9321 13.9886
274 2 11.9754 12.0038 13.6812
275 2 16.0762 11.9558 14.0568
276 2 20.102 11.992 13.9857
277 2 24.0131 11.9739 13.9596
278 2 27.9713 11.757 13.7617
279 2 31.8601 11.723 13.8038
280 2 35.8149 11.8399 13.8199
281 2 39.6374 11.7144 13.713
282 2 43.8937 11.7752 13.8981
283 2 47.8306 11.8307 13.724
284 2 51.6354 11.8407 13.9579
285 2 55.5785 12.048 13.865
286 2 -0.00416002 15.8544 13.8083
287 2 4.1373 15.7645 13.8451
288 2 8.11689 15.9171 13.917
289 2 12.1524 15.8073 13.9615
290 2 16.1348 15.7382 13.9342
291 2 19.9392 15.9567 13.9182
292 2 23.9541 15.9819 13.9597
293 2 28.0285 15.6428 13.9063
294 2 31.9425 15.7778 13.9086
295 2 35.6911 15.7212 13.8261
296 2 39.7029 15.6793 13.8442
297 2 43.5842 15.6933 13.9941
298 2 47.6583 15.8749 13.826
299 2 51.6126 15.4431 13.8732
300 2 55.498 15.9004 13.9407
301 2 0.144439 20.0303 13.7903
302 2 3.85291 19.6544 13.8579
303 2 7.95237 19.7858 13.8978
304 2 11.9491 19.5768 14.0769
305 2 16.0245 20.0397 13.9358
306 2 19.9751 19.623 13.9337
307 2 23.9729 19.9162 13.9107
308 2 27.9382 19.5889 13.8577
309 2 31.9198 19.7613 13.9971
310 2 35.6878 19.6901 13.871
311 2 39.5664 19.7561 13.8273
312 2 43.6019 19.5825 13.8042
313 2 47.5926 19.7887 14.0118
314 2 51.5794 19.755 13.9413
315 2 55.4623 19.7583 14.0259
316 2 0.095223 23.9781 13.828
317 2 4.29274 23.5143 13.7742
318 2 8.14791 23.8633 13.9022
319 2 11.8183 23.7534 13.9266
320 2 15.7863 23.5629 13.9463
321 2 19.7971 23.5898 13.7913
322 2 23.7987 23.7939 13.7847
323 2 27.8543 23.7154 13.8732
324 2 31.8967 23.4328 13.8574
325 2 35.7484 23.8778 13.6739
326 2 39.7864 23.6822 13.7939
327 2 43.5431 23.7007 13.9914
328 2 47.4571 23.8304 13.9027
329 2 51.4948 23.6362 13.8502
330 2 55.5593 23.5889 13.8467
331 2 59.3698 27.7939 13.758
332 2 3.98271 27.7616 13.897
333 2 8.09172 27.7116 13.8569
334 2 11.9641 27.7745 13.9209
335 2 15.9303 27.6495 13.8741
336 2 19.9249 27.6225 13.8907
337 2 23.8518 27.6472 14.1441
338 2 27.8408 27.5353 13.995
339 2 31.7379 27.8366 13.9232
340 2 35.8773 27.6963 14.0359
341 2 39.7052 27.7277 13.9749
342 2 43.5421 27.6166 13.9902
343 2 47.6767 27.9153 13.8569
344 2 51.7477 27.5337 13.7198
345 2 55.4899 27.639 13.8824
346 2 0.302756 31.5198 13.8752
347 2 4.06235 31.6775 13.9771
348 2 8.24208 31.6682 13.9331
349 2 12.0553 31.7667 13.9992
350 2 15.9087 31.5342 13.8624
351 2 19.9403 31.4509 13.8835
352 2 24.0092 31.6133 13.7379
353 2 27.885 31.7336 14.0112
354 2 31.8133 31.6534 13.9733
355 2 35.9806 31.8687 13.9434
356 2 39.7632 31.788 14.045
357 2 43.7813 31.6783 14.0594
358 2 47.7325 31.6117 13.9906
359 2 51.7501 31.4717 13.8661
360 2 55.4166 31.6032 13.9107
361 2 0.232852 35.6724 13.6943
362 2 3.86419 35.6406 13.6903
363 2 8.06983 35.5545 13.9228
364 2 11.9215 35.9042 13.7679
365 2 15.9345 35.6906 14.0028
366 2 19.867 35.4895 13.899
367 2 23.798 35.4891 13.8151
368 2 28.0093 35.4 13.8696
369 2 31.8635 35.6569 13.8411
370 2 35.9045 35.6881 13.9393
371 2 39.6296 35.6433 13.9755
372 2 43.4693 35.5298 13.9449
373 2 47.6238 35.5189 13.7622
374 2 51.5497 35.6131 13.8244
375 2 55.6443 35.6667 14.014
376 2 0.105827 39.5834 13.8604
377 2 4.05193 39.5981 13.8879
378 2 7.97359 39.4453 13.909
379 2 11.7671 39.7146 13.9004
380 2 15.8188 39.6306 13.9954
381 2 19.8615 39.6438 14.13
382 2 23.8045 39.4661 13.9802
383 2 27.8203 39.601 13.9221
384 2 31.9605 39.6606 13.9095
385 2 35.814 39.5374 14.0018
386 2 39.7767 39.5613 13.9511
387 2 43.6592 39.6132 13.9872
388 2 47.7984 39.5819 13.8466
389 2 51.6064 39.6502 13.8841
390 2 55.5728 39.5425 14.0184
391 2 0.124601 43.6626 13.9072
392 2 4.01144 43.5731 13.7533
393 2 8.0463 43.6603 13.8761
394 2 11.94 43.507 13.9374
395 2 15.8507 43.6075 13.7134
396 2 19.9479 43.4206 13.9441
397 2 23.7924 43.5083 14.0029
398 2 27.7673 43.5273 13.9635
399 2 31.8122 43.5378 14.0272
400 2 35.8503 43.5491 13.9642
401 2 39.8052 43.4455 13.9013
402 2 43.7134 43.5088 13.8888
403 2 47.7607 43.634 13.8511
404 2 51.7468 43.5251 13.7326
405 2 55.6818 43.3258 13.8107
406 2 59.3987 47.4042 14.0216
407 2 3.94228 47.5244 13.93
408 2 7.96467 47.5243 13.8863
409 2 11.9108 47.5339 13.8668
410 2 15.8966 47.6879 13.9102
411 2 19.8494 47.452 13.8097
412 2 23.8868 47.5647 14.0405
413 2 27.7055 47.5294 14.1093
414 2 31.7627 47.6623 13.8594
415 2 35.7457 47.4394 14.0988
416 2 39.663 47.5049 13.8944
417 2 43.5976 47.5804 14.0893
418 2 47.6658 47.4687 13.6362
419 2 51.5158 47.4787 13.8417
420 2 55.4457 47.4983 13.8227
421 2 0.226513 51.5337 13.9541
422 2 4.11463 51.3198 13.9145
423 2 8.06416 51.2419 13.7717
424 2 12.1338 51.3622 13.7036
425 2 16.0819 51.5776 13.59
426 2 19.9854 51.5434 13.758
427 2 23.8494 51.4207 13.707
428 2 27.9363 51.6091 13.5835
429 2 31.989 51.6763 13.7813
430 2 35.7549 51.4636 13.9927
431 2 39.5231 51.4813 13.7203
432 2 43.8848 51.4493 13.7777
433 2 47.7375 51.3561 13.7913
434 2 51.7907 51.3928 13.7505
435 2 55.6731 51.4028 13.6804
436 2 0.161972 55.4749 13.8479
437 2 3.92162 55.4265 13.9936
438 2 7.93349 55.3534 13.8715
439 2 11.8986 55.4684 14.0213
440 2 16.1857 55.3993 13.8991
441 2 19.854 55.4238 13.8456
442 2 23.9508 55.2893 13.7061
443 2 28.0438 55.4211 13.7725
444 2 31.9213 55.4528 13.7389
445 2 35.7625 55.5943 13.7091
446 2 39.8814 55.575 13.8255
447 2 43.7412 55.6216 13.7847
448 2 47.7245 55.3477 13.5852
449 2 51.7295 55.4936 13.6958
450 2 55.5736 55.4258 13.8121
451 2 59.5874 -0.0424056 17.8346
452 2 4.08958 59.3105 17.7643
453 2 8.11616 0.0206941 17.8719
454 2 12.0864 0.140995 17.7809
455 2 15.7378 59.5423 17.78
456 2 20.013 -0.0566102 17.8729
457 2 23.9538 59.5843 18.0676
458 2 27.9484 0.048395 17.7125
459 2 31.7902 0.0307004 17.945
460 2 35.9335 0.0397481 17.8404
461 2 39.7042 0.0543773 17.8403
462 2 43.8384 0.0334356 17.7992
463 2 47.6387 -0.118593 17.7741
464 2 51.459 0.0236919 17.7562
465 2 55.6873 0.0678397 17.8691
466 2 0.173572 4.02893 17.9294
467 2 4.14793 4.02697 17.8648
468 2 8.25501 3.91547 17.9791
469 2 12.1162 4.0879 17.7369
470 2 16.0179 4.08834 17.875
471 2 19.7024 4.008 17.8517
472 2 24.0354 3.80767 18.0006
473 2 27.8915 4.06646 17.8458
474 2 31.8164 4.29616 17.7904
475 2 35.6204 3.8026 17.8154
476 2 39.5886 4.09574 17.6841
477 2 43.8383 3.93877 17.758
478 2 47.6992 3.96239 17.8502
479 2 51.5275 3.60891 17.8309
480 2 55.5298 4.09038 17.7764
481 2 59.4065 8.09093 17.7898
482 2 4.18116 8.04642 17.9721
483 2 8.08231 8.04192 17.8981
484 2 12.0737 8.02498 17.8759
485 2 15.981 8.04705 17.8949
486 2 19.979 7.97836 17.6737
487 2 24.0166 7.89586 17.7365
488 2 27.8842 8.038 17.9726
489 2 31.8571 8.06195 17.9524
490 2 35.7618 7.95162 17.9377
491 2 39.6528 8.04764 17.8556
492 2 43.5027 7.95515 17.9841
493 2 47.6892 7.97968 17.8403
494 2 51.4679 7.82678 17.9623
495 2 55.4221 7.91108 18.0181
496 2 59.5881 11.9531 17.784
497 2 4.10734 11.9532 17.8979
498 2 8.12474 12.1862 17.842
499 2 11.9128 11.9506 17.7144
500 2 15.9148 11.9691 17.9434
501 2 20.0111 11.6777 17.9321
502 2 23.9646 11.9046 17.7616
503 2 27.982 11.8289 17.7585
504 2 31.895 11.7521 17.9044
505 2 35.7171 12.0507 17.8551
506 2 39.7363 11.8369 17.8989
507 2 43.604 12.066 17.8304
508 2 47.44 12.1206 17.7658
509 2 51.4061 11.9095 17.8995
510 2 55.4604 11.854 17.9185
511 2 59.5108 15.9456 17.7781
512 2 3.99384 16.0647 17.8469
513 2 8.10323 15.8022 18.0292
514 2 11.9128 15.8924 18.0745
515 2 16.0125 15.7502 17.913
516 2 20.0706 15.9355 18.0257
517 2 24.0919 15.7509 17.8818
518 2 28.0409 15.8545 17.9262
519 2 31.9037 16.0148 17.7013
520 2 35.7082 15.9097 17.8522
521 2 39.5414 15.6919 17.966
522 2 43.7855 15.9375 17.8795
523 2 47.6211 15.9582 17.8765
524 2 51.7274 15.7777 17.9347
525 2 55.6172 15.8095 17.944
526 2 59.4072 19.8112 17.8039
527 2 4.02684 19.7724 17.7955
528 2 7.9554 19.8422 17.9664
529 2 11.9591 19.7923 18.0427
530 2 15.9293 20.0574 17.9224
531 2 20.0086 19.8779 17.8421
532 2 23.8975 19.7488 17.8609
533 2 27.7589 19.7454 17.7098
534 2 31.6801 19.7925 17.8003
535 2 35.875 19.7066 17.8846
536 2 39.5203 19.7219 17.8807
537 2 43.561 19.9158 17.9655
538 2 47.606 19.9433 17.9109
539 2 51.6136 19.6651 18.0372
540 2 55.4118 19.7663 17.7321
541 2 0.0624212 23.8463 17.7861
542 2 3.8155 23.9065 17.8074
543 2 7.80413 23.7674 17.6817
544 2 11.9108 23.8805 18.0086
545 2 15.7902 23.809 17.8531
546 2 19.779 23.8052 18.0647
547 2 23.8998 23.9589 17.8736
548 2 27.8063 23.9315 17.935
549 2 31.8353 23.6079 17.7247
550 2 35.9401 23.6986 17.9321
551 2 39.5863 23.5109 17.8738
552 2 43.4144 23.6808 17.7666
553 2 47.5353 23.876 17.8668
554 2 51.5365 23.5844 18.0647
555 2 55.5146 23.6942 17.7953
556 2 59.3917 27.9397 17.83
557 2 3.90136 27.6902 18.0013
558 2 8.00368 27.9148 17.8524
559 2 12.0661 27.7199 17.738
560 2 15.8232 27.5301 17.8738
561 2 19.9833 27.8013 17.8077
562 2 24.0228 27.8818 17.8532
563 2 27.9319 27.5558 17.9166
564 2 31.8898 27.567 17.658
565 2 35.7536 27.8155 17.9703
566 2 39.775 27.6208 17.9285
567 2 43.7336 27.837 17.9158
568 2 47.5695 27.666 17.902
569 2 51.4765 27.8959 17.9314
570 2 55.5336 27.7413 17.7136
571 2 0.0512595 31.7838 17.8926
572 2 4.02209 31.7584 17.9317
573 2 7.84859 31.9103 17.9222
574 2 11.9326 31.8467 17.8798
575 2 16.0796 31.758 17.9765
576 2 19.9223 31.833 17.8439
577 2 23.6732 31.9462 18.0069
578 2 28.0493 31.4407 18.0538
579 2 31.9432 31.6079 17.7269
580 2 35.7462 31.5187 17.9711
581 2 39.5922 31.4254 18.0349
582 2 43.7701 31.7681 17.9916
583 2 47.856 31.4827 17.9428
584 2 51.3563 31.6874 17.8498
585 2 55.4415 31.804 17.8291
586 2 -0.119039 35.5072 17.8885
587 2 3.91527 35.6086 17.8452
588 2 7.99646 35.7425 17.8106
589 2 11.7389 35.8541 17.5951
590 2 15.9612 35.7411 17.7786
591 2 19.692 35.7882 17.8656
592 2 23.8149 35.5776 17.9409
593 2 28.017 35.5685 17.895
594 2 31.9007 35.7687 17.834
595 2 35.6421 35.7657 17.7642
596 2 39.8204 35.5391 17.8519
597 2 43.5397 35.584 17.741
598 2 47.3805 35.6326 17.8862
599 2 51.5251 35.5145 17.8172
600 2 55.4702 35.7279 17.7892
601 2 0.188672 39.4969 17.8092
602 2 3.82861 39.7283 17.8687
603 2 7.82551 39.5755 17.5155
604 2 11.8259 39.5555 17.8998
605 2 15.8077 39.5708 18.0958
606 2 19.7731 39.5695 18.0675
607 2 23.8575 39.6797 17.9506
608 2 27.845 39.411 17.8325
609 2 31.7419 39.8552 17.9239
610 2 35.739 39.8188 17.979
611 2 39.731 39.6685 17.8757
612 2 43.7679 39.6309 17.9764
613 2 47.6413 39.5777 17.9254
614 2 51.6293 39.6478 17.7683
615 2 55.4324 39.512 17.8631
616 2 -0.0404595 43.6145 17.8012
617 2 3.86378 43.6104 17.8474
618 2 7.91505 43.5845 17.8343
619 2 12.0247 43.4396 17.8216
620 2 15.8535 43.6573 17.8554
621 2 19.8045 43.5649 18.0153
622 2 23.7823 43.6072 17.8876
623 2 27.6958 43.6187 17.861
624 2 31.7164 43.9359 17.7077
625 2 35.6404 43.7362 17.8848
626 2 39.9054 43.6709 17.7737
627 2 43.691 43.6706 17.8598
628 2 47.58 43.8101 17.7443
629 2 51.4385 43.4705 17.7252
630 2 55.6872 43.4073 17.8376
631 2 -0.105631 47.6105 17.8648
632 2 3.94316 47.5158 17.8854
633 2 7.98313 47.5995 17.8283
634 2 12.1228 47.4922 17.7193
635 2 15.8638 47.5248 17.7203
636 2 19.8374 47.455 17.7797
637 2 23.7131 47.7092 17.8014
638 2 27.7737 47.405 17.9005
639 2 31.717 47.8477 17.9292
640 2 35.7613 47.5307 17.9336
641 2 39.7505 47.764 17.9003
642 2 43.8239 47.5256 17.8387
643 2 47.5655 47.6046 18.002
644 2 51.4979 47.5901 17.8934
645 2 55.2588 47.5271 17.8992
646 2 -0.114101 51.4256 17.8665
647 2 3.97489 51.4592 17.8055
648 2 7.85395 51.5678 17.8325
649 2 11.7715 51.4925 17.768
650 2 15.773 51.5313 17.8385
651 2 19.7276 51.2907 17.9769
652 2 23.8262 51.7438 17.7275
653 2 27.8263 51.4391 17.8634
654 2 31.8113 51.4332 17.9506
655 2 35.7055 51.6391 17.8909
656 2 39.9361 51.5755 17.6873
657 2 43.6828 51.5653 17.707
658 2 47.8506 51.5243 17.7642
659 2 51.6877 51.4297 17.8637
660 2 55.3886 51.7514 17.7744
661 2 0.0424232 55.4215 17.7202
662 2 3.9936 55.339 17.8885
663 2 7.98033 55.3428 17.9802
664 2 11.9764 55.4947 17.9012
665 2 15.9283 55.3714 17.5867
666 2 20.0206 55.5629 17.7517
667 2 23.9129 55.3262 17.7491
668 2 27.8555 55.4206 17.7847
669 2 31.8273 55.5779 17.5456
670 2 35.7432 55.6339 17.8175
671 2 39.795 55.6602 17.7763
672 2 43.8843 55.403 17.6551
673 2 47.4809 55.2788 17.7627
674 2 51.6624 55.5582 17.6713
675 2 55.3558 55.3801 17.7659
676 2 0.0111822 0.11425 21.936
677 2 3.93151 0.0904317 21.757
678 2 7.86053 0.196478 21.6248
679 2 12.049 0.10438 21.8086
680 2 15.6209 -0.0310741 21.7854
681 2 19.8497 -0.0737593 21.7804
682 2 23.7991 0.0947053 21.9019
683 2 27.8957 -0.012689 21.8616
684 2 31.7657 0.0250265 21.7961
685 2 35.776 -0.0628964 21.8482
686 2 39.8142 -0.0192528 21.6731
687 2 43.6693 0.121991 21.9377
688 2 47.5907 -0.0541945 21.6266
689 2 51.5182 59.3114 21.9824
690 2 55.5611 -0.0834792 22.0285
691 2 -0.116156 3.78828 21.7247
692 2 4.10833 4.01125 21.8613
693 2 8.12801 4.03349 21.8477
694 2 11.7464 3.98916 21.7403
695 2 15.8711 4.12107 21.8735
696 2 19.7765 3.89925 21.6842
697 2 23.7171 4.00686 21.8721
698 2 27.7114 4.14842 22.043
699 2 31.7295 3.88262 21.8966
700 2 35.6002 3.83459 21.8569
701 2 39.7717 3.87305 21.8398
702 2 43.4884 4.19235 21.7191
703 2 47.5782 4.08164 21.9178
704 2 51.6572 3.90146 21.7907
705 2 55.5667 4.0332 21.93
706 2 59.6 7.67599 21.7468
707 2 3.84375 8.03462 21.7019
708 2 7.85038 7.93904 21.8089
709 2 11.9032 8.06537 21.7899
710 2 16.0089 8.03094 21.8491
711 2 19.791 7.91625 21.5845
712 2 23.6905 7.92649 21.638
713 2 27.7783 8.18958 21.8748
714 2 31.7126 7.70475 21.9309
715 2 35.9292 7.83234 21.9846
716 2 39.6981 7.7833 21.7059
717 2 43.7888 7.93549 21.7195
718 2 47.5908 8.07118 21.7471
719 2 51.5111 7.8804 22.0004
720 2 55.383 8.01207 21.9528
721 2 -0.0161474 11.8483 21.8957
722 2 3.95451 12.1111 21.8933
723 2 7.88175 12.0502 21.7349
724 2 12.1311 11.9101 21.9166
725 2 16.0904 11.9673 21.854
726 2 19.8433 12.0011 21.8621
727 2 23.867 11.9747 21.88
728 2 27.7995 12.081 21.8603
729 2 31.8971 12.0283 21.8841
730 2 35.5652 11.9237 21.8901
731 2 39.6048 11.9473 21.9805
732 2 43.5704 11.8884 21.83
733 2 47.493 11.9281 21.7885
734 2 51.3933 11.92 21.8283
735 2 55.4154 11.9499 21.951
736 2 -0.0287392 15.8759 21.9171
737 2 3.92497 15.9891 21.7892
738 2 7.94996 15.8377 21.7796
739 2 11.9672 15.9231 21.8539
740 2 15.9573 16.0467 21.8375
741 2 19.6634 15.9012 21.8064
742 2 23.7116 15.9797 21.8477
743 2 27.7776 15.9224 21.8083
744 2 31.7213 15.8887 21.8387
745 2 35.5975 15.9503 21.8492
746 2 39.5499 15.9898 21.9207
747 2 43.5428 15.8999 21.8864
748 2 47.2777 16.0055 21.8735
749 2 51.2713 15.7477 21.8976
750 2 55.4809 15.8876 21.8635
751 2 59.3995 19.7389 21.7619
752 2 4.13847 19.8426 21.9752
753 2 7.77825 19.8156 22.0172
754 2 12.0068 19.9278 21.8308
755 2 15.8151 19.9986 21.9381
756 2 19.9247 19.8781 21.7962
757 2 23.7667 19.8747 21.7427
758 2 27.6839 19.9018 21.8862
759 2 31.7237 20.0022 21.8072
760 2 35.6402 19.7327 21.8217
761 2 39.8737 19.8564 21.9615
762 2 43.6962 19.9492 21.9433
763 2 47.4698 19.9381 21.8247
764 2 51.5441 19.9754 21.9273
765 2 55.4721 19.8139 21.9712
766 2 59.3339 23.9116 21.8235
767 2 4.00847 24.0117 21.9217
768 2 8.02398 23.8931 21.9932
769 2 11.8624 23.84 21.5262
770 2 15.8533 23.9438 21.9629
771 2 19.9079 23.8258 21.9248
772 2 23.7095 23.9714 21.9625
773 2 27.761 23.7094 21.7967
774 2 31.7574 23.578 21.8251
775 2 35.6474 23.8213 21.9578
776 2 39.6348 23.8502 21.8993
777 2 43.766 23.9377 21.7746
778 2 47.6018 23.8588 21.9592
779 2 51.709 23.8361 21.6043
780 2 55.6548 23.7676 21.7498
781 2 59.4527 27.9486 21.8979
782 2 4.04834 27.6089 21.8988
783 2 7.89977 27.9264 21.7475
784 2 12.0012 28.0535 21.8142
785 2 15.7697 27.9467 21.7239
786 2 19.733 27.7071 21.9665
787 2 23.9123 27.9416 21.8686
788 2 28.0255 27.65 21.8278
789 2 31.933 27.7372 21.783
790 2 35.673 27.8916 22.0171
791 2 39.4889 27.7277 22.0322
792 2 43.5932 27.8091 21.947
793 2 47.4951 27.8787 21.9357
794 2 51.607 27.7303 21.8727
795 2 55.4464 27.8181 21.8623
796 2 59.3384 31.7357 21.997
797 2 3.76787 31.6753 21.854
798 2 7.9659 31.7309 21.9821
799 2 11.938 31.9348 21.7503
800 2 15.9332 31.8509 21.7864
801 2 19.8312 31.6181 21.636
802 2 23.8506 31.5348 21.8555
803 2 27.9604 31.5395 21.9428
804 2 31.7854 31.7101 21.809
805 2 35.6397 31.7736 21.6961
806 2 39.5743 31.7632 22.022
807 2 43.5596 31.7429 21.8568
808 2 47.5997 31.7364 21.8545
809 2 51.4355 31.7566 21.7521
810 2 55.425 31.7978 21.8247
811 2 59.3662 35.8401 21.6499
812 2 4.01576 35.8366 21.9283
813 2 7.83857 35.8702 21.6989
814 2 11.828 35.7587 21.8081
815 2 15.5337 35.6451 21.8434
816 2 19.6761 35.5599 22.0259
817 2 23.7239 35.5044 22.0429
818 2 27.8253 35.5016 22.003
819 2 31.6448 35.8301 21.7895
820 2 35.6218 35.7965 21.7483
821 2 39.6694 35.7664 21.8388
822 2 43.503 35.8379 21.8803
823 2 47.5512 35.8284 21.8755
824 2 51.4165 35.6614 21.968
825 2 55.2537 35.6667 21.8267
826 2 -0.0530845 39.7558 21.8628
827 2 3.96477 39.5152 21.9463
828 2 7.96285 39.71 21.8659
829 2 11.8652 39.7921 21.808
830 2 15.7917 39.7778 21.922
831 2 19.877 39.7697 21.8651
832 2 23.7832 39.647 21.8777
833 2 27.7902 39.6331 21.7549
834 2 31.7616 39.8815 21.852
835 2 35.7849 39.6338 21.9366
836 2 39.5937 39.8917 21.8047
837 2 43.5462 39.537 21.7991
838 2 47.5602 39.5765 21.7489
839 2 51.5198 39.5385 21.8662
840 2 55.317 39.5488 21.7915
841 2 -0.132255 43.6138 21.9127
842 2 3.93518 43.5194 21.8153
843 2 7.9069 43.4988 21.6462
844 2 11.7478 43.659 21.8228
845 2 15.8094 43.8636 21.8369
846 2 19.7876 43.4373 21.8754
847 2 23.8098 43.6548 21.8473
848 2 27.6968 43.5642 21.8274
849 2 31.6424 43.6796 21.6491
850 2 35.7736 43.6937 21.7731
851 2 39.7827 43.8174 21.8648
852 2 43.49 43.6576 21.9274
853 2 47.363 43.6093 21.9659
854 2 51.4353 43.3748 21.8603
855 2 55.5864 43.4342 21.8107
856 2 59.4642 47.6913 21.7759
857 2 4.04169 47.3706 21.8382
858 2 8.14037 47.4782 21.5716
859 2 11.8781 47.4224 21.8816
860 2 15.7642 47.6355 21.6727
861 2 19.9283 47.7474 21.8732
862 2 23.6582 47.5527 21.7988
863 2 27.7104 47.5481 21.7016
864 2 31.6244 47.5643 21.8397
865 2 35.7471 47.6003 21.8362
866 2 39.594 47.8091 21.7642
867 2 43.5941 47.4941 21.8119
868 2 47.5746 47.4621 21.8318
869 2 51.579 47.5541 21.7646
870 2 55.4032 47.4133 21.8524
871 2 0.105386 51.4805 21.7876
872 2 3.85494 51.6152 21.8141
873 2 7.84345 51.3515 21.8746
874 2 11.8613 51.5925 21.7523
875 2 15.6575 51.5598 21.661
876 2 19.7797 51.5537 21.867
877 2 23.9279 51.5927 21.666
878 2 27.759 51.6842 21.8232
879 2 31.6261 51.5202 22.0269
880 2 35.7918 51.6735 21.6101
881 2 39.7057 51.5899 21.6604
882 2 43.5009 51.4015 21.9552
883 2 47.5834 51.5263 21.8452
884 2 51.6074 51.5895 21.7248
885 2 55.4476 51.6015 21.9306
886 2 0.092236 55.2985 21.6322
887 2 4.06676 55.7325 21.8759
888 2 8.02317 55.4783 22.0283
889 2 11.7747 55.6109 21.8986
890 2 16.0114 55.6234 21.8621
891 2 19.7837 55.3795 21.869
892 2 23.8661 55.4368 21.6553
893 2 28.0264 55.5189 21.853
894 2 31.9289 55.4852 21.6843
895 2 35.7459 55.4999 21.981
896 2 39.5886 55.6075 21.7408
897 2 43.6056 55.5893 21.9759
898 2 47.5634 55.3551 21.8815
899 2 51.4345 55.4869 21.7087
900 2 55.3905 55.6104 21.8046
901 2 59.4712 0.0771663 25.9718
902 2 3.86461 0.158518 25.7255
903 2 7.79467 -0.0279736 25.9172
904 2 11.9118 0.211949 25.6617
905 2 15.6982 0.0604023 25.9613
906 2 19.6849 0.156761 25.6201
907 2 23.6943 -0.000220801 25.7729
908 2 27.7628 0.0341401 25.8104
909 2 31.8395 0.17046 25.7263
910 2 35.6204 0.029835 25.9996
911 2 39.7515 0.105385 25.9862
912 2 43.5316 0.143847 25.9462
913 2 47.2887 0.261287 25.6272
914 2 51.5615 0.182816 25.748
915 2 55.5028 -0.0714312 25.8081
916 2 0.0127707 4.06499 25.9593
917 2 4.13944 3.96985 25.8828
918 2 8.02613 4.04844 25.8028
919 2 11.8288 4.27808 25.782
920 2 15.777 4.14424 25.6776
921 2 19.7938 4.10793 25.922
922 2 23.7783 4.00327 25.8706
923 2 27.6404 4.02048 25.9066
924 2 31.6406 4.07037 25.901
925 2 35.699 4.11745 25.909
926 2 39.6668 3.93312 25.8397
927 2 43.7426 4.06491 25.924
928 2 47.5356 3.97275 26.0038
929 2 51.3931 3.87725 25.9321
930 2 55.4237 3.91752 25.8575
931 2 0.0466601 7.9706 25.9004
932 2 3.90119 8.0082 25.5834
933 2 7.88464 8.13152 25.863
934 2 11.7976 8.09627 25.7442
935 2 15.7366 7.9496 25.7404
936 2 19.8611 8.16292 25.7651
937 2 23.6038 8.00712 25.7434
938 2 27.6433 7.99348 25.9163
939 2 31.5508 7.87856 25.7962
940 2 35.7795 7.96418 25.9296
941 2 39.6704 8.18667 25.576
942 2 43.5238 7.91054 25.5727
943 2 47.4517 8.2457 25.7074
944 2 51.5632 8.03694 25.7883
945 2 55.4504 7.8528 25.6828
946 2 0.0217436 11.9879 25.8858
947 2 4.12521 12.1783 25.7185
948 2 7.83511 11.9669 25.8711
949 2 11.8726 11.9571 25.6899
950 2 15.9609 11.936 25.6329
951 2 19.8768 11.9774 25.8541
952 2 23.5855 11.9127 25.5431
953 2 27.688 11.9631 25.7762
954 2 31.5422 11.8989 26.0008
955 2 35.4817 11.8787 25.8342
956 2 39.8842 12.0278 25.9577
957 2 43.6658 11.9829 25.8569
958 2 47.5914 11.8178 25.9476
959 2 51.4549 12.0997 25.9159
960 2 55.5556 11.9223 25.8873
961 2 59.2866 15.9648 25.9537
962 2 3.89805 16.0288 25.9015
963 2 7.98213 15.9703 26.0379
964 2 11.8096 15.6723 25.733
965 2 15.7084 15.8475 25.6331
966 2 19.6665 15.9621 25.8256
967 2 23.7414 15.8141 25.7981
968 2 27.6082 15.9835 25.6074
969 2 31.6662 15.9476 25.8267
970 2 35.5195 15.8969 26.059
971 2 39.5693 15.8127 25.7527
972 2 43.6075 16.0041 25.8945
973 2 47.4686 16.0062 25.8938
974 2 51.4312 16.0736 25.7967
975 2 55.1935 15.913 25.8335
976 2 59.453 20.0102 25.9004
977 2 4.00111 20.007 25.8092
978 2 7.9376 19.9395 25.8965
979 2 11.9234 19.7514 25.926
980 2 15.8519 19.8784 26.0211
981 2 19.8412 20.0085 25.8172
982 2 23.6679 19.7948 25.5988
983 2 27.6693 20.059 25.88
984 2 31.6886 19.8163 25.8145
985 2 35.7528 19.8266 25.991
986 2 39.5065 19.9397 25.9676
987 2 43.5575 19.9505 25.8986
988 2 47.3979 19.9578 25.7653
989 2 51.2938 20.0313 25.7216
990 2 55.3764 19.8674 25.9202
991 2 59.6961 23.7765 25.8169
992 2 4.0573 23.8263 26.0569
993 2 7.96382 23.995 25.7484
994 2 11.9914 23.7768 25.9209
995 2 15.889 24.0552 25.7046
996 2 19.8309 23.8334 25.9436
997 2 23.7274 23.8613 25.8432