ITEM: TIMESTEP
1522000
ITEM: NUMBER OF ATOMS
16875
ITEM: BOX BOUNDS xy xz yz pp pp pp
0.0000000000000000e+00 5.9369999999999997e+01 0.0000000000000000e+00
0.0000000000000000e+00 5.9369999999999997e+01 0.0000000000000000e+00
3.5694481401803202e-01 6.0009474185984573e+01 0.0000000000000000e+00
ITEM: ATOMS id type x y z
1 2 0.130972 -0.12854 9.95703
2 2 4.03706 0.0202085 10.0644
3 2 7.90968 59.4186 10.1233
4 2 12.0967 -0.193641 9.82825
5 2 15.785 59.1776 10.0325
6 2 19.6953 -0.236117 10.0337
7 2 23.8906 59.4697 9.764
8 2 27.7593 -0.207236 9.9129
9 2 31.7565 -0.082597 9.87678
10 2 35.551 59.4315 9.83895
11 2 39.6886 59.4297 9.90533
12 2 43.6081 59.1843 9.83844
13 2 47.7332 59.4211 10.0678
14 2 51.4117 59.6237 9.98451
15 2 55.7082 59.18 10.0076
16 2 0.189111 4.05052 9.56429
17 2 3.88087 3.98893 10.0707
18 2 7.99755 3.89956 10.0381
19 2 12.1964 3.89015 9.91078
20 2 16.3154 3.98525 9.81139
21 2 20.0092 3.86975 9.90191
22 2 23.7306 4.0283 10.0637
23 2 27.7695 3.98312 9.93288
24 2 31.6147 4.04322 10.0805
25 2 35.5564 3.99095 10.0191
26 2 39.754 3.86995 9.82402
27 2 43.405 4.02222 9.92927
28 2 47.3724 3.72896 9.96193
29 2 51.5058 3.9128 9.8723
30 2 55.5578 3.68876 9.80921
31 2 0.108098 8.11337 9.84938
32 2 3.90171 7.9863 9.76951
33 2 8.09393 8.01781 10.0291
34 2 12.074 7.83901 10.1891
35 2 16.0041 7.93944 9.95146
36 2 19.922 7.79601 9.8932
37 2 23.8924 7.70195 9.9827
38 2 27.6849 7.92515 10.0751
39 2 31.6763 8.05964 9.90493
40 2 35.6987 7.9322 10.0708
41 2 39.6925 8.06507 9.91226
42 2 43.5756 7.9443 9.89168
43 2 47.5373 7.85602 9.99497
44 2 51.5025 7.85503 9.81733
45 2 55.5834 7.94135 9.73484
46 2 0.156098 12.0628 10.1246
47 2 4.13955 11.6942 9.86094
48 2 8.07478 11.9112 10.0426
49 2 12.0024 11.7968 10.1344
50 2 15.9486 11.7953 10.0423
51 2 19.9725 11.6967 9.73949
52 2 24.0493 11.7862 9.86611
53 2 27.8992 11.9623 9.92632
54 2 31.665 11.9001 9.97193
55 2 35.5215 11.8139 9.92335
56 2 39.6055 11.9737 10.0332
57 2 43.7729 11.7978 9.93577
58 2 47.5935 11.759 9.85577
59 2 51.6775 11.852 9.91733
60 2 55.6703 11.9579 9.86547
61 2 0.312424 15.9584 9.97616
62 2 4.24648 15.809 9.92096
63 2 7.9409 15.807 10.001
64 2 12.0149 15.7022 10.107
65 2 15.941 15.6298 10.0544
66 2 19.8622 15.6093 9.96527
67 2 24.0407 15.6897 10.0144
68 2 28.0363 15.9319 9.8659
69 2 31.7721 15.7077 9.75284
70 2 35.5559 15.9561 9.99091
71 2 39.5106 15.7019 10.0645
72 2 43.5886 15.817 9.93692
73 2 47.5677 15.7737 10.0068
74 2 51.6318 15.8255 9.91284
75 2 55.5582 15.9338 10.0872
76 2 -0.0576034 19.8176 9.99622
77 2 4.07516 19.8513 9.93146
78 2 8.27276 19.7296 9.75126
79 2 11.7926 19.483 10.0378
80 2 15.8856 19.7206 9.93944
81 2 19.6017 19.557 9.97176
82 2 23.893 19.6779 9.91948
83 2 27.7195 19.7224 9.81827
84 2 31.889 19.7982 9.97706
85 2 35.7373 19.7339 9.96174
86 2 39.6859 19.597 9.96229
87 2 43.5454 19.769 10.1657
88 2 47.3654 19.6065 9.94114
89 2 51.5269 19.7627 10.0751
90 2 55.5062 19.9274 10.0442
91 2 -0.0510343 23.743 9.82013
92 2 4.0118 23.7818 9.79728
93 2 7.9604 23.4562 9.80795
94 2 12.1276 23.5324 9.78756
95 2 15.8478 23.5362 9.839
96 2 19.9872 23.5546 9.90522
97 2 23.9278 23.6762 9.85051
98 2 27.8759 23.6475 9.84256
99 2 31.8033 23.7986 10.0397
100 2 35.6266 23.4992 9.91698
101 2 39.638 23.7298 9.79215
102 2 43.3554 23.7911 9.93903
103 2 47.5532 23.9808 9.8677
104 2 51.4424 23.559 9.94733
105 2 55.5187 23.761 9.96168
106 2 0.123273 27.8425 9.91614
107 2 4.07597 27.658 9.91564
108 2 8.2006 27.6575 9.99529
109 2 12.082 27.5226 9.99007
110 2 16.1421 27.5475 10.1251
111 2 20.0115 27.4747 10.0464
112 2 23.8259 27.6808 10.0905
113 2 27.8698 27.5699 9.83153
114 2 31.7954 27.7935 9.96406
115 2 35.7217 27.9326 10.0496
116 2 39.7295 27.7182 10.0408
117 2 43.7626 27.7995 9.95017
118 2 47.5996 27.7093 9.95136
119 2 51.517 27.6952 9.99119
120 2 55.494 27.5721 10.0799
121 2 59.5946 31.5519 9.98109
122 2 4.27525 31.5596 9.81006
123 2 7.88839 31.598 9.94329
124 2 12.0494 31.5618 9.82678
125 2 15.7649 31.5874 9.98016
126 2 20.0134 31.6685 10.0931
127 2 24.005 31.6296 9.96689
128 2 27.8298 31.4534 9.92978
129 2 31.6956 31.8796 9.89338
130 2 35.7325 31.8272 9.64157
131 2 39.5877 31.735 10.0226
132 2 43.7961 31.571 9.93259
133 2 47.6398 31.6907 10.0526
134 2 51.5625 31.6974 10.0154
135 2 55.4694 31.5147 9.96921
136 2 0.0966201 35.4488 9.84056
137 2 4.07422 35.5074 9.7962
138 2 8.03841 35.4598 9.83579
139 2 12.0764 35.475 9.99315
140 2 16.0842 35.5188 9.91275
141 2 19.8474 35.7194 9.93437
142 2 23.9148 35.4766 9.97848
143 2 27.8649 35.6534 9.74023
144 2 31.7824 35.7861 10.0589
145 2 35.531 35.5892 9.99679
146 2 39.8019 35.6298 9.94954
147 2 43.6522 35.4682 9.8714
148 2 47.6452 35.7869 10.0252
149 2 51.4574 35.6125 9.96961
150 2 55.6645 35.5804 9.98236
151 2 0.374039 39.4139 9.84044
152 2 4.08992 39.3983 9.87229
153 2 7.94131 39.4654 9.9146
154 2 11.7461 39.5522 9.83417
155 2 15.8107 39.3188 10.1019
156 2 19.9572 39.6469 9.76447
157 2 23.9673 39.2431 9.81547
158 2 27.931 39.5636 9.94024
159 2 31.7282 39.6402 9.77089
160 2 35.8754 39.4312 9.80637
161 2 39.6026 39.5163 9.95528
162 2 43.4959 39.746 9.93181
163 2 47.5462 39.6188 10.001
164 2 51.6014 39.5952 9.92119
165 2 55.6295 39.5419 10.0697
166 2 0.230629 43.3603 9.89322
167 2 4.34255 43.5201 9.76583
168 2 7.97392 43.3278 9.91699
169 2 12.1491 43.3772 9.92137
170 2 16.0685 43.3164 9.92352
171 2 19.9909 43.424 9.955
172 2 23.8586 43.4225 10.0595
173 2 27.927 43.5964 9.99217
174 2 31.8781 43.3409 10.0396
175 2 35.5877 43.3922 10.1428
176 2 39.7516 43.6145 9.89082
177 2 43.5188 43.4936 10.009
178 2 47.4077 43.6266 9.81257
179 2 51.7491 43.4214 9.91971
180 2 55.5223 43.5979 9.88382
181 2 59.5768 47.3361 9.89868
182 2 4.09787 47.6894 9.89823
183 2 8.09358 47.4038 9.8905
184 2 12.0497 47.3432 9.83428
185 2 16.2132 47.4761 9.92091
186 2 20.0684 47.3645 9.71601
187 2 23.9581 47.2562 9.94221
188 2 27.991 47.5686 9.94301
189 2 31.9617 47.6576 9.81436
190 2 35.8199 47.293 9.92611
191 2 39.6263 47.365 9.60647
192 2 43.6607 47.392 9.97593
193 2 47.6713 47.4234 9.86411
194 2 51.6149 47.5786 9.86405
195 2 55.7511 47.3602 9.95179
196 2 59.6154 51.3139 9.9115
197 2 4.07849 51.6144 9.89343
198 2 8.15876 51.4571 9.9103
199 2 12.2083 51.3586 9.81483
200 2 16.0719 51.4896 9.93783
201 2 19.9345 51.3078 9.9262
202 2 23.9126 51.5101 9.78725
203 2 27.7348 51.477 9.89266
204 2 31.815 51.4673 9.99969
205 2 35.6924 51.3374 10.0838
206 2 39.6674 51.3434 10.0341
207 2 43.6692 51.3637 9.69655
208 2 47.5197 51.2223 9.92789
209 2 51.5061 51.5118 10.0558
210 2 55.6344 51.2907 9.94967
211 2 0.139747 55.3331 9.87675
212 2 4.15166 55.4088 9.91624
213 2 8.11995 55.4031 10.0386
214 2 11.8644 55.2969 9.88365
215 2 16.0166 55.2882 9.99887
216 2 20.0198 55.5262 9.89931
217 2 24.0613 55.4338 9.92672
218 2 27.8268 55.2386 9.82177
219 2 31.794 55.3882 9.82993
220 2 35.6564 55.4926 9.77552
221 2 39.5998 55.3157 9.94737
222 2 43.5704 55.1433 9.96128
223 2 47.4928 55.2116 10.0143
224 2 51.579 55.3312 10.0442
225 2 55.6598 55.2482 9.95518
226 2 59.5858 59.6338 13.8421
227 2 3.88553 0.159907 13.9356
228 2 7.85806 0.0119473 13.7787
229 2 12.1689 -0.255715 13.9099
230 2 16.1126 0.0611664 14.0175
231 2 20.0018 59.2902 13.9916
232 2 24.0727 -0.107525 13.8956
233 2 27.9588 -0.0685893 13.9145
234 2 31.9045 0.140001 13.7861
235 2 35.9072 0.0610258 13.8256
236 2 39.6102 -0.209019 13.9386
237 2 43.5527 0.158169 13.7837
238 2 47.5577 59.4803 13.9173
239 2 51.8131 59.1718 13.7929
240 2 55.8137 -0.0684306 13.9802
241 2 0.166853 4.16829 13.6642
242 2 4.03475 4.09192 14.0322
243 2 8.14387 3.87744 13.9539
244 2 12.082 3.8541 13.9329
245 2 15.8588 3.98259 14.0486
246 2 19.922 3.87198 13.8911
247 2 23.9804 3.92834 13.9557
248 2 27.9215 3.91563 13.8483
249 2 31.6564 3.98326 13.8418
250 2 35.7864 3.93128 13.8788
251 2 39.5903 3.89588 13.8783
252 2 43.6484 3.99623 13.9263
253 2 47.6094 4.18407 13.9445
254 2 51.7337 3.89385 13.762
255 2 55.6162 4.05594 13.8722
256 2 -0.138607 7.99266 13.7136
257 2 3.92747 7.96797 13.9434
258 2 7.8635 7.90486 14.083
259 2 11.9866 7.78415 13.9984
260 2 16.0085 7.99993 14.0275
261 2 20.045 7.81286 13.9729
262 2 23.8853 7.88317 14.0039
263 2 27.6298 7.97366 14.0026
264 2 31.8311 7.87901 13.9501
265 2 35.8411 7.99657 14.0683
266 2 39.6998 7.96682 13.7774
267 2 43.4972 7.81785 13.9023
268 2 47.7355 7.95426 13.9821
269 2 51.6074 7.76276 13.8208
270 2 55.5441 8.07141 13.8112
271 2 -0.0910969 12.0716 13.8241
272 2 4.02705 11.9401 14.1407
273 2 8.03471 11.8569 13.8079
274 2 11.9576 11.8744 14.094
275 2 16.036 11.6699 14.1646
276 2 19.8897 11.924 13.8902
277 2 23.6571 11.6806 13.82
278 2 27.7396 11.8384 13.9642
279 2 31.8346 11.753 14.0034
280 2 35.7108 11.8629 13.9365
281 2 39.7059 12.0304 14.1152
282 2 43.6088 11.9378 13.9073
283 2 47.7255 11.9856 13.9276
284 2 51.7545 11.8584 13.9099
285 2 55.4601 12.0153 13.8222
286 2 0.146511 16.061 13.8083
287 2 3.99401 16.01 14.0769
288 2 7.92244 15.9874 13.8079
289 2 11.9427 15.9227 13.7364
290 2 15.9109 15.6344 14.1007
291 2 19.8721 15.9039 13.9382
292 2 23.8087 15.6426 13.9506
293 2 27.6729 15.8763 13.9947
294 2 31.5021 15.8087 13.9777
295 2 35.8456 15.923 13.9242
296 2 39.5476 15.8334 14.0817
297 2 43.6816 15.8037 13.9402
298 2 47.7556 15.8955 13.8868
299 2 51.5562 15.953 13.8529
300 2 55.6832 15.914 14.0244
301 2 0.218244 19.9982 13.8308
302 2 3.79564 19.7254 13.8944
303 2 8.02412 19.6568 13.9398
304 2 11.9015 19.6687 14.0212
305 2 15.8811 19.7436 14.0924
306 2 19.8384 19.697 14.107
307 2 23.8605 19.8121 13.7874
308 2 27.7412 19.8176 13.9342
309 2 31.835 19.6182 13.8711
310 2 35.7954 19.8925 13.8197
311 2 39.6256 19.7034 13.994
312 2 43.7192 19.9639 13.8903
313 2 47.5894 19.7716 14.0131
314 2 51.6138 19.7118 14.1039
315 2 55.4401 19.7168 13.9568
316 2 0.278692 23.8327 13.83
317 2 4.09518 23.7543 13.6895
318 2 7.95545 23.8228 13.8114
319 2 11.8284 23.7643 14.001
320 2 15.8786 23.5591 13.8653
321 2 19.8985 23.4755 13.7805
322 2 23.8518 23.6151 13.6188
323 2 27.8419 23.8037 13.8364
324 2 31.921 23.6838 14.1463
325 2 35.8785 23.8688 13.8661
326 2 39.8483 23.6433 13.8808
327 2 43.6057 23.6845 13.9652
328 2 47.7028 23.7941 13.9112
329 2 51.524 23.7039 13.8702
330 2 55.5228 23.7396 13.8398
331 2 59.5335 27.6503 14.0475
332 2 4.21421 27.7652 13.8281
333 2 8.14253 27.8366 14.016
334 2 11.9172 27.7238 13.7381
335 2 16.1101 27.5503 13.9732
336 2 20.0003 27.7544 13.7539
337 2 23.9746 27.6561 13.8756
338 2 27.8485 27.6768 13.9404
339 2 31.7885 27.4907 13.964
340 2 35.8382 27.7808 13.8571
341 2 39.7128 27.9715 13.9199
342 2 43.766 27.8393 13.8928
343 2 47.5349 27.828 13.9382
344 2 51.5606 27.7317 13.9977
345 2 55.5737 27.5928 13.9297
346 2 0.089361 31.6958 13.9315
347 2 4.09031 31.6418 14.1159
348 2 8.24314 31.8942 13.8451
349 2 12.0361 31.622 13.9798
350 2 15.9279 31.5223 13.8874
351 2 19.8633 31.7294 13.9295
352 2 24.0174 31.8816 13.8857
353 2 27.8988 31.5032 13.9585
354 2 31.7367 31.7982 13.985
355 2 35.7028 31.6097 14.0581
356 2 39.6489 31.7079 13.8039
357 2 43.6748 31.8723 13.9477
358 2 47.6813 31.7101 14.0178
359 2 51.7254 31.6331 13.8771
360 2 55.5408 31.6593 14.0251
361 2 0.233348 35.6188 13.9756
362 2 4.00955 35.7641 14.074
363 2 8.1711 35.6497 13.7204
364 2 12.0233 35.564 13.9261
365 2 16.071 35.4466 13.8073
366 2 20.0139 35.6014 14.0439
367 2 23.8858 35.7966 13.8957
368 2 27.8419 35.6025 13.9111
369 2 31.7717 35.7076 13.9273
370 2 35.8427 35.6953 13.963
371 2 39.6352 35.5757 13.7975
372 2 43.5931 35.8878 13.8089
373 2 47.6603 35.802 13.8483
374 2 51.5866 35.7507 13.8566
375 2 55.4004 35.768 13.997
376 2 0.198465 39.5218 14.0777
377 2 4.26535 39.5493 13.7999
378 2 8.09246 39.6342 13.8257
379 2 12.0752 39.6708 13.7759
380 2 16.1122 39.6062 13.9553
381 2 19.9713 39.7822 13.8779
382 2 23.8845 39.4957 14.0076
383 2 28.0046 39.4699 13.959
384 2 31.8497 39.668 13.9436
385 2 35.7138 39.64 13.8077
386 2 39.7693 39.6882 13.9429
387 2 43.6393 39.8049 14.1739
388 2 47.5033 39.8804 14.0043
389 2 51.6852 39.8314 13.8009
390 2 55.7265 39.6859 13.8596
391 2 0.449012 43.4705 13.9441
392 2 4.28362 43.5409 13.7719
393 2 7.96623 43.4269 13.7077
394 2 12.1689 43.6192 13.9834
395 2 15.9077 43.6088 13.7423
396 2 20.1186 43.5447 13.9893
397 2 24.0317 43.473 13.9317
398 2 28.0029 43.7289 13.9128
399 2 31.9277 43.5266 13.9646
400 2 35.723 43.6518 13.8807
401 2 39.4712 43.6391 13.9647
402 2 43.6942 43.6206 13.8729
403 2 47.5613 43.7678 13.8778
404 2 51.6176 43.5012 13.7017
405 2 55.7224 43.5609 13.8309
406 2 59.7092 47.302 14.1258
407 2 4.0441 47.6321 13.7594
408 2 8.02338 47.3299 13.8607
409 2 12.1438 47.5036 13.7108
410 2 16.0675 47.6227 13.8902
411 2 19.8324 47.5118 13.8388
412 2 23.8794 47.5656 14.0326
413 2 27.8112 47.592 13.7948
414 2 31.6796 47.4991 14.0738
415 2 35.6566 47.5275 13.7602
416 2 39.6531 47.4833 14.1115
417 2 43.4636 47.4776 13.9378
418 2 47.5438 47.6628 14.1468
419 2 51.6184 47.5058 14.0118
420 2 55.6073 47.616 13.9498
421 2 0.198689 51.5022 13.8358
422 2 4.1317 51.4702 13.7903
423 2 8.0314 51.38 13.9595
424 2 12.0714 51.2962 14.0223
425 2 15.8896 51.5021 13.9625
426 2 19.9147 51.6374 13.7231
427 2 23.7022 51.5197 13.605
428 2 27.7792 51.6145 13.7747
429 2 31.9492 51.4623 13.9125
430 2 35.6585 51.7595 14.0727
431 2 39.7117 51.6028 13.8493
432 2 43.491 51.3683 13.6635
433 2 47.7778 51.4562 14.0446
434 2 51.7476 51.3735 14.0395
435 2 55.6115 51.4273 13.7179
436 2 0.252476 55.4653 13.903
437 2 4.11504 55.5195 14.0347
438 2 8.08672 55.5291 13.964
439 2 11.9964 55.4366 13.9081
440 2 16.0745 55.5124 13.8835
441 2 19.8915 55.4887 13.9819
442 2 23.8279 55.3555 13.9354
443 2 28.0068 55.4102 14.0419
444 2 31.9071 55.5047 13.7773
445 2 35.889 55.5932 13.8325
446 2 39.6897 55.4813 13.9628
447 2 43.6518 55.4871 13.8875
448 2 47.7002 55.5608 14.1596
449 2 51.731 55.4301 13.8974
450 2 55.623 55.5382 14.0527
451 2 59.4101 -0.0756549 17.9514
452 2 4.13927 59.6303 17.8811
453 2 8.14493 -0.0216778 17.6987
454 2 11.8983 0.118812 17.9506
455 2 15.9894 59.371 18.1568
456 2 19.9496 0.135758 17.8624
457 2 23.8046 59.3543 17.942
458 2 27.6402 -0.0589599 17.9859
459 2 31.7466 0.225289 17.8421
460 2 35.6407 0.179817 17.914
461 2 39.7246 -0.0381736 17.9693
462 2 43.7078 0.220576 17.9389
463 2 47.7543 0.170868 17.8095
464 2 51.553 0.0915355 17.7067
465 2 55.4858 -0.0308404 17.856
466 2 0.160937 3.9936 17.9499
467 2 4.07359 3.95397 17.9639
468 2 8.136 4.10075 17.879
469 2 12.0237 3.95475 17.8183
470 2 15.986 4.11827 17.8362
471 2 20.2392 4.09458 17.908
472 2 23.8692 4.01883 17.9349
473 2 27.7966 4.0518 18.1491
474 2 31.8282 4.06317 17.7885
475 2 35.6165 4.12224 17.8162
476 2 39.58 3.82827 17.8442
477 2 43.5188 4.17091 17.8969
478 2 47.7084 4.15673 17.7015
479 2 51.437 4.20512 17.8626
480 2 55.4843 3.9336 17.9272
481 2 59.1379 7.94364 17.807
482 2 3.98779 8.10928 17.9194
483 2 8.08153 7.88279 17.9489
484 2 11.8317 7.88602 17.9591
485 2 15.9686 8.01997 17.9649
486 2 19.9509 7.86954 18.0066
487 2 23.9579 7.8032 17.898
488 2 27.9199 8.00122 17.8617
489 2 31.8476 7.90958 17.9211
490 2 35.8665 8.079 18.1527
491 2 39.7289 8.12849 17.9201
492 2 43.3554 7.9701 17.8465
493 2 47.5839 8.22562 17.8273
494 2 51.62 8.14268 17.7438
495 2 55.4618 8.01631 17.7326
496 2 59.549 12.1355 17.8172
497 2 4.11845 12.0652 17.9328
498 2 7.9185 12.0803 17.9314
499 2 11.9578 12.1787 17.8697
500 2 15.8955 11.9008 17.9625
501 2 20.0424 11.8437 17.7951
502 2 23.9308 11.8216 17.924
503 2 27.8005 11.9633 18.0863
504 2 31.6838 11.9311 17.9595
505 2 35.8928 11.8802 17.8879
506 2 39.8135 12.0096 17.9339
507 2 43.6309 11.8739 17.9165
508 2 47.6173 11.8909 17.7861
509 2 51.5994 11.7832 17.9615
510 2 55.4862 11.8578 17.7752
511 2 59.5983 15.9793 18.0911
512 2 3.96811 15.8447 18.0224
513 2 8.09763 16.0435 17.9525
514 2 11.9222 15.8595 17.8916
515 2 15.8053 15.9181 17.895
516 2 19.8721 15.8302 18.0402
517 2 23.6571 16.0367 18.0248
518 2 27.661 15.9396 18
519 2 31.6918 15.8336 17.9823
520 2 35.5783 15.8517 17.9922
521 2 39.5751 15.9299 17.8768
522 2 43.6082 15.7947 18.0171
523 2 47.5815 15.9561 17.8617
524 2 51.5599 16.0054 17.8096
525 2 55.5483 15.7571 17.926
526 2 59.4888 19.8672 17.8849
527 2 4.02479 19.9443 17.8514
528 2 8.02913 19.7925 18.0631
529 2 11.9437 19.909 17.8744
530 2 15.797 19.9192 17.7908
531 2 19.8345 19.6418 17.9069
532 2 23.8061 20.086 17.6697
533 2 27.6951 19.6656 17.7573
534 2 31.5898 19.8317 17.9688
535 2 35.5864 19.9643 17.9946
536 2 39.5389 20.0135 18.0893
537 2 43.7022 19.7672 17.8953
538 2 47.5828 19.8812 17.8366
539 2 51.666 19.8332 17.9745
540 2 55.5781 20.0626 17.7868
541 2 0.0343913 23.8146 17.8003
542 2 4.24515 23.9957 17.883
543 2 7.84034 23.7934 17.8117
544 2 11.9226 23.7833 18.0066
545 2 15.8111 23.6027 17.839
546 2 19.8523 23.8813 17.7707
547 2 23.737 23.8918 17.9841
548 2 27.7294 23.8302 17.8686
549 2 31.7539 23.7521 17.8054
550 2 35.6709 23.736 17.8227
551 2 39.6142 23.8704 17.9869
552 2 43.628 23.9235 17.9394
553 2 47.4291 23.8695 17.7152
554 2 51.5574 23.8555 17.864
555 2 55.616 23.8732 17.8089
556 2 59.5281 27.7838 17.9025
557 2 4.15708 27.7345 17.9738
558 2 8.00886 27.7539 17.9925
559 2 11.8321 27.6717 17.6558
560 2 16.0812 27.6959 17.6993
561 2 19.737 27.8092 17.5569
562 2 23.7113 27.7914 17.6294
563 2 27.8952 27.9272 17.8206
564 2 31.8806 27.8199 17.9062
565 2 35.7216 27.6725 17.8907
566 2 39.567 27.8788 17.8946
567 2 43.4638 27.8848 17.8739
568 2 47.6362 27.7273 17.8913
569 2 51.2995 27.9504 17.8048
570 2 55.4254 27.7741 17.7439
571 2 0.122343 31.7699 17.885
572 2 3.98106 31.7974 18.0511
573 2 7.97709 31.7907 17.716
574 2 12.125 31.6338 17.8586
575 2 15.763 31.7144 17.924
576 2 19.9137 31.6534 18.0099
577 2 24.0337 31.831 17.9248
578 2 27.9125 31.7517 17.9415
579 2 31.807 31.6937 17.9133
580 2 35.6402 31.712 17.8515
581 2 39.7002 31.9051 17.8511
582 2 43.5606 31.5917 17.9119
583 2 47.5421 31.9837 17.9633
584 2 51.5484 31.7051 17.9641
585 2 55.4378 31.8782 17.9487
586 2 0.238778 35.645 18.0246
587 2 4.20089 35.6562 17.8111
588 2 8.09841 35.7593 17.8379
589 2 12.1656 35.6295 18.0223
590 2 16.0587 35.8124 17.8385
591 2 20.0564 35.7922 17.9307
592 2 24.0104 35.6523 18.0145
593 2 27.9551 35.6562 18.093
594 2 31.7087 35.6281 17.8808
595 2 35.7431 35.7455 18.0059
596 2 39.8427 35.9036 17.8003
597 2 43.6305 35.7713 17.8879
598 2 47.6 35.8372 17.942
599 2 51.6628 35.7426 17.831
600 2 55.5469 35.7057 17.8844
601 2 0.283456 39.5903 17.9314
602 2 4.12414 39.6664 17.891
603 2 8.20416 39.5971 17.6386
604 2 11.9249 39.5392 17.7366
605 2 16.0664 39.7649 17.7141
606 2 19.9255 39.7487 17.8375
607 2 23.8838 39.7734 17.883
608 2 27.6923 39.7402 17.9509
609 2 31.8666 39.6442 18.0179
610 2 35.7591 39.6287 18.0149
611 2 39.7687 39.7371 17.7894
612 2 43.7924 39.7171 18.0762
613 2 47.7384 39.8803 17.9429
614 2 51.6825 39.6238 17.8127
615 2 55.6437 39.5021 17.8484
616 2 0.188426 43.5463 17.9921
617 2 4.10566 43.4528 18.1041
618 2 8.115 43.5347 17.9076
619 2 12.0148 43.7663 17.8331
620 2 15.7622 43.6936 17.925
621 2 19.7959 43.6042 18.0317
622 2 23.8884 43.5258 17.7811
623 2 27.6415 43.4257 17.9621
624 2 31.7219 43.6784 17.8762
625 2 35.6618 43.6806 18.1334
626 2 39.7258 43.5903 17.7797
627 2 43.7508 43.4955 17.7762
628 2 47.7167 43.7776 17.9855
629 2 51.8047 43.6195 17.7285
630 2 55.7517 43.4505 17.7062
631 2 0.268309 47.4419 17.9959
632 2 4.16506 47.4358 17.9853
633 2 8.03299 47.3144 17.9195
634 2 11.947 47.7475 17.8484
635 2 15.9712 47.5211 17.7897
636 2 19.8263 47.497 17.8697
637 2 23.7627 47.7208 17.9125
638 2 27.7716 47.4883 17.9027
639 2 31.7229 47.4294 17.9238
640 2 35.5959 47.6129 17.9644
641 2 39.3575 47.5609 17.9193
642 2 43.5719 47.499 17.9919
643 2 47.4682 47.5 17.9042
644 2 51.49 47.3983 17.9868
645 2 55.7166 47.5147 17.9972
646 2 0.208982 51.5549 17.9499
647 2 4.00923 51.506 17.5914
648 2 7.94784 51.4041 17.8128
649 2 11.9713 51.512 17.6824
650 2 15.8597 51.3902 17.6693
651 2 19.7468 51.3921 17.9569
652 2 23.7959 51.3868 17.7171
653 2 27.6236 51.4815 17.8896
654 2 31.7694 51.2088 17.7964
655 2 35.7524 51.608 17.8614
656 2 39.6875 51.6061 17.8356
657 2 43.787 51.6907 17.8999
658 2 47.6511 51.4616 17.8834
659 2 51.5187 51.4072 18.0241
660 2 55.6999 51.564 17.8073
661 2 0.347267 55.5558 17.8368
662 2 4.16772 55.5324 17.7177
663 2 7.84721 55.3309 17.9185
664 2 11.9539 55.4606 18.0295
665 2 15.9516 55.3612 17.9759
666 2 19.7608 55.3277 17.8971
667 2 23.9552 55.3233 17.941
668 2 27.9606 55.3613 17.9565
669 2 31.8989 55.4727 17.8404
670 2 35.7257 55.6458 17.9192
671 2 39.7468 55.4104 17.826
672 2 43.5233 55.593 17.9082
673 2 47.4572 55.4097 18.0017
674 2 51.469 55.4477 18.0447
675 2 55.6467 55.4568 17.9332
676 2 -0.152563 0.00444613 21.7863
677 2 4.00018 0.241438 21.8084
678 2 7.88105 0.147957 21.6735
679 2 12.0677 0.0907958 21.8607
680 2 15.9888 0.0835171 21.9802
681 2 19.9463 0.0886975 21.9263
682 2 23.7712 0.180255 22.0083
683 2 27.7114 0.0869804 21.9286
684 2 31.7531 -0.0232372 22.024
685 2 35.6745 0.160151 21.9111
686 2 39.4856 0.0347811 21.8372
687 2 43.6999 0.229642 21.9444
688 2 47.5774 0.353409 21.7777
689 2 51.6434 59.2864 21.7241
690 2 55.2952 0.0634102 21.8381
691 2 0.0509348 4.20928 21.9826
692 2 3.94653 4.27636 21.8042
693 2 8.0586 4.0384 21.9046
694 2 12.0659 4.04303 21.8893
695 2 15.99 4.0414 21.6916
696 2 20.0211 4.15251 21.9076
697 2 23.8182 4.03394 21.946
698 2 28.0103 4.0225 21.9784
699 2 31.6529 4.09329 21.7956
700 2 35.6651 4.07769 21.8489
701 2 39.5577 4.09119 21.9992
702 2 43.5278 4.10931 21.985
703 2 47.6908 3.95553 21.719
704 2 51.5116 4.24611 21.8183
705 2 55.315 4.15768 21.9032
706 2 59.3356 8.08926 21.9147
707 2 3.96562 8.13916 21.9079
708 2 7.86292 8.10079 21.823
709 2 11.856 7.95072 21.9856
710 2 16.0102 7.93487 21.9187
711 2 19.9434 8.28236 21.8716
712 2 23.852 8.00892 21.6447
713 2 27.8416 8.10867 21.9189
714 2 31.8778 7.8954 21.8847
715 2 35.804 7.79648 21.7481
716 2 39.6573 8.04584 21.881
717 2 43.7006 7.99649 21.6227
718 2 47.6381 8.05207 21.8624
719 2 51.4208 7.9328 21.7462
720 2 55.3695 8.06674 21.7159
721 2 -0.0778528 11.8003 22.0233
722 2 4.05686 12.025 21.9101
723 2 8.01512 12.0163 21.9069
724 2 12.081 11.9569 21.8199
725 2 16.015 12.0242 21.8749
726 2 19.8129 12.1458 21.8177
727 2 23.8107 12.2142 21.8752
728 2 27.8016 12.1523 21.8553
729 2 31.641 11.9055 22.0372
730 2 35.7071 11.9392 21.8902
731 2 39.755 11.9842 21.8823
732 2 43.627 12.1759 21.7316
733 2 47.5002 11.9359 21.9291
734 2 51.3045 11.9102 21.9082
735 2 55.4373 12.2085 21.9241
736 2 -0.1672 15.9 22.1019
737 2 3.90543 15.9104 22.0234
738 2 7.90051 16.0215 21.9755
739 2 11.974 15.9325 21.9417
740 2 15.9476 16.1304 21.8105
741 2 19.8564 16.0114 21.9209
742 2 23.6669 15.9938 22.0169
743 2 27.624 16.0799 21.7964
744 2 31.6914 15.8436 21.9639
745 2 35.5862 15.9425 21.9134
746 2 39.6573 15.9734 21.9907
747 2 43.5324 16.1425 21.8862
748 2 47.6725 15.9238 21.9352
749 2 51.5368 16.027 21.8351
750 2 55.3586 15.91 21.9511
751 2 59.3529 19.8132 21.7583
752 2 4.02621 20.0226 21.7528
753 2 7.738 20.0235 21.8891
754 2 11.903 19.9146 21.8349
755 2 15.8301 19.7893 22.0035
756 2 19.63 20.0427 21.8527
757 2 23.9202 20.0042 21.8865
758 2 27.7544 19.8642 21.9131
759 2 31.6894 19.8612 21.8616
760 2 35.5484 19.7529 22.0205
761 2 39.6706 19.998 21.8456
762 2 43.6962 19.9403 21.9111
763 2 47.5502 19.9884 21.7921
764 2 51.4804 19.9192 21.6279
765 2 55.3808 19.8551 21.9365
766 2 59.5139 23.75 21.8213
767 2 4.14049 23.983 21.6744
768 2 8.1288 23.8329 21.9186
769 2 11.8908 23.9122 21.7622
770 2 15.8673 23.9193 21.6688
771 2 19.8044 23.9274 21.7049
772 2 23.6917 23.9551 21.969
773 2 27.6814 24.0286 21.8501
774 2 31.5812 23.9109 21.9715
775 2 35.5692 23.8481 21.9659
776 2 39.4568 23.8561 21.9371
777 2 43.6493 23.7223 21.9418
778 2 47.4507 23.9787 21.9864
779 2 51.5841 23.9464 21.928
780 2 55.3307 23.9999 21.9523
781 2 59.6676 27.6679 21.9438
782 2 4.13563 27.953 22.0004
783 2 8.18483 27.9413 21.8413
784 2 11.9374 27.8014 21.5904
785 2 15.9521 27.6902 21.7187
786 2 19.9909 27.971 21.5826
787 2 23.9707 27.7039 21.5806
788 2 27.6396 27.8662 21.8745
789 2 31.7505 27.6354 21.9001
790 2 35.8032 27.7319 21.9362
791 2 39.5959 27.7827 21.9195
792 2 43.3891 27.9216 21.7744
793 2 47.6487 27.8709 21.8501
794 2 51.5358 27.7619 21.8311
795 2 55.5814 27.8049 21.9038
796 2 59.5208 31.7546 21.8307
797 2 3.9478 31.8687 21.8247
798 2 8.13844 31.9219 21.733
799 2 12.1069 31.6888 21.7653
800 2 15.9122 31.5517 21.8383
801 2 19.8913 31.835 21.8423
802 2 23.9813 31.6538 21.8197
803 2 27.7568 31.7571 21.8997
804 2 31.806 31.6358 22.0037
805 2 35.5499 31.551 21.8891
806 2 39.4084 31.6002 21.9362
807 2 43.5094 31.6528 21.8766
808 2 47.7714 31.7722 21.8102
809 2 51.4597 31.7372 21.7541
810 2 55.608 31.5894 21.782
811 2 59.3993 35.6607 21.7733
812 2 4.05013 35.7553 21.8183
813 2 8.04475 35.6718 22.0365
814 2 12.0068 35.6227 21.9344
815 2 16.0169 35.6555 21.7456
816 2 19.9675 35.728 21.7648
817 2 23.9029 35.8327 21.913
818 2 27.8673 35.9362 22.0715
819 2 31.8579 35.8205 21.9319
820 2 35.9555 35.9384 21.7889
821 2 39.7742 35.668 21.8439
822 2 43.5322 35.5816 21.8706
823 2 47.6712 35.6736 22.0757
824 2 51.5681 35.5664 21.794
825 2 55.3909 35.6847 22.0003
826 2 0.0327882 39.5976 21.9528
827 2 4.16494 39.7565 21.7148
828 2 7.94144 39.6839 21.9544
829 2 12.0214 39.6376 21.7623
830 2 15.8726 39.6966 21.9672
831 2 19.9042 39.7254 21.873
832 2 23.9135 39.6636 21.8095
833 2 27.8121 39.8291 21.9648
834 2 31.779 39.7185 22.0429
835 2 35.8788 39.8112 21.8394
836 2 39.8124 39.8114 21.9413
837 2 43.8219 39.7901 21.8614
838 2 47.79 39.5974 21.7234
839 2 51.6535 39.5302 22.0337
840 2 55.6144 39.6259 22.0369
841 2 0.0565863 43.7657 21.71
842 2 3.99101 43.6272 22.022
843 2 7.87085 43.5485 22.0437
844 2 11.7973 43.4686 21.8699
845 2 15.7804 43.7428 21.849
846 2 19.9401 43.659 21.9468
847 2 23.718 43.7317 21.981
848 2 27.5641 43.5951 21.8716
849 2 31.5708 43.7695 22.0713
850 2 35.7014 43.7884 22.0185
851 2 39.6643 43.7352 21.7579
852 2 43.6275 43.6906 21.956
853 2 47.5916 43.717 21.7679
854 2 51.5707 43.5713 21.8223
855 2 55.4828 43.6826 21.9739
856 2 59.508 47.595 21.8419
857 2 4.2613 47.5085 21.8471
858 2 8.05172 47.7312 21.8257
859 2 11.8634 47.5374 21.7256
860 2 15.8991 47.5607 21.8432
861 2 19.8683 47.5117 21.9427
862 2 23.7229 47.6253 21.76
863 2 27.712 47.5541 21.8049
864 2 31.6616 47.6021 21.9156
865 2 35.6529 47.839 22.036
866 2 39.6173 47.6926 21.8423
867 2 43.5174 47.793 21.7524
868 2 47.6229 47.4369 21.8787
869 2 51.6254 47.6055 21.9063
870 2 55.4745 47.4263 21.9859
871 2 0.309714 51.2141 21.8975
872 2 4.08195 51.5284 21.8684
873 2 7.83971 51.7746 21.8007
874 2 11.9923 51.522 21.8405
875 2 15.9692 51.3738 21.879
876 2 19.7524 51.3909 21.9868
877 2 23.7175 51.5125 21.7862
878 2 27.7341 51.5444 22.0033
879 2 31.5793 51.5267 21.9251
880 2 35.5973 51.5602 22.0131
881 2 39.6962 51.5607 21.8257
882 2 43.5421 51.5388 21.8824
883 2 47.5625 51.449 21.887
884 2 51.6554 51.4814 21.9486
885 2 55.4421 51.348 21.7846
886 2 0.388412 55.5151 21.7503
887 2 3.89989 55.5495 21.8454
888 2 8.00337 55.5269 21.7479
889 2 11.9844 55.4058 21.8422
890 2 15.9398 55.5238 21.8053
891 2 19.8429 55.3314 22.0026
892 2 23.7987 55.3773 22.0284
893 2 27.765 55.2117 21.9037
894 2 31.8565 55.5364 21.6647
895 2 35.6156 55.5099 21.9496
896 2 39.5701 55.5453 21.7908
897 2 43.649 55.5458 21.7924
898 2 47.7625 55.4609 21.8369
899 2 51.5374 55.3543 21.8931
900 2 55.6387 55.344 22.0565
901 2 59.2285 0.0788403 25.8264
902 2 4.06272 0.255133 25.7279
903 2 7.98955 0.199114 25.7402
904 2 11.9642 0.144646 25.8923
905 2 15.8936 0.293181 25.7705
906 2 19.6383 0.00617129 25.7166
907 2 23.7286 0.312115 25.8573
908 2 27.7366 0.114435 25.7897
909 2 31.66 0.105045 26.0766
910 2 35.4071 0.137324 25.721
911 2 39.5278 0.120359 25.7517
912 2 43.5973 0.106383 25.864
913 2 47.3424 0.0550524 25.8368
914 2 51.4609 0.250591 25.8352
915 2 55.5043 0.127492 25.9642
916 2 -0.108485 4.25225 25.9093
917 2 3.97019 4.19916 25.7845
918 2 7.79758 3.88989 25.8727
919 2 11.732 4.2132 25.8656
920 2 15.8304 4.27072 25.8048
921 2 19.8114 4.09154 26.0121
922 2 23.6548 4.31024 25.6443
923 2 27.583 4.27722 25.8821
924 2 31.7989 3.81555 26.0519
925 2 35.6411 4.04504 25.8941
926 2 39.6456 4.07927 25.8114
927 2 43.4629 4.0465 25.8244
928 2 47.53 4.24648 25.9295
929 2 51.4911 4.00684 25.9676
930 2 55.4169 3.97594 25.9337
931 2 -0.129361 8.2437 25.7901
932 2 3.84531 8.21715 25.902
933 2 8.07663 8.21756 25.8367
934 2 11.9429 8.20439 25.7929
935 2 15.8649 8.22065 25.7294
936 2 19.8668 8.34305 25.9358
937 2 23.8087 8.15189 25.7558
938 2 27.6683 7.95946 25.7658
939 2 31.6201 7.89074 25.89
940 2 35.8313 8.05259 25.631
941 2 39.5355 8.058 25.6707
942 2 43.6062 8.0252 25.8325
943 2 47.6524 8.11434 25.861
944 2 51.4251 7.95618 25.8321
945 2 55.3618 8.2188 25.9119
946 2 -0.0147237 12.1969 25.8611
947 2 3.82344 12.2458 25.7873
948 2 7.96136 12.0757 25.9512
949 2 11.9811 12.0891 25.8694
950 2 15.8322 12.0979 25.7526
951 2 19.784 12.1716 25.7924
952 2 23.9131 11.9497 25.6217
953 2 27.7676 12.1992 25.7755
954 2 31.6708 12.0332 25.8331
955 2 35.6393 12.0524 25.8942
956 2 39.4322 12.0794 25.7465
957 2 43.4818 12.0248 25.8436
958 2 47.4453 12.1459 25.8942
959 2 51.5538 11.9844 25.8495
960 2 55.1694 12.0224 25.8988
961 2 59.2875 16.1767 25.9218
962 2 3.82974 16.108 25.8069
963 2 7.96862 16.0839 25.7224
964 2 12.0786 15.9041 25.8936
965 2 15.8468 16.0663 25.8163
966 2 19.781 16.0318 25.9556
967 2 23.5935 16.0267 25.9303
968 2 27.6542 15.9443 25.8184
969 2 31.5805 16.0129 25.8458
970 2 35.7801 15.9183 25.7526
971 2 39.671 15.9476 25.9407
972 2 43.6355 16.0926 25.9597
973 2 47.5107 15.9948 25.9688
974 2 51.6054 15.8936 25.7524
975 2 55.5213 16.0487 25.8323
976 2 59.2247 19.8879 25.9295
977 2 3.75318 19.9138 25.9488
978 2 7.89521 20.0691 25.705
979 2 12.0261 20.1363 25.9163
980 2 15.7868 20.0006 25.8361
981 2 19.7582 20.0506 25.9918
982 2 23.6649 19.8782 25.8705
983 2 27.665 19.966 25.8087
984 2 31.7488 19.9045 25.7879
985 2 35.8515 20.0961 25.8586
986 2 39.4086 19.9996 25.8256
987 2 43.4656 20.0059 25.7138
988 2 47.3514 20.0527 25.7139
989 2 51.3046 20.0133 25.7956
990 2 55.3059 20.0745 25.8124
991 2 59.4167 23.7325 25.726
992 2 4.06304 23.8901 25.583
993 2 8.05169 23.9876 25.9168
994 2 11.9972 23.9108 25.9979
995 2 15.8321 23.9955 25.758
996 2 19.8067 24.0153 25.7951
997 2 23.6633 23.9142 25.9323
998 2 27.6734 23.8484 26.0497
999 2 31.5294 23.7006 25.8118