ITEM: TIMESTEP
1524400
ITEM: NUMBER OF ATOMS
16875
ITEM: BOX BOUNDS xy xz yz pp pp pp
0.0000000000000000e+00 5.9369999999999997e+01 0.0000000000000000e+00
0.0000000000000000e+00 5.9369999999999997e+01 0.0000000000000000e+00
2.8796739783592074e-01 6.0078451602166922e+01 0.0000000000000000e+00
ITEM: ATOMS id type x y z
1 2 -0.0705352 0.113256 9.84763
2 2 3.94727 0.0858135 9.96641
3 2 8.10849 59.4899 9.97522
4 2 12.0609 -0.127794 9.93306
5 2 15.9637 59.3262 10.0284
6 2 19.9128 -0.107522 9.9689
7 2 23.7671 59.1892 9.9943
8 2 27.6139 -0.216333 9.9419
9 2 31.9126 -0.0033535 9.95963
10 2 35.7818 59.3654 10.0705
11 2 39.6651 59.1731 9.94942
12 2 43.6607 59.2691 10.0666
13 2 47.704 59.256 9.81045
14 2 51.6766 59.5065 9.83178
15 2 55.6496 59.2857 10.0338
16 2 -0.0563143 3.99416 9.88428
17 2 4.08756 3.82569 9.81121
18 2 8.18468 3.98949 9.82234
19 2 12.0933 3.8418 9.9799
20 2 16.0155 3.80901 9.95642
21 2 19.877 3.65277 9.74604
22 2 23.9588 3.73596 9.90615
23 2 27.8521 3.82462 9.79363
24 2 31.9479 3.82948 9.82632
25 2 35.7048 3.90052 10.0362
26 2 39.7953 4.03753 9.79716
27 2 43.7041 3.83093 9.97266
28 2 47.5555 3.93821 9.97414
29 2 51.4202 3.89272 9.87073
30 2 55.4446 4.18486 9.8415
31 2 -0.0331861 7.83738 9.98355
32 2 3.94398 7.69596 9.97244
33 2 7.93581 7.79974 9.87041
34 2 11.9379 7.98662 9.82104
35 2 15.9336 7.88436 9.80199
36 2 20.0077 7.83685 9.91734
37 2 24.0024 7.80494 9.79999
38 2 27.8424 7.95038 9.95473
39 2 31.9215 7.8606 9.74853
40 2 35.6044 7.81467 9.9606
41 2 39.5581 7.94482 9.89661
42 2 43.5431 7.90154 10.0425
43 2 47.4538 7.80844 9.97077
44 2 51.6369 7.98794 9.95812
45 2 55.4648 7.83812 10.018
46 2 0.0322481 11.8123 9.88495
47 2 3.96353 11.8439 9.94193
48 2 7.90923 11.9033 9.96169
49 2 11.8295 11.9681 9.80823
50 2 16.0576 11.7022 9.75533
51 2 19.9111 11.8323 9.98571
52 2 23.7016 11.6263 9.89417
53 2 27.8493 11.6391 9.84878
54 2 31.5762 11.8696 9.97615
55 2 35.514 11.9495 10.0535
56 2 39.5995 11.7995 9.93489
57 2 43.7336 11.6994 10.0415
58 2 47.5342 11.7923 10.1213
59 2 51.4017 11.9322 10.0283
60 2 55.3408 11.9324 9.96973
61 2 0.160445 15.9531 9.79866
62 2 4.28598 15.9703 9.81627
63 2 7.9082 15.7018 10.0418
64 2 11.8637 15.8011 9.98901
65 2 16.0344 15.8134 10.0289
66 2 19.8916 15.7457 9.81816
67 2 23.7692 15.6356 10.0366
68 2 27.7186 15.9347 9.86739
69 2 31.6286 15.725 9.94061
70 2 35.5785 15.9071 10.1281
71 2 39.7356 15.7549 9.95785
72 2 43.6463 15.9715 10.0067
73 2 47.5472 15.8179 10.1139
74 2 51.487 15.8495 9.88766
75 2 55.53 15.8974 9.76201
76 2 -0.0243167 19.8477 9.93597
77 2 3.9979 19.8613 9.84118
78 2 8.09233 19.7481 9.93723
79 2 11.9654 19.8891 9.75127
80 2 15.8814 19.4495 9.76943
81 2 19.8546 19.7846 9.86021
82 2 23.809 19.6829 10.0411
83 2 27.639 19.7164 9.80043
84 2 31.7488 19.6565 9.93576
85 2 35.7356 19.6352 10.0065
86 2 39.5425 19.9471 9.81007
87 2 43.5724 19.7375 9.83706
88 2 47.6809 19.747 9.68873
89 2 51.6325 19.5816 9.93042
90 2 55.488 19.6297 9.93776
91 2 0.135931 23.8125 9.91677
92 2 4.16127 23.7458 9.94667
93 2 7.84922 23.64 9.8552
94 2 12.0654 23.7304 9.94172
95 2 15.8943 23.5004 9.76856
96 2 19.8256 23.4992 10.0177
97 2 23.7222 23.6925 9.95611
98 2 27.7317 23.6396 10.0211
99 2 31.9442 23.4953 9.99355
100 2 35.7041 23.6124 9.91415
101 2 39.6534 23.7374 9.95741
102 2 43.3978 23.6946 9.93478
103 2 47.3421 23.8039 9.87882
104 2 51.4894 23.6816 9.95336
105 2 55.6465 23.7857 9.98076
106 2 0.104154 27.7064 9.80417
107 2 4.08782 27.6684 9.82814
108 2 8.19905 27.5916 9.86427
109 2 12.165 27.5973 10.0783
110 2 15.8481 27.4501 9.91307
111 2 20.0076 27.5331 9.93937
112 2 23.9359 27.6559 10.004
113 2 27.7384 27.478 9.97592
114 2 31.869 27.6723 9.95667
115 2 35.7153 27.4703 10.0375
116 2 39.681 27.7227 9.97679
117 2 43.7128 27.7167 9.79672
118 2 47.5157 27.506 10.03
119 2 51.3977 27.555 10.1208
120 2 55.4523 27.5582 10.018
121 2 59.6415 31.7073 9.83729
122 2 4.16201 31.5462 9.97254
123 2 7.9671 31.6699 9.97512
124 2 12.0148 31.5749 9.86765
125 2 15.9385 31.4063 9.73916
126 2 19.9538 31.4948 9.81923
127 2 23.8362 31.4619 9.84846
128 2 27.7286 31.403 9.82062
129 2 31.636 31.5898 10.0367
130 2 35.7308 31.6172 9.67993
131 2 39.6291 31.7343 9.76868
132 2 43.5107 31.6726 9.87996
133 2 47.5453 31.6097 10.0915
134 2 51.6887 31.7615 10.0318
135 2 55.604 31.6195 9.91292
136 2 -0.0193778 35.7077 9.86983
137 2 3.87518 35.6079 9.89522
138 2 8.01515 35.5991 9.73451
139 2 11.956 35.4464 9.87461
140 2 15.713 35.3669 9.83807
141 2 19.8102 35.3442 9.74357
142 2 23.9498 35.5626 9.90446
143 2 28.0203 35.5004 9.80552
144 2 31.7736 35.693 9.99663
145 2 35.6443 35.6674 9.96863
146 2 39.6594 35.5782 9.93601
147 2 43.5857 35.6166 9.91527
148 2 47.6713 35.7925 9.97339
149 2 51.4577 35.6202 9.99789
150 2 55.5156 35.5363 9.91751
151 2 0.0610444 39.6434 10.0475
152 2 3.98308 39.4845 9.89483
153 2 8.12535 39.4874 9.90996
154 2 11.8968 39.5853 9.89708
155 2 15.9554 39.3304 9.90756
156 2 19.8293 39.311 9.83786
157 2 23.7387 39.3968 10.2226
158 2 27.8147 39.5219 9.86388
159 2 31.7321 39.5405 9.9479
160 2 35.6843 39.4118 9.97005
161 2 39.6362 39.659 9.78708
162 2 43.5772 39.6175 9.88561
163 2 47.3629 39.4816 10.0205
164 2 51.4474 39.542 10.1068
165 2 55.2528 39.438 10.0385
166 2 0.294799 43.47 9.93884
167 2 3.8925 43.543 10.0735
168 2 7.77003 43.5292 10.0992
169 2 11.9494 43.4107 10.0039
170 2 15.8543 43.3019 9.96328
171 2 19.7358 43.3832 9.95381
172 2 23.8777 43.3835 10.11
173 2 27.6735 43.419 9.92232
174 2 31.7639 43.5687 9.93609
175 2 35.7573 43.3924 9.96625
176 2 39.6798 43.3062 10.0177
177 2 43.6319 43.5004 10.0501
178 2 47.5909 43.6056 9.98133
179 2 51.2773 43.6737 9.83502
180 2 55.4074 43.5395 10.0372
181 2 59.3432 47.4794 10.0077
182 2 3.9586 47.3794 9.81348
183 2 8.07441 47.349 9.80456
184 2 11.9303 47.5676 9.80176
185 2 15.9071 47.5707 10.0709
186 2 19.951 47.4192 9.88033
187 2 23.6844 47.3514 9.92519
188 2 27.5902 47.434 9.80393
189 2 31.7394 47.3869 9.97192
190 2 35.3336 47.4827 9.86862
191 2 39.6534 47.2231 9.79124
192 2 43.4895 47.3066 9.9134
193 2 47.6189 47.3808 9.87243
194 2 51.3953 47.6271 9.92301
195 2 55.4158 47.7511 9.88643
196 2 59.4746 51.285 9.99491
197 2 3.87644 51.3624 10.0471
198 2 7.98538 51.4194 9.92503
199 2 11.9628 51.2847 9.77376
200 2 15.8134 51.5642 9.99003
201 2 20.0497 51.3794 9.64363
202 2 23.8456 51.4728 10.066
203 2 27.7789 51.3113 9.93823
204 2 31.579 51.1495 9.85887
205 2 35.5529 51.3689 10.0232
206 2 39.6748 51.4553 9.90553
207 2 43.7795 51.2397 10.0949
208 2 47.5612 51.3558 10.0862
209 2 51.3978 51.3259 9.85813
210 2 55.5547 51.673 10.1251
211 2 -0.0275742 55.3007 9.9607
212 2 4.05246 55.4822 9.70496
213 2 8.03841 55.5105 9.97006
214 2 12.0531 55.2803 9.83663
215 2 16.0252 55.6451 9.76294
216 2 19.84 55.0157 9.90762
217 2 23.6549 55.4061 10.0034
218 2 27.6929 55.2761 10.02
219 2 31.803 55.3679 9.89889
220 2 35.81 55.4286 9.89049
221 2 39.4893 55.4506 9.98643
222 2 43.7595 55.3461 9.9526
223 2 47.6159 55.3697 9.87674
224 2 51.4738 55.3954 9.79921
225 2 55.2459 55.1434 9.9955
226 2 59.3316 59.3784 13.8194
227 2 4.0264 -0.135872 13.9235
228 2 8.00089 -0.194146 13.943
229 2 11.9226 0.123283 13.7843
230 2 15.9708 -0.124294 14.1037
231 2 19.9236 59.5594 13.8556
232 2 23.8948 -0.223513 13.8715
233 2 27.7388 -0.0467503 13.9769
234 2 31.6021 0.110548 13.8175
235 2 35.598 -0.0897019 14.0651
236 2 39.4777 -0.147968 14.0488
237 2 43.5741 0.183803 13.8841
238 2 47.6485 59.3603 13.9727
239 2 51.4376 59.4222 13.9243
240 2 55.3718 0.169073 14.0221
241 2 0.22944 4.14077 13.717
242 2 4.05874 3.76001 13.987
243 2 8.03566 3.88065 13.9977
244 2 12.0862 3.90738 14.0448
245 2 16.0075 4.0984 13.7703
246 2 19.9722 4.12626 13.871
247 2 23.8628 3.9598 13.8481
248 2 27.7798 3.88411 13.8341
249 2 31.6628 4.10003 13.9508
250 2 35.7511 3.96836 13.9729
251 2 39.8008 3.80399 13.6339
252 2 43.6276 3.91553 14.0829
253 2 47.5687 4.00773 13.9042
254 2 51.2555 4.06615 13.7694
255 2 55.4755 3.91381 13.8855
256 2 0.0195631 7.97996 13.8485
257 2 4.16922 8.12776 13.8185
258 2 8.13237 7.8571 13.8363
259 2 12.0225 7.81198 13.9005
260 2 15.9109 7.90809 13.6965
261 2 19.9698 7.76483 13.9082
262 2 23.8976 8.00507 13.6526
263 2 28.0136 7.73044 13.9598
264 2 31.6935 8.0749 13.882
265 2 35.698 7.86651 14.0705
266 2 39.6905 7.88655 13.7984
267 2 43.5162 7.94431 14.0238
268 2 47.4296 7.93135 14.0202
269 2 51.5334 7.90897 13.9666
270 2 55.4988 7.97973 14.0452
271 2 0.207359 11.9401 13.6686
272 2 3.91889 11.9123 13.9757
273 2 7.98106 11.7119 13.8444
274 2 12.0748 11.9248 13.9582
275 2 15.9305 11.6119 13.7801
276 2 19.9004 11.713 13.8714
277 2 23.8516 11.9016 14.036
278 2 27.818 11.7926 13.9984
279 2 31.7411 11.8531 13.9944
280 2 35.636 11.7284 13.8682
281 2 39.7727 12.0083 13.9357
282 2 43.6497 12.0806 13.9698
283 2 47.6754 11.8771 14.0998
284 2 51.5825 11.8444 13.8744
285 2 55.4899 11.9123 13.8711
286 2 0.151868 15.9665 13.6762
287 2 4.12821 15.8391 13.818
288 2 8.08896 15.7239 13.8513
289 2 12.008 15.8302 13.8373
290 2 15.9642 15.4896 13.9294
291 2 19.9297 15.8766 13.9475
292 2 23.9113 15.8929 13.8743
293 2 27.7076 15.9007 13.8731
294 2 31.5863 15.9441 13.8853
295 2 35.8389 15.8058 13.8735
296 2 39.7843 15.8063 13.7939
297 2 43.6083 15.9608 13.9744
298 2 47.6344 15.9206 13.889
299 2 51.54 15.8911 13.8667
300 2 55.4165 15.7141 13.9191
301 2 0.10392 19.9275 13.8446
302 2 4.12999 19.651 14.0008
303 2 8.13444 19.7742 13.9486
304 2 11.9117 19.6371 13.9873
305 2 15.8047 19.8117 13.8008
306 2 19.9633 19.7755 13.8663
307 2 23.8554 19.8857 13.8145
308 2 27.7686 19.8409 13.9192
309 2 31.5608 19.8027 13.9594
310 2 35.5779 19.8437 14.166
311 2 39.3941 19.9201 13.9477
312 2 43.6352 19.9317 13.7505
313 2 47.4742 19.9417 14.1344
314 2 51.71 20.0558 13.9282
315 2 55.5111 19.8755 13.7804
316 2 0.092449 23.9263 14.0217
317 2 4.03002 23.789 13.8893
318 2 8.08038 23.9282 13.8017
319 2 12.1555 23.6686 14.0303
320 2 16.0737 23.5758 14.011
321 2 19.8662 23.6658 13.8977
322 2 23.7112 23.7042 14.0008
323 2 27.7914 23.8417 14.0507
324 2 31.6123 23.5559 13.7031
325 2 35.5814 23.5053 13.9444
326 2 39.7692 23.8073 13.888
327 2 43.509 23.8595 13.8624
328 2 47.5761 23.727 13.7568
329 2 51.6187 23.7616 13.9744
330 2 55.4157 23.8132 13.9638
331 2 59.3902 27.8084 13.8037
332 2 4.14638 27.7584 13.8613
333 2 7.98606 27.8327 13.9417
334 2 12.0097 27.6234 13.9153
335 2 15.8726 27.5343 13.852
336 2 19.8539 27.8328 13.7743
337 2 23.7689 27.6554 13.8067
338 2 27.7983 27.5799 14.0037
339 2 31.7142 27.8643 13.8867
340 2 35.6184 27.5994 13.9156
341 2 39.4222 27.7395 13.942
342 2 43.5753 27.7425 13.9012
343 2 47.5073 27.7252 13.7996
344 2 51.6183 27.5576 14.0976
345 2 55.5709 27.5842 13.9063
346 2 0.12968 31.5544 13.7978
347 2 4.02786 31.7167 13.9501
348 2 7.96624 31.85 13.8392
349 2 11.9572 31.8095 13.9089
350 2 15.9164 31.6204 13.78
351 2 19.8403 31.5732 13.9265
352 2 23.8624 31.6027 13.9551
353 2 27.9098 31.5955 13.9603
354 2 31.8244 31.8087 13.8259
355 2 35.8968 31.7584 13.9431
356 2 39.7743 31.6631 13.8001
357 2 43.5132 31.7722 13.8651
358 2 47.6034 31.7993 13.9456
359 2 51.6732 31.4106 14.0622
360 2 55.6421 31.6317 13.9706
361 2 0.198426 35.5559 13.8285
362 2 4.03658 35.7028 13.9429
363 2 8.04133 35.6001 13.8904
364 2 12.1982 35.5874 13.986
365 2 16.0422 35.541 13.746
366 2 20.0187 35.4805 13.941
367 2 23.7896 35.3226 13.8953
368 2 27.9682 35.3405 13.663
369 2 31.7925 35.5129 13.8156
370 2 35.626 35.6429 13.9037
371 2 39.5004 35.6732 13.994
372 2 43.4964 35.3096 13.8783
373 2 47.3855 35.6108 14.0343
374 2 51.5081 35.7127 14.0207
375 2 55.6756 35.4902 13.9346
376 2 0.175907 39.5736 13.825
377 2 4.10197 39.3599 13.8058
378 2 7.98098 39.4858 14.0453
379 2 12.1691 39.4717 13.6874
380 2 15.952 39.3909 13.9368
381 2 19.8177 39.3817 13.8531
382 2 23.6765 39.3485 14.0691
383 2 27.6447 39.6962 13.7577
384 2 31.4896 39.5541 14.0065
385 2 35.6135 39.5571 14.0115
386 2 39.5949 39.4803 14.0407
387 2 43.5235 39.4399 14.0407
388 2 47.5577 39.5157 13.9932
389 2 51.4691 39.6952 13.9756
390 2 55.5508 39.4551 14.0366
391 2 0.0562803 43.2963 13.964
392 2 4.06822 43.4087 14.0655
393 2 7.91958 43.4014 13.8376
394 2 11.9616 43.5612 13.8456
395 2 15.8148 43.4825 13.9464
396 2 19.823 43.5025 13.9736
397 2 23.7299 43.4235 13.8822
398 2 27.7104 43.5137 13.9326
399 2 31.6391 43.4281 13.9623
400 2 35.5898 43.3412 13.7798
401 2 39.5511 43.7425 13.9051
402 2 43.6661 43.5324 13.922
403 2 47.5042 43.4325 13.9504
404 2 51.5291 43.4821 13.9568
405 2 55.5772 43.6445 13.8856
406 2 59.2976 47.3379 13.9855
407 2 3.99879 47.5389 13.9869
408 2 7.92259 47.5229 13.781
409 2 12.1394 47.4363 13.6597
410 2 16.1082 47.4289 13.8806
411 2 19.765 47.4604 13.9309
412 2 23.6867 47.3575 13.9219
413 2 27.774 47.3908 14.0124
414 2 31.5558 47.5202 13.9971
415 2 35.6663 47.5766 13.8116
416 2 39.5826 47.5353 13.8692
417 2 43.4697 47.4678 13.8651
418 2 47.5128 47.745 14.0441
419 2 51.6408 47.4178 14.0426
420 2 55.6482 47.3477 13.6955
421 2 -0.0994758 51.5376 13.9329
422 2 3.99527 51.447 13.9848
423 2 8.05298 51.2735 13.8376
424 2 12.066 51.5005 13.7895
425 2 16.0079 51.3736 13.6218
426 2 19.8186 51.2973 13.9695
427 2 23.8768 51.3568 13.9256
428 2 27.8857 51.4957 13.9321
429 2 31.6844 51.5843 13.8857
430 2 35.7627 51.5236 13.8638
431 2 39.799 51.4457 13.906
432 2 43.534 51.4975 14.0745
433 2 47.404 51.4808 14.0497
434 2 51.4324 51.2724 13.9943
435 2 55.4766 51.2788 13.963
436 2 0.0515221 55.4496 13.8039
437 2 4.24334 55.5211 13.8841
438 2 8.39272 55.2593 13.8255
439 2 11.9552 55.4992 13.934
440 2 15.8442 55.3341 13.9386
441 2 19.8181 55.4976 13.8894
442 2 23.7387 55.428 13.8786
443 2 27.8645 55.2571 13.9799
444 2 31.7098 55.6727 13.6855
445 2 35.6728 55.396 13.8422
446 2 39.4768 55.4146 13.9976
447 2 43.4711 55.2515 13.7927
448 2 47.5587 55.3688 14.0976
449 2 51.5729 55.533 13.9761
450 2 55.2322 55.4882 13.8203
451 2 59.3533 0.178541 17.5979
452 2 4.12086 59.2834 17.8269
453 2 8.00127 0.0421086 17.8853
454 2 11.9892 0.16673 17.9806
455 2 16.0017 59.6334 17.8079
456 2 19.8568 0.185868 17.9405
457 2 23.831 59.4238 17.956
458 2 27.8888 -0.0493181 18.0949
459 2 31.8294 0.0137895 17.8422
460 2 35.7238 0.160705 18.0454
461 2 39.6263 0.0405668 17.7839
462 2 43.6183 0.126578 18.026
463 2 47.8072 0.00652723 17.893
464 2 51.6665 0.0688559 17.8421
465 2 55.4838 0.223928 17.7938
466 2 0.128924 3.9888 17.9553
467 2 4.02393 4.12548 17.8996
468 2 7.97233 4.10388 18.0482
469 2 12.0817 4.0634 17.9887
470 2 16.0708 4.02893 17.8544
471 2 19.9387 4.10074 17.9143
472 2 23.8483 4.02465 17.8404
473 2 27.943 3.93175 17.9919
474 2 31.896 4.07276 17.8694
475 2 35.7546 3.99052 17.876
476 2 39.6206 3.82176 17.8661
477 2 43.5298 3.87208 17.9386
478 2 47.5738 3.93544 17.9459
479 2 51.5377 4.11741 17.8098
480 2 55.4552 4.06129 18.0224
481 2 59.4851 7.97438 17.7021
482 2 4.09562 8.03502 17.6207
483 2 7.80322 7.97984 17.9045
484 2 12.1644 8.06066 17.6472
485 2 16.1325 8.0362 17.822
486 2 19.9195 8.09237 18.0409
487 2 23.7419 8.05503 17.8603
488 2 27.579 7.91651 17.6879
489 2 31.9558 7.91594 17.9209
490 2 35.9603 7.97948 17.7315
491 2 39.7037 7.77366 18.0259
492 2 43.7237 7.96031 17.9327
493 2 47.7372 8.10229 17.8394
494 2 51.6625 7.82421 17.8955
495 2 55.8717 7.82893 17.7588
496 2 59.5772 11.8649 17.8451
497 2 4.04263 12.106 17.7018
498 2 7.98648 11.7921 17.7363
499 2 12.0242 11.8783 17.9
500 2 15.9221 11.5849 17.9158
501 2 20.0099 11.9802 18.0201
502 2 24.001 11.8185 17.9
503 2 28.0205 11.9257 17.8386
504 2 31.8585 11.845 17.9519
505 2 36.0427 11.8587 17.7852
506 2 39.7882 11.7256 17.901
507 2 43.8141 11.6665 17.772
508 2 47.8237 11.8994 17.9731
509 2 51.5717 11.8638 18.0071
510 2 55.6244 11.8836 17.8309
511 2 59.5041 15.7422 17.9083
512 2 4.1015 15.7748 17.9212
513 2 8.00079 15.7997 17.8699
514 2 11.9081 15.9343 18.0402
515 2 15.9191 15.8657 17.8802
516 2 19.8603 15.8503 17.8843
517 2 23.8177 15.4982 17.7665
518 2 27.8631 15.8542 17.884
519 2 31.8739 15.773 17.9708
520 2 35.5963 15.905 17.8796
521 2 39.5963 15.7357 17.8463
522 2 43.4938 15.9703 17.7564
523 2 47.5538 15.7735 17.6433
524 2 51.5349 15.9363 17.7727
525 2 55.7601 15.8585 17.7314
526 2 59.6147 19.8376 17.8306
527 2 4.17072 19.9114 17.8799
528 2 8.17167 19.8399 17.94
529 2 11.9698 19.7939 18.0078
530 2 15.9034 19.707 18.0121
531 2 19.8129 19.7674 17.9056
532 2 23.9522 19.6363 18.012
533 2 27.6515 19.9039 17.8907
534 2 31.7357 19.7721 17.9226
535 2 35.7633 19.7439 17.9202
536 2 39.6856 19.9436 17.8086
537 2 43.6175 19.9981 17.924
538 2 47.6521 19.7067 17.9299
539 2 51.615 19.783 17.9441
540 2 55.7072 19.7251 18.0042
541 2 0.235875 23.8079 17.7212
542 2 4.09092 23.7872 17.822
543 2 7.87295 23.7959 17.9168
544 2 12.0489 23.6561 17.9124
545 2 16.0599 23.5888 17.9244
546 2 19.9799 23.8266 17.5064
547 2 23.8083 23.6614 17.9782
548 2 27.8303 23.9424 18.0533
549 2 31.674 23.7146 18.0008
550 2 35.6968 23.6953 17.9357
551 2 39.4732 24.0224 17.5827
552 2 43.6046 23.8204 17.6659
553 2 47.7317 23.8074 17.9571
554 2 51.6127 23.6761 17.9747
555 2 55.6347 23.7485 18.0238
556 2 59.496 27.8088 17.8631
557 2 4.01939 27.847 17.8781
558 2 7.97298 27.6305 17.7942
559 2 12.007 27.606 17.7841
560 2 15.9651 27.3935 17.9348
561 2 19.9088 27.5709 17.8412
562 2 23.8089 27.6882 17.8418
563 2 27.5989 27.9149 18.0556
564 2 31.8474 27.6997 17.9639
565 2 35.5737 27.6379 17.8966
566 2 39.5317 27.7002 18.0575
567 2 43.7714 27.7723 17.8689
568 2 47.5371 27.6889 17.7637
569 2 51.6812 27.7185 17.9564
570 2 55.5317 27.7109 18.1029
571 2 0.0222684 31.7732 17.7065
572 2 3.99797 31.6992 17.9408
573 2 8.10939 31.7661 18.0127
574 2 11.9207 31.5825 17.9608
575 2 15.8623 31.5572 17.9411
576 2 19.741 31.6586 17.899
577 2 23.98 31.7547 17.7037
578 2 27.8106 31.6952 18.0662
579 2 31.8171 31.8957 17.7798
580 2 35.7491 31.5601 17.9309
581 2 39.6765 31.4881 17.8202
582 2 43.8797 31.6689 17.7899
583 2 47.5606 31.7368 18.034
584 2 51.5125 31.6751 17.997
585 2 55.4873 31.7565 17.9346
586 2 0.180224 35.5757 17.6958
587 2 3.986 35.4374 17.9384
588 2 8.13667 35.7498 18.0083
589 2 12.0861 35.724 17.92
590 2 15.9326 35.4993 17.9496
591 2 19.7428 35.5448 17.8829
592 2 23.9043 35.7334 17.9618
593 2 27.8963 35.4732 17.8773
594 2 31.8597 35.7284 17.852
595 2 35.7768 35.3797 17.9238
596 2 39.7057 35.6164 17.8366
597 2 43.71 35.7824 18.0078
598 2 47.4795 35.5655 18.0176
599 2 51.6226 35.7256 17.8684
600 2 55.4722 35.8114 17.9356
601 2 0.108022 39.6332 18.0628
602 2 4.12829 39.5293 17.9991
603 2 8.10373 39.6257 17.7942
604 2 12.0938 39.6135 18.0409
605 2 15.9625 39.5953 17.9702
606 2 19.8749 39.6553 17.953
607 2 23.789 39.6702 17.9127
608 2 27.8025 39.4949 17.8522
609 2 31.8288 39.6769 18.0333
610 2 35.651 39.5342 18.0261
611 2 39.6632 39.5248 18.1081
612 2 43.5946 39.6676 17.8923
613 2 47.5335 39.5165 17.9942
614 2 51.3412 39.638 17.9468
615 2 55.5447 39.691 17.7488
616 2 0.217404 43.2644 17.8303
617 2 4.13321 43.7197 17.8735
618 2 8.06195 43.3676 17.7066
619 2 11.9134 43.6999 17.8623
620 2 15.8338 43.4535 17.8612
621 2 19.7513 43.6628 17.8996
622 2 23.7789 43.5836 17.9703
623 2 27.6896 43.6688 17.8056
624 2 31.7199 43.5423 17.8909
625 2 35.5053 43.642 17.8036
626 2 39.6583 43.4863 17.9708
627 2 43.6106 43.6539 17.9643
628 2 47.6016 43.8006 17.7705
629 2 51.701 43.6099 17.8913
630 2 55.3857 43.5169 18.0499
631 2 0.274423 47.4974 17.778
632 2 4.05468 47.6849 18.0155
633 2 8.14038 47.2952 17.7958
634 2 11.9638 47.6658 17.6813
635 2 15.7865 47.7406 17.8405
636 2 20.0079 47.5681 18.0205
637 2 23.8166 47.5266 17.6479
638 2 27.9208 47.4337 17.8294
639 2 31.8371 47.6644 17.9221
640 2 35.6817 47.6396 17.9404
641 2 39.4669 47.5304 17.9078
642 2 43.579 47.5562 17.9319
643 2 47.4559 47.4911 18.0083
644 2 51.3624 47.5358 18.0602
645 2 55.6537 47.3239 17.8798
646 2 0.158092 51.5744 17.6116
647 2 4.10451 51.5265 17.6218
648 2 8.01585 51.271 17.7732
649 2 12.0761 51.3944 17.8146
650 2 15.8602 51.4297 17.7517
651 2 19.8374 51.4546 17.7642
652 2 23.6741 51.4911 17.9294
653 2 27.8532 51.5798 17.9052
654 2 31.7279 51.4552 17.9078
655 2 35.7132 51.5445 17.8423
656 2 39.7107 51.4449 17.8978
657 2 43.5372 51.3356 18.0263
658 2 47.5242 51.7649 17.8927
659 2 51.4744 51.4111 17.9014
660 2 55.653 51.3889 17.8654
661 2 0.0759005 55.3914 18.0291
662 2 4.19102 55.6433 17.9002
663 2 8.07576 55.4434 17.8822
664 2 12.0918 55.319 17.9354
665 2 15.9815 55.3324 17.8109
666 2 19.5754 55.4772 17.9868
667 2 23.5041 55.3853 17.8828
668 2 27.8078 55.4004 17.8608
669 2 31.8258 55.3581 17.9649
670 2 35.7487 55.3589 17.9656
671 2 39.7437 55.4549 17.8468
672 2 43.6521 55.6743 17.965
673 2 47.607 55.657 17.9417
674 2 51.5396 55.3026 18.0415
675 2 55.4295 55.4806 17.7552
676 2 0.152519 0.0687387 21.8442
677 2 4.08538 0.0573558 21.8648
678 2 8.19484 0.0827142 21.8683
679 2 12.0269 0.123219 21.8787
680 2 15.7846 0.132067 21.9837
681 2 19.9177 0.308593 21.9812
682 2 24.1427 0.170828 21.9692
683 2 27.963 0.237748 21.8344
684 2 31.7481 0.136531 22.0649
685 2 35.7514 -0.0673091 21.981
686 2 39.7076 0.0258623 21.9268
687 2 43.8591 -0.000703905 22.0573
688 2 47.7705 0.0378967 21.7754
689 2 51.5847 59.5313 21.7737
690 2 55.5725 0.114106 21.8867
691 2 0.116651 4.00895 21.9921
692 2 3.99744 4.08964 21.7395
693 2 8.05615 4.21658 21.8118
694 2 11.998 4.24666 21.7888
695 2 15.8626 4.08224 22.096
696 2 19.8947 4.04855 21.963
697 2 24.023 4.05007 21.9578
698 2 27.7645 4.03541 21.9227
699 2 31.918 3.88976 21.9465
700 2 35.7315 4.07836 22.013
701 2 39.7265 4.0687 21.9543
702 2 43.5039 3.91614 21.763
703 2 47.6197 3.94724 22.0468
704 2 51.5401 4.1376 21.8387
705 2 55.5706 4.23781 21.9441
706 2 59.4554 7.99477 21.8025
707 2 4.00158 7.88936 21.747
708 2 8.11512 7.98333 21.6945
709 2 11.9784 8.0342 22.0208
710 2 15.9106 8.01633 21.9303
711 2 19.8812 7.99088 21.9356
712 2 23.9827 7.72575 21.9049
713 2 27.9805 7.91855 21.8499
714 2 31.8249 8.13439 21.6161
715 2 35.9435 7.91477 21.8889
716 2 39.7832 8.14303 21.9497
717 2 43.6833 7.95134 21.8016
718 2 47.4925 8.00638 21.9797
719 2 51.4964 7.96626 21.8869
720 2 55.3494 8.14902 21.8541
721 2 0.264036 11.8774 21.8756
722 2 3.94199 11.9988 21.8225
723 2 8.05767 11.8665 21.7734
724 2 11.9943 11.7325 21.8767
725 2 16.0344 12.0952 21.9763
726 2 19.7967 11.9161 22.064
727 2 23.9571 11.7544 21.7759
728 2 27.9724 11.9449 21.7894
729 2 31.9162 11.8955 21.9548
730 2 35.7183 12.048 21.7014
731 2 39.6268 11.9574 21.819
732 2 43.7451 12.0791 21.6883
733 2 47.5671 12.0035 22.0167
734 2 51.4876 12.081 21.8591
735 2 55.2421 12.1151 21.9632
736 2 0.0321346 16.0472 21.9215
737 2 4.00811 15.8441 21.9299
738 2 8.16923 15.8884 21.7031
739 2 12.1295 15.9082 21.8331
740 2 15.9724 15.8196 21.9486
741 2 19.9348 15.7476 22.1233
742 2 23.8896 15.7174 22.1084
743 2 28.0298 15.7608 21.9005
744 2 31.7352 15.8782 21.8313
745 2 35.883 15.9401 21.7428
746 2 39.8099 15.8947 21.8631
747 2 43.7046 16.0334 21.862
748 2 47.7272 15.865 21.7286
749 2 51.5179 16.0236 21.8622
750 2 55.4979 15.8838 21.7883
751 2 59.543 19.9506 21.947
752 2 3.94049 19.8181 21.9578
753 2 7.93434 19.9859 21.878
754 2 12.1026 20.0019 21.9007
755 2 16.0305 19.838 21.773
756 2 19.9503 19.5488 21.7441
757 2 23.8944 19.6611 21.9283
758 2 27.7676 19.9383 21.9121
759 2 31.779 19.8912 21.7421
760 2 35.6012 19.7986 21.9062
761 2 39.8455 19.7975 21.6522
762 2 43.76 19.8404 21.826
763 2 47.6267 19.6936 21.8793
764 2 51.5371 19.6821 22.0123
765 2 55.4993 19.7867 21.9162
766 2 59.4212 23.6569 21.9312
767 2 4.19823 23.778 21.7601
768 2 8.024 23.8803 21.9929
769 2 12.0501 23.8114 21.9361
770 2 16.033 23.7584 21.9002
771 2 19.9514 23.817 21.8313
772 2 23.6855 23.8392 21.9017
773 2 27.8893 23.7383 21.869
774 2 31.6562 23.7404 22.0076
775 2 35.8931 23.6377 21.8624
776 2 39.8147 23.5904 21.8472
777 2 43.8119 23.8374 21.8303
778 2 47.6434 23.8761 22.0082
779 2 51.6317 23.7734 21.9395
780 2 55.5723 23.8337 21.9997
781 2 59.6329 27.7601 21.8781
782 2 3.95688 27.7587 21.964
783 2 7.71232 27.8307 21.79
784 2 12.0129 27.695 21.9283
785 2 15.975 27.6476 21.7804
786 2 19.7729 27.6723 21.9525
787 2 23.7876 27.8051 21.9401
788 2 27.8519 27.8748 21.9269
789 2 31.9239 27.7697 21.9076
790 2 35.8158 27.6829 22.054
791 2 39.6362 27.5771 21.7181
792 2 43.716 27.736 21.7682
793 2 47.761 27.7186 21.7284
794 2 51.6455 27.8673 21.8229
795 2 55.6322 27.6633 22.0462
796 2 59.5774 31.6042 21.8606
797 2 3.97704 31.7212 21.89
798 2 8.01529 31.6514 21.9356
799 2 11.9397 31.7896 21.9161
800 2 15.8293 31.6036 21.8737
801 2 19.9198 31.7893 21.9046
802 2 23.6656 31.7738 21.6838
803 2 27.8817 31.7418 22.0872
804 2 31.6985 31.6364 21.9817
805 2 35.6879 31.7127 22.0026
806 2 39.5467 31.722 21.8886
807 2 43.6211 31.8012 21.8772
808 2 47.4263 31.6511 21.9776
809 2 51.4644 31.7174 21.8433
810 2 55.3852 31.7184 21.9697
811 2 59.4181 35.9207 21.7433
812 2 4.01297 35.6551 21.8067
813 2 8.215 35.7108 21.769
814 2 12.005 35.621 21.9711
815 2 15.9669 35.6183 21.9881
816 2 19.8096 35.7513 21.7903
817 2 23.8044 35.8236 21.97
818 2 27.7224 35.7499 21.7816
819 2 31.6512 35.6808 21.8543
820 2 35.6006 35.7177 21.794
821 2 39.7671 35.4438 21.9303
822 2 43.6335 35.6758 21.902
823 2 47.7194 35.6008 21.9247
824 2 51.6911 35.6759 21.8345
825 2 55.6224 35.6449 21.9994
826 2 0.339002 39.7464 21.8356
827 2 4.1354 39.4699 21.7539
828 2 7.933 39.5686 21.8613
829 2 12.0344 39.7719 21.9549
830 2 15.9601 39.7333 21.8658
831 2 19.9425 39.7348 21.9865
832 2 23.8679 39.7192 21.9694
833 2 27.9038 39.6626 21.9766
834 2 31.5898 39.6847 21.8569
835 2 35.5682 39.6219 21.8379
836 2 39.5626 39.5378 21.9986
837 2 43.596 39.6821 21.9192
838 2 47.7455 39.7462 21.7282
839 2 51.5365 39.6216 21.9699
840 2 55.2957 39.6751 21.8069
841 2 0.117657 43.5256 21.979
842 2 4.17939 43.5793 21.8418
843 2 8.06355 43.601 22.0386
844 2 11.9168 43.774 22.003
845 2 15.9046 43.6061 21.8409
846 2 19.7681 43.6466 21.7899
847 2 23.9512 43.6856 21.9392
848 2 27.7799 43.7561 21.8022
849 2 31.7537 43.5775 21.993
850 2 35.493 43.69 21.8245
851 2 39.6129 43.2914 21.8706
852 2 43.6866 43.5466 21.85
853 2 47.6915 43.4219 21.8739
854 2 51.6127 43.5808 21.9345
855 2 55.5759 43.5311 21.8584
856 2 59.306 47.5425 21.9604
857 2 3.92294 47.7022 21.7003
858 2 7.8326 47.6368 21.9041
859 2 11.8891 47.6197 21.8779
860 2 15.903 47.6166 21.7709
861 2 19.9621 47.7092 21.7961
862 2 23.9158 47.5016 22.0069
863 2 27.8361 47.5414 21.7513
864 2 31.7216 47.4763 21.8264
865 2 35.8512 47.5117 21.9741
866 2 39.8001 47.5187 21.9956
867 2 43.4959 47.5146 21.9354
868 2 47.331 47.7204 21.9879
869 2 51.595 47.5666 21.8899
870 2 55.6063 47.6588 21.948
871 2 0.0715914 51.6574 21.7315
872 2 4.08067 51.5541 21.4692
873 2 7.99801 51.734 21.8141
874 2 11.9072 51.5118 21.8446
875 2 16.0609 51.3492 22.0208
876 2 19.8734 51.5427 21.9566
877 2 23.7441 51.6264 21.8695
878 2 27.7549 51.5098 21.8474
879 2 31.758 51.4439 21.8192
880 2 35.5267 51.5372 21.9014
881 2 39.4307 51.6703 21.9499
882 2 43.5837 51.4778 21.8727
883 2 47.6179 51.3971 21.9466
884 2 51.5982 51.4921 21.8846
885 2 55.7254 51.5548 21.7722
886 2 0.201259 55.3967 21.7928
887 2 4.0482 55.3704 21.8324
888 2 8.01523 55.5084 21.8479
889 2 12.0033 55.3245 21.9318
890 2 15.8602 55.5625 21.7745
891 2 19.9052 55.6143 21.8857
892 2 24.017 55.5596 21.8407
893 2 27.8009 55.3935 21.9806
894 2 31.9749 55.643 21.9281
895 2 35.8985 55.516 21.7803
896 2 39.7196 55.5444 21.9204
897 2 43.6474 55.6136 21.9446
898 2 47.7538 55.3798 21.8667
899 2 51.6411 55.3934 21.8864
900 2 55.6544 55.7083 21.5817
901 2 59.5619 0.124436 25.7806
902 2 3.8918 0.131116 25.8156
903 2 8.03141 0.0741135 25.6261
904 2 11.9155 0.121566 25.8668
905 2 16.0278 0.177788 25.9841
906 2 19.79 0.0442447 25.9404
907 2 23.8685 0.125964 25.9462
908 2 27.8105 0.015787 25.8988
909 2 31.5937 0.00423881 25.9144
910 2 35.6712 -0.040748 26.0231
911 2 39.4656 0.00495253 25.887
912 2 43.752 -0.0250631 25.8148
913 2 47.3749 0.0787153 26.0028
914 2 51.4927 0.240339 25.8092
915 2 55.3654 0.257062 25.8051
916 2 0.0610284 4.16289 25.9872
917 2 3.91853 4.19362 25.9333
918 2 8.09706 4.14772 25.7031
919 2 12.1215 4.07258 25.8188
920 2 15.89 4.27689 25.8727
921 2 19.8408 4.03665 25.9161
922 2 23.7003 4.11459 25.9468
923 2 27.892 4.12066 26.0566
924 2 31.7071 4.05839 25.9762
925 2 35.619 4.09056 26.0689
926 2 39.6216 4.04314 25.7877
927 2 43.6101 4.14336 25.9187
928 2 47.6224 3.92529 25.8822
929 2 51.6966 4.06248 26.0633
930 2 55.4115 4.07293 26.0259
931 2 0.111906 8.11616 25.8649
932 2 4.16146 8.0664 25.7595
933 2 7.80436 8.02371 25.8265
934 2 11.7865 7.90172 26.0029
935 2 15.9137 8.04905 25.8717
936 2 20.0432 7.91997 26.0106
937 2 23.8604 8.01552 25.9836
938 2 27.9243 7.87997 25.8608
939 2 31.7971 8.16874 25.7001
940 2 35.5582 7.74832 25.8949
941 2 39.603 8.05555 25.7551
942 2 43.693 8.00755 25.8535
943 2 47.4918 8.10334 25.9046
944 2 51.6434 8.0216 25.865
945 2 55.4909 8.10204 25.7917
946 2 -0.0946123 12.0221 25.7506
947 2 3.82617 11.9486 25.8641
948 2 8.16107 11.9677 25.8087
949 2 11.901 11.7574 25.8383
950 2 15.8964 11.7251 25.973
951 2 19.8236 12.0033 25.8556
952 2 23.9533 11.7798 25.8479
953 2 27.849 11.8708 26.0128
954 2 31.9825 11.8974 25.8464
955 2 35.7382 11.9236 25.9482
956 2 39.6863 12.04 25.9512
957 2 43.4873 12.1546 25.7273
958 2 47.6406 12.1125 25.7448
959 2 51.5549 11.8553 25.8468
960 2 55.4181 12.0023 25.8362
961 2 59.3119 15.9044 25.7429
962 2 4.02036 15.8589 26.0151
963 2 8.1036 16.0819 25.5383
964 2 11.9321 15.9697 25.9617
965 2 15.7619 15.9117 25.9328
966 2 19.8392 15.8293 26.0569
967 2 23.909 16.0922 25.8768
968 2 27.8134 15.9072 25.9872
969 2 32.0797 15.8457 25.7989
970 2 35.7269 15.923 25.9039
971 2 39.642 15.9179 25.8416
972 2 43.6525 16.0052 26.0779
973 2 47.4946 16.0272 25.8798
974 2 51.5162 15.7419 25.8726
975 2 55.3826 15.9044 25.9534
976 2 59.4675 19.9512 25.7447
977 2 4.32034 19.7301 25.8949
978 2 8.08229 19.8611 25.894
979 2 11.9128 19.9776 25.8541
980 2 15.9611 20.0974 25.975
981 2 19.9494 19.7553 25.8596
982 2 23.9591 19.9821 25.7442
983 2 27.8152 19.8977 25.8981
984 2 31.8132 19.7265 26.0325
985 2 35.778 20.0737 25.846
986 2 39.8219 19.7758 25.9119
987 2 43.6707 20.0797 25.8107
988 2 47.7348 19.9156 25.9964
989 2 51.544 19.9999 25.8729
990 2 55.5708 19.8261 25.9845
991 2 59.3586 23.8153 25.6867
992 2 4.07078 23.9813 25.7873
993 2 8.10067 23.9097 25.786
994 2 12.0165 23.8954 25.8093
995 2 15.8821 23.8036 25.8123
996 2 19.9964 23.6811 25.8521
997 2 23.6303 23.8448 25.8172