ITEM: TIMESTEP
1524300
ITEM: NUMBER OF ATOMS
16875
ITEM: BOX BOUNDS xy xz yz pp pp pp
0.0000000000000000e+00 5.9369999999999997e+01 0.0000000000000000e+00
0.0000000000000000e+00 5.9369999999999997e+01 0.0000000000000000e+00
2.7945552571809529e-01 6.0086963474284772e+01 0.0000000000000000e+00
ITEM: ATOMS id type x y z
1 2 0.181825 0.0964125 10.0247
2 2 4.208 -0.0410151 9.8065
3 2 7.97748 59.2403 9.93565
4 2 11.9698 0.111385 10.0032
5 2 16.1068 59.1874 9.82237
6 2 19.9734 -0.248052 9.80219
7 2 23.8193 59.4494 9.86977
8 2 27.8361 -0.0402457 9.7761
9 2 31.487 -0.156893 9.80892
10 2 35.5085 59.3191 9.84196
11 2 39.7498 59.3821 9.96926
12 2 43.6099 59.3286 9.78076
13 2 47.6532 59.5665 9.99816
14 2 51.5616 59.2991 9.75969
15 2 55.328 59.5058 9.88224
16 2 0.166638 3.94495 10.0591
17 2 4.11113 3.90774 9.91337
18 2 7.86832 4.08185 10.0363
19 2 12.0229 3.95643 9.80585
20 2 16.0439 4.04953 9.80281
21 2 19.9918 3.83541 9.97778
22 2 23.8009 3.96662 9.93885
23 2 27.7915 3.9475 10.0552
24 2 31.7293 3.89638 9.93067
25 2 35.8355 4.06391 9.75424
26 2 39.6283 3.85 9.9904
27 2 43.5718 3.83687 9.80869
28 2 47.6226 4.17613 9.8116
29 2 51.5948 3.91783 10.038
30 2 55.3796 3.87387 10.0872
31 2 -0.0116389 7.8651 9.96251
32 2 4.08339 7.90826 9.84991
33 2 7.98355 7.91529 9.89624
34 2 12.0124 7.82325 9.95825
35 2 15.8739 7.93333 10.0127
36 2 20.0278 7.78507 9.78942
37 2 23.9095 7.99541 9.96383
38 2 27.8303 7.68647 9.97327
39 2 31.4678 7.80223 9.9307
40 2 35.6662 7.96119 9.96292
41 2 39.7706 7.71653 9.8716
42 2 43.6557 7.72724 9.94384
43 2 47.5575 7.93424 9.97741
44 2 51.5618 8.01247 9.79145
45 2 55.385 7.89682 10.0156
46 2 0.207139 11.8147 9.77527
47 2 3.97773 11.8723 9.85116
48 2 8.09955 11.6717 9.86056
49 2 12.1168 11.5579 9.79225
50 2 15.9455 11.906 9.95367
51 2 20.0014 11.7058 9.86657
52 2 23.904 12.0664 10.0693
53 2 27.6822 11.7694 9.83243
54 2 31.7262 11.9611 9.92441
55 2 35.7536 11.7219 9.93448
56 2 39.7873 11.8426 9.90028
57 2 43.4551 12.0266 9.75128
58 2 47.4143 11.7747 9.83156
59 2 51.4329 11.8307 10.0526
60 2 55.5878 11.9036 10.0237
61 2 0.209858 15.8331 9.76176
62 2 3.81987 15.7647 9.94725
63 2 7.98693 15.7639 9.81182
64 2 11.9635 15.7739 9.69962
65 2 15.6651 15.6716 9.89358
66 2 19.78 15.8051 10.0366
67 2 23.8265 15.9087 9.98009
68 2 27.7709 15.4969 9.79228
69 2 31.6297 15.936 10.0504
70 2 35.9309 15.6632 9.64101
71 2 39.7836 15.8323 9.8471
72 2 43.7223 15.6823 9.89783
73 2 47.503 15.9142 9.80201
74 2 51.5968 15.8934 10.0596
75 2 55.6957 15.8179 9.79753
76 2 0.144539 19.8156 9.92972
77 2 4.19941 19.8206 9.85727
78 2 7.84654 19.7054 9.7151
79 2 11.6827 19.7427 9.72543
80 2 15.8337 19.632 9.89658
81 2 19.9185 19.5546 9.95823
82 2 23.7441 19.6479 9.83093
83 2 27.6775 19.9392 9.96141
84 2 31.7353 19.5801 10.0374
85 2 35.8758 19.7589 9.75814
86 2 39.7823 19.5924 10.1358
87 2 43.5396 19.9663 10.0257
88 2 47.5591 19.6841 9.93303
89 2 51.486 20.002 9.99905
90 2 55.5954 19.7927 9.80542
91 2 0.0830967 23.8039 9.98441
92 2 3.97973 23.7525 9.80858
93 2 8.05316 23.8276 9.98693
94 2 11.9639 23.7856 9.8635
95 2 15.8747 23.5356 10.099
96 2 19.7832 23.696 9.81032
97 2 23.6674 23.605 9.77818
98 2 27.7341 23.7454 9.95661
99 2 31.524 23.6516 9.88958
100 2 35.6317 23.6936 9.95728
101 2 39.5436 23.8123 9.94463
102 2 43.5703 23.9186 9.9006
103 2 47.4418 23.7538 9.98254
104 2 51.5155 23.8231 10.0755
105 2 55.4362 23.8424 9.86391
106 2 0.0307159 27.818 10.1187
107 2 4.07443 27.6958 9.87426
108 2 8.01568 27.6585 9.98807
109 2 11.923 27.7155 9.64792
110 2 16.011 27.5648 9.94803
111 2 19.7864 27.6459 9.88004
112 2 23.6444 27.5 9.78192
113 2 27.718 27.5462 9.84538
114 2 31.5205 27.6268 10.0075
115 2 35.6981 27.839 9.78005
116 2 39.4359 27.6299 9.92046
117 2 43.3139 27.8037 9.81567
118 2 47.4904 27.928 9.92695
119 2 51.7051 27.8141 9.96054
120 2 55.4807 27.8724 10.0156
121 2 59.4976 31.6629 9.93256
122 2 4.1071 31.5842 9.78556
123 2 8.07548 31.6013 9.85316
124 2 12.1371 31.5849 9.88316
125 2 16.035 31.4919 9.89669
126 2 19.8311 31.493 9.88384
127 2 23.8937 31.5358 9.9243
128 2 27.7614 31.5181 10.0612
129 2 31.7052 31.5954 9.89273
130 2 35.7054 31.3664 9.78729
131 2 39.51 31.6137 9.95148
132 2 43.7238 31.6585 9.88297
133 2 47.549 31.6697 9.99458
134 2 51.3782 31.7049 9.93748
135 2 55.2386 31.6788 9.97619
136 2 0.210495 35.4708 9.71977
137 2 4.17598 35.1799 9.69506
138 2 8.12168 35.5445 9.81056
139 2 11.9878 35.5859 10.0224
140 2 16.0234 35.6101 9.8849
141 2 19.8632 35.4345 10.0073
142 2 23.9584 35.5163 9.865
143 2 27.8143 35.5086 9.85687
144 2 31.7431 35.3869 9.9636
145 2 35.7393 35.4776 9.86867
146 2 39.5738 35.666 9.8285
147 2 43.4529 35.8129 9.98753
148 2 47.5186 35.5596 9.9089
149 2 51.5783 35.6761 10.0496
150 2 55.4866 35.547 10.0375
151 2 0.0253798 39.4012 9.87871
152 2 4.12965 39.2791 9.66862
153 2 7.96456 39.3964 9.79608
154 2 11.8617 39.3626 9.74774
155 2 15.9682 39.4266 9.85584
156 2 19.8927 39.4047 9.97242
157 2 23.99 39.6139 9.66981
158 2 27.7212 39.1739 9.91977
159 2 31.7822 39.4898 9.89444
160 2 35.883 39.6146 9.73764
161 2 39.5175 39.4105 9.9811
162 2 43.3716 39.5908 10.0695
163 2 47.7661 39.7964 9.85256
164 2 51.5112 39.565 9.95652
165 2 55.5648 39.5541 9.97901
166 2 -0.00742713 43.4496 9.73656
167 2 4.07415 43.2465 9.74235
168 2 8.3124 43.3104 9.66224
169 2 12.0872 43.515 9.87844
170 2 15.8742 43.5376 9.88817
171 2 19.7469 43.4218 9.71657
172 2 23.629 43.3168 9.71305
173 2 27.7963 43.3997 9.89848
174 2 31.644 43.3261 9.98489
175 2 35.5825 43.3227 9.81889
176 2 39.6864 43.606 9.83944
177 2 43.5323 43.4881 9.92416
178 2 47.5303 43.3539 9.94991
179 2 51.5412 43.6033 9.90657
180 2 55.4398 43.3754 9.735
181 2 59.6548 47.3665 9.71485
182 2 4.05906 47.4809 10.1519
183 2 7.98414 47.3668 9.91777
184 2 11.9774 47.3347 9.91956
185 2 16.0617 47.2603 9.70002
186 2 19.788 47.295 9.99332
187 2 23.7442 47.1784 9.85856
188 2 27.6847 47.3396 10.1069
189 2 31.4582 47.4077 9.85717
190 2 35.7916 47.1887 10.0119
191 2 39.4372 47.3993 10.0167
192 2 43.6816 47.4838 10.0373
193 2 47.4996 47.4348 10.0541
194 2 51.5508 47.2999 9.943
195 2 55.5704 47.4307 9.84288
196 2 59.4625 51.4621 9.82296
197 2 3.95447 51.4027 10.0192
198 2 7.91322 51.411 9.97326
199 2 11.7977 51.5482 10.0486
200 2 16.0499 51.2801 9.82147
201 2 19.8264 51.2691 10.0896
202 2 23.912 51.1922 9.77137
203 2 27.645 51.3312 9.98532
204 2 31.58 51.4577 9.92471
205 2 35.5812 51.2066 9.88005
206 2 39.5695 51.2812 10.0163
207 2 43.2717 51.4681 9.82257
208 2 47.5424 51.5218 9.91477
209 2 51.6521 51.5932 10.0864
210 2 55.5062 51.186 9.81402
211 2 -0.0544033 55.4442 9.99972
212 2 4.03713 55.403 9.97362
213 2 7.90779 55.2972 9.87642
214 2 11.9323 55.439 9.96922
215 2 15.8332 55.1649 10.0456
216 2 19.9217 55.4581 9.88164
217 2 23.9751 55.2632 9.83568
218 2 27.7876 55.3335 9.87069
219 2 31.7818 55.314 9.84809
220 2 35.6406 55.1352 10.028
221 2 39.7132 55.2183 10.0733
222 2 43.6281 55.5555 9.83643
223 2 47.5758 55.502 10.13
224 2 51.4617 55.3789 10.1779
225 2 55.5551 55.5139 10.0813
226 2 59.5351 59.5287 13.8933
227 2 4.12089 -0.110627 13.8614
228 2 8.25155 -0.0510322 13.8329
229 2 12.1385 0.0415498 14.0542
230 2 16.0552 0.11086 13.7183
231 2 19.9381 59.2642 14.0436
232 2 23.8696 -0.193228 13.957
233 2 27.7757 0.031687 13.8889
234 2 31.7242 -0.0411981 13.8417
235 2 35.7102 0.256226 13.6662
236 2 39.7243 0.127378 13.8708
237 2 43.6295 -0.156811 13.9478
238 2 47.4856 59.3266 13.926
239 2 51.5018 59.1931 13.9137
240 2 55.5107 -0.187528 13.9634
241 2 -0.0525281 3.95804 14.0935
242 2 4.07039 4.05165 13.8993
243 2 8.09785 3.85854 13.7948
244 2 12.0263 3.9775 13.7813
245 2 16.1693 4.00415 13.6449
246 2 20.0195 3.88604 13.9832
247 2 23.9539 3.84757 13.9604
248 2 27.8385 3.87812 14.0345
249 2 31.9755 3.88265 13.8083
250 2 35.9103 4.02341 13.7622
251 2 39.6296 3.98319 14.1023
252 2 43.6577 3.93558 13.8305
253 2 47.5362 3.82409 14.1545
254 2 51.3915 3.94637 13.8916
255 2 55.246 4.07981 13.871
256 2 0.0722356 8.1082 13.9743
257 2 3.85042 7.85335 13.8049
258 2 7.86694 7.77479 13.9222
259 2 11.8144 7.81636 13.9078
260 2 16.0677 7.93837 13.9766
261 2 19.907 7.9403 13.9328
262 2 23.9232 7.8321 13.9672
263 2 27.7838 7.80428 13.8007
264 2 31.825 7.86475 13.854
265 2 35.8073 7.9739 13.843
266 2 39.7516 7.99273 14.0101
267 2 43.5967 7.94111 14.0231
268 2 47.6762 7.94201 13.9003
269 2 51.6371 8.10326 13.9657
270 2 55.5622 7.95849 13.9135
271 2 0.180736 12.1199 13.8217
272 2 4.25597 12.0591 13.7746
273 2 8.22898 11.7049 13.8319
274 2 11.9944 11.8379 13.8285
275 2 16.1215 11.96 13.7984
276 2 20.0003 11.7987 13.9055
277 2 23.9274 11.7878 13.8417
278 2 27.9166 11.8487 13.8886
279 2 31.9291 11.9791 13.7054
280 2 35.9431 11.9489 13.8632
281 2 39.7611 11.7569 13.8427
282 2 43.7305 11.7217 13.8767
283 2 47.5558 11.9224 13.7183
284 2 51.5432 12.1063 13.9355
285 2 55.5417 11.9477 13.9573
286 2 0.103143 16.1203 13.8974
287 2 4.11163 16.0836 13.9208
288 2 8.0936 15.8545 13.8513
289 2 11.9366 15.8533 13.8996
290 2 15.8528 16.0108 13.8703
291 2 19.7248 15.7379 14.0008
292 2 23.9397 15.7626 13.9481
293 2 28.0199 15.6622 13.9767
294 2 31.8285 15.7758 14.0051
295 2 35.8457 15.7247 13.8239
296 2 39.7895 15.8469 13.9965
297 2 43.6914 15.7926 13.921
298 2 47.494 16.0679 13.838
299 2 51.4136 15.8356 13.8743
300 2 55.61 15.8913 13.7324
301 2 0.1569 19.9347 13.9409
302 2 4.13902 20.0529 13.7696
303 2 8.11698 19.8753 13.7776
304 2 11.9467 19.9033 13.9669
305 2 15.8924 19.6231 13.9942
306 2 19.7755 19.5581 13.9705
307 2 23.914 19.6155 14.02
308 2 27.5967 19.7203 13.9804
309 2 31.9009 19.6998 13.9127
310 2 35.7755 19.6259 13.9256
311 2 39.7039 19.6958 13.9789
312 2 43.5366 19.9903 13.9803
313 2 47.5998 19.9635 13.6729
314 2 51.4425 19.6917 13.814
315 2 55.5094 19.852 13.9686
316 2 0.200142 23.7704 13.6866
317 2 4.17243 23.8224 13.9237
318 2 8.15119 23.6152 13.9504
319 2 11.8927 23.5914 13.7762
320 2 15.7889 23.6539 13.7685
321 2 19.9046 23.6531 13.8813
322 2 23.9622 23.7936 13.8565
323 2 27.8176 23.5874 13.8409
324 2 31.5102 23.8619 14.0548
325 2 35.3418 23.8039 13.8397
326 2 39.3238 23.7993 13.9028
327 2 43.582 23.9518 13.925
328 2 47.567 23.98 13.8835
329 2 51.4478 23.6467 13.9191
330 2 55.5887 23.7296 13.8476
331 2 59.541 27.7691 14.0232
332 2 4.2271 27.7567 13.8486
333 2 8.28886 27.7473 13.8389
334 2 12 27.6693 13.9407
335 2 15.9818 27.7874 14.0127
336 2 19.6558 27.4672 14.037
337 2 23.8056 27.7534 14.0439
338 2 27.7642 27.6579 13.9613
339 2 31.8255 27.7317 13.917
340 2 35.5523 27.6434 14.0661
341 2 39.7166 27.8027 13.8844
342 2 43.5899 27.8178 13.9527
343 2 47.7192 27.8159 14.0382
344 2 51.505 27.7624 13.9576
345 2 55.3784 27.7432 14.0474
346 2 0.0104308 31.8215 14.0761
347 2 4.13469 31.674 13.9228
348 2 8.0449 31.5998 13.9293
349 2 11.9701 31.5426 13.7835
350 2 15.9311 31.5622 14.1475
351 2 19.7385 31.552 13.9896
352 2 23.7343 31.6809 13.8448
353 2 27.6389 31.4547 13.9856
354 2 31.8897 31.5715 13.7693
355 2 35.6808 31.5877 13.7705
356 2 39.7067 31.6086 13.9892
357 2 43.6687 31.5948 13.9423
358 2 47.5793 31.6199 13.9024
359 2 51.5307 31.7901 14.0614
360 2 55.4865 31.7396 13.8247
361 2 0.229159 35.6627 13.808
362 2 4.22745 35.6715 13.7786
363 2 8.16292 35.5511 13.8966
364 2 11.9468 35.6242 13.8667
365 2 16.0099 35.4461 13.9829
366 2 20.0476 35.4671 13.6921
367 2 23.9081 35.5503 13.9059
368 2 27.596 35.7242 13.9328
369 2 31.7727 35.6631 14.0197
370 2 35.8676 35.5356 13.9303
371 2 39.7439 35.3727 13.8747
372 2 43.8171 35.9822 13.8332
373 2 47.7942 35.5774 13.8586
374 2 51.5856 35.3894 14.0394
375 2 55.4284 35.8982 13.9221
376 2 0.221933 39.3985 13.9918
377 2 4.26142 39.5883 13.8673
378 2 8.0613 39.6852 13.7392
379 2 11.9716 39.5285 14.0733
380 2 16.0799 39.4003 13.7762
381 2 19.9375 39.4531 13.9915
382 2 23.7861 39.566 13.7675
383 2 27.7112 39.452 14.052
384 2 31.905 39.5064 13.8707
385 2 35.62 39.5021 13.8675
386 2 39.6825 39.6609 13.9308
387 2 43.7727 39.7393 13.9366
388 2 47.6773 39.6293 13.9993
389 2 51.588 39.5506 14.0527
390 2 55.5258 39.8411 13.749
391 2 0.191004 43.4719 13.855
392 2 4.03745 43.6299 13.6914
393 2 8.08298 43.4205 13.9083
394 2 12.0116 43.3963 13.916
395 2 15.9581 43.3394 13.5457
396 2 19.984 43.3136 13.8603
397 2 23.7876 43.5162 13.9774
398 2 27.6295 43.4666 13.7442
399 2 31.6185 43.4252 13.8569
400 2 35.7895 43.5489 13.9981
401 2 39.6707 43.4279 14.1661
402 2 43.5231 43.6332 14.1479
403 2 47.5579 43.7346 13.9797
404 2 51.6915 43.753 13.8748
405 2 55.4928 43.3538 13.6659
406 2 59.4968 47.2453 13.8237
407 2 4.14257 47.3687 13.8061
408 2 8.03965 47.1348 13.8528
409 2 11.8936 47.4101 13.8793
410 2 15.9346 47.4823 13.8513
411 2 20.0468 47.4056 13.896
412 2 23.8607 47.4896 13.994
413 2 27.7758 47.4679 13.7661
414 2 31.9007 47.2537 13.767
415 2 35.5355 47.5219 13.8796
416 2 39.3767 47.5378 14.0057
417 2 43.6507 47.3745 14.0184
418 2 47.6 47.6501 13.7733
419 2 51.4539 47.6657 13.8803
420 2 55.4634 47.3913 14.0024
421 2 0.258346 51.3855 13.9829
422 2 4.12105 51.4861 13.674
423 2 8.2313 51.3254 13.8625
424 2 12.0259 51.4089 13.8757
425 2 16.022 51.4959 13.9876
426 2 20.0453 51.3958 13.8415
427 2 23.8485 51.2698 13.9246
428 2 27.7466 51.4785 13.9005
429 2 31.7321 51.494 14.0006
430 2 35.4014 51.5626 13.9884
431 2 39.5891 51.4541 14.0237
432 2 43.3712 51.3647 13.8228
433 2 47.4464 51.643 13.8874
434 2 51.546 51.396 14.1156
435 2 55.4711 51.4033 13.9659
436 2 0.161559 55.6307 13.8411
437 2 4.00473 55.1997 13.7456
438 2 7.9084 55.4135 13.9094
439 2 12.103 55.4743 13.9269
440 2 15.9524 55.3928 13.9676
441 2 19.9596 55.3296 13.8414
442 2 23.7841 55.1189 13.8674
443 2 27.6907 55.5275 13.8515
444 2 31.7584 55.4594 14
445 2 35.638 55.5264 13.9947
446 2 39.5201 55.4598 13.9231
447 2 43.5405 55.6231 13.9945
448 2 47.4434 55.3584 13.8904
449 2 51.4188 55.2683 14.0298
450 2 55.4814 55.4392 14.0148
451 2 59.7058 0.0832027 17.706
452 2 4.18056 59.5247 17.8669
453 2 8.18341 -0.105431 17.8347
454 2 12.0431 0.0567658 17.7729
455 2 16.0012 59.3317 17.9409
456 2 19.9185 0.142077 17.913
457 2 23.887 59.4073 17.8572
458 2 27.876 -0.0296627 17.8298
459 2 31.7921 0.160783 18.0037
460 2 35.6652 -0.131484 17.841
461 2 39.6542 -0.0229093 18.1419
462 2 43.6393 -0.0199183 17.9712
463 2 47.4457 0.286512 17.9837
464 2 51.487 0.0337422 17.9344
465 2 55.5117 0.217054 17.9297
466 2 0.149122 4.05495 17.834
467 2 4.08556 3.93694 17.7553
468 2 7.77986 3.96003 17.5811
469 2 11.8993 3.78104 17.8037
470 2 15.9714 3.9914 17.8517
471 2 19.943 4.09854 17.9512
472 2 23.946 4.02913 17.9389
473 2 27.8615 3.92605 17.7493
474 2 31.9221 3.94769 17.8754
475 2 35.7679 3.89985 17.9559
476 2 39.7176 4.13264 17.8318
477 2 43.6118 3.97269 18.0148
478 2 47.5997 4.20355 17.961
479 2 51.5545 4.1081 17.8206
480 2 55.4909 4.06724 17.87
481 2 59.5546 8.0936 18.0458
482 2 4.00032 7.98694 17.8782
483 2 8.17272 7.91402 17.8934
484 2 11.9955 7.63648 18.0285
485 2 15.8802 7.76106 17.8681
486 2 19.8644 7.87308 17.9914
487 2 23.8239 7.86977 18.0207
488 2 27.9922 7.69027 17.8932
489 2 31.834 8.0367 17.8575
490 2 35.7558 7.88672 18.0547
491 2 39.8627 8.01897 17.9379
492 2 43.7206 7.99189 17.9649
493 2 47.6936 7.89977 17.9916
494 2 51.664 8.17954 17.976
495 2 55.4599 8.18036 18.0274
496 2 59.5416 12.0293 17.882
497 2 4.34553 11.9868 17.8058
498 2 8.22005 11.903 17.9131
499 2 12.1304 11.8434 17.7947
500 2 16.0897 12.0434 17.8585
501 2 19.9035 11.9242 17.8536
502 2 23.9689 11.762 17.7674
503 2 27.6665 11.6666 17.9247
504 2 31.9439 11.8431 17.8347
505 2 35.7153 11.902 17.8664
506 2 39.6736 12.0853 17.9192
507 2 43.7422 12.1639 18.0102
508 2 47.4996 11.8915 17.9291
509 2 51.6942 11.9929 17.7797
510 2 55.6391 12.0943 17.8534
511 2 59.5104 15.9088 17.8818
512 2 3.95483 16.1627 17.8151
513 2 7.96672 15.9211 17.9275
514 2 12.072 15.6464 17.771
515 2 16.068 15.5692 17.8683
516 2 19.9726 15.9069 17.9693
517 2 23.7545 16.0048 17.9015
518 2 27.9522 15.7277 17.9644
519 2 31.8316 15.6953 17.8608
520 2 35.8171 15.7212 17.9367
521 2 39.8399 15.9015 17.9409
522 2 43.8203 15.8344 17.8879
523 2 47.8031 15.978 18.0367
524 2 51.6809 15.8941 17.7178
525 2 55.6161 15.8422 17.9274
526 2 59.5221 19.939 17.8529
527 2 4.14125 19.8448 17.9212
528 2 7.98147 19.7566 17.8487
529 2 12.1662 19.786 17.8996
530 2 16.02 19.761 17.9481
531 2 19.9901 19.8591 17.8159
532 2 23.8146 19.8757 17.9691
533 2 27.8483 19.7176 18.0949
534 2 31.8207 19.65 17.7476
535 2 35.833 19.7697 18.0286
536 2 39.8137 19.7226 17.8861
537 2 43.8202 19.7949 17.7829
538 2 47.4825 19.8077 17.883
539 2 51.6531 19.7088 17.7073
540 2 55.4847 19.848 17.6896
541 2 0.104243 23.9663 17.6051
542 2 4.21913 23.9175 17.9034
543 2 8.14183 24.0073 17.8137
544 2 12.0639 23.9055 17.8823
545 2 16.0577 23.662 17.9567
546 2 20.135 23.5295 18.0178
547 2 23.8516 23.9891 17.93
548 2 27.6106 23.5726 17.9162
549 2 31.6991 23.7429 17.9083
550 2 35.6876 23.6758 18.0161
551 2 39.8111 23.7221 18.0274
552 2 43.7397 23.8455 17.9038
553 2 47.6382 23.5789 17.8396
554 2 51.5747 23.736 17.9767
555 2 55.5094 23.7122 17.8268
556 2 59.4966 27.8263 17.9033
557 2 4.0091 27.9053 17.7916
558 2 8.11861 27.9495 17.9454
559 2 12.1614 27.7029 17.9341
560 2 15.951 27.7585 17.9801
561 2 19.8328 27.8058 17.992
562 2 23.6795 28.0025 17.7927
563 2 27.9655 27.5725 17.8084
564 2 31.8834 27.7271 17.8214
565 2 35.7371 27.6065 17.9843
566 2 39.5796 27.68 17.7895
567 2 43.5 27.6507 17.9129
568 2 47.5606 27.685 18.0405
569 2 51.4288 27.6965 17.9478
570 2 55.5375 27.7521 17.8974
571 2 0.0969717 31.8217 18.0719
572 2 4.04132 31.6414 17.9975
573 2 7.98873 31.5564 17.8818
574 2 11.9571 31.6635 17.8241
575 2 15.8413 31.5894 17.9564
576 2 19.9775 31.6589 18.1283
577 2 23.8116 31.7706 18.0666
578 2 27.8996 31.5451 17.8979
579 2 31.6401 31.6209 18.0007
580 2 35.7326 31.6292 18.0132
581 2 39.6335 31.6495 18.0037
582 2 43.4333 31.5804 18.0093
583 2 47.5369 31.5994 17.8451
584 2 51.5957 31.682 18.0634
585 2 55.5578 31.6599 17.9497
586 2 -0.0256623 35.8001 18.0822
587 2 4.2047 35.6011 17.8981
588 2 8.14452 35.5368 17.7251
589 2 11.9782 35.5428 17.9093
590 2 15.863 35.6476 17.935
591 2 19.9367 35.5784 17.9067
592 2 23.885 35.5753 17.8574
593 2 27.9498 35.653 17.7841
594 2 31.5681 35.7181 17.7595
595 2 35.4946 35.5917 17.9102
596 2 39.7958 35.5196 17.8799
597 2 43.5183 35.6636 17.7203
598 2 47.5889 35.5168 17.8433
599 2 51.5045 35.5367 17.8618
600 2 55.5049 35.7714 17.866
601 2 0.188219 39.5766 17.8485
602 2 4.12163 39.396 17.8415
603 2 8.04239 39.542 17.9702
604 2 11.9855 39.7266 17.7109
605 2 15.8701 39.5277 17.7228
606 2 19.8988 39.6504 17.7908
607 2 24.0495 39.4511 17.9147
608 2 27.7647 39.6479 17.9015
609 2 31.6857 39.5975 17.7089
610 2 35.8642 39.508 17.8183
611 2 39.499 39.5028 17.7006
612 2 43.5282 39.5968 17.9841
613 2 47.4278 39.6001 17.9302
614 2 51.347 39.6204 17.8865
615 2 55.4338 39.5311 18.1648
616 2 0.149674 43.6916 17.9487
617 2 4.07814 43.3872 17.7995
618 2 7.98946 43.6118 18.1194
619 2 11.9872 43.5718 17.8525
620 2 15.8004 43.6651 17.7222
621 2 19.6486 43.3853 17.8069
622 2 23.8499 43.4171 17.8875
623 2 27.8212 43.525 18.0188
624 2 31.5899 43.6307 17.7407
625 2 35.6686 43.459 17.7943
626 2 39.6227 43.5808 17.9334
627 2 43.3826 43.5703 17.9044
628 2 47.5218 43.6189 17.8814
629 2 51.3823 43.7369 17.831
630 2 55.4673 43.5624 17.6647
631 2 0.00407718 47.4894 17.9393
632 2 4.14952 47.4955 17.7531
633 2 8.05825 47.4731 17.8582
634 2 12.0703 47.4893 17.9206
635 2 15.9423 47.5257 17.8007
636 2 19.692 47.2745 17.8597
637 2 23.7564 47.3335 18.2314
638 2 27.6426 47.6728 17.7138
639 2 31.6333 47.4864 17.7305
640 2 35.5723 47.4796 17.8188
641 2 39.4185 47.4393 17.9893
642 2 43.5046 47.5619 17.9899
643 2 47.4888 47.8035 17.8157
644 2 51.5724 47.542 17.9206
645 2 55.5877 47.4712 17.9733
646 2 0.162134 51.5457 17.8522
647 2 4.25786 51.4314 17.7052
648 2 8.24404 51.4898 17.7072
649 2 11.8394 51.5201 17.9887
650 2 15.9646 51.5583 17.9497
651 2 19.8812 51.6354 18.0295
652 2 24.004 51.4073 17.8363
653 2 27.6467 51.5314 17.8558
654 2 31.7718 51.4873 17.852
655 2 35.647 51.4071 18.04
656 2 39.5775 51.5042 18.0351
657 2 43.4637 51.5749 17.9704
658 2 47.4348 51.5052 17.9365
659 2 51.7681 51.5286 17.9259
660 2 55.6092 51.5494 17.7895
661 2 0.0935691 55.5777 17.5983
662 2 3.94532 55.2827 17.8712
663 2 7.97975 55.3619 17.7989
664 2 12.0285 55.3831 17.9065
665 2 15.9239 55.6311 17.8997
666 2 20.0465 55.4847 17.9343
667 2 23.8595 55.4565 17.8376
668 2 27.6195 55.4205 17.9958
669 2 31.6244 55.5231 17.9355
670 2 35.6209 55.4644 17.8755
671 2 39.7515 55.5314 17.9426
672 2 43.6698 55.4233 17.8322
673 2 47.5167 55.3419 17.9842
674 2 51.3321 55.4967 17.913
675 2 55.6035 55.4816 17.8745
676 2 -0.0932406 0.0291188 21.7971
677 2 4.03075 0.116538 21.8666
678 2 7.78993 0.0716583 21.8487
679 2 11.8138 0.0488848 21.846
680 2 15.8843 -0.00995608 21.7853
681 2 19.9596 0.0770259 21.8631
682 2 23.6814 0.105861 21.803
683 2 27.7104 -0.194952 21.9897
684 2 31.8167 -0.0547208 21.8742
685 2 35.7923 0.184473 21.9815
686 2 39.7242 0.115971 22.0231
687 2 43.5311 -0.0937972 21.8336
688 2 47.6453 0.016088 21.9283
689 2 51.7396 59.5084 21.8527
690 2 55.4999 -0.0487978 21.9297
691 2 0.120691 4.01427 21.7924
692 2 4.01733 3.92794 21.8911
693 2 8.04765 4.06945 21.7302
694 2 11.9637 3.8464 21.9016
695 2 15.9199 3.92971 21.7935
696 2 19.8772 3.97796 21.9406
697 2 23.9187 3.98511 21.8281
698 2 28.0462 3.89304 21.784
699 2 31.7383 4.09721 21.8065
700 2 35.8755 4.02099 21.8243
701 2 39.7767 3.98231 21.8825
702 2 43.8039 3.90348 22.0681
703 2 47.6635 4.07051 21.8384
704 2 51.5372 4.18791 21.9903
705 2 55.5517 3.80388 21.911
706 2 59.4872 7.9142 21.8393
707 2 4.09613 8.0637 22.0265
708 2 8.01529 7.96043 22.0017
709 2 12.1334 7.90697 21.6915
710 2 16.0629 7.92675 21.9269
711 2 19.9472 8.1247 22.0161
712 2 23.7888 8.14775 21.9897
713 2 27.6846 7.91565 21.9299
714 2 31.6871 7.87813 22.1008
715 2 35.6935 7.94208 21.9384
716 2 39.749 7.94907 21.8387
717 2 43.7529 7.7216 22.0111
718 2 47.7235 7.94606 22.0077
719 2 51.6007 8.21012 22.0218
720 2 55.4212 7.94152 21.9557
721 2 0.0444847 11.8389 21.8596
722 2 4.1918 11.8338 21.9649
723 2 8.10055 11.9983 21.6569
724 2 12.1198 11.9493 21.742
725 2 15.8766 11.7762 21.8621
726 2 20.0222 12.0036 21.9171
727 2 24.0234 11.9459 21.859
728 2 27.6573 11.9244 21.863
729 2 31.732 11.9525 21.802
730 2 36.033 11.9124 22.0306
731 2 40.026 11.9816 21.9078
732 2 43.6491 11.8443 22.0012
733 2 47.5174 12.0305 21.7893
734 2 51.4571 11.9859 21.8938
735 2 55.5595 11.9284 21.6563
736 2 0.171241 15.8372 21.8491
737 2 4.17266 15.731 21.9041
738 2 8.06767 15.8913 21.9465
739 2 11.8491 15.865 21.9596
740 2 15.7344 15.9573 21.9149
741 2 19.9192 15.8591 21.8338
742 2 23.914 15.8802 21.6742
743 2 27.7683 15.9074 21.9065
744 2 31.7293 15.8364 22.0672
745 2 35.5504 15.9231 22.0227
746 2 39.5332 15.919 21.9308
747 2 43.3766 15.8836 21.8758
748 2 47.674 15.9086 21.8881
749 2 51.7559 15.9006 21.7858
750 2 55.5061 16.008 21.9107
751 2 59.4184 19.8922 21.8591
752 2 4.03585 20.0391 21.7151
753 2 8.09819 19.8206 21.8167
754 2 11.8228 19.9577 21.743
755 2 15.9482 19.7294 21.9733
756 2 19.8315 19.809 22.0839
757 2 23.7702 19.8122 21.9458
758 2 27.9169 19.6411 21.8956
759 2 31.7866 19.7818 21.854
760 2 35.7848 19.9875 21.8833
761 2 39.5471 19.8725 21.9673
762 2 43.6197 19.838 21.8636
763 2 47.5668 19.8958 21.9712
764 2 51.5401 19.9202 21.809
765 2 55.7928 19.9152 21.6901
766 2 59.7387 23.9265 21.6382
767 2 4.02131 23.8054 21.9378
768 2 8.0475 23.9479 21.7124
769 2 11.8648 23.9087 21.8985
770 2 15.9468 23.766 22.0067
771 2 20.012 23.7469 21.9581
772 2 24.1586 23.834 21.8813
773 2 27.7935 23.977 21.8233
774 2 31.7426 23.8477 21.8101
775 2 35.6398 23.9149 22.0207
776 2 39.7873 23.852 21.7401
777 2 43.6939 23.7541 21.7425
778 2 47.8255 23.7772 21.8111
779 2 51.782 23.6084 21.7875
780 2 55.5291 23.7723 21.7095
781 2 59.3265 27.6055 21.8895
782 2 4.04484 27.6092 21.8351
783 2 8.184 27.8464 21.9911
784 2 11.8818 27.7756 21.8648
785 2 16.0131 27.8949 21.9577
786 2 20.0031 27.5992 21.8734
787 2 23.9181 27.8172 21.8217
788 2 27.9054 27.6764 21.7989
789 2 31.858 27.6405 21.841
790 2 35.6714 27.9316 21.8954
791 2 39.7873 27.7532 22.08
792 2 43.5716 27.7268 21.7667
793 2 47.5993 27.8606 22.0114
794 2 51.6445 27.6301 21.9566
795 2 55.5891 27.8185 21.7562
796 2 59.4699 31.7788 21.9757
797 2 4.21275 31.7649 21.9661
798 2 8.01802 31.7553 22.0204
799 2 11.9197 31.6569 21.9253
800 2 16.0139 31.6207 21.9092
801 2 19.9007 31.7842 21.9653
802 2 23.8759 31.8537 21.9185
803 2 27.7627 31.6571 21.739
804 2 31.8299 31.7599 21.9249
805 2 35.7641 31.8989 21.7609
806 2 39.8611 31.8491 21.8226
807 2 43.5624 31.7172 21.8347
808 2 47.6404 31.7449 22.0338
809 2 51.6445 31.8459 22.0155
810 2 55.5762 31.8385 21.976
811 2 59.4195 35.5119 22.0458
812 2 4.25444 35.6919 21.8996
813 2 8.06781 35.6408 21.9477
814 2 12.1513 35.8524 21.7747
815 2 15.9834 35.8508 21.7713
816 2 19.9091 35.7054 21.8899
817 2 23.8791 35.8265 21.6662
818 2 27.8648 35.6781 22.0035
819 2 31.7756 35.7421 21.8775
820 2 35.7418 35.6821 21.8531
821 2 39.7604 35.9009 21.8453
822 2 43.6821 35.7392 21.9973
823 2 47.54 35.7504 21.6963
824 2 51.3879 35.6107 21.886
825 2 55.4633 35.7311 21.8876
826 2 0.0360435 39.6656 21.8251
827 2 4.11251 39.7184 22.0886
828 2 8.08257 39.6577 21.8857
829 2 12.0238 39.6279 21.8246
830 2 15.9196 39.6194 21.947
831 2 19.7677 39.5427 21.7465
832 2 23.6174 39.7732 21.7136
833 2 27.7829 39.6432 21.7392
834 2 31.8981 39.6779 21.9196
835 2 35.6634 39.7051 21.7996
836 2 39.5573 39.7139 21.663
837 2 43.8002 39.6288 21.7865
838 2 47.4818 39.7362 21.9278
839 2 51.544 39.7148 21.9431
840 2 55.5643 39.6629 21.9643
841 2 0.301856 43.6243 21.8356
842 2 4.08948 43.5702 21.8917
843 2 8.08876 43.5797 21.8898
844 2 11.994 43.5253 21.8555
845 2 15.7737 43.7517 21.9035
846 2 19.6416 43.4645 21.8569
847 2 23.5892 43.7126 21.8676
848 2 27.8155 43.4193 21.9047
849 2 31.7242 43.7083 21.6827
850 2 35.6801 43.3361 21.7673
851 2 39.5341 43.774 21.9761
852 2 43.5026 43.6139 21.8756
853 2 47.5337 43.832 21.86
854 2 51.5277 43.6462 21.7532
855 2 55.4878 43.6586 21.8664
856 2 59.6777 47.5878 21.7627
857 2 3.99451 47.6069 21.7505
858 2 8.04325 47.4655 21.8187
859 2 11.9871 47.6511 21.7717
860 2 15.8887 47.6682 21.9425
861 2 19.7927 47.4966 21.8387
862 2 23.5531 47.6917 21.7706
863 2 27.8612 47.5581 21.7276
864 2 31.75 47.4408 22.0501
865 2 35.475 47.3008 21.8401
866 2 39.5198 47.3892 21.8585
867 2 43.7657 47.4832 21.9048
868 2 47.8857 47.4075 21.8577
869 2 51.6204 47.6873 21.7246
870 2 55.5615 47.508 21.7559
871 2 0.12339 51.3826 21.9728
872 2 3.95737 51.517 21.7898
873 2 8.05362 51.4425 21.8043
874 2 11.9413 51.5906 22.0538
875 2 15.8718 51.6165 21.8025
876 2 19.794 51.7587 21.8525
877 2 23.8871 51.422 21.9165
878 2 27.7819 51.4212 21.7628
879 2 31.7666 51.5182 21.8825
880 2 35.8215 51.4008 22.0403
881 2 39.7217 51.311 21.7809
882 2 43.6143 51.4392 21.9759
883 2 47.5215 51.5985 21.8259
884 2 51.6729 51.4218 21.8133
885 2 55.502 51.5888 21.8109
886 2 0.164476 55.5946 21.7715
887 2 3.96483 55.5474 21.8174
888 2 8.07191 55.5805 21.7316
889 2 12.0702 55.6564 21.7862
890 2 15.94 55.5327 21.9061
891 2 19.7871 55.5821 21.8961
892 2 23.728 55.5008 21.8672
893 2 27.867 55.4416 21.9027
894 2 31.7969 55.2941 21.8961
895 2 35.7195 55.5517 21.9536
896 2 39.7659 55.5004 21.8991
897 2 43.6522 55.2179 21.9163
898 2 47.6389 55.4702 21.9224
899 2 51.5586 55.6482 21.9232
900 2 55.4249 55.3961 21.7337
901 2 59.4715 0.249185 25.873
902 2 4.27855 0.230037 25.892
903 2 7.97553 0.23987 25.9043
904 2 11.7989 0.282738 25.8191
905 2 15.8481 0.0605508 25.8409
906 2 19.9223 0.161495 25.9431
907 2 23.681 0.0861273 25.9658
908 2 27.6327 -0.0221671 25.9331
909 2 31.8739 0.173111 25.9741
910 2 35.7289 0.0521636 25.87
911 2 39.8375 0.258031 25.9406
912 2 43.6749 0.198781 26.0101
913 2 47.7975 0.0511036 25.7709
914 2 51.5499 0.178639 25.8306
915 2 55.6274 -0.162212 25.9616
916 2 0.100423 4.13477 25.8823
917 2 4.18359 4.10022 25.6575
918 2 7.89534 3.97512 25.922
919 2 11.8591 4.02205 26.0233
920 2 15.9711 3.88322 26.0424
921 2 19.7643 4.01373 25.7956
922 2 23.9008 4.18617 25.8295
923 2 27.7492 3.92513 25.7698
924 2 31.8986 3.87566 25.8611
925 2 35.7098 3.91747 25.8896
926 2 39.7393 4.01795 26.0978
927 2 43.7917 3.87375 25.8028
928 2 47.7885 4.14682 25.8976
929 2 51.605 4.03984 25.7968
930 2 55.7605 4.04092 25.7623
931 2 0.22331 7.82237 25.8453
932 2 4.02637 8.20553 25.8684
933 2 8.1174 8.08455 25.883
934 2 12.0327 8.04303 25.7274
935 2 15.9469 7.87995 25.9848
936 2 19.856 8.0792 25.8276
937 2 23.8855 7.93701 25.8932
938 2 27.7329 7.94927 25.9419
939 2 31.7834 7.87155 25.7493
940 2 35.713 8.0015 25.8108
941 2 39.7013 7.96391 25.7593
942 2 43.5948 7.95156 25.8107
943 2 47.5046 8.20242 25.8697
944 2 51.6109 7.88224 25.9175
945 2 55.6077 8.0315 26.0128
946 2 -0.0668418 11.868 25.8162
947 2 4.0406 12.1556 25.7696
948 2 7.95898 11.8933 25.862
949 2 12.0578 12.0853 25.8502
950 2 15.9314 12.0781 25.955
951 2 19.9154 11.8463 25.9759
952 2 23.9351 12.08 25.8922
953 2 27.8377 11.841 25.8316
954 2 31.7297 11.8025 25.8558
955 2 35.7793 11.9937 25.909
956 2 39.6846 11.8308 25.8428
957 2 43.759 12.0344 25.8496
958 2 47.719 12.0717 25.9699
959 2 51.6975 11.9516 25.9521
960 2 55.5636 12.0293 25.8725
961 2 59.7101 16.2257 25.8858
962 2 4.32397 16.1126 25.5723
963 2 8.18106 15.8084 25.8506
964 2 12.0037 15.8259 25.929
965 2 15.7578 15.924 25.753
966 2 19.9562 15.8523 25.813
967 2 23.9046 15.8211 25.9122
968 2 27.7591 15.7934 25.9155
969 2 31.5477 15.8832 25.9816
970 2 35.7363 15.8082 25.8283
971 2 39.5617 15.9783 25.9309
972 2 43.5115 16.0541 25.6836
973 2 47.4933 15.9403 25.8989
974 2 51.6092 16.0833 25.8986
975 2 55.5027 16.0805 25.7304
976 2 59.3422 19.9504 25.9929
977 2 4.09129 19.966 25.7863
978 2 7.99297 20.0707 25.7911
979 2 12.0607 19.908 25.8358
980 2 15.8325 19.7423 25.767
981 2 19.8306 19.8679 25.8737
982 2 23.8104 19.8695 25.9565
983 2 27.7096 19.857 25.7414
984 2 31.7551 19.8636 25.81
985 2 35.656 19.7572 25.8953
986 2 39.3832 20.1228 25.7365
987 2 43.4904 19.8728 25.7357
988 2 47.3321 19.8103 25.7233
989 2 51.4532 19.8895 25.9607
990 2 55.2505 19.8404 25.8361
991 2 59.5129 23.897 25.9259
992 2 4.05105 23.6902 25.9977
993 2 8.06946 23.7756 26.037
994 2 12.126 23.8398 25.8111
995 2 16.0374 23.843 25.9297
996 2 19.8237 23.7585 25.985
997 2 23.9605 23.6911 26.0927
998 2 27.861 23.7773 25.6472