ITEM: TIMESTEP
1527100
ITEM: NUMBER OF ATOMS
16875
ITEM: BOX BOUNDS xy xz yz pp pp pp
0.0000000000000000e+00 5.9369999999999997e+01 0.0000000000000000e+00
0.0000000000000000e+00 5.9369999999999997e+01 0.0000000000000000e+00
3.0592251063119846e-01 6.0060496489371381e+01 0.0000000000000000e+00
ITEM: ATOMS id type x y z
1 2 -0.0380758 -0.256717 9.89581
2 2 3.93956 -0.137767 10.0609
3 2 8.01013 59.2309 9.94814
4 2 11.8444 -0.311689 10.0059
5 2 15.8481 59.2183 9.93743
6 2 19.7542 -0.0268526 9.72501
7 2 23.8029 59.2797 9.9034
8 2 27.7928 -0.0924792 10.0533
9 2 31.7898 -0.170089 9.85307
10 2 35.4585 59.1597 9.99981
11 2 39.6776 59.1231 10.1231
12 2 43.397 59.3239 10.027
13 2 47.5415 59.202 9.95731
14 2 51.5687 59.2588 10.0818
15 2 55.6529 59.4964 9.66942
16 2 0.272177 4.03073 9.9046
17 2 3.90836 3.73714 9.72213
18 2 8.0102 3.78338 9.94353
19 2 11.9537 3.75113 9.93659
20 2 15.7739 3.70528 9.93525
21 2 19.7538 3.86958 10.0834
22 2 23.7863 3.78531 9.94462
23 2 27.6701 3.68706 9.81247
24 2 31.8233 3.6344 9.9653
25 2 35.7376 3.93018 9.96228
26 2 39.8113 3.95656 9.84082
27 2 43.5443 3.90635 10.0102
28 2 47.2682 3.74815 10.0631
29 2 51.5289 3.59687 9.76016
30 2 55.699 3.81668 9.78354
31 2 0.235179 7.97325 9.85386
32 2 4.04367 7.82635 10.0112
33 2 7.81229 7.64926 9.9162
34 2 11.7269 7.95389 9.95272
35 2 15.6095 7.70228 9.96135
36 2 19.8217 7.78282 9.94503
37 2 23.6453 7.87094 10.1181
38 2 27.7005 7.79451 10.0425
39 2 31.6166 7.80655 9.94937
40 2 35.6482 7.69628 10.0759
41 2 39.6148 7.91199 10.0643
42 2 43.3732 7.8286 9.94059
43 2 47.5814 7.74958 10.0039
44 2 51.4379 7.8413 9.99046
45 2 55.4983 7.98523 9.80693
46 2 0.0223669 11.8927 10.0213
47 2 4.0307 11.8765 9.97828
48 2 7.95257 11.9428 9.81395
49 2 12.1102 11.9093 9.95999
50 2 15.9066 11.7437 9.82459
51 2 19.8391 11.9769 10.0542
52 2 23.6551 11.734 9.8263
53 2 27.6155 11.7837 10.0184
54 2 31.5559 11.6702 10.0751
55 2 35.7547 11.7879 9.93291
56 2 39.6246 11.7773 9.92316
57 2 43.6562 11.7199 9.83651
58 2 47.4477 11.7175 9.88574
59 2 51.5021 11.8356 9.91943
60 2 55.5225 11.8829 9.88843
61 2 0.0153063 15.8299 9.91605
62 2 4.05051 15.6914 9.90928
63 2 8.01827 15.7789 9.87635
64 2 11.8966 15.7033 10.0705
65 2 15.9623 15.7844 9.92355
66 2 19.8536 15.8311 10.0911
67 2 23.8246 15.8762 10.0636
68 2 27.5655 15.6413 9.92702
69 2 31.7245 15.7885 10.0247
70 2 35.7783 15.6681 9.88728
71 2 39.7939 15.7169 9.72876
72 2 43.7154 15.6726 9.94984
73 2 47.6081 15.5507 9.94688
74 2 51.5777 15.8802 9.88675
75 2 55.5643 15.6844 10.0881
76 2 0.100201 19.8282 9.88591
77 2 4.12326 19.8205 9.89885
78 2 8.04945 19.7919 9.88405
79 2 12.0016 19.6958 9.93645
80 2 15.8456 19.8001 9.96517
81 2 19.753 19.6161 10.0236
82 2 23.704 19.5157 9.85223
83 2 27.692 19.6711 10.0201
84 2 31.6988 19.6574 10.0287
85 2 35.8247 19.6941 9.95278
86 2 39.5307 19.4586 9.90432
87 2 43.7735 19.6911 9.86502
88 2 47.5822 19.7842 9.88848
89 2 51.5739 19.6719 10.0055
90 2 55.4564 19.6721 9.86333
91 2 0.0723359 23.7301 9.97705
92 2 4.02469 23.6813 10.0567
93 2 7.83784 23.6281 9.89777
94 2 11.7823 23.6389 9.83552
95 2 15.8499 23.8752 9.92466
96 2 20.1025 23.4657 9.96716
97 2 23.7956 23.7406 9.8989
98 2 27.8047 23.4816 10.0299
99 2 31.7582 23.6352 9.94585
100 2 35.7986 23.646 9.95562
101 2 39.7377 23.4429 9.66591
102 2 43.5393 23.6409 9.99977
103 2 47.6167 23.6652 9.96896
104 2 51.3017 23.7763 9.97713
105 2 55.3567 23.6839 9.94821
106 2 0.288445 27.5922 9.93366
107 2 3.98381 27.591 9.90088
108 2 7.84021 27.5272 9.86074
109 2 11.9284 27.537 9.96429
110 2 15.9522 27.6332 9.93786
111 2 19.6594 27.4989 10.0073
112 2 23.8446 27.6155 10.1519
113 2 27.7948 27.5149 10.0233
114 2 31.6439 27.4727 9.93676
115 2 35.6871 27.254 9.93542
116 2 39.662 27.5307 10.0117
117 2 43.6515 27.5577 10.0067
118 2 47.5528 27.6834 9.76171
119 2 51.5579 27.6303 9.99876
120 2 55.5359 27.7633 10.0414
121 2 59.3484 31.8328 9.94765
122 2 4.04119 31.5258 9.61227
123 2 7.84589 31.5837 10.0149
124 2 11.8414 31.5789 9.8425
125 2 15.8496 31.5588 9.97993
126 2 19.908 31.4504 9.86719
127 2 23.6618 31.6114 10.1732
128 2 27.868 31.4366 9.87312
129 2 31.8598 31.7411 9.98934
130 2 35.7996 31.5119 10.0369
131 2 39.6374 31.3666 9.88366
132 2 43.804 31.6099 9.85777
133 2 47.5143 31.5169 10.0322
134 2 51.4647 31.5326 9.97242
135 2 55.2539 31.7505 9.80658
136 2 0.130015 35.6375 10.0513
137 2 4.15442 35.6513 10.0191
138 2 8.08408 35.5941 9.98677
139 2 11.879 35.5808 9.87269
140 2 15.8064 35.5058 9.97113
141 2 19.9091 35.5271 10.0248
142 2 23.7034 35.575 10.071
143 2 27.6965 35.3662 9.93064
144 2 31.7667 35.5388 10.0578
145 2 35.7737 35.467 9.94321
146 2 39.6144 35.3832 9.91334
147 2 43.5217 35.6028 9.97741
148 2 47.6246 35.4671 10.1433
149 2 51.499 35.524 9.91122
150 2 55.3816 35.5308 9.89867
151 2 0.0525673 39.4288 9.92491
152 2 4.06745 39.5661 9.9881
153 2 8.09749 39.4792 9.75316
154 2 11.8109 39.5065 10.0949
155 2 15.7827 39.5324 9.89099
156 2 19.6297 39.5994 10.0376
157 2 23.7545 39.3905 9.78753
158 2 27.8641 39.4514 9.8271
159 2 31.6495 39.4978 9.75093
160 2 35.4504 39.4919 9.83396
161 2 39.4867 39.3666 9.98968
162 2 43.6735 39.5155 9.82869
163 2 47.6121 39.6399 10.151
164 2 51.507 39.4454 10.1331
165 2 55.4638 39.4724 10.0584
166 2 -0.0167668 43.5713 9.96624
167 2 4.05438 43.4195 10.0193
168 2 7.91656 43.6338 9.99691
169 2 11.8394 43.4155 10.0049
170 2 15.8371 43.5263 9.93805
171 2 19.7603 43.3462 9.97293
172 2 23.7581 43.2137 9.74954
173 2 27.7249 43.466 9.87444
174 2 31.7046 43.4379 9.97108
175 2 35.6712 43.3097 9.81301
176 2 39.4728 43.3256 10.1131
177 2 43.5156 43.4975 9.93546
178 2 47.4012 43.4184 10.003
179 2 51.5323 43.614 10.123
180 2 55.383 43.5831 9.97257
181 2 59.3235 47.4476 9.91507
182 2 3.91975 47.6492 9.93713
183 2 7.84521 47.3279 9.95475
184 2 11.9302 47.6446 10.06
185 2 15.8086 47.3098 9.80905
186 2 19.8425 47.2566 10.0925
187 2 23.7526 47.2209 9.80549
188 2 27.6541 47.3381 9.9202
189 2 31.5242 47.426 9.96261
190 2 35.7306 47.3654 9.78745
191 2 39.6233 47.4345 9.9971
192 2 43.4283 47.254 9.79424
193 2 47.3673 47.3716 10.0774
194 2 51.4539 47.3267 9.81925
195 2 55.3944 47.3465 9.89907
196 2 59.3883 51.2136 9.99075
197 2 4.08881 51.5256 9.95539
198 2 8.10937 51.4196 10.0785
199 2 11.9324 51.3897 9.95698
200 2 16.0018 51.224 10.0054
201 2 19.8648 51.3854 10.0485
202 2 23.8095 51.3313 10.0244
203 2 27.6257 51.2232 9.92493
204 2 31.6799 51.4367 9.95191
205 2 35.7764 51.4024 10.0003
206 2 39.5695 51.1079 9.92718
207 2 43.4081 51.2241 9.86294
208 2 47.5914 51.5139 9.91939
209 2 51.5748 51.3343 9.92622
210 2 55.3964 51.5348 9.93889
211 2 0.108524 55.3113 9.97547
212 2 4.08965 55.2571 9.84443
213 2 8.00461 55.2658 9.89737
214 2 11.8947 55.2603 9.92222
215 2 15.7769 55.4123 10.045
216 2 19.8864 55.1976 9.89176
217 2 23.8306 55.3849 9.99578
218 2 27.8865 55.4709 10.015
219 2 31.8352 55.2282 9.73821
220 2 35.7197 55.307 9.85547
221 2 39.8515 55.354 9.73183
222 2 43.6712 55.4697 9.72125
223 2 47.4999 55.3346 9.85281
224 2 51.5467 55.4332 9.91159
225 2 55.5657 55.5187 9.92076
226 2 59.6251 59.2866 13.9341
227 2 4.0279 -0.102908 13.9146
228 2 7.97909 0.174906 13.9327
229 2 11.9835 -0.0112465 14.1699
230 2 15.8709 0.0374043 14.0481
231 2 19.8519 59.3186 13.9929
232 2 24.0138 -0.0898606 13.9577
233 2 27.9825 -0.0698668 13.8726
234 2 31.9365 -0.0561626 13.9857
235 2 35.7707 -0.446446 13.9439
236 2 39.6183 -0.285495 14.0792
237 2 43.765 -0.0512828 13.9414
238 2 47.6366 59.3186 13.9964
239 2 51.6041 59.4129 13.9096
240 2 55.4107 0.0510522 13.7183
241 2 0.0831784 4.04502 13.7392
242 2 4.00521 3.86811 13.8619
243 2 8.06848 3.8277 13.9346
244 2 12.0244 3.96034 13.8514
245 2 16.1284 4.07121 14.005
246 2 20.0223 3.93259 13.9354
247 2 23.7396 3.93118 13.879
248 2 27.7383 3.81729 13.9667
249 2 31.7526 3.87949 13.8998
250 2 35.6481 3.69406 13.917
251 2 39.5382 3.67845 13.9727
252 2 43.5434 3.96391 13.8809
253 2 47.7609 3.91884 13.8147
254 2 51.6363 3.9424 13.7564
255 2 55.794 3.93266 13.9032
256 2 0.120363 7.99052 13.7752
257 2 3.96434 7.80546 13.8769
258 2 7.87055 7.68871 13.8796
259 2 11.8285 7.87423 13.9092
260 2 16.067 7.97225 13.6533
261 2 19.9473 8.09046 14.0567
262 2 23.973 7.7794 13.8001
263 2 28.0596 7.88765 13.7748
264 2 31.7116 8.08583 13.8309
265 2 35.6621 7.74239 13.8655
266 2 39.7135 7.67982 13.9816
267 2 43.5901 8.02611 13.9526
268 2 47.7351 8.01765 13.7312
269 2 51.6003 8.0781 13.837
270 2 55.5577 7.72654 13.8674
271 2 0.350282 11.9493 13.8911
272 2 4.32508 11.7107 13.8795
273 2 8.13906 11.6988 14.0009
274 2 11.9545 11.946 13.974
275 2 16.0859 11.8334 13.6954
276 2 19.9696 11.9032 13.9975
277 2 23.7181 11.9251 13.7264
278 2 27.6846 11.75 14.0397
279 2 31.6521 11.8359 13.9987
280 2 35.6867 11.8669 14.0071
281 2 39.5697 11.7742 14.1672
282 2 43.6279 11.899 13.9855
283 2 47.56 11.67 13.7966
284 2 51.7423 11.9969 13.8799
285 2 55.6153 11.6823 13.8046
286 2 0.27209 15.9315 14.0501
287 2 4.06746 15.8546 13.9992
288 2 7.8648 15.7475 13.9033
289 2 11.9459 15.949 13.9343
290 2 15.8073 15.8059 13.998
291 2 19.7624 15.9109 14.0156
292 2 23.7417 15.6757 13.9752
293 2 27.6787 15.6272 13.9973
294 2 31.8264 15.708 13.843
295 2 35.5572 15.8674 13.9592
296 2 39.6256 15.5509 13.8785
297 2 43.5944 15.7902 13.9486
298 2 47.7123 15.6925 14.0324
299 2 51.6263 15.8219 13.8557
300 2 55.6826 15.8724 14.0536
301 2 0.113475 19.9232 13.9291
302 2 4.08917 19.6282 13.9778
303 2 8.05344 19.7618 13.9959
304 2 12.1394 19.7971 13.9261
305 2 15.856 19.7455 13.839
306 2 19.6502 19.6746 13.909
307 2 23.8295 19.5684 13.7073
308 2 27.8452 19.5957 14.0284
309 2 31.7199 19.7668 14.0109
310 2 35.7016 19.6183 13.882
311 2 39.6656 19.549 13.7475
312 2 43.68 19.6193 13.8892
313 2 47.5912 19.674 13.9172
314 2 51.663 19.902 13.9813
315 2 55.4642 19.8475 13.9305
316 2 0.0306426 23.8119 13.8889
317 2 4.24806 23.6725 14.0534
318 2 8.09005 23.7959 13.9498
319 2 12.0337 23.834 13.8539
320 2 15.9408 23.7347 13.9735
321 2 19.8452 23.5916 13.9335
322 2 23.9448 23.5808 13.7913
323 2 27.6953 23.4664 13.9797
324 2 31.7247 23.5957 13.9601
325 2 35.7366 23.6119 13.8977
326 2 39.6793 23.5912 14.0816
327 2 43.5949 23.7321 13.9374
328 2 47.5738 23.6797 13.9574
329 2 51.4935 23.6701 13.9375
330 2 55.6612 23.7229 13.9823
331 2 59.5113 27.8641 13.8351
332 2 4.11291 27.7355 13.8319
333 2 8.02815 27.7075 13.9985
334 2 12.0486 27.6638 13.848
335 2 16.0169 27.5758 13.9831
336 2 20.0618 27.7697 14.022
337 2 23.8166 27.526 13.8707
338 2 27.6267 27.5929 14.1166
339 2 31.6185 27.5608 13.948
340 2 35.66 27.3964 13.7298
341 2 39.4473 27.7105 13.8337
342 2 43.5607 27.5043 14.0076
343 2 47.4313 27.6592 13.9228
344 2 51.5695 27.7182 13.8636
345 2 55.5219 27.5452 13.93
346 2 0.0902634 31.834 13.7721
347 2 4.14153 31.7561 13.8837
348 2 8.11002 31.6686 13.8491
349 2 11.9674 31.6115 13.8541
350 2 15.8021 31.571 13.809
351 2 19.7919 31.5316 13.8972
352 2 23.824 31.6266 14.0339
353 2 27.7921 31.5644 13.9724
354 2 31.7472 31.4574 14.0044
355 2 35.7951 31.5347 14.0141
356 2 39.8077 31.5359 13.8335
357 2 43.5801 31.3503 13.8251
358 2 47.4055 31.7411 13.9956
359 2 51.7083 31.5121 13.9884
360 2 55.5162 31.8024 13.8687
361 2 0.0827456 35.5847 13.95
362 2 4.15382 35.6773 13.9757
363 2 8.11129 35.5385 14.0437
364 2 12.0765 35.519 13.8292
365 2 15.806 35.4928 13.8514
366 2 20.0573 35.5317 13.9671
367 2 23.7973 35.6562 13.8008
368 2 27.8692 35.4835 13.76
369 2 31.8014 35.4615 13.9725
370 2 35.6445 35.4299 14.0371
371 2 39.5843 35.4518 13.8998
372 2 43.4365 35.6096 13.8681
373 2 47.3276 35.5409 14.1593
374 2 51.4846 35.6503 13.9347
375 2 55.3323 35.592 14.0009
376 2 0.0558252 39.6356 13.9296
377 2 4.06961 39.7319 13.9176
378 2 8.28724 39.5426 13.8323
379 2 11.8385 39.5502 13.9585
380 2 15.9719 39.5465 14.0111
381 2 19.7302 39.361 13.8877
382 2 23.8303 39.5481 13.9437
383 2 27.8292 39.8067 13.7684
384 2 31.7198 39.4673 13.9337
385 2 35.6866 39.4464 13.8166
386 2 39.8213 39.4767 14.0547
387 2 43.7098 39.2799 13.8775
388 2 47.6603 39.3452 13.9353
389 2 51.4709 39.5467 13.936
390 2 55.6066 39.5752 13.9748
391 2 0.194627 43.5806 13.9544
392 2 4.20995 43.5169 13.9973
393 2 8.00195 43.4107 13.9953
394 2 12.0241 43.5201 14.0729
395 2 15.939 43.4469 14.0724
396 2 19.92 43.468 13.8728
397 2 23.8262 43.573 14.0885
398 2 27.7711 43.3772 14.1124
399 2 31.8054 43.5746 14.0576
400 2 35.4976 43.4757 14.0804
401 2 39.57 43.3776 13.9679
402 2 43.411 43.3526 13.9428
403 2 47.4238 43.5422 13.9453
404 2 51.7137 43.6935 13.9362
405 2 55.412 43.5261 13.7091
406 2 59.5523 47.5534 13.9222
407 2 3.98941 47.4806 13.8181
408 2 7.86525 47.2958 13.8613
409 2 11.9492 47.4322 14.0248
410 2 15.8379 47.2071 13.8814
411 2 19.7737 47.5672 13.9666
412 2 23.7093 47.4435 14.0075
413 2 27.6855 47.1947 13.9219
414 2 31.6684 47.3397 13.9099
415 2 35.7035 47.5364 13.9591
416 2 39.5198 47.3264 14.0298
417 2 43.4454 47.2854 13.9376
418 2 47.392 47.7424 13.9024
419 2 51.3821 47.532 13.9469
420 2 55.4621 47.4586 13.9283
421 2 -0.196921 51.454 13.8261
422 2 4.11428 51.4695 14.0211
423 2 7.98291 51.2441 13.9069
424 2 11.7714 51.4358 13.892
425 2 15.9221 51.3537 14.0627
426 2 20.0079 51.5206 13.9273
427 2 23.9175 51.2925 13.8149
428 2 27.7009 51.4276 13.6981
429 2 31.5876 51.3704 14.0463
430 2 35.4669 51.0358 13.9089
431 2 39.6431 51.2962 14.025
432 2 43.734 51.3714 13.7133
433 2 47.7933 51.4907 13.9467
434 2 51.7688 51.38 13.809
435 2 55.5909 51.8149 13.9302
436 2 0.353799 55.4719 13.8282
437 2 4.13397 55.4033 14.1135
438 2 8.14118 55.4527 14.0921
439 2 12.123 55.2833 13.7987
440 2 16.1337 55.3858 13.8828
441 2 19.7503 55.3126 14.0588
442 2 23.9724 55.3735 14.0205
443 2 27.8409 55.4125 13.8664
444 2 31.6699 55.0885 13.8895
445 2 35.5743 55.0978 13.9554
446 2 39.6788 55.2536 13.9535
447 2 43.7324 55.4692 13.7488
448 2 47.7565 55.3688 13.9357
449 2 51.6176 55.5511 14.1202
450 2 55.5881 55.4828 13.9666
451 2 59.2886 0.0490518 18.0483
452 2 4.06789 59.3954 17.7533
453 2 7.97141 0.00429007 17.9468
454 2 11.9824 0.257229 17.867
455 2 15.8401 59.3873 17.9685
456 2 19.9107 0.0112905 17.9235
457 2 23.7657 59.4855 17.9833
458 2 27.7515 0.133138 17.7371
459 2 31.599 -0.143187 17.9898
460 2 35.6904 -0.129993 18.0307
461 2 39.674 -0.081422 17.6392
462 2 43.7975 -0.0293499 17.9281
463 2 47.6849 -0.104771 17.8428
464 2 51.6609 0.0261502 18.0229
465 2 55.5519 -0.010253 17.9062
466 2 0.0812284 3.94556 17.8864
467 2 3.9106 3.95428 18.0705
468 2 7.84341 4.18431 17.8241
469 2 12.0258 4.16377 17.8411
470 2 15.944 3.95038 17.8674
471 2 19.8945 4.0258 17.7042
472 2 23.8274 4.21887 17.8431
473 2 27.7494 4.05095 17.9579
474 2 31.9048 4.11718 17.9887
475 2 35.4684 3.93549 17.7434
476 2 39.7796 3.86492 17.9661
477 2 43.7979 3.94365 17.7513
478 2 47.6402 3.84794 17.6834
479 2 51.6093 3.99557 17.703
480 2 55.6249 3.81471 17.9042
481 2 59.5161 8.05246 17.7262
482 2 4.13531 7.92535 17.8883
483 2 8.23484 8.01684 18.0017
484 2 11.96 7.82667 17.9667
485 2 15.8489 8.04342 17.8205
486 2 19.858 7.80848 18.0467
487 2 23.7754 7.97755 18.0095
488 2 27.8174 7.84178 17.9177
489 2 32.0397 8.03431 17.778
490 2 35.8212 7.77105 17.9391
491 2 39.6275 7.7749 17.9477
492 2 43.7789 7.94803 17.9341
493 2 47.7905 7.93429 17.5965
494 2 51.6968 7.7828 17.8895
495 2 55.5812 7.80473 17.8822
496 2 59.5782 12.08 17.7395
497 2 4.1151 11.8002 17.9169
498 2 7.85046 11.8827 17.9643
499 2 11.9144 11.9265 17.8329
500 2 15.8464 11.7758 18.0259
501 2 19.7469 11.8034 18.0318
502 2 23.8194 11.7695 17.8852
503 2 27.8424 11.9202 17.8754
504 2 31.8852 11.7809 18.0105
505 2 35.7927 11.9544 18.0358
506 2 39.6883 11.8379 18.0554
507 2 43.5759 11.8759 18.0433
508 2 47.6962 11.695 17.8946
509 2 51.7332 11.8878 17.9584
510 2 55.5206 12.0229 17.8309
511 2 59.5382 15.8894 17.9512
512 2 3.9717 15.8722 17.9365
513 2 8.02925 15.7077 18.0515
514 2 12.0638 15.9632 17.743
515 2 15.6857 15.7898 17.95
516 2 19.8897 15.8377 17.8933
517 2 23.6806 15.6751 17.9461
518 2 27.7559 15.9373 17.9017
519 2 31.7964 15.9094 17.96
520 2 35.9236 15.7579 17.7603
521 2 39.6711 15.7372 17.8758
522 2 43.7064 15.7999 17.8525
523 2 47.6834 15.6224 17.9249
524 2 51.7779 15.7097 17.8049
525 2 55.6312 15.7441 17.935
526 2 59.3263 19.9467 18.013
527 2 4.13881 19.7711 17.9702
528 2 8.10242 19.6634 18.078
529 2 11.8915 19.858 17.8274
530 2 15.8745 19.8665 17.7985
531 2 19.9184 19.7721 17.7842
532 2 23.9612 19.6068 17.7344
533 2 27.8814 19.7876 18.0263
534 2 31.8391 19.8291 17.9313
535 2 35.9476 19.827 17.8923
536 2 39.8339 19.6836 17.9411
537 2 43.8126 19.5865 18.0955
538 2 47.6508 19.6874 18.0447
539 2 51.6963 19.483 17.7636
540 2 55.5161 19.6335 18.0049
541 2 0.344733 23.6247 17.7562
542 2 3.88102 23.6306 17.9615
543 2 7.92314 23.7052 17.8835
544 2 12.007 23.8775 17.8607
545 2 15.7543 23.7623 17.9203
546 2 19.883 23.8016 17.9455
547 2 23.7642 23.7157 17.7342
548 2 27.9659 23.6866 17.7706
549 2 32.0913 23.6425 17.8257
550 2 35.9351 23.5408 17.8779
551 2 39.8514 23.6395 18.0412
552 2 43.6116 23.548 17.8447
553 2 47.7548 23.6199 17.9997
554 2 51.3831 23.84 17.6923
555 2 55.5817 23.8957 17.724
556 2 59.3652 27.6593 17.9746
557 2 4.16246 27.5822 17.7255
558 2 7.79445 27.8845 17.8126
559 2 11.8733 27.6713 17.9688
560 2 15.8305 27.6104 17.9407
561 2 20.048 27.6544 17.8396
562 2 23.8789 27.8413 17.8568
563 2 27.7352 27.7225 18.0394
564 2 31.6665 27.514 17.9337
565 2 35.8171 27.4282 18.045
566 2 39.5226 27.5644 18.1321
567 2 43.6472 27.5751 17.9771
568 2 47.5905 27.6358 17.8932
569 2 51.5761 27.8967 17.9707
570 2 55.5231 27.6769 17.9223
571 2 0.140194 31.7526 17.6505
572 2 4.07162 31.814 17.846
573 2 8.12499 31.7503 17.893
574 2 11.8816 31.754 17.9009
575 2 15.864 31.6564 17.8366
576 2 19.8329 31.5914 18.0078
577 2 23.8795 31.718 18.0312
578 2 27.755 31.6728 17.6279
579 2 31.7897 31.3715 17.9308
580 2 35.5274 31.5834 17.8016
581 2 39.8209 31.5492 17.9838
582 2 43.6511 31.7288 18.0374
583 2 47.5932 31.6852 17.9886
584 2 51.6064 31.7243 17.7364
585 2 55.6567 31.7478 17.9134
586 2 0.177015 35.6707 17.7934
587 2 4.15051 35.6514 17.9047
588 2 8.08962 35.4844 17.8378
589 2 12.0054 35.5119 17.8989
590 2 15.9409 35.4227 18.0207
591 2 19.9027 35.4685 17.98
592 2 23.9122 35.5533 17.965
593 2 27.8824 35.7252 17.739
594 2 31.5844 35.559 17.7262
595 2 35.7562 35.6592 18.0248
596 2 39.7203 35.5031 17.8359
597 2 43.421 35.7287 17.9919
598 2 47.7182 35.7497 17.9528
599 2 51.6517 35.5831 18.1202
600 2 55.7171 35.6785 17.9785
601 2 0.0186707 39.7315 17.8458
602 2 4.09784 39.3341 18.0489
603 2 7.89581 39.6748 17.9095
604 2 12.0488 39.603 17.9879
605 2 16.2337 39.407 17.8514
606 2 19.9856 39.4564 18.0466
607 2 23.9846 39.4749 17.9566
608 2 27.8008 39.4193 17.8892
609 2 31.777 39.5014 17.878
610 2 35.6985 39.3241 18.0159
611 2 39.5483 39.6461 17.7796
612 2 43.649 39.5967 17.9427
613 2 47.5628 39.5241 18.0591
614 2 51.7143 39.4132 17.9003
615 2 55.5996 39.6653 17.6978
616 2 0.178237 43.4389 17.9533
617 2 4.1942 43.4475 17.8188
618 2 8.13324 43.4519 17.8942
619 2 12.1098 43.618 18.0615
620 2 15.9342 43.374 17.7973
621 2 19.8797 43.5547 17.9449
622 2 23.668 43.5175 17.9451
623 2 28.0159 43.439 18.0202
624 2 31.8185 43.314 18.0293
625 2 35.8642 43.4394 17.9708
626 2 39.8687 43.4944 17.8309
627 2 43.7234 43.4196 17.996
628 2 47.7683 43.627 17.7867
629 2 51.5385 43.3804 17.9542
630 2 55.4826 43.7239 17.8583
631 2 0.0772957 47.3514 17.9504
632 2 4.0321 47.5196 17.9614
633 2 7.99347 47.418 18.0133
634 2 12.0223 47.611 17.8147
635 2 16.0899 47.5235 17.7986
636 2 19.9738 47.5662 17.8476
637 2 23.9288 47.4854 17.9681
638 2 27.7058 47.5137 18.0258
639 2 31.6047 47.3243 17.9289
640 2 35.7301 47.4919 17.8878
641 2 39.8061 47.5713 17.9678
642 2 43.6813 47.3262 17.8434
643 2 47.602 47.591 17.8833
644 2 51.6851 47.6012 17.9121
645 2 55.3848 47.3547 17.6949
646 2 0.177346 51.3882 17.9621
647 2 4.09087 51.4192 17.982
648 2 8.13105 51.4357 17.8441
649 2 12.0428 51.4081 17.8867
650 2 16.0587 51.4337 17.8153
651 2 19.9393 51.6988 18.1254
652 2 23.9526 51.5549 17.8803
653 2 27.7708 51.7726 17.8809
654 2 31.7607 51.3565 17.9014
655 2 35.7102 51.4739 17.9659
656 2 39.8549 51.4274 17.7688
657 2 43.7867 51.3811 17.977
658 2 47.5947 51.5537 17.9156
659 2 51.5948 51.5327 17.794
660 2 55.51 51.3624 17.9907
661 2 0.0290334 55.3959 17.7777
662 2 4.12658 55.4439 17.959
663 2 8.05706 55.2647 17.8635
664 2 12.1166 55.5545 17.7683
665 2 15.8866 55.457 17.9643
666 2 19.7625 55.5444 18.0092
667 2 23.6923 55.5783 17.9252
668 2 27.6387 55.5095 17.9374
669 2 31.7388 55.2734 17.8661
670 2 35.795 55.2391 17.9541
671 2 39.675 55.1894 17.9371
672 2 43.8235 55.4168 17.8673
673 2 47.7121 55.3266 17.8397
674 2 51.586 55.4119 17.9476
675 2 55.4945 55.4432 18.0071
676 2 0.199599 0.141366 21.9569
677 2 4.08855 0.0947688 21.7059
678 2 7.90673 0.0428798 21.8374
679 2 11.8352 -0.0262741 21.6799
680 2 15.8529 0.302118 21.8706
681 2 19.8602 0.25796 21.9433
682 2 23.7726 0.169045 21.9126
683 2 27.8066 0.0407311 21.7474
684 2 31.7848 0.0275428 21.9726
685 2 35.7096 -0.0695874 21.9416
686 2 39.6925 0.125528 21.9545
687 2 43.7422 0.202864 21.7674
688 2 47.7072 -0.180067 21.8425
689 2 51.4403 59.4933 21.6812
690 2 55.5641 0.058523 21.856
691 2 0.314046 4.20431 21.7766
692 2 4.15991 4.18645 21.789
693 2 8.02809 4.0754 21.8153
694 2 12.0865 4.0851 22.0163
695 2 16.0955 3.91075 21.9475
696 2 19.8575 4.29612 21.8044
697 2 23.9453 4.01834 22.1097
698 2 27.8327 3.98686 21.8121
699 2 31.9448 3.92513 21.6937
700 2 35.8431 3.7506 21.808
701 2 39.7914 3.85477 21.7757
702 2 43.6843 3.98117 21.8
703 2 47.6697 4.13233 21.6626
704 2 51.5825 4.06095 22.0361
705 2 55.4343 4.08152 22.0226
706 2 59.5141 8.04212 21.7994
707 2 3.9747 7.99892 21.8631
708 2 8.06372 8.12805 22.032
709 2 11.679 7.95675 21.9315
710 2 15.7579 7.97622 21.983
711 2 19.8128 7.92092 21.9991
712 2 23.8053 7.98434 21.8662
713 2 27.8118 7.86822 21.9071
714 2 31.8587 7.82646 21.9626
715 2 35.9778 7.83768 21.904
716 2 39.6461 7.94423 21.9781
717 2 43.845 7.91211 21.6488
718 2 47.8431 7.82917 21.7918
719 2 51.7102 7.77039 22.0644
720 2 55.7221 8.28087 21.8192
721 2 -0.0422548 12.0784 21.8632
722 2 4.08892 11.9692 21.7419
723 2 7.86334 12.0476 21.9142
724 2 11.9074 11.9314 21.8966
725 2 15.7851 12.0424 21.897
726 2 19.9244 11.93 22.0816
727 2 23.8025 11.968 21.811
728 2 27.9102 11.7187 21.8316
729 2 31.7681 11.8805 21.8394
730 2 35.8589 12.0154 21.905
731 2 39.719 11.7422 22.0049
732 2 43.7546 11.8669 21.8145
733 2 47.6836 11.8288 21.9034
734 2 51.5756 11.8355 22.1324
735 2 55.5403 11.8421 22.0557
736 2 -0.0812089 15.7611 22.0374
737 2 3.87579 15.9278 21.9826
738 2 8.05653 15.8298 21.909
739 2 12.1413 15.8123 21.9371
740 2 15.7974 15.9338 22.008
741 2 19.8813 16.1471 21.8396
742 2 23.878 15.6828 21.8039
743 2 27.9325 15.5657 21.7624
744 2 31.9162 15.685 21.8384
745 2 35.7256 15.7891 22.0307
746 2 39.6751 15.5172 21.8462
747 2 43.637 15.9423 21.7833
748 2 47.715 15.8385 22.033
749 2 51.6975 15.7478 22.0356
750 2 55.38 15.9437 21.7968
751 2 59.3695 19.7436 21.9718
752 2 4.29085 19.8012 21.9647
753 2 8.17591 19.756 21.8663
754 2 12.0015 19.7123 21.8786
755 2 15.8645 19.818 21.9242
756 2 20.0261 19.9508 22.0173
757 2 23.7977 19.7849 21.9857
758 2 27.8509 19.9641 21.8433
759 2 31.6678 19.7278 21.9113
760 2 35.9501 19.5786 21.9149
761 2 39.7219 19.8218 21.9647
762 2 43.6733 19.7607 22.065
763 2 47.825 19.8332 21.9146
764 2 51.8336 19.7973 21.7541
765 2 55.5463 20.0972 21.9233
766 2 59.5359 23.6788 21.8702
767 2 4.18687 23.8038 21.9346
768 2 8.06936 23.5799 21.9077
769 2 11.9405 23.775 21.865
770 2 16.007 23.9857 21.8204
771 2 19.9703 23.8156 21.7589
772 2 23.9983 23.7756 21.8593
773 2 27.7801 23.674 21.7827
774 2 31.7755 23.6554 21.8382
775 2 35.562 23.6839 22.0236
776 2 39.8474 23.8531 21.8737
777 2 43.6724 23.7443 21.5005
778 2 47.592 23.8155 21.8768
779 2 51.5103 23.6663 21.951
780 2 55.507 23.7862 21.8708
781 2 59.4731 27.8204 21.9486
782 2 3.95969 27.8121 21.6796
783 2 7.88954 27.6343 21.7732
784 2 11.8986 27.6112 21.9113
785 2 15.9133 27.702 21.8516
786 2 19.8872 27.8974 21.8834
787 2 23.8175 27.7611 22.0242
788 2 27.967 27.6378 21.739
789 2 31.5478 27.5577 21.8568
790 2 35.4902 27.7037 21.9346
791 2 39.5507 27.6779 21.8674
792 2 43.6294 27.8162 21.7993
793 2 47.5629 27.7807 21.8697
794 2 51.6048 27.4155 21.8821
795 2 55.4127 27.8873 21.8472
796 2 59.2313 31.6904 21.9958
797 2 3.96317 31.665 21.878
798 2 7.83767 31.7245 21.9675
799 2 12.0907 31.5493 21.6794
800 2 15.96 31.4601 21.8891
801 2 19.922 31.5614 21.9313
802 2 23.7953 31.7493 22.062
803 2 27.6957 31.7887 21.9485
804 2 31.736 31.6037 21.7871
805 2 35.7058 31.4112 21.7649
806 2 39.4779 31.6013 21.9414
807 2 43.7307 31.8733 21.9561
808 2 47.6484 31.6004 21.8202
809 2 51.5892 31.745 21.7437
810 2 55.5446 31.8417 21.9122
811 2 59.5176 35.6928 22.0094
812 2 4.00527 35.7469 21.8068
813 2 8.09593 35.6516 21.8882
814 2 12.0047 35.7981 21.8832
815 2 15.8227 35.5238 21.9193
816 2 20.0411 35.6766 21.8457
817 2 23.9037 35.5594 22.001
818 2 27.8412 35.8269 21.8883
819 2 31.7386 35.6626 21.7515
820 2 35.6955 35.5988 21.9927
821 2 39.4371 35.5388 21.9159
822 2 43.5868 35.7392 21.9927
823 2 47.7982 35.385 21.8456
824 2 51.6344 35.6583 22.1361
825 2 55.5284 35.7838 21.8638
826 2 0.134807 39.6292 21.8245
827 2 4.12407 39.8574 21.9104
828 2 8.10892 39.6669 21.8569
829 2 12.0807 39.6628 21.974
830 2 15.9608 39.5176 21.7753
831 2 19.844 39.5888 21.8777
832 2 23.8545 39.5494 21.8444
833 2 27.753 39.675 21.9159
834 2 31.854 39.6471 22.0366
835 2 35.8543 39.5558 21.9752
836 2 39.6759 39.4042 22.0917
837 2 43.6289 39.5599 22.0658
838 2 47.5784 39.6666 21.9131
839 2 51.5251 39.7089 21.9922
840 2 55.513 39.5761 22.1289
841 2 0.189591 43.4417 21.9405
842 2 4.13734 43.756 21.7807
843 2 8.02902 43.6705 21.9236
844 2 12.0736 43.6308 21.9014
845 2 16.1873 43.5405 21.7234
846 2 19.9501 43.5269 21.9459
847 2 23.9188 43.5064 21.6965
848 2 27.8391 43.5915 21.7319
849 2 31.81 43.4989 21.8745
850 2 35.6684 43.5141 21.7175
851 2 39.8086 43.6558 21.9258
852 2 43.5722 43.5607 22.0631
853 2 47.4586 43.5677 22.0199
854 2 51.5458 43.4221 21.6659
855 2 55.5851 43.7093 21.8544
856 2 59.5075 47.5487 21.9391
857 2 4.29803 47.5635 21.8266
858 2 8.09508 47.7174 21.8328
859 2 12.0545 47.5453 21.585
860 2 16.0727 47.4117 21.7109
861 2 19.8599 47.6291 22.0161
862 2 23.8529 47.7477 21.7975
863 2 27.887 47.3997 21.9155
864 2 31.7017 47.4361 22.0174
865 2 35.8366 47.4597 21.9072
866 2 39.9799 47.5038 21.8286
867 2 43.8118 47.4704 21.8288
868 2 47.5793 47.4843 21.9895
869 2 51.61 47.5855 21.8496
870 2 55.5055 47.5875 21.892
871 2 0.077218 51.3881 22.0732
872 2 4.03856 51.4823 21.8671
873 2 8.23021 51.6328 21.6401
874 2 11.9663 51.5196 21.945
875 2 15.965 51.4513 21.9882
876 2 19.9744 51.6086 22.0925
877 2 23.891 51.695 21.9904
878 2 27.8936 51.5799 21.9169
879 2 31.6725 51.6207 21.9159
880 2 35.5329 51.3601 22.0396
881 2 39.7391 51.4257 21.98
882 2 43.7351 51.5395 21.8371
883 2 47.6177 51.3995 21.967
884 2 51.5366 51.4271 21.7223
885 2 55.4421 51.5557 21.9563
886 2 0.121026 55.3528 22.065
887 2 3.93605 55.5697 21.8936
888 2 7.95742 55.5352 21.8168
889 2 12.0362 55.5795 21.8356
890 2 15.7772 55.6013 22.0615
891 2 19.8262 55.5577 22.0353
892 2 23.9475 55.4762 22.0863
893 2 27.7911 55.6759 21.8684
894 2 31.6857 55.5695 21.9005
895 2 36.0151 55.4609 21.91
896 2 39.6401 55.5075 21.9379
897 2 43.7606 55.5049 21.8834
898 2 47.8251 55.4852 21.8634
899 2 51.8059 55.3805 21.8845
900 2 55.6175 55.3919 22.0209
901 2 59.5541 0.161592 25.8392
902 2 4.05579 0.31214 25.7147
903 2 7.85288 0.118329 25.9368
904 2 11.9312 -0.00950659 25.8894
905 2 15.8303 0.256206 26.1106
906 2 19.9837 0.188563 26.0039
907 2 23.7621 -0.00679028 25.711
908 2 27.8359 0.117591 25.9316
909 2 31.9452 0.21331 25.7393
910 2 35.7909 -0.0232088 26.0724
911 2 39.8907 -0.030259 25.8454
912 2 43.627 -0.0519804 25.8762
913 2 47.5086 0.061844 25.8598
914 2 51.5193 0.0858041 25.5572
915 2 55.4465 0.0433835 25.8147
916 2 -0.0567141 3.99641 25.8295
917 2 3.8825 4.01901 25.9485
918 2 7.94358 3.91167 25.9838
919 2 12.0033 4.14136 25.9637
920 2 15.7442 4.09063 26.0493
921 2 19.83 4.12449 25.9105
922 2 23.8463 4.07533 25.9452
923 2 28.0654 3.92159 25.845
924 2 31.7588 4.19455 25.8774
925 2 35.7297 4.03693 25.9152
926 2 39.9033 4.06534 25.7513
927 2 43.646 3.86556 26.1499
928 2 47.6347 4.09435 25.9302
929 2 51.5629 3.94879 26.0033
930 2 55.593 4.15932 26.084
931 2 -0.0326964 7.92099 26.009
932 2 4.00656 7.85609 25.8191
933 2 7.7623 7.97658 25.9722
934 2 11.9405 8.13422 26.0339
935 2 16.0253 8.21484 25.973
936 2 20.0047 8.30993 25.6544
937 2 23.9899 7.96873 26.0274
938 2 28.0224 8.05562 25.8355
939 2 32.0053 8.05074 25.7657
940 2 35.9363 7.92809 25.914
941 2 39.6021 7.79557 26.0402
942 2 43.7557 7.92614 25.6508
943 2 47.6908 7.97185 25.9838
944 2 51.5533 7.949 25.9199
945 2 55.61 8.08302 26.0083
946 2 0.157897 12.0933 25.8389
947 2 3.92352 12.0236 25.8375
948 2 7.89173 11.968 25.8676
949 2 11.7334 11.8334 25.8752
950 2 15.9763 11.9318 25.964
951 2 19.8901 12.0607 25.976
952 2 23.8813 11.8719 25.7888
953 2 27.7779 11.9225 25.8669
954 2 31.9019 11.6318 25.742
955 2 35.623 11.9135 26.0005
956 2 39.9384 11.9381 25.6808
957 2 43.5786 11.8165 26.0063
958 2 47.495 11.8136 25.9207
959 2 51.6314 11.9969 26.2927
960 2 55.5704 11.9926 26.0207
961 2 59.5751 16.0422 25.7811
962 2 4.07466 15.9232 26.0983
963 2 7.73129 15.8897 26.0928
964 2 12.025 15.8995 25.7937
965 2 16.0794 15.8983 25.9601
966 2 19.775 15.9474 25.8704
967 2 23.9243 15.9148 25.7816
968 2 27.9193 15.9192 25.7092
969 2 31.895 15.7472 25.9381
970 2 35.975 15.8503 25.9378
971 2 39.7895 15.9898 25.69
972 2 43.758 15.7886 25.9988
973 2 47.5616 15.9484 25.8602
974 2 51.3633 15.8547 25.9397
975 2 55.5404 16.0072 25.8971
976 2 59.5147 19.8942 25.9154
977 2 4.05123 19.8305 25.9
978 2 8.13747 19.6402 25.9609
979 2 12.1124 19.8717 25.8758
980 2 16.1027 20.0537 25.7725
981 2 19.8956 19.9025 25.857
982 2 23.7935 19.8477 25.7542
983 2 27.7983 19.9595 25.771
984 2 31.6941 19.8386 25.8009
985 2 35.9012 19.9431 25.8548
986 2 39.7307 19.8895 25.8118
987 2 43.6773 19.9161 25.8737
988 2 47.745 19.8294 25.7962
989 2 51.6929 19.6919 26.0401
990 2 55.5222 19.6723 25.9502
991 2 59.6176 23.7628 25.9568
992 2 4.15796 23.6695 25.8888
993 2 8.12196 23.5573 25.8341
994 2 12.0471 23.8821 25.886
995 2 15.9718 23.8829 25.9208
996 2 19.9738 23.7545 25.8632
997 2 24.0218 23.8707 25.899