ITEM: TIMESTEP
1527400
ITEM: NUMBER OF ATOMS
16875
ITEM: BOX BOUNDS xy xz yz pp pp pp
0.0000000000000000e+00 5.9369999999999997e+01 0.0000000000000000e+00
0.0000000000000000e+00 5.9369999999999997e+01 0.0000000000000000e+00
2.9679261461557971e-01 6.0069626385387039e+01 0.0000000000000000e+00
ITEM: ATOMS id type x y z
1 2 -0.15478 -0.137719 10.1149
2 2 4.04341 -0.00517939 10.0249
3 2 7.92665 59.1973 9.71016
4 2 11.8889 -0.102191 9.98229
5 2 15.9321 59.3659 9.92683
6 2 19.6464 -0.0281115 9.94213
7 2 23.6264 59.1575 9.88033
8 2 27.5133 -0.111411 9.98296
9 2 31.5478 -0.0973302 9.98816
10 2 35.5783 59.387 10.0485
11 2 39.5941 59.1813 10.0154
12 2 43.6573 59.2797 9.95692
13 2 47.6416 59.075 9.91739
14 2 51.5675 59.162 10.1578
15 2 55.4975 59.4752 9.86944
16 2 0.135943 3.96062 9.8521
17 2 4.0927 3.77088 9.82357
18 2 8.08435 3.91703 9.86456
19 2 11.9703 3.88953 9.96045
20 2 15.7658 3.79538 9.93416
21 2 19.7611 3.91135 10.0871
22 2 23.8214 3.9229 9.86414
23 2 27.6158 3.75815 9.75567
24 2 31.7549 3.79734 9.84164
25 2 35.7924 3.87292 9.99696
26 2 39.7194 3.67723 9.88424
27 2 43.7603 3.84093 9.85413
28 2 47.543 3.86883 10.0705
29 2 51.4866 3.74618 9.77187
30 2 55.3725 3.97029 9.83811
31 2 0.13535 7.9204 9.8517
32 2 4.12459 7.73671 9.95561
33 2 7.97471 7.82953 9.8269
34 2 11.9433 7.91754 9.97352
35 2 15.8206 7.87004 9.9609
36 2 19.7709 7.93793 10.0352
37 2 23.8456 7.87511 10.1729
38 2 27.7017 7.68216 9.87258
39 2 31.7161 7.79253 9.96292
40 2 35.6345 7.79592 10.0236
41 2 39.5556 8.09991 10.1044
42 2 43.527 7.72795 9.72601
43 2 47.6262 7.63646 9.84213
44 2 51.5204 7.75336 10.1249
45 2 55.3276 7.77079 9.88909
46 2 -0.100962 11.8503 9.93398
47 2 3.9882 11.6151 9.93239
48 2 7.97968 11.889 9.95382
49 2 12.1299 11.7073 9.89924
50 2 16.0028 11.7336 9.875
51 2 19.8837 11.8841 10.0467
52 2 23.8259 11.7003 9.68848
53 2 27.8382 11.9382 10.0179
54 2 31.7028 11.804 10.0571
55 2 35.6939 11.8136 9.91321
56 2 39.4431 11.8253 10.1116
57 2 43.7523 11.7114 9.98345
58 2 47.3851 11.9656 9.83286
59 2 51.2835 11.844 10.0909
60 2 55.4866 11.7454 9.95536
61 2 0.00382135 15.7459 9.80127
62 2 3.92454 15.5693 10.0411
63 2 7.96921 15.7713 10.0179
64 2 11.8979 15.4939 10.0342
65 2 15.9346 15.8073 9.96523
66 2 20.0142 15.7403 9.80851
67 2 23.8115 15.8863 9.93371
68 2 27.8355 15.8241 10.0496
69 2 31.7146 15.9288 10.0134
70 2 35.651 15.6985 9.90235
71 2 39.6774 15.8388 9.92337
72 2 43.4673 15.711 9.97235
73 2 47.4099 15.6522 9.96081
74 2 51.4033 15.8788 9.87499
75 2 55.4006 15.6057 10.1843
76 2 0.163323 19.672 9.99411
77 2 4.08222 19.7251 9.87979
78 2 7.91732 19.702 10.0454
79 2 11.9396 19.6356 9.93832
80 2 15.868 19.7276 9.87485
81 2 19.8328 19.6689 9.81928
82 2 23.6032 19.6574 9.871
83 2 27.6281 19.9018 10.0713
84 2 31.5069 19.8634 9.90388
85 2 35.6835 19.7767 9.88741
86 2 39.32 19.8073 10.1184
87 2 43.5374 19.6414 9.95397
88 2 47.5306 19.5915 9.93809
89 2 51.5646 19.7342 9.86123
90 2 55.4615 19.5103 9.85608
91 2 0.124787 23.5447 9.97806
92 2 4.01513 23.679 10.0783
93 2 7.79363 23.4819 9.96895
94 2 11.8269 23.5862 10.0175
95 2 15.9001 23.844 9.82812
96 2 19.9461 23.7203 9.83953
97 2 23.72 24.0308 9.73136
98 2 27.731 23.6099 10.0195
99 2 31.7692 23.8144 9.87645
100 2 35.568 23.7342 9.7809
101 2 39.5895 23.6785 9.87035
102 2 43.4195 23.624 10.0712
103 2 47.4826 23.5503 9.83833
104 2 51.4855 23.8487 9.93063
105 2 55.5015 23.7138 9.82592
106 2 0.242989 27.6248 10.0709
107 2 3.98012 27.6583 9.93146
108 2 7.85287 27.6722 9.89039
109 2 11.983 27.5881 10.0418
110 2 15.8837 27.6663 9.9239
111 2 19.8385 27.5499 9.92861
112 2 23.8471 27.7535 9.77851
113 2 28.0794 27.6568 9.87444
114 2 31.7513 27.5841 10.0577
115 2 35.6202 27.6926 9.84346
116 2 39.6718 27.6345 9.86488
117 2 43.5971 27.663 10.0236
118 2 47.7875 27.6827 9.74205
119 2 51.7131 27.7088 9.93723
120 2 55.6275 27.5072 9.93813
121 2 59.2585 31.5362 9.91405
122 2 4.03399 31.4342 9.80651
123 2 7.96737 31.5623 10.0259
124 2 11.8226 31.6921 9.93172
125 2 15.8479 31.7029 10.0876
126 2 19.9696 31.6433 9.71773
127 2 23.864 31.707 9.84505
128 2 27.8495 31.4743 9.69387
129 2 31.9171 31.6017 9.95432
130 2 35.7951 31.6321 10.0497
131 2 39.6263 31.6154 9.98293
132 2 43.6885 31.5708 9.86095
133 2 47.6909 31.5745 9.98543
134 2 51.5065 31.4967 9.90329
135 2 55.4312 31.5293 9.97642
136 2 0.179815 35.5015 10.0233
137 2 4.09638 35.5705 10.0377
138 2 7.94038 35.5183 10.0107
139 2 12.0174 35.5327 10.0313
140 2 16.0063 35.6074 10.1441
141 2 19.8358 35.6609 9.87739
142 2 23.9028 35.4879 9.96026
143 2 27.7114 35.5407 9.88729
144 2 31.7528 35.5588 10.1245
145 2 35.6304 35.6831 10.0231
146 2 39.5589 35.6585 9.93917
147 2 43.4778 35.5583 9.96758
148 2 47.622 35.4165 10.0413
149 2 51.5574 35.5751 9.84038
150 2 55.5105 35.4714 9.79558
151 2 0.206594 39.3594 9.76267
152 2 3.97643 39.4444 10.1321
153 2 7.81578 39.4329 9.80835
154 2 11.9247 39.6157 10.1274
155 2 16.0319 39.4422 9.9667
156 2 19.8752 39.4836 9.87489
157 2 24.0252 39.5249 9.82813
158 2 27.8563 39.5847 9.88507
159 2 31.6044 39.4739 9.95354
160 2 35.5805 39.6059 9.9137
161 2 39.5255 39.4641 10.0999
162 2 43.6414 39.385 9.69622
163 2 47.5766 39.4667 9.94469
164 2 51.7612 39.3871 9.82771
165 2 55.6979 39.4848 9.81467
166 2 0.159892 43.3622 9.94348
167 2 4.14098 43.2368 9.88817
168 2 7.98998 43.3561 9.86981
169 2 11.8934 43.325 9.93539
170 2 16.01 43.4068 9.84748
171 2 19.8518 43.4819 10.0644
172 2 23.9497 43.5578 9.72785
173 2 27.8633 43.4609 10.0518
174 2 31.8897 43.4846 10.0151
175 2 35.8047 43.4315 9.88869
176 2 39.7051 43.4973 10.0541
177 2 43.673 43.4787 9.83088
178 2 47.5085 43.2574 9.91057
179 2 51.4753 43.4292 9.97854
180 2 55.6758 43.5593 9.90123
181 2 59.509 47.2294 10.014
182 2 4.05045 47.4143 9.8777
183 2 7.88082 47.1526 9.81136
184 2 12.0055 47.4114 10.0129
185 2 15.7904 47.4982 9.86001
186 2 19.8127 47.3497 10.0924
187 2 23.9243 47.3154 9.9777
188 2 27.7394 47.4908 9.93473
189 2 31.7741 47.5101 9.97853
190 2 35.8151 47.3765 9.88358
191 2 39.6228 47.5481 10.0803
192 2 43.6857 47.4798 9.7599
193 2 47.5175 47.3382 10.1667
194 2 51.6658 47.5153 9.89069
195 2 55.4764 47.4389 9.97187
196 2 59.4949 51.1723 10.0572
197 2 4.04147 51.6274 9.90472
198 2 8.12593 51.3309 9.96525
199 2 11.9948 51.3871 9.96352
200 2 15.9414 51.1611 9.89699
201 2 19.8849 51.4599 10.0263
202 2 23.8121 51.5603 9.95439
203 2 27.6195 51.0982 9.90635
204 2 31.8391 51.4997 10.0643
205 2 35.7932 51.4097 10.0619
206 2 39.4639 51.2699 10.0346
207 2 43.5814 51.4226 10.0527
208 2 47.6295 51.4707 10.0978
209 2 51.6737 51.3559 10.0129
210 2 55.5835 51.2273 9.96142
211 2 0.0733613 55.1914 9.95833
212 2 4.16663 55.313 9.89534
213 2 7.87857 55.3331 9.92665
214 2 12.0129 55.3849 9.89833
215 2 15.9549 55.4353 9.96188
216 2 19.9363 55.3938 9.87437
217 2 23.6832 55.3374 9.85326
218 2 27.8282 55.3215 10.196
219 2 31.7403 55.2849 10.0046
220 2 35.6915 55.3731 10.0858
221 2 39.5357 55.2382 9.87067
222 2 43.5778 55.2085 10.0941
223 2 47.6094 55.1618 10.0478
224 2 51.4738 55.2911 9.94645
225 2 55.4654 55.4301 10.0775
226 2 59.5938 59.2644 13.9311
227 2 4.1853 -0.019551 13.8912
228 2 8.14959 0.143595 13.9433
229 2 12.0625 -0.16311 13.9827
230 2 15.9549 -0.0406953 13.9596
231 2 19.944 59.1525 13.8186
232 2 23.9683 -0.109073 13.9932
233 2 27.9708 0.0705959 13.9951
234 2 31.822 0.0311852 14.1001
235 2 35.6907 -0.0210489 14.0243
236 2 39.7075 0.0860707 13.8927
237 2 43.7386 0.0200815 13.9769
238 2 47.5952 59.427 14.0785
239 2 51.4466 59.2467 13.9582
240 2 55.5078 0.0299412 13.8292
241 2 0.1367 3.88613 13.94
242 2 4.13131 3.91072 13.8463
243 2 7.92687 4.00048 13.9206
244 2 11.9355 4.13678 13.9084
245 2 16.0054 4.01074 13.8807
246 2 19.8545 3.85212 13.9923
247 2 23.7952 3.93763 13.922
248 2 27.7082 3.87356 14.0271
249 2 31.6451 4.06138 13.9291
250 2 35.5696 3.8367 13.8602
251 2 39.6428 3.89693 13.912
252 2 43.6707 4.10649 13.7838
253 2 47.6597 3.95273 13.929
254 2 51.6435 4.09539 13.8193
255 2 55.5606 3.8229 13.8854
256 2 -0.0500077 7.91626 13.8996
257 2 4.06956 7.70382 13.9324
258 2 8.03737 7.92444 13.7266
259 2 11.9047 7.88255 13.8914
260 2 15.9366 7.92019 13.8761
261 2 19.7826 7.93799 14.2507
262 2 24.1003 7.85974 13.9418
263 2 27.9651 7.83377 13.834
264 2 31.5918 7.83268 13.9063
265 2 35.6642 7.83591 14.0174
266 2 39.7397 7.92578 13.9657
267 2 43.768 7.91895 13.9194
268 2 47.6347 7.78761 13.8079
269 2 51.4818 7.88716 13.914
270 2 55.3786 7.73068 13.9695
271 2 -0.0286282 11.8418 13.9602
272 2 4.25839 11.7019 13.8538
273 2 8.12143 11.8341 14.0038
274 2 12.0189 11.816 13.9859
275 2 15.8763 11.8515 13.8565
276 2 19.918 11.6838 14.1184
277 2 23.9228 11.7593 13.8715
278 2 27.8535 11.777 14.1191
279 2 31.7882 11.7961 13.9464
280 2 35.7453 11.8489 14.072
281 2 39.7953 11.8288 14.0176
282 2 43.6983 11.9003 13.7913
283 2 47.6165 11.8451 13.8226
284 2 51.5625 11.9634 14.0599
285 2 55.4559 11.6566 13.8393
286 2 0.162497 15.7521 13.9287
287 2 3.95523 15.6926 14.0166
288 2 7.80985 15.9281 13.8731
289 2 11.7733 15.6959 14.0828
290 2 15.77 15.5959 14.0876
291 2 20.0037 15.6742 14.0322
292 2 23.8974 15.7395 13.9807
293 2 27.9118 15.6526 14.0781
294 2 31.8968 15.5295 13.8743
295 2 35.6256 15.8156 13.9295
296 2 39.737 15.7735 13.8494
297 2 43.5754 15.9195 13.9018
298 2 47.563 15.971 13.9232
299 2 51.3106 15.9366 13.8443
300 2 55.6721 15.7242 13.9373
301 2 0.0488292 19.5636 13.8785
302 2 4.17257 19.602 14.0656
303 2 8.09725 19.6637 14.0002
304 2 12.101 19.814 13.9377
305 2 15.9978 19.7727 13.8243
306 2 19.7496 19.8972 14.0613
307 2 23.986 19.8644 13.8955
308 2 27.8306 19.4738 14.0564
309 2 31.6991 19.6119 13.9922
310 2 35.6309 19.7002 13.9419
311 2 39.478 19.7947 13.9272
312 2 43.4321 19.8725 13.9274
313 2 47.5595 19.8877 13.7027
314 2 51.5532 20.0231 13.8037
315 2 55.5164 19.6033 13.8521
316 2 -0.0223502 23.6964 13.8971
317 2 4.22262 23.5673 14.0258
318 2 8.21353 23.6876 13.9776
319 2 12.0394 23.6857 13.5412
320 2 15.9411 23.5447 14.1304
321 2 19.7131 23.7533 14.097
322 2 23.8963 23.8921 13.7697
323 2 27.7008 23.5926 13.9162
324 2 31.7367 23.7733 13.8152
325 2 35.7356 23.6324 14.1227
326 2 39.5847 23.6896 14.0257
327 2 43.4293 23.9003 13.8044
328 2 47.5388 23.7798 13.971
329 2 51.6771 23.7586 13.878
330 2 55.7054 23.6021 13.984
331 2 59.3348 27.8122 13.9614
332 2 3.98349 27.7727 14.034
333 2 8.00481 27.5241 13.9856
334 2 11.996 27.585 13.8453
335 2 16.0758 27.632 13.9102
336 2 19.9616 27.6714 13.9144
337 2 23.9927 27.609 13.8509
338 2 27.8582 27.7799 13.9782
339 2 31.6325 27.7663 13.8315
340 2 35.6563 27.769 13.8495
341 2 39.585 27.8433 13.8688
342 2 43.711 27.6017 13.9089
343 2 47.6181 27.7213 13.8964
344 2 51.5964 27.7352 13.9777
345 2 55.5937 27.6015 14.02
346 2 0.0111891 31.5504 14.0211
347 2 3.83651 31.6502 13.9671
348 2 7.97776 31.513 13.8918
349 2 11.8584 31.4889 14.027
350 2 15.9294 31.5362 13.953
351 2 19.9579 31.6806 13.8844
352 2 23.8762 31.6265 13.9448
353 2 27.6712 31.5788 13.9264
354 2 31.7039 31.6154 13.9618
355 2 35.8028 31.6748 14.1268
356 2 39.8015 31.6952 13.9648
357 2 43.5704 31.6212 14.0723
358 2 47.6667 31.9006 14.0536
359 2 51.6069 31.7658 13.9
360 2 55.5316 31.4524 13.9329
361 2 -0.0483898 35.402 14.0717
362 2 4.14753 35.4788 14.0479
363 2 8.03248 35.4949 13.9882
364 2 12.0791 35.6854 13.8601
365 2 15.9145 35.59 13.9566
366 2 20.0089 35.4844 14.027
367 2 23.784 35.5064 13.8122
368 2 27.7074 35.6614 14.0634
369 2 31.6485 35.4503 14.068
370 2 35.6704 35.4898 14.05
371 2 39.4564 35.5401 14.042
372 2 43.6281 35.5512 13.7475
373 2 47.4577 35.504 14.0312
374 2 51.4448 35.737 13.8313
375 2 55.2969 35.5698 13.9135
376 2 -0.0241622 39.4995 13.9638
377 2 3.86369 39.4294 13.8553
378 2 8.11891 39.3827 13.8473
379 2 11.9409 39.5431 13.9838
380 2 15.9868 39.6097 13.9843
381 2 19.8649 39.3485 13.9329
382 2 23.8986 39.4977 13.9151
383 2 27.786 39.64 13.742
384 2 31.7461 39.5357 13.8013
385 2 35.7386 39.4037 13.8458
386 2 39.8215 39.5492 13.8229
387 2 43.6989 39.395 13.9113
388 2 47.6507 39.3897 13.9481
389 2 51.465 39.6093 13.7558
390 2 55.5378 39.5714 13.862
391 2 0.160427 43.3672 13.9968
392 2 4.02606 43.5015 13.9407
393 2 8.0334 43.46 13.9218
394 2 11.971 43.4223 13.9754
395 2 16.015 43.4339 13.9952
396 2 20.2173 43.4432 13.7017
397 2 24.0113 43.4907 13.9252
398 2 27.777 43.3366 13.9099
399 2 31.8685 43.5147 14.0655
400 2 35.54 43.7014 13.8757
401 2 39.7911 43.5437 13.7609
402 2 43.6574 43.4698 13.8652
403 2 47.6356 43.5128 13.9864
404 2 51.5507 43.4845 13.93
405 2 55.3916 43.4788 13.749
406 2 59.5306 47.3286 13.7818
407 2 4.02528 47.511 13.891
408 2 8.02267 47.2894 13.8401
409 2 11.9459 47.501 13.8373
410 2 16.0345 47.5084 13.7076
411 2 19.8594 47.5011 13.7791
412 2 23.8347 47.4065 13.9474
413 2 27.8798 47.3482 13.9747
414 2 31.7894 47.3984 13.8647
415 2 35.7206 47.5764 13.9398
416 2 39.7451 47.4539 13.9307
417 2 43.7541 47.3126 13.9378
418 2 47.5591 47.372 13.8593
419 2 51.4003 47.3138 13.868
420 2 55.6003 47.3542 13.9708
421 2 0.122607 51.4955 13.9297
422 2 3.98123 51.5281 13.9936
423 2 7.97553 51.1733 13.8819
424 2 11.845 51.453 13.9463
425 2 15.9078 51.2983 14.0437
426 2 20.0188 51.4994 13.9812
427 2 23.8143 51.1046 13.9694
428 2 27.8357 51.1305 13.8875
429 2 31.5974 51.377 14.0499
430 2 35.6306 51.4377 13.8459
431 2 39.717 51.7336 14.0483
432 2 43.7752 51.434 13.9542
433 2 47.7058 51.2653 13.9718
434 2 51.6307 51.2347 13.8285
435 2 55.5971 51.5198 13.8125
436 2 0.274346 55.4966 13.9136
437 2 4.19721 55.2896 13.9608
438 2 8.17724 55.5506 13.8886
439 2 12.1954 55.2844 13.8254
440 2 16.1148 55.0384 13.6929
441 2 19.8936 55.3345 14.0908
442 2 23.8091 55.1329 14.0371
443 2 27.9123 55.3149 13.8344
444 2 31.8175 55.3421 14.0057
445 2 35.4967 55.5345 13.9145
446 2 39.618 55.4755 14.0468
447 2 43.603 55.5179 13.8821
448 2 47.4883 55.3385 13.9291
449 2 51.4734 55.4213 14.1225
450 2 55.5897 55.3411 13.962
451 2 59.3098 -0.0367791 17.8824
452 2 4.1184 59.4307 17.7918
453 2 8.19664 -0.198858 17.958
454 2 12.0947 0.0165777 17.8102
455 2 15.8292 59.2155 17.9711
456 2 20.0577 -0.149405 18.0107
457 2 23.8714 59.3338 17.9554
458 2 27.8507 0.0756267 17.7737
459 2 31.6535 -0.132439 18.0772
460 2 35.6031 0.149077 17.9161
461 2 39.7084 0.079416 17.7083
462 2 43.4759 -0.0144277 18.0662
463 2 47.5949 -0.0923041 18.0209
464 2 51.6735 0.000433662 17.8706
465 2 55.4951 -0.0408477 17.9228
466 2 0.207764 3.85434 17.8355
467 2 3.94044 3.91997 17.9403
468 2 7.94985 4.0179 17.8903
469 2 11.8817 3.84724 18.0737
470 2 15.7852 3.75973 18.0819
471 2 19.9794 3.73756 17.6928
472 2 23.9094 4.07968 18.0015
473 2 27.8447 3.86299 17.9797
474 2 31.6201 3.94278 18.0488
475 2 35.6699 4.09082 18.0247
476 2 39.6425 4.16791 17.9249
477 2 43.6905 3.902 17.9178
478 2 47.2919 3.80412 17.82
479 2 51.604 3.98505 17.7744
480 2 55.4527 3.83903 17.9263
481 2 59.4112 7.96437 17.722
482 2 3.99602 7.97881 17.8562
483 2 8.09209 7.90031 18.09
484 2 11.9382 7.75058 17.977
485 2 15.6636 7.85169 17.8459
486 2 19.9926 7.80586 17.9807
487 2 24.0824 7.91902 17.9139
488 2 27.9459 7.61275 17.9617
489 2 31.8434 7.89251 17.9567
490 2 35.7469 7.83784 17.9675
491 2 39.6308 7.97965 17.8541
492 2 43.643 7.99984 17.9183
493 2 47.4619 7.97739 17.8325
494 2 51.6411 7.96125 18.0407
495 2 55.4558 7.73303 17.9332
496 2 59.3119 11.8459 17.7889
497 2 3.9442 11.6758 17.978
498 2 7.69025 11.9411 17.7026
499 2 11.8749 11.8277 17.8753
500 2 15.949 11.8216 17.9652
501 2 19.8067 11.8039 17.8594
502 2 23.7739 11.6093 17.8568
503 2 27.8022 11.9686 17.9768
504 2 31.8879 11.5763 18.0429
505 2 35.8092 11.772 17.8848
506 2 39.838 11.9649 17.9219
507 2 43.6867 12.0198 17.9626
508 2 47.6591 11.7887 17.9606
509 2 51.3014 11.901 17.9096
510 2 55.3847 11.7989 17.8866
511 2 59.4163 15.8565 17.8838
512 2 3.9226 15.8243 18.0418
513 2 8.13204 15.9235 17.9005
514 2 11.7918 15.8878 17.8429
515 2 16.0066 15.9818 18.0297
516 2 19.9254 15.9522 17.9085
517 2 23.695 15.872 18.0059
518 2 27.757 15.927 17.9197
519 2 31.7753 15.6233 17.9759
520 2 35.7817 15.7497 17.8932
521 2 39.8286 15.9084 17.8433
522 2 43.874 15.992 17.7571
523 2 47.5992 16.0602 17.8086
524 2 51.308 15.9171 17.8527
525 2 55.369 15.7227 17.8551
526 2 59.5203 19.9317 18.0063
527 2 4.10472 19.7956 17.9846
528 2 7.98095 19.9648 17.9315
529 2 11.8725 19.9086 17.9567
530 2 15.968 19.7974 18.0796
531 2 20.022 20.0206 17.8777
532 2 23.9697 19.8363 17.7915
533 2 27.931 19.7719 18.0796
534 2 31.7706 19.7737 18.1111
535 2 35.8097 19.8503 18.081
536 2 39.611 19.6747 17.9442
537 2 43.6049 19.8547 17.9308
538 2 47.4827 19.9735 17.9623
539 2 51.5896 19.792 17.8333
540 2 55.3429 19.6904 18.0323
541 2 0.125948 23.7789 17.9527
542 2 3.73582 23.8129 17.8668
543 2 7.9399 23.7653 17.7165
544 2 12.0599 23.7626 17.8905
545 2 15.803 23.5234 18.0981
546 2 19.858 23.7869 18.0927
547 2 23.8799 23.8299 17.8715
548 2 27.9855 23.8544 17.7044
549 2 31.9464 23.8787 17.8671
550 2 35.767 23.6449 17.8247
551 2 39.7035 23.8461 17.8705
552 2 43.4476 23.7825 17.7172
553 2 47.5037 23.5913 17.8532
554 2 51.3965 23.8953 17.8778
555 2 55.4758 23.858 17.8761
556 2 59.2631 27.7471 18.0224
557 2 3.93858 27.5548 17.8069
558 2 8.01132 27.7385 17.9199
559 2 11.8893 27.7817 17.8548
560 2 15.8343 27.7672 17.9549
561 2 19.9355 27.6066 17.8934
562 2 23.8717 27.7787 18.069
563 2 27.7334 27.595 18.0037
564 2 31.8289 27.6397 17.9954
565 2 35.7893 27.6947 17.9797
566 2 39.592 27.9697 17.8631
567 2 43.6189 27.7192 17.898
568 2 47.7105 27.7996 17.9882
569 2 51.4342 27.8294 17.9448
570 2 55.422 27.6168 18.0907
571 2 0.102407 31.6255 17.9291
572 2 3.98346 31.8527 17.9121
573 2 7.98198 31.4251 18.094
574 2 11.7064 31.6167 17.9665
575 2 16.013 31.8234 17.738
576 2 19.6677 31.7026 17.802
577 2 23.7369 31.7245 18.1116
578 2 27.6935 31.6044 17.9003
579 2 31.7019 31.5965 18.1108
580 2 35.6856 31.7987 17.8476
581 2 39.9438 31.716 17.9392
582 2 43.8109 31.7517 18.0184
583 2 47.7011 31.7915 17.8403
584 2 51.5775 31.7091 17.796
585 2 55.5131 31.6659 18.1206
586 2 0.07354 35.7619 17.9915
587 2 4.00993 35.5467 17.9955
588 2 7.97648 35.6427 17.8692
589 2 11.9283 35.7004 17.8961
590 2 15.7853 35.4557 17.8837
591 2 19.8096 35.6246 17.7881
592 2 23.7275 35.5953 17.9787
593 2 27.7774 35.6097 17.9911
594 2 31.5565 35.494 17.9492
595 2 35.6647 35.7711 18.1256
596 2 39.6915 35.7229 17.9592
597 2 43.5901 35.6671 18.1051
598 2 47.6419 35.7084 17.9521
599 2 51.6478 35.645 18.0372
600 2 55.5376 35.6673 18.0559
601 2 0.0885005 39.6414 17.8968
602 2 3.95425 39.3117 17.9634
603 2 7.79802 39.7461 18.043
604 2 11.9273 39.7796 17.9694
605 2 16.0364 39.5857 17.7304
606 2 19.9215 39.6455 17.8848
607 2 23.711 39.4773 17.8912
608 2 27.7545 39.3761 17.8817
609 2 31.6438 39.6352 17.9074
610 2 35.799 39.6174 17.9671
611 2 39.5421 39.847 17.7584
612 2 43.6223 39.8676 17.9266
613 2 47.5691 39.5658 17.9254
614 2 51.523 39.5346 17.8927
615 2 55.4037 39.6686 17.8198
616 2 0.187098 43.4447 17.988
617 2 4.03047 43.5796 17.7147
618 2 8.08786 43.6115 17.8709
619 2 11.9534 43.6944 17.9966
620 2 15.806 43.6411 17.7761
621 2 19.7399 43.6138 17.8566
622 2 23.6703 43.4004 17.9276
623 2 27.8575 43.6135 18.0329
624 2 31.9045 43.5452 17.9564
625 2 35.841 43.5016 17.8555
626 2 39.6007 43.613 17.7901
627 2 43.6775 43.4757 17.8594
628 2 47.7573 43.5224 17.8027
629 2 51.487 43.4016 17.9226
630 2 55.4406 43.5557 17.8525
631 2 -0.0536744 47.561 17.7561
632 2 3.86425 47.646 17.5967
633 2 7.93357 47.4038 17.8308
634 2 11.9169 47.5864 17.8459
635 2 15.9551 47.503 17.891
636 2 19.9832 47.4741 17.8524
637 2 23.8314 47.3176 17.9729
638 2 27.7311 47.6686 18.0037
639 2 31.6475 47.4082 18.0923
640 2 35.8349 47.4804 17.9343
641 2 39.4352 47.6123 17.9395
642 2 43.7144 47.2593 17.9728
643 2 47.5105 47.3802 17.9862
644 2 51.4554 47.5461 17.7774
645 2 55.4745 47.5744 17.6799
646 2 0.0523514 51.3915 17.8626
647 2 4.02738 51.5327 17.9842
648 2 8.00054 51.3919 17.8813
649 2 12.1191 51.4584 17.9056
650 2 16.0812 51.2244 17.9593
651 2 19.899 51.5276 18.1811
652 2 23.8478 51.2381 17.9404
653 2 27.8444 51.6041 17.9417
654 2 31.8612 51.2352 17.9803
655 2 35.7857 51.509 18.0521
656 2 39.7496 51.488 17.8237
657 2 43.6385 51.5674 17.8698
658 2 47.5601 51.6 17.8331
659 2 51.4732 51.5563 17.797
660 2 55.5666 51.4013 17.9101
661 2 -0.0469022 55.5585 17.7762
662 2 3.88912 55.2991 17.959
663 2 8.18009 55.3266 17.7674
664 2 12.1438 55.3699 17.7225
665 2 16.0389 55.162 17.9483
666 2 19.8738 55.4813 18.0387
667 2 23.6991 55.35 17.9362
668 2 27.7456 55.3193 18.0046
669 2 31.8657 55.2489 18.0188
670 2 35.6558 55.5467 18.0216
671 2 39.7532 55.4047 18.016
672 2 43.4426 55.275 18.074
673 2 47.3869 55.3946 18.0372
674 2 51.4673 55.4168 17.9214
675 2 55.4762 55.4242 17.8258
676 2 0.103819 0.0587788 21.9602
677 2 4.04097 -0.0861929 21.8549
678 2 8.12905 -0.182421 22.0781
679 2 11.79 0.00981012 21.7311
680 2 15.9699 0.00602764 21.9748
681 2 19.6479 -0.00261633 21.7786
682 2 23.7358 0.0470881 21.8998
683 2 27.8052 -0.116955 21.988
684 2 31.6304 0.049328 22.0412
685 2 35.7498 0.0657442 22.0439
686 2 39.5716 -0.0722998 21.9623
687 2 43.5408 0.0348306 22.0274
688 2 47.6506 -0.00631332 21.8356
689 2 51.5997 59.5135 21.7959
690 2 55.3788 -0.0146848 21.7903
691 2 0.206654 4.08145 21.8082
692 2 4.19121 3.89623 21.8258
693 2 8.12753 3.88064 22.0628
694 2 11.9858 3.99883 21.9632
695 2 16.0582 3.77505 22.0516
696 2 19.8087 4.04194 21.9189
697 2 23.9189 3.88804 22.0355
698 2 27.8049 3.81891 21.993
699 2 31.7926 3.94309 21.9745
700 2 35.7808 3.87431 21.7881
701 2 39.7513 3.9524 21.7167
702 2 43.5592 3.91273 22.1012
703 2 47.6054 3.9759 21.5431
704 2 51.4469 4.13523 21.8401
705 2 55.5908 3.99911 21.963
706 2 59.3492 7.82669 21.7702
707 2 4.03527 7.97669 21.9236
708 2 7.96244 7.92066 22.1618
709 2 11.93 7.88034 21.9783
710 2 15.6669 7.92776 21.7499
711 2 19.6794 7.72647 21.9304
712 2 23.7536 8.01141 21.8381
713 2 27.8173 7.99199 22.0203
714 2 31.6085 7.8283 22.0366
715 2 35.9051 7.88736 21.9078
716 2 39.5165 8.01915 22.016
717 2 43.5594 7.85212 21.9688
718 2 47.5067 7.8908 22.0139
719 2 51.4387 7.79126 21.8187
720 2 55.5239 8.14559 21.6069
721 2 0.0805374 11.7886 21.7995
722 2 4.08948 11.9715 21.7724
723 2 8.02748 12.0432 21.8324
724 2 12.1682 11.9396 21.8756
725 2 16.0119 11.9534 21.6511
726 2 19.8434 11.9294 21.904
727 2 23.7743 12.0783 21.8825
728 2 27.6878 11.9077 21.9389
729 2 31.6214 11.7692 21.8712
730 2 35.5891 11.9534 21.9136
731 2 39.6367 11.9016 22.0031
732 2 43.748 11.886 21.8821
733 2 47.6716 12.0245 21.858
734 2 51.5807 11.8816 22.017
735 2 55.4371 11.8566 21.9026
736 2 0.18386 15.7472 21.849
737 2 3.87029 16.0668 21.9528
738 2 8.01815 16.0071 21.8299
739 2 12.0392 15.8523 22.0099
740 2 15.9106 15.9309 21.8157
741 2 19.8232 15.983 21.7374
742 2 23.8064 15.8972 21.9423
743 2 27.9075 15.7828 22.0292
744 2 31.9788 15.7831 21.8628
745 2 35.4617 15.9199 21.9815
746 2 39.5604 15.6865 21.8417
747 2 43.6601 16.055 21.7438
748 2 47.6021 15.9787 21.8992
749 2 51.4621 15.9152 21.8587
750 2 55.5447 15.8365 21.7816
751 2 59.5842 19.6524 22.0053
752 2 4.08015 19.8439 21.854
753 2 8.01451 20.0758 21.769
754 2 11.866 19.8066 21.9981
755 2 15.8467 20.0116 21.8852
756 2 20.0082 19.9005 21.9627
757 2 23.8609 19.7213 21.8952
758 2 27.7263 19.87 21.8645
759 2 31.7389 19.6114 22.0014
760 2 35.9365 19.7747 21.8434
761 2 39.5952 19.7109 22.035
762 2 43.3863 19.9539 22.0682
763 2 47.5769 20.1759 22.0115
764 2 51.65 20.0688 21.7238
765 2 55.7387 20.0212 21.8935
766 2 59.4056 23.9381 21.9054
767 2 3.91824 23.9817 21.8896
768 2 8.04934 23.9465 21.725
769 2 12.0516 23.7508 22.0368
770 2 15.8942 23.8862 21.9861
771 2 19.9962 23.6583 21.8391
772 2 23.8879 23.8048 21.9915
773 2 27.5492 23.8504 21.7907
774 2 31.8512 23.7471 21.8883
775 2 35.502 23.6339 21.9174
776 2 39.7863 23.9741 21.9788
777 2 43.5283 23.8898 21.9835
778 2 47.4229 23.8965 21.9736
779 2 51.3799 23.6641 21.9623
780 2 55.5135 23.8403 21.7456
781 2 59.4668 27.9084 21.931
782 2 3.96335 27.8302 21.668
783 2 8.11956 27.5475 21.6206
784 2 11.963 27.7244 21.9492
785 2 16.0725 27.7539 21.8887
786 2 19.9531 27.8531 21.931
787 2 23.8192 27.651 21.9425
788 2 27.8687 27.7156 21.6859
789 2 31.616 27.6843 21.9009
790 2 35.7159 27.7919 21.8941
791 2 39.6353 27.8572 21.9305
792 2 43.6713 27.9813 21.8884
793 2 47.2476 27.6316 21.9207
794 2 51.6454 27.549 22.1052
795 2 55.4306 27.8868 21.9159
796 2 59.5363 31.6421 21.9329
797 2 4.01428 31.6466 21.8805
798 2 8.02338 31.7498 22.0497
799 2 12.0585 31.7084 21.7703
800 2 15.9158 31.8262 21.8305
801 2 19.8958 31.8948 21.8372
802 2 23.84 31.8031 22.1176
803 2 27.7847 31.8906 22.0684
804 2 31.8299 31.589 21.8167
805 2 35.6047 31.6111 21.7716
806 2 39.6151 31.8289 21.8066
807 2 43.5773 31.7531 22.0294
808 2 47.5325 31.5832 21.8808
809 2 51.5533 31.8287 21.8662
810 2 55.4823 31.8609 21.9983
811 2 59.5293 35.706 21.8775
812 2 4.10876 35.6032 21.7516
813 2 8.05249 35.8006 21.9138
814 2 12.0893 36.055 21.8184
815 2 15.9339 35.7946 21.8349
816 2 19.9932 35.9324 21.8117
817 2 23.844 35.7557 21.9931
818 2 27.7317 35.8161 21.7931
819 2 31.5912 35.5984 21.9112
820 2 35.6988 35.765 21.9842
821 2 39.5917 35.7193 21.9637
822 2 43.4586 35.8807 21.9772
823 2 47.6014 35.651 21.8574
824 2 51.6475 35.7584 21.961
825 2 55.4658 35.9274 21.803
826 2 0.0745161 39.5981 21.7687
827 2 4.12205 39.7281 21.9279
828 2 8.14524 39.6491 21.9294
829 2 11.9226 39.7061 21.9303
830 2 15.899 39.618 21.8778
831 2 19.7674 39.7526 21.9209
832 2 23.7132 39.7415 21.9278
833 2 27.6899 39.7406 22.1289
834 2 31.8627 39.6903 22.087
835 2 35.7533 39.401 22.0069
836 2 39.7852 39.5114 21.9538
837 2 43.614 39.6711 21.8717
838 2 47.6355 39.7129 21.8099
839 2 51.6102 39.7853 22.0125
840 2 55.4679 39.636 22.0029
841 2 0.0763789 43.4009 21.6351
842 2 3.86273 43.8613 21.6779
843 2 7.91468 43.6496 21.9724
844 2 11.933 43.5561 21.9189
845 2 15.9305 43.5912 21.8585
846 2 19.8914 43.5399 22.1693
847 2 23.7214 43.4379 21.9224
848 2 27.7622 43.4889 22.0044
849 2 31.6732 43.5299 21.977
850 2 35.6908 43.4334 21.7311
851 2 39.4437 43.4657 21.8573
852 2 43.4452 43.7438 21.9456
853 2 47.6921 43.685 21.9172
854 2 51.6229 43.646 21.6967
855 2 55.5284 43.6275 21.8135
856 2 59.3255 47.711 21.9296
857 2 4.08422 47.5287 21.9473
858 2 7.79256 47.539 21.9747
859 2 11.8306 47.6272 21.7906
860 2 15.6863 47.3308 21.7323
861 2 19.6939 47.3489 21.9149
862 2 23.8158 47.3991 21.8484
863 2 27.773 47.4263 21.9985
864 2 31.874 47.5 22.0085
865 2 35.7821 47.4652 21.7452
866 2 39.7916 47.6282 21.8212
867 2 43.7202 47.7851 21.7895
868 2 47.5093 47.611 22.0809
869 2 51.5698 47.6264 21.8925
870 2 55.4199 47.3928 21.722
871 2 -0.000979386 51.517 21.7307
872 2 3.9147 51.4724 21.9365
873 2 8.13951 51.5593 21.7433
874 2 12.0375 51.5238 21.8704
875 2 15.9045 51.3262 21.7856
876 2 20.1372 51.4636 21.9959
877 2 23.8214 51.4043 22.0902
878 2 27.7942 51.3172 21.8779
879 2 31.7781 51.5535 21.7349
880 2 35.6334 51.4873 22.0239
881 2 39.5556 51.3198 22.0402
882 2 43.491 51.5258 21.9337
883 2 47.5434 51.3878 21.8552
884 2 51.5734 51.5126 21.655
885 2 55.3705 51.5426 21.9142
886 2 0.173694 55.5079 21.8514
887 2 3.91442 55.2986 21.8397
888 2 7.9358 55.3482 21.8065
889 2 12.1377 55.2309 21.8118
890 2 15.9212 55.3958 21.9013
891 2 19.7086 55.3331 21.9525
892 2 23.9866 55.2523 22.1124
893 2 27.808 55.5621 21.9107
894 2 31.8125 55.4374 21.9864
895 2 35.8959 55.3304 21.931
896 2 39.6178 55.3685 21.9904
897 2 43.5173 55.4433 22.0641
898 2 47.7225 55.3489 22.0456
899 2 51.6486 55.3866 22.049
900 2 55.634 55.5465 21.9976
901 2 59.4076 -0.0129246 25.9381
902 2 4.24126 0.0592847 25.8749
903 2 8.14082 0.0509417 25.9634
904 2 11.9101 0.0321916 25.8884
905 2 15.8841 0.0968783 25.7853
906 2 19.9492 0.0435606 25.82
907 2 23.8938 -0.0269583 25.885
908 2 27.813 -0.02172 25.9218
909 2 31.6938 0.164127 25.9225
910 2 35.5592 0.000429928 26.1137
911 2 39.6759 0.140538 25.9535
912 2 43.7489 0.000919542 25.8344
913 2 47.6155 0.09731 25.7181
914 2 51.6081 0.200659 25.6732
915 2 55.5578 -0.0529118 25.8841
916 2 -0.103661 3.98067 25.752
917 2 3.90512 4.02709 25.9766
918 2 8.16287 3.91357 25.8049
919 2 12.0418 4.03761 25.747
920 2 15.7742 3.91037 25.8818
921 2 19.9459 4.0048 25.7814
922 2 23.9138 3.9944 26.0493
923 2 27.7788 3.94568 25.9796
924 2 31.6359 3.97442 25.9866
925 2 35.5357 4.05867 25.8165
926 2 39.7434 4.17412 25.8263
927 2 43.5678 3.86962 26.008
928 2 47.6315 4.07382 25.8396
929 2 51.5765 3.97057 25.8827
930 2 55.5496 3.98869 26.0412
931 2 0.162298 7.89564 25.8048
932 2 4.12127 7.90169 25.6401
933 2 8.02029 8.00507 26.0454
934 2 12.091 7.98182 25.8044
935 2 16.1306 7.9854 25.8198
936 2 19.9576 8.11485 25.7787
937 2 23.7798 7.70821 25.9956
938 2 27.8504 8.02132 25.8289
939 2 31.7511 7.91532 25.8492
940 2 35.7239 7.93238 25.8339
941 2 39.5553 7.9861 26.0251
942 2 43.6717 8.00985 25.7808
943 2 47.4521 7.97312 25.8213
944 2 51.5625 8.10821 25.8005
945 2 55.4134 7.99372 25.8194
946 2 0.353581 11.8703 25.833
947 2 4.29136 12.0895 25.7283
948 2 8.11193 11.9792 25.8583
949 2 12.1184 11.7765 25.6112
950 2 15.8687 11.9156 25.7837
951 2 19.851 11.9155 25.7872
952 2 23.8914 11.8811 25.89
953 2 27.803 11.9826 25.9359
954 2 31.8122 11.83 25.7865
955 2 35.5484 11.8367 25.9685
956 2 39.7626 12.0675 25.6852
957 2 43.6755 11.9853 26.0053
958 2 47.5742 11.8821 25.6517
959 2 51.6237 12.1977 25.857
960 2 55.5487 12.0039 25.8536
961 2 59.5154 15.9076 25.7674
962 2 4.18113 15.907 25.9702
963 2 7.86244 15.994 25.9858
964 2 11.8568 16.0665 25.7713
965 2 15.7916 15.9164 25.814
966 2 19.7418 15.7792 26.1208
967 2 23.9076 15.7983 25.8646
968 2 28.0053 15.9424 25.8847
969 2 31.8584 16.0173 25.9789
970 2 35.7431 15.9024 26.1623
971 2 39.6741 15.9804 25.9286
972 2 43.72 15.7851 25.9828
973 2 47.3939 16.0933 25.7441
974 2 51.3314 15.9917 25.8177
975 2 55.5729 15.9769 25.8053
976 2 59.3384 19.8626 25.8717
977 2 3.89272 20.0468 25.8666
978 2 7.84359 19.7642 25.7921
979 2 11.7539 19.9185 25.7796
980 2 15.7362 20.0522 26.009
981 2 19.7332 19.7878 25.9781
982 2 23.7909 19.5531 25.9263
983 2 27.9183 20.0104 25.7191
984 2 31.7416 20.1066 25.8143
985 2 35.7378 20.0642 26.0056
986 2 39.6496 19.8593 25.8785
987 2 43.6201 19.7263 25.8924
988 2 47.5379 20.0173 25.6928
989 2 51.5535 19.8615 25.9114
990 2 55.39 19.6957 25.9364
991 2 59.345 23.9254 25.9825
992 2 3.90655 23.7397 25.9469
993 2 7.93612 23.8756 25.8008
994 2 11.6901 23.9693 25.7032
995 2 15.8878 23.9817 25.7969
996 2 19.8713 23.7591 26.0139
997 2 23.9331 23.8001 26.0157