ITEM: TIMESTEP
1532300
ITEM: NUMBER OF ATOMS
16875
ITEM: BOX BOUNDS xy xz yz pp pp pp
0.0000000000000000e+00 5.9369999999999997e+01 0.0000000000000000e+00
0.0000000000000000e+00 5.9369999999999997e+01 0.0000000000000000e+00
3.0295857513279145e-01 6.0063460424869717e+01 0.0000000000000000e+00
ITEM: ATOMS id type x y z
1 2 59.5387 59.2032 9.88167
2 2 4.02171 59.3616 9.93622
3 2 8.10887 59.3449 10.0469
4 2 11.98 59.281 9.94461
5 2 15.7257 0.0863887 10.0089
6 2 20.0369 59.2548 9.85847
7 2 23.6186 59.4798 10.0446
8 2 27.7928 59.4119 9.85024
9 2 31.8812 59.1813 9.84568
10 2 35.7109 59.4511 9.98127
11 2 39.5884 59.4226 9.98393
12 2 43.4633 59.5679 9.87566
13 2 47.4125 59.304 10.0689
14 2 51.4416 59.3435 10.0451
15 2 55.4596 59.3038 9.91724
16 2 0.0904806 3.79606 9.8325
17 2 4.10426 3.93225 9.93608
18 2 8.00778 3.97484 10.051
19 2 11.9404 4.0341 10.0991
20 2 16.124 3.80907 9.91959
21 2 19.7636 4.00866 9.93841
22 2 23.8856 4.04646 9.93214
23 2 27.997 3.95001 9.83141
24 2 31.8739 3.99458 9.89118
25 2 35.6823 3.79516 10.0299
26 2 39.5606 4.02255 10.0282
27 2 43.5364 3.84156 9.98106
28 2 47.6497 3.85081 9.99744
29 2 51.4487 3.8389 9.99907
30 2 55.4782 3.83602 10.0151
31 2 0.0940763 7.88133 10.0667
32 2 3.95303 7.85399 9.95461
33 2 7.996 8.01885 9.98705
34 2 12.0303 8.04658 9.88499
35 2 16.0184 7.84523 10.0308
36 2 19.8163 8.01533 9.94246
37 2 23.9559 7.70857 9.66034
38 2 27.9867 7.78375 9.98698
39 2 31.8017 7.83298 9.87486
40 2 35.6374 7.78464 10.136
41 2 39.6234 7.81025 9.98755
42 2 43.617 7.95533 9.88881
43 2 47.6023 7.75006 9.94924
44 2 51.4508 7.69678 10.0656
45 2 55.469 7.96066 10.1201
46 2 0.222361 11.9329 9.79839
47 2 4.04336 11.6678 9.95914
48 2 7.86316 11.9613 10.0592
49 2 11.9063 11.8669 9.97649
50 2 15.8985 11.8359 9.9824
51 2 19.6974 11.7569 10.002
52 2 23.8574 11.7378 9.91319
53 2 27.8376 11.7704 10.0045
54 2 31.7612 11.7825 9.74168
55 2 35.7552 11.8499 10.0191
56 2 39.6055 11.6558 10.0493
57 2 43.7778 11.9087 10.0157
58 2 47.6269 11.5664 10.0407
59 2 51.4349 11.6022 9.9332
60 2 55.4004 11.9069 10.0593
61 2 59.3562 15.7388 9.9745
62 2 3.93991 15.8378 10.0721
63 2 8.19499 15.769 9.99704
64 2 11.9928 15.6901 9.97043
65 2 15.9008 15.4658 10.1022
66 2 19.9634 15.6159 10.1518
67 2 23.6142 15.567 9.96724
68 2 27.6848 15.7067 9.89384
69 2 31.8641 15.6432 9.77365
70 2 35.6947 15.7473 10.1329
71 2 39.7879 15.56 9.87875
72 2 43.6987 15.7818 9.91883
73 2 47.7277 15.8953 10.0003
74 2 51.5027 15.6331 10.1193
75 2 55.4089 15.7014 10.0272
76 2 0.0267741 19.5414 9.97146
77 2 4.10246 19.7114 10.0023
78 2 8.00717 19.7078 10.0023
79 2 11.9241 19.7542 9.86057
80 2 15.8708 19.572 10.0573
81 2 19.8405 19.8287 10.1452
82 2 23.8958 19.677 10.0484
83 2 27.8556 19.5667 10.0236
84 2 31.6348 19.7074 10.0957
85 2 35.8354 19.6965 9.76909
86 2 39.5985 19.7973 10.0324
87 2 43.6918 19.421 9.99222
88 2 47.662 19.6811 10.0138
89 2 51.6039 19.6809 10.1348
90 2 55.4591 19.6053 10.0426
91 2 -0.183933 23.5806 10.0294
92 2 4.06925 23.7346 9.93755
93 2 7.72509 23.5203 10.0197
94 2 11.8789 23.8912 10.035
95 2 15.9662 23.6489 10.0411
96 2 19.916 23.722 10.0969
97 2 23.8918 23.5953 9.93466
98 2 27.663 23.8254 10.1181
99 2 31.9766 23.7729 9.83612
100 2 35.8028 23.5253 10.0534
101 2 39.7703 23.7217 10.0266
102 2 43.6624 23.5867 10.0072
103 2 47.3689 23.8886 9.99133
104 2 51.4342 23.774 10.0252
105 2 55.4941 23.5394 10.0508
106 2 -0.136136 27.6511 9.99922
107 2 4.05204 27.8977 10.0131
108 2 7.9743 27.5395 10.0892
109 2 11.8642 27.4519 10.2624
110 2 15.8833 27.7682 9.83661
111 2 19.8021 27.4866 9.92685
112 2 23.6903 27.5832 9.9366
113 2 27.9331 27.4979 9.89929
114 2 31.7283 27.5934 9.95999
115 2 35.687 27.5872 9.83815
116 2 39.5585 27.7023 9.91784
117 2 43.459 27.6204 9.96962
118 2 47.3999 27.5187 9.93486
119 2 51.6813 27.6518 9.88634
120 2 55.4921 27.5702 10.1482
121 2 0.164703 31.3787 9.82064
122 2 3.94327 31.6211 10.0259
123 2 8.00022 31.5092 10.0277
124 2 11.9155 31.6903 9.98693
125 2 15.8166 31.5789 9.86134
126 2 19.9733 31.6713 9.99421
127 2 23.8729 31.5431 9.93004
128 2 27.5444 31.4279 9.97778
129 2 31.5355 31.6091 10.0292
130 2 35.6837 31.7273 9.88075
131 2 39.565 31.5044 10.0276
132 2 43.623 31.6528 9.94647
133 2 47.4615 31.6781 9.8896
134 2 51.2929 31.5545 10.0762
135 2 55.4231 31.5501 10.0986
136 2 59.4159 35.4966 10.0216
137 2 4.04831 35.3636 9.83317
138 2 7.98693 35.5931 9.87339
139 2 11.8644 35.4825 10.1026
140 2 16.0378 35.7415 10.0068
141 2 19.9317 35.5803 9.95731
142 2 23.8034 35.4901 9.92785
143 2 27.7916 35.2099 9.87299
144 2 31.6156 35.6506 10.0116
145 2 35.58 35.6234 9.90791
146 2 39.5901 35.6205 10.0569
147 2 43.6629 35.532 10.1227
148 2 47.6697 35.6226 9.97242
149 2 51.4668 35.4315 10.1555
150 2 55.327 35.4682 10.0791
151 2 59.1933 39.4645 9.91234
152 2 4.14183 39.5281 9.91244
153 2 7.80443 39.4017 10.0016
154 2 12.028 39.5062 9.99143
155 2 15.8399 39.4645 9.98554
156 2 19.834 39.5338 9.99141
157 2 23.795 39.6688 9.97543
158 2 27.616 39.4779 9.98168
159 2 31.526 39.6869 10.1048
160 2 35.629 39.3771 9.73788
161 2 39.6646 39.4544 9.80603
162 2 43.6827 39.4759 9.82567
163 2 47.522 39.6112 10.0076
164 2 51.5221 39.6588 10.0413
165 2 55.2868 39.386 10.0622
166 2 59.2562 43.5188 9.81664
167 2 4.01589 43.351 10.1495
168 2 7.91503 43.4775 9.892
169 2 11.9921 43.2545 10.0357
170 2 15.8105 43.5052 10.0559
171 2 19.8162 43.3851 10.0138
172 2 23.6596 43.6404 9.98927
173 2 27.5763 43.4667 9.99331
174 2 31.9036 43.3579 9.94494
175 2 35.804 43.4592 9.98836
176 2 39.6048 43.3351 9.89484
177 2 43.4263 43.2795 9.84759
178 2 47.1956 43.5902 9.85915
179 2 51.4069 43.3925 10.0052
180 2 55.4103 43.2497 9.75937
181 2 59.4045 47.4416 9.88356
182 2 3.9388 47.3166 10.0491
183 2 7.81562 47.2852 9.92567
184 2 12.0229 47.3065 9.8924
185 2 16.0247 47.3617 9.96206
186 2 19.8198 47.5241 10.0229
187 2 23.7447 47.5062 10.0996
188 2 27.6597 47.3105 10.0011
189 2 31.7351 47.1985 10.0668
190 2 35.7548 47.3099 10.139
191 2 39.7816 47.2697 9.93204
192 2 43.4669 47.3139 9.727
193 2 47.3922 47.503 9.9996
194 2 51.3592 47.5347 10.1208
195 2 55.4663 47.176 9.97359
196 2 -0.0945212 51.21 9.80302
197 2 4.0147 51.2903 9.88597
198 2 7.86379 51.3442 9.98503
199 2 12.062 51.3141 10.0878
200 2 15.8791 51.3062 10.0412
201 2 19.8836 51.5191 9.98225
202 2 23.7661 51.3251 10.0451
203 2 27.6763 51.3421 9.99244
204 2 31.6194 51.5129 9.89549
205 2 35.8388 51.3579 10.0445
206 2 39.6873 51.2798 10.053
207 2 43.577 51.3329 10.0091
208 2 47.3242 51.3711 9.96473
209 2 51.5555 51.5033 9.95044
210 2 55.6867 51.3591 9.97698
211 2 0.154095 55.2993 9.87188
212 2 4.08889 55.4461 9.93081
213 2 7.95244 55.2498 10.1455
214 2 11.8805 55.4984 9.89926
215 2 16.1159 55.3917 9.76912
216 2 19.8167 55.3888 9.98769
217 2 23.9359 55.6048 9.98844
218 2 27.7736 55.4771 10.0027
219 2 31.7152 55.4354 10.007
220 2 35.7727 55.4858 10.0129
221 2 39.6897 55.2509 9.753
222 2 43.5892 55.3625 10.0987
223 2 47.6102 55.1945 9.94641
224 2 51.4185 55.4572 10.1058
225 2 55.5985 55.2969 9.83454
226 2 0.189813 59.0838 13.8233
227 2 4.05919 59.3626 13.9222
228 2 7.87593 59.374 13.7991
229 2 11.9512 59.195 13.9809
230 2 15.8963 0.00516122 14.0095
231 2 19.8765 0.0931697 13.9877
232 2 23.8437 0.120733 13.9453
233 2 27.8046 59.1631 13.9147
234 2 31.692 59.3242 13.8777
235 2 35.6245 59.2742 14.0261
236 2 39.6484 -0.0119371 13.9938
237 2 43.5359 59.3436 14.0084
238 2 47.6995 -0.00115193 13.9554
239 2 51.7007 -0.00285902 13.908
240 2 55.6573 59.413 13.8316
241 2 0.230489 4.07571 13.9003
242 2 4.24743 4.0308 13.8726
243 2 8.21714 4.0826 14.0089
244 2 12.0236 3.95198 14.0633
245 2 15.9941 3.73633 13.9426
246 2 19.7738 3.88533 14.0732
247 2 23.8092 3.9775 14.1446
248 2 27.8879 3.63093 13.99
249 2 31.7211 3.94875 14.1472
250 2 35.4998 3.96641 14.0603
251 2 39.6127 3.78992 14.1526
252 2 43.5697 3.90281 13.9507
253 2 47.43 3.84613 13.983
254 2 51.6081 3.8578 13.957
255 2 55.6254 4.03737 13.8444
256 2 0.0103296 7.99797 14.1039
257 2 4.04464 7.84781 13.8315
258 2 8.14227 7.85327 13.9313
259 2 12.0356 7.89503 13.8855
260 2 15.9672 7.69799 13.9509
261 2 19.9339 7.84604 13.8252
262 2 23.9645 7.87108 13.8332
263 2 27.8228 7.69564 13.9978
264 2 31.791 7.91379 14.1388
265 2 35.6582 7.8844 14.0628
266 2 39.6371 7.84329 14.0649
267 2 43.5858 7.88117 13.9266
268 2 47.5103 7.78477 14.0009
269 2 51.4892 7.75832 14.0108
270 2 55.5342 8.00356 14.1042
271 2 0.171798 11.738 13.8842
272 2 4.02101 11.7772 13.8596
273 2 8.01363 11.921 14.0399
274 2 12.0627 11.603 14.067
275 2 15.9538 11.8302 14.226
276 2 19.8917 11.6828 14.1179
277 2 23.8054 11.5863 14.0319
278 2 27.8177 11.8194 13.9611
279 2 31.6929 11.8979 13.8029
280 2 35.6594 11.7533 14.0267
281 2 39.5344 11.8044 13.8883
282 2 43.6892 11.6711 13.908
283 2 47.4854 11.5138 14.1713
284 2 51.3243 11.7691 14.142
285 2 55.4424 11.9207 14.1623
286 2 0.0957012 15.6782 13.9975
287 2 4.03822 15.7511 13.9491
288 2 8.15011 15.9252 13.9801
289 2 12.1178 15.7485 14.013
290 2 15.9177 15.8579 14.0791
291 2 20.0793 15.5901 14.0167
292 2 23.9119 15.6137 14.064
293 2 27.827 15.8552 13.9189
294 2 31.8641 15.8513 13.9042
295 2 35.8077 15.7056 14.0096
296 2 39.7256 15.7662 14.0279
297 2 43.6871 15.8087 13.7674
298 2 47.5876 15.6114 13.9545
299 2 51.4815 15.7573 13.9877
300 2 55.4389 15.7275 14.0473
301 2 0.0591771 19.7059 13.8655
302 2 4.09963 19.5896 14.0603
303 2 8.03278 19.8279 14.0044
304 2 12.0562 19.573 13.8604
305 2 16.015 19.6632 13.8351
306 2 19.9188 19.7246 14.0034
307 2 23.9728 19.5191 14.0388
308 2 27.783 19.7212 13.8444
309 2 31.8068 19.7543 13.8365
310 2 35.7309 19.7988 14.0112
311 2 39.7519 19.6675 13.7643
312 2 43.7423 19.8173 13.8669
313 2 47.5046 19.9596 14.0257
314 2 51.525 19.5771 13.9023
315 2 55.5226 19.6956 14.1114
316 2 0.161822 23.6479 13.7948
317 2 3.9772 23.4231 13.8178
318 2 7.9284 23.7401 13.9892
319 2 12.026 23.635 14.0196
320 2 15.9886 23.7372 14.0222
321 2 19.9247 23.5027 14.1057
322 2 23.7429 23.7371 13.9547
323 2 27.8536 23.7881 14.0318
324 2 31.7407 23.8343 13.9427
325 2 35.7905 23.6171 14.0763
326 2 39.6998 23.6406 14.0869
327 2 43.5832 23.6972 14.0582
328 2 47.5922 23.8731 13.9525
329 2 51.6184 23.6069 13.8614
330 2 55.4841 23.5789 14.0324
331 2 -0.0126557 27.559 13.9184
332 2 3.85654 27.5483 13.8252
333 2 7.9126 27.5737 13.9466
334 2 11.9004 27.7891 13.9905
335 2 15.9861 27.7405 13.7346
336 2 19.864 27.5311 13.7957
337 2 23.9154 27.6909 13.911
338 2 27.8818 27.6745 13.7337
339 2 31.9502 27.762 13.8793
340 2 35.6853 27.4427 13.9754
341 2 39.5594 27.3924 13.7164
342 2 43.6111 27.6643 13.8382
343 2 47.5963 27.8339 13.8254
344 2 51.4804 27.7002 13.9521
345 2 55.5771 27.7329 14.0795
346 2 -0.0162673 31.5371 13.9256
347 2 4.0528 31.5347 13.9431
348 2 7.87344 31.673 14.0593
349 2 11.974 31.6261 13.9133
350 2 16.1695 31.6487 13.9821
351 2 19.8606 31.5415 13.9875
352 2 23.7727 31.6274 13.9373
353 2 27.7961 31.7668 14.0516
354 2 31.8313 31.5095 13.8838
355 2 35.854 31.533 13.8845
356 2 39.621 31.5277 14.1632
357 2 43.3524 31.4757 14.0103
358 2 47.5748 31.7582 13.9224
359 2 51.5537 31.5094 14.1531
360 2 55.4405 31.4885 14.0927
361 2 0.162959 35.5458 14.087
362 2 4.16608 35.4088 13.9242
363 2 7.92073 35.6911 14.0369
364 2 12.0321 35.3683 14.0233
365 2 15.9631 35.6033 14.059
366 2 19.8643 35.6167 13.9456
367 2 23.8626 35.438 13.9166
368 2 27.8133 35.6036 13.7937
369 2 31.9021 35.7203 13.8691
370 2 35.765 35.5163 14.0896
371 2 39.6755 35.3738 14.1431
372 2 43.6376 35.6547 13.8692
373 2 47.4206 35.7311 13.9863
374 2 51.3572 35.5895 14.0899
375 2 55.3404 35.578 13.9776
376 2 -0.10156 39.4182 13.8982
377 2 3.71776 39.5711 13.8121
378 2 8.03033 39.3503 13.8996
379 2 11.9992 39.5402 13.8922
380 2 15.9681 39.4752 14.0019
381 2 19.9391 39.7038 13.9293
382 2 23.801 39.375 13.9635
383 2 27.7064 39.3647 13.9092
384 2 31.6939 39.4326 13.9482
385 2 35.6928 39.539 14.0975
386 2 39.7183 39.5035 13.9089
387 2 43.5867 39.6502 14.08
388 2 47.5516 39.6504 13.9978
389 2 51.5051 39.5926 14.0859
390 2 55.4852 39.6462 14.0262
391 2 -0.0833823 43.3822 13.9202
392 2 3.95272 43.4437 14.0783
393 2 8.0344 43.4232 13.843
394 2 11.9025 43.4807 14.1089
395 2 15.785 43.465 13.9086
396 2 19.9016 43.5588 14.0552
397 2 23.8085 43.505 13.9385
398 2 27.6571 43.3624 14.0701
399 2 31.8395 43.3987 13.8504
400 2 35.864 43.3897 13.7869
401 2 39.7485 43.4074 13.8497
402 2 43.5746 43.4996 14.1536
403 2 47.4684 43.4457 13.8832
404 2 51.4952 43.6143 14.0987
405 2 55.4405 43.7021 13.9482
406 2 -0.0483291 47.3706 13.8458
407 2 3.88012 47.4002 14.035
408 2 7.92192 47.2055 13.8652
409 2 11.8624 47.3689 13.9172
410 2 15.8863 47.7113 13.8886
411 2 19.5735 47.3784 13.9553
412 2 23.6707 47.5931 14.1724
413 2 27.887 47.5798 13.9842
414 2 31.694 47.5385 13.8921
415 2 35.5762 47.3538 14.1044
416 2 39.8169 47.629 13.7993
417 2 43.8594 47.3652 13.8615
418 2 47.5154 47.417 14.136
419 2 51.4399 47.5891 13.8579
420 2 55.1932 47.293 13.5295
421 2 0.00457441 51.4363 14.0075
422 2 4.05325 51.3291 13.9038
423 2 8.10695 51.2957 13.8074
424 2 11.8076 51.0376 13.928
425 2 15.9599 51.6038 13.9806
426 2 19.9001 51.4317 13.9585
427 2 23.6288 51.1858 14.0671
428 2 27.7586 51.5472 13.9752
429 2 31.7964 51.3849 14.0123
430 2 35.6494 51.3214 14.0673
431 2 39.6799 51.3844 13.8896
432 2 43.6161 51.2142 14.0952
433 2 47.7117 51.4241 13.9608
434 2 51.7371 51.5736 13.8126
435 2 55.589 51.4132 13.9834
436 2 0.141514 55.3073 13.7954
437 2 4.00237 55.2115 13.8585
438 2 8.18861 55.3288 13.8559
439 2 12.1246 55.3799 13.9472
440 2 15.9732 55.5281 14.0454
441 2 19.8428 55.388 13.7891
442 2 23.9101 55.3074 14.0546
443 2 27.7084 55.2167 13.9197
444 2 31.9505 55.2505 14.0239
445 2 35.6732 55.3664 13.8729
446 2 39.6092 55.6429 13.8894
447 2 43.478 55.512 14.1061
448 2 47.6069 55.1824 14.0607
449 2 51.7099 55.4188 13.9453
450 2 55.7673 55.4463 13.919
451 2 0.136321 -0.0492255 17.6824
452 2 4.13911 0.0983821 17.8049
453 2 8.03026 59.266 18.0599
454 2 11.7257 59.1982 18.03
455 2 16.085 59.2024 18.0025
456 2 19.9717 59.3334 17.9225
457 2 23.9029 59.2221 18.0673
458 2 27.9125 -0.10503 17.9438
459 2 31.8677 59.3211 18.0766
460 2 35.6481 59.3947 17.9171
461 2 39.7207 0.0991143 18.0188
462 2 43.679 59.2838 18.0374
463 2 47.6689 -0.169347 18.003
464 2 51.5965 59.408 17.8286
465 2 55.581 59.3043 17.7876
466 2 -0.000556224 3.97319 18.0506
467 2 4.09388 3.72775 18.0625
468 2 8.0716 3.94745 17.8593
469 2 11.9005 3.79417 18.0953
470 2 15.8544 3.83912 18.03
471 2 19.9594 3.86187 17.8543
472 2 24.0086 3.79763 18.0729
473 2 27.8721 3.92711 17.888
474 2 31.8737 3.98125 18.0288
475 2 35.5766 3.7419 18.1001
476 2 39.6122 4.06029 17.8735
477 2 43.737 3.97828 18.0914
478 2 47.6991 3.78071 17.8523
479 2 51.6699 3.90442 18.0101
480 2 55.4018 3.83733 17.757
481 2 0.185452 7.66684 18.0222
482 2 4.1119 7.76526 18.2465
483 2 8.02923 7.87211 18.0716
484 2 11.9671 7.82155 17.9924
485 2 16.1479 7.65888 17.9151
486 2 19.8551 7.7722 18.067
487 2 23.7617 7.76721 17.9723
488 2 27.9059 8.05756 17.9153
489 2 31.7238 7.99464 18.006
490 2 35.6189 7.86131 18.0781
491 2 39.6224 7.88491 18.129
492 2 43.5525 7.84012 18.0667
493 2 47.5753 7.71508 17.9323
494 2 51.4327 7.85241 18.0682
495 2 55.3498 7.89772 18.0886
496 2 0.221963 11.8709 17.7704
497 2 4.11394 11.7609 17.7845
498 2 7.93854 11.9508 17.9903
499 2 11.9799 11.7976 17.9205
500 2 15.9059 11.8909 18.0799
501 2 19.7932 11.5109 17.9866
502 2 23.7732 11.7664 17.9255
503 2 27.9054 11.8904 17.9422
504 2 31.6156 11.9161 17.8488
505 2 35.766 11.7161 17.7799
506 2 39.701 11.947 17.7809
507 2 43.6888 11.9608 17.8201
508 2 47.6677 11.8153 17.9175
509 2 51.6602 11.9307 18.0065
510 2 55.5764 11.7207 18.0313
511 2 59.5374 15.9647 17.8844
512 2 4.02086 15.7591 17.899
513 2 8.05278 15.6956 17.9904
514 2 11.7608 15.7633 18.0134
515 2 15.8121 15.9072 17.8628
516 2 19.9591 15.8121 17.9139
517 2 23.8999 15.6843 17.9536
518 2 27.819 15.7848 17.9287
519 2 31.835 15.9182 18.087
520 2 35.7905 15.7783 17.846
521 2 39.7046 15.9257 18.0055
522 2 43.8164 15.8711 17.9372
523 2 47.6316 16.0149 17.8267
524 2 51.4765 15.6741 18.0798
525 2 55.6356 15.8694 18.1087
526 2 0.0168357 19.8649 17.9112
527 2 4.09204 19.8429 18.0483
528 2 8.17503 19.7213 17.9586
529 2 11.9958 19.6273 18.0731
530 2 15.958 19.7623 18.0128
531 2 19.973 19.6386 18.0309
532 2 23.8687 19.9535 17.8939
533 2 27.8151 19.7456 17.8113
534 2 31.7405 19.7827 17.9328
535 2 35.8635 19.6577 17.7471
536 2 39.8028 19.6719 17.9709
537 2 43.5471 19.7281 18.0007
538 2 47.5284 19.7035 17.9618
539 2 51.4575 19.8969 17.7967
540 2 55.5395 19.7175 17.9479
541 2 -0.0489843 23.7388 17.9914
542 2 3.9825 23.6662 18.1839
543 2 7.91867 23.7777 17.8222
544 2 12.1653 23.5342 17.8853
545 2 16.0107 23.7837 18.082
546 2 19.8921 23.494 17.8796
547 2 23.8435 23.9027 17.7392
548 2 27.7975 23.8876 17.6306
549 2 31.7662 23.7146 17.8817
550 2 35.817 23.7347 18.0772
551 2 39.6286 23.7159 17.9213
552 2 43.5899 23.8398 17.8351
553 2 47.77 23.7641 17.7517
554 2 51.6812 23.6424 17.8664
555 2 55.7122 23.7449 18.092
556 2 0.0438333 27.7337 17.9385
557 2 3.96741 27.8081 17.8855
558 2 7.86999 27.6116 17.9018
559 2 11.8458 27.5449 17.8707
560 2 16.0657 27.6142 17.9091
561 2 19.8551 27.534 17.9972
562 2 23.6885 27.5891 17.8797
563 2 27.9367 27.6755 17.778
564 2 31.8554 27.5911 17.8482
565 2 35.6824 27.5471 17.8939
566 2 39.6464 27.7083 17.9774
567 2 43.5223 27.5505 17.9671
568 2 47.4835 27.6902 18.0631
569 2 51.3967 27.5962 18.0666
570 2 55.3961 27.5479 17.9023
571 2 -0.000980529 31.6323 18.1203
572 2 4.04156 31.4883 17.9528
573 2 8.13124 31.5969 17.902
574 2 11.9711 31.4494 17.9488
575 2 15.8695 31.4617 17.8753
576 2 19.9588 31.6241 17.8779
577 2 24.0487 31.4781 17.9031
578 2 27.9495 31.913 17.9238
579 2 31.743 31.6878 17.7778
580 2 35.4266 31.5595 17.992
581 2 39.5732 31.7592 17.9936
582 2 43.6059 31.39 17.9329
583 2 47.8434 31.7428 17.9358
584 2 51.7085 31.6886 18.1245
585 2 55.4021 31.4276 18.1015
586 2 0.0887536 35.3972 17.9011
587 2 4.15903 35.5844 17.9802
588 2 8.01733 35.6176 17.9966
589 2 11.8799 35.3716 17.9576
590 2 15.9546 35.5261 17.9115
591 2 20.1072 35.5752 18.0114
592 2 23.9016 35.7256 18.0157
593 2 27.7939 35.5685 17.954
594 2 31.7035 35.7013 17.9336
595 2 35.5674 35.4305 17.959
596 2 39.7264 35.6956 18.1042
597 2 43.5541 35.6817 18.0305
598 2 47.3948 35.4578 17.9074
599 2 51.5151 35.605 17.9586
600 2 55.5418 35.4312 18.0041
601 2 0.29822 39.4095 17.8856
602 2 4.07902 39.684 17.8898
603 2 7.99142 39.5835 17.9857
604 2 11.8766 39.5837 17.8992
605 2 15.9201 39.2874 17.8267
606 2 19.9054 39.5061 18.0518
607 2 23.7666 39.6435 17.9866
608 2 27.8611 39.433 17.9849
609 2 31.8167 39.6773 17.8264
610 2 35.6335 39.5929 18.0613
611 2 39.452 39.5382 17.9798
612 2 43.5293 39.5053 18.1246
613 2 47.6209 39.4716 17.9202
614 2 51.5954 39.7062 17.9718
615 2 55.6193 39.7314 17.9145
616 2 0.0429044 43.7122 17.9705
617 2 4.03313 43.5264 18.1435
618 2 8.08902 43.4726 17.9625
619 2 12.0635 43.3951 18.0526
620 2 15.9186 43.4109 17.9417
621 2 19.6914 43.5408 18.1433
622 2 23.7732 43.5427 18.0252
623 2 27.615 43.3359 17.8896
624 2 31.3957 43.5643 17.9442
625 2 35.7658 43.4814 17.662
626 2 39.7141 43.5517 18.0497
627 2 43.5206 43.3459 17.9972
628 2 47.6793 43.6393 18.0996
629 2 51.5357 43.6379 17.9168
630 2 55.2924 43.5404 17.8361
631 2 0.0826112 47.6176 18.0879
632 2 3.83813 47.3943 17.8712
633 2 8.03184 47.5335 18.0013
634 2 11.9795 47.534 17.9451
635 2 15.9064 47.2508 17.9779
636 2 19.8793 47.442 18.0761
637 2 23.8167 47.5763 18.1121
638 2 27.8355 47.3988 17.7336
639 2 31.6665 47.3476 18.0517
640 2 35.7567 47.4284 17.9628
641 2 39.7661 47.5095 17.9866
642 2 43.6958 47.3628 18.0178
643 2 47.793 47.6888 17.87
644 2 51.5317 47.6471 18.11
645 2 55.3964 47.5549 17.7166
646 2 0.162976 51.5576 17.7347
647 2 4.10114 51.463 17.7929
648 2 7.94197 51.2737 17.8124
649 2 11.8741 51.5414 18.0639
650 2 15.9137 51.5297 18.1046
651 2 19.8438 51.3899 17.6854
652 2 23.6761 51.6625 17.9388
653 2 27.6943 51.2716 17.8158
654 2 31.748 51.4756 18.0501
655 2 35.8074 51.3761 17.9473
656 2 39.8006 51.3318 17.7706
657 2 43.5936 51.493 17.8381
658 2 47.487 51.4355 17.963
659 2 51.649 51.3916 17.7589
660 2 55.3579 51.3579 17.7538
661 2 0.0314558 55.3975 17.9166
662 2 4.02772 55.3752 17.6074
663 2 7.98226 55.1857 17.8911
664 2 11.9461 55.2425 17.9306
665 2 16.1847 55.3771 17.8797
666 2 19.972 55.4683 17.8185
667 2 23.8643 55.2863 18.0695
668 2 27.9774 55.4531 17.6851
669 2 31.7463 55.3011 18.0538
670 2 35.8034 55.3904 18.1003
671 2 39.6836 55.3781 18.1279
672 2 43.4886 55.3441 17.9138
673 2 47.4887 55.3272 17.8461
674 2 51.7031 55.597 17.9035
675 2 55.6085 55.4201 17.9762
676 2 59.4355 59.5234 21.7559
677 2 3.95383 -0.16908 21.9503
678 2 7.95872 0.0543444 21.97
679 2 12.0346 0.00578864 21.9177
680 2 15.9606 59.1522 21.9529
681 2 19.795 -0.179233 22.052
682 2 24.0993 59.1571 21.9906
683 2 28.0362 -0.00642041 22.031
684 2 31.8824 -0.253209 21.9534
685 2 35.7916 0.063356 21.9311
686 2 39.7099 59.3814 22.0868
687 2 43.6464 0.189483 22.0644
688 2 47.6274 -0.0749983 21.8833
689 2 51.6313 59.3795 21.9365
690 2 55.7342 0.20243 21.9072
691 2 0.159516 4.13607 21.7922
692 2 4.19425 3.73712 21.8441
693 2 8.24032 3.89848 21.9142
694 2 12.2258 3.88819 21.9978
695 2 16.023 3.98282 22.0372
696 2 20.0019 3.83808 21.8318
697 2 23.9729 3.87723 21.875
698 2 27.8818 4.05582 22.0331
699 2 31.7668 3.76039 22.0061
700 2 35.924 3.87889 21.9568
701 2 39.8095 3.88931 21.8523
702 2 43.8078 4.00326 22.0166
703 2 47.8177 4.10365 21.935
704 2 51.4728 3.95503 22.0317
705 2 55.6514 4.05183 21.9486
706 2 0.0688721 8.05982 21.7993
707 2 4.05616 7.89642 21.9857
708 2 8.12702 7.83868 21.9625
709 2 11.8467 8.04284 22.0254
710 2 15.9663 7.86161 21.8661
711 2 20.1512 7.76118 21.9217
712 2 23.8957 7.90636 22.0005
713 2 27.6835 7.99142 21.8712
714 2 31.7066 7.91927 22.0321
715 2 35.6783 7.7036 21.9796
716 2 39.6066 7.98473 22.0451
717 2 43.7353 7.81279 21.7172
718 2 47.7165 7.92117 21.8154
719 2 51.7296 7.76423 21.9607
720 2 55.3409 8.06293 22.0914
721 2 59.562 11.8995 21.8047
722 2 4.05935 11.8049 21.7979
723 2 7.92779 11.9638 22.1012
724 2 12.1043 11.6518 21.9626
725 2 15.86 11.7983 21.9842
726 2 19.9865 11.8551 21.8684
727 2 23.8813 11.8745 21.9803
728 2 27.7492 11.8619 21.854
729 2 31.9014 11.9709 21.8691
730 2 35.5744 11.8821 21.9138
731 2 39.7324 11.8115 22.006
732 2 43.6337 11.8087 21.8761
733 2 47.5183 11.7732 21.9979
734 2 51.527 11.9991 21.7623
735 2 55.5891 12.0384 22.0061
736 2 0.0131033 15.8021 21.9871
737 2 3.94816 15.96 21.9183
738 2 8.07176 15.8088 21.8937
739 2 11.8254 15.6936 21.9163
740 2 15.7792 15.8552 21.9275
741 2 19.9294 15.7099 21.8617
742 2 23.8982 15.9153 22.0185
743 2 27.8419 15.8461 21.8529
744 2 31.7809 15.9837 21.9355
745 2 35.9113 15.9551 21.8599
746 2 39.6561 15.6347 21.9658
747 2 43.7771 16.0608 21.8913
748 2 47.6186 15.8505 21.9844
749 2 51.5334 15.8904 21.98
750 2 55.4531 15.8995 21.8756
751 2 0.0326924 19.8434 22.0116
752 2 4.12082 19.6105 22.107
753 2 8.12326 19.7971 21.9666
754 2 12.0793 19.946 22.0885
755 2 16.002 19.7157 21.9303
756 2 20.1459 19.8431 21.9158
757 2 23.9474 19.6729 21.9484
758 2 27.6024 20.0179 21.6722
759 2 31.5875 19.7613 21.899
760 2 35.6025 19.9362 21.8251
761 2 39.6608 19.8335 21.9698
762 2 43.6206 19.8317 21.8113
763 2 47.6887 20.0796 21.7343
764 2 51.518 20.0665 21.8368
765 2 55.7288 19.6903 21.7775
766 2 -0.00664859 23.7622 22.0297
767 2 4.09367 23.7292 21.9192
768 2 8.00645 23.7759 21.923
769 2 11.8379 23.7215 22.0124
770 2 15.8863 23.6517 21.9507
771 2 19.7568 23.5984 21.8745
772 2 23.6478 23.5749 21.8532
773 2 27.6331 23.8157 21.8689
774 2 31.8498 23.6304 21.8914
775 2 35.5584 23.7855 21.8398
776 2 39.7183 23.6389 21.9881
777 2 43.5361 23.7853 21.8877
778 2 47.5322 23.759 21.978
779 2 51.5274 23.8621 21.835
780 2 55.4496 23.7591 21.7029
781 2 59.3909 27.5685 22.0742
782 2 4.08458 27.5003 22.0041
783 2 8.03249 27.8771 21.7078
784 2 11.8715 27.4139 21.9162
785 2 15.7878 27.7188 22.0435
786 2 20.0102 27.4855 21.9974
787 2 23.9079 27.6066 21.986
788 2 27.9314 27.6966 21.8933
789 2 31.8031 27.8021 21.8983
790 2 35.6169 27.663 21.9933
791 2 39.8424 27.7266 21.8838
792 2 43.7803 27.7207 21.9683
793 2 47.7592 27.8786 21.9182
794 2 51.7163 27.698 22.0605
795 2 55.316 27.6527 21.9756
796 2 59.4096 31.6204 21.9753
797 2 3.91892 31.6491 21.9344
798 2 7.97136 31.7238 21.8772
799 2 12.0233 31.7299 21.9479
800 2 16.0176 31.746 21.9655
801 2 19.7267 31.5651 21.9733
802 2 23.8203 31.798 22.0619
803 2 27.8552 31.8997 21.8801
804 2 31.7198 31.6121 21.8659
805 2 35.9056 31.6804 21.8985
806 2 39.8068 31.7351 22.1127
807 2 43.8541 31.7483 21.8904
808 2 47.765 31.7016 21.8601
809 2 51.5292 31.6106 21.8459
810 2 55.5041 31.7039 22.1026
811 2 0.127579 35.7427 21.8434
812 2 4.08783 35.7254 21.8224
813 2 7.89268 35.5659 22.0134
814 2 11.7891 35.6707 21.9442
815 2 15.827 35.6242 21.8622
816 2 19.916 35.4708 21.9226
817 2 23.7114 35.5658 21.9865
818 2 27.9633 35.6209 22.0311
819 2 31.8042 35.52 21.8596
820 2 35.6821 35.624 21.9986
821 2 39.7406 35.5614 22.0713
822 2 43.7703 35.7577 21.8763
823 2 47.7554 35.7281 22.0595
824 2 51.5991 35.6605 21.9422
825 2 55.3707 35.6917 21.8697
826 2 0.269209 39.6355 21.7293
827 2 4.19918 39.7428 21.9726
828 2 8.25451 39.5524 21.9976
829 2 11.9038 39.538 21.854
830 2 15.8691 39.5493 21.8312
831 2 19.8273 39.6862 21.7253
832 2 23.6376 39.2261 21.8947
833 2 27.6564 39.7202 22.0479
834 2 31.624 39.6516 21.7571
835 2 35.6024 39.5303 21.917
836 2 39.7421 39.4574 21.8465
837 2 43.6177 39.8297 21.709
838 2 47.6174 39.7035 21.9758
839 2 51.485 39.4972 22.1294
840 2 55.4417 39.51 21.8187
841 2 0.0503564 43.4697 21.8656
842 2 3.98152 43.5574 22.2008
843 2 8.23614 43.6352 21.8674
844 2 12.1139 43.6368 21.971
845 2 16.1379 43.357 21.6909
846 2 19.986 43.6126 22.0039
847 2 23.8554 43.3419 21.9565
848 2 27.6824 43.5225 22.0433
849 2 31.6804 43.6535 22.0896
850 2 35.707 43.6071 21.8504
851 2 39.7004 43.6831 21.8977
852 2 43.6382 43.5145 21.7985
853 2 47.7834 43.675 21.9605
854 2 51.6959 43.5496 21.9812
855 2 55.8097 43.6622 21.9206
856 2 0.232229 47.6024 21.8936
857 2 3.91786 47.3224 22.0338
858 2 8.31333 47.5304 22.1928
859 2 12.0264 47.6427 22.0485
860 2 15.9052 47.4294 22.1241
861 2 20.0176 47.6359 21.9323
862 2 23.9796 47.4615 22.0318
863 2 27.7776 47.643 22.0543
864 2 31.6373 47.4211 21.9203
865 2 35.715 47.4989 21.7907
866 2 39.7208 47.5114 21.9286
867 2 43.6851 47.5335 21.9497
868 2 47.5678 47.451 21.9166
869 2 51.6172 47.5355 22.0488
870 2 55.6072 47.5897 21.7684
871 2 0.108474 51.4262 21.9163
872 2 4.11908 51.5426 21.8879
873 2 7.87634 51.2689 21.8262
874 2 12.0079 51.5151 22.0461
875 2 16.0669 51.5815 21.803
876 2 19.97 51.6325 21.9824
877 2 23.8818 51.4387 21.9154
878 2 27.6798 51.5479 21.9733
879 2 31.8007 51.275 21.9718
880 2 35.7428 51.2956 21.9026
881 2 39.827 51.5056 21.9557
882 2 43.5507 51.4913 21.8274
883 2 47.4685 51.4643 21.8803
884 2 51.3722 51.6154 21.9181
885 2 55.3654 51.5382 21.8454
886 2 0.342692 55.4991 21.7439
887 2 3.96671 55.2414 21.7782
888 2 7.89087 55.4747 21.8628
889 2 11.8199 55.6659 21.9062
890 2 15.7317 55.4058 21.8967
891 2 20.1555 55.4222 21.8751
892 2 23.9621 55.4203 21.8853
893 2 27.7455 55.3454 21.9213
894 2 31.8163 55.1728 22.0257
895 2 35.7058 55.4305 21.8892
896 2 39.4583 55.3776 21.8964
897 2 43.6789 55.4396 21.8617
898 2 47.4199 55.4025 21.9188
899 2 51.5298 55.5751 21.8969
900 2 55.4984 55.3988 21.9695
901 2 0.149669 0.278851 25.9226
902 2 4.13521 0.249293 25.8003
903 2 8.0551 59.3922 26.0889
904 2 12.193 -0.0430899 25.722
905 2 16.0252 -0.0908017 25.9858
906 2 20.1064 0.0336822 25.7989
907 2 23.92 0.113682 26.0687
908 2 27.8972 0.00986708 25.9809
909 2 31.7121 59.3796 25.9404
910 2 35.7861 -0.0307475 25.9378
911 2 39.65 -0.0860261 25.878
912 2 43.5847 -0.119846 25.9266
913 2 47.602 -0.0703299 25.9246
914 2 51.6436 59.4553 25.6396
915 2 55.678 59.4646 25.8692
916 2 0.110067 4.17387 25.7961
917 2 4.01544 4.20579 25.8806
918 2 8.09427 4.20902 25.7461
919 2 11.9207 3.96111 26.0736
920 2 16.0096 4.1853 25.8165
921 2 19.7376 4.00175 25.8868
922 2 23.9943 4.07743 25.9248
923 2 27.916 4.10608 25.9687
924 2 31.8507 4.05206 25.9848
925 2 35.6239 4.04944 25.9546
926 2 39.8021 4.07936 25.9031
927 2 43.7687 3.90576 25.9422
928 2 47.5924 4.01639 26.0517
929 2 51.6777 4.01476 25.9703
930 2 55.6473 3.8769 25.8021
931 2 59.472 8.05369 25.9666
932 2 3.95612 8.07893 25.9054
933 2 8.17791 8.12344 26.0014
934 2 11.9709 7.97502 26.0317
935 2 15.894 7.96536 26.0557
936 2 19.9718 8.02316 25.9694
937 2 23.6909 7.96158 26.0869
938 2 27.7503 8.17222 25.8017
939 2 31.7908 7.96736 26.0344
940 2 35.7491 7.95948 25.9494
941 2 39.5158 7.95075 26.0177
942 2 43.7268 7.74558 25.8897
943 2 47.8108 7.74575 26.1129
944 2 51.5197 7.85504 25.8885
945 2 55.4983 8.01367 25.9898
946 2 -0.040174 11.9566 25.9399
947 2 4.03206 11.9759 25.859
948 2 8.14862 12.0765 25.8662
949 2 12.0189 12.0453 25.8243
950 2 16.1248 11.8904 25.8066
951 2 19.7731 12.0521 25.5876
952 2 23.8678 12.036 26.0369
953 2 27.9554 11.8008 25.8528
954 2 31.8009 11.9574 25.9418
955 2 35.5655 12.2741 25.8182
956 2 39.689 11.947 25.8548
957 2 43.7402 11.8261 25.7875
958 2 47.6821 11.7343 25.6364
959 2 51.5744 12.1403 25.9848
960 2 55.4014 12.0748 26.0042
961 2 59.3297 15.877 25.9145
962 2 4.03143 15.8201 25.9296
963 2 7.99357 15.8141 25.9248
964 2 11.9545 15.9822 26.012
965 2 15.7627 15.8169 25.908
966 2 19.8961 15.9892 25.8068
967 2 23.8445 15.7537 26.0085
968 2 27.7416 15.8796 25.7575
969 2 31.5861 15.8768 25.7426
970 2 35.6877 16.1079 26.0091
971 2 39.7081 15.8386 25.8544
972 2 43.6275 15.8912 25.8788
973 2 47.5602 15.9844 25.9657
974 2 51.7813 15.9676 25.9002
975 2 55.4171 15.8856 25.859
976 2 59.5219 20.0084 25.8901
977 2 3.95184 19.9283 26.1245
978 2 8.02602 19.9127 25.8153
979 2 11.9543 19.93 25.9901
980 2 15.9853 19.8938 25.9678
981 2 19.9547 19.9499 26.035
982 2 23.778 19.6251 25.9686
983 2 27.7974 19.7909 25.9556
984 2 31.7349 19.9452 25.9383
985 2 35.7655 19.8021 25.9205
986 2 39.7335 19.8008 25.7365
987 2 43.6482 19.8663 26.0698
988 2 47.4614 20.0575 25.8744
989 2 51.4899 19.8406 25.8851
990 2 55.4678 19.9147 26.0102
991 2 59.3738 23.7022 25.9062
992 2 4.19362 23.7465 26.0526
993 2 7.87703 23.9529 25.9278
994 2 11.9607 23.6814 25.8092
995 2 15.9637 23.8653 25.8154
996 2 19.9005 23.8863 26.0399
997 2 23.8089 23.8499 26.0196