ITEM: TIMESTEP
1536000
ITEM: NUMBER OF ATOMS
16875
ITEM: BOX BOUNDS xy xz yz pp pp pp
0.0000000000000000e+00 5.9369999999999997e+01 0.0000000000000000e+00
0.0000000000000000e+00 5.9369999999999997e+01 0.0000000000000000e+00
3.3071136354133301e-01 6.0035707636461325e+01 0.0000000000000000e+00
ITEM: ATOMS id type x y z
1 2 59.1847 59.1761 10.2844
2 2 4.04349 59.3223 9.88024
3 2 8.01114 59.1979 9.96293
4 2 11.9445 59.3405 10.0258
5 2 15.8737 -0.181348 9.92768
6 2 19.8398 59.2904 9.95662
7 2 23.7974 59.4467 10.0354
8 2 27.6295 59.2493 10.0353
9 2 31.5942 59.4228 10.0302
10 2 35.6151 59.2366 10.134
11 2 39.7355 59.1267 9.95731
12 2 43.5253 59.1567 10.0792
13 2 47.438 59.0826 9.92168
14 2 51.362 59.3011 10.2213
15 2 55.258 59.2368 10.0205
16 2 -0.163275 3.75393 9.82144
17 2 3.69137 3.65839 10.0831
18 2 7.84573 3.92163 9.9268
19 2 11.8598 3.68185 10.1544
20 2 15.9738 3.84005 10.0571
21 2 20.0006 3.70843 9.91711
22 2 23.7045 3.93553 10.0484
23 2 27.72 3.71687 9.92043
24 2 31.7409 3.97018 10.1381
25 2 35.8728 3.99844 9.83893
26 2 39.6573 3.5928 10.0959
27 2 43.5457 3.75498 10.1163
28 2 47.4225 3.79165 10.0488
29 2 51.2604 3.71234 10.0504
30 2 55.2156 3.91309 10.0242
31 2 0.130334 7.73603 9.9969
32 2 4.02914 7.9626 9.99592
33 2 7.89042 7.7697 10.0507
34 2 11.7533 7.6843 9.93836
35 2 15.9658 7.63387 10.115
36 2 19.8488 7.88861 9.95317
37 2 23.8483 7.73818 9.98414
38 2 27.5695 8.03777 9.83842
39 2 31.8094 7.82767 10.0484
40 2 35.8234 7.74472 10.0075
41 2 39.5843 7.76875 10.1589
42 2 43.6872 7.85134 9.93585
43 2 47.4243 7.84629 10.071
44 2 51.5503 7.88243 10.012
45 2 55.4035 7.86178 10.0926
46 2 0.0321326 11.839 9.94019
47 2 4.1523 11.826 9.99168
48 2 8.16958 11.8558 10.02
49 2 12.0135 11.5881 9.94182
50 2 15.7757 11.6577 9.94729
51 2 19.9617 11.7368 9.8483
52 2 23.701 11.9495 10.1927
53 2 27.8095 11.6914 10.0468
54 2 31.6961 11.6789 10.063
55 2 35.6003 11.6729 10.0764
56 2 39.513 11.7037 9.92219
57 2 43.4861 11.7685 9.90054
58 2 47.5894 11.8572 10.0416
59 2 51.563 11.9051 9.96284
60 2 55.4972 11.8269 9.97165
61 2 59.3445 15.6088 10.0806
62 2 4.10707 15.7564 9.86792
63 2 7.92842 15.7675 10.1147
64 2 12.0837 15.6318 9.78625
65 2 15.9171 15.6772 9.98042
66 2 19.7132 15.6531 9.94413
67 2 23.7965 15.7885 10.0539
68 2 27.6958 15.5706 9.91574
69 2 31.8023 15.4089 9.88774
70 2 35.7831 15.67 9.94608
71 2 39.6093 15.6862 9.9949
72 2 43.7257 15.641 9.98461
73 2 47.4896 15.6701 10.0459
74 2 51.3705 15.7889 10.0724
75 2 55.3636 15.5303 10.0778
76 2 0.0199196 19.6678 10.1085
77 2 3.89161 19.7311 10.1029
78 2 7.97584 19.5797 10.1655
79 2 11.9893 19.6962 9.97151
80 2 15.8605 19.6904 9.88964
81 2 19.9607 19.5722 9.98187
82 2 23.7689 19.6477 9.98871
83 2 27.6142 19.4857 10.0073
84 2 31.6861 19.5264 10.0676
85 2 35.5497 19.5168 9.96672
86 2 39.7138 19.6771 10.1115
87 2 43.6514 19.7225 10.1607
88 2 47.5839 19.5406 10.0482
89 2 51.4244 19.5197 10.0501
90 2 55.2578 19.5454 10.0687
91 2 -0.00088128 23.5785 10.107
92 2 3.99489 23.7096 10.0355
93 2 8.01168 23.6239 10.1377
94 2 12.0816 23.6598 9.93203
95 2 15.9424 23.5945 10.1
96 2 19.9964 23.5022 9.99739
97 2 23.7749 23.3977 10.1089
98 2 27.8654 23.3749 9.82027
99 2 31.6292 23.6625 10.0187
100 2 35.6114 23.6933 10.2295
101 2 39.4219 23.4183 9.94234
102 2 43.5156 23.7374 9.93736
103 2 47.5408 23.7264 10.0635
104 2 51.4633 23.6156 10.0393
105 2 55.4805 23.5784 10.022
106 2 -0.0990194 27.5584 10.0314
107 2 3.98281 27.6356 9.98094
108 2 7.97306 27.6141 9.88098
109 2 11.946 27.8769 9.89269
110 2 15.9589 27.6364 10.1604
111 2 19.8449 27.597 10.0155
112 2 23.894 27.6847 10.0198
113 2 27.6471 27.6314 10.039
114 2 31.7449 27.6462 9.86291
115 2 35.6808 27.6744 10.2992
116 2 39.4982 27.606 10.0388
117 2 43.5108 27.5845 10.0276
118 2 47.4205 27.5488 9.97747
119 2 51.395 27.5847 9.99876
120 2 55.5375 27.5759 10.1214
121 2 0.0907342 31.4637 10.0017
122 2 3.9731 31.6224 10.08
123 2 8.03013 31.4047 9.87131
124 2 11.9357 31.5736 10.0305
125 2 15.9256 31.5118 9.87034
126 2 19.7489 31.4999 9.95298
127 2 23.8039 31.7417 10.1
128 2 27.6019 31.51 9.94262
129 2 31.7315 31.5307 10.016
130 2 35.7154 31.6381 10.0399
131 2 39.674 31.4153 9.98098
132 2 43.7713 31.5167 10.0196
133 2 47.5619 31.4765 9.94339
134 2 51.5798 31.5312 10.0584
135 2 55.5735 31.3707 10.015
136 2 59.3698 35.5013 10.027
137 2 4.12988 35.4108 9.94274
138 2 8.01675 35.3474 10.0098
139 2 11.8801 35.6001 10.2441
140 2 15.8279 35.576 10.1543
141 2 19.7253 35.6164 10.1099
142 2 23.7458 35.5815 10.0573
143 2 27.8084 35.4346 9.86548
144 2 31.7945 35.5213 10.1948
145 2 35.809 35.5066 9.97687
146 2 39.7526 35.6494 9.96471
147 2 43.6803 35.4565 10.0002
148 2 47.6355 35.5489 10.0616
149 2 51.8041 35.3985 9.8585
150 2 55.4766 35.472 9.94284
151 2 59.3744 39.4746 9.93687
152 2 4.07768 39.31 10.0202
153 2 7.83271 39.6304 9.94116
154 2 12.0476 39.5596 9.98029
155 2 15.7449 39.6542 9.93508
156 2 19.4348 39.4344 9.99981
157 2 23.6082 39.3467 10.0167
158 2 27.7007 39.3799 10.0198
159 2 31.7598 39.3934 10.1349
160 2 35.6044 39.4566 10.2237
161 2 39.7546 39.5151 9.95521
162 2 43.4458 39.5698 10.22
163 2 47.459 39.4049 10.0086
164 2 51.6433 39.4346 10.0649
165 2 55.5327 39.2887 10.0804
166 2 59.5887 43.3843 10.2259
167 2 3.99406 43.4827 9.92274
168 2 7.93187 43.4338 10.0997
169 2 12.0262 43.3361 10.0393
170 2 15.6096 43.54 9.95843
171 2 19.6348 43.3653 10.0391
172 2 23.5647 43.2629 10.145
173 2 27.6929 43.528 9.96764
174 2 31.7831 43.3187 10.1097
175 2 35.6688 43.4738 10.0896
176 2 39.6723 43.5097 10.0859
177 2 43.5515 43.4135 10.2204
178 2 47.3846 43.4733 10.2389
179 2 51.3745 43.5782 9.97697
180 2 55.5881 43.446 10.0758
181 2 59.4755 47.4441 10.0633
182 2 4.0507 47.5175 10.1104
183 2 7.97457 47.3273 10.0826
184 2 11.7878 47.5492 10.042
185 2 15.9636 47.6938 10.0946
186 2 19.5871 47.3635 10.008
187 2 23.722 47.1768 9.95009
188 2 27.7822 47.3201 10
189 2 31.6252 47.3519 10.2354
190 2 35.6918 47.0876 10.0916
191 2 39.6522 47.405 10.079
192 2 43.6697 47.367 9.9996
193 2 47.5737 47.2674 10.0574
194 2 51.6226 47.3872 10.0017
195 2 55.6747 47.2902 10.1494
196 2 0.0507229 51.3512 9.99691
197 2 3.95018 51.5424 10.239
198 2 7.93179 51.3891 9.91422
199 2 11.7755 51.5682 9.95012
200 2 15.8766 51.5592 9.88781
201 2 19.841 51.2582 10.1538
202 2 23.8253 51.3141 10.1609
203 2 27.7089 51.3161 10.0079
204 2 31.7799 51.5004 9.9965
205 2 35.5196 51.2635 9.98066
206 2 39.6466 51.1584 10.1939
207 2 43.5757 51.1841 9.99951
208 2 47.5918 51.3367 10.062
209 2 51.3373 51.3142 9.99543
210 2 55.1931 51.4119 9.88995
211 2 -0.00540692 55.3266 9.91338
212 2 3.96606 55.5438 10.1497
213 2 7.8662 55.257 10.0337
214 2 11.8657 55.4324 9.83001
215 2 15.9984 55.4302 9.9115
216 2 19.7861 55.4186 10.0633
217 2 23.6188 55.5356 10.0341
218 2 27.5905 55.4598 9.81893
219 2 31.7448 55.3637 9.97494
220 2 35.659 55.1992 9.7853
221 2 39.4401 55.0854 9.82497
222 2 43.5528 55.3725 10.0381
223 2 47.4463 55.2383 9.8267
224 2 51.5374 55.4537 9.97934
225 2 55.3899 55.0909 9.81935
226 2 0.00266013 59.204 14.1486
227 2 3.90314 59.3869 14.1014
228 2 7.82385 59.3743 13.7943
229 2 11.9683 59.3773 14.0824
230 2 15.8218 -0.219294 14.0111
231 2 19.8403 0.0343607 14.0287
232 2 23.8778 -0.245044 14.1084
233 2 27.7733 59.2021 14.0052
234 2 31.8243 59.3374 13.8568
235 2 35.7677 59.2635 14.1716
236 2 39.4782 -0.246067 13.9389
237 2 43.6618 58.9677 14.1121
238 2 47.3631 -0.19201 13.8922
239 2 51.3435 -0.191241 14.0105
240 2 55.5799 59.216 13.8708
241 2 0.050098 4.06864 13.7755
242 2 4.06449 3.9003 13.9189
243 2 7.95237 3.90678 14.0923
244 2 11.8805 3.96496 14.1762
245 2 15.8864 3.73922 13.9658
246 2 19.7884 3.92919 13.9302
247 2 23.5457 3.8659 14.0515
248 2 27.8406 3.76657 14.0812
249 2 31.6293 3.77782 13.9579
250 2 35.605 3.98158 14.0738
251 2 39.6266 3.83253 13.9867
252 2 43.5486 3.69333 14.1529
253 2 47.6514 3.94159 14.1285
254 2 51.4714 3.89115 14.1772
255 2 55.6097 3.86546 13.8818
256 2 0.202174 7.69012 14.0104
257 2 4.0012 7.74077 14.0557
258 2 7.9061 7.83807 13.9728
259 2 11.8593 7.90156 13.9651
260 2 16.0344 7.82191 14.065
261 2 19.7605 7.95346 13.9121
262 2 23.6736 7.82738 14.054
263 2 27.7415 7.83415 14.1871
264 2 31.777 7.87429 14.1209
265 2 35.506 7.79475 13.9683
266 2 39.5782 7.90641 14.0013
267 2 43.5464 7.89142 13.9555
268 2 47.43 8.02418 13.9723
269 2 51.5313 7.79314 14.1402
270 2 55.6162 7.86492 14.0155
271 2 0.192772 11.6003 13.871
272 2 4.33588 11.744 13.8909
273 2 8.1385 11.9516 13.768
274 2 12.0035 11.7267 13.8725
275 2 15.6125 11.8708 13.8895
276 2 19.7392 11.8066 13.8925
277 2 23.7913 11.7217 14.0781
278 2 27.7379 11.9564 14.1192
279 2 31.7452 11.863 14.0701
280 2 35.5216 11.7333 14.0658
281 2 39.5977 11.6866 13.8524
282 2 43.7008 11.7453 14.0488
283 2 47.5184 11.7717 14.1864
284 2 51.5814 11.8042 14.1307
285 2 55.3122 11.5922 13.8102
286 2 0.180532 15.5407 14.0667
287 2 3.93891 15.8152 14.021
288 2 8.05065 15.8672 13.9857
289 2 11.8311 15.7303 14.0357
290 2 15.9539 15.5189 14.0084
291 2 19.8099 15.5859 13.8915
292 2 23.7004 15.5798 13.97
293 2 27.7887 15.6758 13.9128
294 2 31.799 15.5252 13.9738
295 2 35.9181 15.6572 13.9058
296 2 39.6071 15.6549 13.8915
297 2 43.5246 15.7524 13.9176
298 2 47.3818 15.7178 13.9759
299 2 51.5345 15.789 14.1322
300 2 55.6146 15.6728 13.9059
301 2 -0.00265741 19.7832 14.1401
302 2 4.14581 19.78 13.713
303 2 8.2029 19.8152 13.9636
304 2 12.1977 19.8793 13.9144
305 2 15.987 19.5179 13.7724
306 2 19.9426 19.4735 13.8304
307 2 23.6616 19.5257 13.8805
308 2 27.8698 19.6697 13.8959
309 2 31.8944 19.7652 13.7761
310 2 35.8111 19.4788 14.0681
311 2 39.7884 19.5934 14.0049
312 2 43.6818 19.8106 13.8125
313 2 47.6634 19.8068 14.0115
314 2 51.614 19.6548 14.0136
315 2 55.4865 19.7797 13.8734
316 2 -0.0194086 23.5644 13.9789
317 2 4.01445 23.6837 14.1204
318 2 8.14091 23.6447 13.9037
319 2 12.2048 23.5815 14.0696
320 2 15.9506 23.5656 13.9945
321 2 19.9334 23.6873 14.0719
322 2 24.0347 23.5843 13.9368
323 2 27.925 23.6536 14.0271
324 2 31.7029 23.6797 14.138
325 2 35.7313 23.7519 13.9541
326 2 39.6859 23.7125 14.0567
327 2 43.8355 23.8273 14.2581
328 2 47.7864 23.7499 14.0272
329 2 51.6886 23.6689 13.9414
330 2 55.4912 23.7924 14.0978
331 2 0.285885 27.5757 13.976
332 2 4.05831 27.5069 13.9254
333 2 8.06094 27.5018 13.944
334 2 11.8106 27.7689 14.0478
335 2 15.8085 27.3703 14.0953
336 2 19.9037 27.6227 13.8139
337 2 23.9809 27.411 13.9461
338 2 27.6799 27.5308 13.8653
339 2 31.7239 27.6634 14.1082
340 2 35.8314 27.5671 14.0274
341 2 39.774 27.6993 13.9921
342 2 43.5857 27.564 14.0809
343 2 47.6541 27.7693 14.0277
344 2 51.5377 27.6364 13.9666
345 2 55.5852 27.6538 14.0681
346 2 -0.0271912 31.679 14.0242
347 2 3.77509 31.7198 14.0704
348 2 7.89888 31.537 14.1324
349 2 11.9151 31.6134 13.9559
350 2 15.8012 31.3686 13.8511
351 2 19.8879 31.4185 13.9345
352 2 23.9277 31.5199 14.0552
353 2 27.8807 31.4858 13.8729
354 2 31.6778 31.5303 13.9899
355 2 35.7246 31.5978 14.0229
356 2 39.7393 31.4183 13.7518
357 2 43.6231 31.6119 13.9579
358 2 47.5938 31.6171 14.0654
359 2 51.6245 31.3992 13.9016
360 2 55.5156 31.5714 13.9662
361 2 -0.174442 35.7509 14.0849
362 2 4.11748 35.3616 14.0254
363 2 7.96086 35.574 13.878
364 2 11.9792 35.3666 13.887
365 2 16.0048 35.1921 13.895
366 2 19.9776 35.4812 13.9873
367 2 23.7369 35.4933 14.1491
368 2 27.9507 35.4271 13.8331
369 2 31.7823 35.4654 14.0752
370 2 35.7897 35.5062 13.798
371 2 39.7083 35.4472 13.8267
372 2 43.5557 35.4389 14.0831
373 2 47.8067 35.5479 14.0887
374 2 51.4786 35.4843 14.2086
375 2 55.2641 35.4552 13.9365
376 2 0.140953 39.5541 14.2172
377 2 4.17386 39.4479 13.9741
378 2 8.06199 39.6303 13.8812
379 2 11.8582 39.5476 14.1522
380 2 15.8959 39.5233 14.0093
381 2 19.8713 39.5489 14.1718
382 2 23.856 39.429 13.9225
383 2 27.4991 39.6218 13.9298
384 2 31.5749 39.1481 14.0673
385 2 35.7119 39.3474 14.1142
386 2 39.6859 39.529 13.9393
387 2 43.7851 39.4263 13.9778
388 2 47.5304 39.4381 14.0391
389 2 51.5006 39.6702 14.2604
390 2 55.2659 39.5776 14.0716
391 2 0.0357451 43.4762 14.0524
392 2 4.15864 43.4062 14.0928
393 2 8.09519 43.6575 13.8979
394 2 12.0233 43.724 14.0982
395 2 15.7591 43.6109 14.0665
396 2 19.7411 43.3012 14.1268
397 2 23.8333 43.3327 13.9215
398 2 27.834 43.4821 14.0191
399 2 31.5375 43.3469 14.0338
400 2 35.8356 43.3748 14.0765
401 2 39.6214 43.3445 14.1794
402 2 43.5071 43.4322 14.0691
403 2 47.7044 43.3073 14.067
404 2 51.6155 43.5117 14.117
405 2 55.6809 43.5857 13.9667
406 2 0.100164 47.3667 13.9894
407 2 3.9052 47.4315 13.9495
408 2 8.03954 47.3121 14.0544
409 2 11.8465 47.5706 14.0489
410 2 15.8774 47.424 14.0769
411 2 19.7195 47.5764 13.9332
412 2 23.9052 47.3201 13.9456
413 2 27.8463 47.4598 14.1273
414 2 31.7174 47.323 14.1511
415 2 35.6004 47.3773 14.2399
416 2 39.5873 47.5411 13.8754
417 2 43.7629 47.4065 14.0491
418 2 47.542 47.2905 13.9576
419 2 51.4717 47.5507 14.0547
420 2 55.3929 47.4759 14.0109
421 2 -0.016112 51.4124 13.9737
422 2 4.06765 51.3603 13.9289
423 2 8.0269 51.3524 13.9283
424 2 12.0221 51.6669 14.0764
425 2 15.9151 51.5004 13.894
426 2 19.8432 51.5754 14.0082
427 2 23.8821 51.3684 14.0165
428 2 27.8254 51.4659 14.0807
429 2 31.8138 51.4126 14.0574
430 2 35.6726 51.4314 14.0131
431 2 39.5886 51.4872 13.9521
432 2 43.7059 51.3921 14.144
433 2 47.6769 51.4591 13.9294
434 2 51.6052 51.3287 13.8337
435 2 55.5225 51.3149 14.0493
436 2 0.0327751 55.2814 14.0477
437 2 4.03919 55.4635 14.0318
438 2 8.12119 55.4435 13.9792
439 2 11.9034 55.5561 13.8561
440 2 15.9569 55.2234 14.0885
441 2 19.856 55.4777 13.8849
442 2 23.9613 55.3197 13.9867
443 2 27.9093 55.4123 13.9525
444 2 31.6764 55.5282 13.9949
445 2 35.432 55.1302 14.0885
446 2 39.5643 55.1823 13.919
447 2 43.5919 55.2871 14.0368
448 2 47.5789 55.1134 13.8583
449 2 51.4977 55.3007 13.9798
450 2 55.3376 55.1878 14.1813
451 2 0.179862 0.0104959 17.9409
452 2 4.15782 -0.0810604 17.9935
453 2 7.97601 59.3255 17.9972
454 2 11.9984 59.2506 18.0256
455 2 15.8352 59.3307 17.9744
456 2 19.6959 59.3515 18.0202
457 2 23.7866 59.5165 17.9292
458 2 27.8399 0.0251836 18.179
459 2 32.0076 59.2019 18.0231
460 2 35.6828 59.1665 17.9483
461 2 39.4823 -0.289451 17.9211
462 2 43.6019 59.1464 17.9761
463 2 47.523 -0.0762254 17.9868
464 2 51.4808 59.4093 17.8323
465 2 55.5413 59.4229 17.7752
466 2 0.217218 3.83118 18.0861
467 2 3.97818 4.03888 18.005
468 2 8.07 3.97546 17.8921
469 2 11.992 3.9811 18.0926
470 2 16.0513 3.82034 17.9521
471 2 19.9208 3.87416 17.9584
472 2 23.8511 3.9774 18.1117
473 2 27.8609 4.08023 18.085
474 2 31.7564 3.9298 18.1386
475 2 35.809 3.87252 17.936
476 2 39.7161 3.96742 17.9666
477 2 43.6096 3.76107 18.1609
478 2 47.6241 3.86769 17.9623
479 2 51.671 3.75616 17.9451
480 2 55.4678 3.95557 17.8831
481 2 0.234003 7.96669 17.9672
482 2 4.01476 8.00759 18.0041
483 2 8.12782 7.92988 18.0791
484 2 12.0362 7.84407 17.8936
485 2 15.8082 7.81024 17.9478
486 2 19.734 7.74022 17.8688
487 2 23.811 7.82923 17.9978
488 2 27.8672 7.74991 18.1566
489 2 31.6693 7.88457 18.0293
490 2 35.8296 7.65516 17.9616
491 2 39.9698 7.85931 17.6863
492 2 43.6059 7.7351 17.8734
493 2 47.7073 7.8213 17.9909
494 2 51.5429 7.81774 17.9174
495 2 55.642 7.69624 18.0828
496 2 0.0438495 11.954 17.8501
497 2 4.14598 11.7954 18.0778
498 2 7.95381 11.9612 17.7998
499 2 11.9414 11.7564 17.9079
500 2 16.0378 11.6551 18.1284
501 2 20.0182 11.7158 17.9662
502 2 23.8446 11.6493 18.0475
503 2 27.7931 11.8985 18.0679
504 2 31.7516 11.8037 17.9793
505 2 36.0153 11.7043 17.9418
506 2 39.6599 11.8159 18.0738
507 2 43.8607 11.7679 18.027
508 2 47.7586 11.96 18.0285
509 2 51.6194 11.673 17.974
510 2 55.3529 11.7747 17.9933
511 2 59.4639 15.7291 17.9855
512 2 4.09283 15.85 17.9569
513 2 8.1231 15.7884 18.0022
514 2 12.088 15.8439 17.8201
515 2 15.9818 15.9162 17.983
516 2 19.9969 15.6288 17.7848
517 2 23.8217 15.8689 17.8755
518 2 27.8195 15.8636 17.8848
519 2 31.7833 15.6261 18.0805
520 2 35.7937 15.5794 17.8834
521 2 39.8156 15.7327 17.7793
522 2 43.7793 15.5284 17.7881
523 2 47.6285 15.7606 17.9438
524 2 51.5686 15.8628 17.9211
525 2 55.3334 15.7718 17.6544
526 2 0.0340615 19.7516 18.1566
527 2 4.06557 19.9774 18.0601
528 2 7.96869 19.7961 17.9922
529 2 11.9289 19.7979 17.7846
530 2 16.0392 19.5898 18.0033
531 2 19.8439 19.7437 17.9203
532 2 23.8722 19.5893 17.9398
533 2 27.8398 19.6873 18.0458
534 2 31.8244 19.5925 17.8479
535 2 35.815 19.4922 17.8134
536 2 39.833 19.6457 18.0009
537 2 43.827 19.8706 17.9616
538 2 47.5393 19.7296 17.9906
539 2 51.6954 19.7356 17.9382
540 2 55.6379 19.8408 18.1667
541 2 0.326767 23.6756 17.8156
542 2 4.13332 23.6883 17.9471
543 2 8.07881 23.7171 17.9319
544 2 12.0643 23.6917 18.1446
545 2 15.8992 23.4901 17.8659
546 2 19.7866 23.5054 18.0448
547 2 23.817 23.5119 17.8214
548 2 27.7096 23.4517 17.9303
549 2 31.9524 23.7585 17.9139
550 2 35.9337 23.6044 17.922
551 2 39.7559 23.4617 17.9085
552 2 43.5719 23.7601 17.9785
553 2 47.5166 23.7674 18.1846
554 2 51.6012 23.479 17.9238
555 2 55.6286 23.6201 18.0149
556 2 0.179546 27.5646 17.8881
557 2 4.27702 27.6091 17.8772
558 2 8.20613 27.5412 18.0505
559 2 11.9786 27.6831 17.7864
560 2 15.8681 27.5732 17.9703
561 2 20.1016 27.5365 18.0251
562 2 23.9697 27.519 17.8604
563 2 27.8738 27.6453 18.0015
564 2 31.8414 27.4422 17.9832
565 2 35.9111 27.5478 17.8102
566 2 39.648 27.6763 18.0486
567 2 43.517 27.6841 18.0147
568 2 47.5806 27.5999 18.1577
569 2 51.3568 27.575 18.0974
570 2 55.5796 27.5389 18.0149
571 2 0.15044 31.4439 17.8372
572 2 4.07633 31.5168 18.0543
573 2 8.17586 31.659 17.9369
574 2 11.9854 31.4535 17.8416
575 2 16.0296 31.508 17.9909
576 2 19.7242 31.223 18.0286
577 2 23.7433 31.5193 17.9593
578 2 27.5638 31.6363 17.7901
579 2 31.9474 31.5328 17.7229
580 2 35.5657 31.5381 17.9551
581 2 39.7102 31.439 17.9043
582 2 43.8209 31.686 18.0234
583 2 47.6961 31.5792 18.0818
584 2 51.5529 31.4795 18.0115
585 2 55.7467 31.546 17.7286
586 2 0.00654949 35.6466 18.0327
587 2 4.27893 35.4462 17.9491
588 2 8.09745 35.5518 18.069
589 2 12.1165 35.6056 17.6636
590 2 16.0965 35.5001 17.8327
591 2 20.0244 35.2384 18.0234
592 2 23.899 35.6731 18.1682
593 2 27.7447 35.5255 18.016
594 2 31.8961 35.4849 17.9929
595 2 35.782 35.458 17.8836
596 2 39.5453 35.6607 17.9435
597 2 43.2608 35.5579 17.9638
598 2 47.4833 35.5601 18.0423
599 2 51.5815 35.3576 18.0897
600 2 55.424 35.3024 17.8503
601 2 -0.113032 39.3774 17.9341
602 2 4.17483 39.4398 17.8668
603 2 7.87364 39.4108 17.8565
604 2 11.8722 39.5638 18.0395
605 2 15.8434 39.3416 17.9929
606 2 19.9735 39.3576 17.9378
607 2 23.8428 39.3813 17.9305
608 2 27.7279 39.4864 17.8799
609 2 31.7653 39.3828 17.9704
610 2 35.8454 39.4423 18.0939
611 2 39.6859 39.5194 17.967
612 2 43.7159 39.405 17.795
613 2 47.52 39.4319 18.2044
614 2 51.6339 39.3597 18.1766
615 2 55.5113 39.5174 17.9729
616 2 0.10584 43.3783 18.0116
617 2 4.17601 43.5477 18.0087
618 2 7.98967 43.5876 18.0709
619 2 11.8168 43.1662 18.113
620 2 15.9874 43.4921 17.9314
621 2 19.9051 43.3166 17.9391
622 2 23.9001 43.4004 18.0071
623 2 27.6764 43.4686 18.1429
624 2 31.7996 43.1978 18.0812
625 2 35.858 43.4927 17.8776
626 2 39.8149 43.4133 18.0827
627 2 43.5337 43.6774 17.8918
628 2 47.6323 43.4698 17.9257
629 2 51.5957 43.3524 18.0179
630 2 55.6635 43.5418 17.9528
631 2 0.226172 47.4933 17.9856
632 2 4.08885 47.6416 18.0605
633 2 7.99233 47.5358 17.8842
634 2 11.994 47.5804 18.0297
635 2 15.8736 47.3871 17.9466
636 2 20.0372 47.464 17.9903
637 2 23.7913 47.4679 17.9048
638 2 27.877 47.6445 17.9493
639 2 31.7455 47.2622 18.0136
640 2 35.6872 47.396 18.064
641 2 39.5657 47.6151 17.9318
642 2 43.5927 47.4539 17.8699
643 2 47.558 47.3034 17.9997
644 2 51.3712 47.4869 18.159
645 2 55.449 47.5096 18.0002
646 2 0.250848 51.4909 17.9859
647 2 4.01892 51.5065 17.9978
648 2 7.92347 51.5379 17.8444
649 2 11.9528 51.5229 18.1695
650 2 15.9071 51.2271 17.8691
651 2 19.8156 51.4593 17.7826
652 2 23.7737 51.3633 18.0512
653 2 27.7504 51.289 17.8824
654 2 31.8301 51.1891 17.8875
655 2 35.7527 51.4114 18.046
656 2 39.6164 51.5529 17.9424
657 2 43.6764 51.4352 17.9614
658 2 47.6364 51.4896 18.2066
659 2 51.4905 51.3343 17.9285
660 2 55.5912 51.3183 17.7642
661 2 0.00604808 55.5337 17.8933
662 2 4.16643 55.3818 17.9898
663 2 8.11199 55.4055 17.861
664 2 12.0821 55.298 18.0404
665 2 15.981 55.2292 18.017
666 2 19.8693 55.1518 17.8192
667 2 23.7556 55.2983 17.7377
668 2 27.7103 55.5229 18.2389
669 2 31.5328 55.2524 18.1074
670 2 35.6212 55.3115 18.1096
671 2 39.6574 55.4882 18.119
672 2 43.6183 55.4483 18.116
673 2 47.5351 55.4952 17.9868
674 2 51.3372 55.4778 18.0606
675 2 55.4025 55.1873 18.1551
676 2 59.5862 59.3603 21.9984
677 2 4.35645 -0.0783619 21.761
678 2 8.06784 0.102 21.9066
679 2 11.961 0.0255691 22.1777
680 2 15.9515 59.2935 22.0315
681 2 20.0267 -0.0246659 21.834
682 2 23.7767 59.4545 21.7847
683 2 27.5938 -0.0801658 21.9839
684 2 31.6939 0.0482993 22.2049
685 2 35.723 0.0786164 21.993
686 2 39.6004 59.6511 21.6154
687 2 43.5015 0.213098 22.0113
688 2 47.4149 0.124949 21.85
689 2 51.4244 59.5034 21.8921
690 2 55.7213 -0.0378141 21.8437
691 2 0.293544 3.9619 22.1874
692 2 4.30319 3.94734 21.9195
693 2 8.0117 3.97958 21.9838
694 2 12.0045 3.89321 22.0608
695 2 15.7254 4.15642 22.1088
696 2 19.8068 3.97108 21.9071
697 2 23.7543 4.1177 22.0243
698 2 27.6835 3.85412 22.0374
699 2 31.658 3.77087 21.9702
700 2 35.4726 4.0095 22.0243
701 2 39.5498 3.86143 21.9403
702 2 43.4992 4.02812 22.1799
703 2 47.5619 4.04963 21.9472
704 2 51.3318 3.93277 22.0956
705 2 55.4334 3.96356 21.8447
706 2 0.00830042 7.84359 21.9714
707 2 4.02828 8.02728 21.967
708 2 7.96746 7.95363 22.0027
709 2 11.9717 8.02454 21.965
710 2 15.8379 7.75711 21.9589
711 2 19.808 8.07183 21.8887
712 2 23.7952 8.0842 21.9938
713 2 27.8803 7.86425 22.0545
714 2 31.7538 8.06045 21.9268
715 2 35.687 7.84347 22.0129
716 2 39.803 7.84215 22.0289
717 2 43.734 7.74092 22.0487
718 2 47.6154 8.12988 21.9512
719 2 51.562 7.99287 22.0549
720 2 55.4769 7.96131 21.9631
721 2 59.4549 11.6682 21.9542
722 2 4.17012 11.8444 21.9343
723 2 8.23819 11.7497 21.9937
724 2 12.221 12.0375 21.8502
725 2 16.1934 11.8974 21.8502
726 2 19.9941 11.782 21.9788
727 2 23.8119 11.7985 21.9815
728 2 27.7555 11.7651 21.9608
729 2 31.7332 11.775 21.8804
730 2 35.7966 11.7284 21.8622
731 2 39.6955 11.5948 22.025
732 2 43.7133 11.8318 22.0049
733 2 47.7113 11.8874 22.1408
734 2 51.6316 11.9541 21.9878
735 2 55.4831 11.9982 22.0271
736 2 0.287336 15.8748 21.9409
737 2 4.04793 15.631 22.1033
738 2 8.14504 15.6866 22.0029
739 2 12.1371 15.7741 21.9234
740 2 16.0244 15.7356 21.9303
741 2 20.0306 15.6283 22.0357
742 2 23.8841 15.643 21.9507
743 2 27.7327 15.8825 21.9251
744 2 32.0014 15.6613 22.0784
745 2 35.905 15.6986 21.9133
746 2 39.6664 15.8038 21.801
747 2 43.5625 15.7479 22.0966
748 2 47.6636 16.1516 21.7965
749 2 51.4693 15.8194 22.1347
750 2 55.56 15.9154 21.9245
751 2 0.294207 19.8951 22.1693
752 2 4.30365 19.6848 21.8643
753 2 8.10467 19.5154 21.9374
754 2 11.9428 19.7574 21.6792
755 2 15.9004 19.621 22.0145
756 2 19.8988 19.6202 21.8709
757 2 23.958 19.7495 21.888
758 2 27.8946 20.0203 21.9295
759 2 31.9537 19.993 21.8399
760 2 35.7471 19.6709 21.9072
761 2 39.7347 19.741 21.8598
762 2 43.8008 19.7646 21.9355
763 2 47.4966 20.0453 21.96
764 2 51.5804 19.7585 21.8933
765 2 55.7299 19.7369 22.1166
766 2 0.378777 23.7669 21.9882
767 2 4.07152 23.8883 21.9834
768 2 8.14217 23.6655 21.9855
769 2 12.0621 23.5868 21.9962
770 2 15.9478 23.5912 21.9426
771 2 19.8512 23.8472 22.0154
772 2 24.1603 23.6229 21.9789
773 2 27.879 23.7028 21.9354
774 2 31.8472 23.6332 21.9021
775 2 36.0059 23.5634 21.6962
776 2 39.7256 23.7527 21.9874
777 2 43.5632 23.7749 22.2101
778 2 47.5861 23.728 22.1878
779 2 51.4442 23.5329 21.9852
780 2 55.4774 23.7582 22.1676
781 2 59.4953 27.6584 21.8733
782 2 4.06776 27.6487 21.7854
783 2 8.05886 27.6958 21.9594
784 2 12.0325 27.595 22.0683
785 2 16.0348 27.646 21.9804
786 2 19.9537 27.6668 21.938
787 2 23.8834 27.3796 21.6852
788 2 27.9935 27.5962 21.9716
789 2 31.83 27.5577 21.9709
790 2 35.9004 27.7198 21.9007
791 2 39.799 27.8074 21.9124
792 2 43.4777 27.5535 21.8152
793 2 47.7501 27.7722 22.0335
794 2 51.7183 27.4985 21.9424
795 2 55.6822 27.5498 21.8945
796 2 59.7242 31.848 21.9523
797 2 4.17917 31.6784 21.9218
798 2 8.22842 31.67 21.9743
799 2 12.1289 31.5994 21.8516
800 2 15.9602 31.6701 21.9618
801 2 19.7973 31.6719 21.8405
802 2 23.6566 31.682 21.8651
803 2 27.8514 31.6742 21.9342
804 2 31.8846 31.476 21.9183
805 2 35.6903 31.7873 22.1608
806 2 39.6993 31.5151 21.8794
807 2 43.8181 31.7447 21.9336
808 2 47.6853 31.6567 22.0437
809 2 51.6976 31.633 22.0451
810 2 55.6754 31.3483 21.7358
811 2 0.0265883 35.5691 21.9631
812 2 4.18162 35.5556 21.9031
813 2 8.12934 35.6417 22.0426
814 2 12.1198 35.5486 21.9213
815 2 15.9989 35.7078 22.0416
816 2 20.0044 35.6907 21.9115
817 2 23.7773 35.4434 22.1055
818 2 27.9776 35.449 21.8634
819 2 31.7154 35.4854 21.869
820 2 35.7832 35.4968 21.8656
821 2 39.725 35.5292 21.9795
822 2 43.6227 35.4912 21.9837
823 2 47.6165 35.6615 22.0114
824 2 51.5708 35.5618 21.8941
825 2 55.6045 35.5453 21.9788
826 2 0.00351195 39.378 22.0194
827 2 3.88438 39.6922 22.0769
828 2 7.76071 39.6121 22.0304
829 2 11.986 39.5383 21.9306
830 2 15.7906 39.5511 22.0356
831 2 19.8325 39.5403 21.9381
832 2 23.8921 39.7545 21.7766
833 2 27.7974 39.5687 22.0293
834 2 32.0058 39.6104 21.9972
835 2 35.7882 39.3971 22.0908
836 2 39.7571 39.6161 21.9957
837 2 43.5871 39.379 21.7456
838 2 47.5409 39.628 21.8283
839 2 51.4046 39.303 22.0074
840 2 55.4009 39.5189 21.9976
841 2 0.13025 43.4018 21.7997
842 2 3.87875 43.4886 21.7842
843 2 7.95377 43.6153 21.8218
844 2 11.9091 43.5001 21.999
845 2 15.8549 43.4367 22.0255
846 2 19.9321 43.4736 21.9881
847 2 23.8825 43.581 21.8726
848 2 27.8036 43.5429 22.0554
849 2 31.5833 43.5775 21.9441
850 2 35.8574 43.3035 21.9792
851 2 39.7661 43.6597 21.782
852 2 43.6441 43.3411 21.8709
853 2 47.4684 43.4759 22.0867
854 2 51.5407 43.5637 21.767
855 2 55.4589 43.4009 22.0337
856 2 0.185006 47.5986 21.6937
857 2 4.02451 47.4185 21.9185
858 2 8.10365 47.4933 21.9721
859 2 11.9969 47.4311 21.8647
860 2 16.0645 47.3333 21.7165
861 2 19.8886 47.4999 21.9926
862 2 23.8806 47.3439 21.9543
863 2 27.9565 47.4162 21.7012
864 2 31.9041 47.1983 21.8076
865 2 35.677 47.2664 22.0033
866 2 39.7468 47.7206 21.8718
867 2 43.5585 47.54 21.9839
868 2 47.4571 47.4633 22.0721
869 2 51.487 47.3957 22.0824
870 2 55.6539 47.5669 21.9253
871 2 0.175513 51.4884 21.8396
872 2 3.97843 51.603 21.931
873 2 7.99987 51.5005 21.9669
874 2 12.134 51.4958 22.145
875 2 15.9234 51.5326 22.0202
876 2 19.8699 51.1989 21.8253
877 2 23.7433 51.1447 21.9882
878 2 27.6769 51.5058 21.8516
879 2 31.5462 51.4027 21.8488
880 2 35.6356 51.3895 21.9497
881 2 39.6639 51.4216 22.0846
882 2 43.706 51.3253 22.2135
883 2 47.7419 51.4399 22.0986
884 2 51.6131 51.3497 21.9534
885 2 55.5306 51.5202 21.93
886 2 0.164222 55.3745 21.9984
887 2 4.13499 55.4627 21.9657
888 2 8.17544 55.3182 21.8495
889 2 11.8787 55.4485 22.1426
890 2 15.9747 55.4753 21.9617
891 2 19.808 55.2454 21.9708
892 2 23.7874 55.2905 21.8884
893 2 27.7922 55.4127 21.9205
894 2 31.5386 55.2596 21.9204
895 2 35.6975 55.2931 22.1596
896 2 39.4494 55.3209 21.9723
897 2 43.5789 55.4905 21.9251
898 2 47.5528 55.4538 21.8776
899 2 51.5314 55.4546 21.8443
900 2 55.4903 55.3404 21.8761
901 2 -0.0366431 0.138432 25.9424
902 2 4.15663 -0.0593328 25.7204
903 2 8.04287 59.3518 26.1778
904 2 11.9193 -0.0708435 26.1155
905 2 16.0442 -0.22372 25.9548
906 2 19.9013 -0.0434016 26.0861
907 2 23.8348 0.0675912 25.9812
908 2 27.8521 0.0162851 26.1258
909 2 31.7541 59.3494 26.1046
910 2 35.6505 0.0560873 25.9748
911 2 39.7023 -0.0569538 25.9327
912 2 43.5865 0.0979045 25.7001
913 2 47.5575 0.171273 25.9022
914 2 51.531 59.3157 25.9137
915 2 55.5533 59.492 25.8649
916 2 0.0491826 4.04567 25.9423
917 2 3.9864 3.86103 25.9478
918 2 8.036 3.97211 26.0654
919 2 12.0389 3.80169 26.1398
920 2 15.9089 3.89706 25.9699
921 2 20.0066 3.92848 26.0583
922 2 23.812 3.89929 25.8671
923 2 27.7233 4.03142 25.9308
924 2 31.6681 4.20344 25.9882
925 2 35.614 3.99976 26.0481
926 2 39.5084 4.01252 26.0126
927 2 43.6012 4.1203 25.931
928 2 47.5049 3.79728 25.9531
929 2 51.5373 4.03662 26.1041
930 2 55.4939 3.91891 25.8201
931 2 59.6403 7.92657 25.9462
932 2 4.24782 7.87401 25.9581
933 2 8.07539 7.84183 25.9262
934 2 11.9249 7.99709 26.0457
935 2 15.7252 7.91552 25.9494
936 2 19.7578 7.79661 26.123
937 2 23.8903 7.71461 25.9442
938 2 27.9978 7.97449 25.8347
939 2 31.8101 8.11961 25.6402
940 2 35.6839 7.98398 26.042
941 2 39.7125 7.78415 26.0758
942 2 43.8147 8.0304 25.9504
943 2 47.5606 7.90148 25.9622
944 2 51.522 7.99119 26.1414
945 2 55.4078 7.83059 26.0311
946 2 0.0972304 11.9728 25.896
947 2 3.97092 11.8186 26.0564
948 2 8.03121 11.9622 25.9149
949 2 12.0797 11.8085 25.9863
950 2 15.8323 11.9882 25.9294
951 2 20.0358 11.815 26.0435
952 2 23.9699 11.8659 25.9915
953 2 27.9017 11.9409 25.8365
954 2 31.6817 11.8969 25.9272
955 2 35.8392 11.8521 25.9876
956 2 39.7878 11.8541 25.8453
957 2 43.5029 11.8103 26.0112
958 2 47.751 12.0802 25.8211
959 2 51.4805 11.7511 25.9573
960 2 55.69 12.0092 25.8439
961 2 59.585 16.0148 25.9933
962 2 4.11983 15.8208 25.9144
963 2 8.13389 15.8504 25.8252
964 2 11.7794 15.7166 25.9129
965 2 15.8612 16.0284 26.0388
966 2 19.932 15.9116 25.9921
967 2 23.9319 16.0234 25.8998
968 2 27.9204 15.8172 25.8737
969 2 31.6861 15.8977 25.8703
970 2 35.9267 15.6912 25.8925
971 2 39.8927 15.8545 25.7646
972 2 43.6457 15.7967 25.9025
973 2 47.5474 15.774 26.1019
974 2 51.6678 15.8601 25.9364
975 2 55.5679 15.9194 25.9382
976 2 59.5632 19.9743 25.9053
977 2 4.24474 19.8599 25.8544
978 2 8.11139 19.8664 25.8102
979 2 12.1823 19.9371 25.8594
980 2 16.0685 19.8525 26.0876
981 2 20.0007 19.7979 25.7154
982 2 23.8547 19.8828 25.9488
983 2 28.0422 19.7924 25.8261
984 2 31.9253 19.8935 25.6988
985 2 35.6807 19.5803 25.9889
986 2 39.7026 19.8059 26.0085
987 2 43.7223 19.8428 26.0605
988 2 47.4507 19.6049 25.9018
989 2 51.5694 19.7678 25.9568
990 2 55.5789 19.9362 25.7757
991 2 59.5076 23.8105 26.1061
992 2 4.10159 23.795 25.892
993 2 7.85518 23.8601 25.9659
994 2 11.7644 23.7282 25.8793
995 2 15.8489 23.9431 25.9905
996 2 19.8778 23.7695 25.8187
997 2 23.9255 23.8536 25.9019
998 2 27.7252 23.9293 25.8885