ITEM: TIMESTEP
1537200
ITEM: NUMBER OF ATOMS
16875
ITEM: BOX BOUNDS xy xz yz pp pp pp
0.0000000000000000e+00 5.9369999999999997e+01 0.0000000000000000e+00
0.0000000000000000e+00 5.9369999999999997e+01 0.0000000000000000e+00
3.4250452164448930e-01 6.0023914478358250e+01 0.0000000000000000e+00
ITEM: ATOMS id type x y z
1 2 59.3418 59.2228 10.0536
2 2 3.91051 59.2341 10.2354
3 2 7.8988 59.0277 10.0972
4 2 11.7734 59.3465 10.0513
5 2 15.8938 -0.10838 10.1052
6 2 19.7495 59.2662 10.086
7 2 23.9186 59.1858 10.1119
8 2 27.7279 59.4116 10.2316
9 2 31.5852 59.3705 10.0237
10 2 35.4578 59.2702 10.2031
11 2 39.3192 59.0644 9.88053
12 2 43.4299 59.2662 10.0145
13 2 47.3141 59.4279 9.95294
14 2 51.5859 59.352 9.98753
15 2 55.3774 59.4606 10.0272
16 2 -0.142354 3.80986 9.97591
17 2 3.96287 3.79246 9.96359
18 2 8.01989 3.78536 10.0761
19 2 11.844 3.8517 10.0753
20 2 15.9 3.80556 10.1977
21 2 19.9033 4.07789 10.0783
22 2 23.8647 3.84636 10.1003
23 2 27.5823 3.97884 10.0048
24 2 31.677 3.81991 10.0501
25 2 35.7084 3.8878 9.96393
26 2 39.4816 3.81231 10.0949
27 2 43.423 3.93021 10.0539
28 2 47.4882 3.9129 10.0212
29 2 51.3395 3.98476 10.0688
30 2 55.3011 3.88059 9.96328
31 2 0.0720263 7.8666 10.0145
32 2 3.90418 7.91853 10.2025
33 2 7.8626 7.64531 10.1312
34 2 11.9256 7.62045 10.0556
35 2 15.73 7.8431 9.95987
36 2 19.693 7.74278 10.0226
37 2 23.4339 7.82949 10.0746
38 2 27.3932 7.65273 10.1223
39 2 31.7886 7.84583 10.1425
40 2 35.5078 7.64451 9.93662
41 2 39.5304 7.75842 10.0574
42 2 43.593 7.76592 10.1398
43 2 47.5462 7.75487 9.96626
44 2 51.427 7.61417 10.1104
45 2 55.1531 7.76822 10.2314
46 2 -0.259037 11.9236 10.1883
47 2 3.88549 11.6738 10.1823
48 2 7.9631 11.7455 10.0834
49 2 11.9465 11.6454 10.0238
50 2 15.8903 11.7697 10.0995
51 2 19.6797 11.7083 10.06
52 2 23.7167 11.634 9.95737
53 2 27.7211 11.7243 10.1748
54 2 31.5802 11.7782 10.1065
55 2 35.4632 11.5182 9.98225
56 2 39.3934 11.7055 10.1741
57 2 43.4137 11.4778 9.88576
58 2 47.3728 11.6917 10.0979
59 2 51.3582 11.7033 9.96341
60 2 55.2875 11.9387 10.0047
61 2 59.4414 15.7784 10.0259
62 2 3.95281 15.4914 9.91028
63 2 8.03332 15.6801 9.99651
64 2 11.8359 15.8206 10.3097
65 2 15.7543 15.6172 9.85952
66 2 19.7882 15.6802 10.154
67 2 23.8042 15.4513 10.0083
68 2 27.6273 15.8346 10.1179
69 2 31.8639 15.6476 9.94744
70 2 35.5624 15.5222 10.276
71 2 39.4338 15.6933 10.1347
72 2 43.4255 15.4627 9.98761
73 2 47.4455 15.6877 10.0364
74 2 51.5205 15.7882 10.0356
75 2 55.4223 15.6814 10.0024
76 2 -0.00713654 19.6868 10.0116
77 2 3.83642 19.6203 10.0837
78 2 7.94577 19.6772 10.1539
79 2 12.0094 19.531 9.80664
80 2 15.7385 19.669 9.87755
81 2 20.0108 19.6965 9.93188
82 2 23.819 19.4385 9.8381
83 2 27.8378 19.7343 10.208
84 2 31.7612 19.6926 9.9285
85 2 35.593 19.4764 9.84686
86 2 39.541 19.7224 10.0974
87 2 43.5987 19.6681 10.106
88 2 47.4803 19.6124 10.0445
89 2 51.3861 19.6481 9.91178
90 2 55.4282 19.7606 10.0167
91 2 -0.00862223 23.5993 9.93864
92 2 3.86228 23.674 9.92506
93 2 7.92655 23.7061 10.1815
94 2 11.7221 23.5963 10.0345
95 2 15.84 23.6779 9.94839
96 2 19.7277 23.7278 10.0541
97 2 23.7367 23.678 10.0588
98 2 27.6443 23.4342 9.90056
99 2 31.602 23.5527 9.91081
100 2 35.6784 23.6234 10.101
101 2 39.4779 23.6166 10.1135
102 2 43.786 23.6381 9.82302
103 2 47.5473 23.5249 9.96216
104 2 51.4186 23.4868 9.81543
105 2 55.4485 23.5251 9.97555
106 2 0.119031 27.5695 9.9787
107 2 3.88239 27.4758 9.90714
108 2 7.8821 27.7594 10.0007
109 2 11.9621 27.4714 10.0676
110 2 15.9219 27.5478 10.0089
111 2 19.8323 27.5319 9.71856
112 2 23.8483 27.4417 10.1123
113 2 27.6103 27.5698 10.3104
114 2 31.6498 27.5332 10.057
115 2 35.749 27.5387 10.0574
116 2 39.6822 27.6546 9.95673
117 2 43.5392 27.592 9.98538
118 2 47.6257 27.6674 9.99347
119 2 51.5281 27.4073 9.83405
120 2 55.4213 27.4893 10.0959
121 2 0.057887 31.5972 9.81452
122 2 3.7418 31.7068 10.0457
123 2 7.82341 31.7882 9.90401
124 2 11.7512 31.5513 9.94699
125 2 15.7279 31.5398 9.89144
126 2 19.8368 31.4947 9.97215
127 2 23.7442 31.2218 10.0801
128 2 27.8184 31.6376 10.1823
129 2 31.5731 31.392 10.0081
130 2 35.7524 31.4273 10.0021
131 2 39.6418 31.7017 10.0995
132 2 43.5047 31.6832 10.052
133 2 47.389 31.7066 10.018
134 2 51.499 31.5917 9.90594
135 2 55.324 31.3649 10.0474
136 2 59.2994 35.729 10.1068
137 2 3.99009 35.4913 9.95009
138 2 7.88844 35.4695 10.0014
139 2 11.945 35.4815 9.85921
140 2 15.9109 35.535 9.95907
141 2 19.7287 35.4967 9.92895
142 2 23.9315 35.3705 10.137
143 2 27.6284 35.4652 10.1339
144 2 31.6915 35.5417 10.0476
145 2 35.5049 35.6437 10.086
146 2 39.4692 35.5507 10.1752
147 2 43.4699 35.6126 10.1684
148 2 47.4354 35.5742 10.1622
149 2 51.2659 35.6821 10.0506
150 2 55.4594 35.4212 9.99332
151 2 59.5019 39.3733 10.0016
152 2 4.01404 39.406 10.0212
153 2 8.0491 39.4482 9.84018
154 2 11.8252 39.3959 10.1691
155 2 15.9585 39.6484 9.96178
156 2 20.0031 39.3048 9.97712
157 2 23.8833 39.3043 10.0237
158 2 27.7528 39.521 10.18
159 2 31.7403 39.4717 9.92618
160 2 35.5996 39.5083 10.0867
161 2 39.5938 39.5131 10.1463
162 2 43.708 39.3971 10.1702
163 2 47.5829 39.666 10.2256
164 2 51.6143 39.5113 9.97045
165 2 55.4763 39.5781 9.94457
166 2 59.4403 43.2917 10.1
167 2 4.09928 43.4241 10.0135
168 2 7.96142 43.2403 9.92673
169 2 11.9956 43.4696 10.0443
170 2 15.9361 43.3985 9.84049
171 2 19.959 43.3514 9.91034
172 2 24.0215 43.4985 10.0094
173 2 27.7717 43.4367 10.1145
174 2 31.756 43.3601 10.0949
175 2 35.5526 43.3507 10.0779
176 2 39.5232 43.462 10.1104
177 2 43.6999 43.2811 10.0395
178 2 47.5467 43.5005 10.0274
179 2 51.316 43.3459 10.0669
180 2 55.401 43.5539 9.85189
181 2 59.4108 47.2579 10.135
182 2 3.8351 47.2652 10.0183
183 2 7.98557 47.2674 9.97538
184 2 11.8904 47.2012 9.966
185 2 16.0513 47.368 9.98546
186 2 19.7707 47.2637 9.81294
187 2 23.5178 47.3295 9.96292
188 2 27.5822 47.5597 9.95469
189 2 31.5624 47.2504 10.1173
190 2 35.5023 47.2741 10.1122
191 2 39.3999 47.1957 10.2501
192 2 43.5794 47.5153 10.0956
193 2 47.489 47.4339 10.0162
194 2 51.6516 47.3667 9.98655
195 2 55.375 47.3549 10.1089
196 2 0.0962298 51.2991 10.1831
197 2 4.00806 51.3531 9.9911
198 2 7.89804 51.2269 10.152
199 2 11.8884 51.2443 9.89347
200 2 15.7246 51.4173 9.93647
201 2 19.6366 51.463 9.92534
202 2 23.6155 51.1739 10.1022
203 2 27.7844 51.3553 9.9995
204 2 31.575 51.1999 10.1432
205 2 35.5597 51.4219 10.245
206 2 39.3418 51.316 9.94217
207 2 43.4993 51.3066 10.1218
208 2 47.5983 51.2543 10.0944
209 2 51.4793 51.4621 10.0815
210 2 55.4939 51.4817 9.99204
211 2 0.205766 55.284 9.96429
212 2 4.04513 55.433 10.1584
213 2 7.87334 55.5545 10.264
214 2 11.831 55.2452 9.98402
215 2 15.734 55.3815 10.127
216 2 19.8339 55.3564 10.0497
217 2 23.8453 55.0888 10.1016
218 2 27.7769 55.2925 10.094
219 2 31.6456 55.2771 10.0095
220 2 35.4576 55.194 10.081
221 2 39.3126 55.3934 10.0841
222 2 43.355 55.2098 10.0011
223 2 47.549 55.4846 10.2021
224 2 51.4222 55.3755 10.0083
225 2 55.563 55.3819 10.1271
226 2 0.0429467 59.2331 14.0418
227 2 4.02545 59.4087 14.1026
228 2 8.0229 59.395 14.1034
229 2 11.9243 59.1713 14.0358
230 2 15.74 -0.0453977 14.0448
231 2 20.0769 -0.134118 13.8951
232 2 23.8034 -0.208055 14.1889
233 2 27.7484 59.3191 14.1089
234 2 31.4816 59.316 14.2664
235 2 35.503 59.2233 13.9469
236 2 39.685 -0.140995 13.8357
237 2 43.5943 59.292 14.1007
238 2 47.4665 -0.0651934 13.8165
239 2 51.6353 -0.129521 14.0931
240 2 55.4981 59.2172 13.9736
241 2 0.00137568 3.99346 14.0637
242 2 3.78351 3.91113 13.9552
243 2 7.91031 3.74206 14.2002
244 2 11.8222 3.79301 14.1728
245 2 15.8666 3.78853 14.1173
246 2 20.0347 3.74509 13.9947
247 2 23.763 4.03374 14.0372
248 2 27.7043 3.8529 14.0524
249 2 31.7976 3.87425 14.0223
250 2 35.8185 3.71245 14.201
251 2 39.8478 3.75273 14.0496
252 2 43.7676 3.83298 14.124
253 2 47.5786 3.85792 14.0892
254 2 51.5716 3.56145 14.178
255 2 55.5396 3.82031 13.9765
256 2 0.0676695 7.79336 13.9314
257 2 4.06579 7.73915 14.0463
258 2 7.87918 7.55346 14.0283
259 2 11.8543 7.6752 14.0936
260 2 15.8504 7.81129 13.9948
261 2 19.6759 7.76481 14.0547
262 2 23.6409 7.96733 14.1026
263 2 27.8251 7.85595 14.0173
264 2 31.6912 7.84087 14.1606
265 2 35.6915 7.92905 14.0692
266 2 39.483 7.76996 13.9221
267 2 43.5558 7.86408 14.0414
268 2 47.6831 7.86764 14.1217
269 2 51.5557 7.90166 14.1533
270 2 55.5317 7.89747 13.9489
271 2 0.0798882 11.6125 14.0233
272 2 3.99534 11.7945 14.0095
273 2 7.93121 11.6863 14.0597
274 2 11.9224 11.5786 13.9721
275 2 15.7305 11.513 14.0126
276 2 19.7834 11.8047 14.1654
277 2 23.728 11.8318 13.998
278 2 27.627 11.9203 13.8051
279 2 31.4672 11.6998 14.114
280 2 35.5209 11.9408 13.9967
281 2 39.6997 11.7925 14.046
282 2 43.5399 11.789 14.1116
283 2 47.4016 11.9998 14.0138
284 2 51.4723 11.7017 14.0815
285 2 55.4853 11.6963 13.9889
286 2 0.0812491 15.6184 13.9129
287 2 4.12238 15.6557 13.9878
288 2 7.89104 15.7298 14.1336
289 2 12.0531 15.6392 14.0173
290 2 15.7557 15.6378 14.0486
291 2 19.8817 15.5465 14.0364
292 2 23.6404 15.9244 13.9605
293 2 27.835 15.6833 13.9999
294 2 31.8089 15.6523 14.0254
295 2 35.7067 15.8201 14.0641
296 2 39.7676 15.894 13.8764
297 2 43.5963 15.6245 13.7831
298 2 47.5147 15.887 14.129
299 2 51.4963 15.5769 14.0836
300 2 55.3208 15.6715 13.8428
301 2 0.0401449 19.6251 13.8555
302 2 3.83854 19.7099 14.0584
303 2 7.89085 19.823 14.1512
304 2 11.9886 19.4469 13.7783
305 2 16.1261 19.4224 13.7939
306 2 19.6871 19.7285 13.938
307 2 23.8079 19.8395 14.0058
308 2 27.7385 19.5425 13.9835
309 2 31.6781 19.6025 14.0299
310 2 35.7253 19.8379 14.061
311 2 39.7487 19.7708 13.8029
312 2 43.8185 19.9965 13.8249
313 2 47.6184 19.5881 13.9424
314 2 51.4362 19.6193 14.1757
315 2 55.343 19.7094 14.1292
316 2 -0.0159506 23.7788 14.0695
317 2 4.2259 23.4866 13.9786
318 2 8.0669 23.5282 13.9826
319 2 11.9532 23.4907 13.8811
320 2 15.9155 23.5355 13.8851
321 2 19.8478 23.5808 13.9282
322 2 23.7571 23.694 14.0931
323 2 27.9228 23.7139 13.9898
324 2 31.8333 23.5717 13.9221
325 2 35.7715 23.609 13.9909
326 2 39.6669 23.6952 14.0282
327 2 43.6048 23.8132 13.9839
328 2 47.5574 23.8625 13.9679
329 2 51.6957 23.4735 13.8741
330 2 55.3649 23.555 13.8378
331 2 -0.0242256 27.6653 13.8701
332 2 4.00285 27.5737 13.8802
333 2 7.85704 27.7795 13.9498
334 2 11.8563 27.4563 14.0388
335 2 15.7874 27.7196 14.049
336 2 19.7911 27.65 13.8391
337 2 23.8632 27.583 13.9646
338 2 27.6622 27.6865 14.1128
339 2 31.768 27.5456 14.0524
340 2 35.6071 27.6332 14.0501
341 2 39.653 27.8842 14.0528
342 2 43.6038 27.6136 13.9323
343 2 47.6436 27.6372 13.8348
344 2 51.61 27.5075 13.8705
345 2 55.474 27.7094 13.996
346 2 0.193407 31.4072 14.0309
347 2 3.9805 31.4854 14.0986
348 2 7.65134 31.7247 13.9799
349 2 11.6597 31.4193 13.9256
350 2 15.7099 31.4036 14.0375
351 2 19.7525 31.5329 13.7623
352 2 23.647 31.5196 14.123
353 2 27.8402 31.5098 14.1843
354 2 31.7678 31.6871 14.0091
355 2 35.5752 31.6621 13.9557
356 2 39.6919 31.7655 13.9183
357 2 43.4265 31.4808 13.9553
358 2 47.648 31.4659 14.0342
359 2 51.3973 31.4655 14.0112
360 2 55.5827 31.5764 14.1159
361 2 -0.0945688 35.6749 14.0731
362 2 3.88236 35.6632 13.7811
363 2 7.77544 35.5209 13.953
364 2 12.0587 35.3916 13.9534
365 2 15.8651 35.5634 14.0381
366 2 19.7386 35.3458 13.8761
367 2 23.6591 35.3949 13.9105
368 2 27.6349 35.7622 13.9923
369 2 31.8545 35.332 14.084
370 2 35.7271 35.4873 13.963
371 2 39.6446 35.528 14.0477
372 2 43.6366 35.3975 14.0231
373 2 47.613 35.6327 14.2646
374 2 51.5772 35.4098 13.9612
375 2 55.4197 35.3176 13.7899
376 2 0.0458214 39.4035 14.0354
377 2 4.12716 39.4357 14.0332
378 2 7.98938 39.3895 14.1024
379 2 12.0451 39.3156 13.7981
380 2 15.9563 39.528 13.822
381 2 19.8365 39.4709 13.8699
382 2 23.7284 39.4487 14.0636
383 2 27.7403 39.6324 14.1574
384 2 31.7367 39.5181 14.2641
385 2 35.5689 39.4337 14.1628
386 2 39.498 39.6533 14.0294
387 2 43.5115 39.5979 14.0374
388 2 47.5656 39.5367 14.162
389 2 51.4852 39.4489 14.0568
390 2 55.5089 39.4274 14.0818
391 2 0.051773 43.3679 13.8042
392 2 4.04546 43.3171 14.0138
393 2 7.9286 43.5286 13.9534
394 2 11.8067 43.5339 13.9975
395 2 15.923 43.4462 13.8268
396 2 19.7104 43.1885 13.8504
397 2 23.7174 43.5767 14.0734
398 2 27.8064 43.4626 14.1821
399 2 31.7545 43.8562 14.1206
400 2 35.7209 43.2943 14.1323
401 2 39.7284 43.5197 13.9613
402 2 43.5652 43.3987 14.0108
403 2 47.5096 43.5463 14.1934
404 2 51.6915 43.5069 14.0492
405 2 55.3265 43.5016 13.961
406 2 0.152587 47.3215 14.0737
407 2 4.12979 47.4008 14.0893
408 2 7.80743 47.3302 13.9124
409 2 11.753 47.3625 13.9896
410 2 15.7154 47.4732 13.9886
411 2 19.8119 47.2689 13.9704
412 2 23.6986 47.3964 14.1347
413 2 27.6842 47.364 13.9868
414 2 31.8752 47.4797 14.0056
415 2 35.7916 47.3931 14.0049
416 2 39.5056 47.3431 14.0742
417 2 43.7408 47.3659 13.9069
418 2 47.5505 47.4947 13.9532
419 2 51.6318 47.5433 14.1181
420 2 55.4366 47.5062 13.9747
421 2 0.0379117 51.3322 13.9785
422 2 3.95467 51.213 13.9871
423 2 8.10075 51.2707 13.7305
424 2 12.1232 51.2927 13.9507
425 2 15.9973 51.3627 13.9887
426 2 19.7596 51.4246 13.982
427 2 23.6428 51.2936 14.1461
428 2 27.5232 51.2681 13.9449
429 2 31.626 51.2899 14.2606
430 2 35.4685 51.3277 13.9555
431 2 39.5825 51.3721 14.1428
432 2 43.4295 51.4198 14.1657
433 2 47.562 51.3183 14.0975
434 2 51.5457 51.3786 14.0752
435 2 55.5713 51.4482 13.8448
436 2 0.174593 55.1056 14.0765
437 2 3.96912 55.2959 14.2487
438 2 7.87299 55.2217 14.0837
439 2 11.9356 55.0953 14.0889
440 2 15.7619 55.4295 14.1013
441 2 19.7698 55.2518 14.0382
442 2 23.532 55.1688 14.056
443 2 27.6157 55.2743 14.0727
444 2 31.5419 55.2511 14.0156
445 2 35.4894 55.472 13.8388
446 2 39.5245 55.3048 14.1745
447 2 43.5263 55.1785 13.7855
448 2 47.4135 55.429 13.9819
449 2 51.6193 55.2776 13.7603
450 2 55.6752 55.4854 13.8207
451 2 0.0141458 -0.189439 18.0268
452 2 4.168 0.0124502 17.7866
453 2 7.94105 59.3447 18.0543
454 2 12.0198 59.4038 18.0338
455 2 15.8338 59.1416 17.9672
456 2 19.6728 59.5419 17.9675
457 2 23.7472 59.248 18.0614
458 2 27.6551 -0.157631 17.8426
459 2 31.5031 59.3085 17.9983
460 2 35.574 59.3031 17.8317
461 2 39.6981 -0.0641648 17.9938
462 2 43.4595 59.3907 17.9135
463 2 47.6458 0.0524521 17.997
464 2 51.5349 59.1609 17.7822
465 2 55.3893 59.3073 17.9813
466 2 0.133191 4.04869 18.0274
467 2 3.85612 3.97253 17.9664
468 2 7.76187 3.88225 18.0248
469 2 11.8985 3.95226 18.1278
470 2 15.9904 4.00043 18.0206
471 2 19.589 3.93029 18.2382
472 2 23.8689 3.91698 18.0789
473 2 27.7086 4.00601 18.2715
474 2 31.7714 3.84691 18.0911
475 2 35.6845 3.85916 18.0012
476 2 39.4541 3.93702 17.9551
477 2 43.5546 4.07373 18.1273
478 2 47.503 3.80247 18.0311
479 2 51.5259 3.92047 17.9457
480 2 55.5109 3.97962 18.048
481 2 -0.0552964 7.8455 17.7396
482 2 3.83928 7.81955 17.9873
483 2 7.97816 7.85043 18.0942
484 2 11.8201 7.92383 18.0709
485 2 15.8135 8.06678 18.0793
486 2 19.7858 7.85157 18.0397
487 2 23.8107 7.97669 18.1878
488 2 27.6559 7.89244 18.0738
489 2 31.5061 7.89284 18.0133
490 2 35.6134 7.84563 17.9792
491 2 39.716 7.79167 17.8596
492 2 43.3942 8.14928 17.9532
493 2 47.4904 7.88958 17.9785
494 2 51.5927 7.79294 18.2442
495 2 55.401 7.94784 18.2128
496 2 -0.14265 11.8489 18.0159
497 2 4.02275 11.8424 18.0541
498 2 7.96795 11.6595 18.1324
499 2 11.9117 11.8721 17.9856
500 2 15.8816 11.7602 18.0902
501 2 19.9731 12.0087 17.9321
502 2 23.7884 11.9996 18.0647
503 2 27.7914 11.8886 18.0306
504 2 31.7184 11.8229 18.1109
505 2 35.5672 11.9859 18.143
506 2 39.5427 11.8641 17.9036
507 2 43.5498 11.9468 18.1558
508 2 47.4782 11.781 18.1361
509 2 51.4042 11.8827 18.005
510 2 55.7263 11.9015 17.9173
511 2 59.4452 15.6877 18.006
512 2 3.80016 15.7897 18.0172
513 2 8.08843 15.6126 17.9757
514 2 11.9893 15.7648 17.8859
515 2 15.8347 15.7697 18.0904
516 2 19.9096 15.7875 18.0595
517 2 23.6439 15.9703 18.0544
518 2 27.6748 15.6674 18.0276
519 2 31.779 15.8808 17.9353
520 2 35.7564 15.9299 17.7785
521 2 39.633 15.9433 17.9013
522 2 43.5928 15.9172 18.05
523 2 47.2828 15.8241 17.8714
524 2 51.2756 15.8512 18.0293
525 2 55.5016 15.8368 18.1338
526 2 0.134531 19.8946 18.0112
527 2 4.06607 19.7398 17.8918
528 2 7.78402 19.7573 17.9507
529 2 11.9312 19.6006 17.9175
530 2 15.9659 19.6307 17.9651
531 2 19.7951 19.6834 17.8291
532 2 23.9235 19.8007 17.859
533 2 27.8026 19.7117 17.9996
534 2 31.5471 19.9118 18.1142
535 2 35.7348 20.0371 17.8566
536 2 39.7445 19.8206 17.9528
537 2 43.714 20.0947 17.8438
538 2 47.5256 19.7881 17.9248
539 2 51.6415 19.9388 18.0539
540 2 55.6932 19.6428 17.776
541 2 0.0952333 23.6025 18.1525
542 2 3.90456 23.7398 18.0871
543 2 8.10323 23.7872 17.8431
544 2 11.995 23.5023 17.8831
545 2 15.9681 23.6159 17.8974
546 2 19.9724 23.7946 17.7156
547 2 23.8642 23.7794 17.9595
548 2 27.7068 23.8318 17.7812
549 2 31.6095 23.8393 17.9234
550 2 35.7142 23.8078 18.1693
551 2 39.8 23.862 18.1443
552 2 43.7042 23.9103 18.0627
553 2 47.668 23.4759 18.0371
554 2 51.5356 23.6581 17.939
555 2 55.5257 23.7352 18.034
556 2 0.155907 27.5616 17.9813
557 2 3.78764 27.6042 18.0229
558 2 8.04864 27.5257 18.0712
559 2 11.9861 27.6224 17.9624
560 2 15.904 27.5642 17.9963
561 2 19.7712 27.5828 17.7879
562 2 23.857 27.6166 18.0074
563 2 27.8485 27.7162 17.9991
564 2 31.88 27.7856 17.9255
565 2 35.53 27.6982 18.0703
566 2 39.6793 27.7446 18.0836
567 2 43.7129 27.6779 17.9397
568 2 47.5592 27.6707 17.8581
569 2 51.4571 27.5062 18.1351
570 2 55.7325 27.7596 17.9455
571 2 0.25631 31.479 18.0735
572 2 4.06241 31.7362 17.9486
573 2 7.86196 31.6797 17.9092
574 2 12.0244 31.5353 17.911
575 2 15.868 31.3872 18.0031
576 2 19.6424 31.7286 18.0177
577 2 23.5726 31.7987 18.0208
578 2 27.6085 31.5775 18.0406
579 2 31.6035 31.6935 18.1352
580 2 35.8619 31.5158 17.8448
581 2 39.6471 31.6329 18.1081
582 2 43.712 31.6744 18.0375
583 2 47.6316 31.597 17.917
584 2 51.5775 31.4322 17.9833
585 2 55.5046 31.5964 18.0496
586 2 0.0350474 35.4098 18.0351
587 2 3.82832 35.7664 18.0002
588 2 8.09187 35.5428 17.9754
589 2 12.0428 35.6161 17.7398
590 2 15.8179 35.4373 17.9249
591 2 19.8623 35.5516 18.0239
592 2 23.6861 35.583 18.0308
593 2 27.8252 35.63 17.7441
594 2 31.6945 35.6459 18.2271
595 2 35.6944 35.3247 17.8469
596 2 39.6532 35.4202 18.0299
597 2 43.7176 35.5069 17.8249
598 2 47.4498 35.6087 17.8938
599 2 51.75 35.4965 18.0601
600 2 55.6466 35.6878 17.9293
601 2 -0.0078372 39.5299 18.1332
602 2 3.99768 39.6848 18.0696
603 2 7.86124 39.431 18.0626
604 2 11.9696 39.5998 17.8355
605 2 15.7683 39.5549 17.9761
606 2 19.878 39.5696 17.8302
607 2 23.751 39.5328 18.1598
608 2 27.7045 39.514 18.0638
609 2 31.773 39.3966 18.0634
610 2 35.7824 39.537 18.0358
611 2 39.7041 39.2762 18.1807
612 2 43.6829 39.5622 18.1868
613 2 47.707 39.4726 18.1361
614 2 51.4687 39.7347 17.8812
615 2 55.5915 39.5621 17.9586
616 2 0.232416 43.4812 18.0748
617 2 4.07493 43.3484 18.1214
618 2 7.98785 43.4952 18.1967
619 2 11.9562 43.4589 17.9875
620 2 16.0562 43.3491 17.9435
621 2 19.7883 43.5538 18.0349
622 2 23.8692 43.3883 18.1112
623 2 27.9375 43.3019 18.0367
624 2 31.7301 43.4021 17.9094
625 2 35.5042 43.6151 17.9293
626 2 39.6586 43.6522 17.9911
627 2 43.8171 43.569 18.0907
628 2 47.6716 43.3256 18.0682
629 2 51.5817 43.6865 17.9672
630 2 55.5586 43.476 17.8937
631 2 0.265268 47.3832 17.9366
632 2 4.13463 47.5894 17.9654
633 2 8.01536 47.4841 18.047
634 2 11.9693 47.4815 17.9041
635 2 15.8416 47.3405 17.8709
636 2 19.9294 47.3365 18.1118
637 2 23.8487 47.4278 18.0591
638 2 27.6537 47.4197 18.2941
639 2 31.4643 47.2956 18.0117
640 2 35.6661 47.3625 18.1486
641 2 39.6714 47.6393 17.886
642 2 43.6939 47.5356 18.0677
643 2 47.6713 47.438 18.0663
644 2 51.6421 47.5653 18.036
645 2 55.7473 47.4364 17.9813
646 2 -0.0659306 51.4131 17.9719
647 2 3.96849 51.3804 18.0813
648 2 8.09484 51.4906 17.7714
649 2 11.8478 51.2526 17.9143
650 2 15.9949 51.3423 17.9248
651 2 19.7752 51.2759 18.0041
652 2 23.7315 51.4381 18.0721
653 2 27.7461 51.136 17.9998
654 2 31.6927 51.4051 18.0415
655 2 35.5854 51.3128 18.0891
656 2 39.6843 51.3997 18.0257
657 2 43.6654 51.446 18.037
658 2 47.6877 51.3655 17.9098
659 2 51.5213 51.5393 17.9981
660 2 55.445 51.2149 17.9438
661 2 -0.0436461 55.1594 17.9956
662 2 4.09803 55.2897 18.0862
663 2 8.03987 55.4756 18.0168
664 2 12.0334 55.3648 18.0439
665 2 16.0402 55.4424 18.0079
666 2 19.8613 55.4624 17.9386
667 2 23.8289 55.4916 18.0412
668 2 27.5172 55.1509 18.1713
669 2 31.5436 55.2104 18.1703
670 2 35.6731 55.4358 18.1181
671 2 39.7543 55.4619 18.0882
672 2 43.8542 55.298 17.8752
673 2 47.605 55.4066 17.9545
674 2 51.6374 55.1854 17.8853
675 2 55.4903 55.5038 18.0611
676 2 59.5144 59.3398 22.0471
677 2 3.99362 -0.105614 22.0942
678 2 7.919 0.0148788 22.1552
679 2 11.8009 0.136804 21.8105
680 2 15.9819 59.4877 21.9002
681 2 19.8367 -0.0244107 21.9751
682 2 24.1025 59.5039 21.8852
683 2 27.8065 -0.0483852 22.0371
684 2 31.635 0.123042 21.9887
685 2 35.8356 0.115776 22.0181
686 2 39.7827 59.6034 21.72
687 2 43.5223 -0.00603657 22.1483
688 2 47.8353 0.0312174 21.8938
689 2 51.7157 59.349 22.1093
690 2 55.4298 0.172835 21.9118
691 2 0.087632 3.92551 22.0192
692 2 4.00344 3.76498 22.0891
693 2 7.85311 3.9058 22.014
694 2 11.9928 4.12786 22.0844
695 2 15.9926 3.82611 21.9932
696 2 19.8645 4.04706 22.131
697 2 23.8528 3.88518 21.9971
698 2 27.8763 3.88426 21.9459
699 2 31.7194 3.81522 21.9006
700 2 35.7658 4.12026 21.8932
701 2 39.7051 4.0901 22.0937
702 2 43.6932 3.91247 22.0149
703 2 47.5498 3.85226 22.0533
704 2 51.4729 3.86958 22.0025
705 2 55.5034 3.87848 22.1589
706 2 0.276429 7.86899 21.9594
707 2 4.12097 7.83682 22.134
708 2 7.9223 7.86509 21.93
709 2 11.7782 7.78095 21.8829
710 2 15.9483 8.01134 21.8909
711 2 20.0147 7.93595 22.0558
712 2 24.0371 7.89673 22.0809
713 2 27.8276 8.02768 22.0273
714 2 31.9828 7.8642 21.9998
715 2 35.7099 8.12772 21.997
716 2 39.6989 7.86513 22.1061
717 2 43.6542 7.65317 21.968
718 2 47.5862 7.85171 21.8576
719 2 51.4691 7.94881 22.0456
720 2 55.3945 7.67919 22.1242
721 2 59.3298 11.7689 21.9409
722 2 3.90293 11.8792 22.0303
723 2 7.74218 11.9414 21.9083
724 2 11.966 11.9672 22.0163
725 2 15.9215 11.7466 22.0838
726 2 19.679 11.8455 22.1015
727 2 23.8561 11.8303 22.1831
728 2 27.7898 12.0395 21.7628
729 2 31.8047 11.8802 21.8918
730 2 35.7487 11.9222 22.0522
731 2 39.7799 11.9134 22.1118
732 2 43.7806 11.9588 21.9022
733 2 47.5921 11.7043 21.9323
734 2 51.539 11.9717 22.047
735 2 55.4419 11.7564 22.0119
736 2 0.00270415 15.9669 21.8299
737 2 4.02022 15.8428 22.1937
738 2 8.07875 15.8666 22.0115
739 2 11.7746 15.7939 21.9639
740 2 15.7571 15.987 21.7787
741 2 19.7452 15.8135 21.9593
742 2 23.8936 16.0548 21.9446
743 2 28.0649 15.839 21.969
744 2 31.8673 15.7826 22.0166
745 2 35.8108 15.9862 21.8295
746 2 39.8245 15.9044 21.804
747 2 43.6939 16.0992 21.8217
748 2 47.6371 15.8726 21.8832
749 2 51.6534 15.8134 21.9088
750 2 55.3968 15.82 22.0436
751 2 0.32183 19.8016 21.8119
752 2 4.06864 19.614 21.8794
753 2 7.88553 19.6827 21.9062
754 2 11.8324 19.7265 22.011
755 2 15.929 19.9048 21.8913
756 2 19.7419 19.9621 21.9036
757 2 23.9643 19.7689 21.7033
758 2 27.6667 19.9455 21.8837
759 2 31.6931 19.8271 21.9758
760 2 35.661 19.9311 22.0429
761 2 39.7708 19.6046 22.0871
762 2 43.6897 19.7641 21.96
763 2 47.5941 19.6519 21.955
764 2 51.3986 19.7597 22.0442
765 2 55.5494 19.7454 22.0226
766 2 0.0888375 23.7602 21.9826
767 2 4.2668 23.5864 22.0268
768 2 8.17601 23.7395 21.9453
769 2 11.911 23.5552 21.9792
770 2 16.0119 23.8121 21.9718
771 2 19.9251 23.5107 21.7744
772 2 23.8396 23.8258 21.9317
773 2 27.8106 23.8 21.9169
774 2 31.6412 23.8672 21.9511
775 2 35.8277 23.673 22.1538
776 2 39.6939 23.7506 21.9192
777 2 43.6078 23.7465 21.9733
778 2 47.6152 23.8194 22.0783
779 2 51.4991 23.8486 21.9503
780 2 55.6218 23.5082 21.9209
781 2 59.5156 27.6334 22.057
782 2 4.06321 27.5166 21.9395
783 2 7.8842 27.804 21.9307
784 2 11.858 27.7491 21.8921
785 2 15.7088 27.5881 22.0637
786 2 19.8171 27.6745 21.9822
787 2 23.5977 27.8549 21.968
788 2 27.5808 27.8259 21.8076
789 2 31.6399 27.9576 21.89
790 2 35.5445 27.8176 21.9164
791 2 39.8094 27.6932 22.0635
792 2 43.7471 27.6679 21.9594
793 2 47.6417 27.7738 22.0646
794 2 51.4843 27.7524 21.9895
795 2 55.5509 27.8152 21.9934
796 2 59.3567 31.6228 22.3417
797 2 4.017 31.6593 22.0291
798 2 8.02639 31.7331 21.9044
799 2 11.8142 31.7433 21.8864
800 2 15.8886 31.4493 21.878
801 2 19.8755 31.6038 21.9935
802 2 23.7994 31.635 21.9287
803 2 27.6243 31.7442 21.8821
804 2 31.764 31.5649 22.0291
805 2 35.8754 31.7501 22.0098
806 2 39.7257 31.842 21.9709
807 2 43.6288 31.7551 22.0703
808 2 47.729 31.8221 21.9034
809 2 51.6427 31.6904 21.7704
810 2 55.3928 31.5907 22.045
811 2 0.176849 35.5633 22.0533
812 2 3.98514 35.6598 22.0395
813 2 8.27764 35.6139 21.7804
814 2 11.9926 35.6 22.1397
815 2 15.8417 35.6603 22.0865
816 2 19.7125 35.4947 22.062
817 2 23.8903 35.7003 22.0313
818 2 27.707 35.5161 21.9828
819 2 31.6911 35.5162 22.0626
820 2 35.5717 35.7583 22.0291
821 2 39.7528 35.6673 22.0674
822 2 43.6728 35.337 22.0602
823 2 47.5914 35.6459 22.0711
824 2 51.5448 35.8127 21.8833
825 2 55.554 35.7177 22.1199
826 2 0.0147496 39.5704 22.1013
827 2 4.20152 39.401 21.9627
828 2 8.16653 39.5856 21.9861
829 2 12.1266 39.5325 21.9289
830 2 16.0243 39.4993 21.8613
831 2 19.8121 39.4735 22.0068
832 2 23.6009 39.6834 22.0492
833 2 27.8972 39.5762 22.1495
834 2 31.6534 39.5671 22.1201
835 2 35.5952 39.7183 21.8465
836 2 39.6278 39.626 21.8477
837 2 43.5408 39.51 22.0147
838 2 47.5653 39.4133 21.8978
839 2 51.6912 39.6658 22.0347
840 2 55.5464 39.5607 21.9634
841 2 0.32652 43.5671 22.1558
842 2 4.14391 43.3699 21.6745
843 2 8.02687 43.5718 21.913
844 2 11.9148 43.3813 21.7193
845 2 15.9978 43.4844 22.0305
846 2 19.9138 43.4245 22.1163
847 2 23.8351 43.6475 22.0775
848 2 27.9167 43.6432 22.0546
849 2 31.7477 43.3758 21.8997
850 2 35.65 43.6237 22.0282
851 2 39.8248 43.5754 22.073
852 2 43.7502 43.6219 21.9005
853 2 47.6211 43.3688 22.0114
854 2 51.7412 43.5972 22.0652
855 2 55.5643 43.5741 21.8378
856 2 0.116402 47.5172 21.9712
857 2 4.009 47.5403 21.996
858 2 7.91142 47.4738 22.0376
859 2 12.0818 47.3719 21.8796
860 2 15.9831 47.4539 21.8574
861 2 19.8283 47.3347 22.1403
862 2 23.8339 47.5828 21.9571
863 2 28.0158 47.3809 22.2288
864 2 31.67 47.2706 22.0854
865 2 35.9383 47.4315 21.9825
866 2 39.8444 47.4134 22.0162
867 2 43.7229 47.359 21.9999
868 2 47.6435 47.5458 22.039
869 2 51.7249 47.536 21.8809
870 2 55.7588 47.2582 21.9963
871 2 0.0203826 51.2938 22.1607
872 2 4.24969 51.3534 21.8886
873 2 8.09381 51.5761 21.902
874 2 11.9815 51.2797 21.8106
875 2 15.972 51.4071 21.9562
876 2 19.878 51.3537 21.9964
877 2 23.7631 51.4285 22.0469
878 2 27.7678 51.3941 22.1026
879 2 31.8343 51.3528 21.8514
880 2 35.8853 51.4093 21.9408
881 2 39.6308 51.489 22.115
882 2 43.6493 51.6415 21.9292
883 2 47.6302 51.3137 21.9693
884 2 51.4678 51.4448 21.7604
885 2 55.4649 51.3489 21.9772
886 2 0.312181 55.2764 21.933
887 2 4.03077 55.2451 21.9368
888 2 7.72808 55.4513 21.8684
889 2 11.9033 55.5136 21.8491
890 2 16.05 55.5601 22.023
891 2 19.9288 55.3723 21.8513
892 2 23.9174 55.4165 21.9759
893 2 27.8234 55.2663 22.1821
894 2 31.8609 55.3356 22.1265
895 2 35.6501 55.7117 22.0298
896 2 39.5805 55.5363 21.8937
897 2 43.8002 55.3981 21.8438
898 2 47.6531 55.3681 21.9354
899 2 51.5059 55.3835 21.9059
900 2 55.5901 55.6254 21.7933
901 2 0.180339 -0.151784 26.0904
902 2 4.05978 -0.166763 26.0879
903 2 7.94256 59.4468 26.0571
904 2 11.9662 -0.0180814 25.7976
905 2 15.9636 0.0311055 25.9656
906 2 20.1245 -0.0497769 25.8673
907 2 23.9617 -0.0471587 25.8732
908 2 27.8844 0.111699 25.9856
909 2 31.8191 59.4853 25.7203
910 2 35.7751 0.133365 25.9915
911 2 39.8072 -0.16288 26.0202
912 2 43.8471 0.0281163 25.9885
913 2 47.4582 -0.0549653 26.0771
914 2 51.5029 59.4724 26.2549
915 2 55.5424 59.2665 25.8488
916 2 0.123461 4.03233 25.843
917 2 4.16382 4.01276 26.0523
918 2 8.02463 3.8928 26.0552
919 2 11.9943 4.1654 26.0459
920 2 15.9105 4.01868 26.0381
921 2 19.811 4.19081 25.93
922 2 23.6885 4.10948 26.1244
923 2 27.8636 4.14686 25.8963
924 2 31.7609 4.05601 25.9665
925 2 35.6641 4.0506 25.872
926 2 39.6825 3.77415 25.9649
927 2 43.6616 3.90568 26.0718
928 2 47.5289 4.03812 26.0141
929 2 51.5421 3.86919 26.1421
930 2 55.6266 3.80164 26.0038
931 2 59.3995 7.8245 26.0703
932 2 4.1784 8.01456 26.0788
933 2 8.10372 7.98705 25.9945
934 2 11.911 8.06459 25.8837
935 2 15.9653 7.94518 26.0149
936 2 19.9234 8.0643 26.019
937 2 23.8523 7.99112 26.0117
938 2 27.8367 8.05007 25.9078
939 2 31.9483 7.98601 25.9253
940 2 35.7712 7.89127 25.9408
941 2 39.7219 8.03495 26.0193
942 2 43.6201 8.10149 25.9584
943 2 47.789 7.90792 25.9267
944 2 51.6433 7.96429 25.8511
945 2 55.5235 7.86584 26.0737
946 2 -0.206079 11.8409 26.0696
947 2 4.00059 11.7876 26.076
948 2 7.78085 12.1672 25.8822
949 2 11.8597 11.9855 25.937
950 2 15.907 11.8677 25.9204
951 2 19.9547 12.1537 25.8549
952 2 23.7844 11.9705 26.0693
953 2 27.9259 12.0319 25.6084
954 2 31.9918 11.8504 25.8304
955 2 36.0434 11.947 25.8971
956 2 39.9937 11.9862 25.8379
957 2 43.6407 12.1041 25.8402
958 2 47.4929 12.1135 25.8624
959 2 51.4622 11.9955 25.8157
960 2 55.4748 11.9029 25.8453
961 2 59.4826 15.8211 26.0172
962 2 4.19428 15.7775 26.0304
963 2 7.88211 15.9573 26.0202
964 2 12.1017 15.7738 25.9805
965 2 16.0368 15.8638 26.0779
966 2 19.8042 16.0447 25.8468
967 2 23.9932 15.9494 25.7042
968 2 27.9914 15.9022 25.929
969 2 31.91 15.9848 25.8497
970 2 35.8098 15.9694 26.0246
971 2 39.6812 15.8422 26.0116
972 2 43.7369 15.9424 25.7167
973 2 47.7375 15.8816 25.9218
974 2 51.5444 15.9026 26.1291
975 2 55.5954 15.8737 25.7808
976 2 59.4834 19.762 26.1709
977 2 4.0879 19.906 25.7693
978 2 7.90918 19.7137 25.9765
979 2 12.0648 19.7918 26.1159
980 2 15.8977 19.5635 26.0081
981 2 19.7175 19.9501 26.1231
982 2 23.8641 19.9728 25.9183
983 2 27.9148 19.6489 25.9242
984 2 31.6744 19.9168 25.9782
985 2 35.7438 19.8346 26.0791
986 2 39.8623 19.8323 25.8705
987 2 43.5841 19.8443 25.962
988 2 47.6535 19.7644 26.0164
989 2 51.6979 19.9845 26.0684
990 2 55.3679 19.8319 25.9759
991 2 59.5485 23.8825 25.9989
992 2 4.17728 24.0619 25.8851
993 2 7.95702 23.8439 25.7312
994 2 12.0223 23.6667 25.8787
995 2 15.9526 23.8701 25.7831
996 2 20.0045 23.8307 26.1134
997 2 23.8602 23.6218 26.0174
998 2 27.8556 23.8156 26.0067
999 2 31.5762 23.6265 25.9092