ITEM: TIMESTEP
1542200
ITEM: NUMBER OF ATOMS
16875
ITEM: BOX BOUNDS xy xz yz pp pp pp
0.0000000000000000e+00 5.9369999999999997e+01 0.0000000000000000e+00
0.0000000000000000e+00 5.9369999999999997e+01 0.0000000000000000e+00
3.2883399528378021e-01 6.0037585004719332e+01 0.0000000000000000e+00
ITEM: ATOMS id type x y z
1 2 59.538 59.2039 9.97826
2 2 3.87744 59.371 10.0943
3 2 8.14326 59.2169 10.034
4 2 12.0262 59.3561 10.0218
5 2 16.0249 -0.0511307 9.99195
6 2 19.9706 59.3084 10.2717
7 2 23.8791 59.413 10.1655
8 2 27.8068 59.3524 10.064
9 2 31.7474 59.5337 9.98077
10 2 35.6138 59.3458 10.0849
11 2 39.6528 59.2277 9.95545
12 2 43.6226 59.2314 10.0485
13 2 47.5884 59.2808 10.1562
14 2 51.5631 59.2373 10.0576
15 2 55.5153 59.5585 10.0723
16 2 0.16804 4.06993 10.1232
17 2 4.07773 4.11363 10.1294
18 2 8.02817 3.91575 10.1566
19 2 11.8769 3.83778 9.92682
20 2 15.9266 4.07314 10.1152
21 2 19.9133 3.93776 9.99419
22 2 23.9092 3.93058 10.2459
23 2 27.8617 3.65141 10.0252
24 2 31.7081 3.85341 10.1177
25 2 35.5766 3.92485 10.0301
26 2 39.8254 3.83842 10.0962
27 2 43.704 3.83269 9.93822
28 2 47.5384 3.89124 10.1002
29 2 51.6624 3.77989 10.1444
30 2 55.7641 3.95587 10.0199
31 2 0.0327207 7.93249 10.2557
32 2 3.92773 8.01259 10.1794
33 2 7.83265 7.73026 10.1032
34 2 11.8833 7.90015 10.0006
35 2 15.8902 8.11768 9.79522
36 2 19.9601 7.7873 10.0277
37 2 24.0155 7.8584 9.90321
38 2 27.9791 7.80839 9.92915
39 2 31.7871 7.94082 10.085
40 2 35.893 7.78916 9.85988
41 2 39.8438 7.82265 9.76953
42 2 43.7291 7.69551 9.97276
43 2 47.6737 7.70744 10.0463
44 2 51.3259 7.77643 10.0552
45 2 55.4348 7.86518 9.99913
46 2 -0.0502544 11.7954 9.98566
47 2 3.98666 12.0417 10.0134
48 2 8.09432 11.8195 9.91352
49 2 12.0487 11.8334 9.90721
50 2 15.8884 11.9691 9.9462
51 2 20.149 11.853 9.81268
52 2 23.9764 11.5976 9.92957
53 2 27.9234 11.8806 10.0709
54 2 31.761 12.0009 10.0264
55 2 35.6559 11.7078 9.8644
56 2 39.8798 11.8143 10.0767
57 2 43.8538 11.7163 10.1343
58 2 47.4802 11.8827 9.93568
59 2 51.5151 11.7351 10.2243
60 2 55.5456 11.637 9.79668
61 2 59.3933 15.6546 10.0706
62 2 4.12683 15.7551 9.9431
63 2 8.05211 15.7211 10.1835
64 2 12.1138 15.7058 10.1071
65 2 15.9244 15.7091 10.0931
66 2 20.2378 15.8177 9.99438
67 2 23.8825 15.7307 10.0519
68 2 27.8848 15.8671 10.0087
69 2 31.8383 15.7833 10.2807
70 2 35.715 15.9466 10.0535
71 2 39.7239 15.7499 10.0238
72 2 43.462 15.838 10.062
73 2 47.6776 15.9079 10.0473
74 2 51.5403 15.7035 10.1724
75 2 55.6287 15.747 10.0501
76 2 0.0780262 19.5185 10.0818
77 2 3.93172 19.8462 10.0514
78 2 7.75678 19.6249 9.95105
79 2 11.9134 19.7664 10.1622
80 2 15.9126 19.8126 10.124
81 2 19.9404 19.6976 10.0501
82 2 23.9427 19.6908 10.0687
83 2 27.8151 19.8188 9.99178
84 2 31.6818 19.8561 10.0858
85 2 35.7811 19.754 10.0114
86 2 39.8603 19.7492 10.0943
87 2 43.7312 19.7049 10.0251
88 2 47.5476 19.715 10.1209
89 2 51.6577 19.7115 10.0736
90 2 55.5012 19.7943 10.076
91 2 0.151677 23.5877 10.008
92 2 4.12796 23.6777 10.1877
93 2 8.03126 23.8499 10.0048
94 2 12.0047 23.7888 10.0107
95 2 15.9684 23.7504 10.1659
96 2 19.7541 23.8672 10.0877
97 2 23.6626 23.7079 10.2371
98 2 27.7658 23.6354 10.0992
99 2 31.74 23.8877 10.154
100 2 35.6165 23.8633 10.0809
101 2 39.636 23.5381 10.0989
102 2 43.505 23.6208 10.0392
103 2 47.666 23.726 10.0856
104 2 51.5605 23.6498 10.0569
105 2 55.498 23.467 10.0316
106 2 0.172796 27.4875 10.0044
107 2 3.9969 27.5759 10.2212
108 2 8.08688 27.8034 10.1362
109 2 11.8551 27.7371 10.2032
110 2 15.8084 27.5691 9.86085
111 2 19.7604 27.7687 10.0829
112 2 23.6641 27.7724 9.98468
113 2 27.6933 27.7179 10.1989
114 2 31.844 27.6951 10.114
115 2 35.6338 27.7293 10.0718
116 2 39.6864 27.6998 10.0274
117 2 43.6548 27.5496 9.83171
118 2 47.6978 27.7121 9.93849
119 2 51.6187 27.6355 10.1651
120 2 55.648 27.4347 9.949
121 2 0.394421 31.5991 10.1236
122 2 4.0689 31.7794 10.1351
123 2 8.04675 31.5057 10.1092
124 2 12.1032 31.5694 10.1925
125 2 15.9023 31.5661 10.132
126 2 19.7904 31.6322 9.96523
127 2 23.8965 31.7137 10.0825
128 2 27.9832 31.6664 9.9945
129 2 31.7327 31.7611 10.0619
130 2 35.8346 31.5498 10.0805
131 2 39.9613 31.5346 10.0286
132 2 43.7957 31.394 9.8511
133 2 47.5094 31.6572 10.0837
134 2 51.493 31.5318 10.1258
135 2 55.3633 31.2821 10.078
136 2 59.302 35.6375 10.1192
137 2 4.08391 35.5304 10.1517
138 2 7.93106 35.4011 10.2033
139 2 11.9232 35.6276 10.092
140 2 15.9578 35.563 10.1785
141 2 19.8585 35.6667 10.2428
142 2 24.0539 35.6365 10.0878
143 2 27.8772 35.6196 9.99947
144 2 31.92 35.6303 10.019
145 2 35.7 35.4581 10.0517
146 2 39.8943 35.4914 10.1074
147 2 43.7048 35.5044 10.1675
148 2 47.6475 35.4634 10.1062
149 2 51.5251 35.513 10.0207
150 2 55.3941 35.5571 10.063
151 2 59.4464 39.5758 9.98339
152 2 4.17458 39.4717 10.1263
153 2 8.086 39.6349 10.0308
154 2 12.1139 39.5966 9.98095
155 2 15.8592 39.4591 10.0407
156 2 19.9401 39.5232 10.1813
157 2 24.1003 39.6058 10.0385
158 2 28.1081 39.4326 9.93058
159 2 31.9096 39.4564 9.94125
160 2 35.9237 39.4513 10.0924
161 2 39.8475 39.5138 10.2437
162 2 43.7464 39.3595 10.1097
163 2 47.5331 39.4475 10.0226
164 2 51.4498 39.4222 9.98392
165 2 55.3336 39.6534 10.0637
166 2 59.3854 43.3157 10.0524
167 2 4.02808 43.3082 10.0573
168 2 8.06756 43.6206 10.0572
169 2 12.2227 43.4396 10.0119
170 2 15.969 43.5128 10.0665
171 2 20.0008 43.5718 10.086
172 2 24.0312 43.416 10.2401
173 2 28.0333 43.4391 9.91036
174 2 31.9044 43.3496 10.0322
175 2 35.8233 43.5224 9.91266
176 2 39.6861 43.5232 10.2618
177 2 43.5173 43.5403 10.0768
178 2 47.4985 43.472 10.0798
179 2 51.4231 43.5349 10.0161
180 2 55.4703 43.5294 10.0769
181 2 59.5426 47.4723 10.0207
182 2 4.32686 47.2864 10.0798
183 2 7.98931 47.5436 9.97818
184 2 11.8911 47.5247 10.0122
185 2 15.9106 47.3883 10.0489
186 2 19.9931 47.5238 10.1767
187 2 23.8672 47.355 10.0865
188 2 27.725 47.6271 10.0463
189 2 31.777 47.5145 10.0262
190 2 35.7373 47.5466 10.0223
191 2 39.6708 47.3699 9.98209
192 2 43.6085 47.3816 9.87377
193 2 47.3453 47.4109 10.0656
194 2 51.674 47.2468 9.90137
195 2 55.4245 47.5413 10.134
196 2 0.13819 51.3064 10.1688
197 2 3.84865 51.1486 10.2094
198 2 7.96177 51.381 9.8389
199 2 12.0102 51.3631 9.80111
200 2 15.9007 51.4942 10.1473
201 2 20.0465 51.5003 10.1618
202 2 23.9609 51.532 9.96146
203 2 27.7963 51.3808 10.1015
204 2 31.743 51.5174 10.0075
205 2 35.5527 51.5282 10.1531
206 2 39.5511 51.2315 10.0614
207 2 43.5118 51.3286 9.97517
208 2 47.5513 51.3227 9.95124
209 2 51.3141 51.3686 9.9175
210 2 55.4104 51.4521 10.0194
211 2 0.0780165 55.4068 10.0833
212 2 3.97322 55.305 10.2535
213 2 8.04608 55.5083 10.1713
214 2 11.9845 55.2402 10.1133
215 2 15.8366 55.4059 10.2561
216 2 19.7586 55.4526 10.163
217 2 23.8335 55.3319 9.84281
218 2 27.7494 55.4305 9.99576
219 2 31.8323 55.4558 10.1446
220 2 35.7567 55.6044 10.0404
221 2 39.6075 55.3973 10.0786
222 2 43.8283 55.4241 9.95532
223 2 47.6886 55.2276 9.88166
224 2 51.4711 55.1964 9.87627
225 2 55.6729 55.2826 10.1194
226 2 0.256217 59.2581 13.9598
227 2 4.05966 59.2966 13.9559
228 2 8.13076 59.5084 14.1368
229 2 11.98 59.5046 14.0035
230 2 15.9869 0.145678 13.9199
231 2 19.7548 -0.104924 14.1771
232 2 23.919 -0.0605723 14.0434
233 2 27.8418 59.4951 14.0515
234 2 31.6971 59.4098 14.1083
235 2 35.6929 59.5267 14.0487
236 2 39.5829 0.0285497 13.986
237 2 43.4101 59.3638 13.9716
238 2 47.5292 0.200931 13.9637
239 2 51.7437 -0.357298 13.757
240 2 55.3609 59.2391 14.1245
241 2 0.0728733 3.92947 14.1202
242 2 4.1176 3.91634 14.042
243 2 7.86976 4.3008 14.0476
244 2 12.0465 4.05121 14.0371
245 2 16.0638 4.03168 13.8996
246 2 20.0716 3.78909 14.0237
247 2 23.8114 4.04999 14.1335
248 2 27.7717 4.08173 14.0905
249 2 31.8995 4.15565 13.9602
250 2 35.8299 4.09576 13.9118
251 2 39.6384 3.82874 13.9859
252 2 43.8433 3.78359 13.9268
253 2 47.4494 3.96323 13.9928
254 2 51.577 3.79779 13.9635
255 2 55.633 3.81776 13.9762
256 2 0.173495 7.89721 14.1526
257 2 4.14608 7.96672 14.012
258 2 8.08285 8.11967 13.8977
259 2 12.0377 8.01297 14.0526
260 2 16.0963 7.97867 13.8784
261 2 20.1157 8.06286 13.9275
262 2 24.0611 7.82756 14.0685
263 2 27.8245 8.06643 14.0578
264 2 31.8507 7.9135 13.9236
265 2 35.9287 8.05821 13.8462
266 2 39.6218 7.95662 14.0889
267 2 43.4683 7.89896 14.0368
268 2 47.4805 7.77978 14.2154
269 2 51.6802 7.87746 14.0187
270 2 55.4043 7.701 13.9719
271 2 -0.0062888 11.8927 13.9621
272 2 4.03294 11.8948 14.135
273 2 8.04973 11.9174 14.1962
274 2 12.1103 11.7077 13.9791
275 2 16.0756 11.867 14.069
276 2 19.8604 11.9198 13.9249
277 2 24.1388 11.8174 13.9999
278 2 27.9729 11.8913 13.9217
279 2 31.9354 11.8712 13.976
280 2 35.9888 11.8407 13.5803
281 2 39.8747 11.7921 13.9379
282 2 43.8321 11.8207 13.9523
283 2 47.6179 11.6842 14.0819
284 2 51.536 11.4904 14.0242
285 2 55.5034 11.7733 14.1232
286 2 0.184513 15.8308 14.3511
287 2 4.04099 15.6722 13.9561
288 2 8.06657 15.829 14.0671
289 2 12.0332 15.7864 14.0071
290 2 16.1121 15.7675 14.0129
291 2 20.0798 15.7733 13.861
292 2 23.8919 15.7593 13.9944
293 2 27.8703 15.9124 14.0808
294 2 31.9588 15.7686 14.1591
295 2 35.914 15.9482 14.1436
296 2 39.7813 15.7178 14.1547
297 2 43.9267 15.7337 14.1776
298 2 47.9231 15.6034 14.1558
299 2 51.571 15.6341 14.2193
300 2 55.6109 15.7352 14.016
301 2 -0.0188732 19.5234 14.2318
302 2 3.95582 19.7163 14.0514
303 2 8.07188 19.639 14.1237
304 2 11.7822 19.8395 14.0306
305 2 15.8617 19.5972 14.024
306 2 19.9564 19.4841 13.897
307 2 23.895 19.649 14.0005
308 2 27.8637 19.9465 13.8231
309 2 31.7653 19.8213 14.0373
310 2 35.7733 19.8883 14.0624
311 2 39.9638 19.8249 13.909
312 2 43.7762 19.5769 14.0632
313 2 47.5102 19.696 13.7577
314 2 51.5553 19.3954 14.0247
315 2 55.5263 19.6717 14.0742
316 2 -0.105583 23.7106 14.1028
317 2 4.16924 23.8486 14.0412
318 2 7.96721 23.7929 14.0794
319 2 12.0441 23.6855 14.0898
320 2 16.1233 23.7098 14.0743
321 2 19.9641 23.6931 14.0195
322 2 23.7238 23.6618 13.8659
323 2 27.6048 23.8331 13.9963
324 2 31.5966 23.8146 14.1098
325 2 35.727 23.8854 14.187
326 2 39.5947 23.7576 14.2165
327 2 43.6024 23.7615 13.8232
328 2 47.5453 23.5895 13.9381
329 2 51.7048 23.7382 13.9682
330 2 55.4883 23.6416 13.9835
331 2 0.0317463 27.5591 14.0902
332 2 4.0324 27.7221 14.0275
333 2 8.05226 27.639 14.0521
334 2 11.9463 27.6148 13.8725
335 2 15.8997 27.5313 14.1196
336 2 19.7817 27.8814 14.0515
337 2 23.578 28.0174 13.9945
338 2 27.7473 27.6429 14.1697
339 2 31.651 27.7186 14.2754
340 2 35.8083 27.6582 14.0535
341 2 39.5494 27.7727 14.092
342 2 43.7857 27.6317 13.9555
343 2 47.6412 27.7469 13.9754
344 2 51.6416 27.6924 14.0744
345 2 55.5519 27.5579 14.0397
346 2 -0.0160649 31.6839 14.1054
347 2 4.11476 31.5528 13.9292
348 2 7.98822 31.606 14.1661
349 2 11.9768 31.6539 14.1294
350 2 15.8549 31.6247 14.1363
351 2 19.9416 31.8319 14.0251
352 2 23.9854 31.7627 13.9214
353 2 27.6145 31.5182 14.0122
354 2 31.7567 31.555 14.0062
355 2 35.6778 31.4934 14.1462
356 2 39.7845 31.6446 13.9583
357 2 43.5501 31.408 13.9759
358 2 47.408 31.5597 14.0063
359 2 51.5968 31.4623 14.2058
360 2 55.5862 31.637 13.9453
361 2 0.0702508 35.7201 13.9209
362 2 3.85416 35.6507 14.1538
363 2 7.89645 35.6901 13.9568
364 2 12.0959 35.6204 13.9374
365 2 16.1605 35.7073 14.0797
366 2 19.8668 35.649 14.1028
367 2 23.8639 35.6874 14.0888
368 2 28.0248 35.5546 14.2507
369 2 31.9014 35.8047 13.9398
370 2 35.8795 35.5525 14.1565
371 2 39.6958 35.511 14.0079
372 2 43.5803 35.5141 14.0887
373 2 47.5462 35.6032 14.1686
374 2 51.3336 35.4825 14.103
375 2 55.4887 35.6109 13.8036
376 2 0.126004 39.6749 13.956
377 2 4.05837 39.5176 13.8471
378 2 8.29404 39.3408 13.9155
379 2 12.0928 39.7073 14.0329
380 2 15.9427 39.6924 14.1025
381 2 19.9422 39.6195 13.9491
382 2 23.9527 39.5448 14.111
383 2 27.6863 39.3991 14.0782
384 2 31.8072 39.6637 13.9172
385 2 35.66 39.5733 14.0743
386 2 39.7361 39.5089 14.4154
387 2 43.6898 39.6009 14.1005
388 2 47.5308 39.436 14.2615
389 2 51.4305 39.5602 14.0706
390 2 55.4067 39.6128 13.9766
391 2 0.142761 43.5604 13.9213
392 2 3.93694 43.4523 14.139
393 2 8.0401 43.5711 14.0102
394 2 11.9578 43.3879 14.2254
395 2 15.9613 43.6916 14.0302
396 2 19.8144 43.4632 14.1066
397 2 24.0224 43.3679 13.8463
398 2 28.0421 43.7685 13.8794
399 2 31.8258 43.6287 13.6831
400 2 35.7397 43.5999 13.9597
401 2 39.714 43.551 14.1237
402 2 43.6609 43.6123 14.2005
403 2 47.4578 43.6004 13.9185
404 2 51.2567 43.4003 13.785
405 2 55.4858 43.4938 14.1182
406 2 0.0784763 47.254 13.7932
407 2 4.2354 47.4405 13.9686
408 2 8.17661 47.6017 13.874
409 2 11.8411 47.2 14.0018
410 2 16.1425 47.6024 13.9258
411 2 19.9447 47.5313 13.968
412 2 23.8352 47.3702 14.1859
413 2 27.7977 47.6987 14.0206
414 2 31.5526 47.4684 13.9363
415 2 35.7927 47.6085 13.9535
416 2 39.5131 47.5533 14.0007
417 2 43.6615 47.5596 14.2555
418 2 47.7854 47.5474 13.9797
419 2 51.5674 47.4389 14.2015
420 2 55.4103 47.4647 14.2148
421 2 0.184493 51.3673 14.1239
422 2 4.09825 51.601 14.0519
423 2 8.08201 51.559 13.9667
424 2 11.9552 51.3356 14.025
425 2 15.7328 51.2862 14.0877
426 2 19.9056 51.5562 13.9193
427 2 23.9016 51.6663 13.9454
428 2 27.7209 51.4076 13.985
429 2 31.685 51.3329 14.0741
430 2 35.786 51.3843 14.0315
431 2 39.884 51.5872 13.9643
432 2 43.7151 51.4754 14.0017
433 2 47.7023 51.625 14.1169
434 2 51.4183 51.5446 14.0455
435 2 55.5834 51.4297 14.0597
436 2 0.204941 55.2734 14.0596
437 2 4.22797 55.3678 14.3344
438 2 8.18935 55.3806 14.2183
439 2 12.1691 55.4681 14.045
440 2 16.0007 55.3318 14.1317
441 2 19.9305 55.4203 14.2323
442 2 23.8254 55.4958 13.9196
443 2 27.6974 55.3756 13.8878
444 2 31.5358 55.3978 13.9772
445 2 35.6538 55.5237 13.9693
446 2 39.7893 55.5459 13.9896
447 2 43.5975 55.3599 14.1259
448 2 47.5215 55.3721 14.0727
449 2 51.7432 55.3959 13.8122
450 2 55.7063 55.2863 13.9341
451 2 0.0509563 0.031096 18.0888
452 2 4.07169 0.0858802 18.0849
453 2 8.17413 59.3074 18.033
454 2 11.9745 59.5022 17.774
455 2 15.9783 59.3699 17.9028
456 2 19.7468 59.6198 17.9482
457 2 23.9972 59.5035 17.9694
458 2 27.693 -0.119039 18.0071
459 2 31.7598 59.4815 17.9971
460 2 35.7731 59.4102 18.078
461 2 39.6665 0.153375 17.9946
462 2 43.5261 59.5235 18.0448
463 2 47.6844 0.183464 17.8012
464 2 51.68 59.3775 18.0055
465 2 55.501 59.3461 18.0927
466 2 0.277619 3.79297 17.9077
467 2 4.2962 3.86195 18.1522
468 2 8.24736 4.10425 17.9816
469 2 12.0964 4.00362 18.0001
470 2 16.0447 4.01381 17.9777
471 2 19.8424 4.19988 18.1117
472 2 23.8091 4.01139 17.9961
473 2 27.7756 3.98309 18.0524
474 2 31.5628 3.93863 18.1298
475 2 35.6874 4.06389 18.1682
476 2 39.6034 4.13842 18.0385
477 2 43.6329 3.97096 18.1135
478 2 47.4768 4.05097 18.0301
479 2 51.4467 3.85639 17.9143
480 2 55.5116 3.85226 17.857
481 2 0.182674 8.04734 17.996
482 2 3.99362 7.89674 18.0834
483 2 8.19032 8.1245 17.8664
484 2 12.0663 7.90108 17.9217
485 2 15.9593 8.02789 17.821
486 2 19.9464 7.97253 17.8335
487 2 23.9134 8.02916 17.9123
488 2 27.6784 7.88129 17.9562
489 2 31.8362 8.08375 18.0401
490 2 35.7094 7.99048 17.862
491 2 39.7944 7.95096 17.889
492 2 43.6744 7.79156 18.0555
493 2 47.7856 7.76197 17.9141
494 2 51.3379 7.73111 18.0116
495 2 55.6554 7.81029 18.0137
496 2 -0.0277777 12.0617 18.141
497 2 4.01749 11.8387 18.1067
498 2 8.17096 11.978 17.9373
499 2 11.9743 12.0314 17.9156
500 2 16.1162 11.8883 18.0534
501 2 19.9124 12.0104 18.1685
502 2 23.8815 11.9883 18.2357
503 2 27.8811 11.8772 18.077
504 2 31.674 11.9207 18.1386
505 2 35.6514 11.786 18.1524
506 2 39.6924 12.0592 18.0809
507 2 43.5285 11.945 17.9526
508 2 47.4909 11.7562 17.8619
509 2 51.6187 11.7027 18.3271
510 2 55.4535 11.7879 18.2541
511 2 59.4479 15.8662 18.1367
512 2 4.15976 15.8448 18.0684
513 2 7.91957 15.6864 18.1586
514 2 11.9075 15.7077 17.8918
515 2 15.8927 15.9105 17.9605
516 2 20.1323 15.8553 18.0361
517 2 24.0005 15.8941 17.9775
518 2 27.9559 15.8524 18.1887
519 2 31.8819 15.7547 18.1655
520 2 35.8222 15.9325 17.9719
521 2 39.7095 15.8111 17.9971
522 2 43.5326 15.8889 18.0172
523 2 47.7386 15.6743 17.9447
524 2 51.5302 15.7393 18.0052
525 2 55.4213 15.7019 18.1336
526 2 -0.090205 19.9365 18.0748
527 2 3.99344 19.6284 18.0731
528 2 7.95525 19.8485 18.1582
529 2 11.7706 19.7339 17.927
530 2 15.8694 20.0882 17.9195
531 2 19.6984 19.8652 17.9859
532 2 23.7882 19.7169 18.054
533 2 27.6082 19.8271 18.0386
534 2 31.8365 19.7166 18.1222
535 2 35.7603 20.1688 17.8714
536 2 39.8779 19.7924 17.7754
537 2 43.8528 19.7436 18.0466
538 2 47.7001 19.8296 17.8398
539 2 51.4368 19.9515 17.9242
540 2 55.3993 19.599 18.0702
541 2 0.22098 23.6675 18.0508
542 2 4.17606 23.5727 18.0023
543 2 7.9955 23.7725 18.2287
544 2 11.7963 23.6705 18.1864
545 2 15.744 23.7931 18.0629
546 2 19.7991 23.6177 17.9842
547 2 23.8201 23.555 18.0676
548 2 27.637 23.7384 18.0955
549 2 31.7766 23.8247 17.9611
550 2 35.7955 23.7041 18.0649
551 2 39.7627 23.6474 17.988
552 2 43.7517 23.7387 18.0095
553 2 47.7516 23.8073 17.8173
554 2 51.5762 23.6548 18.0282
555 2 55.4221 23.5497 18.1452
556 2 -0.0139351 27.609 18.0303
557 2 3.98854 27.6874 18.1326
558 2 7.98034 27.6531 17.9558
559 2 11.824 27.8342 18.1325
560 2 15.7197 27.8247 18.208
561 2 19.9434 27.7039 17.942
562 2 23.795 27.7475 17.8625
563 2 27.6877 27.7959 17.8675
564 2 31.6354 27.5837 18.0721
565 2 35.6002 27.7024 18.1426
566 2 39.5808 27.7374 18.2254
567 2 43.6159 27.7684 17.8528
568 2 47.7926 27.7582 17.9865
569 2 51.7208 27.7129 18.0719
570 2 55.4219 27.6775 18.1683
571 2 0.0371879 31.7675 18.1925
572 2 3.85935 31.639 17.8934
573 2 8.13493 31.7479 18.112
574 2 11.9748 31.7028 18.0542
575 2 15.8275 31.7701 18.0868
576 2 19.9521 31.6927 18.0625
577 2 23.8681 31.7126 17.9476
578 2 27.7522 31.6793 18.0381
579 2 31.7526 31.5004 18.1721
580 2 35.7894 31.5912 18.1361
581 2 39.7055 31.6636 18.0248
582 2 43.7941 31.6682 17.9832
583 2 47.5708 31.8537 17.9958
584 2 51.5538 31.7155 18.0194
585 2 55.4532 31.877 17.7461
586 2 -0.193594 35.8695 17.9088
587 2 4.10996 35.5319 18.0335
588 2 8.07498 35.6034 17.8511
589 2 11.9407 35.5651 18.1672
590 2 15.9994 35.3756 18.1135
591 2 19.9554 35.7931 17.9604
592 2 23.7597 35.5963 18.0966
593 2 27.7466 35.6121 18.1104
594 2 31.6026 35.5805 17.8973
595 2 35.5981 35.4148 18.1935
596 2 39.6463 35.7171 18.0975
597 2 43.687 35.5066 18.2021
598 2 47.3733 35.6904 18.0777
599 2 51.5881 35.7776 17.8902
600 2 55.3886 35.7797 17.922
601 2 0.172872 39.6416 17.947
602 2 4.08245 39.5632 17.9457
603 2 8.05509 39.3917 17.914
604 2 12.0878 39.3387 18.0113
605 2 16.0652 39.4873 18.0212
606 2 19.956 39.5705 17.9258
607 2 24.0676 39.6629 18.1551
608 2 27.9263 39.6548 17.8918
609 2 31.6779 39.6791 17.7223
610 2 35.5546 39.5483 17.9377
611 2 39.626 39.7516 18.2131
612 2 43.63 39.6842 18.0115
613 2 47.4629 39.7381 18.0817
614 2 51.5349 39.6718 17.887
615 2 55.4586 39.7549 17.9283
616 2 0.0404145 43.6957 17.889
617 2 4.11964 43.4616 17.9601
618 2 7.91061 43.5899 18.0943
619 2 11.9201 43.5209 18.016
620 2 15.7857 43.5298 17.882
621 2 19.8743 43.5389 17.9719
622 2 23.6967 43.5586 17.9526
623 2 27.8147 43.5567 17.9485
624 2 31.8195 43.5856 17.8795
625 2 35.7497 43.6949 17.9441
626 2 39.5866 43.3825 18.0744
627 2 43.5024 43.7358 18.0993
628 2 47.5996 43.6499 18.1426
629 2 51.3184 43.5341 18.1564
630 2 55.4499 43.6664 18.0292
631 2 0.00808596 47.5273 18.0237
632 2 3.87229 47.668 18.0505
633 2 7.76704 47.3676 17.9935
634 2 11.8441 47.6237 17.8272
635 2 15.7947 47.4704 17.9792
636 2 19.8937 47.6694 18.003
637 2 23.6156 47.5243 18.0485
638 2 27.5727 47.419 17.9182
639 2 31.7772 47.4909 17.8164
640 2 35.5645 47.6935 17.9251
641 2 39.4794 47.5515 18.0925
642 2 43.409 47.342 17.9343
643 2 47.2582 47.5106 18.0953
644 2 51.4748 47.5738 18.1528
645 2 55.2658 47.4801 18.0159
646 2 0.160727 51.5653 18.0794
647 2 4.12495 51.4286 17.9467
648 2 7.92144 51.6149 17.9997
649 2 11.9033 51.4651 17.8332
650 2 15.9869 51.3328 18.0007
651 2 19.8538 51.7064 18.1266
652 2 23.8099 51.4947 18.1103
653 2 27.8478 51.4359 17.9961
654 2 31.7317 51.6702 17.9059
655 2 35.765 51.6664 17.8995
656 2 39.4534 51.5104 17.9279
657 2 43.4146 51.5223 18.0585
658 2 47.6175 51.6063 17.9722
659 2 51.4752 51.4276 18.1023
660 2 55.5424 51.4406 18.171
661 2 0.125666 55.3711 18.0753
662 2 4.07734 55.419 18.133
663 2 7.9879 55.6463 17.9854
664 2 12.1118 55.4705 17.937
665 2 16.0412 55.409 18.0031
666 2 19.8372 55.5992 18.047
667 2 23.7296 55.2014 18.1605
668 2 27.7781 55.3789 17.9569
669 2 31.6889 55.5041 17.8037
670 2 35.5708 55.428 17.8196
671 2 39.5532 55.5806 17.9163
672 2 43.8694 55.5215 18.1895
673 2 47.6868 55.6835 17.8147
674 2 51.7386 55.3778 17.8531
675 2 55.5797 55.2986 17.9143
676 2 59.4184 59.3726 22.0388
677 2 4.02145 9.01814e-05 21.915
678 2 8.13661 0.149062 21.9783
679 2 12.0493 0.109443 21.9424
680 2 15.8614 59.357 22.1177
681 2 20.0747 0.115563 21.99
682 2 23.7189 59.4613 22.019
683 2 27.6726 0.0779104 21.9486
684 2 31.4158 0.100584 22.1036
685 2 35.5506 -0.252826 22.0187
686 2 39.6849 59.5168 22.1398
687 2 43.7661 0.168947 22.1446
688 2 47.4559 -0.0701127 21.9623
689 2 51.4841 59.5476 21.9401
690 2 55.5516 0.0042123 22.0269
691 2 -0.0199652 3.98174 21.949
692 2 3.93702 4.06451 22.0867
693 2 7.96358 4.14676 22.1227
694 2 12.026 3.90681 21.9975
695 2 16.0379 4.18722 22.1322
696 2 19.6784 3.9405 22.0102
697 2 23.7463 4.18357 21.8325
698 2 27.7995 4.13708 22.0857
699 2 31.6744 4.06248 22.1354
700 2 35.5124 4.16416 22.0617
701 2 39.4151 4.03129 22.1105
702 2 43.45 3.99056 22.1991
703 2 47.468 3.92027 21.9334
704 2 51.779 3.86528 21.9972
705 2 55.6807 4.00531 22.0463
706 2 -0.000628545 7.77483 22.1274
707 2 4.18822 8.05334 21.9098
708 2 8.13556 8.04983 21.9531
709 2 12.1215 8.04822 21.987
710 2 16.0263 8.02607 21.8019
711 2 19.9795 7.92608 22.0174
712 2 23.8215 8.05517 21.9883
713 2 27.867 7.90755 21.9413
714 2 31.6835 7.89134 22.0649
715 2 35.7692 8.10739 21.9532
716 2 39.5318 8.05182 21.9165
717 2 43.5301 8.08477 21.967
718 2 47.3864 7.84396 22.0711
719 2 51.3663 7.83511 22.0021
720 2 55.2262 7.79891 22.1284
721 2 59.251 11.9023 22.1261
722 2 3.93995 11.8157 22.0691
723 2 7.95472 11.9155 21.9799
724 2 11.9575 11.8503 21.9399
725 2 15.8683 11.9798 22.0737
726 2 19.8658 11.7432 22.0684
727 2 23.8562 12.0768 22.0966
728 2 27.7487 11.9549 22.0361
729 2 31.7124 11.8 22.1004
730 2 35.6847 11.9211 22.1753
731 2 39.6164 11.9048 22.107
732 2 43.5758 11.8918 22.0985
733 2 47.5574 11.7181 21.8264
734 2 51.2896 11.919 21.8376
735 2 55.3236 11.847 22.0677
736 2 -0.00113443 15.8198 22.0901
737 2 3.99633 15.7912 22.0586
738 2 8.0112 15.8229 22.1491
739 2 11.9943 15.7302 22.014
740 2 15.897 15.7427 22.0442
741 2 19.7756 15.8377 21.936
742 2 23.7704 15.9023 22.0176
743 2 27.7999 15.943 22.1482
744 2 31.8187 16.0177 22.0367
745 2 35.7017 16.0123 21.9721
746 2 39.4823 15.8938 22.004
747 2 43.6561 15.8871 22.1195
748 2 47.705 15.8038 22.0549
749 2 51.5752 15.9744 22.0027
750 2 55.4877 15.9727 22.0716
751 2 0.0929413 19.927 22.0079
752 2 4.03868 19.8319 22.0979
753 2 8.01602 19.843 21.9733
754 2 11.7255 19.698 21.9923
755 2 15.8616 19.6011 21.8344
756 2 19.7477 19.7494 21.9333
757 2 23.7194 19.8339 21.9134
758 2 27.7712 19.6985 21.9652
759 2 31.7619 19.9487 21.991
760 2 35.9161 19.8839 22.0921
761 2 39.6653 19.7658 22.1156
762 2 43.7203 19.7732 22.0545
763 2 47.4856 19.937 21.8977
764 2 51.3346 19.9262 21.8925
765 2 55.3635 19.7372 22.0889
766 2 -0.0218202 23.7201 22.1549
767 2 4.01771 23.7816 22.0074
768 2 7.83275 23.8213 22.0689
769 2 11.9066 23.6904 22.0825
770 2 15.8471 23.7498 22.0678
771 2 19.8098 23.8596 21.981
772 2 23.6265 23.7351 22.1132
773 2 27.7821 23.7112 21.86
774 2 31.7183 23.9211 21.966
775 2 35.7427 23.8901 22.1758
776 2 39.9135 23.5778 21.9165
777 2 43.5445 23.8035 22.1536
778 2 47.4707 23.8134 21.8552
779 2 51.5572 23.6941 22.0688
780 2 55.3212 23.7583 21.9562
781 2 59.1928 27.7061 21.8233
782 2 4.06817 27.8362 22.0932
783 2 8.02804 27.9073 21.9624
784 2 12.023 28.0252 22.2012
785 2 15.8588 27.8439 21.9047
786 2 20.016 27.7409 21.8513
787 2 23.8112 27.8469 22.1091
788 2 27.6833 27.7245 21.9816
789 2 31.611 27.6305 21.9727
790 2 35.6538 27.725 22.0409
791 2 39.549 27.673 22.0631
792 2 43.5117 27.849 21.8166
793 2 47.5561 27.6829 21.774
794 2 51.572 27.795 22.1637
795 2 55.5046 27.7871 21.9341
796 2 59.4139 31.7949 21.9682
797 2 3.98196 31.5413 22.0055
798 2 7.95806 31.8174 22.005
799 2 12.0432 31.7458 22.0796
800 2 16.0666 31.6459 21.8495
801 2 19.8531 31.5254 22.0841
802 2 23.7591 31.6295 22.0375
803 2 27.8649 31.7476 21.9173
804 2 31.6071 31.825 22.1831
805 2 35.6232 31.6484 22.1145
806 2 39.7204 31.8269 22.1213
807 2 43.5694 31.5528 21.9845
808 2 47.5705 31.6949 22.0888
809 2 51.4959 31.7443 21.8713
810 2 55.5062 31.6494 21.8693
811 2 0.238733 35.7612 21.8806
812 2 4.07723 35.4751 21.8617
813 2 7.96984 35.7003 22.1597
814 2 12.0598 35.4536 22.0593
815 2 16.0116 35.6475 22.1517
816 2 19.8172 35.6379 21.9913
817 2 23.8181 35.7235 22.0877
818 2 27.5803 35.6627 21.8941
819 2 31.6952 35.7742 21.9166
820 2 35.4526 35.6874 21.9084
821 2 39.4541 35.7581 22.1266
822 2 43.6267 35.736 22.0371
823 2 47.7097 35.6662 22.1342
824 2 51.4001 35.7257 21.9257
825 2 55.5014 35.767 21.9963
826 2 0.300046 39.5024 21.9001
827 2 4.13755 39.6255 22.08
828 2 7.80363 39.4853 21.8774
829 2 11.9927 39.6323 22.09
830 2 15.7437 39.8222 22.0162
831 2 19.6416 39.8738 21.6609
832 2 23.6374 39.7238 21.7899
833 2 27.774 39.7816 21.7836
834 2 31.7971 39.5382 22.031
835 2 35.5032 39.6116 21.6245
836 2 39.5285 39.6466 22.0551
837 2 43.503 39.6314 22.2282
838 2 47.5082 39.7263 22.2201
839 2 51.6515 39.7641 22.0726
840 2 55.5622 39.6794 21.9951
841 2 -0.0973403 43.6575 21.8833
842 2 3.9588 43.5279 22.0725
843 2 7.98841 43.5522 22.0605
844 2 11.8842 43.6387 22.0962
845 2 15.8105 43.7281 21.6536
846 2 19.7019 43.8371 22.0391
847 2 23.667 43.6188 22.0971
848 2 27.72 43.6238 21.9316
849 2 31.6038 43.5803 21.9743
850 2 35.4345 43.5391 22.0316
851 2 39.7414 43.6535 22.0407
852 2 43.3083 43.601 22.129
853 2 47.4647 43.5612 22.1286
854 2 51.4949 43.6561 22.1266
855 2 55.4272 43.6191 21.9011
856 2 -0.0394424 47.6253 22.0254
857 2 3.78018 47.6394 22.0278
858 2 7.8876 47.3679 22.0169
859 2 11.7525 47.5701 21.9441
860 2 15.7806 47.5961 21.9679
861 2 19.7284 47.5083 21.9606
862 2 23.8645 47.5604 21.9081
863 2 27.6889 47.5557 21.8009
864 2 31.4402 47.5183 21.8895
865 2 35.4678 47.5984 22.0053
866 2 39.5499 47.7106 22.0171
867 2 43.5931 47.6615 22.1817
868 2 47.5264 47.7812 21.8959
869 2 51.49 47.5841 22.025
870 2 55.592 47.5656 22.1452
871 2 -0.0765928 51.4995 21.904
872 2 3.8145 51.3859 21.8744
873 2 7.86413 51.4333 21.9459
874 2 11.7997 51.5636 21.8799
875 2 15.8432 51.6314 22.028
876 2 19.7566 51.5963 21.8681
877 2 23.8685 51.5455 22.0698
878 2 27.6917 51.7187 22.0105
879 2 31.4412 51.6326 21.9146
880 2 35.5141 51.6412 22.0223
881 2 39.5404 51.665 21.8219
882 2 43.7064 51.4231 21.8067
883 2 47.4369 51.5359 21.936
884 2 51.402 51.4404 22.1503
885 2 55.5089 51.4547 21.9205
886 2 0.198519 55.4304 21.9352
887 2 4.10608 55.3344 22.0131
888 2 7.81125 55.2414 22.0415
889 2 11.8775 55.3502 21.846
890 2 15.7099 55.5326 22.0032
891 2 20.017 55.6596 21.9284
892 2 23.8714 55.504 22.0408
893 2 27.8628 55.3519 22.0157
894 2 31.8743 55.4602 22.0978
895 2 35.6653 55.4463 22.1654
896 2 39.6964 55.3769 21.999
897 2 43.6079 55.7314 21.8842
898 2 47.4876 55.5818 21.7897
899 2 51.3628 55.4928 22.0046
900 2 55.2936 55.4458 21.9684
901 2 -0.0802698 0.0815902 26.0234
902 2 3.97473 -0.0511853 25.9102
903 2 7.78796 59.4197 26.0734
904 2 11.7323 0.0777304 25.861
905 2 15.7546 0.211339 25.8649
906 2 19.5333 -0.0903163 25.9819
907 2 23.9638 0.131867 25.9858
908 2 27.7036 0.104546 25.912
909 2 32.0531 59.4179 26.0406
910 2 35.5305 0.157158 26.082
911 2 39.5836 0.134028 26.2109
912 2 43.5802 0.175612 26.028
913 2 47.5774 -0.0133443 25.9055
914 2 51.6214 59.4295 25.9114
915 2 55.3507 59.1651 26.1032
916 2 0.243125 3.80986 25.8707
917 2 4.02158 3.90661 25.8624
918 2 8.0613 4.1026 25.9298
919 2 12.0287 4.13753 26.2453
920 2 15.9054 4.19299 25.9812
921 2 19.8775 4.00487 25.9666
922 2 23.883 4.03923 26.1165
923 2 27.6662 3.99279 25.9041
924 2 31.7415 3.79133 26.0753
925 2 35.5574 3.95464 25.9857
926 2 39.7784 3.85379 26.0208
927 2 43.5837 4.20029 25.9315
928 2 47.4526 3.83111 26.127
929 2 51.317 4.05524 26.1138
930 2 55.207 3.82847 25.9344
931 2 59.2229 7.96247 26.0114
932 2 3.89857 7.90606 25.8554
933 2 7.73986 8.00452 25.9205
934 2 11.9369 7.92078 25.9496
935 2 15.7989 8.00384 25.9838
936 2 19.9266 7.85755 26.0228
937 2 23.9377 7.99838 26.0733
938 2 27.7521 8.02555 26.1052
939 2 31.7752 8.14903 25.9953
940 2 35.747 8.08769 26.0066
941 2 39.6384 7.90055 25.9774
942 2 43.4994 7.95587 25.8587
943 2 47.3485 7.94039 25.978
944 2 51.326 7.80928 25.9459
945 2 55.2757 8.0064 26.0172
946 2 -0.00294694 12.0304 25.876
947 2 3.90148 11.9682 26.0543
948 2 7.96067 11.7654 26.1265
949 2 11.8168 11.8625 25.9655
950 2 15.8701 11.8916 26.1346
951 2 19.9364 11.921 26.1129
952 2 23.681 11.9784 25.9484
953 2 27.8226 12.1417 25.923
954 2 31.7536 11.8796 26.093
955 2 35.6965 12.0924 26.0292
956 2 39.7343 12.1007 26.011
957 2 43.5668 11.8317 25.7597
958 2 47.4597 11.8799 25.9782
959 2 51.5837 11.7956 25.8714
960 2 55.3324 11.797 26.0187
961 2 59.4396 15.8748 25.9951
962 2 4.10316 15.9728 26.0418
963 2 7.88355 15.8849 26.1147
964 2 11.7058 15.7506 25.8661
965 2 15.7614 16.0217 25.9476
966 2 19.6487 15.8963 25.9625
967 2 23.7331 15.8008 26.0291
968 2 27.7812 16.0234 26.0368
969 2 31.821 15.81 26.0185
970 2 35.5501 15.9464 25.9493
971 2 39.6526 15.874 26.0288
972 2 43.7762 15.9776 26.0147
973 2 47.7434 16.024 25.8555
974 2 51.4029 15.9696 25.9542
975 2 55.3628 15.8389 26.0373
976 2 59.4516 19.7257 26.0877
977 2 4.24132 19.8821 25.9335
978 2 7.90878 19.9277 25.7747
979 2 11.8965 20.0521 25.8407
980 2 15.7089 19.8194 25.9438
981 2 19.6026 19.9319 26.0529
982 2 23.4892 19.6892 26.037
983 2 27.7458 19.7642 25.8849
984 2 31.6786 20.0532 25.8759
985 2 35.5345 19.9331 26.0408
986 2 39.7389 19.6863 26.036
987 2 43.7805 19.9277 25.9677
988 2 47.5043 20.088 25.9117
989 2 51.4598 19.9612 25.9426
990 2 55.4715 19.8207 26.0569
991 2 59.5632 23.8359 25.9986
992 2 3.9141 23.9351 25.8672
993 2 7.94185 23.9329 26.0528
994 2 11.6449 23.9048 25.8099
995 2 15.6775 23.7557 25.8959
996 2 19.7541 23.6744 26.0266
997 2 23.7958 23.8378 26.0087
998 2 27.6267 23.5735 26.0569