ITEM: TIMESTEP
1546400
ITEM: NUMBER OF ATOMS
16875
ITEM: BOX BOUNDS xy xz yz pp pp pp
0.0000000000000000e+00 5.9369999999999997e+01 0.0000000000000000e+00
0.0000000000000000e+00 5.9369999999999997e+01 0.0000000000000000e+00
2.9300794475265590e-01 6.0073411055250574e+01 0.0000000000000000e+00
ITEM: ATOMS id type x y z
1 2 59.5525 59.2797 10.1441
2 2 4.10089 59.2009 10.0748
3 2 8.04182 59.3989 10.2694
4 2 12.0426 59.4127 10.1145
5 2 16.1599 -0.0607451 9.95347
6 2 19.8302 59.2906 10.0028
7 2 23.7246 59.1917 9.94384
8 2 27.8344 59.2167 9.96501
9 2 31.9703 59.2792 10.1194
10 2 35.6703 59.2216 9.99867
11 2 39.5695 59.2444 10.2796
12 2 43.4719 59.3142 9.9932
13 2 47.3745 59.104 10.1375
14 2 51.4613 59.1359 10.0387
15 2 55.4742 59.2086 10.0367
16 2 0.162062 3.9538 10.0132
17 2 4.09702 3.9196 9.83923
18 2 7.87544 3.89485 10.0514
19 2 12.0335 3.72669 9.87053
20 2 16.0395 3.86642 10.0921
21 2 20.0506 3.78629 10.015
22 2 24.0607 3.69027 10.0577
23 2 27.9464 3.83755 10.1599
24 2 31.8045 3.97255 10.0357
25 2 35.7266 3.90336 10.0863
26 2 39.5097 3.87087 10.0568
27 2 43.6747 3.83122 9.96277
28 2 47.5162 3.85538 10.1961
29 2 51.4081 3.82116 10.2025
30 2 55.462 3.9118 9.75984
31 2 0.188908 7.66085 10.0154
32 2 4.12366 7.71299 10.0866
33 2 8.15869 7.7435 10.144
34 2 12.0494 7.81282 10.2135
35 2 15.9845 7.73238 10.0535
36 2 19.8623 7.89012 10.1156
37 2 23.9794 7.69601 10.1224
38 2 27.6968 7.75181 10.0901
39 2 31.6904 7.84083 10.0373
40 2 35.6447 7.67782 10.247
41 2 39.5361 7.75652 10.1847
42 2 43.4987 7.57563 9.85483
43 2 47.4947 7.83063 9.89967
44 2 51.5764 7.73352 10.0955
45 2 55.6056 7.74585 10.1024
46 2 0.0989298 11.7461 9.98853
47 2 3.79474 11.5855 10.0212
48 2 8.07922 11.691 10.2161
49 2 11.9013 11.806 10.0221
50 2 15.8338 11.6274 10.0263
51 2 19.6287 11.8074 10.2376
52 2 23.8064 11.6179 9.925
53 2 27.639 11.8705 10.0813
54 2 31.4622 11.7857 10.2256
55 2 35.4198 11.7204 10.0463
56 2 39.4998 11.5977 9.96958
57 2 43.5474 11.7967 10.0081
58 2 47.6273 11.7829 10.0243
59 2 51.4971 12.0471 10.0727
60 2 55.4524 11.7431 10.1249
61 2 59.578 15.6251 9.87112
62 2 3.88947 15.657 10.1379
63 2 7.85048 15.6458 10.2095
64 2 11.7609 15.5708 9.98315
65 2 15.7802 15.676 9.9255
66 2 19.8713 15.7513 10.1798
67 2 23.8366 15.8923 10.0707
68 2 27.6501 15.6904 10.1891
69 2 31.6806 15.8232 10.2864
70 2 35.6881 15.8087 10.079
71 2 39.6095 15.7349 10.2071
72 2 43.5051 15.8353 10.232
73 2 47.488 15.6397 10.0023
74 2 51.3597 15.8978 10.0197
75 2 55.5498 15.8186 9.85399
76 2 0.0703982 19.4745 9.81708
77 2 4.15679 19.7141 10.0906
78 2 8.02027 19.6326 10.0606
79 2 11.9058 19.6377 10.1258
80 2 15.6566 19.4846 9.9374
81 2 19.9607 19.7344 10.0974
82 2 23.9869 19.5929 10.0279
83 2 27.9641 19.7595 10.1185
84 2 31.7722 19.6047 10.1443
85 2 35.6986 19.6897 10.0656
86 2 39.6513 19.661 10.2642
87 2 43.5901 19.7401 10.0398
88 2 47.2666 19.7857 10.155
89 2 51.4167 19.697 10.062
90 2 55.4797 19.7951 10.1644
91 2 0.0320765 23.6359 10.1674
92 2 3.87352 23.5624 10.0024
93 2 8.08355 23.736 10.1254
94 2 11.667 23.5264 10.1245
95 2 15.9376 23.3998 9.93532
96 2 19.6971 23.7784 9.89857
97 2 23.8019 23.6203 10.0164
98 2 27.7904 23.9156 9.98524
99 2 31.7829 23.6263 9.95204
100 2 35.575 23.6072 10.0709
101 2 39.5687 23.7489 9.97471
102 2 43.4835 23.7804 10.1623
103 2 47.3835 23.5456 10.2354
104 2 51.4832 23.4987 10.0334
105 2 55.4323 23.7683 10.0686
106 2 -0.158154 27.7145 10.0411
107 2 4.08043 27.5591 10.0222
108 2 7.95706 27.5311 10.0154
109 2 11.897 27.3338 9.95646
110 2 15.9623 27.4491 9.89929
111 2 19.8748 27.7248 9.97253
112 2 23.9501 27.6663 9.87721
113 2 27.8746 27.7353 10.012
114 2 31.7526 27.6431 9.878
115 2 35.622 27.6182 10.1201
116 2 39.6561 27.4761 9.97671
117 2 43.8405 27.6203 10.0278
118 2 47.4839 27.6816 10.2232
119 2 51.6617 27.5344 10.1149
120 2 55.4158 27.6102 10.2428
121 2 0.208268 31.5313 9.83866
122 2 4.11525 31.545 9.91881
123 2 7.91393 31.5226 10.0922
124 2 11.9019 31.4123 9.99523
125 2 15.9089 31.6263 10.087
126 2 19.9478 31.5537 10.2214
127 2 23.8324 31.5103 10.1371
128 2 27.9758 31.463 9.85915
129 2 31.7479 31.5688 10.0163
130 2 35.5072 31.6537 10.196
131 2 39.5986 31.6481 10.0179
132 2 43.593 31.4725 10.1693
133 2 47.7962 31.8538 9.90925
134 2 51.4044 31.6262 9.90309
135 2 55.2547 31.7426 10.3021
136 2 59.4286 35.4919 9.9183
137 2 3.90538 35.6478 10.1103
138 2 7.74645 35.4335 10.1948
139 2 11.8613 35.3356 10.0322
140 2 15.8199 35.3539 10.1767
141 2 19.7051 35.7213 10.2351
142 2 23.8526 35.3574 9.9699
143 2 27.8178 35.3888 9.99529
144 2 31.6923 35.4523 9.87152
145 2 35.8623 35.4475 10.112
146 2 39.5882 35.5477 10.1202
147 2 43.4531 35.5474 10.1293
148 2 47.2688 35.6292 9.89527
149 2 51.4257 35.7271 10.1315
150 2 55.396 35.4883 10.1669
151 2 59.4831 39.4944 10.0851
152 2 4.03155 39.4714 10.164
153 2 8.07707 39.4102 10.1076
154 2 12.0502 39.4005 10.0729
155 2 15.7268 39.5362 10.1286
156 2 19.8973 39.4903 10.0965
157 2 23.7908 39.4549 10.0599
158 2 27.8179 39.4896 10.0475
159 2 31.9272 39.3571 9.94303
160 2 35.6899 39.5009 9.97543
161 2 39.6042 39.4857 10.1726
162 2 43.7048 39.5129 10.2117
163 2 47.4687 39.5391 10.1135
164 2 51.398 39.3818 10.0836
165 2 55.5698 39.306 10.207
166 2 59.4217 43.4951 10.1208
167 2 4.15831 43.2754 10.2089
168 2 8.21237 43.5892 10.0681
169 2 11.8083 43.3057 10.1442
170 2 15.8011 43.5643 9.92508
171 2 19.875 43.4785 10.1196
172 2 23.9992 43.5197 10.0955
173 2 28.0046 43.5338 9.90798
174 2 31.8901 43.6274 10.1065
175 2 35.6597 43.4577 10.2143
176 2 39.577 43.5964 10.132
177 2 43.5523 43.5841 10.0483
178 2 47.5742 43.5919 10.0235
179 2 51.6079 43.3305 10.0863
180 2 55.5354 43.4841 10.0231
181 2 59.3178 47.2877 10.1322
182 2 3.95114 47.2197 10.0985
183 2 7.90506 47.2734 10.0934
184 2 11.9352 47.6541 9.75288
185 2 16.1281 47.5083 9.81098
186 2 19.841 47.2694 10.056
187 2 23.8413 47.3232 10.0346
188 2 27.9329 47.4095 10.0907
189 2 31.8058 47.469 10.1134
190 2 35.7826 47.3793 10.0103
191 2 39.5013 47.5507 10.1313
192 2 43.6181 47.3336 9.99915
193 2 47.4184 47.439 9.97487
194 2 51.5539 47.4801 10.1442
195 2 55.5663 47.3845 10.2029
196 2 0.219991 51.5148 9.951
197 2 4.31001 51.3535 9.89619
198 2 8.14416 51.5269 10.0361
199 2 11.7804 51.5163 10.2713
200 2 15.9709 51.3411 10.211
201 2 19.8089 51.4426 10.0206
202 2 23.6686 51.4266 10.089
203 2 27.7855 51.2591 10.0046
204 2 31.8562 51.2688 10.0001
205 2 35.7528 51.4702 10.0423
206 2 39.7257 51.431 10.0397
207 2 43.5407 51.4845 10.1376
208 2 47.4973 51.4287 10.0803
209 2 51.5035 51.3247 10.066
210 2 55.5282 51.6321 9.91056
211 2 0.0591598 55.2178 9.83369
212 2 4.18216 55.2951 9.93493
213 2 8.04876 55.434 10.013
214 2 12.0034 55.5048 9.96403
215 2 15.9894 55.2207 10.1811
216 2 19.9285 55.3863 9.86968
217 2 23.7063 55.3485 10.0076
218 2 27.7967 55.3953 10.0018
219 2 31.9182 55.427 10.1103
220 2 35.7428 55.2759 10.0271
221 2 39.6574 55.2353 10.0921
222 2 43.5541 55.3232 9.9831
223 2 47.3166 55.2911 10.162
224 2 51.2592 55.4077 10.0814
225 2 55.6332 55.4524 10.1177
226 2 0.073462 59.2771 14.2413
227 2 3.96728 59.3039 13.8244
228 2 8.10721 59.3457 13.9842
229 2 12.1236 59.2971 13.9884
230 2 16.0725 0.0659764 14.1366
231 2 19.9778 -0.00497399 14.1352
232 2 23.9865 -0.23394 13.835
233 2 28.0889 59.3686 14.0069
234 2 31.7325 59.4424 13.9145
235 2 35.5768 59.5141 14.1807
236 2 39.8459 0.142314 14.177
237 2 43.7709 59.4749 14.1154
238 2 47.6771 0.0651507 13.8663
239 2 51.5985 -0.0458049 13.8526
240 2 55.6861 59.3208 13.9916
241 2 0.238163 3.91175 13.983
242 2 4.1249 3.8728 14.0186
243 2 8.08302 3.86228 14.0455
244 2 11.9672 3.74644 14.1551
245 2 16.1313 4.0102 14.1636
246 2 19.9561 3.94879 14.0555
247 2 23.9225 4.04546 14.0162
248 2 27.8802 3.90076 14.0964
249 2 31.9094 3.969 14.0913
250 2 35.7287 3.79084 14.2708
251 2 39.6978 4.19476 13.9839
252 2 43.6945 3.95548 14.1302
253 2 47.6102 4.05998 14.0401
254 2 51.528 3.78299 14.0456
255 2 55.6518 3.80493 14.0702
256 2 0.169306 7.68742 14.0488
257 2 3.97607 7.89686 14.1414
258 2 8.02222 7.76874 14.0713
259 2 12.1214 7.82155 14.0306
260 2 15.9086 7.93371 13.8871
261 2 19.9973 7.93859 14.0847
262 2 23.9594 7.95597 14.0805
263 2 27.907 7.77765 14.084
264 2 31.9123 7.98075 14.1371
265 2 35.7116 7.64827 14.1
266 2 39.6454 8.0402 14.1117
267 2 43.5963 7.987 14.1062
268 2 47.8673 7.8432 14.0004
269 2 51.6938 7.62432 14.0708
270 2 55.5599 7.9139 13.9964
271 2 0.0609111 11.7806 14.095
272 2 4.16689 11.7982 14.024
273 2 7.96785 11.869 14.0268
274 2 11.8847 11.665 13.94
275 2 15.7826 12.0118 14.0115
276 2 19.8971 11.8303 14.1129
277 2 23.919 11.7487 14.1267
278 2 27.8002 11.9 14.0717
279 2 31.8763 11.9336 14.086
280 2 35.5871 11.8482 14.1974
281 2 39.793 11.8791 13.9302
282 2 43.7836 11.8197 13.8284
283 2 47.7216 11.6762 13.9719
284 2 51.567 11.767 13.9084
285 2 55.5434 11.8863 13.9784
286 2 0.265062 15.5751 13.9362
287 2 3.96886 15.7879 13.9531
288 2 7.88104 15.787 14.1323
289 2 12.105 15.758 14.0183
290 2 15.9401 15.8217 14.0832
291 2 19.7558 15.9666 13.7467
292 2 23.9098 15.7676 13.9607
293 2 27.6657 15.8697 14.096
294 2 31.7845 15.8863 13.9878
295 2 35.9121 15.788 14.0454
296 2 39.6687 15.7645 14.0888
297 2 43.7871 15.842 14.1043
298 2 47.5102 15.8784 14.1067
299 2 51.6033 15.8227 13.9903
300 2 55.6453 15.6228 13.8999
301 2 0.158959 19.7704 13.8654
302 2 3.97245 19.6929 14.0227
303 2 7.87779 19.895 14.0243
304 2 12.0613 19.7461 14.0459
305 2 15.9841 19.7151 14.1288
306 2 19.9841 19.8837 14.0504
307 2 23.804 19.867 14.1705
308 2 27.6672 19.8482 14.111
309 2 31.6493 19.7807 14.1886
310 2 35.7777 19.7837 13.9554
311 2 39.8725 19.8191 14.0704
312 2 43.5694 19.8105 14.0549
313 2 47.9099 19.8409 13.9304
314 2 51.7226 19.5694 14.0384
315 2 55.5992 19.5676 14.0869
316 2 0.174685 23.711 13.9583
317 2 4.09749 23.7142 13.8111
318 2 7.94447 23.8409 14.1153
319 2 11.8926 23.7245 13.9972
320 2 16.0928 23.7718 13.9037
321 2 19.9568 23.6915 13.751
322 2 23.847 23.7756 13.8344
323 2 27.9663 23.8197 14.1028
324 2 31.9555 23.7908 13.9469
325 2 35.7962 23.755 14.091
326 2 39.5753 23.9033 13.9976
327 2 43.6943 23.9529 14.071
328 2 47.8104 23.8629 14.2513
329 2 51.6208 23.5742 14.0822
330 2 55.5734 23.6679 14.0254
331 2 0.195874 27.802 13.9214
332 2 4.07314 27.6219 14.0819
333 2 7.81697 27.5722 13.8139
334 2 12.1031 27.5637 13.8926
335 2 15.9897 27.7251 13.9267
336 2 19.9752 27.6716 14.0701
337 2 23.7836 27.6525 13.9688
338 2 27.7119 27.631 14.1573
339 2 31.7363 27.6489 14.0158
340 2 35.6462 27.6116 13.8988
341 2 39.657 27.6631 14.0792
342 2 43.8034 27.6955 13.864
343 2 47.6457 27.5937 14.1813
344 2 51.3836 27.7278 14.2193
345 2 55.5157 27.5975 14.1773
346 2 0.204637 31.5132 13.8789
347 2 4.00881 31.7564 14.0831
348 2 8.02984 31.4803 14.0837
349 2 11.96 31.5425 14.1881
350 2 15.772 31.8225 14.2133
351 2 19.8914 31.636 14.2302
352 2 23.6871 31.7338 14.0631
353 2 27.5118 31.6325 14.0695
354 2 31.5318 31.6373 14.0753
355 2 35.5808 31.5977 14.1904
356 2 39.5732 31.4625 13.7782
357 2 43.6091 31.6459 14.0529
358 2 47.5421 31.759 13.9896
359 2 51.5549 31.5119 14.0658
360 2 55.4394 31.6553 14.025
361 2 0.268308 35.4568 13.9893
362 2 4.10451 35.6684 14.1588
363 2 7.99735 35.4658 14.218
364 2 11.7884 35.4426 13.933
365 2 15.8442 35.7043 14.1311
366 2 19.8878 35.6141 13.8611
367 2 23.9925 35.5633 14.0683
368 2 27.9482 35.5853 13.9413
369 2 31.805 35.3707 14.0439
370 2 35.5969 35.4996 14.0858
371 2 39.6628 35.7302 14.0987
372 2 43.6817 35.3585 14.1353
373 2 47.5947 35.5684 14.1428
374 2 51.4142 35.6467 14.1109
375 2 55.5081 35.6326 14.1096
376 2 0.293368 39.5512 14.11
377 2 3.99689 39.5905 14.1433
378 2 8.01595 39.2941 14.0601
379 2 12.0378 39.4967 14.0952
380 2 15.8979 39.4932 13.8941
381 2 19.8724 39.7102 13.8358
382 2 23.8526 39.5844 13.9762
383 2 27.8726 39.5106 13.7875
384 2 31.8441 39.5045 13.8624
385 2 35.497 39.6607 14.1271
386 2 39.5897 39.6536 14.1355
387 2 43.4501 39.5831 13.9855
388 2 47.3585 39.6381 14.135
389 2 51.4979 39.3553 14.0458
390 2 55.4566 39.3639 13.883
391 2 0.0964407 43.4129 14.1654
392 2 3.95934 43.4431 14.1244
393 2 8.13842 43.2509 14.0723
394 2 11.9128 43.6445 13.9535
395 2 15.8502 43.707 13.9682
396 2 19.8198 43.362 14.0386
397 2 24.0093 43.6451 14.1099
398 2 28.0159 43.3669 13.9858
399 2 31.8537 43.4755 14.168
400 2 35.6213 43.5643 14.1298
401 2 39.796 43.6844 14.0914
402 2 43.727 43.5616 14.0419
403 2 47.5885 43.4389 14.2158
404 2 51.5058 43.322 13.9705
405 2 55.4901 43.4242 14.1032
406 2 0.0358741 47.621 14.0357
407 2 4.31467 47.4419 13.9187
408 2 8.13852 47.4065 13.9995
409 2 12.1723 47.4128 14.0309
410 2 15.8187 47.5996 14.1846
411 2 20.0648 47.3891 13.7489
412 2 24.043 47.4495 14.0199
413 2 28.0023 47.6661 13.9949
414 2 31.7391 47.4543 14.2061
415 2 35.6069 47.6414 14.0378
416 2 39.5457 47.5845 14.0646
417 2 43.6486 47.4746 14.0553
418 2 47.6673 47.3135 13.9939
419 2 51.4549 47.4679 14.0365
420 2 55.4602 47.4401 14.0729
421 2 0.0810199 51.4814 13.7979
422 2 4.32496 51.3506 13.8589
423 2 8.01147 51.4189 14.0954
424 2 12.1108 51.3143 14.067
425 2 15.9561 51.5187 14.1783
426 2 20.0914 51.4452 13.9855
427 2 23.8647 51.3719 13.9414
428 2 27.8442 51.4558 13.9537
429 2 31.7762 51.4522 14.0008
430 2 35.8737 51.4414 13.9905
431 2 39.5218 51.4217 14.0818
432 2 43.5992 51.4219 13.8135
433 2 47.5281 51.6034 14.0818
434 2 51.6001 51.2523 13.9483
435 2 55.4682 51.3456 14.0071
436 2 0.260214 55.1498 13.9543
437 2 3.90977 55.3635 14.0174
438 2 8.09625 55.3848 14.0897
439 2 12.0427 55.3814 14.0115
440 2 15.817 55.2972 14.0244
441 2 19.9414 55.3745 14.0128
442 2 24.0444 55.2564 14.0564
443 2 27.9068 55.2345 13.9972
444 2 31.8113 55.3015 14.0602
445 2 35.7974 55.5408 14.2027
446 2 39.8001 55.4972 14.121
447 2 43.4828 55.4526 14.0217
448 2 47.5814 55.2461 14.1028
449 2 51.7632 55.4562 14.1868
450 2 55.4508 55.2212 14.2235
451 2 0.134747 -0.0524836 18.0546
452 2 3.95535 -0.181906 18.1002
453 2 7.97016 59.1005 17.8883
454 2 12.0958 59.3139 18.021
455 2 15.9406 59.2781 18.1671
456 2 19.9845 59.5077 17.9279
457 2 23.9266 59.7004 17.7977
458 2 27.9126 0.127497 18.1063
459 2 31.7804 59.4267 18.1617
460 2 35.844 59.3416 18.1304
461 2 39.6311 0.270778 18.1852
462 2 43.4399 59.4763 18.0472
463 2 47.5918 -0.0111344 18.0609
464 2 51.706 59.47 18.0229
465 2 55.559 59.3205 18.1129
466 2 0.168862 3.74781 18.0089
467 2 4.12016 3.91647 18.0835
468 2 8.11736 3.77511 17.8924
469 2 12.04 4.03271 17.9742
470 2 15.9825 4.10324 18.0752
471 2 19.8859 4.05046 17.9939
472 2 23.9153 4.12076 17.8631
473 2 27.7958 3.91973 18.022
474 2 31.6432 4.07051 18.0291
475 2 35.5445 3.83955 18.1869
476 2 39.6042 3.90144 17.9327
477 2 43.7833 3.96045 17.9082
478 2 47.5798 3.99213 17.851
479 2 51.6693 3.79028 17.9354
480 2 55.5979 3.92274 17.9386
481 2 0.104128 7.82283 18.0983
482 2 3.99946 7.85209 17.7339
483 2 8.1496 7.77129 18.0574
484 2 12.0157 7.93353 18.0956
485 2 15.9903 7.93322 18.0035
486 2 19.8252 8.06855 17.9313
487 2 24.0167 7.90624 18.1647
488 2 27.8961 7.7653 18.0753
489 2 31.7616 8.03768 18.0846
490 2 35.8222 8.08802 18.1972
491 2 39.7186 7.98895 17.9651
492 2 43.6376 8.0846 18.0703
493 2 47.7164 8.03901 18.0626
494 2 51.6706 7.90969 18.0452
495 2 55.4855 7.79329 17.8603
496 2 0.117853 11.8548 18.0792
497 2 4.21477 11.8822 17.9999
498 2 8.14194 11.8526 18.1359
499 2 12.1015 11.9879 18.0378
500 2 16.0282 11.9321 18.0595
501 2 19.9421 12.091 17.9976
502 2 23.8596 11.7685 18.0515
503 2 28.0025 11.8106 17.9658
504 2 31.9618 12.0081 17.9465
505 2 35.649 11.862 18.0827
506 2 39.7095 11.7815 17.9869
507 2 43.6458 11.9758 18.0336
508 2 47.7437 11.8807 17.965
509 2 51.6008 11.8651 17.9908
510 2 55.4084 11.8939 18.0975
511 2 59.5149 15.8667 17.8344
512 2 4.03946 15.8375 17.9824
513 2 8.12515 15.9234 17.9744
514 2 11.8995 15.9799 18.101
515 2 15.9534 15.9306 17.8529
516 2 19.8402 15.7347 18.0888
517 2 23.7452 15.8037 18.1282
518 2 27.6759 15.8077 17.9758
519 2 31.7867 15.9066 17.945
520 2 35.7955 15.8701 17.914
521 2 39.8182 15.6061 17.9929
522 2 43.8394 15.7838 17.9213
523 2 47.5185 15.7597 18.13
524 2 51.5508 15.6234 17.7933
525 2 55.4618 15.7266 17.8021
526 2 0.0605484 19.7585 18.0599
527 2 4.15596 19.7184 17.9136
528 2 8.0455 19.8125 17.9669
529 2 11.9181 19.7972 18.1
530 2 15.9784 19.9408 18.028
531 2 20.0314 19.8626 17.9183
532 2 23.9291 19.8169 17.9261
533 2 27.7542 19.6592 18.0078
534 2 31.9462 20.0263 17.8858
535 2 35.882 19.9182 17.9383
536 2 39.9102 19.8266 18.0319
537 2 43.7887 19.7957 18.0891
538 2 47.676 19.7105 18.1736
539 2 51.6556 19.75 18.114
540 2 55.4831 19.7747 18.0905
541 2 0.228718 23.4339 17.9326
542 2 4.02922 23.6442 18.0608
543 2 8.0746 23.8388 17.8493
544 2 12.04 23.7655 17.8081
545 2 15.8582 23.6198 17.8986
546 2 19.8518 23.8525 18.1263
547 2 23.6196 23.8044 17.9422
548 2 27.7595 23.7507 18.1143
549 2 31.7267 23.8848 18.1091
550 2 35.8842 23.7016 17.9202
551 2 39.7286 23.9622 18.0973
552 2 43.5942 23.7068 18.0252
553 2 47.6792 23.7116 18.2646
554 2 51.6467 23.5549 18.1504
555 2 55.6821 23.6563 18.0175
556 2 0.163952 27.6373 17.9878
557 2 4.23802 27.6019 17.9836
558 2 8.01737 27.6426 17.8722
559 2 11.8675 27.69 18.1121
560 2 15.986 27.7546 18.1387
561 2 19.8277 27.7921 18.0799
562 2 23.8251 27.649 18.1504
563 2 27.59 27.5579 17.9053
564 2 31.6312 27.7517 18.0489
565 2 35.6259 27.7495 18.0035
566 2 39.6344 27.8619 17.9722
567 2 43.5212 27.8482 18.0304
568 2 47.7063 27.8334 18.0799
569 2 51.709 27.7216 18.0548
570 2 55.6053 27.5078 17.9019
571 2 -0.00883028 31.3595 18.0523
572 2 4.07279 31.5207 18.0541
573 2 8.03881 31.599 18.0625
574 2 11.8016 31.5923 18.1706
575 2 15.7357 31.6033 18.1332
576 2 19.7921 31.7794 18.1174
577 2 23.8363 31.6619 18.087
578 2 27.7113 31.7345 18.0021
579 2 31.7867 31.4615 18.0727
580 2 35.8013 31.6604 18.1776
581 2 39.7919 31.6869 18.1186
582 2 43.481 31.6314 18.0345
583 2 47.4127 31.5475 18.0886
584 2 51.6421 31.5216 18.1343
585 2 55.6211 31.6558 17.9292
586 2 0.0433006 35.5855 18.0599
587 2 3.96329 35.7091 18.0856
588 2 7.93568 35.3856 18.2118
589 2 11.7587 35.5412 18.0634
590 2 15.8957 35.7098 17.9253
591 2 19.9034 35.799 18.0399
592 2 23.8967 35.8048 18.0506
593 2 27.8639 35.8218 17.8558
594 2 31.6821 35.5038 18.105
595 2 35.4907 35.7153 17.9743
596 2 39.6066 35.7125 17.8387
597 2 43.5308 35.6961 18.049
598 2 47.6195 35.6848 18.0659
599 2 51.5469 35.4593 18.1601
600 2 55.6047 35.7321 18.0882
601 2 0.0200126 39.5609 17.9321
602 2 4.12129 39.7568 18.1238
603 2 8.16093 39.6244 18.1219
604 2 12.1454 39.3815 17.9504
605 2 15.9785 39.7654 17.8033
606 2 19.8391 39.6329 17.7426
607 2 23.7563 39.6571 18.0994
608 2 27.886 39.4429 17.8873
609 2 31.6914 39.3356 18.0704
610 2 35.6509 39.6116 18.0251
611 2 39.6042 39.5851 17.7952
612 2 43.6697 39.6141 18.095
613 2 47.5193 39.7 17.9832
614 2 51.5566 39.5525 18.0352
615 2 55.4347 39.5247 18.3259
616 2 0.0181931 43.6828 18.1599
617 2 3.9426 43.7922 17.8821
618 2 8.06716 43.6055 18.007
619 2 12.0781 43.478 18.0674
620 2 16.0033 43.5971 17.9582
621 2 19.9447 43.511 18.1838
622 2 24.03 43.5765 18.1821
623 2 27.7896 43.457 18.0947
624 2 31.696 43.5619 18.2352
625 2 35.6974 43.515 18.0577
626 2 39.5745 43.4873 17.9011
627 2 43.4344 43.8257 17.8706
628 2 47.6762 43.4974 17.9162
629 2 51.6388 43.4602 17.8667
630 2 55.5719 43.4727 18.1295
631 2 0.297232 47.5761 17.8454
632 2 4.10737 47.5824 17.9944
633 2 8.07535 47.4402 17.9907
634 2 12.1999 47.4073 18.0529
635 2 16.2698 47.5256 17.9797
636 2 20.1534 47.3966 17.9411
637 2 23.7836 47.3125 18.0388
638 2 27.6893 47.4672 18.058
639 2 31.6801 47.5669 18.0684
640 2 35.578 47.5342 18.0921
641 2 39.6246 47.5836 18.0935
642 2 43.7466 47.7148 18.0591
643 2 47.7801 47.7219 18.0403
644 2 51.7966 47.3803 18.005
645 2 55.6502 47.204 18.1178
646 2 0.145288 51.5271 18.0709
647 2 4.25841 51.4912 18.011
648 2 8.23509 51.4036 18.0031
649 2 11.9125 51.5241 18.1902
650 2 15.9902 51.5525 18.0186
651 2 20.0224 51.3424 17.9445
652 2 23.8709 51.4479 18.0422
653 2 27.8646 51.5219 18.1638
654 2 31.8935 51.6065 18.0724
655 2 35.8644 51.4911 18.1342
656 2 39.786 51.5402 18.1475
657 2 43.5325 51.3522 18.1211
658 2 47.5462 51.5434 17.8222
659 2 51.4896 51.6721 18.0273
660 2 55.5079 51.2211 17.9866
661 2 0.223448 55.2643 18.1297
662 2 4.18269 55.4223 18.0433
663 2 8.11674 55.4075 17.9722
664 2 11.9699 55.4218 18.1951
665 2 15.9761 55.3296 18.1608
666 2 20.1183 55.5424 17.9254
667 2 23.9758 55.57 17.9494
668 2 27.8679 55.4937 18.1005
669 2 31.9131 55.5131 18.1599
670 2 35.5834 55.4084 18.3081
671 2 39.6582 55.3211 17.9271
672 2 43.5847 55.3286 18.0174
673 2 47.6787 55.2862 17.9174
674 2 51.5335 55.4428 18.0225
675 2 55.6204 55.4935 18.1743
676 2 59.4258 59.3144 22.1458
677 2 3.96266 0.0151904 22.0026
678 2 7.93799 0.172909 21.8688
679 2 11.8761 0.229341 21.9778
680 2 15.9517 59.2704 22.0365
681 2 19.8221 0.199228 21.9624
682 2 23.8316 59.441 22.0781
683 2 27.6214 -0.042321 22.0414
684 2 31.4402 0.0323653 22.0089
685 2 35.7451 0.13248 22.1997
686 2 39.6683 59.384 22.1285
687 2 43.633 0.160322 21.8853
688 2 47.6664 -0.171559 21.8162
689 2 51.7038 59.3861 22.1056
690 2 55.5313 0.0665184 21.978
691 2 0.163773 3.95707 21.9607
692 2 4.18513 4.05263 22.0736
693 2 8.12748 4.07495 22.0175
694 2 11.9403 3.94977 22.0011
695 2 15.7992 3.97134 22.0366
696 2 19.7759 4.14151 21.9354
697 2 23.7744 4.22805 22.0293
698 2 28.0216 3.92019 22.0612
699 2 31.8669 4.13924 22.0655
700 2 35.7969 3.99604 21.9971
701 2 39.8992 3.99617 21.9837
702 2 43.6819 3.99818 21.8845
703 2 47.4018 3.97208 21.8844
704 2 51.4171 4.04467 21.84
705 2 55.3886 4.19214 21.9702
706 2 0.270154 8.07602 21.7955
707 2 4.16909 8.01403 22.0111
708 2 8.05273 7.80497 21.8416
709 2 12.1083 8.02625 22.0849
710 2 15.861 8.08304 21.8941
711 2 19.8943 7.98073 22.1553
712 2 24.0761 8.06713 22.0775
713 2 27.7582 8.01697 21.8904
714 2 31.7634 8.06533 22.1272
715 2 35.8153 7.91123 22.0993
716 2 39.5363 7.98187 21.963
717 2 43.5799 7.79485 21.9867
718 2 47.5858 7.93223 21.9478
719 2 51.5319 8.00138 22.0456
720 2 55.4496 7.92212 22.1083
721 2 59.3113 11.9069 22.1563
722 2 3.9761 11.9028 21.8665
723 2 7.97736 12.0667 22.1066
724 2 12.0665 12.0259 21.8829
725 2 15.9737 11.9834 22.1306
726 2 19.9702 11.9669 22.0304
727 2 23.9195 12.0109 22.0282
728 2 27.9431 11.8877 21.9246
729 2 32.044 12.184 21.9438
730 2 35.7888 11.9165 21.9745
731 2 39.6413 11.9903 21.938
732 2 43.5767 11.9514 22.0951
733 2 47.6234 11.8862 22.0232
734 2 51.575 11.7622 22.071
735 2 55.4297 11.7616 22.1673
736 2 0.0757861 15.675 22.0361
737 2 4.27223 15.6621 21.9801
738 2 7.81443 15.9653 21.8583
739 2 11.9545 15.9771 22.0066
740 2 15.8424 16.0099 22.0327
741 2 19.9816 15.9044 21.9689
742 2 23.902 15.925 21.8712
743 2 27.7335 15.8046 21.8284
744 2 31.868 15.9448 21.997
745 2 35.7239 16.0999 21.7924
746 2 39.6336 15.8622 21.8599
747 2 43.57 15.7175 22.2369
748 2 47.6385 15.9724 21.8564
749 2 51.6393 15.6611 22.0217
750 2 55.5123 15.8586 22.0168
751 2 0.268141 19.5967 21.9058
752 2 4.01944 19.7498 22.0791
753 2 8.06204 19.8805 22.0816
754 2 11.8749 19.8319 22.1254
755 2 15.8402 19.893 21.9986
756 2 19.9363 19.5682 22.0664
757 2 24.0747 19.7792 22.0022
758 2 27.9109 19.7744 21.8974
759 2 32.0445 19.8609 22.0212
760 2 35.9015 19.9467 21.9256
761 2 39.7652 19.7336 21.9686
762 2 43.5603 19.7692 22.1841
763 2 47.422 19.947 22.0656
764 2 51.5435 19.6652 21.9028
765 2 55.6179 19.5438 22.0303
766 2 0.228842 23.8624 22.1243
767 2 4.02067 23.8251 22.1058
768 2 7.81543 23.6043 21.9191
769 2 11.8246 23.6541 22.0822
770 2 15.8105 23.7245 21.9651
771 2 19.6746 23.876 22.0235
772 2 23.8248 23.827 22.0367
773 2 27.9537 23.8522 21.9041
774 2 31.6792 23.7498 22.0968
775 2 35.9854 23.6181 22.0282
776 2 39.7267 23.7805 21.9733
777 2 43.6461 23.8427 21.9945
778 2 47.5185 23.8778 22.0503
779 2 51.6366 23.8257 22.1124
780 2 55.4579 23.6692 21.9824
781 2 59.4851 27.7885 21.99
782 2 4.1355 27.6867 21.939
783 2 8.01084 27.5963 21.9426
784 2 11.8012 27.6834 22.088
785 2 16.0193 27.8256 22.2577
786 2 19.9018 27.6068 22.1073
787 2 23.8841 27.8543 22.0721
788 2 27.7801 27.8098 21.9286
789 2 31.7321 27.7338 22.0252
790 2 35.8476 27.8958 22.0781
791 2 39.6637 27.7193 22.2509
792 2 43.5862 27.7181 22.163
793 2 47.5459 27.8608 22.0761
794 2 51.5698 27.7438 22.1382
795 2 55.6142 27.86 21.8448
796 2 59.4465 31.6504 22.1398
797 2 4.02578 31.7288 22.2287
798 2 7.80832 31.5319 22.0646
799 2 11.8919 31.7378 22.1594
800 2 15.7583 31.8745 21.9137
801 2 19.9915 31.7553 22.0539
802 2 23.9635 31.828 22.0657
803 2 27.8112 31.6415 21.9238
804 2 31.7774 31.8134 22.1508
805 2 35.7819 31.9268 21.925
806 2 39.7567 31.9309 21.9758
807 2 43.7022 31.8125 22.0112
808 2 47.5998 31.8937 21.8617
809 2 51.586 31.507 21.9658
810 2 55.589 31.6895 22.0674
811 2 0.188789 35.4793 21.8976
812 2 4.06889 35.5495 22.1136
813 2 7.87806 35.605 22.1421
814 2 11.9289 35.7503 22.0793
815 2 15.9348 35.5947 21.9401
816 2 19.6843 35.4956 21.8789
817 2 23.83 35.6572 22.1447
818 2 27.8689 35.563 22.0375
819 2 31.7382 35.582 22.1799
820 2 35.8974 35.5238 21.9869
821 2 39.705 35.8253 21.7818
822 2 43.6161 35.779 21.9959
823 2 47.4995 35.6618 21.895
824 2 51.5018 35.4104 21.8827
825 2 55.4846 35.636 22.21
826 2 0.062604 39.6399 21.9397
827 2 3.93354 39.5992 22.055
828 2 7.86948 39.6969 21.9993
829 2 12.1218 39.5613 22.2028
830 2 16.0202 39.5327 21.952
831 2 19.7257 39.5458 21.8648
832 2 23.9461 39.607 21.9506
833 2 27.7539 39.7949 22.0409
834 2 31.948 39.4252 22.031
835 2 35.6202 39.829 21.9818
836 2 39.6531 39.6772 21.9633
837 2 43.534 39.874 21.8457
838 2 47.4622 39.718 22.0038
839 2 51.4935 39.7408 22.0942
840 2 55.6429 39.5342 22.1487
841 2 0.271323 43.4866 21.9759
842 2 4.07413 43.5471 22.0301
843 2 8.09623 43.7107 21.947
844 2 12.0327 43.5158 22.0554
845 2 15.9388 43.6401 22.1044
846 2 19.9227 43.7171 22.0122
847 2 23.8135 43.61 21.9864
848 2 27.8721 43.6401 22.187
849 2 31.8292 43.6341 22.0571
850 2 35.7905 43.6994 21.8581
851 2 39.5618 43.7181 21.9742
852 2 43.6644 43.7642 21.9737
853 2 47.6706 43.779 21.9244
854 2 51.3206 43.5561 21.9197
855 2 55.4556 43.4379 22.0034
856 2 0.167577 47.6431 22.0257
857 2 3.99707 47.6635 22.1371
858 2 7.86807 47.5353 22.1038
859 2 12.0067 47.6167 21.9452
860 2 16.0784 47.7606 21.8765
861 2 19.7606 47.4874 22.1425
862 2 23.7882 47.699 21.8147
863 2 27.8526 47.6425 22.0695
864 2 31.9199 47.4616 21.8431
865 2 35.756 47.6312 22.1896
866 2 39.4986 47.4498 22.0218
867 2 43.759 47.5947 22.1233
868 2 47.7953 47.5217 22.0037
869 2 51.5534 47.3881 21.9107
870 2 55.6706 47.5292 22.041
871 2 0.2717 51.427 21.9652
872 2 4.23062 51.3847 22.1224
873 2 8.15993 51.2931 22.0023
874 2 12.1925 51.6317 22.0353
875 2 15.9939 51.5079 22.1347
876 2 19.8601 51.436 22.099
877 2 23.7786 51.5649 22.1731
878 2 27.9198 51.3069 22.0321
879 2 31.6851 51.2165 22.1394
880 2 35.7949 51.6013 22.0359
881 2 39.8233 51.6034 22.0745
882 2 43.7872 51.5082 22.1173
883 2 47.9005 51.5257 21.9884
884 2 51.8445 51.5037 21.9832
885 2 55.4556 51.4703 21.981
886 2 0.0945636 55.4819 22.1744
887 2 4.25292 55.3809 22.0388
888 2 8.00525 55.4931 22.0486
889 2 12.186 55.413 22.0932
890 2 16.1231 55.4939 21.9866
891 2 19.9729 55.5349 21.8838
892 2 23.813 55.4755 22.025
893 2 27.7418 55.3973 21.864
894 2 31.7921 55.402 22.1864
895 2 35.6031 55.4371 22.2124
896 2 39.6798 55.6438 21.9723
897 2 43.7794 55.5172 21.8917
898 2 47.7563 55.3342 22.0123
899 2 51.5999 55.4051 22.1492
900 2 55.539 55.3679 21.9089
901 2 0.0504584 0.226888 26.0578
902 2 4.06769 0.0579433 26.0438
903 2 8.17497 59.4646 25.7934
904 2 12.039 0.0934991 26.0536
905 2 15.9196 -0.00242594 26.0972
906 2 19.939 0.254641 25.8771
907 2 23.6672 0.115136 26.087
908 2 27.7881 0.10537 25.9354
909 2 31.7163 59.3439 25.8848
910 2 35.8044 -0.0252913 26.0795
911 2 39.652 -0.0987176 26.1446
912 2 43.4791 0.131843 25.9892
913 2 47.6072 0.310227 25.8422
914 2 51.5893 59.4972 26.1643
915 2 55.4916 59.5461 26.099
916 2 0.163016 4.18356 25.7975
917 2 4.15522 3.76474 25.9477
918 2 8.01878 4.27036 25.9527
919 2 12.0757 3.92444 25.8993
920 2 15.9208 4.03556 26.0399
921 2 19.7632 3.97362 26.0968
922 2 23.9438 4.12901 25.9933
923 2 27.8433 4.10756 26.0135
924 2 31.8249 4.12722 25.9072
925 2 35.6869 3.88626 25.7908
926 2 39.8173 3.84842 25.9106
927 2 43.6741 4.02039 26.0696
928 2 47.5839 4.18717 25.9727
929 2 51.4176 3.87606 25.9021
930 2 55.459 3.93865 25.8624
931 2 59.5679 7.78869 25.7927
932 2 3.93759 8.05592 25.9926
933 2 8.03819 8.11993 26.0104
934 2 11.9376 8.0008 25.9663
935 2 15.8962 8.01956 26.0447
936 2 19.8617 8.03357 26.0862
937 2 23.8115 8.15208 26.0004
938 2 27.7879 8.07847 25.9963
939 2 31.8015 8.13942 25.9956
940 2 35.9912 8.09206 26.3324
941 2 39.7583 8.06696 26.0201
942 2 43.6943 8.08657 25.9
943 2 47.7082 7.99288 25.9409
944 2 51.6169 7.71334 26.1322
945 2 55.6145 7.99447 25.9034
946 2 0.123773 11.9558 26.1356
947 2 4.00511 11.8209 25.9327
948 2 8.17661 12.0455 26.084
949 2 11.9014 12.0856 25.8894
950 2 15.87 11.8949 25.8391
951 2 19.7175 11.9577 26.0761
952 2 23.6773 12.0001 25.6604
953 2 27.8418 12.1238 25.9516
954 2 31.7685 12.0309 26.0455
955 2 35.682 11.8272 25.9454
956 2 39.7232 11.9634 26.0605
957 2 43.6377 11.7143 25.9537
958 2 47.6918 12.0996 26.0377
959 2 51.5259 11.9935 25.9694
960 2 55.5567 12.0372 26.11
961 2 59.3992 15.7261 26.1313
962 2 4.03599 16.0341 26.0949
963 2 8.10459 15.6622 26.0617
964 2 11.9814 16.1882 26.0389
965 2 15.9878 15.8897 26.0806
966 2 20.0914 15.7032 25.9844
967 2 23.802 15.904 25.9248
968 2 27.7759 15.9913 26.031
969 2 31.7227 16.0795 25.8374
970 2 35.7059 15.8724 25.9018
971 2 39.6625 15.8305 26.0729
972 2 43.5212 15.7315 26.0893
973 2 47.7417 15.9086 26.0065
974 2 51.5117 15.9635 26.0364
975 2 55.4248 15.8963 25.8513
976 2 59.4326 19.69 26.0401
977 2 3.88626 19.7252 26.1591
978 2 8.06511 19.6434 26.1584
979 2 11.9011 20.0521 26.2317
980 2 15.8997 19.8173 25.8712
981 2 19.954 19.888 25.9098
982 2 23.9921 19.9918 25.8275
983 2 27.9692 19.876 26.0288
984 2 31.7751 19.779 26.1259
985 2 35.7372 19.7724 26.0627
986 2 39.7355 19.8212 26.0623
987 2 43.7112 19.8644 26.1407
988 2 47.4908 19.9636 26.1376
989 2 51.4554 19.8523 25.6163
990 2 55.5965 19.728 26.1212
991 2 59.2644 23.624 26.011
992 2 3.9996 23.7196 26.0542
993 2 7.93219 23.6256 25.7659
994 2 11.8409 23.8163 26.1297
995 2 15.8123 23.7788 26.0761
996 2 19.689 23.7713 25.8945
997 2 23.7398 23.8004 26.0717
998 2 27.6978 23.7404 25.8614
999 2 31.8302 23.9751 25.9647