ITEM: TIMESTEP
1549400
ITEM: NUMBER OF ATOMS
16875
ITEM: BOX BOUNDS xy xz yz pp pp pp
0.0000000000000000e+00 5.9369999999999997e+01 0.0000000000000000e+00
0.0000000000000000e+00 5.9369999999999997e+01 0.0000000000000000e+00
3.2962080291616758e-01 6.0036798197086910e+01 0.0000000000000000e+00
ITEM: ATOMS id type x y z
1 2 0.178306 59.1289 10.0334
2 2 4.15171 59.2307 9.73356
3 2 8.1994 59.4288 10.0933
4 2 11.8849 59.0951 9.94743
5 2 16.0217 59.2303 10.116
6 2 19.896 59.1572 10.0578
7 2 23.9528 59.4178 10.2239
8 2 27.9796 59.2737 9.96913
9 2 31.8927 59.3251 9.85483
10 2 35.8535 59.5496 9.85512
11 2 39.7881 59.3756 9.97451
12 2 43.7095 0.219792 10.1135
13 2 47.481 59.2886 9.9061
14 2 51.3695 59.2617 9.91028
15 2 55.6382 -0.0329826 10.0616
16 2 -0.14715 4.13145 10.0571
17 2 3.92887 3.84831 10.1712
18 2 7.99061 3.87238 10.1887
19 2 12.1435 3.88257 9.97178
20 2 15.9347 3.78009 10.1233
21 2 19.9177 3.81219 10.0872
22 2 24.101 3.98724 9.98784
23 2 28.1033 3.87108 9.89751
24 2 31.8182 3.97844 10.0702
25 2 35.6398 3.94858 10.0847
26 2 39.6766 4.02718 10.0827
27 2 43.769 3.8428 10.0975
28 2 47.6009 4.06945 10.0454
29 2 51.5284 3.90083 10.2103
30 2 55.4511 3.82295 10.0552
31 2 0.0481639 7.96468 10.0905
32 2 4.1186 7.77633 10.0839
33 2 8.09804 7.78897 9.93113
34 2 11.884 7.60568 10.0541
35 2 15.8711 7.8621 10.111
36 2 19.9949 7.81016 10.1247
37 2 23.8627 7.93157 10.2494
38 2 27.8598 7.96426 9.89593
39 2 31.6899 8.00502 10.2034
40 2 35.6024 7.89053 10.0237
41 2 39.6619 7.77705 9.93746
42 2 43.7162 7.80206 10.0408
43 2 47.7397 8.00431 10.1103
44 2 51.4908 7.92954 10.0615
45 2 55.6397 7.79444 9.90244
46 2 0.0951849 11.6786 9.97552
47 2 4.02232 11.8427 10.0242
48 2 8.01762 11.6882 10.1235
49 2 11.9257 11.7077 10.2513
50 2 16.0465 11.9384 10.0746
51 2 19.8611 11.9076 10.228
52 2 23.9175 11.6872 10.1354
53 2 27.9122 11.8744 10.1147
54 2 31.7536 11.7558 10.0692
55 2 35.7115 11.9745 9.97201
56 2 39.7534 11.7571 10.0332
57 2 43.8792 11.8473 9.9282
58 2 47.4967 12.1026 10.1485
59 2 51.571 11.8875 10.0428
60 2 55.742 11.8466 10.0895
61 2 -0.0825484 15.6447 10.1712
62 2 4.15021 15.9658 10.0946
63 2 8.11847 15.7529 10.2204
64 2 11.9353 15.8109 10.0582
65 2 15.9504 15.7911 10.1062
66 2 19.9935 15.8026 10.2357
67 2 23.8829 15.6913 10.2365
68 2 27.9972 15.732 10.1738
69 2 31.8588 15.8278 10.0267
70 2 35.846 15.6688 9.94304
71 2 39.578 15.8512 10.2322
72 2 43.2768 15.8415 9.98735
73 2 47.5489 15.7607 10.2093
74 2 51.6294 15.7953 10.1654
75 2 55.3518 15.6716 10.1541
76 2 0.0326795 19.6294 10.1157
77 2 4.06301 19.6225 10.2295
78 2 7.97679 19.8542 10.0109
79 2 11.8711 19.7103 9.89566
80 2 15.9379 19.6294 10.1545
81 2 19.8845 19.9353 10.0441
82 2 23.6887 19.8591 10.1579
83 2 27.7398 19.58 10.4072
84 2 31.7344 19.7999 10.3172
85 2 35.5672 19.8264 10.0834
86 2 39.6676 19.6479 9.97765
87 2 43.7632 19.6445 10.0409
88 2 47.713 19.7226 10.1479
89 2 51.5577 19.8659 10.127
90 2 55.4884 19.6149 10.0425
91 2 0.000804381 23.634 10.4342
92 2 3.96903 23.5682 10.0955
93 2 8.27751 23.5681 10.219
94 2 12.0149 23.5371 10.119
95 2 15.831 23.5793 10.3478
96 2 19.7461 23.7081 10.382
97 2 23.9457 23.6591 9.9425
98 2 27.6752 23.6856 10.1075
99 2 31.6469 23.7033 10.1939
100 2 35.7275 23.7203 9.97455
101 2 39.7253 23.6875 10.0275
102 2 43.3826 23.7315 10.1216
103 2 47.5889 23.837 10.148
104 2 51.5844 23.7154 9.97682
105 2 55.6014 23.6844 10.0726
106 2 0.0412231 27.8046 10.1471
107 2 4.18078 27.7259 10.1016
108 2 8.00919 27.4143 10.2344
109 2 11.9876 27.3925 10.2057
110 2 15.6782 27.5557 10.1401
111 2 19.8781 27.7694 10.2752
112 2 23.7097 27.7599 10.1547
113 2 27.8746 27.5674 10.1751
114 2 31.6544 27.5748 10.2285
115 2 35.9823 27.6825 10.1513
116 2 39.6762 27.6855 10.0513
117 2 43.6559 27.8039 10.089
118 2 47.5468 27.5991 10.0941
119 2 51.6534 27.7605 10.0123
120 2 55.6515 27.6033 10.0963
121 2 59.566 31.5147 10.078
122 2 4.05656 31.7245 10.0918
123 2 8.10953 31.7328 10.1827
124 2 11.7873 31.7874 10.032
125 2 15.9683 31.5844 10.1793
126 2 19.9581 31.6404 10.0223
127 2 24.0377 31.5319 10.0284
128 2 27.7431 31.6262 10.3109
129 2 31.7356 31.6398 10.4026
130 2 35.5666 31.6648 10.2622
131 2 39.6892 31.7264 10.2
132 2 43.7818 31.8899 10.0323
133 2 47.8514 31.5006 10.0971
134 2 51.6162 31.4902 10.1179
135 2 55.4744 31.7336 9.95549
136 2 59.4681 35.4293 10.111
137 2 3.89365 35.3768 10.1468
138 2 7.92289 35.5382 10.138
139 2 11.8797 35.6582 10.3744
140 2 15.79 35.7769 10.2223
141 2 19.8977 35.5094 10.2682
142 2 23.7973 35.4125 10.0961
143 2 27.8462 35.46 10.1324
144 2 31.826 35.6395 10.1361
145 2 35.6393 35.6771 10.1771
146 2 39.5407 35.6017 10.0687
147 2 43.6408 35.7009 10.0923
148 2 47.7754 35.5562 10.1048
149 2 51.6813 35.5912 10.1003
150 2 55.3717 35.7236 10.0649
151 2 0.163936 39.5077 10.0648
152 2 3.96704 39.4278 10.3817
153 2 7.91403 39.3489 10.1943
154 2 11.9585 39.6828 9.98291
155 2 15.7564 39.605 10.1068
156 2 19.9048 39.4325 10.0007
157 2 24.0362 39.4434 10.3016
158 2 27.8002 39.5649 10.1144
159 2 31.7087 39.667 10.0844
160 2 35.8141 39.4182 10.0526
161 2 39.6808 39.4767 10.3006
162 2 43.593 39.6406 10.2554
163 2 47.8348 39.582 10.0581
164 2 51.5146 39.6748 10.0916
165 2 55.4717 39.4188 10.1981
166 2 -0.140436 43.4155 9.99502
167 2 4.2799 43.2471 10.112
168 2 7.91321 43.4243 10.0351
169 2 11.8781 43.4966 10.3009
170 2 15.9164 43.4948 9.89198
171 2 19.8262 43.2624 10.2974
172 2 23.9481 43.5658 9.81835
173 2 27.6932 43.3482 10.1588
174 2 31.8688 43.6469 10.2273
175 2 35.7864 43.6038 10.0722
176 2 39.8121 43.5486 10.1277
177 2 43.7427 43.616 10.2739
178 2 47.4032 43.5251 10.1413
179 2 51.5509 43.4639 10.0173
180 2 55.4152 43.5103 10.0479
181 2 -0.017721 47.3798 10.0994
182 2 3.95976 47.5191 10.1979
183 2 8.07644 47.1885 10.1397
184 2 11.9572 47.3158 10.2446
185 2 15.7942 47.5111 10.1578
186 2 19.7426 47.2873 10.0429
187 2 23.8702 47.2391 10.2922
188 2 27.8459 47.5391 10.1783
189 2 31.9687 47.5755 10.0111
190 2 35.8055 47.5685 10.1044
191 2 39.756 47.5951 9.99339
192 2 43.702 47.4732 10.093
193 2 47.6028 47.3414 10.0417
194 2 51.4347 47.514 10.0213
195 2 55.4414 47.468 10.2217
196 2 59.5361 51.4178 10.1
197 2 4.17778 51.2945 9.93447
198 2 8.04756 51.3724 10.0633
199 2 11.7782 51.403 9.97669
200 2 16.1405 51.2764 10.0603
201 2 20.1165 51.3552 9.97548
202 2 23.9171 51.5273 10.1291
203 2 27.7049 51.4004 10.1616
204 2 31.8042 51.5041 9.93054
205 2 35.9359 51.3847 10.0013
206 2 39.9299 51.592 9.97858
207 2 43.718 51.551 9.96123
208 2 47.7153 51.5051 10.1669
209 2 51.5329 51.4508 10.2236
210 2 55.3594 51.3755 10.0801
211 2 59.6437 55.3119 10.1519
212 2 3.95207 55.3095 10.0656
213 2 7.9937 55.2835 10.1694
214 2 11.9728 55.2591 9.83707
215 2 16.005 55.256 10.0765
216 2 19.7862 55.2872 10.0088
217 2 23.7887 55.4503 9.86172
218 2 27.9704 55.6063 9.91313
219 2 32.0751 55.3142 9.91436
220 2 35.9299 55.5247 9.91249
221 2 39.6976 55.3999 10.0912
222 2 43.5433 55.5448 10.07
223 2 47.4767 55.4794 10.0951
224 2 51.4717 55.5003 9.93085
225 2 55.4555 55.5012 9.90536
226 2 0.0187718 0.00641111 14.0534
227 2 4.04804 0.197463 13.8087
228 2 7.9491 59.3695 14.0985
229 2 11.7815 -0.0649808 13.8819
230 2 16.0313 -0.154056 14.1154
231 2 19.8544 -0.103015 14.0859
232 2 23.9759 -0.117826 13.9537
233 2 27.7061 -0.028958 13.9555
234 2 31.5733 59.4513 14.2482
235 2 35.5744 59.3513 13.934
236 2 39.5575 59.4918 13.9576
237 2 43.635 59.4597 13.9132
238 2 47.6104 59.6272 14.0804
239 2 51.685 59.3236 14.0352
240 2 55.4596 59.1972 13.9793
241 2 0.0298603 4.00026 14.258
242 2 3.92779 3.87987 14.0534
243 2 8.00269 3.72652 14.1224
244 2 12.0605 3.71629 13.9917
245 2 15.9033 4.01733 14.1104
246 2 20.0013 3.77054 14.0479
247 2 23.9512 3.96195 13.9185
248 2 27.7406 4.11296 13.9827
249 2 31.548 3.87642 14.116
250 2 35.6756 3.86204 14.1259
251 2 39.5962 3.87751 14.087
252 2 43.5319 3.8478 14.1546
253 2 47.6664 4.11005 14.0677
254 2 51.6786 3.88669 13.8947
255 2 55.4726 3.95304 14.1189
256 2 -0.0607375 7.95881 13.9769
257 2 4.28599 7.98942 14.1595
258 2 8.19849 7.96894 14.0016
259 2 11.9442 7.82692 14.1515
260 2 16.0783 7.64581 13.9781
261 2 19.938 7.83036 14.1976
262 2 24.0007 7.8986 14.0051
263 2 27.8024 7.89529 14.0947
264 2 31.6947 7.94568 14.1
265 2 35.855 7.91439 13.9931
266 2 39.6656 7.8862 14.0248
267 2 43.7163 7.89254 14.042
268 2 47.6093 7.82152 13.9554
269 2 51.4944 7.85747 14.1902
270 2 55.4202 7.93526 14.1582
271 2 0.0996221 11.7468 14.0262
272 2 4.14421 11.8287 14.0107
273 2 7.99046 11.9714 14.056
274 2 12.1554 11.7479 14.0566
275 2 15.9473 11.7777 14.1017
276 2 19.652 11.7704 13.919
277 2 23.9132 11.8948 14.0397
278 2 27.8851 11.9394 14.0357
279 2 31.8843 11.7355 13.9648
280 2 35.6178 12.0126 14.1275
281 2 39.5771 11.7741 13.9334
282 2 43.5655 11.8743 14.0635
283 2 47.4832 11.8717 13.9003
284 2 51.3896 12.0099 14.2436
285 2 55.5885 12.0134 14.0848
286 2 0.287592 15.7701 13.9977
287 2 4.12982 15.9419 14.1268
288 2 8.36996 15.705 13.8794
289 2 12.1285 15.8432 14.0984
290 2 15.7506 15.9681 14.1859
291 2 19.7921 15.6279 14.1081
292 2 23.8739 15.7599 14.11
293 2 27.8666 15.9717 14.2614
294 2 31.8404 15.8545 14.0422
295 2 35.8566 15.9477 14.0506
296 2 39.6664 15.7798 14.0228
297 2 43.5199 15.8225 14.1075
298 2 47.3262 15.7895 14.1235
299 2 51.4529 15.8876 14.3397
300 2 55.405 16.0345 14.0349
301 2 0.128692 19.7609 14.1411
302 2 4.08675 19.744 14.2348
303 2 8.17632 19.7444 13.8603
304 2 11.8938 19.6098 14.133
305 2 15.9393 19.6176 14.1735
306 2 19.8881 19.8679 14.1339
307 2 23.7861 19.7028 14.1116
308 2 27.5884 19.6375 14.1804
309 2 31.8204 19.9186 13.8782
310 2 35.6711 19.9063 14.205
311 2 39.5913 19.7816 13.9948
312 2 43.6274 19.6341 13.8863
313 2 47.4244 19.8853 14.0131
314 2 51.4063 19.6478 14.0552
315 2 55.6189 19.7776 13.9229
316 2 0.166395 23.6927 14.1362
317 2 4.04405 23.7781 14.1735
318 2 7.9429 23.6192 14.195
319 2 11.827 23.6138 14.1195
320 2 15.853 23.7666 13.9414
321 2 19.7986 23.9313 14.1181
322 2 23.7926 23.7202 14.1319
323 2 27.7266 23.711 13.9919
324 2 31.6496 23.8586 13.9973
325 2 35.8158 23.7015 14.1484
326 2 39.6614 23.7217 13.9018
327 2 43.5067 23.666 14.1374
328 2 47.6414 23.7088 14.2448
329 2 51.5624 23.7549 14.0682
330 2 55.4168 23.615 14.0944
331 2 0.19454 27.5576 14.0257
332 2 4.1803 27.6603 14.0531
333 2 8.17794 27.5891 14.0934
334 2 11.9191 27.8525 14.2372
335 2 15.9131 27.6469 13.991
336 2 19.7 27.7328 14.1241
337 2 23.9032 27.4477 13.9868
338 2 27.6502 27.6019 14.1449
339 2 31.6049 27.5947 14.2926
340 2 35.5351 27.6055 14.0793
341 2 39.6575 27.9147 14.1137
342 2 43.6777 27.7308 14.0836
343 2 47.4177 27.7701 14.0093
344 2 51.6484 27.7645 14.1118
345 2 55.5125 27.5507 14.0854
346 2 59.3736 31.4867 14.1803
347 2 4.11959 31.8765 13.9787
348 2 8.01279 31.4744 13.894
349 2 12.008 31.6972 14.0189
350 2 16.0108 31.6888 14.1709
351 2 19.8541 31.6644 14.1842
352 2 23.9051 31.614 14.1053
353 2 27.5682 31.5824 14.1489
354 2 31.7762 31.722 14.1102
355 2 35.7611 31.7532 13.9226
356 2 39.6218 31.7883 13.9332
357 2 43.7131 31.6173 13.9638
358 2 47.5169 31.6805 14.1957
359 2 51.6449 31.7848 14.1249
360 2 55.4728 31.4542 14.1449
361 2 0.0969295 35.6226 14.184
362 2 4.11808 35.6199 14.0989
363 2 8.02431 35.8039 14.179
364 2 11.9174 35.5333 14.1748
365 2 16.0294 35.6152 14.1314
366 2 19.9599 35.476 14.0778
367 2 23.9061 35.6228 14.1261
368 2 27.8162 35.5503 14.0401
369 2 31.8379 35.6237 14.1087
370 2 35.8315 35.5533 14.1548
371 2 39.7944 35.5001 14.1643
372 2 43.8425 35.7795 14.0177
373 2 47.6773 35.4669 14.1032
374 2 51.5798 35.4432 14.2223
375 2 55.5611 35.5203 14.0394
376 2 -0.0891155 39.5145 14.2825
377 2 3.95059 39.5833 14.0724
378 2 8.0065 39.5448 14.1898
379 2 11.933 39.5489 14.1697
380 2 15.9223 39.7487 14.1036
381 2 20.1132 39.7167 13.9239
382 2 23.9967 39.5172 14.1034
383 2 27.8931 39.6345 14.2837
384 2 31.8943 39.5819 14.0369
385 2 35.8462 39.716 14.1495
386 2 39.6264 39.5434 14.222
387 2 43.6256 39.6898 14.2538
388 2 47.6766 39.3784 14.2111
389 2 51.6952 39.6345 14.1441
390 2 55.7473 39.696 13.9357
391 2 0.0289775 43.4152 14.1123
392 2 3.99476 43.5133 14.0514
393 2 7.94781 43.5147 14.1022
394 2 12.1588 43.5393 14.0929
395 2 16.0179 43.4235 14.0716
396 2 19.9677 43.4366 14.0732
397 2 23.9451 43.5278 14.1191
398 2 27.8856 43.6836 14.1531
399 2 31.9326 43.5115 13.9834
400 2 35.7115 43.5485 14.0499
401 2 39.7858 43.5002 14.1788
402 2 43.6051 43.5411 14.2698
403 2 47.5184 43.4567 14.0951
404 2 51.4739 43.6493 14.159
405 2 55.3936 43.5317 14.0951
406 2 0.211477 47.374 14.0512
407 2 3.938 47.6551 14.1446
408 2 7.96476 47.6902 14.0416
409 2 12.052 47.4676 13.9568
410 2 16.0015 47.5778 14.0911
411 2 20.0219 47.4777 14.0421
412 2 23.7762 47.5284 14.2627
413 2 27.8794 47.6246 14.0716
414 2 31.745 47.5189 13.7678
415 2 35.688 47.5113 13.9693
416 2 39.8633 47.4092 14.0397
417 2 43.6446 47.5587 14.2117
418 2 47.6657 47.5034 14.0725
419 2 51.3878 47.4404 13.8998
420 2 55.591 47.5194 13.8585
421 2 0.192173 51.4615 14.0558
422 2 3.98311 51.4755 14.0823
423 2 8.17188 51.5776 14.1319
424 2 11.9375 51.4395 13.795
425 2 15.8671 51.5148 14.027
426 2 20.0684 51.3829 13.8515
427 2 23.753 51.2613 13.9814
428 2 27.9713 51.4453 14.0931
429 2 31.7213 51.5471 14.0822
430 2 35.7329 51.2889 13.9702
431 2 39.6935 51.3765 14.1916
432 2 43.7682 51.4991 13.9154
433 2 47.5215 51.591 14.02
434 2 51.4384 51.5075 14.1273
435 2 55.6729 51.3943 14.2312
436 2 59.3887 55.5195 13.982
437 2 3.79952 55.3551 13.9868
438 2 7.98079 55.5108 14.1439
439 2 12.1015 55.4009 13.9714
440 2 15.9875 55.3541 14.0097
441 2 19.8627 55.4413 13.8922
442 2 23.8892 55.274 14.1804
443 2 28.0503 55.3557 13.9272
444 2 31.7319 55.4256 13.916
445 2 35.587 55.6236 13.9583
446 2 39.6906 55.5097 14.2141
447 2 43.5991 55.3673 14.2279
448 2 47.4342 55.447 14.121
449 2 51.429 55.4374 14.1991
450 2 55.5265 55.4698 13.8408
451 2 0.0600164 0.145943 17.991
452 2 3.96098 0.0543447 18.0206
453 2 7.82371 59.2303 18.1016
454 2 12.0554 0.0274076 18.1235
455 2 15.8926 0.246435 18.1347
456 2 19.6307 -0.105676 18.0684
457 2 24.0391 -0.0258166 18.0639
458 2 27.8666 0.00284432 17.8837
459 2 31.6535 0.123314 18.0567
460 2 35.6437 59.4349 17.9224
461 2 39.4806 0.070114 17.8008
462 2 43.5632 0.128352 18.1056
463 2 47.6141 59.5023 17.9826
464 2 51.6488 59.3508 18.1709
465 2 55.572 59.4708 18.0773
466 2 0.0420043 4.02219 17.9448
467 2 4.05713 4.0652 17.8548
468 2 8.1982 3.78746 17.8559
469 2 11.9123 3.97221 18.0258
470 2 15.7595 3.78894 18.2154
471 2 20.0377 3.90729 17.9444
472 2 23.9914 3.88454 17.9492
473 2 27.8306 3.95331 18.1207
474 2 31.8907 3.95087 17.8162
475 2 35.6894 4.00466 18.1784
476 2 39.5752 3.76775 18.0807
477 2 43.6289 3.99082 18.0584
478 2 47.6375 4.09886 18.0254
479 2 51.4354 4 18.0376
480 2 55.3146 4.0085 17.8856
481 2 0.194402 7.98481 18.0727
482 2 4.20292 7.74655 17.8522
483 2 8.07817 7.85761 17.8457
484 2 12.0017 8.01303 18.1324
485 2 15.863 7.85819 18.0871
486 2 20.0223 7.932 18.1436
487 2 23.8162 7.99026 17.9585
488 2 27.7953 7.84415 17.9068
489 2 31.6624 7.92581 18.0633
490 2 35.7643 8.15899 17.9478
491 2 39.525 7.96058 18.0953
492 2 43.6607 8.05106 18.0461
493 2 47.6282 8.20791 17.961
494 2 51.4185 8.06962 17.9738
495 2 55.5391 8.00351 18.0548
496 2 0.166767 12.042 18.2307
497 2 4.04612 11.9406 18.1178
498 2 8.11627 11.8133 18.0197
499 2 11.9922 11.8695 17.9378
500 2 15.9706 11.9205 18.0093
501 2 19.813 11.8057 18.1687
502 2 23.9342 12.0166 18.1094
503 2 27.7583 12.0164 17.9449
504 2 31.6976 11.7893 17.8643
505 2 35.7584 12.1245 17.9721
506 2 39.6748 12.1845 17.9835
507 2 43.7153 11.9554 18.1294
508 2 47.6659 12.0971 18.0065
509 2 51.6748 11.9511 18.0894
510 2 55.5085 11.9828 18.0723
511 2 0.232098 16.0121 17.997
512 2 4.03968 15.9847 18.0604
513 2 7.95064 15.8393 17.9806
514 2 11.875 15.7859 18.0813
515 2 16.0683 16.0464 17.9774
516 2 19.7683 15.8009 18.0676
517 2 23.5624 15.7131 18.1341
518 2 27.8267 15.8286 18.1369
519 2 31.8443 16.0193 18.1728
520 2 35.6862 16.0277 18.0048
521 2 39.6813 16.0356 18.0883
522 2 43.6246 15.9591 18.1257
523 2 47.6149 16.1358 18.0555
524 2 51.4941 15.8104 18.1436
525 2 55.4882 15.7635 18.0711
526 2 0.0349673 19.6509 18.182
527 2 4.12483 19.5835 18.0984
528 2 7.98619 19.9237 18.0363
529 2 11.8157 19.7891 18.0093
530 2 15.7687 19.9077 18.0338
531 2 19.7727 19.8586 18.0284
532 2 23.6676 19.9603 17.9959
533 2 27.5842 19.6669 18.222
534 2 31.6808 19.8027 17.9826
535 2 35.7414 19.8186 18.034
536 2 39.6809 19.8953 18.0807
537 2 43.7478 19.7715 18.1419
538 2 47.5896 20.0664 18.2128
539 2 51.6141 19.7513 17.9584
540 2 55.519 19.61 18.1562
541 2 0.226538 23.6715 18.1127
542 2 4.1715 23.8077 18.1705
543 2 7.98273 23.7712 18.0735
544 2 12.0161 23.9919 18.1558
545 2 15.8422 23.9379 18.0775
546 2 19.8602 23.9602 18.2175
547 2 23.6734 23.7488 18.1994
548 2 27.7634 23.5551 18.1309
549 2 31.6197 23.8456 18.0215
550 2 35.4973 23.8472 18.002
551 2 39.6302 23.7799 17.994
552 2 43.6569 23.652 17.9204
553 2 47.7836 23.832 18.0881
554 2 51.7354 23.7135 17.9228
555 2 55.4398 23.8614 18.1987
556 2 0.133774 27.7309 18.175
557 2 4.19727 27.8031 18.0659
558 2 8.14632 27.8985 18.1351
559 2 12.0066 28.0273 18.0233
560 2 16.0198 27.722 18.0631
561 2 19.8811 27.8554 17.9837
562 2 23.8879 27.6756 18.0478
563 2 27.7814 27.8839 18.0824
564 2 31.654 27.7004 18.1796
565 2 35.5708 27.8595 18.0332
566 2 39.7263 27.8022 18.0515
567 2 43.547 27.7532 18.2013
568 2 47.538 27.6141 18.0943
569 2 51.47 27.8364 18.2432
570 2 55.5119 27.7571 18.2588
571 2 0.126925 31.5362 17.9558
572 2 3.95094 31.7545 18.0855
573 2 8.0032 31.521 18.0857
574 2 12.1019 31.9049 18.1602
575 2 16.1634 31.7708 18.0111
576 2 19.942 31.8045 18.2293
577 2 23.8204 31.6269 18.2929
578 2 27.7814 31.7906 18.029
579 2 31.8432 31.6205 17.988
580 2 35.8501 31.7247 18.1929
581 2 39.7987 31.6191 17.9244
582 2 43.4398 31.8547 17.9395
583 2 47.6426 31.6764 18.0711
584 2 51.5091 31.6074 18.0108
585 2 55.5112 31.5559 18.03
586 2 0.277492 35.6701 18.1067
587 2 4.05942 35.6884 18.1042
588 2 7.98501 35.8774 18.0701
589 2 11.9716 35.7168 18.039
590 2 15.8007 35.9152 18.1489
591 2 19.9336 35.7784 17.9278
592 2 23.7595 35.6118 18.0411
593 2 27.9712 35.7013 18.0064
594 2 31.9373 35.6689 18.0026
595 2 35.6791 35.7205 18.1476
596 2 39.769 35.756 18.0075
597 2 43.7194 35.7768 17.9681
598 2 47.7815 35.6541 18.2228
599 2 51.7586 35.8508 18.1708
600 2 55.6023 35.641 18.2784
601 2 0.164466 39.7317 18.222
602 2 3.89777 39.8048 18.0609
603 2 7.9063 39.7457 18.0155
604 2 11.9332 39.7255 18.0598
605 2 15.8709 39.6797 18.0336
606 2 19.9679 39.5476 18.0155
607 2 23.8629 39.654 18.1305
608 2 27.8778 39.6173 18.1674
609 2 31.8713 39.6913 18.252
610 2 35.7535 39.7771 18.0272
611 2 39.676 39.5349 18.172
612 2 43.7241 39.511 18.1574
613 2 47.6804 39.5245 18.0491
614 2 51.6 39.6333 18.1187
615 2 55.7956 39.5761 17.8929
616 2 0.0723041 43.7574 18.01
617 2 4.13652 43.7547 17.876
618 2 7.8899 43.4766 18.0819
619 2 12.0905 43.682 17.9203
620 2 15.9818 43.5464 18.1636
621 2 20.0757 43.5516 18.0741
622 2 23.781 43.6949 18.0945
623 2 27.8058 43.4968 18.1259
624 2 31.7544 43.8589 18.0217
625 2 35.8023 43.6917 18.1526
626 2 39.8076 43.5738 18.0847
627 2 43.7854 43.7648 18.1466
628 2 47.7283 43.5473 18.0788
629 2 51.5763 43.5538 18.2593
630 2 55.5988 43.6756 17.9507
631 2 59.3445 47.4585 17.9756
632 2 3.91496 47.6958 18.1046
633 2 8.105 47.5757 18.0444
634 2 11.9474 47.2567 18.0364
635 2 15.912 47.5509 17.9818
636 2 19.827 47.471 18.0295
637 2 23.958 47.5362 18.0359
638 2 27.871 47.4259 18.0563
639 2 31.7662 47.6157 17.9256
640 2 35.8677 47.5111 17.952
641 2 39.7947 47.5473 18.0528
642 2 43.7414 47.6859 18.1827
643 2 47.5526 47.6872 18.0459
644 2 51.5724 47.5832 18.089
645 2 55.2801 47.7833 17.9159
646 2 0.0615907 51.5644 18.0754
647 2 4.04734 51.5123 18.1382
648 2 8.09764 51.4213 17.9669
649 2 12.0692 51.4787 17.9732
650 2 16.1431 51.5264 17.875
651 2 19.976 51.4474 18.1028
652 2 23.9341 51.4078 17.8968
653 2 27.929 51.4429 17.9402
654 2 31.8291 51.5004 18.0342
655 2 35.7521 51.3777 17.9959
656 2 39.7433 51.5601 17.9209
657 2 43.6324 51.4742 18.2638
658 2 47.5651 51.5696 18.0594
659 2 51.4234 51.5956 17.9603
660 2 55.6075 51.5987 18.1381
661 2 0.000553848 55.5942 17.8329
662 2 3.92992 55.5341 17.9182
663 2 8.1324 55.4126 17.9846
664 2 11.9287 55.4386 18.1279
665 2 15.8199 55.274 18.0139
666 2 19.9684 55.5264 17.9765
667 2 23.808 55.3538 17.9684
668 2 27.881 55.4577 18.0011
669 2 31.8346 55.4768 17.9995
670 2 35.7162 55.2249 17.7671
671 2 39.7445 55.5235 17.99
672 2 43.6253 55.57 17.9782
673 2 47.4605 55.375 18.1606
674 2 51.3706 55.5723 18.0832
675 2 55.6302 55.3471 17.9129
676 2 59.3866 59.4234 22.0295
677 2 4.03207 0.0707286 21.9908
678 2 7.89033 0.178149 21.9264
679 2 11.9546 59.2966 22.1845
680 2 15.7445 0.160081 21.9888
681 2 19.7426 -0.0124681 22.1513
682 2 23.9691 0.19682 22.1019
683 2 27.7396 59.2987 22.095
684 2 31.7246 0.0776799 21.9146
685 2 35.5826 59.1585 22.0091
686 2 39.48 0.24271 22.0073
687 2 43.5183 0.284342 21.907
688 2 47.3534 -0.0350441 21.9866
689 2 51.5044 -0.0547813 21.9284
690 2 55.4501 0.1532 21.944
691 2 -0.0506884 3.95371 21.9283
692 2 4.05791 3.9957 21.8223
693 2 7.9467 3.97266 21.8011
694 2 11.8041 3.98203 22.0868
695 2 15.8732 3.99733 22.1774
696 2 20.0243 3.97941 21.9607
697 2 23.8268 3.97081 21.9819
698 2 27.8468 4.0643 21.7622
699 2 31.7968 4.04443 22.0724
700 2 35.7483 3.97777 22.0844
701 2 39.4184 4.15701 21.9071
702 2 43.4899 4.2494 21.9033
703 2 47.6956 4.04974 21.9885
704 2 51.4476 3.88598 22.0106
705 2 55.3868 4.13709 22.2085
706 2 59.4835 7.99996 22.0229
707 2 4.07082 8.1444 21.9999
708 2 7.84278 7.94544 22.0956
709 2 11.8243 8.0132 21.8484
710 2 16.0087 7.76965 22.0867
711 2 19.8777 7.94599 21.9777
712 2 23.8796 7.91459 22.0664
713 2 27.8481 8.0048 22.1567
714 2 31.7288 8.09605 22.1148
715 2 35.555 8.12101 21.9389
716 2 39.7071 8.04139 22.1684
717 2 43.6612 8.15627 21.9301
718 2 47.5587 7.8919 22.0338
719 2 51.6716 8.05635 22.0978
720 2 55.5121 7.80804 22.0577
721 2 0.111161 11.8334 22.1158
722 2 4.19098 11.952 22.0614
723 2 7.91393 11.8874 21.8918
724 2 12.0729 11.9261 22.0293
725 2 16.0465 11.9029 22.0912
726 2 19.8491 11.8925 22.0698
727 2 23.7708 11.9444 22.2264
728 2 27.8295 12.1044 21.9775
729 2 31.7447 12.0598 21.9977
730 2 35.7665 11.9973 22.0876
731 2 39.5568 12.0759 22.0574
732 2 43.6175 11.9554 21.8993
733 2 47.6429 11.9005 22.2331
734 2 51.7019 11.9256 22.1124
735 2 55.4671 12.0151 22.0877
736 2 0.246022 15.9577 22.2008
737 2 4.33274 15.7811 21.9478
738 2 8.09459 15.9813 22.0641
739 2 11.9148 15.9484 21.9248
740 2 15.9451 16.0648 21.9609
741 2 19.8936 16.0575 22.0784
742 2 23.7204 15.8844 22.2494
743 2 27.531 15.9092 22.0164
744 2 31.6689 16.0372 22.0437
745 2 35.6211 16.0742 21.9845
746 2 39.7485 15.9131 21.9833
747 2 43.5328 15.9268 22.0783
748 2 47.5735 15.9598 22.1446
749 2 51.4495 15.8388 22.2888
750 2 55.4736 15.8292 22.0252
751 2 0.024192 19.9517 22.193
752 2 4.01114 19.8759 22.0627
753 2 8.04104 19.8119 22.0724
754 2 11.8563 19.8143 22.0383
755 2 15.9043 19.9557 21.9954
756 2 19.6821 19.9272 22.0577
757 2 23.9544 19.5284 22.0683
758 2 27.6207 20.0193 22.2445
759 2 31.6717 19.9962 22.1662
760 2 35.8716 19.7974 22.0578
761 2 39.8217 19.8257 22.0115
762 2 43.6948 20.0316 21.9795
763 2 47.5539 19.9435 22.1636
764 2 51.6819 19.8468 21.7871
765 2 55.4804 19.9401 22.2623
766 2 0.0986876 23.8091 22.1326
767 2 4.17039 23.939 22.1898
768 2 7.90109 23.6516 22.1716
769 2 11.9528 23.7673 21.9604
770 2 15.8899 23.7986 21.9271
771 2 19.6271 23.9392 22.087
772 2 23.919 24.0264 22.2376
773 2 27.8381 23.7956 21.9825
774 2 31.8976 23.8229 22.0355
775 2 35.8287 23.8708 21.7481
776 2 39.4415 23.9976 21.9779
777 2 43.4091 23.7726 22.1749
778 2 47.8788 23.7617 21.9689
779 2 51.509 23.6984 22.0552
780 2 55.6255 23.791 22.0126
781 2 -0.0368669 27.7546 22.2204
782 2 4.07493 27.9233 21.9321
783 2 7.88979 27.6554 22.1095
784 2 11.7916 27.8661 21.9056
785 2 15.8394 27.8741 22.0052
786 2 20.1432 27.764 22.0618
787 2 23.9403 27.7066 21.9731
788 2 27.8587 27.8301 21.9532
789 2 31.7641 27.7964 22.1582
790 2 35.6941 27.9789 22.169
791 2 39.6328 27.6645 22.0212
792 2 43.7921 27.7015 21.9829
793 2 47.4729 27.6237 22.0633
794 2 51.6067 27.6937 22.1131
795 2 55.4688 27.8208 22.0406
796 2 59.5436 31.6984 22.0658
797 2 3.96899 31.8425 22.0261
798 2 7.93217 31.9565 21.9764
799 2 11.8835 31.799 22.1342
800 2 16.0061 31.7287 22.0185
801 2 19.9413 31.9567 21.8758
802 2 23.8751 31.6635 22.3596
803 2 27.6754 31.7876 21.9221
804 2 31.7152 31.6993 22.096
805 2 35.8545 31.8036 21.8541
806 2 39.6509 31.7221 21.972
807 2 43.6697 31.7504 22.0322
808 2 47.5277 31.7143 21.975
809 2 51.721 31.6344 21.8606
810 2 55.6345 31.7067 22.0738
811 2 0.270956 35.8195 22.1239
812 2 3.99402 35.6535 21.877
813 2 8.05455 35.8165 22.0897
814 2 11.953 35.8134 21.8938
815 2 15.8046 35.7207 22.3136
816 2 20.0074 35.8918 21.9967
817 2 23.935 35.8445 22.0014
818 2 27.8604 35.8552 22.0075
819 2 31.8215 35.5196 22.1783
820 2 36.0582 35.7767 22.08
821 2 39.7807 35.6328 22.145
822 2 43.6312 35.5321 22.0141
823 2 47.5485 35.5905 22.0737
824 2 51.632 35.6641 22.1562
825 2 55.6781 35.5974 22.0153
826 2 0.111975 39.7223 22.0182
827 2 4.17436 39.6055 22.041
828 2 7.96227 39.7273 21.9257
829 2 12.101 39.7482 21.8508
830 2 15.9412 39.6862 22.1678
831 2 20.1121 39.8014 22.0964
832 2 23.7759 39.5762 22.2841
833 2 27.9668 39.6383 21.8845
834 2 31.7967 39.6519 22.0767
835 2 35.9492 39.6462 21.962
836 2 39.9233 39.6278 22.1522
837 2 43.8536 39.6175 22.2053
838 2 47.6214 39.8293 22.317
839 2 51.7559 39.638 22.1162
840 2 55.5018 39.6517 22.1638
841 2 59.4616 43.7822 21.9974
842 2 3.87606 43.7956 21.9621
843 2 7.85964 43.648 22.1666
844 2 11.9754 43.6757 21.8402
845 2 15.8389 43.5983 22.0718
846 2 19.8466 43.6161 22.1872
847 2 23.7105 43.4243 22.011
848 2 27.7471 43.7077 22.0876
849 2 31.8356 43.7143 21.9978
850 2 35.7627 43.7827 22.115
851 2 39.6768 43.5959 22.0054
852 2 43.5332 43.7107 22.0464
853 2 47.7701 43.5821 22.1579
854 2 51.5543 43.6274 21.8963
855 2 55.4323 43.4451 22.0364
856 2 59.3414 47.6896 21.8478
857 2 4.12806 47.5985 21.863
858 2 8.14691 47.6365 22.1037
859 2 12.1371 47.622 21.8812
860 2 15.933 47.5788 21.968
861 2 19.8733 47.4421 22.0448
862 2 23.6913 47.6349 22.1202
863 2 27.707 47.4566 22.1495
864 2 31.7387 47.5825 21.9991
865 2 35.673 47.4922 22.0877
866 2 39.7418 47.5987 22.1876
867 2 43.8039 47.6009 22.058
868 2 47.4895 47.4211 22.0822
869 2 51.3987 47.7129 21.9785
870 2 55.3289 47.5666 22.0521
871 2 0.200269 51.4439 22.1849
872 2 4.03237 51.6387 22.0626
873 2 7.89287 51.2992 22.0828
874 2 12.2685 51.4226 21.9376
875 2 16.1358 51.4901 21.8976
876 2 19.9323 51.6382 21.7831
877 2 23.8387 51.4125 21.9222
878 2 27.8977 51.6436 22.069
879 2 31.7261 51.6492 21.9409
880 2 35.5811 51.4769 22.2452
881 2 39.6903 51.4753 22.0969
882 2 43.4665 51.5828 22.058
883 2 47.6917 51.5615 22.1036
884 2 51.6045 51.4845 22.063
885 2 55.5134 51.4624 22.0451
886 2 0.19505 55.5763 21.978
887 2 4.04829 55.4201 21.9607
888 2 7.76941 55.4191 22.0624
889 2 11.8122 55.3895 21.9628
890 2 15.8818 55.445 22.1004
891 2 19.927 55.6377 22.0449
892 2 23.7249 55.3375 22.0215
893 2 27.6096 55.4565 21.7801
894 2 31.7716 55.5896 22.0392
895 2 35.7706 55.4008 22.0965
896 2 39.5276 55.3181 22.1264
897 2 43.3734 55.5827 22.0077
898 2 47.5054 55.6348 22.1777
899 2 51.6001 55.4859 22.1291
900 2 55.6621 55.427 22.0115
901 2 0.167217 59.4217 25.9677
902 2 3.97127 0.0700642 26.0183
903 2 7.92784 0.147373 26.0233
904 2 12.0164 59.3146 26.0568
905 2 15.898 59.4913 26.0136
906 2 19.9334 0.0522239 26.052
907 2 23.6691 0.0410212 25.9756
908 2 27.5944 0.210496 26.0621
909 2 31.4936 0.201431 25.9909
910 2 35.5061 0.036121 25.9848
911 2 39.4225 -0.0569506 26.0016
912 2 43.3267 -0.0261912 25.8599
913 2 47.4903 59.3111 26.0077
914 2 51.4363 -0.0137276 26.0924
915 2 55.3615 0.12906 26.0662
916 2 0.164848 4.07506 25.9918
917 2 4.18252 4.15604 25.9014
918 2 8.11653 3.88924 25.9815
919 2 12.0495 3.84769 26.1104
920 2 15.8066 4.02971 25.9194
921 2 20.0454 3.99196 25.9442
922 2 23.8121 4.13912 25.9988
923 2 28.0084 4.02696 25.9598
924 2 31.7173 3.94767 26.2576
925 2 35.7017 4.00395 25.9612
926 2 39.7616 4.01988 26.066
927 2 43.5852 4.09299 26.0531
928 2 47.694 3.83521 25.9119
929 2 51.5091 3.89041 26.028
930 2 55.5083 4.03492 26.1056
931 2 0.135386 8.18036 25.9108
932 2 4.06462 8.01606 26.0809
933 2 8.07859 7.88104 26.0655
934 2 11.9523 7.93127 25.8326
935 2 16.0169 7.85865 25.9191
936 2 20.0087 7.85089 25.952
937 2 23.9847 8.01243 26.0373
938 2 27.9049 8.08503 25.9146
939 2 31.8816 8.03227 25.9448
940 2 35.635 7.90488 26.0824
941 2 39.6891 8.02984 26.0517
942 2 43.7422 8.09763 26.0439
943 2 47.5846 7.89811 26.0661
944 2 51.6102 7.96389 26.0723
945 2 55.725 7.89767 26.1225
946 2 59.4443 11.9847 26.0634
947 2 4.07672 12.0114 26.118
948 2 8.22925 11.9489 26.0475
949 2 12.0938 12.021 25.9766
950 2 15.9671 11.9767 25.8318
951 2 19.9053 12.0708 25.8952
952 2 23.7265 12.0565 25.9751
953 2 27.8558 11.9122 25.9972
954 2 31.7142 12.0381 25.969
955 2 35.7197 12.0193 25.9572
956 2 39.6537 11.9832 26.0332
957 2 43.5356 12.172 25.9008
958 2 47.577 11.8267 25.9701
959 2 51.5486 12.0826 26.161
960 2 55.4543 11.8619 25.9843
961 2 59.4664 15.8634 25.9787
962 2 4.15352 15.7287 26.0645
963 2 8.04349 15.9517 26.02
964 2 12.0096 15.6726 25.9159
965 2 15.917 15.9886 25.9691
966 2 19.7182 15.9297 26.2544
967 2 23.8071 15.9219 26.2133
968 2 27.8597 16.012 26.178
969 2 31.8083 15.8415 26.0414
970 2 35.8272 15.952 26.2125
971 2 39.8591 16.1268 25.9184
972 2 43.6854 15.9048 26.1473
973 2 47.5532 16.2094 26.1863
974 2 51.4397 15.9295 26.0131
975 2 55.6653 16.145 26.0972
976 2 0.239234 19.7423 26.0219
977 2 4.02612 19.8085 26.0326
978 2 8.07128 19.7996 26.0064
979 2 12.0228 19.7961 26.2501
980 2 15.9566 19.7075 26.1055
981 2 19.7915 20.0421 25.8797
982 2 23.6385 19.8889 26.0064
983 2 27.9087 19.9987 26.0016
984 2 31.8111 19.772 26.0472
985 2 35.7677 19.9324 26.0757
986 2 39.5995 19.9723 26.0144
987 2 43.4776 19.9529 25.9969
988 2 47.5885 19.9506 26.0591
989 2 51.7404 19.9145 25.9439
990 2 55.7232 19.8423 26.0054
991 2 0.0417883 23.7811 26.1081
992 2 4.22846 23.8299 26.1223
993 2 8.00818 23.7734 26.1504
994 2 11.9552 24.1361 26.0084
995 2 15.7028 24.1264 25.8078
996 2 19.7796 24.0323 25.9995
997 2 23.6165 23.8083 26.0105
998 2 27.7637 23.7599 25.9374