ITEM: TIMESTEP
34300
ITEM: NUMBER OF ATOMS
28125
ITEM: BOX BOUNDS xy xz yz pp pp pp
0.0000000000000000e+00 5.9369999999999997e+01 0.0000000000000000e+00
0.0000000000000000e+00 5.9369999999999997e+01 0.0000000000000000e+00
7.4776088237030081e-02 9.9425223911762700e+01 0.0000000000000000e+00
ITEM: ATOMS id type x y z
1 2 0.0346224 -0.120374 0.474219
2 2 3.95225 0.00532308 0.422351
3 2 8.08089 0.0454057 0.34345
4 2 11.8793 -0.203832 0.38132
5 2 15.9773 -0.206921 0.388337
6 2 20.0138 0.0105185 0.372496
7 2 23.8808 -0.190718 0.152689
8 2 27.826 0.00035267 0.16801
9 2 31.7453 -0.154025 0.307291
10 2 35.5787 -0.0486239 0.443046
11 2 39.568 59.2278 0.418962
12 2 43.5085 -0.135109 0.337398
13 2 47.7352 -0.0383818 0.392606
14 2 51.4749 -0.250279 0.269863
15 2 55.3149 59.3401 0.377627
16 2 -0.0532382 3.82914 0.448595
17 2 3.85187 3.90493 0.307211
18 2 7.99979 3.63992 0.216268
19 2 11.9404 3.66981 0.281305
20 2 15.8791 3.67326 0.29202
21 2 19.6718 3.79352 0.379137
22 2 23.7654 3.73327 0.31593
23 2 27.5701 3.87212 0.468285
24 2 31.6582 3.82502 0.29105
25 2 35.725 3.79812 0.317507
26 2 39.4321 3.69035 0.0192347
27 2 43.4883 3.75831 0.395629
28 2 47.2666 3.69473 0.321388
29 2 51.5322 3.83535 0.518359
30 2 55.585 3.66565 0.202104
31 2 -0.00809661 7.83128 0.105187
32 2 4.08799 7.68586 0.327666
33 2 8.04118 7.79337 0.461048
34 2 11.9511 7.85207 0.384146
35 2 15.6184 7.87082 0.298382
36 2 19.8892 7.80299 0.46354
37 2 23.6419 7.81567 0.353799
38 2 27.8503 7.83746 0.365688
39 2 31.76 7.78316 0.209972
40 2 35.7749 7.89948 0.512575
41 2 39.6079 7.69069 0.341474
42 2 43.8056 7.76536 0.257418
43 2 47.6536 7.67903 0.241908
44 2 51.617 7.79301 0.143818
45 2 55.5335 7.70944 0.378227
46 2 59.2286 11.7429 0.339293
47 2 3.75774 11.7869 0.299433
48 2 7.86501 11.673 0.254483
49 2 11.7585 11.7155 0.369026
50 2 15.8274 11.8057 0.412154
51 2 19.8298 11.6907 0.282035
52 2 23.8222 11.9094 0.405994
53 2 27.9088 11.9316 0.408619
54 2 31.8391 11.7753 0.45664
55 2 35.6423 11.831 0.449608
56 2 39.6607 11.7353 0.287419
57 2 43.5847 11.8114 0.327153
58 2 47.5135 11.7513 0.310552
59 2 51.4904 11.703 0.319518
60 2 55.7279 11.779 0.306134
61 2 -0.11678 15.751 0.353226
62 2 3.87741 15.5971 0.28535
63 2 7.97851 15.5599 0.253358
64 2 11.9244 15.6526 0.460518
65 2 15.7587 15.5016 0.474899
66 2 19.8012 15.6621 0.297313
67 2 23.7523 15.9786 0.542322
68 2 27.7686 15.7284 0.354595
69 2 31.4739 15.5554 0.370993
70 2 35.8286 15.745 0.223912
71 2 39.7132 15.7703 0.480386
72 2 43.6368 15.5299 0.308645
73 2 47.5402 15.7155 0.193091
74 2 51.363 15.5409 0.296483
75 2 55.3205 15.8254 0.41326
76 2 59.394 19.7772 0.298589
77 2 4.05092 19.6316 0.438639
78 2 7.92064 19.5337 0.208449
79 2 11.9084 19.7296 0.242296
80 2 15.8409 19.5595 0.500681
81 2 19.6975 19.5475 0.263171
82 2 23.6829 19.738 0.504355
83 2 27.5853 19.7424 0.415396
84 2 31.6107 19.7174 0.313117
85 2 35.6347 19.6712 0.330521
86 2 39.7393 19.629 0.317099
87 2 43.4963 19.7165 0.231447
88 2 47.5169 19.6481 0.257713
89 2 51.4981 19.7156 0.373643
90 2 55.5325 19.6895 0.315439
91 2 0.0418067 23.6961 0.337317
92 2 4.01375 23.5804 0.292216
93 2 7.99009 23.5723 0.32132
94 2 11.7478 23.4453 0.548085
95 2 15.8234 23.4618 0.42326
96 2 19.8053 23.5885 0.298994
97 2 23.7383 23.5912 0.301183
98 2 27.7527 23.69 0.2421
99 2 31.6433 23.7262 0.428929
100 2 35.5712 23.5244 0.384926
101 2 39.6439 23.6426 0.434417
102 2 43.6215 23.4266 0.398647
103 2 47.5603 23.6386 0.255645
104 2 51.5174 23.7448 0.449497
105 2 55.5328 23.6887 0.182482
106 2 -0.0613542 27.7109 0.298897
107 2 3.94132 27.4615 0.258903
108 2 7.896 27.5105 0.213078
109 2 11.9837 27.4969 0.327049
110 2 15.9411 27.4253 0.278946
111 2 19.9586 27.4883 0.44206
112 2 23.5729 27.7846 0.145594
113 2 27.8486 27.5384 0.381152
114 2 31.6248 27.5697 0.372405
115 2 35.7259 27.4709 0.339669
116 2 39.6717 27.516 0.450484
117 2 43.6706 27.6099 0.59673
118 2 47.5081 27.3936 0.369731
119 2 51.4875 27.5587 0.316193
120 2 55.3454 27.4295 0.239707
121 2 -0.0499461 31.4947 0.475498
122 2 4.15857 31.4359 0.309467
123 2 8.17779 31.5376 0.33037
124 2 12.0107 31.2591 0.28862
125 2 16.0815 31.438 0.41265
126 2 19.7912 31.5848 0.189277
127 2 23.9679 31.3964 0.343521
128 2 27.8249 31.4171 0.264026
129 2 31.8043 31.6239 0.284163
130 2 35.6446 31.2666 0.26186
131 2 39.5742 31.6099 0.530566
132 2 43.4662 31.4555 0.36455
133 2 47.5542 31.6352 0.477798
134 2 51.6479 31.5764 0.223725
135 2 55.5548 31.4491 0.338299
136 2 0.0570665 35.354 0.322577
137 2 4.04564 35.2219 0.200475
138 2 8.11336 35.4982 0.375287
139 2 11.8592 35.2931 0.397972
140 2 15.6681 35.2881 0.386695
141 2 19.8591 35.2918 0.228027
142 2 23.7918 35.3268 0.226844
143 2 27.7074 35.4534 -0.00479728
144 2 31.6868 35.4087 -0.049666
145 2 35.5797 35.5077 0.192135
146 2 39.5789 35.4866 0.365092
147 2 43.5518 35.4072 0.366223
148 2 47.7016 35.5148 0.368609
149 2 51.4994 35.5487 0.314578
150 2 55.505 35.3543 0.370119
151 2 0.0754939 39.4796 0.465523
152 2 4.05733 39.2857 0.36665
153 2 7.89981 39.4447 0.275652
154 2 11.7421 39.3239 0.33387
155 2 15.7691 39.3715 0.391063
156 2 19.904 39.3953 -0.0165353
157 2 23.817 39.3336 0.323372
158 2 27.6254 39.143 0.168804
159 2 31.5785 39.0824 0.216618
160 2 35.5965 39.3432 0.353555
161 2 39.5955 39.5591 0.354218
162 2 43.5789 39.304 0.392329
163 2 47.5224 39.209 0.387918
164 2 51.4289 39.2771 0.288267
165 2 55.4953 39.5748 0.277565
166 2 -0.0270583 43.4859 0.41448
167 2 4.00998 43.4759 0.478185
168 2 7.93646 43.5093 0.493949
169 2 11.649 43.4146 0.190863
170 2 15.9006 43.4155 0.383727
171 2 19.7648 43.4945 0.452597
172 2 23.8579 43.2837 0.285122
173 2 27.7929 43.4978 0.31578
174 2 31.7075 43.5462 0.27055
175 2 35.5509 43.4822 0.232545
176 2 39.7183 43.669 0.242773
177 2 43.5492 43.2726 0.243029
178 2 47.5711 43.4312 0.491577
179 2 51.5484 43.3286 0.382301
180 2 55.4128 43.4658 0.398297
181 2 -0.0587161 47.4023 0.595385
182 2 4.03749 47.5218 0.384567
183 2 7.87245 47.3785 0.423905
184 2 11.8561 47.343 99.6763
185 2 15.7287 47.5216 0.415771
186 2 19.9602 47.4826 0.252475
187 2 23.8142 47.2822 0.398012
188 2 27.8556 47.4643 99.6225
189 2 31.7297 47.4584 0.369622
190 2 35.4984 47.2546 0.324565
191 2 39.4343 47.355 0.394372
192 2 43.5794 47.5182 0.494458
193 2 47.4614 47.2839 0.363982
194 2 51.4718 47.1676 0.420691
195 2 55.547 47.4542 0.167408
196 2 -0.082745 51.4512 0.556997
197 2 3.83822 51.4139 0.489172
198 2 8.09564 51.33 0.3932
199 2 12.0147 51.2811 99.7755
200 2 15.7805 51.491 0.465202
201 2 19.7722 51.4187 0.299099
202 2 23.909 51.454 0.343763
203 2 27.7789 51.4095 0.545122
204 2 31.6401 51.2134 0.152742
205 2 35.6564 51.4907 0.259164
206 2 39.7698 51.271 0.424736
207 2 43.6246 51.4678 0.455475
208 2 47.6395 51.2749 0.531263
209 2 51.3659 51.2871 0.454985
210 2 55.4521 51.3644 0.424904
211 2 0.0161992 55.3069 99.9529
212 2 3.93862 55.4875 0.484021
213 2 7.78039 55.3982 0.348464
214 2 11.8836 55.4692 0.349247
215 2 15.9714 55.2154 0.574573
216 2 19.8492 55.3083 0.281194
217 2 23.8393 55.4022 0.409566
218 2 27.9056 55.4955 0.433912
219 2 31.7564 55.2876 0.283256
220 2 35.6926 55.4414 0.445581
221 2 39.6987 55.3173 0.40602
222 2 43.5402 55.3185 0.388971
223 2 47.5431 55.3559 0.300053
224 2 51.4481 55.2171 0.422598
225 2 55.1325 55.3866 0.283322
226 2 -0.0194686 -0.162259 4.41477
227 2 4.02919 -0.281399 4.31986
228 2 7.75721 -0.00587863 4.40521
229 2 11.955 59.2185 4.29071
230 2 15.9695 -0.168938 4.34355
231 2 19.97 0.022706 4.23137
232 2 23.9857 0.113448 4.22283
233 2 27.9065 -0.0822055 4.28787
234 2 31.7109 -0.171395 4.36048
235 2 35.629 -0.0803628 4.23418
236 2 39.5564 -0.307609 4.44405
237 2 43.5251 -0.0649302 4.42863
238 2 47.5741 0.059317 4.32418
239 2 51.5197 -0.101623 4.25329
240 2 55.4557 59.293 4.45924
241 2 0.012259 4.00218 4.26139
242 2 3.79118 3.77675 4.25053
243 2 8.21566 3.85355 4.32113
244 2 12.1252 3.79565 4.24517
245 2 15.6919 3.74669 4.39026
246 2 19.6318 3.77347 4.36098
247 2 23.8793 3.89244 4.37618
248 2 27.9066 3.87583 4.40273
249 2 31.5163 3.92995 4.12819
250 2 35.4701 3.96545 4.33615
251 2 39.5805 3.78702 4.37024
252 2 43.3882 3.81642 4.39858
253 2 47.471 3.80058 4.52671
254 2 51.6676 3.95481 4.41694
255 2 55.4367 3.99796 4.45971
256 2 0.0246094 7.80882 4.29531
257 2 3.97961 7.81721 4.29157
258 2 7.88733 7.71441 4.40629
259 2 11.8223 7.69755 4.43911
260 2 15.7107 7.66412 4.23575
261 2 19.7858 7.63807 4.23347
262 2 23.7249 7.71927 4.1818
263 2 27.996 7.93119 4.30164
264 2 31.8084 8.02135 4.23623
265 2 35.7293 7.65006 4.07539
266 2 39.6551 7.7796 4.35797
267 2 43.5215 7.69729 4.33793
268 2 47.7484 7.68203 4.31552
269 2 51.574 7.71306 4.26487
270 2 55.4519 7.91737 4.36444
271 2 0.170313 11.6239 4.27761
272 2 3.89572 11.7267 4.43375
273 2 7.90262 11.8346 4.32257
274 2 11.9317 11.6986 4.49038
275 2 15.8087 11.7358 4.37643
276 2 19.8196 11.7721 4.35582
277 2 23.7774 11.7203 4.2768
278 2 27.748 11.7382 4.47579
279 2 31.744 11.8116 4.33046
280 2 35.8078 11.8408 4.30229
281 2 39.8268 11.6147 4.18872
282 2 43.6135 11.5802 4.28685
283 2 47.5889 11.5155 4.30276
284 2 51.5553 11.6158 4.14612
285 2 55.3488 11.6191 4.37785
286 2 0.207865 15.6184 4.22478
287 2 3.96256 15.8935 4.12438
288 2 7.84989 15.6756 4.41815
289 2 11.7553 15.6481 4.40993
290 2 15.8391 15.6309 4.39863
291 2 19.8514 15.6652 4.28168
292 2 23.7734 15.7371 4.37821
293 2 27.8497 15.7183 4.33608
294 2 31.8222 15.6421 4.4067
295 2 35.8125 15.5356 4.54663
296 2 39.5743 15.6519 4.24497
297 2 43.4978 15.7413 4.33306
298 2 47.6664 15.4917 4.27755
299 2 51.4846 15.6027 4.10454
300 2 55.6696 15.8175 4.29928
301 2 0.0978321 19.7566 4.41311
302 2 3.98466 19.5498 4.14241
303 2 7.98256 19.6192 4.28938
304 2 11.9615 19.6212 4.34735
305 2 15.9566 19.6088 4.29988
306 2 19.8165 19.6177 4.37073
307 2 23.6517 19.647 4.48356
308 2 27.5979 19.8177 4.20664
309 2 31.5332 19.5268 4.36937
310 2 35.7168 19.6031 4.2665
311 2 39.606 19.6001 4.41265
312 2 43.7228 19.7614 4.36537
313 2 47.589 19.7339 4.34184
314 2 51.5172 19.6747 4.29252
315 2 55.3865 19.5833 4.31556
316 2 0.000721734 23.5763 4.27825
317 2 4.10025 23.6384 4.2696
318 2 8.03202 23.5516 4.36753
319 2 11.9544 23.4823 4.46605
320 2 16.0488 23.6092 4.37696
321 2 19.9901 23.5924 4.33573
322 2 23.8341 23.5095 4.35085
323 2 27.6897 23.6163 4.3587
324 2 31.904 23.6482 4.43028
325 2 35.579 23.4403 4.25465
326 2 39.5425 23.5495 4.30166
327 2 43.4898 23.6117 4.46571
328 2 47.7316 23.4954 4.24685
329 2 51.5363 23.46 4.38234
330 2 55.436 23.4281 4.30574
331 2 0.0923576 27.6376 4.32608
332 2 4.04872 27.6196 4.20572
333 2 7.91101 27.4904 4.33765
334 2 11.828 27.4638 4.2586
335 2 16.072 27.3191 4.13186
336 2 20.1429 27.5494 4.21358
337 2 23.8519 27.5145 4.3365
338 2 27.9214 27.4353 4.19659
339 2 31.7579 27.4805 4.48038
340 2 35.7773 27.6632 4.14551
341 2 39.544 27.2921 4.32759
342 2 43.5255 27.3141 4.38436
343 2 47.7441 27.5734 4.29616
344 2 51.5375 27.6959 4.23689
345 2 55.2426 27.4527 4.37478
346 2 0.152483 31.4897 4.39045
347 2 4.1213 31.5528 4.02988
348 2 8.01605 31.3776 4.36739
349 2 12.1054 31.5395 4.36982
350 2 15.8921 31.1675 4.42814
351 2 20.0761 31.4717 4.30217
352 2 23.9352 31.6968 4.09822
353 2 27.7548 31.4825 4.20892
354 2 31.596 31.6071 4.22731
355 2 35.5104 31.421 4.06805
356 2 39.6941 31.5951 4.30309
357 2 43.5693 31.5785 4.43587
358 2 47.7762 31.4439 4.32295
359 2 51.4269 31.5622 4.32843
360 2 55.6093 31.3493 4.22398
361 2 0.156338 35.3352 4.3625
362 2 3.82767 35.4313 4.34287
363 2 8.04068 35.4709 4.25942
364 2 11.9406 35.3303 4.2751
365 2 15.9397 35.3519 4.20098
366 2 19.9133 35.6553 4.26191
367 2 23.7949 35.424 4.43808
368 2 27.847 35.5062 4.16472
369 2 31.5379 35.2514 4.12879
370 2 35.5616 35.262 4.12025
371 2 39.6225 35.4094 4.30822
372 2 43.6732 35.3966 4.22213
373 2 47.4616 35.5437 4.40633
374 2 51.4421 35.3999 4.47333
375 2 55.4169 35.5178 4.35822
376 2 0.207947 39.3848 4.23404
377 2 4.07894 39.2995 4.40451
378 2 7.95601 39.2414 4.429
379 2 12.0872 39.6107 4.37345
380 2 15.8075 39.2186 4.02585
381 2 19.9019 39.442 4.31073
382 2 23.7569 39.5683 4.26072
383 2 27.8654 39.4329 4.23144
384 2 31.7095 39.2585 4.17523
385 2 35.7723 39.3157 4.45724
386 2 39.4449 39.1185 4.36726
387 2 43.6812 39.4936 4.44403
388 2 47.5821 39.481 4.35645
389 2 51.6627 39.2176 4.48077
390 2 55.6184 39.2769 4.14996
391 2 0.306775 43.2882 4.31246
392 2 4.19582 43.4084 4.38314
393 2 8.16299 43.3555 4.37485
394 2 11.9834 43.2641 4.30595
395 2 15.9159 43.3085 4.39631
396 2 20.083 43.1938 4.25348
397 2 24.0365 43.43 4.2594
398 2 27.7727 43.396 4.37361
399 2 31.7087 43.2965 4.11546
400 2 35.604 43.142 4.21921
401 2 39.5865 43.1213 4.25729
402 2 43.5849 43.321 4.43185
403 2 47.7127 43.3295 4.42473
404 2 51.653 43.3404 4.18618
405 2 55.6256 43.3863 4.2235
406 2 0.172675 47.4589 4.34312
407 2 3.7876 47.3383 4.38726
408 2 8.07703 47.2886 4.32857
409 2 11.9874 47.3693 4.31541
410 2 16.0803 47.2266 4.29752
411 2 19.9546 47.471 4.31521
412 2 23.8711 47.2195 4.2039
413 2 27.863 47.3873 4.46762
414 2 31.7725 47.3051 4.30282
415 2 35.7496 47.3913 4.08511
416 2 39.519 47.3494 4.36381
417 2 43.641 47.3912 4.38266
418 2 47.4312 47.3855 4.35864
419 2 51.6773 47.3233 4.21248
420 2 55.4758 47.167 4.26772
421 2 0.160733 51.3927 4.28522
422 2 3.98695 51.477 4.36506
423 2 8.06339 51.2826 4.32206
424 2 12.0802 51.3662 4.44998
425 2 15.9891 51.3052 4.25685
426 2 19.8968 51.2641 4.39319
427 2 23.8904 51.1848 4.46338
428 2 27.7978 51.2225 4.3235
429 2 31.8447 51.3685 4.27162
430 2 35.6784 51.4002 4.16454
431 2 39.7194 51.3403 4.20659
432 2 43.6808 51.2693 4.39882
433 2 47.4342 51.5072 4.29094
434 2 51.5954 51.2819 4.34944
435 2 55.3031 51.2354 4.26536
436 2 -0.0203686 55.5031 4.62845
437 2 3.98378 55.2976 4.3824
438 2 8.00235 55.3031 4.26782
439 2 12.0159 55.0845 4.54773
440 2 16.0173 55.3025 4.39758
441 2 19.8191 55.2874 4.29045
442 2 23.7997 55.253 4.24945
443 2 27.8008 55.2351 4.248
444 2 31.6937 55.2663 4.2745
445 2 35.5244 55.1992 4.29453
446 2 39.5661 55.3429 4.4948
447 2 43.4954 55.1747 4.32295
448 2 47.433 55.3278 4.28672
449 2 51.4583 55.2531 4.37743
450 2 55.4664 55.4352 4.27149
451 2 0.0456182 59.3592 8.3709
452 2 4.09439 -0.220867 8.32707
453 2 8.25974 -0.0601043 8.17356
454 2 12.1202 -0.16786 8.26104
455 2 15.9575 -0.147221 8.47363
456 2 20.0128 -0.045227 8.28641
457 2 23.7577 0.014175 8.19832
458 2 27.9567 -0.109607 8.17285
459 2 31.8336 -0.165072 8.39269
460 2 35.7717 59.1537 8.33037
461 2 39.9309 59.0922 8.24449
462 2 43.7609 -0.218869 8.25859
463 2 47.5708 0.0649044 8.23817
464 2 51.5217 -0.385853 8.26972
465 2 55.5778 -0.12259 8.48828
466 2 0.136586 3.91381 8.22828
467 2 3.89572 3.58104 8.3278
468 2 8.00072 3.68641 8.36274
469 2 11.9254 3.99513 8.34028
470 2 15.9024 3.97802 8.22518
471 2 19.9373 3.75814 8.19499
472 2 24.0336 4.05538 8.24077
473 2 27.8871 3.75779 8.25876
474 2 31.7841 3.61631 8.37153
475 2 35.6174 3.71874 8.35454
476 2 39.5607 3.71715 8.4576
477 2 43.382 3.92595 8.25324
478 2 47.3953 3.86945 8.40964
479 2 51.6168 3.91351 8.37876
480 2 55.5141 3.76471 8.34932
481 2 0.0991786 7.91997 8.27247
482 2 4.17382 7.87443 8.3195
483 2 7.96611 7.78975 8.32236
484 2 11.9381 7.84362 8.4456
485 2 16.0174 7.90052 8.31146
486 2 19.8734 7.8129 8.43463
487 2 23.7871 7.8035 8.22363
488 2 27.803 7.70262 8.14467
489 2 31.8152 7.80823 8.38376
490 2 35.5044 7.74504 8.26766
491 2 39.593 7.72384 8.42359
492 2 43.5293 7.72448 8.31978
493 2 47.6139 7.65027 8.27031
494 2 51.5985 7.93896 8.33526
495 2 55.4794 7.77667 8.28371
496 2 -0.024181 11.6553 8.19711
497 2 4.16122 11.7983 8.24186
498 2 7.98181 11.8442 8.4383
499 2 12.0472 11.7649 8.37501
500 2 15.7974 11.6606 8.31879
501 2 19.8856 11.5425 8.19729
502 2 23.5024 11.6815 8.45959
503 2 27.5795 11.7964 8.39594
504 2 31.7885 11.8352 8.18521
505 2 35.6815 11.7634 8.28626
506 2 39.5832 11.7844 8.32921
507 2 43.8542 11.8384 7.99124
508 2 47.5394 11.7113 8.31455
509 2 51.6171 11.8632 8.27348
510 2 55.5402 11.89 8.22993
511 2 0.0408026 15.6959 8.1757
512 2 3.98825 15.8675 8.24053
513 2 7.97089 15.5657 8.29231
514 2 11.9419 15.7558 8.31447
515 2 16.0559 15.629 8.29716
516 2 19.8195 15.6175 8.30175
517 2 23.9103 15.7514 8.38293
518 2 27.7348 15.7053 8.40248
519 2 31.6428 15.7432 8.3821
520 2 35.8505 15.6639 8.27425
521 2 39.7944 15.58 8.24622
522 2 43.609 15.5024 8.21698
523 2 47.6897 15.5678 8.42236
524 2 51.6242 15.8114 8.16915
525 2 55.5113 15.6606 8.32279
526 2 0.175691 19.6498 8.1634
527 2 3.99331 19.6395 8.37723
528 2 7.91195 19.5742 8.19029
529 2 11.8081 19.6492 8.1974
530 2 15.9424 19.7474 8.34039
531 2 19.8551 19.7568 8.42811
532 2 23.9143 19.8614 8.24156
533 2 27.9226 19.6435 8.35273
534 2 31.6579 19.6456 8.281
535 2 35.5616 19.668 8.24316
536 2 39.6292 19.4983 8.33787
537 2 43.7466 19.5682 8.46851
538 2 47.6336 19.5536 8.34768
539 2 51.7155 19.7189 8.32611
540 2 55.4687 19.6903 8.45143
541 2 0.106111 23.7084 8.33207
542 2 3.9571 23.7885 8.33485
543 2 7.98626 23.517 8.50798
544 2 11.6867 23.6194 8.30825
545 2 15.8579 23.4911 8.35867
546 2 19.8059 23.6694 8.3867
547 2 23.8801 23.5125 8.36326
548 2 27.9124 23.6407 8.28728
549 2 31.9056 23.5114 8.26161
550 2 35.6835 23.4404 8.23279
551 2 39.639 23.3569 8.23113
552 2 43.7192 23.5186 8.38718
553 2 47.6419 23.76 8.37161
554 2 51.513 23.6508 8.39802
555 2 55.5463 23.6354 8.30381
556 2 59.4964 27.6649 8.20858
557 2 4.05851 27.4948 8.31838
558 2 7.90049 27.7065 8.13375
559 2 11.9986 27.4439 8.31264
560 2 15.8358 27.507 8.09111
561 2 19.7625 27.5739 8.21945
562 2 23.8239 27.3931 8.33325
563 2 27.7804 27.5614 8.10549
564 2 31.6958 27.4239 8.39924
565 2 35.8645 27.4354 8.24738
566 2 39.6991 27.4661 8.42905
567 2 43.6864 27.6578 8.27775
568 2 47.3247 27.6499 8.19845
569 2 51.6372 27.5211 8.31688
570 2 55.3003 27.5676 8.23953
571 2 0.112806 31.4357 8.29834
572 2 4.06882 31.3362 8.17667
573 2 7.835 31.566 8.42611
574 2 12.1179 31.5167 8.26522
575 2 15.8987 31.5582 8.17684
576 2 19.8388 31.5821 8.21181
577 2 23.7772 31.5365 8.07696
578 2 27.8971 31.5272 8.26054
579 2 31.6704 31.2602 8.17315
580 2 35.797 31.4544 8.1317
581 2 39.5563 31.4763 8.31717
582 2 43.4606 31.3471 8.30521
583 2 47.5867 31.465 8.35114
584 2 51.6117 31.6864 8.31371
585 2 55.631 31.6878 8.19691
586 2 0.0757893 35.6007 8.23091
587 2 4.08006 35.4031 8.16765
588 2 8.08904 35.3809 8.31499
589 2 12.1747 35.3969 8.0722
590 2 15.9251 35.4196 8.35609
591 2 19.8967 35.4461 8.23376
592 2 23.9595 35.4168 8.29389
593 2 27.806 35.4105 8.36486
594 2 31.726 35.232 8.13085
595 2 35.7671 35.2583 8.06565
596 2 39.5727 35.3561 8.26779
597 2 43.6877 35.413 8.33216
598 2 47.546 35.3152 8.36889
599 2 51.6037 35.583 8.45142
600 2 55.6744 35.4105 8.23088
601 2 0.288304 39.5185 8.23036
602 2 4.19335 39.6083 8.27607
603 2 7.90447 39.2717 8.11324
604 2 12.0699 39.4327 8.28988
605 2 15.8913 39.4442 8.16696
606 2 19.8417 39.3815 8.25297
607 2 23.8817 39.3104 8.28297
608 2 27.7319 39.4183 8.16461
609 2 31.5536 39.3023 8.04447
610 2 35.5219 39.3118 8.09628
611 2 39.7338 39.5704 8.30781
612 2 43.6299 39.4826 8.3321
613 2 47.583 39.2258 8.39854
614 2 51.6706 39.5876 8.30018
615 2 55.7321 39.3861 8.30264
616 2 0.125717 43.3267 8.3422
617 2 3.99703 43.4293 8.34534
618 2 8.08962 43.3995 8.26202
619 2 12.1544 43.351 8.25654
620 2 16.1752 43.3239 8.20836
621 2 19.8862 43.308 8.39199
622 2 23.7731 43.3056 8.28022
623 2 27.9047 43.4445 8.1552
624 2 31.6749 43.2524 8.34311
625 2 35.8433 43.2944 8.1644
626 2 39.498 43.5034 8.23587
627 2 43.481 43.296 8.34274
628 2 47.7815 43.2516 8.18035
629 2 51.5877 43.3987 8.08246
630 2 55.562 43.1984 8.15244
631 2 -0.0912643 47.3581 8.32828
632 2 3.98091 47.3658 8.23483
633 2 8.10343 47.2479 8.15025
634 2 12.1347 47.1916 8.28391
635 2 15.7745 47.2506 8.31854
636 2 19.8502 47.2122 8.21617
637 2 23.8512 47.156 8.19606
638 2 27.8822 47.3331 8.3025
639 2 31.7071 47.1841 8.18826
640 2 35.6776 47.4038 8.19683
641 2 39.5762 47.2716 8.22748
642 2 43.3572 47.2207 8.0995
643 2 47.5954 47.4039 8.31952
644 2 51.5887 47.1779 8.22089
645 2 55.5149 47.1952 8.35554
646 2 0.0307788 51.3246 8.28753
647 2 3.98679 51.1148 8.35266
648 2 7.87941 51.0371 8.38325
649 2 12.0106 51.318 8.41732
650 2 15.9482 51.1747 8.53251
651 2 19.804 51.1845 8.32561
652 2 23.8201 51.2924 8.39107
653 2 27.7625 51.4374 8.34999
654 2 31.7547 51.2069 8.33331
655 2 35.5929 51.2088 8.31482
656 2 39.5036 51.2845 8.22701
657 2 43.6273 51.1434 8.2677
658 2 47.781 51.3455 8.22611
659 2 51.4315 51.324 8.34898
660 2 55.3823 51.3379 8.28605
661 2 0.0896849 55.2448 8.48359
662 2 4.05193 55.1679 8.52152
663 2 7.95246 55.3042 8.10974
664 2 11.7808 55.1551 8.26239
665 2 15.9992 55.4813 8.35232
666 2 19.9892 55.1248 8.14402
667 2 24.0679 55.3369 8.20374
668 2 27.8898 55.2078 8.31133
669 2 31.5745 55.1319 8.2749
670 2 35.6158 55.1765 8.47368
671 2 39.582 55.1331 8.21262
672 2 43.5802 55.0497 8.35432
673 2 47.6618 55.2911 8.25019
674 2 51.4227 55.0861 8.15071
675 2 55.5062 55.3586 8.21582
676 2 0.280142 -0.0103419 12.1357
677 2 4.04927 0.10768 12.1881
678 2 8.01166 0.0847743 12.1704
679 2 12.1523 -0.041643 12.3556
680 2 15.9562 59.337 12.2009
681 2 19.9047 -0.0908732 12.3022
682 2 24.0159 -0.0281471 12.2322
683 2 27.8056 -0.129722 12.1111
684 2 31.9255 -0.151986 12.1939
685 2 35.644 -0.258943 12.3842
686 2 39.8693 -0.129996 12.2406
687 2 43.7019 -0.15043 12.3724
688 2 47.7413 -0.292356 12.183
689 2 51.671 -0.187004 12.1423
690 2 55.6273 -0.180978 12.2031
691 2 0.0481561 4.01048 12.421
692 2 3.91488 3.91026 12.2929
693 2 8.02489 3.82242 12.3641
694 2 12.1546 3.92307 12.3392
695 2 15.9234 3.8915 12.2371
696 2 20.03 3.8744 12.0146
697 2 23.8754 3.8702 12.262
698 2 27.8184 3.93538 12.3207
699 2 31.7886 3.87239 12.302
700 2 35.6964 3.83446 12.2661
701 2 39.6219 3.87881 12.3132
702 2 43.5456 3.74938 12.3077
703 2 47.6789 3.55974 12.2256
704 2 51.729 3.67221 12.2189
705 2 55.6388 3.91452 12.2213
706 2 0.164864 7.94679 12.1127
707 2 4.06336 7.68532 12.0551
708 2 8.00546 7.87324 12.2391
709 2 11.9462 7.9388 12.4603
710 2 16.0014 7.79291 12.2351
711 2 19.7155 7.66034 12.2405
712 2 23.7203 7.84084 12.0331
713 2 27.9308 7.94288 12.3131
714 2 31.8298 7.94859 12.3686
715 2 35.6664 7.78653 12.1958
716 2 39.6339 7.74379 12.1869
717 2 43.7535 7.92299 12.2499
718 2 47.5621 7.66636 12.287
719 2 51.6029 7.65521 12.2312
720 2 55.5207 7.82419 12.2899
721 2 0.128368 11.723 12.4031
722 2 4.08219 11.7678 12.2835
723 2 8.00615 11.9515 12.3346
724 2 11.9273 11.7651 12.4658
725 2 15.7844 11.9051 12.449
726 2 19.7449 11.7486 12.3533
727 2 23.7753 11.5815 12.3485
728 2 27.8866 11.9322 12.2767
729 2 31.8223 11.8336 12.386
730 2 35.8023 11.835 12.4271
731 2 39.8753 11.6119 12.3385
732 2 43.6067 11.7887 12.3382
733 2 47.8065 11.7028 12.2962
734 2 51.6546 11.6296 12.3235
735 2 55.6673 11.7266 12.2568
736 2 0.295356 15.5853 12.2074
737 2 4.04462 15.7521 12.2539
738 2 8.01633 15.6506 12.3314
739 2 12.1237 15.8509 12.1448
740 2 15.9209 15.7701 12.3007
741 2 19.7923 15.7309 12.4042
742 2 23.8018 15.5958 12.3272
743 2 27.6508 15.6462 12.3097
744 2 31.8829 15.8017 12.3019
745 2 35.7194 15.6264 12.1217
746 2 39.6967 15.7111 12.1573
747 2 43.5229 15.6819 12.3061
748 2 47.8557 15.6882 12.2717
749 2 51.8207 15.7392 12.2067
750 2 55.7214 15.5586 12.0215
751 2 0.00926075 19.5418 12.2756
752 2 4.06251 19.7366 12.224
753 2 8.1167 19.6727 12.2313
754 2 11.9502 19.6275 12.4992
755 2 15.8121 19.8065 12.4879
756 2 19.8084 19.6838 12.2569
757 2 23.9339 19.7286 12.2683
758 2 27.844 19.6266 12.1971
759 2 31.7123 19.7725 12.3584
760 2 35.8693 19.661 12.3976
761 2 39.7932 19.7484 12.2561
762 2 43.7876 19.708 12.3212
763 2 47.6967 19.713 12.316
764 2 51.6335 19.7639 12.1101
765 2 55.3887 19.4971 12.3913
766 2 -0.0386566 23.4824 12.302
767 2 4.07103 23.5447 12.2619
768 2 8.07737 23.5874 12.3168
769 2 11.8728 23.6785 12.3592
770 2 15.9308 23.6883 12.341
771 2 20.0572 23.6586 12.154
772 2 23.8221 23.7144 12.2973
773 2 27.7359 23.6781 12.3824
774 2 31.7916 23.5991 12.2093
775 2 35.705 23.6781 12.1885
776 2 39.8195 23.5652 12.2388
777 2 43.7049 23.5175 12.4273
778 2 47.7038 23.7181 12.1488
779 2 51.6332 23.5213 12.3597
780 2 55.2924 23.6443 12.3353
781 2 0.148454 27.5878 12.2565
782 2 4.1062 27.6636 12.3136
783 2 7.9982 27.8025 12.3165
784 2 12.0485 27.6442 12.2391
785 2 16.0517 27.7213 12.0878
786 2 20.0984 27.6214 12.2048
787 2 23.8242 27.5801 12.2361
788 2 27.7332 27.4357 12.0564
789 2 31.862 27.4208 12.2022
790 2 35.9165 27.8118 12.3116
791 2 39.7274 27.4941 12.2976
792 2 43.4962 27.6596 12.4118
793 2 47.5264 27.7265 12.2917
794 2 51.5205 27.6881 12.3405
795 2 55.5417 27.6452 12.3561
796 2 0.146192 31.3946 12.2256
797 2 4.16517 31.467 12.2925
798 2 8.11423 31.5882 12.125
799 2 12.0768 31.7421 12.1672
800 2 15.9391 31.6459 12.3789
801 2 19.8257 31.339 12.185
802 2 23.7678 31.4466 12.1986
803 2 27.7058 31.2791 12.3912
804 2 31.7912 31.4327 12.2396
805 2 35.5256 31.4929 12.1897
806 2 39.6215 31.7631 12.3488
807 2 43.3517 31.8169 12.0774
808 2 47.5473 31.3788 12.1817
809 2 51.7424 31.5686 12.222
810 2 55.6861 31.4846 12.1635
811 2 0.068571 35.58 12.1768
812 2 4.16245 35.5644 12.2684
813 2 8.16575 35.5306 12.3794
814 2 12.0798 35.4075 12.2632
815 2 16.0779 35.4377 12.2298
816 2 20.0166 35.4503 12.1668
817 2 23.8308 35.43 12.27
818 2 27.6134 35.3569 12.3737
819 2 31.6371 35.4051 12.1365
820 2 35.5561 35.6498 12.247
821 2 39.6741 35.6976 12.3888
822 2 43.5798 35.5847 12.3239
823 2 47.567 35.5253 12.2173
824 2 51.5651 35.4928 12.158
825 2 55.6406 35.7208 12.0683
826 2 0.265919 39.4392 12.0585
827 2 4.14738 39.3914 12.3051
828 2 8.16164 39.4927 12.223
829 2 11.9407 39.3504 12.3358
830 2 16.0247 39.3399 12.3716
831 2 19.9249 39.3601 12.2325
832 2 23.7215 39.4278 12.1871
833 2 27.6791 39.1961 12.1122
834 2 31.7195 39.3763 12.1408
835 2 35.4981 39.4441 12.3153
836 2 39.7292 39.5322 12.3264
837 2 43.5051 39.6212 12.2041
838 2 47.6889 39.3618 12.1096
839 2 51.6917 39.4502 12.2245
840 2 55.5724 39.5505 12.3622
841 2 0.195955 43.4185 12.4244
842 2 4.20079 43.5231 12.3018
843 2 8.10462 43.4794 12.2451
844 2 11.9363 43.3574 12.4002
845 2 15.9956 43.3044 11.9184
846 2 20.0197 43.5491 12.2401
847 2 23.7703 43.5035 12.3364
848 2 27.6807 43.3218 12.3377
849 2 31.7128 43.2983 12.2319
850 2 35.5119 43.2621 12.2097
851 2 39.5452 43.283 12.2058
852 2 43.7401 43.5575 12.2002
853 2 47.7227 43.6266 12.2757
854 2 51.7926 43.5129 12.1771
855 2 55.6207 43.4523 12.3479
856 2 0.00765802 47.6066 12.321
857 2 3.9132 47.4493 12.3087
858 2 8.14995 47.4047 12.3836
859 2 12.1333 47.3695 12.2937
860 2 15.9237 47.4593 12.2488
861 2 20.1097 47.3112 12.23
862 2 23.7754 47.5829 12.2446
863 2 27.7401 47.333 12.3116
864 2 31.678 47.4674 12.2533
865 2 35.6684 47.1528 12.2674
866 2 39.6881 47.4687 12.4217
867 2 43.7001 47.5792 12.0893
868 2 47.6397 47.5207 12.3078
869 2 51.5574 47.4692 12.1667
870 2 55.6011 47.3562 12.0888
871 2 0.0737611 51.4326 12.1959
872 2 4.14308 51.4219 12.1675
873 2 8.09548 51.1492 12.1928
874 2 11.9503 51.2091 12.3595
875 2 16.1027 51.4269 12.4207
876 2 19.9377 51.3647 12.2648
877 2 23.9021 51.3954 12.2677
878 2 27.8912 51.3061 12.3155
879 2 31.8491 51.3327 12.2558
880 2 35.8602 51.1047 12.2193
881 2 39.6731 51.2668 12.1539
882 2 43.6547 51.4209 12.0064
883 2 47.6389 51.41 12.2823
884 2 51.3928 51.3735 12.2256
885 2 55.4902 51.4235 12.3734
886 2 0.0202203 55.3883 12.3569
887 2 4.1137 55.3906 12.3509
888 2 7.94507 55.2613 12.258
889 2 11.9761 55.2412 12.2909
890 2 16.0843 55.3677 12.0477
891 2 20.1639 55.3504 12.2516
892 2 23.95 55.404 12.2697
893 2 27.7818 55.3524 12.3192
894 2 31.6593 55.1205 12.241
895 2 35.6232 55.2327 12.3001
896 2 39.6163 55.1013 12.2825
897 2 43.5969 55.306 12.1554
898 2 47.5059 55.2209 12.4196
899 2 51.7579 55.3052 12.1281
900 2 55.5197 55.2241 12.2838
901 2 0.175439 -0.149403 16.1403
902 2 4.05883 -0.120779 15.9539
903 2 8.03458 0.186438 16.3166
904 2 12.0225 0.0720181 16.3747
905 2 15.8839 -0.251058 16.1935
906 2 19.9679 -0.119891 16.2875
907 2 23.8722 -0.0690581 16.3257
908 2 27.9358 0.0174339 16.4553
909 2 31.9075 -0.0240705 16.2851
910 2 35.8352 -0.0213087 16.0687
911 2 39.6945 -0.0296277 16.0089
912 2 43.5838 59.4723 16.2227
913 2 47.5039 59.4534 16.2977
914 2 51.5267 59.2248 16.1974
915 2 55.5456 -0.10738 16.2212
916 2 0.0733044 3.87521 16.3237
917 2 4.24479 3.95157 16.3304
918 2 8.02571 4.05709 16.2649
919 2 12.0613 3.91611 16.4124
920 2 16.1181 3.88426 16.3301
921 2 20.052 3.62166 16.0229
922 2 24.0321 3.82346 16.103
923 2 27.9133 3.89677 16.2915
924 2 31.8309 3.78689 16.1109
925 2 35.7416 3.79281 16.1854
926 2 39.7359 3.99396 16.0938
927 2 43.627 3.78415 16.2504
928 2 47.693 3.8029 16.1564
929 2 51.5228 4.0428 16.1073
930 2 55.4797 3.75184 16.3734
931 2 0.0562616 7.82256 16.3519
932 2 4.13616 7.89538 16.1501
933 2 7.97036 7.89473 16.0798
934 2 11.9276 7.8152 16.2676
935 2 15.927 7.8317 16.268
936 2 19.9208 7.64493 16.1093
937 2 23.9163 7.78508 16.2821
938 2 27.6783 7.90951 16.2183
939 2 31.6516 7.98322 16.3883
940 2 35.6523 7.90056 16.364
941 2 39.4129 7.9332 16.2348
942 2 43.6901 7.8233 16.2553
943 2 47.5809 7.64724 16.0982
944 2 51.7014 7.77208 16.1909
945 2 55.603 7.87156 16.0526
946 2 59.4144 11.8906 16.3752
947 2 3.94672 11.7579 16.4915
948 2 7.72746 11.914 16.237
949 2 11.8808 11.9329 16.5031
950 2 15.8974 11.901 16.3781
951 2 20.1652 11.6922 16.2068
952 2 23.8023 11.7361 16.3422
953 2 27.9022 11.924 16.185
954 2 31.7871 12.0185 16.3854
955 2 35.9278 11.6198 16.3267
956 2 39.6302 11.7824 16.2612
957 2 43.4891 11.7376 16.0593
958 2 47.753 11.8227 16.1965
959 2 51.7165 11.8226 16.1879
960 2 55.5855 11.9164 16.4537
961 2 0.138938 15.789 16.2478
962 2 4.1398 15.9014 16.3054
963 2 7.97691 15.8505 16.1544
964 2 12.0141 15.7856 16.2849
965 2 15.9145 15.7411 16.3514
966 2 19.9735 15.7455 16.3071
967 2 23.8308 15.607 16.4881
968 2 27.7415 15.7104 16.4802
969 2 31.6671 16.1063 16.2887
970 2 35.8624 15.6537 16.2957
971 2 39.943 15.7249 16.1875
972 2 43.8623 15.6052 16.0945
973 2 47.7247 15.5504 16.1787
974 2 51.587 15.6264 16.2078
975 2 55.2431 15.6181 16.2849
976 2 -0.00170368 19.6608 16.3905
977 2 3.9448 19.7045 16.1413
978 2 8.06693 19.6091 16.2605
979 2 11.8666 19.9218 16.2761
980 2 15.6761 19.7941 16.3146
981 2 20.0401 19.6135 16.1922
982 2 24.0591 19.7245 16.2327
983 2 27.8449 19.6755 16.2683
984 2 31.6279 19.7363 16.3874
985 2 35.7977 19.6439 16.2077
986 2 39.9241 19.5695 16.2125
987 2 43.9367 19.8098 16.1268