ITEM: TIMESTEP
34700
ITEM: NUMBER OF ATOMS
28125
ITEM: BOX BOUNDS xy xz yz pp pp pp
0.0000000000000000e+00 5.9369999999999997e+01 0.0000000000000000e+00
0.0000000000000000e+00 5.9369999999999997e+01 0.0000000000000000e+00
8.2963464982611868e-02 9.9417036535017388e+01 0.0000000000000000e+00
ITEM: ATOMS id type x y z
1 2 0.0955146 -0.161047 0.353366
2 2 4.08891 -0.221453 0.511841
3 2 7.99852 -0.24664 0.415642
4 2 11.8454 -0.254022 0.296231
5 2 15.8548 -0.0871245 0.470194
6 2 19.8372 -0.167215 0.376858
7 2 23.9555 -0.234511 0.407174
8 2 27.8387 -0.228934 0.481092
9 2 31.7276 -0.205176 0.475179
10 2 35.735 0.117956 0.227332
11 2 39.5565 59.1716 0.569435
12 2 43.458 -0.206883 0.23267
13 2 47.4197 -0.126638 0.374203
14 2 51.4168 -0.160735 0.397784
15 2 55.5423 59.2861 0.289703
16 2 -0.183988 3.76678 0.503188
17 2 3.9221 3.69405 0.422389
18 2 8.09518 3.84359 0.238297
19 2 11.9218 3.72545 0.317496
20 2 15.554 3.76216 0.234106
21 2 19.7996 3.59124 0.269928
22 2 23.7476 3.75453 0.20607
23 2 27.9699 3.69294 0.205522
24 2 31.7159 3.68893 0.53399
25 2 35.6975 3.77089 0.308161
26 2 39.5718 3.91005 0.385289
27 2 43.5248 3.64983 0.399363
28 2 47.4729 3.80563 0.400315
29 2 51.3705 3.87017 0.419638
30 2 55.2937 3.77376 0.502368
31 2 -0.0127511 7.81403 0.568357
32 2 3.99941 7.86065 0.306609
33 2 7.86846 7.73381 0.280563
34 2 11.7828 7.93573 0.507293
35 2 15.9217 7.84929 0.3034
36 2 19.7508 7.79327 0.255828
37 2 23.731 7.58414 0.291431
38 2 27.6862 7.76637 0.366253
39 2 31.6926 7.76049 0.431312
40 2 35.6496 7.84914 0.330231
41 2 39.5187 7.93984 0.30088
42 2 43.4758 7.75086 0.376739
43 2 47.5684 7.80525 0.387319
44 2 51.5497 7.76326 0.342655
45 2 55.6217 7.69279 0.23916
46 2 59.3175 11.5204 0.305278
47 2 3.77333 11.5088 0.170768
48 2 7.84744 11.7252 0.434894
49 2 11.9155 11.7848 0.327484
50 2 15.7026 11.6974 0.387166
51 2 19.8752 11.7008 0.207066
52 2 23.8836 11.7205 0.273756
53 2 27.7636 11.6205 0.299889
54 2 31.4925 11.6919 0.441535
55 2 35.5549 11.6746 0.414126
56 2 39.7024 11.8917 0.298044
57 2 43.7018 11.9347 0.391519
58 2 47.4315 11.7083 0.392995
59 2 51.5318 11.9402 0.345663
60 2 55.4409 11.8022 0.375657
61 2 -0.105467 15.5751 0.444421
62 2 4.02317 15.703 0.410163
63 2 7.64562 15.5959 0.233431
64 2 11.7628 15.6452 0.308648
65 2 16.034 15.7369 0.316832
66 2 19.8215 15.5097 0.259951
67 2 23.936 15.7427 0.214746
68 2 27.6984 15.6983 0.347486
69 2 31.6987 15.7581 0.330058
70 2 35.7157 15.7913 0.471699
71 2 39.7497 15.7696 0.0960251
72 2 43.6056 15.9769 0.204406
73 2 47.5157 15.5057 0.335541
74 2 51.2282 15.6524 0.516455
75 2 55.641 15.6348 0.456554
76 2 59.5046 19.6189 0.409123
77 2 4.07921 19.4294 0.223685
78 2 8.13582 19.4622 0.272499
79 2 11.8882 19.5024 0.4538
80 2 15.8438 19.6998 0.224344
81 2 19.9583 19.511 0.370817
82 2 23.7885 19.6021 0.199922
83 2 27.6732 19.7713 0.242339
84 2 31.4981 19.6317 0.33704
85 2 35.5826 19.5939 0.255286
86 2 39.765 19.8549 0.247709
87 2 43.605 19.5781 0.174979
88 2 47.3843 19.776 0.400515
89 2 51.458 19.579 0.158446
90 2 55.3507 19.4733 0.459719
91 2 -0.00885862 23.5556 0.508184
92 2 3.82317 23.5134 0.195209
93 2 7.93187 23.5734 0.395171
94 2 11.7326 23.5112 0.392943
95 2 15.6912 23.4883 0.40047
96 2 19.8632 23.4225 0.145162
97 2 23.7625 23.5622 0.0146362
98 2 27.6589 23.3127 0.321677
99 2 31.8596 23.8099 0.255076
100 2 35.614 23.5159 0.15065
101 2 39.5666 23.6027 0.25782
102 2 43.7129 23.7459 0.161343
103 2 47.6434 23.5546 0.38617
104 2 51.4371 23.4476 0.0423477
105 2 55.4982 23.6528 0.0722357
106 2 0.0140673 27.4669 0.501009
107 2 3.9903 27.4287 0.321535
108 2 8.04253 27.574 0.252736
109 2 12.0018 27.6609 0.220065
110 2 15.9889 27.3473 0.182602
111 2 19.9437 27.3717 0.287577
112 2 23.8464 27.4106 0.345895
113 2 27.6705 27.2819 0.281739
114 2 31.734 27.6329 0.416644
115 2 35.7842 27.424 0.306978
116 2 39.6323 27.545 0.381538
117 2 43.4614 27.4603 0.447001
118 2 47.6592 27.5889 0.435317
119 2 51.4814 27.6287 0.383937
120 2 55.2938 27.3553 0.261288
121 2 0.0931082 31.5048 0.300717
122 2 4.1121 31.5668 0.227058
123 2 8.04329 31.5937 0.369049
124 2 11.999 31.4851 0.409998
125 2 15.8011 31.5341 0.293904
126 2 19.9406 31.3787 0.30895
127 2 23.8702 31.5101 0.237456
128 2 27.5822 31.4038 0.08416
129 2 31.671 31.5099 0.232547
130 2 35.5923 31.5048 0.239537
131 2 39.5257 31.4538 0.212085
132 2 43.8094 31.5615 0.451642
133 2 47.768 31.5527 0.261925
134 2 51.6404 31.5191 0.160707
135 2 55.6115 31.3358 0.0636131
136 2 -0.132707 35.3822 0.498904
137 2 3.94515 35.2798 0.261245
138 2 8.19968 35.5457 0.338995
139 2 11.9543 35.3314 0.23947
140 2 15.9573 35.4985 0.378509
141 2 19.8708 35.2967 0.138963
142 2 23.8184 35.288 0.0272966
143 2 27.8462 35.321 0.28024
144 2 31.6805 35.381 0.361007
145 2 35.4737 35.2472 0.352302
146 2 39.4106 35.3791 0.513307
147 2 43.4533 35.4419 0.394955
148 2 47.5062 35.6088 0.193311
149 2 51.4773 35.4786 0.280283
150 2 55.3108 35.6524 0.370807
151 2 -0.129831 39.2553 0.303131
152 2 4.08628 39.3647 0.534891
153 2 8.00323 39.2276 0.360342
154 2 11.9289 39.4337 0.454896
155 2 15.9107 39.4331 0.191525
156 2 19.8588 39.5726 0.362811
157 2 23.6653 39.2498 0.293921
158 2 27.6317 39.231 0.411068
159 2 31.5147 39.341 0.168777
160 2 35.5809 39.3667 0.229993
161 2 39.5761 39.291 0.291562
162 2 43.6972 39.3551 0.300705
163 2 47.4064 39.3173 0.202258
164 2 51.4195 39.2911 0.404567
165 2 55.4215 39.4633 0.369573
166 2 0.0317248 43.4536 0.559667
167 2 4.00053 43.5473 0.433178
168 2 7.95673 43.5687 0.23906
169 2 11.8784 43.3444 0.427857
170 2 15.7556 43.4199 0.251698
171 2 19.8408 43.4285 0.346126
172 2 23.8199 43.2277 0.409936
173 2 27.6798 43.4587 0.235298
174 2 31.718 43.2633 0.432035
175 2 35.6462 43.299 0.417748
176 2 39.6337 43.1231 0.400188
177 2 43.7767 43.6528 0.358041
178 2 47.4484 43.1934 0.355303
179 2 51.219 43.4295 0.40299
180 2 55.3428 43.4795 0.420961
181 2 -0.0635261 47.4102 0.398662
182 2 3.80723 47.5607 0.459637
183 2 8.16336 47.3354 0.220242
184 2 11.9291 47.4212 99.5344
185 2 15.8091 47.3004 0.543001
186 2 19.8054 47.6306 0.340021
187 2 23.9756 47.3429 0.306971
188 2 27.7852 47.477 99.84
189 2 31.5918 47.171 0.38135
190 2 35.2927 47.1885 0.257448
191 2 39.4337 47.2551 0.269148
192 2 43.5675 47.4578 0.413342
193 2 47.5368 47.2217 0.395516
194 2 51.6816 47.2365 0.275176
195 2 55.361 47.4329 0.330092
196 2 0.160469 51.3607 0.474558
197 2 4.01991 51.4568 0.381912
198 2 7.99629 51.0961 0.130174
199 2 11.9366 51.3508 99.7055
200 2 15.9384 51.3776 0.538966
201 2 19.865 51.5122 0.364936
202 2 23.7859 51.4473 0.431854
203 2 27.8326 51.2614 0.418403
204 2 31.7031 51.3345 0.365246
205 2 35.652 51.2058 0.390872
206 2 39.5569 51.2793 0.265474
207 2 43.6869 51.2608 0.4463
208 2 47.5295 51.2887 0.353065
209 2 51.3338 51.2819 0.336417
210 2 55.2485 51.253 0.357082
211 2 -0.165286 55.3086 99.8052
212 2 3.87837 55.4027 0.341258
213 2 8.10329 55.2479 0.225224
214 2 11.9361 55.2107 0.384404
215 2 15.8265 55.2974 0.462619
216 2 19.8322 55.2935 0.51569
217 2 23.6706 55.42 0.279031
218 2 27.8508 55.4059 0.470926
219 2 31.78 55.2144 0.391413
220 2 35.7186 55.3376 0.302295
221 2 39.5868 55.3269 0.453525
222 2 43.609 55.1728 0.422527
223 2 47.5722 55.1329 0.344715
224 2 51.5157 55.2133 0.161883
225 2 55.3638 55.2716 0.465522
226 2 0.0120498 -0.235428 4.43695
227 2 3.84741 -0.380261 4.29321
228 2 8.07589 -0.152775 4.36198
229 2 11.9203 59.4505 4.36512
230 2 15.7656 -0.159689 4.57074
231 2 19.8268 0.0297145 4.34381
232 2 24.0228 -0.0669849 4.29876
233 2 27.7818 -0.223048 4.27964
234 2 31.8758 0.0775959 4.18645
235 2 35.6474 -0.218619 4.62926
236 2 39.6864 -0.00831328 4.43693
237 2 43.5633 -0.0958975 4.32482
238 2 47.5109 0.0460047 4.50692
239 2 51.409 -0.388811 4.20081
240 2 55.2421 59.1787 4.43985
241 2 0.0418703 3.72561 4.37714
242 2 4.07106 3.7904 4.22965
243 2 7.72771 3.75981 4.21253
244 2 11.9522 3.98782 4.28737
245 2 15.8695 3.68553 4.24743
246 2 19.6957 3.87324 4.28678
247 2 23.6832 3.9376 4.38351
248 2 27.6522 3.67599 4.33346
249 2 31.6998 3.72914 4.38862
250 2 35.7277 3.87737 4.21125
251 2 39.8061 3.80882 4.311
252 2 43.557 3.94366 4.47964
253 2 47.4498 3.86595 4.39673
254 2 51.5187 3.90065 4.32756
255 2 55.3628 3.64141 4.48244
256 2 0.00483002 7.74468 4.51144
257 2 4.14718 7.67739 4.19045
258 2 7.97875 7.75057 4.15628
259 2 11.8792 7.85189 4.40263
260 2 15.8916 7.61895 4.41175
261 2 19.9533 7.74115 4.0517
262 2 23.8696 7.62748 4.3035
263 2 27.8501 7.60228 4.24813
264 2 31.936 7.67973 4.42466
265 2 35.5723 7.85261 4.21766
266 2 39.6289 7.82084 4.05483
267 2 43.6187 7.74384 4.37418
268 2 47.4664 7.85919 4.39239
269 2 51.5545 7.928 4.38415
270 2 55.2893 7.59475 4.32859
271 2 -0.137305 11.4739 4.27572
272 2 3.93568 11.6175 4.3258
273 2 7.96354 11.8368 4.49404
274 2 11.8736 11.9496 4.2528
275 2 15.8867 11.858 4.36969
276 2 20.1911 11.6226 4.17392
277 2 23.8675 11.7636 4.3411
278 2 27.8951 11.6188 4.20677
279 2 31.8413 11.7835 4.39958
280 2 35.5241 11.6675 4.36354
281 2 39.5582 11.8155 4.24949
282 2 43.6298 11.7105 4.25064
283 2 47.4953 11.6938 4.35402
284 2 51.4112 11.6925 4.45744
285 2 55.2974 11.6198 4.39834
286 2 0.0551694 15.6619 4.29991
287 2 3.91875 15.4451 4.31111
288 2 7.86139 15.5253 4.1519
289 2 11.9602 15.7441 4.17435
290 2 15.9942 15.5949 4.14461
291 2 19.9885 15.6678 4.15481
292 2 24 15.7815 4.26261
293 2 27.5646 15.6087 4.28128
294 2 31.6215 15.6196 4.41781
295 2 35.8082 15.7167 4.10273
296 2 39.5827 15.7096 4.48075
297 2 43.4682 15.5777 4.43833
298 2 47.6015 15.7333 4.36772
299 2 51.372 15.6256 4.36601
300 2 55.4385 15.6918 4.31744
301 2 0.0116197 19.4981 4.20036
302 2 4.04917 19.5734 4.47154
303 2 7.84308 19.566 4.37175
304 2 11.7693 19.7002 4.25107
305 2 16.0352 19.5949 4.44048
306 2 19.892 19.5208 4.42873
307 2 23.8786 19.6581 4.2393
308 2 27.8509 19.5695 4.46117
309 2 31.679 19.7725 4.20814
310 2 35.7832 19.7283 4.36627
311 2 39.7362 19.661 4.34824
312 2 43.6256 19.7339 4.37225
313 2 47.6574 19.5887 4.44333
314 2 51.5357 19.6523 4.16915
315 2 55.3483 19.585 4.27373
316 2 -0.0862263 23.5349 4.29498
317 2 4.04526 23.5879 4.26302
318 2 8.07079 23.6189 4.31451
319 2 11.8201 23.7407 4.23021
320 2 16.0009 23.452 4.15375
321 2 19.9251 23.6473 4.20216
322 2 23.7796 23.7124 4.30994
323 2 27.8984 23.6198 4.45637
324 2 31.7457 23.8297 4.34348
325 2 35.818 23.5922 4.15968
326 2 39.5824 23.5869 4.37488
327 2 43.6739 23.6066 4.15435
328 2 47.5733 23.7068 4.28138
329 2 51.4611 23.497 4.26317
330 2 55.33 23.5011 4.29739
331 2 0.135767 27.5502 4.45291
332 2 4.13717 27.5899 4.15685
333 2 7.97358 27.5133 4.27491
334 2 12.0531 27.5598 4.36732
335 2 16.027 27.2515 4.21475
336 2 19.9228 27.5203 4.12223
337 2 23.8849 27.5967 4.24291
338 2 27.7071 27.547 4.4103
339 2 31.6706 27.589 4.18306
340 2 35.6924 27.4072 4.23595
341 2 39.7626 27.419 4.11754
342 2 43.6956 27.5001 4.29756
343 2 47.6632 27.4285 4.30086
344 2 51.5859 27.4511 4.52293
345 2 55.4861 27.6569 4.1445
346 2 -0.082103 31.4183 4.26663
347 2 4.15803 31.4823 4.35746
348 2 8.03288 31.5104 4.12268
349 2 11.9585 31.2353 4.19704
350 2 15.982 31.5475 4.08317
351 2 19.7778 31.3505 4.32975
352 2 23.7975 31.4428 4.25183
353 2 27.8903 31.4194 4.30268
354 2 31.5565 31.358 4.20561
355 2 35.8165 31.3634 4.13429
356 2 39.6172 31.4824 4.12505
357 2 43.659 31.5266 4.22124
358 2 47.4773 31.5616 4.39319
359 2 51.652 31.393 4.06562
360 2 55.2744 31.7441 4.34401
361 2 -0.0660204 35.472 4.41015
362 2 4.08998 35.1699 4.18251
363 2 7.92396 35.4834 4.18717
364 2 12.0462 35.4673 4.37788
365 2 15.8023 35.488 4.3597
366 2 19.9818 35.3715 4.2462
367 2 23.6806 35.4162 4.21452
368 2 27.6983 35.4193 4.38724
369 2 31.5747 35.35 4.20784
370 2 35.7905 35.3785 4.32002
371 2 39.5501 35.3959 4.17403
372 2 43.6798 35.4277 4.2731
373 2 47.7251 35.3656 4.38492
374 2 51.3694 35.591 4.37964
375 2 55.5761 35.3487 4.283
376 2 0.241631 39.3123 4.28104
377 2 4.0731 39.493 4.4251
378 2 7.99891 39.3987 4.37751
379 2 11.9257 39.314 4.44173
380 2 15.8544 39.3568 4.28291
381 2 19.918 39.3944 4.18819
382 2 23.7726 39.5102 4.39989
383 2 27.675 39.2394 4.32681
384 2 31.6252 39.2105 4.45738
385 2 35.5256 39.3016 4.23013
386 2 39.7289 39.3297 4.45467
387 2 43.6568 39.3136 4.35227
388 2 47.588 39.3849 4.42022
389 2 51.4074 39.4691 4.29567
390 2 55.3551 39.5832 4.44067
391 2 0.156119 43.3017 4.38288
392 2 3.99155 43.2063 4.3086
393 2 7.94434 43.3078 4.16921
394 2 12.0478 43.2975 4.23626
395 2 16.081 43.3182 4.21776
396 2 19.7071 43.4288 4.36025
397 2 23.7424 43.29 4.39388
398 2 27.8056 43.4327 4.09974
399 2 31.5023 43.2043 4.33277
400 2 35.6573 43.1651 4.39564
401 2 39.6273 43.2437 4.28341
402 2 43.499 43.3532 4.39549
403 2 47.7118 43.327 4.36993
404 2 51.6202 43.3424 4.4253
405 2 55.3718 43.1638 4.15948
406 2 -0.0408976 47.2028 4.5348
407 2 3.92151 47.3172 4.49513
408 2 8.00228 47.2624 4.22323
409 2 11.9871 47.4219 4.39569
410 2 15.8629 47.3735 4.40878
411 2 20.083 47.3409 4.28431
412 2 23.9878 47.2039 4.44763
413 2 27.7795 47.1544 4.47273
414 2 31.8066 47.1439 4.19598
415 2 35.6857 47.1348 4.36394
416 2 39.7289 47.1517 4.16653
417 2 43.7117 47.4544 4.48149
418 2 47.5457 47.3982 4.33118
419 2 51.5171 47.2205 4.26351
420 2 55.5114 47.2881 4.2778
421 2 0.108659 51.3535 4.36875
422 2 4.21393 51.2624 4.10317
423 2 8.13097 51.0265 4.24145
424 2 11.937 51.4182 4.46644
425 2 15.9787 51.3187 4.52143
426 2 19.8817 51.1708 4.32897
427 2 23.8749 51.1209 4.27709
428 2 27.7171 51.0429 4.4559
429 2 31.7006 51.103 4.28375
430 2 35.8609 51.2986 4.49969
431 2 39.7078 51.2785 4.50558
432 2 43.6591 51.3622 4.37316
433 2 47.578 51.2496 4.40612
434 2 51.3288 51.3612 4.32599
435 2 55.3927 51.2881 4.17227
436 2 0.137222 55.2394 4.30764
437 2 4.00747 55.2005 4.32512
438 2 7.8312 54.9694 4.25491
439 2 11.8885 55.2012 4.363
440 2 15.9474 55.2912 4.32521
441 2 19.709 55.402 4.35813
442 2 24.0484 55.077 4.36623
443 2 27.9661 55.1529 4.55987
444 2 31.6727 55.1343 4.25013
445 2 35.7764 55.0858 4.35349
446 2 39.6393 55.1454 4.1816
447 2 43.5697 55.3226 4.2827
448 2 47.4464 55.1847 4.39999
449 2 51.5009 55.191 4.17759
450 2 55.3796 55.4516 4.49248
451 2 0.148976 59.1871 8.34358
452 2 4.045 -0.3123 8.27843
453 2 8.02473 -0.108199 8.15506
454 2 11.698 -0.233593 8.16147
455 2 15.7848 -0.125212 8.27228
456 2 20.0303 -0.0979487 8.06127
457 2 23.9826 0.0616822 8.14241
458 2 27.8712 -0.205054 8.33021
459 2 31.8975 -0.333588 8.32798
460 2 35.774 59.1786 8.40152
461 2 39.8314 59.068 8.14565
462 2 43.5954 -0.231867 8.22218
463 2 47.5412 -0.123324 8.38088
464 2 51.4025 -0.409453 8.20891
465 2 55.4042 -0.140208 8.24285
466 2 0.085882 3.70065 8.20455
467 2 4.08378 3.72982 8.3107
468 2 8.10723 3.76147 8.19999
469 2 11.9759 4.02827 8.192
470 2 15.914 4.04347 8.36183
471 2 19.9375 3.83302 8.43388
472 2 23.8833 3.80865 8.32424
473 2 27.8782 3.91712 8.11924
474 2 31.6498 3.74021 8.32961
475 2 35.5781 3.77168 8.44778
476 2 39.7036 3.86736 8.23253
477 2 43.5755 3.82259 8.35796
478 2 47.6202 3.77866 8.36332
479 2 51.6092 3.76229 8.46467
480 2 55.5653 4.10351 8.36631
481 2 -0.0942977 7.78299 8.25008
482 2 4.04165 7.87233 8.3607
483 2 8.12355 7.78777 8.34624
484 2 11.883 7.85634 8.28335
485 2 15.7645 8.01455 8.30941
486 2 19.7472 7.84407 8.09166
487 2 23.769 7.64905 8.31822
488 2 27.9135 7.9503 8.20757
489 2 31.6562 7.64244 8.2677
490 2 35.666 7.56052 8.26339
491 2 39.5653 7.87079 8.28073
492 2 43.5898 7.93235 8.10678
493 2 47.4535 7.74761 8.27383
494 2 51.3196 7.6965 8.45568
495 2 55.3982 7.97357 8.52577
496 2 0.0073947 11.7049 8.29645
497 2 4.11258 11.5174 8.33866
498 2 8.00334 11.7436 8.21052
499 2 12.0968 11.7008 8.23769
500 2 16.1358 11.7616 8.08276
501 2 19.8605 11.6891 8.30098
502 2 23.8358 11.6821 8.25605
503 2 27.6415 11.6211 8.20194
504 2 31.6054 11.644 8.37759
505 2 35.9078 11.5502 8.17045
506 2 39.7268 11.8473 8.2268
507 2 43.7097 11.7871 8.30333
508 2 47.6411 11.7531 8.36058
509 2 51.3446 11.8643 8.43442
510 2 55.1735 11.7632 8.26258
511 2 0.0954102 15.775 8.2409
512 2 4.07738 15.7472 8.10792
513 2 8.10668 15.8816 8.2355
514 2 12.1313 15.6974 8.06762
515 2 15.8604 15.6417 8.28275
516 2 19.8964 15.6203 8.37154
517 2 23.8378 15.7058 8.36119
518 2 27.7747 15.5409 8.32736
519 2 31.8696 15.6929 8.23147
520 2 35.7059 15.6512 8.16146
521 2 39.7531 15.689 8.30396
522 2 43.6851 15.7411 8.38978
523 2 47.4783 15.7425 8.32614
524 2 51.5883 15.8292 8.43689
525 2 55.3388 15.7523 8.36067
526 2 0.0382306 19.8183 8.21878
527 2 3.95165 19.6934 8.27731
528 2 7.96763 19.5224 8.26432
529 2 12.05 19.5681 8.16007
530 2 16.1156 19.8027 8.05909
531 2 19.9077 19.9079 8.2507
532 2 23.9159 19.6627 8.24344
533 2 27.9356 19.7288 8.29124
534 2 31.6976 19.6665 8.32583
535 2 35.6662 19.6656 8.17084
536 2 39.483 19.7208 8.3512
537 2 43.5858 19.7691 8.38831
538 2 47.3867 19.7119 8.4025
539 2 51.5912 19.8331 8.35126
540 2 55.5905 19.5671 8.20567
541 2 0.0617593 23.9047 8.13038
542 2 3.84326 23.5254 8.35334
543 2 7.90811 23.5948 8.19414
544 2 11.6716 23.3991 8.28173
545 2 15.6991 23.6973 8.21073
546 2 19.7461 23.5177 8.3622
547 2 23.6926 23.3738 8.34537
548 2 27.6357 23.4483 8.22852
549 2 31.8445 23.578 8.53672
550 2 35.6115 23.5543 8.17134
551 2 39.4122 23.7316 8.4378
552 2 43.5101 23.7171 8.41577
553 2 47.611 23.7235 8.31832
554 2 51.4967 23.598 8.5233
555 2 55.2438 23.4831 8.40155
556 2 59.6476 27.6836 8.26852
557 2 4.16613 27.5449 8.05221
558 2 7.96253 27.6606 8.36424
559 2 11.903 27.4884 8.22607
560 2 15.9091 27.3976 8.21105
561 2 19.8743 27.5153 8.36959
562 2 23.6822 27.4834 8.32461
563 2 27.7007 27.4845 8.46512
564 2 31.8179 27.6853 8.18731
565 2 35.7155 27.7013 8.07684
566 2 39.6489 27.511 8.26525
567 2 43.5496 27.443 8.15434
568 2 47.692 27.7264 8.09766
569 2 51.6948 27.5555 8.25939
570 2 55.7444 27.6727 8.39773
571 2 0.292156 31.4536 8.17505
572 2 4.09772 31.4619 8.28838
573 2 8.06576 31.579 8.35418
574 2 12.0523 31.5852 8.26344
575 2 15.9057 31.54 8.10573
576 2 19.8346 31.3701 8.27902
577 2 23.8037 31.4873 8.32955
578 2 27.7814 31.5674 8.2949
579 2 31.8474 31.627 8.2265
580 2 35.8564 31.4937 8.25633
581 2 39.6855 31.5022 8.42906
582 2 43.3714 31.3852 8.37009
583 2 47.3266 31.2844 8.32508
584 2 51.6183 31.4863 8.34682
585 2 55.6786 31.6867 8.23027
586 2 0.174071 35.5226 8.33841
587 2 4.16982 35.3192 8.09322
588 2 8.09097 35.4517 7.97905
589 2 12.1171 35.5336 8.26703
590 2 16.0299 35.6652 8.1331
591 2 19.9166 35.4856 8.42491
592 2 23.7571 35.411 8.22255
593 2 27.58 35.5083 8.32511
594 2 31.7684 35.2222 8.20751
595 2 35.6225 35.3998 8.25211
596 2 39.8775 35.5107 8.27353
597 2 43.5893 35.2189 8.12555
598 2 47.5435 35.2958 8.5459
599 2 51.5051 35.4761 8.45704
600 2 55.6203 35.6665 8.2248
601 2 0.253082 39.4404 8.39147
602 2 4.08795 39.5847 8.29435
603 2 8.25505 39.3917 8.20848
604 2 11.9058 39.6099 8.10759
605 2 15.8819 39.4196 8.34937
606 2 19.8053 39.4055 8.44157
607 2 23.9653 39.5218 8.36924
608 2 27.8069 39.1536 8.26016
609 2 31.8213 39.255 8.19109
610 2 35.8461 39.3702 8.24189
611 2 39.7765 39.5019 8.18014
612 2 43.6692 39.4223 8.36032
613 2 47.3668 39.1843 8.3768
614 2 51.2461 39.1839 8.31196
615 2 55.5189 39.3295 8.35093
616 2 0.0367809 43.4034 8.36501
617 2 4.13507 43.5291 8.39238
618 2 8.09089 43.3755 8.184
619 2 11.9661 43.5181 8.20903
620 2 16.0159 43.4332 8.26038
621 2 19.8329 43.1956 8.27206
622 2 23.9813 43.299 8.18597
623 2 27.7134 43.4174 8.41216
624 2 31.6941 43.2699 8.27194
625 2 35.9046 43.3195 8.27286
626 2 39.7612 43.1634 8.31
627 2 43.7475 43.3881 8.30704
628 2 47.6404 43.3508 8.33922
629 2 51.6869 43.3914 8.34791
630 2 55.5396 43.3119 8.26723
631 2 0.0962722 47.3399 8.32716
632 2 3.7725 47.2221 8.22751
633 2 8.14362 47.2668 8.04448
634 2 12.1717 47.3613 8.23527
635 2 16.0892 47.2269 8.29718
636 2 19.9748 47.2928 8.37081
637 2 23.9805 47.1776 8.1442
638 2 28.0316 47.2881 8.44918
639 2 31.8812 47.4902 8.38939
640 2 35.8228 47.0119 8.21285
641 2 39.6858 47.432 8.40091
642 2 43.577 47.1843 8.31769
643 2 47.722 47.3666 8.20427
644 2 51.4756 47.2978 8.51559
645 2 55.3094 47.1176 8.23999
646 2 0.0924752 51.282 8.26151
647 2 3.95785 51.2268 8.30999
648 2 7.81026 51.1922 8.18774
649 2 11.8292 51.1933 8.26419
650 2 15.9779 51.3541 8.32952
651 2 19.7702 51.3006 8.29564
652 2 23.8229 51.4154 8.24074
653 2 27.937 51.1423 8.36185
654 2 31.6479 51.1419 8.33901
655 2 35.6295 51.2382 8.46189
656 2 39.7378 51.2865 8.40258
657 2 43.5398 51.2074 8.18421
658 2 47.5888 51.4012 8.32013
659 2 51.5606 51.3713 8.34352
660 2 55.5392 51.0918 8.12099
661 2 -0.0709373 55.2776 8.41686
662 2 4.0692 55.1533 8.19326
663 2 7.99945 55.2406 8.28191
664 2 11.9479 55.2239 8.36118
665 2 15.9936 55.391 8.25129
666 2 20.0049 55.4283 8.12668
667 2 23.9855 55.3692 8.31515
668 2 27.9728 55.2063 8.24164
669 2 31.7304 55.0848 8.27565
670 2 35.7256 55.3277 8.27007
671 2 39.7364 55.1812 8.37809
672 2 43.6514 55.2677 8.23987
673 2 47.4295 55.3903 8.35797
674 2 51.6442 55.1952 8.35796
675 2 55.5817 55.1573 8.44199
676 2 0.0492969 -0.00144972 12.1143
677 2 4.21154 -0.053142 12.0722
678 2 8.12669 -0.010496 12.2165
679 2 12.0343 0.0314 11.9726
680 2 15.9714 59.1874 12.2008
681 2 19.7153 -0.187113 12.2511
682 2 23.725 -0.245275 12.1149
683 2 28.0183 -0.0120128 12.2893
684 2 31.8487 -0.199574 12.0882
685 2 35.7091 -0.272538 12.2201
686 2 39.8415 -0.0193804 12.0363
687 2 43.5896 -0.0970509 12.3446
688 2 47.4965 -0.120434 12.2266
689 2 51.8411 -0.251597 12.1609
690 2 55.674 -0.165033 12.286
691 2 -0.0227165 3.93766 12.0644
692 2 3.98131 3.94118 12.3088
693 2 8.04963 3.87819 12.3519
694 2 12.0426 3.91345 12.344
695 2 16.0402 3.81223 12.2773
696 2 19.8648 3.60238 12.3028
697 2 23.9771 3.82435 12.18
698 2 27.8514 3.72615 12.4211
699 2 31.801 3.92947 12.1606
700 2 35.6009 3.74724 12.3555
701 2 39.806 4.07293 12.1911
702 2 43.7363 3.76301 12.3157
703 2 47.6682 3.76194 12.3823
704 2 51.648 3.72969 12.3519
705 2 55.461 3.87872 12.3309
706 2 0.202207 7.86745 12.0962
707 2 4.29486 7.91116 12.0883
708 2 8.12059 7.86015 12.1499
709 2 12.2322 7.66106 12.2782
710 2 16.0022 7.77643 12.3824
711 2 19.922 7.7675 12.1207
712 2 23.7926 7.69765 12.4671
713 2 27.8722 7.75231 12.4373
714 2 31.7664 7.84241 12.152
715 2 35.5651 7.7979 12.3481
716 2 39.7656 7.84983 12.1379
717 2 43.6023 7.77747 12.3854
718 2 47.6117 7.84211 12.4556
719 2 51.5044 7.74729 12.3415
720 2 55.5129 7.85276 12.3126
721 2 0.00230518 11.7584 12.1262
722 2 4.06783 11.8039 12.199
723 2 8.02998 11.8953 12.1435
724 2 12.2346 11.8488 12.2412
725 2 16.0778 11.7014 12.3018
726 2 19.8281 11.788 12.2014
727 2 23.6953 11.6782 12.2125
728 2 27.7601 11.6571 12.1886
729 2 31.7825 11.7729 12.1483
730 2 35.8745 11.7111 12.2143
731 2 39.4884 11.6085 12.1764
732 2 43.5509 11.8156 12.3224
733 2 47.6067 11.8177 12.2585
734 2 51.5484 11.8086 12.4512
735 2 55.4257 11.8553 12.3714
736 2 0.0474093 15.5634 12.01
737 2 4.14662 15.7401 12.1859
738 2 8.21924 15.7126 12.0879
739 2 12.1796 15.786 12.3844
740 2 16.0063 15.8293 12.3648
741 2 19.9298 15.8776 12.1212
742 2 23.9661 15.6498 12.3325
743 2 27.8655 15.636 12.2578
744 2 31.7991 15.6205 12.0586
745 2 35.6276 15.7127 12.3642
746 2 39.7268 15.7349 12.2433
747 2 43.455 15.7211 12.4466
748 2 47.3816 15.7646 12.2899
749 2 51.5374 15.9066 12.2749
750 2 55.493 15.7454 12.3538
751 2 0.102436 19.4496 12.2229
752 2 3.9897 19.6743 12.2951
753 2 8.05427 19.3647 12.2357
754 2 11.7949 19.8547 12.202
755 2 15.7027 19.6722 12.2367
756 2 19.9156 19.7404 12.3126
757 2 23.8594 19.625 12.1835
758 2 27.8708 19.5992 12.2288
759 2 31.8066 19.5965 12.2993
760 2 35.6992 19.7311 12.262
761 2 39.7009 19.6469 12.2728
762 2 43.4865 19.7871 12.3321
763 2 47.5807 19.8435 12.1261
764 2 51.5556 19.8547 12.1997
765 2 55.475 19.6351 12.2652
766 2 0.267655 23.7728 12.1934
767 2 4.27794 23.7104 12.2104
768 2 8.02353 23.6379 12.2123
769 2 11.9446 23.5359 12.2285
770 2 15.9464 23.6009 12.1893
771 2 19.9393 23.6676 12.2154
772 2 23.8505 23.674 12.2809
773 2 27.8124 23.6053 12.3319
774 2 31.622 23.8317 12.3297
775 2 35.7849 23.7895 12.2796
776 2 39.5425 23.7084 12.4851
777 2 43.5995 23.6134 12.2307
778 2 47.7102 23.6803 12.3043
779 2 51.6196 23.8349 12.3446
780 2 55.6588 23.5313 12.3277
781 2 0.219495 27.6856 12.3104
782 2 4.17313 27.5436 12.1368
783 2 7.91411 27.7403 12.1808
784 2 12.0283 27.8305 12.3109
785 2 15.9781 27.5841 12.499
786 2 19.8735 27.7498 12.3055
787 2 23.7424 27.4557 12.2715
788 2 27.6973 27.6038 12.3166
789 2 31.6351 27.5262 12.2729
790 2 35.6906 27.4579 12.2799
791 2 39.5648 27.8346 12.3022
792 2 43.4081 27.4849 12.3453
793 2 47.1375 27.4621 12.1806
794 2 51.6465 27.7276 12.1312
795 2 55.3653 27.5202 12.3334
796 2 0.0667377 31.6636 12.2316
797 2 4.10665 31.3908 12.1936
798 2 8.07814 31.6233 12.378
799 2 12.1709 31.5521 12.3462
800 2 15.9143 31.6118 11.9981
801 2 20.0338 31.798 12.2466
802 2 24.0531 31.3181 12.2815
803 2 27.8586 31.5898 12.0942
804 2 31.5849 31.4632 12.2113
805 2 35.7135 31.7458 12.3688
806 2 39.5943 31.5081 12.1597
807 2 43.4707 31.3646 12.2161
808 2 47.6812 31.6452 12.2853
809 2 51.6064 31.6444 12.2446
810 2 55.6405 31.5635 12.243
811 2 0.0861142 35.5651 12.1675
812 2 4.09952 35.2973 12.2277
813 2 7.71292 35.4396 12.2425
814 2 12.0602 35.2451 12.3147
815 2 15.8549 35.5252 12.1567
816 2 19.9529 35.4515 12.2838
817 2 23.9157 35.2999 12.3795
818 2 27.8954 35.4944 12.1987
819 2 31.8288 35.3743 12.2571
820 2 35.8708 35.5856 12.2368
821 2 39.8842 35.5214 12.266
822 2 43.6217 35.5907 12.2874
823 2 47.6457 35.32 12.4201
824 2 51.6274 35.4966 12.3709
825 2 55.4477 35.6427 12.2177
826 2 0.0612525 39.3902 12.3054
827 2 4.27211 39.3418 12.2544
828 2 8.01008 39.2273 12.1924
829 2 11.8381 39.3911 12.3021
830 2 15.8302 39.5976 12.2487
831 2 19.9676 39.255 12.1979
832 2 23.9098 39.3442 12.4965
833 2 27.7241 39.3673 12.2367
834 2 31.9338 39.4532 12.2337
835 2 35.7864 39.5262 12.1969
836 2 39.7375 39.3311 12.2918
837 2 43.7474 39.4976 12.3054
838 2 47.3928 39.3655 12.3883
839 2 51.2792 39.4746 12.4658
840 2 55.3834 39.5949 12.3331
841 2 0.0266574 43.504 12.2891
842 2 4.16105 43.3989 12.1169
843 2 8.09916 43.5065 12.4709
844 2 11.9696 43.4247 12.2708
845 2 15.9246 43.3981 12.2547
846 2 20.015 43.2482 12.1091
847 2 23.8474 43.5947 12.2617
848 2 27.6813 43.3448 12.1426
849 2 31.6712 43.4191 12.3214
850 2 35.771 43.3192 12.4125
851 2 39.7036 43.368 12.3038
852 2 43.633 43.2974 12.291
853 2 47.584 43.2976 12.2327
854 2 51.5275 43.2522 12.269
855 2 55.5261 43.2145 12.413
856 2 -0.037907 47.5006 12.022
857 2 4.02245 47.3676 12.2282
858 2 8.0684 47.4152 12.1453
859 2 11.9093 47.2106 12.2614
860 2 16.0305 47.4883 12.3185
861 2 19.9699 47.3419 12.2981
862 2 23.7438 47.4093 12.3795
863 2 27.8314 47.2108 12.3208
864 2 31.8346 47.4531 12.3244
865 2 35.8419 47.3524 12.3518
866 2 39.7631 47.4299 12.4628
867 2 43.5728 47.5091 12.2648
868 2 47.5304 47.3019 12.4721
869 2 51.4879 47.2267 12.218
870 2 55.6122 47.4949 12.1245
871 2 0.0434763 51.3673 12.2084
872 2 4.04369 51.2684 12.0887
873 2 8.07331 51.2023 12.3516
874 2 12.1506 51.2789 12.1975
875 2 15.9914 51.3528 12.2654
876 2 20.1243 51.1994 12.067
877 2 23.8528 51.3359 12.3649
878 2 27.8456 51.4186 12.1688
879 2 31.9753 51.2489 12.2464
880 2 35.8153 51.1754 12.1677
881 2 39.7757 51.3158 12.3252
882 2 43.8068 51.4478 12.2362
883 2 47.564 51.3042 12.3498
884 2 51.4493 51.2239 12.4212
885 2 55.5457 51.2446 11.967
886 2 0.252342 55.4469 12.2348
887 2 4.13817 55.3751 12.1179
888 2 8.061 55.232 12.2691
889 2 11.9913 55.2617 12.3244
890 2 15.9358 55.371 12.2063
891 2 20.0535 55.1464 11.9787
892 2 24.008 55.3222 12.3785
893 2 27.7214 55.3886 12.4395
894 2 31.779 55.3068 12.3546
895 2 35.869 55.196 12.3715
896 2 39.7544 55.2236 12.3247
897 2 43.7217 55.3147 12.3541
898 2 47.5162 55.1762 12.3787
899 2 51.4322 55.3423 12.3125
900 2 55.7721 55.315 12.373
901 2 0.276746 -0.0171694 15.9667
902 2 4.11619 0.138144 15.9602
903 2 8.07899 0.181351 15.9502
904 2 11.9842 -0.191821 16.1411
905 2 15.8063 -0.148047 16.2066
906 2 19.8149 -0.432788 16.1739
907 2 23.8953 -0.128946 16.2276
908 2 27.7885 -0.0496657 16.1673
909 2 31.7668 -0.0887134 16.3117
910 2 35.9197 0.0950906 16.1062
911 2 39.7937 0.0818496 16.1715
912 2 43.6146 59.4075 16.2305
913 2 47.4947 59.3203 16.2261
914 2 51.6047 59.3185 16.1697
915 2 55.534 -0.170208 16.223
916 2 0.17297 3.74964 16.2856
917 2 4.13174 4.06173 16.135
918 2 8.39917 3.90247 16.1849
919 2 12.1163 3.85269 16.1491
920 2 15.9486 3.82964 16.3077
921 2 20.1972 3.66826 16.2531
922 2 23.914 3.95252 16.1447
923 2 27.8025 3.77926 16.2572
924 2 31.955 3.97329 16.2493
925 2 35.8183 3.86316 16.2882
926 2 39.6467 3.95163 16.0805
927 2 43.7774 3.95863 16.2734
928 2 47.4537 3.86511 16.1203
929 2 51.55 3.80653 16.2535
930 2 55.5225 4.27477 16.2417
931 2 0.138654 7.79686 16.0343
932 2 4.21479 7.86772 16.1115
933 2 8.07631 7.87766 16.0971
934 2 11.8624 7.95755 16.2557
935 2 15.9944 7.8873 16.3312
936 2 20.0189 7.7451 16.2926
937 2 23.9078 7.97048 16.1774
938 2 27.8094 7.86778 16.2798
939 2 31.6822 7.92552 16.052
940 2 35.5648 7.89373 16.2194
941 2 39.6051 7.7965 16.2604
942 2 43.7164 7.8566 16.2308
943 2 47.6007 7.77137 16.3712
944 2 51.3145 7.76609 16.2517
945 2 55.2491 7.98891 16.3544
946 2 59.5147 11.7298 16.3149
947 2 4.00437 11.7961 16.1034
948 2 7.94463 11.8147 16.1204
949 2 11.8572 11.7981 16.0995
950 2 15.9227 11.8566 16.2914
951 2 19.9045 11.8425 16.2754
952 2 23.8721 11.6633 16.1556
953 2 27.7715 11.7558 16.3024
954 2 31.811 11.8695 16.28
955 2 35.8125 11.634 16.2061
956 2 39.7465 11.702 16.3167
957 2 43.647 12.0195 16.2259
958 2 47.8797 11.7573 16.0189
959 2 51.54 11.6766 16.1912
960 2 55.4824 11.9722 16.1407
961 2 0.10147 15.9053 16.102
962 2 3.94666 15.8059 16.0788
963 2 8.08824 15.6176 16.1498
964 2 11.9868 15.839 16.3356
965 2 15.9102 15.859 16.3374
966 2 20.187 15.6835 16.2278
967 2 24.0265 15.5109 16.1508
968 2 27.6939 15.6177 16.3805
969 2 31.8502 15.6466 16.1544
970 2 35.8589 15.4802 16.2688
971 2 39.8049 15.8924 16.3409
972 2 43.694 15.8165 16.1962
973 2 47.4126 15.7051 16.2443
974 2 51.5216 15.7671 16.3371
975 2 55.7186 15.8585 16.2429
976 2 0.253938 19.6815 16.3082
977 2 4.16187 19.7115 16.1686
978 2 7.97831 19.717 16.1949
979 2 12.0004 19.6903 16.156
980 2 15.8794 19.9297 16.1888
981 2 19.8685 19.7514 16.2117
982 2 23.9979 19.5624 16.2139
983 2 27.937 19.5044 16.1957
984 2 31.8625 19.9224 16.1692
985 2 35.6805 19.68 16.2713
986 2 39.709 19.7952 16.358
987 2 43.688 19.815 16.0401