ITEM: TIMESTEP
35800
ITEM: NUMBER OF ATOMS
28125
ITEM: BOX BOUNDS xy xz yz pp pp pp
0.0000000000000000e+00 5.9369999999999997e+01 0.0000000000000000e+00
0.0000000000000000e+00 5.9369999999999997e+01 0.0000000000000000e+00
8.0256796978751765e-02 9.9419743203021312e+01 0.0000000000000000e+00
ITEM: ATOMS id type x y z
1 2 0.070246 -0.0843295 0.274743
2 2 3.95324 -0.269384 0.145073
3 2 7.80407 -0.113311 0.338662
4 2 11.7784 -0.106451 0.22751
5 2 15.8685 -0.314062 0.206996
6 2 19.8225 -0.195935 0.449265
7 2 23.5312 -0.0991082 0.366523
8 2 27.7456 -0.166632 0.358893
9 2 31.5986 -0.108124 0.408934
10 2 35.6517 -0.185094 0.277338
11 2 39.4453 59.153 0.350979
12 2 43.5917 -0.273403 0.473313
13 2 47.4849 -0.169955 0.542597
14 2 51.4058 -0.380182 0.230051
15 2 55.32 59.1673 0.414492
16 2 0.175579 3.86826 0.221994
17 2 4.07722 3.62149 0.418228
18 2 7.88809 3.81339 0.436855
19 2 11.9146 3.68189 0.201215
20 2 15.7463 3.71244 0.195786
21 2 19.686 3.79508 0.327875
22 2 23.7237 3.79701 0.188468
23 2 27.565 3.70425 0.321843
24 2 31.8558 3.70981 0.264424
25 2 35.6045 3.84569 0.39575
26 2 39.6082 3.69006 0.392067
27 2 43.5773 3.939 0.314251
28 2 47.4787 3.96323 0.302669
29 2 51.439 3.75377 0.476653
30 2 55.5575 3.82029 0.29151
31 2 0.269737 7.66221 0.208469
32 2 4.00087 7.75828 0.477249
33 2 8.07148 7.67029 0.104048
34 2 11.7294 7.85647 0.0956681
35 2 15.6622 7.84847 0.414737
36 2 19.8829 7.95772 0.295428
37 2 23.7256 7.63203 0.39452
38 2 27.6589 7.73113 0.188304
39 2 31.6511 7.5799 0.350881
40 2 35.5831 7.87748 0.275995
41 2 39.5562 7.92106 0.545363
42 2 43.7002 7.95577 0.31626
43 2 47.5684 7.76532 0.52534
44 2 51.5552 7.79501 0.24283
45 2 55.6025 7.7085 0.34081
46 2 59.5677 11.6739 0.22274
47 2 3.85792 11.6303 0.374962
48 2 7.93022 11.795 0.206686
49 2 11.9096 11.9252 0.415762
50 2 15.6872 11.7168 0.330431
51 2 19.9243 11.8372 0.195015
52 2 23.8402 11.7294 0.216149
53 2 27.7015 11.5313 0.164122
54 2 31.801 11.6772 0.324976
55 2 35.6424 11.7423 0.365097
56 2 39.6192 11.7472 0.496473
57 2 43.7681 11.9085 0.436213
58 2 47.6319 11.7058 0.387738
59 2 51.44 11.7537 0.323609
60 2 55.5848 11.6068 0.390123
61 2 0.0694135 15.7278 0.416737
62 2 4.06466 15.5352 0.216064
63 2 7.93802 15.5575 0.424632
64 2 11.9625 15.6555 0.303032
65 2 15.7052 15.7217 0.368067
66 2 19.8434 15.8447 0.256546
67 2 24.0484 15.7788 0.381396
68 2 27.7937 15.4706 0.0263098
69 2 31.6233 15.6257 0.214771
70 2 35.6388 15.735 0.341034
71 2 39.4454 15.703 0.322094
72 2 43.5624 15.739 0.471359
73 2 47.4902 15.7188 0.481536
74 2 51.4474 15.6382 0.449278
75 2 55.4256 15.67 0.247482
76 2 59.2656 19.4986 0.31829
77 2 4.02365 19.6794 0.458083
78 2 7.93129 19.5996 0.379188
79 2 11.8462 19.7942 0.398963
80 2 15.9083 19.7393 0.352576
81 2 19.6153 19.7861 0.272015
82 2 23.7288 19.5728 0.314531
83 2 27.9239 19.5078 0.198488
84 2 31.6548 19.4799 0.230212
85 2 35.7061 19.606 0.293542
86 2 39.6293 19.8712 0.458807
87 2 43.558 19.5204 0.320617
88 2 47.3891 19.6057 0.612144
89 2 51.3274 19.5437 0.364276
90 2 55.4608 19.5869 0.395095
91 2 0.121455 23.7238 0.503377
92 2 4.02728 23.5631 0.384843
93 2 7.941 23.7052 0.207177
94 2 11.8769 23.5651 0.147026
95 2 15.9017 23.5894 0.137226
96 2 19.8943 23.6243 0.18894
97 2 23.8732 23.4857 0.314427
98 2 27.7792 23.5808 0.199917
99 2 31.7713 23.5811 0.395219
100 2 35.5766 23.6314 0.213789
101 2 39.5457 23.5455 0.222031
102 2 43.4028 23.5662 0.398971
103 2 47.6214 23.619 0.443283
104 2 51.4124 23.6696 0.519354
105 2 55.4662 23.6215 0.498829
106 2 -0.301048 27.5232 0.448234
107 2 4.19514 27.6415 0.415954
108 2 7.9604 27.713 0.389682
109 2 11.9963 27.5307 0.392264
110 2 15.7806 27.4841 0.38277
111 2 19.578 27.4684 0.185999
112 2 23.8454 27.6173 0.509425
113 2 27.8955 27.4921 -0.0289269
114 2 31.6685 27.6588 0.315244
115 2 35.5342 27.442 0.347073
116 2 39.6202 27.4486 0.455455
117 2 43.6452 27.6263 0.524466
118 2 47.4737 27.5953 0.369706
119 2 51.4464 27.6755 0.186292
120 2 55.2315 27.6871 0.304645
121 2 -0.105871 31.5443 0.349429
122 2 4.00966 31.6226 0.503675
123 2 7.91828 31.7358 0.352307
124 2 11.9481 31.5126 0.325981
125 2 15.8299 31.5711 0.353871
126 2 19.7016 31.5629 0.426053
127 2 23.7032 31.448 0.279712
128 2 27.7274 31.4647 0.358291
129 2 31.7607 31.371 0.123971
130 2 35.5497 31.2681 0.34697
131 2 39.6625 31.4264 0.247766
132 2 43.347 31.5905 0.403032
133 2 47.4722 31.5325 0.114633
134 2 51.4735 31.3807 0.470837
135 2 55.457 31.5731 0.221759
136 2 -0.148111 35.4413 0.308545
137 2 3.86075 35.5524 0.395398
138 2 7.78615 35.5839 0.279408
139 2 11.7196 35.4204 0.314886
140 2 15.8531 35.3787 0.085907
141 2 19.6913 35.4292 0.501804
142 2 23.7339 35.6331 0.39907
143 2 27.7587 35.3447 0.146992
144 2 31.5923 35.4157 0.37518
145 2 35.457 35.4951 0.199271
146 2 39.552 35.5392 0.400265
147 2 43.56 35.4345 0.410603
148 2 47.6922 35.6681 0.370652
149 2 51.4052 35.3934 0.380897
150 2 55.4392 35.6239 0.484702
151 2 -0.152177 39.2621 0.242717
152 2 3.81141 39.4092 0.42792
153 2 7.76868 39.4056 0.396596
154 2 11.7302 39.2215 0.323154
155 2 15.8546 39.3193 0.292313
156 2 19.8357 39.2621 0.32683
157 2 23.8248 39.6805 0.461673
158 2 27.781 39.228 0.313213
159 2 31.6518 39.5352 0.244711
160 2 35.5996 39.4171 0.287686
161 2 39.3853 39.6112 0.231087
162 2 43.3638 39.3247 0.315578
163 2 47.468 39.3801 0.472486
164 2 51.5142 39.5893 0.67353
165 2 55.3659 39.5652 0.305469
166 2 0.162708 43.3203 0.313683
167 2 4.09198 43.3616 0.34005
168 2 7.99793 43.2583 0.161016
169 2 11.7018 43.461 0.360008
170 2 15.9029 43.2334 0.470872
171 2 19.7496 43.3395 0.45083
172 2 23.6486 43.6115 0.59592
173 2 27.824 43.4357 0.46127
174 2 31.7096 43.4332 0.476823
175 2 35.4166 43.506 0.372634
176 2 39.5333 43.4786 0.20126
177 2 43.5353 43.2966 0.339011
178 2 47.4722 43.2794 0.388284
179 2 51.4573 43.341 0.334083
180 2 55.4351 43.494 0.425538
181 2 -0.0289899 47.2499 0.0282573
182 2 3.85612 47.1445 0.15432
183 2 7.90967 47.2923 0.0344414
184 2 11.8811 47.3794 99.5744
185 2 15.8044 47.1486 0.203038
186 2 19.9525 47.4506 0.400902
187 2 23.8928 47.4475 0.399815
188 2 27.7645 47.5322 99.8331
189 2 31.6056 47.2643 0.506478
190 2 35.5866 47.4677 0.504572
191 2 39.5145 47.4736 0.233363
192 2 43.5366 47.3003 0.322308
193 2 47.5938 47.0854 0.261928
194 2 51.38 47.3081 0.367742
195 2 55.3631 47.2138 0.401973
196 2 0.0588118 51.4393 0.348677
197 2 3.94161 51.2487 0.500575
198 2 8.04882 51.2601 0.146896
199 2 11.8621 51.238 99.7183
200 2 15.9723 51.4078 0.214505
201 2 19.8738 51.2665 0.408608
202 2 23.7204 51.5144 0.320864
203 2 27.7024 51.2223 0.323169
204 2 31.8712 51.5357 0.261446
205 2 35.6023 51.3877 0.52032
206 2 39.718 51.3312 0.529347
207 2 43.5426 51.16 0.243309
208 2 47.4611 51.1972 0.125651
209 2 51.2703 51.1601 0.431375
210 2 55.276 51.2547 0.411983
211 2 0.0729691 55.2226 99.4942
212 2 3.98865 55.2529 0.38455
213 2 7.97846 55.1557 0.17662
214 2 12.057 55.2563 0.354451
215 2 15.7575 55.2445 0.297619
216 2 19.806 55.2238 0.3533
217 2 23.8713 55.2603 0.276496
218 2 27.7509 55.2105 0.358696
219 2 31.6505 55.2246 0.37404
220 2 35.6065 55.2172 0.256226
221 2 39.6394 55.2063 0.352634
222 2 43.7913 55.3494 0.349345
223 2 47.6225 55.2106 0.365535
224 2 51.478 55.1192 0.359851
225 2 55.3743 55.2397 0.188913
226 2 0.0450269 -0.246004 4.2426
227 2 4.06102 -0.244535 4.19702
228 2 7.95382 -0.0163953 4.34603
229 2 11.9099 59.2027 4.36737
230 2 15.7922 -0.266977 4.29735
231 2 19.587 -0.100121 4.2789
232 2 23.8335 -0.181995 4.38641
233 2 27.7137 -0.276767 4.24834
234 2 31.6276 -0.189745 4.23424
235 2 35.6362 -0.0450265 4.44985
236 2 39.6044 -0.102725 4.48932
237 2 43.4914 -0.167181 4.4431
238 2 47.6215 -0.116253 4.4188
239 2 51.5159 -0.355596 4.21647
240 2 55.4945 59.0035 4.05592
241 2 0.040311 3.67375 4.16864
242 2 3.94735 3.82987 4.43195
243 2 7.95673 4.0388 4.33446
244 2 12.0446 3.96373 4.10402
245 2 15.8833 3.6769 4.2086
246 2 19.7826 3.76585 4.26204
247 2 23.5143 3.92968 4.32309
248 2 27.6573 3.89862 4.37388
249 2 31.5671 3.73166 4.29796
250 2 35.6453 3.94496 4.30519
251 2 39.5996 3.61687 4.39322
252 2 43.7361 3.81337 4.40015
253 2 47.688 3.91473 4.36465
254 2 51.4582 3.78501 4.43523
255 2 55.3852 3.83212 4.12504
256 2 0.0602116 7.81791 4.3326
257 2 4.05816 7.86212 4.36569
258 2 8.09386 7.8326 4.35013
259 2 11.9107 7.8101 4.24021
260 2 15.7089 7.80407 4.01764
261 2 19.9067 7.79051 4.14875
262 2 23.8984 7.48592 4.01079
263 2 27.8303 7.67182 4.48624
264 2 31.6065 7.75534 4.29918
265 2 35.4846 7.79766 4.39542
266 2 39.605 7.71592 4.38385
267 2 43.6451 7.67694 4.35649
268 2 47.4881 7.63087 4.41952
269 2 51.4997 7.79237 4.35791
270 2 55.3374 7.68983 4.26234
271 2 0.11077 11.6577 4.30185
272 2 4.13635 11.7978 4.37161
273 2 8.0089 11.6739 4.19197
274 2 12.0481 11.6864 4.28717
275 2 16.1369 11.7859 4.33296
276 2 19.8265 11.6975 4.07057
277 2 23.9482 11.7319 4.28729
278 2 27.9091 11.6911 4.33069
279 2 31.6485 11.6468 4.29628
280 2 35.7438 11.7181 4.23097
281 2 39.3851 11.5167 4.27891
282 2 43.5052 11.5327 4.43422
283 2 47.4956 11.6083 4.34863
284 2 51.4942 11.4763 4.36133
285 2 55.4245 11.7617 4.29961
286 2 0.048898 15.7094 4.41505
287 2 3.98254 15.6548 4.26548
288 2 8.06898 15.7699 4.29022
289 2 11.8751 15.8113 4.40517
290 2 15.7675 15.7036 4.27777
291 2 19.7688 15.5035 4.28684
292 2 23.8701 15.76 4.14105
293 2 27.784 15.667 4.27442
294 2 31.7126 15.6176 4.13204
295 2 35.6152 15.5501 4.4086
296 2 39.4884 15.572 4.31461
297 2 43.4974 15.6405 4.43766
298 2 47.5494 15.5074 4.39836
299 2 51.6487 15.7418 4.23566
300 2 55.561 15.5784 4.14767
301 2 0.0344182 19.5123 4.13247
302 2 3.9467 19.6223 4.30911
303 2 7.8537 19.6703 4.15913
304 2 11.911 19.6634 4.12489
305 2 15.8495 19.8979 4.13845
306 2 19.8807 19.6616 4.26023
307 2 23.6202 19.7888 4.34534
308 2 27.8291 19.5477 4.26014
309 2 31.7796 19.6423 4.38444
310 2 35.6943 19.5123 4.35538
311 2 39.644 19.5213 4.25451
312 2 43.2945 19.7583 4.53028
313 2 47.4809 19.6801 4.37648
314 2 51.5681 19.7403 4.08135
315 2 55.2793 19.4714 4.26145
316 2 -0.0265278 23.719 4.43027
317 2 4.11449 23.6753 4.21805
318 2 7.98897 23.7099 4.20221
319 2 11.9828 23.8792 4.24949
320 2 15.819 23.6943 4.23377
321 2 19.8489 23.7901 4.29163
322 2 23.8319 23.8061 4.38582
323 2 27.8869 23.5882 4.11522
324 2 31.5149 23.7544 4.28291
325 2 35.6583 23.6127 4.22567
326 2 39.5155 23.5779 4.35555
327 2 43.5036 23.5239 4.38909
328 2 47.3452 23.651 4.54398
329 2 51.4859 23.6105 4.43962
330 2 55.4108 23.4236 4.34106
331 2 0.138536 27.5298 4.30401
332 2 3.85264 27.4816 4.2041
333 2 8.01422 27.7402 4.30067
334 2 11.8917 27.4096 4.31183
335 2 15.8156 27.5777 4.13589
336 2 19.9151 27.5683 4.28992
337 2 23.88 27.578 4.10302
338 2 27.7053 27.4189 4.06132
339 2 31.8146 27.5583 4.34341
340 2 35.7422 27.624 4.29509
341 2 39.5466 27.5952 4.46362
342 2 43.4778 27.5823 4.31428
343 2 47.5184 27.5605 4.30528
344 2 51.3398 27.5148 4.47072
345 2 55.5151 27.5109 4.31055
346 2 -0.024798 31.4524 4.36024
347 2 3.99734 31.5811 4.44041
348 2 7.96513 31.4939 4.43543
349 2 11.8059 31.6002 4.25367
350 2 15.8572 31.5264 4.06156
351 2 19.8373 31.426 4.29385
352 2 23.7338 31.2609 4.16029
353 2 27.6656 31.5296 4.46778
354 2 31.5005 31.577 4.40705
355 2 35.6652 31.4929 4.38851
356 2 39.6514 31.4581 4.3771
357 2 43.5043 31.6062 4.40158
358 2 47.3422 31.4351 4.44529
359 2 51.3156 31.3993 4.2016
360 2 55.4847 31.7501 4.5176
361 2 -0.0624444 35.465 4.25639
362 2 3.93866 35.3513 4.53038
363 2 7.89479 35.2114 4.33871
364 2 11.8265 35.6963 4.1618
365 2 15.8061 35.385 4.38277
366 2 19.7859 35.4317 4.20189
367 2 23.9822 35.5096 4.26077
368 2 27.7333 35.2904 4.30969
369 2 31.6907 35.388 4.43603
370 2 35.68 35.6307 4.47764
371 2 39.6268 35.2635 4.34716
372 2 43.6202 35.306 4.26193
373 2 47.5133 35.5277 4.24572
374 2 51.3504 35.4581 4.36978
375 2 55.3772 35.5141 4.313
376 2 0.124011 39.5468 4.22524
377 2 4.07356 39.5785 4.47526
378 2 7.72116 39.4006 4.27289
379 2 11.907 39.3563 4.20522
380 2 15.8781 39.5188 4.23608
381 2 19.9531 39.4291 4.3431
382 2 23.8653 39.4629 4.21172
383 2 27.7953 39.3382 4.37248
384 2 31.6749 39.2162 4.25246
385 2 35.8551 39.5881 4.32245
386 2 39.4831 39.3411 4.29653
387 2 43.4487 39.4215 4.40764
388 2 47.5247 39.3901 4.29482
389 2 51.4731 39.5664 4.50847
390 2 55.5342 39.5557 4.42016
391 2 -0.11759 43.3669 4.39383
392 2 4.05793 43.5875 4.40322
393 2 7.82791 43.1695 4.23717
394 2 11.7813 43.2421 4.21508
395 2 15.6359 43.2524 4.34836
396 2 19.9937 43.3686 4.28417
397 2 23.6921 43.3294 4.287
398 2 27.8159 43.2465 4.255
399 2 31.835 43.1815 4.27924
400 2 35.6748 43.3405 4.32494
401 2 39.7102 43.4594 4.15168
402 2 43.6085 43.4235 4.27548
403 2 47.5896 43.2235 4.42939
404 2 51.5225 43.4246 4.43142
405 2 55.2867 43.5051 4.3603
406 2 0.0290449 47.3964 4.27042
407 2 3.98357 47.404 4.18096
408 2 7.72869 47.2161 4.21488
409 2 11.8219 47.1383 4.12519
410 2 15.8033 47.3429 4.12855
411 2 19.5781 47.5912 4.31228
412 2 23.6316 47.3629 4.35062
413 2 27.7211 47.2406 4.25651
414 2 31.7474 47.5233 4.27676
415 2 35.6375 47.2561 4.39586
416 2 39.5758 47.2998 4.5401
417 2 43.5354 47.4329 4.35065
418 2 47.4956 47.1663 4.292
419 2 51.4911 47.3779 4.56171
420 2 55.6171 47.2142 4.25897
421 2 -0.0159662 51.2973 4.21451
422 2 4.0186 51.1529 3.92553
423 2 7.90889 51.1654 4.06007
424 2 11.9094 51.1304 4.1505
425 2 15.6922 51.3715 4.38979
426 2 19.7657 51.272 4.12242
427 2 23.8172 51.2678 4.51724
428 2 27.5619 51.2814 4.42269
429 2 31.5507 51.4759 4.39981
430 2 35.6315 51.494 4.40294
431 2 39.6861 51.4253 4.40724
432 2 43.8392 51.2419 4.32049
433 2 47.3471 51.1941 4.06088
434 2 51.2263 51.04 4.36318
435 2 55.2612 51.1615 4.30326
436 2 0.0652 55.1625 4.08686
437 2 4.08669 55.183 4.39837
438 2 7.95824 55.29 4.34479
439 2 11.9201 55.2201 4.22923
440 2 15.8048 55.1446 4.26774
441 2 19.7254 55.1924 4.32191
442 2 23.7191 55.2614 4.36459
443 2 27.6829 55.3154 4.29608
444 2 31.6296 55.4127 4.3165
445 2 35.724 55.4448 4.15133
446 2 39.7302 55.3339 4.25629
447 2 43.5193 55.0979 4.42102
448 2 47.5836 55.1038 4.3694
449 2 51.4138 55.1164 4.32869
450 2 55.3764 55.1219 4.10629
451 2 0.214598 59.1768 8.1235
452 2 3.95441 -0.226306 8.32123
453 2 8.05164 -0.110333 8.25122
454 2 12.0084 -0.152044 8.39595
455 2 15.9606 -0.213133 8.38411
456 2 19.5821 -0.162446 8.33504
457 2 23.8182 -0.221888 8.26451
458 2 27.8073 -0.0126998 8.22103
459 2 31.7449 -0.0691617 8.31822
460 2 35.6844 59.152 8.34729
461 2 39.4363 59.1983 8.33048
462 2 43.5743 -0.241557 8.56139
463 2 47.6417 -0.237618 8.43033
464 2 51.4769 -0.224591 8.5362
465 2 55.4049 -0.422195 8.17249
466 2 0.0704165 3.6546 8.20106
467 2 4.08399 3.66896 8.33389
468 2 8.0226 3.6749 8.19199
469 2 12.1286 3.75498 8.28056
470 2 15.8341 3.74817 8.23328
471 2 19.6699 3.77223 8.079
472 2 23.6124 3.63546 8.19438
473 2 27.6774 3.72769 8.35185
474 2 31.7411 3.95906 8.38469
475 2 35.7223 3.77669 8.16202
476 2 39.5135 3.7937 8.20054
477 2 43.6728 3.72703 8.42875
478 2 47.5517 3.84713 8.53601
479 2 51.7033 3.81744 8.29216
480 2 55.5829 3.6772 8.16601
481 2 0.272907 7.73451 8.36306
482 2 3.98224 7.67026 8.25638
483 2 7.93493 7.70977 8.24572
484 2 11.9479 7.63584 8.28741
485 2 15.9887 7.83873 8.00566
486 2 19.9411 7.68069 8.20631
487 2 23.6651 7.61861 8.16063
488 2 27.6147 7.59048 8.36951
489 2 31.6797 7.64356 8.33632
490 2 35.6024 7.69551 8.22287
491 2 39.7183 7.55288 8.33482
492 2 43.429 7.63883 8.43036
493 2 47.6339 7.72247 8.33248
494 2 51.656 7.87588 8.29502
495 2 55.7856 7.6669 8.07334
496 2 0.129133 11.7351 8.15418
497 2 3.95429 11.8795 8.50926
498 2 8.13415 11.8618 8.36439
499 2 12.0191 11.7286 8.26067
500 2 16.0534 11.6572 8.10466
501 2 19.9728 11.5984 8.3644
502 2 23.7333 11.6326 8.29639
503 2 27.6046 11.5268 8.02413
504 2 31.5665 11.8753 8.27431
505 2 35.5693 11.5834 8.27022
506 2 39.5656 11.4166 8.32364
507 2 43.4514 11.7215 8.17112
508 2 47.6454 11.7519 8.32627
509 2 51.5186 11.6947 8.42565
510 2 55.4896 11.6552 8.4005
511 2 -0.117736 15.6105 8.32174
512 2 4.03455 15.6819 8.38518
513 2 8.14214 15.6459 8.08111
514 2 12.0349 15.7556 8.24984
515 2 16.0979 15.7785 8.1328
516 2 19.963 15.7922 8.2245
517 2 23.7844 15.6409 8.2419
518 2 27.6634 15.5336 8.3474
519 2 31.7459 15.6248 8.33841
520 2 35.6149 15.7245 8.25811
521 2 39.6245 15.6461 8.31611
522 2 43.6011 15.5454 8.33309
523 2 47.5795 15.5814 8.36357
524 2 51.4686 15.7771 8.28551
525 2 55.2458 15.5133 8.15707
526 2 0.140599 19.5232 8.33255
527 2 4.08354 19.6957 8.15435
528 2 8.06119 19.6614 8.13119
529 2 12.0533 19.7034 8.25928
530 2 15.9761 19.5824 8.17763
531 2 20.1347 19.7567 8.27475
532 2 23.9662 19.5446 8.17036
533 2 27.8491 19.3734 8.33221
534 2 31.7581 19.5925 8.28579
535 2 35.7668 19.5916 8.33374
536 2 39.4603 19.6844 8.33444
537 2 43.3653 19.5462 8.34094
538 2 47.6379 19.5964 8.45763
539 2 51.4984 19.6094 8.25666
540 2 55.5008 19.493 8.03621
541 2 0.09206 23.5469 8.25156
542 2 4.22005 23.68 8.22647
543 2 8.06897 23.6677 8.33033
544 2 12.0028 23.4289 8.2299
545 2 16.213 23.676 8.14123
546 2 19.9988 23.6924 8.06741
547 2 23.8464 23.497 8.34501
548 2 27.572 23.7132 8.313
549 2 31.6094 23.6828 8.31468
550 2 35.7401 23.7091 8.2254
551 2 39.5227 23.5992 8.3044
552 2 43.4632 23.5882 8.386
553 2 47.569 23.6001 8.21086
554 2 51.4142 23.5739 8.36059
555 2 55.6456 23.4994 8.29201
556 2 59.4094 27.7289 8.37298
557 2 4.09451 27.608 8.3054
558 2 8.03538 27.5359 8.38396
559 2 12.0153 27.8155 8.20818
560 2 15.8658 27.6527 8.20127
561 2 19.6508 27.6704 8.22691
562 2 23.8207 27.5164 8.47761
563 2 27.5886 27.6694 8.416
564 2 31.5766 27.6824 8.33051
565 2 35.6432 27.6218 8.23514
566 2 39.5252 27.6732 8.40172
567 2 43.4762 27.4126 8.46468
568 2 47.2979 27.3653 8.16593
569 2 51.4332 27.5282 8.37485
570 2 55.2852 27.625 8.17534
571 2 -0.00942497 31.5169 8.16162
572 2 4.0511 31.428 8.37699
573 2 8.02892 31.6746 8.2761
574 2 12.0393 31.7111 8.23825
575 2 16.074 31.684 8.13851
576 2 19.8763 31.5395 8.43682
577 2 23.8308 31.3567 8.28821
578 2 27.5568 31.6725 8.36218
579 2 31.8155 31.5472 8.37451
580 2 35.6664 31.6811 8.33532
581 2 39.5109 31.6042 8.37158
582 2 43.5037 31.5523 8.46395
583 2 47.4993 31.5595 8.3094
584 2 51.2471 31.4607 8.224
585 2 55.2037 31.5146 8.34388
586 2 0.197341 35.4596 8.37848
587 2 4.11502 35.5469 8.40407
588 2 7.99677 35.5445 8.34157
589 2 11.9805 35.559 8.10179
590 2 15.9436 35.5176 8.25155
591 2 19.8106 35.6348 8.23651
592 2 23.9229 35.2549 8.34814
593 2 27.7169 35.5359 8.3812
594 2 31.7943 35.4647 8.34533
595 2 35.6573 35.4074 8.38807
596 2 39.5659 35.7098 8.37315
597 2 43.545 35.4673 8.20775
598 2 47.5067 35.5886 8.20699
599 2 51.5883 35.4531 8.2324
600 2 55.4816 35.4567 8.34967
601 2 0.249274 39.3241 8.28634
602 2 3.90272 39.5023 8.31098
603 2 8.14616 39.4902 8.33511
604 2 11.8812 39.5181 8.22281
605 2 15.9801 39.3116 8.23783
606 2 19.8524 39.4575 8.32227
607 2 23.9653 39.3599 8.22991
608 2 27.7878 39.4248 8.24103
609 2 31.8373 39.3633 8.34479
610 2 35.8941 39.697 8.20696
611 2 39.6904 39.4258 8.46631
612 2 43.5936 39.4214 8.27602
613 2 47.5321 39.2489 8.17866
614 2 51.5079 39.3617 8.50267
615 2 55.6544 39.2958 8.33161
616 2 -0.101754 43.3799 8.39574
617 2 3.99815 43.6467 8.19454
618 2 8.02566 43.4521 8.21127
619 2 11.8752 43.3732 8.13678
620 2 15.9698 43.4338 8.2456
621 2 19.9938 43.22 8.21556
622 2 23.7065 43.6053 8.38268
623 2 27.8772 43.26 8.17537
624 2 31.8602 43.2738 8.41999
625 2 35.8622 43.5594 8.27746
626 2 39.6543 43.2866 8.35703
627 2 43.7292 43.4329 8.32716
628 2 47.487 43.3066 8.35295
629 2 51.5941 43.6374 8.33386
630 2 55.4446 43.3068 8.35534
631 2 0.15777 47.3461 8.24425
632 2 4.06404 47.3897 8.30625
633 2 8.08635 47.3924 8.12615
634 2 11.8627 47.2705 8.29979
635 2 15.7033 47.2344 8.30533
636 2 19.8228 47.2906 8.31518
637 2 23.7446 47.5845 8.08167
638 2 27.9527 47.4338 8.33934
639 2 31.8525 47.2814 8.30604
640 2 35.7532 47.5209 8.28331
641 2 39.6533 47.3115 8.33315
642 2 43.5894 47.1925 8.42788
643 2 47.6295 47.447 8.27045
644 2 51.487 47.4801 8.42669
645 2 55.7599 47.3699 8.33453
646 2 0.103737 51.2295 8.30847
647 2 4.07008 51.2698 8.26374
648 2 8.05842 51.2416 8.12813
649 2 11.8978 51.2247 8.28976
650 2 15.7231 51.0776 8.35825
651 2 19.9424 51.2641 8.14931
652 2 24.0153 51.541 8.3236
653 2 27.9164 51.4767 8.26825
654 2 31.5937 51.2717 8.1689
655 2 35.5709 51.3547 8.4779
656 2 39.6222 51.2498 8.34311
657 2 43.6236 51.3245 8.36139
658 2 47.6832 51.4509 8.38048
659 2 51.5909 51.2181 8.52372
660 2 55.4044 51.2419 8.36577
661 2 0.28675 55.056 7.93915
662 2 4.13218 55.2992 8.20927
663 2 8.05331 55.2316 8.29888
664 2 11.8901 55.0856 8.22288
665 2 15.8161 54.96 8.16059
666 2 19.6695 55.1571 8.40667
667 2 23.7248 55.4524 8.3018
668 2 27.9286 55.3223 8.40165
669 2 31.7735 55.2447 8.30857
670 2 35.6768 55.4173 8.22062
671 2 39.6062 55.2215 8.28633
672 2 43.8472 55.4045 8.18714
673 2 47.6096 55.2198 8.35544
674 2 51.428 55.2235 8.38669
675 2 55.6334 55.0932 8.01362
676 2 0.0959794 -0.341146 12.1772
677 2 4.03236 -0.105302 12.2377
678 2 8.04412 -0.134404 12.1616
679 2 12.0804 -0.19175 12.2045
680 2 15.9921 59.1082 12.3304
681 2 19.807 -0.256396 12.2836
682 2 23.7577 -0.120939 12.2969
683 2 27.5476 -0.289352 12.3314
684 2 31.7413 -0.0820564 12.343
685 2 35.5441 -0.0621992 12.3165
686 2 39.5231 -0.19138 12.3654
687 2 43.5812 -0.0960456 12.482
688 2 47.6694 -0.13955 12.3483
689 2 51.677 -0.131914 12.1284
690 2 55.6363 -0.219578 12.2617
691 2 0.0720283 3.61823 12.1753
692 2 3.96598 3.82357 12.3378
693 2 7.99928 3.61003 12.1459
694 2 11.95 3.73236 12.0992
695 2 15.8468 3.84593 12.1051
696 2 19.9714 3.77446 12.2148
697 2 23.6858 3.55713 12.1135
698 2 27.8313 3.88725 12.2755
699 2 31.7729 3.79528 12.2237
700 2 35.8189 3.84817 12.3573
701 2 39.6609 3.74774 12.3405
702 2 43.8044 3.69471 12.3166
703 2 47.4671 3.70707 12.4182
704 2 51.5496 3.77329 12.2341
705 2 55.6794 3.73198 12.0409
706 2 0.187662 7.76443 12.2175
707 2 4.19088 7.76418 12.4514
708 2 7.97308 7.8332 12.1972
709 2 12.0007 7.49315 12.1276
710 2 15.9183 7.81954 12.2736
711 2 19.8131 7.62727 12.3923
712 2 23.6199 7.78843 12.3179
713 2 27.5972 7.83197 12.2803
714 2 31.6308 7.80569 12.3299
715 2 35.7036 7.77067 12.2437
716 2 39.7123 7.75371 12.5615
717 2 43.5503 7.64875 12.3167
718 2 47.4555 7.82269 12.3172
719 2 51.4566 7.74218 12.0291
720 2 55.3432 7.74047 12.0131
721 2 0.0225219 11.7323 12.3107
722 2 4.05346 11.9131 11.977
723 2 8.00346 11.6814 12.1948
724 2 12.1029 11.6632 12.0575
725 2 16.0923 11.8056 12.2028
726 2 20.096 11.7823 12.2963
727 2 23.8385 11.557 12.286
728 2 27.7343 11.6405 12.1027
729 2 31.5363 11.6917 12.1271
730 2 35.6475 11.5432 12.1583
731 2 39.6716 11.7212 12.2999
732 2 43.5712 11.7214 12.1324
733 2 47.5836 11.7203 12.4238
734 2 51.8033 11.9064 12.1631
735 2 55.5772 11.7607 12.4175
736 2 0.0985899 15.7576 12.2997
737 2 3.97929 15.774 12.3315
738 2 8.13243 15.8767 12.0573
739 2 12.204 15.8107 11.9996
740 2 15.8495 15.6943 12.117
741 2 19.9224 15.7298 12.281
742 2 23.9871 15.4574 12.2159
743 2 27.7241 15.5464 12.3547
744 2 31.6991 15.826 12.3444
745 2 35.9347 15.6414 12.0602
746 2 39.54 15.5921 12.2945
747 2 43.5395 15.7743 12.0629
748 2 47.541 15.8291 12.2507
749 2 51.7448 15.8011 12.1663
750 2 55.6915 15.7542 12.2945
751 2 0.022517 19.7376 12.1026
752 2 4.16067 19.6359 12.2306
753 2 8.15779 19.881 12.2092
754 2 12.1352 19.7485 12.3015
755 2 16.0049 19.7153 12.1857
756 2 20.0843 19.7035 12.3085
757 2 23.7728 19.4342 12.2276
758 2 27.9417 19.5294 12.1854
759 2 31.8185 19.6721 12.3536
760 2 35.4715 19.7932 12.3645
761 2 39.5966 19.6875 12.3053
762 2 43.5075 19.6379 12.4457
763 2 47.41 19.8305 12.1059
764 2 51.5518 19.9929 12.2167
765 2 55.4252 19.8084 12.0248
766 2 0.19605 23.8136 12.2674
767 2 4.14789 23.6986 12.1422
768 2 8.0329 23.8751 12.1349
769 2 12.0668 23.6859 12.0425
770 2 16.1855 23.4911 12.1429
771 2 19.8868 23.7076 12.0732
772 2 23.9887 23.4823 12.2099
773 2 27.8839 23.472 12.3096
774 2 31.7054 23.8204 12.1989
775 2 35.6245 23.7069 12.2595
776 2 39.3561 23.4375 12.3063
777 2 43.5446 23.6632 12.5125
778 2 47.4201 23.7628 12.1762
779 2 51.5101 23.8277 12.1325
780 2 55.6166 23.5093 12.1291
781 2 0.347161 27.7512 12.1195
782 2 4.0316 27.7187 12.2403
783 2 8.08664 27.7202 12.2521
784 2 12.0798 27.7197 12.2278
785 2 15.8818 27.5983 12.1621
786 2 20.0178 27.6072 12.1886
787 2 23.913 27.443 12.2235
788 2 27.7356 27.7119 12.4036
789 2 31.5236 27.7909 12.2873
790 2 35.4155 27.5344 12.2552
791 2 39.7079 27.665 12.2142
792 2 43.3929 27.612 12.3894
793 2 47.6119 27.6338 12.3443
794 2 51.6702 27.5379 12.2447
795 2 55.6277 27.4399 12.1682
796 2 0.105543 31.4047 12.1083
797 2 3.97651 31.5005 12.1102
798 2 8.14398 31.5379 12.1933
799 2 12.0302 31.5352 12.2744
800 2 16.0641 31.6965 12.3174
801 2 19.9948 31.2981 12.2639
802 2 23.8002 31.2982 12.138
803 2 27.7787 31.5904 12.4436
804 2 31.8099 31.5622 12.277
805 2 35.4694 31.4983 12.3741
806 2 39.3052 31.6328 12.3987
807 2 43.6041 31.5088 12.3664
808 2 47.4983 31.7535 12.3561
809 2 51.5801 31.5958 12.2288
810 2 55.5979 31.5088 12.2966
811 2 0.128661 35.5481 12.3437
812 2 4.0501 35.5732 12.3019
813 2 8.01161 35.317 12.3343
814 2 12.0785 35.5437 12.333
815 2 15.9811 35.4368 12.2484
816 2 19.8892 35.5374 12.3256
817 2 23.5863 35.4026 12.2694
818 2 27.636 35.4799 12.5424
819 2 31.5796 35.447 12.4466
820 2 35.7033 35.4144 12.3661
821 2 39.6025 35.5413 12.3523
822 2 43.5475 35.3725 12.064
823 2 47.607 35.625 12.1863
824 2 51.6657 35.6031 12.3538
825 2 55.5626 35.4471 12.3227
826 2 0.232377 39.7661 12.1958
827 2 4.11379 39.5446 12.3306
828 2 7.92924 39.3789 12.108
829 2 11.9365 39.4026 12.055
830 2 15.867 39.3655 12.2006
831 2 19.866 39.3989 12.2587
832 2 23.8441 39.5045 12.2816
833 2 27.7145 39.3272 12.2476
834 2 32.0107 39.3432 12.2612
835 2 35.8097 39.3346 12.3935
836 2 39.7269 39.3421 12.3631
837 2 43.8321 39.3797 12.3286
838 2 47.6034 39.4226 12.3191
839 2 51.4645 39.4162 12.4678
840 2 55.6456 39.2457 12.0312
841 2 0.123904 43.3988 12.4075
842 2 4.17549 43.459 12.2301
843 2 7.8028 43.4248 12.248
844 2 11.9423 43.3385 12.3103
845 2 15.9942 43.4042 12.2579
846 2 19.8255 43.3795 12.182
847 2 23.9646 43.3348 12.2771
848 2 27.9325 43.379 12.3012
849 2 31.6963 43.4456 12.3624
850 2 35.7467 43.5178 12.2872
851 2 39.5633 43.4152 12.4481
852 2 43.6853 43.0693 12.1681
853 2 47.5603 43.3358 12.4665
854 2 51.6727 43.4765 12.3488
855 2 55.5958 43.3291 12.2251
856 2 0.169312 47.2105 12.2943
857 2 4.04432 47.3167 12.2792
858 2 7.99274 47.1825 12.3285
859 2 11.818 47.2095 12.3652
860 2 16.1394 47.3829 12.2223
861 2 19.918 47.426 12.3985
862 2 23.8441 47.3042 12.1951
863 2 27.8272 47.3102 12.2855
864 2 31.7493 47.3763 12.2354
865 2 35.5628 47.4538 12.2929
866 2 39.7722 47.4071 12.2698
867 2 43.6429 47.3289 12.2899
868 2 47.5686 47.2166 12.3047
869 2 51.5603 47.3739 12.4409
870 2 55.5859 47.4821 12.4503
871 2 0.330937 51.358 12.1438
872 2 4.23153 51.2168 12.0198
873 2 7.95902 51.2907 12.2143
874 2 11.926 51.2168 12.3632
875 2 15.9121 51.1689 12.2615
876 2 19.7138 51.0799 12.2831
877 2 23.823 51.1561 12.1339
878 2 27.6856 51.2078 12.2878
879 2 31.657 51.1776 12.1135
880 2 35.8309 51.3614 12.3219
881 2 39.56 51.4221 12.2721
882 2 43.5823 51.2301 12.4345
883 2 47.6017 51.4149 12.4596
884 2 51.5334 51.4128 12.4853
885 2 55.7885 51.4942 12.2478
886 2 -0.0176687 55.2599 12.1297
887 2 4.11267 55.221 12.1512
888 2 7.92459 55.3906 12.3575
889 2 12.0589 55.1624 12.0944
890 2 15.9855 55.1954 12.4021
891 2 19.8823 55.0925 12.3436
892 2 23.5704 55.3163 12.2752
893 2 27.7772 55.1708 12.2276
894 2 31.6711 55.1958 12.3614
895 2 35.696 55.3604 12.0891
896 2 39.6051 55.1639 12.1153
897 2 43.5153 55.2347 12.303
898 2 47.4227 55.2789 12.3845
899 2 51.7192 55.0894 12.2535
900 2 55.6402 55.3364 12.2114
901 2 0.33323 -0.0914247 16.2014
902 2 4.16935 -0.0847172 16.166
903 2 8.24592 -0.0738021 16.2088
904 2 12.1118 0.113809 16.1613
905 2 15.9056 0.0877965 16.3256
906 2 20.0328 -0.162287 16.1753
907 2 23.7833 -0.374171 16.2596
908 2 27.8167 -0.196974 16.2692
909 2 31.7268 -0.0903229 16.3494
910 2 35.9402 -0.132986 16.1909
911 2 39.7432 -0.0835341 16.2425
912 2 43.6808 59.3598 16.3792
913 2 47.5512 59.4691 16.3937
914 2 51.6803 59.2581 16.2672
915 2 55.8039 -0.0688229 16.2301
916 2 0.157014 3.94569 16.0577
917 2 4.03747 3.86125 16.1859
918 2 8.07325 3.92679 16.2001
919 2 11.8418 3.87009 16.1383
920 2 15.8448 3.91929 16.1665
921 2 19.6946 3.78125 16.0407
922 2 23.7492 3.74407 16.3497
923 2 27.9332 3.71811 16.3471
924 2 31.8255 3.82718 16.334
925 2 35.8399 3.94069 16.0835
926 2 39.8555 3.86134 16.2974
927 2 43.4513 4.11951 16.0444
928 2 47.7199 4.19619 16.2322
929 2 51.64 4.07537 15.9743
930 2 55.6774 4.08483 16.1647
931 2 0.244765 7.88897 16.1345
932 2 4.15112 8.0366 16.2831
933 2 8.03627 7.81697 16.0162
934 2 11.8948 7.75057 16.0973
935 2 15.9226 7.87188 16.0486
936 2 19.9435 7.85312 16.2692
937 2 23.8587 7.64607 16.32
938 2 27.9559 7.83377 16.0286
939 2 31.8296 7.84997 16.2731
940 2 35.6185 7.66356 16.0508
941 2 39.5108 7.92271 16.2582
942 2 43.7326 7.8235 16.2432
943 2 47.753 7.92417 16.1246
944 2 51.6246 7.86516 16.0818
945 2 55.5552 7.83039 16.2004
946 2 59.5866 12.0213 16.0191
947 2 4.20446 11.9087 15.9841
948 2 8.14894 11.7804 16.0247
949 2 11.8545 11.8819 16.2825
950 2 16.0046 11.7534 16.2648
951 2 19.8621 11.7033 16.2092
952 2 23.8501 11.5635 16.2277
953 2 27.5926 11.7367 16.1642
954 2 31.6769 11.8496 16.2891
955 2 35.5195 11.9299 16.3005
956 2 39.6325 11.6819 16.1789
957 2 43.7456 11.7706 16.1113
958 2 47.8434 11.7709 16.1087
959 2 51.6786 11.9163 16.1936
960 2 55.43 11.7431 16.1057
961 2 -0.0562668 15.7135 16.3957
962 2 4.11492 15.831 16.1872
963 2 8.20155 15.6112 16.0285
964 2 12.1639 15.8248 15.8157
965 2 15.9763 15.6443 16.2097
966 2 19.9157 15.5295 16.2098
967 2 23.9659 15.6698 16.2119
968 2 27.9395 15.6405 16.1552
969 2 31.8317 15.6459 16.1059
970 2 35.8191 15.7374 16.2333
971 2 39.6842 15.8486 16.396
972 2 43.4044 15.6887 16.2187
973 2 47.506 15.844 16.2235
974 2 51.4659 15.9889 16.3707
975 2 55.498 15.9238 16.2458
976 2 0.225975 19.735 16.0793
977 2 4.16024 19.7703 16.1321
978 2 8.23185 19.7295 16.0329
979 2 12.1169 19.7478 16.1151
980 2 16.2075 19.706 16.1699
981 2 20.0176 19.6165 16.1313
982 2 23.9912 19.5271 16.1305
983 2 27.9239 19.4385 16.2647
984 2 31.8696 19.7719 16.3846
985 2 35.4407 19.6839 16.3561
986 2 39.6981 19.7672 16.3389
987 2 43.6197 19.8741 16.279
988 2 47.4518 19.9692 16.1383