ITEM: TIMESTEP
35900
ITEM: NUMBER OF ATOMS
28125
ITEM: BOX BOUNDS xy xz yz pp pp pp
0.0000000000000000e+00 5.9369999999999997e+01 0.0000000000000000e+00
0.0000000000000000e+00 5.9369999999999997e+01 0.0000000000000000e+00
8.5753379926806872e-02 9.9414246620073186e+01 0.0000000000000000e+00
ITEM: ATOMS id type x y z
1 2 0.0537823 -0.0910082 0.313752
2 2 4.02011 -0.123288 0.554364
3 2 8.07363 -0.168051 0.408254
4 2 11.9897 -0.141654 0.357237
5 2 15.78 -0.148255 0.248643
6 2 19.7561 -0.244488 0.137198
7 2 23.9288 -0.218054 0.353065
8 2 27.6242 -0.135199 0.355009
9 2 31.7379 -0.254456 0.317334
10 2 35.6346 -0.0718726 0.506486
11 2 39.7323 59.0979 0.400686
12 2 43.4679 -0.202583 0.250689
13 2 47.6942 -0.228594 0.227234
14 2 51.4382 -0.00531798 0.3862
15 2 55.4931 59.2733 0.308398
16 2 0.107231 3.86821 0.28494
17 2 3.87983 4.03456 0.390102
18 2 7.93862 3.86022 0.28787
19 2 11.8897 3.92954 0.233803
20 2 15.8503 3.84433 0.381764
21 2 19.5204 3.65673 0.145995
22 2 23.4598 3.71448 0.252818
23 2 27.5438 3.72896 0.34386
24 2 31.5306 3.82069 0.434302
25 2 35.8443 3.69159 0.337879
26 2 39.6646 3.69372 0.425021
27 2 43.7431 3.87584 0.473376
28 2 47.56 3.90366 0.656999
29 2 51.5002 3.90601 0.4333
30 2 55.5199 3.86663 0.327157
31 2 -0.0120624 7.85347 0.307297
32 2 4.01692 7.87991 0.301905
33 2 7.89945 7.89439 0.356904
34 2 11.872 7.80276 0.33608
35 2 16.0593 7.77168 0.241767
36 2 19.7434 7.55285 0.390056
37 2 23.718 7.84303 0.338556
38 2 27.6564 7.66343 0.432427
39 2 31.6487 7.78535 0.28874
40 2 35.7667 7.7033 0.379204
41 2 39.9151 7.6456 0.276435
42 2 43.5518 7.69868 0.478894
43 2 47.4928 8.00015 0.429025
44 2 51.5578 7.72137 0.320781
45 2 55.3835 7.77867 0.309053
46 2 59.2194 11.725 0.33218
47 2 3.96852 11.8292 0.273524
48 2 8.0642 11.763 0.498257
49 2 11.9242 11.8955 0.234256
50 2 15.8566 11.7153 0.388142
51 2 19.8716 11.8564 0.330522
52 2 23.852 11.6487 0.390103
53 2 27.8984 11.7359 0.336489
54 2 31.5796 11.494 0.191951
55 2 35.4898 11.6398 0.360587
56 2 39.6696 11.579 0.324825
57 2 43.3968 11.696 0.418949
58 2 47.3902 11.7813 0.544263
59 2 51.3904 11.8452 0.445405
60 2 55.3047 11.6861 0.36855
61 2 -0.0491163 15.654 0.378509
62 2 3.96041 15.7874 0.471029
63 2 7.95341 15.655 0.28135
64 2 11.9289 15.7681 0.313325
65 2 15.9285 15.5908 0.201438
66 2 19.818 15.6314 0.223027
67 2 23.8229 15.5363 0.169237
68 2 27.844 15.655 0.346545
69 2 31.5817 15.4543 0.108492
70 2 35.5476 15.6528 0.4357
71 2 39.6726 15.8105 0.475726
72 2 43.4455 15.784 0.387213
73 2 47.3845 15.7546 0.510574
74 2 51.3889 15.8006 0.318025
75 2 55.3652 15.6116 0.428166
76 2 59.6191 19.6689 0.404237
77 2 3.95195 19.665 0.411503
78 2 7.84302 19.5068 0.370854
79 2 11.8867 19.4485 0.258264
80 2 15.8555 19.7928 0.333179
81 2 20.0311 19.5657 0.420335
82 2 23.8705 19.588 0.318263
83 2 27.7768 19.5562 0.167832
84 2 31.7532 19.5904 0.0697111
85 2 35.4635 19.6298 0.460381
86 2 39.4623 19.4878 0.341247
87 2 43.5896 19.68 0.258885
88 2 47.6497 19.7184 0.454496
89 2 51.6847 19.5408 0.200449
90 2 55.6097 19.6539 0.314087
91 2 -0.00849964 23.4674 0.234766
92 2 4.05269 23.7959 0.408533
93 2 8.06138 23.3131 0.378083
94 2 11.8658 23.6345 0.404171
95 2 15.8897 23.6238 0.36211
96 2 19.7962 23.5469 0.378428
97 2 23.7694 23.7122 0.276106
98 2 27.8023 23.5424 0.295084
99 2 31.4678 23.5703 0.17904
100 2 35.5778 23.5669 0.533323
101 2 39.6579 23.5761 0.437598
102 2 43.613 23.604 0.472484
103 2 47.463 23.7903 0.404453
104 2 51.6123 23.6078 0.382377
105 2 55.4426 23.688 0.33605
106 2 0.023498 27.7499 0.419699
107 2 3.84677 27.5864 0.456894
108 2 7.96128 27.5531 0.348547
109 2 11.7873 27.5878 0.378181
110 2 15.8205 27.6551 0.344285
111 2 19.705 27.4129 0.250552
112 2 23.8476 27.6639 0.159322
113 2 27.7385 27.6467 0.413569
114 2 31.6411 27.3626 0.22909
115 2 35.82 27.6778 0.39001
116 2 39.5911 27.4929 0.219725
117 2 43.5549 27.5125 0.147463
118 2 47.6277 27.5232 0.380728
119 2 51.528 27.6259 0.316066
120 2 55.4832 27.4968 0.321878
121 2 0.0782594 31.5789 0.401007
122 2 3.80698 31.5364 0.317295
123 2 7.90636 31.4739 0.388874
124 2 11.8148 31.3639 0.110499
125 2 15.7724 31.4719 0.359144
126 2 19.8293 31.5981 0.418907
127 2 23.9467 31.6704 0.266584
128 2 27.9165 31.4868 0.174548
129 2 31.6473 31.3155 0.342224
130 2 35.6414 31.6768 0.433821
131 2 39.6166 31.7408 0.409131
132 2 43.6392 31.427 0.463742
133 2 47.6242 31.4747 0.638971
134 2 51.4778 31.7009 0.250536
135 2 55.2613 31.682 0.509501
136 2 -0.10488 35.4983 0.387525
137 2 3.96026 35.4922 0.395559
138 2 7.85365 35.5696 0.350554
139 2 11.8316 35.4054 0.349871
140 2 15.7464 35.5644 0.548024
141 2 19.8338 35.5185 0.339191
142 2 23.7615 35.4198 0.17801
143 2 27.7312 35.4599 0.3555
144 2 31.8559 35.3551 0.308944
145 2 35.9111 35.4412 0.435404
146 2 39.5718 35.4148 0.399416
147 2 43.5516 35.5904 0.392184
148 2 47.4631 35.3769 0.494399
149 2 51.6909 35.5501 0.360234
150 2 55.401 35.5807 0.229532
151 2 0.149605 39.5406 0.42934
152 2 3.93102 39.4203 0.37593
153 2 7.90885 39.4994 0.312681
154 2 11.897 39.3487 0.258889
155 2 16.0174 39.452 0.283738
156 2 20.0577 39.5117 0.318466
157 2 23.9061 39.2162 0.237334
158 2 27.6292 39.4117 0.30883
159 2 31.5029 39.2283 0.271373
160 2 35.4314 39.3783 0.364772
161 2 39.531 39.1391 0.266672
162 2 43.552 39.556 0.396985
163 2 47.5036 39.5523 0.435138
164 2 51.3172 39.2541 0.327977
165 2 55.4227 39.5302 0.543808
166 2 -0.030925 43.2325 0.264909
167 2 3.84327 43.3326 0.171371
168 2 7.87209 43.388 0.277502
169 2 11.8828 43.4108 0.328757
170 2 15.7446 43.3543 0.265927
171 2 19.8528 43.5243 0.40737
172 2 23.7689 43.4856 0.326351
173 2 27.5303 43.4607 0.495901
174 2 31.5023 43.235 0.180732
175 2 35.678 43.538 0.256666
176 2 39.4441 43.352 0.475359
177 2 43.3355 43.493 0.4516
178 2 47.4478 43.3649 0.536373
179 2 51.3898 43.3549 0.438359
180 2 55.4006 43.278 0.2356
181 2 -0.100289 47.421 0.541782
182 2 3.86628 47.3571 0.231847
183 2 7.82975 47.2025 0.301038
184 2 11.9901 47.2355 99.5302
185 2 16.0034 47.3462 0.278344
186 2 19.8109 47.3214 0.395733
187 2 23.6507 47.504 0.489204
188 2 27.7086 47.3187 99.7288
189 2 31.6156 47.3407 0.296575
190 2 35.3783 47.513 0.404313
191 2 39.2653 47.3021 0.339338
192 2 43.2893 47.286 0.319737
193 2 47.3168 47.2329 0.444035
194 2 51.2273 47.2438 0.274585
195 2 55.3142 47.2542 0.289063
196 2 -0.110708 51.2884 0.182419
197 2 3.87269 51.1858 0.036846
198 2 7.79056 51.2148 0.334174
199 2 11.6531 51.2292 99.6359
200 2 15.6741 51.117 0.355646
201 2 19.7979 51.3803 0.309826
202 2 23.6506 51.2286 0.436123
203 2 27.6023 51.4466 0.210208
204 2 31.4711 50.9663 0.324725
205 2 35.741 51.344 0.328188
206 2 39.7002 51.404 0.331268
207 2 43.6158 51.2663 0.533666
208 2 47.5171 51.1076 0.45795
209 2 51.5615 51.1208 0.152919
210 2 55.3747 51.1088 0.257269
211 2 -0.170892 55.2603 99.6484
212 2 4.02996 55.2893 0.247834
213 2 7.81463 55.2532 0.330319
214 2 11.7348 55.4125 0.304782
215 2 15.7718 55.1964 0.175383
216 2 19.7461 55.0981 0.191194
217 2 23.6266 55.3542 0.462316
218 2 27.6976 55.2038 0.254074
219 2 31.657 55.1988 0.337374
220 2 35.7205 55.2933 0.423033
221 2 39.5484 55.1572 0.475782
222 2 43.5541 55.1832 0.383068
223 2 47.346 55.0902 0.405629
224 2 51.2351 55.1231 0.376783
225 2 55.3787 55.3467 0.569329
226 2 -0.0656024 0.0266959 4.36505
227 2 4.04435 -0.0893292 4.35813
228 2 8.04048 -0.245791 4.33694
229 2 11.8669 59.2723 4.24938
230 2 15.962 -0.110957 4.21384
231 2 19.8757 -0.29364 4.20947
232 2 23.467 -0.0492342 4.15306
233 2 27.7231 0.0367544 4.39738
234 2 31.8055 -0.144649 4.27771
235 2 35.6319 -0.0970941 4.36137
236 2 39.5659 -0.146027 4.40412
237 2 43.5905 -0.117044 4.32488
238 2 47.4485 -0.183229 4.20577
239 2 51.3676 -0.124605 4.44079
240 2 55.35 59.0723 4.33716
241 2 0.160643 3.8617 4.28705
242 2 4.20042 3.82833 4.22233
243 2 7.85109 3.93668 4.27014
244 2 11.7715 3.60494 4.43837
245 2 15.785 3.91452 4.18423
246 2 19.7062 4.00638 4.32961
247 2 23.6617 3.51955 4.26953
248 2 27.7626 3.72322 4.32296
249 2 31.618 3.76967 4.35776
250 2 35.7756 3.74949 4.2042
251 2 39.827 3.92673 4.33287
252 2 43.5287 3.5786 4.37403
253 2 47.4837 3.60463 4.47039
254 2 51.516 3.74381 4.53608
255 2 55.306 3.55387 4.14212
256 2 0.107647 7.71704 4.45394
257 2 4.06842 7.8887 4.3986
258 2 7.94616 7.94178 4.1624
259 2 11.8701 7.48967 4.30882
260 2 15.7085 7.73157 4.38119
261 2 19.7034 7.74824 4.46557
262 2 23.7832 7.93892 4.45251
263 2 27.6967 7.56594 4.04448
264 2 31.8136 7.5794 4.29356
265 2 35.6439 7.50452 4.16046
266 2 39.4406 7.62178 4.32849
267 2 43.4949 7.78643 4.50857
268 2 47.6851 7.72891 4.43552
269 2 51.6698 7.74196 4.34789
270 2 55.7663 7.7633 4.16243
271 2 0.166016 11.8154 4.32196
272 2 4.00055 11.6214 4.20169
273 2 8.09634 11.7941 4.43984
274 2 11.9019 11.705 4.38107
275 2 15.7279 11.7201 4.09137
276 2 19.9292 11.667 4.40625
277 2 23.7381 11.676 4.24083
278 2 27.7841 11.7314 4.20668
279 2 31.8601 11.631 4.34862
280 2 35.4633 11.7724 4.51315
281 2 39.5545 11.6551 4.45774
282 2 43.6231 11.8827 4.37174
283 2 47.551 11.6974 4.51715
284 2 51.572 11.8519 4.34443
285 2 55.5272 11.5973 4.31506
286 2 0.0373988 15.4828 4.20756
287 2 4.16232 15.6156 4.42311
288 2 7.89177 15.6461 4.41336
289 2 11.9521 15.7302 4.3624
290 2 15.8607 15.743 4.39222
291 2 19.7136 15.7352 4.06677
292 2 23.6881 15.587 4.29698
293 2 27.7503 15.7773 4.16266
294 2 31.6787 15.5679 4.38244
295 2 35.655 15.641 4.26759
296 2 39.6147 15.5105 4.28516
297 2 43.5666 15.6207 4.3568
298 2 47.6676 15.8214 4.26222
299 2 51.6307 15.6761 4.38406
300 2 55.396 15.6515 4.4844
301 2 0.174611 19.647 4.4255
302 2 4.14265 19.6042 4.37627
303 2 8.16801 19.6535 4.2595
304 2 12.0505 19.6012 4.26269
305 2 16.0844 19.5313 4.26133
306 2 19.7863 19.7067 4.25399
307 2 24.0079 19.5116 4.15571
308 2 27.8503 19.689 4.31185
309 2 31.7156 19.5258 4.2095
310 2 35.4444 19.6232 4.29622
311 2 39.4359 19.5557 4.50402
312 2 43.6916 19.4868 4.29817
313 2 47.3276 19.709 4.53561
314 2 51.3869 19.5227 4.43106
315 2 55.6668 19.9233 4.24844
316 2 0.186224 23.4871 4.14792
317 2 4.08654 23.7013 4.32405
318 2 8.04178 23.5009 4.40031
319 2 12.0054 23.4898 4.26625
320 2 15.9688 23.5658 4.3505
321 2 20.0955 23.5802 4.34191
322 2 23.9557 23.4621 4.11104
323 2 27.6762 23.3957 4.36945
324 2 31.7403 23.4438 4.17534
325 2 35.5514 23.5499 4.47255
326 2 39.7484 23.4385 4.25166
327 2 43.5077 23.701 4.45065
328 2 47.6012 23.3857 4.19711
329 2 51.5556 23.5933 4.24355
330 2 55.5762 23.7145 4.25399
331 2 -0.0556217 27.5145 4.43401
332 2 4.019 27.6259 4.31249
333 2 7.96333 27.5185 4.28835
334 2 12.0369 27.6431 4.35552
335 2 16.0211 27.5849 4.44489
336 2 19.8784 27.5735 4.2146
337 2 23.8928 27.466 4.29682
338 2 27.878 27.6192 4.48726
339 2 31.6161 27.6536 4.34671
340 2 35.6925 27.5504 4.30857
341 2 39.6349 27.4921 4.33602
342 2 43.6502 27.608 4.29576
343 2 47.4243 27.3995 4.42414
344 2 51.4944 27.547 4.31371
345 2 55.3121 27.583 4.37005
346 2 -0.088908 31.5797 4.22434
347 2 3.94797 31.6063 4.25546
348 2 8.03991 31.6153 4.26806
349 2 12.0867 31.595 4.16454
350 2 15.7754 31.5804 4.46545
351 2 20.0028 31.563 4.21638
352 2 23.8534 31.5046 4.34679
353 2 27.7204 31.5482 4.19102
354 2 31.7867 31.4628 4.39331
355 2 35.5635 31.5672 4.43019
356 2 39.4818 31.4271 4.30216
357 2 43.3514 31.4483 4.40164
358 2 47.6113 31.5957 4.23088
359 2 51.5687 31.5091 4.43222
360 2 55.227 31.3729 4.26165
361 2 0.0119009 35.4504 4.37981
362 2 4.15694 35.6479 4.1465
363 2 8.11091 35.636 4.30256
364 2 11.9626 35.4667 4.52878
365 2 15.9207 35.515 4.2486
366 2 20.022 35.5609 4.50658
367 2 23.62 35.3313 4.32831
368 2 27.8331 35.4114 4.0993
369 2 31.6962 35.4038 4.20276
370 2 35.5911 35.3041 4.16448
371 2 39.5195 35.7635 4.35551
372 2 43.5882 35.6323 4.36864
373 2 47.3681 35.3202 4.46192
374 2 51.5546 35.5383 4.35104
375 2 55.6408 35.5436 4.37516
376 2 -0.07787 39.4762 4.46734
377 2 3.7325 39.4653 4.31916
378 2 7.95668 39.6185 4.32585
379 2 12.0299 39.4403 4.25647
380 2 15.9864 39.3349 4.20833
381 2 19.7728 39.4416 4.32461
382 2 23.8406 39.3655 4.36599
383 2 27.7321 39.268 4.20872
384 2 31.8003 39.4216 4.2735
385 2 35.4042 39.2888 4.31325
386 2 39.726 39.4839 4.39197
387 2 43.5043 39.4406 4.31727
388 2 47.4683 39.3769 4.44821
389 2 51.4907 39.528 4.40939
390 2 55.3577 39.4549 4.46799
391 2 -0.00474964 43.4415 4.30428
392 2 3.97358 43.4138 4.07094
393 2 7.99979 43.6056 4.25048
394 2 12.0129 43.2663 4.19385
395 2 16.0761 43.3544 4.10643
396 2 19.6777 43.4509 4.42131
397 2 23.9799 43.5276 4.43854
398 2 27.7181 43.25 4.41737
399 2 31.5817 43.3673 4.23338
400 2 35.5673 43.2633 4.29565
401 2 39.7272 43.3218 4.27548
402 2 43.5919 43.3985 4.50123
403 2 47.2965 43.5079 4.4052
404 2 51.3749 43.4087 4.51316
405 2 55.4094 43.4472 4.22635
406 2 0.0920598 47.249 4.24523
407 2 3.96032 47.2015 4.2595
408 2 8.06889 47.3982 4.23857
409 2 12.0972 47.3691 4.17259
410 2 15.8676 47.3277 4.41416
411 2 19.7991 47.2568 4.3944
412 2 23.9203 47.6053 4.36049
413 2 27.9202 47.3254 4.35057
414 2 31.7378 47.2746 4.3647
415 2 35.6937 47.3532 4.29616
416 2 39.422 47.4 4.28731
417 2 43.4988 47.351 4.40176
418 2 47.4758 47.3585 4.54693
419 2 51.3688 47.2518 4.27077
420 2 55.4842 47.324 4.11146
421 2 0.11431 51.1517 4.18184
422 2 3.95637 51.2544 4.30755
423 2 8.01472 51.2785 4.30197
424 2 11.9989 51.2106 4.08229
425 2 15.9053 51.1638 4.25586
426 2 19.6489 51.3532 4.41059
427 2 23.589 51.5729 4.36749
428 2 27.8424 51.2314 4.29136
429 2 31.6549 51.3496 4.47249
430 2 35.5051 51.2421 4.45969
431 2 39.4976 51.1996 4.38013
432 2 43.4629 51.2616 4.37969
433 2 47.8241 51.2342 4.53885
434 2 51.6813 51.3953 4.27114
435 2 55.4159 51.048 4.19891
436 2 0.14261 55.3327 4.19747
437 2 4.00816 55.3317 4.04688
438 2 7.95121 55.121 4.20981
439 2 11.8871 55.2686 4.2362
440 2 15.8723 55.2288 4.23318
441 2 19.8332 55.3408 4.19241
442 2 23.8493 55.3272 4.27855
443 2 27.8008 55.0964 4.284
444 2 31.7094 55.2037 4.17048
445 2 35.6288 55.1352 4.31943
446 2 39.5318 55.3447 4.50661
447 2 43.6406 55.4223 4.39919
448 2 47.4728 55.3618 4.22321
449 2 51.2946 55.2203 4.2958
450 2 55.4214 54.9728 4.26298
451 2 0.022903 59.1932 8.20107
452 2 4.0199 -0.296413 8.2372
453 2 7.87705 -0.328334 8.31328
454 2 11.9625 -0.369575 8.09179
455 2 15.8805 -0.264546 7.99629
456 2 19.9088 -0.239084 8.24928
457 2 23.7177 -0.210113 8.16631
458 2 27.7555 -0.306547 8.40042
459 2 31.7329 -0.278733 8.1756
460 2 35.4825 59.1821 8.36481
461 2 39.6723 59.0399 8.39723
462 2 43.555 -0.146684 8.29824
463 2 47.5512 -0.118594 8.38086
464 2 51.6424 -0.332198 7.9444
465 2 55.4019 -0.309252 8.06912
466 2 0.170503 3.7823 8.20131
467 2 4.06594 3.84202 8.18649
468 2 8.02135 3.81768 8.33204
469 2 11.6934 3.69588 8.24072
470 2 15.8865 3.77895 8.14323
471 2 19.7909 3.92624 8.51695
472 2 23.8748 3.62507 8.22493
473 2 27.8014 3.87103 8.28574
474 2 31.674 3.58879 8.30794
475 2 35.5091 3.74339 8.55019
476 2 39.5261 3.74029 8.44449
477 2 43.5792 3.79895 8.36614
478 2 47.5694 3.7923 8.15507
479 2 51.5449 3.83248 8.41932
480 2 55.5848 3.85911 8.23494
481 2 0.0248615 7.72931 8.18102
482 2 3.90631 7.88971 8.30059
483 2 7.99427 7.82735 8.21978
484 2 11.9727 7.83523 8.31799
485 2 15.8563 7.77041 8.37609
486 2 19.8179 7.73972 8.28022
487 2 23.9044 7.78078 8.34772
488 2 27.694 7.82959 8.18263
489 2 31.6265 7.86673 8.27971
490 2 35.5864 7.59308 8.29692
491 2 39.4872 7.79525 8.29859
492 2 43.6612 7.69709 8.3062
493 2 47.5453 7.8344 8.44295
494 2 51.6441 7.79373 8.29751
495 2 55.3972 7.76535 8.23121
496 2 0.0946204 11.6385 8.541
497 2 4.15041 11.826 8.23857
498 2 7.92007 11.5809 8.13163
499 2 11.8904 11.8943 8.36764
500 2 15.751 11.7185 8.18085
501 2 19.7995 11.8528 8.15959
502 2 23.848 11.6674 8.14712
503 2 27.8185 11.6059 8.32878
504 2 31.6131 11.5378 8.22112
505 2 35.709 11.7534 8.3674
506 2 39.7083 11.7767 8.26713
507 2 43.657 11.4912 8.37897
508 2 47.6287 11.6597 8.28423
509 2 51.673 11.7324 8.2572
510 2 55.5533 11.6745 8.30552
511 2 0.090173 15.6363 8.20062
512 2 3.96342 15.7496 8.21579
513 2 8.09982 15.837 8.32652
514 2 12.1215 15.8505 8.35109
515 2 15.9478 15.7456 8.25536
516 2 20.015 15.6686 8.19533
517 2 23.8012 15.5983 8.16635
518 2 27.7757 15.5109 8.00454
519 2 31.5211 15.5675 8.3521
520 2 35.6156 15.6161 8.51338
521 2 39.6095 15.5883 8.0418
522 2 43.59 15.6187 8.38965
523 2 47.6434 15.6851 7.99427
524 2 51.5647 15.6809 8.14488
525 2 55.6564 15.7851 8.42116
526 2 0.204163 19.6393 8.10054
527 2 3.98865 19.5928 8.43428
528 2 7.90634 19.7668 8.35075
529 2 11.8932 19.8137 8.18824
530 2 15.9568 19.8018 8.23146
531 2 19.8588 19.4689 8.13456
532 2 23.8568 19.591 8.34941
533 2 27.6986 19.695 8.19147
534 2 31.7306 19.5752 8.26082
535 2 35.5824 19.6078 8.21028
536 2 39.6961 19.6116 8.36462
537 2 43.6648 19.5073 8.42517
538 2 47.3921 19.6019 8.23935
539 2 51.5503 19.6691 8.23956
540 2 55.6349 19.7658 8.30155
541 2 0.2041 23.5586 8.24294
542 2 4.1455 23.5181 8.14061
543 2 8.06695 23.7276 8.10563
544 2 11.949 23.8383 8.10351
545 2 15.8007 23.5969 8.26571
546 2 20.1044 23.5684 8.3799
547 2 24.0003 23.5983 8.16801
548 2 28.0725 23.527 8.2833
549 2 31.7717 23.6377 8.31863
550 2 35.5973 23.6242 8.29637
551 2 39.5425 23.5266 8.30054
552 2 43.5488 23.5039 8.36164
553 2 47.39 23.5124 8.56027
554 2 51.6638 23.5849 8.1917
555 2 55.3933 23.7247 8.2189
556 2 59.2853 27.4622 8.23382
557 2 3.96874 27.6157 8.06361
558 2 7.99623 27.5956 8.27935
559 2 11.9565 27.4495 8.40702
560 2 15.852 27.7626 8.33433
561 2 19.9892 27.3194 8.31806
562 2 23.7817 27.6702 8.17638
563 2 27.8533 27.4941 8.2855
564 2 31.6826 27.5763 8.31645
565 2 35.5301 27.5525 8.38386
566 2 39.4929 27.5461 8.40509
567 2 43.4074 27.7283 8.31001
568 2 47.3723 27.5489 8.37785
569 2 51.1997 27.6241 8.3462
570 2 55.522 27.5309 8.38688
571 2 0.147992 31.5717 8.1781
572 2 4.13793 31.6637 8.10976
573 2 8.04107 31.2194 8.19246
574 2 11.9424 31.4829 8.20408
575 2 15.9411 31.4707 8.19533
576 2 19.8767 31.4348 8.04252
577 2 23.8621 31.5179 8.27283
578 2 27.8457 31.5599 8.1944
579 2 31.6419 31.4577 8.29412
580 2 35.7201 31.5708 8.44624
581 2 39.7601 31.6117 8.18693
582 2 43.6272 31.5391 8.26652
583 2 47.4426 31.4602 8.32341
584 2 51.4501 31.6247 8.33962
585 2 55.6923 31.5142 8.25166
586 2 0.0488762 35.5458 8.23272
587 2 4.02306 35.4125 8.23641
588 2 7.88338 35.4874 8.25928
589 2 11.9573 35.5032 8.41186
590 2 16.0798 35.3932 8.24418
591 2 20.067 35.5211 8.4205
592 2 23.6561 35.5069 8.26944
593 2 27.6012 35.5216 8.37842
594 2 31.6484 35.6264 8.37895
595 2 35.8412 35.4952 8.18833
596 2 39.7346 35.3519 8.37511
597 2 43.5441 35.5369 8.51212
598 2 47.6456 35.2386 8.35555
599 2 51.5332 35.362 8.37871
600 2 55.4403 35.4726 8.40207
601 2 0.0851505 39.5439 8.12445
602 2 4.21621 39.4648 8.26101
603 2 7.86161 39.4819 8.08742
604 2 11.9977 39.4605 8.35327
605 2 15.8842 39.531 8.36495
606 2 19.979 39.4684 8.32013
607 2 23.7574 39.3501 8.35906
608 2 27.7638 39.2556 8.20974
609 2 31.6778 39.3613 8.26701
610 2 35.5836 39.3215 8.30397
611 2 39.3626 39.5393 8.29627
612 2 43.4668 39.2431 8.42652
613 2 47.6747 39.3424 8.38751
614 2 51.5277 39.4105 8.10177
615 2 55.3086 39.4476 8.38981
616 2 0.111117 43.5392 8.37169
617 2 3.97357 43.4605 8.34369
618 2 7.9625 43.4418 8.30018
619 2 11.9704 43.3562 8.20714
620 2 15.7331 43.2124 8.29032
621 2 19.7968 43.5982 8.19924
622 2 23.9344 43.3388 8.15894
623 2 27.7641 43.2865 8.23716
624 2 31.6489 43.317 8.23429
625 2 35.4288 43.3591 8.24156
626 2 39.6602 43.4184 8.3233
627 2 43.5913 43.2393 8.27322
628 2 47.5921 43.4572 8.38398
629 2 51.5216 43.406 8.3996
630 2 55.5501 43.4459 8.27119
631 2 -0.170916 47.4073 8.31737
632 2 3.85804 47.4227 8.22252
633 2 8.1406 47.2728 8.16667
634 2 12.0041 47.2011 8.24221
635 2 15.7917 47.2877 8.39007
636 2 19.7822 47.3294 8.31485
637 2 23.8779 47.3658 8.34954
638 2 27.8313 47.1756 8.13261
639 2 31.7423 47.2683 8.27546
640 2 35.626 47.1887 8.35388
641 2 39.7033 47.3221 8.35699
642 2 43.6287 47.5201 8.33436
643 2 47.6138 47.4652 8.54894
644 2 51.5845 47.2959 8.4497
645 2 55.3655 47.467 8.19494
646 2 0.116161 51.4081 8.08979
647 2 4.17441 51.3148 7.90732
648 2 8.05721 51.2036 8.25469
649 2 11.9378 51.1367 8.1373
650 2 15.977 51.3009 8.31764
651 2 19.8855 51.3557 8.46354
652 2 23.7177 51.2982 8.35
653 2 27.7066 51.2988 8.36317
654 2 31.7461 51.2881 8.42087
655 2 35.7769 51.2852 8.32348
656 2 39.7417 51.25 8.28009
657 2 43.8487 51.2634 8.2427
658 2 47.479 51.3438 8.37104
659 2 51.508 51.286 8.16679
660 2 55.4628 51.3408 8.16651
661 2 0.0157404 55.2968 8.2133
662 2 4.11948 55.0637 8.14395
663 2 8.20868 55.1759 8.14602
664 2 12.0301 55.1348 8.16703
665 2 15.8486 55.2008 8.26947
666 2 19.8689 55.3284 8.21599
667 2 23.8253 55.2778 8.2002
668 2 27.7078 55.442 8.24804
669 2 31.7823 55.2398 8.26274
670 2 35.7798 55.0951 8.37625
671 2 39.7011 54.9918 8.28211
672 2 43.6732 55.1167 8.40495
673 2 47.7125 55.286 8.50923
674 2 51.6603 55.14 8.29095
675 2 55.5437 55.1419 8.14642
676 2 0.115348 -0.139132 12.111
677 2 4.04321 -0.279429 12.2621
678 2 8.0613 -0.283202 12.271
679 2 12.0835 -0.219661 12.2876
680 2 15.8111 59.0992 12.1345
681 2 19.7027 -0.170316 12.248
682 2 23.9027 -0.240879 12.2043
683 2 27.8967 -0.0832335 12.3483
684 2 31.5396 -0.306494 12.4256
685 2 35.7423 -0.357288 12.3555
686 2 39.8733 -0.0893142 12.1307
687 2 43.6296 -0.262898 12.3057
688 2 47.4973 -0.24 12.4582
689 2 51.5622 -0.000877257 12.3771
690 2 55.5744 -0.101711 12.2469
691 2 0.355588 4.04388 12.1763
692 2 4.22249 3.70188 12.1175
693 2 7.90106 3.90097 12.206
694 2 12.0517 3.69961 12.1502
695 2 15.8692 3.78658 12.2581
696 2 19.6148 3.62063 12.1823
697 2 23.8135 3.7433 12.283
698 2 27.728 3.63239 12.2739
699 2 31.6312 3.7444 12.353
700 2 35.5555 3.71006 12.1794
701 2 39.738 3.92517 12.1829
702 2 43.6826 3.8369 12.2839
703 2 47.836 3.83219 12.1863
704 2 51.5887 3.76022 12.3467
705 2 55.7031 3.82389 12.2038
706 2 0.25174 7.8507 12.1715
707 2 3.97615 7.87769 12.168
708 2 7.85329 7.59918 12.1408
709 2 11.7919 7.81914 12.2308
710 2 15.8255 7.88203 12.1234
711 2 19.7497 7.809 12.0692
712 2 23.9138 7.4449 12.1568
713 2 27.7998 7.55015 12.1742
714 2 31.9048 7.80955 12.208
715 2 35.6707 7.9281 12.2758
716 2 39.3997 7.80633 12.1603
717 2 43.4868 7.97501 12.2691
718 2 47.5403 7.96413 12.2062
719 2 51.5524 7.81745 12.1736
720 2 55.639 7.75344 12.2097
721 2 0.228543 11.8231 12.3111
722 2 4.30039 11.7575 12.4216
723 2 8.08394 11.8396 11.8724
724 2 11.9243 11.6961 12.2052
725 2 16.0017 11.6349 12.049
726 2 19.7929 11.7337 12.1955
727 2 23.9595 11.6431 12.1879
728 2 27.8142 11.7526 12.3652
729 2 31.8688 11.8056 12.2121
730 2 35.7039 12.0052 12.287
731 2 39.6506 11.7734 12.2006
732 2 43.7776 11.9304 12.2035
733 2 47.7435 12.0329 12.0122
734 2 51.4892 11.8544 12.2919
735 2 55.6144 11.9395 12.1332
736 2 0.144263 15.8761 12.238
737 2 4.21825 15.8207 12.2662
738 2 8.18518 15.8226 12.2284
739 2 12.0674 15.6762 12.3729
740 2 16.0447 15.9008 12.2366
741 2 19.7978 15.488 12.0495
742 2 23.687 15.7003 12.2878
743 2 27.9035 15.7456 12.1766
744 2 31.7629 15.6345 12.179
745 2 35.5273 15.8255 12.4719
746 2 39.7094 15.6839 12.1993
747 2 43.6772 15.8221 12.444
748 2 47.712 15.851 12.198
749 2 51.3941 15.9514 12.2622
750 2 55.4118 15.9869 12.1991
751 2 0.330671 19.7099 12.3115
752 2 4.18111 19.732 12.168
753 2 8.18029 19.6466 12.1413
754 2 11.9944 19.7448 12.1448
755 2 16.1355 19.7855 12.0167
756 2 19.6784 19.6688 12.1679
757 2 23.8128 19.7636 12.2926
758 2 27.7247 19.621 12.2457
759 2 31.7234 19.9016 12.0826
760 2 35.9201 19.6831 12.1365
761 2 39.7245 19.4745 12.1371
762 2 43.4892 19.782 12.2753
763 2 47.5861 19.5481 12.33
764 2 51.5898 19.5978 12.0702
765 2 55.779 19.6549 12.2079
766 2 0.337508 23.6906 12.0103
767 2 4.19509 23.6777 12.1845
768 2 8.04093 23.5475 12.3213
769 2 12.1796 23.6731 12.1819
770 2 15.8824 23.6559 12.1248
771 2 20.0559 23.7068 12.3128
772 2 23.9589 23.6825 12.155
773 2 27.6764 23.5959 12.2858
774 2 31.6344 23.6176 12.3571
775 2 35.6058 23.7082 12.2945
776 2 39.5784 23.7831 12.252
777 2 43.5237 23.6434 12.1125
778 2 47.7297 23.5479 12.3807
779 2 51.604 23.6151 12.3999
780 2 55.6075 23.7172 12.2666
781 2 0.135048 27.5119 12.1626
782 2 4.34163 27.6557 12.1472
783 2 8.07364 27.5762 12.317
784 2 12.0737 27.3876 12.2113
785 2 16.0525 27.6425 12.2218
786 2 19.7033 27.4702 12.3736
787 2 23.7803 27.8215 12.383
788 2 27.9451 27.5476 12.2682
789 2 31.8392 27.6112 12.3525
790 2 35.9278 27.8923 12.2743
791 2 39.5903 27.5296 12.2798
792 2 43.5924 27.7136 12.2949
793 2 47.4765 27.7044 12.0682
794 2 51.4853 27.5906 12.2834
795 2 55.4976 27.7689 12.1642
796 2 0.216215 31.7573 12.2748
797 2 4.19157 31.8408 12.2591
798 2 7.95011 31.5403 12.341
799 2 11.9104 31.6167 12.1991
800 2 15.9043 31.3289 12.0702
801 2 19.7476 31.6408 12.2476
802 2 23.7058 31.6598 12.4579
803 2 27.8914 31.5569 12.2821
804 2 31.624 31.5852 12.3622
805 2 35.6896 31.7175 12.3336
806 2 39.749 31.5324 12.3818
807 2 43.6073 31.5675 12.3258
808 2 47.5137 31.5584 12.1873
809 2 51.5116 31.4488 12.2684
810 2 55.4184 31.5057 12.0896
811 2 0.16334 35.5434 12.1277
812 2 4.14552 35.6834 12.2183
813 2 8.18315 35.4835 12.0358
814 2 11.8755 35.2889 12.2115
815 2 15.9187 35.559 12.2004
816 2 19.802 35.4648 12.2739
817 2 23.8785 35.4923 12.2707
818 2 27.8262 35.3588 12.1655
819 2 31.7203 35.4491 12.2642
820 2 35.6784 35.684 12.2736
821 2 39.6095 35.4804 12.4934
822 2 43.5108 35.5314 12.2464
823 2 47.5747 35.5241 12.4745
824 2 51.6355 35.4466 12.2831
825 2 55.7833 35.5315 12.2181
826 2 0.0274929 39.5433 12.1907
827 2 4.19744 39.5928 12.1273
828 2 8.19949 39.3403 12.1332
829 2 12.0175 39.3335 12.3682
830 2 15.9442 39.7387 12.1241
831 2 19.9318 39.6655 12.2912
832 2 23.8434 39.4902 12.3959
833 2 27.8267 39.5119 12.2666
834 2 31.5021 39.2982 12.0967
835 2 35.6096 39.5836 12.2667
836 2 39.5577 39.6021 12.4648
837 2 43.6171 39.4753 12.4189
838 2 47.7322 39.4418 12.2047
839 2 51.5753 39.8099 12.0971
840 2 55.368 39.4257 12.5018
841 2 0.10427 43.4432 12.1759
842 2 4.08183 43.5491 12.307
843 2 8.16938 43.1897 12.2419
844 2 11.8852 43.479 12.3593
845 2 15.8857 43.4863 12.3228
846 2 20.0269 43.441 12.2514
847 2 23.9398 43.3937 11.9366
848 2 27.6784 43.3636 12.2202
849 2 31.7548 43.105 12.181
850 2 35.7109 43.4985 12.2882
851 2 39.7557 43.3083 12.317
852 2 43.7702 43.4376 12.2484
853 2 47.6126 43.35 12.1386
854 2 51.577 43.4327 12.1215
855 2 55.5707 43.4459 12.3748
856 2 0.223043 47.7011 12.2779
857 2 4.11019 47.363 12.2124
858 2 7.90407 47.4708 12.1843
859 2 12.0049 47.3902 12.2304
860 2 15.8887 47.388 12.2448
861 2 19.9054 47.271 12.3179
862 2 23.9126 47.2318 11.9802
863 2 27.904 47.1969 12.2079
864 2 31.8021 47.1322 12.418
865 2 35.8931 47.4152 12.3784
866 2 39.6907 47.2777 12.2799
867 2 43.5779 47.0241 12.3665
868 2 47.6543 47.247 12.4422
869 2 51.6858 47.3063 12.295
870 2 55.7123 47.5008 12.131
871 2 0.0895336 51.3484 12.3421
872 2 4.16949 51.3463 12.1683
873 2 8.15009 51.3018 12.2672
874 2 12.0285 51.3126 12.3044
875 2 15.9532 51.2505 12.345
876 2 20.0288 51.4541 12.402
877 2 23.8362 51.2296 12.1677
878 2 27.6981 51.2153 12.2977
879 2 31.6917 51.2085 12.3654
880 2 35.5049 51.2256 12.3717
881 2 39.7154 51.3015 12.3632
882 2 43.6479 51.1779 12.3689
883 2 47.4412 51.1975 12.3203
884 2 51.7038 51.2253 12.1589
885 2 55.4732 51.4204 12.3629
886 2 0.374237 55.1019 12.1857
887 2 4.12816 55.05 12.2063
888 2 8.1893 55.1914 12.1974
889 2 11.952 55.2658 12.367
890 2 15.8597 55.1508 12.1453
891 2 19.8209 55.3006 12.2286
892 2 23.8899 55.2711 12.2142
893 2 27.7423 55.139 12.3251
894 2 31.6898 55.2245 12.4025
895 2 35.3687 55.0398 12.5328
896 2 39.7226 55.321 12.2717
897 2 43.6956 55.2852 12.3089
898 2 47.8208 55.2662 12.4023
899 2 51.5794 55.5082 12.3188
900 2 55.5862 55.3139 12.0781
901 2 0.0654124 -0.296447 16.0392
902 2 4.13625 -0.0708595 16.3035
903 2 7.97784 -0.109766 16.1228
904 2 11.7664 -0.229285 16.3101
905 2 15.9031 -0.173997 16.2685
906 2 19.7741 -0.245233 16.2403
907 2 23.8299 -0.26046 16.3373
908 2 27.7725 -0.390008 16.2523
909 2 31.7707 -0.34242 16.3092
910 2 35.8498 -0.258077 16.1032
911 2 39.8908 -0.202651 16.1636
912 2 43.7881 59.2106 16.2734
913 2 47.7462 59.2791 16.245
914 2 51.7596 59.4503 16.1136
915 2 55.5476 -0.0242809 16.2221
916 2 0.265549 3.90779 16.0458
917 2 4.23119 3.88535 16.0875
918 2 8.06278 3.91521 16.2491
919 2 12.1497 3.80898 16.2051
920 2 15.9452 3.98833 16.2926
921 2 20.0692 3.77015 16.1272
922 2 23.9066 3.7257 16.1177
923 2 27.6474 3.83541 16.1387
924 2 31.6866 3.78354 16.0776
925 2 35.7062 3.63999 16.1372
926 2 39.6016 3.95248 16.1549
927 2 43.7777 3.97821 16.4012
928 2 47.4951 3.91635 16.2169
929 2 51.5954 4.08519 16.2859
930 2 55.5514 3.79333 16.2081
931 2 0.0844176 7.88137 16.0615
932 2 4.0869 7.89974 16.2141
933 2 8.20282 7.85985 16.2269
934 2 12.0144 7.74565 15.995
935 2 16.023 7.9013 16.0838
936 2 19.9352 7.9301 16.175
937 2 23.7392 7.56756 16.023
938 2 27.9032 7.79125 16.1308
939 2 31.778 7.79187 15.9463
940 2 35.8184 8.0138 16.2496
941 2 39.7946 7.98247 16.1686
942 2 43.5124 8.17546 16.0451
943 2 47.6291 7.99383 16.1738
944 2 51.7288 7.99693 15.9457
945 2 55.6283 7.79228 16.0949
946 2 59.4098 11.7115 16.1934
947 2 4.19496 11.7599 16.363
948 2 8.20977 11.8284 16.097
949 2 12.2674 11.7527 15.9662
950 2 15.9371 11.8184 16.1357
951 2 20.0689 11.8666 16.3233
952 2 23.843 11.6683 16.2389
953 2 27.7885 11.6594 16.325
954 2 31.8339 11.7906 16.201
955 2 35.7952 11.7955 16.1645
956 2 39.6252 12.0396 16.2462
957 2 43.6629 12.0386 16.1074
958 2 47.5497 12.06 16.1097
959 2 51.6899 11.8178 16.1491
960 2 55.6199 11.7974 16.0722
961 2 0.432687 15.8609 16.1363
962 2 4.26886 15.7106 16.2656
963 2 8.18465 15.8057 16.1014
964 2 12.2017 15.632 16.3021
965 2 16.089 15.7312 16.1896
966 2 20.0282 15.8748 16.2523
967 2 23.9734 15.5747 16.1707
968 2 27.8401 15.6 16.2456
969 2 31.9576 15.8044 16.1761
970 2 35.7004 15.7496 16.2847
971 2 39.4844 15.7498 16.1832
972 2 43.6917 15.937 16.2395
973 2 47.5493 15.8472 16.1387
974 2 51.5774 15.7864 16.0305
975 2 55.629 15.6862 16.2035
976 2 0.17158 19.8685 16.2727
977 2 4.2429 19.6422 16.0881
978 2 8.13781 19.8362 16.1966
979 2 12.2451 19.7206 16.0796
980 2 16.0554 19.5605 16.0814
981 2 20.0596 19.7438 16.2353
982 2 23.8078 19.4472 16.1687
983 2 27.8962 19.9466 15.9861
984 2 31.838 19.6442 16.1041
985 2 35.8595 19.6667 16.2211
986 2 39.5148 19.6936 16.2107
987 2 43.6643 19.7087 16.1999
988 2 47.6638 19.7328 16.2309
989 2 51.5454 19.6971 16.2493