ITEM: TIMESTEP
40800
ITEM: NUMBER OF ATOMS
28125
ITEM: BOX BOUNDS xy xz yz pp pp pp
0.0000000000000000e+00 5.9369999999999997e+01 0.0000000000000000e+00
0.0000000000000000e+00 5.9369999999999997e+01 0.0000000000000000e+00
5.7587877254306363e-02 9.9442412122746163e+01 0.0000000000000000e+00
ITEM: ATOMS id type x y z
1 2 59.3287 59.3122 0.215847
2 2 3.7723 59.1698 0.40008
3 2 7.65587 59.2576 0.118542
4 2 11.8095 59.3012 0.310977
5 2 15.7833 59.2356 0.417126
6 2 19.6597 59.196 0.386377
7 2 23.6854 59.3678 0.4086
8 2 27.4921 59.2459 0.154231
9 2 31.5686 59.3255 0.321981
10 2 35.6605 59.2174 0.313753
11 2 39.4773 59.1837 0.32619
12 2 43.5997 59.2167 0.366253
13 2 47.5938 59.3452 0.283925
14 2 51.5978 -0.141171 0.241318
15 2 55.5343 59.2493 0.33823
16 2 59.4791 3.67749 0.211753
17 2 3.88054 3.52826 0.183859
18 2 7.92458 3.6654 0.0372063
19 2 11.7544 3.82832 0.21278
20 2 15.6171 3.8454 0.420796
21 2 19.5206 3.94864 0.263518
22 2 23.6628 3.90968 0.248586
23 2 27.7245 3.98596 0.388954
24 2 31.6561 3.74089 0.23741
25 2 35.48 3.77515 0.422201
26 2 39.6409 3.87446 0.316488
27 2 43.5411 3.74071 0.276991
28 2 47.521 3.74598 0.173279
29 2 51.3325 3.72122 0.12542
30 2 55.3318 3.76231 0.333303
31 2 59.2228 7.72117 0.350191
32 2 3.90733 7.72454 0.26718
33 2 7.64194 7.59765 0.121288
34 2 11.9283 7.661 0.263752
35 2 15.7965 7.91997 0.289115
36 2 19.738 7.87978 0.406521
37 2 23.6849 7.65286 0.154673
38 2 27.7222 7.69517 0.417297
39 2 31.7786 7.80979 0.321348
40 2 35.7412 7.69985 0.256674
41 2 39.6105 7.81927 0.220423
42 2 43.5101 7.62071 0.226106
43 2 47.5061 7.88227 0.236606
44 2 51.4198 7.74762 0.35403
45 2 55.4141 7.63245 0.487596
46 2 59.1729 11.7216 0.0900765
47 2 3.7446 11.4949 0.355438
48 2 7.99947 11.542 0.236836
49 2 11.7521 11.7518 0.227387
50 2 15.696 11.7071 0.282693
51 2 19.7836 11.8068 0.184835
52 2 23.6182 11.7356 0.504658
53 2 27.696 11.6451 0.225279
54 2 31.8265 11.5936 0.235507
55 2 35.6712 11.5753 0.0980753
56 2 39.5364 11.6681 0.27269
57 2 43.4273 11.556 0.12637
58 2 47.5992 11.9311 0.136922
59 2 51.7955 11.9416 0.0534587
60 2 55.3872 11.6476 0.278986
61 2 -0.180389 15.6061 0.362333
62 2 3.98866 15.6743 0.275699
63 2 7.89309 15.5318 0.208582
64 2 11.8543 15.753 0.242155
65 2 15.7632 15.6122 0.297264
66 2 19.7346 15.5956 0.257812
67 2 23.7772 15.7629 0.466964
68 2 27.4873 15.6114 0.260538
69 2 31.6715 15.5218 0.0717014
70 2 35.7678 15.6571 0.391017
71 2 39.6007 15.69 0.414653
72 2 43.4849 15.8058 0.178976
73 2 47.3476 15.6323 0.490435
74 2 51.3326 15.6678 0.443098
75 2 55.366 15.638 0.429086
76 2 59.1412 19.5633 0.371881
77 2 4.12481 19.743 0.166741
78 2 7.89718 19.7045 0.341134
79 2 11.7927 19.7571 0.268904
80 2 15.7912 19.6047 0.396158
81 2 19.7594 19.6523 0.318614
82 2 23.5635 19.6749 0.294624
83 2 27.5013 19.4389 0.222203
84 2 31.5695 19.6181 0.103896
85 2 35.6155 19.6186 0.193118
86 2 39.5724 19.5649 0.414514
87 2 43.6067 19.7134 0.333712
88 2 47.4194 19.7237 0.316666
89 2 51.4207 19.6561 0.479583
90 2 55.1789 19.5254 0.330155
91 2 59.6072 23.4175 0.264501
92 2 3.88856 23.7463 0.390089
93 2 7.95906 23.6807 0.176721
94 2 12.0586 23.6002 0.175185
95 2 15.7768 23.4555 0.333222
96 2 19.8218 23.647 0.404097
97 2 23.7978 23.6108 0.284695
98 2 27.6601 23.7883 0.281683
99 2 31.6158 23.4892 0.312908
100 2 35.611 23.5441 0.337737
101 2 39.5786 23.7049 0.291831
102 2 43.6419 23.5231 0.304292
103 2 47.6311 23.5009 0.299247
104 2 51.5118 23.6383 0.255855
105 2 55.4203 23.5382 0.419738
106 2 59.3802 27.5189 0.284936
107 2 3.92167 27.7931 0.372268
108 2 7.97081 27.8498 0.458114
109 2 11.7839 27.4767 0.283088
110 2 15.8568 27.6455 0.399042
111 2 19.7636 27.557 0.454632
112 2 23.6681 27.6092 0.388141
113 2 27.8324 27.5587 0.326934
114 2 31.9431 27.6694 0.28436
115 2 35.6727 27.562 0.267618
116 2 39.7139 27.4568 0.382456
117 2 43.5908 27.6245 0.362179
118 2 47.5085 27.7363 0.456934
119 2 51.3965 27.5546 0.270218
120 2 55.4141 27.73 0.194392
121 2 -0.0970758 31.4768 0.319156
122 2 3.78439 31.5059 0.324885
123 2 7.87994 31.4667 0.310099
124 2 11.8567 31.4523 0.266594
125 2 15.817 31.4003 0.396802
126 2 19.6754 31.407 0.431767
127 2 23.6692 31.4454 0.228079
128 2 27.7208 31.5792 0.339853
129 2 31.5386 31.5443 0.405905
130 2 35.4355 31.5431 0.154992
131 2 39.3136 31.4076 0.262352
132 2 43.4712 31.5803 0.210569
133 2 47.6013 31.6142 0.276488
134 2 51.4001 31.7505 0.265866
135 2 55.4866 31.5102 0.438965
136 2 59.3452 35.5557 0.187216
137 2 4.15198 35.4286 0.196168
138 2 7.80546 35.4775 0.430892
139 2 11.7953 35.5311 0.0649555
140 2 15.6604 35.4159 0.311853
141 2 19.9233 35.6152 0.349427
142 2 23.7879 35.5143 0.488091
143 2 27.7171 35.4368 0.247068
144 2 31.5295 35.4688 0.288205
145 2 35.5812 35.5803 0.504452
146 2 39.558 35.5374 0.338933
147 2 43.6465 35.3887 0.100204
148 2 47.492 35.6043 0.37422
149 2 51.2388 35.4629 0.344051
150 2 55.4411 35.5498 0.26366
151 2 59.3302 39.3789 0.421965
152 2 3.99939 39.3808 0.389228
153 2 7.93118 39.3444 0.412069
154 2 11.7693 39.4596 0.445029
155 2 15.7849 39.4908 0.333642
156 2 19.4878 39.3491 0.371834
157 2 23.6021 39.4549 0.346875
158 2 27.6676 39.3614 0.184263
159 2 31.5507 39.3614 0.367602
160 2 35.4932 39.4434 0.511695
161 2 39.5254 39.6008 0.316413
162 2 43.5843 39.4367 0.158871
163 2 47.5904 39.428 0.199469
164 2 51.4284 39.6141 0.341218
165 2 55.6059 39.5866 0.520549
166 2 0.0316299 43.4219 0.170189
167 2 3.94403 43.2783 0.475058
168 2 7.97844 43.3841 0.421564
169 2 11.8978 43.4301 0.399827
170 2 15.6979 43.5839 0.597804
171 2 19.7249 43.3629 0.336211
172 2 23.5612 43.3601 0.487298
173 2 27.5445 43.208 0.149097
174 2 31.4188 43.3175 0.342039
175 2 35.557 43.2695 0.286422
176 2 39.7117 43.4496 99.5722
177 2 43.5173 43.4619 0.320944
178 2 47.505 43.3708 0.330107
179 2 51.5855 43.4357 0.0621707
180 2 55.4853 43.4907 0.321705
181 2 -0.00413262 47.3501 0.275314
182 2 3.86873 47.5622 0.308103
183 2 7.61232 47.4438 0.277606
184 2 11.8065 47.4247 0.351594
185 2 15.8977 47.3719 0.124845
186 2 19.7826 47.2902 0.335055
187 2 23.6657 47.4582 0.20042
188 2 27.7172 47.397 0.252996
189 2 31.4811 47.344 0.566958
190 2 35.539 47.2496 0.432205
191 2 39.6519 47.4486 0.437213
192 2 43.6189 47.2185 0.511559
193 2 47.4244 47.4316 0.208314
194 2 51.4456 47.3364 0.329046
195 2 55.5009 47.266 0.406613
196 2 0.0813031 51.2799 0.230165
197 2 3.84158 51.3938 0.259647
198 2 7.90175 51.5108 0.232812
199 2 11.838 51.3704 0.403728
200 2 15.8419 51.4259 0.385574
201 2 19.7449 51.3306 0.453887
202 2 23.792 51.3343 0.390709
203 2 27.686 51.4057 0.316691
204 2 31.5376 51.3376 0.321818
205 2 35.6054 51.2363 0.313451
206 2 39.5441 51.3073 0.308677
207 2 43.6852 51.5416 0.3451
208 2 47.6116 51.2088 0.296197
209 2 51.4648 51.2123 0.174868
210 2 55.463 51.2751 0.304883
211 2 59.5449 55.1858 0.146292
212 2 4.02068 55.2064 0.329356
213 2 7.80049 55.2879 0.466855
214 2 11.6478 55.3675 0.275458
215 2 15.6796 55.2759 0.125492
216 2 19.7036 55.2282 0.357521
217 2 23.6655 55.273 0.273434
218 2 27.6156 55.345 0.453635
219 2 31.609 55.2025 0.356318
220 2 35.7043 55.0347 0.46989
221 2 39.7197 55.2034 0.198221
222 2 43.6261 55.2759 0.236892
223 2 47.7421 55.3857 0.295217
224 2 51.411 55.1468 0.284153
225 2 55.512 55.323 0.0302275
226 2 -0.0857262 58.8881 4.22331
227 2 3.90679 59.2662 4.33575
228 2 7.94051 59.3212 4.2973
229 2 11.9287 59.1805 4.36714
230 2 15.8251 59.2284 4.3532
231 2 19.8275 59.2773 4.3384
232 2 23.7351 59.4232 4.12755
233 2 27.725 59.1665 4.19166
234 2 31.5116 59.147 4.23518
235 2 35.6112 59.0126 4.103
236 2 39.4544 59.2545 4.32268
237 2 43.5803 59.0915 4.1895
238 2 47.632 59.3011 4.32802
239 2 51.6206 59.1922 4.21493
240 2 55.3554 59.199 4.21782
241 2 59.3751 3.78385 4.29188
242 2 4.04713 3.81999 4.25348
243 2 7.98069 3.66768 4.09029
244 2 11.9285 3.93386 4.39099
245 2 15.7755 3.86812 4.20067
246 2 19.7263 3.75356 4.20084
247 2 23.7411 3.80131 4.33776
248 2 27.7153 3.81654 4.16393
249 2 31.6104 3.6552 4.16401
250 2 35.5467 3.93774 4.40289
251 2 39.5007 3.70577 4.19325
252 2 43.5216 3.64211 4.44386
253 2 47.3744 3.77681 4.24785
254 2 51.2724 3.98444 4.18915
255 2 55.3751 3.97262 4.29305
256 2 59.3523 7.64939 4.20608
257 2 4.05844 7.78941 4.29982
258 2 7.91783 7.66896 4.15357
259 2 11.746 7.82167 4.56935
260 2 15.6714 7.77102 4.52876
261 2 19.8336 7.74261 4.21867
262 2 23.5343 7.83368 4.50737
263 2 27.6619 7.88878 4.36295
264 2 31.7129 7.68907 4.24147
265 2 35.6844 7.83022 4.31521
266 2 39.3808 7.71668 4.29808
267 2 43.5862 7.80926 4.39357
268 2 47.663 7.82271 4.31833
269 2 51.684 7.62336 4.20642
270 2 55.4364 7.80575 4.34556
271 2 59.3155 11.6833 4.20767
272 2 3.97326 11.6261 4.3776
273 2 7.89434 11.6516 4.04323
274 2 11.8702 11.8398 4.36806
275 2 15.926 11.674 4.16642
276 2 19.6921 11.6643 4.22963
277 2 23.6722 11.677 4.29914
278 2 27.5998 11.977 4.3795
279 2 31.536 11.5981 4.1072
280 2 35.6037 11.6418 4.201
281 2 39.6248 11.5818 4.08887
282 2 43.5576 11.5249 4.06674
283 2 47.6442 11.6208 4.17762
284 2 51.4748 11.6744 4.30336
285 2 55.525 11.7093 4.30562
286 2 59.4557 15.6009 4.31299
287 2 4.16046 15.6422 4.12625
288 2 7.86604 15.5096 4.28717
289 2 11.6189 15.5488 4.26821
290 2 15.6864 15.6121 4.32863
291 2 19.65 15.6007 4.40907
292 2 23.7095 15.6223 4.39322
293 2 27.6496 15.754 4.24177
294 2 31.7508 15.7099 4.08906
295 2 35.5571 15.5345 4.17407
296 2 39.5289 15.5292 4.1824
297 2 43.4098 15.6261 4.31515
298 2 47.3982 15.7316 4.27301
299 2 51.2861 15.5417 4.40874
300 2 55.5222 15.5708 4.17481
301 2 59.616 19.4262 4.22326
302 2 4.16354 19.5473 4.05994
303 2 8.032 19.5042 4.27925
304 2 11.7126 19.5999 4.31881
305 2 15.5984 19.6722 4.35053
306 2 19.7598 19.4296 4.22729
307 2 23.64 19.6051 4.35332
308 2 27.5364 19.501 4.25862
309 2 31.6624 19.5996 4.09635
310 2 35.6337 19.5417 4.28997
311 2 39.6581 19.6179 4.37448
312 2 43.417 19.6071 4.26963
313 2 47.6111 19.6084 4.36203
314 2 51.4279 19.679 4.31723
315 2 55.3448 19.6414 4.29342
316 2 59.5144 23.3386 4.2895
317 2 4.03445 23.7233 4.44281
318 2 7.93752 23.5337 4.27961
319 2 12.0418 23.4979 4.2234
320 2 15.8876 23.5288 4.44057
321 2 19.7219 23.4424 4.54968
322 2 23.7191 23.4106 4.17525
323 2 28.0351 23.6759 4.15901
324 2 31.752 23.43 4.0348
325 2 35.5888 23.5374 4.35548
326 2 39.5964 23.4163 4.1107
327 2 43.5971 23.6723 4.24746
328 2 47.3921 23.6709 4.30859
329 2 51.3927 23.6581 4.3645
330 2 55.3528 23.6233 4.23275
331 2 59.3285 27.3838 4.18038
332 2 4.14101 27.3438 4.33224
333 2 8.04077 27.6197 4.3341
334 2 11.8697 27.6288 4.33737
335 2 15.7914 27.5286 4.37623
336 2 20.0188 27.6855 4.30694
337 2 23.8086 27.5275 4.22056
338 2 27.7106 27.7709 4.46125
339 2 31.6062 27.475 4.14788
340 2 35.5464 27.5442 4.11057
341 2 39.5402 27.5736 4.26343
342 2 43.6055 27.523 4.21605
343 2 47.3236 27.8056 4.13717
344 2 51.4499 27.6409 4.17867
345 2 55.4235 27.6296 4.25873
346 2 0.0236463 31.4391 4.4093
347 2 3.82491 31.5098 4.27844
348 2 7.94648 31.5411 4.28866
349 2 11.8468 31.4703 4.36953
350 2 15.8861 31.6079 4.39727
351 2 19.7201 31.5271 4.31203
352 2 23.7516 31.5266 4.29618
353 2 27.7727 31.5161 4.42053
354 2 31.8681 31.5329 4.15793
355 2 35.665 31.4684 4.2242
356 2 39.4059 31.488 4.29335
357 2 43.3181 31.5694 4.32862
358 2 47.6712 31.6329 4.44089
359 2 51.452 31.4745 4.12395
360 2 55.5339 31.5114 4.32032
361 2 0.0229305 35.5806 4.44391
362 2 3.96533 35.5491 4.37533
363 2 7.89154 35.6321 4.39467
364 2 11.9425 35.5422 4.1165
365 2 15.8353 35.3917 4.39963
366 2 19.7066 35.7814 4.30709
367 2 23.5991 35.6064 4.31825
368 2 27.5384 35.4731 4.28497
369 2 31.6596 35.3994 4.34227
370 2 35.7611 35.53 4.24509
371 2 39.5675 35.4853 4.50805
372 2 43.3211 35.4958 4.22075
373 2 47.561 35.7033 4.4262
374 2 51.6814 35.488 4.26819
375 2 55.4422 35.487 4.24509
376 2 0.107934 39.5654 4.25909
377 2 3.9306 39.646 4.49958
378 2 8.16704 39.5319 4.41803
379 2 11.9574 39.4192 4.47287
380 2 15.7607 39.3074 4.29319
381 2 19.558 39.5557 4.28358
382 2 23.6275 39.6299 4.4364
383 2 27.7741 39.4425 4.13103
384 2 31.7167 39.4279 4.34383
385 2 35.6836 39.5094 4.18687
386 2 39.8234 39.4334 4.2112
387 2 43.6398 39.4898 4.33271
388 2 47.5637 39.5217 4.093
389 2 51.6614 39.3142 4.3033
390 2 55.4521 39.4507 4.2717
391 2 0.0927227 43.5023 4.3374
392 2 3.92049 43.5617 4.38823
393 2 7.85905 43.5373 4.53335
394 2 11.8945 43.3923 4.45126
395 2 15.7238 43.3049 4.3934
396 2 19.7333 43.4629 4.50911
397 2 23.7392 43.4584 4.19554
398 2 27.5336 43.2954 4.16306
399 2 31.6705 43.2771 4.30557
400 2 35.5818 43.3276 4.48928
401 2 39.7504 43.3038 4.20579
402 2 43.6483 43.4081 4.35018
403 2 47.5464 43.3508 4.2488
404 2 51.3644 43.4754 4.36382
405 2 55.3601 43.3728 4.33029
406 2 59.3408 47.3644 4.31567
407 2 3.82644 47.7122 4.33234
408 2 7.85533 47.5255 4.46966
409 2 11.746 47.5077 4.51839
410 2 15.7183 47.2243 4.24028
411 2 19.6865 47.4829 4.34262
412 2 23.7684 47.451 4.37023
413 2 27.5179 47.1171 4.17236
414 2 31.7227 47.3134 4.33068
415 2 35.7373 47.2038 4.30648
416 2 39.5111 47.2569 4.28836
417 2 43.5103 47.2936 4.28704
418 2 47.5129 47.5716 4.21454
419 2 51.5983 47.4865 4.21776
420 2 55.4245 47.277 4.25729
421 2 0.0365593 51.4593 4.3263
422 2 3.85796 51.6103 4.22948
423 2 8.06046 51.6281 3.98909
424 2 12.0314 51.5636 4.14358
425 2 15.6235 51.2736 4.30636
426 2 19.5771 51.4802 4.39106
427 2 23.7177 51.2205 4.27677
428 2 27.5064 51.4006 4.47882
429 2 31.6446 51.2678 4.37681
430 2 35.6033 51.0117 4.40196
431 2 39.5253 51.1923 4.35441
432 2 43.6353 51.1529 4.26661
433 2 47.6364 51.4098 4.19922
434 2 51.4824 51.2475 4.12491
435 2 55.585 51.4895 4.33728
436 2 -0.00957021 55.3595 4.3728
437 2 3.91555 55.4671 4.32271
438 2 7.82034 55.4411 4.41665
439 2 11.8254 55.3856 4.3555
440 2 15.7351 55.2692 4.30238
441 2 19.6053 55.2513 4.52256
442 2 23.6115 55.3126 4.24364
443 2 27.6644 55.3159 4.26497
444 2 31.9817 55.3315 4.19949
445 2 35.6883 55.1186 4.21649
446 2 39.5249 55.1588 4.27004
447 2 43.5024 55.146 4.26544
448 2 47.6824 55.5034 4.30784
449 2 51.5672 55.4738 4.38646
450 2 55.3911 55.3035 4.27704
451 2 0.000399318 59.2351 8.40741
452 2 4.04563 59.1853 8.36824
453 2 7.95345 59.2291 8.48087
454 2 11.9545 58.9773 8.21775
455 2 15.9203 59.1185 8.48369
456 2 19.6309 59.2158 8.33897
457 2 23.8933 59.1549 8.00269
458 2 27.7729 59.1418 8.21928
459 2 31.6868 0.0908203 8.28142
460 2 35.7891 59.1372 8.22521
461 2 39.6264 59.3776 8.42322
462 2 43.6407 59.3115 8.25831
463 2 47.4055 59.3265 8.27473
464 2 51.7565 -0.137213 8.20469
465 2 55.6331 59.2356 8.24669
466 2 0.0641242 3.73768 8.2516
467 2 3.92236 3.83261 8.26652
468 2 7.90939 3.74552 8.38599
469 2 11.7943 3.63464 8.4175
470 2 15.8248 3.83052 8.36454
471 2 19.8387 3.74642 8.42564
472 2 23.8358 3.81586 8.17426
473 2 27.9594 3.85497 8.08656
474 2 31.5698 3.85638 8.29484
475 2 35.4324 3.89931 8.29292
476 2 39.6141 3.8237 8.23355
477 2 43.6031 3.76817 8.28338
478 2 47.6066 3.83836 8.46044
479 2 51.499 3.75797 8.24622
480 2 55.559 4.0482 8.36389
481 2 0.0133313 7.64136 8.41028
482 2 4.00181 7.64296 8.17617
483 2 7.69534 7.62909 8.34901
484 2 11.9482 7.6981 8.3502
485 2 16.1385 7.69616 8.41441
486 2 19.9603 7.9522 8.15671
487 2 23.7704 7.84978 8.26654
488 2 27.7372 7.77957 8.39789
489 2 31.7835 7.86894 8.27061
490 2 35.7804 7.86396 8.25724
491 2 39.6392 7.7981 8.39995
492 2 43.4882 7.59404 8.32391
493 2 47.5898 7.81523 8.42585
494 2 51.4934 7.95588 8.05518
495 2 55.2489 7.87621 8.35997
496 2 0.236778 11.5232 8.21658
497 2 3.98163 11.4947 8.11221
498 2 7.97236 11.768 8.34712
499 2 11.951 11.5512 8.48517
500 2 15.7801 11.8825 8.22059
501 2 19.7258 11.9197 8.37934
502 2 23.6682 11.8056 8.13733
503 2 27.8357 11.9566 8.29963
504 2 31.7635 11.7181 8.26501
505 2 35.5291 11.6569 8.23104
506 2 39.5923 11.7609 8.27109
507 2 43.488 11.8143 7.93715
508 2 47.5779 11.7913 8.17226
509 2 51.3877 11.922 8.33942
510 2 55.4559 11.5291 8.33073
511 2 0.0215284 15.6256 8.29676
512 2 3.87643 15.4789 8.23076
513 2 7.79153 15.4711 8.26149
514 2 11.6603 15.6916 8.23016
515 2 15.764 15.6107 8.36432
516 2 19.5726 15.7708 8.39096
517 2 23.529 15.7585 8.2763
518 2 27.8838 15.8253 8.26241
519 2 31.6884 15.7584 8.21166
520 2 35.5376 15.6486 8.15164
521 2 39.6365 15.6673 8.12959
522 2 43.5219 15.867 8.26899
523 2 47.4365 15.7034 8.19373
524 2 51.5421 15.6453 8.20495
525 2 55.6443 15.5584 8.23921
526 2 -0.151244 19.6447 8.28328
527 2 3.715 19.478 8.1448
528 2 8.0238 19.4324 8.38305
529 2 11.7338 19.7539 8.27524
530 2 15.7798 19.4888 8.20043
531 2 19.845 19.5816 8.26639
532 2 23.7209 19.753 8.25259
533 2 27.7415 19.8255 8.26096
534 2 31.7939 19.5948 8.10226
535 2 35.7438 19.6575 8.07871
536 2 39.556 19.7182 8.33014
537 2 43.5345 19.8509 8.18329
538 2 47.4614 19.5723 8.28532
539 2 51.5837 19.4821 8.13449
540 2 55.5968 19.449 8.23191
541 2 -0.00430345 23.4314 8.41809
542 2 4.0237 23.4796 8.35162
543 2 7.98878 23.5585 8.38623
544 2 11.8968 23.6281 8.42944
545 2 15.7243 23.6545 8.43272
546 2 19.8194 23.6 8.30838
547 2 23.5224 23.457 8.31703
548 2 27.7805 23.7451 8.18573
549 2 31.8518 23.613 8.11836
550 2 35.7487 23.5153 8.29597
551 2 39.7119 23.6869 8.19918
552 2 43.7347 23.7824 8.24857
553 2 47.5342 23.4706 8.2009
554 2 51.4334 23.7952 8.18604
555 2 55.3834 23.4038 8.17499
556 2 -0.0109849 27.372 8.3885
557 2 3.96942 27.5733 8.39153
558 2 7.69473 27.5316 8.44203
559 2 11.6766 27.4153 8.20119
560 2 15.7079 27.4786 8.425
561 2 19.992 27.4935 8.23316
562 2 23.752 27.3957 8.26339
563 2 27.8555 27.7957 8.25324
564 2 31.9062 27.6259 8.11398
565 2 35.7848 27.4576 8.22414
566 2 39.8092 27.5414 8.10624
567 2 43.6631 27.5209 8.17767
568 2 47.7089 27.5471 8.32222
569 2 51.5845 27.5987 8.22812
570 2 55.3974 27.5715 8.12925
571 2 0.137955 31.5004 8.2709
572 2 3.90832 31.3388 8.27987
573 2 8.03922 31.5052 8.16715
574 2 11.8421 31.409 8.06896
575 2 16.0579 31.4529 8.26109
576 2 19.7553 31.3888 8.45127
577 2 23.7581 31.6048 8.41976
578 2 27.7863 31.5863 8.3489
579 2 31.7333 31.4909 8.13548
580 2 35.7302 31.4138 8.2151
581 2 39.7706 31.4806 8.1591
582 2 44.0176 31.5687 8.2369
583 2 47.749 31.515 8.20655
584 2 51.5519 31.553 8.17442
585 2 55.4978 31.5784 8.43707
586 2 0.210349 35.3368 8.15596
587 2 4.12324 35.4412 8.25859
588 2 8.00601 35.465 8.37117
589 2 11.8538 35.4201 8.18022
590 2 15.7658 35.4966 8.44616
591 2 19.755 35.4108 8.39182
592 2 23.6533 35.4794 8.17924
593 2 27.7992 35.5178 8.25503
594 2 31.7355 35.6347 8.16312
595 2 35.8524 35.51 8.32442
596 2 39.8082 35.5369 8.29178
597 2 43.685 35.4474 8.19596
598 2 47.6633 35.5213 8.18033
599 2 51.6473 35.5435 8.11649
600 2 55.5438 35.427 8.46963
601 2 0.115954 39.397 8.46227
602 2 3.82401 39.5007 8.50171
603 2 7.99223 39.4197 8.54634
604 2 11.8855 39.5494 8.43082
605 2 15.8106 39.381 8.38345
606 2 19.8221 39.5931 8.40721
607 2 23.7842 39.45 8.32678
608 2 27.6142 39.3209 8.31268
609 2 31.8824 39.363 8.28354
610 2 35.7841 39.4195 8.16217
611 2 39.6713 39.3638 8.47513
612 2 43.5938 39.5847 8.36823
613 2 47.6472 39.4722 8.26412
614 2 51.484 39.4697 8.3627
615 2 55.5584 39.5047 8.48663
616 2 -0.0913283 43.5515 8.07883
617 2 4.04831 43.4272 8.39815
618 2 7.792 43.2716 8.32755
619 2 11.8549 43.4964 8.3268
620 2 15.8349 43.5339 8.35909
621 2 19.9307 43.3383 8.33703
622 2 23.7192 43.4469 8.38146
623 2 27.843 43.4361 8.21551
624 2 31.5584 43.4921 8.16893
625 2 35.7356 43.4239 8.30656
626 2 39.7337 43.3723 8.21129
627 2 43.7506 43.4355 8.21173
628 2 47.5591 43.5228 8.22202
629 2 51.5095 43.3696 8.33081
630 2 55.3618 43.33 8.16245
631 2 0.0674971 47.6731 8.35444
632 2 4.00051 47.2827 8.41025
633 2 8.00121 47.4882 8.31363
634 2 11.8499 47.5075 8.23705
635 2 15.7281 47.2425 8.26981
636 2 19.9037 47.2887 8.28017
637 2 23.8283 47.33 8.24422
638 2 27.861 47.3068 8.19496
639 2 31.4102 47.2458 8.25497
640 2 35.722 47.3685 8.31072
641 2 39.782 47.1194 8.26112
642 2 43.789 47.4296 8.27241
643 2 47.568 47.4314 8.41701
644 2 51.7037 47.1904 8.22629
645 2 55.4464 47.5471 8.42316
646 2 0.0880903 51.4679 8.3468
647 2 3.87389 51.4448 8.40357
648 2 7.82878 51.4063 8.26725
649 2 11.8834 51.3073 8.32308
650 2 15.6755 51.3001 8.4032
651 2 19.7107 51.214 8.36874
652 2 23.7202 51.1823 8.31082
653 2 28.0451 51.3359 8.38779
654 2 31.578 51.2916 8.335
655 2 35.7378 51.3163 8.23961
656 2 39.6967 51.1661 8.22015
657 2 43.6996 51.3835 8.35716
658 2 47.5349 51.3395 8.34335
659 2 51.3938 51.3213 8.29172
660 2 55.1948 51.3226 8.14985
661 2 -0.103452 55.3878 8.57051
662 2 3.89825 55.2096 8.43041
663 2 7.79005 55.4452 8.54806
664 2 11.7984 55.09 8.39112
665 2 15.8492 55.1762 8.30756
666 2 19.8311 55.0549 8.31359
667 2 23.7342 55.2809 8.38367
668 2 27.7753 55.2478 8.20658
669 2 31.7514 55.4965 8.05335
670 2 35.7874 55.2422 8.3054
671 2 39.7947 55.1933 8.32122
672 2 43.6904 55.3179 8.16855
673 2 47.5889 55.2272 8.19962
674 2 51.3991 55.2798 8.29895
675 2 55.3351 55.2187 8.37721
676 2 0.0587225 59.1949 12.369
677 2 3.96526 59.2836 12.4351
678 2 8.02845 59.1036 12.4114
679 2 11.9437 59.1156 12.2779
680 2 15.911 59.2945 12.4588
681 2 20.0434 59.1308 12.2525
682 2 23.9576 59.318 12.0636
683 2 27.8232 59.216 12.1969
684 2 31.7817 59.3626 12.2074
685 2 35.8788 59.2835 12.0632
686 2 39.7309 59.2733 12.4142
687 2 43.7405 59.1533 12.2377
688 2 47.5861 59.1065 12.2257
689 2 51.5562 59.3719 12.3562
690 2 55.4333 59.3027 12.3092
691 2 0.0497458 3.71708 12.199
692 2 4.02206 3.70684 12.4468
693 2 7.96928 3.92337 12.3039
694 2 12.0288 3.72478 12.3458
695 2 15.9043 3.89946 12.237
696 2 19.8705 3.9061 12.3526
697 2 23.7721 4.01042 12.1577
698 2 27.831 3.69074 12.0894
699 2 31.523 3.66403 12.241
700 2 35.5151 3.87483 12.2182
701 2 39.7039 3.73449 12.3418
702 2 43.6416 3.939 12.1837
703 2 47.4199 3.69781 12.4358
704 2 51.5708 3.96522 12.2627
705 2 55.4591 3.75853 12.2118
706 2 0.0249986 7.7835 12.4774
707 2 3.8175 7.70139 12.4264
708 2 8.09992 7.76647 12.3897
709 2 12.1148 7.85942 12.3874
710 2 16.0447 7.79461 12.238
711 2 20.0593 7.94277 12.0212
712 2 23.8827 7.89072 12.2406
713 2 27.7545 7.84114 12.366
714 2 31.7983 7.73384 12.1798
715 2 35.7808 7.6241 12.3849
716 2 39.6405 7.7436 12.3172
717 2 43.535 7.76409 12.3598
718 2 47.7536 7.60108 12.1566
719 2 51.4324 7.85686 12.1188
720 2 55.415 7.90397 12.2935
721 2 -0.0631503 11.8862 12.2029
722 2 3.86932 11.65 12.2481
723 2 7.93076 11.6322 12.1752
724 2 12.0036 11.8431 12.2548
725 2 15.9243 11.5904 12.2782
726 2 19.8822 11.8816 12.4121
727 2 23.9297 11.7874 12.2147
728 2 27.7888 11.9533 12.0291
729 2 31.5518 11.6996 12.0943
730 2 35.8428 11.9283 12.2372
731 2 39.742 11.8674 12.0248
732 2 43.5036 11.6922 12.1196
733 2 47.5435 11.7178 12.2202
734 2 51.5188 11.6509 12.3861
735 2 55.4048 11.7291 12.3277
736 2 0.054907 15.6735 12.1786
737 2 3.93211 15.6388 12.466
738 2 7.9325 15.5889 12.1844
739 2 11.8888 15.5688 12.3548
740 2 15.8282 15.797 12.313
741 2 19.7929 15.6746 12.3256
742 2 23.6713 15.6698 12.1069
743 2 27.9318 15.7137 12.2039
744 2 31.6818 15.7806 12.3098
745 2 35.6639 15.7003 12.14
746 2 39.9282 15.7892 12.1381
747 2 43.4907 15.5272 12.2723
748 2 47.1944 15.5876 11.9559
749 2 51.1469 15.6873 12.1133
750 2 55.3857 15.5798 12.0073
751 2 0.119689 19.8194 12.3455
752 2 3.9711 19.5778 12.1699
753 2 8.04293 19.5568 12.0765
754 2 12.0449 19.5658 12.2325
755 2 15.9269 19.798 12.1961
756 2 19.8679 19.4354 12.251
757 2 23.8102 19.7928 12.2996
758 2 27.8451 19.7659 12.3199
759 2 31.8927 19.7083 12.1464
760 2 35.93 19.5196 12.0829
761 2 39.8627 19.704 12.1222
762 2 43.5585 19.6849 12.0439
763 2 47.5597 19.4786 12.2221
764 2 51.5758 19.5966 12.2083
765 2 55.397 19.5391 12.2222
766 2 59.2694 23.5096 12.2429
767 2 3.89126 23.5371 12.3964
768 2 7.72968 23.6115 12.3496
769 2 11.836 23.4778 12.4363
770 2 16.1177 23.4658 12.2853
771 2 19.8749 23.529 12.2329
772 2 23.7603 23.6341 12.2304
773 2 28.0081 23.4913 12.0442
774 2 31.8838 23.7238 11.9819
775 2 35.8392 23.6238 12.3515
776 2 39.8342 23.5954 12.1147
777 2 43.722 23.5456 12.0149
778 2 47.594 23.3995 12.3011
779 2 51.4616 23.4977 12.1927
780 2 55.3965 23.444 12.2725
781 2 -0.176002 27.553 12.3783
782 2 3.8225 27.4838 12.3327
783 2 7.88576 27.4617 12.4536
784 2 11.7473 27.4354 12.267
785 2 15.6416 27.3673 12.3842
786 2 19.8735 27.5124 12.1615
787 2 23.9977 27.6229 12.0619
788 2 27.9916 27.4709 12.0269
789 2 31.784 27.6519 12.2867
790 2 35.7086 27.6131 12.1347
791 2 39.8735 27.6727 12.0461
792 2 43.573 27.5535 12.2333
793 2 47.6142 27.5805 12.3294
794 2 51.5096 27.3953 12.0602
795 2 55.3181 27.3811 12.2737
796 2 -0.025023 31.279 12.3666
797 2 3.95903 31.3948 12.3018
798 2 7.78715 31.5749 12.1379
799 2 11.9497 31.3867 12.2898
800 2 15.7755 31.3386 12.261
801 2 19.9786 31.4884 12.2186
802 2 23.8628 31.5087 12.2806
803 2 27.7157 31.6281 12.2627
804 2 31.8721 31.6573 12.1782
805 2 35.5956 31.4576 12.2506
806 2 39.5322 31.6845 12.2101
807 2 43.5936 31.6622 12.1116
808 2 47.5814 31.5484 12.2936
809 2 51.4874 31.5033 12.3359
810 2 55.4501 31.4015 12.2529
811 2 0.0716467 35.393 12.3474
812 2 3.95474 35.3835 12.3987
813 2 7.92635 35.3423 12.2916
814 2 11.9688 35.3769 12.3502
815 2 16.0193 35.2582 12.26
816 2 19.8237 35.477 12.2901
817 2 23.8628 35.5331 12.1681
818 2 27.7194 35.5017 12.1079
819 2 31.7314 35.6096 12.2303
820 2 35.7726 35.5346 12.2299
821 2 39.7462 35.4342 12.1835
822 2 43.7543 35.3657 12.1682
823 2 47.8792 35.3615 11.9899
824 2 51.6407 35.5173 12.3497
825 2 55.4454 35.4542 12.3721
826 2 -0.0692698 39.2283 12.2937
827 2 3.95158 39.4182 12.4817
828 2 8.06844 39.4662 12.4604
829 2 11.8818 39.457 12.3732
830 2 15.7404 39.4143 12.3319
831 2 19.5336 39.4853 12.3722
832 2 23.8745 39.4183 12.3609
833 2 27.7661 39.4257 12.2862
834 2 31.6216 39.385 12.129
835 2 35.8634 39.4833 12.0788
836 2 39.7756 39.3747 12.3057
837 2 43.8219 39.3171 12.2069
838 2 47.7127 39.3577 12.1309
839 2 51.6648 39.4738 12.2875
840 2 55.6084 39.4784 12.4589
841 2 -0.0986057 43.5999 12.2118
842 2 3.90798 43.4722 12.4688
843 2 7.68921 43.4417 12.1442
844 2 11.8192 43.3864 12.4227
845 2 15.7227 43.4647 12.3517
846 2 19.7533 43.3636 12.4164
847 2 23.8967 43.3496 12.2134
848 2 27.741 43.3407 12.1662
849 2 31.8118 43.5556 12.3287
850 2 35.7327 43.6105 12.1425
851 2 39.7294 43.4612 12.3418
852 2 43.572 43.2425 12.353
853 2 47.664 43.5568 12.3166
854 2 51.7567 43.3932 12.46
855 2 55.4203 43.5291 12.3033
856 2 0.12375 47.4538 12.0705
857 2 4.01757 47.2856 12.5158
858 2 7.92507 47.2881 12.2949
859 2 11.8052 47.3482 12.4107
860 2 15.6878 47.5162 12.3899
861 2 19.8037 47.6132 12.3222
862 2 23.67 47.3717 12.2047
863 2 27.6371 47.4708 12.3656
864 2 31.7753 47.4054 12.3081
865 2 35.608 47.5111 12.3739
866 2 39.5717 47.3895 12.379
867 2 43.6488 47.275 12.2229
868 2 47.6527 47.1917 12.2123
869 2 51.5934 47.4427 12.2861
870 2 55.4297 47.5151 12.2108
871 2 -0.112642 51.3362 12.4191
872 2 4.02067 51.336 12.3174
873 2 8.07728 51.2027 12.2589
874 2 11.8307 51.3159 12.3094
875 2 15.7208 51.0821 12.2165
876 2 19.886 51.5878 12.2881
877 2 23.7209 51.464 12.3437
878 2 27.9638 51.4629 12.2048
879 2 31.6153 51.2536 12.2574
880 2 35.5085 51.4375 12.1768
881 2 39.6399 51.2947 12.2677
882 2 43.6781 51.2098 12.3517
883 2 47.5924 51.2199 12.3211
884 2 51.4118 51.3646 12.4734
885 2 55.3004 51.437 12.483
886 2 -0.0337817 55.173 12.3711
887 2 3.73561 55.1767 12.3553
888 2 8.04395 55.2955 12.3432
889 2 11.8429 55.1178 12.2531
890 2 15.9538 55.2658 12.2412
891 2 19.8328 55.4375 12.3095
892 2 23.9079 55.3949 12.0937
893 2 27.7412 55.2716 12.3012
894 2 31.9984 55.4277 12.1608
895 2 35.6476 55.2132 12.3548
896 2 39.6893 55.0773 12.4647
897 2 43.3617 55.3893 12.2465
898 2 47.431 55.519 12.2164
899 2 51.296 55.1439 12.3622
900 2 55.1395 55.3135 12.262
901 2 -0.0824443 59.1839 16.3498
902 2 3.72301 59.2387 16.2223
903 2 7.97816 59.2902 16.2108
904 2 12.0208 59.1954 16.2203
905 2 16.0403 59.6147 16.1412
906 2 19.9994 59.4022 15.9957
907 2 24.0134 59.3604 16.2359
908 2 27.9895 59.1575 16.0674
909 2 31.8609 -0.160854 16.2891
910 2 35.632 59.4014 16.2734
911 2 39.5943 59.3451 16.4106
912 2 43.6494 59.2811 16.1225
913 2 47.6309 59.2744 16.3197
914 2 51.3727 59.1047 16.2775
915 2 55.4603 59.1942 16.339
916 2 59.3262 3.91062 16.1901
917 2 4.12493 3.89458 16.4994
918 2 8.19991 3.87587 16.3656
919 2 11.7696 3.66115 16.2855
920 2 15.8634 3.89507 16.2804
921 2 19.842 3.85492 16.1535
922 2 24.0275 4.06233 16.2344
923 2 27.7665 3.8503 15.9547
924 2 31.707 3.93605 16.3913
925 2 35.8077 3.77713 16.1938
926 2 39.7233 3.93418 16.2141
927 2 43.7926 3.91059 15.9709
928 2 47.6276 3.74509 16.1818
929 2 51.5281 3.81368 16.1766
930 2 55.4093 3.71573 16.2753
931 2 -0.116025 7.83544 16.4393
932 2 3.93756 7.77438 16.1642
933 2 8.01734 7.90429 16.3123
934 2 11.8863 7.88036 16.0935
935 2 16.0755 7.69857 16.1044
936 2 19.9311 7.89066 16.1986
937 2 23.7498 7.88128 16.2776
938 2 27.9036 7.70808 16.1505
939 2 31.8791 7.75046 16.0009
940 2 35.6463 7.91744 16.3283
941 2 39.4829 7.9123 16.0202
942 2 43.2922 7.73257 16.2488
943 2 47.3184 7.77953 16.3819
944 2 51.3239 7.83582 16.3749
945 2 55.2534 7.8322 16.1805
946 2 -0.045826 11.5768 16.3488
947 2 3.95668 11.7385 16.405
948 2 7.90387 11.8236 16.2887
949 2 12.1101 11.5997 16.2051
950 2 15.9902 12.0025 16.2863
951 2 19.7653 11.747 16.2874
952 2 23.8308 11.9648 16.1133
953 2 27.877 11.7863 16.0863
954 2 32.0538 11.852 16.1948
955 2 35.8649 11.7536 16.1789
956 2 39.6993 11.7083 16.2052
957 2 43.6102 11.6936 16.2528
958 2 47.5244 11.6842 16.3272
959 2 51.364 11.6557 16.2819
960 2 55.5665 11.8472 16.231
961 2 0.0883345 15.9649 16.2308
962 2 4.19657 15.4507 16.1834
963 2 8.13318 15.7183 16.3104
964 2 11.8202 15.5824 16.355
965 2 15.9376 15.8211 16.3585
966 2 19.869 15.9223 16.2622
967 2 23.717 15.8526 16.1558
968 2 27.7075 15.728 16.2651
969 2 31.9364 15.8274 16.0835
970 2 35.6305 15.8194 16.0973
971 2 39.582 15.768 16.2539
972 2 43.5381 15.6481 16.3453
973 2 47.305 15.4319 16.2106
974 2 51.2966 15.6011 16.2793
975 2 55.2095 15.9124 16.0383
976 2 59.4765 19.875 16.2575
977 2 4.1617 19.4572 16.2367
978 2 8.05578 19.7897 16.0572
979 2 11.9766 19.6039 16.1947
980 2 15.8442 19.7705 16.2726
981 2 19.8762 19.8327 16.2701
982 2 23.7362 19.7245 16.2288
983 2 27.7237 19.681 16.0861
984 2 31.6609 19.6594 16.3085
985 2 35.7023 19.6959 16.1077
986 2 39.6365 19.6265 16.2121
987 2 43.6124 19.565 16.1484
988 2 47.4264 19.7979 16.2259
989 2 51.5374 19.5121 16.2982
990 2 55.2414 19.7306 16.1541
991 2 0.00383867 23.6662 16.4223
992 2 4.10385 23.5876 16.4116