ITEM: TIMESTEP
41600
ITEM: NUMBER OF ATOMS
28125
ITEM: BOX BOUNDS xy xz yz pp pp pp
0.0000000000000000e+00 5.9369999999999997e+01 0.0000000000000000e+00
0.0000000000000000e+00 5.9369999999999997e+01 0.0000000000000000e+00
9.7844849623093921e-02 9.9402155150376927e+01 0.0000000000000000e+00
ITEM: ATOMS id type x y z
1 2 59.2918 59.2047 0.275788
2 2 3.94423 59.1664 0.290356
3 2 7.81184 59.1229 0.304408
4 2 11.9555 59.1999 0.291249
5 2 15.8709 59.2386 0.356524
6 2 19.7857 59.3961 0.460236
7 2 23.7757 59.2415 0.294746
8 2 27.836 59.1527 0.192555
9 2 31.6788 59.1836 0.387985
10 2 35.8299 59.04 0.224561
11 2 39.573 58.9914 0.24167
12 2 43.6132 59.2663 0.308718
13 2 47.496 59.0865 0.371883
14 2 51.47 -0.127539 0.391634
15 2 55.5472 59.0745 0.445788
16 2 59.6166 3.84647 0.420854
17 2 3.90218 3.65204 0.41723
18 2 7.77797 3.61751 0.267869
19 2 11.8727 3.76972 0.350625
20 2 15.8095 3.9282 0.518702
21 2 19.7336 3.76261 0.403865
22 2 23.6334 3.84591 0.367061
23 2 27.6764 3.92832 0.410282
24 2 31.7661 3.94617 0.425952
25 2 35.7605 4.04683 0.384517
26 2 39.6773 3.60941 0.379722
27 2 43.8587 3.67117 0.25459
28 2 47.6051 3.98184 0.40823
29 2 51.5419 3.74614 0.393558
30 2 55.5757 3.77682 0.308432
31 2 59.4188 7.84419 0.425254
32 2 4.22669 7.65373 0.227778
33 2 7.81654 7.59414 0.10177
34 2 11.5658 7.91466 0.463822
35 2 15.6313 7.73215 0.316346
36 2 19.5339 7.6636 0.456472
37 2 23.4842 7.92544 0.375822
38 2 27.4819 7.70416 0.462478
39 2 31.8361 7.67508 0.259735
40 2 35.9304 7.7797 0.212198
41 2 39.6347 7.59776 0.345149
42 2 43.5139 7.72943 0.0812404
43 2 47.7367 7.62262 0.138901
44 2 51.7068 7.86607 0.388217
45 2 55.5549 7.86573 0.29384
46 2 59.3707 11.799 0.461961
47 2 3.97605 11.7307 0.311575
48 2 7.85684 11.7895 0.238848
49 2 11.6662 11.7474 0.345625
50 2 15.7407 11.7202 0.379312
51 2 19.7754 11.5938 0.42843
52 2 23.8305 11.8064 0.411491
53 2 27.5738 11.8904 0.383292
54 2 31.5833 11.6369 0.338202
55 2 35.643 11.6972 0.233803
56 2 39.6945 11.7112 0.221705
57 2 43.5263 11.7178 0.15644
58 2 47.414 11.7897 0.422788
59 2 51.4433 11.8244 0.407787
60 2 55.4487 11.7808 0.359586
61 2 0.122466 15.6754 0.357362
62 2 3.93316 15.6197 0.373851
63 2 7.83085 15.7811 0.349147
64 2 11.7798 15.7658 0.361267
65 2 15.7121 15.8075 0.381235
66 2 19.7699 15.7964 0.157375
67 2 23.8023 15.6113 0.422356
68 2 27.6337 15.7933 0.317755
69 2 31.5986 15.5748 0.372654
70 2 35.4949 15.7132 0.254522
71 2 39.4121 15.633 0.3826
72 2 43.5891 15.6667 0.447894
73 2 47.6169 15.6271 0.22765
74 2 51.4745 15.7569 0.359929
75 2 55.5547 15.9341 0.186636
76 2 59.3448 19.6266 0.44746
77 2 3.90573 19.7699 0.316393
78 2 7.86362 19.4847 0.320324
79 2 11.9281 19.5173 0.302413
80 2 15.9583 19.5642 0.266357
81 2 19.786 19.7054 0.444041
82 2 23.7316 19.5418 0.388235
83 2 27.6431 19.6313 0.152219
84 2 31.3948 19.4946 0.290102
85 2 35.6388 19.6379 0.37622
86 2 39.7182 19.688 0.407363
87 2 43.6267 19.5972 0.412961
88 2 47.5024 19.4274 0.362954
89 2 51.5131 19.7427 0.272275
90 2 55.6219 19.672 0.322612
91 2 59.5162 23.4366 0.249579
92 2 3.96452 23.7518 0.365573
93 2 7.89028 23.6047 0.445478
94 2 12.1215 23.493 0.403224
95 2 15.7162 23.5832 0.382624
96 2 19.6787 23.609 0.417246
97 2 23.7044 23.4925 0.28476
98 2 27.5854 23.6881 0.352823
99 2 31.6103 23.5825 -0.00491382
100 2 35.533 23.5786 0.215242
101 2 39.7501 23.5146 0.306689
102 2 43.498 23.544 0.415031
103 2 47.361 23.548 0.231615
104 2 51.5447 23.6917 0.486778
105 2 55.2704 23.3742 0.331609
106 2 59.3521 27.5413 0.232817
107 2 4.03303 27.7031 0.44386
108 2 7.91036 27.4599 0.385454
109 2 11.7934 27.4886 0.35499
110 2 15.8767 27.7275 0.499418
111 2 19.5135 27.645 0.247652
112 2 23.6655 27.415 0.212371
113 2 27.7255 27.4049 0.151381
114 2 31.5781 27.4709 0.405585
115 2 35.6199 27.539 0.383591
116 2 39.4412 27.6338 0.407995
117 2 43.3024 27.3813 0.155823
118 2 47.5125 27.6837 0.253944
119 2 51.5241 27.5572 0.368904
120 2 55.5649 27.4862 0.372513
121 2 0.0725387 31.6314 0.452937
122 2 4.10466 31.686 0.375392
123 2 7.80072 31.3906 0.37513
124 2 11.7062 31.348 0.214814
125 2 15.7693 31.6227 0.414535
126 2 19.9193 31.6241 0.319622
127 2 23.7907 31.5807 0.345796
128 2 27.7687 31.352 0.241769
129 2 31.6283 31.3965 0.448479
130 2 35.3807 31.5092 0.544855
131 2 39.5486 31.472 0.538359
132 2 43.6855 31.4479 0.427471
133 2 47.421 31.5052 0.339781
134 2 51.5606 31.4405 0.436459
135 2 55.4658 31.3726 0.408118
136 2 59.5112 35.4495 0.304982
137 2 3.9323 35.4697 0.347667
138 2 7.91461 35.7539 0.312147
139 2 11.8358 35.1961 0.185311
140 2 15.8686 35.3119 0.335625
141 2 19.8116 35.631 0.357973
142 2 23.7111 35.4729 0.391382
143 2 27.707 35.6137 0.438551
144 2 31.5051 35.6425 0.406459
145 2 35.5915 35.4859 0.488468
146 2 39.3378 35.3912 0.149818
147 2 43.2279 35.4878 0.306703
148 2 47.5394 35.4237 0.383004
149 2 51.5312 35.5849 0.300839
150 2 55.5641 35.4919 0.478419
151 2 59.3584 39.5957 0.26029
152 2 4.16027 39.3627 0.242392
153 2 7.98762 39.4257 0.372902
154 2 11.8389 39.4394 0.260283
155 2 15.7162 39.2506 0.392371
156 2 19.7998 39.5571 0.335096
157 2 23.8354 39.3664 0.326869
158 2 27.741 39.5451 0.387119
159 2 31.6312 39.4968 0.370631
160 2 35.7402 39.473 0.319124
161 2 39.5214 39.2637 0.263061
162 2 43.4826 39.359 0.38709
163 2 47.3539 39.3315 0.257723
164 2 51.3977 39.3512 0.353465
165 2 55.394 39.2843 0.229001
166 2 -0.18025 43.3584 0.410549
167 2 4.04849 43.3851 0.503869
168 2 7.75213 43.4304 0.4666
169 2 11.8489 43.4515 0.447652
170 2 15.7092 43.3823 0.32215
171 2 19.6412 43.4084 0.440855
172 2 23.7219 43.4638 0.349275
173 2 27.7855 43.38 0.27864
174 2 31.674 43.4016 0.448841
175 2 35.6153 43.4582 0.379615
176 2 39.4499 43.4052 99.8678
177 2 43.5836 43.2218 0.234528
178 2 47.5142 43.3338 0.380684
179 2 51.4061 43.3411 0.431025
180 2 55.3931 43.3085 0.45268
181 2 -0.0377221 47.1589 0.280303
182 2 3.94042 47.3598 0.311017
183 2 7.89412 47.5012 0.243791
184 2 12.0556 47.2903 0.471668
185 2 15.7552 47.4229 0.278975
186 2 19.8154 47.5235 0.470658
187 2 23.7291 47.3893 0.451846
188 2 27.903 47.4797 0.190778
189 2 31.5582 47.1993 0.255354
190 2 35.534 47.4687 0.471647
191 2 39.7882 47.3078 0.320215
192 2 43.6331 47.2753 0.318912
193 2 47.328 47.1735 0.236448
194 2 51.4038 47.2356 0.34175
195 2 55.4202 47.2495 0.205917
196 2 0.158117 51.2957 0.385219
197 2 3.98345 51.1933 0.149758
198 2 7.88313 51.1902 0.32215
199 2 11.9974 51.4128 0.37473
200 2 15.8576 51.3154 0.41212
201 2 19.7209 51.3168 0.427292
202 2 23.6696 51.361 0.31279
203 2 27.7886 51.2665 0.35521
204 2 31.706 51.1173 0.308016
205 2 35.6086 51.4015 0.203495
206 2 39.6974 51.43 0.276084
207 2 43.4179 51.2239 0.421811
208 2 47.5423 51.2732 0.244211
209 2 51.363 51.2835 0.324386
210 2 55.2532 51.0518 0.380568
211 2 59.0287 55.2353 0.393405
212 2 3.86229 55.0308 0.285529
213 2 7.83703 55.1462 0.32942
214 2 11.8487 55.2583 0.268579
215 2 15.6317 55.1476 0.345278
216 2 19.5294 55.2655 0.2218
217 2 23.6135 55.2242 0.336441
218 2 27.6021 55.3247 0.371445
219 2 31.9271 55.419 0.320735
220 2 35.5412 55.2157 0.281344
221 2 39.4952 55.2983 0.249159
222 2 43.6121 55.1365 0.340122
223 2 47.7486 55.3799 0.308222
224 2 51.5266 55.135 0.314772
225 2 55.4968 55.164 0.316622
226 2 -0.0202361 59.2018 4.4696
227 2 3.72555 59.0128 4.36405
228 2 7.71768 59.1694 4.29
229 2 11.6687 59.2191 4.18603
230 2 15.7794 59.1826 4.33531
231 2 19.7275 58.9996 4.4908
232 2 23.606 59.2278 4.50008
233 2 27.7983 59.207 4.27918
234 2 31.7299 59.212 4.07156
235 2 35.7504 59.0372 4.2951
236 2 39.7057 59.1606 4.15714
237 2 43.6474 58.9741 4.20002
238 2 47.4586 59.0462 4.38489
239 2 51.5 59.2882 4.23395
240 2 55.4666 59.1592 4.43351
241 2 59.6422 3.86601 4.25405
242 2 3.99472 3.71283 4.5136
243 2 7.6909 3.64342 4.28816
244 2 11.9461 3.76913 4.32473
245 2 15.6385 3.89984 4.45391
246 2 19.6752 3.71787 4.29222
247 2 23.6521 3.68069 4.34177
248 2 27.6782 3.88054 4.3896
249 2 31.6477 3.70444 4.43316
250 2 35.5122 3.68374 4.11515
251 2 39.4903 3.67266 4.30773
252 2 43.748 3.88239 4.39679
253 2 47.5935 3.70433 4.51734
254 2 51.5947 3.83124 4.45086
255 2 55.3667 3.5931 4.37268
256 2 59.4614 7.83925 4.30528
257 2 3.95381 7.5884 4.36779
258 2 7.83515 7.62328 4.39771
259 2 11.7343 7.71224 3.99891
260 2 15.6244 8.00561 4.51111
261 2 19.7905 7.76628 4.61367
262 2 23.5375 7.74001 4.33265
263 2 27.8543 7.7376 4.29102
264 2 31.8494 7.61768 4.42334
265 2 35.7357 7.84655 4.18619
266 2 39.7691 7.79507 4.27421
267 2 43.6702 7.77578 4.10413
268 2 47.5562 7.70978 4.20417
269 2 51.4786 7.62736 4.31654
270 2 55.3632 7.61672 4.355
271 2 59.3426 11.7949 4.39082
272 2 4.11638 11.7072 4.28505
273 2 7.90126 11.8069 4.40256
274 2 11.6545 11.7547 4.2628
275 2 15.8364 11.5654 4.3532
276 2 19.6577 11.7136 4.28576
277 2 23.9579 11.825 4.39044
278 2 27.7317 11.5685 4.15536
279 2 31.804 11.611 4.04841
280 2 35.8229 11.6071 4.21883
281 2 39.7302 11.6409 4.19175
282 2 43.6362 11.5706 4.27741
283 2 47.5789 11.6509 4.33947
284 2 51.427 11.7631 4.44623
285 2 55.4385 11.7324 4.32604
286 2 59.3776 15.7651 4.40253
287 2 4.11758 15.6397 4.47769
288 2 7.97619 15.6359 4.43491
289 2 11.8175 15.4973 4.38297
290 2 15.6504 15.5815 4.40207
291 2 19.6626 15.657 4.42947
292 2 23.6077 15.6486 4.33348
293 2 27.7315 15.6725 4.32138
294 2 31.7057 15.7308 4.32655
295 2 35.6999 15.4074 4.05735
296 2 39.6582 15.5454 4.23298
297 2 43.6745 15.6148 4.07528
298 2 47.4793 15.6764 4.15233
299 2 51.4803 15.6892 4.42526
300 2 55.4496 15.6162 4.3365
301 2 59.2911 19.6123 4.33118
302 2 3.93683 19.4149 4.16832
303 2 7.98508 19.5866 4.53243
304 2 11.9611 19.5931 4.43543
305 2 15.859 19.6388 4.32434
306 2 19.7784 19.7474 4.44089
307 2 23.6272 19.6125 4.43371
308 2 27.6798 19.8141 4.2506
309 2 31.7856 19.5782 4.14551
310 2 35.5384 19.5426 4.13139
311 2 39.5998 19.4821 4.29933
312 2 43.5487 19.7538 4.34654
313 2 47.5173 19.5948 4.2439
314 2 51.6031 19.694 4.28747
315 2 55.6046 19.6278 4.17558
316 2 59.5619 23.6015 4.24158
317 2 4.09395 23.6303 4.34848
318 2 8.07861 23.4308 4.36718
319 2 11.7847 23.4471 4.48448
320 2 15.6981 23.6489 4.42033
321 2 19.7463 23.7909 4.35888
322 2 23.5894 23.6199 4.33644
323 2 27.6161 23.5587 4.23372
324 2 31.7855 23.5369 4.08321
325 2 35.4818 23.4658 4.22457
326 2 39.5122 23.4983 4.30188
327 2 43.6154 23.6702 4.2108
328 2 47.6928 23.5096 4.22669
329 2 51.5443 23.7599 4.20855
330 2 55.5084 23.5943 4.37474
331 2 59.2613 27.3877 4.24024
332 2 3.7335 27.6967 4.37365
333 2 7.9577 27.4095 4.21475
334 2 12.0514 27.5044 4.37843
335 2 15.7681 27.655 4.40896
336 2 19.7087 27.5797 4.44597
337 2 23.697 27.2534 4.25853
338 2 27.7058 27.5097 4.27367
339 2 31.55 27.5255 4.42309
340 2 35.7152 27.3154 4.26744
341 2 39.6007 27.5517 4.19545
342 2 43.5845 27.5252 4.23642
343 2 47.5468 27.477 4.17724
344 2 51.7039 27.6828 4.35615
345 2 55.4806 27.3835 4.33923
346 2 -0.078592 31.5387 4.43231
347 2 3.9513 31.4362 4.40121
348 2 7.90188 31.5785 4.25999
349 2 12.1224 31.5038 4.26469
350 2 15.8038 31.6006 4.46978
351 2 19.8918 31.3855 4.32598
352 2 23.5604 31.4526 4.33447
353 2 27.5966 31.2896 4.10911
354 2 31.6319 31.4063 4.37912
355 2 35.5658 31.4355 4.53155
356 2 39.607 31.4626 4.43964
357 2 43.7096 31.4849 4.1851
358 2 47.5605 31.4132 4.30102
359 2 51.399 31.7736 4.48524
360 2 55.4083 31.7116 4.36811
361 2 0.128851 35.6377 4.3637
362 2 4.14602 35.3425 4.34507
363 2 8.07725 35.3887 4.38262
364 2 11.7931 35.3389 4.36172
365 2 15.8124 35.4845 4.10229
366 2 19.7234 35.3593 4.368
367 2 23.8912 35.4835 4.3642
368 2 27.5974 35.3699 4.28918
369 2 31.5205 35.3802 4.23743
370 2 35.7885 35.5557 4.40461
371 2 39.5471 35.512 4.32829
372 2 43.4807 35.3483 4.41443
373 2 47.6164 35.4589 4.46063
374 2 51.3991 35.5689 4.54307
375 2 55.5874 35.5683 4.44723
376 2 -0.00321759 39.416 4.50002
377 2 4.04935 39.3377 4.39325
378 2 8.10135 39.3489 4.26136
379 2 11.8333 39.3211 4.38599
380 2 15.6905 39.2708 4.19497
381 2 19.8818 39.1652 4.37123
382 2 23.8113 39.4765 4.48316
383 2 27.574 39.5312 4.23518
384 2 31.7164 39.3807 4.27509
385 2 35.8768 39.4568 4.21022
386 2 39.7516 39.3339 4.27252
387 2 43.7001 39.3494 4.36448
388 2 47.609 39.3188 4.24772
389 2 51.5325 39.5808 4.38492
390 2 55.4487 39.4649 4.10869
391 2 0.0277075 43.2082 4.38861
392 2 4.00489 43.2366 4.28736
393 2 7.95576 43.3408 4.29831
394 2 12.0128 43.4019 4.27646
395 2 15.8238 43.3109 4.36466
396 2 19.6557 43.3188 4.33933
397 2 23.7506 43.3632 4.26287
398 2 27.8192 43.4311 4.37085
399 2 31.8411 43.3645 4.18873
400 2 35.6988 43.2609 4.23008
401 2 39.7799 43.3543 4.31857
402 2 43.6356 43.2422 4.31272
403 2 47.4154 43.2927 4.3027
404 2 51.3398 43.4037 4.35758
405 2 55.2963 43.3393 4.39067
406 2 59.4947 47.2474 4.20664
407 2 3.8811 47.4658 4.45329
408 2 8.09051 47.2855 4.23492
409 2 11.925 47.2449 4.35034
410 2 15.8847 47.4314 4.39106
411 2 19.9148 47.2534 4.52827
412 2 23.8736 47.3336 4.38886
413 2 27.7425 47.3806 4.25683
414 2 31.647 47.2574 4.40151
415 2 35.5259 47.449 4.30682
416 2 39.3126 47.2948 4.33809
417 2 43.6747 47.3538 4.26212
418 2 47.4345 47.2067 4.25702
419 2 51.4961 47.264 4.4387
420 2 55.3856 47.4172 4.33362
421 2 0.00994146 51.4526 4.39974
422 2 3.87948 51.2651 4.34855
423 2 7.83758 51.3119 4.2953
424 2 11.7858 51.1822 4.22979
425 2 15.7292 51.2781 4.29452
426 2 19.801 51.4043 4.22748
427 2 23.9766 51.4154 4.48079
428 2 27.8585 51.2968 4.24938
429 2 31.8087 51.2564 4.43583
430 2 35.6273 51.2036 4.24707
431 2 39.7597 51.2976 4.35085
432 2 43.7238 51.3206 4.26121
433 2 47.6137 51.1969 4.29489
434 2 51.5192 51.1189 4.30367
435 2 55.6126 51.338 4.30707
436 2 -0.0849215 55.2124 4.40416
437 2 3.88594 55.0605 4.24659
438 2 7.92612 55.281 4.18789
439 2 11.8904 55.2632 4.27455
440 2 15.843 55.1516 4.30811
441 2 19.7446 55.3225 4.13554
442 2 23.7311 55.15 4.28992
443 2 27.6137 55.2699 4.19495
444 2 31.6159 55.3416 4.42794
445 2 35.7138 55.2176 4.30264
446 2 39.5354 54.9631 4.25257
447 2 43.7152 55.4101 4.28715
448 2 47.5934 55.1251 4.26931
449 2 51.4733 55.0009 4.23505
450 2 55.2737 55.1528 4.3545
451 2 0.119083 59.3174 8.42916
452 2 3.77826 59.2397 8.32029
453 2 7.7671 59.0487 8.28852
454 2 11.6324 59.2567 8.276
455 2 15.8405 59.3036 8.33535
456 2 19.5841 59.0933 8.32262
457 2 23.8239 59.3341 8.20849
458 2 27.6891 59.0824 8.17911
459 2 31.8606 -0.187948 8.40104
460 2 35.7106 59.2425 8.3137
461 2 39.7203 59.0889 7.94138
462 2 43.4431 59.0508 8.42502
463 2 47.4394 59.0994 8.43425
464 2 51.6703 -0.224709 8.23423
465 2 55.5253 59.1586 8.34712
466 2 -0.00127724 3.8752 8.30508
467 2 3.97542 3.81439 8.40185
468 2 7.82262 3.59143 8.3528
469 2 11.8516 3.80129 8.42999
470 2 15.5949 3.91318 8.34451
471 2 19.8485 3.54242 8.37867
472 2 23.938 3.69481 8.30765
473 2 27.7706 3.83744 8.41417
474 2 31.7337 3.59847 8.30703
475 2 35.826 3.7443 8.21807
476 2 39.8902 3.66295 8.30488
477 2 43.7891 3.76016 8.40337
478 2 47.5629 3.57723 8.08293
479 2 51.3336 3.74123 8.38144
480 2 55.3422 3.82743 8.31795
481 2 -0.0748806 8.01082 8.35247
482 2 3.99863 7.82437 8.44583
483 2 7.69586 7.61653 8.1954
484 2 11.7387 7.78003 8.0348
485 2 15.7324 7.70801 8.2916
486 2 19.6483 7.59129 8.45477
487 2 23.6878 7.69317 8.21623
488 2 27.7908 7.79423 8.1556
489 2 31.7431 7.61235 8.10806
490 2 35.7098 7.73416 8.30856
491 2 39.7023 7.54411 8.19031
492 2 43.6472 7.78961 8.25913
493 2 47.4726 7.69595 8.24364
494 2 51.4382 7.82728 8.38215
495 2 55.2575 7.65396 8.33232
496 2 -0.106081 11.7979 8.21256
497 2 3.7983 11.8148 8.43345
498 2 7.83666 11.5233 8.34888
499 2 11.5349 11.7254 8.24289
500 2 15.8182 11.7524 8.39441
501 2 19.8152 11.7305 8.30799
502 2 23.8733 11.8851 8.17653
503 2 27.7041 11.7736 8.2584
504 2 31.8129 11.6052 8.23005
505 2 35.7647 11.6334 8.21132
506 2 39.7274 11.7005 8.13141
507 2 43.6029 11.7059 8.35912
508 2 47.5319 11.6436 8.22265
509 2 51.5856 11.6315 8.13694
510 2 55.5424 11.7485 8.21213
511 2 0.341924 15.5917 8.32232
512 2 4.03555 15.7081 8.43815
513 2 7.91252 15.621 8.46756
514 2 11.866 15.6134 8.27422
515 2 15.6683 15.6835 8.35616
516 2 19.5903 15.4917 8.38143
517 2 23.6657 15.6552 8.33042
518 2 27.8413 15.7114 8.29738
519 2 31.7142 15.5853 8.1102
520 2 35.6817 15.5996 8.21394
521 2 39.6717 15.5699 8.04508
522 2 43.5655 15.4804 8.19365
523 2 47.5359 15.7223 8.04826
524 2 51.4941 15.8032 8.33956
525 2 55.5889 15.6507 8.22394
526 2 0.0558781 19.7105 8.36735
527 2 4.05381 19.6107 8.23167
528 2 7.94209 19.7277 8.38347
529 2 11.8753 19.5711 8.32028
530 2 15.9112 19.6562 8.24715
531 2 19.5994 19.7359 8.42398
532 2 23.8283 19.4002 8.20725
533 2 27.8375 19.6983 8.08668
534 2 31.8249 19.6918 8.27932
535 2 35.5955 19.6014 8.31318
536 2 39.6734 19.4599 8.19304
537 2 43.7034 19.599 8.16547
538 2 47.6195 19.781 8.12632
539 2 51.6921 19.5506 8.28611
540 2 55.6612 19.6563 8.12973
541 2 0.170425 23.7494 8.30991
542 2 4.02489 23.6078 8.40548
543 2 7.93004 23.6775 8.36819
544 2 11.9589 23.7221 8.30708
545 2 15.686 23.6366 8.38211
546 2 19.8308 23.4337 8.19438
547 2 23.8277 23.6128 8.26481
548 2 27.8274 23.4786 8.4067
549 2 31.8332 23.6882 8.31645
550 2 35.7106 23.4803 8.22534
551 2 39.6855 23.6007 8.34972
552 2 43.7294 23.497 8.06577
553 2 47.5712 23.5908 8.14701
554 2 51.6673 23.3349 8.26186
555 2 55.7524 23.5582 8.34566
556 2 0.0842281 27.6703 8.12183
557 2 4.09625 27.5498 8.20613
558 2 7.9654 27.5577 8.24537
559 2 11.7571 27.5223 8.18819
560 2 15.8503 27.6008 8.30005
561 2 19.705 27.5923 8.3011
562 2 23.6806 27.5381 8.30366
563 2 27.5548 27.4385 8.15311
564 2 31.5987 27.431 8.25168
565 2 35.551 27.6126 8.09552
566 2 39.5935 27.5668 8.22317
567 2 43.5926 27.5588 7.98044
568 2 47.5223 27.3971 8.15949
569 2 51.5816 27.7593 8.20609
570 2 55.3586 27.6445 8.25579
571 2 0.19042 31.5425 8.42539
572 2 3.97321 31.4016 8.1922
573 2 8.00915 31.5134 8.31749
574 2 11.897 31.549 8.34519
575 2 15.8719 31.3916 8.46049
576 2 19.7322 31.8118 8.38062
577 2 23.8246 31.4272 8.22776
578 2 27.6536 31.2389 8.18191
579 2 31.7265 31.4095 8.26466
580 2 35.6921 31.5296 8.26002
581 2 39.4334 31.4577 8.32594
582 2 43.5984 31.4665 8.17675
583 2 47.5517 31.4255 8.28021
584 2 51.3628 31.5376 8.25883
585 2 55.4701 31.4281 8.37539
586 2 -0.101257 35.337 8.42442
587 2 4.07031 35.51 8.20171
588 2 8.08508 35.5839 8.36733
589 2 11.8753 35.6752 8.35484
590 2 15.8922 35.4714 8.29195
591 2 19.8278 35.3876 8.26626
592 2 23.7498 35.5722 8.35151
593 2 27.6901 35.4197 8.16858
594 2 31.6717 35.3302 8.09231
595 2 35.6147 35.5186 8.21097
596 2 39.6355 35.5643 8.3319
597 2 43.8049 35.5318 8.33977
598 2 47.5294 35.4478 8.38679
599 2 51.433 35.452 8.29869
600 2 55.3155 35.5966 8.49376
601 2 0.0801304 39.4641 8.31125
602 2 4.1038 39.5008 8.33877
603 2 7.9702 39.6354 8.18794
604 2 11.9956 39.4385 8.29297
605 2 15.888 39.4372 8.53887
606 2 19.7374 39.4688 8.35741
607 2 23.8483 39.6577 8.36047
608 2 27.7827 39.3997 8.25751
609 2 31.799 39.3707 8.01057
610 2 35.9055 39.2067 8.27978
611 2 39.7376 39.4795 8.39963
612 2 43.5024 39.4186 8.40949
613 2 47.6459 39.3757 8.32356
614 2 51.5914 39.3698 8.41632
615 2 55.6019 39.398 8.16893
616 2 0.0233419 43.3702 8.32171
617 2 3.89856 43.3823 8.32732
618 2 8.00149 43.4161 8.24518
619 2 11.8909 43.3102 8.28117
620 2 15.8732 43.3956 8.29799
621 2 19.8095 43.3757 8.28067
622 2 23.6853 43.3244 8.45553
623 2 27.8693 43.4143 8.43664
624 2 31.8389 43.473 8.19879
625 2 35.7461 43.3704 8.28376
626 2 39.698 43.3826 8.30645
627 2 43.6765 43.4029 8.27619
628 2 47.5522 43.3149 8.49956
629 2 51.5741 43.4778 8.26474
630 2 55.3904 43.3913 8.24807
631 2 0.0878312 47.1937 8.32895
632 2 3.90738 47.3923 8.35538
633 2 7.93918 47.2506 8.29634
634 2 11.8378 47.2342 8.44623
635 2 15.9352 47.3534 8.36577
636 2 19.8504 47.355 8.49265
637 2 23.7703 47.1999 8.37886
638 2 27.7081 47.2893 8.55925
639 2 31.6535 47.2915 8.30627
640 2 35.6689 47.3481 8.14911
641 2 39.6665 47.3482 8.18054
642 2 43.5886 47.1388 8.34576
643 2 47.5716 47.2271 8.32443
644 2 51.4709 47.3736 8.38454
645 2 55.4625 47.2283 8.31998
646 2 -0.0216015 51.3299 8.31534
647 2 3.94362 51.3071 8.52826
648 2 7.95737 51.3643 8.24071
649 2 11.7584 51.1369 8.41521
650 2 15.8014 51.1681 8.4197
651 2 19.9951 51.2059 8.43835
652 2 23.6956 51.2474 8.27393
653 2 27.4516 51.2789 8.37435
654 2 31.6141 51.3565 8.3606
655 2 35.7429 51.2308 8.47517
656 2 39.8061 51.315 8.1705
657 2 43.6001 51.1052 8.41325
658 2 47.5872 51.084 8.12202
659 2 51.5389 51.2665 8.15628
660 2 55.5268 51.2666 8.35717
661 2 -0.00887685 55.2077 8.17265
662 2 4.01621 55.3326 8.39362
663 2 8.02408 55.1822 8.20877
664 2 11.8582 55.2439 8.38475
665 2 15.6903 55.1466 8.30772
666 2 19.7654 55.1497 8.41024
667 2 23.6726 55.229 8.21193
668 2 27.716 55.293 8.20258
669 2 31.5934 55.2686 8.35423
670 2 35.6592 55.1805 8.28361
671 2 39.5939 55.1811 8.3442
672 2 43.6032 55.1512 8.30169
673 2 47.5243 55.1492 8.2069
674 2 51.4153 55.2532 8.33314
675 2 55.3246 55.2443 8.48365
676 2 0.0284059 59.3176 12.3644
677 2 3.81546 59.2967 12.1577
678 2 7.80573 59.2953 12.3877
679 2 11.9052 59.2154 12.2731
680 2 16.0322 59.1854 12.3283
681 2 19.966 59.0519 12.3938
682 2 24.0256 59.2547 12.1285
683 2 27.7354 59.2096 12.2908
684 2 31.5922 59.2037 12.1218
685 2 35.5974 59.1432 12.3264
686 2 39.6195 59.2382 12.3477
687 2 43.4687 59.0991 12.3311
688 2 47.5923 59.1761 12.1693
689 2 51.6323 59.1522 12.3234
690 2 55.4449 59.2796 12.3129
691 2 -0.0504385 3.87561 12.2637
692 2 3.79027 3.92206 12.4108
693 2 7.82637 3.93397 12.2575
694 2 11.7132 3.90842 12.2984
695 2 15.7665 3.59327 12.3965
696 2 20.0266 3.69669 12.0244
697 2 23.8851 3.87849 12.2139
698 2 28.0186 3.93701 12.2354
699 2 31.8854 3.71482 12.2623
700 2 35.9141 3.76269 12.2489
701 2 39.7401 3.82635 12.3394
702 2 43.6898 3.80214 12.2829
703 2 47.5664 3.75985 12.2286
704 2 51.5124 3.84651 12.297
705 2 55.5095 3.7666 12.3367
706 2 -0.0844629 7.73806 12.1397
707 2 3.96212 8.02517 12.3516
708 2 7.93923 7.96209 12.1028
709 2 11.7976 7.72455 12.1955
710 2 15.763 7.92317 12.1216
711 2 19.9814 7.79315 12.1278
712 2 23.9204 7.5775 12.2197
713 2 27.7815 7.5546 11.9964
714 2 31.7068 7.62462 12.0037
715 2 35.6781 7.76733 12.1483
716 2 39.6559 7.77107 12.5161
717 2 43.5985 7.7923 12.2684
718 2 47.5013 7.66473 12.0669
719 2 51.4495 7.7539 12.3272
720 2 55.2669 7.77589 12.2879
721 2 -0.0578141 11.6033 12.263
722 2 3.94982 11.7661 12.3504
723 2 7.91257 11.8573 12.2163
724 2 11.8637 11.6942 12.3612
725 2 15.8287 11.5882 12.1066
726 2 19.8464 11.6151 12.137
727 2 24.0115 11.5168 12.1722
728 2 28.0479 11.6312 12.104
729 2 31.926 11.6206 12.3663
730 2 35.5431 11.701 12.1652
731 2 39.6751 11.7659 12.0684
732 2 43.6058 11.7901 12.1759
733 2 47.6055 11.9491 12.1904
734 2 51.6095 11.7044 12.1369
735 2 55.5977 11.7437 12.3071
736 2 0.173989 15.7154 12.2749
737 2 4.08189 15.7636 12.2174
738 2 7.89481 15.6989 12.377
739 2 11.9765 15.6743 12.3163
740 2 15.7972 15.6698 12.467
741 2 19.8621 15.5247 12.2914
742 2 23.8127 15.5043 12.3235
743 2 27.7219 15.6235 12.2003
744 2 31.7453 15.6974 12.1069
745 2 35.7089 15.7607 12.0442
746 2 39.5487 15.8214 12.3354
747 2 43.7301 15.7765 12.0556
748 2 47.7837 15.5651 12.0021
749 2 51.7352 15.5611 12.1808
750 2 55.5786 15.8265 12.2291
751 2 0.0254339 19.6643 12.1996
752 2 4.00821 19.7336 12.1987
753 2 7.88674 19.6666 12.3667
754 2 11.863 19.9249 12.1437
755 2 15.7022 19.5062 12.4898
756 2 19.8254 19.5491 12.1676
757 2 23.7641 19.4483 11.9378
758 2 27.7879 19.3973 12.2087
759 2 31.6236 19.6107 12.1101
760 2 35.4731 19.7273 12.2972
761 2 39.6852 19.5716 12.1639
762 2 43.5456 19.6645 12.1526
763 2 47.442 19.6557 12.0182
764 2 51.6594 19.6306 12.1783
765 2 55.4553 19.9086 12.2363
766 2 59.4417 23.691 12.2243
767 2 4.05335 23.5574 12.3413
768 2 7.81442 23.7214 12.3902
769 2 11.8222 23.7904 12.3512
770 2 15.7675 23.5627 12.318
771 2 19.8233 23.7254 12.4546
772 2 23.6888 23.3732 12.2111
773 2 27.763 23.5902 12.1908
774 2 31.6735 23.6342 12.2545
775 2 35.7217 23.5851 12.007
776 2 39.7819 23.6619 12.1132
777 2 43.5786 23.529 12.0961
778 2 47.7329 23.6042 12.2704
779 2 51.7096 23.539 12.1539
780 2 55.5602 23.7003 12.3357
781 2 0.103516 27.7636 12.2249
782 2 4.02376 27.6831 12.3553
783 2 7.86293 27.795 12.3328
784 2 11.6569 27.6239 12.3755
785 2 15.9232 27.6143 12.3822
786 2 19.8065 27.6353 12.2005
787 2 23.8099 27.4367 12.1994
788 2 27.7964 27.524 12.1657
789 2 31.761 27.4606 12.2467
790 2 35.616 27.487 12.3433
791 2 39.8205 27.4931 12.1197
792 2 43.6212 27.3315 12.2016
793 2 47.3058 27.4851 11.9889
794 2 51.5253 27.4946 12.2248
795 2 55.614 27.6677 12.2604
796 2 0.098073 31.7152 12.0196
797 2 4.22384 31.7584 12.2197
798 2 7.91835 31.6347 12.3573
799 2 11.9251 31.5474 12.1755
800 2 15.9377 31.6136 12.2357
801 2 19.8715 31.7215 12.2061
802 2 23.7557 31.6951 12.1298
803 2 27.6852 31.504 12.2605
804 2 31.8175 31.4979 12.1301
805 2 35.6954 31.301 12.0797
806 2 39.7453 31.533 12.2011
807 2 43.7575 31.5431 12.1994
808 2 47.5583 31.3664 12.3111
809 2 51.4723 31.4274 12.4361
810 2 55.554 31.6705 12.3499
811 2 -0.0411459 35.5766 12.3243
812 2 4.07418 35.5517 12.0428
813 2 8.06039 35.5151 12.1883
814 2 11.9155 35.4972 12.3715
815 2 15.7489 35.4229 12.4006
816 2 19.9348 35.5147 12.3497
817 2 23.8172 35.4593 12.2311
818 2 27.8116 35.3811 12.1925
819 2 31.6049 35.4577 12.2293
820 2 35.5988 35.357 12.2947
821 2 39.5074 35.3687 12.4004
822 2 43.5913 35.3351 12.2431
823 2 47.5608 35.3424 12.3688
824 2 51.6097 35.593 12.1389
825 2 55.4324 35.6026 12.4643
826 2 0.000775881 39.4805 12.5347
827 2 3.86684 39.5609 12.3276
828 2 7.86582 39.3303 12.2826
829 2 11.8406 39.4712 12.2818
830 2 15.8383 39.6132 12.4178
831 2 19.9685 39.2693 12.3087
832 2 23.8825 39.4591 12.3691
833 2 27.6134 39.3074 12.1034
834 2 31.7489 39.2452 12.1942
835 2 35.5628 39.3322 12.0932
836 2 39.614 39.3246 12.126
837 2 43.6602 39.3468 12.3727
838 2 47.4331 39.6119 12.3048
839 2 51.4141 39.2633 12.1917
840 2 55.449 39.5881 12.2501
841 2 0.183566 43.3626 12.3693
842 2 4.0342 43.5154 12.3058
843 2 8.04828 43.3833 12.2845
844 2 11.9948 43.5316 12.3873
845 2 15.9185 43.2854 12.2905
846 2 19.8443 43.4419 12.387
847 2 23.7567 43.3434 12.2591
848 2 27.836 43.2834 12.4077
849 2 31.7398 43.129 12.2117
850 2 35.706 43.2338 12.3418
851 2 39.5715 43.2976 12.3906
852 2 43.4863 43.4117 12.4662
853 2 47.4914 43.342 12.3578
854 2 51.5992 43.4781 12.015
855 2 55.4047 43.388 12.2915
856 2 -0.0136984 47.1863 12.3776
857 2 3.87892 47.4727 12.2734
858 2 7.97305 47.4635 12.145
859 2 12.0024 47.4257 12.281
860 2 16.0293 47.23 12.1893
861 2 19.9327 47.2515 12.3925
862 2 23.6926 47.1552 12.2707
863 2 27.7284 47.2906 12.4094
864 2 31.9226 47.1969 12.324
865 2 35.8038 47.24 12.2068
866 2 39.6358 47.2341 12.1655
867 2 43.5346 47.3646 12.1951
868 2 47.7587 47.3277 12.2865
869 2 51.3591 47.3248 12.2996
870 2 55.5088 47.3933 12.419
871 2 0.0690521 51.0847 12.2723
872 2 3.98122 51.2559 12.2727
873 2 7.77734 51.4747 12.3492
874 2 11.8136 51.3897 12.3002
875 2 15.8763 51.1999 12.4465
876 2 19.7608 51.2927 12.4659
877 2 23.8775 51.2585 12.3173
878 2 27.8981 51.2897 12.3382
879 2 31.781 51.3647 12.3258
880 2 35.8365 51.1804 12.1441
881 2 39.6202 51.3568 12.2522
882 2 43.5075 51.2479 12.3636
883 2 47.3034 51.3167 12.2871
884 2 51.4541 51.2641 12.3688
885 2 55.6788 51.3539 12.2036
886 2 0.0901689 55.2935 12.3729
887 2 3.68096 55.2738 12.2852
888 2 7.77966 55.2003 12.3499
889 2 12.033 55.3069 12.0451
890 2 16.018 55.3502 12.3009
891 2 19.8547 55.1381 12.2946
892 2 23.8839 55.2987 12.2102
893 2 27.7412 55.1036 12.1914
894 2 31.8315 55.1913 11.9688
895 2 35.6739 55.1816 12.2136
896 2 39.8798 55.2053 11.9883
897 2 43.6412 55.1907 12.309
898 2 47.5072 55.1823 12.1666
899 2 51.4992 55.3676 12.3372
900 2 55.4391 55.2041 12.4642
901 2 0.00721092 59.3941 16.2714
902 2 4.04456 59.1788 16.1457
903 2 7.90901 59.2414 16.3524
904 2 11.752 59.0547 16.1507
905 2 16.0723 59.3156 16.1915
906 2 19.8286 59.356 16.3541
907 2 23.8787 59.3476 16.0974
908 2 27.7455 59.2538 16.1317
909 2 31.8266 -0.267938 16.2005
910 2 35.6684 59.314 16.1924
911 2 39.5828 59.1553 15.9681
912 2 43.8327 59.1324 16.0912
913 2 47.5855 59.4005 16.3765
914 2 51.521 59.4431 16.2983
915 2 55.4326 59.3403 16.2787
916 2 59.4827 3.75272 16.2972
917 2 3.78849 4.16293 16.3209
918 2 7.85494 3.71834 15.9536
919 2 11.9077 4.01342 16.1174
920 2 15.8131 4.00006 16.1431
921 2 19.9699 3.83305 15.8769
922 2 23.8779 3.76962 16.3154
923 2 27.7194 3.62362 16.3499
924 2 31.8365 3.79804 16.0225
925 2 35.6054 3.72209 16.2128
926 2 39.7439 3.71807 16.2645
927 2 43.7156 3.87496 16.2878
928 2 47.6863 3.84336 16.3699
929 2 51.4249 3.76374 16.2136
930 2 55.556 3.95547 16.2911
931 2 0.0467643 7.90159 16.2699
932 2 3.90157 7.86174 16.3568
933 2 7.94227 7.86632 16.3365
934 2 12.0124 7.89974 16.0553
935 2 15.8846 7.80913 16.175
936 2 20.1031 7.81053 16.1663
937 2 23.8565 7.68934 16.3534
938 2 27.7769 7.92027 16.324
939 2 31.9242 7.68184 16.1154
940 2 35.9684 7.70797 16.084
941 2 39.8226 7.79057 16.2235
942 2 43.878 7.70625 16.0977
943 2 47.5852 7.93819 16.104
944 2 51.4395 7.74763 16.2986
945 2 55.2974 7.79096 16.2492
946 2 0.0049226 11.6013 16.018
947 2 3.94279 11.7274 16.3144
948 2 8.14384 11.8082 16.171
949 2 11.7132 11.8063 16.1066
950 2 16.0097 11.753 16.0693
951 2 19.8064 11.7928 15.9997
952 2 23.8099 11.7299 16.0465
953 2 28.0127 11.647 15.9715
954 2 31.9505 11.6866 16.1004
955 2 36.0254 11.8027 16.0694
956 2 39.7603 11.9846 16.1419
957 2 43.6225 11.7127 16.0646
958 2 47.525 11.746 16.0978
959 2 51.2663 11.8918 16.2632
960 2 55.3909 11.8417 16.2325
961 2 0.0770009 15.7413 16.3335
962 2 3.99692 15.77 16.1875
963 2 7.94336 15.709 16.1675
964 2 11.7508 16.0012 16.0839
965 2 15.9776 15.7217 16.4373
966 2 20.0401 15.7503 16.0804
967 2 23.9112 15.8446 16.1608
968 2 27.7379 15.7064 16.0627
969 2 31.7735 15.7241 16.2409
970 2 35.8438 15.6283 16.1903
971 2 39.7587 15.8071 16.1259
972 2 43.6918 15.8189 16.1717
973 2 47.5653 15.9825 16.2822
974 2 51.5628 16.003 16.1062
975 2 55.6617 15.635 16.2169
976 2 59.4382 19.6648 16.3196
977 2 3.80665 19.7788 16.2345
978 2 7.97627 19.6595 16.3918
979 2 12.0404 19.8436 16.3801
980 2 16.138 19.7012 16.098
981 2 19.827 19.6289 16.1573
982 2 24.0794 19.7078 16.2848
983 2 27.9851 19.5518 16.1745
984 2 31.8397 19.7186 16.1889
985 2 35.9173 19.5755 16.1943
986 2 39.9093 19.8269 16.2694
987 2 43.7011 19.6077 16.2221
988 2 47.7424 19.8128 16.1039
989 2 51.6205 19.672 16.2175
990 2 55.4275 19.6371 16.3309
991 2 0.0718833 23.833 16.2694