ITEM: TIMESTEP
43100
ITEM: NUMBER OF ATOMS
28125
ITEM: BOX BOUNDS xy xz yz pp pp pp
0.0000000000000000e+00 5.9369999999999997e+01 0.0000000000000000e+00
0.0000000000000000e+00 5.9369999999999997e+01 0.0000000000000000e+00
1.0626010737109937e-01 9.9393739892628631e+01 0.0000000000000000e+00
ITEM: ATOMS id type x y z
1 2 59.5585 59.0709 0.344063
2 2 4.05734 59.4559 0.362315
3 2 8.04825 59.2693 0.482295
4 2 11.8761 59.2239 0.460516
5 2 15.6975 59.3339 0.332721
6 2 19.5893 59.1475 0.529739
7 2 23.89 59.2049 0.435775
8 2 27.7989 59.3144 0.39377
9 2 31.6233 59.3524 0.491757
10 2 35.5402 59.3211 0.594687
11 2 39.5193 59.2034 0.309974
12 2 43.3845 59.0401 0.215303
13 2 47.3517 59.0717 0.539214
14 2 51.3782 -0.212287 0.327964
15 2 55.4707 59.1694 0.341573
16 2 59.4118 3.85121 0.479011
17 2 4.11419 3.93428 0.45668
18 2 8.00607 4.00356 0.313136
19 2 11.7877 3.75897 0.261142
20 2 15.8274 3.88499 0.352218
21 2 19.7133 3.76007 0.380293
22 2 23.8435 3.79367 0.466029
23 2 27.6841 3.73687 0.335393
24 2 31.675 3.74887 0.497396
25 2 35.5887 3.86716 0.290544
26 2 39.4882 3.68258 0.420553
27 2 43.4795 3.76836 0.264461
28 2 47.4457 3.72819 0.289119
29 2 51.5367 3.67688 0.179533
30 2 55.5653 3.82243 0.390642
31 2 59.2935 7.72304 0.398381
32 2 4.06491 7.98597 0.54501
33 2 8.1666 7.71796 0.47139
34 2 11.9428 7.81288 0.310544
35 2 15.7567 7.7004 0.390416
36 2 19.7939 7.90486 0.450771
37 2 23.7694 7.4893 0.33176
38 2 27.7541 7.8835 0.246997
39 2 31.7075 7.79085 0.488615
40 2 35.6266 7.87011 0.522535
41 2 39.5338 7.78917 0.50304
42 2 43.4474 7.75931 0.207007
43 2 47.4856 7.69536 0.357493
44 2 51.4153 7.85614 0.347155
45 2 55.2177 7.87138 0.430317
46 2 59.3626 11.6223 0.230623
47 2 3.94186 11.7341 0.326007
48 2 7.97107 11.5477 0.274274
49 2 11.9482 11.8141 0.414141
50 2 15.6718 11.8641 0.173182
51 2 19.6768 11.7134 0.348837
52 2 23.7431 11.7259 0.541984
53 2 27.6695 11.8804 0.388172
54 2 31.5961 11.7207 0.303164
55 2 35.7117 11.8424 0.414043
56 2 39.4718 11.7292 0.390269
57 2 43.3311 11.9508 0.426589
58 2 47.6233 11.6175 0.40022
59 2 51.516 11.7076 0.36414
60 2 55.3162 11.8673 0.177484
61 2 -0.109684 15.4927 0.378518
62 2 3.87035 15.7534 0.445854
63 2 7.98058 15.4556 0.369642
64 2 12.0016 15.7212 0.163615
65 2 15.8275 15.6271 0.434066
66 2 19.4381 15.6663 0.439611
67 2 23.6363 15.6877 0.442518
68 2 27.8104 15.7742 0.389941
69 2 31.6374 15.7387 0.453628
70 2 35.5275 15.5442 0.320792
71 2 39.5224 15.7265 0.403331
72 2 43.5649 15.7324 0.34979
73 2 47.3611 15.4771 0.242771
74 2 51.4955 15.6944 0.259625
75 2 55.3674 15.834 0.372862
76 2 59.1606 19.5767 0.335764
77 2 3.87608 19.4796 0.498742
78 2 8.02734 19.5793 0.387256
79 2 11.9051 19.5319 0.374235
80 2 15.7841 19.5131 0.353245
81 2 19.6722 19.5988 0.396579
82 2 23.7164 19.4786 0.388074
83 2 27.833 19.6689 0.299015
84 2 31.7572 19.8203 0.293554
85 2 35.6528 19.5949 0.387152
86 2 39.5798 19.6367 0.194714
87 2 43.4231 19.7568 0.545792
88 2 47.3763 19.699 0.489422
89 2 51.4255 19.5683 0.354568
90 2 55.2157 19.6456 0.316083
91 2 59.0695 23.5932 0.168772
92 2 3.89538 23.4198 0.304392
93 2 7.73912 23.5945 0.411241
94 2 11.7567 23.5408 0.350488
95 2 15.8537 23.5463 0.458823
96 2 19.6861 23.4334 0.25815
97 2 23.701 23.3427 0.210986
98 2 27.645 23.6254 0.356169
99 2 31.8392 23.7619 0.384005
100 2 35.419 23.6077 0.365246
101 2 39.5205 23.8721 0.288333
102 2 43.6235 23.7235 0.364981
103 2 47.7322 23.764 0.434033
104 2 51.5412 23.6191 0.280141
105 2 55.4475 23.4662 0.345132
106 2 59.4306 27.4415 0.130831
107 2 3.96561 27.3219 0.32135
108 2 7.99677 27.5091 0.305927
109 2 12.0018 27.4577 0.297448
110 2 15.6994 27.4574 0.422901
111 2 19.6471 27.5826 0.382845
112 2 23.6075 27.5979 0.265345
113 2 27.7777 27.5473 0.410474
114 2 31.6808 27.6606 0.299829
115 2 35.7424 27.5683 0.358128
116 2 39.7051 27.5765 0.391071
117 2 43.6512 27.4295 0.181455
118 2 47.5174 27.6129 0.201271
119 2 51.6786 27.3934 0.196633
120 2 55.5126 27.3964 0.153098
121 2 0.00615359 31.2836 0.218534
122 2 4.15571 31.4033 0.342846
123 2 7.88861 31.4665 0.361924
124 2 11.8282 31.3175 0.230372
125 2 15.9075 31.4241 0.203977
126 2 19.8013 31.4566 0.319467
127 2 23.4819 31.5625 0.29693
128 2 27.6202 31.4823 0.426361
129 2 31.8259 31.5579 0.313319
130 2 35.5567 31.6199 0.20659
131 2 39.6972 31.4357 0.502536
132 2 43.4142 31.315 0.315927
133 2 47.6641 31.4707 -0.0116656
134 2 51.6001 31.603 0.232015
135 2 55.4611 31.2885 0.160927
136 2 59.2519 35.3442 0.310794
137 2 3.86405 35.2508 0.229527
138 2 8.00337 35.2888 0.26804
139 2 11.9068 35.4212 0.19864
140 2 15.8451 35.298 0.151647
141 2 19.9408 35.4318 0.305256
142 2 23.8623 35.5271 0.217285
143 2 27.521 35.3732 0.442174
144 2 31.592 35.3016 0.409593
145 2 35.6956 35.4327 0.334177
146 2 39.651 35.512 0.331765
147 2 43.737 35.412 0.240906
148 2 47.5547 35.3743 0.254129
149 2 51.5274 35.4198 0.337975
150 2 55.3096 35.29 0.231556
151 2 59.3097 39.3538 0.221745
152 2 3.67321 39.2564 0.324876
153 2 7.81502 39.2907 0.106614
154 2 11.8293 39.2667 0.340127
155 2 15.7957 39.3025 0.515194
156 2 19.8374 39.6122 0.335231
157 2 23.6255 39.3385 0.240858
158 2 27.6635 39.4501 0.265365
159 2 31.7874 39.4478 0.429239
160 2 35.8399 39.6176 0.338092
161 2 39.6214 39.3587 0.527998
162 2 43.5164 39.5049 0.474432
163 2 47.5485 39.4366 0.0386732
164 2 51.4893 39.1474 0.332444
165 2 55.3727 39.2939 0.535239
166 2 0.101687 43.4129 0.324138
167 2 3.94373 43.2046 0.340473
168 2 7.74837 43.3309 0.272076
169 2 11.8646 43.1619 0.378971
170 2 15.8913 43.3472 0.501383
171 2 19.6703 43.4209 0.367459
172 2 23.8447 43.3625 0.307547
173 2 27.5557 43.3006 0.519946
174 2 31.4344 43.3022 0.364653
175 2 35.5445 43.5046 0.429153
176 2 39.5561 43.5236 99.7686
177 2 43.6368 43.3769 0.260672
178 2 47.6396 43.2555 0.165645
179 2 51.4576 43.2652 0.0857212
180 2 55.2567 43.3981 0.407286
181 2 0.0867748 47.3039 0.245141
182 2 3.85758 47.2802 0.31904
183 2 7.90001 47.3502 0.370819
184 2 11.8575 47.1219 0.322859
185 2 15.7779 47.4831 0.424529
186 2 19.6297 47.4959 0.455577
187 2 23.5094 47.2909 0.4727
188 2 27.587 47.4873 0.283475
189 2 31.7169 47.3347 0.385077
190 2 35.6473 47.2664 0.452579
191 2 39.4172 47.366 0.505288
192 2 43.5286 47.149 0.188396
193 2 47.3086 47.5078 0.239824
194 2 51.3795 47.4832 0.325742
195 2 55.5417 47.3104 0.19778
196 2 0.0237237 51.3882 0.386193
197 2 3.93611 51.3931 0.250166
198 2 7.86149 51.3371 0.371164
199 2 11.689 51.2305 0.327467
200 2 15.7239 51.3855 0.35685
201 2 19.9382 51.3074 0.49314
202 2 23.6178 51.3442 0.477785
203 2 27.5487 51.4021 0.410654
204 2 31.4429 51.3703 0.516229
205 2 35.6275 51.3484 0.36055
206 2 39.4913 51.5878 0.566029
207 2 43.4462 51.3991 0.254913
208 2 47.412 51.3239 0.538725
209 2 51.496 51.2788 0.217614
210 2 55.3477 51.201 0.505419
211 2 59.3878 55.4257 0.427924
212 2 4.11046 55.223 0.35068
213 2 7.93816 55.2723 0.36257
214 2 11.7874 55.0904 0.350724
215 2 15.703 55.1149 0.380986
216 2 19.7919 55.3452 0.236734
217 2 23.5449 55.3288 0.350638
218 2 27.5889 55.2884 0.488645
219 2 31.452 55.3235 0.561851
220 2 35.4461 55.3663 0.492132
221 2 39.2902 55.5396 0.57397
222 2 43.3009 55.1627 0.525597
223 2 47.3803 55.1771 0.453951
224 2 51.3811 55.1253 0.107877
225 2 55.5592 55.3108 0.45106
226 2 -0.135503 59.2687 4.46997
227 2 3.77494 59.3687 4.35498
228 2 7.81641 59.2468 4.34219
229 2 11.8663 59.0406 4.40275
230 2 15.882 59.2065 4.41569
231 2 19.7601 59.1107 4.41986
232 2 23.7761 59.2905 4.57034
233 2 27.7747 59.3655 4.31803
234 2 31.712 59.2232 4.38743
235 2 35.5636 59.2313 4.65163
236 2 39.4263 59.2043 4.34873
237 2 43.6614 59.1982 4.32154
238 2 47.5662 59.2619 4.30174
239 2 51.4573 59.3537 4.15905
240 2 55.4652 59.0691 4.33086
241 2 59.4529 3.67206 4.48024
242 2 4.09108 3.73771 4.37551
243 2 7.78001 3.69694 4.35957
244 2 11.7751 3.6516 4.30193
245 2 15.6854 3.5395 4.30093
246 2 19.7784 3.68142 4.48538
247 2 23.6946 3.97041 4.31112
248 2 27.6809 3.78214 4.3223
249 2 31.5941 3.80173 4.54635
250 2 35.4618 4.05471 4.56459
251 2 39.6085 3.67566 4.36057
252 2 43.5474 3.80529 4.36197
253 2 47.479 3.74196 4.32286
254 2 51.695 3.79672 4.15145
255 2 55.5726 3.63555 4.22643
256 2 59.3451 7.83766 4.40944
257 2 3.85544 7.87673 4.40549
258 2 7.81047 7.96537 4.15947
259 2 12.1645 7.89027 4.29477
260 2 16.015 7.63721 4.27967
261 2 19.8142 7.8304 4.3515
262 2 23.9288 7.88924 4.31747
263 2 27.7107 7.9084 4.15545
264 2 31.5978 7.82609 4.46758
265 2 35.7244 7.69021 4.34143
266 2 39.5203 7.95209 4.51088
267 2 43.5116 7.91944 4.23846
268 2 47.4983 7.68339 4.41319
269 2 51.4856 7.60711 4.16723
270 2 55.3159 7.59842 4.22741
271 2 59.3364 11.5313 4.1573
272 2 3.93728 11.6962 4.37231
273 2 7.99492 11.8829 4.30722
274 2 11.9034 11.906 4.45455
275 2 15.9899 11.6966 4.42183
276 2 19.8711 11.7113 4.37512
277 2 23.9445 11.8391 4.33491
278 2 27.8719 11.8228 4.29289
279 2 31.6421 11.7365 4.36654
280 2 35.5188 11.868 4.40048
281 2 39.5576 11.7042 4.26729
282 2 43.5061 11.6548 4.29788
283 2 47.5577 11.6936 4.46409
284 2 51.6584 11.6435 4.39095
285 2 55.4069 11.6836 4.37941
286 2 59.539 15.6121 4.38612
287 2 4.1062 15.5716 4.33368
288 2 7.87583 15.6743 4.32603
289 2 11.9154 15.7369 4.25255
290 2 15.7392 15.8453 4.34712
291 2 19.8979 15.6543 4.33203
292 2 23.9491 15.7237 4.3869
293 2 27.6154 15.866 4.31548
294 2 31.7356 15.8735 4.37744
295 2 35.4915 15.6648 4.44819
296 2 39.385 15.819 4.32021
297 2 43.3785 15.6762 4.39551
298 2 47.7471 15.6276 4.24016
299 2 51.6252 15.6364 4.18804
300 2 55.6685 15.5677 4.29628
301 2 59.6865 19.6307 4.33487
302 2 4.26092 19.6508 4.39046
303 2 8.00215 19.5456 4.23861
304 2 11.9784 19.5506 4.2367
305 2 15.7253 19.8075 4.37199
306 2 19.8681 19.807 4.57187
307 2 23.7518 19.4932 4.43434
308 2 27.6369 19.842 4.21152
309 2 31.7279 19.991 4.3334
310 2 35.7222 19.6907 4.23809
311 2 39.5668 19.5387 4.22192
312 2 43.5677 19.5722 4.45955
313 2 47.5592 19.5164 4.31541
314 2 51.5943 19.6782 4.3425
315 2 55.5856 19.5313 4.41328
316 2 59.446 23.5183 4.23064
317 2 3.82094 23.6417 4.24673
318 2 7.86722 23.6813 4.16065
319 2 11.7822 23.5102 4.39604
320 2 15.6803 23.6582 4.45672
321 2 19.9712 23.5667 4.38509
322 2 23.8855 23.5264 4.36939
323 2 27.7559 23.7019 4.37804
324 2 31.6554 23.5476 4.49194
325 2 35.7687 23.7176 4.34599
326 2 39.5199 23.7099 4.23841
327 2 43.6615 23.417 4.21314
328 2 47.5877 23.5381 4.32366
329 2 51.4832 23.4225 4.37825
330 2 55.4731 23.4808 4.26328
331 2 59.3623 27.4914 4.24589
332 2 3.94928 27.8393 4.30581
333 2 7.70303 27.5531 4.2487
334 2 11.6817 27.5897 4.33952
335 2 15.7729 27.5818 4.37687
336 2 19.8127 27.4606 4.0247
337 2 23.673 27.4294 4.29251
338 2 27.7059 27.4311 4.24243
339 2 31.7976 27.4758 4.18061
340 2 35.648 27.5664 4.33276
341 2 39.7426 27.621 4.22796
342 2 43.7396 27.4725 4.36389
343 2 47.6041 27.5408 4.22225
344 2 51.6881 27.5752 4.38526
345 2 55.5289 27.4599 4.35544
346 2 -0.173562 31.3794 4.10654
347 2 3.99401 31.4823 4.38577
348 2 8.01128 31.5368 4.38387
349 2 11.7408 31.3582 4.26987
350 2 15.899 31.3065 4.2399
351 2 19.7634 31.4984 4.41839
352 2 23.6212 31.3565 4.43145
353 2 27.6244 31.2675 4.32643
354 2 31.788 31.4529 4.39055
355 2 35.8102 31.4715 4.27057
356 2 39.8213 31.5767 4.31278
357 2 43.7971 31.55 4.21821
358 2 47.7546 31.3889 4.13637
359 2 51.4749 31.3441 4.18268
360 2 55.3899 31.3438 4.15643
361 2 0.142096 35.522 4.30611
362 2 3.906 35.2463 4.19704
363 2 7.94657 35.5169 4.25192
364 2 11.8816 35.4055 4.09628
365 2 15.9035 35.2102 4.08076
366 2 19.7771 35.5424 4.34789
367 2 23.7841 35.62 4.29551
368 2 27.6318 35.2388 4.08758
369 2 31.8612 35.4065 4.25905
370 2 35.7156 35.4514 4.43271
371 2 39.6358 35.3871 4.35873
372 2 43.7298 35.5255 4.13257
373 2 47.6086 35.4586 4.35998
374 2 51.559 35.3778 4.42005
375 2 55.4164 35.4166 4.34185
376 2 -0.00476899 39.2134 4.16209
377 2 4.00041 39.2514 4.10037
378 2 7.69488 39.1796 4.3083
379 2 11.8412 39.2278 4.14271
380 2 15.8821 39.4714 4.2061
381 2 19.7001 39.3781 4.56507
382 2 23.8035 39.5329 4.34242
383 2 27.8778 39.1712 4.10903
384 2 31.8093 39.1726 4.32205
385 2 35.6122 39.2759 4.41372
386 2 39.5331 39.4236 4.49828
387 2 43.5802 39.4491 4.27826
388 2 47.4962 39.2793 4.30347
389 2 51.475 39.426 4.28722
390 2 55.3115 39.2881 4.10613
391 2 -0.0123062 43.2312 4.20884
392 2 3.9397 43.4009 4.30185
393 2 7.93491 43.3137 4.29377
394 2 11.7611 43.1546 4.36118
395 2 15.7103 43.5436 4.19221
396 2 19.8101 43.3763 4.47051
397 2 23.8086 43.404 4.41652
398 2 27.5639 43.2598 4.19622
399 2 31.6989 43.272 4.28147
400 2 35.5335 43.3886 4.38276
401 2 39.5418 43.2897 4.16215
402 2 43.4774 43.4954 4.14948
403 2 47.7521 43.3426 4.24062
404 2 51.4036 43.3445 4.15114
405 2 55.4941 43.2805 4.29425
406 2 59.4685 47.2904 4.19145
407 2 3.99418 47.3764 4.43237
408 2 7.77052 47.3199 4.44621
409 2 11.6055 47.2498 4.32346
410 2 15.8225 47.3366 4.10663
411 2 19.7608 47.4481 4.21182
412 2 23.8126 47.153 4.38738
413 2 27.7124 47.3374 4.24134
414 2 31.6266 47.3549 4.45809
415 2 35.7538 47.3441 4.50395
416 2 39.7669 47.2088 4.28761
417 2 43.5078 47.404 4.22257
418 2 47.5077 47.2401 4.17513
419 2 51.4371 47.2085 4.31378
420 2 55.5149 47.3328 4.18375
421 2 0.145129 51.2668 4.06851
422 2 3.736 51.205 4.26295
423 2 7.70057 51.2275 4.41965
424 2 11.768 51.3101 4.43912
425 2 15.6742 51.3266 4.30573
426 2 19.7317 51.1334 4.40155
427 2 23.9638 51.2231 4.24698
428 2 27.7143 51.2082 4.19744
429 2 31.6314 51.2116 4.36811
430 2 35.6105 51.2323 4.4983
431 2 39.4185 51.1331 4.45392
432 2 43.4654 51.2247 4.36903
433 2 47.4362 51.3801 4.44641
434 2 51.4223 51.262 4.10786
435 2 55.4614 51.3688 4.40471
436 2 0.158949 55.2839 4.35605
437 2 3.94656 55.3436 4.46891
438 2 8.01636 55.4089 4.40008
439 2 11.8398 55.0904 4.30524
440 2 15.8797 55.3255 4.38379
441 2 19.6489 55.2495 4.28094
442 2 23.5946 55.1543 4.469
443 2 27.5185 55.2245 4.44698
444 2 31.5519 55.1965 4.45581
445 2 35.4798 55.3152 4.47303
446 2 39.5224 55.1646 4.66538
447 2 43.3326 55.1641 4.57261
448 2 47.386 55.1183 4.31146
449 2 51.2898 55.2303 4.08536
450 2 55.4771 55.2317 4.37665
451 2 -0.0163624 59.3109 8.25404
452 2 3.94039 59.2853 8.33536
453 2 8.01022 59.3043 8.41192
454 2 11.6163 59.2102 8.3107
455 2 15.8365 59.3663 8.36214
456 2 19.8463 59.2782 8.49495
457 2 23.6868 59.4295 8.43836
458 2 27.6379 59.2641 8.46201
459 2 31.5582 -0.249565 8.44425
460 2 35.5297 59.2205 8.39317
461 2 39.5519 59.2116 8.40411
462 2 43.4872 59.2203 8.24572
463 2 47.7837 59.3088 8.28044
464 2 51.6447 -0.285052 8.17433
465 2 55.5478 59.0554 8.39366
466 2 -0.0465732 3.94135 8.31962
467 2 4.10762 3.82277 8.45944
468 2 8.01914 3.89964 8.30223
469 2 11.7724 3.93514 8.4096
470 2 16.048 3.65246 8.25872
471 2 19.8794 3.79624 8.2983
472 2 23.7813 3.89812 8.35592
473 2 27.5627 3.73795 8.2697
474 2 31.6948 3.8696 8.4849
475 2 35.5505 3.71152 8.45766
476 2 39.6671 3.77291 8.40134
477 2 43.6671 3.71565 8.25764
478 2 47.6841 3.67217 8.22075
479 2 51.6616 3.74337 8.18887
480 2 55.4281 3.92723 8.36158
481 2 0.0621143 7.77026 8.30054
482 2 3.9973 7.76354 8.14492
483 2 8.07021 7.75504 7.99538
484 2 12.071 7.74234 8.27869
485 2 15.7421 7.66719 8.30449
486 2 19.8043 7.67078 8.21423
487 2 23.92 7.79741 8.26288
488 2 27.6482 7.9355 8.47654
489 2 31.5037 7.75459 8.48571
490 2 35.5562 7.79343 8.42926
491 2 39.7675 7.68029 8.29428
492 2 43.4818 7.59289 8.23638
493 2 47.3655 7.57471 8.29007
494 2 51.4796 7.73486 8.17855
495 2 55.4061 7.99033 8.33782
496 2 0.167514 11.7555 8.39615
497 2 4.08973 11.7121 8.44035
498 2 7.90243 11.6124 8.18892
499 2 11.9663 11.929 8.24686
500 2 16.0453 11.7208 8.15542
501 2 19.9772 11.8004 8.08174
502 2 23.5121 11.7998 8.43454
503 2 27.7967 11.7129 8.17481
504 2 31.3336 11.7429 8.12865
505 2 35.4715 11.6092 8.27302
506 2 39.8662 11.7124 8.28724
507 2 43.7539 11.8468 8.30832
508 2 47.5141 11.8711 8.41093
509 2 51.432 11.5996 8.18519
510 2 55.4823 11.8434 8.32735
511 2 0.0967419 15.7799 8.30537
512 2 3.97489 15.7701 8.25585
513 2 7.91147 15.8068 8.40073
514 2 11.6603 15.6242 8.20944
515 2 15.7634 15.5905 8.46791
516 2 19.8526 15.6914 8.3283
517 2 23.6978 15.6592 8.38579
518 2 27.7272 15.7341 8.17876
519 2 31.8555 15.7411 8.38553
520 2 35.576 15.6883 8.20436
521 2 39.7302 15.6056 8.13552
522 2 43.6762 15.9068 8.17115
523 2 47.6747 15.701 8.16196
524 2 51.4376 15.7116 8.39047
525 2 55.3942 15.7239 8.30471
526 2 0.220168 19.6397 8.3213
527 2 3.80139 19.6486 8.40997
528 2 7.8726 19.7349 8.25155
529 2 11.7859 19.4622 8.4715
530 2 15.8079 19.666 8.47421
531 2 19.7408 19.5884 8.30923
532 2 23.6336 19.6477 8.52643
533 2 27.6563 19.4204 8.33959
534 2 31.7572 19.586 8.37365
535 2 35.7182 19.6452 8.46171
536 2 39.8137 19.9471 8.23882
537 2 43.7424 19.4948 8.42279
538 2 47.6112 19.7365 8.3163
539 2 51.6666 19.4975 8.21207
540 2 55.7403 19.7999 8.15906
541 2 0.0219907 23.6946 8.53123
542 2 4.00982 23.6623 8.38827
543 2 8.06021 23.4678 8.34732
544 2 11.8854 23.5688 8.5107
545 2 15.6683 23.5941 8.34287
546 2 19.7729 23.7677 8.26655
547 2 23.7452 23.4889 8.43282
548 2 27.6893 23.4902 8.51822
549 2 31.8242 23.5624 8.26182
550 2 35.8908 23.7027 8.00699
551 2 39.6912 23.8346 8.34144
552 2 43.614 23.5827 8.2437
553 2 47.6298 23.5781 8.32821
554 2 51.4472 23.6189 8.35764
555 2 55.4234 23.5221 8.34682
556 2 0.0797367 27.3282 8.15126
557 2 4.01472 27.796 8.16691
558 2 7.91883 27.5414 8.26242
559 2 11.877 27.3713 8.26298
560 2 15.7831 27.3439 8.47834
561 2 19.7423 27.5378 8.32519
562 2 23.6507 27.6394 8.36716
563 2 27.646 27.5562 8.20106
564 2 31.572 27.5873 8.38186
565 2 35.8301 27.5929 8.23256
566 2 39.8036 27.6204 8.19069
567 2 43.6009 27.6005 8.27365
568 2 47.4775 27.3923 8.27753
569 2 51.6694 27.5451 8.40481
570 2 55.4954 27.8632 8.09328
571 2 -0.0169665 31.74 8.26243
572 2 4.01993 31.6807 8.42409
573 2 7.9955 31.6001 8.45572
574 2 11.9572 31.3508 8.23629
575 2 15.9788 31.3865 8.44231
576 2 19.944 31.6831 8.3212
577 2 23.648 31.5287 8.38577
578 2 27.8523 31.6056 8.10773
579 2 31.6913 31.5105 8.34155
580 2 35.7891 31.444 8.18559
581 2 39.6017 31.6702 8.29837
582 2 43.5586 31.6405 8.38398
583 2 47.5619 31.3373 8.12072
584 2 51.4444 31.536 8.34441
585 2 55.545 31.6554 8.25845
586 2 0.207991 35.5563 8.16505
587 2 3.96595 35.4901 8.27256
588 2 8.21417 35.4082 8.30728
589 2 12.1012 35.3993 8.12538
590 2 15.9812 35.2291 8.29325
591 2 19.7542 35.5015 8.16114
592 2 23.7411 35.5335 8.22722
593 2 27.8102 35.2895 8.18862
594 2 31.8764 35.341 8.21428
595 2 35.7 35.2906 8.2502
596 2 39.4934 35.2914 8.25785
597 2 43.6576 35.4432 8.24565
598 2 47.6541 35.3208 8.34634
599 2 51.5414 35.4242 8.44091
600 2 55.5464 35.4397 8.07952
601 2 0.0621007 39.4957 8.20205
602 2 3.89444 39.3463 8.24973
603 2 7.98815 39.431 8.26672
604 2 11.929 39.1971 8.31876
605 2 15.7509 39.2703 8.281
606 2 19.9123 39.403 8.35269
607 2 23.9804 39.3378 8.36629
608 2 27.7156 39.1739 8.15139
609 2 31.6141 39.2445 8.11981
610 2 35.7437 39.4711 8.3768
611 2 39.5441 39.3764 8.19047
612 2 43.5093 39.4754 8.49955
613 2 47.6396 39.622 8.28722
614 2 51.6912 39.4175 8.40537
615 2 55.5063 39.4775 8.23429
616 2 -0.0620854 43.3335 8.22895
617 2 3.96928 43.0804 8.25261
618 2 7.82743 43.2618 8.22945
619 2 11.8649 43.3698 8.26662
620 2 15.6333 43.3688 8.17446
621 2 19.6789 43.1937 8.34237
622 2 23.8538 43.2515 8.1487
623 2 27.8137 43.184 8.20502
624 2 31.7187 43.4432 8.40558
625 2 35.661 43.3113 8.23227
626 2 39.74 43.4152 8.28776
627 2 43.5049 43.4025 8.32659
628 2 47.4191 43.4018 8.4578
629 2 51.5601 43.4206 8.1344
630 2 55.6631 43.4305 8.22667
631 2 0.128194 47.3111 8.3214
632 2 3.96963 47.1506 8.289
633 2 8.01006 47.25 8.3609
634 2 11.8266 47.128 8.40846
635 2 15.7059 47.2975 8.01428
636 2 19.7225 47.2692 8.35225
637 2 23.798 47.4632 8.15865
638 2 27.7842 47.3473 8.37996
639 2 31.6594 47.3703 8.32349
640 2 35.6027 47.0814 8.45486
641 2 39.3678 47.4272 8.30345
642 2 43.5604 47.2088 8.30014
643 2 47.4318 47.0807 8.25101
644 2 51.381 47.1846 8.26811
645 2 55.5628 47.415 8.36596
646 2 0.149608 51.0321 8.35027
647 2 4.06078 51.2884 8.4062
648 2 8.02345 51.2541 8.53212
649 2 11.9377 51.3437 8.27946
650 2 15.8861 51.0973 8.33857
651 2 19.9492 51.1509 8.24935
652 2 23.6381 51.3141 8.467
653 2 27.6828 51.319 8.39644
654 2 31.7734 51.3397 8.39874
655 2 35.7352 51.122 8.40459
656 2 39.608 51.5123 8.53896
657 2 43.6253 51.2899 8.29163
658 2 47.5951 51.1592 8.19817
659 2 51.4647 51.2204 8.32042
660 2 55.3821 51.2732 8.07784
661 2 -0.130846 55.182 8.33854
662 2 3.91045 55.2152 8.3422
663 2 8.01194 55.2024 8.22476
664 2 11.8775 55.2846 8.20524
665 2 15.8497 55.1491 8.35661
666 2 19.6476 55.2537 8.40418
667 2 23.5736 55.1823 8.5124
668 2 27.6686 55.2846 8.46441
669 2 31.4744 55.2973 8.53361
670 2 35.4861 55.2409 8.48475
671 2 39.5142 55.2267 8.42657
672 2 43.6112 55.2626 8.41269
673 2 47.6349 55.3817 8.098
674 2 51.6624 55.1491 8.32929
675 2 55.3922 55.2193 8.47274
676 2 0.135771 59.3279 12.2029
677 2 4.19636 59.3471 12.1977
678 2 7.89633 59.0665 12.354
679 2 11.9564 59.0964 12.2141
680 2 15.8908 59.1041 12.1216
681 2 19.7332 59.1963 12.4828
682 2 23.8587 59.14 12.3962
683 2 27.5995 59.1689 12.4783
684 2 31.499 59.2569 12.33
685 2 35.6644 59.3095 12.2981
686 2 39.6439 59.2474 12.2043
687 2 43.8834 59.3514 12.1264
688 2 47.7645 59.2576 12.2484
689 2 51.5548 59.3172 12.3056
690 2 55.5078 59.3455 12.2817
691 2 0.0830129 3.91373 12.1611
692 2 4.11417 4.03582 12.2856
693 2 7.87268 3.90771 12.2604
694 2 12.0888 3.90231 12.4543
695 2 16.1666 3.72948 12.3244
696 2 19.8949 3.78966 12.2697
697 2 23.799 3.82159 12.4616
698 2 27.6493 3.78308 12.4336
699 2 31.6966 3.85237 12.6362
700 2 35.7464 4.01644 12.3775
701 2 39.7821 4.05026 12.314
702 2 43.9291 3.89896 12.3131
703 2 47.7464 3.90086 12.2413
704 2 51.3842 4.0293 12.1951
705 2 55.324 3.78399 12.2421
706 2 0.0636406 7.92628 12.3942
707 2 4.05467 7.86153 12.3237
708 2 8.0534 8.05382 12.3586
709 2 12.0874 7.9721 12.2896
710 2 15.9256 7.81292 12.3091
711 2 19.997 7.69137 12.2759
712 2 23.756 7.66091 12.224
713 2 27.8049 7.71088 12.2228
714 2 31.6444 7.80127 12.3337
715 2 35.482 8.16312 12.2349
716 2 39.587 7.95682 12.3181
717 2 43.6761 7.81156 12.026
718 2 47.5133 7.94633 12.2722
719 2 51.6166 8.00535 12.171
720 2 55.5883 7.99806 12.2269
721 2 0.174627 11.8318 12.2416
722 2 4.22355 11.8515 12.3295
723 2 8.08448 11.6784 12.0732
724 2 11.8446 11.8653 12.2923
725 2 15.9651 11.6247 11.9289
726 2 19.9464 11.5248 12.3282
727 2 23.8906 11.8962 12.3484
728 2 27.627 11.5481 12.2527
729 2 31.5989 11.7416 12.4463
730 2 35.7203 11.7487 12.2501
731 2 39.7774 11.7768 12.2575
732 2 43.8437 11.7719 12.3313
733 2 47.5854 11.71 12.3958
734 2 51.5188 11.8593 12.1204
735 2 55.7628 11.8222 12.2891
736 2 -0.0019878 15.7356 12.3673
737 2 4.12167 15.7 12.3397
738 2 8.13852 15.7109 12.2162
739 2 11.9475 15.7199 12.4286
740 2 15.9963 15.7969 12.3858
741 2 19.8374 15.6064 12.4122
742 2 23.9288 15.6261 12.296
743 2 27.7208 15.6423 12.086
744 2 31.7992 15.6739 12.0293
745 2 35.6959 15.5822 12.1972
746 2 39.7265 15.626 12.1618
747 2 43.715 15.719 12.2149
748 2 47.6666 15.6699 12.2963
749 2 51.4867 15.6606 12.2993
750 2 55.4569 15.7687 12.268
751 2 0.202913 19.7645 12.4207
752 2 3.94485 19.7106 12.4617
753 2 7.851 19.5437 12.2574
754 2 11.8506 19.6935 12.4342
755 2 16.0782 19.5465 12.341
756 2 19.7201 19.6301 12.3977
757 2 23.6586 19.7616 12.2762
758 2 27.7441 19.5197 12.1741
759 2 31.8051 19.7179 12.2822
760 2 35.4809 19.6475 12.2735
761 2 39.7174 19.8101 12.1942
762 2 43.7425 19.6602 12.256
763 2 47.4837 19.8331 12.0903
764 2 51.4453 19.6195 12.1809
765 2 55.4741 19.533 12.228
766 2 59.3155 23.4618 12.4773
767 2 4.012 23.6639 12.3968
768 2 8.01472 23.5808 12.5856
769 2 11.8658 23.4991 12.425
770 2 15.9522 23.6752 12.1858
771 2 19.8905 23.5512 12.347
772 2 23.8918 23.4863 12.4673
773 2 27.868 23.6591 12.3987
774 2 31.7515 23.5975 12.2114
775 2 35.7996 23.6167 12.2072
776 2 39.8508 23.4675 12.2055
777 2 43.6005 23.7341 12.3817
778 2 47.6919 23.7008 12.2065
779 2 51.6207 23.6357 12.4297
780 2 55.6477 23.5512 12.4432
781 2 0.09066 27.6771 12.3035
782 2 4.03525 27.6802 12.3423
783 2 7.86958 27.5224 12.3264
784 2 12.0873 27.4022 12.1541
785 2 15.7955 27.4151 12.5308
786 2 19.8143 27.5448 12.384
787 2 23.8759 27.5684 12.3191
788 2 27.8185 27.6573 12.2396
789 2 31.7765 27.4692 12.286
790 2 35.6453 27.6646 12.3664
791 2 39.6515 27.2809 12.4074
792 2 43.6322 27.6292 12.2675
793 2 47.5761 27.5297 12.3045
794 2 51.4555 27.3999 12.1278
795 2 55.4806 27.5025 12.1171
796 2 -0.0904479 31.6132 12.3521
797 2 3.99615 31.544 12.304
798 2 7.88611 31.4821 12.3264
799 2 11.8966 31.5025 12.188
800 2 15.784 31.4871 12.2117
801 2 19.6213 31.2886 12.2832
802 2 23.6934 31.6377 12.2843
803 2 27.6402 31.4732 12.3651
804 2 31.7318 31.6575 12.2492
805 2 35.7697 31.7015 12.3469
806 2 39.8164 31.5895 12.2712
807 2 43.5271 31.4377 12.4909
808 2 47.4131 31.5537 12.2426
809 2 51.4276 31.4487 12.3296
810 2 55.4243 31.4773 12.0563
811 2 0.0374567 35.5681 12.3345
812 2 4.05298 35.5295 12.2097
813 2 8.01154 35.454 12.3165
814 2 11.9216 35.1289 12.2138
815 2 15.7615 35.5232 12.2803
816 2 19.8213 35.3653 12.1687
817 2 23.6526 35.3889 12.1707
818 2 27.862 35.5491 12.2776
819 2 31.8421 35.5782 12.3205
820 2 35.7205 35.5394 12.4133
821 2 39.6547 35.7604 12.2928
822 2 43.5304 35.4668 12.1968
823 2 47.8017 35.4335 12.1194
824 2 51.6196 35.3976 12.2399
825 2 55.3325 35.3448 12.126
826 2 -0.0203021 39.2207 12.1636
827 2 4.08846 39.4495 12.23
828 2 7.83265 39.4269 12.3338
829 2 11.9599 39.3538 12.2398
830 2 15.8524 39.3207 12.3693
831 2 20.0071 39.3784 12.21
832 2 23.8204 39.3303 12.3254
833 2 27.6223 39.4049 12.2888
834 2 31.4655 39.5408 12.3842
835 2 35.6738 39.3984 12.4525
836 2 39.6325 39.4839 12.0321
837 2 43.5492 39.3884 12.357
838 2 47.4373 39.5049 12.3436
839 2 51.4784 39.4933 12.3672
840 2 55.2675 39.2495 12.2452
841 2 -0.0865618 43.3302 12.309
842 2 3.94157 43.5724 12.3661
843 2 7.90479 43.277 12.1205
844 2 12.0858 43.3669 12.2439
845 2 15.8121 43.1856 12.1701
846 2 19.6848 43.1357 12.1234
847 2 23.6905 43.2737 12.1757
848 2 27.8971 43.1853 12.3057
849 2 31.7811 43.1707 12.1774
850 2 35.7162 43.2628 12.1224
851 2 39.6543 43.4317 12.1331
852 2 43.6504 43.5315 12.305
853 2 47.7326 43.4829 12.2319
854 2 51.5359 43.3933 12.2521
855 2 55.4235 43.2273 12.2923
856 2 0.151942 47.165 12.2213
857 2 3.99592 47.3465 12.2522
858 2 7.90976 47.1583 12.441
859 2 11.8886 47.2944 12.379
860 2 15.8611 47.3651 12.2605
861 2 19.6708 46.9874 12.2851
862 2 23.5842 47.0646 12.2024
863 2 27.7166 47.1345 12.2312
864 2 31.6216 47.1991 12.2252
865 2 35.7138 47.1928 12.4692
866 2 39.595 47.6343 12.3378
867 2 43.4268 47.5693 12.156
868 2 47.6227 47.4228 12.2272
869 2 51.5416 47.6204 12.2151
870 2 55.3835 47.3513 12.2345
871 2 -0.0264684 51.1873 12.3101
872 2 4.05932 51.2586 12.3423
873 2 8.04062 51.1225 12.2806
874 2 11.9331 51.1501 12.1707
875 2 15.8486 51.2397 12.5191
876 2 19.9217 51.195 12.327
877 2 23.8894 51.0773 12.156
878 2 27.7748 51.1795 12.2327
879 2 31.6685 51.2289 12.4246
880 2 35.5236 51.3836 12.2701
881 2 39.6714 51.4385 12.1979
882 2 43.5288 51.4116 12.2231
883 2 47.6553 51.3879 12.1924
884 2 51.5951 51.291 12.2613
885 2 55.6391 51.3384 12.0647
886 2 0.077172 55.4796 12.2937
887 2 4.0854 55.367 12.3665
888 2 8.0286 55.1737 12.329
889 2 12.0169 55.0266 12.2137
890 2 15.8538 55.202 12.4319
891 2 19.8385 55.233 12.4451
892 2 23.7916 55.1973 12.2194
893 2 27.7297 55.085 12.2025
894 2 31.6089 55.3056 12.4898
895 2 35.6058 55.3145 12.4797
896 2 39.4542 55.3766 12.3186
897 2 43.6324 55.1932 12.1729
898 2 47.4376 55.2036 11.9579
899 2 51.732 55.3192 12.292
900 2 55.6021 55.2925 12.4489
901 2 0.190826 59.3861 16.119
902 2 4.04218 59.2407 16.2467
903 2 8.15993 59.158 16.1807
904 2 11.848 59.3931 16.4085
905 2 15.8631 59.1983 16.2506
906 2 19.9367 59.169 16.3094
907 2 23.8115 59.2193 16.3193
908 2 27.6339 59.3739 16.3473
909 2 31.5709 -0.107969 16.3503
910 2 35.5613 59.3768 16.2093
911 2 39.7887 59.2998 15.8718
912 2 43.7763 59.3115 16.0788
913 2 47.4692 59.2554 16.2365
914 2 51.4399 59.5143 16.1499
915 2 55.5036 59.4434 16.2242
916 2 59.6024 3.7901 16.2612
917 2 3.95666 4.03255 16.3193
918 2 8.08014 4.00687 16.0255
919 2 12.0628 3.98045 16.2642
920 2 16.0334 4.02697 16.2188
921 2 19.9142 3.88712 16.2961
922 2 23.7601 3.81383 16.3486
923 2 27.7339 3.79418 16.2981
924 2 31.6268 3.66082 16.2989
925 2 35.6473 4.08496 16.1798
926 2 39.633 3.79567 16.131
927 2 43.6021 3.86845 16.1979
928 2 47.5073 4.11663 16.1559
929 2 51.5497 3.99932 16.1281
930 2 55.588 3.79779 16.2823
931 2 -0.217819 7.80734 16.2649
932 2 4.17647 7.95815 16.3923
933 2 8.15715 7.95207 16.1073
934 2 11.9577 7.85626 16.2954
935 2 16.0377 7.96879 16.3993
936 2 19.9163 7.73826 16.3848
937 2 23.7799 7.81434 16.3616
938 2 27.7858 7.78986 16.3215
939 2 31.7096 7.91029 16.4595
940 2 35.5605 7.71329 16.475
941 2 39.6679 7.67637 16.2841
942 2 43.7382 7.89594 16.2065
943 2 47.6795 7.90049 16.3359
944 2 51.8036 7.88708 16.1704
945 2 55.5274 7.64764 16.4478
946 2 0.211534 11.7106 16.3154
947 2 4.03375 12.0007 16.2172
948 2 8.07051 11.921 16.3173
949 2 12.0348 11.8179 15.9789
950 2 15.9662 11.7923 16.2581
951 2 19.7768 11.7773 16.4834
952 2 23.6807 11.6942 16.3741
953 2 27.9502 11.7461 16.2828
954 2 31.8062 11.9944 16.1324
955 2 35.7327 11.7687 16.3406
956 2 39.7665 11.7342 16.1345
957 2 43.8431 11.803 16.4338
958 2 47.737 11.9893 16.2365
959 2 51.6056 11.8679 16.3278
960 2 55.4701 11.8185 16.2362
961 2 0.0538779 15.864 16.2857
962 2 4.10133 15.7702 16.3536
963 2 8.06622 15.8231 16.4738
964 2 11.8433 15.6865 16.4809
965 2 15.8763 15.6193 16.2446
966 2 20.0227 15.6541 16.308
967 2 23.7784 15.7096 16.0994
968 2 27.8453 15.8405 16.1782
969 2 31.7062 15.8147 16.257
970 2 35.5703 15.8085 16.2241
971 2 39.6738 15.8508 16.1433
972 2 43.9071 15.8491 16.1478
973 2 47.6755 16.012 16.2961
974 2 51.603 15.698 16.305
975 2 55.8303 15.6108 16.3336
976 2 59.3204 19.6504 16.3778
977 2 3.88259 19.7826 16.4963
978 2 8.12363 19.7483 16.2339
979 2 12.0221 19.5519 16.3676
980 2 15.8434 19.5519 16.3394
981 2 19.8447 19.5429 16.2354
982 2 23.7799 19.6753 16.3071
983 2 27.8965 19.706 16.2166
984 2 31.8977 19.714 16.0705
985 2 35.8566 19.6868 16.2325
986 2 39.79 19.607 16.0804
987 2 43.7472 19.8514 16.322
988 2 47.6336 19.7263 16.2328
989 2 51.457 19.672 16.3736
990 2 55.4114 19.6681 16.536
991 2 0.024973 23.7437 16.1813
992 2 4.0233 23.666 16.4215