ITEM: TIMESTEP
46000
ITEM: NUMBER OF ATOMS
28125
ITEM: BOX BOUNDS xy xz yz pp pp pp
0.0000000000000000e+00 5.9369999999999997e+01 0.0000000000000000e+00
0.0000000000000000e+00 5.9369999999999997e+01 0.0000000000000000e+00
7.0672955591192022e-02 9.9429327044409206e+01 0.0000000000000000e+00
ITEM: ATOMS id type x y z
1 2 59.2927 59.1892 0.219218
2 2 3.82668 59.0481 0.303657
3 2 7.93031 59.1149 0.465755
4 2 11.9657 59.2198 0.45115
5 2 15.8477 59.371 0.511206
6 2 19.6624 59.3066 0.324429
7 2 23.8086 59.1812 0.34173
8 2 27.5463 58.9224 0.330832
9 2 31.4297 59.115 0.182968
10 2 35.4162 59.1262 0.299759
11 2 39.2806 59.0258 0.321556
12 2 43.4359 59.2001 0.385706
13 2 47.4697 59.2292 0.40268
14 2 51.379 -0.403843 0.281222
15 2 55.2617 59.1422 0.364461
16 2 59.1621 3.7643 0.259674
17 2 3.83111 3.72619 0.263947
18 2 7.77015 3.70498 0.37375
19 2 11.7071 3.7361 0.501727
20 2 15.6445 3.75524 0.407073
21 2 19.6152 3.89244 0.489818
22 2 23.7279 3.75337 0.425811
23 2 27.7424 3.64513 0.36113
24 2 31.6653 3.64853 0.323914
25 2 35.5044 3.74749 0.318606
26 2 39.1523 3.89128 0.357505
27 2 43.297 3.69073 0.406977
28 2 47.1842 3.67963 0.315182
29 2 51.2862 3.97424 0.315937
30 2 55.3776 3.81497 0.307033
31 2 59.1707 7.78675 0.485212
32 2 3.94306 7.74681 0.293412
33 2 7.80841 7.84673 0.288407
34 2 11.8389 7.67533 0.413816
35 2 15.7243 7.84534 0.501492
36 2 19.7151 7.68524 0.345895
37 2 23.5921 7.80862 0.448181
38 2 27.5972 7.61256 0.432125
39 2 31.6405 7.56297 0.274887
40 2 35.5417 7.78871 0.354655
41 2 39.533 7.76358 0.294093
42 2 43.427 7.89282 0.372746
43 2 47.2619 7.69983 0.352997
44 2 51.4517 7.88314 0.4094
45 2 55.3412 7.96602 0.293238
46 2 59.5157 11.6108 0.344729
47 2 3.89242 11.7198 0.420913
48 2 7.73556 11.5128 0.175244
49 2 11.7141 11.7113 0.345967
50 2 15.6665 11.7561 0.466103
51 2 19.6004 11.6812 0.672037
52 2 23.729 11.5632 0.399738
53 2 27.6758 11.6623 0.120984
54 2 31.6963 11.6524 0.182214
55 2 35.5961 11.7345 0.0677694
56 2 39.4952 11.7234 0.419827
57 2 43.4125 11.7292 0.171888
58 2 47.5132 11.788 0.460024
59 2 51.2701 11.9222 0.40606
60 2 55.3648 11.7179 0.310125
61 2 -0.0478338 15.6028 0.141246
62 2 3.92034 15.6257 0.370132
63 2 7.85517 15.7088 0.56663
64 2 11.5429 15.5818 0.272928
65 2 15.6861 15.5939 0.298768
66 2 19.8606 15.5199 0.420512
67 2 23.7698 15.3979 0.298275
68 2 27.6061 15.7219 0.331959
69 2 31.7097 15.6477 0.402794
70 2 35.5907 15.8109 0.476437
71 2 39.5809 15.6189 0.506556
72 2 43.3487 15.8827 0.606482
73 2 47.348 15.688 0.343078
74 2 51.4167 15.5745 0.360833
75 2 55.3234 15.5762 0.369942
76 2 59.3314 19.6055 0.434594
77 2 3.95255 19.6088 0.442346
78 2 8.05696 19.5934 0.402692
79 2 11.9249 19.7157 0.336793
80 2 15.7807 19.527 0.233061
81 2 19.6052 19.4449 0.290369
82 2 23.8038 19.5693 0.368144
83 2 27.5867 19.7234 0.342942
84 2 31.5737 19.6906 0.356438
85 2 35.7124 19.6837 0.455676
86 2 39.5655 19.7086 0.331409
87 2 43.3114 19.77 0.381323
88 2 47.4173 19.597 0.489033
89 2 51.4769 19.7615 0.382182
90 2 55.3638 19.7653 0.491369
91 2 59.4667 23.6334 0.280358
92 2 3.95158 23.3948 0.332491
93 2 7.97347 23.6342 0.319713
94 2 11.9186 23.6615 0.22298
95 2 15.9485 23.6559 0.372231
96 2 19.6355 23.5086 0.133091
97 2 23.5886 23.598 0.118739
98 2 27.7706 23.4922 0.300368
99 2 31.7267 23.5799 0.126431
100 2 35.751 23.7017 0.178138
101 2 39.6887 23.6282 0.291553
102 2 43.5262 23.6088 0.369091
103 2 47.5438 23.668 0.389983
104 2 51.4116 23.6352 0.335925
105 2 55.3972 23.6926 0.276647
106 2 59.4138 27.5784 0.202523
107 2 4.14808 27.7015 0.355601
108 2 8.16193 27.7015 0.35682
109 2 11.9725 27.6033 0.274997
110 2 15.9451 27.7051 0.24897
111 2 19.8057 27.3392 0.195315
112 2 23.7968 27.4803 0.27928
113 2 27.8206 27.3849 0.36228
114 2 31.9363 27.4831 0.35542
115 2 35.5653 27.4325 0.251743
116 2 39.6788 27.5244 0.367067
117 2 43.5385 27.5853 0.142424
118 2 47.5247 27.75 0.377202
119 2 51.3734 27.7326 0.264489
120 2 55.5084 27.7931 0.374706
121 2 0.0522413 31.7255 0.146133
122 2 4.06578 31.625 0.384605
123 2 7.87271 31.491 0.204191
124 2 11.8927 31.4025 0.204104
125 2 16.0372 31.6179 0.35914
126 2 19.904 31.514 0.331611
127 2 23.8205 31.4695 0.264806
128 2 27.6716 31.6808 0.339635
129 2 31.7018 31.5385 0.259567
130 2 35.5601 31.5261 0.445264
131 2 39.5441 31.5185 0.435463
132 2 43.5978 31.515 0.300827
133 2 47.4613 31.8887 0.342029
134 2 51.4079 31.5957 0.264164
135 2 55.4638 31.6659 0.280316
136 2 59.5745 35.5257 0.259847
137 2 4.29597 35.4279 0.380125
138 2 8.19995 35.4954 0.261258
139 2 11.9015 35.5109 0.367969
140 2 15.7739 35.302 0.0514269
141 2 19.9071 35.3683 0.3627
142 2 23.6267 35.5676 0.202131
143 2 27.5538 35.6077 0.366524
144 2 31.7152 35.3354 0.450487
145 2 35.7599 35.5668 0.291503
146 2 39.5126 35.438 0.217762
147 2 43.5172 35.5532 0.334209
148 2 47.3043 35.6151 0.257536
149 2 51.4724 35.7068 0.306552
150 2 55.2284 35.4777 0.204296
151 2 59.4618 39.4297 0.181888
152 2 4.0859 39.276 0.133386
153 2 7.99133 39.3592 0.296545
154 2 12.0541 39.4301 0.414154
155 2 15.9269 39.3651 0.185528
156 2 19.745 39.3011 0.198196
157 2 23.7467 39.3862 0.350192
158 2 27.6528 39.4182 0.0993483
159 2 31.7202 39.2638 0.300249
160 2 35.7728 39.278 0.363775
161 2 39.3871 39.3743 0.349449
162 2 43.3963 39.3582 0.30058
163 2 47.3066 39.4953 0.438784
164 2 51.589 39.5255 0.24691
165 2 55.4308 39.3867 0.244262
166 2 0.125041 43.5214 0.428029
167 2 4.05981 43.2954 0.28171
168 2 7.95982 43.2652 0.103337
169 2 11.9758 43.2808 0.250063
170 2 15.8691 43.2217 0.383166
171 2 20.0346 43.2924 0.176091
172 2 23.9392 43.3376 0.257441
173 2 27.8684 43.3224 0.395002
174 2 31.6247 43.5421 0.277308
175 2 35.5248 43.1756 0.23606
176 2 39.6844 43.2776 99.7295
177 2 43.4668 43.4474 0.47222
178 2 47.4365 43.2278 0.249995
179 2 51.4813 43.4603 0.317548
180 2 55.4286 43.3452 0.322624
181 2 0.0634734 47.3786 0.430164
182 2 4.0095 47.2786 0.400939
183 2 7.88087 47.297 0.366026
184 2 11.9608 47.3552 0.457177
185 2 15.8243 47.0424 0.332361
186 2 19.9009 47.3669 0.391387
187 2 23.9452 47.3453 0.290632
188 2 27.5911 46.9564 0.374132
189 2 31.7681 47.3743 0.28497
190 2 35.7143 47.2912 0.479403
191 2 39.8559 47.3445 0.2619
192 2 43.6745 47.3886 0.404067
193 2 47.4483 47.3257 0.30685
194 2 51.5479 47.4553 0.191826
195 2 55.5592 47.4454 0.150645
196 2 0.0773098 51.2961 0.239465
197 2 3.97901 51.195 0.300326
198 2 8.05812 51.3027 0.297264
199 2 11.946 51.239 0.348645
200 2 15.9094 51.2813 0.302711
201 2 20.0216 51.1998 0.0539709
202 2 23.8362 51.2134 0.253837
203 2 27.6218 51.2616 0.328936
204 2 31.5487 51.3009 0.468391
205 2 35.6028 51.1947 0.271938
206 2 39.6758 51.244 0.176747
207 2 43.646 51.2464 0.274686
208 2 47.4575 51.2645 0.407509
209 2 51.4979 51.2938 0.445924
210 2 55.4048 51.2033 0.242329
211 2 59.4021 55.1686 0.1837
212 2 4.08178 55.2681 0.230465
213 2 7.8381 55.2951 0.353302
214 2 11.8542 55.307 0.480722
215 2 15.9645 55.1907 0.388536
216 2 19.8406 55.1803 0.39287
217 2 23.6802 55.2068 0.369899
218 2 27.4209 55.3358 0.39948
219 2 31.5956 55.1883 0.287063
220 2 35.5467 55.1154 0.334314
221 2 39.5962 54.9127 0.386909
222 2 43.6405 55.244 0.262637
223 2 47.4583 55.3673 0.140268
224 2 51.2962 55.097 0.187062
225 2 55.4143 55.2464 0.400917
226 2 -0.126548 59.2857 4.21185
227 2 3.76818 59.1386 4.19438
228 2 7.91024 59.0697 4.34132
229 2 11.8815 59.1521 4.21947
230 2 15.9193 59.1576 4.42701
231 2 19.906 59.2509 4.29338
232 2 23.7303 59.148 4.24821
233 2 27.5839 59.1278 4.30683
234 2 31.8359 59.2049 4.29441
235 2 35.6276 58.9611 4.23051
236 2 39.5477 59.2658 4.36815
237 2 43.4638 59.2021 4.47172
238 2 47.5494 59.2608 4.21317
239 2 51.4181 59.1637 4.3797
240 2 55.3868 59.0269 4.29326
241 2 59.4597 3.75556 4.29177
242 2 3.91575 3.83259 4.19716
243 2 7.62981 3.7535 4.39488
244 2 11.759 3.90447 4.28258
245 2 15.8663 3.81118 4.36791
246 2 19.7963 3.76342 4.36212
247 2 23.9389 3.70268 4.36716
248 2 27.8723 3.88235 4.30001
249 2 31.5662 3.90956 4.31144
250 2 35.6354 3.8104 4.23262
251 2 39.6449 3.656 4.33036
252 2 43.4904 3.69007 4.38451
253 2 47.7153 3.80009 4.34327
254 2 51.6738 3.82095 4.20494
255 2 55.4912 3.71728 4.13041
256 2 59.246 7.64873 4.27128
257 2 3.72176 7.6475 4.36133
258 2 7.7305 7.62595 4.31089
259 2 11.8839 7.83442 4.4091
260 2 15.5848 7.8525 4.34752
261 2 19.6467 7.73139 4.23718
262 2 23.6518 7.73161 4.37998
263 2 27.639 7.79819 4.14572
264 2 31.56 7.75134 4.19717
265 2 35.4283 7.83004 4.41542
266 2 39.6395 7.62895 4.11975
267 2 43.5422 7.64624 4.49248
268 2 47.4242 7.65868 4.13915
269 2 51.5164 7.57344 4.10104
270 2 55.5635 7.7355 4.29443
271 2 59.3717 11.7854 4.52819
272 2 3.91371 11.7177 4.48547
273 2 7.91409 11.5068 4.24654
274 2 11.8857 11.8502 4.47878
275 2 15.7038 11.6945 4.28246
276 2 19.6298 11.826 4.37993
277 2 23.5586 11.5935 4.36834
278 2 27.6314 11.6907 4.47954
279 2 31.7174 11.7587 4.14045
280 2 35.6145 11.9332 4.37767
281 2 39.3381 11.3791 4.33959
282 2 43.4262 11.7548 4.29017
283 2 47.4411 11.7788 4.3185
284 2 51.4508 11.56 4.37133
285 2 55.4108 11.7609 4.32722
286 2 59.377 15.8165 4.33852
287 2 4.01228 15.8228 4.32553
288 2 7.99714 15.7491 4.41585
289 2 11.885 15.8561 4.25214
290 2 15.747 15.6445 4.47021
291 2 19.8899 15.5701 4.39512
292 2 23.7473 15.7071 4.31422
293 2 27.8091 15.7385 4.18581
294 2 31.7386 15.6184 4.31553
295 2 35.5345 15.7226 4.48915
296 2 39.4135 15.7182 4.53822
297 2 43.4254 15.5965 4.45712
298 2 47.4383 15.7011 4.30395
299 2 51.454 15.6753 4.37862
300 2 55.3832 15.637 4.33607
301 2 59.5001 19.7486 4.40702
302 2 3.91584 19.5915 4.29211
303 2 8.01399 19.6992 4.40526
304 2 12.0664 19.7733 4.09389
305 2 15.8051 19.7434 4.13284
306 2 19.9076 19.6405 4.30149
307 2 23.8643 19.5782 4.30061
308 2 27.7892 19.7015 4.42452
309 2 31.723 19.7076 4.4645
310 2 35.6361 19.8289 4.2125
311 2 39.5417 19.7048 4.5682
312 2 43.5462 19.5825 4.2296
313 2 47.6898 19.6474 4.43794
314 2 51.5969 19.8347 4.10963
315 2 55.556 19.7144 4.28296
316 2 59.4104 23.696 4.3362
317 2 4.05655 23.7986 4.27914
318 2 7.98282 23.6407 4.26258
319 2 12.1346 23.8739 4.21781
320 2 15.9831 23.6521 4.31991
321 2 19.9066 23.5981 4.44974
322 2 23.9135 23.5439 4.10589
323 2 27.7568 23.6246 4.28532
324 2 31.6812 23.6268 4.47833
325 2 35.6941 23.5587 4.19367
326 2 39.5031 23.7035 4.49987
327 2 43.5216 23.5617 4.4232
328 2 47.5002 23.6845 4.21196
329 2 51.5733 23.7501 4.2454
330 2 55.4721 23.7285 4.30039
331 2 59.6318 27.5729 4.1076
332 2 4.28683 27.4981 4.23741
333 2 8.18699 27.5462 4.10209
334 2 11.9265 27.6235 4.20113
335 2 16.0995 27.5367 4.32756
336 2 20.107 27.5845 4.25804
337 2 23.9168 27.4875 4.34156
338 2 27.8347 27.3947 4.18644
339 2 31.5536 27.5362 4.37581
340 2 35.4389 27.4668 4.31703
341 2 39.5029 27.4609 4.25027
342 2 43.5178 27.556 4.3263
343 2 47.705 27.6287 4.21098
344 2 51.5044 27.4087 4.13866
345 2 55.6507 27.7679 4.25626
346 2 0.141689 31.5837 4.29433
347 2 4.09176 31.5878 4.36425
348 2 7.93455 31.5808 4.46098
349 2 11.9188 31.7864 4.2574
350 2 15.953 31.4981 4.3447
351 2 19.7995 31.4009 4.44457
352 2 23.7514 31.3735 4.20192
353 2 27.7116 31.51 4.22765
354 2 31.7194 31.5268 4.33991
355 2 35.6496 31.4111 4.24266
356 2 39.6757 31.4756 4.36933
357 2 43.7227 31.4606 4.32943
358 2 47.6821 31.6179 4.32748
359 2 51.5379 31.4664 4.22897
360 2 55.5548 31.7132 4.15265
361 2 0.00997437 35.468 4.26662
362 2 3.87523 35.6626 4.27811
363 2 8.02993 35.7358 4.19647
364 2 12.0526 35.6078 4.2509
365 2 16.0889 35.3414 4.26717
366 2 19.9854 35.3231 4.38484
367 2 23.8279 35.4837 4.40477
368 2 27.5705 35.655 4.44778
369 2 31.4346 35.5152 4.19453
370 2 35.5134 35.4609 4.29974
371 2 39.6534 35.2683 4.22584
372 2 43.5708 35.3381 4.32843
373 2 47.5769 35.4444 4.32442
374 2 51.6545 35.5554 4.35584
375 2 55.5012 35.43 4.2897
376 2 0.150215 39.4984 4.2359
377 2 4.12747 39.6925 4.19309
378 2 7.93669 39.5325 4.30724
379 2 11.7278 39.5517 4.19879
380 2 16.0536 39.3701 4.06764
381 2 19.9903 39.3116 4.25315
382 2 23.7388 39.5702 4.36271
383 2 27.6143 39.4651 4.17952
384 2 31.8116 39.268 4.32695
385 2 35.6636 39.5739 4.27082
386 2 39.6387 39.3461 4.31623
387 2 43.5121 39.5954 4.20429
388 2 47.6917 39.4321 4.32789
389 2 51.4388 39.3605 4.3329
390 2 55.2939 39.3227 4.36162
391 2 -0.0464218 43.3758 4.35244
392 2 4.07355 43.5291 4.28841
393 2 7.93601 43.4111 4.32575
394 2 11.7092 43.3684 4.27897
395 2 15.9121 43.2412 4.30305
396 2 19.9334 43.2839 4.30611
397 2 23.7978 43.3791 4.29655
398 2 27.9301 43.3859 4.29497
399 2 31.8244 43.1729 4.22642
400 2 35.8231 43.4838 4.41574
401 2 39.5964 43.2668 4.29696
402 2 43.3143 43.4413 4.43977
403 2 47.4013 43.4213 4.25346
404 2 51.432 43.6488 4.37752
405 2 55.3956 43.4715 4.27427
406 2 59.2652 47.4884 4.52222
407 2 4.06317 47.1901 4.28033
408 2 7.89865 47.3784 4.26993
409 2 11.9023 47.2879 4.28454
410 2 15.8298 47.2023 4.31895
411 2 19.7447 47.2143 4.4031
412 2 23.7116 47.371 4.23914
413 2 27.7077 47.232 4.38763
414 2 31.8032 47.2033 4.27827
415 2 35.6297 47.345 4.5487
416 2 39.5233 47.1811 4.21384
417 2 43.5066 47.3114 4.35395
418 2 47.4248 47.3706 4.35484
419 2 51.4793 47.5712 4.22113
420 2 55.4554 47.3728 4.28226
421 2 -0.00126945 51.1759 4.28501
422 2 4.09635 51.3117 4.18705
423 2 8.09239 51.3514 4.37723
424 2 11.9599 51.1321 4.38633
425 2 15.8772 51.3708 4.4627
426 2 19.6632 51.1333 4.2416
427 2 23.8367 51.2612 4.24125
428 2 27.74 51.2469 4.23936
429 2 31.9848 51.2789 4.34411
430 2 35.5937 51.1771 4.3649
431 2 39.5278 51.0662 4.20307
432 2 43.5577 51.1291 4.4271
433 2 47.4788 51.3102 4.39525
434 2 51.465 51.4816 4.1929
435 2 55.401 51.128 4.26275
436 2 0.0234467 55.1243 4.11545
437 2 3.72439 55.2925 4.23608
438 2 8.0159 55.2984 4.31308
439 2 12.0678 55.223 4.33658
440 2 16.0073 55.1454 4.31029
441 2 20.0862 55.2975 4.28057
442 2 23.7624 55.2983 4.33115
443 2 27.6528 55.2698 4.36591
444 2 31.5438 55.1884 4.26118
445 2 35.8234 55.1707 4.20778
446 2 39.6583 55.1768 4.18693
447 2 43.5254 55.2219 4.27678
448 2 47.5705 55.2962 4.30955
449 2 51.5591 55.295 4.36195
450 2 55.5914 55.1015 4.34649
451 2 0.26628 59.1667 8.38045
452 2 4.12503 59.0839 8.32544
453 2 8.1557 59.1183 8.30334
454 2 11.8902 59.2434 8.25954
455 2 15.9429 59.2334 8.21205
456 2 19.9179 59.1676 8.31665
457 2 24.0115 59.3021 8.45939
458 2 27.8309 59.1641 8.35461
459 2 31.8059 -0.170969 8.3351
460 2 35.7687 59.1549 8.37451
461 2 39.8183 59.2312 8.34802
462 2 43.5863 59.1803 8.21228
463 2 47.8049 59.2426 8.22734
464 2 51.4081 -0.181944 8.2691
465 2 55.6514 59.1718 8.20639
466 2 0.23917 3.70818 8.36684
467 2 4.17042 3.60335 8.22307
468 2 8.02134 3.8641 8.43233
469 2 12.0839 3.80773 8.12003
470 2 15.8056 3.89508 8.23608
471 2 19.9181 3.76746 8.31774
472 2 23.9788 3.84386 8.22207
473 2 27.6704 3.66049 8.09394
474 2 31.8336 3.82658 8.26697
475 2 35.778 3.57189 8.24474
476 2 39.5966 3.67735 8.06299
477 2 43.5564 3.95459 8.38393
478 2 47.5394 3.87539 8.33408
479 2 51.5979 3.816 8.31747
480 2 55.4853 3.66702 8.08772
481 2 0.0880925 7.69974 8.37804
482 2 4.07664 7.66776 8.22653
483 2 8.01315 7.82258 8.38271
484 2 11.8882 7.72785 8.27238
485 2 15.838 7.58682 8.30123
486 2 19.7978 7.93984 8.19401
487 2 23.8943 7.71512 8.42258
488 2 27.7841 7.68836 8.22309
489 2 31.6878 7.79227 8.28872
490 2 35.6318 7.68066 8.44136
491 2 39.536 7.72158 8.39817
492 2 43.5618 7.79319 8.1981
493 2 47.545 7.66939 8.34142
494 2 51.554 8.03427 8.24322
495 2 55.5351 7.83508 8.16698
496 2 0.147924 11.9679 8.25046
497 2 4.10534 11.6558 8.4142
498 2 7.96552 11.9669 8.06881
499 2 11.908 11.5861 8.08794
500 2 15.7926 11.6731 8.124
501 2 19.7172 11.6011 8.28136
502 2 23.8907 11.7391 8.49154
503 2 27.3903 11.6609 8.3136
504 2 31.6925 11.5128 8.27224
505 2 35.6894 11.6368 8.14756
506 2 39.6204 11.5996 8.25286
507 2 43.7187 11.7565 8.14127
508 2 47.6114 11.7563 8.20033
509 2 51.5861 11.6578 8.1574
510 2 55.6522 11.6978 8.16629
511 2 -0.00889542 15.6319 8.47079
512 2 4.24005 15.6842 8.37359
513 2 8.08183 15.755 8.37348
514 2 12.1115 15.7216 8.3702
515 2 15.8844 15.7814 8.45547
516 2 19.7915 15.7705 8.15177
517 2 23.7215 15.7285 8.11836
518 2 27.7175 15.556 8.22574
519 2 31.7206 15.5986 8.31298
520 2 35.5968 15.6149 8.32223
521 2 39.5394 15.7645 8.44323
522 2 43.5962 15.545 8.36582
523 2 47.738 15.8094 8.22519
524 2 51.546 15.7086 8.29963
525 2 55.3121 15.7704 8.33073
526 2 0.361626 19.6194 8.23526
527 2 4.11239 19.6076 8.34366
528 2 8.07366 19.7691 8.22942
529 2 11.8746 19.6504 8.12005
530 2 15.8919 19.7824 8.15308
531 2 19.8251 19.5084 8.35508
532 2 23.7808 19.4959 8.33276
533 2 27.6763 19.5205 8.29676
534 2 31.5289 19.7243 8.40585
535 2 35.4291 19.7046 8.30173
536 2 39.5186 19.6416 8.35358
537 2 43.5656 19.6446 8.25818
538 2 47.7735 19.6855 8.31035
539 2 51.6164 19.6014 8.22663
540 2 55.5652 19.541 8.13703
541 2 0.172507 23.7427 8.148
542 2 4.32379 23.6969 8.23489
543 2 8.16796 23.604 8.25154
544 2 12.112 23.5986 8.20652
545 2 16.0003 23.5907 8.12737
546 2 20.0274 23.6409 8.31121
547 2 23.7902 23.5871 8.33027
548 2 27.5813 23.548 8.37145
549 2 31.6904 23.6498 8.22271
550 2 35.5675 23.5716 8.42542
551 2 39.4812 23.7074 8.38996
552 2 43.7426 23.7233 8.2617
553 2 47.4878 23.5041 8.19574
554 2 51.4972 23.7567 8.03543
555 2 55.6331 23.7201 8.3508
556 2 0.175824 27.6695 8.24343
557 2 3.98963 27.5894 8.18233
558 2 8.09841 27.6216 8.27669
559 2 11.8949 27.9042 8.29827
560 2 15.9477 27.5415 8.10367
561 2 19.9459 27.4979 8.24499
562 2 23.8378 27.5859 8.20218
563 2 27.6605 27.5273 8.32822
564 2 31.5019 27.5528 8.40281
565 2 35.6761 27.6054 8.31438
566 2 39.459 27.6792 8.30043
567 2 43.6641 27.6111 8.04197
568 2 47.436 27.8095 8.30111
569 2 51.4662 27.5561 8.33487
570 2 55.5937 27.7043 8.16378
571 2 0.0854943 31.8738 8.21587
572 2 4.14886 31.5101 8.30838
573 2 8.04128 31.5566 8.11668
574 2 12.0965 31.696 8.18515
575 2 15.9423 31.4871 8.21509
576 2 19.9709 31.6552 8.39039
577 2 23.89 31.3769 8.18767
578 2 27.5331 31.4139 8.22864
579 2 31.8718 31.5168 8.14375
580 2 35.7669 31.5489 8.14002
581 2 39.6754 31.3282 8.17075
582 2 43.4156 31.357 8.3252
583 2 47.7122 31.8099 8.26479
584 2 51.761 31.4889 8.02602
585 2 55.4841 31.3176 8.18422
586 2 0.0146537 35.5845 8.28955
587 2 4.06314 35.3899 8.27372
588 2 8.07526 35.5729 8.45982
589 2 12.1146 35.6611 8.18804
590 2 15.8065 35.7334 8.33686
591 2 19.936 35.4246 8.29405
592 2 23.8307 35.1813 8.23692
593 2 27.733 35.4738 8.26115
594 2 31.7103 35.4122 8.3754
595 2 35.7228 35.4365 8.20445
596 2 39.6486 35.651 8.40259
597 2 43.6355 35.5691 8.22236
598 2 47.5545 35.5455 8.13522
599 2 51.4151 35.6099 8.31715
600 2 55.3613 35.4611 8.3306
601 2 0.0835197 39.4488 8.2168
602 2 3.98085 39.4523 8.05445
603 2 8.05472 39.6655 8.28845
604 2 11.8547 39.4762 8.25935
605 2 15.8156 39.6778 7.95705
606 2 19.9015 39.4146 8.40612
607 2 23.8259 39.5684 8.53945
608 2 27.9726 39.4888 8.28389
609 2 31.7145 39.7617 8.2723
610 2 35.7445 39.4019 8.32808
611 2 39.5296 39.3799 8.28363
612 2 43.7739 39.4715 8.08736
613 2 47.596 39.5979 8.18996
614 2 51.4743 39.7439 8.16497
615 2 55.626 39.635 8.2341
616 2 0.130941 43.4961 8.24711
617 2 3.94238 43.4012 8.42428
618 2 7.77295 43.6518 8.14578
619 2 11.8796 43.6324 8.27184
620 2 15.7508 43.3081 8.2636
621 2 19.9293 43.4131 8.29487
622 2 24.0621 43.2941 8.38473
623 2 27.7866 43.3984 8.30331
624 2 31.4723 43.4702 8.26589
625 2 35.6896 43.2952 8.52082
626 2 39.7307 43.2722 8.43268
627 2 43.7758 43.501 8.32926
628 2 47.753 43.4691 8.21874
629 2 51.5086 43.4379 8.37034
630 2 55.4117 43.299 8.31012
631 2 0.121722 47.4482 8.36379
632 2 4.06218 47.3428 8.28666
633 2 7.81316 47.4415 8.32238
634 2 11.9465 47.4318 8.3543
635 2 16.1092 47.1231 8.23276
636 2 19.962 47.2598 8.3222
637 2 23.7494 47.2702 8.26399
638 2 27.9257 47.302 8.19511
639 2 31.6148 47.3411 8.24677
640 2 35.3789 47.375 8.43468
641 2 39.7667 47.3132 8.1499
642 2 43.6774 47.4259 8.24268
643 2 47.583 47.4144 8.33772
644 2 51.7017 47.3948 8.29188
645 2 55.6037 47.2099 8.29052
646 2 0.12872 51.3472 8.27317
647 2 4.12236 51.2485 8.15316
648 2 7.95328 51.3188 8.25846
649 2 12.0109 51.4053 8.35538
650 2 16.1772 51.4906 8.17203
651 2 19.8829 51.2949 8.32855
652 2 23.7398 51.2996 8.27277
653 2 27.9077 51.242 8.28585
654 2 31.7967 51.4115 8.32818
655 2 35.7834 51.3913 8.24198
656 2 39.6428 51.2948 8.25048
657 2 43.5763 51.5019 8.30004
658 2 47.6589 51.3977 8.21253
659 2 51.342 51.3002 8.31348
660 2 55.4419 51.4474 8.44632
661 2 0.211233 55.0156 8.33026
662 2 4.16966 55.311 8.11497
663 2 8.03892 55.2713 8.37501
664 2 12.0289 55.1439 8.17005
665 2 16.0123 55.4552 8.18327
666 2 19.8114 55.198 8.33002
667 2 24.0148 55.0559 8.17532
668 2 27.9291 55.1204 8.26764
669 2 31.6179 55.1667 8.18517
670 2 35.507 55.2215 8.29876
671 2 39.6659 55.3225 8.38799
672 2 43.7766 55.3151 8.3047
673 2 47.3688 55.2585 8.18865
674 2 51.563 55.2965 8.38064
675 2 55.4617 55.186 8.30343
676 2 0.119783 59.3671 12.3306
677 2 4.10437 59.0027 12.2899
678 2 7.91086 59.1755 12.2548
679 2 12.1735 59.2595 12.1871
680 2 16.0463 59.4128 12.2411
681 2 19.9267 59.073 12.3184
682 2 23.9149 59.4207 12.3825
683 2 27.8757 59.165 12.3944
684 2 31.6846 59.2796 12.502
685 2 35.6191 59.2473 12.3646
686 2 39.6572 59.2651 12.5299
687 2 43.79 59.3806 12.1674
688 2 47.7639 59.1889 12.214
689 2 51.5136 59.089 12.0181
690 2 55.5361 59.1732 12.2944
691 2 0.270901 3.77928 12.2889
692 2 4.17251 4.06251 12.3368
693 2 8.12234 3.6927 12.2828
694 2 11.7828 3.78317 12.1634
695 2 16.0987 3.72109 12.2363
696 2 19.9115 3.74695 12.2318
697 2 24.0454 3.81094 12.2544
698 2 27.8638 3.70344 12.0221
699 2 31.8088 3.77669 12.2826
700 2 35.7959 3.91883 12.349
701 2 39.7271 4.04628 12.1767
702 2 43.6766 3.97919 12.1292
703 2 47.641 3.77346 12.3022
704 2 51.7631 3.79029 12.2542
705 2 55.6246 3.91918 11.9952
706 2 0.203785 7.59173 12.1392
707 2 4.3401 7.85791 12.2052
708 2 7.99933 7.85095 12.3438
709 2 12.0083 7.72723 12.2993
710 2 15.9028 7.63773 12.4574
711 2 19.8769 7.81145 12.4646
712 2 23.8756 7.42976 12.1493
713 2 27.9499 7.71944 12.1011
714 2 31.9442 7.7128 12.1715
715 2 35.7258 7.89382 12.2963
716 2 39.826 7.71798 12.2216
717 2 43.8367 7.82193 12.2088
718 2 47.8084 7.68431 12.3401
719 2 51.6344 7.60135 12.1953
720 2 55.7618 7.81658 12.0443
721 2 0.224153 11.9438 12.1872
722 2 4.24528 11.6826 12.0981
723 2 8.08254 11.6982 12.2652
724 2 12.0734 11.7272 12.2769
725 2 15.8344 11.843 12.205
726 2 19.9242 11.8285 12.1611
727 2 23.769 11.6406 12.41
728 2 27.8884 11.9515 12.0977
729 2 31.8007 11.5887 12.2435
730 2 35.6337 11.6667 12.3977
731 2 39.6352 11.9742 12.3403
732 2 43.743 11.7308 11.9867
733 2 47.773 11.8419 12.2449
734 2 51.4976 11.8423 12.2452
735 2 55.7111 11.7029 12.2974
736 2 -0.124584 15.7704 12.3824
737 2 3.91508 15.7069 12.2265
738 2 8.12478 15.6777 12.1093
739 2 12.2708 15.592 12.0893
740 2 15.9542 15.7262 12.1711
741 2 19.9666 15.6201 12.2231
742 2 23.6052 15.5441 12.3062
743 2 27.9447 15.7312 12.2084
744 2 31.8027 15.6186 11.9721
745 2 35.788 15.6553 12.3624
746 2 39.8767 15.9542 12.2611
747 2 43.7801 15.7543 12.0907
748 2 47.7693 15.5502 12.2436
749 2 51.6643 15.6686 12.3225
750 2 55.402 15.7845 12.4056
751 2 0.126585 19.8552 12.2027
752 2 4.06593 19.6431 12.3
753 2 8.06574 19.5913 12.3675
754 2 12.005 19.6694 12.279
755 2 16.0553 19.7761 12.2507
756 2 20.0447 19.7704 12.4171
757 2 23.8846 19.6882 12.1683
758 2 27.8397 19.7729 12.2554
759 2 31.8373 19.9305 12.2772
760 2 35.8622 19.5968 12.3448
761 2 39.65 19.7642 12.3183
762 2 43.7489 19.742 12.2893
763 2 47.5929 19.8179 12.1074
764 2 51.5473 19.8068 12.2253
765 2 55.4982 19.7219 12.2431
766 2 59.532 23.5011 12.1754
767 2 4.06796 23.7036 12.1781
768 2 7.96488 23.5673 12.2396
769 2 11.8434 23.6669 12.246
770 2 15.9633 23.6665 12.0774
771 2 19.9614 23.6885 12.3651
772 2 23.8792 23.6145 12.065
773 2 27.7793 23.6942 12.3106
774 2 31.5937 23.7287 12.3224
775 2 35.7388 23.6644 12.3248
776 2 39.647 23.6985 12.2457
777 2 43.5954 23.7654 12.1653
778 2 47.6519 23.7465 12.0525
779 2 51.7039 23.6636 12.1375
780 2 55.6989 23.7289 12.1942
781 2 0.205273 27.747 12.2536
782 2 4.27265 27.6901 12.1277
783 2 8.17669 27.611 12.2769
784 2 12.0463 27.4746 12.279
785 2 15.78 27.6019 12.1886
786 2 19.7541 27.4516 12.2077
787 2 23.7101 27.7259 12.3376
788 2 27.7809 27.7197 12.3944
789 2 31.6804 27.6832 12.237
790 2 35.7609 27.6536 12.2516
791 2 39.657 27.6217 12.1404
792 2 43.7946 27.8053 12.1052
793 2 47.7336 27.8898 12.2121
794 2 51.4895 27.575 12.1662
795 2 55.4984 27.603 12.0925
796 2 0.0904765 31.8244 12.2354
797 2 4.18184 31.6588 12.0785
798 2 8.2284 31.6815 12.0267
799 2 12.1104 31.5771 12.1206
800 2 16.0324 31.6785 12.2032
801 2 19.7638 31.7522 12.1302
802 2 23.8917 31.4003 12.2482
803 2 27.7958 31.7739 12.0807
804 2 31.8159 31.6836 12.0995
805 2 35.6957 31.5551 12.268
806 2 39.641 31.6531 12.2868
807 2 43.7385 31.6415 12.2356
808 2 47.55 31.8606 12.2223
809 2 51.5186 31.7059 12.1442
810 2 55.5885 31.5752 12.1481
811 2 0.191705 35.7124 12.1354
812 2 4.08701 35.5711 12.2942
813 2 7.97566 35.5376 12.2059
814 2 12.2732 35.5787 12.1702
815 2 16.0965 35.5691 12.2449
816 2 19.9752 35.6447 12.3172
817 2 23.6298 35.4063 12.2107
818 2 27.7858 35.4247 12.2631
819 2 31.7164 35.4562 12.3123
820 2 35.8001 35.6641 12.1077
821 2 39.749 35.5893 12.4233
822 2 43.4682 35.5088 12.1157
823 2 47.628 35.6232 12.3615
824 2 51.5882 35.5633 12.2081
825 2 55.4261 35.5324 12.3299
826 2 0.0748914 39.6285 12.2862
827 2 3.88506 39.493 12.4052
828 2 7.89762 39.5479 12.3094
829 2 11.8331 39.4529 12.1385
830 2 16.0013 39.5447 12.296
831 2 20.013 39.3348 12.3486
832 2 23.9836 39.3259 12.354
833 2 27.6111 39.3973 12.3533
834 2 31.5678 39.2564 12.0343
835 2 35.5172 39.3653 12.2662
836 2 39.8386 39.5285 12.2079
837 2 43.9554 39.5672 11.9738
838 2 47.5876 39.5793 12.3493
839 2 51.6512 39.4864 12.1687
840 2 55.6023 39.4947 12.2325
841 2 0.14136 43.4638 12.2822
842 2 4.10978 43.4495 12.4401
843 2 8.00723 43.5019 12.3814
844 2 11.8701 43.3557 12.408
845 2 15.976 43.3088 12.275
846 2 19.7522 43.277 12.4387
847 2 23.8396 43.5362 12.4115
848 2 27.7759 43.4855 12.4051
849 2 31.795 43.452 12.3462
850 2 35.8459 43.5593 12.2647
851 2 39.7586 43.582 12.2024
852 2 43.5102 43.4594 12.2979
853 2 47.5707 43.5271 12.2824
854 2 51.5051 43.5542 12.1537
855 2 55.399 43.3634 12.3929
856 2 0.139601 47.636 12.3473
857 2 4.15092 47.7402 12.2292
858 2 7.92343 47.5795 12.322
859 2 11.9907 47.358 12.2793
860 2 15.9475 47.1222 12.2652
861 2 20.0015 47.2189 12.2982
862 2 23.8853 47.467 12.3522
863 2 27.5139 47.5027 12.3296
864 2 31.758 47.4051 12.2311
865 2 35.849 47.3647 12.1723
866 2 39.5883 47.4799 12.3701
867 2 43.5031 47.3403 12.1173
868 2 47.5325 47.5886 12.3449
869 2 51.5213 47.4029 12.4293
870 2 55.4382 47.2643 12.3169
871 2 0.297366 51.2833 12.2138
872 2 4.03886 51.4845 12.3865
873 2 8.09063 51.3573 12.4053
874 2 12.0358 51.3114 12.1881
875 2 15.9728 51.2493 12.1933
876 2 19.8899 51.1417 12.3737
877 2 23.6748 51.2485 12.3246
878 2 27.7709 51.3325 12.488
879 2 31.7102 51.1148 12.3612
880 2 35.8486 51.5006 12.3122
881 2 39.8438 51.4155 12.4054
882 2 43.628 51.5851 12.0499
883 2 47.5738 51.5021 12.4347
884 2 51.3886 51.367 12.1485
885 2 55.6144 51.4854 12.1672
886 2 0.0995731 55.1485 12.4114
887 2 4.28914 55.4356 12.1807
888 2 8.02335 55.1475 12.3622
889 2 11.9939 55.2333 12.0665
890 2 15.8287 55.367 12.2344
891 2 20.1237 55.1471 12.1328
892 2 24.0028 55.2751 12.3117
893 2 27.9868 55.3425 12.1622
894 2 31.8458 55.2698 12.2819
895 2 35.6573 55.3645 12.4431
896 2 39.6694 55.2091 12.4674
897 2 43.586 55.359 12.2894
898 2 47.712 55.2529 12.3939
899 2 51.5491 55.3696 12.3503
900 2 55.4935 55.2266 12.2676
901 2 0.184356 59.3545 16.2118
902 2 4.06848 59.128 16.3109
903 2 8.04215 59.4042 16.1221
904 2 12.0615 59.1845 16.3503
905 2 15.9778 59.046 16.3295
906 2 19.9258 59.162 16.3009
907 2 23.8311 59.1454 16.177
908 2 27.72 59.2078 16.145
909 2 31.8332 -0.0765749 16.4328
910 2 35.8118 59.172 16.2774
911 2 39.7644 59.5278 16.3866
912 2 43.8772 59.272 16.2049
913 2 47.5834 59.2042 16.2456
914 2 51.4542 59.1211 16.0986
915 2 55.504 59.4498 16.0689
916 2 59.5968 3.84716 16.1642
917 2 4.14678 3.65996 16.3315
918 2 8.05682 3.89205 16.338
919 2 12.0669 3.68674 16.2649
920 2 15.8667 3.83729 16.2679
921 2 19.8505 4.01382 16.1698
922 2 24.0006 4.0061 16.1975
923 2 27.9394 3.89906 16.2928
924 2 31.7932 3.8592 16.2711
925 2 35.8564 4.06455 16.17
926 2 39.8817 3.87895 16.3393
927 2 43.8422 3.88661 16.124
928 2 47.697 3.91362 16.3046
929 2 51.5871 3.94345 16.2267
930 2 55.6337 3.96116 16.0941
931 2 0.0544847 7.88637 15.9947
932 2 3.97581 7.9075 16.1489
933 2 8.05379 7.66596 16.3303
934 2 12.2133 7.73499 16.3915
935 2 15.9542 7.8042 16.2932
936 2 19.9355 8.1312 16.2163
937 2 23.8365 7.80506 16.1733
938 2 27.6434 7.95561 16.1912
939 2 31.7646 7.86875 16.219
940 2 35.7729 8.00747 16.3054
941 2 39.9369 7.87998 16.1959
942 2 43.5317 7.90916 16.1746
943 2 47.7202 7.89715 16.1397
944 2 51.5717 7.66105 16.0603
945 2 55.4458 8.05249 16.0797
946 2 0.12531 11.8867 16.2045
947 2 4.12046 11.9804 16.0856
948 2 8.1667 11.6074 16.1917
949 2 11.951 11.6929 16.1574
950 2 16.028 11.7602 16.2182
951 2 19.9418 11.8967 16.3735
952 2 23.9573 11.8338 16.3238
953 2 27.6942 11.8701 16.1366
954 2 31.9076 11.7371 16.2884
955 2 36.0414 11.8483 16.1614
956 2 39.6968 11.8338 16.3361
957 2 43.6929 11.6967 16.1882
958 2 47.5827 11.6371 16.2754
959 2 51.719 11.8615 16.1858
960 2 55.5656 11.6874 16.2483
961 2 0.217207 16.0069 16.1551
962 2 4.19186 15.6739 16.3009
963 2 8.11302 15.8355 16.0403
964 2 12.0351 16.0029 16.2344
965 2 16.0041 15.6826 16.1753
966 2 19.9301 15.7492 16.291
967 2 23.937 16.0152 16.1668
968 2 27.7876 15.8259 15.9453
969 2 31.7955 15.7366 16.1807
970 2 35.6715 15.8128 16.2059
971 2 39.8362 15.7624 16.2254
972 2 43.8384 15.6857 16.2849
973 2 47.6036 15.7413 16.3013
974 2 51.5836 15.9538 16.0679
975 2 55.6439 15.808 16.0361
976 2 59.5482 19.9167 16.2743
977 2 4.10415 19.7105 16.0419
978 2 7.90782 19.646 16.229
979 2 12.0397 19.6923 16.1141
980 2 15.886 19.8577 16.228
981 2 19.7675 19.7318 16.3074
982 2 23.8191 19.789 16.1998
983 2 27.8405 19.5771 16.0805
984 2 31.7025 19.8793 16.0613
985 2 35.9033 19.7156 16.4063
986 2 39.7396 19.806 16.543
987 2 43.8096 19.8089 16.1021
988 2 47.7198 19.7938 16.0715
989 2 51.4741 19.832 16.2896
990 2 55.6818 19.9735 16.3379
991 2 0.210322 23.8349 16.0867
992 2 4.05055 23.6083 16.2366
993 2 8.10795 23.7605 16.2245