ITEM: TIMESTEP
50200
ITEM: NUMBER OF ATOMS
43200
ITEM: BOX BOUNDS xy xz yz pp pp pp
0.0000000000000000e+00 9.4992000000000004e+01 0.0000000000000000e+00
0.0000000000000000e+00 9.4992000000000004e+01 0.0000000000000000e+00
-1.2818233670248702e-02 5.9712818233671101e+01 0.0000000000000000e+00
ITEM: ATOMS id type x y z
1 2 0.0919211 -0.0302743 0.397429
2 2 4.04786 0.0275197 0.346874
3 2 7.97135 -0.107347 0.50994
4 2 12.0038 -0.0326512 0.451177
5 2 15.8988 -0.0380167 0.401864
6 2 19.9978 0.0712722 0.157376
7 2 23.9502 -0.0328963 0.302776
8 2 27.8755 -0.203072 0.231347
9 2 31.8216 -0.157375 0.134529
10 2 35.7678 0.134963 0.284562
11 2 39.7554 0.0836636 0.232333
12 2 43.5889 0.000838847 0.165556
13 2 47.7311 0.0808445 0.190695
14 2 51.4644 0.071627 0.186262
15 2 55.5326 0.0595298 0.305898
16 2 59.4584 -0.0115409 0.255728
17 2 63.4207 0.0814627 0.184873
18 2 67.4614 -0.00959433 0.0906014
19 2 71.2324 0.134836 0.258071
20 2 75.3012 -0.0656343 0.232898
21 2 79.2482 -0.0941611 0.203504
22 2 83.3264 -0.0505541 0.205215
23 2 87.0443 -0.0794149 0.295918
24 2 91.1051 -0.0983882 0.347709
25 2 -0.199246 3.9713 0.260039
26 2 3.91339 3.93432 0.189062
27 2 8.07394 3.92567 0.327168
28 2 11.8317 4.06465 0.404536
29 2 15.9387 3.72714 0.458077
30 2 19.8341 4.07739 0.162709
31 2 23.8202 3.95184 0.388752
32 2 27.7448 3.88481 0.248152
33 2 31.8679 4.14161 0.197068
34 2 35.7121 3.94554 0.202981
35 2 39.9297 3.86402 0.133781
36 2 43.8525 3.69567 0.254503
37 2 47.8898 3.89645 0.236511
38 2 51.6388 3.90916 -0.0956417
39 2 55.5687 3.99067 0.277951
40 2 59.35 3.7977 0.184543
41 2 63.5426 4.01047 0.0938561
42 2 67.452 3.99638 -0.0457828
43 2 71.4003 3.92825 0.144168
44 2 75.3556 3.97352 0.479905
45 2 79.2601 3.80643 0.456153
46 2 83.1102 3.98909 0.344446
47 2 87.1252 4.06298 0.391327
48 2 90.8755 3.73346 0.385297
49 2 0.0645899 7.76195 0.188082
50 2 3.91857 7.87147 0.331043
51 2 7.80933 7.80977 0.435044
52 2 11.8847 7.72443 0.247777
53 2 16.1501 7.85475 0.357668
54 2 20.0926 8.00381 0.124311
55 2 23.8796 7.89091 0.197431
56 2 27.7555 7.91776 0.14679
57 2 31.8396 8.09024 0.202266
58 2 35.7641 7.92005 0.245282
59 2 39.6532 7.75682 0.392477
60 2 43.6848 7.6379 0.388332
61 2 47.6502 7.92656 0.350387
62 2 51.6496 8.08641 0.0765265
63 2 55.6078 7.87354 -0.189421
64 2 59.6554 7.81915 0.228924
65 2 63.3399 7.97568 0.27549
66 2 67.4572 8.03984 0.239795
67 2 71.3854 7.95493 0.199124
68 2 75.1743 7.97345 0.315238
69 2 79.3218 7.95951 -0.0854854
70 2 83.2481 8.04659 0.223072
71 2 87.1748 7.8125 0.389495
72 2 91.0107 7.87077 0.218092
73 2 0.0598875 11.9611 0.353343
74 2 3.81219 11.8718 0.318367
75 2 7.90482 11.7019 0.312042
76 2 12.0231 11.5083 0.348658
77 2 16.0028 12.0713 0.0703231
78 2 19.8412 11.9666 0.0625628
79 2 23.8232 12.0348 0.27278
80 2 27.8572 11.6207 0.281287
81 2 31.7741 11.8046 0.35635
82 2 35.8556 11.6515 0.145193
83 2 39.8299 12.0007 0.193188
84 2 43.646 11.8924 0.15186
85 2 47.6304 11.9263 0.177913
86 2 51.557 11.9052 0.400854
87 2 55.6199 12.0113 0.183211
88 2 59.4974 11.7955 0.250275
89 2 63.4119 12.0249 0.196579
90 2 67.3066 11.9161 0.23411
91 2 71.4256 12.041 0.226469
92 2 75.3667 11.7044 0.155307
93 2 79.3147 11.9746 0.282423
94 2 83.0311 11.9467 0.253086
95 2 87.0121 11.9836 0.346731
96 2 91.1909 11.626 0.14131
97 2 -0.0637272 15.6257 0.313327
98 2 3.98133 15.8079 0.358874
99 2 8.05437 15.6614 0.148355
100 2 12.182 15.6654 0.141264
101 2 16.1455 15.7409 0.21429
102 2 19.9032 15.8392 0.165889
103 2 23.8606 15.5746 0.226113
104 2 27.7715 15.7737 0.326117
105 2 31.7844 15.7091 0.366875
106 2 35.5807 15.837 0.088142
107 2 39.634 15.5716 0.309944
108 2 43.5779 15.7734 0.354894
109 2 47.7067 15.7224 0.154391
110 2 51.5531 15.7998 0.175198
111 2 55.6636 15.9438 0.280785
112 2 59.5889 15.8151 0.354644
113 2 63.577 15.9937 0.11891
114 2 67.4034 15.8213 0.125789
115 2 71.4057 15.832 0.228333
116 2 75.3741 15.872 0.254364
117 2 79.2074 15.9802 0.160685
118 2 83.3519 15.8891 0.247764
119 2 87.0648 16.051 0.149692
120 2 90.9332 15.8431 0.16125
121 2 0.0334911 19.6144 0.394566
122 2 3.88095 19.5625 0.160688
123 2 8.00454 19.5463 0.273611
124 2 11.793 19.6518 0.316753
125 2 15.9652 19.7553 0.177389
126 2 20.0134 19.7242 0.24672
127 2 23.8985 19.6763 0.337091
128 2 27.7046 19.7298 0.173569
129 2 31.6745 19.6588 0.308547
130 2 35.7729 19.9014 0.0359767
131 2 39.747 19.6896 0.0760257
132 2 43.7244 19.6958 0.22791
133 2 47.3569 19.8473 0.345187
134 2 51.7945 19.7844 0.149093
135 2 55.5381 19.7175 0.240958
136 2 59.3642 19.8353 0.289578
137 2 63.3948 19.8593 0.376675
138 2 67.3209 19.6842 0.193626
139 2 71.1917 19.7832 0.313007
140 2 75.3691 19.9634 0.0461434
141 2 79.3469 19.8236 0.134636
142 2 83.1576 19.8688 0.2637
143 2 87.3632 19.8376 0.111243
144 2 91.219 19.6714 0.21677
145 2 -0.0316635 23.5618 0.20364
146 2 4.08051 23.5168 0.122367
147 2 7.91684 23.585 0.155098
148 2 12.2432 23.6219 0.149219
149 2 16.0017 23.6168 0.11479
150 2 19.847 23.8373 0.323917
151 2 23.748 23.9384 0.267194
152 2 27.8601 23.66 0.185246
153 2 31.8146 23.5352 0.255587
154 2 35.7747 23.7516 0.237515
155 2 39.5751 23.7883 0.378109
156 2 43.5817 23.9076 0.307051
157 2 47.4074 23.7754 0.20724
158 2 51.6179 23.7011 0.10382
159 2 55.4175 23.8109 0.243256
160 2 59.1898 23.6013 0.129652
161 2 63.4338 23.8876 0.235698
162 2 67.4822 23.6933 0.20332
163 2 71.1166 23.6644 0.177904
164 2 75.3658 23.8535 0.496299
165 2 79.5737 23.7619 0.0202335
166 2 83.2007 23.7733 0.358206
167 2 87.0937 23.6712 0.282073
168 2 91.168 23.7925 0.306121
169 2 0.236951 27.5537 0.197755
170 2 4.15306 27.5835 0.208492
171 2 8.01101 27.5837 0.10157
172 2 12.0201 27.3592 0.124728
173 2 16.0867 27.6662 0.234728
174 2 20.0767 27.7828 0.190071
175 2 23.9903 27.7136 0.212339
176 2 27.7321 27.5501 0.289805
177 2 31.836 27.8087 0.197074
178 2 35.7335 27.6047 0.351373
179 2 39.5774 27.806 0.0375305
180 2 43.6201 27.9373 0.300767
181 2 47.7208 27.6922 0.310225
182 2 51.519 27.7904 0.132251
183 2 55.4609 27.8278 0.158713
184 2 59.2771 27.6517 -0.00680778
185 2 63.2666 27.6927 0.284437
186 2 67.2508 27.7569 0.289304
187 2 71.4227 27.7442 0.14979
188 2 75.5006 27.6222 0.17644
189 2 79.2748 27.6254 0.102806
190 2 83.2039 27.9469 0.199792
191 2 87.2438 27.6697 0.0309428
192 2 91.2524 27.3831 0.350448
193 2 0.151452 31.6792 0.245855
194 2 3.94584 31.4348 0.322646
195 2 8.27422 31.7463 -0.00475995
196 2 12.078 31.4894 0.11921
197 2 15.8097 31.6053 0.273494
198 2 19.8357 31.6298 0.415845
199 2 23.8433 31.7785 0.424513
200 2 27.864 31.8289 0.162519
201 2 31.735 31.7117 0.38436
202 2 35.7015 31.734 0.277886
203 2 39.5345 31.6735 0.213538
204 2 43.5638 31.7799 0.337214
205 2 47.7008 31.7689 0.15282
206 2 51.5173 31.5809 0.248098
207 2 55.4844 31.8657 0.280315
208 2 59.5821 31.7909 0.0775822
209 2 63.5585 31.63 0.254769
210 2 67.4352 31.5566 0.232686
211 2 71.4677 31.6194 0.244052
212 2 75.3584 31.5867 0.506382
213 2 79.4067 31.6691 -0.0182973
214 2 83.1412 31.9209 0.211387
215 2 87.1819 31.6093 0.218752
216 2 91.0387 31.5598 0.3622
217 2 -0.0177506 35.5723 0.151464
218 2 4.10907 35.2848 0.399905
219 2 8.02504 35.3261 0.416446
220 2 12.0867 35.6386 0.422394
221 2 15.8997 35.5709 0.312631
222 2 19.6425 35.6342 0.198584
223 2 23.7061 35.5505 0.393125
224 2 27.6856 35.809 0.37279
225 2 31.669 35.6776 0.393246
226 2 35.5519 35.4616 0.249589
227 2 39.5718 35.6459 0.234902
228 2 43.605 35.5971 0.333659
229 2 47.4218 35.5916 0.228647
230 2 51.3372 35.3791 0.095433
231 2 55.577 35.7269 0.276735
232 2 59.5551 35.6024 0.277869
233 2 63.4841 35.6279 0.155357
234 2 67.4414 35.4978 0.338678
235 2 71.264 35.7176 0.179075
236 2 75.4404 35.399 0.0339808
237 2 79.3983 35.5099 0.292695
238 2 83.2002 35.6283 0.200228
239 2 87.0616 35.7178 0.397236
240 2 91.0782 35.541 0.209512
241 2 0.257828 39.492 0.383579
242 2 3.99465 39.5802 0.32607
243 2 7.78581 39.258 0.268843
244 2 12.0859 39.2808 0.351583
245 2 16.0876 39.5923 0.187859
246 2 19.8881 39.6906 0.456619
247 2 23.6726 39.2806 0.253067
248 2 27.7563 39.824 0.298712
249 2 31.7748 39.758 0.483043
250 2 35.7442 39.5513 0.426658
251 2 39.6529 39.6938 0.281198
252 2 43.5679 39.4515 0.369098
253 2 47.5065 39.5637 0.348409
254 2 51.6801 39.4584 0.178449
255 2 55.5909 39.358 0.247169
256 2 59.4793 39.4033 0.163443
257 2 63.501 39.698 0.0935707
258 2 67.3243 39.6159 0.221077
259 2 71.5277 39.6668 0.168462
260 2 75.5359 39.351 0.18367
261 2 79.3901 39.6221 0.17649
262 2 83.4597 39.5992 0.319365
263 2 87.2231 39.4475 0.513092
264 2 91.2208 39.4274 0.324167
265 2 0.128893 43.5684 0.324472
266 2 4.06398 43.5067 0.286091
267 2 7.95364 43.4401 0.374341
268 2 12.2133 43.5473 0.434542
269 2 15.9054 43.6327 0.503752
270 2 19.915 43.4023 0.413536
271 2 23.8652 43.4782 0.112575
272 2 27.6813 43.7169 0.19337
273 2 31.7298 43.6401 0.318156
274 2 35.6974 43.5065 0.215926
275 2 39.5007 43.523 0.479815
276 2 43.5397 43.6873 0.261051
277 2 47.6035 43.6542 0.0199745
278 2 51.6199 43.4866 0.235591
279 2 55.6975 43.489 0.262377
280 2 59.5591 43.6035 0.265904
281 2 63.4104 43.5652 0.333617
282 2 67.1892 43.3753 0.404384
283 2 71.1552 43.6771 0.0783435
284 2 75.2315 43.4876 0.376604
285 2 79.2858 43.3895 0.30285
286 2 83.1682 43.6158 0.212346
287 2 87.3441 43.5312 0.141022
288 2 91.2962 43.49 0.255677
289 2 0.227402 47.4318 0.364394
290 2 4.01242 47.3557 0.243937
291 2 8.01396 47.3273 0.418816
292 2 11.9079 47.4644 0.317414
293 2 15.9422 47.565 0.350963
294 2 19.7865 47.3902 0.417339
295 2 23.8282 47.4011 0.342394
296 2 27.8203 47.7358 0.34544
297 2 31.7842 47.5905 0.246931
298 2 35.7647 47.39 0.264141
299 2 39.4631 47.5214 0.424359
300 2 43.4927 47.3393 0.149787
301 2 47.6874 47.5597 0.215894
302 2 51.6641 47.2871 0.298578
303 2 55.5298 47.5336 0.370535
304 2 59.5713 47.6708 0.318824
305 2 63.3099 47.2891 0.254517
306 2 67.2918 47.6975 0.201474
307 2 71.4062 47.4097 0.150748
308 2 75.357 47.4006 0.265465
309 2 79.2246 47.3744 0.245107
310 2 83.2538 47.5269 0.218914
311 2 87.0541 47.5174 0.336237
312 2 91.3098 47.5145 0.388585
313 2 0.171491 51.4998 0.120859
314 2 4.08853 51.5852 0.339923
315 2 7.98176 51.3551 0.279113
316 2 11.8586 51.3449 0.321154
317 2 15.8079 51.6642 0.335978
318 2 20.1797 51.5031 0.147563
319 2 23.855 51.2683 0.30921
320 2 27.9041 51.3241 0.420379
321 2 31.8182 51.3399 0.286251
322 2 35.6725 51.5615 0.255566
323 2 39.6627 51.4023 0.436723
324 2 43.6046 51.3723 0.266955
325 2 47.8127 51.414 0.219883
326 2 51.7312 51.433 0.274946
327 2 55.4717 51.4384 0.102354
328 2 59.3105 51.4308 0.258524
329 2 63.4016 51.5999 0.238963
330 2 67.3952 51.3845 0.375232
331 2 71.3725 51.3557 0.350794
332 2 75.2268 51.4304 0.194653
333 2 79.2171 51.4215 0.250526
334 2 83.3584 51.4724 0.196176
335 2 87.1929 51.5221 0.225906
336 2 91.2903 51.5915 0.217993
337 2 0.164233 55.3212 0.357294
338 2 3.97196 55.4617 0.312054
339 2 7.95693 55.2202 0.237213
340 2 11.9934 55.4746 0.390213
341 2 15.9679 55.2429 0.246807
342 2 19.7563 55.3638 0.187224
343 2 23.8264 55.3528 0.455118
344 2 27.8468 55.5509 0.0800952
345 2 31.7461 55.7368 0.0442515
346 2 35.6291 55.3009 0.106766
347 2 39.6893 55.3691 0.399605
348 2 43.8352 55.5016 0.299163
349 2 47.5894 55.442 0.281775
350 2 51.5417 55.3417 0.162075
351 2 55.5672 55.2685 0.192563
352 2 59.5104 55.5349 -0.0777213
353 2 63.3869 55.4156 0.221392
354 2 67.4364 55.1394 0.367333
355 2 71.3053 55.3135 0.133659
356 2 75.075 55.4118 0.0925786
357 2 79.2802 55.4374 0.190228
358 2 83.2951 55.4682 0.256541
359 2 87.4342 55.401 0.193551
360 2 91.2181 55.471 0.283158
361 2 0.185417 59.5136 0.0772555
362 2 4.24976 59.5833 0.369727
363 2 7.9222 59.0457 0.291525
364 2 11.9538 59.502 0.312466
365 2 16.1329 59.3544 0.138011
366 2 19.9026 59.3278 0.417007
367 2 23.7486 59.3911 0.446063
368 2 27.745 59.4889 0.518425
369 2 31.6246 59.5089 0.287386
370 2 35.8021 59.5102 0.329827
371 2 39.6275 59.2794 0.290683
372 2 43.6675 59.2775 0.396963
373 2 47.4398 59.3553 0.0960612
374 2 51.5844 59.4545 0.0909034
375 2 55.3405 59.3152 0.301671
376 2 59.4962 59.3829 0.260691
377 2 63.3922 59.2474 0.154945
378 2 67.1899 59.473 0.289433
379 2 71.16 59.3241 0.429152
380 2 75.218 59.2826 0.427915
381 2 79.0951 59.3261 0.379933
382 2 83.3592 59.4242 0.422969
383 2 86.9568 59.3391 0.193894
384 2 91.255 59.3751 0.420935
385 2 0.0455813 63.2328 0.263906
386 2 4.15255 63.441 0.268802
387 2 7.97939 63.61 0.113912
388 2 11.9827 63.4454 0.304249
389 2 15.9648 63.1531 0.24829
390 2 20.0334 63.3797 0.157818
391 2 23.9204 63.3611 0.23434
392 2 27.8892 63.3545 0.35185
393 2 31.5226 63.3593 0.173648
394 2 35.8322 63.3162 0.197433
395 2 39.7368 63.2093 0.168589
396 2 43.491 63.1973 0.217417
397 2 47.5806 63.3347 0.315901
398 2 51.6006 63.3868 0.230205
399 2 55.5669 63.2787 0.267978
400 2 59.3767 63.2308 0.446953
401 2 63.117 63.1583 0.316001
402 2 67.3107 63.3498 0.479415
403 2 71.3554 63.1474 0.348354
404 2 75.42 63.1881 0.192143
405 2 79.2453 63.1227 0.342861
406 2 83.0155 63.293 0.160962
407 2 87.0849 63.2441 0.152041
408 2 91.2362 63.3268 0.0617861
409 2 -0.0256927 67.1582 0.215898
410 2 3.84461 67.1544 0.402748
411 2 7.97132 67.5265 0.175755
412 2 11.7971 67.2454 0.330918
413 2 15.9321 67.5174 0.318712
414 2 19.9653 67.0554 0.196032
415 2 23.8533 67.299 0.291133
416 2 27.9837 67.3902 0.445784
417 2 31.8216 67.1538 0.278006
418 2 35.8029 67.0871 0.460152
419 2 39.7476 67.1682 0.246643
420 2 43.6333 67.0478 0.494443
421 2 47.6203 67.2889 0.0190705
422 2 51.4646 67.2283 0.301174
423 2 55.5182 67.1548 0.27511
424 2 59.4845 67.2805 0.349893
425 2 63.4039 67.2906 0.096311
426 2 67.2255 67.3262 0.18625
427 2 71.23 67.2418 0.329489
428 2 75.1754 67.2653 0.43181
429 2 79.3528 67.2215 0.444755
430 2 83.1173 67.4305 0.267103
431 2 87.3155 67.2011 0.186935
432 2 90.966 67.0968 0.278306
433 2 0.117628 71.0972 0.216784
434 2 4.03372 71.2336 0.280171
435 2 8.20563 71.2064 0.232822
436 2 12.1838 71.3048 0.4589
437 2 15.9615 71.2083 0.253652
438 2 20.0992 71.0749 0.250359
439 2 23.9373 71.3493 0.244354
440 2 27.8171 71.188 0.175029
441 2 31.6312 71.3478 0.369257
442 2 35.5654 71.1894 0.217536
443 2 39.5967 71.0684 0.207937
444 2 43.5391 71.0878 0.343841
445 2 47.7364 71.0966 0.335478
446 2 51.5504 71.2932 0.196271
447 2 55.4455 71.2945 0.188103
448 2 59.5666 71.0747 0.501362
449 2 63.5614 71.1621 0.254756
450 2 67.4451 71.339 0.343825
451 2 71.3513 71.2976 0.226719
452 2 75.4679 71.3182 0.365401
453 2 79.3895 71.4416 0.21122
454 2 83.3075 71.3504 0.246419
455 2 87.2228 71.2214 0.210128
456 2 90.9224 71.3254 0.48342
457 2 0.0247993 75.0777 0.229531
458 2 3.96023 75.3139 0.0751203
459 2 8.15548 75.3622 0.0475151
460 2 12.1111 75.3515 0.104178
461 2 16.0623 75.0001 0.228061
462 2 19.6934 75.2303 0.108568
463 2 24.0214 75.2742 0.195856
464 2 27.8369 75.3728 0.242737
465 2 31.7942 75.0747 0.161256
466 2 35.7741 75.2545 0.189284
467 2 39.5157 74.9315 0.376603
468 2 43.6306 75.1422 0.432055
469 2 47.7138 75.1827 0.120062
470 2 51.631 75.3316 0.324833
471 2 55.465 75.2267 0.229208
472 2 59.6729 75.175 0.236999
473 2 63.5804 75.3598 0.229543
474 2 67.2404 74.9207 0.36073
475 2 71.3808 75.1818 0.252403
476 2 75.3859 75.2945 0.327548
477 2 79.4462 75.291 0.364917
478 2 83.1134 75.3441 0.161672
479 2 87.1071 75.3389 0.200719
480 2 91.0914 75.2415 0.114734
481 2 0.07896 79.0091 0.237194
482 2 4.25743 79.055 0.151911
483 2 8.19575 79.0905 0.19465
484 2 12.1509 79.2326 0.187865
485 2 15.9697 79.1459 0.176241
486 2 20.0041 79.2146 0.492766
487 2 23.8809 79.2565 0.363212
488 2 27.9282 79.1597 0.27395
489 2 31.8484 79.2799 0.399139
490 2 35.8199 79.1129 0.177978
491 2 39.8596 79.113 0.0894132
492 2 43.5659 79.1639 0.338048
493 2 47.5152 79.0337 0.228931
494 2 51.5773 79.3171 0.303601
495 2 55.4472 79.2384 0.432604
496 2 59.5598 79.4195 0.112931
497 2 63.5263 79.2578 0.250415
498 2 67.18 79.1182 0.346259
499 2 71.2272 79.2599 0.29645
500 2 75.1247 79.1199 0.247409
501 2 79.3241 79.1504 0.172701
502 2 83.1735 79.2676 0.30007
503 2 87.1988 79.2808 0.450317
504 2 91.1194 79.1374 0.453676
505 2 -0.0021977 83.0671 0.399307
506 2 3.76857 83.1053 0.219697
507 2 7.90863 83.2773 0.0736703
508 2 11.9183 83.1463 0.538097
509 2 15.9293 83.2233 0.102558
510 2 19.9604 83.2187 0.377411
511 2 24.1421 83.2152 0.132246
512 2 27.932 83.0916 0.386055
513 2 31.9846 82.9853 0.422086
514 2 35.8919 82.9737 0.0735744
515 2 39.8996 82.8477 0.215499
516 2 43.7527 83.1386 0.190256
517 2 47.5701 83.0046 0.343386
518 2 51.5224 82.9825 0.261412
519 2 55.4647 83.3933 0.148086
520 2 59.5099 83.2015 0.304195
521 2 63.5732 83.1206 0.204161
522 2 67.3311 83.1715 0.360041
523 2 71.5294 83.0233 0.113792
524 2 75.3384 83.1719 0.104441
525 2 79.343 83.0225 0.249349
526 2 83.1294 83.3459 0.468575
527 2 87.1007 83.251 0.227796
528 2 91.1202 83.0382 0.312319
529 2 0.121763 87.0056 0.297193
530 2 3.95407 87.1832 0.277712
531 2 8.03631 87.1862 0.272639
532 2 12.0477 87.2076 0.277069
533 2 15.9825 87.0408 0.2501
534 2 19.8408 87.2345 0.0974249
535 2 23.8966 87.0354 0.0669113
536 2 28.0067 87.2304 0.196543
537 2 31.8339 87.1819 0.159111
538 2 35.7166 86.8569 0.353188
539 2 39.6568 86.9797 0.0151636
540 2 43.4706 87.0414 0.227088
541 2 47.7809 87.0104 0.307058
542 2 51.6685 86.9088 0.214608
543 2 55.5014 87.1193 0.0790042
544 2 59.4581 87.1215 0.269856
545 2 63.3261 87.2143 0.315939
546 2 67.2438 87.2895 0.292971
547 2 71.3667 87.2736 0.156917
548 2 75.1425 87.0266 0.382129
549 2 79.3812 87.0559 0.253291
550 2 83.1812 87.1488 0.314977
551 2 87.0846 87.063 0.326858
552 2 91.0797 87.1642 0.347127
553 2 -0.0587331 91.097 0.24541
554 2 3.9015 91.0291 0.199455
555 2 8.03816 90.8477 0.44797
556 2 11.9185 91.1051 0.262716
557 2 15.8231 91.0307 0.453325
558 2 19.8258 90.9482 0.357501
559 2 23.791 91.2374 0.252156
560 2 27.7726 90.7589 0.0524623
561 2 31.751 91.053 0.187806
562 2 35.8326 90.945 0.270263
563 2 39.8418 91.0966 0.254199
564 2 43.6607 91.1511 0.496447
565 2 47.5976 90.9904 0.341662
566 2 51.7062 90.9715 0.183286
567 2 55.3924 90.9592 0.204568
568 2 59.2496 91.1788 0.160767
569 2 63.3702 91.1648 0.216664
570 2 67.4447 91.1725 0.107267
571 2 71.3532 91.0765 0.213514
572 2 75.3534 90.9051 0.383302
573 2 79.371 91.099 0.178308
574 2 83.3517 91.0414 0.246598
575 2 87.1232 90.9933 0.414501
576 2 91.0929 91.0741 0.371347
577 2 0.0721382 0.0444916 4.30018
578 2 4.03624 0.00692735 4.30112
579 2 8.19628 0.153127 4.24235
580 2 12.0181 -0.191219 4.34026
581 2 16.0218 0.0708622 4.35008
582 2 20.0951 -0.145176 4.27657
583 2 24.0127 0.048179 4.47568
584 2 27.9419 0.0346632 4.19875
585 2 31.8249 0.0977372 4.15418
586 2 35.7143 -0.042103 4.16313
587 2 39.6682 -6.14716e-05 4.26228
588 2 43.6717 -0.191929 4.28575
589 2 47.6962 0.0630991 4.31147
590 2 51.5706 -0.0142754 4.44975
591 2 55.398 0.0305526 4.41465
592 2 59.4174 0.137157 4.08721
593 2 63.5178 0.105433 4.22412
594 2 67.2568 0.066429 4.0477
595 2 71.1871 -0.0248651 4.41569
596 2 75.1714 -0.218979 4.29502
597 2 79.1634 0.118025 4.34128
598 2 83.0403 -0.0706096 4.28919
599 2 87.0451 0.0914644 4.41761
600 2 91.0605 -0.096795 4.33842
601 2 0.00965191 4.00781 4.26947
602 2 3.85864 3.98204 4.16911
603 2 7.91712 4.05451 4.35077
604 2 12.0699 3.85064 4.475
605 2 15.8352 3.85076 4.37028
606 2 19.8406 4.04361 4.18274
607 2 23.9635 3.99265 4.31032
608 2 27.851 4.09764 4.17601
609 2 31.8552 3.98107 4.18248
610 2 35.7285 4.10076 4.22763
611 2 39.554 4.00215 4.25043
612 2 43.7668 3.92552 4.01039
613 2 47.6947 4.07294 4.28579
614 2 51.6342 4.07193 3.86339
615 2 55.3544 4.15359 4.03375
616 2 59.5449 3.91481 4.21127
617 2 63.337 3.98704 4.13948
618 2 67.2845 3.93027 4.22439
619 2 71.0967 4.08356 4.27393
620 2 75.1992 3.99852 4.26138
621 2 79.1181 3.95754 4.28189
622 2 83.1768 4.13575 4.18544
623 2 87.0925 3.96338 4.34952
624 2 91.0622 4.02817 4.32716
625 2 -0.132963 7.91914 4.35385
626 2 3.82057 7.85264 4.30868
627 2 7.8469 7.88362 4.18218
628 2 11.9281 7.90629 4.13944
629 2 16.0622 7.72763 4.11432
630 2 19.9239 8.0555 4.43249
631 2 23.8024 7.94829 4.36931
632 2 27.8007 7.99127 4.27537
633 2 31.7898 7.79635 4.30619
634 2 35.8199 7.9547 4.16908
635 2 39.5642 8.0101 4.1862
636 2 43.7305 7.81582 4.34412
637 2 47.6326 7.82705 4.31989
638 2 51.7564 8.02872 4.09964
639 2 55.4636 8.01756 4.15995
640 2 59.5115 7.91587 4.31011
641 2 63.5069 7.9789 4.2548
642 2 67.5108 7.95555 4.21814
643 2 71.4191 8.12935 4.11734
644 2 75.4594 7.9434 4.04294
645 2 79.3582 8.21403 4.34278
646 2 83.2475 8.09275 4.25405
647 2 87.14 8.05633 4.26272
648 2 91.1119 7.90945 4.28786
649 2 -0.00965986 11.9001 4.48936
650 2 4.14282 11.9025 4.16033
651 2 7.87864 11.6291 4.25794
652 2 11.9401 12.0044 4.38464
653 2 15.9296 11.6936 4.13111
654 2 19.9375 11.8597 4.34564
655 2 23.9616 11.7311 4.31174
656 2 28.0193 11.8142 4.26457
657 2 31.8211 11.8837 4.34714
658 2 35.7855 11.8794 4.22848
659 2 39.6135 11.8571 4.31046
660 2 43.6962 11.7903 4.30631
661 2 47.6428 11.6317 4.1859
662 2 51.5338 11.8664 4.31507
663 2 55.587 12.013 3.99782
664 2 59.558 11.9046 4.20418
665 2 63.5881 11.8245 4.26099
666 2 67.2438 11.9359 4.34329
667 2 71.4181 12.0789 4.19026
668 2 75.1986 12.058 4.26865
669 2 79.2815 12.0838 4.08611
670 2 83.1425 12.147 4.15095
671 2 87.2422 12.022 4.25246
672 2 91.0817 11.7658 4.24393
673 2 -0.0762348 15.7129 4.26354
674 2 4.17654 15.8156 4.24873
675 2 8.10423 15.6439 4.22679
676 2 12.0719 15.8236 4.20385
677 2 15.8734 15.7091 4.19231
678 2 19.7722 15.7823 4.07302
679 2 23.6169 15.6844 4.12884
680 2 27.8122 15.7644 4.2966
681 2 31.7746 15.8578 4.0925
682 2 35.5861 15.8785 4.34302
683 2 39.5543 15.5502 4.26641
684 2 43.6419 15.8497 4.04297
685 2 47.6841 15.8681 4.13655
686 2 51.7856 15.9118 4.28533
687 2 55.4461 15.9442 4.20139
688 2 59.5238 15.897 4.21466
689 2 63.4861 15.8909 4.05293
690 2 67.3378 15.9961 4.32791
691 2 71.4526 16.0719 4.32889
692 2 75.3768 16.0347 4.1658
693 2 79.2569 15.7635 4.33233
694 2 83.2717 15.949 4.28571
695 2 87.1881 15.9436 4.44609
696 2 90.9418 15.9236 4.22076
697 2 0.0996263 19.7415 4.16921
698 2 4.12694 20.0071 4.21566
699 2 8.04579 19.7525 4.12353
700 2 12.1084 20.2333 3.96122
701 2 16.0089 19.91 4.19552
702 2 19.8023 19.7262 4.19828
703 2 24.0978 19.7825 4.16674
704 2 27.8437 19.7793 4.17204
705 2 31.6735 19.7497 4.13332
706 2 35.6401 19.7969 4.24022
707 2 39.5316 19.6818 4.13838
708 2 43.8197 19.7579 4.22842
709 2 47.697 19.7164 3.96493
710 2 51.6162 19.7369 4.18327
711 2 55.6239 19.7917 4.27314
712 2 59.4339 19.8394 4.24457
713 2 63.3003 20.0824 4.2308
714 2 67.3267 19.9406 4.21191
715 2 71.4539 19.8587 4.214
716 2 75.3695 20.0514 4.15932
717 2 79.2185 19.8445 4.24357
718 2 83.1569 19.8527 4.34581
719 2 87.1994 19.8688 4.29238
720 2 91.0991 19.807 4.16192
721 2 0.291893 23.6472 4.37808
722 2 4.12207 23.6089 4.14415
723 2 7.98092 23.7129 4.16489
724 2 11.945 23.9412 4.06424
725 2 15.8287 23.9652 4.1951
726 2 19.8102 23.7033 4.16667
727 2 23.8726 23.6125 4.22511
728 2 27.8415 23.8614 4.13157
729 2 31.8256 23.8254 4.09776
730 2 35.9126 23.4918 4.18702
731 2 39.8239 23.6154 4.06708
732 2 43.6296 23.6395 4.34869
733 2 47.6318 23.6292 4.04168
734 2 51.5524 23.6411 4.16774
735 2 55.4334 23.8746 4.29342
736 2 59.5424 23.9542 4.20272
737 2 63.2412 23.811 4.23205
738 2 67.288 23.891 4.11688
739 2 71.4095 23.7286 4.07779
740 2 75.2381 23.9267 4.09596
741 2 79.3784 23.6371 4.28466
742 2 83.2866 23.7793 4.31482
743 2 87.2356 23.6752 4.26104
744 2 91.0805 23.484 4.23943
745 2 0.152087 27.6295 4.22692
746 2 4.06054 27.4437 4.11553
747 2 8.03165 27.3457 4.0128
748 2 11.7221 27.7113 3.93967
749 2 16.005 27.9264 4.34509
750 2 19.8503 27.9723 4.25892
751 2 23.8243 27.7852 4.32787
752 2 27.6899 27.6627 4.25041
753 2 31.8508 27.9541 4.22667
754 2 35.7411 27.5576 4.37855
755 2 39.7185 27.7611 4.24615
756 2 43.643 27.7306 4.24607
757 2 47.5284 27.7966 4.25594
758 2 51.4483 27.8678 4.23269
759 2 55.5419 27.7241 4.26698
760 2 59.5124 27.7474 4.02056
761 2 63.482 27.7076 4.15272
762 2 67.4298 27.7993 4.11101
763 2 71.2507 27.9055 4.13039
764 2 75.3692 27.7046 4.08615
765 2 79.307 27.8423 4.21288
766 2 83.3827 28.0416 4.21349
767 2 87.0421 27.6826 4.29151
768 2 91.0549 27.7002 4.30638
769 2 0.22801 31.4656 4.38206
770 2 4.19414 31.7271 4.38284
771 2 7.87739 31.5801 4.32307
772 2 11.7137 31.616 4.38219
773 2 15.8318 31.5697 4.31813
774 2 19.8597 31.5946 4.31383
775 2 23.8902 31.7417 4.16112
776 2 27.8228 31.7346 4.06465
777 2 31.7399 31.6574 4.2877
778 2 35.7771 31.5793 4.22205
779 2 39.6368 31.6649 4.32061
780 2 43.6078 31.6344 4.32495
781 2 47.4628 31.8118 4.26218
782 2 51.7547 31.666 4.18075
783 2 55.6867 31.7491 4.13348
784 2 59.584 31.6454 4.08577
785 2 63.5061 31.6838 4.02311
786 2 67.254 31.5945 4.23365
787 2 71.3987 31.6009 4.2064
788 2 75.3174 31.6538 4.33475
789 2 79.2797 31.6597 3.9695
790 2 83.3309 31.6743 4.17337
791 2 87.2375 31.6323 4.21733
792 2 91.2669 31.7599 4.20693
793 2 0.125878 35.6212 4.41056
794 2 4.01905 35.6 4.31467
795 2 7.96214 35.7272 4.16407
796 2 12.2096 35.6273 4.23377
797 2 15.8633 35.4456 4.33699
798 2 19.8829 35.5081 4.2806
799 2 23.7503 35.587 4.32995
800 2 27.7744 35.7091 4.23118
801 2 31.6891 35.6051 4.24003
802 2 35.6719 35.7408 4.20572
803 2 39.6829 35.6559 4.37467
804 2 43.5007 35.6699 4.43392
805 2 47.5935 35.7618 4.12231
806 2 51.3833 35.6481 4.10379
807 2 55.5366 35.573 4.13192
808 2 59.6005 35.856 4.14473
809 2 63.5017 35.5449 4.24088
810 2 67.4667 35.665 4.10584
811 2 71.2808 35.5923 4.13887
812 2 75.3795 35.682 4.23785
813 2 79.456 35.7042 4.06624
814 2 83.2456 35.6672 4.32703
815 2 87.3802 35.6194 4.37231
816 2 91.2518 35.5965 4.35408
817 2 0.128268 39.6742 4.34854
818 2 4.26227 39.4994 4.29295
819 2 8.15255 39.641 4.31544
820 2 11.9643 39.624 4.22547
821 2 16.0342 39.4016 4.30375
822 2 19.9094 39.5947 4.38713
823 2 23.7753 39.3952 4.21428
824 2 27.9115 39.5801 4.22317
825 2 31.7407 39.6977 4.30691
826 2 35.5621 39.6085 4.3588
827 2 39.5325 39.5388 4.25602
828 2 43.7635 39.6043 4.237
829 2 47.5468 39.5225 4.25879
830 2 51.423 39.6882 4.2709
831 2 55.4377 39.7935 4.23112
832 2 59.5993 39.5364 4.20534
833 2 63.4937 39.4899 4.1997
834 2 67.4487 39.5303 4.25049
835 2 71.5626 39.4769 4.12655
836 2 75.4776 39.6555 4.24224
837 2 79.3761 39.696 4.28189
838 2 83.4485 39.7038 4.22632
839 2 87.2471 39.6324 4.26489
840 2 91.1414 39.642 4.35536
841 2 0.271152 43.3516 4.26104
842 2 4.03166 43.426 4.30944
843 2 8.06857 43.5128 4.3912
844 2 12.1902 43.4313 4.36194
845 2 15.903 43.6686 4.33371
846 2 19.8526 43.5149 4.3602
847 2 23.7919 43.6933 4.20818
848 2 27.6895 43.6382 4.27809
849 2 31.5739 43.7753 4.22099
850 2 35.4681 43.6455 4.21104
851 2 39.6505 43.3526 4.23924
852 2 43.648 43.5577 4.21068
853 2 47.6707 43.6866 4.14759
854 2 51.5893 43.4499 4.25973
855 2 55.5184 43.6972 4.30041
856 2 59.4297 43.3763 4.2808
857 2 63.5171 43.5323 4.18123
858 2 67.5906 43.5571 4.15054
859 2 71.5205 43.4635 4.09139
860 2 75.5208 43.4534 4.10575
861 2 79.2489 43.7607 4.24213
862 2 83.139 43.7997 4.30957
863 2 87.1474 43.5803 4.15581
864 2 91.3028 43.5748 4.22901
865 2 0.329076 47.7367 4.19215
866 2 4.13344 47.5389 4.24191
867 2 7.89849 47.4701 4.2699
868 2 11.8826 47.6219 4.29681
869 2 15.9896 47.6068 4.17921
870 2 20.0455 47.5585 4.18236
871 2 23.9153 47.584 4.29125
872 2 27.8545 47.564 4.44596
873 2 31.6914 47.4621 4.40622
874 2 35.741 47.4463 4.38012
875 2 39.576 47.3476 4.4745
876 2 43.7616 47.2388 4.40238
877 2 47.5901 47.3403 4.36529
878 2 51.6194 47.2885 4.23894
879 2 55.442 47.486 4.24415
880 2 59.4145 47.5105 4.21946
881 2 63.2536 47.5763 4.22218
882 2 67.3433 47.4876 4.4234
883 2 71.3831 47.4312 4.04641
884 2 75.2591 47.5667 4.06617
885 2 79.458 47.6697 4.21949
886 2 83.075 47.6029 4.24248
887 2 87.2323 47.762 4.04542
888 2 91.3432 47.5003 4.28629
889 2 -0.0762882 51.4544 4.26789
890 2 3.93179 51.5728 4.30539
891 2 8.19814 51.4197 4.04108
892 2 11.9097 51.5281 4.30922
893 2 15.806 51.5529 4.38572
894 2 19.8509 51.6763 4.20351
895 2 23.838 51.5728 4.25818
896 2 27.8564 51.7327 4.32496
897 2 31.7002 51.577 4.37331
898 2 35.6053 51.5405 4.15222
899 2 39.6287 51.5576 4.2576
900 2 43.7318 51.3368 4.01576
901 2 47.4051 51.6261 4.27047
902 2 51.542 51.3666 4.34416
903 2 55.4462 51.5134 4.19037
904 2 59.1846 51.5739 4.13011
905 2 63.192 51.283 4.16944
906 2 67.2473 51.6907 4.33482
907 2 71.2797 51.543 4.27118
908 2 75.3445 51.4846 4.19869
909 2 79.3239 51.4994 4.24736
910 2 83.233 51.5182 4.18617
911 2 87.3705 51.5002 4.20479
912 2 91.14 51.4921 4.43701
913 2 0.0286894 55.4549 4.18736
914 2 4.22166 55.5081 4.31656
915 2 8.05147 55.3064 4.28549
916 2 11.8298 55.5618 4.32254
917 2 15.8192 55.3922 4.36496
918 2 19.8687 55.39 4.24692
919 2 23.8947 55.4814 4.26841
920 2 27.7791 55.4575 4.18083
921 2 31.8801 55.629 4.24728
922 2 35.4853 55.6241 4.3463
923 2 39.8118 55.3727 4.20221
924 2 43.7938 55.2931 4.21335
925 2 47.4752 55.4494 4.22572
926 2 51.5701 55.5735 4.06643
927 2 55.3906 55.4039 4.17481
928 2 59.211 55.444 4.10136
929 2 63.5783 55.5946 4.10632
930 2 67.4169 55.3738 4.33344
931 2 71.3828 55.3884 4.3127
932 2 75.4154 55.4364 4.29337
933 2 79.3328 55.2677 4.27429
934 2 83.3257 55.5115 4.20351
935 2 87.0636 55.4166 4.51477
936 2 91.1363 55.5039 4.21253
937 2 0.271179 59.4271 4.28617
938 2 4.35457 59.4199 4.19097
939 2 8.14543 59.2784 4.15284
940 2 11.9494 59.493 4.24953
941 2 15.8476 59.3553 4.1699
942 2 19.9006 59.4781 4.24369
943 2 23.7525 59.4427 4.47757
944 2 27.7635 59.342 4.19559
945 2 31.9817 59.532 4.1124
946 2 36.0061 59.386 4.19431
947 2 39.6 59.2917 4.1494
948 2 43.5887 59.433 4.23128
949 2 47.6292 59.4654 3.99196
950 2 51.3467 59.4625 4.04683
951 2 55.6041 59.1491 4.27318
952 2 59.3793 59.3725 4.32824
953 2 63.4687 59.1781 4.2578
954 2 67.4222 59.3815 4.22214
955 2 71.453 59.458 4.33558
956 2 75.3163 59.3514 4.4133
957 2 79.2379 59.4651 4.35776
958 2 83.1647 59.3493 4.27734
959 2 87.4071 59.4485 4.15214
960 2 91.2399 59.319 4.13063
961 2 0.130155 63.1634 4.3275
962 2 4.07899 63.2175 4.18967
963 2 8.11461 63.3781 4.28087
964 2 11.9813 63.5132 4.18271
965 2 16.0506 63.5069 4.23324
966 2 19.7489 63.4984 4.36319
967 2 23.9796 63.3567 4.17169
968 2 27.836 63.5576 4.42581
969 2 32.0187 63.5176 4.27288
970 2 35.8238 63.3165 4.41809
971 2 39.8937 63.4752 4.3203
972 2 43.5399 63.3481 4.2422
973 2 47.635 63.5411 4.31911
974 2 51.3828 63.4576 4.05561
975 2 55.4777 63.3191 4.17581
976 2 59.3304 63.4688 4.21297