ITEM: TIMESTEP
53900
ITEM: NUMBER OF ATOMS
43200
ITEM: BOX BOUNDS xy xz yz pp pp pp
0.0000000000000000e+00 9.4992000000000004e+01 0.0000000000000000e+00
0.0000000000000000e+00 9.4992000000000004e+01 0.0000000000000000e+00
-2.1276301596877545e-02 5.9721276301597896e+01 0.0000000000000000e+00
ITEM: ATOMS id type x y z
1 2 -0.0625669 0.248685 0.118575
2 2 3.92282 -0.193106 0.0920729
3 2 8.05757 0.057295 0.245291
4 2 12.0546 -0.0279079 0.1298
5 2 16.1297 0.0618564 0.0767237
6 2 20.0836 0.00291904 0.189143
7 2 23.8295 0.00109589 0.180834
8 2 27.9083 0.00705857 0.153831
9 2 31.8994 0.195833 0.244433
10 2 35.723 0.033423 0.44476
11 2 39.7466 0.118535 0.162383
12 2 43.7989 0.102836 0.237654
13 2 47.6727 0.057745 0.346503
14 2 51.6433 0.0761145 0.146726
15 2 55.5647 -0.096266 0.272066
16 2 59.4236 0.00410611 0.33687
17 2 63.4491 0.0686578 0.133753
18 2 67.4282 -0.0412572 0.387989
19 2 71.3396 -0.241011 0.290483
20 2 75.2282 0.0622519 0.290104
21 2 79.239 0.0127892 0.192426
22 2 83.2586 -0.028912 0.300176
23 2 87.1362 0.121098 0.188271
24 2 91.0294 -0.0874985 0.286223
25 2 0.0634367 3.99714 0.316866
26 2 4.09093 3.91054 0.0542846
27 2 7.83122 3.85892 0.144638
28 2 12.1198 4.13499 0.229315
29 2 16.0749 3.91637 0.0592778
30 2 20.008 4.09313 0.212538
31 2 23.6836 3.91059 0.392575
32 2 27.82 3.98561 0.0653198
33 2 31.8216 4.05679 0.329482
34 2 35.7046 3.98874 0.325641
35 2 39.6363 4.1256 0.212848
36 2 43.6926 3.98653 0.0799373
37 2 47.4755 4.17567 0.217241
38 2 51.4565 4.00587 0.35044
39 2 55.5877 4.15323 0.147626
40 2 59.4933 3.85673 0.249168
41 2 63.4712 3.92858 0.365179
42 2 67.4421 3.89973 0.319118
43 2 71.3235 3.93483 0.379959
44 2 75.086 3.99887 0.323021
45 2 79.2546 3.83139 0.271843
46 2 83.1829 4.06639 0.134278
47 2 87.0069 4.13715 0.284402
48 2 91.2199 4.02819 0.0621611
49 2 0.261439 7.8214 0.26439
50 2 4.23107 7.74428 0.166005
51 2 8.06251 7.73139 0.230028
52 2 12.1175 7.84017 0.224171
53 2 15.8614 7.89502 0.280759
54 2 19.9705 8.13012 0.274407
55 2 23.866 7.98451 0.146031
56 2 27.9097 7.99303 0.290205
57 2 31.967 8.00488 0.222034
58 2 35.995 7.90594 0.201364
59 2 39.714 8.05558 0.0589771
60 2 43.5717 7.94177 0.331808
61 2 47.7521 7.88291 0.221206
62 2 51.5846 7.96103 0.154858
63 2 55.3347 7.95753 0.355519
64 2 59.437 7.92528 0.207686
65 2 63.4886 7.86637 0.223014
66 2 67.5445 7.95208 0.0412386
67 2 71.2922 7.92093 0.219029
68 2 75.28 7.81536 0.2435
69 2 79.3479 7.71251 0.122892
70 2 83.165 7.82476 0.0981918
71 2 87.2213 7.89144 0.162734
72 2 91.3562 7.94591 -0.00744543
73 2 0.261217 11.8255 0.116835
74 2 4.11737 11.8226 0.0545466
75 2 8.22143 11.908 0.00167415
76 2 11.8659 11.8071 0.164641
77 2 15.8717 12.1595 0.197162
78 2 19.8186 11.975 0.33599
79 2 23.7613 11.9109 0.273188
80 2 27.8984 11.6777 0.256464
81 2 31.8274 11.927 0.167351
82 2 35.7384 11.9478 0.188557
83 2 39.681 11.9861 0.198923
84 2 43.738 11.9266 0.186857
85 2 47.6865 11.6911 0.121071
86 2 51.6659 11.7883 0.154399
87 2 55.5652 11.8332 0.192936
88 2 59.5868 11.9221 0.244735
89 2 63.5495 11.8881 0.229367
90 2 67.4596 11.8094 0.154985
91 2 71.4008 11.7836 0.24328
92 2 75.4679 11.8242 0.132653
93 2 79.0167 11.809 0.1762
94 2 83.134 11.7369 0.237945
95 2 87.206 11.952 0.268022
96 2 91.0455 11.7498 0.0754023
97 2 0.31939 15.667 0.135433
98 2 4.15527 15.7667 0.25097
99 2 8.08225 15.689 0.300697
100 2 11.7854 15.7824 0.199831
101 2 15.9327 15.887 0.30134
102 2 20.0261 15.9587 0.161744
103 2 23.9089 15.8674 0.300779
104 2 27.5933 15.8309 0.303367
105 2 31.7311 15.6871 0.200961
106 2 35.7996 15.9898 0.232092
107 2 39.7513 15.774 0.298695
108 2 43.686 15.9384 0.124918
109 2 47.7934 15.8377 0.216261
110 2 51.4909 15.7843 0.468044
111 2 55.3111 15.8423 0.166715
112 2 59.497 15.9249 0.191645
113 2 63.4982 15.9365 0.296548
114 2 67.4412 15.8617 0.401317
115 2 71.3114 15.7655 0.417575
116 2 75.3913 15.7923 0.140367
117 2 79.3857 15.929 0.230801
118 2 83.2579 15.7223 0.147218
119 2 87.3154 15.9417 0.202823
120 2 91.1874 15.7471 0.131414
121 2 -0.0370368 19.6183 0.250935
122 2 3.88271 19.7676 0.301032
123 2 7.90938 19.8403 0.280143
124 2 11.9062 19.8159 0.339975
125 2 15.8836 19.9457 0.222139
126 2 19.728 19.7093 0.111159
127 2 23.856 19.7356 0.401741
128 2 27.9709 19.7994 0.124265
129 2 31.8387 19.6059 0.222867
130 2 35.6852 19.8841 0.085314
131 2 39.7701 19.7645 0.173568
132 2 43.6952 19.8345 0.2212
133 2 47.7856 19.8828 0.207045
134 2 51.5968 19.6895 0.361504
135 2 55.4261 19.6588 0.481888
136 2 59.4675 19.8565 0.372687
137 2 63.4746 19.6732 0.178428
138 2 67.3187 19.9804 0.418601
139 2 71.3661 19.6065 -0.00591072
140 2 75.3457 19.6731 0.226276
141 2 79.3058 19.7998 0.253743
142 2 83.2281 19.9505 0.28929
143 2 87.1713 19.7708 0.233922
144 2 91.1424 19.8106 0.112323
145 2 0.0100947 23.6391 0.222026
146 2 3.98169 23.6614 0.498094
147 2 7.93436 23.5932 0.293065
148 2 11.829 23.7881 0.251041
149 2 15.7375 23.6761 0.233512
150 2 19.9267 23.687 0.314203
151 2 23.784 23.6876 0.298501
152 2 27.6823 23.5738 0.23056
153 2 31.6057 23.7547 0.175477
154 2 35.6693 23.6349 0.246314
155 2 39.6523 23.7356 0.0557499
156 2 43.6361 23.6521 0.362132
157 2 47.6404 23.9307 0.264635
158 2 51.4484 23.7536 0.413777
159 2 55.3963 23.7334 0.128423
160 2 59.4418 23.7614 0.384329
161 2 63.4161 23.8119 0.169159
162 2 67.2577 23.691 0.169109
163 2 71.3188 23.8564 0.21851
164 2 75.3159 23.6672 0.0944359
165 2 79.2405 23.6806 0.399949
166 2 83.2844 23.6872 0.266701
167 2 87.2191 23.6282 0.225322
168 2 91.1894 23.7237 0.239585
169 2 0.205464 27.7424 0.226217
170 2 4.07403 27.4971 0.287118
171 2 7.98763 27.7107 0.255547
172 2 11.8126 27.7562 0.244337
173 2 16.1087 27.4942 0.375051
174 2 19.8943 27.7426 0.296704
175 2 23.9854 27.6248 0.247507
176 2 27.6428 27.6063 0.115405
177 2 31.7237 27.6245 0.313445
178 2 35.8099 27.7502 0.289758
179 2 39.5907 27.6544 0.294815
180 2 43.53 27.6381 0.238688
181 2 47.5106 27.581 0.520141
182 2 51.6048 27.554 0.379153
183 2 55.4128 27.5785 0.315976
184 2 59.6663 27.7273 0.310842
185 2 63.6038 27.8202 0.213404
186 2 67.3217 27.9581 0.132167
187 2 71.6081 27.7335 0.136444
188 2 75.562 27.5269 0.233607
189 2 79.323 27.5595 0.200184
190 2 83.2112 27.5678 0.242292
191 2 87.2141 27.7265 0.14466
192 2 91.2412 27.4571 0.116629
193 2 0.168607 31.5681 0.242438
194 2 4.18707 31.6328 0.0743314
195 2 7.84326 31.6521 0.179716
196 2 11.9467 31.6677 0.154674
197 2 15.8645 31.8461 0.0200735
198 2 19.8713 31.6337 0.256259
199 2 23.9718 31.6004 0.145868
200 2 27.9382 31.6133 0.221448
201 2 31.8144 31.6794 0.0792116
202 2 35.5798 31.6906 0.220094
203 2 39.722 31.6779 0.180695
204 2 43.5672 31.6205 0.236633
205 2 47.635 31.6708 0.297899
206 2 51.4857 31.6596 0.125329
207 2 55.5611 31.5164 0.1496
208 2 59.5295 31.6371 0.304545
209 2 63.516 31.8199 0.136142
210 2 67.4621 31.8143 0.295955
211 2 71.5085 31.575 0.368731
212 2 75.5002 31.7324 0.165152
213 2 79.2452 31.6935 0.120111
214 2 83.2875 31.6928 0.295381
215 2 87.2343 31.6497 0.164896
216 2 91.1382 31.6325 0.296797
217 2 0.0741473 35.6081 0.0437746
218 2 3.98105 35.5236 0.215583
219 2 7.87848 35.6817 0.137903
220 2 11.9242 35.5206 0.229066
221 2 15.6846 35.6113 0.187997
222 2 19.9802 35.6201 0.279016
223 2 23.8904 35.6309 0.267378
224 2 27.7944 35.4636 0.172299
225 2 31.7318 35.6084 0.219632
226 2 35.659 35.5757 0.412299
227 2 39.8663 35.5844 0.281632
228 2 43.7698 35.5032 0.360845
229 2 47.5648 35.4982 0.322032
230 2 51.4846 35.4314 0.232258
231 2 55.6448 35.3041 0.319862
232 2 59.4843 35.558 0.331919
233 2 63.4108 35.6447 0.271692
234 2 67.5226 35.593 0.130303
235 2 71.5776 35.5102 0.244614
236 2 75.406 35.7045 0.390274
237 2 79.3675 35.6148 0.43267
238 2 83.1257 35.4708 0.35779
239 2 87.1613 35.7335 0.247071
240 2 91.0771 35.5205 0.214723
241 2 0.11632 39.5074 0.190614
242 2 3.95295 39.6395 0.209017
243 2 7.89994 39.5946 0.373473
244 2 11.8451 39.5323 0.298656
245 2 15.8754 39.4284 0.347264
246 2 19.9255 39.5661 0.266278
247 2 23.8978 39.6789 0.438563
248 2 27.7992 39.3599 0.239288
249 2 31.8751 39.5968 0.326959
250 2 35.8894 39.453 0.352833
251 2 39.7109 39.493 0.101657
252 2 43.7485 39.5488 0.281923
253 2 47.4405 39.6441 0.282386
254 2 51.3025 39.4494 0.471815
255 2 55.3337 39.3845 0.418157
256 2 59.2906 39.4879 0.250202
257 2 63.4365 39.4495 0.350691
258 2 67.5935 39.3771 0.188526
259 2 71.2748 39.6551 0.322678
260 2 75.5081 39.6776 0.39025
261 2 79.216 39.5808 0.368108
262 2 83.1617 39.5277 0.183811
263 2 86.9991 39.6079 0.272443
264 2 91.2099 39.3261 0.148154
265 2 0.127664 43.5299 0.113066
266 2 4.06268 43.7012 0.289993
267 2 8.0556 43.6297 0.224122
268 2 12.105 43.5145 0.277285
269 2 15.8837 43.4936 0.161625
270 2 20.0312 43.6312 0.223066
271 2 23.8781 43.5149 0.365442
272 2 27.8484 43.6024 0.256093
273 2 31.8362 43.6363 0.199594
274 2 35.7199 43.2727 0.271421
275 2 39.5976 43.4688 0.245054
276 2 43.5959 43.5192 0.183947
277 2 47.7058 43.6248 0.25395
278 2 51.5768 43.4046 0.322456
279 2 55.431 43.3463 0.107171
280 2 59.6182 43.5042 0.220691
281 2 63.4641 43.527 0.273574
282 2 67.3797 43.481 0.394803
283 2 71.2164 43.4186 0.289872
284 2 75.1647 43.6072 0.0802517
285 2 79.1948 43.5947 0.266205
286 2 83.2637 43.3962 0.415947
287 2 87.3095 43.3354 0.103075
288 2 91.1522 43.4536 0.257663
289 2 0.176988 47.4531 0.20904
290 2 4.11295 47.3032 0.193993
291 2 8.13847 47.4837 0.365276
292 2 12.104 47.4796 0.259197
293 2 16.0593 47.4686 0.207079
294 2 19.8684 47.6566 0.135554
295 2 23.8883 47.4765 0.23363
296 2 27.7325 47.5059 0.207323
297 2 31.9141 47.4286 0.277983
298 2 35.8294 47.3427 0.283252
299 2 39.6023 47.3723 0.264293
300 2 43.6425 47.5442 0.188423
301 2 47.5976 47.4565 0.436554
302 2 51.6034 47.5081 0.320225
303 2 55.3034 47.2921 0.285534
304 2 59.2706 47.3092 0.352381
305 2 63.4338 47.4905 0.341691
306 2 67.5186 47.5976 0.19242
307 2 71.306 47.3955 0.264424
308 2 75.3239 47.4604 0.269539
309 2 79.1887 47.4358 0.45228
310 2 83.223 47.4475 -0.0493009
311 2 87.3134 47.4058 0.086006
312 2 91.1923 47.4986 0.11094
313 2 -0.0285485 51.4381 0.289434
314 2 3.90558 51.3932 0.553857
315 2 8.15058 51.5128 0.215964
316 2 11.9967 51.4361 0.569018
317 2 15.8921 51.4648 0.34115
318 2 19.8359 51.5288 0.18523
319 2 23.9057 51.256 0.226773
320 2 27.7765 51.3926 0.282444
321 2 31.9118 51.3535 0.341349
322 2 35.9007 51.338 0.440993
323 2 39.6484 51.2971 0.42811
324 2 43.6823 51.3436 0.27124
325 2 47.6709 51.4049 0.329806
326 2 51.4924 51.3884 0.502866
327 2 55.3846 51.4488 0.34624
328 2 59.2766 51.4227 0.402994
329 2 63.3597 51.5364 0.31881
330 2 67.1665 51.5492 0.150326
331 2 71.0871 51.4204 0.402516
332 2 75.1206 51.3209 0.493715
333 2 79.2391 51.541 0.260104
334 2 83.196 51.3791 0.323402
335 2 87.2681 51.4599 0.301183
336 2 91.1188 51.4354 0.274222
337 2 0.145899 55.3827 0.179734
338 2 4.17326 55.2871 0.192158
339 2 7.90277 55.2973 0.304703
340 2 11.7084 55.4891 0.184297
341 2 15.8759 55.3605 0.275221
342 2 19.8707 55.4299 0.376433
343 2 23.7022 55.644 0.288101
344 2 27.8063 55.3059 0.268196
345 2 31.7677 55.3811 0.367945
346 2 35.7034 55.3856 0.218301
347 2 39.9989 55.1821 0.152833
348 2 43.7388 55.0468 0.0763869
349 2 47.4868 55.4536 0.421046
350 2 51.4002 55.3559 0.358264
351 2 55.399 55.2524 0.486724
352 2 59.3276 55.3372 0.30404
353 2 63.2073 55.4284 0.276234
354 2 67.2943 55.5822 0.245312
355 2 71.3649 55.4419 0.484381
356 2 75.1961 55.4552 0.43159
357 2 79.207 55.5068 0.076276
358 2 83.1209 55.3138 0.37072
359 2 87.0164 55.2222 0.378081
360 2 91.2209 55.4512 0.16617
361 2 0.0475044 59.4183 0.371222
362 2 3.99335 59.2478 0.207179
363 2 8.02061 59.5875 0.203033
364 2 12.0971 59.5511 0.327526
365 2 15.9581 59.3703 0.181404
366 2 19.8057 59.5468 0.343381
367 2 23.7986 59.4329 0.494683
368 2 27.7587 59.3632 0.344124
369 2 31.5959 59.5259 0.281539
370 2 35.6953 59.2123 0.23957
371 2 39.402 59.3331 0.532211
372 2 43.5446 59.3259 0.283097
373 2 47.647 59.2985 0.267278
374 2 51.5007 59.4838 0.356175
375 2 55.3119 59.256 0.413775
376 2 59.427 59.2224 0.497188
377 2 63.1789 59.403 0.306627
378 2 67.1732 59.2584 0.30794
379 2 71.4594 59.4927 0.459221
380 2 75.3989 59.5121 0.341128
381 2 79.4256 59.4909 0.400957
382 2 83.2521 59.2056 0.217243
383 2 87.0952 59.4275 0.384559
384 2 91.0787 59.5395 0.290098
385 2 0.127322 63.4352 0.164749
386 2 3.79779 63.295 0.264266
387 2 7.93921 63.5558 0.216669
388 2 12.0548 63.5151 0.346898
389 2 15.9755 63.5015 0.334948
390 2 19.9809 63.351 0.156674
391 2 23.9604 63.432 0.179092
392 2 27.8879 63.2718 0.343098
393 2 31.7186 63.2307 0.214262
394 2 35.6343 63.2402 0.350456
395 2 39.8248 63.2662 0.312718
396 2 43.5278 63.408 0.359469
397 2 47.5663 63.1585 0.110201
398 2 51.5073 63.3267 0.290793
399 2 55.6369 63.3254 0.225774
400 2 59.6355 63.2702 0.472297
401 2 63.5188 63.3551 0.186797
402 2 67.5015 63.2404 0.16573
403 2 71.4595 63.3266 0.336821
404 2 75.426 63.4507 0.308762
405 2 79.2537 63.2995 0.431136
406 2 83.1998 63.2851 0.307577
407 2 87.0359 63.3746 0.287437
408 2 91.1961 63.29 0.210495
409 2 0.0307998 67.4179 0.425175
410 2 4.09517 67.4327 0.325457
411 2 7.91884 67.455 0.289951
412 2 11.9305 67.4635 0.119422
413 2 15.8594 67.2879 0.301974
414 2 20.0857 67.2798 0.233825
415 2 23.8373 67.3915 0.17395
416 2 27.8109 67.3939 0.317869
417 2 31.65 67.1444 0.100929
418 2 35.7379 67.2359 0.437347
419 2 39.5801 67.2106 0.251138
420 2 43.5861 67.197 0.112499
421 2 47.5731 67.2874 0.280651
422 2 51.6273 67.4081 0.263619
423 2 55.6643 67.398 0.257138
424 2 59.5498 67.2881 0.281312
425 2 63.317 67.2197 0.276049
426 2 67.4507 67.4717 0.245287
427 2 71.4225 67.1785 0.142914
428 2 75.4883 67.1857 0.0595609
429 2 79.4434 67.4575 0.349795
430 2 83.275 67.0991 0.37852
431 2 87.2834 67.2142 0.446136
432 2 91.1271 67.1537 0.371815
433 2 0.183851 71.2734 0.175513
434 2 4.09443 71.3146 0.0909576
435 2 8.07466 71.4439 0.177226
436 2 12.0697 71.4142 0.285696
437 2 15.9419 71.3079 0.380488
438 2 19.9787 71.2787 0.34972
439 2 24.0124 71.3925 0.163209
440 2 27.9413 71.3989 0.251832
441 2 31.928 71.1365 0.219009
442 2 35.7036 71.1586 0.462411
443 2 39.7069 71.2284 0.169023
444 2 43.6638 71.2906 0.238636
445 2 47.6686 71.0602 0.12032
446 2 51.5271 71.5808 0.234234
447 2 55.5193 71.2933 0.205054
448 2 59.4561 71.2465 0.250243
449 2 63.4039 71.4734 0.158826
450 2 67.4543 71.3102 0.407899
451 2 71.2435 71.2932 0.234881
452 2 75.106 71.3567 0.112948
453 2 79.3144 71.2957 0.301102
454 2 83.4803 71.1057 0.135124
455 2 87.3466 71.1939 0.217099
456 2 91.2012 71.079 0.272684
457 2 0.127354 75.3258 0.233659
458 2 4.09419 75.3002 0.0513572
459 2 8.02639 75.3197 0.304761
460 2 11.8352 75.3287 0.282569
461 2 15.7776 75.2367 0.368673
462 2 19.8333 75.3199 0.23891
463 2 23.9494 75.1962 0.298572
464 2 27.9778 75.2566 0.11818
465 2 31.9038 75.3442 0.278884
466 2 35.6445 75.2318 0.123714
467 2 39.646 75.2725 0.165805
468 2 43.7232 75.1453 0.130755
469 2 47.4633 75.0501 0.220542
470 2 51.4587 75.2176 0.202373
471 2 55.5209 75.2722 0.141025
472 2 59.2986 75.1782 0.146769
473 2 63.4453 75.3292 0.228545
474 2 67.4664 75.2558 0.188753
475 2 71.1563 75.2215 0.237363
476 2 75.1966 75.3137 0.261046
477 2 79.3609 75.2097 0.369412
478 2 83.2725 75.2469 0.277927
479 2 87.1447 75.092 0.357675
480 2 91.3942 75.2181 0.125854
481 2 0.19455 79.3205 0.284947
482 2 4.03382 79.0231 0.295187
483 2 8.10776 79.3574 0.204902
484 2 11.9377 79.3009 0.1429
485 2 15.9125 79.1177 0.287067
486 2 19.9608 79.2382 0.293669
487 2 23.9881 79.1722 0.124463
488 2 27.9908 79.3119 0.189476
489 2 31.784 79.0612 0.235762
490 2 35.707 79.2533 0.148157
491 2 39.891 79.1887 0.060833
492 2 43.6248 79.176 0.115429
493 2 47.443 79.1382 0.122283
494 2 51.5495 79.0696 0.470458
495 2 55.6052 79.1241 0.120594
496 2 59.4966 79.315 0.308866
497 2 63.4614 79.2117 0.282872
498 2 67.2275 79.1074 0.376228
499 2 71.2751 79.1387 0.254702
500 2 75.1618 79.1795 0.392873
501 2 79.1849 78.9505 0.361328
502 2 83.1321 79.0507 0.147643
503 2 87.3547 79.1551 0.252213
504 2 91.0622 78.9159 0.385566
505 2 0.0304681 83.185 0.127619
506 2 3.99974 83.2946 0.19497
507 2 8.12158 83.3361 0.339382
508 2 12.0428 83.3704 0.128223
509 2 16.0717 83.2433 0.133512
510 2 20.0056 83.2662 0.0518539
511 2 23.8562 83.0978 0.286107
512 2 27.9845 83.172 0.223635
513 2 31.6827 83.1664 0.275342
514 2 35.6246 83.0971 0.240099
515 2 39.5776 83.1395 0.253418
516 2 43.754 83.3311 0.217328
517 2 47.6743 83.0647 0.125483
518 2 51.6613 83.047 0.229642
519 2 55.5481 82.9503 0.158656
520 2 59.5541 83.0634 0.0702808
521 2 63.4142 83.0113 0.282823
522 2 67.3376 83.1059 0.27242
523 2 71.3203 83.0469 0.172398
524 2 75.3698 82.9657 0.0763993
525 2 79.1404 83.2026 0.266857
526 2 83.1219 83.219 0.0611517
527 2 87.3028 83.0989 0.229863
528 2 91.1862 83.3825 0.305465
529 2 0.107587 87.0193 0.0805371
530 2 4.07732 87.1855 0.165262
531 2 8.13287 87.1212 0.309986
532 2 11.9887 87.1278 0.359586
533 2 15.8279 87.0794 0.149815
534 2 19.8825 87.0666 0.230634
535 2 23.8744 87.259 0.0600286
536 2 27.8018 87.1128 0.0101694
537 2 31.8285 87.3327 0.0497064
538 2 35.5978 87.242 0.343501
539 2 39.8425 86.847 0.160037
540 2 43.5923 86.9207 0.346779
541 2 47.5142 87.1195 0.330743
542 2 51.5824 87.0632 0.272282
543 2 55.4725 87.0022 0.216888
544 2 59.5032 87.1927 0.244808
545 2 63.6468 87.0382 0.237725
546 2 67.4641 86.9858 0.0963428
547 2 71.4995 87.0592 0.0647002
548 2 75.4042 87.1326 0.314143
549 2 79.1999 87.1854 0.302798
550 2 82.9767 87.1992 0.210856
551 2 87.0704 86.8523 0.335221
552 2 91.0935 87.293 0.155634
553 2 0.145158 91.0996 0.0891931
554 2 4.08982 90.9047 0.228059
555 2 8.07531 91.2198 0.0839123
556 2 11.9328 91.091 0.397801
557 2 15.8488 91.0635 0.250247
558 2 20.1447 91.1671 0.248057
559 2 23.9287 91.2023 0.0526272
560 2 27.7397 91.17 0.193176
561 2 31.9081 91.1491 0.364495
562 2 35.7243 91.0963 0.178786
563 2 39.7755 90.911 0.24505
564 2 43.5778 90.9477 0.261037
565 2 47.6454 91.0724 0.453529
566 2 51.6468 90.9048 0.196567
567 2 55.6584 91.0558 0.0959258
568 2 59.5259 91.1192 0.312867
569 2 63.4511 90.8455 0.235966
570 2 67.4122 90.8962 0.386493
571 2 71.4927 90.8891 0.265628
572 2 75.4367 91.2399 0.146285
573 2 79.3556 91.0841 0.245825
574 2 83.0869 91.1924 0.200267
575 2 87.0896 91.0557 0.0745896
576 2 91.1736 91.3457 0.131348
577 2 0.160619 0.0296396 4.19171
578 2 3.98259 0.11709 4.23174
579 2 7.97661 -0.0164442 4.25802
580 2 12.0617 -0.0224838 4.3302
581 2 15.8095 0.192451 4.41042
582 2 19.7963 0.164456 4.38045
583 2 23.9896 0.0346127 4.1526
584 2 27.8186 0.178866 4.28628
585 2 31.8151 0.0282132 4.29296
586 2 35.8122 -0.0814291 4.33708
587 2 39.7063 0.255163 4.14282
588 2 43.6662 0.0135818 4.20864
589 2 47.5957 0.096302 4.28204
590 2 51.5906 0.0611858 4.16695
591 2 55.5701 0.166592 4.20513
592 2 59.4736 -0.00677239 4.09995
593 2 63.4498 0.0702743 4.1044
594 2 67.2786 -0.105282 4.30987
595 2 71.4323 -0.0390368 4.31328
596 2 75.4162 0.0865596 4.14063
597 2 79.25 -0.2272 4.33196
598 2 83.1017 0.187106 4.1302
599 2 87.1525 -0.0218301 4.16312
600 2 91.0005 0.0258283 4.20219
601 2 0.151767 4.05966 4.24818
602 2 4.12623 3.96155 4.2313
603 2 8.10781 3.93337 4.25823
604 2 12.0357 4.06999 4.26916
605 2 15.9365 4.13219 4.00409
606 2 19.9285 4.03457 4.21579
607 2 23.8772 3.97195 4.19952
608 2 27.869 4.11612 4.15985
609 2 31.8044 4.06216 4.0565
610 2 35.9308 4.06385 4.18477
611 2 39.8455 4.12306 4.11003
612 2 43.7391 3.98948 4.22767
613 2 47.569 3.92957 4.3423
614 2 51.5566 3.98938 4.27061
615 2 55.5403 3.9816 4.24724
616 2 59.4775 3.87134 4.22162
617 2 63.5048 4.00142 4.26181
618 2 67.5211 4.1275 4.09102
619 2 71.5797 3.91604 4.11309
620 2 75.4899 4.15783 4.34172
621 2 79.467 4.0084 4.25838
622 2 83.1598 3.90951 4.23778
623 2 87.0549 3.91226 4.23747
624 2 91.2558 3.88264 4.19671
625 2 0.179708 7.80711 4.26793
626 2 4.10567 7.97623 4.28582
627 2 8.04972 7.84071 4.20153
628 2 11.8373 7.78035 4.27548
629 2 15.8587 8.11505 4.14395
630 2 19.8858 7.83234 4.31258
631 2 23.9532 7.85275 4.24857
632 2 27.9659 8.15229 4.16252
633 2 31.9733 7.8328 4.27442
634 2 35.8141 8.07362 4.16097
635 2 39.8414 8.1254 4.18114
636 2 43.6993 8.0862 4.30395
637 2 47.6642 7.95906 4.35341
638 2 51.6098 7.88701 4.23089
639 2 55.505 7.80547 4.25899
640 2 59.5704 7.97671 4.04738
641 2 63.5749 7.87892 4.14268
642 2 67.4216 7.98833 4.20028
643 2 71.4633 7.90879 4.26569
644 2 75.4904 7.93162 4.13289
645 2 79.3629 8.01011 4.20866
646 2 83.2967 8.09044 3.97255
647 2 87.0563 7.95797 4.29661
648 2 91.1414 7.9986 4.21654
649 2 0.0298224 11.4993 4.04182
650 2 4.02314 11.7265 4.31024
651 2 8.02414 11.9124 4.27119
652 2 12.0103 11.7497 4.22541
653 2 15.8663 11.7936 4.19053
654 2 19.7759 11.9402 4.27066
655 2 23.7906 11.8196 4.38077
656 2 27.8637 11.8482 4.48308
657 2 31.9016 11.9716 4.24452
658 2 35.6715 12.0737 4.41707
659 2 39.7028 12.0083 4.17879
660 2 43.6477 12.1665 4.24262
661 2 47.5369 11.774 4.2494
662 2 51.6538 12.0867 4.31891
663 2 55.6236 11.7764 4.08169
664 2 59.8276 11.8228 4.14687
665 2 63.6045 11.976 3.92626
666 2 67.3579 12.0057 4.18671
667 2 71.2781 11.8203 4.26893
668 2 75.356 11.9444 4.22296
669 2 79.3659 11.8985 4.13634
670 2 83.2504 11.9522 4.13956
671 2 87.2834 11.8086 4.21004
672 2 91.1792 11.775 4.21486
673 2 0.143671 15.6316 4.21507
674 2 4.13503 15.9178 4.25818
675 2 8.00768 15.8205 4.22369
676 2 12.1026 15.6724 4.1267
677 2 15.8467 15.9182 4.20706
678 2 19.6628 15.9463 4.32421
679 2 23.6711 15.6687 4.10382
680 2 27.8653 15.7167 4.2063
681 2 31.7078 15.7591 4.31455
682 2 35.6978 15.856 4.28109
683 2 39.7012 15.8568 4.12191
684 2 43.6344 16.0388 4.16208
685 2 47.6904 15.9799 4.17953
686 2 51.6184 15.7944 4.32722
687 2 55.5646 15.7891 4.24362
688 2 59.3368 15.8216 4.38923
689 2 63.3462 15.791 4.13239
690 2 67.4426 15.891 4.34568
691 2 71.5357 15.8608 4.1173
692 2 75.3228 15.9404 4.14821
693 2 79.3586 15.8212 3.98561
694 2 83.2235 15.8747 4.23404
695 2 87.2118 15.7593 4.15313
696 2 91.31 15.5407 4.0028
697 2 0.134952 19.6494 4.30358
698 2 3.99405 19.8929 4.43406
699 2 8.01627 19.8128 4.48979
700 2 12.0013 19.5804 4.15165
701 2 15.8965 19.832 4.31611
702 2 19.7603 19.6382 4.10644
703 2 23.8118 19.6729 4.22284
704 2 27.5846 19.7505 4.17852
705 2 31.6248 19.756 4.28949
706 2 35.5815 19.6228 4.22371
707 2 39.646 19.7365 4.23524
708 2 43.6222 19.9261 4.15561
709 2 47.4377 19.8809 4.17353
710 2 51.4768 19.9045 4.20591
711 2 55.4191 19.8256 4.21321
712 2 59.208 19.7424 4.29123
713 2 63.3595 19.8885 4.23763
714 2 67.5012 19.835 4.29223
715 2 71.4735 19.9052 4.20663
716 2 75.378 19.9138 4.10573
717 2 79.3156 19.8634 4.38172
718 2 83.4028 19.7142 4.19739
719 2 87.2071 19.6582 4.32082
720 2 91.3076 19.5714 4.24592
721 2 0.201083 23.6377 4.18787
722 2 4.14341 23.7312 4.37067
723 2 8.05561 23.8048 4.43567
724 2 12.1467 23.7516 4.01663
725 2 15.9487 23.7453 4.35755
726 2 19.854 23.7185 4.22614
727 2 23.9696 23.5412 4.22163
728 2 27.7501 23.6764 4.3717
729 2 31.8636 23.6063 4.00667
730 2 35.7223 23.7988 4.23513
731 2 39.5635 23.6234 4.26401
732 2 43.5626 23.7269 4.21655
733 2 47.53 23.695 4.20063
734 2 51.5664 23.6853 4.49777
735 2 55.5349 23.9236 4.1218
736 2 59.5945 23.7991 4.15017
737 2 63.6102 23.8724 4.24257
738 2 67.5889 23.7111 4.0944
739 2 71.4901 23.76 4.13877
740 2 75.2172 23.7221 4.01936
741 2 79.4905 23.7596 4.31465
742 2 83.2838 23.5998 4.26173
743 2 87.3129 23.5565 4.09948
744 2 91.123 23.5966 4.26918
745 2 0.0960552 27.5534 4.18244
746 2 3.99212 27.7254 4.24077
747 2 8.20732 27.7035 4.16552
748 2 11.951 27.6764 3.95294
749 2 15.8694 27.8726 4.16406
750 2 20.0245 27.6507 4.1192
751 2 24.0424 27.7488 4.22747
752 2 28.0262 27.566 4.06883
753 2 31.7512 27.5525 4.21304
754 2 35.7548 27.638 4.21598
755 2 39.8274 27.776 4.33261
756 2 43.4362 27.622 4.28221
757 2 47.5532 27.6339 4.4146
758 2 51.6558 27.7751 4.15905
759 2 55.3876 27.826 4.16232
760 2 59.5514 27.8796 4.01933
761 2 63.4682 27.7339 4.31377
762 2 67.557 27.7871 4.10657
763 2 71.4289 27.5416 4.33855
764 2 75.3434 27.867 4.10523
765 2 79.2915 27.7121 4.21179
766 2 83.2633 27.7361 4.23533
767 2 87.1247 27.6851 4.12323
768 2 91.1947 27.3262 4.14076
769 2 0.0976026 31.6145 4.20196
770 2 4.17856 31.7214 4.20633
771 2 8.03209 31.8133 4.18021
772 2 12.0126 31.5605 4.32997
773 2 15.8247 31.7416 4.31476
774 2 19.8871 31.828 3.94721
775 2 23.7628 31.5294 4.23886
776 2 27.8183 31.8659 4.16877
777 2 31.9162 31.421 4.19671
778 2 35.781 31.7196 4.30908
779 2 39.6486 31.6192 4.22384
780 2 43.5104 31.6599 4.26448
781 2 47.5981 31.6285 4.33578
782 2 51.4845 31.7479 4.14813
783 2 55.6562 31.7164 4.58265
784 2 59.6793 31.8135 4.25356
785 2 63.5511 31.7773 4.16389
786 2 67.4739 31.743 4.23271
787 2 71.4624 31.6129 4.39617
788 2 75.1141 31.7571 4.31887
789 2 79.359 31.6793 4.31744
790 2 83.5075 31.5771 4.1353
791 2 87.3339 31.6318 4.15312
792 2 91.3514 31.7732 4.11486
793 2 0.0626105 35.6689 4.20074
794 2 3.96067 35.6194 4.28619
795 2 8.04571 35.5201 4.16059
796 2 11.8439 35.5059 4.068
797 2 16.0112 35.8137 4.10307
798 2 19.9633 35.6784 4.34078
799 2 23.722 35.4919 4.19008
800 2 27.663 35.7254 4.12162
801 2 31.8049 35.5929 4.30636
802 2 35.7795 35.5879 4.3256
803 2 39.6839 35.5953 4.33386
804 2 43.5829 35.6931 4.31762
805 2 47.6258 35.7997 4.32234
806 2 51.501 35.5441 4.4335
807 2 55.6303 35.5093 4.29966
808 2 59.5895 35.6588 4.3394
809 2 63.5286 35.5736 4.35357
810 2 67.5999 35.5622 4.13185
811 2 71.3351 35.5761 4.31638
812 2 75.3989 35.6567 4.19343
813 2 79.3501 35.5536 4.39025
814 2 83.2791 35.6709 4.33065
815 2 87.4554 35.7744 4.14286
816 2 91.2098 35.5198 4.11769
817 2 0.27691 39.5305 4.02719
818 2 4.1158 39.5926 4.36843
819 2 8.10571 39.7202 4.10551
820 2 12.0166 39.4336 4.26087
821 2 15.9804 39.6116 4.29848
822 2 19.9429 39.7393 4.28684
823 2 24.0787 39.5519 4.32403
824 2 27.8198 39.6864 4.34404
825 2 31.7923 39.5917 4.13669
826 2 35.653 39.5149 4.16061
827 2 39.6745 39.4972 4.3435
828 2 43.7064 39.6179 4.39549
829 2 47.609 39.698 4.42558
830 2 51.5411 39.3768 4.30628
831 2 55.4569 39.4008 4.29313
832 2 59.5869 39.6431 4.33084
833 2 63.4227 39.7035 4.19782
834 2 67.7517 39.4099 4.13469
835 2 71.3658 39.3872 4.2479
836 2 75.2523 39.4004 4.30079
837 2 79.1602 39.6409 4.18807
838 2 83.3214 39.5469 4.29698
839 2 87.1554 39.6847 4.30798
840 2 91.2844 39.5811 4.16444
841 2 0.0410488 43.4991 4.14673
842 2 4.05984 43.5632 4.3737
843 2 8.16409 43.4697 4.21745
844 2 12.0304 43.5635 4.36949
845 2 15.899 43.6327 4.12739
846 2 19.8398 43.7386 4.2488
847 2 23.8488 43.7019 4.18035
848 2 27.8181 43.5675 4.23485
849 2 31.732 43.4529 4.38167
850 2 35.7739 43.5026 4.34021
851 2 39.7403 43.3913 4.25966
852 2 43.7023 43.5817 4.14971
853 2 47.596 43.5988 4.21668
854 2 51.7828 43.3611 4.26901
855 2 55.5635 43.5988 4.35232
856 2 59.2816 43.4738 4.23777
857 2 63.2368 43.5935 4.34632
858 2 67.4352 43.5606 4.35586
859 2 71.3231 43.5366 4.13906
860 2 75.3045 43.5579 4.30619
861 2 79.2889 43.596 4.21682
862 2 83.0619 43.5259 4.18239
863 2 87.2681 43.3717 4.11757
864 2 91.2629 43.5392 4.18419
865 2 0.233604 47.3955 4.14462
866 2 4.06107 47.4648 4.11115
867 2 7.95903 47.5222 4.27941
868 2 12.1049 47.5675 4.27979
869 2 16.0652 47.6413 4.17739
870 2 19.9888 47.6258 4.10352
871 2 24.0084 47.6242 4.18199
872 2 27.7047 47.7079 4.32509
873 2 31.8354 47.5653 4.27782
874 2 35.8087 47.372 4.06456
875 2 39.6832 47.6438 4.34186
876 2 43.7275 47.454 4.26251
877 2 47.5885 47.3847 4.18243
878 2 51.5687 47.3456 4.28488
879 2 55.512 47.2546 4.27918
880 2 59.3724 47.4545 4.16935
881 2 63.3879 47.3839 4.28573
882 2 67.2283 47.5177 4.25543
883 2 71.2077 47.5346 4.08975
884 2 75.2468 47.4954 4.25408
885 2 79.4399 47.7224 4.12969
886 2 83.2749 47.4058 4.07564
887 2 87.171 47.4519 4.19375
888 2 91.2763 47.5246 4.3094
889 2 0.107483 51.4725 4.10913
890 2 3.93779 51.372 4.36828
891 2 8.03357 51.5398 4.36991
892 2 12.0309 51.4513 4.3045
893 2 15.7143 51.5908 4.09008
894 2 19.9707 51.3644 4.1399
895 2 23.7803 51.6397 4.20342
896 2 27.7932 51.6906 4.10877
897 2 31.8062 51.4057 4.2709
898 2 35.7922 51.6666 4.31618
899 2 39.6168 51.6056 4.32367
900 2 43.6302 51.5373 4.40969
901 2 47.5919 51.2499 4.5134
902 2 51.5965 51.3539 4.30008
903 2 55.3939 51.3522 4.28312
904 2 59.4265 51.3191 4.2506
905 2 63.4251 51.3552 4.3003
906 2 67.4586 51.5622 4.12447
907 2 71.3959 51.3908 4.30942
908 2 75.2542 51.3673 4.3211
909 2 79.2378 51.5667 4.30881
910 2 83.2681 51.3769 4.22661
911 2 87.2859 51.436 4.31172
912 2 91.0991 51.5165 4.42036
913 2 0.176003 55.4275 4.34279
914 2 3.98459 55.5034 4.28335
915 2 7.82799 55.619 4.36382
916 2 12.1712 55.4859 4.22308
917 2 15.8571 55.4952 4.28137
918 2 19.8655 55.4926 4.40117
919 2 23.9539 55.3425 4.11328
920 2 27.9132 55.5965 4.3164
921 2 31.8755 55.4535 4.13038
922 2 35.7821 55.5393 4.10492
923 2 39.8131 55.3799 4.24541
924 2 43.5919 55.3595 4.15628
925 2 47.458 55.447 4.44453
926 2 51.3362 55.2499 4.34237
927 2 55.4369 55.3708 4.33068
928 2 59.5751 55.369 4.39747
929 2 63.5812 55.3623 4.24462
930 2 67.3475 55.4749 4.16314
931 2 71.4096 55.4724 4.21758
932 2 75.3887 55.4752 4.16887
933 2 79.1997 55.2274 4.31782
934 2 83.1606 55.457 4.37654
935 2 87.1136 55.5392 4.11131
936 2 91.2066 55.3 4.23942
937 2 0.0620027 59.366 4.22373
938 2 4.20455 59.4584 4.28333
939 2 8.09325 59.4385 4.02457
940 2 11.8715 59.5067 4.09558
941 2 15.8869 59.412 4.1236
942 2 19.7812 59.3656 4.33481
943 2 23.8773 59.4472 4.3366
944 2 27.7608 59.4616 4.24248
945 2 31.8849 59.4894 4.14174
946 2 35.857 59.3356 4.24588
947 2 39.6541 59.2411 4.28286
948 2 43.7207 59.3995 4.2994
949 2 47.3995 59.5336 4.19074
950 2 51.6556 59.4332 4.33772
951 2 55.6593 59.5387 4.23072
952 2 59.6032 59.2233 4.33635
953 2 63.3563 59.3078 4.24843
954 2 67.4664 59.6589 4.16567
955 2 71.2959 59.4483 4.26455
956 2 75.1499 59.3663 4.44298
957 2 79.169 59.3746 4.41287
958 2 83.2611 59.3603 4.15955
959 2 87.2292 59.3212 4.36908
960 2 90.8995 59.2795 4.28912
961 2 0.106582 63.371 4.40816
962 2 4.07555 63.237 4.1955
963 2 7.94099 63.3315 4.22525
964 2 12.0312 63.2819 4.23312
965 2 16.1101 63.2082 4.08395
966 2 19.9678 63.3662 4.21101
967 2 23.8993 63.4246 4.2285
968 2 27.9344 63.3483 4.44287
969 2 31.721 63.4995 4.2464
970 2 35.7106 63.3586 4.13427
971 2 39.8609 63.5419 4.15855
972 2 43.7304 63.3709 4.28925
973 2 47.6743 63.4517 4.12236
974 2 51.7032 63.3895 4.15757
975 2 55.6337 63.3007 4.27266
976 2 59.5541 63.2577 4.10422
977 2 63.4555 63.5561 4.15912