ITEM: TIMESTEP
54800
ITEM: NUMBER OF ATOMS
43200
ITEM: BOX BOUNDS xy xz yz pp pp pp
0.0000000000000000e+00 9.4992000000000004e+01 0.0000000000000000e+00
0.0000000000000000e+00 9.4992000000000004e+01 0.0000000000000000e+00
-5.5053246654104271e-03 5.9705505324666404e+01 0.0000000000000000e+00
ITEM: ATOMS id type x y z
1 2 0.0984463 -0.0298277 0.383918
2 2 3.97943 0.121156 0.215961
3 2 7.90007 0.0443888 0.243507
4 2 11.9888 0.117741 0.321491
5 2 16.0085 0.0739002 0.42436
6 2 19.8719 0.0843284 0.429808
7 2 23.8486 -0.125376 0.284487
8 2 27.9784 -0.0148526 0.222078
9 2 31.9336 -0.0450018 0.045221
10 2 35.6283 0.0573172 0.0115287
11 2 39.6447 -0.0312922 0.213674
12 2 43.5953 0.0541302 0.282431
13 2 47.5529 -0.10113 0.282667
14 2 51.6653 0.063734 0.166373
15 2 55.6071 -0.0923107 0.194877
16 2 59.4429 -0.00222432 0.240486
17 2 63.3673 0.0525321 0.228803
18 2 67.1674 -0.0103944 0.340368
19 2 71.246 0.192189 0.18888
20 2 75.2661 0.0842164 0.284682
21 2 79.0901 0.217212 0.148874
22 2 83.2725 -0.0338525 0.148294
23 2 87.3315 0.0975812 0.238078
24 2 91.2895 -0.0559459 0.318741
25 2 0.191769 3.95357 0.215366
26 2 4.11408 3.98722 0.185317
27 2 7.77031 3.86449 0.27552
28 2 12.0384 3.91072 0.322282
29 2 15.9875 4.03696 0.341668
30 2 20.0035 4.01165 0.228963
31 2 23.8376 3.88082 0.327212
32 2 27.737 3.96347 0.154363
33 2 31.5567 3.77172 0.224467
34 2 35.7504 3.89169 -0.0259501
35 2 39.6709 3.76368 0.249569
36 2 43.4784 3.86295 0.134141
37 2 47.6858 3.84179 0.0780382
38 2 51.5291 3.79446 0.153249
39 2 55.4224 3.963 0.280192
40 2 59.3683 4.12402 0.347727
41 2 63.409 3.82661 0.150569
42 2 67.3788 4.04826 0.317023
43 2 71.4732 3.90252 0.24269
44 2 75.2775 4.03941 0.129423
45 2 79.2333 4.00877 0.226778
46 2 83.521 4.13402 0.111319
47 2 87.1777 4.07895 0.243595
48 2 91.0781 4.02964 0.257218
49 2 -0.0018722 8.03526 0.29297
50 2 3.96567 7.88046 0.430587
51 2 8.13157 7.75021 0.206076
52 2 12.098 7.76668 0.19485
53 2 16.1357 7.80566 0.376039
54 2 19.8767 8.0386 0.270522
55 2 23.9208 7.85308 0.291928
56 2 27.8581 7.73126 0.201659
57 2 32.0559 7.90044 0.277459
58 2 35.8844 7.90103 0.257593
59 2 39.7175 7.87519 0.233542
60 2 43.706 7.71968 0.231729
61 2 47.6478 7.85169 0.181953
62 2 51.5697 7.79725 0.169523
63 2 55.5332 8.00003 0.192845
64 2 59.524 8.08317 0.13952
65 2 63.566 7.92164 0.18913
66 2 67.5285 7.88646 0.236423
67 2 71.3714 7.85334 0.276775
68 2 75.288 7.89125 0.337779
69 2 79.1592 7.89799 0.0701827
70 2 83.2024 7.9073 0.028417
71 2 87.1674 8.05572 0.144886
72 2 91.2252 7.97912 0.146957
73 2 0.175625 11.8313 0.0880037
74 2 3.96854 11.954 0.186107
75 2 7.97988 11.5961 0.0924914
76 2 12.1156 11.727 0.0860153
77 2 15.8673 11.6199 0.376487
78 2 20.0023 11.9749 0.20865
79 2 23.7394 11.8371 0.246927
80 2 27.9179 11.7929 0.199243
81 2 31.8925 11.6043 0.173951
82 2 35.8935 11.8553 0.0885033
83 2 39.7381 11.8362 0.291788
84 2 43.5882 11.8119 0.407025
85 2 47.6419 11.7966 0.210255
86 2 51.4639 11.9363 0.368
87 2 55.4547 12.0285 0.316911
88 2 59.4357 11.9769 0.254583
89 2 63.4622 11.8789 0.301979
90 2 67.3995 11.8374 0.155132
91 2 71.4048 11.9124 0.188984
92 2 75.2389 12.0796 0.382594
93 2 79.1966 11.8755 0.443066
94 2 83.2874 11.8221 0.287417
95 2 87.1664 11.8667 0.157997
96 2 91.2301 12.0607 0.248014
97 2 0.0645671 15.6525 0.22342
98 2 4.02102 15.7652 0.311124
99 2 8.11716 15.7588 0.430328
100 2 11.843 15.6801 0.295578
101 2 15.9726 15.4311 0.278195
102 2 19.8035 15.6285 0.226974
103 2 23.9714 15.8418 0.159095
104 2 27.8929 15.6986 0.239033
105 2 31.8487 15.7941 0.395404
106 2 35.6846 15.7955 0.285391
107 2 39.9226 15.664 0.11759
108 2 43.6867 15.5095 0.23311
109 2 47.6591 15.8074 0.10314
110 2 51.4776 15.9723 0.121087
111 2 55.4576 15.9585 0.000471295
112 2 59.581 15.8978 0.211034
113 2 63.694 15.7976 0.299534
114 2 67.3823 15.8839 0.264059
115 2 71.4413 16.063 0.290342
116 2 75.256 16.0412 0.310781
117 2 79.3782 15.7149 0.296312
118 2 83.3988 15.6894 0.335504
119 2 87.2686 15.688 0.217168
120 2 91.1255 15.6632 0.279403
121 2 0.00956849 19.7919 0.471829
122 2 3.96839 19.6722 0.17442
123 2 7.84578 19.7004 0.380636
124 2 12.0214 19.7183 0.239334
125 2 15.8985 19.6345 0.385595
126 2 19.9851 19.4376 0.254951
127 2 23.8777 19.6842 0.371037
128 2 27.8811 19.5619 0.437419
129 2 31.9166 19.7112 0.206574
130 2 35.7426 19.9222 0.295309
131 2 39.6932 19.6314 0.105838
132 2 43.8014 19.8813 0.170171
133 2 47.6839 19.7496 0.165357
134 2 51.8076 20.0167 0.103489
135 2 55.5225 19.5379 0.219493
136 2 59.5986 19.6683 0.224167
137 2 63.5616 19.7189 0.0212259
138 2 67.519 19.8252 0.209223
139 2 71.3234 19.8576 0.445096
140 2 75.444 19.737 0.347141
141 2 79.2612 19.9559 0.321961
142 2 83.2303 19.7661 0.160518
143 2 87.1997 19.7145 0.0249496
144 2 91.436 19.64 0.326787
145 2 0.0130598 23.6517 0.271756
146 2 4.18497 23.7174 0.360831
147 2 8.1177 23.6013 0.251344
148 2 11.9861 23.8095 0.198831
149 2 15.7995 23.5136 0.190448
150 2 19.9201 23.4777 0.240505
151 2 23.9358 23.459 0.296098
152 2 27.8896 23.7222 0.416995
153 2 31.7577 23.5463 0.31021
154 2 35.7674 23.5688 0.393134
155 2 39.7785 23.7302 0.231994
156 2 43.7134 23.6947 0.13081
157 2 47.7162 23.7704 0.0688603
158 2 51.7097 23.8826 0.141679
159 2 55.6778 23.8652 0.210456
160 2 59.5858 23.6884 0.209152
161 2 63.4879 23.6377 0.276154
162 2 67.5217 23.7633 0.318179
163 2 71.4676 23.7811 0.372246
164 2 75.3854 23.7449 0.337848
165 2 79.3051 23.9178 0.144928
166 2 82.9781 23.7696 0.259759
167 2 87.2902 23.6779 0.345265
168 2 91.2307 23.9165 0.282012
169 2 0.148101 27.5716 0.336724
170 2 4.11426 27.6954 0.378763
171 2 7.98086 27.5837 0.462407
172 2 11.9019 27.5337 0.416725
173 2 15.6957 27.6413 0.385215
174 2 19.7894 27.6761 0.292075
175 2 23.7277 27.5237 0.250313
176 2 27.8627 27.5076 0.504385
177 2 31.5044 27.7621 0.201317
178 2 35.8998 27.6325 0.252961
179 2 39.4639 27.5565 0.214253
180 2 43.2885 27.7994 0.264669
181 2 47.7297 27.7382 0.120482
182 2 51.6301 27.7338 0.298549
183 2 55.7588 27.6805 -0.00625695
184 2 59.5313 27.8123 0.270572
185 2 63.4017 27.5793 0.341604
186 2 67.4579 27.5765 0.421779
187 2 71.3853 27.6567 0.356532
188 2 75.2329 27.6621 0.28517
189 2 79.2315 27.5705 0.155607
190 2 83.0849 27.73 0.0710685
191 2 87.1454 27.539 0.250806
192 2 91.1073 27.9077 0.229779
193 2 0.212511 31.6075 0.380581
194 2 4.13904 31.5861 0.358649
195 2 8.04911 31.4081 0.296955
196 2 11.9436 31.7005 0.334134
197 2 16.1519 31.6143 0.191246
198 2 19.8882 31.4816 0.138764
199 2 23.8435 31.5392 0.361321
200 2 27.834 31.5563 0.17221
201 2 31.8271 31.495 0.201723
202 2 35.5129 31.508 0.285833
203 2 39.5051 31.6356 0.0421057
204 2 43.5248 31.6347 0.410947
205 2 47.5508 31.5618 0.203433
206 2 51.6703 31.5865 0.204428
207 2 55.657 31.7321 0.29644
208 2 59.4637 31.7195 0.257966
209 2 63.3926 31.6305 0.38287
210 2 67.4018 31.434 0.27175
211 2 71.5658 31.5908 0.276491
212 2 75.4153 31.5995 0.146138
213 2 79.3209 31.7093 0.229089
214 2 83.2436 31.5753 0.186209
215 2 87.1766 31.6106 0.431472
216 2 91.0672 31.6463 0.213697
217 2 -0.124744 35.6616 0.21222
218 2 4.03526 35.5573 0.349898
219 2 8.1316 35.5448 0.436316
220 2 12.063 35.402 0.426537
221 2 15.9721 35.5972 0.068054
222 2 19.7649 35.6074 0.354042
223 2 23.8225 35.6521 0.132227
224 2 27.7561 35.4762 0.30824
225 2 31.8192 35.6109 0.447916
226 2 35.8723 35.3589 0.222864
227 2 39.7409 35.4034 0.219152
228 2 43.5408 35.5203 0.37801
229 2 47.4665 35.4423 0.260007
230 2 51.6865 35.4455 0.248636
231 2 55.4984 35.5137 0.436426
232 2 59.4379 35.5127 0.109741
233 2 63.5784 35.6376 0.211708
234 2 67.406 35.5508 0.0623544
235 2 71.4444 35.4037 0.294239
236 2 75.3955 35.5253 0.191284
237 2 79.3449 35.4029 0.195142
238 2 83.2599 35.4401 0.387475
239 2 87.0353 35.3493 0.225252
240 2 91.1402 35.5847 0.213721
241 2 -0.0351079 39.462 0.253686
242 2 3.96468 39.6615 0.313136
243 2 8.06339 39.4552 0.209171
244 2 12.0088 39.491 0.354437
245 2 15.861 39.7073 0.329336
246 2 19.7712 39.607 0.421441
247 2 23.7833 39.3078 0.253228
248 2 27.7182 39.8131 0.233595
249 2 31.9378 39.4684 0.220843
250 2 35.767 39.2926 0.372166
251 2 39.5706 39.6077 0.439087
252 2 43.5682 39.4067 0.243243
253 2 47.5951 39.4664 0.298312
254 2 51.6107 39.4993 0.304028
255 2 55.7506 39.3068 0.257024
256 2 59.6176 39.3909 0.0324913
257 2 63.4455 39.5168 0.235234
258 2 67.4894 39.4981 0.227515
259 2 71.5149 39.3819 0.034196
260 2 75.3382 39.3724 0.120893
261 2 79.3335 39.425 0.258581
262 2 83.1839 39.4528 0.122264
263 2 87.1301 39.5964 0.28323
264 2 90.9677 39.5916 0.431773
265 2 0.194575 43.4484 0.330184
266 2 4.07958 43.5165 0.340333
267 2 7.92419 43.2999 0.321078
268 2 11.8539 43.4387 0.44921
269 2 15.851 43.6311 0.306498
270 2 19.8115 43.4473 0.325551
271 2 23.7742 43.4517 0.371915
272 2 28.0339 43.3885 0.312448
273 2 31.8573 43.4856 0.224822
274 2 35.6325 43.5266 0.227339
275 2 39.7653 43.4131 0.347862
276 2 43.4864 43.3494 0.212221
277 2 47.6267 43.2778 0.335486
278 2 51.6117 43.3932 0.374547
279 2 55.658 43.3758 0.21152
280 2 59.341 43.4406 0.300953
281 2 63.3679 43.3321 0.275717
282 2 67.2223 43.5069 0.280391
283 2 71.3289 43.3424 0.257411
284 2 75.3486 43.4525 0.182354
285 2 79.2799 43.4445 0.284887
286 2 83.3835 43.4745 0.346917
287 2 87.2019 43.3767 0.232512
288 2 91.0205 43.6374 0.31082
289 2 -0.146209 47.5341 0.32879
290 2 3.9336 47.3128 0.418615
291 2 8.04931 47.3238 0.477646
292 2 12.0024 47.4919 0.254852
293 2 16.0029 47.5788 0.176703
294 2 19.9607 47.5236 0.49251
295 2 23.9267 47.3286 0.376729
296 2 27.8998 47.5583 0.299955
297 2 31.6978 47.3805 0.230736
298 2 35.5143 47.6154 0.150873
299 2 39.7167 47.3543 0.368619
300 2 43.5914 47.2391 0.334138
301 2 47.7307 47.2332 0.285383
302 2 51.4774 47.2665 0.398692
303 2 55.4446 47.2518 0.269083
304 2 59.615 47.6052 0.288365
305 2 63.2337 47.4061 0.19864
306 2 67.4026 47.3317 0.222359
307 2 71.329 47.485 0.0653348
308 2 75.2378 47.4434 0.427833
309 2 79.321 47.5602 0.338002
310 2 83.3464 47.3939 0.202711
311 2 87.3347 47.4986 0.208888
312 2 91.0002 47.5668 0.293086
313 2 0.183722 51.3768 0.335045
314 2 3.96641 51.4478 0.655261
315 2 7.89809 51.4107 0.420097
316 2 12.013 51.472 0.443468
317 2 16.0238 51.4819 0.559528
318 2 19.828 51.4995 0.568739
319 2 23.7528 51.3864 0.482238
320 2 27.6837 51.5084 0.301284
321 2 31.6488 51.3875 0.186647
322 2 35.6953 51.5012 0.484536
323 2 39.5691 51.3043 0.441264
324 2 43.4782 51.3822 0.398014
325 2 47.4483 51.2341 0.442972
326 2 51.5934 51.2426 0.252568
327 2 55.343 51.2741 0.276314
328 2 59.4754 51.5337 0.095908
329 2 63.4623 51.536 0.21836
330 2 67.3507 51.3312 0.276574
331 2 71.1681 51.4199 0.252409
332 2 75.4965 51.2106 0.26312
333 2 79.177 51.3096 0.320786
334 2 83.1692 51.565 0.0990095
335 2 87.246 51.4046 0.269807
336 2 91.2279 51.2511 0.264367
337 2 0.0658533 55.4881 0.464736
338 2 3.95787 55.4576 0.368481
339 2 8.04325 55.3587 0.381881
340 2 11.7435 55.4576 0.381613
341 2 15.7271 55.2903 0.420823
342 2 19.6334 55.4685 0.443062
343 2 23.7007 55.1785 0.25784
344 2 27.5857 55.2194 0.291678
345 2 31.6481 55.3509 0.325825
346 2 35.595 55.5163 0.226093
347 2 39.4538 55.3713 0.352184
348 2 43.7199 55.2829 0.232948
349 2 47.4089 55.2032 0.278313
350 2 51.5804 55.371 -0.00658144
351 2 55.3933 55.1648 0.208814
352 2 59.3283 55.55 0.33201
353 2 63.4227 55.3967 0.151714
354 2 67.6008 55.305 0.320929
355 2 71.5426 55.3813 0.143478
356 2 75.1977 55.209 0.246385
357 2 79.289 55.3425 0.0594505
358 2 83.1798 55.4115 0.382383
359 2 87.0701 55.5007 0.247271
360 2 91.2848 55.2887 0.21803
361 2 0.0990441 59.2656 0.375292
362 2 4.07397 59.4066 0.403135
363 2 8.08951 59.3009 0.353952
364 2 11.886 59.3982 0.385083
365 2 15.7003 59.3861 0.438718
366 2 19.7491 59.1964 0.23648
367 2 23.7716 59.2726 0.314661
368 2 27.5916 59.2612 0.32746
369 2 31.6906 59.3056 0.323084
370 2 35.5489 59.3325 0.0960635
371 2 40.0384 59.4473 0.115161
372 2 43.9168 59.1741 0.288175
373 2 47.6798 59.3882 0.39238
374 2 51.4236 59.3807 0.318848
375 2 55.438 59.4051 0.202008
376 2 59.5572 59.4116 0.184266
377 2 63.6098 59.1506 0.143339
378 2 67.308 59.278 0.146158
379 2 71.2368 59.4966 0.21381
380 2 75.5777 59.3177 0.0498274
381 2 79.237 59.3572 0.42615
382 2 83.1391 59.2615 0.184558
383 2 87.1779 59.3588 0.251247
384 2 91.3473 59.1545 0.219601
385 2 0.164638 63.2848 0.274628
386 2 4.23575 63.3095 0.280523
387 2 7.73303 63.2464 0.35355
388 2 11.9991 63.285 0.319771
389 2 15.9428 63.4135 0.378812
390 2 19.86 63.149 0.157957
391 2 23.8118 63.2914 0.407799
392 2 27.8805 63.3072 0.373548
393 2 31.8154 63.3059 0.316599
394 2 35.7108 63.3173 0.350511
395 2 39.8305 63.2724 0.138188
396 2 43.8104 63.3433 0.246676
397 2 47.5448 63.3256 0.27035
398 2 51.5421 63.3182 0.395533
399 2 55.6013 63.2411 0.301855
400 2 59.5453 63.2614 0.201985
401 2 63.3372 63.1522 0.386947
402 2 67.377 63.4586 0.256469
403 2 71.3271 63.4978 0.00421608
404 2 75.2499 63.4953 0.217319
405 2 79.337 63.5209 0.152453
406 2 83.1951 63.2189 0.237911
407 2 87.0992 63.4085 0.242022
408 2 91.1085 63.4825 0.346965
409 2 -0.0449171 67.594 0.404257
410 2 4.12712 67.2973 0.140235
411 2 8.02268 67.3232 0.225026
412 2 11.9182 67.4397 0.326473
413 2 15.652 67.4266 0.144814
414 2 19.7994 67.2446 0.521105
415 2 23.8189 67.2908 0.309998
416 2 27.6683 67.3743 0.450308
417 2 31.6817 67.3305 0.0714345
418 2 35.7905 67.4234 0.203685
419 2 39.5039 67.2741 0.250487
420 2 43.569 67.0201 0.0949121
421 2 47.5259 67.1216 0.180092
422 2 51.6466 67.2492 0.121993
423 2 55.5249 67.3063 0.433714
424 2 59.3849 67.4404 0.214093
425 2 63.2941 67.4438 0.280171
426 2 67.2942 67.4088 0.255389
427 2 71.1966 67.3591 0.250047
428 2 75.308 67.336 0.197907
429 2 79.2646 67.4823 0.220329
430 2 83.2099 67.3857 0.166278
431 2 87.1792 67.4802 0.161915
432 2 91.0737 67.3178 0.256677
433 2 0.0565973 71.357 0.338928
434 2 3.84677 71.3286 0.267354
435 2 8.03711 71.3209 0.374121
436 2 12.039 71.3718 0.204476
437 2 15.9313 71.1073 0.324331
438 2 20.1153 71.3379 0.2316
439 2 23.9006 71.3688 0.323588
440 2 27.9325 71.2773 0.32162
441 2 31.6229 71.1984 0.349454
442 2 35.7979 71.3494 0.24995
443 2 39.6983 71.3237 0.20128
444 2 43.6577 71.0521 -0.0751816
445 2 47.6608 71.1147 0.240219
446 2 51.5635 71.1445 0.208011
447 2 55.5226 71.2867 0.230138
448 2 59.3706 71.4367 0.143719
449 2 63.2329 71.3607 0.103017
450 2 67.2897 71.1849 0.292984
451 2 71.4156 71.3182 0.159819
452 2 75.4665 71.1493 0.182198
453 2 79.343 71.3331 0.306857
454 2 83.0831 71.2266 0.298654
455 2 87.0288 71.1826 0.303507
456 2 91.1149 71.4193 -0.0053937
457 2 0.108977 75.4172 0.117618
458 2 4.22668 75.3343 0.131261
459 2 7.95229 75.1505 0.295516
460 2 12.0832 75.2716 0.21151
461 2 15.9147 74.9102 0.24341
462 2 19.7985 75.3099 0.41664
463 2 23.7857 75.1037 0.218196
464 2 27.5659 75.2957 0.371065
465 2 31.7475 75.3294 0.195278
466 2 35.7291 75.0317 0.352723
467 2 39.4851 75.2656 0.287022
468 2 43.5196 75.3197 0.186177
469 2 47.5547 75.0854 0.38319
470 2 51.3554 75.2177 0.229946
471 2 55.4902 75.2926 0.144211
472 2 59.3013 75.3764 0.219918
473 2 63.3097 75.2991 0.389711
474 2 67.4986 75.276 0.252658
475 2 71.2398 75.2777 0.268754
476 2 75.4092 75.1488 0.383812
477 2 79.4211 75.3235 0.107672
478 2 83.3712 75.3807 0.163242
479 2 87.1893 75.2007 0.297605
480 2 90.9869 75.3494 0.320889
481 2 0.0323516 79.1876 0.268004
482 2 4.26017 79.0886 0.239822
483 2 8.41943 79.1872 0.380227
484 2 12.1976 79.1162 0.214565
485 2 15.9394 79.1065 0.343983
486 2 19.8201 79.1984 0.155468
487 2 23.905 79.2007 0.262629
488 2 27.7001 79.2656 0.191122
489 2 31.5936 79.2375 0.2719
490 2 35.9213 79.1263 0.285928
491 2 39.885 79.0544 0.114874
492 2 43.768 79.1027 0.186779
493 2 47.7049 79.0547 0.0655798
494 2 51.5152 79.0842 0.240948
495 2 55.4684 79.2266 0.147046
496 2 59.3283 79.2048 0.31485
497 2 63.3128 79.3964 0.23641
498 2 67.355 79.1704 0.183846
499 2 71.4401 79.1011 0.262193
500 2 75.501 79.1254 0.0747893
501 2 79.4528 79.1807 0.275824
502 2 83.4009 79.1849 0.356029
503 2 87.2077 79.3339 0.217554
504 2 91.0817 79.2644 0.355494
505 2 0.147619 83.0997 0.34857
506 2 4.0933 83.0591 0.303183
507 2 8.05079 83.0378 0.427902
508 2 12.2407 83.2147 0.100637
509 2 15.8402 83.0894 0.321864
510 2 19.9121 82.9382 0.11098
511 2 23.8673 82.9589 0.182752
512 2 27.6506 83.1622 0.206305
513 2 31.6294 83.1445 0.269788
514 2 35.9131 82.9654 0.123944
515 2 39.6782 83.2316 0.3677
516 2 43.7057 83.1269 0.169784
517 2 47.6191 83.1238 0.309135
518 2 51.6798 83.099 0.375085
519 2 55.7601 83.1802 0.124469
520 2 59.4833 83.1796 0.242932
521 2 63.4503 83.3077 0.206109
522 2 67.3864 83.2975 0.340912
523 2 71.5631 82.9785 0.0511131
524 2 75.5285 83.1131 0.353021
525 2 79.5108 83.2257 0.176997
526 2 83.2184 83.0223 0.0921295
527 2 87.0959 83.2867 0.372025
528 2 91.2807 83.1505 0.277291
529 2 0.328462 87.1023 0.144832
530 2 4.10631 87.1288 0.305558
531 2 8.11 87.0453 0.297574
532 2 11.8409 87.0381 0.147855
533 2 15.9308 87.0996 0.115224
534 2 19.8254 86.9502 0.320392
535 2 23.7946 87.2159 0.21724
536 2 27.7512 87.0559 0.0643166
537 2 31.8834 86.9637 0.433246
538 2 35.7759 87.0788 0.245326
539 2 39.576 87.0731 0.344064
540 2 43.4331 87.1252 0.190841
541 2 47.4429 87.0187 0.495382
542 2 51.4824 86.8931 0.291403
543 2 55.509 87.057 0.258408
544 2 59.6239 87.2873 0.29086
545 2 63.3967 87.0454 0.377116
546 2 67.2544 86.9837 0.215693
547 2 71.3598 86.9017 0.136257
548 2 75.2411 87.1035 0.27786
549 2 79.4987 87.1192 0.14733
550 2 83.3588 86.9966 0.398669
551 2 87.2873 87.0234 0.318783
552 2 91.3013 87.1739 0.292978
553 2 0.171542 90.9483 0.350083
554 2 4.15138 91.0857 0.261859
555 2 8.05839 90.9435 0.255414
556 2 12.072 91.1663 0.267987
557 2 16.0884 90.966 0.272756
558 2 19.7821 90.8374 0.273134
559 2 23.8888 90.9608 0.198497
560 2 27.6418 91.1122 0.344723
561 2 31.7197 91.0481 0.414732
562 2 35.7175 90.92 0.157228
563 2 39.543 91.2364 0.167733
564 2 43.5912 90.9832 0.0191273
565 2 47.6386 90.9414 0.188267
566 2 51.6034 91.0184 0.243158
567 2 55.5495 90.9586 0.151642
568 2 59.5415 91.1251 0.275786
569 2 63.3776 90.9704 0.339399
570 2 67.3597 90.9749 0.381824
571 2 71.4141 91.2255 0.119313
572 2 75.3113 91.0737 0.128963
573 2 79.368 90.9491 0.032461
574 2 83.1823 91.0423 0.279299
575 2 87.2723 91.1628 0.305344
576 2 91.3019 90.9907 0.223648
577 2 0.18627 -0.0203049 4.29784
578 2 4.15494 0.0382307 4.29625
579 2 8.13824 0.00928215 4.31375
580 2 11.9558 0.109943 4.22128
581 2 15.9567 0.0238133 4.2735
582 2 19.9761 -0.057629 4.19989
583 2 23.905 -0.0239374 4.29691
584 2 27.8257 -0.094758 4.3565
585 2 32.0171 -0.0197688 4.1909
586 2 35.5434 0.204014 4.204
587 2 39.8366 0.101272 4.19126
588 2 43.6298 0.0327515 4.19086
589 2 47.4397 -0.0543252 4.22914
590 2 51.6502 0.157439 4.17799
591 2 55.4401 0.107184 4.21019
592 2 59.5169 0.0299587 4.20158
593 2 63.2044 -0.0176891 4.27419
594 2 67.2801 -0.1758 4.4087
595 2 71.4771 0.0509264 4.20521
596 2 75.2857 0.040531 4.4319
597 2 79.1859 0.162392 4.07201
598 2 82.9557 0.0527046 4.17206
599 2 87.281 -0.0409447 4.4198
600 2 91.0995 0.183125 4.35462
601 2 0.0818648 4.00115 4.51846
602 2 3.90782 4.12863 4.26999
603 2 7.89107 3.79404 4.22788
604 2 11.9951 4.02632 4.40335
605 2 16.0243 3.95957 4.33039
606 2 20.0454 3.80355 4.28837
607 2 24.1045 3.9676 4.19928
608 2 27.9816 3.98605 4.06733
609 2 31.9239 3.91114 4.13532
610 2 35.8807 4.02612 4.27461
611 2 39.6806 3.95379 4.20926
612 2 43.5796 4.17791 4.16739
613 2 47.5188 3.84913 3.94549
614 2 51.4375 3.81091 4.16113
615 2 55.3861 4.185 4.15934
616 2 59.3309 3.8946 4.27339
617 2 63.2289 3.85443 4.16847
618 2 67.3455 3.82432 4.30798
619 2 71.1433 3.92395 4.33253
620 2 75.3469 3.90961 4.23004
621 2 79.3036 3.98001 4.23302
622 2 83.2457 3.96249 4.29707
623 2 87.3466 3.88603 4.27334
624 2 91.0879 4.24413 4.276
625 2 0.033844 7.97202 4.24546
626 2 4.07442 7.9505 4.26364
627 2 7.95957 7.96031 4.24211
628 2 11.858 7.98921 4.27749
629 2 16.0725 7.55525 4.14453
630 2 20.027 7.7738 4.33908
631 2 24.0278 7.93098 4.36038
632 2 27.9903 8.02576 4.51298
633 2 31.847 7.87178 4.14554
634 2 35.6519 7.95924 4.14095
635 2 39.7511 7.8294 4.26106
636 2 43.5077 8.03805 4.17801
637 2 47.5941 7.84136 4.18031
638 2 51.3938 7.86647 4.06785
639 2 55.5256 8.01965 4.09676
640 2 59.5729 7.89089 4.23575
641 2 63.4759 7.90178 4.19243
642 2 67.2817 7.77897 4.28143
643 2 71.4225 7.97143 4.18909
644 2 75.3066 7.85408 4.30273
645 2 79.285 7.9156 4.30562
646 2 83.1763 7.99054 4.18641
647 2 87.0815 7.99951 4.27708
648 2 91.0599 7.92499 4.31177
649 2 0.123738 11.9024 4.38916
650 2 3.96864 11.8381 4.37661
651 2 8.00057 11.7625 4.29364
652 2 11.9873 11.8345 4.31675
653 2 15.9738 11.6451 4.31573
654 2 19.8523 11.795 4.33944
655 2 23.8453 11.8631 4.10102
656 2 27.7766 11.9598 4.32304
657 2 31.7964 11.7901 4.22267
658 2 35.8531 11.9645 4.24063
659 2 39.5769 11.9113 4.23267
660 2 43.7395 11.8909 4.31573
661 2 47.6382 11.6946 4.25192
662 2 51.567 11.9049 4.23159
663 2 55.3642 12.0112 4.30085
664 2 59.5474 11.6909 4.14202
665 2 63.5655 11.7233 3.98852
666 2 67.3055 11.8825 4.29437
667 2 71.1546 11.9892 4.29594
668 2 75.2333 11.8409 4.10009
669 2 79.2009 11.8353 4.37291
670 2 83.192 11.7325 4.22651
671 2 87.1547 12.0156 4.26847
672 2 91.1235 11.8515 4.25609
673 2 0.0798665 15.9502 4.23586
674 2 4.05301 15.7511 4.40292
675 2 8.14061 15.8066 4.24897
676 2 11.9984 15.6663 4.29343
677 2 16.0089 15.6499 4.23636
678 2 19.9717 15.6608 4.24771
679 2 23.7506 15.57 4.08199
680 2 27.8298 15.9065 4.23471
681 2 31.9561 15.7968 4.1609
682 2 35.7432 15.9581 4.18632
683 2 39.6115 15.9834 4.01673
684 2 43.4584 15.5219 4.34367
685 2 47.4846 15.9155 4.12354
686 2 51.4408 15.892 4.12989
687 2 55.4826 15.8986 4.25153
688 2 59.3146 15.6491 4.33768
689 2 63.3124 15.8568 4.2634
690 2 67.2326 15.7728 4.24182
691 2 71.3663 15.954 4.24516
692 2 75.1332 15.8977 4.1929
693 2 79.2911 15.8189 4.18296
694 2 83.1448 15.9722 4.19679
695 2 87.3264 15.982 4.07117
696 2 91.1133 15.768 4.24837
697 2 0.0534746 19.9495 4.37516
698 2 3.99844 19.5446 4.18333
699 2 7.90196 19.8049 4.30023
700 2 12.127 19.6777 4.148
701 2 15.9437 19.5816 4.19553
702 2 19.9271 19.5376 3.98652
703 2 23.7564 19.7327 4.32208
704 2 27.7364 19.5811 4.1972
705 2 31.5907 19.5798 4.46847
706 2 35.6074 19.7775 4.1955
707 2 39.6287 19.687 4.26935
708 2 43.6544 19.6554 4.18361
709 2 47.4586 19.8487 4.0121
710 2 51.4655 19.8552 4.28026
711 2 55.5661 19.8415 4.15138
712 2 59.3611 19.8399 4.15261
713 2 63.607 19.8826 4.18129
714 2 67.4771 19.6795 4.24019
715 2 71.2585 19.6913 4.33676
716 2 75.2065 19.6369 4.26646
717 2 79.3047 19.8369 4.21882
718 2 83.3651 19.8945 4.02398
719 2 87.3013 19.8241 4.09919
720 2 91.1802 19.8146 4.26184
721 2 0.294044 23.7083 4.24717
722 2 4.06709 23.5215 4.25566
723 2 7.902 23.437 4.36959
724 2 12.0159 23.9222 4.25749
725 2 16.0518 23.6584 4.35864
726 2 19.7943 23.6714 4.10393
727 2 23.7709 23.7984 4.20462
728 2 27.8355 23.7127 4.20269
729 2 31.9546 23.7529 4.07504
730 2 35.6904 23.703 4.38693
731 2 39.6532 23.7096 4.41777
732 2 43.5741 23.7862 4.05254
733 2 47.5391 23.6963 3.95917
734 2 51.5473 23.6683 4.27014
735 2 55.6933 23.6852 4.16606
736 2 59.4093 23.6264 4.27799
737 2 63.4647 23.7552 4.27037
738 2 67.5944 23.686 4.34204
739 2 71.3324 23.6262 4.24878
740 2 75.4803 23.6139 4.2997
741 2 79.31 23.7606 4.30155
742 2 83.3135 23.6916 4.18833
743 2 87.1669 23.8072 4.30789
744 2 91.2957 23.7205 4.31221
745 2 0.0456791 27.5998 4.17434
746 2 3.97713 27.3142 4.27005
747 2 7.98181 27.5991 4.50604
748 2 11.829 27.6167 4.33018
749 2 15.7753 27.8114 4.19379
750 2 19.615 27.5391 4.32245
751 2 23.8023 27.6535 4.17831
752 2 27.6171 27.5848 4.38621
753 2 31.7735 27.6257 4.44168
754 2 35.715 27.6057 4.23346
755 2 39.6728 27.7397 4.25904
756 2 43.7845 27.7865 4.1713
757 2 47.5591 27.6966 4.19472
758 2 51.5464 27.9204 4.19356
759 2 55.4015 27.6822 4.14833
760 2 59.5491 27.7699 4.20568
761 2 63.6047 27.6246 4.10254
762 2 67.4203 27.816 4.34648
763 2 71.4067 27.53 4.26651
764 2 75.0665 27.509 4.32068
765 2 79.2662 27.6679 4.50563
766 2 83.2647 27.9011 4.10792
767 2 87.1365 27.7217 4.21103
768 2 91.1419 27.8451 4.2667
769 2 0.224792 31.4948 4.25461
770 2 4.03213 31.5486 4.18802
771 2 8.21925 31.3697 4.26647
772 2 11.8343 31.4991 4.16566
773 2 15.9457 31.7295 4.30028
774 2 20.0146 31.6311 4.09448
775 2 23.6632 31.5764 4.24226
776 2 27.851 31.6646 4.21205
777 2 31.7638 31.5782 4.2609
778 2 35.7598 31.5866 4.42377
779 2 39.8291 31.5948 4.21588
780 2 43.7613 31.4946 4.17043
781 2 47.544 31.5912 4.32653
782 2 51.4544 31.6424 4.27088
783 2 55.5248 31.559 4.32764
784 2 59.6302 31.5987 4.2952
785 2 63.4336 31.8345 4.10726
786 2 67.2864 31.6083 4.13188
787 2 71.3838 31.8296 4.2525
788 2 75.3505 31.6525 4.21402
789 2 79.2712 31.737 4.35068
790 2 83.1734 31.6702 4.23772
791 2 87.2775 31.4374 4.24141
792 2 91.096 31.6821 4.30067
793 2 0.0682779 35.5743 4.33459
794 2 4.13819 35.4499 4.23797
795 2 7.98485 35.5687 4.41408
796 2 12.0486 35.661 4.27375
797 2 15.9849 35.7442 4.34885
798 2 19.7209 35.5043 4.14338
799 2 23.7542 35.3657 4.25917
800 2 27.7649 35.6019 4.21191
801 2 31.687 35.5481 4.21943
802 2 35.7052 35.6187 4.42295
803 2 39.7492 35.4537 4.26568
804 2 43.6571 35.3746 4.13493
805 2 47.6647 35.5695 4.14058
806 2 51.3418 35.8575 4.31673
807 2 55.31 35.4857 4.35705
808 2 59.469 35.5808 4.36903
809 2 63.4256 35.6383 4.22686
810 2 67.3852 35.5763 4.23776
811 2 71.4338 35.4929 4.25628
812 2 75.3654 35.4047 4.29289
813 2 79.3364 35.698 4.15015
814 2 83.2581 35.7852 4.26162
815 2 87.241 35.6477 4.14646
816 2 91.0806 35.7318 4.28676
817 2 0.040858 39.4112 4.16719
818 2 4.03105 39.6325 4.42289
819 2 7.7901 39.5987 4.31698
820 2 11.7604 39.5852 4.40546
821 2 15.8147 39.5571 4.2833
822 2 19.9077 39.5223 4.23386
823 2 23.9463 39.4479 4.10147
824 2 28.0072 39.6664 4.22838
825 2 31.6927 39.6568 4.31622
826 2 35.5051 39.4673 4.40483
827 2 39.7127 39.3744 4.37642
828 2 43.5491 39.6094 4.38907
829 2 47.5193 39.6867 4.13505
830 2 51.5805 39.5656 4.16582
831 2 55.635 39.4517 4.17685
832 2 59.3711 39.4747 4.18798
833 2 63.491 39.4839 4.32094
834 2 67.4179 39.4914 4.31315
835 2 71.3146 39.4988 4.21482
836 2 75.4588 39.5297 4.10705
837 2 79.1823 39.5743 4.31955
838 2 83.1982 39.6977 4.25348
839 2 87.1461 39.3997 4.29726
840 2 91.0274 39.6298 4.43164
841 2 0.165113 43.5398 4.19054
842 2 4.14591 43.5217 4.38647
843 2 7.94931 43.8434 4.39949
844 2 12.1257 43.5333 4.34399
845 2 15.9329 43.4362 4.32383
846 2 19.8964 43.4657 4.33115
847 2 23.9612 43.3653 4.1737
848 2 27.6959 43.4826 4.37371
849 2 31.7356 43.6744 4.33224
850 2 35.8672 43.4324 4.30996
851 2 39.4539 43.5444 4.40532
852 2 43.5572 43.2532 4.46733
853 2 47.6282 43.4292 4.28814
854 2 51.6978 43.624 4.3874
855 2 55.6059 43.524 4.32618
856 2 59.4412 43.5119 4.23176
857 2 63.5503 43.6294 4.13347
858 2 67.3707 43.6195 4.2924
859 2 71.4608 43.6194 4.2085
860 2 75.2009 43.7564 4.15815
861 2 79.3785 43.6214 4.29121
862 2 83.1855 43.4577 4.29766
863 2 87.1712 43.4536 4.42982
864 2 91.1185 43.4824 4.29983
865 2 0.0885273 47.4885 4.33316
866 2 4.03366 47.4711 4.44769
867 2 7.95425 47.596 4.44193
868 2 12.1656 47.501 4.48258
869 2 15.9774 47.404 4.39614
870 2 19.9148 47.3667 4.29856
871 2 23.948 47.4913 4.20808
872 2 27.9545 47.3777 4.3214
873 2 31.8194 47.3878 4.30991
874 2 35.6444 47.5536 4.37446
875 2 39.64 47.4475 4.42571
876 2 43.3292 47.4532 4.22064
877 2 47.4834 47.4893 4.36051
878 2 51.365 47.7085 4.21018
879 2 55.5821 47.5541 4.1584
880 2 59.3856 47.4782 4.08322
881 2 63.4012 47.7097 4.08789
882 2 67.523 47.5569 4.10963
883 2 71.3904 47.5163 4.11094
884 2 75.3806 47.4504 4.25841
885 2 79.3985 47.3874 4.16048
886 2 83.1355 47.3768 4.18192
887 2 87.0376 47.5165 4.35056
888 2 91.121 47.5533 4.26265
889 2 0.170809 51.5273 4.45053
890 2 4.0336 51.5161 4.43284
891 2 8.00988 51.2094 4.2698
892 2 11.7874 51.5141 4.4108
893 2 15.902 51.5505 4.42819
894 2 19.9718 51.3568 4.50898
895 2 23.8187 51.1709 4.34097
896 2 27.7723 51.4513 4.12604
897 2 31.6513 51.2741 4.26828
898 2 35.5477 51.3662 4.27007
899 2 39.6334 51.3172 4.00775
900 2 43.7043 51.609 4.32382
901 2 47.6464 51.3276 4.29515
902 2 51.5394 51.2914 4.28303
903 2 55.468 51.5198 4.32062
904 2 59.3956 51.6994 4.05904
905 2 63.3927 51.6729 4.05176
906 2 67.3071 51.3274 4.27332
907 2 71.2519 51.3361 4.12773
908 2 75.457 51.5317 4.10621
909 2 79.2313 51.5415 4.26445
910 2 83.1536 51.3931 4.15916
911 2 87.1975 51.6064 4.26845
912 2 91.1487 51.5683 4.15957
913 2 -0.0515344 55.3618 4.28068
914 2 3.85959 55.4794 4.35766
915 2 7.98603 55.5166 4.40145
916 2 11.9557 55.4412 4.3181
917 2 15.7965 55.3377 4.42132
918 2 19.8822 55.3 4.48348
919 2 23.7542 55.3093 4.32491
920 2 27.8822 55.5604 4.24024
921 2 31.6324 55.4936 4.37484
922 2 35.8961 55.4567 4.13777
923 2 39.7514 55.3781 4.30389
924 2 43.6089 55.3306 4.34079
925 2 47.5685 55.356 4.18584
926 2 51.2694 55.2605 4.21148
927 2 55.4423 55.5168 3.88392
928 2 59.3739 55.4688 4.17755
929 2 63.434 55.668 4.34768
930 2 67.4105 55.3412 4.26071
931 2 71.3014 55.4271 4.24617
932 2 75.2641 55.5473 4.09989
933 2 79.2714 55.4352 4.20543
934 2 83.1904 55.5083 4.32032
935 2 87.1273 55.3227 4.28102
936 2 91.0986 55.4198 4.15239
937 2 0.190282 59.3785 4.21586
938 2 4.01818 59.369 4.40723
939 2 7.96419 59.4116 4.28878
940 2 12.0025 59.4029 4.45163
941 2 15.8849 59.3445 4.27368
942 2 19.9334 59.2966 4.24893
943 2 23.8393 59.1678 4.22204
944 2 27.9198 59.5686 4.21081
945 2 31.8287 59.476 4.34888
946 2 35.8151 59.4789 4.29697
947 2 39.7781 59.3574 4.19831
948 2 43.5639 59.0733 4.19082
949 2 47.5712 59.2944 4.18864
950 2 51.2575 59.3744 4.31172
951 2 55.3485 59.3288 4.29622
952 2 59.396 59.4106 4.27629
953 2 63.3555 59.3541 4.2297
954 2 67.5361 59.2903 4.09329
955 2 71.4311 59.4962 4.05751
956 2 75.1433 59.4237 4.13367
957 2 79.3174 59.4485 4.19977
958 2 83.235 59.6241 4.3041
959 2 87.2621 59.2277 4.03247
960 2 91.0517 59.4526 4.27312
961 2 0.151123 63.4861 4.34726
962 2 4.00942 63.3543 4.25685
963 2 7.90573 63.5329 4.24295
964 2 12.0859 63.5432 4.26066
965 2 16.1578 63.3702 4.04333
966 2 20.0073 63.4567 4.21274
967 2 23.8496 63.2615 4.13277
968 2 27.7754 63.4883 4.34871
969 2 31.9927 63.2233 4.20107
970 2 35.7652 63.4405 4.05565
971 2 39.7637 63.394 4.17127
972 2 43.776 63.3007 4.21035
973 2 47.5815 63.3085 4.19607
974 2 51.6701 63.3561 4.11846
975 2 55.607 63.3549 4.11322
976 2 59.4047 63.4473 4.13264