ITEM: TIMESTEP
57900
ITEM: NUMBER OF ATOMS
43200
ITEM: BOX BOUNDS xy xz yz pp pp pp
0.0000000000000000e+00 9.4992000000000004e+01 0.0000000000000000e+00
0.0000000000000000e+00 9.4992000000000004e+01 0.0000000000000000e+00
-1.6926033525347606e-02 5.9716926033526164e+01 0.0000000000000000e+00
ITEM: ATOMS id type x y z
1 2 0.146983 0.0381574 0.131559
2 2 4.02551 0.251554 0.287095
3 2 8.06993 -0.198108 0.257841
4 2 12.0838 0.15297 0.340162
5 2 15.989 -0.0280498 0.219759
6 2 19.8398 0.244885 0.11177
7 2 23.6713 0.0137204 0.153237
8 2 27.7832 -0.0785662 0.265071
9 2 31.9232 -0.0708755 0.312984
10 2 35.7323 -0.0458767 0.249897
11 2 39.708 0.059495 0.286976
12 2 43.6439 0.0580722 0.137997
13 2 47.6724 -0.0198704 0.339875
14 2 51.4409 0.0714097 0.331224
15 2 55.509 -0.215037 0.0990709
16 2 59.5537 -0.119131 0.327701
17 2 63.5475 -0.0553143 0.277429
18 2 67.3144 0.173406 0.277084
19 2 71.4007 -0.0635676 0.184806
20 2 75.2207 0.0876253 0.473249
21 2 79.4746 -0.000565562 0.104384
22 2 83.26 0.029392 0.227885
23 2 87.2186 0.147476 -0.00363517
24 2 91.3083 0.0525428 0.169659
25 2 -0.139214 4.0434 0.275629
26 2 4.02174 3.97074 0.310439
27 2 7.97298 3.83656 0.122399
28 2 12.1362 3.85941 0.114896
29 2 16.2081 3.98786 0.247154
30 2 19.9169 4.05551 0.456379
31 2 23.8726 4.04653 0.300141
32 2 27.8739 3.82093 0.309081
33 2 31.6145 4.14295 0.219975
34 2 35.7896 4.00452 0.223002
35 2 39.6348 3.92771 0.429087
36 2 43.6311 4.05796 0.21154
37 2 47.4993 3.86573 0.234582
38 2 51.5857 3.93162 0.301433
39 2 55.5963 3.93774 0.125169
40 2 59.4707 3.88254 0.273128
41 2 63.4234 3.92066 0.0814212
42 2 67.4079 3.87037 0.426735
43 2 71.3365 3.93502 0.308492
44 2 75.4318 3.86286 0.304117
45 2 79.4194 3.89734 0.228372
46 2 83.3793 4.02645 0.108717
47 2 87.3262 3.90956 0.276769
48 2 91.1514 3.94221 0.144359
49 2 0.100608 8.0037 0.0955126
50 2 4.10652 7.89328 0.115715
51 2 8.02652 8.15678 0.143433
52 2 12.0713 7.90406 0.199504
53 2 15.9259 8.08451 0.234139
54 2 19.9413 7.96988 0.302502
55 2 23.8203 7.99917 0.365355
56 2 27.8048 7.76856 0.29999
57 2 31.7341 7.98147 0.293188
58 2 35.5124 7.81666 0.371886
59 2 39.4887 7.91279 0.230161
60 2 43.7445 8.0188 0.609353
61 2 47.4244 7.90804 0.270873
62 2 51.6251 7.80416 0.18328
63 2 55.6307 8.00369 0.387886
64 2 59.4993 7.82812 0.273621
65 2 63.4545 7.94231 0.199912
66 2 67.2286 7.93593 0.256918
67 2 71.3205 7.8904 0.415949
68 2 75.3605 7.82352 0.270424
69 2 79.2125 7.98325 0.211585
70 2 83.0891 7.91497 0.327565
71 2 87.2076 7.87354 0.342833
72 2 91.141 7.92094 0.148825
73 2 0.0994318 12.0134 0.33313
74 2 4.08905 11.8208 0.35142
75 2 8.05222 11.8173 0.306329
76 2 12.0635 12.0186 0.312677
77 2 16.013 11.7985 0.206103
78 2 20.0916 11.7913 0.12751
79 2 24.0261 11.7818 0.40854
80 2 27.8931 11.9329 0.0510768
81 2 31.6687 11.967 0.410354
82 2 35.791 11.7356 0.288397
83 2 39.8238 11.9739 0.102438
84 2 43.5969 11.9348 0.432057
85 2 47.8298 11.7356 0.112456
86 2 51.5487 12.0397 0.135879
87 2 55.5908 11.875 0.422504
88 2 59.5715 11.8707 0.269459
89 2 63.4807 11.9308 0.220304
90 2 67.2293 11.9319 0.382348
91 2 71.2408 11.8202 0.202526
92 2 75.0696 11.8121 0.12762
93 2 79.2439 11.8689 0.367034
94 2 83.361 11.8817 0.246566
95 2 87.188 12.0171 0.25476
96 2 91.3001 11.8907 0.252744
97 2 0.141736 15.8258 0.0817592
98 2 4.09844 15.8852 0.0431954
99 2 8.10089 15.9462 0.293281
100 2 12.1332 15.7469 0.227217
101 2 16.0524 15.8032 0.188396
102 2 19.926 15.8538 0.23033
103 2 23.8415 15.846 0.313083
104 2 27.9073 16.0147 0.28161
105 2 31.9503 15.9703 0.197118
106 2 35.7826 15.5098 0.34874
107 2 39.566 16.1 0.427856
108 2 43.4346 15.9659 0.334748
109 2 47.5771 15.7761 0.228371
110 2 51.681 15.7674 0.378932
111 2 55.6429 15.8738 0.251355
112 2 59.3186 15.9013 0.0944868
113 2 63.2864 16.0058 0.261841
114 2 67.2134 15.8559 0.186103
115 2 71.1775 15.8645 0.230836
116 2 75.1744 15.8597 0.134164
117 2 79.2548 15.694 0.122368
118 2 83.4051 15.8029 0.138665
119 2 87.2919 15.7572 0.0449578
120 2 91.167 15.7052 0.155717
121 2 0.31046 19.7894 0.380166
122 2 4.23879 19.5938 0.259293
123 2 8.07529 19.6975 0.356436
124 2 12.2577 19.7328 0.0276807
125 2 15.9479 19.8768 0.297639
126 2 19.8039 19.8928 0.398814
127 2 23.7047 19.9649 0.112841
128 2 27.8052 19.6917 0.261847
129 2 31.6784 19.6813 0.338389
130 2 35.7462 19.779 0.313771
131 2 39.6974 19.7628 0.291462
132 2 43.755 19.7541 0.123653
133 2 47.7627 19.6505 0.171008
134 2 51.6714 19.8645 0.260228
135 2 55.5907 19.8382 0.124244
136 2 59.3639 19.9907 0.222758
137 2 63.4439 19.9122 0.271355
138 2 67.3906 19.9276 0.184733
139 2 71.4427 19.8271 0.250276
140 2 75.4917 19.7855 0.147817
141 2 79.3519 19.6862 0.294592
142 2 83.3236 19.8783 0.433585
143 2 87.3646 19.6304 0.17887
144 2 91.2725 19.9188 0.138862
145 2 0.122581 23.7133 0.216158
146 2 4.2641 23.7372 0.11107
147 2 7.96263 23.6196 0.283033
148 2 11.9519 23.8125 0.193134
149 2 16.0562 23.9058 0.275722
150 2 19.9019 23.8185 0.33807
151 2 23.8506 23.9416 0.355463
152 2 27.7427 23.5377 0.240888
153 2 31.8097 23.6037 0.344765
154 2 35.6688 23.87 0.361171
155 2 39.6551 23.6551 0.482598
156 2 43.6749 23.6016 0.230631
157 2 47.8277 23.7647 -0.0671004
158 2 51.747 23.6656 0.230198
159 2 55.5257 23.955 0.188644
160 2 59.5685 24.012 0.186703
161 2 63.5275 23.7273 0.338027
162 2 67.3063 23.7925 0.346567
163 2 71.3314 23.5828 0.412652
164 2 75.2775 23.8768 0.211084
165 2 79.2328 23.6898 0.310503
166 2 83.2444 23.7508 0.418353
167 2 87.3796 23.737 0.22617
168 2 91.3729 23.9315 0.18506
169 2 0.206641 27.7863 0.241803
170 2 4.0863 27.8338 0.352776
171 2 7.99496 27.6311 0.306798
172 2 12.1049 27.3877 0.118323
173 2 15.8253 27.856 0.13363
174 2 20.1119 27.73 0.292522
175 2 23.9188 27.9159 0.225985
176 2 27.8112 27.6725 0.320683
177 2 31.793 27.4922 0.285245
178 2 35.7721 27.7343 0.248199
179 2 39.5595 27.7445 0.308549
180 2 43.7837 27.5838 0.0971769
181 2 47.7198 27.5842 0.110347
182 2 51.5049 27.7705 0.262843
183 2 55.4766 27.8254 0.0956471
184 2 59.5367 27.7759 0.281051
185 2 63.3723 27.7158 0.223318
186 2 67.5567 27.7862 0.185222
187 2 71.3089 27.931 0.235056
188 2 75.2602 27.7506 0.351882
189 2 79.2673 28.0582 0.322163
190 2 83.2162 27.6286 0.427606
191 2 87.413 27.67 -0.00744026
192 2 91.3841 27.7537 0.17711
193 2 0.179693 31.6572 0.159824
194 2 4.32527 31.8096 0.306568
195 2 8.20729 31.5663 0.244226
196 2 11.944 31.48 0.158675
197 2 15.9184 31.8085 0.375144
198 2 19.7924 31.7639 0.40713
199 2 23.7294 31.802 0.250658
200 2 27.9674 31.619 0.309367
201 2 31.8744 31.4743 0.352376
202 2 35.6784 31.4693 0.206295
203 2 39.6707 31.735 0.154993
204 2 43.7141 31.5796 0.00575241
205 2 47.6421 31.8611 0.0313779
206 2 51.488 31.4777 0.417222
207 2 55.5671 31.545 0.240597
208 2 59.5793 31.465 0.0542765
209 2 63.4939 31.7665 0.0563589
210 2 67.4835 31.5925 0.153686
211 2 71.3293 31.6853 0.254511
212 2 75.272 31.495 0.177949
213 2 79.225 31.7736 0.313498
214 2 83.161 31.5844 0.259103
215 2 87.336 31.4987 0.20615
216 2 91.1212 31.4328 0.224256
217 2 0.25393 35.411 0.260579
218 2 4.12911 35.7277 0.227286
219 2 8.005 35.5517 0.286756
220 2 11.967 35.7492 0.103387
221 2 16.0998 35.5132 0.210747
222 2 19.8268 35.6553 0.312841
223 2 23.9376 35.624 0.489526
224 2 27.917 35.5533 0.274186
225 2 31.8457 35.3994 0.397908
226 2 35.6609 35.4918 0.309439
227 2 39.5804 35.568 0.215922
228 2 43.479 35.605 0.242463
229 2 47.4518 35.7347 0.308348
230 2 51.5311 35.5772 0.1438
231 2 55.5738 35.6707 0.0428699
232 2 59.5536 35.4703 0.210686
233 2 63.5638 35.8556 0.247488
234 2 67.529 35.553 -0.00962183
235 2 71.3719 35.7522 0.279439
236 2 75.2966 35.5948 0.501734
237 2 79.1472 35.68 0.254626
238 2 83.1784 35.7555 0.341836
239 2 87.2381 35.4617 0.350966
240 2 91.2898 35.5599 0.259989
241 2 0.285617 39.5092 0.319719
242 2 4.22552 39.5192 0.228469
243 2 8.03703 39.5421 0.244032
244 2 11.9453 39.5432 0.424592
245 2 15.8471 39.7252 0.246327
246 2 19.8384 39.5488 0.375648
247 2 23.806 39.7418 0.289431
248 2 27.7528 39.6199 0.115701
249 2 31.6738 39.4301 0.476635
250 2 35.7809 39.632 0.206072
251 2 39.6959 39.7637 0.349121
252 2 43.6408 39.7982 0.113576
253 2 47.6381 39.6663 0.284264
254 2 51.2949 39.6155 -0.0269155
255 2 55.4371 39.6659 0.212609
256 2 59.4685 39.5416 0.285955
257 2 63.434 39.7713 0.252454
258 2 67.4629 39.7602 0.0576197
259 2 71.2805 39.5749 0.39871
260 2 75.1801 39.7908 0.1343
261 2 79.3129 39.7083 0.132445
262 2 83.2216 39.5121 0.408818
263 2 87.3391 39.5486 0.381132
264 2 91.2002 39.5765 0.32704
265 2 0.0599603 43.3951 0.423356
266 2 4.21235 43.3995 0.257315
267 2 8.1352 43.4216 0.388035
268 2 11.9193 43.6179 0.230898
269 2 15.9297 43.7191 0.410373
270 2 20.0806 43.6969 0.0909152
271 2 23.8613 43.357 0.348538
272 2 27.9296 43.6101 0.279468
273 2 31.5197 43.5857 0.298821
274 2 35.6606 43.473 0.389404
275 2 39.7195 43.5653 0.158564
276 2 43.602 43.5957 0.00780994
277 2 47.5119 43.5922 0.174253
278 2 51.4507 43.5189 0.247572
279 2 55.4039 43.587 0.303834
280 2 59.3283 43.5373 0.168644
281 2 63.3456 43.6935 0.355501
282 2 67.3794 43.4457 0.246653
283 2 71.1508 43.7607 0.0862856
284 2 75.3319 43.5797 0.392268
285 2 79.2795 43.4477 0.264029
286 2 83.1822 43.6809 0.178204
287 2 87.1494 43.4547 0.246038
288 2 91.2361 43.2433 0.135996
289 2 0.110096 47.5033 0.392807
290 2 4.09704 47.3357 0.262595
291 2 7.79922 47.5431 0.21347
292 2 11.7802 47.2356 0.278992
293 2 15.8844 47.5738 0.363591
294 2 19.9301 47.5371 0.413859
295 2 23.7661 47.4662 0.249079
296 2 27.5507 47.6475 0.309761
297 2 31.7202 47.5679 0.229054
298 2 35.5971 47.352 0.304102
299 2 39.6262 47.4969 0.353587
300 2 43.7354 47.6946 0.0971383
301 2 47.5115 47.4703 0.234487
302 2 51.4783 47.3261 0.175086
303 2 55.4295 47.5996 0.324487
304 2 59.4912 47.445 0.373848
305 2 63.4475 47.5011 0.256734
306 2 67.3398 47.5582 0.223074
307 2 71.3568 47.6419 0.146288
308 2 75.2689 47.4209 0.15241
309 2 79.2843 47.4725 0.266708
310 2 83.2266 47.3541 0.270489
311 2 87.3348 47.492 0.30487
312 2 91.3255 47.3919 0.371782
313 2 -0.092014 51.4036 0.284866
314 2 4.15066 51.5314 0.308498
315 2 8.17748 51.5172 0.326414
316 2 11.9237 51.4781 0.350138
317 2 15.9331 51.6138 0.129616
318 2 20.0221 51.594 0.173361
319 2 23.8114 51.3749 0.401871
320 2 28.045 51.3188 0.285564
321 2 31.7411 51.4832 0.183426
322 2 35.7397 51.5349 0.0035505
323 2 39.6766 51.3577 0.290165
324 2 43.4166 51.2241 0.15305
325 2 47.4155 51.3268 0.205103
326 2 51.5777 51.432 0.143519
327 2 55.5441 51.3612 0.209233
328 2 59.4304 51.5919 0.0010324
329 2 63.5101 51.4611 0.178598
330 2 67.4164 51.5977 -0.0704667
331 2 71.3529 51.51 0.335976
332 2 75.3873 51.4486 0.313704
333 2 79.406 51.3608 0.223128
334 2 83.427 51.2983 0.143074
335 2 87.209 51.4242 0.3887
336 2 91.0954 51.4521 0.312934
337 2 0.128264 55.4801 0.323399
338 2 3.9618 55.4746 0.479914
339 2 8.03981 55.4809 0.419745
340 2 12.0275 55.375 0.272934
341 2 16.122 55.3804 0.0788507
342 2 19.8694 55.4272 0.184369
343 2 23.865 55.4617 0.255281
344 2 27.6963 55.426 0.37951
345 2 31.7586 55.4958 0.0130385
346 2 35.729 55.2318 0.302929
347 2 39.8068 55.352 0.218072
348 2 43.7101 55.315 0.162452
349 2 47.5789 55.269 0.223545
350 2 51.5857 55.4313 0.158872
351 2 55.6088 55.3898 0.361142
352 2 59.4645 55.2478 0.147914
353 2 63.5383 55.3906 0.222876
354 2 67.4661 55.4242 0.063243
355 2 71.4611 55.6645 0.126912
356 2 75.3944 55.427 0.280901
357 2 79.1978 55.4052 0.311946
358 2 83.1751 55.4942 0.216456
359 2 87.2749 55.4547 0.270756
360 2 91.1139 55.5643 0.237344
361 2 0.125782 59.4242 0.402886
362 2 4.19013 59.3151 0.353294
363 2 7.99669 59.3482 0.270751
364 2 12.0639 59.5084 0.176822
365 2 16.151 59.3513 0.334269
366 2 19.9747 59.3063 0.249439
367 2 23.821 59.4922 -0.0212909
368 2 27.6376 59.2449 0.459963
369 2 31.9438 59.0861 0.25201
370 2 35.8886 59.2257 0.387446
371 2 39.7938 59.3929 0.247881
372 2 43.6283 59.2041 0.401184
373 2 47.7402 59.3047 0.120063
374 2 51.5619 59.2006 -0.0418999
375 2 55.4839 59.4876 0.333143
376 2 59.5452 59.3376 0.298913
377 2 63.3308 59.4895 0.263169
378 2 67.2081 59.3251 0.342977
379 2 71.1929 59.4783 0.247304
380 2 75.2051 59.5091 0.301638
381 2 79.1793 59.3183 0.186671
382 2 83.2053 59.2145 0.475964
383 2 87.142 59.2513 0.398319
384 2 90.8923 59.6156 0.190293
385 2 0.171299 63.4212 0.346826
386 2 4.12996 63.3909 0.310154
387 2 7.97377 63.3738 0.279964
388 2 12.0386 63.3833 0.353473
389 2 15.9079 63.4155 0.354361
390 2 19.675 63.3053 0.267265
391 2 23.8902 63.4606 0.0942902
392 2 27.7006 63.2733 0.36165
393 2 31.8801 63.2402 0.0896502
394 2 35.703 63.4396 0.29068
395 2 39.7733 63.2936 0.308423
396 2 43.506 63.3483 0.268743
397 2 47.6677 63.3009 0.356651
398 2 51.4992 63.3155 0.268918
399 2 55.5093 63.215 0.133056
400 2 59.5875 63.2907 0.23078
401 2 63.3358 63.5038 0.307448
402 2 67.4181 63.4685 0.207974
403 2 71.3682 63.4049 0.159611
404 2 75.3514 63.2063 0.118465
405 2 79.3048 63.4417 0.263977
406 2 83.0776 63.1809 0.398439
407 2 87.1452 63.2291 0.26611
408 2 91.2199 63.3511 0.502541
409 2 0.0817543 67.4048 0.110473
410 2 3.93589 67.3831 0.324317
411 2 8.16801 67.2586 0.385412
412 2 12.1317 67.2709 0.312402
413 2 16.1683 67.4308 0.0519728
414 2 20.0648 67.3406 0.130877
415 2 23.7667 67.4215 0.196808
416 2 27.7409 67.3256 0.186577
417 2 31.8273 67.3295 0.250153
418 2 35.8631 67.4139 0.0755572
419 2 39.7011 67.4935 0.259814
420 2 43.6654 67.3903 0.302043
421 2 47.5645 67.3135 0.450628
422 2 51.5028 67.2613 0.325802
423 2 55.4807 67.0791 0.319411
424 2 59.4648 67.3662 0.24966
425 2 63.3259 67.5143 -0.0698595
426 2 67.3765 67.274 0.257076
427 2 71.4086 67.366 0.0275205
428 2 75.2784 67.2207 0.187804
429 2 79.1798 67.4103 0.342984
430 2 83.228 67.1361 0.335008
431 2 87.0953 67.1336 0.375269
432 2 91.1116 67.4649 0.492797
433 2 0.248441 71.2818 0.145998
434 2 4.25538 71.2698 0.200977
435 2 8.10652 71.3573 0.355812
436 2 11.9679 71.3785 0.33235
437 2 15.8741 71.3725 0.214492
438 2 20.0508 71.4859 0.0824281
439 2 24.0601 71.1208 0.299425
440 2 27.9459 71.1773 0.245709
441 2 31.75 71.1983 0.173213
442 2 35.8168 71.3148 0.15284
443 2 39.8547 71.2681 0.118211
444 2 43.7821 71.2529 0.251196
445 2 47.8025 71.3049 0.369654
446 2 51.5676 71.1946 0.437851
447 2 55.4133 71.0451 0.215374
448 2 59.5184 71.2949 0.124032
449 2 63.4736 71.4301 0.299788
450 2 67.3605 71.08 0.353321
451 2 71.4484 71.3538 0.231989
452 2 75.2509 71.0415 0.243477
453 2 79.124 71.2218 0.2959
454 2 83.2988 71.1338 0.174908
455 2 87.1346 71.3169 0.299131
456 2 91.0634 71.4118 0.282881
457 2 -0.222517 75.1589 0.265205
458 2 4.1188 75.5391 0.133937
459 2 8.00376 75.3042 0.432629
460 2 12.1635 75.3566 0.255764
461 2 15.7927 75.2104 0.188334
462 2 19.7377 75.1023 0.205341
463 2 23.8089 75.1443 0.391597
464 2 27.8745 75.2544 0.243334
465 2 31.9224 75.3468 -0.0187568
466 2 35.7666 75.0927 0.130106
467 2 39.7299 75.1201 0.254214
468 2 43.7108 75.2731 0.242101
469 2 47.7985 75.2891 0.130824
470 2 51.6237 74.9174 0.309916
471 2 55.4819 75.0485 0.262199
472 2 59.3765 75.3331 0.306821
473 2 63.5543 75.3117 0.321322
474 2 67.4505 75.2037 0.265651
475 2 71.3961 75.0939 0.199159
476 2 75.4056 75.0468 0.24746
477 2 79.4331 75.146 0.0877486
478 2 83.4234 75.0266 0.248399
479 2 87.039 75.1757 0.311638
480 2 91.15 75.2421 0.292961
481 2 0.259875 79.1407 0.258715
482 2 4.12964 79.1041 0.166415
483 2 8.10134 79.1726 0.363813
484 2 11.796 79.5003 0.203621
485 2 15.9469 79.3521 0.0364816
486 2 19.9228 79.1886 0.323707
487 2 23.6875 79.1793 0.347655
488 2 27.7054 79.1561 0.3526
489 2 31.8721 79.1948 0.127557
490 2 35.7538 79.26 0.173629
491 2 39.946 79.133 0.0542998
492 2 43.6623 79.0976 0.104712
493 2 47.4397 79.2748 0.292516
494 2 51.3655 79.0656 0.276696
495 2 55.3951 79.2124 0.143305
496 2 59.4566 79.3106 0.165454
497 2 63.3569 79.1813 0.318722
498 2 67.5265 79.1684 0.335054
499 2 71.4272 79.2126 0.272334
500 2 75.2333 79.12 0.343609
501 2 79.2753 79.0841 0.258884
502 2 83.3224 79.2341 0.231585
503 2 87.1295 78.9617 0.304429
504 2 91.0277 79.265 0.159745
505 2 -0.00349607 83.1459 0.097561
506 2 4.12235 83.0493 0.275967
507 2 8.09291 83.0567 0.151758
508 2 12.1012 83.2596 0.176766
509 2 16.0055 83.2646 0.161778
510 2 19.927 83.1594 0.139226
511 2 23.98 83.0682 0.362026
512 2 27.8337 83.2244 0.179175
513 2 31.8047 83.0519 0.279759
514 2 35.8433 83.0769 0.336792
515 2 39.5092 83.28 0.355943
516 2 43.6798 83.0355 0.277343
517 2 47.6481 83.2133 0.374964
518 2 51.217 82.9795 0.367228
519 2 55.3622 83.1618 0.217915
520 2 59.2471 83.0811 0.276093
521 2 63.1071 83.191 0.110009
522 2 67.2914 83.1999 0.176203
523 2 71.1682 83.1781 0.188258
524 2 75.2119 83.215 0.290611
525 2 79.2098 82.9591 0.308585
526 2 83.1652 83.3977 0.168036
527 2 87.1559 83.0804 0.134467
528 2 91.0908 83.0664 0.365791
529 2 0.00617445 87.1956 0.29769
530 2 3.86376 87.2034 0.250341
531 2 8.09549 86.7695 0.240788
532 2 12.083 87.0343 0.0637637
533 2 15.9868 87.0942 0.313615
534 2 19.9018 87.1115 -0.0558763
535 2 23.746 87.1179 0.119814
536 2 27.7102 87.0323 0.470598
537 2 31.6521 87.2517 0.261839
538 2 35.6314 87.0416 0.132225
539 2 39.5687 87.1923 0.410184
540 2 43.7327 86.9772 0.39373
541 2 47.4505 87.0881 0.113632
542 2 51.5227 86.9394 0.0911841
543 2 55.5195 86.9977 0.311966
544 2 59.3562 87.208 0.139382
545 2 63.3327 87.0389 0.251199
546 2 67.1993 87.023 0.229264
547 2 71.5711 87.1607 0.339719
548 2 75.3448 87.127 0.316331
549 2 79.3416 87.1684 0.110947
550 2 83.2125 87.167 0.171651
551 2 87.1485 87.2587 0.162852
552 2 91.1013 87.1512 0.0848055
553 2 0.0753357 90.9715 0.29408
554 2 4.12424 91.2564 0.0515044
555 2 8.14505 90.8077 0.176401
556 2 12.1784 90.8838 0.00460588
557 2 16.1392 90.9697 0.229334
558 2 19.9457 91.2565 0.188462
559 2 23.7596 91.1272 0.321102
560 2 27.9108 91.0362 0.38524
561 2 31.793 91.1055 0.270853
562 2 35.8441 91.0351 0.341852
563 2 39.9228 91.037 0.322393
564 2 43.7773 91.0405 0.286577
565 2 47.6875 90.9086 0.143263
566 2 51.5128 91.1028 0.245639
567 2 55.2684 91.1729 0.235907
568 2 59.2488 91.0738 0.162004
569 2 63.5512 91.1066 0.139222
570 2 67.4881 90.9224 0.242136
571 2 71.2622 91.0017 0.265818
572 2 75.2987 91.2037 0.363396
573 2 79.0787 90.994 0.161388
574 2 83.2596 91.0239 0.0605013
575 2 87.3249 91.1669 0.224792
576 2 91.0433 91.119 0.168604
577 2 0.104713 -0.194278 4.16873
578 2 4.24897 -0.00345996 4.15979
579 2 8.23615 -0.126079 4.15718
580 2 12.1695 0.164051 4.10713
581 2 15.9524 0.0541077 4.04891
582 2 19.9077 -0.139402 4.27833
583 2 23.8126 0.00768237 4.15519
584 2 28.0129 0.0844735 4.23137
585 2 31.7573 -0.149867 4.24971
586 2 35.6728 0.0860661 4.21652
587 2 39.7766 0.165923 4.21955
588 2 43.8043 -0.0218203 4.16588
589 2 47.654 -0.110991 4.26634
590 2 51.5516 0.00277297 4.28343
591 2 55.4746 0.156713 4.23052
592 2 59.6594 0.0696945 4.12285
593 2 63.5418 0.189221 4.39099
594 2 67.3858 0.0260839 4.28105
595 2 71.3371 -0.0257341 4.35236
596 2 75.3627 0.181999 4.17634
597 2 79.4205 -0.0331575 4.21345
598 2 83.2823 -0.0596775 4.35675
599 2 87.2146 -0.0414265 4.16317
600 2 91.1808 0.135213 4.16178
601 2 0.182967 3.93583 4.18354
602 2 4.25903 3.9323 3.98583
603 2 8.15044 4.07549 3.97543
604 2 12.1843 4.02896 4.18304
605 2 16.0838 3.96098 4.29782
606 2 20.0536 3.89178 4.20845
607 2 23.8554 3.83977 4.30238
608 2 27.9603 4.03215 4.13417
609 2 31.7655 3.95507 4.30663
610 2 35.645 3.79151 4.42106
611 2 39.6583 4.16917 4.47429
612 2 43.5464 4.11606 4.26871
613 2 47.8488 3.98278 4.02316
614 2 51.6739 4.00136 4.32482
615 2 55.3907 4.06371 4.27014
616 2 59.5748 4.08975 4.1017
617 2 63.3241 3.9195 4.22026
618 2 67.4523 3.97722 4.3064
619 2 71.3455 3.86884 4.35254
620 2 75.2828 4.04235 3.96484
621 2 79.2271 3.99097 4.33635
622 2 83.1165 3.74173 4.30634
623 2 87.1665 4.07062 4.15303
624 2 91.2583 3.94961 4.26088
625 2 0.349512 8.00819 4.09242
626 2 4.2043 7.84345 4.12065
627 2 8.12086 7.6919 4.1339
628 2 11.983 7.84171 4.2201
629 2 15.8345 7.96937 4.13775
630 2 19.8522 7.95828 4.27351
631 2 23.8446 7.7702 4.48804
632 2 28.012 7.96497 4.30484
633 2 31.7963 8.1424 4.27366
634 2 35.5634 8.00359 4.36924
635 2 39.667 8.13692 4.22809
636 2 43.7783 7.92848 4.23785
637 2 47.3089 7.9834 4.16713
638 2 51.4249 7.86469 4.00703
639 2 55.6388 7.96825 4.27113
640 2 59.6213 8.08064 4.14947
641 2 63.4397 7.82642 4.12669
642 2 67.3819 7.86951 4.16858
643 2 71.4395 7.90098 4.30296
644 2 75.3117 7.84987 4.15918
645 2 79.285 7.90721 4.14901
646 2 83.1947 7.69466 4.30961
647 2 87.3384 7.78982 4.44764
648 2 91.4085 7.89012 4.24586
649 2 0.277124 11.8579 4.35156
650 2 4.13259 11.8827 4.2284
651 2 8.04491 11.8392 4.00416
652 2 11.9348 11.8093 4.25696
653 2 16.0018 11.893 4.24376
654 2 19.739 11.8908 4.15911
655 2 23.7304 12.0048 4.07278
656 2 27.7884 11.9651 4.24014
657 2 31.7256 11.9332 4.24081
658 2 35.6222 11.931 4.11053
659 2 39.8184 11.9446 4.35573
660 2 43.5849 12.1015 4.36127
661 2 47.6425 11.8908 4.22775
662 2 51.5755 11.7044 4.02983
663 2 55.5137 11.6167 4.18129
664 2 59.662 11.9271 4.27026
665 2 63.6569 11.9966 4.28888
666 2 67.4164 11.9007 4.27728
667 2 71.4573 11.9335 3.9989
668 2 75.4757 11.9355 4.09475
669 2 79.2754 11.7924 4.10076
670 2 83.3674 11.8408 4.27203
671 2 87.4638 11.9997 4.23481
672 2 91.4 11.8938 4.09391
673 2 0.175195 15.968 4.31202
674 2 4.21829 15.8364 4.05133
675 2 8.03932 15.6878 4.25588
676 2 11.9604 15.7342 4.29576
677 2 15.9049 15.7424 4.22451
678 2 19.9492 15.845 4.32614
679 2 23.6656 15.8015 4.145
680 2 27.6573 15.8089 4.28564
681 2 31.843 15.8418 4.33433
682 2 35.8065 15.8054 4.33364
683 2 39.7403 15.8754 4.17097
684 2 43.7122 15.9986 4.19739
685 2 47.7023 15.9945 4.25206
686 2 51.6639 15.7895 4.23662
687 2 55.5494 15.9397 4.23256
688 2 59.3538 15.7978 4.32357
689 2 63.433 16.0898 4.26323
690 2 67.3473 15.7052 4.18747
691 2 71.503 15.8998 4.08165
692 2 75.4995 15.8639 4.1894
693 2 79.5053 15.8929 4.16166
694 2 83.3165 15.8673 4.28546
695 2 87.3151 16.0409 4.10823
696 2 91.0771 15.9739 4.06646
697 2 0.249121 20.013 4.15628
698 2 4.14856 19.7495 4.38726
699 2 8.04058 19.7535 4.23104
700 2 12.0751 19.7883 4.31785
701 2 15.954 19.8518 4.27585
702 2 19.8582 19.5527 4.29935
703 2 23.82 19.8072 4.25997
704 2 27.785 19.7058 4.07089
705 2 31.741 19.7662 4.25204
706 2 35.8365 19.8384 4.54341
707 2 39.7306 19.9351 4.28121
708 2 43.8003 20.0267 4.1875
709 2 47.5704 19.7515 4.28318
710 2 51.627 19.7609 4.08595
711 2 55.5115 19.9582 4.14707
712 2 59.4704 19.8504 3.95092
713 2 63.4117 19.8558 4.42225
714 2 67.3744 19.7156 4.19016
715 2 71.4072 19.7885 4.18921
716 2 75.424 19.5284 3.91185
717 2 79.3303 19.8303 4.35924
718 2 83.2252 19.7105 4.21593
719 2 87.1701 19.8147 4.10827
720 2 91.4378 20.0319 4.12044
721 2 0.33162 23.7059 4.40261
722 2 4.13185 23.7701 4.16812
723 2 8.07606 23.4905 4.25425
724 2 12.1566 23.7842 4.1355
725 2 16.0087 23.8184 4.30661
726 2 20.0769 23.7413 4.30729
727 2 23.9097 23.8299 4.29585
728 2 27.8418 23.7048 4.11594
729 2 31.5606 23.8152 4.21376
730 2 35.7591 23.886 4.25197
731 2 39.756 23.8967 4.12024
732 2 43.5643 23.8343 4.35201
733 2 47.4587 23.8046 4.36769
734 2 51.3609 23.738 4.30667
735 2 55.5912 23.8167 4.10847
736 2 59.5069 23.8398 4.26029
737 2 63.5506 23.8548 4.31045
738 2 67.5967 23.9481 4.1045
739 2 71.5378 23.7227 4.40232
740 2 75.2728 23.7473 4.35679
741 2 79.3567 23.8809 4.23357
742 2 83.305 23.7131 4.28466
743 2 87.4568 23.7385 4.17884
744 2 91.2662 23.8015 4.15032
745 2 -0.0830924 27.7515 4.13908
746 2 4.13699 27.6196 4.19959
747 2 8.14578 27.71 4.17977
748 2 12.0709 27.5281 4.23555
749 2 15.8101 27.6544 4.28183
750 2 19.8984 27.7944 4.35884
751 2 23.6542 27.8088 4.16415
752 2 27.9938 27.6819 4.26199
753 2 31.5901 27.663 4.30493
754 2 35.6194 27.7127 4.37378
755 2 39.6339 27.7494 4.11517
756 2 43.5757 27.9561 4.15143
757 2 47.7363 27.7165 4.23315
758 2 51.5764 27.7158 4.29922
759 2 55.598 27.5306 4.12071
760 2 59.357 27.989 4.06062
761 2 63.2977 27.8965 4.1803
762 2 67.3965 27.8401 4.25943
763 2 71.3335 27.7423 4.35745
764 2 75.2159 27.7507 4.40628
765 2 79.4248 27.6526 4.08923
766 2 83.5278 27.6121 4.23225
767 2 87.1802 27.6962 4.37718
768 2 91.3912 27.6854 4.30161
769 2 0.465571 31.7687 4.18531
770 2 4.12829 31.7773 4.43608
771 2 8.16702 31.7192 4.20414
772 2 12.0632 31.7651 4.24321
773 2 15.9845 31.7423 4.32484
774 2 20.0467 31.8003 4.19977
775 2 24.0267 31.8246 4.35879
776 2 27.9043 31.4484 4.4007
777 2 31.906 31.5748 4.38536
778 2 35.9206 31.617 4.05718
779 2 39.6259 31.7435 4.20217
780 2 43.6361 31.8651 4.0396
781 2 47.3226 31.6707 3.97356
782 2 51.5043 31.616 4.19434
783 2 55.3115 31.433 4.13589
784 2 59.5859 31.6705 4.1671
785 2 63.3797 31.8809 3.83089
786 2 67.2234 31.7446 4.03951
787 2 71.4526 31.6325 4.27013
788 2 75.3398 31.4544 4.1622
789 2 79.3133 31.5636 4.35697
790 2 83.4887 31.4513 4.08069
791 2 87.4383 31.8201 4.12778
792 2 91.207 31.7747 4.23134
793 2 0.186973 35.6765 4.24875
794 2 4.20121 35.6365 4.3524
795 2 8.27718 35.5406 4.2638
796 2 12.212 35.5224 4.12196
797 2 15.8436 35.635 4.25831
798 2 19.9932 35.7491 4.35385
799 2 24.0862 35.6087 4.38073
800 2 27.8027 35.5953 4.3977
801 2 31.7705 35.4312 4.29122
802 2 35.8167 35.6986 4.31127
803 2 39.9022 35.7133 4.0717
804 2 43.7367 35.6751 4.26873
805 2 47.6798 35.6798 4.10811
806 2 51.5033 35.6332 4.23466
807 2 55.5079 35.5782 4.00201
808 2 59.3485 35.7385 4.12047
809 2 63.4827 35.7207 4.16016
810 2 67.3984 35.6542 4.2876
811 2 71.4761 35.6122 4.16291
812 2 75.5813 35.6145 4.20709
813 2 79.3193 35.5855 4.25438
814 2 83.288 35.4692 4.28781
815 2 87.3374 35.6117 4.12177
816 2 91.3299 35.5362 4.1979
817 2 0.302332 39.7189 4.23588
818 2 4.24864 39.5839 4.16802
819 2 8.20519 39.3965 4.19094
820 2 12.0623 39.5173 4.18271
821 2 15.9138 39.5498 4.195
822 2 19.8637 39.6815 4.3381
823 2 24.0027 39.6893 4.27288
824 2 27.9109 39.5026 4.39774
825 2 31.9215 39.5603 4.23771
826 2 35.4794 39.6088 4.26654
827 2 39.5809 39.5012 4.36018
828 2 43.566 39.77 4.15494
829 2 47.6464 39.6279 4.18838
830 2 51.6223 39.4801 3.98801
831 2 55.6606 39.6592 4.1
832 2 59.4923 39.6348 4.25922
833 2 63.4319 39.5593 4.2601
834 2 67.3919 39.6645 4.18897
835 2 71.4029 39.561 4.29946
836 2 75.3009 39.5691 4.26594
837 2 79.5411 39.6014 4.36533
838 2 83.3033 39.5553 4.2383
839 2 87.4574 39.4413 4.25641
840 2 91.2765 39.5921 4.42786
841 2 0.169087 43.528 4.30749
842 2 4.11878 43.5305 4.43582
843 2 8.03264 43.4252 4.30973
844 2 12.0938 43.5922 4.34732
845 2 15.8754 43.5635 4.14227
846 2 19.8309 43.5096 4.41939
847 2 23.8117 43.7005 4.2025
848 2 28.0154 43.488 4.12361
849 2 31.6319 43.7666 4.43808
850 2 35.7295 43.5448 4.28495
851 2 39.56 43.4965 4.04552
852 2 43.513 43.6239 4.21622
853 2 47.5406 43.7243 4.10925
854 2 51.6271 43.4385 4.15458
855 2 55.3797 43.467 3.93337
856 2 59.1422 43.4209 4.31206
857 2 63.3148 43.6276 4.16197
858 2 67.3683 43.5822 4.11587
859 2 71.315 43.5744 4.0873
860 2 75.3008 43.514 4.13639
861 2 79.2138 43.596 4.26789
862 2 83.3824 43.3982 4.15834
863 2 86.9667 43.6492 4.23719
864 2 91.1697 43.4726 4.25896
865 2 0.336748 47.6595 4.11964
866 2 4.18437 47.5436 4.22204
867 2 7.97556 47.4881 4.38017
868 2 11.86 47.4202 4.39409
869 2 15.7756 47.7262 4.18989
870 2 19.9579 47.425 4.24623
871 2 23.6786 47.5718 4.24396
872 2 27.6376 47.5549 4.40618
873 2 31.6923 47.5356 4.27182
874 2 35.5601 47.5325 4.18961
875 2 39.5976 47.6436 4.2297
876 2 43.6237 47.457 4.2277
877 2 47.6432 47.621 4.25335
878 2 51.6001 47.4719 4.18509
879 2 55.5823 47.6186 4.24608
880 2 59.3295 47.3395 4.21059
881 2 63.3499 47.5619 4.13937
882 2 67.4216 47.8382 4.10901
883 2 71.5148 47.627 4.06945
884 2 75.2268 47.5158 4.19862
885 2 79.262 47.3354 4.24713
886 2 83.1304 47.633 4.21048
887 2 87.2363 47.6187 4.18599
888 2 91.4068 47.3809 4.06542
889 2 0.0595101 51.6877 4.17083
890 2 4.06789 51.6521 4.22795
891 2 8.11519 51.5277 4.31851
892 2 11.9201 51.3839 4.05476
893 2 15.9609 51.1428 4.30705
894 2 19.9331 51.4915 4.35405
895 2 23.6627 51.5965 4.38963
896 2 27.7687 51.4943 4.17071
897 2 31.5832 51.4216 4.32608
898 2 35.726 51.515 4.21349
899 2 39.5499 51.6444 4.21581
900 2 43.6988 51.507 4.45373
901 2 47.627 51.5386 4.06117
902 2 51.6166 51.3516 4.24086
903 2 55.39 51.4709 4.32168
904 2 59.353 51.3309 4.13101
905 2 63.4933 51.4897 4.36432
906 2 67.2849 51.5373 4.25553
907 2 71.4285 51.7606 4.09621
908 2 75.1797 51.5904 4.28409
909 2 79.1334 51.3147 4.27535
910 2 83.163 51.5009 4.37084
911 2 87.1016 51.4114 4.24746
912 2 91.1372 51.621 4.12335
913 2 -0.058649 55.5196 4.26497
914 2 3.86776 55.2825 4.61137
915 2 8.00394 55.4993 4.33831
916 2 12.0783 55.5931 4.19841
917 2 16.0322 55.4107 4.28899
918 2 19.8058 55.4105 4.13278
919 2 23.9501 55.2063 4.32922
920 2 27.7176 55.4452 4.47557
921 2 31.6914 55.2874 4.39986
922 2 35.6824 55.5895 4.35406
923 2 39.7162 55.7414 4.2389
924 2 43.6205 55.338 4.29582
925 2 47.7206 55.3678 4.20292
926 2 51.4895 55.2743 4.19807
927 2 55.4105 55.3098 4.1834
928 2 59.5217 55.4852 4.2022
929 2 63.5531 55.2954 4.13056
930 2 67.4433 55.511 4.14728
931 2 71.4236 55.4959 4.03199
932 2 75.3333 55.5396 4.15881
933 2 79.4046 55.5452 4.17485
934 2 83.1923 55.3917 4.21986
935 2 87.2341 55.3797 4.26397
936 2 91.2788 55.497 4.30751
937 2 0.273005 59.4072 4.26739
938 2 4.09317 59.3391 4.21043
939 2 8.14542 59.6171 4.1341
940 2 11.9622 59.4573 4.18894
941 2 15.9131 59.3252 4.22402
942 2 19.8284 59.4359 4.15684
943 2 23.9496 59.2066 4.33168
944 2 27.7491 59.5639 4.03722
945 2 31.7692 59.4722 4.17387
946 2 35.8106 59.6065 4.30898
947 2 39.706 59.5691 4.19975
948 2 43.7398 59.2726 4.37123
949 2 47.5868 59.3651 4.19382
950 2 51.4975 59.3607 4.31929
951 2 55.3297 59.4732 4.37728
952 2 59.4443 59.3323 4.25574
953 2 63.3336 58.9694 4.16486
954 2 67.3093 59.5945 4.26216
955 2 71.2547 59.2933 4.31646
956 2 75.0317 59.4769 4.4851
957 2 79.2838 59.2568 4.317
958 2 83.1756 59.5467 4.35401
959 2 87.3877 59.264 4.29755
960 2 91.2792 59.3472 4.40539
961 2 0.243165 63.3506 4.34847
962 2 4.0627 63.4466 4.18454
963 2 8.03515 63.4573 4.05895
964 2 12.1412 63.4143 4.16668
965 2 16.0658 63.3116 4.52381
966 2 19.8459 63.2751 4.34352
967 2 23.5446 63.3842 4.47202
968 2 28.0214 63.4128 4.16228
969 2 31.7523 63.4705 4.07528
970 2 35.8792 63.4851 4.11262
971 2 39.7864 63.43 4.33385
972 2 43.7432 63.3618 4.15498
973 2 47.8283 63.2942 4.08923
974 2 51.6099 63.3406 4.19563
975 2 55.5219 63.3681 4.23887
976 2 59.5087 63.2828 4.29359
977 2 63.4759 63.3031 4.41345