ITEM: TIMESTEP
59500
ITEM: NUMBER OF ATOMS
43200
ITEM: BOX BOUNDS xy xz yz pp pp pp
0.0000000000000000e+00 9.4992000000000004e+01 0.0000000000000000e+00
0.0000000000000000e+00 9.4992000000000004e+01 0.0000000000000000e+00
-1.8532997509979054e-03 5.9701853299751576e+01 0.0000000000000000e+00
ITEM: ATOMS id type x y z
1 2 0.131517 -0.157682 0.266597
2 2 4.18451 0.0392926 0.347248
3 2 8.07555 -0.0214281 0.404054
4 2 12.2251 -0.0597971 0.0725219
5 2 15.8456 -0.0634767 0.315763
6 2 19.827 0.119112 0.477979
7 2 23.9786 0.0755042 0.085425
8 2 27.8475 -0.164613 0.282465
9 2 31.7462 -0.0257031 0.390861
10 2 35.7646 0.0219828 0.44596
11 2 39.9481 -0.0721941 0.148917
12 2 43.8596 -0.0496515 0.237587
13 2 47.8198 0.0355064 0.124457
14 2 51.4021 0.157054 0.358195
15 2 55.5201 -0.0358331 0.222227
16 2 59.4446 0.000138741 0.399043
17 2 63.4154 0.139153 0.295572
18 2 67.3986 0.021396 0.165384
19 2 71.464 0.209497 0.234047
20 2 75.3255 0.0369736 0.0777304
21 2 79.4332 0.063675 0.329763
22 2 83.4149 0.17512 0.380864
23 2 87.2776 -0.0341541 0.289923
24 2 91.244 0.117721 0.451065
25 2 0.15653 3.99046 0.1587
26 2 4.03243 3.99517 0.245315
27 2 7.88794 4.10141 0.330827
28 2 11.9158 3.8427 0.289896
29 2 15.9632 3.93917 0.34599
30 2 19.9162 3.83649 0.430442
31 2 23.8772 3.77745 0.32231
32 2 27.7711 3.98728 0.224438
33 2 31.7832 3.92788 0.256535
34 2 35.7318 3.92106 0.301458
35 2 39.5343 4.03865 0.315941
36 2 43.8172 4.03978 0.420154
37 2 47.8203 3.92615 0.252875
38 2 51.731 3.92039 0.204597
39 2 55.5107 3.7867 0.335533
40 2 59.6149 3.93108 0.444699
41 2 63.3718 3.88009 0.184496
42 2 67.259 3.95826 0.308797
43 2 71.3875 4.08107 0.244549
44 2 75.4263 3.94798 0.284613
45 2 79.4689 3.97073 0.259739
46 2 83.3532 4.19715 0.166485
47 2 87.1452 4.16848 0.216718
48 2 91.1669 3.98009 0.288923
49 2 0.383715 7.98148 0.0923478
50 2 4.06645 8.13274 0.327848
51 2 7.99233 7.76697 0.378316
52 2 11.9586 7.80842 0.374639
53 2 15.8585 7.87061 0.494649
54 2 19.8964 8.01309 0.319846
55 2 23.9658 7.73274 0.398489
56 2 27.8191 7.99637 0.372789
57 2 31.8023 8.03424 0.325101
58 2 35.7636 7.93651 0.195129
59 2 39.5781 8.07038 0.158946
60 2 43.6805 7.69093 0.0413243
61 2 47.867 7.9571 0.164049
62 2 51.6159 7.92329 0.128219
63 2 55.6872 7.75879 0.238658
64 2 59.5547 7.73168 0.164252
65 2 63.3627 8.13839 0.236591
66 2 67.191 7.98459 0.236924
67 2 71.5016 7.91701 0.366624
68 2 75.1891 8.01654 0.113478
69 2 79.258 7.80994 0.267259
70 2 83.3194 8.04555 0.279611
71 2 87.289 8.01697 0.247474
72 2 91.183 7.75468 0.334707
73 2 0.25127 12.0235 0.246089
74 2 4.36095 11.9868 0.266105
75 2 8.03645 11.708 0.358928
76 2 11.9516 11.7947 0.451222
77 2 15.9836 11.9046 0.30361
78 2 19.9633 11.8302 0.376751
79 2 23.9552 11.7526 0.197876
80 2 27.882 11.7433 0.345255
81 2 31.7908 11.7336 0.141058
82 2 35.9316 12.0374 0.00320884
83 2 39.7334 12.0349 0.35772
84 2 43.8087 11.7927 0.0838082
85 2 47.5996 11.8554 0.167241
86 2 51.5557 11.7333 0.246843
87 2 55.5868 11.8244 0.306791
88 2 59.5299 12.0236 0.275918
89 2 63.4658 12.0608 0.356215
90 2 67.4855 11.9204 0.17824
91 2 71.3049 11.8257 0.375914
92 2 75.3563 11.9785 0.143581
93 2 79.4127 11.674 0.238048
94 2 83.1224 11.8339 0.275064
95 2 87.2921 11.9967 0.280921
96 2 91.2606 11.7779 0.304968
97 2 0.0319667 15.7835 0.43109
98 2 4.01172 15.7804 0.234196
99 2 7.98545 15.8386 0.367309
100 2 12.11 15.7009 0.258104
101 2 15.8772 15.8923 0.286447
102 2 19.8709 15.8248 0.396802
103 2 23.7645 15.8914 0.415673
104 2 27.9538 15.7702 0.255422
105 2 31.67 15.6807 0.284706
106 2 35.7377 16.062 0.342369
107 2 39.7496 15.8506 0.239868
108 2 43.5166 15.8769 0.190205
109 2 47.6074 15.8256 0.197058
110 2 51.4799 15.8625 0.0938665
111 2 55.4918 16.1313 0.351711
112 2 59.8125 15.9373 0.112973
113 2 63.4375 15.8327 0.279767
114 2 67.288 15.8679 0.297719
115 2 71.3989 15.9725 -0.0102707
116 2 75.357 15.8126 0.330373
117 2 79.2934 15.9269 0.180227
118 2 83.296 15.7423 0.0667606
119 2 87.2135 15.8285 0.27745
120 2 91.0383 15.8841 0.260704
121 2 0.112794 19.7603 0.333973
122 2 3.95958 19.7853 0.115211
123 2 8.12867 19.8066 0.176595
124 2 12.0422 19.7162 0.0983121
125 2 15.8944 19.8033 0.328978
126 2 19.9585 19.6863 0.274842
127 2 23.8049 19.9174 0.284955
128 2 27.7171 19.9148 0.276896
129 2 31.7078 19.7906 0.24208
130 2 35.6659 20.0044 0.193536
131 2 39.7287 19.7293 -0.00833676
132 2 43.6136 19.8296 0.38751
133 2 47.6718 19.8149 0.352876
134 2 51.7543 19.7422 0.237838
135 2 55.3872 19.8844 0.372665
136 2 59.5159 19.8453 0.327297
137 2 63.6772 19.6749 0.222781
138 2 67.3353 19.947 0.248494
139 2 71.0684 19.5964 0.346626
140 2 75.4568 19.9032 0.288434
141 2 79.2725 19.9605 0.335492
142 2 83.2634 19.9114 0.401819
143 2 87.296 19.8165 0.317675
144 2 91.2741 19.8528 0.367261
145 2 0.0238787 23.6993 0.416383
146 2 4.11379 23.9177 0.487672
147 2 8.03227 23.6421 0.288047
148 2 11.9559 23.8611 0.239521
149 2 15.8104 23.7605 0.216354
150 2 19.7266 23.7356 0.166813
151 2 23.7989 23.6512 0.245842
152 2 27.7548 23.8189 0.177826
153 2 31.6442 23.818 0.302623
154 2 35.6255 23.8542 0.244917
155 2 39.8749 23.892 0.0370597
156 2 43.7424 23.9937 0.244235
157 2 47.7849 23.5576 0.160022
158 2 51.6405 23.6627 0.223574
159 2 55.5238 23.8 0.221591
160 2 59.4291 23.7595 0.465179
161 2 63.0979 23.6848 0.305701
162 2 67.4179 23.6201 0.345139
163 2 71.5477 23.5867 0.41639
164 2 75.5325 23.4705 0.220447
165 2 79.3258 23.9166 0.272894
166 2 83.2401 23.9477 0.116631
167 2 87.4533 23.7286 0.185639
168 2 91.3556 23.6583 0.145355
169 2 0.130763 27.6337 0.241563
170 2 4.01142 27.5964 0.484908
171 2 8.12374 27.5782 0.309439
172 2 12.1378 27.7896 0.261678
173 2 15.9733 27.879 0.357228
174 2 19.7755 27.5371 0.253574
175 2 23.7468 27.7434 0.29703
176 2 27.8204 27.8203 0.1871
177 2 31.7937 27.8021 0.204274
178 2 35.7008 27.5685 0.337844
179 2 39.4969 27.8105 0.251546
180 2 43.682 27.6617 0.298198
181 2 47.6527 27.8093 0.166724
182 2 51.5346 27.7118 0.167285
183 2 55.5397 27.6336 0.406149
184 2 59.469 27.6676 0.378863
185 2 63.4472 27.6997 0.278673
186 2 67.5344 27.6975 0.273787
187 2 71.3888 27.6341 0.162781
188 2 75.4698 27.6378 0.134969
189 2 79.4936 27.6816 0.100609
190 2 83.4058 27.6916 0.159552
191 2 87.3972 27.6518 0.228706
192 2 91.0645 27.7284 0.470412
193 2 -0.0148895 31.6267 0.151654
194 2 4.12717 31.552 0.402012
195 2 8.01151 31.6997 0.316384
196 2 12.1719 31.787 0.187288
197 2 16.0115 31.6523 0.296533
198 2 19.6543 31.606 -0.0244755
199 2 23.825 31.6515 0.363452
200 2 27.9029 31.7231 0.206927
201 2 31.7835 31.6512 0.404037
202 2 35.6383 31.6919 0.13644
203 2 39.598 31.7438 0.217949
204 2 43.4809 31.7705 0.307883
205 2 47.6876 31.4635 0.183168
206 2 51.6525 31.7387 0.105745
207 2 55.6441 31.8366 0.0535275
208 2 59.4034 31.7114 0.440123
209 2 63.4514 31.4391 0.46196
210 2 67.3384 31.5596 0.205147
211 2 71.3311 31.7205 0.233199
212 2 75.4536 31.781 0.328166
213 2 79.4085 31.4395 0.288812
214 2 83.3713 31.6385 0.240831
215 2 87.3023 31.7012 0.246975
216 2 91.2696 31.5685 0.201541
217 2 0.101687 35.6453 0.198941
218 2 4.07763 35.6132 0.302509
219 2 7.92514 35.6014 0.235968
220 2 11.9396 35.7544 0.11058
221 2 15.7925 35.5785 0.184821
222 2 19.871 35.8045 0.198816
223 2 23.8525 35.703 0.283264
224 2 27.7914 35.7024 0.231397
225 2 31.7045 35.6198 0.222085
226 2 35.5648 35.7114 0.269382
227 2 39.6885 35.655 0.270714
228 2 43.6919 35.4395 0.150864
229 2 47.6621 35.4837 0.16623
230 2 51.4625 35.5173 0.156041
231 2 55.5464 35.5426 0.268395
232 2 59.5226 35.6517 0.255707
233 2 63.5112 35.6194 0.216853
234 2 67.5118 35.5561 0.153623
235 2 71.2174 35.5867 0.233705
236 2 75.2328 35.5511 0.101566
237 2 79.1849 35.5677 0.214941
238 2 83.1164 35.6181 0.366739
239 2 87.0799 35.615 0.269709
240 2 91.0006 35.6674 0.219452
241 2 -0.0166908 39.4742 0.256201
242 2 3.99539 39.6148 0.333825
243 2 7.93192 39.8007 0.291935
244 2 11.9406 39.5962 0.398061
245 2 16.001 39.6066 0.34457
246 2 19.9625 39.4249 0.180795
247 2 23.9226 39.6959 0.17235
248 2 27.9001 39.7004 0.311352
249 2 31.7702 39.8275 0.242291
250 2 35.7755 39.5909 0.299486
251 2 39.6499 39.6709 0.352766
252 2 43.6037 39.4066 0.118574
253 2 47.5432 39.5129 0.182427
254 2 51.6705 39.3723 0.305078
255 2 55.6312 39.6672 0.360732
256 2 59.7216 39.473 0.251001
257 2 63.5033 39.7058 0.272947
258 2 67.3198 39.4378 0.234127
259 2 71.408 39.5511 0.475127
260 2 75.4818 39.4085 0.140659
261 2 79.3119 39.6789 0.262653
262 2 83.32 39.5414 0.283329
263 2 86.8045 39.5134 0.358905
264 2 91.0258 39.6667 0.243596
265 2 0.0415594 43.5669 0.38269
266 2 4.04187 43.5398 0.203537
267 2 8.04134 43.7326 0.193707
268 2 11.9672 43.6532 0.201011
269 2 15.8685 43.5476 0.375321
270 2 19.8724 43.6656 0.297324
271 2 23.9644 43.4312 0.230391
272 2 27.6182 43.5342 0.256191
273 2 31.6603 43.5522 0.230615
274 2 35.7873 43.6402 0.235368
275 2 39.9295 43.5461 0.204748
276 2 43.968 43.4257 0.181624
277 2 47.8044 43.5753 0.312292
278 2 51.6941 43.4697 0.0812567
279 2 55.5749 43.5855 0.32522
280 2 59.6561 43.633 0.130941
281 2 63.4583 43.5947 0.229783
282 2 67.4286 43.4962 0.289249
283 2 71.3335 43.6201 0.344831
284 2 75.0889 43.45 0.352653
285 2 79.2753 43.5472 0.342491
286 2 83.2651 43.6284 0.0497929
287 2 87.0677 43.4353 0.262173
288 2 91.1443 43.4861 0.396176
289 2 0.126921 47.4085 0.179513
290 2 3.88702 47.4192 0.337576
291 2 7.94697 47.5349 0.359526
292 2 11.9419 47.5886 0.247123
293 2 15.7193 47.4033 0.581939
294 2 19.9204 47.5583 0.381054
295 2 23.6456 47.2517 0.230659
296 2 27.8801 47.4669 0.285574
297 2 31.9109 47.4191 0.257341
298 2 35.7573 47.4397 0.262903
299 2 39.6408 47.424 0.293919
300 2 43.7923 47.7256 0.112827
301 2 47.686 47.4672 0.193269
302 2 51.7958 47.3845 0.195575
303 2 55.5528 47.5259 0.175207
304 2 59.5452 47.5658 0.209932
305 2 63.3476 47.537 0.324915
306 2 67.237 47.5522 0.273352
307 2 71.445 47.6312 0.194692
308 2 75.3295 47.3136 0.264741
309 2 79.0351 47.5874 0.317624
310 2 83.1836 47.4399 -0.0838147
311 2 87.1249 47.4863 0.261172
312 2 91.0053 47.5328 0.265026
313 2 0.190288 51.4533 0.243624
314 2 3.92765 51.4584 0.338216
315 2 8.08871 51.4915 0.369996
316 2 12.0232 51.4004 0.241844
317 2 15.917 51.5793 0.394545
318 2 19.9244 51.5519 0.133776
319 2 23.7069 51.4631 0.153655
320 2 27.9302 51.2254 0.265368
321 2 31.8998 51.3855 0.229898
322 2 35.764 51.7127 0.103265
323 2 39.6728 51.3251 0.325495
324 2 43.8299 51.5958 0.296893
325 2 47.8652 51.4036 0.230266
326 2 51.7383 51.2564 0.279149
327 2 55.5307 51.4582 0.0593183
328 2 59.5814 51.392 0.182462
329 2 63.591 51.5632 0.17108
330 2 67.441 51.4453 0.187936
331 2 71.3969 51.6805 0.23692
332 2 75.4037 51.3555 0.128813
333 2 79.3669 51.525 0.325472
334 2 83.2207 51.3934 0.370306
335 2 87.1569 51.4193 0.328205
336 2 91.2005 51.394 0.140025
337 2 0.120481 55.3292 0.0623253
338 2 3.95246 55.4961 0.183668
339 2 8.04437 55.4606 0.297404
340 2 11.8385 55.4211 0.295592
341 2 15.9083 55.4101 0.426917
342 2 19.8905 55.3711 0.115146
343 2 23.8767 55.4337 0.352787
344 2 27.8588 55.3525 0.248553
345 2 31.8943 55.3433 0.253081
346 2 35.9203 55.4996 0.166999
347 2 39.8192 55.3135 0.287924
348 2 43.8274 55.4748 0.128312
349 2 47.5316 55.3399 0.315168
350 2 51.6393 55.3224 0.108131
351 2 55.4608 55.1863 0.0801957
352 2 59.4491 55.3175 0.122648
353 2 63.5443 55.5405 0.14858
354 2 67.5 55.4329 0.138493
355 2 71.3328 55.4303 0.22093
356 2 75.3056 55.3947 0.252982
357 2 79.1439 55.4672 0.256618
358 2 83.2376 55.3355 0.350027
359 2 87.3655 55.4977 0.345425
360 2 91.1124 55.2592 0.147308
361 2 -0.0624963 59.1694 0.36791
362 2 3.76557 59.4252 0.320795
363 2 7.79925 59.5237 0.382435
364 2 11.95 59.4184 0.330846
365 2 15.7745 59.312 0.18858
366 2 19.9021 59.284 0.158046
367 2 23.7387 59.5251 0.312023
368 2 27.932 59.3489 0.312234
369 2 31.9329 59.3163 0.396677
370 2 36.0425 59.3179 -0.0704225
371 2 39.8696 59.2683 0.306843
372 2 43.8235 59.4285 0.111881
373 2 47.5379 59.4103 0.454114
374 2 51.6743 59.3243 0.328982
375 2 55.677 59.2568 0.257367
376 2 59.5433 59.3187 0.23175
377 2 63.5552 59.6315 0.0445015
378 2 67.5622 59.2836 0.172231
379 2 71.4199 59.4696 0.156344
380 2 75.3234 59.431 0.164266
381 2 79.3842 59.4231 0.420238
382 2 83.3237 59.3856 0.373209
383 2 87.2631 59.3643 0.150005
384 2 91.1869 59.4035 0.305123
385 2 0.154913 63.3876 0.249933
386 2 4.00078 63.5754 0.333417
387 2 8.02186 63.2858 0.0905076
388 2 11.9609 63.2139 0.30408
389 2 15.8253 63.2191 0.149081
390 2 19.5531 63.2167 0.429657
391 2 23.8042 63.5239 0.228088
392 2 27.6617 63.4548 0.264018
393 2 31.7188 63.2873 0.31112
394 2 35.669 63.5829 0.163971
395 2 39.6743 63.4416 0.395402
396 2 43.3552 63.3472 0.405706
397 2 47.7305 63.2857 0.44236
398 2 51.5364 63.3657 0.272875
399 2 55.6298 63.2452 0.0729867
400 2 59.611 63.2822 0.260293
401 2 63.4579 63.434 0.205778
402 2 67.4118 63.3957 0.359446
403 2 71.3859 63.1641 0.0953319
404 2 75.3773 63.3875 0.180106
405 2 79.4127 63.2508 0.242121
406 2 83.5433 63.2631 0.0556913
407 2 87.3884 63.3516 0.298059
408 2 91.2495 63.3993 0.365698
409 2 0.113842 67.577 0.443067
410 2 4.16376 67.3607 0.419655
411 2 8.19816 67.2476 0.321463
412 2 11.9267 67.3909 0.16691
413 2 15.5487 67.3521 0.172457
414 2 19.621 67.3222 0.327364
415 2 23.6656 67.2962 0.35132
416 2 27.7051 67.4602 0.241198
417 2 31.9058 67.2703 0.197725
418 2 35.7922 67.2335 0.235232
419 2 39.6515 67.3041 0.0975784
420 2 43.7918 67.3189 0.0329389
421 2 47.5185 67.4714 0.275985
422 2 51.5145 67.1548 0.321923
423 2 55.557 67.2886 0.315279
424 2 59.5824 67.1059 0.214956
425 2 63.4445 67.3006 0.389948
426 2 67.5456 67.3505 0.259191
427 2 71.4813 67.2146 0.204552
428 2 75.494 67.3635 0.218264
429 2 79.5284 67.3411 0.235332
430 2 83.5048 67.3042 0.392425
431 2 87.1367 67.4646 0.385493
432 2 91.0635 67.272 0.232704
433 2 0.18688 71.2984 0.201147
434 2 3.99905 71.4435 0.138443
435 2 7.62701 71.2161 0.284446
436 2 11.9961 71.2439 0.190909
437 2 15.7956 71.4718 0.460958
438 2 19.8086 71.1037 0.322288
439 2 23.874 71.1724 0.312326
440 2 27.8475 71.1965 0.399492
441 2 31.7922 71.2898 0.322544
442 2 35.5918 71.3378 0.263353
443 2 39.6569 71.1821 0.260787
444 2 43.6909 71.3434 0.2263
445 2 47.6877 71.3929 0.408814
446 2 51.6382 71.0391 0.270251
447 2 55.6648 71.3396 0.17301
448 2 59.5918 71.0504 0.34422
449 2 63.6258 71.0741 0.223499
450 2 67.3698 71.3603 0.296595
451 2 71.3874 71.3693 0.264665
452 2 75.3128 71.1536 0.295199
453 2 79.293 71.3591 0.248594
454 2 83.2712 71.3202 0.205911
455 2 87.1632 71.4021 0.105906
456 2 91.3789 71.2947 0.241989
457 2 0.125514 75.3444 0.242363
458 2 3.97312 75.3193 0.321165
459 2 8.04994 75.378 0.410902
460 2 12.022 75.2603 0.370651
461 2 15.8507 75.4479 0.436824
462 2 19.8558 75.1879 0.501615
463 2 23.8907 75.0026 0.442929
464 2 27.7461 75.0984 0.238151
465 2 31.7062 75.2345 0.374619
466 2 35.6853 75.1294 0.175855
467 2 39.6099 75.3878 0.0328066
468 2 43.6114 75.1691 0.134315
469 2 47.5559 75.0414 0.351414
470 2 51.744 75.0133 0.192748
471 2 55.7384 75.1143 0.345079
472 2 59.654 75.1599 0.228273
473 2 63.4274 75.4977 0.193734
474 2 67.4775 75.2929 0.227285
475 2 71.3305 75.3899 0.297577
476 2 75.3292 75.1522 0.384866
477 2 79.3428 75.0479 0.419088
478 2 83.297 75.1684 0.273121
479 2 87.169 75.1167 0.308527
480 2 91.1287 75.2739 0.0774444
481 2 0.109926 79.2098 0.25424
482 2 4.00351 79.4578 0.3325
483 2 7.92 79.2866 0.427773
484 2 11.8158 79.4455 0.234186
485 2 15.9106 79.0733 0.465953
486 2 19.978 79.07 0.415124
487 2 23.877 79.0321 0.394856
488 2 27.6726 79.1654 0.462809
489 2 31.8801 79.096 0.238688
490 2 35.8422 79.066 -0.0980691
491 2 39.7367 79.0996 0.355868
492 2 43.7632 79.1939 -0.120446
493 2 47.2777 79.2409 0.276896
494 2 51.3645 79.259 0.33944
495 2 55.4306 79.2299 0.189339
496 2 59.5355 79.1943 0.174427
497 2 63.5472 79.2697 0.288396
498 2 67.3738 79.2711 0.293454
499 2 71.3113 79.2241 0.244676
500 2 75.4234 79.3227 0.317148
501 2 79.4112 79.2791 -0.0217223
502 2 83.132 79.2555 0.12235
503 2 87.361 78.9699 0.194557
504 2 91.2365 79.3294 0.283852
505 2 0.179382 83.2318 0.429248
506 2 4.00642 83.4458 0.262444
507 2 8.13895 83.2344 0.372282
508 2 11.9294 83.285 0.303457
509 2 16.0269 83.0437 0.325575
510 2 20.0354 83.122 0.126723
511 2 23.8989 83.1416 0.248743
512 2 27.8126 82.8636 0.403064
513 2 31.7048 83.0625 0.251642
514 2 35.8149 83.0278 0.0335893
515 2 39.634 83.0885 0.177019
516 2 43.6494 83.1912 0.272518
517 2 47.7672 83.2245 0.147472
518 2 51.799 83.1175 0.28676
519 2 55.5629 82.8791 0.0649317
520 2 59.5269 83.0989 0.339247
521 2 63.2191 83.1997 0.372976
522 2 67.2828 83.1046 0.232229
523 2 71.4532 83.163 0.0531354
524 2 75.402 83.107 0.338963
525 2 79.2147 83.2866 -0.044618
526 2 83.1918 83.0663 0.300901
527 2 87.1681 83.069 0.329775
528 2 91.2392 83.1223 0.258464
529 2 0.0220334 87.1588 0.364811
530 2 3.98958 86.9903 0.170774
531 2 8.1678 87.2461 0.218725
532 2 11.9507 87.1754 0.262299
533 2 15.9774 87.0971 0.473674
534 2 19.864 87.1691 0.498094
535 2 23.9293 87.0783 0.497308
536 2 27.8507 87.0821 0.483542
537 2 31.6765 86.8466 0.254295
538 2 35.6537 87.0682 0.250629
539 2 39.6858 87.2124 0.122544
540 2 43.598 87.1953 0.224928
541 2 47.6868 87.215 0.309676
542 2 51.7081 87.1764 0.277062
543 2 55.6065 87.1831 0.44611
544 2 59.614 87.2945 0.23657
545 2 63.5592 87.1678 0.198302
546 2 67.3478 87.0134 0.356133
547 2 71.286 87.236 0.35461
548 2 75.2163 87.23 0.222324
549 2 79.2835 86.9515 0.189874
550 2 83.236 86.9169 0.0654844
551 2 87.358 87.2295 0.460543
552 2 91.0538 87.0351 0.241034
553 2 0.209774 91.0793 0.333051
554 2 4.01632 91.3251 0.33162
555 2 7.85639 91.0352 0.472428
556 2 11.8482 91.0452 0.446885
557 2 15.9034 90.9029 0.290052
558 2 19.8909 91.0836 0.306894
559 2 23.9158 91.1012 0.252783
560 2 27.845 91.0081 0.333107
561 2 31.6165 91.1641 0.409901
562 2 35.7504 90.984 0.0201319
563 2 39.6338 91.2727 0.173956
564 2 43.8449 91.0209 0.048606
565 2 47.6918 91.0201 -0.0963742
566 2 51.4556 91.0862 0.160165
567 2 55.6127 91.1872 0.270929
568 2 59.6747 91.0854 0.162987
569 2 63.3248 91.0772 0.0104206
570 2 67.3974 91.0805 0.0620791
571 2 71.2565 91.1399 0.442454
572 2 75.2241 91.37 0.231433
573 2 79.298 91.1205 0.312709
574 2 83.1359 91.127 0.241197
575 2 87.0526 91.0151 0.412411
576 2 91.0322 91.3134 0.23477
577 2 -0.0675463 -0.0392894 4.51253
578 2 3.82168 0.0920406 4.27356
579 2 7.76396 -0.0089892 4.25432
580 2 11.8309 -0.0547787 4.4037
581 2 15.9968 -0.167476 4.47052
582 2 19.9998 0.0243174 4.2342
583 2 23.9573 0.105865 4.26609
584 2 27.8251 0.139096 4.13008
585 2 31.8143 -0.0740972 4.29986
586 2 35.8338 -0.133861 4.19809
587 2 39.8866 0.116607 4.05433
588 2 43.9378 0.178731 4.10407
589 2 47.5677 0.218069 4.27692
590 2 51.5238 -0.0673095 4.41383
591 2 55.5229 0.00735204 4.38838
592 2 59.6403 -0.0896272 4.32698
593 2 63.537 0.0485417 4.14815
594 2 67.4808 0.116205 4.35723
595 2 71.4729 0.0268566 4.06972
596 2 75.4274 0.0181291 4.31275
597 2 79.3076 0.0905591 4.41172
598 2 83.282 0.201757 4.13193
599 2 87.3813 0.0996855 4.37697
600 2 91.1695 0.00709602 4.32839
601 2 -0.0106139 3.99875 4.33531
602 2 3.80519 4.09783 4.26265
603 2 8.01982 4.01262 4.28239
604 2 11.9873 3.72875 4.25168
605 2 15.9711 4.06216 4.33062
606 2 19.9417 4.22188 4.1799
607 2 23.8679 4.19721 4.34289
608 2 27.7028 4.02471 4.27726
609 2 31.8117 3.9622 4.30021
610 2 35.7556 3.8632 4.26079
611 2 39.6268 4.00077 4.26574
612 2 43.5897 4.06716 4.21059
613 2 47.6192 4.2176 4.13842
614 2 51.5539 4.03557 4.19525
615 2 55.7139 4.03452 4.26309
616 2 59.5341 4.18665 4.23733
617 2 63.4944 4.07299 4.25872
618 2 67.5071 4.05386 4.33256
619 2 71.2889 4.06592 4.19142
620 2 75.3704 3.78186 4.13769
621 2 79.5019 3.96147 4.25744
622 2 83.3348 3.94239 4.49178
623 2 87.2848 4.04014 4.34672
624 2 91.2692 4.26998 4.15987
625 2 -0.0123466 8.05918 4.07209
626 2 3.95354 8.06815 4.27071
627 2 8.05505 7.95495 4.31043
628 2 11.9195 7.68932 4.33371
629 2 15.992 8.12614 4.16919
630 2 19.8945 8.03797 4.33205
631 2 23.9516 8.09134 4.20424
632 2 27.7863 7.94692 4.19124
633 2 31.7277 7.9918 4.28808
634 2 35.5685 7.994 4.01065
635 2 39.6456 8.04462 4.27036
636 2 43.4941 7.83866 4.21866
637 2 47.4384 7.86834 4.15032
638 2 51.6229 7.87699 4.37807
639 2 55.4667 8.00922 4.27213
640 2 59.4451 8.04885 4.27829
641 2 63.3394 8.07934 4.1885
642 2 67.4251 7.9367 4.12253
643 2 71.2853 8.12651 4.14193
644 2 75.3786 7.91309 4.31282
645 2 79.1255 8.00748 4.29135
646 2 83.4398 8.22121 4.27661
647 2 87.1828 7.89488 4.13682
648 2 91.2155 8.14627 4.33855
649 2 0.200888 12.1094 4.28768
650 2 4.14254 11.8758 4.40056
651 2 7.98374 12.1603 4.20423
652 2 11.8958 11.9132 4.1708
653 2 15.9059 11.9713 4.29773
654 2 20.0676 11.87 4.2384
655 2 23.7898 11.9241 4.32023
656 2 28.0254 11.9346 4.32881
657 2 31.7045 11.8429 4.40702
658 2 35.6024 11.8937 4.28069
659 2 39.8046 11.7974 4.26509
660 2 43.6133 11.8441 4.20523
661 2 47.4859 11.813 4.30926
662 2 51.464 11.903 4.25572
663 2 55.3685 11.9717 4.23906
664 2 59.3639 11.9166 4.23368
665 2 63.6455 11.6935 4.32733
666 2 67.5975 11.8372 4.21135
667 2 71.3772 11.8518 4.28866
668 2 75.3339 12.1398 4.30225
669 2 79.245 11.8843 4.17033
670 2 83.2829 11.998 4.38265
671 2 87.2838 11.9328 4.26425
672 2 91.0944 12.0145 4.30412
673 2 0.18506 16.0175 4.30695
674 2 4.19283 16.0659 4.30671
675 2 8.01699 15.8691 4.13839
676 2 11.9634 15.8714 4.28215
677 2 15.9712 15.8315 4.36054
678 2 19.7469 15.8053 4.53038
679 2 23.85 15.7683 4.1823
680 2 27.7566 15.8909 4.25214
681 2 31.7567 15.8688 4.12059
682 2 35.6316 15.9805 3.92098
683 2 39.7297 16.0152 4.09804
684 2 43.6329 15.9124 4.23661
685 2 47.5982 15.9556 4.15161
686 2 51.4839 15.8048 4.25379
687 2 55.4604 15.5878 4.02763
688 2 59.5028 15.9489 4.31018
689 2 63.5639 15.7393 4.19833
690 2 67.3684 15.6883 4.41561
691 2 71.4554 15.8863 4.16928
692 2 75.2848 15.8415 4.17708
693 2 79.3822 15.8155 4.27427
694 2 83.1794 15.739 4.27999
695 2 87.0205 15.8685 4.201
696 2 91.1637 15.8759 4.40708
697 2 0.161778 19.9385 4.25539
698 2 4.26228 19.7307 4.26959
699 2 8.23408 19.8066 4.43433
700 2 11.8766 19.6883 4.15295
701 2 15.8571 19.8502 4.40587
702 2 19.8281 19.8242 4.15431
703 2 23.8632 19.7055 4.10911
704 2 27.8406 19.9465 4.4329
705 2 31.8575 19.8143 4.1775
706 2 35.6906 19.7213 4.12924
707 2 39.5122 19.8726 4.14627
708 2 43.8054 20.0188 4.19453
709 2 47.5715 19.8257 4.24694
710 2 51.6453 19.805 4.43385
711 2 55.5266 19.8958 4.29189
712 2 59.3944 19.7417 4.31987
713 2 63.4932 19.8169 4.27935
714 2 67.4881 19.8477 4.20198
715 2 71.276 19.8031 4.19076
716 2 75.3267 19.8482 4.33955
717 2 79.3665 19.7325 4.29652
718 2 83.2449 19.8082 4.33928
719 2 87.061 19.6884 4.10799
720 2 91.0215 19.9004 4.1771
721 2 0.394305 23.7551 4.19329
722 2 4.26236 23.7069 4.47833
723 2 8.24792 23.9035 4.23037
724 2 11.9369 23.8992 4.23465
725 2 15.882 23.5863 4.27892
726 2 19.896 23.9038 4.16506
727 2 23.7769 23.8205 4.36375
728 2 27.9554 23.7623 4.29365
729 2 31.9285 23.8346 4.38096
730 2 35.7461 23.7991 4.06934
731 2 39.7589 23.8198 4.14603
732 2 43.6331 23.8665 4.19582
733 2 47.4999 23.7497 4.32409
734 2 51.6468 23.7123 4.03141
735 2 55.5664 23.7059 4.20076
736 2 59.4895 23.8365 4.27895
737 2 63.4603 23.8087 4.37841
738 2 67.2892 23.7275 4.30569
739 2 71.3264 23.962 4.08499
740 2 75.2337 23.8212 4.26566
741 2 79.2794 24.0216 4.26093
742 2 83.134 23.6627 4.27527
743 2 87.1039 23.7897 4.39434
744 2 91.138 23.7979 4.32465
745 2 0.0861449 27.743 4.18748
746 2 4.05292 27.8402 4.27583
747 2 8.1143 27.7255 4.3197
748 2 11.8096 27.8301 4.35096
749 2 16.0998 27.7236 4.43847
750 2 19.951 27.9006 4.21057
751 2 23.7297 27.898 4.11607
752 2 27.7442 27.6977 4.31282
753 2 31.5646 27.681 4.23967
754 2 35.6541 27.7997 4.07345
755 2 39.6979 27.8802 4.26064
756 2 43.6317 27.8487 4.11972
757 2 47.6968 27.5939 4.1434
758 2 51.515 27.6639 3.98066
759 2 55.4668 27.8091 4.2942
760 2 59.2093 27.6363 4.49176
761 2 63.2812 27.6302 4.34412
762 2 67.6536 27.5664 4.17874
763 2 71.461 27.719 4.26014
764 2 75.3887 27.8591 4.16404
765 2 79.2848 27.7066 4.35906
766 2 83.2598 27.713 4.0839
767 2 87.1277 27.561 4.10459
768 2 91.1694 27.8707 4.39567
769 2 -0.110958 31.7234 4.28206
770 2 3.99444 31.7633 4.23322
771 2 8.02783 31.8987 4.14533
772 2 11.9463 31.9996 4.06167
773 2 15.9167 31.7427 4.28004
774 2 20.0329 31.7821 4.29898
775 2 23.9466 31.7756 4.16556
776 2 28.1028 31.943 4.1705
777 2 31.8059 31.5536 4.35572
778 2 35.7675 31.8706 4.17272
779 2 39.74 31.7051 4.24167
780 2 43.5166 31.6362 4.19042
781 2 47.4388 31.7519 4.13365
782 2 51.5912 31.5748 4.04776
783 2 55.4447 31.7452 4.26443
784 2 59.2687 31.8823 4.12217
785 2 63.2957 31.5952 4.10597
786 2 67.4432 31.7709 3.99414
787 2 71.4496 31.6654 4.2353
788 2 75.2066 31.6172 4.06613
789 2 79.4605 31.7126 4.20538
790 2 83.2812 31.8448 4.24275
791 2 87.1895 31.6202 4.36432
792 2 91.164 31.8409 4.29405
793 2 -0.017993 35.7081 4.35054
794 2 3.95733 35.7643 4.38793
795 2 8.16555 35.708 4.291
796 2 11.9636 35.7367 4.19336
797 2 16.0037 35.5742 4.2596
798 2 19.9874 35.5068 4.096
799 2 23.9796 35.6448 4.11599
800 2 27.7526 35.9254 4.10068
801 2 31.7258 35.6685 4.33362
802 2 35.8142 35.6581 4.15504
803 2 39.6879 35.6783 4.1544
804 2 43.4927 35.6757 4.19776
805 2 47.7229 35.7793 4.23993
806 2 51.5407 35.5607 4.1463
807 2 55.5222 35.5533 4.42645
808 2 59.552 35.7461 4.2926
809 2 63.4428 35.3328 4.08819
810 2 67.2856 35.7266 4.21426
811 2 71.5322 35.608 4.3896
812 2 75.3108 35.6707 4.32101
813 2 79.2877 35.7024 4.2945
814 2 83.13 35.7978 4.27519
815 2 87.1087 35.8007 4.26411
816 2 90.969 35.688 4.20472
817 2 0.109704 39.658 4.27477
818 2 3.88822 39.639 4.19114
819 2 7.89731 39.5369 4.14573
820 2 11.9146 39.6816 4.26867
821 2 15.8921 39.5821 4.30895
822 2 19.9359 39.6843 4.12719
823 2 23.8356 39.6954 4.22001
824 2 27.7973 39.6705 4.3496
825 2 31.6656 39.6094 4.10869
826 2 35.7186 39.7546 4.16881
827 2 39.8874 39.5869 4.08766
828 2 43.7039 39.6442 4.35002
829 2 47.6386 39.636 4.1666
830 2 51.6771 39.4662 4.14359
831 2 55.5358 39.5734 4.07121
832 2 59.5441 39.7576 4.12257
833 2 63.5599 39.5715 4.20866
834 2 67.4158 39.5789 4.16773
835 2 71.3224 39.6462 4.25915
836 2 75.3418 39.6427 4.26563
837 2 79.2361 39.7619 4.06579
838 2 83.1171 39.6948 4.13743
839 2 87.0771 39.5837 4.23783
840 2 91.0641 39.7085 4.29169
841 2 0.0975548 43.8909 4.3791
842 2 4.13294 43.7932 4.30112
843 2 8.02733 43.6321 4.39703
844 2 11.9893 43.547 4.24994
845 2 16.0498 43.4834 4.28827
846 2 19.8543 43.6313 4.30642
847 2 23.7686 43.3064 4.19785
848 2 27.7694 43.7143 4.14242
849 2 31.8234 43.6576 4.23118
850 2 35.7549 43.4223 4.27591
851 2 39.6955 43.6477 4.3286
852 2 43.5794 43.5561 4.39754
853 2 47.5692 43.4479 4.29231
854 2 51.5368 43.4552 4.3898
855 2 55.4611 43.3964 4.30937
856 2 59.5535 43.5685 4.17067
857 2 63.5181 43.7763 4.23449
858 2 67.6058 43.3865 4.23831
859 2 71.3783 43.4193 4.32483
860 2 75.1942 43.7026 4.37357
861 2 79.3831 43.8128 4.0771
862 2 83.1765 43.6059 4.02579
863 2 87.0864 43.7743 4.23204
864 2 91.1796 43.5707 4.23131
865 2 0.027395 47.7216 4.22986
866 2 3.98279 47.5852 4.29308
867 2 8.08926 47.4735 4.37586
868 2 12.0656 47.5433 4.36831
869 2 16.0019 47.6013 4.26423
870 2 19.8398 47.6135 4.21715
871 2 24.0456 47.3896 4.39003
872 2 27.7593 47.701 4.2449
873 2 31.7679 47.5501 4.22127
874 2 35.6023 47.4921 4.2343
875 2 39.782 47.6268 4.0873
876 2 43.6728 47.4644 4.29921
877 2 47.5773 47.4128 4.31838
878 2 51.7153 47.4451 4.37051
879 2 55.7301 47.3702 4.24003
880 2 59.5931 47.6911 4.11423
881 2 63.583 47.6055 4.26967
882 2 67.425 47.6895 4.35506
883 2 71.1079 47.672 4.13265
884 2 75.3441 47.5936 4.11137
885 2 79.2053 47.53 4.28993
886 2 83.1899 47.6558 4.14185
887 2 87.2587 47.4497 4.29257
888 2 90.9749 47.5284 4.30206
889 2 0.0748118 51.4785 4.12799
890 2 4.1074 51.5597 4.30016
891 2 8.03097 51.4105 4.43347
892 2 12.106 51.438 4.22941
893 2 15.8635 51.5755 4.16726
894 2 19.9519 51.3678 4.10997
895 2 23.9414 51.4916 4.08765
896 2 27.8616 51.5015 4.15282
897 2 31.7332 51.6755 4.12256
898 2 35.9362 51.4354 4.06933
899 2 39.6462 51.5417 4.1553
900 2 43.7672 51.3805 4.23448
901 2 47.651 51.3742 4.27795
902 2 51.6034 51.4036 4.16952
903 2 55.656 51.5364 4.21006
904 2 59.4228 51.4775 4.22518
905 2 63.645 51.5987 4.18829
906 2 67.3267 51.7769 4.30466
907 2 71.2305 51.2721 4.16494
908 2 75.2951 51.5303 4.27271
909 2 79.2064 51.5023 4.24125
910 2 83.2427 51.3602 4.18985
911 2 87.0837 51.6216 4.13515
912 2 91.3068 51.553 4.11722
913 2 0.268202 55.4842 4.21489
914 2 3.88925 55.421 4.16336
915 2 7.9508 55.2772 4.3895
916 2 11.8315 55.5337 4.18746
917 2 16.1484 55.4547 4.26167
918 2 19.9935 55.5577 4.34739
919 2 23.8251 55.242 4.16432
920 2 27.8533 55.5326 4.11456
921 2 31.9194 55.5601 4.12091
922 2 35.656 55.4997 4.29262
923 2 39.8245 55.5455 4.21028
924 2 43.7685 55.4432 4.18717
925 2 47.8202 55.4842 4.17718
926 2 51.5157 55.4009 4.20956
927 2 55.5975 55.3662 4.25951
928 2 59.323 55.3775 4.08068
929 2 63.5727 55.6159 4.1575
930 2 67.4598 55.5252 4.17443
931 2 71.3287 55.4549 4.10643
932 2 75.3735 55.5091 4.42857
933 2 79.4342 55.501 4.11203
934 2 83.2889 55.4731 4.35841
935 2 87.0905 55.3212 4.28924
936 2 91.1116 55.3957 4.19959
937 2 -0.0212814 59.4819 4.26096
938 2 4.00439 59.4311 4.24392
939 2 7.86631 59.3856 4.36624
940 2 12.0626 59.5269 4.39513
941 2 15.9613 59.2345 4.15012
942 2 19.8701 59.3105 3.99432
943 2 23.7948 59.4687 4.32166
944 2 27.8669 59.3053 4.31309
945 2 31.9353 59.4519 4.3171
946 2 35.7523 59.4557 4.15932
947 2 39.6292 59.5754 4.20868
948 2 43.6346 59.6183 4.2298
949 2 47.7129 59.3936 4.13194
950 2 51.6265 59.3679 4.248
951 2 55.6102 59.3543 4.17927
952 2 59.5997 59.2909 4.28034
953 2 63.3512 59.458 4.17607
954 2 67.1934 59.2159 4.21761
955 2 71.3627 59.2558 4.30375
956 2 75.3646 59.4427 4.24595
957 2 79.1979 59.581 4.2171
958 2 83.1551 59.5589 4.23803
959 2 87.1176 59.375 4.28607
960 2 91.2289 59.1612 4.24376
961 2 0.052468 63.3277 4.31602
962 2 4.0165 63.4286 4.1011
963 2 7.93839 63.4511 4.36276
964 2 11.8171 63.2841 4.30007
965 2 15.911 63.3459 4.28795
966 2 19.8134 63.414 4.31653
967 2 23.801 63.2193 4.31739
968 2 27.7678 63.3912 4.03039
969 2 31.9004 63.426 4.25026
970 2 35.6773 63.3769 4.32089
971 2 39.7029 63.4755 4.1214
972 2 43.3787 63.489 4.43007
973 2 47.7261 63.4448 4.3199
974 2 51.6176 63.5419 4.23082
975 2 55.567 63.5633 4.31096
976 2 59.672 63.3406 4.33293
977 2 63.5136 63.3489 3.99972