ITEM: TIMESTEP
62800
ITEM: NUMBER OF ATOMS
43200
ITEM: BOX BOUNDS xy xz yz pp pp pp
0.0000000000000000e+00 9.4992000000000004e+01 0.0000000000000000e+00
0.0000000000000000e+00 9.4992000000000004e+01 0.0000000000000000e+00
-2.7893955756642441e-02 5.9727893955757715e+01 0.0000000000000000e+00
ITEM: ATOMS id type x y z
1 2 0.134707 -0.106477 0.297316
2 2 3.8816 0.231801 0.136655
3 2 8.05405 -0.030071 0.27071
4 2 12.1398 -0.133272 0.113997
5 2 16.1001 -0.148008 0.0805274
6 2 19.9917 -0.185506 0.332481
7 2 23.8381 -0.0212595 0.325754
8 2 27.6908 -0.124562 0.302058
9 2 31.6237 -0.124737 0.182087
10 2 35.49 -0.143929 0.108264
11 2 39.504 0.0431444 0.297989
12 2 43.7519 0.0138311 0.394468
13 2 47.6432 -0.051648 0.256777
14 2 51.5933 0.0841462 0.231766
15 2 55.7181 -0.0768938 0.0535629
16 2 59.469 -0.0548805 0.262062
17 2 63.4965 -0.0375416 0.248853
18 2 67.4386 -0.134157 0.230263
19 2 71.215 -0.0693589 0.038281
20 2 75.2789 -0.140886 0.24143
21 2 79.2675 -0.103921 0.188231
22 2 83.2398 -0.0776008 0.321464
23 2 87.2029 -0.120418 0.276216
24 2 90.957 -0.0468391 0.432119
25 2 0.0939684 4.04842 0.328483
26 2 4.09506 3.91677 0.232438
27 2 8.06313 4.07156 0.109006
28 2 11.8747 3.86018 0.526395
29 2 15.8778 3.9011 0.464288
30 2 19.7607 3.82357 0.125767
31 2 23.9377 3.90349 0.277939
32 2 27.7038 3.88623 0.232437
33 2 31.7015 3.91635 0.308921
34 2 35.6139 4.05039 0.292186
35 2 39.5734 4.08862 0.310662
36 2 43.7614 3.79542 0.142691
37 2 47.8097 3.98186 0.325585
38 2 51.5924 3.86795 0.254908
39 2 55.6039 4.07391 0.268973
40 2 59.708 3.92621 0.234516
41 2 63.568 3.96987 0.246506
42 2 67.5032 3.88956 0.0798782
43 2 71.1386 3.84464 0.339424
44 2 75.1822 3.84717 0.22065
45 2 79.336 3.74013 0.32583
46 2 83.2229 3.89954 0.304821
47 2 87.2562 3.90981 0.201278
48 2 91.3669 4.11815 0.359692
49 2 0.195603 7.94862 0.2916
50 2 4.1003 8.00652 0.270943
51 2 7.82155 7.7114 0.371016
52 2 12.0585 7.85972 0.171113
53 2 15.9053 7.92258 0.348454
54 2 19.9726 7.88205 0.129564
55 2 23.899 8.11238 0.178687
56 2 27.9051 7.94774 0.10039
57 2 31.6862 7.76513 0.161306
58 2 35.778 7.83273 0.337035
59 2 39.8134 7.94835 0.368622
60 2 43.7493 7.97003 0.0366074
61 2 47.5624 7.74221 0.363186
62 2 51.66 7.9208 0.212624
63 2 55.5264 7.93358 0.406085
64 2 59.464 7.90222 0.230332
65 2 63.5364 7.73411 0.180905
66 2 67.5484 7.66846 0.254235
67 2 71.3924 7.85269 0.29946
68 2 75.311 7.66005 0.336569
69 2 79.2686 7.96401 0.21613
70 2 83.1155 8.08058 0.291588
71 2 87.149 7.87989 0.18045
72 2 91.0219 8.15588 0.305132
73 2 0.00255116 11.6672 0.200878
74 2 4.2271 11.8986 0.228463
75 2 7.97202 11.7193 0.402333
76 2 11.9425 12.0107 0.186717
77 2 15.9858 11.8576 0.178819
78 2 20 11.7328 0.137616
79 2 23.9314 11.907 0.0624154
80 2 27.8644 11.8312 0.267274
81 2 31.8345 11.8063 0.362832
82 2 35.9354 11.9608 0.315288
83 2 39.8078 11.8536 0.346682
84 2 43.7153 11.7691 0.23337
85 2 47.6824 11.9426 0.363008
86 2 51.5708 11.8624 0.174161
87 2 55.494 11.8212 0.272325
88 2 59.536 12.0142 0.155924
89 2 63.5565 11.7844 0.264166
90 2 67.301 11.8779 0.274795
91 2 71.3236 11.8691 0.40668
92 2 75.1024 11.7562 0.277192
93 2 79.15 11.62 0.329467
94 2 83.1597 11.9548 0.405209
95 2 87.1123 11.7552 0.216713
96 2 91.2096 11.8252 0.267516
97 2 0.050659 15.5933 0.178941
98 2 4.13214 15.8467 0.283179
99 2 8.1127 15.7931 0.187271
100 2 12.0404 15.7577 0.430977
101 2 15.9467 15.7527 0.0826647
102 2 19.8558 15.9311 0.131798
103 2 23.8429 15.6414 0.277084
104 2 27.8413 15.8863 0.298894
105 2 31.6611 15.7707 0.302302
106 2 35.6496 15.9338 0.112028
107 2 39.884 15.9385 0.338149
108 2 43.6478 15.9185 0.280656
109 2 47.6857 15.9176 0.0809385
110 2 51.6931 15.8041 0.335367
111 2 55.5557 15.879 0.31046
112 2 59.4551 15.7843 0.331523
113 2 63.4077 15.7459 0.312854
114 2 67.5359 15.6498 0.274132
115 2 71.2531 15.8185 0.0995378
116 2 75.048 15.7033 0.136492
117 2 79.2892 15.7092 0.308485
118 2 83.202 15.9209 0.353795
119 2 87.2728 15.887 0.306894
120 2 91.2156 15.8347 0.308223
121 2 0.305544 19.6083 0.250206
122 2 4.26497 19.5852 0.209748
123 2 8.07729 19.8398 0.305818
124 2 11.9898 19.8283 0.22269
125 2 15.9201 19.7146 0.151233
126 2 19.845 19.8042 0.239382
127 2 23.7339 19.824 0.272119
128 2 27.8921 19.6915 0.318598
129 2 31.8726 19.7848 0.308249
130 2 35.8652 19.8558 0.0777616
131 2 39.7089 19.8021 0.169145
132 2 43.6834 20.0291 0.15307
133 2 47.7412 19.7226 0.271356
134 2 51.6777 19.8815 0.247286
135 2 55.5894 19.786 0.156115
136 2 59.6346 19.7052 0.262116
137 2 63.4651 19.7733 0.316864
138 2 67.514 19.6901 0.320629
139 2 71.4672 19.8369 0.190329
140 2 75.3007 19.5127 0.271454
141 2 79.1855 19.6918 0.297984
142 2 83.0581 19.6791 0.291619
143 2 87.0598 19.8692 0.266603
144 2 91.0877 19.8236 0.287726
145 2 0.0741769 23.748 0.256948
146 2 4.08289 23.6072 0.37852
147 2 7.9247 23.6382 0.16181
148 2 11.9627 23.7968 0.36865
149 2 15.9489 23.7215 0.143255
150 2 19.7841 23.8098 0.251277
151 2 23.8771 23.7735 0.305598
152 2 27.8537 23.8222 0.329455
153 2 31.6749 23.7768 0.269323
154 2 35.4766 23.739 0.0911776
155 2 39.749 23.8357 0.222019
156 2 43.6906 23.8989 0.209167
157 2 47.5814 23.8465 0.204786
158 2 51.6043 23.8785 0.11248
159 2 55.5152 23.664 0.372214
160 2 59.3692 23.8201 0.440612
161 2 63.6052 23.6052 0.293858
162 2 67.5242 23.445 0.321741
163 2 71.3242 23.908 0.134265
164 2 75.4592 23.7499 0.0881118
165 2 79.3346 23.5173 0.166121
166 2 83.1821 23.74 0.432206
167 2 87.1222 23.7795 0.407657
168 2 90.9324 23.7915 0.434699
169 2 0.0592206 27.5833 0.250305
170 2 4.20513 27.523 0.267617
171 2 8.0552 27.8243 0.185993
172 2 11.9129 27.7882 0.214612
173 2 15.6639 27.6362 0.223707
174 2 19.7826 27.8591 0.132299
175 2 23.8109 27.8906 0.202081
176 2 27.8571 27.5992 0.37969
177 2 31.9245 27.6581 0.135207
178 2 35.8022 27.5043 0.343127
179 2 39.7478 27.717 0.0379055
180 2 43.771 27.7939 0.302177
181 2 47.6537 27.8277 0.123544
182 2 51.678 27.8079 0.114597
183 2 55.7135 27.7072 0.19424
184 2 59.5818 27.6813 0.12722
185 2 63.6172 27.6782 0.222569
186 2 67.3625 27.5241 0.351183
187 2 71.4641 27.6687 0.11773
188 2 75.2009 27.884 0.204915
189 2 79.1484 27.6615 0.443522
190 2 83.2786 27.8543 0.416469
191 2 87.1528 27.4587 0.383209
192 2 91.1613 27.632 0.166698
193 2 0.0406917 31.5059 0.195817
194 2 4.12852 31.6148 0.0925776
195 2 7.97721 31.799 0.312839
196 2 11.9614 31.7776 0.159396
197 2 15.9669 31.8252 0.1893
198 2 19.9552 31.797 0.262289
199 2 23.9054 31.5869 0.251429
200 2 27.7444 31.4283 0.26235
201 2 31.6755 31.5062 0.217703
202 2 35.6457 31.5779 0.247423
203 2 39.7784 31.5778 0.185496
204 2 43.6079 31.7672 0.397412
205 2 47.6753 31.7309 0.220144
206 2 51.8382 31.7606 0.196797
207 2 55.4446 31.6255 0.23052
208 2 59.4422 31.5927 0.449619
209 2 63.4058 31.554 0.465559
210 2 67.2221 31.6413 0.158887
211 2 71.3431 31.673 0.221953
212 2 75.148 31.8913 0.271315
213 2 79.1734 31.6276 0.368768
214 2 83.2821 31.6952 0.339224
215 2 87.288 31.6196 0.346531
216 2 91.185 31.7521 0.363063
217 2 0.193142 35.5663 -0.021007
218 2 3.87709 35.7673 0.118756
219 2 7.92403 35.5426 0.277253
220 2 12.0061 35.625 0.12201
221 2 16.1009 35.7369 0.291923
222 2 19.9855 35.7592 0.209971
223 2 24.1487 35.7148 0.220566
224 2 27.9151 35.4817 0.0229791
225 2 31.8245 35.4613 0.135776
226 2 35.8081 35.6013 0.0666677
227 2 39.7527 35.623 0.212074
228 2 43.7881 35.7538 0.0984448
229 2 47.6471 35.5869 0.193963
230 2 51.8552 35.6163 0.166505
231 2 55.4557 35.7856 0.37596
232 2 59.4325 35.5384 0.472621
233 2 63.4934 35.6621 0.282632
234 2 67.3355 35.5903 0.279848
235 2 71.0994 35.6047 0.177539
236 2 75.1507 35.8762 0.132905
237 2 79.0787 35.6722 0.0525016
238 2 83.0704 35.7271 0.293133
239 2 87.1192 35.8059 0.220659
240 2 91.2486 35.7468 0.216751
241 2 0.13633 39.5952 0.432481
242 2 3.99667 39.7683 -0.0107997
243 2 7.94001 39.5195 0.136948
244 2 11.8579 39.4646 0.253352
245 2 16.0477 39.5295 0.112281
246 2 20.0055 39.6847 0.160426
247 2 23.8357 39.8138 0.213946
248 2 27.9298 39.4552 0.147046
249 2 31.6999 39.5698 0.180152
250 2 35.6151 39.4023 0.0163885
251 2 39.8518 39.6655 0.156104
252 2 43.633 39.7198 0.0550931
253 2 47.7328 39.6223 0.169957
254 2 51.6996 39.7412 0.212659
255 2 55.7381 39.6545 0.112018
256 2 59.576 39.5349 0.400083
257 2 63.4909 39.6683 0.198207
258 2 67.277 39.5384 0.249185
259 2 71.1796 39.6078 0.190623
260 2 75.0984 39.7191 0.243969
261 2 79.0752 39.6588 0.250221
262 2 83.2148 39.5975 0.236508
263 2 87.1917 39.7272 0.235717
264 2 90.8888 39.7219 0.174873
265 2 0.272052 43.4563 0.174565
266 2 4.03923 43.6807 0.145435
267 2 7.92679 43.5185 0.165452
268 2 11.9624 43.3509 0.235571
269 2 15.9509 43.3681 0.165254
270 2 19.6937 43.4004 0.44772
271 2 23.7837 43.6809 0.252869
272 2 27.7509 43.317 0.169772
273 2 31.7283 43.5802 0.331277
274 2 35.8941 43.466 0.151128
275 2 39.554 43.6967 0.331128
276 2 43.5976 43.8227 0.0617215
277 2 47.7187 43.5925 0.144448
278 2 51.5942 43.3839 0.255752
279 2 55.445 43.6559 0.176301
280 2 59.4511 43.7173 0.356
281 2 63.5657 43.5608 0.199527
282 2 67.4351 43.6116 0.25681
283 2 71.2405 43.4806 0.305391
284 2 75.2769 43.5212 0.297203
285 2 79.2659 43.5355 0.248112
286 2 83.2904 43.3901 0.217515
287 2 87.1008 43.5973 0.395148
288 2 91.3908 43.4723 -0.0137124
289 2 0.204242 47.5543 0.181629
290 2 4.0104 47.6046 0.121026
291 2 7.94632 47.5187 0.169692
292 2 11.9966 47.5207 -0.0262268
293 2 15.9244 47.5157 0.302259
294 2 19.8276 47.5288 0.30216
295 2 23.9353 47.3386 0.0723981
296 2 27.7648 47.4791 0.0993195
297 2 31.8647 47.1464 0.306864
298 2 35.7961 47.4119 0.22126
299 2 39.6302 47.4888 0.151326
300 2 43.5718 47.5961 0.16656
301 2 47.7544 47.4014 0.312407
302 2 51.5795 47.4246 0.171087
303 2 55.3845 47.4584 0.264318
304 2 59.373 47.7193 0.225208
305 2 63.4601 47.7274 0.246754
306 2 67.3517 47.494 0.288956
307 2 71.3462 47.3219 0.403324
308 2 75.2005 47.4397 0.228753
309 2 79.2651 47.425 0.184792
310 2 83.1846 47.608 0.186276
311 2 87.1077 47.4079 0.334265
312 2 91.0683 47.7147 0.150152
313 2 0.135962 51.6174 0.0941759
314 2 4.02592 51.5331 0.0441337
315 2 7.93259 51.5262 0.173048
316 2 12.0541 51.4064 0.347902
317 2 15.8542 51.5393 0.0671694
318 2 19.9516 51.2703 0.345398
319 2 23.9263 51.3381 0.146228
320 2 27.8527 51.4224 0.282597
321 2 31.9324 51.1929 0.110935
322 2 35.724 51.4586 0.151793
323 2 39.7423 51.5294 -0.000181841
324 2 43.7672 51.4965 0.152907
325 2 47.4367 51.3248 0.247988
326 2 51.64 51.3382 0.269083
327 2 55.3479 51.6643 0.387371
328 2 59.625 51.5687 0.280232
329 2 63.4957 51.717 0.270588
330 2 67.5538 51.3569 0.279895
331 2 71.5856 51.5678 0.360315
332 2 75.4562 51.3511 0.271251
333 2 79.4812 51.2447 0.156051
334 2 83.3073 51.5731 0.290066
335 2 87.0986 51.6014 -0.108839
336 2 90.9425 51.6672 0.178557
337 2 0.294559 55.5303 0.415156
338 2 4.06773 55.4131 0.352491
339 2 7.91965 55.382 0.196022
340 2 12.0232 55.2235 0.325446
341 2 15.9414 55.308 0.315246
342 2 19.9996 55.3029 0.375126
343 2 23.7979 55.3212 0.0959207
344 2 27.7595 55.2527 0.2315
345 2 31.7403 55.4097 0.309174
346 2 35.7456 55.3871 0.218103
347 2 39.5795 55.4047 0.239305
348 2 43.6494 55.3749 0.0773547
349 2 47.6174 55.449 0.137607
350 2 51.6136 55.4259 -0.0409565
351 2 55.5139 55.2288 0.387396
352 2 59.55 55.4966 0.197737
353 2 63.4299 55.4262 0.28954
354 2 67.3766 55.4402 0.124374
355 2 71.458 55.3179 0.116288
356 2 75.2899 55.3561 0.141516
357 2 79.3613 55.3261 0.184249
358 2 83.2427 55.48 0.355923
359 2 87.1838 55.6627 -0.016713
360 2 91.2255 55.298 0.0443446
361 2 -0.20372 59.3073 0.195238
362 2 4.07779 59.2969 0.0673009
363 2 7.98924 59.3892 0.122212
364 2 11.9267 59.2358 -0.0142959
365 2 15.9575 59.1661 0.210707
366 2 19.8947 59.2578 0.343659
367 2 23.9227 59.2638 0.311411
368 2 27.712 59.2331 0.328762
369 2 31.6173 59.4164 0.237677
370 2 35.6806 59.3022 0.430231
371 2 39.8764 59.5115 0.222796
372 2 43.871 59.2386 0.344225
373 2 47.6395 59.2692 0.207335
374 2 51.5713 59.3673 0.234384
375 2 55.48 59.4023 0.400682
376 2 59.2791 59.4136 0.212786
377 2 63.4217 59.3532 0.154967
378 2 67.3628 59.3311 0.283902
379 2 71.3077 59.3509 0.265798
380 2 75.073 59.2127 0.028321
381 2 79.1447 59.491 0.170254
382 2 83.2055 59.3819 0.393014
383 2 87.2495 59.3964 0.149282
384 2 91.1021 59.4191 0.0535986
385 2 -0.117709 63.1789 0.312315
386 2 3.91157 63.4055 0.274062
387 2 7.91702 63.4719 0.0861544
388 2 12.0963 63.2483 0.0910165
389 2 15.8794 63.237 0.279182
390 2 19.8256 63.1738 0.213768
391 2 23.9756 63.1486 0.250714
392 2 27.7867 63.1065 0.0424541
393 2 31.8327 63.2123 0.354945
394 2 35.5385 63.2058 0.139442
395 2 39.6377 63.0703 0.140057
396 2 43.7986 63.2805 0.246162
397 2 47.579 63.347 0.188034
398 2 51.7271 63.3823 0.39849
399 2 55.5727 63.3186 0.132988
400 2 59.5374 63.2941 0.310535
401 2 63.5608 63.2527 0.168986
402 2 67.5362 63.4879 0.398407
403 2 71.3101 63.2359 0.398476
404 2 75.2157 63.2592 0.302721
405 2 79.1316 63.4294 0.190087
406 2 83.2189 63.1492 0.204908
407 2 87.1374 63.4782 0.146178
408 2 90.9377 63.2584 0.207705
409 2 -0.0714231 67.292 0.302352
410 2 4.12936 67.3071 0.330834
411 2 8.08992 67.4119 0.216769
412 2 11.951 67.2893 0.265342
413 2 15.806 67.2312 0.209068
414 2 19.8312 67.2256 0.352009
415 2 23.9592 66.9999 0.0863422
416 2 27.9796 67.1967 0.0978512
417 2 31.7237 67.3669 0.449463
418 2 35.766 67.0563 0.255611
419 2 39.6385 67.0683 0.176661
420 2 43.859 67.0046 0.307729
421 2 47.8195 67.0633 0.303145
422 2 51.4499 67.3838 -0.101244
423 2 55.6659 67.3898 0.190064
424 2 59.6412 67.2702 0.196558
425 2 63.3616 67.2769 0.160386
426 2 67.4108 67.2601 0.165906
427 2 71.399 67.3115 0.167278
428 2 75.3763 67.2479 0.207831
429 2 79.3415 67.4091 0.0561474
430 2 83.2528 67.0675 0.231155
431 2 87.2078 67.3609 0.376295
432 2 90.7683 67.3624 0.0677427
433 2 0.0186965 71.2655 0.290844
434 2 3.85828 71.3976 0.205443
435 2 7.84759 71.2241 0.149969
436 2 11.8573 71.1212 0.277221
437 2 15.865 71.035 0.326089
438 2 19.9026 71.4107 0.228192
439 2 23.8115 70.9909 0.334653
440 2 27.8056 71.2822 0.0977073
441 2 31.7286 71.197 0.217445
442 2 35.8465 71.1988 0.276474
443 2 39.8254 71.1418 0.133775
444 2 43.8922 71.2512 0.151818
445 2 47.5559 71.1994 0.371945
446 2 51.6959 71.1936 0.177473
447 2 55.6067 71.2134 0.146022
448 2 59.4318 71.2861 0.343967
449 2 63.3788 71.296 0.401065
450 2 67.5077 71.2835 0.138658
451 2 71.298 71.0088 0.297375
452 2 75.2012 71.305 0.26662
453 2 79.2111 71.3848 0.170524
454 2 83.4678 71.0611 0.111181
455 2 87.1608 71.4374 0.384268
456 2 91.0791 71.2875 0.339046
457 2 0.233911 75.4154 0.0779969
458 2 4.21061 75.2033 0.210568
459 2 7.87909 75.0938 0.316725
460 2 11.8687 75.0995 0.332431
461 2 15.8539 75.2375 0.131348
462 2 20.0243 75.0421 0.106237
463 2 23.9155 75.0455 0.192275
464 2 27.7517 75.2717 0.0299327
465 2 31.8113 75.1275 0.100276
466 2 35.9471 75.0468 0.249309
467 2 39.6738 75.1275 0.238285
468 2 43.7537 75.1548 0.187115
469 2 47.7066 75.2138 0.178461
470 2 51.544 75.1177 0.109164
471 2 55.5325 75.0374 0.0426076
472 2 59.5152 75.1995 0.244344
473 2 63.4588 75.1678 0.307772
474 2 67.4595 75.1551 0.325035
475 2 71.4028 75.2361 0.131853
476 2 75.1517 75.0401 0.224586
477 2 79.3114 75.1393 0.314394
478 2 83.2638 75.2859 0.152076
479 2 87.2089 75.2051 0.314353
480 2 91.1253 75.1346 0.2624
481 2 0.0686958 79.065 0.30919
482 2 4.1376 79.0039 0.160984
483 2 7.89419 79.2763 -0.00992644
484 2 11.9582 79.2589 0.248968
485 2 15.901 79.0707 0.325895
486 2 19.824 78.958 0.396782
487 2 24.04 78.9756 0.197999
488 2 28.0623 79.2424 0.175739
489 2 31.7374 79.1983 0.17687
490 2 35.5879 79.251 0.277888
491 2 39.7727 79.3022 0.169032
492 2 43.6134 78.992 0.152734
493 2 47.6284 79.0073 0.355824
494 2 51.6099 79.1381 0.172084
495 2 55.5304 79.0154 0.357014
496 2 59.4282 79.2074 0.265606
497 2 63.4229 78.8851 0.0164544
498 2 67.5937 79.1358 0.274
499 2 71.4051 79.2197 0.306014
500 2 75.1205 79.0416 0.265712
501 2 78.9369 79.147 0.351777
502 2 83.135 79.0477 0.298461
503 2 87.0764 79.1243 0.174215
504 2 91.201 78.9392 0.282015
505 2 0.214536 83.0567 0.294124
506 2 3.89667 82.8884 0.311245
507 2 7.85297 83.0433 0.347177
508 2 11.864 83.1855 0.372792
509 2 15.8966 83.2348 0.0250162
510 2 19.839 82.7623 0.201427
511 2 23.6682 83.2293 0.34355
512 2 27.745 83.0177 0.255639
513 2 31.7801 83.3452 0.0771127
514 2 35.8644 83.145 0.267192
515 2 39.6516 83.2279 0.0372675
516 2 43.7341 83.0465 0.318592
517 2 47.6467 83.064 0.127486
518 2 51.3666 83.0631 0.18191
519 2 55.3889 83.2164 0.169904
520 2 59.6197 83.0202 0.171025
521 2 63.5113 83.0918 0.272377
522 2 67.4585 83.023 0.317053
523 2 71.3027 83.1027 0.462422
524 2 75.2966 83.1681 0.282517
525 2 79.4852 82.999 0.236663
526 2 83.2042 83.1805 0.349698
527 2 87.2317 83.0836 0.315261
528 2 91.0121 82.8889 0.307786
529 2 0.0329392 86.8277 0.257371
530 2 3.91713 86.9474 0.230637
531 2 8.0033 87.0689 0.353054
532 2 11.9562 87.3146 0.0987999
533 2 15.8027 87.0867 0.189382
534 2 19.7376 86.9023 0.357702
535 2 23.7738 86.8874 0.442164
536 2 27.8597 86.8689 0.276485
537 2 31.8293 87.156 0.2327
538 2 35.7793 87.1042 0.325094
539 2 39.9177 87.0391 0.126566
540 2 43.6891 86.9399 0.103505
541 2 47.6198 87.0915 0.267594
542 2 51.6453 87.1382 0.314975
543 2 55.404 86.9673 0.409018
544 2 59.6707 86.8309 0.218025
545 2 63.4811 87.0917 0.127052
546 2 67.4288 87.1914 -0.0360136
547 2 71.3323 86.995 0.323527
548 2 75.3116 86.9296 0.237191
549 2 79.2232 86.9595 0.261994
550 2 83.0449 87.1214 0.438894
551 2 87.1652 86.9041 0.351431
552 2 91.2395 86.9731 0.197288
553 2 0.0533765 90.8488 0.414169
554 2 4.01271 90.9653 0.194909
555 2 7.97355 90.9581 0.444587
556 2 11.937 90.9475 0.271055
557 2 16.097 91.0068 -0.0285447
558 2 19.9911 90.8622 0.329649
559 2 24.0155 90.8564 0.117122
560 2 27.6713 90.8811 0.180548
561 2 31.8086 90.944 0.380487
562 2 35.723 91.0495 0.109222
563 2 39.6785 90.9837 0.14896
564 2 43.4307 91.0211 0.191391
565 2 47.8373 91.0001 0.179498
566 2 51.5732 90.9429 0.345734
567 2 55.8412 90.8289 0.201006
568 2 59.5873 91.068 0.295163
569 2 63.445 90.9336 0.238965
570 2 67.3991 90.8527 0.337629
571 2 71.2873 90.8997 0.274026
572 2 75.1724 90.7949 0.472696
573 2 79.1533 90.9731 0.384959
574 2 83.0839 91.0729 0.419868
575 2 87.1726 91.0608 0.442802
576 2 91.1319 90.8777 0.276001
577 2 0.133624 -0.137962 4.22749
578 2 3.98809 0.182621 4.20593
579 2 7.90636 0.157291 4.22632
580 2 11.9992 -0.0374864 4.19318
581 2 15.9829 -0.109424 4.08459
582 2 20.0442 0.126045 4.11595
583 2 23.9096 -0.0593055 4.15257
584 2 27.7465 0.0178754 4.20405
585 2 31.775 0.1202 4.10152
586 2 35.5156 0.133395 4.21627
587 2 39.5601 0.0385083 4.11685
588 2 43.681 -0.0540411 4.2059
589 2 47.5736 -0.0750649 4.24367
590 2 51.64 -4.96712e-05 4.3079
591 2 55.674 -0.0271301 4.15557
592 2 59.5405 0.167464 4.28312
593 2 63.4936 -0.0254421 4.11247
594 2 67.458 0.0483948 4.32047
595 2 71.4223 -0.141104 4.36637
596 2 75.2272 0.147555 4.39194
597 2 79.1577 0.0616187 4.30836
598 2 83.1255 -0.173298 4.28866
599 2 87.2244 -0.185796 4.24734
600 2 91.1557 -0.0277258 4.38212
601 2 0.0917616 4.09335 4.31143
602 2 3.99004 3.90395 4.45841
603 2 7.92025 3.91594 4.34459
604 2 12.1619 3.68571 4.17567
605 2 16.0401 4.09198 4.11513
606 2 20.0901 4.17947 4.12592
607 2 23.8622 4.12645 4.10103
608 2 27.7021 4.00944 4.04541
609 2 31.6919 3.83739 4.27015
610 2 35.504 4.07912 4.18003
611 2 39.4584 4.04852 4.33
612 2 43.5994 3.84989 4.11121
613 2 47.6278 3.93512 4.10078
614 2 51.6934 3.99096 4.21267
615 2 55.561 3.9359 4.01356
616 2 59.7495 3.91832 4.11975
617 2 63.4087 3.98761 4.11528
618 2 67.2043 3.96327 4.24933
619 2 71.3805 3.89326 4.23286
620 2 75.1603 4.02236 4.3164
621 2 79.2801 4.03524 4.35584
622 2 83.1594 3.91418 4.14331
623 2 87.4227 3.9047 4.35864
624 2 91.177 3.95237 4.25523
625 2 0.0862737 7.78461 4.47126
626 2 3.99129 7.85315 4.34059
627 2 7.99391 7.88985 4.1936
628 2 12.1454 7.75948 4.26163
629 2 16.068 8.02694 4.16311
630 2 19.8081 7.96826 4.22654
631 2 23.7277 8.09331 4.01752
632 2 27.4145 7.9785 4.25478
633 2 31.7814 7.91829 4.21568
634 2 35.8451 8.05186 4.4109
635 2 39.7484 8.03039 4.2327
636 2 43.8208 7.88547 4.07226
637 2 47.55 7.9083 4.368
638 2 51.5117 7.8313 4.16944
639 2 55.6484 7.83553 4.35814
640 2 59.5333 7.94063 4.3196
641 2 63.2619 8.04115 4.21062
642 2 67.4185 8.1362 4.20552
643 2 71.3252 7.85785 4.36674
644 2 75.1528 7.8918 4.47718
645 2 79.2303 7.94794 4.06861
646 2 83.2874 7.99052 4.27596
647 2 87.2812 7.91217 4.20476
648 2 91.1431 7.7907 4.30001
649 2 0.224199 11.8269 4.02312
650 2 3.95301 11.8266 4.33824
651 2 7.84211 11.5638 4.14167
652 2 12.1115 12.0708 3.96704
653 2 16.1426 11.9504 4.13839
654 2 20.0301 12.1025 4.21959
655 2 23.9832 11.9421 4.09765
656 2 27.9396 11.8073 4.30479
657 2 31.8671 11.8553 4.14742
658 2 35.7934 12.0293 4.19421
659 2 39.5511 11.8482 4.42835
660 2 43.6545 12.1705 4.17417
661 2 47.6232 11.8517 4.23012
662 2 51.6199 11.7349 4.31021
663 2 55.5323 11.8668 4.29784
664 2 59.242 11.8492 4.16631
665 2 63.5112 11.9179 4.188
666 2 67.5733 11.8746 4.28663
667 2 71.3507 11.8782 4.44713
668 2 75.3195 11.8518 4.27606
669 2 79.2597 11.9446 4.15626
670 2 83.2322 11.9074 4.28098
671 2 87.2284 12.1177 4.18339
672 2 91.141 11.7467 4.22192
673 2 -0.0515975 15.6936 4.20986
674 2 4.08982 15.709 4.20487
675 2 8.09173 15.8156 4.24701
676 2 12.0228 15.9613 4.0914
677 2 15.9912 15.8948 4.2071
678 2 20.0323 15.813 4.34517
679 2 23.806 15.8876 4.33063
680 2 27.6795 15.8106 4.02434
681 2 31.6608 15.8301 4.29472
682 2 35.5782 15.8931 4.0949
683 2 39.6228 15.9426 4.14489
684 2 43.527 15.9247 4.16347
685 2 47.686 15.7567 4.14189
686 2 51.5913 15.8432 4.33044
687 2 55.4712 15.9058 4.30178
688 2 59.5054 15.8428 4.14199
689 2 63.3285 15.9624 4.27763
690 2 67.4836 15.6651 4.18816
691 2 71.4248 15.7647 4.18409
692 2 75.4443 15.7028 4.27386
693 2 79.209 15.8497 4.31832
694 2 83.2141 15.9294 4.24815
695 2 87.4399 15.9417 4.2556
696 2 91.1129 15.7349 4.19668
697 2 0.119967 19.7223 4.16329
698 2 3.96719 19.7177 4.16308
699 2 7.98225 19.6406 4.36475
700 2 12.1402 19.7472 4.14957
701 2 15.9716 19.9968 4.22365
702 2 19.6375 19.9318 4.20923
703 2 23.7499 19.985 4.21396
704 2 27.7986 19.9004 4.28584
705 2 31.887 20.0382 4.14645
706 2 35.8231 19.8626 4.2716
707 2 39.7536 19.8228 4.1563
708 2 43.6673 19.7185 4.35159
709 2 47.6369 19.9491 4.31993
710 2 51.5104 19.8017 4.3726
711 2 55.492 19.8194 4.18255
712 2 59.5923 19.7581 4.3323
713 2 63.2644 20.0471 4.22749
714 2 67.4406 19.8405 4.31507
715 2 71.3608 19.7639 4.40513
716 2 75.3069 19.9546 4.15937
717 2 79.3766 19.7869 4.36497
718 2 83.2478 19.7063 4.36864
719 2 87.353 19.8001 4.27998
720 2 91.1688 19.8186 4.39429
721 2 0.111238 23.82 4.05162
722 2 3.9764 23.6298 4.39278
723 2 7.93492 23.7876 4.1299
724 2 11.8631 23.8937 4.42325
725 2 15.8969 23.9401 3.92323
726 2 19.9514 23.9184 4.19091
727 2 23.8903 23.8956 4.20702
728 2 27.7046 23.8437 4.3025
729 2 31.7088 23.8498 4.16004
730 2 35.699 23.6775 4.27165
731 2 39.712 23.6714 4.14119
732 2 43.6228 23.7471 4.22397
733 2 47.7339 23.8482 4.2495
734 2 51.5655 23.8518 4.25977
735 2 55.5972 23.6655 4.39288
736 2 59.4273 23.7779 4.07848
737 2 63.4723 23.7997 4.2471
738 2 67.4529 23.8334 4.29693
739 2 71.4022 23.7292 4.29218
740 2 75.3523 23.687 4.14414
741 2 79.2718 23.8963 4.23333
742 2 83.2062 23.6976 4.33957
743 2 87.1802 23.9044 4.35776
744 2 91.1345 23.707 4.23341
745 2 0.0455415 27.8166 4.19084
746 2 4.10362 27.763 4.16366
747 2 8.1185 27.8434 4.31377
748 2 12.0791 27.8372 4.20316
749 2 15.9612 27.917 4.25142
750 2 19.985 27.9083 4.09788
751 2 23.6918 27.7914 4.33519
752 2 27.8721 27.6317 4.28849
753 2 31.7949 27.7073 4.18964
754 2 35.6955 27.6842 4.3101
755 2 39.4819 27.6831 4.09785
756 2 43.8533 27.6595 4.21892
757 2 47.7097 27.7055 4.2625
758 2 51.5325 27.8551 4.42044
759 2 55.4633 27.7312 4.43753
760 2 59.4783 27.7894 4.31302
761 2 63.4176 27.6429 4.30536
762 2 67.518 27.6868 4.23346
763 2 71.4368 27.7532 4.20838
764 2 75.0964 27.7765 4.33567
765 2 79.1178 27.6916 4.13719
766 2 83.2029 27.8697 4.26695
767 2 87.0486 27.6895 4.35753
768 2 91.0159 27.8788 4.22001
769 2 0.213718 31.6737 3.99919
770 2 3.94192 31.6909 4.2196
771 2 8.04719 31.8542 4.19284
772 2 12.0447 31.7139 4.17464
773 2 15.8436 31.7637 4.09819
774 2 19.8475 31.926 4.41147
775 2 23.7968 31.6281 4.16279
776 2 27.7673 31.8552 4.4205
777 2 31.8306 31.8228 4.21165
778 2 35.8337 31.8432 4.06915
779 2 39.7679 31.6935 4.19308
780 2 43.5987 31.699 4.23908
781 2 47.7741 31.7063 4.31045
782 2 51.7443 31.7614 4.16768
783 2 55.5784 31.6954 4.2723
784 2 59.5324 31.8423 4.11154
785 2 63.471 31.659 4.25722
786 2 67.3351 31.5862 4.1758
787 2 71.0988 31.7199 4.09639
788 2 75.3649 31.741 4.4046
789 2 79.4083 31.8048 3.98784
790 2 83.1791 31.7472 4.33438
791 2 87.3063 31.6526 4.11858
792 2 91.1918 31.8033 4.13429
793 2 0.0586344 35.7083 4.1026
794 2 3.98443 35.7573 4.18616
795 2 7.92207 35.6881 4.10995
796 2 12.0301 35.7332 3.91521
797 2 16.0324 35.7273 4.1482
798 2 20.1888 35.7233 4.12526
799 2 24.0421 35.4076 4.06449
800 2 27.9326 35.785 4.20004
801 2 31.7048 35.984 3.93499
802 2 35.877 35.7048 4.05317
803 2 39.6231 35.8813 4.1705
804 2 43.4122 35.653 4.25392
805 2 47.5731 35.6078 3.96668
806 2 51.5802 35.7396 4.20384
807 2 55.5418 35.6404 4.3286
808 2 59.2268 35.7916 4.16251
809 2 63.5688 35.6345 4.24253
810 2 67.3554 35.7881 4.1532
811 2 71.2739 35.5331 4.25383
812 2 75.0993 35.7313 4.26483
813 2 79.2123 35.7127 4.2231
814 2 83.1496 35.7665 4.14401
815 2 87.2375 35.6826 4.27364
816 2 91.3152 35.688 4.23953
817 2 -0.0579175 39.7083 4.28223
818 2 3.98122 39.8961 4.32924
819 2 7.78432 39.6261 4.25226
820 2 11.9951 39.5885 4.15278
821 2 15.9194 39.521 4.45201
822 2 20.0414 39.6048 4.30693
823 2 23.9882 39.5432 4.0275
824 2 27.915 39.5904 3.97509
825 2 31.8936 39.7153 3.99323
826 2 35.8061 39.3684 4.05148
827 2 39.8159 39.5345 4.18245
828 2 43.6937 39.6967 4.16261
829 2 47.617 39.6044 4.24464
830 2 51.7415 39.673 4.34151
831 2 55.3497 39.6596 4.28971
832 2 59.3796 39.7431 4.07579
833 2 63.4628 39.7325 4.06318
834 2 67.4352 39.7695 4.21119
835 2 71.2696 39.6235 4.436
836 2 75.4027 39.4328 4.30745
837 2 79.3844 39.5097 4.06867
838 2 83.1874 39.6454 4.39011
839 2 87.208 39.5291 4.1859
840 2 91.1536 39.5798 4.27878
841 2 -0.0965542 43.6555 4.13433
842 2 4.00069 43.8623 4.07409
843 2 7.91512 43.5208 4.19748
844 2 12.063 43.5146 4.13434
845 2 15.9421 43.4963 4.12942
846 2 19.8906 43.4307 4.38749
847 2 23.8798 43.4953 4.25966
848 2 27.8853 43.6008 4.06538
849 2 32.0207 43.4908 4.2925
850 2 35.9285 43.4188 4.2657
851 2 39.6813 43.7164 4.14811
852 2 43.8771 43.7017 4.15876
853 2 47.5948 43.6234 4.21563
854 2 51.5912 43.6427 4.36201
855 2 55.6034 43.7655 4.13865
856 2 59.4708 43.857 4.09847
857 2 63.4303 43.7801 4.29608
858 2 67.3056 43.5466 4.24111
859 2 71.2823 43.4497 4.3797
860 2 75.3234 43.6349 4.33057
861 2 79.2476 43.6532 4.29414
862 2 83.2181 43.6474 4.34836
863 2 86.892 43.5184 4.17162
864 2 91.0681 43.4433 4.08345
865 2 0.0201112 47.7012 4.06535
866 2 4.1131 47.5706 4.23097
867 2 8.2036 47.4423 3.97092
868 2 11.9882 47.4466 4.15478
869 2 15.8211 47.4865 4.10558
870 2 19.9645 47.4746 4.31873
871 2 23.9578 47.3727 4.15883
872 2 28.1506 47.6014 4.12187
873 2 31.6839 47.151 3.9783
874 2 35.732 47.4761 4.2914
875 2 39.7526 47.6483 4.20525
876 2 43.5775 47.4239 4.18326
877 2 47.7083 47.5179 4.23245
878 2 51.6342 47.5112 4.2664
879 2 55.7137 47.6214 4.2153
880 2 59.4113 47.6184 4.25384
881 2 63.3017 47.6638 4.23601
882 2 67.3067 47.6864 4.35679
883 2 71.2707 47.4378 4.37495
884 2 75.3647 47.6682 4.25722
885 2 79.1648 47.6152 4.21377
886 2 83.034 47.6253 4.30679
887 2 87.0725 47.5986 4.12934
888 2 90.9892 47.6231 4.00913
889 2 -0.0269955 51.6549 4.23368
890 2 4.0493 51.4851 3.97797
891 2 7.95154 51.5881 4.23491
892 2 12.0223 51.3135 4.17027
893 2 15.8955 51.3682 4.45439
894 2 19.8473 51.3644 4.12486
895 2 24.0083 51.5052 4.28159
896 2 27.8354 51.4713 4.1336
897 2 31.8088 51.4532 4.15323
898 2 35.677 51.3719 4.20965
899 2 39.7076 51.6223 4.21711
900 2 43.6451 51.4228 4.20849
901 2 47.5975 51.5672 4.17711
902 2 51.3629 51.7584 4.1195
903 2 55.4233 51.5956 4.18493
904 2 59.4574 51.6489 4.20425
905 2 63.478 51.4064 4.25991
906 2 67.3775 51.5557 4.16394
907 2 71.2891 51.6197 4.14811
908 2 75.4051 51.4364 4.22426
909 2 79.3952 51.6253 4.13843
910 2 83.1747 51.5194 4.14247
911 2 86.9619 51.4635 4.18225
912 2 91.0324 51.6254 3.99893
913 2 0.0330788 55.5971 4.32079
914 2 4.09 55.4814 4.15142
915 2 7.94605 55.6189 4.08862
916 2 11.9377 55.3555 4.31998
917 2 15.8432 55.4319 4.35398
918 2 20.0085 55.275 4.21747
919 2 23.7979 55.3536 4.22433
920 2 27.9699 55.3017 4.17984
921 2 31.9355 55.3918 4.2067
922 2 35.5769 55.5735 4.26221
923 2 39.7236 55.4635 4.06521
924 2 43.622 55.3668 4.28666
925 2 47.4965 55.5224 4.34489
926 2 51.5879 55.3318 4.45002
927 2 55.7503 55.5616 4.28948
928 2 59.5088 55.5197 4.31772
929 2 63.3817 55.5034 4.25332
930 2 67.4467 55.3708 4.23677
931 2 71.4274 55.6449 4.26489
932 2 75.3912 55.1591 4.14244
933 2 79.1551 55.7916 3.99744
934 2 83.2685 55.4078 4.34752
935 2 87.3095 55.6111 4.0807
936 2 91.0755 55.4255 4.1887
937 2 -0.00299592 59.5133 4.2386
938 2 4.09201 59.4857 4.12174
939 2 8.05938 59.2737 4.16137
940 2 11.7614 59.3123 4.16044
941 2 15.7948 59.1817 4.09511
942 2 19.9038 59.4211 4.19166
943 2 23.9011 59.4073 4.3486
944 2 27.7614 59.1474 4.20659
945 2 31.8562 59.4723 4.26479
946 2 35.6915 59.4429 4.32724
947 2 39.5743 59.2927 4.24865
948 2 43.671 59.4524 4.17946
949 2 47.7257 59.2889 4.16457
950 2 51.6184 59.4532 4.20736
951 2 55.3702 59.443 4.28376
952 2 59.4671 59.5259 4.07586
953 2 63.4455 59.461 4.05545
954 2 67.3244 59.3272 4.23175
955 2 71.2211 59.5665 4.2165
956 2 75.2153 59.326 3.94004
957 2 79.2009 59.594 4.25112
958 2 83.1033 59.5704 4.37048
959 2 87.0775 59.4984 4.16662
960 2 90.7653 59.4264 4.24252
961 2 0.164233 63.3106 4.32084
962 2 4.11346 63.3182 4.0774
963 2 7.99808 63.3737 4.23288
964 2 11.9292 63.2751 4.14484
965 2 15.7103 63.0925 4.1398
966 2 19.614 63.5846 4.17074
967 2 23.8216 63.3406 4.10691
968 2 27.8726 63.2478 4.12204
969 2 31.5659 63.3405 4.3335
970 2 35.7674 63.456 4.10333
971 2 39.6897 63.2081 4.15557
972 2 43.6049 63.3343 4.28107
973 2 47.7366 63.3223 4.32346
974 2 51.7392 63.222 4.17853
975 2 55.7296 63.3625 4.12633
976 2 59.2758 63.4274 4.08665
977 2 63.4926 63.3951 4.3205