ITEM: TIMESTEP
70500
ITEM: NUMBER OF ATOMS
43200
ITEM: BOX BOUNDS xy xz yz pp pp pp
0.0000000000000000e+00 9.4992000000000004e+01 0.0000000000000000e+00
0.0000000000000000e+00 9.4992000000000004e+01 0.0000000000000000e+00
1.5188503908198925e-03 5.9698481149610785e+01 0.0000000000000000e+00
ITEM: ATOMS id type x y z
1 2 0.0200649 -0.135665 0.197552
2 2 4.02407 0.0440345 0.186016
3 2 7.82017 -0.148121 0.250574
4 2 11.9691 0.0146955 0.248688
5 2 16.1552 -0.0129449 0.019547
6 2 19.8318 -0.0570929 -0.0647947
7 2 23.9097 0.0142595 0.271591
8 2 27.8191 -0.121595 0.361132
9 2 31.6774 -0.172708 0.0814719
10 2 35.5509 -0.349444 0.131407
11 2 39.7289 0.0052061 0.0993957
12 2 43.6718 -0.0208111 0.312182
13 2 47.4099 -0.0786915 0.266632
14 2 51.6692 -0.0969981 0.178897
15 2 55.4843 -0.361489 0.107164
16 2 59.4509 -0.0351871 0.263583
17 2 63.2495 -0.043079 0.242003
18 2 67.3235 -0.108493 0.251705
19 2 71.2761 -0.122799 0.256111
20 2 75.3475 -0.128862 0.283079
21 2 79.2424 -0.130955 0.28629
22 2 83.096 0.0688267 0.221753
23 2 86.9857 -0.0681556 0.336562
24 2 91.2049 0.0767733 0.307183
25 2 0.132063 4.06548 0.204187
26 2 4.14927 3.96933 0.298627
27 2 8.00418 3.80359 0.117411
28 2 11.8665 3.81089 0.381329
29 2 15.8616 4.02925 0.384028
30 2 20.1946 3.98617 0.168606
31 2 23.9356 3.95801 0.420869
32 2 27.8915 3.91914 0.414653
33 2 31.7675 3.77979 0.198553
34 2 35.719 3.87329 0.310372
35 2 39.4912 3.80149 0.427465
36 2 43.5587 3.89112 0.442957
37 2 47.6128 3.78449 0.316997
38 2 51.2993 3.93325 0.3321
39 2 55.3669 3.71682 0.175073
40 2 59.474 4.0123 0.339112
41 2 63.3726 4.00882 0.357147
42 2 67.4955 3.90274 0.294079
43 2 71.2916 3.92478 0.321665
44 2 75.4212 3.74247 0.432514
45 2 79.4247 3.92505 0.139171
46 2 83.2066 4.04009 0.191958
47 2 87.1763 3.80435 0.231892
48 2 91.1187 3.97788 0.390749
49 2 0.367321 7.84469 0.280566
50 2 4.10422 7.85659 0.388241
51 2 8.22974 7.85179 0.369038
52 2 12.1065 7.87041 0.241872
53 2 15.9266 7.81143 0.226863
54 2 19.8287 7.87554 0.375171
55 2 23.7683 7.93236 0.404289
56 2 27.7909 7.74264 0.385025
57 2 31.9319 7.8246 0.264952
58 2 35.9039 7.80436 0.29564
59 2 39.5796 7.92591 0.264436
60 2 43.7637 7.86809 0.190635
61 2 47.5173 8.01265 0.288716
62 2 51.4767 8.00471 0.159086
63 2 55.567 8.03728 0.359584
64 2 59.4379 7.84761 0.38247
65 2 63.436 7.95312 0.378776
66 2 67.3495 7.9021 0.290144
67 2 71.4392 7.8164 0.163122
68 2 75.4553 7.80477 0.208694
69 2 79.2248 7.91498 0.226728
70 2 83.2946 7.93383 0.206291
71 2 87.2204 8.08326 0.387019
72 2 91.3799 7.85847 0.261118
73 2 -0.0238484 11.8541 0.405624
74 2 3.93001 11.9245 0.345738
75 2 7.94864 11.8257 0.289807
76 2 12.0458 11.7347 0.300618
77 2 16.0596 11.7619 0.370689
78 2 20.0161 11.9525 0.311911
79 2 24.0505 11.8062 0.206453
80 2 28.0253 11.8856 0.259825
81 2 31.6682 11.7469 0.358368
82 2 35.5421 11.8516 0.325727
83 2 39.6829 11.8986 0.353999
84 2 43.5399 11.7969 0.311255
85 2 47.5203 11.8473 0.137381
86 2 51.3057 11.8596 0.363732
87 2 55.4838 11.9043 0.393044
88 2 59.3866 11.7409 0.217981
89 2 63.4474 11.8857 0.24899
90 2 67.4323 11.9248 0.248448
91 2 71.3194 11.8508 0.382527
92 2 75.1485 11.8755 0.232291
93 2 79.1579 11.8114 0.244865
94 2 82.9937 11.9005 0.307195
95 2 87.36 11.9127 0.259228
96 2 91.1823 11.7617 0.280871
97 2 0.117761 16.0789 0.133395
98 2 4.13937 15.78 0.265093
99 2 8.04654 15.6104 0.234453
100 2 11.9683 15.83 0.0917874
101 2 15.9517 15.6594 0.256423
102 2 20.1538 15.8405 0.0907375
103 2 23.9767 15.8371 -0.0145632
104 2 27.8589 15.6844 0.10343
105 2 31.9489 15.9433 0.29779
106 2 35.6428 15.7051 0.266273
107 2 39.3994 15.8393 0.314066
108 2 43.5636 15.736 0.282593
109 2 47.463 16.0258 0.189954
110 2 51.5292 15.6306 0.186411
111 2 55.5062 15.8989 0.385513
112 2 59.2967 15.7248 0.42668
113 2 63.282 15.5998 0.224169
114 2 67.302 15.7177 0.305474
115 2 71.3129 16.0064 0.219447
116 2 75.4459 15.8338 0.238543
117 2 79.3834 16.0804 0.16111
118 2 83.3174 15.9609 0.325846
119 2 87.0134 15.9066 0.316945
120 2 91.165 15.8712 0.200774
121 2 0.0575272 19.9186 0.044601
122 2 4.04329 19.7967 0.204522
123 2 8.02947 19.8484 0.0140374
124 2 12.069 19.7462 0.275553
125 2 15.9605 19.7028 0.0714774
126 2 19.8709 19.8136 0.186265
127 2 23.9109 19.8657 0.115462
128 2 27.7879 19.6476 0.164785
129 2 31.6633 19.9064 0.275635
130 2 35.7222 19.8085 0.240135
131 2 39.6358 19.6081 0.339563
132 2 43.514 19.6774 0.0839867
133 2 47.5669 19.8138 0.325397
134 2 51.5728 19.5109 0.188502
135 2 55.4177 19.7246 0.376139
136 2 59.2023 19.5395 0.399543
137 2 63.3206 19.6618 0.350566
138 2 67.3812 19.7879 0.234313
139 2 71.0951 19.6514 0.318658
140 2 75.2527 20.0396 0.0302148
141 2 79.3798 19.8752 0.0304901
142 2 83.2197 19.8816 0.0594272
143 2 87.1469 19.6208 0.0635943
144 2 91.1747 19.8376 0.307442
145 2 0.231531 23.9587 0.0747766
146 2 4.07706 23.7752 0.261427
147 2 8.14294 23.7431 0.302591
148 2 12.2409 23.734 0.0719658
149 2 16.0503 23.8184 0.199961
150 2 19.8418 23.6749 0.344042
151 2 24.0889 23.8735 0.329394
152 2 27.9064 23.9749 0.292428
153 2 31.762 24.0256 0.436701
154 2 35.7159 23.5868 0.301966
155 2 39.5119 23.7415 0.280679
156 2 43.66 23.7553 0.240734
157 2 47.5581 23.5726 0.347595
158 2 51.5814 23.6561 0.26348
159 2 55.3618 23.6431 0.270452
160 2 59.1316 23.7176 0.274272
161 2 63.3365 23.609 0.111669
162 2 67.4469 23.783 0.251194
163 2 71.3488 23.7031 0.0900326
164 2 75.3668 23.8574 0.0735521
165 2 79.1578 23.8696 0.442047
166 2 83.2046 23.6848 0.28042
167 2 87.0646 23.6312 0.144885
168 2 91.181 24.0158 0.403164
169 2 0.343252 27.6464 0.251315
170 2 4.18134 27.6724 0.253899
171 2 8.13153 27.7211 0.258683
172 2 11.9991 27.7516 0.18029
173 2 15.8674 27.5344 0.475242
174 2 19.969 27.7399 0.386534
175 2 23.7026 27.668 0.347624
176 2 27.6102 27.6229 0.0981969
177 2 31.7007 27.6172 0.281501
178 2 35.6073 27.8022 0.200126
179 2 39.6995 27.6562 0.330604
180 2 43.3788 27.7995 0.11967
181 2 47.4023 27.6695 0.199066
182 2 51.5156 27.6701 0.39746
183 2 55.4598 27.6876 0.260645
184 2 59.4457 27.4411 0.147391
185 2 63.4067 27.6762 0.263531
186 2 67.2412 27.5265 0.306207
187 2 71.1802 27.7615 0.208041
188 2 75.3417 27.789 0.392222
189 2 79.1567 27.662 0.378476
190 2 83.3758 27.7968 0.292357
191 2 87.2004 27.7966 0.343312
192 2 91.2697 27.7519 0.0530868
193 2 0.0234866 31.905 0.239867
194 2 4.17717 31.5107 -0.0901462
195 2 8.1521 31.7342 0.108738
196 2 11.9088 31.8381 0.314731
197 2 15.9983 31.9153 0.08458
198 2 20.1027 31.648 0.337023
199 2 24.0043 31.7965 0.107458
200 2 27.9357 31.7617 0.277236
201 2 31.9212 31.6952 0.382441
202 2 35.6532 31.7413 0.285394
203 2 39.6863 31.7667 0.179262
204 2 43.5003 31.8508 0.124378
205 2 47.4865 31.4935 0.0860343
206 2 51.5038 31.7999 0.166082
207 2 55.4268 31.5544 0.186538
208 2 59.4164 31.7065 0.227393
209 2 63.3806 31.6246 0.266111
210 2 67.389 31.6049 0.129513
211 2 71.2594 31.5929 0.212273
212 2 75.2081 31.6098 0.0808542
213 2 79.2205 31.5362 0.213212
214 2 83.1235 31.6203 0.474745
215 2 87.2632 31.6246 0.331396
216 2 91.1223 31.7747 0.268024
217 2 0.230339 35.7787 0.146933
218 2 4.20956 35.6378 0.255409
219 2 8.15395 35.5974 0.306406
220 2 12.0243 35.7319 0.45627
221 2 15.9872 35.5209 0.216983
222 2 19.7728 35.9202 0.172303
223 2 23.9936 35.6297 0.186603
224 2 27.7668 35.7692 0.375215
225 2 31.9846 35.6418 0.290277
226 2 35.7877 35.8185 0.144013
227 2 39.7621 35.7002 0.189878
228 2 43.8078 35.7178 0.116285
229 2 47.7416 35.5462 0.356318
230 2 51.5061 35.4251 0.0779484
231 2 55.5087 35.6381 0.318253
232 2 59.4976 35.6967 0.211819
233 2 63.4199 35.652 0.420514
234 2 67.2509 35.3884 0.236142
235 2 71.465 35.414 0.457191
236 2 75.3079 35.6211 0.229912
237 2 79.1916 35.7165 0.153497
238 2 83.2448 35.6116 0.161282
239 2 87.1331 35.6352 0.151949
240 2 91.0408 35.5659 0.386699
241 2 -0.0367593 39.5049 0.259928
242 2 4.01959 39.6537 0.445455
243 2 8.06243 39.8001 0.340762
244 2 11.858 39.7535 0.289797
245 2 15.96 39.6045 0.282751
246 2 20.0042 39.6556 0.375133
247 2 23.9747 39.5459 0.17132
248 2 27.8001 39.3771 0.195638
249 2 31.8913 39.6972 0.255107
250 2 35.9361 39.616 0.379257
251 2 39.608 39.7373 0.261122
252 2 43.7602 39.7356 0.359976
253 2 47.6657 39.6111 0.305096
254 2 51.6442 39.7462 0.188474
255 2 55.4926 39.6228 0.331832
256 2 59.4818 39.5809 0.34806
257 2 63.3602 39.4826 0.479972
258 2 67.4954 39.6011 0.298153
259 2 71.3038 39.8468 0.263887
260 2 75.2826 39.6409 0.310703
261 2 79.4526 39.5417 0.327089
262 2 83.337 39.6254 0.401048
263 2 87.2227 39.8068 0.324844
264 2 91.1525 39.4975 0.329111
265 2 -0.116486 43.5732 0.297178
266 2 4.28474 43.5766 0.451374
267 2 8.16739 43.7728 0.223078
268 2 12.0583 43.5982 0.37754
269 2 16.0068 43.4717 0.242346
270 2 20.1122 43.6125 0.19961
271 2 23.9263 43.6135 0.370031
272 2 27.7167 43.5577 0.205431
273 2 31.4561 43.282 0.239643
274 2 35.6807 43.377 0.262976
275 2 39.544 43.7505 0.341242
276 2 43.6078 43.6381 0.164014
277 2 47.5192 43.5238 0.388372
278 2 51.5386 43.6217 0.388711
279 2 55.5443 43.7667 0.309896
280 2 59.3159 43.5635 0.34256
281 2 63.417 43.4224 0.234972
282 2 67.2417 43.7183 0.328022
283 2 71.293 43.6237 0.114819
284 2 75.3285 43.4541 0.316482
285 2 79.2583 43.5017 0.358413
286 2 83.3017 43.6869 0.374725
287 2 87.0904 43.4267 0.296323
288 2 91.3073 43.5256 0.184635
289 2 0.0988971 47.5706 0.296363
290 2 3.97169 47.521 0.403098
291 2 8.07734 47.6082 0.162192
292 2 12.1712 47.4181 0.278431
293 2 16.1348 47.4983 0.411218
294 2 19.9141 47.391 0.284118
295 2 23.9196 47.5024 0.263455
296 2 27.884 47.3527 0.311662
297 2 31.7294 47.6061 0.338711
298 2 35.5836 47.5316 0.300963
299 2 39.7688 47.5728 0.327847
300 2 43.5878 47.5139 0.312078
301 2 47.5547 47.5859 0.389482
302 2 51.6438 47.5487 0.308715
303 2 55.4602 47.449 0.33435
304 2 59.3511 47.4222 0.462609
305 2 63.3542 47.5456 0.257852
306 2 67.2154 47.4629 0.181232
307 2 71.4246 47.3006 0.326822
308 2 75.3958 47.3256 0.170672
309 2 79.1353 47.5248 0.316256
310 2 83.2824 47.5561 0.306846
311 2 87.5117 47.4431 0.0971504
312 2 91.2618 47.4976 0.207517
313 2 0.160382 51.4923 0.189199
314 2 4.06783 51.3594 0.384797
315 2 8.10505 51.5534 0.270387
316 2 11.984 51.5029 0.259804
317 2 15.9593 51.4238 0.358968
318 2 19.9545 51.4252 0.162934
319 2 23.7189 51.5085 0.245601
320 2 27.7018 51.2175 0.283904
321 2 31.8643 51.5342 0.243328
322 2 35.7312 51.499 0.52391
323 2 39.542 51.5808 0.313612
324 2 43.5213 51.3752 0.24972
325 2 47.6224 51.4033 0.488832
326 2 51.4665 51.4096 0.34441
327 2 55.3131 51.4499 0.17991
328 2 59.3746 51.7679 0.299203
329 2 63.5301 51.4742 0.412078
330 2 67.4091 51.6389 0.0617943
331 2 71.3992 51.2868 0.224411
332 2 75.3754 51.4132 0.281999
333 2 79.3605 51.4167 0.319471
334 2 83.3963 51.3424 0.425066
335 2 87.218 51.3914 0.372387
336 2 91.1291 51.3713 0.167509
337 2 0.311197 55.3593 0.324368
338 2 4.19377 55.4513 0.247514
339 2 8.1758 55.3411 0.288994
340 2 11.9566 55.4925 0.147683
341 2 15.9111 55.5239 0.324883
342 2 19.9632 55.4113 0.276972
343 2 23.9552 55.3078 0.252072
344 2 27.7522 55.5431 0.232539
345 2 31.685 55.5043 0.201648
346 2 35.727 55.3501 0.24353
347 2 39.8369 55.4724 0.296211
348 2 43.6315 55.3067 0.31163
349 2 47.704 55.4962 0.369231
350 2 51.7756 55.3672 0.243803
351 2 55.6768 55.4494 0.285066
352 2 59.6823 55.3215 0.220743
353 2 63.4576 55.5649 0.189524
354 2 67.3949 55.4625 0.241726
355 2 71.3328 55.3325 0.288273
356 2 75.2681 55.3109 0.264836
357 2 79.1647 55.4538 0.330937
358 2 83.2937 55.5346 0.239499
359 2 87.2077 55.3039 0.228047
360 2 91.2734 55.5678 0.251745
361 2 0.287747 59.356 -0.0248724
362 2 4.25732 59.2316 0.237798
363 2 8.0096 59.14 0.316464
364 2 12.0003 59.394 0.34932
365 2 15.9048 59.2067 0.414116
366 2 19.8341 59.2517 0.49865
367 2 23.7002 59.4703 0.323524
368 2 27.8003 59.3515 0.392207
369 2 31.733 59.5019 0.145117
370 2 35.5225 59.4136 0.202487
371 2 39.7543 59.3163 0.145604
372 2 43.4213 59.183 0.359718
373 2 47.4477 59.3061 0.31047
374 2 51.3729 59.3035 0.343825
375 2 55.4447 59.4122 0.30249
376 2 59.4379 59.2605 0.280878
377 2 63.4931 59.4475 0.115392
378 2 67.5504 59.6085 0.139828
379 2 71.3783 59.4124 0.297662
380 2 75.1659 59.4821 0.144839
381 2 79.1941 59.3485 0.126247
382 2 83.0836 59.3014 0.291386
383 2 87.091 59.5037 0.34831
384 2 91.3471 59.2807 0.244025
385 2 0.0881267 63.2025 0.374624
386 2 4.04551 63.1158 0.298474
387 2 8.24681 63.3376 0.129721
388 2 12.0262 63.317 0.283748
389 2 15.8982 63.1888 0.277147
390 2 19.9498 63.4889 0.363578
391 2 23.9567 63.249 0.330501
392 2 27.9578 63.34 0.413158
393 2 31.7864 63.2933 0.309108
394 2 35.6089 63.2204 0.132995
395 2 39.5784 63.2396 0.368562
396 2 43.7078 63.2723 0.131436
397 2 47.7207 63.1541 0.327506
398 2 51.5728 63.3108 0.287697
399 2 55.3274 63.2156 0.32046
400 2 59.4084 63.2513 0.443982
401 2 63.4746 63.1516 0.169509
402 2 67.5416 63.3638 0.288427
403 2 71.4525 63.3027 0.222488
404 2 75.2833 63.3112 0.259321
405 2 79.0139 63.4086 -0.0239659
406 2 83.3224 63.146 0.217728
407 2 87.3709 63.1657 0.231001
408 2 91.3547 63.1658 0.286007
409 2 0.0196082 66.9283 0.232108
410 2 4.15823 67.2801 0.248885
411 2 8.01929 67.238 0.373939
412 2 11.84 67.2575 0.394532
413 2 15.8158 67.2601 0.220726
414 2 19.794 67.3238 0.400809
415 2 23.6687 67.2165 0.45968
416 2 28.0861 67.2491 0.376744
417 2 31.8882 67.3799 0.202533
418 2 35.6708 67.3415 0.136804
419 2 39.7895 67.3885 0.220765
420 2 43.722 67.0773 0.284063
421 2 47.6482 67.0232 0.247304
422 2 51.5587 67.0044 0.367483
423 2 55.3795 67.2666 0.378774
424 2 59.4204 67.1462 -0.00617182
425 2 63.1645 67.1384 0.243444
426 2 67.307 67.1759 0.380255
427 2 71.3756 66.9885 0.134031
428 2 75.2641 67.2551 0.340501
429 2 79.1416 67.2175 0.322547
430 2 83.1689 67.0917 0.360397
431 2 87.3857 67.1416 0.236399
432 2 91.1559 67.2924 0.157926
433 2 0.261342 71.2659 0.145091
434 2 4.04817 71.1588 0.223963
435 2 8.07369 71.343 0.239187
436 2 11.8464 71.272 0.154638
437 2 15.8356 71.3542 0.331912
438 2 20.0005 71.2788 0.133438
439 2 23.7281 71.2455 0.179765
440 2 27.8664 71.2424 0.353792
441 2 31.8745 71.1762 0.241792
442 2 35.7667 71.3407 0.156131
443 2 39.732 71.2269 0.373919
444 2 43.7117 71.2152 0.364128
445 2 47.5783 70.9754 0.42484
446 2 51.5165 70.9713 0.406558
447 2 55.4623 71.1156 0.375025
448 2 59.3627 71.218 0.356499
449 2 63.4024 71.099 0.253351
450 2 67.3562 71.0904 0.395487
451 2 71.4127 71.0859 0.178887
452 2 75.4594 71.2843 0.242521
453 2 79.2011 71.2168 0.328354
454 2 83.371 71.0041 0.222932
455 2 87.1683 70.9339 0.0459679
456 2 91.0801 71.2983 0.257132
457 2 0.137977 75.2449 0.286526
458 2 4.03744 75.074 0.0335613
459 2 8.05774 75.3146 0.2528
460 2 12.0244 75.3796 0.287619
461 2 15.9348 75.0744 0.254671
462 2 19.7175 75.1921 0.390509
463 2 23.8492 75.0099 0.253096
464 2 27.8455 75.2378 0.0915136
465 2 31.9479 75.2112 0.327265
466 2 35.5894 75.3052 0.0455645
467 2 39.8897 75.0471 0.144201
468 2 43.7722 75.0586 0.222329
469 2 47.6739 75.1814 0.189429
470 2 51.6018 75.0296 0.299859
471 2 55.3521 75.1316 0.459601
472 2 59.584 74.8975 0.303857
473 2 63.7218 75.0121 0.183028
474 2 67.4826 74.9685 0.148483
475 2 71.2438 75.1325 0.314468
476 2 75.2557 75.1196 0.243039
477 2 79.3029 75.2313 0.220906
478 2 83.431 75.033 0.199686
479 2 87.2959 75.1622 0.345235
480 2 91.1663 75.1397 0.434156
481 2 0.24591 79.1529 0.231697
482 2 4.10473 79.2023 0.355567
483 2 8.07977 79.2137 0.262618
484 2 11.9095 79.1745 0.183449
485 2 15.9422 79.2627 0.239426
486 2 19.9043 78.9953 0.369213
487 2 23.8074 79.185 0.38282
488 2 28.0647 79.1508 0.221743
489 2 31.7065 79.1596 0.157952
490 2 35.726 78.8856 0.298316
491 2 39.8205 79.2003 0.347961
492 2 43.5102 79.1398 0.136845
493 2 47.5653 79.2395 0.171185
494 2 51.4445 79.2069 0.221719
495 2 55.6697 78.9434 0.307443
496 2 59.5554 79.0341 0.261293
497 2 63.5029 79.2274 0.376983
498 2 67.5019 79.1544 0.217994
499 2 71.2105 78.8893 0.149255
500 2 75.2249 79.0736 0.28082
501 2 79.4667 79.0946 0.130189
502 2 83.3833 79.0377 0.128223
503 2 87.2396 79.2408 0.272445
504 2 91.1476 79.1908 0.298115
505 2 0.017027 83.1066 0.138787
506 2 4.06801 83.1227 0.299621
507 2 8.16901 83.0534 0.0218529
508 2 11.7842 83.1829 0.269828
509 2 16.1294 83.0623 0.201646
510 2 19.9784 83.2409 0.354638
511 2 23.779 83.1946 0.0202823
512 2 27.7561 83.1123 0.220399
513 2 31.8585 83.1097 0.298404
514 2 35.9275 83.145 0.136425
515 2 39.5324 83.148 0.339938
516 2 43.6228 83.0976 0.23963
517 2 47.4408 82.9567 0.281423
518 2 51.4568 83.1534 0.152563
519 2 55.423 83.1273 0.289532
520 2 59.6423 83.0122 0.225447
521 2 63.5425 83.1107 0.217045
522 2 67.5249 83.0891 0.370156
523 2 71.3496 82.9985 0.377312
524 2 75.3054 83.1048 0.24675
525 2 79.1263 83.1499 0.169279
526 2 83.3798 83.0127 0.0975079
527 2 87.0911 83.288 0.28272
528 2 91.1271 83.1899 0.248635
529 2 0.177764 86.9898 0.218947
530 2 4.11522 87.1847 0.226017
531 2 7.9972 87.0974 0.145047
532 2 12.058 87.0937 0.435786
533 2 15.7846 87.1766 0.282483
534 2 19.9024 87.1048 0.401704
535 2 24.0107 87.0998 0.298172
536 2 27.9181 86.8774 0.175913
537 2 31.8851 86.9051 0.147908
538 2 35.8702 87.1792 0.21865
539 2 39.8146 86.8241 0.228487
540 2 43.654 87.1189 0.119035
541 2 47.5664 86.7018 0.256091
542 2 51.5282 86.8181 0.0235241
543 2 55.474 86.9787 0.424638
544 2 59.4613 86.8338 0.212873
545 2 63.4349 87.1428 0.233145
546 2 67.267 87.049 0.444127
547 2 71.2607 87.1461 0.338042
548 2 75.2481 87.1799 0.156642
549 2 79.259 87.1561 0.345168
550 2 83.0237 87.1384 0.238538
551 2 87.0547 87.1364 0.121187
552 2 91.0002 86.9072 0.338347
553 2 0.116084 90.9376 0.20758
554 2 3.97989 90.9924 0.40085
555 2 8.01848 90.8634 0.276363
556 2 11.8792 91.1541 -0.00619289
557 2 16.0181 90.9634 0.0852622
558 2 19.7929 90.9323 0.350074
559 2 23.7705 91.0388 0.228191
560 2 27.8737 90.8532 0.186183
561 2 31.6516 90.9698 0.415497
562 2 35.6979 90.888 0.381263
563 2 39.8489 90.99 0.261067
564 2 43.6489 90.8094 0.202814
565 2 47.6162 90.8349 0.277452
566 2 51.3172 90.8882 0.178597
567 2 55.4014 90.9337 0.197569
568 2 59.4209 90.9316 0.171863
569 2 63.4355 91.0181 0.385892
570 2 67.3282 90.9405 0.559015
571 2 71.085 90.9317 0.422314
572 2 75.073 90.934 0.420975
573 2 79.0954 91.0156 0.282927
574 2 83.0488 90.8852 0.154501
575 2 87.2503 91.1001 0.0143662
576 2 91.2405 90.962 0.406702
577 2 0.094672 0.171463 4.24396
578 2 4.12949 -0.0567535 4.22642
579 2 8.22286 -0.155198 4.4709
580 2 12.2239 -0.122003 4.21963
581 2 16.0742 0.135339 4.13586
582 2 20.0984 0.160001 4.17111
583 2 23.8611 -0.0764804 4.19867
584 2 27.8472 -0.187303 4.35898
585 2 32.0178 -0.0965342 4.26623
586 2 35.8944 -0.117482 4.20216
587 2 39.7249 -0.117836 4.28469
588 2 43.645 -0.00908976 4.17388
589 2 47.6625 0.00510919 4.20902
590 2 51.5466 -0.12905 4.19013
591 2 55.2892 -0.118732 4.39285
592 2 59.2963 -0.180244 4.20921
593 2 63.2561 -0.0506673 4.33604
594 2 67.2445 -0.0157828 4.28946
595 2 71.3259 -0.038528 3.98061
596 2 75.2902 0.141169 4.04127
597 2 79.2757 -0.17294 4.12622
598 2 83.1303 0.0196232 4.17317
599 2 87.1966 -0.00242088 4.33246
600 2 91.3405 -0.0454125 4.32575
601 2 -0.0260573 3.89897 4.49063
602 2 4.06205 3.90781 4.19858
603 2 8.20138 3.78874 4.10637
604 2 11.7754 4.02152 4.17854
605 2 16.1521 4.03835 4.26131
606 2 20.1778 3.89933 4.11893
607 2 24.0576 3.98038 4.33283
608 2 28.2326 3.90666 4.25336
609 2 31.9354 3.83122 4.17741
610 2 35.8068 3.88917 4.22877
611 2 39.7377 3.90629 4.09968
612 2 43.5951 3.78263 4.35315
613 2 47.6091 3.98994 4.19047
614 2 51.5194 4.04413 4.24078
615 2 55.1871 4.01101 4.17796
616 2 59.3146 3.88094 4.3394
617 2 63.3788 4.09129 4.32989
618 2 67.4598 3.75836 4.19134
619 2 71.3276 4.0858 4.25476
620 2 75.2574 3.91004 4.14315
621 2 79.3614 3.89422 4.40127
622 2 83.1619 4.12268 4.05199
623 2 87.3432 3.91197 4.16366
624 2 91.3471 3.99521 4.1996
625 2 0.121593 8.03387 4.14866
626 2 4.22026 7.71713 4.19478
627 2 8.04072 7.92327 4.24081
628 2 11.8765 7.88054 4.20201
629 2 16.1117 7.78292 4.33216
630 2 19.8786 7.88081 4.4093
631 2 23.8302 7.92884 4.3394
632 2 27.7908 7.87111 4.36112
633 2 31.7844 7.834 4.23148
634 2 35.5895 7.94159 4.31334
635 2 39.6762 8.06085 4.16583
636 2 43.626 8.05865 4.28057
637 2 47.4174 7.9016 4.28633
638 2 51.5292 8.07395 4.11177
639 2 55.5207 8.00011 4.2483
640 2 59.548 8.00035 4.2577
641 2 63.4422 7.88862 4.20021
642 2 67.3474 8.00232 4.06412
643 2 71.3835 7.97 4.23554
644 2 75.366 7.87949 4.26175
645 2 79.1765 7.84726 4.37024
646 2 83.2249 7.89098 4.21109
647 2 87.1725 8.05305 4.15845
648 2 91.1149 7.96276 4.35522
649 2 -0.0276897 12.1074 4.36724
650 2 3.90378 12.1213 4.25176
651 2 7.93293 12.1686 4.19497
652 2 12.1651 11.7074 4.2759
653 2 16.0256 11.9299 4.23147
654 2 19.9648 11.9151 4.34816
655 2 23.8848 11.9754 4.49779
656 2 27.8636 11.8372 4.14503
657 2 31.5632 12.0758 4.27941
658 2 35.7797 11.7757 4.34614
659 2 39.7063 11.8971 4.26273
660 2 43.6699 11.8924 4.36639
661 2 47.4773 11.949 4.27088
662 2 51.2564 11.8649 4.34587
663 2 55.4101 12.0443 4.37702
664 2 59.3448 11.8379 4.32465
665 2 63.5584 11.9843 4.16111
666 2 67.3681 11.9521 4.32156
667 2 71.4536 11.9026 4.07512
668 2 75.3996 11.727 4.20003
669 2 79.3621 11.927 4.28884
670 2 83.1643 11.9098 4.23531
671 2 87.3228 11.972 4.14766
672 2 91.196 12.1467 4.15202
673 2 0.215879 15.7846 4.06693
674 2 4.10832 15.9494 4.26233
675 2 7.98378 15.9017 4.28719
676 2 11.976 15.8198 4.33858
677 2 16.0096 15.7484 4.00629
678 2 19.9249 16.0785 4.18303
679 2 24.0527 15.8778 4.18504
680 2 27.9032 15.8384 4.26121
681 2 31.8895 15.9408 4.25499
682 2 35.5819 15.7816 4.32925
683 2 39.4563 15.8148 4.15832
684 2 43.7457 15.7982 4.30575
685 2 47.5484 15.9351 4.17327
686 2 51.7165 15.8366 4.24302
687 2 55.2588 15.8038 4.18424
688 2 59.5092 15.7807 4.33558
689 2 63.264 16.047 4.23744
690 2 67.4514 15.9683 4.35954
691 2 71.5022 15.8206 4.12799
692 2 75.3304 15.9656 4.13336
693 2 79.3118 15.9395 3.99478
694 2 83.2535 15.8444 4.17824
695 2 87.169 15.8621 4.13104
696 2 91.0398 16.1385 4.12392
697 2 0.271615 19.8291 4.25504
698 2 4.29642 19.8466 4.16586
699 2 8.07136 19.8414 4.02606
700 2 12.105 20.0027 4.21929
701 2 16.0942 19.8101 4.1886
702 2 19.802 19.8495 4.21092
703 2 23.8219 19.7224 4.31949
704 2 27.7794 19.6882 4.4069
705 2 31.5748 19.963 4.23273
706 2 35.6452 19.8383 4.35628
707 2 39.626 19.7832 4.26484
708 2 43.5843 19.6736 4.26896
709 2 47.5679 19.666 4.39131
710 2 51.2642 19.8545 4.26867
711 2 55.436 19.9931 4.23341
712 2 59.5119 19.9568 4.36757
713 2 63.4481 19.9602 4.2984
714 2 67.2908 19.7733 4.10899
715 2 71.4754 19.9152 4.05446
716 2 75.4009 19.96 4.08
717 2 79.2129 19.9581 4.11607
718 2 83.1326 19.9558 4.22077
719 2 87.2806 19.9465 4.2625
720 2 91.3837 19.9822 4.00801
721 2 0.263904 23.8203 4.06775
722 2 4.10408 23.7611 3.95135
723 2 8.20013 23.7701 4.31492
724 2 12.1868 23.8517 4.12585
725 2 16.0094 23.9657 4.13019
726 2 19.9284 23.7966 4.2171
727 2 23.6836 23.5029 4.29741
728 2 27.5031 23.6144 4.37324
729 2 31.4389 23.7232 4.2792
730 2 35.6278 23.5772 4.0772
731 2 39.685 23.8851 4.2032
732 2 43.3546 23.6846 3.97754
733 2 47.3618 23.6189 4.08051
734 2 51.4217 23.9295 4.31149
735 2 55.4386 23.7028 4.24181
736 2 59.3179 23.8373 3.9927
737 2 63.3471 23.8358 4.22449
738 2 67.3534 23.8626 4.09836
739 2 71.4364 23.8305 4.17682
740 2 75.2005 23.7875 4.18775
741 2 79.2861 23.7987 4.08144
742 2 83.3199 23.6679 4.42564
743 2 87.3109 23.7363 4.3117
744 2 91.1834 23.8337 4.21496
745 2 0.345763 27.9981 4.05698
746 2 4.27775 27.7181 4.29342
747 2 8.00559 27.5532 4.323
748 2 11.7304 27.7441 4.04066
749 2 15.9547 27.8254 4.40049
750 2 19.9112 27.8713 4.33921
751 2 23.812 27.8303 4.25012
752 2 27.7204 27.7446 4.18295
753 2 31.6545 27.9088 4.09144
754 2 35.6109 27.7638 4.29634
755 2 39.5117 27.6862 4.1419
756 2 43.581 27.8193 4.24151
757 2 47.3338 27.8284 4.08063
758 2 51.2396 27.7906 4.2909
759 2 55.6088 28.0007 4.18806
760 2 59.4683 27.7302 4.16561
761 2 63.2527 27.6799 4.29293
762 2 67.2678 27.8144 4.13286
763 2 71.1722 27.8419 4.19686
764 2 75.2034 27.8018 4.20534
765 2 79.2466 27.8375 4.41966
766 2 83.3548 27.6567 4.20186
767 2 87.2946 27.8463 4.34143
768 2 91.3383 27.699 4.26802
769 2 0.291651 31.5893 4.34611
770 2 4.06198 31.57 4.25961
771 2 7.84259 31.801 4.21925
772 2 11.998 32.0177 4.15294
773 2 15.9832 31.7452 4.10496
774 2 19.9099 31.7467 4.22062
775 2 23.9216 31.6877 4.32673
776 2 27.9114 31.5762 4.14252
777 2 31.827 31.7349 4.13985
778 2 35.7256 31.8361 4.20866
779 2 39.6912 31.91 4.08483
780 2 43.7845 31.8174 4.32657
781 2 47.6004 31.9098 4.03906
782 2 51.6485 31.726 4.16281
783 2 55.4437 31.5731 4.16434
784 2 59.2547 31.7073 4.07819
785 2 63.238 31.4955 4.13335
786 2 67.3394 31.8785 4.43995
787 2 71.3979 31.6794 4.30651
788 2 75.4466 31.7607 4.3497
789 2 79.1657 31.7581 4.32659
790 2 83.156 31.5392 4.27085
791 2 87.2119 31.8436 4.14777
792 2 90.987 31.5239 4.21747
793 2 -0.0222835 35.6768 4.10128
794 2 4.07779 35.598 4.19955
795 2 7.99624 35.7213 4.30758
796 2 12.0042 35.6553 4.40022
797 2 15.8665 35.7734 4.33922
798 2 19.9823 35.8234 4.35451
799 2 24.0344 35.6006 4.32857
800 2 27.8314 35.6354 4.22248
801 2 31.763 35.7119 4.29911
802 2 35.6762 35.8227 4.1721
803 2 39.7514 35.5542 4.24681
804 2 43.7582 35.7585 4.07889
805 2 47.4167 35.7352 4.25445
806 2 51.4697 35.4939 4.27914
807 2 55.5625 35.7501 4.27049
808 2 59.4074 35.5831 4.13116
809 2 63.5181 35.5026 4.14246
810 2 67.6523 35.7928 4.22247
811 2 71.5144 35.6996 4.302
812 2 75.3386 35.6805 4.21328
813 2 79.1533 35.5968 4.27041
814 2 83.2729 35.4821 4.16523
815 2 87.1688 35.6697 4.33925
816 2 91.2432 35.5937 4.25705
817 2 0.231539 39.7953 4.16245
818 2 3.93081 39.661 4.33228
819 2 7.84464 39.678 4.43485
820 2 11.9007 39.7175 4.22758
821 2 16.029 39.5336 4.29849
822 2 19.8654 39.7282 4.26782
823 2 23.9146 39.7274 4.4347
824 2 28.017 39.5204 4.20183
825 2 31.7469 39.7175 4.34575
826 2 35.6849 39.5959 4.37917
827 2 39.8455 39.5649 4.22999
828 2 43.6634 39.8558 4.14755
829 2 47.4906 39.7003 4.41005
830 2 51.5656 39.6689 4.36703
831 2 55.5909 39.5507 4.19376
832 2 59.5626 39.7107 4.21464
833 2 63.4685 39.5589 4.29906
834 2 67.6529 39.6825 4.23735
835 2 71.3751 39.6948 4.32988
836 2 75.3453 39.6652 4.17687
837 2 79.2229 39.5619 4.40744
838 2 83.1704 39.7404 4.25947
839 2 87.1306 39.4098 4.26307
840 2 91.1371 39.6462 4.43473
841 2 0.0220389 43.7542 4.26671
842 2 3.96658 43.722 4.1216
843 2 8.28603 43.6028 4.18207
844 2 12.0856 43.6892 4.29036
845 2 16.0257 43.518 4.27101
846 2 20.1978 43.5093 4.11233
847 2 23.8291 43.4879 4.18709
848 2 27.9042 43.5725 4.25371
849 2 31.7074 43.5915 4.30579
850 2 35.6746 43.4498 4.42216
851 2 39.8001 43.6505 4.37099
852 2 43.4248 43.7132 4.10626
853 2 47.7451 43.6658 4.36602
854 2 51.7666 43.5578 4.2998
855 2 55.6506 43.7364 4.28465
856 2 59.346 43.684 4.21742
857 2 63.5045 43.5931 4.06761
858 2 67.4483 43.6551 4.19305
859 2 71.2679 43.6756 4.33273
860 2 75.459 43.5333 4.37043
861 2 79.5338 43.5013 4.37896
862 2 83.3346 43.6127 4.43215
863 2 87.3294 43.3959 4.27155
864 2 91.0629 43.4176 4.31883
865 2 -0.0913233 47.7108 4.28021
866 2 4.05739 47.577 4.29237
867 2 7.95916 47.602 4.41094
868 2 12.1021 47.6981 4.19035
869 2 16.1119 47.5252 4.13079
870 2 20.0619 47.5603 4.32773
871 2 24.0042 47.5133 4.19428
872 2 28.0289 47.6741 4.28003
873 2 31.8017 47.6155 4.18134
874 2 35.5844 47.3869 4.35725
875 2 39.533 47.4701 4.05105
876 2 43.8128 47.4881 4.23745
877 2 47.6256 47.5504 4.39423
878 2 51.4718 47.47 4.34987
879 2 55.5163 47.5403 4.35332
880 2 59.3332 47.7908 4.04953
881 2 63.3794 47.4645 4.2771
882 2 67.3389 47.6957 4.20578
883 2 71.3653 47.474 4.12116
884 2 75.4876 47.5105 4.17205
885 2 79.2272 47.4265 4.40223
886 2 83.4823 47.5826 4.16874
887 2 87.332 47.2626 4.26159
888 2 91.2249 47.487 4.11628
889 2 0.135728 51.546 4.09191
890 2 4.02728 51.5231 4.37383
891 2 8.00272 51.4377 4.00549
892 2 11.8301 51.6062 4.32095
893 2 16.0568 51.45 4.3744
894 2 19.945 51.5186 4.3422
895 2 23.7211 51.3708 4.16893
896 2 27.8113 51.4288 4.36446
897 2 31.597 51.4399 4.16705
898 2 35.4169 51.4851 4.33396
899 2 39.6045 51.4771 4.30106
900 2 43.6086 51.2271 4.3487
901 2 47.6803 51.4654 4.38005
902 2 51.5429 51.5606 4.28453
903 2 55.4821 51.4699 4.21077
904 2 59.4655 51.403 4.33616
905 2 63.3942 51.5079 4.25922
906 2 67.5713 51.5754 4.4004
907 2 71.3104 51.4978 4.1271
908 2 75.2714 51.5038 4.29403
909 2 79.4255 51.4362 4.06003
910 2 83.3497 51.4267 4.03237
911 2 87.2955 51.4175 4.32544
912 2 90.8572 51.3835 4.22475
913 2 0.0863963 55.4306 4.42719
914 2 3.9409 55.4302 4.52034
915 2 7.93499 55.2332 4.37294
916 2 11.8619 55.6767 4.35214
917 2 15.9337 55.26 4.44778
918 2 20.0622 55.5138 4.41048
919 2 23.9357 55.315 4.22965
920 2 27.9485 55.357 4.22813
921 2 31.8007 55.4876 4.42007
922 2 35.7233 55.609 4.21307
923 2 39.6098 55.3894 4.30669
924 2 43.6456 55.3886 4.38733
925 2 47.6837 55.1993 4.29799
926 2 51.5873 55.301 4.3027
927 2 55.6196 55.4978 4.33377
928 2 59.5024 55.5593 4.24549
929 2 63.4392 55.5448 4.12979
930 2 67.2964 55.3941 4.25057
931 2 71.5056 55.4893 4.19267
932 2 75.4392 55.5668 4.34361
933 2 79.2337 55.2266 4.08836
934 2 83.2373 55.4442 4.27771
935 2 87.4279 55.4803 4.35756
936 2 91.1192 55.5279 4.28782
937 2 0.135933 59.2977 4.22428
938 2 3.88817 59.4026 4.24213
939 2 7.88207 59.3623 4.316
940 2 11.9629 59.4489 4.50428
941 2 15.9808 59.2983 4.41021
942 2 19.9643 59.4925 4.35471
943 2 23.816 59.2342 4.49433
944 2 27.8042 59.314 4.21573
945 2 31.7476 59.4729 4.0109
946 2 35.7266 59.3892 4.19294
947 2 39.6589 59.4926 4.12926
948 2 43.5704 59.1582 4.20644
949 2 47.6105 59.3282 4.42502
950 2 51.6098 59.372 4.5833
951 2 55.3444 59.0661 4.21055
952 2 59.4026 59.4653 4.23227
953 2 63.5488 59.43 4.22534
954 2 67.4713 59.2611 4.1855
955 2 71.543 59.3829 4.22951
956 2 75.2755 59.3165 4.36984
957 2 79.184 59.4017 4.27823
958 2 83.0744 59.4151 4.33792
959 2 87.1474 59.4217 4.25691
960 2 91.3629 59.4669 4.38509
961 2 0.110639 63.3839 4.25258
962 2 4.0117 63.2877 4.26511
963 2 7.86461 63.4912 4.03951
964 2 11.8888 63.2432 4.34584
965 2 15.8991 63.394 4.33218
966 2 19.9015 63.5588 4.34316
967 2 23.8702 63.1376 4.36522
968 2 27.865 63.3451 4.26055
969 2 31.6177 63.4246 4.23286
970 2 35.6799 63.4102 4.32823
971 2 39.6673 63.3026 4.24565
972 2 43.5328 63.155 4.2179
973 2 47.552 63.4122 4.30429
974 2 51.4919 63.2241 4.32799
975 2 55.582 63.196 4.35962
976 2 59.3562 63.4015 4.3567