ITEM: TIMESTEP
71400
ITEM: NUMBER OF ATOMS
43200
ITEM: BOX BOUNDS xy xz yz pp pp pp
0.0000000000000000e+00 9.4992000000000004e+01 0.0000000000000000e+00
0.0000000000000000e+00 9.4992000000000004e+01 0.0000000000000000e+00
-5.7771654065881251e-03 5.9705777165408037e+01 0.0000000000000000e+00
ITEM: ATOMS id type x y z
1 2 0.173282 0.0262105 0.0928068
2 2 4.03427 -0.158829 0.231872
3 2 7.89741 0.0743671 0.152479
4 2 12.0615 -0.0929312 0.245427
5 2 15.8792 -0.158024 0.0446906
6 2 20.0207 -0.188006 0.414884
7 2 23.8287 -0.00183467 0.363373
8 2 27.9241 -0.158309 0.295579
9 2 31.8748 -0.0466226 0.205012
10 2 35.7079 0.153817 0.174258
11 2 39.7228 -0.137198 0.423655
12 2 43.6263 -0.0526705 0.37963
13 2 47.4842 0.0715112 0.355766
14 2 51.5465 0.0206955 0.250373
15 2 55.5563 0.063919 0.298926
16 2 59.6086 0.176425 0.235393
17 2 63.5255 -0.178284 0.320905
18 2 67.2888 0.0291472 0.163185
19 2 71.1904 -0.112838 0.232991
20 2 75.1627 -0.138941 0.215109
21 2 79.1725 0.028603 0.204862
22 2 83.3402 -0.0222894 0.266858
23 2 87.2525 0.0106516 0.355284
24 2 91.2202 0.0864281 0.239721
25 2 0.0488277 3.89168 0.155014
26 2 4.10574 3.96936 0.110251
27 2 8.10193 3.87243 0.119205
28 2 12.0385 3.72582 0.0905833
29 2 15.9031 3.79012 0.29634
30 2 19.8406 3.96201 0.304781
31 2 24.0579 4.11725 0.32421
32 2 27.8936 3.78279 0.190909
33 2 31.8464 3.95673 0.17605
34 2 35.6965 3.93186 0.233771
35 2 39.6612 3.84865 0.363215
36 2 43.6823 3.94355 0.233682
37 2 47.659 3.93336 0.359925
38 2 51.7489 3.92842 0.265482
39 2 55.627 3.8948 0.293964
40 2 59.2671 3.77105 0.234575
41 2 63.6575 3.95811 0.164942
42 2 67.4602 3.98348 0.0793985
43 2 71.4869 3.98052 0.247449
44 2 75.3665 3.82999 0.321407
45 2 79.2609 3.90581 0.197908
46 2 83.2222 3.91994 0.0707938
47 2 87.0647 4.04557 0.181425
48 2 91.113 3.94733 0.152455
49 2 0.0626693 7.91443 0.471688
50 2 4.10006 7.82251 0.416771
51 2 8.13086 7.96554 0.137917
52 2 11.9761 7.96401 0.368614
53 2 16.0542 7.90746 0.308817
54 2 20.0234 7.76124 0.230565
55 2 23.9505 7.99246 0.251189
56 2 27.8463 7.87283 0.184464
57 2 31.8215 7.99051 0.309244
58 2 35.837 8.06633 0.303915
59 2 39.701 7.70892 0.263822
60 2 43.575 7.94016 0.241796
61 2 47.6026 7.71258 0.302166
62 2 51.4336 7.82543 0.327416
63 2 55.4397 8.05622 0.197271
64 2 59.2878 7.7727 0.390172
65 2 63.4904 7.809 0.460487
66 2 67.4613 7.93671 0.241821
67 2 71.4521 7.98826 0.223753
68 2 75.1539 7.78858 0.191705
69 2 79.2384 7.9042 0.292048
70 2 83.1002 7.8034 0.492212
71 2 87.0798 7.80761 0.414792
72 2 90.8862 7.95927 0.230268
73 2 -0.094575 11.9948 0.420194
74 2 4.12568 11.8696 0.212172
75 2 8.06289 11.8401 0.162795
76 2 11.8631 11.8182 0.222162
77 2 15.916 11.8014 0.219921
78 2 20.2065 11.9755 0.346188
79 2 23.7829 11.8698 0.220363
80 2 28.0502 11.7772 0.21031
81 2 31.9192 11.9533 0.323426
82 2 35.809 11.9863 0.329806
83 2 39.8423 11.9971 0.249963
84 2 43.711 11.735 0.28837
85 2 47.55 11.7103 0.271139
86 2 51.4812 11.8313 0.389944
87 2 55.5442 11.8053 0.402065
88 2 59.4578 11.7093 0.0333014
89 2 63.5051 11.6487 0.319954
90 2 67.4059 11.9307 0.39977
91 2 71.5868 11.8469 0.192452
92 2 75.0501 11.7829 0.0678473
93 2 79.1134 11.8149 0.278946
94 2 83.1115 11.6514 0.514793
95 2 87.1067 11.9595 0.376519
96 2 91.1155 12.0584 0.350719
97 2 0.0300728 16.0258 0.318442
98 2 4.09732 15.7687 0.321414
99 2 8.07604 16.0175 0.29118
100 2 12.114 16.0388 0.102884
101 2 16.0712 15.9361 -0.039807
102 2 20.1496 15.8322 0.202009
103 2 24.1125 15.8422 0.168508
104 2 27.9729 15.8092 -0.0121805
105 2 31.9564 15.8073 0.427564
106 2 35.8564 15.9434 0.147786
107 2 39.8695 15.8449 0.365557
108 2 43.7628 15.8447 0.344304
109 2 47.5835 15.8989 0.294642
110 2 51.6716 15.951 0.314515
111 2 55.669 15.7737 0.307763
112 2 59.5 15.7742 0.320074
113 2 63.444 15.5831 0.228749
114 2 67.3656 15.7721 0.447034
115 2 71.3191 15.8255 0.334825
116 2 75.3422 15.8981 0.369548
117 2 79.1949 15.6647 0.435262
118 2 83.1201 15.7169 0.42546
119 2 87.2886 15.8868 0.208428
120 2 91.0327 15.9918 0.242393
121 2 0.0148719 19.7444 0.539875
122 2 3.83954 19.9134 0.253889
123 2 8.00981 19.7816 -0.0175459
124 2 12.0104 19.6486 0.0514703
125 2 16.2018 19.9047 0.210617
126 2 20.0224 19.8522 0.140413
127 2 23.9387 19.7073 0.335819
128 2 27.9125 19.7516 0.0074468
129 2 31.9555 19.899 0.132137
130 2 35.8503 19.8194 0.0847766
131 2 39.9183 19.8366 0.10556
132 2 43.964 19.741 0.0833505
133 2 47.7136 19.6274 0.275602
134 2 51.589 19.937 0.389668
135 2 55.5991 19.7921 0.172557
136 2 59.4309 19.6897 0.12384
137 2 63.263 19.6339 0.148772
138 2 67.4063 19.8022 0.290484
139 2 71.3741 19.899 0.178982
140 2 75.0439 19.7428 0.341032
141 2 79.3926 19.6973 0.193779
142 2 83.3834 19.7575 0.172526
143 2 87.0443 19.7784 0.231203
144 2 91.2038 19.7673 0.220939
145 2 0.0565225 23.691 0.283031
146 2 3.99607 23.9304 0.306952
147 2 8.07257 23.562 0.196482
148 2 11.9782 23.4709 0.270681
149 2 16.042 23.7467 0.18781
150 2 19.8217 23.9118 0.436452
151 2 23.8954 23.6839 0.216175
152 2 27.9424 23.7478 0.261253
153 2 31.7451 23.5997 0.251342
154 2 35.6348 23.6092 0.149281
155 2 39.8077 23.8306 0.230116
156 2 43.6757 23.9039 0.107386
157 2 47.5071 23.8533 0.154733
158 2 51.754 23.8057 0.277711
159 2 55.5457 23.8882 0.303464
160 2 59.3775 23.6167 0.288398
161 2 63.1452 23.6433 0.197141
162 2 67.1694 23.572 0.394357
163 2 71.3825 23.6493 0.42875
164 2 75.2365 23.656 0.152646
165 2 79.1693 23.5922 0.317922
166 2 83.1036 23.7843 0.172638
167 2 87.0898 23.7135 0.318138
168 2 91.0613 23.5942 0.0527399
169 2 0.0829297 27.6863 0.3695
170 2 4.06881 27.7414 0.26826
171 2 8.09224 27.7087 0.452298
172 2 12.1168 27.5753 0.0387598
173 2 15.9213 27.936 0.20984
174 2 19.9922 27.7247 0.246298
175 2 23.8289 27.9004 0.164739
176 2 27.6823 27.7395 0.38332
177 2 31.8462 27.5672 0.0287932
178 2 36.009 27.7451 0.115039
179 2 39.7124 27.7029 0.384359
180 2 43.6165 27.9005 0.242899
181 2 47.7276 27.6053 0.333652
182 2 51.5606 27.6599 0.315339
183 2 55.4609 27.8734 0.342449
184 2 59.4649 27.6917 0.273382
185 2 63.4417 27.6383 0.175436
186 2 67.3542 27.6274 0.311203
187 2 71.2953 27.5503 0.112482
188 2 75.3436 27.4154 0.381658
189 2 79.4044 27.6838 0.471122
190 2 83.1433 27.5238 0.226285
191 2 87.1123 27.5634 0.282093
192 2 90.9918 27.6058 0.224068
193 2 0.20163 31.7431 0.112464
194 2 4.12153 31.758 0.245611
195 2 8.09005 31.4764 0.106438
196 2 12.0146 31.5361 0.498638
197 2 16.0579 31.6978 0.135237
198 2 19.9108 31.5713 0.20452
199 2 24.1739 31.7623 0.230622
200 2 28.0149 31.7001 0.126322
201 2 31.7042 31.5612 0.338665
202 2 35.6329 31.7788 0.218564
203 2 39.6969 31.5935 0.118339
204 2 43.4951 31.7356 0.286639
205 2 47.5183 31.6676 0.378901
206 2 51.7039 31.4605 0.201338
207 2 55.5089 31.4595 0.424194
208 2 59.3764 31.7493 0.280512
209 2 63.3301 31.4557 0.308206
210 2 67.1998 31.4386 0.454659
211 2 71.1748 31.6994 0.528581
212 2 75.0467 31.59 0.326958
213 2 79.0616 31.7977 0.314882
214 2 83.3664 31.6662 0.194112
215 2 87.241 31.5349 0.307398
216 2 91.0636 31.6483 0.238489
217 2 0.00270605 35.5085 0.368531
218 2 4.02204 35.6916 0.299368
219 2 8.15147 35.5878 0.255067
220 2 12.13 35.5718 0.252738
221 2 16.0796 35.733 -0.0352851
222 2 19.8304 35.5876 0.409578
223 2 23.8454 35.5977 -0.0689872
224 2 27.8829 35.7548 0.14681
225 2 31.8327 35.6815 0.154528
226 2 35.7924 35.6125 0.273528
227 2 39.667 35.6498 0.0827386
228 2 43.6349 35.5459 0.334037
229 2 47.6223 35.559 0.219872
230 2 51.391 35.5471 0.260579
231 2 55.33 35.4979 0.340782
232 2 59.3267 35.6744 0.434484
233 2 63.2611 35.6384 0.47864
234 2 67.3675 35.4696 0.440195
235 2 71.288 35.6242 0.499118
236 2 75.2165 35.654 0.448993
237 2 79.0224 35.4372 0.36755
238 2 83.2588 35.6013 0.192466
239 2 87.424 35.5722 0.0762261
240 2 91.1392 35.7191 0.371719
241 2 0.0410903 39.4705 0.18162
242 2 4.08664 39.5394 0.290376
243 2 8.19108 39.4622 0.19432
244 2 11.8501 39.4689 0.316474
245 2 15.7583 39.5368 0.16588
246 2 19.7975 39.3583 0.482526
247 2 23.9483 39.6482 0.210272
248 2 27.8628 39.5849 -0.0350935
249 2 31.7695 39.612 0.279634
250 2 35.7891 39.4667 0.20922
251 2 39.9317 39.7936 0.212519
252 2 43.6283 39.5611 0.204195
253 2 47.756 39.5082 0.27884
254 2 51.4002 39.3642 0.138854
255 2 55.4552 39.521 0.323543
256 2 59.2816 39.7587 0.330671
257 2 63.3903 39.6624 0.472189
258 2 67.2914 39.5674 0.402196
259 2 71.4174 39.718 0.312983
260 2 75.2674 39.4484 0.149982
261 2 79.1419 39.5828 0.319366
262 2 83.2511 39.4325 0.207165
263 2 87.032 39.4889 0.231131
264 2 91.1876 39.7266 0.320278
265 2 0.122257 43.4019 0.237453
266 2 4.17856 43.4731 0.220828
267 2 7.96753 43.548 0.00747061
268 2 11.8318 43.3002 0.323131
269 2 15.8976 43.4686 0.234005
270 2 19.7225 43.4312 0.41696
271 2 23.6435 43.5779 0.163018
272 2 27.8096 43.5882 -0.0678836
273 2 31.8098 43.5091 0.393309
274 2 36.0307 43.3369 0.0148284
275 2 39.8437 43.6991 0.320796
276 2 43.6923 43.7795 0.375325
277 2 47.4875 43.3728 0.164523
278 2 51.4806 43.5076 0.2244
279 2 55.4308 43.5503 0.252266
280 2 59.4317 43.4891 0.383682
281 2 63.361 43.5707 0.250333
282 2 67.2571 43.4721 0.345685
283 2 71.3433 43.416 0.386089
284 2 75.2744 43.4902 0.469171
285 2 79.1467 43.4825 0.3177
286 2 83.0065 43.3839 0.0886602
287 2 87.1956 43.3636 0.465979
288 2 91.2035 43.2396 0.345284
289 2 0.121362 47.5705 0.120331
290 2 4.09955 47.4483 0.265798
291 2 8.13506 47.3248 0.296555
292 2 11.9209 47.2104 0.325804
293 2 15.8638 47.3074 0.24204
294 2 19.7782 47.435 0.323637
295 2 23.8532 47.502 0.387465
296 2 27.8886 47.4988 0.300057
297 2 31.8119 47.4702 0.214974
298 2 35.7762 47.488 0.181406
299 2 39.8784 47.4767 0.170091
300 2 43.7459 47.4472 0.082762
301 2 47.6214 47.511 0.239401
302 2 51.6505 47.5436 0.264884
303 2 55.5077 47.4509 0.307384
304 2 59.5866 47.3469 0.195318
305 2 63.5607 47.6317 0.263786
306 2 67.442 47.2665 0.403635
307 2 71.2823 47.4779 0.391986
308 2 75.1606 47.3553 0.339244
309 2 79.1108 47.5776 0.202229
310 2 82.9653 47.4292 0.369092
311 2 86.9447 47.2811 0.524951
312 2 91.2165 47.2581 0.316796
313 2 0.173851 51.5603 0.211792
314 2 4.25544 51.6866 0.353327
315 2 8.12481 51.4164 0.0967627
316 2 11.8721 51.2486 0.220061
317 2 15.9007 51.5299 0.181255
318 2 19.745 51.4456 0.201897
319 2 23.6589 51.4646 0.193424
320 2 27.8886 51.5341 0.155859
321 2 31.796 51.3775 0.248688
322 2 35.7822 51.2999 0.33771
323 2 39.7383 51.3357 0.229222
324 2 43.7731 51.3247 0.273967
325 2 47.5434 51.3933 0.348582
326 2 51.4902 51.4793 0.309623
327 2 55.4642 51.4222 0.207003
328 2 59.4775 51.4358 0.365895
329 2 63.3349 51.5278 0.17259
330 2 67.2193 51.5118 0.297306
331 2 71.2487 51.3905 0.413204
332 2 75.3193 51.5363 0.404531
333 2 79.2837 51.5777 0.46166
334 2 83.2287 51.5377 0.272759
335 2 87.1336 51.3306 0.256861
336 2 91.144 51.2535 0.142973
337 2 0.0920167 55.3489 0.33778
338 2 4.12089 55.5512 0.161599
339 2 8.21373 55.5375 0.221013
340 2 12.0391 55.5322 0.421958
341 2 15.9871 55.5487 0.154594
342 2 19.7402 55.3165 0.301179
343 2 23.671 55.1582 0.377773
344 2 27.6676 55.4811 0.0201013
345 2 31.5761 55.2491 0.219553
346 2 35.7308 55.4669 0.326677
347 2 39.7372 55.4149 0.334834
348 2 43.8147 55.5253 0.202934
349 2 47.6308 55.4105 0.294475
350 2 51.5272 55.3426 0.349707
351 2 55.3162 55.3157 0.435778
352 2 59.0802 55.3716 0.126404
353 2 63.3138 55.3649 0.189208
354 2 67.3856 55.49 0.198571
355 2 71.2132 55.4719 0.388418
356 2 75.1707 55.4904 0.485966
357 2 79.3526 55.4268 0.110567
358 2 83.2271 55.3816 0.509519
359 2 87.0982 55.3887 0.24965
360 2 91.2284 55.1552 0.304615
361 2 -0.0412505 59.5249 0.403018
362 2 4.06366 59.4512 0.0215853
363 2 8.16724 59.6575 0.118497
364 2 12.148 59.3987 0.0323966
365 2 16.1851 59.4166 0.12553
366 2 20.0906 59.2377 0.316027
367 2 23.9873 59.3874 0.170476
368 2 27.7554 59.4597 0.170884
369 2 31.7912 59.2787 0.372925
370 2 35.7291 59.325 0.331065
371 2 39.8129 59.4191 0.171411
372 2 43.7074 59.3039 0.0227859
373 2 47.7221 59.3388 0.0986324
374 2 51.5809 59.3889 0.0840025
375 2 55.4536 59.4105 0.233061
376 2 59.4148 59.1621 0.392958
377 2 63.3708 59.3399 0.317331
378 2 67.3303 59.3925 0.502831
379 2 71.3182 59.6101 0.268393
380 2 75.3185 59.4047 0.260883
381 2 79.2312 59.2161 0.281206
382 2 83.2799 59.3342 0.143379
383 2 87.0126 59.3301 0.200793
384 2 91.0367 59.2984 0.145725
385 2 -0.0287116 63.3005 0.277064
386 2 4.15646 63.5723 0.246035
387 2 8.17528 63.3307 0.270051
388 2 12.0654 63.3438 0.0842903
389 2 15.9281 63.4256 0.182631
390 2 20.1175 63.1955 0.278625
391 2 23.8897 63.4071 0.188982
392 2 27.777 63.357 0.206947
393 2 31.7653 63.3829 0.0760209
394 2 35.7424 63.2917 0.440151
395 2 39.7433 63.1335 0.293134
396 2 43.554 63.308 0.296281
397 2 47.8047 63.3478 0.066929
398 2 51.5684 63.5643 0.241857
399 2 55.5561 63.39 0.385438
400 2 59.4715 63.2521 0.426931
401 2 63.6333 63.4534 0.210252
402 2 67.3531 63.3482 0.321547
403 2 71.4056 63.4828 0.379851
404 2 75.2265 63.4668 0.368817
405 2 79.2387 63.1692 0.322468
406 2 83.064 63.414 0.286819
407 2 87.0143 63.4197 0.330648
408 2 91.2334 63.3377 0.110354
409 2 0.238488 67.266 0.264488
410 2 4.09225 67.5226 0.318867
411 2 8.07379 67.4329 0.00428203
412 2 12.0471 67.154 0.115641
413 2 16.1038 67.176 0.168945
414 2 19.7941 67.378 0.167216
415 2 23.8799 67.4009 0.211711
416 2 27.8643 67.153 0.271947
417 2 31.7461 67.3013 0.250857
418 2 35.753 67.359 0.105285
419 2 39.6218 67.4514 0.223148
420 2 43.8237 67.3876 0.170889
421 2 47.6436 67.1489 0.254799
422 2 51.5672 67.2899 0.231039
423 2 55.3611 67.3862 0.360057
424 2 59.5944 67.436 0.307128
425 2 63.5072 67.1761 0.450439
426 2 67.4513 67.2461 0.404213
427 2 71.1669 67.3603 0.175156
428 2 75.2601 67.1465 0.434675
429 2 79.2568 67.2611 0.457993
430 2 83.1601 67.2818 0.527742
431 2 87.1171 67.2099 0.2412
432 2 91.1336 67.3777 0.337299
433 2 -0.0198193 71.3031 0.234504
434 2 4.04503 71.2367 0.153629
435 2 8.02753 71.2019 0.110758
436 2 12.0622 71.1678 0.0972725
437 2 16.0607 71.3427 0.259347
438 2 19.7909 71.1704 0.197526
439 2 23.6833 71.1058 0.146615
440 2 27.9266 71.3447 0.0212239
441 2 31.7866 71.1563 0.432771
442 2 35.8111 71.0428 0.388478
443 2 39.7075 71.2432 0.174203
444 2 43.9769 71.3886 0.212064
445 2 47.8257 71.2274 0.114896
446 2 51.5253 71.2417 0.174937
447 2 55.4024 71.2501 0.108213
448 2 59.6461 71.3327 0.207619
449 2 63.3982 71.2419 0.0983367
450 2 67.2984 71.0187 0.347948
451 2 71.3162 71.2986 0.324674
452 2 75.2229 71.0835 0.338801
453 2 79.2727 71.1461 0.350179
454 2 83.198 71.2182 0.219383
455 2 87.2626 71.3272 0.132404
456 2 91.2258 71.3628 0.0707199
457 2 0.129074 75.3531 0.191439
458 2 4.19709 75.0952 0.309258
459 2 8.16468 75.0998 0.0301275
460 2 11.9805 75.3036 0.0973384
461 2 16.0538 75.3688 0.187864
462 2 20.127 75.2985 0.103309
463 2 23.8903 75.1705 0.151182
464 2 27.8317 75.1513 0.247333
465 2 31.6978 75.2657 0.308058
466 2 35.7533 75.0648 0.351476
467 2 39.656 75.223 0.255249
468 2 43.657 75.2866 0.373316
469 2 47.7172 75.0924 0.124728
470 2 51.515 75.2469 0.33269
471 2 55.5398 75.0849 0.102969
472 2 59.3549 75.1326 0.395182
473 2 63.5918 75.2537 0.306105
474 2 67.2104 75.0404 0.303002
475 2 71.1915 75.233 0.319602
476 2 75.3903 75.286 0.295624
477 2 79.1896 75.1653 0.36419
478 2 82.969 74.9906 0.230932
479 2 86.975 75.4229 0.29461
480 2 91.0294 75.305 0.264141
481 2 0.142494 79.2667 0.375805
482 2 4.26309 79.0204 0.103798
483 2 8.17269 79.1279 0.0909895
484 2 11.986 79.139 -0.0354186
485 2 16.083 79.14 0.0844111
486 2 20.2735 79.2431 0.171658
487 2 23.9532 79.265 0.374544
488 2 28.0173 79.2054 0.207632
489 2 31.9455 79.1217 0.316995
490 2 35.7538 79.1302 0.179383
491 2 39.8074 79.3834 0.170987
492 2 43.635 78.8676 0.236194
493 2 47.5297 79.1163 0.240466
494 2 51.4125 79.2151 0.25799
495 2 55.5355 79.0322 0.197179
496 2 59.4258 79.0345 0.264563
497 2 63.3359 79.1912 0.262615
498 2 67.4659 78.8487 0.177918
499 2 71.4275 79.1947 0.0379699
500 2 75.3698 79.0858 0.297962
501 2 79.3154 79.0437 0.0600533
502 2 83.2568 79.0383 0.231778
503 2 87.024 79.1463 0.367363
504 2 91.2648 79.0977 0.351589
505 2 0.2559 82.9391 0.245044
506 2 4.243 83.0105 0.187853
507 2 8.19155 83.1088 0.19721
508 2 12.2549 82.8968 -0.0622955
509 2 15.8417 83.122 0.088284
510 2 19.8334 83.1435 0.0799568
511 2 24.0313 83.0613 0.146563
512 2 27.8554 83.0941 0.0294066
513 2 31.7086 82.9702 0.40434
514 2 35.8049 83.047 0.189704
515 2 39.7661 83.2186 0.218853
516 2 43.7356 82.919 0.346047
517 2 47.5374 82.9118 0.359798
518 2 51.5113 82.9486 0.255339
519 2 55.5349 83.1806 0.261015
520 2 59.5372 83.1167 0.129506
521 2 63.3756 83.1477 0.371986
522 2 67.2385 82.9221 0.379455
523 2 71.3467 83.1368 0.295547
524 2 75.3298 82.9162 0.222947
525 2 79.1748 83.0194 0.376209
526 2 83.0451 83.1391 0.223446
527 2 86.9582 82.8705 0.225929
528 2 91.1171 82.9322 -0.015883
529 2 0.205373 86.9329 0.297637
530 2 4.27182 87.1517 0.136408
531 2 8.04681 86.9975 0.382621
532 2 12.0819 86.8044 0.274145
533 2 15.9375 87.0721 0.402708
534 2 19.6339 87.1113 0.158557
535 2 23.9896 87.0692 0.377311
536 2 27.8075 86.9865 0.321056
537 2 31.8534 87.0763 0.29992
538 2 35.6364 86.8891 0.0728925
539 2 39.7178 86.9857 0.300254
540 2 43.7895 87.2109 0.241927
541 2 47.6415 87.0913 0.24035
542 2 51.4966 86.9282 0.243652
543 2 55.5859 87.0309 0.308183
544 2 59.4701 87.1102 0.301107
545 2 63.3458 87.0051 0.384242
546 2 67.4362 86.9737 0.360031
547 2 71.3037 87.0013 0.394859
548 2 75.2431 86.829 0.211256
549 2 79.2339 86.9903 0.348229
550 2 83.1632 87.0604 0.428033
551 2 86.9806 87.0585 0.0930062
552 2 91.2722 87.1118 0.12624
553 2 0.322686 91.2437 -0.0229587
554 2 3.91947 90.8766 0.467592
555 2 8.14041 90.9696 0.486488
556 2 11.7959 90.8863 0.247658
557 2 15.7103 90.9314 0.302986
558 2 19.8993 90.7929 0.0727176
559 2 23.7409 90.8044 -0.0431091
560 2 27.8459 90.8527 0.305578
561 2 31.9371 90.9581 0.199367
562 2 35.7615 90.9083 0.345352
563 2 39.6624 90.9661 0.4463
564 2 43.6122 91.1478 0.175993
565 2 47.5511 91.0542 0.274114
566 2 51.6119 90.7996 0.176638
567 2 55.5061 91.0545 0.414132
568 2 59.3478 91.2151 0.159169
569 2 63.4252 91.0415 0.268055
570 2 67.4884 90.831 0.26584
571 2 71.2453 91.014 0.384559
572 2 75.1951 90.8766 0.250495
573 2 79.2988 90.9811 0.368825
574 2 83.1763 90.7379 0.45753
575 2 87.2156 90.9642 0.374118
576 2 91.0535 91.096 0.20574
577 2 0.296786 0.0900244 3.98233
578 2 4.06058 -0.0298686 4.21056
579 2 7.88394 0.148594 4.30187
580 2 12.2108 0.0585436 4.21823
581 2 16.0436 0.178921 4.10788
582 2 19.8329 0.0585261 3.95406
583 2 23.9796 0.00642405 4.25791
584 2 27.8412 0.0563733 4.0535
585 2 31.7265 0.0281789 4.16451
586 2 35.6627 -0.0567221 4.20242
587 2 39.635 -0.0229272 4.50333
588 2 43.595 -0.0312327 4.32361
589 2 47.5886 0.124319 4.20351
590 2 51.5123 -0.151688 4.35176
591 2 55.4855 0.123458 4.27099
592 2 59.6274 0.0568291 4.16407
593 2 63.4731 0.0750341 4.1791
594 2 67.234 0.0983474 4.26784
595 2 71.1685 -0.0914436 4.22358
596 2 75.0985 0.0597198 4.22875
597 2 79.1617 0.195942 4.00435
598 2 83.1943 -0.103382 4.31488
599 2 87.3343 0.0353825 4.10505
600 2 91.2462 0.250667 4.10606
601 2 -0.0446906 4.08383 4.04757
602 2 4.17682 4.00676 4.06592
603 2 8.0628 4.08548 3.8266
604 2 12.1444 4.01212 4.17075
605 2 15.9644 4.14478 4.21665
606 2 19.9304 3.92172 4.31463
607 2 23.7228 3.93157 4.35079
608 2 27.8051 4.14716 4.25249
609 2 31.6915 4.02026 4.31125
610 2 35.8089 4.00073 4.18658
611 2 39.6864 3.90894 4.1072
612 2 43.8086 3.98432 4.2694
613 2 47.6328 3.8258 4.27342
614 2 51.5936 4.10723 4.17412
615 2 55.4481 4.04394 4.21554
616 2 59.5402 4.05844 4.11843
617 2 63.4427 4.00389 4.26644
618 2 67.4287 4.09878 4.21559
619 2 71.4532 3.82306 4.18193
620 2 75.4206 3.81739 4.38986
621 2 79.5083 3.74924 4.19073
622 2 83.3503 3.81884 4.25446
623 2 87.1266 3.82598 4.35892
624 2 91.1802 3.89964 4.24099
625 2 0.0876819 7.80124 4.21086
626 2 4.10874 7.93565 4.32314
627 2 8.2581 7.92778 4.20802
628 2 12.1008 7.94321 4.03953
629 2 15.8556 7.90858 3.95402
630 2 20.0015 7.88538 4.31685
631 2 23.863 8.05306 4.16779
632 2 27.6443 7.92835 4.2185
633 2 31.6369 7.55151 4.23777
634 2 35.797 7.92561 4.21222
635 2 39.6157 7.83097 4.2856
636 2 43.6217 7.79391 4.37203
637 2 47.4386 7.72223 4.25604
638 2 51.3152 7.86751 4.40846
639 2 55.5439 8.09052 4.22858
640 2 59.5025 7.9801 4.37663
641 2 63.3233 8.00823 4.12512
642 2 67.3221 7.9954 4.2193
643 2 71.2494 7.87535 4.24304
644 2 75.3837 7.91899 4.18293
645 2 79.1804 7.77644 4.33176
646 2 83.2445 8.04856 4.45306
647 2 87.2319 7.91474 4.2192
648 2 91.2575 8.00638 4.31904
649 2 0.0452879 11.7593 4.08605
650 2 4.17533 11.7258 4.15286
651 2 8.29293 11.8826 4.10881
652 2 12.0343 11.7905 4.12566
653 2 16.0236 11.9014 4.20326
654 2 19.7712 11.9521 4.19344
655 2 23.9718 11.9586 4.30374
656 2 27.7697 11.9047 4.21961
657 2 31.6407 11.735 4.1817
658 2 35.7389 11.927 4.28526
659 2 39.6983 11.7454 4.30993
660 2 43.6554 11.8768 4.35841
661 2 47.6665 11.9527 4.25935
662 2 51.5141 11.9403 4.2225
663 2 55.4554 11.9325 4.28633
664 2 59.3455 11.9638 4.21888
665 2 63.3275 11.7845 4.30395
666 2 67.4329 12.0082 4.16701
667 2 71.1898 11.7417 4.16224
668 2 75.1011 11.572 4.35962
669 2 79.0797 12.0207 4.42306
670 2 83.2421 12.0638 4.30813
671 2 86.9741 12.0411 4.4049
672 2 91.0541 11.8574 4.19402
673 2 0.0909972 15.8102 4.32127
674 2 4.04836 15.7866 4.40417
675 2 8.10543 16.0856 4.14063
676 2 12.1129 15.79 4.12495
677 2 15.9527 15.927 4.10248
678 2 19.7446 15.9873 4.32135
679 2 23.7613 15.8383 4.38706
680 2 27.9951 16.0162 4.12367
681 2 31.8698 15.9796 4.149
682 2 35.8067 16.0082 4.22713
683 2 39.7483 15.747 4.22884
684 2 43.586 15.9205 4.1709
685 2 47.6172 15.8467 4.29956
686 2 51.4178 15.8918 4.24063
687 2 55.5222 15.8476 4.3096
688 2 59.4283 15.8565 4.30925
689 2 63.3438 15.9411 4.25883
690 2 67.3853 15.9542 4.28358
691 2 71.2247 15.7608 4.27601
692 2 75.1811 16.041 4.12462
693 2 79.3151 15.8778 4.42609
694 2 83.2419 15.9788 4.1918
695 2 87.1207 15.9343 4.24206
696 2 91.0777 15.8051 4.36844
697 2 0.130585 19.7077 4.26804
698 2 4.04978 19.9393 4.06044
699 2 8.06031 19.7269 4.1553
700 2 12.1728 19.6902 4.13188
701 2 16.0862 19.8341 4.08402
702 2 19.8895 19.7645 4.20405
703 2 23.9575 19.5326 4.23586
704 2 27.8427 19.8591 4.01231
705 2 31.7719 19.8558 4.08599
706 2 35.9356 19.9887 4.14401
707 2 39.7593 19.9542 4.1696
708 2 43.723 19.9419 4.21313
709 2 47.6347 19.9486 4.0987
710 2 51.4945 19.9873 4.41385
711 2 55.4409 19.7563 4.22267
712 2 59.5667 19.7575 4.18518
713 2 63.4624 19.9307 4.23431
714 2 67.5016 19.7588 4.08172
715 2 71.3633 19.9872 4.19723
716 2 75.3743 19.8521 4.26823
717 2 79.2654 19.8853 4.29039
718 2 83.4352 19.8476 4.11964
719 2 87.1428 19.8448 4.3585
720 2 91.1105 19.7934 4.1181
721 2 0.336495 23.8182 4.31529
722 2 4.15816 23.5908 4.23681
723 2 8.24558 23.7672 4.33486
724 2 12.0086 24.0227 4.11969
725 2 15.9096 23.6945 4.2036
726 2 19.9265 23.6773 4.37788
727 2 23.8842 23.6562 4.32439
728 2 27.7064 23.8441 4.36579
729 2 31.7892 23.7018 4.14558
730 2 35.8758 23.7848 4.27091
731 2 39.8339 23.8667 4.10401
732 2 43.6532 23.9787 4.07014
733 2 47.4238 23.6736 4.24512
734 2 51.6607 23.5117 4.09639
735 2 55.4798 23.7661 4.22687
736 2 59.4133 23.6833 4.19552
737 2 63.6374 23.6409 4.35141
738 2 67.3884 23.8175 4.30664
739 2 71.208 23.796 4.37015
740 2 75.3198 23.7638 4.11783
741 2 79.2818 23.6569 4.32321
742 2 83.0587 23.6855 4.29008
743 2 87.1497 23.6697 4.22707
744 2 91.3608 23.6395 4.26369
745 2 0.0805537 27.5903 4.30939
746 2 4.17372 27.8253 4.23569
747 2 8.01494 27.751 4.26807
748 2 12.1871 27.6241 4.26669
749 2 16.2254 27.8271 4.17188
750 2 19.8882 27.8609 4.35587
751 2 23.7871 27.6436 4.05714
752 2 27.8584 27.7368 4.19281
753 2 31.6467 27.8631 4.2929
754 2 35.5864 27.6908 4.24636
755 2 39.6119 27.8481 4.23869
756 2 43.4258 27.8461 4.38328
757 2 47.6404 27.7572 4.08697
758 2 51.4523 27.645 4.29529
759 2 55.3656 27.7101 4.4017
760 2 59.4617 27.6411 4.39085
761 2 63.3943 27.7002 4.30114
762 2 67.2423 27.6717 4.30361
763 2 71.277 27.7313 4.09674
764 2 75.2099 27.8169 4.27617
765 2 79.208 27.7654 4.21366
766 2 83.2252 27.6765 4.33203
767 2 87.0427 27.6684 4.39113
768 2 91.2193 27.8767 4.22544
769 2 -0.0326015 31.5155 4.19383
770 2 4.10456 31.6238 4.22094
771 2 7.99817 31.6148 4.15544
772 2 11.9252 31.491 4.32438
773 2 15.7917 31.8675 4.19718
774 2 19.8506 31.5997 4.2889
775 2 23.7884 31.7486 4.28587
776 2 27.7049 31.9318 4.18755
777 2 31.6486 31.6905 4.16025
778 2 35.7065 31.678 4.14551
779 2 39.7489 31.7993 4.32913
780 2 43.733 31.7939 4.30312
781 2 47.5147 31.5552 4.23554
782 2 51.6378 31.7787 4.22852
783 2 55.4024 31.6711 4.38119
784 2 59.3086 31.6123 4.20772
785 2 63.4562 31.481 4.18966
786 2 67.404 31.7702 4.30367
787 2 71.2896 31.7809 4.2934
788 2 75.3484 31.4024 4.33365
789 2 79.3352 31.7642 4.35191
790 2 83.2455 31.5672 4.14311
791 2 87.2485 31.5234 4.22539
792 2 90.8902 31.741 4.14863
793 2 -0.043616 35.5586 4.16568
794 2 3.85435 35.3187 4.22773
795 2 7.94277 35.6665 4.19407
796 2 11.8305 35.4374 4.16417
797 2 15.8924 35.4794 4.26578
798 2 19.9571 35.6111 4.24639
799 2 23.872 35.5308 4.19265
800 2 27.7687 35.808 4.14535
801 2 31.9166 35.7486 4.07345
802 2 35.6501 35.7659 4.24114
803 2 39.5733 35.7154 4.2331
804 2 43.5203 35.5482 4.16119
805 2 47.701 35.5981 4.26621
806 2 51.6601 35.6559 4.39307
807 2 55.3683 35.5487 4.45578
808 2 59.617 35.6455 4.41201
809 2 63.3069 35.5676 4.0773
810 2 67.284 35.6046 4.34513
811 2 71.1195 35.7505 4.28233
812 2 75.3689 35.6446 4.30411
813 2 79.2037 35.5953 4.1305
814 2 83.1938 35.5153 4.27686
815 2 87.158 35.4557 4.26198
816 2 91.0812 35.6053 4.47148
817 2 0.0925933 39.6035 4.34843
818 2 3.94005 39.6587 4.26746
819 2 7.86161 39.4102 4.22537
820 2 11.976 39.5218 4.31084
821 2 15.8246 39.4157 4.34149
822 2 19.8841 39.521 4.37478
823 2 23.9091 39.8283 4.19666
824 2 27.7389 39.6433 4.06931
825 2 31.9313 39.6223 4.22599
826 2 35.7901 39.7683 4.15993
827 2 39.6934 39.7606 4.24335
828 2 43.6918 39.6795 4.1363
829 2 47.3948 39.4078 4.15346
830 2 51.4487 39.6907 4.24352
831 2 55.4194 39.6097 4.40391
832 2 59.4252 39.3511 4.33188
833 2 63.5893 39.6714 4.42157
834 2 67.2467 39.6686 4.27506
835 2 71.2707 39.7856 4.21811
836 2 75.2392 39.6322 4.2743
837 2 79.1947 39.6927 4.28501
838 2 83.077 39.5506 4.15987
839 2 87.1042 39.2463 4.28225
840 2 91.1223 39.5784 4.25806
841 2 -0.013791 43.6638 4.18287
842 2 3.94766 43.4638 4.13332
843 2 7.80512 43.57 4.23565
844 2 11.994 43.5396 4.38041
845 2 15.7127 43.4635 4.10234
846 2 19.7464 43.5573 4.10054
847 2 23.738 43.532 4.02651
848 2 27.9622 43.3917 4.29066
849 2 31.7262 43.4969 4.12092
850 2 35.8388 43.504 4.22487
851 2 39.8354 43.5841 4.3167
852 2 43.7093 43.8152 4.31027
853 2 47.5114 43.4775 4.26326
854 2 51.3927 43.6329 4.27619
855 2 55.3348 43.548 4.18588
856 2 59.5839 43.5196 4.04293
857 2 63.2882 43.6124 4.40374
858 2 67.4203 43.5547 4.36464
859 2 71.4429 43.6916 4.33568
860 2 75.1729 43.7498 4.3786
861 2 79.2512 43.7106 4.428
862 2 83.337 43.3507 4.20317
863 2 87.0554 43.4394 4.42661
864 2 91.2052 43.5846 4.2236
865 2 0.183975 47.4953 4.0808
866 2 3.97978 47.841 4.07227
867 2 8.05211 47.4585 4.17343
868 2 12.075 47.4124 4.31653
869 2 15.8313 47.3313 4.29023
870 2 19.855 47.3281 4.29254
871 2 23.9364 47.3281 4.19704
872 2 27.8287 47.3848 4.17139
873 2 31.7159 47.1977 4.00554
874 2 35.8596 47.5746 4.14259
875 2 39.6727 47.7137 4.23571
876 2 43.6819 47.7576 4.32039
877 2 47.8876 47.561 4.23784
878 2 51.6062 47.3992 4.39212
879 2 55.5686 47.5489 4.29694
880 2 59.6334 47.5466 4.25199
881 2 63.4236 47.644 4.28029
882 2 67.313 47.4623 4.37039
883 2 71.4295 47.6041 4.18836
884 2 75.2557 47.5616 4.32202
885 2 79.3235 47.6508 4.11134
886 2 83.3558 47.4372 4.29041
887 2 87.2001 47.2331 4.22371
888 2 91.1868 47.52 4.19756
889 2 0.212049 51.5222 4.20201
890 2 4.30896 51.7129 4.2519
891 2 7.90943 51.4646 4.12095
892 2 12.066 51.4712 4.12525
893 2 16.0621 51.2433 4.22207
894 2 19.8124 51.4698 4.2447
895 2 23.7382 51.3475 4.15264
896 2 27.8061 51.3502 4.10468
897 2 31.9014 51.5177 4.18932
898 2 35.7299 51.5291 4.14066
899 2 39.705 51.5849 4.15613
900 2 43.7064 51.6248 4.15731
901 2 47.5636 51.4016 4.43631
902 2 51.5222 51.463 4.25212
903 2 55.5003 51.5656 4.32204
904 2 59.455 51.4648 4.41159
905 2 63.2732 51.3883 4.40804
906 2 67.3695 51.5558 4.30403
907 2 71.2598 51.472 4.21297
908 2 75.221 51.5104 4.43223
909 2 79.2324 51.6981 4.26381
910 2 83.2393 51.5515 3.85636
911 2 87.4315 51.3371 4.17534
912 2 91.1844 51.4679 4.25411
913 2 0.228096 55.5832 4.18649
914 2 4.04626 55.535 4.18215
915 2 8.1684 55.597 4.23231
916 2 11.8396 55.5933 4.21046
917 2 15.817 55.3198 4.14879
918 2 19.9312 55.4962 4.42202
919 2 23.7613 55.2691 4.24433
920 2 27.7462 55.4679 4.21639
921 2 31.723 55.3212 4.15847
922 2 35.8732 55.4892 4.23855
923 2 39.6681 55.4236 4.24317
924 2 43.5714 55.7169 4.29529
925 2 47.4968 55.3965 4.29699
926 2 51.5531 55.4893 4.3383
927 2 55.447 55.3525 4.31906
928 2 59.5893 55.2789 4.23606
929 2 63.5546 55.3894 4.1697
930 2 67.3891 55.3815 4.30439
931 2 71.3085 55.5541 4.08321
932 2 75.1581 55.3156 4.31976
933 2 79.2425 55.5625 4.35673
934 2 83.22 55.2601 4.4454
935 2 87.1096 55.3799 4.20783
936 2 91.1125 55.3986 4.3784
937 2 0.291358 59.3609 4.09995
938 2 4.04259 59.6565 4.17888
939 2 7.86324 59.5106 4.35088
940 2 12.0061 59.4039 4.11984
941 2 15.9926 59.2387 4.23893
942 2 20.0919 59.4063 4.22251
943 2 23.7713 59.2455 4.01397
944 2 27.7768 59.456 4.17991
945 2 31.7759 59.4408 4.24395
946 2 35.6194 59.5351 4.25526
947 2 39.5924 59.4944 4.24663
948 2 43.6801 59.4271 4.09436
949 2 47.4685 59.6872 4.16008
950 2 51.6904 59.3035 4.32528
951 2 55.6761 59.2128 4.2854
952 2 59.6796 59.4353 4.21667
953 2 63.4373 59.1491 4.19102
954 2 67.4533 59.4104 4.34495
955 2 71.4877 59.5966 4.31062
956 2 75.4084 59.5207 4.22248
957 2 79.2256 59.4259 4.41099
958 2 83.1481 59.4189 4.32221
959 2 87.3687 59.3992 4.19376
960 2 91.2357 59.3675 4.20762
961 2 0.250067 63.2175 4.03607
962 2 4.21317 63.5251 4.06124
963 2 8.03992 63.4885 4.17984
964 2 11.9771 63.469 4.21834
965 2 15.9715 63.169 4.03891
966 2 19.9884 63.2461 4.33329
967 2 23.9128 63.4525 4.07704
968 2 27.9788 63.3939 3.97313
969 2 31.8 63.4084 4.20569
970 2 35.7652 63.5148 4.33095
971 2 39.6704 63.2805 4.32107
972 2 43.7716 63.1742 4.20772
973 2 47.6835 63.3682 4.17386
974 2 51.629 63.3436 4.33807
975 2 55.5217 63.3109 4.23963
976 2 59.4989 63.2987 4.49628