ITEM: TIMESTEP
73100
ITEM: NUMBER OF ATOMS
43200
ITEM: BOX BOUNDS xy xz yz pp pp pp
0.0000000000000000e+00 9.4992000000000004e+01 0.0000000000000000e+00
0.0000000000000000e+00 9.4992000000000004e+01 0.0000000000000000e+00
-1.3162741254681976e-02 5.9713162741256021e+01 0.0000000000000000e+00
ITEM: ATOMS id type x y z
1 2 0.213455 -0.0519034 0.263755
2 2 4.05594 0.0795405 0.0669872
3 2 7.90575 -0.276079 0.169951
4 2 12.242 -0.0479703 0.247637
5 2 16.0408 0.0979325 0.223376
6 2 19.7984 -0.0604035 0.358498
7 2 23.8387 -0.056578 0.390804
8 2 27.8676 -0.073004 0.277646
9 2 31.745 -0.0486101 0.246963
10 2 35.6675 0.112215 0.240187
11 2 39.6742 0.118942 0.296272
12 2 43.5127 -0.254624 0.283165
13 2 47.5423 -0.151171 0.372165
14 2 51.5079 -0.100783 0.264079
15 2 55.4827 0.0724338 0.242631
16 2 59.4008 -0.109887 0.343909
17 2 63.3944 0.139463 0.247171
18 2 67.3199 -0.0512377 0.377139
19 2 71.3712 0.163504 0.226073
20 2 75.1324 0.207628 0.333008
21 2 79.2629 0.146014 0.523432
22 2 83.0254 -0.00428458 0.441488
23 2 87.0667 0.00342437 0.395576
24 2 90.9514 0.0486728 0.453402
25 2 0.0136245 3.79337 0.326997
26 2 3.98723 3.98199 0.126994
27 2 7.93342 4.04771 0.297604
28 2 11.6996 3.91303 0.314526
29 2 16.019 4.10056 0.286051
30 2 19.8055 3.94732 0.356371
31 2 23.6183 3.93835 0.457069
32 2 27.5173 3.89449 0.136371
33 2 31.8143 3.91958 0.138536
34 2 35.618 3.9941 0.144655
35 2 39.6952 3.90562 0.214893
36 2 43.7344 3.84847 0.149736
37 2 47.4988 4.00077 0.467321
38 2 51.4641 4.10919 0.227886
39 2 55.3917 3.86312 0.287307
40 2 59.2647 3.89569 0.35844
41 2 63.3203 3.96551 0.314357
42 2 67.2743 3.86142 0.142513
43 2 71.2037 4.15189 0.26875
44 2 75.1418 3.87125 0.147127
45 2 79.1277 4.12395 0.525649
46 2 83.1534 4.18396 0.0835656
47 2 87.233 3.73984 0.354482
48 2 91.0933 3.87347 0.400872
49 2 0.0716574 7.69092 0.110534
50 2 3.95223 7.94413 0.256278
51 2 7.84363 7.89452 0.319084
52 2 11.7612 7.95219 0.374959
53 2 15.9286 7.98319 0.141836
54 2 19.8004 7.62444 0.112037
55 2 23.8882 7.92838 0.382988
56 2 28.0804 7.92413 0.157443
57 2 31.7572 7.79593 0.182871
58 2 35.6334 7.82918 0.36118
59 2 39.6572 7.8698 0.279801
60 2 43.5913 8.02091 0.138172
61 2 47.5858 8.00231 0.110978
62 2 51.3839 8.01565 0.0781086
63 2 55.3498 7.86089 0.231545
64 2 59.436 7.89561 0.148222
65 2 63.3217 7.7183 0.245093
66 2 67.3225 7.97251 0.419121
67 2 71.434 7.80177 0.31514
68 2 75.2986 7.71443 0.218254
69 2 79.2634 7.83623 0.285392
70 2 83.1929 7.96069 0.286928
71 2 87.2221 7.76054 0.322014
72 2 91.1098 7.90718 0.360515
73 2 0.012442 11.7769 0.346434
74 2 3.87014 11.727 0.377379
75 2 8.02503 12.0629 0.22641
76 2 11.8813 11.8052 0.364771
77 2 15.8447 11.8034 0.254404
78 2 20.0325 11.7527 0.359571
79 2 23.8436 11.8371 0.174208
80 2 27.8487 11.9725 0.249479
81 2 31.5256 11.8993 0.177743
82 2 35.7654 11.8203 0.197746
83 2 39.5051 11.8971 0.20655
84 2 43.5258 11.9773 0.128608
85 2 47.6143 11.8795 0.243171
86 2 51.61 11.8482 0.182218
87 2 55.4988 11.8268 0.334908
88 2 59.4717 11.8135 0.205399
89 2 63.2625 11.8293 0.353448
90 2 67.3595 11.918 0.22575
91 2 71.4775 11.8443 0.277471
92 2 75.1439 11.8824 0.206851
93 2 79.1689 11.7761 0.203386
94 2 83.0701 11.8243 0.195762
95 2 87.0974 11.8599 0.316754
96 2 90.9947 12.0331 0.129304
97 2 -0.0189086 15.7021 0.33689
98 2 4.0035 15.6856 0.142091
99 2 8.03403 15.8871 0.316105
100 2 11.8694 15.5519 0.0779205
101 2 15.9831 15.7478 0.318717
102 2 19.9301 15.8633 0.235783
103 2 23.815 15.8018 0.18041
104 2 27.9115 15.9824 0.105549
105 2 31.6275 15.9541 0.121186
106 2 35.7669 15.9263 0.195832
107 2 39.5383 15.8885 0.30055
108 2 43.5894 15.9326 0.335952
109 2 47.6462 15.9721 0.223836
110 2 51.6583 15.7269 0.166336
111 2 55.5128 15.8812 0.200656
112 2 59.5471 15.9885 0.302304
113 2 63.7534 15.9583 0.334028
114 2 67.4559 15.9387 0.218837
115 2 71.322 15.8128 0.414423
116 2 75.1785 15.8501 0.352791
117 2 79.2611 15.686 0.361544
118 2 83.1244 15.7979 0.287662
119 2 86.9056 15.7614 0.374896
120 2 91.0149 15.7764 0.254705
121 2 -0.0942641 19.8579 0.323539
122 2 4.03927 19.7506 0.416316
123 2 8.12147 19.5841 0.394021
124 2 11.9196 19.5604 0.154861
125 2 15.9905 19.5575 0.221979
126 2 19.7039 19.7305 0.2225
127 2 23.9875 19.9246 0.0747654
128 2 27.85 19.6469 0.0658063
129 2 31.7124 19.751 0.0763535
130 2 35.8759 19.6887 0.121815
131 2 39.6374 19.8247 0.126583
132 2 43.6636 19.8671 0.246778
133 2 47.781 19.7469 0.375749
134 2 51.7711 19.7315 0.210709
135 2 55.4574 19.8196 0.17473
136 2 59.3786 19.6781 0.255401
137 2 63.4929 19.8285 0.18865
138 2 67.5796 19.7439 0.174279
139 2 71.3369 19.8783 0.155525
140 2 75.3257 19.6836 0.331623
141 2 79.2055 19.7022 0.368129
142 2 83.0594 19.6723 0.382708
143 2 87.4077 19.5276 0.170321
144 2 91.0193 19.7985 0.473808
145 2 -0.102478 23.7679 0.301676
146 2 3.86731 23.6199 0.3505
147 2 8.30039 23.4712 0.200795
148 2 11.8305 23.6624 -0.0298055
149 2 15.563 23.7678 0.181548
150 2 19.9897 23.8378 0.0539002
151 2 23.9538 23.798 0.264233
152 2 27.8054 23.7183 0.164776
153 2 31.8316 23.7394 0.25668
154 2 35.6515 23.573 0.190489
155 2 39.8097 23.7141 0.30443
156 2 43.5588 23.7068 0.246345
157 2 47.5649 23.9386 0.130082
158 2 51.5314 23.6219 0.427302
159 2 55.5558 23.7621 0.260522
160 2 59.41 23.5574 0.290521
161 2 63.6529 23.7215 0.314508
162 2 67.4594 23.5318 0.270056
163 2 71.4483 23.5711 0.0557859
164 2 75.2739 23.7685 0.340521
165 2 79.2552 23.6135 0.0900227
166 2 83.269 24.064 0.324568
167 2 87.2435 23.5979 0.465818
168 2 91.02 23.8386 0.0146197
169 2 0.0920456 27.7411 0.215306
170 2 4.00083 27.692 0.230264
171 2 8.08 27.5447 0.155374
172 2 11.9742 27.5207 0.270801
173 2 15.8272 27.8209 0.148406
174 2 19.6877 27.8275 0.157369
175 2 23.9528 27.7675 0.359456
176 2 27.7553 27.7842 0.0151682
177 2 31.6903 27.4183 0.12976
178 2 35.8313 27.8191 0.228435
179 2 39.362 27.6377 0.248494
180 2 43.6737 27.7517 0.164968
181 2 47.5705 27.675 0.11228
182 2 51.5767 27.5265 0.137957
183 2 55.4259 27.5813 0.199634
184 2 59.4695 27.5226 0.274344
185 2 63.3363 27.6012 0.185462
186 2 67.478 27.5755 0.212118
187 2 71.3968 27.6337 0.3304
188 2 75.1751 27.7407 0.369701
189 2 79.3355 27.651 0.104368
190 2 83.1567 27.8088 0.283946
191 2 87.1937 27.8148 0.261354
192 2 91.1204 27.7807 0.0743808
193 2 -0.0442885 31.7216 0.326213
194 2 4.02443 31.5131 0.349529
195 2 8.09386 31.4653 0.273344
196 2 12.1017 31.6319 0.332511
197 2 15.8678 31.5819 0.287451
198 2 19.8495 31.821 0.176745
199 2 23.7546 31.5792 0.41674
200 2 27.6913 31.6829 0.327807
201 2 31.7826 31.6688 0.237889
202 2 35.6622 31.4131 0.203882
203 2 39.8058 31.5725 0.0528581
204 2 43.7849 31.6108 0.255245
205 2 47.7278 31.6911 0.171625
206 2 51.5133 31.612 0.0613238
207 2 55.4346 31.627 0.292202
208 2 59.467 31.3414 0.135801
209 2 63.5917 31.6055 0.155215
210 2 67.431 31.6822 0.205701
211 2 71.3337 31.4959 0.174028
212 2 75.5643 31.5092 0.32831
213 2 79.2913 31.6282 0.315209
214 2 83.1434 31.5559 0.211459
215 2 87.3339 31.5408 0.356304
216 2 91.0936 31.8355 0.111909
217 2 -0.0668272 35.5917 0.181008
218 2 4.12222 35.6611 0.20379
219 2 8.00376 35.2812 0.172596
220 2 11.7931 35.6097 0.288913
221 2 15.6812 35.6521 0.191513
222 2 19.6803 35.5429 0.276665
223 2 23.8537 35.6449 0.229384
224 2 27.862 35.5951 0.190937
225 2 31.725 35.6731 0.130816
226 2 35.5926 35.2983 0.171822
227 2 39.6227 35.6372 0.18027
228 2 43.856 35.5296 0.254029
229 2 47.4476 35.7961 0.324506
230 2 51.4071 35.6463 0.394087
231 2 55.572 35.6112 0.22718
232 2 59.5294 35.4534 0.208802
233 2 63.312 35.7568 0.245196
234 2 67.534 35.6284 0.246691
235 2 71.3541 35.6735 0.282396
236 2 75.1985 35.4285 0.090932
237 2 79.1992 35.6377 0.399932
238 2 83.3088 35.6669 0.410985
239 2 87.1278 35.7542 0.390956
240 2 91.1388 35.7364 0.146224
241 2 0.486263 39.6715 0.14281
242 2 4.1746 39.5426 0.320233
243 2 7.9831 39.3896 0.28567
244 2 11.9924 39.5897 0.340826
245 2 15.9474 39.4833 0.139855
246 2 19.9761 39.5758 0.259011
247 2 23.9575 39.434 0.184679
248 2 27.7943 39.581 0.365345
249 2 31.8377 39.2762 0.0337141
250 2 35.5555 39.5514 0.187497
251 2 39.4604 39.4602 0.16938
252 2 43.6495 39.5139 -0.0841479
253 2 47.5662 39.4749 0.261242
254 2 51.5942 39.5997 0.182853
255 2 55.6784 39.4201 0.175264
256 2 59.4269 39.4631 0.128144
257 2 63.2553 39.6167 0.158754
258 2 67.4325 39.6219 0.226375
259 2 71.3599 39.4883 0.314257
260 2 75.3824 39.5408 0.302839
261 2 79.3019 39.6639 0.167676
262 2 83.2437 39.5061 0.323174
263 2 87.3362 39.7334 0.23953
264 2 91.2133 39.5961 0.247479
265 2 0.313304 43.6232 0.262269
266 2 4.27457 43.3793 0.240096
267 2 8.1938 43.4709 0.21278
268 2 11.961 43.2926 0.339005
269 2 15.8678 43.3997 0.256122
270 2 20.0747 43.5678 0.280125
271 2 23.8532 43.582 0.465316
272 2 27.8882 43.4014 0.132079
273 2 31.8879 43.4576 0.233093
274 2 35.6577 43.5723 0.313722
275 2 39.6699 43.5167 0.361099
276 2 43.6737 43.3413 0.230188
277 2 47.6477 43.5673 0.164155
278 2 51.4873 43.5579 0.31299
279 2 55.701 43.6334 0.154401
280 2 59.4548 43.5264 0.416899
281 2 63.5757 43.3406 0.207689
282 2 67.3612 43.2601 0.27102
283 2 71.4787 43.5557 0.300401
284 2 75.2638 43.5802 0.174349
285 2 79.1493 43.5794 0.395438
286 2 83.088 43.5712 0.361044
287 2 87.3063 43.659 0.21149
288 2 91.0116 43.4317 0.3088
289 2 0.214393 47.3584 0.210311
290 2 4.08181 47.6775 0.368537
291 2 8.02577 47.4285 0.53215
292 2 11.9288 47.2687 0.410078
293 2 15.7991 47.4737 0.246625
294 2 19.7415 47.5982 0.202574
295 2 23.851 47.3451 0.361815
296 2 28.0572 47.2509 0.218218
297 2 31.9587 47.4212 0.245882
298 2 35.6681 47.5133 0.354699
299 2 39.7386 47.3207 0.239448
300 2 43.6824 47.3181 0.11005
301 2 47.6423 47.3 0.152703
302 2 51.6035 47.4469 0.261725
303 2 55.5622 47.6321 0.268222
304 2 59.4705 47.4579 0.139952
305 2 63.3833 47.417 0.159548
306 2 67.1136 47.3896 0.287232
307 2 71.2638 47.5236 0.316288
308 2 75.4543 47.6019 0.0733567
309 2 79.4141 47.5116 0.201377
310 2 83.2805 47.664 0.236376
311 2 87.2321 47.5437 0.230094
312 2 91.2138 47.4019 0.216343
313 2 0.298358 51.4257 0.309532
314 2 4.08074 51.6242 0.193428
315 2 8.09342 51.5541 0.297917
316 2 11.8761 51.4567 0.267858
317 2 15.858 51.6123 0.422201
318 2 19.9069 51.4667 0.0813494
319 2 23.7697 51.3936 0.264851
320 2 27.7241 51.3171 0.201958
321 2 31.8223 51.5727 0.219574
322 2 35.588 51.5391 0.0622786
323 2 39.7077 51.1626 0.187122
324 2 43.767 51.3939 0.0920483
325 2 47.588 51.2339 0.295979
326 2 51.3438 51.464 0.335332
327 2 55.6093 51.3944 0.260711
328 2 59.6853 51.4633 0.146151
329 2 63.3806 51.3174 0.267477
330 2 67.1971 51.3346 0.463459
331 2 71.2719 51.4825 0.312245
332 2 75.5005 51.4753 0.347089
333 2 79.3336 51.6934 0.325735
334 2 83.3684 51.5319 0.132447
335 2 87.2455 51.4551 0.0766257
336 2 91.4463 51.4356 0.0989623
337 2 0.272924 55.4629 0.360667
338 2 4.15457 55.4218 0.273445
339 2 8.13117 55.3181 0.292422
340 2 12.0275 55.367 0.188317
341 2 16.0329 55.4585 -0.018591
342 2 19.956 55.4347 0.0670958
343 2 23.7539 55.5048 0.336946
344 2 27.5946 55.4059 0.381122
345 2 31.6082 55.4111 0.365694
346 2 35.6769 55.5392 0.182853
347 2 39.5962 55.0927 0.111712
348 2 43.6924 55.2325 0.0714211
349 2 47.5751 55.172 0.0679713
350 2 51.4168 55.3871 0.209842
351 2 55.6531 55.3084 0.223104
352 2 59.6019 55.5337 0.0880966
353 2 63.3751 55.4991 0.0969213
354 2 67.4558 55.2543 0.292404
355 2 71.1931 55.4767 0.354073
356 2 75.3245 55.5619 0.241899
357 2 79.3832 55.4819 0.247618
358 2 83.414 55.5443 0.272465
359 2 87.2152 55.5463 0.227892
360 2 91.295 55.4306 0.067952
361 2 0.242577 59.5423 0.180692
362 2 4.17711 59.3683 0.205414
363 2 7.84504 59.4684 0.344009
364 2 12.1061 59.5376 0.252792
365 2 16.0007 59.5738 0.194428
366 2 19.8732 59.459 0.127022
367 2 23.7528 59.3645 -0.0713018
368 2 27.5108 59.4257 0.180171
369 2 31.6141 59.2425 0.166625
370 2 35.6988 59.505 0.0693673
371 2 39.7148 59.4275 0.317958
372 2 43.5631 59.2471 0.351457
373 2 47.4147 59.229 0.217848
374 2 51.5888 59.3227 0.267909
375 2 55.5655 59.3909 0.215853
376 2 59.4 59.5388 0.313255
377 2 63.417 59.435 0.443616
378 2 67.3914 59.2789 0.25555
379 2 71.5581 59.5513 -0.0544834
380 2 75.4197 59.5034 0.284285
381 2 79.2594 59.4276 0.300533
382 2 83.2482 59.4831 0.354636
383 2 86.9897 59.2228 0.20672
384 2 90.9989 59.318 0.179253
385 2 0.243342 63.4584 0.0666622
386 2 4.10134 63.4788 0.323848
387 2 7.9888 63.2424 0.34247
388 2 11.993 63.3892 0.297239
389 2 15.9483 63.4242 0.132262
390 2 19.9627 63.4402 0.103332
391 2 23.8565 63.2869 0.165516
392 2 27.7092 63.2923 0.232768
393 2 31.6622 63.3298 0.0406307
394 2 35.7989 63.435 0.274799
395 2 39.6852 63.3683 0.276364
396 2 43.5857 63.2627 0.33029
397 2 47.6135 63.0241 0.309514
398 2 51.5274 63.3788 0.189691
399 2 55.6459 63.4399 0.283792
400 2 59.4842 63.3594 0.261753
401 2 63.3676 63.2836 0.399093
402 2 67.4896 63.3817 0.169064
403 2 71.361 63.3205 0.261567
404 2 75.3317 63.3372 0.28543
405 2 79.1473 63.4058 0.315759
406 2 83.1616 63.4205 0.272745
407 2 87.1184 63.402 0.299406
408 2 91.1681 63.2961 0.349357
409 2 0.202885 67.1998 0.137296
410 2 4.04558 67.252 0.268568
411 2 8.01542 67.2601 0.304358
412 2 11.968 67.3661 0.274039
413 2 15.9234 67.3146 0.0756872
414 2 19.9524 67.2323 0.236762
415 2 23.9077 67.2761 0.101669
416 2 27.8213 67.1075 0.189872
417 2 31.7515 67.4604 0.205802
418 2 35.676 67.1989 0.230273
419 2 39.5558 67.215 0.206708
420 2 43.5015 67.0176 0.375502
421 2 47.6501 67.1119 0.306379
422 2 51.6344 67.3673 0.235623
423 2 55.566 67.2179 0.251231
424 2 59.3653 67.3521 0.153869
425 2 63.4382 67.1839 0.409938
426 2 67.3172 67.2826 0.368512
427 2 71.195 67.3648 0.194163
428 2 75.2605 67.363 0.326124
429 2 79.2756 67.2271 0.267557
430 2 83.111 67.2812 0.140804
431 2 87.1279 67.3852 0.419374
432 2 91.1461 67.4176 0.178398
433 2 0.142262 71.1338 0.312438
434 2 3.8633 71.1993 0.419901
435 2 7.92986 71.1864 0.492986
436 2 11.8551 71.2656 0.307822
437 2 15.9512 71.3402 0.105375
438 2 19.9257 71.2053 0.412939
439 2 24.0025 71.2425 0.106922
440 2 27.9778 71.2803 0.201782
441 2 31.8211 71.1665 0.135034
442 2 35.7859 71.1649 0.189185
443 2 39.6357 70.9823 0.138839
444 2 43.7982 71.3538 0.145341
445 2 47.5473 71.0445 0.255372
446 2 51.6418 71.2261 0.212673
447 2 55.4706 71.1586 0.389879
448 2 59.5475 71.3366 0.179611
449 2 63.3261 71.088 0.345462
450 2 67.0464 71.1681 0.235439
451 2 71.216 71.0492 0.264813
452 2 75.1973 70.9925 0.319277
453 2 79.3105 71.1686 0.272259
454 2 83.2796 71.0854 0.348696
455 2 87.3764 71.3373 0.393999
456 2 91.2041 71.2614 0.254217
457 2 -0.0158949 75.1231 0.407071
458 2 3.90311 75.1449 0.300632
459 2 7.96243 75.0348 0.250375
460 2 12.1602 75.3026 0.286573
461 2 16.0632 75.0179 0.244748
462 2 19.9443 75.0022 0.207133
463 2 24.0405 75.2126 0.0154634
464 2 27.8923 75.0402 0.24553
465 2 31.9082 75.1397 0.269381
466 2 35.6289 74.9657 0.202041
467 2 39.6622 75.1721 0.382604
468 2 43.6676 75.2077 0.344194
469 2 47.6959 75.2796 0.289202
470 2 51.6063 75.0437 0.252455
471 2 55.3863 75.0111 0.286977
472 2 59.5486 75.3473 0.277979
473 2 63.5258 74.9173 0.149951
474 2 67.2853 75.0841 0.443873
475 2 71.1498 75.2134 0.43681
476 2 75.3217 75.2439 0.102047
477 2 79.1452 75.1153 0.164398
478 2 83.1747 75.1599 0.219534
479 2 87.095 75.1867 0.462684
480 2 90.9329 75.1869 0.378685
481 2 -0.0503682 79.1595 0.36182
482 2 4.13409 79.1138 0.293262
483 2 7.86184 79.2276 0.314622
484 2 12.1205 79.1925 0.256197
485 2 15.8997 79.2178 0.17223
486 2 19.9352 79.0691 0.260759
487 2 23.8508 79.1672 0.129615
488 2 27.9912 78.9942 0.147193
489 2 31.8589 79.2174 0.233109
490 2 35.8414 79.1212 0.187087
491 2 39.6787 79.3117 0.245903
492 2 43.5521 79.3347 0.107122
493 2 47.7168 79.1198 0.270512
494 2 51.6611 79.2676 0.282259
495 2 55.5209 79.0182 0.298667
496 2 59.4436 79.1701 0.271352
497 2 63.3755 78.9693 0.340769
498 2 67.5176 79.108 0.437539
499 2 71.1772 78.986 0.16021
500 2 75.1939 79.1109 0.342964
501 2 79.4025 79.1231 0.317227
502 2 83.1015 79.0276 0.286372
503 2 87.0039 79.1612 0.424975
504 2 91.0044 79.2753 0.246097
505 2 0.144512 83.0734 0.213244
506 2 4.04465 83.0797 0.265559
507 2 7.97885 82.9832 0.138306
508 2 11.9398 82.931 -0.0250775
509 2 15.8688 83.1166 0.252092
510 2 19.9609 83.0437 0.224283
511 2 23.7147 83.1781 0.341499
512 2 27.8486 82.8754 0.259387
513 2 31.8332 83.2932 0.0876465
514 2 35.786 83.0612 0.203227
515 2 39.6085 83.1805 0.0805068
516 2 43.7487 83.0989 0.376577
517 2 47.5778 83.2258 0.229344
518 2 51.5424 83.1426 0.196625
519 2 55.562 83.088 0.315154
520 2 59.3621 83.2802 0.365396
521 2 63.3833 83.0414 0.380211
522 2 67.3696 83.1105 0.312212
523 2 71.3263 83.0293 0.412369
524 2 75.4225 83.1458 0.245329
525 2 79.3305 83.1215 0.287542
526 2 83.0674 83.1364 0.248419
527 2 87.31 83.122 0.334039
528 2 91.2203 83.1178 0.383178
529 2 0.093349 87.164 0.167368
530 2 4.18678 87.036 0.237967
531 2 8.13986 86.9397 0.397348
532 2 12.1097 86.9508 0.421983
533 2 16.0664 86.9693 0.411264
534 2 20.0085 86.9193 0.23202
535 2 23.8092 86.9979 0.470034
536 2 27.6741 86.8981 0.186738
537 2 32.0666 87.0712 0.277541
538 2 35.8474 87.0978 0.117973
539 2 39.6027 86.8712 0.196919
540 2 43.6874 87.1208 0.286213
541 2 47.5797 86.9055 0.20138
542 2 51.4815 87.0731 0.341132
543 2 55.391 87.1395 0.153303
544 2 59.3379 87.1174 0.243786
545 2 63.2808 87.0407 0.253263
546 2 67.2938 87.1179 0.290175
547 2 71.2692 87.1765 0.387394
548 2 75.2835 87.1258 0.271086
549 2 79.2063 87.0865 0.143095
550 2 83.2595 87.0441 0.323007
551 2 87.1159 87.1822 0.116484
552 2 91.1885 87.1312 0.194761
553 2 -0.0238503 91.0763 0.516891
554 2 4.21661 91.099 0.300717
555 2 8.14354 90.8039 0.00539584
556 2 11.9795 90.9033 0.469319
557 2 15.9708 90.8297 0.331166
558 2 19.8379 90.9095 0.334795
559 2 23.969 90.9835 0.260593
560 2 27.7397 90.9263 0.261467
561 2 31.4922 91.0838 0.205598
562 2 35.6919 91.1431 0.158463
563 2 39.7219 91.0053 0.38045
564 2 43.6646 90.8605 0.297285
565 2 47.6747 91.0423 0.148731
566 2 51.5347 91.0512 0.348771
567 2 55.6731 91.0911 0.281933
568 2 59.6441 91.0164 0.312885
569 2 63.5399 90.6589 0.169743
570 2 67.3675 90.9991 0.227421
571 2 71.5137 91.0764 0.25921
572 2 75.505 91.1295 0.133371
573 2 79.1601 90.9036 0.262903
574 2 83.2628 91.0227 0.326626
575 2 87.1276 91.1401 0.418875
576 2 91.0019 90.9077 0.532018
577 2 0.163524 0.0194854 4.36828
578 2 4.04457 0.0171648 4.27469
579 2 7.94515 0.153724 4.19472
580 2 12.0981 0.0432386 4.35328
581 2 15.9871 -0.125649 4.13141
582 2 19.6845 0.0931801 4.25366
583 2 23.9033 0.0122908 4.26943
584 2 27.9256 -0.239153 4.15288
585 2 31.9336 0.0346911 4.21534
586 2 35.6743 -0.00104002 4.31655
587 2 39.4942 -0.0469616 4.34139
588 2 43.7088 -0.0058844 4.16561
589 2 47.6468 0.11162 4.26603
590 2 51.4904 0.108282 4.34817
591 2 55.3795 0.00954865 4.40881
592 2 59.5099 -0.0498622 4.26226
593 2 63.5337 0.247771 4.21454
594 2 67.4671 -0.0109679 4.2296
595 2 71.356 0.119972 4.12073
596 2 75.3261 0.00662264 4.32146
597 2 79.4177 -0.148496 4.32229
598 2 83.2924 -0.0459965 4.39527
599 2 87.1146 0.251008 4.37251
600 2 91.2025 0.12179 4.43408
601 2 0.0785355 4.12277 4.24596
602 2 4.08353 3.90005 4.36753
603 2 7.96056 3.93268 4.29761
604 2 12.0163 4.07386 4.18307
605 2 15.7875 4.02787 4.2903
606 2 19.8228 3.91316 4.36578
607 2 23.8744 3.79713 4.15339
608 2 27.8326 3.92935 4.26563
609 2 31.5281 3.69256 4.32196
610 2 35.5785 4.145 4.12182
611 2 39.5958 3.87633 4.21603
612 2 43.7903 4.05379 4.17307
613 2 47.4704 4.18424 4.09128
614 2 51.4178 4.15138 4.0391
615 2 55.2362 3.79494 4.25849
616 2 59.331 3.98325 4.28726
617 2 63.408 4.27281 4.1417
618 2 67.2754 3.85246 4.31046
619 2 71.4597 3.9284 4.3069
620 2 75.2065 4.06348 4.41106
621 2 79.242 3.96161 4.27763
622 2 83.0672 3.95925 4.30092
623 2 87.1486 4.17496 4.31576
624 2 91.1467 4.10218 4.33275
625 2 -0.0141623 7.94494 4.21887
626 2 4.17698 7.86065 4.21739
627 2 7.82063 7.99175 4.17004
628 2 11.8697 7.87233 4.29475
629 2 15.8205 7.97627 4.19521
630 2 19.9732 7.86689 4.31327
631 2 23.8558 7.64956 4.09099
632 2 27.7523 8.07304 4.15082
633 2 31.6829 7.71166 4.28491
634 2 35.4939 7.88228 4.42719
635 2 39.7231 7.96765 4.12712
636 2 43.5318 7.89554 4.21456
637 2 47.4935 7.80127 4.28053
638 2 51.3229 7.94488 4.38322
639 2 55.2828 7.94548 4.29569
640 2 59.3688 8.04756 4.18914
641 2 63.4351 7.94357 4.36623
642 2 67.3262 8.05534 4.42253
643 2 71.3605 7.99281 4.23077
644 2 75.4322 8.04119 4.36931
645 2 79.3536 8.01057 4.23797
646 2 83.1958 7.87639 4.41833
647 2 87.1376 7.91112 4.35428
648 2 91.1296 7.94646 4.26638
649 2 0.0984743 11.8268 4.28294
650 2 3.96207 11.7369 4.21372
651 2 7.99559 11.9536 4.23008
652 2 11.9246 11.6293 4.24897
653 2 15.8091 11.8771 4.27709
654 2 20.0194 11.9494 4.32681
655 2 23.8819 11.8164 4.14785
656 2 27.6151 12.0109 4.42155
657 2 31.8048 12.1222 4.0389
658 2 35.6068 11.852 4.40737
659 2 39.6258 11.9461 4.2626
660 2 43.5303 11.8601 4.40349
661 2 47.6188 11.9016 4.07728
662 2 51.6094 11.8989 4.28736
663 2 55.4267 11.9365 3.92525
664 2 59.3868 12.0747 4.1282
665 2 63.2399 11.9563 4.00207
666 2 67.2182 11.8369 4.19666
667 2 71.4359 11.7958 4.31385
668 2 75.2756 11.7407 4.12564
669 2 79.1869 11.9215 4.28249
670 2 83.29 11.8104 4.52657
671 2 87.2145 11.9011 4.3761
672 2 91.0607 12.014 4.04686
673 2 0.0844479 15.6304 4.26458
674 2 4.0352 15.9438 4.31726
675 2 7.91885 15.989 4.103
676 2 12.0761 15.7355 4.15946
677 2 15.867 15.7427 4.17541
678 2 19.8685 15.7331 4.00009
679 2 23.8625 15.9514 4.1299
680 2 27.7393 15.8949 4.13825
681 2 31.7213 15.7659 4.34561
682 2 35.6514 15.8399 4.25992
683 2 39.7074 15.961 4.14794
684 2 43.7278 15.7413 4.10992
685 2 47.5788 15.9151 4.32135
686 2 51.6039 15.8726 4.27493
687 2 55.4999 15.8569 4.15115
688 2 59.5663 15.9754 4.22756
689 2 63.566 15.8753 4.34965
690 2 67.3504 15.7946 4.26599
691 2 71.3772 15.8744 4.19911
692 2 75.3028 15.8387 4.18183
693 2 79.3603 15.8258 4.32667
694 2 83.0709 15.8601 4.40205
695 2 87.1319 15.8901 4.29204
696 2 90.9749 15.7591 4.35004
697 2 0.176983 19.767 4.46359
698 2 4.16158 20.0397 4.08346
699 2 7.96467 19.834 4.18664
700 2 12.0093 19.8095 4.19068
701 2 15.9623 19.7506 4.18068
702 2 19.6485 20.0415 4.08462
703 2 23.8709 19.8944 4.0378
704 2 27.723 19.8547 4.1159
705 2 31.7498 19.5918 4.2898
706 2 35.6548 19.9741 4.2431
707 2 39.8997 19.674 4.22777
708 2 43.7677 19.9961 4.08932
709 2 47.4736 19.9257 4.32684
710 2 51.44 19.8227 4.39389
711 2 55.4849 19.7989 4.31555
712 2 59.4754 19.8446 4.11324
713 2 63.3515 20.004 4.30046
714 2 67.5173 19.9865 4.25921
715 2 71.4796 19.97 4.27969
716 2 75.2801 19.8813 4.2672
717 2 79.4009 19.8322 4.2732
718 2 83.2659 19.9998 4.28151
719 2 87.3496 19.8226 4.2225
720 2 91.1858 19.6818 4.26185
721 2 0.0931168 23.8724 4.3889
722 2 4.10747 23.8304 4.04762
723 2 7.9092 23.7785 4.20448
724 2 11.9272 23.8534 4.26864
725 2 15.8192 23.7594 4.20771
726 2 19.6917 23.6652 4.04784
727 2 23.7163 23.8082 4.21135
728 2 27.9583 23.65 4.13188
729 2 31.9143 23.5856 4.11914
730 2 35.6424 23.835 4.08936
731 2 39.6792 23.9367 4.26868
732 2 43.4706 23.7458 4.27509
733 2 47.6579 23.781 4.11067
734 2 51.6485 23.6734 4.25331
735 2 55.6672 23.6846 4.15574
736 2 59.3838 23.7955 4.34874
737 2 63.2725 23.9437 4.36401
738 2 67.2873 23.7915 4.24125
739 2 71.3339 23.8879 4.23243
740 2 75.5003 23.9017 4.22997
741 2 79.188 23.7742 4.32814
742 2 83.2611 23.8222 4.31358
743 2 87.0769 23.74 4.40406
744 2 91.069 23.7856 4.28061
745 2 0.0857375 27.7607 4.43379
746 2 3.9848 27.5909 4.21826
747 2 7.86266 27.8116 4.21771
748 2 11.8468 27.6194 4.23633
749 2 16.0476 27.745 4.18419
750 2 19.8328 27.7071 4.14398
751 2 24.0343 27.7607 4.25128
752 2 27.9142 27.5506 4.26651
753 2 31.6128 27.7927 4.12676
754 2 35.6519 27.7105 4.21025
755 2 39.7583 27.6485 4.21412
756 2 43.6818 27.6655 4.13105
757 2 47.7583 27.5828 4.09401
758 2 51.4588 27.5182 4.10857
759 2 55.4761 27.8514 4.18294
760 2 59.4922 27.5971 4.21837
761 2 63.5779 27.6708 4.25437
762 2 67.3845 27.7005 4.37987
763 2 71.2606 27.8268 4.29264
764 2 75.0521 27.874 4.16698
765 2 79.3418 27.8485 4.23834
766 2 83.1292 27.814 4.2275
767 2 87.2104 27.908 4.20478
768 2 91.1956 27.6696 4.23334
769 2 0.202432 31.8342 4.1936
770 2 4.10927 31.7807 4.20853
771 2 8.04276 31.6732 4.33512
772 2 11.9291 31.7178 4.21369
773 2 15.8207 31.4513 4.27169
774 2 19.9737 31.7482 4.19176
775 2 23.7728 31.7215 4.30862
776 2 27.9534 31.5998 4.23177
777 2 31.8216 31.578 4.12999
778 2 35.8173 31.837 3.95559
779 2 39.7528 31.6478 4.13451
780 2 43.585 31.5174 4.17128
781 2 47.6687 31.719 4.27621
782 2 51.6643 31.538 4.19376
783 2 55.5883 31.7526 4.13261
784 2 59.5596 31.5138 4.1107
785 2 63.6365 31.6977 4.07729
786 2 67.3506 31.7766 4.12908
787 2 71.4037 31.7906 4.37084
788 2 75.3848 31.7704 4.23817
789 2 79.2272 31.6241 4.31226
790 2 83.2282 31.7354 4.1029
791 2 87.2022 31.7584 4.29312
792 2 91.1783 31.7445 4.11857
793 2 0.180287 35.6506 4.27328
794 2 4.15543 35.4979 4.22733
795 2 8.00998 35.6085 4.23896
796 2 12.0149 35.4521 4.38459
797 2 15.8466 35.7337 4.32581
798 2 19.8944 35.7619 4.19736
799 2 23.7242 35.4731 4.00436
800 2 27.6573 35.6517 4.15015
801 2 31.8214 35.6824 4.1884
802 2 35.6281 35.6318 4.15753
803 2 39.6961 35.5582 4.05438
804 2 43.6014 35.6781 4.19477
805 2 47.6518 35.5984 4.21243
806 2 51.7558 35.616 4.26554
807 2 55.6414 35.4332 4.23922
808 2 59.5602 35.5995 4.27017
809 2 63.5284 35.6319 4.22013
810 2 67.4456 35.6712 4.2273
811 2 71.3831 35.7881 4.40252
812 2 75.4833 35.5897 4.15597
813 2 79.2713 35.4912 4.20166
814 2 83.1229 35.7638 4.29682
815 2 87.1996 35.743 4.3124
816 2 91.1799 35.5332 4.07112
817 2 0.134144 39.5191 4.25843
818 2 4.22301 39.5875 4.08445
819 2 7.88483 39.5182 4.41222
820 2 12.0696 39.4309 4.25738
821 2 15.9828 39.6545 4.25917
822 2 20.0226 39.5998 4.13902
823 2 23.8419 39.6739 4.17041
824 2 27.8002 39.4722 4.38742
825 2 31.6706 39.5055 4.29184
826 2 35.6312 39.5517 4.29148
827 2 39.6032 39.54 4.09777
828 2 43.6183 39.7235 4.33961
829 2 47.5671 39.5634 4.23432
830 2 51.6994 39.6146 4.08684
831 2 55.6468 39.5048 4.21541
832 2 59.4737 39.6679 4.02799
833 2 63.5323 39.422 4.11361
834 2 67.2838 39.6294 4.29923
835 2 71.4449 39.6147 4.34893
836 2 75.4194 39.4941 4.28817
837 2 79.1989 39.6819 4.13414
838 2 83.2353 39.863 4.29752
839 2 87.1568 39.7185 4.31892
840 2 91.1461 39.6366 4.11949
841 2 -0.0735148 43.4573 4.19352
842 2 4.10878 43.4905 4.29766
843 2 7.99459 43.6247 4.28199
844 2 11.8421 43.5097 4.2551
845 2 15.8202 43.5126 4.30697
846 2 19.7874 43.5952 4.11324
847 2 23.8129 43.5938 4.31061
848 2 27.9615 43.2383 4.22087
849 2 31.7691 43.4812 4.23548
850 2 35.6908 43.4929 4.27141
851 2 39.8543 43.5633 4.08177
852 2 43.7876 43.3423 4.02734
853 2 47.6559 43.4823 4.26002
854 2 51.4978 43.4595 4.25041
855 2 55.3333 43.5795 4.31675
856 2 59.4737 43.4951 4.15045
857 2 63.2368 43.4667 4.18753
858 2 67.3199 43.4378 4.24056
859 2 71.322 43.7725 4.18517
860 2 75.3586 43.5531 3.96739
861 2 79.1515 43.8495 4.28369
862 2 83.2314 43.6657 4.35847
863 2 87.1984 43.6539 4.02673
864 2 91.3021 43.6184 4.19057
865 2 0.135159 47.3635 4.18013
866 2 4.15447 47.6826 4.31004
867 2 8.17097 47.4671 4.3501
868 2 11.9292 47.3767 4.42065
869 2 16.0563 47.5432 4.16855
870 2 19.9035 47.4838 4.35723
871 2 23.8837 47.4446 4.24458
872 2 27.933 47.3522 4.0851
873 2 31.8196 47.3718 4.31464
874 2 35.5863 47.5002 4.19261
875 2 39.482 47.5491 4.1167
876 2 43.6356 47.521 4.32131
877 2 47.3635 47.4321 4.36791
878 2 51.5337 47.4476 4.33963
879 2 55.5723 47.5116 4.24655
880 2 59.471 47.5257 4.17784
881 2 63.3397 47.4828 4.19675
882 2 67.5705 47.2639 4.12672
883 2 71.4405 47.5995 4.20001
884 2 75.2977 47.5129 4.16353
885 2 79.3831 47.4734 4.18207
886 2 83.3217 47.5995 4.36192
887 2 87.3424 47.5984 4.24665
888 2 91.2269 47.5368 4.17426
889 2 0.128738 51.6503 4.27875
890 2 4.02357 51.4553 4.19055
891 2 8.01057 51.5802 4.22025
892 2 12.0107 51.4612 4.33543
893 2 15.9682 51.579 4.279
894 2 19.96 51.5089 4.35063
895 2 23.7177 51.3046 4.1166
896 2 27.7218 51.2122 4.21103
897 2 31.5955 51.5113 4.07309
898 2 35.7898 51.4014 4.19323
899 2 39.613 51.4135 4.24592
900 2 43.5491 51.4159 4.3563
901 2 47.4922 51.3582 4.23414
902 2 51.6879 51.2574 4.23684
903 2 55.5175 51.7162 4.04866
904 2 59.5383 51.4453 4.10006
905 2 63.5946 51.6624 4.19441
906 2 67.1369 51.47 4.31587
907 2 71.431 51.4919 4.12931
908 2 75.3726 51.4084 4.0756
909 2 79.3823 51.6123 4.15288
910 2 83.3013 51.4195 4.33848
911 2 87.3348 51.3485 4.24803
912 2 91.3379 51.4619 4.105
913 2 0.213796 55.5326 4.18294
914 2 3.95347 55.5432 4.23393
915 2 8.06736 55.4856 4.28798
916 2 12.0332 55.5725 4.24562
917 2 15.9712 55.4439 4.00957
918 2 19.9025 55.5956 4.27047
919 2 23.8385 55.4279 4.25116
920 2 27.8249 55.3574 4.30216
921 2 31.7481 55.5309 4.05306
922 2 35.831 55.3924 4.38422
923 2 39.7178 55.3807 4.23021
924 2 43.7676 55.3086 4.09292
925 2 47.6754 55.3709 4.16717
926 2 51.5719 55.4357 4.13085
927 2 55.6809 55.3791 4.3403
928 2 59.5579 55.4788 4.19496
929 2 63.3832 55.3571 4.4108
930 2 67.5198 55.5057 4.02053
931 2 71.4901 55.3387 4.26103
932 2 75.24 55.4743 4.30422
933 2 79.2404 55.5232 4.18671
934 2 83.2522 55.431 4.17802
935 2 87.2867 55.4717 4.12386
936 2 91.2178 55.6231 3.89539
937 2 -0.0173562 59.3535 4.17176
938 2 4.23105 59.4067 4.28095
939 2 8.21507 59.5405 4.12273
940 2 12.1354 59.4094 4.2824
941 2 16.1216 59.3484 4.017
942 2 19.8967 59.4387 4.25256
943 2 24.0491 59.4457 4.1956
944 2 27.8241 59.3684 4.17001
945 2 31.8483 59.3788 4.25799
946 2 35.8639 59.4701 4.18566
947 2 39.7334 59.3004 4.33373
948 2 43.5861 59.3302 4.27298
949 2 47.4839 59.2244 4.06524
950 2 51.8097 59.2752 4.09032
951 2 55.6159 59.2908 4.27008
952 2 59.4288 59.4548 3.99268
953 2 63.5058 59.5437 4.18432
954 2 67.5739 59.2986 4.21747
955 2 71.399 59.4506 4.26996
956 2 75.2524 59.4403 4.30433
957 2 79.2038 59.5002 4.47451
958 2 83.4019 59.686 4.22435
959 2 87.3098 59.3541 4.11671
960 2 91.2987 59.2996 4.20411
961 2 -0.0525737 63.2651 4.26379
962 2 3.96976 63.3174 4.33805
963 2 8.02514 63.3946 4.25648
964 2 12.1357 63.3181 4.24357
965 2 15.9596 63.3673 4.28375
966 2 20.187 63.275 4.12231
967 2 23.8031 63.4246 4.38622
968 2 27.8191 63.1408 4.21713
969 2 31.6209 63.1997 4.05141
970 2 35.7287 63.4176 4.25367
971 2 39.6563 63.0905 4.14999
972 2 43.7761 63.4035 4.28061
973 2 47.5749 63.1928 4.2864
974 2 51.4941 63.1975 4.16683
975 2 55.4339 63.3453 4.37033
976 2 59.4861 63.3059 4.39195