ITEM: TIMESTEP
74100
ITEM: NUMBER OF ATOMS
43200
ITEM: BOX BOUNDS xy xz yz pp pp pp
0.0000000000000000e+00 9.4992000000000004e+01 0.0000000000000000e+00
0.0000000000000000e+00 9.4992000000000004e+01 0.0000000000000000e+00
-1.5575359386325260e-02 5.9715575359387500e+01 0.0000000000000000e+00
ITEM: ATOMS id type x y z
1 2 0.0729136 -0.121476 0.350427
2 2 4.11009 0.0868489 0.154404
3 2 8.05575 -0.0372595 0.156872
4 2 11.9241 0.0914227 0.153827
5 2 15.7981 0.018202 0.163905
6 2 19.71 0.0851621 0.363351
7 2 23.7075 -0.126222 0.32155
8 2 27.6625 0.112812 0.172874
9 2 31.6532 0.0353235 0.30196
10 2 35.926 0.0867158 -0.0467064
11 2 39.6314 -0.0804715 0.331784
12 2 43.5183 -0.0561659 0.407111
13 2 47.6859 0.125118 0.197538
14 2 51.7539 -0.0919287 0.330467
15 2 55.7133 0.0147741 0.226138
16 2 59.4693 0.0482323 0.249184
17 2 63.5114 -0.0803818 0.122992
18 2 67.4454 0.00455956 0.183878
19 2 71.2959 0.0644696 0.432142
20 2 75.3591 0.22215 0.178749
21 2 79.2782 0.0312741 0.221884
22 2 83.1252 -0.0243246 0.126172
23 2 87.1053 0.0178537 0.170632
24 2 90.8768 0.0167502 0.0576431
25 2 -0.0193764 3.97458 0.320921
26 2 3.8402 3.88334 0.171768
27 2 7.86664 3.951 0.213977
28 2 11.9332 4.06809 0.395416
29 2 15.854 4.24927 0.126117
30 2 19.9281 3.90255 0.366583
31 2 23.9926 4.13513 0.149592
32 2 27.6738 4.04601 0.166821
33 2 31.655 4.20895 0.260982
34 2 35.7121 3.97002 0.262328
35 2 39.8027 3.85989 0.52479
36 2 43.696 4.01241 0.562917
37 2 47.4922 4.0225 0.304721
38 2 51.7347 3.94443 0.0451667
39 2 55.619 4.12134 0.201045
40 2 59.6418 4.10604 0.362316
41 2 63.5778 4.05308 0.303051
42 2 67.4051 4.1002 0.115406
43 2 71.2359 4.1879 -0.0660949
44 2 75.3607 4.13619 0.0979629
45 2 79.2164 3.96371 0.169692
46 2 83.4841 3.84224 0.15038
47 2 87.1416 3.88787 0.354479
48 2 91.1272 3.87273 0.112346
49 2 0.113239 7.99951 0.250719
50 2 3.95903 8.06759 0.372314
51 2 7.93776 7.84481 0.397618
52 2 11.9433 8.01493 0.225281
53 2 16.0015 8.06372 0.191719
54 2 19.8602 8.02836 0.0315351
55 2 23.9293 7.9319 0.184766
56 2 27.8001 7.93305 0.30425
57 2 31.7139 7.9067 0.380518
58 2 35.8056 7.91142 0.0945501
59 2 39.6389 7.97409 0.208011
60 2 43.5553 8.09843 0.386285
61 2 47.6557 8.10236 0.222625
62 2 51.7203 7.93126 0.293208
63 2 55.5736 7.97184 0.286595
64 2 59.6742 7.99169 0.2089
65 2 63.6677 8.03307 0.145458
66 2 67.4844 7.96668 0.214583
67 2 71.42 7.7525 0.216131
68 2 75.2331 7.96797 0.324827
69 2 79.3779 7.84119 0.295356
70 2 83.1776 8.02219 0.314652
71 2 87.1637 7.71214 0.403215
72 2 91.2834 7.91533 0.203728
73 2 0.101715 12.1684 0.193509
74 2 4.10625 11.9492 0.22321
75 2 8.09886 11.983 0.236107
76 2 11.9955 12.2112 0.176197
77 2 15.9268 11.9468 0.134453
78 2 19.8191 11.9352 0.38768
79 2 23.5974 11.9419 0.245803
80 2 27.8187 11.793 0.273506
81 2 31.6706 11.7179 0.37219
82 2 35.6742 12.07 0.195483
83 2 39.7665 12.1119 0.10456
84 2 43.4901 11.8944 0.294758
85 2 47.6033 11.8003 0.161748
86 2 51.4841 11.9599 0.325387
87 2 55.4368 11.9148 0.405953
88 2 59.498 11.8816 0.263659
89 2 63.4699 12.0147 0.331851
90 2 67.5408 11.8714 0.0861994
91 2 71.4732 11.7759 0.213425
92 2 75.2917 11.8079 0.158081
93 2 79.1671 11.9486 0.207582
94 2 83.1976 11.8435 0.277008
95 2 87.3385 11.9643 0.347041
96 2 91.1683 11.819 0.109914
97 2 0.0600956 15.9176 0.223716
98 2 4.20022 15.9031 0.29196
99 2 8.00451 15.9728 0.0498009
100 2 11.9043 15.986 0.119435
101 2 15.7937 15.8695 0.170314
102 2 19.6821 15.8899 0.205548
103 2 23.7303 15.8818 0.142254
104 2 27.8945 15.9374 0.126621
105 2 31.6501 15.6827 0.423896
106 2 35.7075 15.7342 0.233652
107 2 39.7678 16.0773 0.242491
108 2 43.5575 15.7074 0.268966
109 2 47.6228 15.83 0.200762
110 2 51.533 16.0156 0.416387
111 2 55.5421 15.8473 0.264395
112 2 59.5527 15.836 0.055972
113 2 63.4388 15.7583 0.141878
114 2 67.4642 15.8169 0.281982
115 2 71.5441 15.8064 0.127452
116 2 75.3009 15.9465 0.365862
117 2 79.2709 15.9015 0.269284
118 2 83.3153 15.8934 0.149098
119 2 87.0688 15.7889 0.40047
120 2 91.1389 15.8747 0.308815
121 2 0.0122555 19.8436 0.446133
122 2 4.07039 19.6386 0.139487
123 2 8.06674 19.7927 0.107663
124 2 11.8635 19.8646 0.278772
125 2 15.833 19.7267 0.222561
126 2 19.8884 19.7533 0.260413
127 2 23.9346 19.7467 0.338762
128 2 27.7083 19.7016 0.22785
129 2 31.5673 19.7094 0.355361
130 2 35.783 19.6727 0.189604
131 2 39.7429 19.7651 0.438096
132 2 43.7288 19.6262 0.203188
133 2 47.6342 19.7054 0.261247
134 2 51.6421 19.8585 0.488219
135 2 55.5624 19.7835 0.304898
136 2 59.406 19.9303 0.114053
137 2 63.5465 19.6744 0.175921
138 2 67.4913 19.8926 0.260336
139 2 71.4022 19.7643 0.0623853
140 2 75.3827 19.838 0.394075
141 2 79.3982 19.8662 0.315694
142 2 83.2185 19.9049 0.223369
143 2 87.2894 19.6637 0.319614
144 2 91.0002 19.7421 0.0934087
145 2 0.0818248 23.6555 0.253102
146 2 3.99538 23.7415 0.251314
147 2 8.02465 23.6985 0.0838061
148 2 11.9703 23.6775 0.252255
149 2 16.0296 23.7185 0.39618
150 2 19.8717 23.7251 0.242916
151 2 23.7674 23.668 0.283476
152 2 27.7138 23.7518 0.400859
153 2 31.6602 23.5431 0.161777
154 2 35.5939 23.8188 0.198881
155 2 39.5551 23.753 0.37048
156 2 43.5339 23.6967 0.361478
157 2 47.5694 23.7247 0.29924
158 2 51.4701 23.7784 0.445046
159 2 55.4381 23.872 0.254568
160 2 59.689 23.8318 0.0330079
161 2 63.6046 23.8271 0.0722749
162 2 67.278 23.7156 0.174143
163 2 71.4212 23.4638 0.170254
164 2 75.4285 23.884 0.205691
165 2 79.3461 23.7414 0.162003
166 2 83.3172 23.8177 0.0990411
167 2 87.238 23.8349 0.166515
168 2 91.0552 23.7345 0.160886
169 2 0.0810926 27.6377 0.150972
170 2 4.16907 27.5193 0.0953053
171 2 8.13926 27.5653 0.242709
172 2 12.0188 27.7108 0.313484
173 2 15.8794 27.5916 0.258228
174 2 19.7431 27.5639 0.245911
175 2 23.9384 27.7166 0.301564
176 2 27.8239 27.923 0.391597
177 2 31.6563 27.7579 0.237194
178 2 35.7974 27.6793 0.309609
179 2 39.5533 27.8148 0.165082
180 2 43.5006 27.6633 0.270409
181 2 47.5108 27.9 0.203673
182 2 51.4813 27.8327 0.360144
183 2 55.4518 27.8291 0.239349
184 2 59.321 27.774 0.358998
185 2 63.5216 27.7521 0.128823
186 2 67.316 27.6414 0.202106
187 2 71.279 27.6361 0.2737
188 2 75.329 27.6807 0.242737
189 2 79.3795 27.7108 0.277889
190 2 83.393 27.7922 0.155907
191 2 87.4573 27.6378 0.276492
192 2 91.1962 27.5425 0.17467
193 2 0.155419 31.5977 0.184474
194 2 3.92186 31.6302 0.245157
195 2 7.976 31.6837 0.185009
196 2 11.9848 31.7437 0.212542
197 2 15.9801 31.6038 0.347034
198 2 20.0077 31.6776 0.177836
199 2 23.8572 31.674 0.385129
200 2 27.7517 31.6966 0.301089
201 2 31.6682 31.7013 0.312445
202 2 35.8708 31.6609 0.18142
203 2 39.7176 31.6266 0.420752
204 2 43.5629 31.6206 0.295613
205 2 47.5952 31.7571 0.186019
206 2 51.6289 31.473 0.266229
207 2 55.6283 31.7001 0.311172
208 2 59.6368 31.5931 0.285967
209 2 63.5493 31.6444 0.127814
210 2 67.449 31.5248 0.31739
211 2 71.5325 31.4964 0.143712
212 2 75.4143 31.668 0.3188
213 2 79.2564 31.6122 0.17342
214 2 83.3397 31.6418 0.326583
215 2 87.2231 31.7049 0.170013
216 2 91.2337 31.6308 0.225119
217 2 0.257318 35.8159 -0.055976
218 2 4.10875 35.8266 0.174965
219 2 8.16797 35.6513 0.251413
220 2 12.1052 35.7229 0.148978
221 2 15.947 35.6092 0.305063
222 2 19.8215 35.7326 0.280186
223 2 23.9046 35.5443 0.295363
224 2 27.714 35.6963 0.348833
225 2 31.8208 35.5517 0.133475
226 2 35.8496 35.5948 0.387476
227 2 39.7803 35.5642 0.135337
228 2 43.5584 35.7117 0.250574
229 2 47.551 35.6461 0.275783
230 2 51.5526 35.715 0.424566
231 2 55.4037 35.5576 0.350253
232 2 59.5858 35.6877 0.236771
233 2 63.531 35.6575 0.202984
234 2 67.5998 35.4317 0.19278
235 2 71.4516 35.7129 0.446186
236 2 75.4166 35.6049 0.239678
237 2 79.3073 35.5135 0.133383
238 2 83.211 35.689 0.387646
239 2 87.1356 35.6479 0.346635
240 2 91.0769 35.722 0.159172
241 2 0.187961 39.6759 0.0084836
242 2 3.97631 39.5555 0.159305
243 2 8.05139 39.6766 -0.00758875
244 2 11.9501 39.4689 0.386037
245 2 15.9921 39.4688 0.190769
246 2 19.8307 39.5326 0.356707
247 2 23.9965 39.6783 0.0685188
248 2 27.6829 39.514 0.255292
249 2 31.7516 39.5288 0.433395
250 2 35.6745 39.5027 0.279151
251 2 39.6677 39.4666 0.232955
252 2 43.7526 39.6176 0.30595
253 2 47.6763 39.6436 0.119554
254 2 51.6763 39.4576 0.288376
255 2 55.5113 39.5251 0.285991
256 2 59.5333 39.7979 0.104145
257 2 63.728 39.3461 0.0937654
258 2 67.4875 39.4574 0.313181
259 2 71.5226 39.4714 0.331779
260 2 75.4873 39.6166 0.105683
261 2 79.3599 39.7236 0.119603
262 2 83.2545 39.7131 0.1124
263 2 87.2703 39.5674 0.0718461
264 2 91.0855 39.7026 0.250802
265 2 0.375182 43.6057 0.166493
266 2 4.18674 43.3824 0.134304
267 2 8.02561 43.7376 0.0445777
268 2 12.0775 43.5856 0.317115
269 2 15.834 43.4971 0.253112
270 2 19.7256 43.5291 0.353262
271 2 23.872 43.6768 0.148493
272 2 27.6939 43.449 0.255312
273 2 31.6896 43.6146 0.273766
274 2 35.7775 43.4244 0.241632
275 2 39.7149 43.5145 0.327922
276 2 43.6898 43.4755 0.33522
277 2 47.6634 43.4136 0.353585
278 2 51.5073 43.5024 0.335562
279 2 55.6691 43.6548 0.21651
280 2 59.5206 43.5775 0.121602
281 2 63.474 43.6595 0.191821
282 2 67.3712 43.5214 0.151545
283 2 71.3759 43.4068 0.348462
284 2 75.4574 43.6769 0.23761
285 2 79.2961 43.6594 0.291931
286 2 83.2784 43.4511 0.214113
287 2 87.2405 43.7029 0.349292
288 2 91.3891 43.6261 0.130185
289 2 0.365753 47.4775 0.154345
290 2 3.97474 47.4515 -0.0390482
291 2 7.92987 47.5163 0.188906
292 2 12.0759 47.5476 0.235171
293 2 15.9051 47.4128 0.225302
294 2 19.7338 47.5977 0.316715
295 2 23.6278 47.5067 0.235019
296 2 27.5335 47.6268 0.336575
297 2 31.7543 47.493 0.21898
298 2 35.7119 47.561 0.239982
299 2 39.6673 47.6355 0.319832
300 2 43.6202 47.7409 0.279326
301 2 47.4819 47.5616 0.286968
302 2 51.5952 47.4663 0.315044
303 2 55.5628 47.4178 0.281657
304 2 59.5333 47.552 0.236816
305 2 63.4642 47.5379 0.299694
306 2 67.4951 47.4959 0.0255618
307 2 71.3248 47.6725 0.149732
308 2 75.3072 47.5737 0.366723
309 2 79.3238 47.7368 0.191369
310 2 83.3372 47.4096 0.174759
311 2 87.3814 47.3609 0.329736
312 2 91.2654 47.5746 0.0514373
313 2 0.253252 51.4555 0.180581
314 2 4.16348 51.5223 0.0105033
315 2 8.15755 51.4398 0.243597
316 2 12.0097 51.4846 0.235252
317 2 15.8386 51.483 0.173489
318 2 19.7121 51.4684 0.161496
319 2 23.6794 51.619 0.429818
320 2 27.7215 51.489 0.345107
321 2 31.7881 51.4723 0.0561163
322 2 35.7822 51.4288 0.209248
323 2 39.9031 51.36 0.272863
324 2 43.6698 51.474 0.205773
325 2 47.6569 51.4448 0.212096
326 2 51.5461 51.4231 0.180825
327 2 55.5445 51.346 0.39208
328 2 59.5116 51.3672 0.294903
329 2 63.5419 51.3605 0.307659
330 2 67.2846 51.534 0.129546
331 2 71.5243 51.4526 0.207514
332 2 75.4243 51.4279 0.309104
333 2 79.3082 51.5623 0.297094
334 2 83.2799 51.4321 0.267939
335 2 87.3578 51.4524 0.234778
336 2 91.349 51.4096 0.147205
337 2 0.106479 55.2801 0.246893
338 2 4.20422 55.4956 0.201082
339 2 8.00888 55.3366 0.397753
340 2 11.9052 55.3328 0.231704
341 2 15.9535 55.3325 0.33735
342 2 19.8535 55.399 0.223835
343 2 23.8172 55.4914 0.255788
344 2 27.8879 55.5542 0.0837703
345 2 31.7173 55.4685 0.00401743
346 2 35.8716 55.4713 0.271392
347 2 39.6087 55.2606 0.356176
348 2 43.7933 55.4372 0.216052
349 2 47.7519 55.4753 0.350501
350 2 51.6323 55.4088 0.269849
351 2 55.602 55.4305 0.252267
352 2 59.383 55.3704 0.251138
353 2 63.3746 55.3334 0.372478
354 2 67.5599 55.6132 0.054045
355 2 71.4984 55.6605 0.220798
356 2 75.3781 55.6552 0.16077
357 2 79.604 55.5286 0.0647592
358 2 83.5182 55.6225 0.177589
359 2 87.3106 55.4733 0.226745
360 2 91.3583 55.3026 0.20988
361 2 0.299172 59.3525 0.186458
362 2 4.06439 59.4776 0.0944701
363 2 7.91764 59.4635 0.0205345
364 2 11.9729 59.3921 0.383726
365 2 15.8312 59.147 0.392017
366 2 19.8718 59.2258 0.441107
367 2 23.8806 59.173 0.0820566
368 2 27.8809 59.538 0.131165
369 2 31.6897 59.3297 0.255094
370 2 35.8118 59.4031 0.342211
371 2 39.6368 59.4228 0.231541
372 2 43.4479 59.3491 0.123134
373 2 47.3767 59.235 0.259482
374 2 51.5089 59.1525 0.265437
375 2 55.3142 59.256 0.386291
376 2 59.4575 59.3446 0.216764
377 2 63.3406 59.2276 0.329801
378 2 67.4894 59.399 0.294969
379 2 71.2992 59.5379 0.164195
380 2 75.4635 59.41 0.0526405
381 2 79.3613 59.4622 0.139293
382 2 83.1734 59.4975 0.101134
383 2 87.3607 59.4093 0.237992
384 2 91.3365 59.4073 0.0838831
385 2 0.261328 63.3227 0.396895
386 2 4.15199 63.2558 0.215299
387 2 7.94298 63.3371 0.351446
388 2 12.0917 63.4072 0.289362
389 2 15.9955 63.3689 0.453588
390 2 19.8723 63.2438 0.256234
391 2 23.8197 63.2204 0.188917
392 2 27.8723 63.2846 0.293087
393 2 31.7818 63.1518 0.241359
394 2 35.8431 63.3738 0.212006
395 2 39.7132 63.2914 0.144056
396 2 43.4602 63.4068 0.400501
397 2 47.4453 63.09 0.260464
398 2 51.507 63.1662 0.344385
399 2 55.5559 63.1021 0.0825147
400 2 59.4686 63.0851 0.238696
401 2 63.4489 63.3132 0.181942
402 2 67.3432 63.3236 0.365678
403 2 71.4477 63.2919 0.364833
404 2 75.2766 63.4208 0.191112
405 2 79.3253 63.3954 0.278553
406 2 83.0379 63.3791 0.229451
407 2 87.2103 63.4716 0.263903
408 2 91.1449 63.3262 0.333169
409 2 0.0344626 67.367 0.294609
410 2 3.90424 67.2301 0.209651
411 2 7.93656 67.2162 0.418072
412 2 12.0136 67.27 0.434707
413 2 15.8944 67.2583 0.505099
414 2 19.8249 67.283 0.190142
415 2 23.7947 67.3311 0.317199
416 2 27.9261 67.1012 0.471615
417 2 31.7556 67.1892 0.32232
418 2 35.5535 67.2683 0.284403
419 2 39.6295 67.2235 0.153372
420 2 43.5336 67.1403 0.358247
421 2 47.3333 67.1521 0.247676
422 2 51.4405 67.3951 0.345925
423 2 55.3658 67.045 0.22888
424 2 59.563 67.1182 0.301444
425 2 63.4104 67.2109 0.399906
426 2 67.4364 67.3024 0.213336
427 2 71.6144 67.3874 0.0781262
428 2 75.3017 67.3079 0.272168
429 2 79.2468 67.3521 0.152484
430 2 83.0585 67.3114 0.460595
431 2 87.1324 67.5082 0.205665
432 2 91.0639 67.302 0.299776
433 2 0.11547 71.1415 0.309689
434 2 4.02414 71.2765 0.44181
435 2 8.01865 71.2312 0.34569
436 2 11.9483 71.2978 0.397158
437 2 15.8969 71.2505 0.404337
438 2 20.0316 71.2556 0.100295
439 2 23.8428 71.2924 0.355645
440 2 27.8022 71.2593 0.373121
441 2 31.786 71.2656 0.140716
442 2 35.8033 71.2177 0.422349
443 2 39.5122 71.4407 0.130475
444 2 43.5751 71.2373 0.405154
445 2 47.5793 71.0178 0.214283
446 2 51.5073 71.1079 0.279747
447 2 55.4476 70.9697 0.0723625
448 2 59.4196 71.2563 0.100287
449 2 63.4236 71.1857 0.393205
450 2 67.5136 71.3986 0.327749
451 2 71.2945 71.4597 0.148153
452 2 75.3078 71.5022 0.0972465
453 2 79.3766 71.3026 0.250994
454 2 83.0839 71.1602 0.152685
455 2 87.05 71.2851 0.3842
456 2 91.137 71.2628 0.26303
457 2 0.233765 75.185 0.345025
458 2 4.08957 75.2246 0.205006
459 2 8.17573 75.0836 0.24346
460 2 12.1809 75.2871 0.337496
461 2 15.9563 75.2794 0.327119
462 2 20.0007 75.2824 0.389272
463 2 23.8263 75.1793 0.354201
464 2 27.8163 75.1061 0.23462
465 2 31.8813 75.0801 0.111566
466 2 35.6732 75.309 0.266881
467 2 39.6657 75.2489 0.25358
468 2 43.5693 75.2324 0.372947
469 2 47.608 75.164 0.1728
470 2 51.6149 75.0847 0.0861247
471 2 55.5653 74.9098 0.147244
472 2 59.3304 75.1376 0.234025
473 2 63.3219 75.0042 0.568307
474 2 67.2523 75.2222 0.310586
475 2 71.2473 75.1755 0.345124
476 2 75.212 75.3376 0.288032
477 2 79.2419 75.1187 0.355523
478 2 83.2808 75.2711 0.478591
479 2 87.1666 75.1645 0.263064
480 2 91.1224 75.3278 0.231001
481 2 0.314893 79.2816 0.167647
482 2 3.9959 79.2373 0.420754
483 2 8.08736 79.2411 0.399286
484 2 11.9868 79.0774 0.253618
485 2 15.9022 79.331 0.292638
486 2 20.0087 79.0147 0.481789
487 2 23.9623 79.2358 0.206887
488 2 27.7602 78.9763 0.319424
489 2 31.5458 79.1259 0.256403
490 2 35.8222 79.0537 0.147524
491 2 39.6508 79.2754 0.23497
492 2 43.6541 79.1599 0.308054
493 2 47.5654 79.2319 0.332045
494 2 51.4929 79.1491 0.112944
495 2 55.5345 78.9497 0.206144
496 2 59.3051 79.3028 0.320487
497 2 63.1922 79.0777 0.399663
498 2 67.206 79.2786 0.416884
499 2 71.3157 79.1079 0.453031
500 2 75.1781 79.0726 0.300022
501 2 79.3224 79.2101 0.418864
502 2 83.1255 79.2599 0.381477
503 2 87.284 79.1312 0.441371
504 2 91.2327 78.9671 0.273837
505 2 0.0487425 83.2376 0.211625
506 2 3.98226 83.0067 0.383804
507 2 8.00887 83.048 0.441667
508 2 11.9132 83.2659 0.185889
509 2 15.8226 83.1566 0.284081
510 2 19.9803 82.8806 0.14697
511 2 23.8238 83.2138 0.346564
512 2 27.8951 83.0867 0.120112
513 2 31.8091 83.1086 0.319602
514 2 35.705 83.0864 0.245305
515 2 39.5039 83.0169 0.204966
516 2 43.3844 82.9437 0.210475
517 2 47.3552 83.2398 0.432288
518 2 51.6131 83.144 0.256644
519 2 55.6185 82.975 0.277882
520 2 59.6399 83.2396 0.234779
521 2 63.5198 83.2949 0.317085
522 2 67.3621 83.1489 0.396066
523 2 71.3668 83.3865 0.19616
524 2 75.3592 83.0879 0.359039
525 2 79.3048 83.2523 0.135985
526 2 83.3498 83.0589 0.143642
527 2 87.2884 83.0643 0.279685
528 2 91.2293 83.0118 0.443255
529 2 0.0585795 86.9743 0.387896
530 2 3.97064 87.2289 0.2772
531 2 7.89092 87.0393 0.377671
532 2 12.0755 87.2359 0.297022
533 2 15.9568 86.9876 0.175878
534 2 19.855 86.9292 0.166115
535 2 23.7986 87.0422 0.226878
536 2 27.9252 87.0194 0.244502
537 2 31.7774 87.1489 0.158055
538 2 35.5462 87.0464 0.198072
539 2 39.5534 87.1818 0.319333
540 2 43.5248 86.9651 0.260083
541 2 47.6213 87.219 0.443846
542 2 51.7174 87.2963 0.199298
543 2 55.5035 87.0097 0.331839
544 2 59.4081 87.0183 0.328745
545 2 63.5333 87.0915 0.192468
546 2 67.3166 87.1558 0.129869
547 2 71.2731 87.135 0.163336
548 2 75.4473 87.2663 0.184344
549 2 79.5158 87.2352 0.0559216
550 2 83.4362 87.0661 0.0694058
551 2 87.1149 86.9912 0.208966
552 2 91.2751 87.1607 0.350591
553 2 0.234843 91.1057 0.294719
554 2 3.8719 91.0245 0.287216
555 2 7.80035 90.8644 0.39532
556 2 11.9153 90.938 0.390999
557 2 15.7166 91.0809 0.307442
558 2 19.8517 91.0489 0.360056
559 2 23.6562 90.8673 0.298866
560 2 27.6862 90.9334 0.193948
561 2 31.7195 91.064 0.201739
562 2 35.5661 90.9979 0.163163
563 2 39.6291 90.8628 0.185354
564 2 43.6095 91.2845 0.208917
565 2 47.5943 90.8556 0.266912
566 2 51.7434 91.1013 0.249225
567 2 55.7855 91.0154 0.224214
568 2 59.6374 91.1554 0.0437003
569 2 63.5469 91.1344 0.107688
570 2 67.503 91.0765 0.0277622
571 2 71.5131 90.979 0.137075
572 2 75.363 91.1347 0.163266
573 2 79.3409 91.1365 0.433032
574 2 83.1072 91.2278 0.113984
575 2 87.0999 91.1765 0.342296
576 2 91.0275 90.9718 0.445732
577 2 0.189513 0.0861937 4.15026
578 2 4.14945 0.0831063 4.23542
579 2 8.01294 0.168455 4.19135
580 2 11.8916 0.162061 4.14982
581 2 15.897 0.161967 4.16822
582 2 19.9679 0.041647 4.20591
583 2 23.9896 -0.02122 4.19687
584 2 27.8991 0.0227627 4.30931
585 2 31.9507 0.11993 4.00246
586 2 35.6866 0.0702688 4.30345
587 2 39.6508 -0.116023 4.19548
588 2 43.6487 0.046984 4.19547
589 2 47.8769 0.0669849 4.23579
590 2 51.7265 0.0454744 4.26696
591 2 55.6807 0.113793 4.1342
592 2 59.6185 0.109579 4.12737
593 2 63.6435 0.148136 4.16891
594 2 67.5925 0.174779 4.14675
595 2 71.4784 0.0227274 4.19179
596 2 75.4629 -0.00649092 4.15444
597 2 79.4163 0.0614124 4.19701
598 2 83.3279 -0.138328 4.12945
599 2 87.0473 -0.172018 4.28238
600 2 91.0053 0.0669762 4.12013
601 2 0.387255 4.01863 4.0922
602 2 4.09716 4.02451 4.37361
603 2 8.10474 3.92099 4.34951
604 2 11.9148 3.9391 4.38027
605 2 15.9587 4.0227 4.08184
606 2 19.9503 3.97338 3.97049
607 2 23.7412 3.91688 4.22442
608 2 27.6107 3.94812 4.26682
609 2 31.7796 3.84418 4.1689
610 2 35.8072 4.01038 4.33413
611 2 39.7645 4.00408 4.2612
612 2 43.7245 3.92144 4.32549
613 2 47.7865 3.99333 4.20273
614 2 51.6668 3.94658 4.20192
615 2 55.8368 3.97676 4.15984
616 2 59.4883 4.09016 4.31896
617 2 63.5019 4.2018 4.31052
618 2 67.5313 4.01775 4.23831
619 2 71.4437 4.01819 4.04257
620 2 75.2621 3.97366 4.46542
621 2 79.3169 3.99334 3.99538
622 2 83.2714 3.83561 4.25269
623 2 87.1656 3.89852 4.21349
624 2 91.1055 4.13893 4.14833
625 2 0.0784496 7.94557 4.37021
626 2 4.15393 8.03696 4.23942
627 2 7.89862 7.98866 4.24661
628 2 11.9144 7.80538 4.28612
629 2 16.0087 7.88589 4.29126
630 2 19.8686 7.97348 4.33669
631 2 23.8376 7.87168 4.34944
632 2 27.7558 8.00769 4.29306
633 2 31.7844 7.89396 4.24477
634 2 35.6839 8.1395 4.19488
635 2 39.6796 7.87418 4.29673
636 2 43.6116 7.8201 4.18069
637 2 47.6318 7.89918 4.06134
638 2 51.5352 7.76998 4.26499
639 2 55.6435 8.15901 4.25229
640 2 59.676 7.99652 4.29361
641 2 63.5966 8.24319 4.22391
642 2 67.4172 8.15386 4.24237
643 2 71.4129 7.96437 4.12234
644 2 75.3784 7.9996 4.37404
645 2 79.3503 7.97403 4.21775
646 2 83.287 7.92866 4.34236
647 2 87.1989 7.98322 4.35097
648 2 91.1082 7.8262 4.19023
649 2 0.186592 11.8043 4.06847
650 2 4.07916 12.0584 4.35889
651 2 8.01726 12.2449 4.16544
652 2 12.0394 11.8943 4.07052
653 2 15.7465 11.7513 4.07379
654 2 19.623 11.8683 4.25892
655 2 23.6711 11.8438 4.121
656 2 27.5286 11.8839 4.25589
657 2 31.8522 11.7994 4.14008
658 2 35.7149 11.8748 4.30109
659 2 39.7085 11.8034 4.16797
660 2 43.7657 11.7702 4.27229
661 2 47.6611 12.0252 4.17196
662 2 51.7755 11.7927 4.29397
663 2 55.6275 12.0941 4.32248
664 2 59.5778 12.0144 4.11888
665 2 63.5324 12.1947 4.24739
666 2 67.4657 12.038 4.03025
667 2 71.6154 11.9738 4.26749
668 2 75.499 11.8042 4.2172
669 2 79.2923 12.0855 4.13018
670 2 83.2899 11.8498 4.28889
671 2 87.2087 11.7809 4.25827
672 2 91.2812 11.8563 4.24476
673 2 0.12951 16.0881 4.24968
674 2 3.99086 15.9787 4.28691
675 2 8.12026 15.9748 4.15587
676 2 12.0265 15.8581 4.5369
677 2 15.8507 15.9492 4.2431
678 2 19.723 15.8274 4.01566
679 2 23.7729 15.9352 4.51426
680 2 27.4888 15.7114 4.16514
681 2 31.7248 15.7158 4.17176
682 2 35.7504 15.759 4.28842
683 2 39.6065 15.8786 4.45239
684 2 43.5918 15.6391 4.20018
685 2 47.6056 15.8797 4.13362
686 2 51.5943 15.745 4.44385
687 2 55.4852 15.6978 4.47593
688 2 59.5922 15.8577 4.27283
689 2 63.3934 16.0572 4.16082
690 2 67.7678 15.7139 4.08385
691 2 71.2879 15.9492 4.00551
692 2 75.1672 16.0344 4.25452
693 2 79.4567 16.0583 4.23999
694 2 83.333 15.885 4.22057
695 2 87.0702 15.6904 4.18972
696 2 91.1459 15.906 4.33365
697 2 0.115664 19.9054 4.39149
698 2 4.04529 20.0195 4.36083
699 2 8.08887 19.8335 4.22006
700 2 11.8248 19.8124 4.25229
701 2 15.8744 20.0336 4.22428
702 2 19.734 19.482 4.38391
703 2 23.7815 19.9923 4.32673
704 2 27.6127 19.7181 4.08131
705 2 31.749 20.0471 4.1996
706 2 35.4836 19.5975 4.24954
707 2 39.2787 19.7445 4.3413
708 2 43.4892 19.9732 4.02479
709 2 47.8237 19.7514 4.27491
710 2 51.6682 19.8126 4.2607
711 2 55.7765 20.0586 4.31013
712 2 59.6968 19.9537 3.96989
713 2 63.4308 19.891 4.15385
714 2 67.548 19.9736 4.19696
715 2 71.4026 19.7461 4.21084
716 2 75.3187 19.8219 4.23798
717 2 79.233 19.9338 4.17097
718 2 83.2765 19.8817 4.17473
719 2 87.2349 19.7647 4.46165
720 2 91.0739 19.9551 4.1639
721 2 0.12119 23.8788 4.13306
722 2 3.99449 23.9955 4.16082
723 2 8.1849 23.8084 4.24847
724 2 12.0683 23.8783 4.33592
725 2 15.9496 23.6629 4.23196
726 2 19.9668 23.7913 4.16313
727 2 23.6769 23.9093 4.20073
728 2 27.5998 23.5552 4.07916
729 2 31.9539 23.815 4.25283
730 2 35.7255 24.0191 4.20712
731 2 39.4342 23.7342 4.30827
732 2 43.5141 23.7756 4.1627
733 2 47.4673 23.8483 4.33652
734 2 51.5058 23.8441 4.15645
735 2 55.6876 23.6444 4.25507
736 2 59.6551 23.7932 4.20127
737 2 63.5536 23.7756 4.19777
738 2 67.5868 23.8686 4.20192
739 2 71.3216 23.7062 4.29038
740 2 75.2426 23.8089 4.24196
741 2 79.3786 23.8008 4.20712
742 2 83.2513 23.8874 4.242
743 2 87.051 23.788 4.15621
744 2 91.0697 23.8406 4.41745
745 2 0.00284582 27.8904 4.22002
746 2 4.10648 27.844 4.33657
747 2 7.88344 27.8369 4.24836
748 2 11.8877 27.843 4.2673
749 2 16.1463 27.7541 4.17792
750 2 20.02 27.691 4.19394
751 2 23.7252 27.5467 4.26537
752 2 27.693 27.4957 4.23395
753 2 31.7219 27.7621 4.37579
754 2 35.8593 27.7323 4.20043
755 2 39.5495 27.7241 4.2637
756 2 43.5523 27.6908 4.28327
757 2 47.4209 27.7748 4.26727
758 2 51.4856 27.5296 4.24312
759 2 55.6564 27.6728 4.24603
760 2 59.5496 27.7715 4.186
761 2 63.3024 27.6753 4.17406
762 2 67.6317 27.8773 4.1578
763 2 71.4741 27.6031 4.30688
764 2 75.1828 27.581 4.20639
765 2 79.3998 27.5759 4.23887
766 2 83.3849 27.6126 4.236
767 2 87.3533 27.9533 4.07108
768 2 91.2788 27.7404 4.2878
769 2 0.217562 31.7158 4.17266
770 2 4.12319 31.7188 3.94047
771 2 7.95427 31.9044 4.00026
772 2 12.1874 31.6679 4.29785
773 2 16.04 31.761 4.32754
774 2 19.8828 31.6434 4.33689
775 2 23.8558 31.6733 4.3714
776 2 27.8948 31.5496 4.24901
777 2 31.9315 31.622 4.16257
778 2 35.6116 31.7385 4.26978
779 2 39.68 31.6405 4.25819
780 2 43.8661 31.7655 4.28579
781 2 47.6062 31.7875 4.26129
782 2 51.5508 31.7082 4.15682
783 2 55.6534 31.7055 4.16705
784 2 59.6585 31.7889 4.21177
785 2 63.6264 31.7468 4.17144
786 2 67.5275 31.7341 4.30731
787 2 71.5223 31.5362 4.23912
788 2 75.3909 31.5386 4.42043
789 2 79.3377 31.6416 4.22313
790 2 83.4012 31.6579 4.28256
791 2 87.3837 31.6814 4.23206
792 2 91.1001 31.9075 4.0583
793 2 0.295252 35.6728 3.93904
794 2 3.98655 35.752 4.22573
795 2 8.13178 35.6164 4.28716
796 2 11.8567 35.5335 4.07699
797 2 15.9644 35.3891 4.25368
798 2 19.7721 35.864 4.27572
799 2 23.7388 35.7783 4.274
800 2 27.772 35.5566 4.27401
801 2 31.9845 35.6947 4.30452
802 2 35.9005 35.7565 4.27434
803 2 39.7073 35.6487 4.12921
804 2 43.5617 35.5271 4.20905
805 2 47.4477 35.4596 4.35249
806 2 51.3654 35.6249 4.62577
807 2 55.708 35.7593 4.15574
808 2 59.5113 35.6672 4.12513
809 2 63.467 35.5073 4.18708
810 2 67.6648 35.6394 4.19606
811 2 71.2838 35.5559 4.18018
812 2 75.3133 35.5812 4.31914
813 2 79.408 35.7618 4.18886
814 2 83.178 35.753 4.31812
815 2 87.0968 35.6133 4.23983
816 2 91.1567 35.6387 4.16658
817 2 0.101972 39.6072 4.15767
818 2 4.07591 39.6286 4.15833
819 2 8.11008 39.6862 4.09652
820 2 12.1672 39.5999 4.12164
821 2 15.9072 39.623 4.18824
822 2 20.0177 39.67 4.2864
823 2 23.8212 39.6787 4.20035
824 2 27.8996 39.5512 4.21613
825 2 31.6267 39.5607 4.25582
826 2 35.7191 39.5934 4.09399
827 2 39.7184 39.548 4.32421
828 2 43.6358 39.6276 4.18058
829 2 47.5774 39.7723 4.38953
830 2 51.5807 39.7254 4.30505
831 2 55.4993 39.5556 4.11598
832 2 59.5921 39.6972 4.29386
833 2 63.4827 39.4867 4.09693
834 2 67.3968 39.4881 4.27357
835 2 71.6975 39.5844 4.06779
836 2 75.3474 39.6921 4.27879
837 2 79.1622 39.4056 4.28037
838 2 83.373 39.6802 4.19349
839 2 87.2236 39.5463 4.19009
840 2 91.0311 39.6539 4.29011
841 2 -0.0796431 43.6323 4.33169
842 2 3.93873 43.6577 4.02585
843 2 7.82514 43.6291 4.18845
844 2 11.618 43.6319 4.14011
845 2 15.8645 43.716 4.26019
846 2 19.777 43.5315 4.33666
847 2 23.7705 43.5291 4.26253
848 2 28.0659 43.8272 4.14391
849 2 31.732 43.7514 4.24948
850 2 35.747 43.5455 4.3101
851 2 39.8579 43.5389 4.24564
852 2 43.3998 43.685 4.34465
853 2 47.4608 43.7812 4.19975
854 2 51.6254 43.7411 4.28261
855 2 55.3225 43.5048 4.27463
856 2 59.488 43.3764 4.33756
857 2 63.5916 43.4381 4.15672
858 2 67.4926 43.3485 4.31086
859 2 71.3332 43.6245 4.12535
860 2 75.2333 43.6446 4.24404
861 2 79.4568 43.831 4.03942
862 2 83.2241 43.4233 4.10855
863 2 87.315 43.6434 4.29836
864 2 91.1742 43.427 3.96938
865 2 0.187878 47.7235 4.18819
866 2 4.0752 47.5882 4.34794
867 2 7.74887 47.4404 3.89186
868 2 11.9188 47.4987 4.27612
869 2 15.7772 47.6032 4.36571
870 2 19.9284 47.4674 4.16263
871 2 23.7512 47.4247 4.11857
872 2 27.6203 47.6422 4.22404
873 2 31.734 47.6317 4.31185
874 2 35.6162 47.4614 4.34935
875 2 39.613 47.6701 4.13071
876 2 43.5985 47.4773 4.3508
877 2 47.5525 47.7707 4.19924
878 2 51.4315 47.5205 4.2338
879 2 55.4542 47.5317 4.34376
880 2 59.4874 47.347 4.19562
881 2 63.4563 47.4619 4.23294
882 2 67.507 47.4549 3.9749
883 2 71.4354 47.4179 4.09518
884 2 75.3807 47.4998 4.31255
885 2 79.2765 47.5379 4.18126
886 2 83.3435 47.6019 4.23164
887 2 87.1945 47.5022 4.10328
888 2 91.2751 47.3623 4.15624
889 2 -0.0342177 51.6989 4.13719
890 2 3.86579 51.4813 4.2093
891 2 8.16963 51.6379 4.14966
892 2 12.0215 51.3872 4.33791
893 2 16.0267 51.4429 4.15656
894 2 19.8139 51.6478 4.24774
895 2 23.8678 51.5405 4.34384
896 2 27.7746 51.7005 4.12632
897 2 31.5385 51.5097 4.25035
898 2 35.6421 51.4881 4.22477
899 2 39.5686 51.3511 4.25815
900 2 43.4654 51.6656 4.23678
901 2 47.5682 51.4095 4.24483
902 2 51.3718 51.4195 4.24792
903 2 55.4198 51.6575 4.29996
904 2 59.4386 51.3702 4.24944
905 2 63.3503 51.4592 4.26508
906 2 67.4326 51.3981 4.12282
907 2 71.3412 51.4325 4.20153
908 2 75.4214 51.5029 4.07199
909 2 79.385 51.6776 4.28036
910 2 83.3191 51.4107 4.18585
911 2 87.2127 51.5465 4.29957
912 2 91.1649 51.4199 4.21163
913 2 -0.00789298 55.5825 4.26611
914 2 4.13637 55.4267 4.08947
915 2 7.92215 55.3866 4.29009
916 2 11.7923 55.4511 4.27063
917 2 15.8672 55.507 4.2905
918 2 19.8995 55.428 4.27221
919 2 23.94 55.4579 4.15516
920 2 27.7555 55.3324 4.32012
921 2 31.904 55.3628 4.16317
922 2 35.8554 55.3999 4.13386
923 2 39.7274 55.5218 4.27852
924 2 43.4605 55.4616 4.29263
925 2 47.3355 55.4117 4.28089
926 2 51.1997 55.4581 4.33334
927 2 55.5226 55.4469 4.21901
928 2 59.4587 55.2956 4.30267
929 2 63.5498 55.4286 4.14475
930 2 67.4425 55.4904 4.06788
931 2 71.4393 55.3357 4.13412
932 2 75.1742 55.5157 4.22496
933 2 79.2646 55.5707 4.19236
934 2 83.2478 55.5931 4.13522
935 2 87.0759 55.4538 4.22792
936 2 91.1091 55.6291 4.21329
937 2 0.219136 59.4163 4.21736
938 2 4.16462 59.4273 4.14097
939 2 7.96511 59.3402 4.38429
940 2 11.9114 59.4238 4.11507
941 2 15.9062 59.4497 4.37655
942 2 19.9859 59.3264 4.41116
943 2 23.9079 59.4485 4.33975
944 2 27.8625 59.2522 4.28587
945 2 31.9138 59.3002 4.26733
946 2 35.7821 59.5109 4.28373
947 2 39.8242 59.2148 4.18583
948 2 43.7261 59.3986 4.08188
949 2 47.5076 59.4125 4.37469
950 2 51.44 59.4188 4.28908
951 2 55.2841 59.4921 4.20333
952 2 59.461 59.2582 4.25614
953 2 63.3975 59.3657 4.08508
954 2 67.3811 59.4489 4.09814
955 2 71.4106 59.354 4.04919
956 2 75.5929 59.356 4.24584
957 2 79.4322 59.4307 4.04521
958 2 83.3528 59.443 4.45405
959 2 87.133 59.5277 4.13358
960 2 91.195 59.5258 4.21982
961 2 0.0844137 63.2511 4.13282
962 2 4.00629 63.4594 4.28238
963 2 8.11342 63.282 4.2356
964 2 11.8814 63.3788 4.49534
965 2 15.88 63.3339 4.44706
966 2 19.699 63.2381 4.26236
967 2 23.9827 63.2352 4.13272
968 2 27.7544 63.2985 4.29224
969 2 31.7743 63.19 4.13821
970 2 35.6756 63.2701 4.31578
971 2 39.7989 63.3322 4.21645
972 2 43.4954 63.3664 4.41359
973 2 47.6771 63.3839 4.30958
974 2 51.4515 63.5146 4.22492
975 2 55.5172 63.3697 4.11047
976 2 59.4351 63.3697 4.27415
977 2 63.4271 63.3112 4.36697