ITEM: TIMESTEP
1503100
ITEM: NUMBER OF ATOMS
16875
ITEM: BOX BOUNDS xy xz yz pp pp pp
0.0000000000000000e+00 5.9369999999999997e+01 0.0000000000000000e+00
0.0000000000000000e+00 5.9369999999999997e+01 0.0000000000000000e+00
3.2093621863725019e-01 6.0045482781365884e+01 0.0000000000000000e+00
ITEM: ATOMS id type x y z
1 2 59.5693 0.115329 9.74642
2 2 4.15374 0.120031 9.8623
3 2 8.10799 0.224608 9.67894
4 2 11.8934 59.5411 9.84682
5 2 15.8805 0.173194 9.87185
6 2 19.7172 0.132919 9.83471
7 2 23.7694 -0.0380916 9.9334
8 2 27.7798 0.0648714 9.86552
9 2 31.7591 -0.10089 9.70472
10 2 35.8729 0.0862983 9.88379
11 2 39.5776 0.0603916 9.92519
12 2 43.6285 -0.0929397 9.83276
13 2 47.4508 0.122029 9.66748
14 2 51.5188 0.0638561 9.71373
15 2 55.6077 0.0191706 9.93088
16 2 59.43 4.12191 10.0274
17 2 4.10876 4.10281 9.89192
18 2 7.97302 4.05973 9.94375
19 2 11.916 4.06132 9.8962
20 2 15.8844 4.04503 9.83313
21 2 20.0633 3.94152 9.71934
22 2 24.1109 3.90868 9.64198
23 2 28.0518 3.94447 9.56046
24 2 31.9474 3.99579 9.82923
25 2 35.7814 4.00088 9.95432
26 2 39.7526 4.11102 9.83046
27 2 43.779 3.86504 9.73492
28 2 47.7298 3.73949 9.76807
29 2 51.3623 4.09534 9.73223
30 2 55.4461 4.16668 9.91138
31 2 59.6239 8.14257 9.65252
32 2 4.15208 8.02765 10.0448
33 2 8.04308 8.1459 9.90331
34 2 12.1119 8.0083 9.84306
35 2 15.9821 7.93221 9.95041
36 2 19.8722 8.02849 9.81836
37 2 23.8916 7.94919 9.86786
38 2 27.8356 7.91932 9.86929
39 2 31.9591 8.00358 9.83906
40 2 35.7245 7.94562 9.99312
41 2 39.8276 7.91559 9.95384
42 2 43.7419 8.05834 9.80024
43 2 47.6834 7.91116 9.90807
44 2 51.513 8.05147 9.54323
45 2 55.4565 8.03941 10.0297
46 2 0.127781 12.0456 9.82124
47 2 4.17042 12.0144 9.93139
48 2 8.0268 12.1272 9.93004
49 2 12.0341 11.9445 9.79915
50 2 15.8422 11.8978 9.8922
51 2 19.9274 11.9398 9.93031
52 2 23.8801 11.8007 10.0446
53 2 27.8857 11.9382 9.84993
54 2 31.6188 11.7871 9.82777
55 2 35.6307 11.7612 9.84691
56 2 39.8557 12.0213 9.97678
57 2 43.4944 12.0578 9.82571
58 2 47.4928 11.9687 9.76668
59 2 51.4837 11.8665 9.73799
60 2 55.5507 11.9441 9.95724
61 2 0.0135898 15.6864 10.0221
62 2 4.00088 16.0376 9.85354
63 2 7.90401 16.0348 9.88172
64 2 11.8723 15.9258 9.80999
65 2 15.998 15.9825 9.75894
66 2 19.7785 16.1102 9.97062
67 2 23.8746 15.7371 9.89579
68 2 27.8953 15.9547 9.9264
69 2 31.8848 15.7779 9.89409
70 2 35.761 15.8109 9.84447
71 2 39.6097 15.7977 9.87331
72 2 43.7212 15.9611 9.83046
73 2 47.3994 15.9693 9.62978
74 2 51.4558 15.8198 9.73006
75 2 55.5908 15.5586 9.72062
76 2 59.3931 19.8275 9.94853
77 2 4.23472 19.7599 9.93575
78 2 8.05397 19.91 9.70868
79 2 11.9762 19.8518 9.69614
80 2 16.0454 19.8266 9.75618
81 2 20.0932 19.748 9.59605
82 2 23.8714 19.9486 9.59314
83 2 27.9924 19.8845 9.82406
84 2 31.8887 19.7328 9.64538
85 2 35.8587 19.7405 9.69443
86 2 39.6861 19.9046 9.68911
87 2 43.5814 19.9578 9.97361
88 2 47.634 19.8977 9.79953
89 2 51.4153 19.9163 9.6958
90 2 55.3984 19.6743 9.69404
91 2 59.6096 23.6043 9.78707
92 2 4.03691 23.8001 9.662
93 2 8.18345 23.7311 9.65476
94 2 12.0294 24.021 9.98257
95 2 16.0177 23.7929 9.75805
96 2 20.0171 23.8991 9.72338
97 2 23.8445 23.8078 9.69937
98 2 27.7934 23.6439 9.90117
99 2 32.0529 23.6781 9.5935
100 2 35.7909 23.6881 9.69663
101 2 39.7884 23.7495 9.80333
102 2 43.6975 23.8507 9.58941
103 2 47.5467 23.8471 9.76523
104 2 51.3544 23.975 9.82324
105 2 55.2672 23.6771 9.80485
106 2 0.158219 27.6881 9.8534
107 2 4.01554 27.6166 9.91591
108 2 8.16082 27.8443 9.75468
109 2 12.0576 27.7279 9.96818
110 2 16.0595 27.9356 9.56482
111 2 20.108 27.7122 9.75784
112 2 23.9637 27.8803 9.76934
113 2 27.8979 27.5552 9.91586
114 2 31.9644 27.6669 10.0237
115 2 35.6331 27.6217 9.98161
116 2 39.594 27.7111 9.54373
117 2 43.6455 27.9268 9.75864
118 2 47.5048 27.8636 9.8892
119 2 51.6528 27.7632 9.80562
120 2 55.4855 27.5708 9.70895
121 2 -0.0208937 31.6214 9.7087
122 2 3.98058 31.4885 9.64354
123 2 7.98759 31.8384 9.72878
124 2 11.9634 31.8933 9.95811
125 2 15.9768 31.6407 9.65491
126 2 19.8214 31.7425 9.88482
127 2 23.9176 31.7323 9.8609
128 2 27.758 31.7011 9.73928
129 2 31.8295 31.5054 9.7921
130 2 35.5204 31.411 9.85106
131 2 39.774 31.6336 9.74777
132 2 43.6478 31.7879 9.77973
133 2 47.5084 31.7701 9.85833
134 2 51.6625 31.6134 9.77299
135 2 55.6822 31.7126 9.64329
136 2 59.5642 35.6329 9.7178
137 2 4.08873 35.5504 9.72413
138 2 7.84443 35.5417 9.85464
139 2 11.8737 35.6739 9.88301
140 2 15.9657 35.5515 9.84634
141 2 19.9707 35.6831 9.85415
142 2 24.0103 35.6184 9.8257
143 2 27.7664 35.5706 9.88503
144 2 31.7415 35.6412 10.0247
145 2 35.7033 35.5024 9.97814
146 2 39.7412 35.6917 9.87526
147 2 43.8923 35.5407 9.90308
148 2 47.738 35.4308 9.6306
149 2 51.5468 35.5014 9.73365
150 2 55.5203 35.616 9.73375
151 2 59.4407 39.493 9.70314
152 2 3.83999 39.6338 9.71407
153 2 7.85427 39.476 9.76142
154 2 11.8609 39.5809 9.68461
155 2 15.9516 39.7444 9.863
156 2 19.9576 39.6689 9.6979
157 2 23.7136 39.6138 9.96613
158 2 27.449 39.7406 9.8018
159 2 31.6835 39.5352 9.94029
160 2 35.6248 39.7127 9.7129
161 2 39.813 39.5914 9.72098
162 2 43.5534 39.4847 9.73856
163 2 47.5393 39.5635 9.80564
164 2 51.5281 39.4359 9.87135
165 2 55.4564 39.6829 9.82669
166 2 59.3008 43.4409 9.78079
167 2 3.98852 43.5839 9.87703
168 2 8.05318 43.4705 9.89158
169 2 12.0538 43.581 9.56981
170 2 15.7431 43.6571 9.58652
171 2 19.8513 43.7495 9.8829
172 2 23.7299 43.5481 9.84424
173 2 27.7095 43.6533 9.91462
174 2 31.8099 43.536 9.85841
175 2 35.7419 43.6764 9.59484
176 2 39.6238 43.7559 9.94421
177 2 43.6888 43.3128 9.71771
178 2 47.5455 43.5294 9.5313
179 2 51.2662 43.4419 9.8225
180 2 55.5147 43.6146 9.88689
181 2 59.3938 47.4783 9.83782
182 2 3.98645 47.5685 9.86925
183 2 7.9067 47.6014 9.6949
184 2 11.794 47.6922 9.77328
185 2 15.8756 47.6498 9.78805
186 2 19.8352 47.5411 9.91896
187 2 23.7069 47.6192 9.89343
188 2 27.7968 47.6392 9.84417
189 2 31.777 47.515 9.8646
190 2 35.6496 47.768 9.90543
191 2 39.8536 47.5374 9.8047
192 2 43.7069 47.4826 9.80598
193 2 47.6006 47.6721 9.82481
194 2 51.4223 47.5038 9.83326
195 2 55.5519 47.2756 9.64645
196 2 -0.0485364 51.5197 9.70228
197 2 4.11542 51.6365 9.77748
198 2 8.04278 51.6414 9.83501
199 2 11.8302 51.5672 9.73875
200 2 16.153 51.5223 9.7846
201 2 19.9798 51.6353 9.77944
202 2 23.715 51.6699 9.8236
203 2 27.6498 51.4122 9.74684
204 2 31.8247 51.8134 9.95243
205 2 35.8243 51.6068 10.0388
206 2 39.7337 51.4703 9.60333
207 2 43.8471 51.3342 9.86057
208 2 47.5679 51.6788 9.75806
209 2 51.6896 51.4057 9.72894
210 2 55.6076 51.5469 9.70093
211 2 59.3956 55.4691 9.96217
212 2 4.03105 55.5357 9.76828
213 2 8.13275 55.4061 9.68387
214 2 11.8046 55.5067 9.82483
215 2 15.8483 55.5676 9.85697
216 2 19.7723 55.4627 9.84729
217 2 23.8113 55.424 9.70921
218 2 27.6028 55.5535 9.89212
219 2 31.7491 55.5161 9.9732
220 2 35.8271 55.5161 9.96227
221 2 39.7576 55.1822 9.91422
222 2 43.555 55.3364 9.88171
223 2 47.6709 55.6985 9.73106
224 2 51.5424 55.4858 9.75515
225 2 55.3437 55.4225 9.88448
226 2 59.3658 0.121348 13.8074
227 2 4.08178 -0.225666 13.8372
228 2 8.04807 0.0224398 13.7024
229 2 11.873 59.4422 13.6938
230 2 15.8364 0.0736596 13.8823
231 2 19.66 0.0422285 13.7715
232 2 23.7561 -0.043253 13.7608
233 2 27.874 0.0873721 13.67
234 2 31.8334 -0.00510513 13.7851
235 2 35.8878 59.4614 13.687
236 2 39.7624 0.15348 13.7142
237 2 43.7481 0.000158633 13.7899
238 2 47.4901 59.6346 13.8394
239 2 51.5969 -0.0228028 13.9051
240 2 55.4396 -0.0357992 13.7949
241 2 59.5256 4.03044 13.9565
242 2 3.97724 4.01949 13.8276
243 2 7.92473 3.81569 14.1202
244 2 11.8997 4.15297 13.8631
245 2 16.0231 4.14581 13.7383
246 2 20.0102 4.09162 13.6441
247 2 23.828 3.8486 13.8619
248 2 28.0399 3.95469 13.7423
249 2 31.7787 3.79139 13.8763
250 2 35.61 4.09841 13.7635
251 2 40.0407 3.86367 13.7395
252 2 43.8745 4.03944 13.7305
253 2 47.8012 3.8498 13.7732
254 2 51.5478 4.07268 13.7055
255 2 55.3364 4.03508 13.7796
256 2 59.5997 8.0824 13.8929
257 2 3.9962 8.05266 13.8554
258 2 7.89531 8.02923 13.7096
259 2 11.9261 7.93555 13.7451
260 2 15.8426 7.99016 13.7762
261 2 19.8913 7.84114 13.8568
262 2 23.8707 7.73131 13.744
263 2 27.8759 7.89422 13.8028
264 2 31.845 7.94485 13.8673
265 2 35.6966 7.95498 13.7803
266 2 39.8839 7.84013 13.6582
267 2 43.6699 7.87814 13.8413
268 2 47.7395 7.80694 13.7917
269 2 51.4931 8.13402 13.7801
270 2 55.3246 7.96393 13.7542
271 2 0.0433122 11.8781 13.9924
272 2 4.18913 11.934 13.8317
273 2 8.09929 12.0171 13.7742
274 2 12.0733 12.0464 13.6243
275 2 15.8918 11.9933 13.8143
276 2 19.8434 11.8694 13.8142
277 2 23.9971 11.945 13.9512
278 2 27.7159 12.0652 13.8755
279 2 31.7156 11.7505 13.9334
280 2 35.9054 11.8283 13.6871
281 2 39.715 11.9623 13.8031
282 2 43.4217 11.8119 13.9083
283 2 47.5882 12.0316 13.717
284 2 51.5999 12.0064 13.8868
285 2 55.5555 11.8431 13.8105
286 2 59.3325 15.8874 13.9473
287 2 4.10245 15.8846 13.9336
288 2 8.22318 16.0221 13.7125
289 2 12.1123 15.9714 13.9477
290 2 16.0347 16.0124 13.7779
291 2 19.998 15.92 13.6992
292 2 23.7229 15.8751 13.9698
293 2 27.6603 15.8899 13.8155
294 2 31.7056 15.843 13.7891
295 2 35.8086 16.0277 13.7634
296 2 39.6871 15.9903 13.8587
297 2 43.8605 16.0505 13.7317
298 2 47.5588 15.8953 13.9319
299 2 51.3529 15.8883 13.6062
300 2 55.4852 15.8385 13.6585
301 2 59.4793 19.7524 13.701
302 2 4.19645 19.9734 13.6602
303 2 7.95395 19.9837 13.7247
304 2 12.1339 19.7919 13.7213
305 2 16.093 19.9263 13.677
306 2 19.9311 19.8569 13.7731
307 2 23.8512 19.9386 13.9117
308 2 27.7635 19.7947 13.6869
309 2 31.8482 19.6173 13.7548
310 2 35.8018 20.0028 13.795
311 2 39.7405 19.9554 13.6648
312 2 43.6693 20.1065 13.8688
313 2 47.6295 19.9002 13.8411
314 2 51.5103 19.8003 13.7548
315 2 55.5811 19.6481 13.7791
316 2 59.461 23.8709 13.641
317 2 4.20179 23.8202 13.7071
318 2 8.0166 23.8581 13.413
319 2 12.1466 23.7303 13.7411
320 2 16.0961 23.6898 13.7066
321 2 19.8142 23.9923 13.8944
322 2 23.8749 23.9139 13.7731
323 2 27.8191 23.8121 13.762
324 2 31.5884 23.7283 13.8583
325 2 35.7102 23.7362 13.6993
326 2 39.5756 23.807 13.7234
327 2 43.6565 23.9691 13.6086
328 2 47.6143 23.8215 13.8379
329 2 51.7505 23.6082 13.6852
330 2 55.4656 23.7494 13.8099
331 2 -0.0391701 27.7887 13.7442
332 2 4.11779 27.8369 13.7606
333 2 7.98133 27.8629 13.6696
334 2 11.9373 27.6322 13.7646
335 2 16.0103 27.7671 13.6464
336 2 19.825 27.8756 13.8697
337 2 23.9971 27.6142 13.7606
338 2 27.7527 27.6521 13.9274
339 2 31.5948 27.8079 13.7807
340 2 35.7748 27.7611 13.8181
341 2 39.5789 27.7606 13.6845
342 2 43.6317 27.9456 13.7102
343 2 47.6812 27.9808 13.8426
344 2 51.6468 27.8996 13.903
345 2 55.4679 27.666 13.8846
346 2 59.4033 31.7664 13.718
347 2 4.00489 31.7813 13.8337
348 2 8.06961 31.9074 13.8433
349 2 12.1954 31.7054 13.8122
350 2 15.8183 31.7083 13.7314
351 2 19.8997 31.615 13.6926
352 2 23.6982 31.502 13.7757
353 2 27.6625 31.781 13.7466
354 2 31.7125 31.8586 13.8567
355 2 35.8032 31.7329 13.7305
356 2 39.8042 31.7091 13.4708
357 2 43.5943 31.7835 13.8752
358 2 47.7608 31.6992 13.8407
359 2 51.6227 31.7748 13.8208
360 2 55.6685 31.7847 13.7038
361 2 0.229125 35.548 13.7339
362 2 4.09521 35.4702 13.6527
363 2 7.97911 35.8721 13.84
364 2 11.9599 35.8202 13.7782
365 2 15.6609 35.8002 13.7419
366 2 19.6981 35.4545 13.8398
367 2 23.8337 35.6114 13.8076
368 2 27.7744 35.7798 13.897
369 2 31.8168 35.844 13.8976
370 2 35.8688 35.5578 13.4535
371 2 39.4551 35.8111 13.7699
372 2 43.6642 35.6639 13.8502
373 2 47.5741 35.6418 13.7932
374 2 51.6693 35.8149 13.8836
375 2 55.5026 35.7309 13.808
376 2 59.5677 39.404 13.8081
377 2 3.94986 39.7846 13.6595
378 2 8.14653 39.8171 13.7421
379 2 11.9864 39.6632 13.574
380 2 15.9021 39.8207 13.6463
381 2 19.8712 39.6909 13.6995
382 2 23.5383 39.6858 13.7671
383 2 27.5071 39.8112 13.9737
384 2 31.8314 39.7009 13.866
385 2 35.6917 39.6679 13.7438
386 2 39.6481 39.6427 13.7684
387 2 43.6217 39.5716 13.8387
388 2 47.4289 39.5826 13.6646
389 2 51.4053 39.6381 13.7011
390 2 55.7342 39.649 13.7964
391 2 0.135806 43.656 13.762
392 2 4.08207 43.5476 13.8689
393 2 7.70291 43.6505 13.7985
394 2 11.7649 43.7917 13.6592
395 2 15.6047 43.4963 13.6982
396 2 19.8759 43.7778 13.7769
397 2 23.7429 43.8161 13.8908
398 2 27.6775 43.5926 13.9279
399 2 31.6519 43.5401 13.8081
400 2 35.87 43.5828 13.7676
401 2 39.6563 43.6824 13.881
402 2 43.6978 43.4096 13.8475
403 2 47.5134 43.5173 13.5778
404 2 51.4923 43.4871 13.7703
405 2 55.443 43.5138 13.784
406 2 59.4578 47.6653 13.8001
407 2 3.81087 47.6954 13.6628
408 2 7.90997 47.5639 13.7405
409 2 12.0119 47.6723 13.6988
410 2 15.9193 47.5604 13.6951
411 2 19.9648 47.5792 13.8865
412 2 23.8299 47.776 13.7091
413 2 28.0943 47.5608 13.9484
414 2 31.8728 47.4648 13.7122
415 2 35.7971 47.7485 13.8162
416 2 39.7814 47.383 13.938
417 2 43.7827 47.531 13.9108
418 2 47.6636 47.5173 13.7873
419 2 51.518 47.6091 13.6192
420 2 55.4809 47.3949 13.8564
421 2 59.425 51.5349 13.8851
422 2 4.00769 51.6227 13.6256
423 2 8.02988 51.46 13.9493
424 2 11.9713 51.6214 13.8582
425 2 15.9428 51.6092 13.7647
426 2 19.8635 51.6814 13.6605
427 2 23.6933 51.5262 14.0186
428 2 27.7102 51.5129 13.8549
429 2 31.4268 51.5747 13.7425
430 2 35.5886 51.4195 13.8497
431 2 39.6862 51.5075 13.8494
432 2 43.6152 51.5297 13.9744
433 2 47.7671 51.6182 13.7584
434 2 51.6365 51.4086 13.5853
435 2 55.5612 51.3021 13.7034
436 2 59.534 55.3208 13.9013
437 2 4.16771 55.5399 13.6575
438 2 7.91585 55.3027 13.7372
439 2 11.9704 55.6847 13.8648
440 2 15.6515 55.5819 13.871
441 2 19.6078 55.6258 13.9269
442 2 23.8098 55.4817 13.9686
443 2 27.6008 55.5505 13.8693
444 2 31.6099 55.3186 13.7284
445 2 35.83 55.4462 13.842
446 2 39.8829 55.5662 13.6382
447 2 43.4681 55.4478 13.6821
448 2 47.6735 55.5117 13.7782
449 2 51.5161 55.4871 13.7503
450 2 55.5351 55.5283 13.8386
451 2 59.4448 -0.0299185 17.7501
452 2 3.82158 0.0978776 17.8253
453 2 7.77536 59.4865 17.8095
454 2 11.7695 0.288458 17.7383
455 2 15.9424 0.256257 17.693
456 2 19.9217 0.220281 17.7075
457 2 23.8648 -0.105804 17.8533
458 2 27.8172 0.00560768 17.5877
459 2 31.7314 0.02086 17.8697
460 2 35.6078 0.0920599 17.7313
461 2 39.5457 0.199095 17.6981
462 2 43.5887 59.5459 17.7824
463 2 47.586 0.0539672 17.7303
464 2 51.4101 0.11422 17.8973
465 2 55.544 0.0767916 17.8614
466 2 59.4062 4.15188 17.6475
467 2 3.82704 3.99692 17.8184
468 2 7.7723 4.20694 17.856
469 2 11.7312 4.26988 17.845
470 2 16.1201 4.27665 17.5527
471 2 20.0653 4.00023 17.8196
472 2 23.9776 3.85154 17.7646
473 2 27.8293 3.92661 17.7404
474 2 31.8061 4.01467 17.6833
475 2 35.7571 4.20083 17.8566
476 2 39.6521 4.07793 17.781
477 2 43.772 4.14387 17.6526
478 2 47.5182 4.06139 17.7264
479 2 51.4026 4.23053 17.9888
480 2 55.6277 4.38117 17.6877
481 2 59.5197 7.97183 17.8365
482 2 4.09238 7.89441 17.8835
483 2 8.16192 8.20465 17.8148
484 2 11.8492 8.21972 17.7965
485 2 15.8682 8.2408 17.5382
486 2 19.8772 8.04217 17.6484
487 2 23.7591 7.99027 17.7048
488 2 27.7313 7.91993 17.6582
489 2 31.8551 7.88573 17.6855
490 2 35.7294 8.15816 17.8815
491 2 39.5072 7.99031 17.9171
492 2 43.4558 7.9934 17.6413
493 2 47.3661 8.10236 17.6539
494 2 51.3564 8.32138 17.609
495 2 55.49 8.14769 18.0025
496 2 59.4547 12.0891 17.7574
497 2 4.13621 11.983 17.8216
498 2 8.12312 12.0409 17.6427
499 2 11.967 12.0511 17.7717
500 2 16.0214 11.8131 17.8204
501 2 19.8832 11.9177 17.852
502 2 23.7142 11.9412 17.7094
503 2 27.7197 12.0464 17.7954
504 2 31.8847 11.9645 17.7777
505 2 35.857 11.7586 17.6807
506 2 39.6349 12.0495 17.7037
507 2 43.6133 12.0923 17.9161
508 2 47.5623 11.8449 17.8131
509 2 51.4287 11.996 18.061
510 2 55.5076 11.906 17.8243
511 2 59.6992 15.959 17.887
512 2 4.11792 15.7771 17.8469
513 2 8.26111 15.9677 17.7869
514 2 12.247 15.9833 17.8252
515 2 15.9836 16.1029 17.7485
516 2 19.8694 15.9002 17.8869
517 2 23.7697 15.9911 17.8159
518 2 27.7654 16.0473 17.8184
519 2 31.7182 15.6591 17.6013
520 2 35.6412 16.08 17.8583
521 2 39.6574 16.0032 17.7836
522 2 43.6042 15.8955 17.6762
523 2 47.4157 15.7504 17.8718
524 2 51.3856 15.9119 17.6106
525 2 55.4661 16.0273 17.7933
526 2 0.0773474 20.1721 17.6658
527 2 4.21923 19.8838 17.6533
528 2 8.11239 19.8469 17.8312
529 2 11.7871 20.1252 17.5042
530 2 15.9332 19.8661 17.7508
531 2 19.7703 20.0359 17.918
532 2 23.8074 19.97 17.8449
533 2 27.8195 19.7707 17.686
534 2 32.0235 19.9695 17.8436
535 2 35.8491 19.8082 17.9445
536 2 39.7444 20.0223 17.7731
537 2 43.7258 20.0522 17.8009
538 2 47.6796 19.843 17.9105
539 2 51.5983 20.0028 17.7443
540 2 55.4422 19.7709 17.6874
541 2 59.7117 23.9268 17.7784
542 2 4.15201 23.9835 17.4963
543 2 8.07568 23.8683 17.8402
544 2 11.9823 23.7806 17.5529
545 2 15.7641 23.8637 17.7346
546 2 19.8115 23.8866 17.9475
547 2 23.7638 23.8682 17.701
548 2 27.8756 23.7149 17.6706
549 2 31.7815 23.7478 17.6605
550 2 35.7078 23.8709 17.7719
551 2 39.7043 23.7202 17.8605
552 2 43.5226 23.9274 17.7099
553 2 47.4515 23.9759 17.6234
554 2 51.5653 23.8301 17.7108
555 2 55.5997 23.9726 17.6852
556 2 59.5133 27.8429 17.7417
557 2 4.04595 28.0272 17.7738
558 2 8.00037 27.8602 17.7698
559 2 11.8101 27.9575 17.6061
560 2 15.8783 27.7846 17.6741
561 2 19.8815 27.7399 17.6325
562 2 23.7576 27.6789 17.9124
563 2 27.6762 27.8287 17.9149
564 2 31.7413 27.7331 17.6241
565 2 35.5512 27.8263 17.8837
566 2 39.4786 27.5928 17.7783
567 2 43.5144 27.6488 17.786
568 2 47.4864 27.8845 17.6617
569 2 51.5149 27.8718 17.9352
570 2 55.7475 27.9026 17.8548
571 2 59.4856 31.7288 17.8161
572 2 4.01574 31.7904 17.8407
573 2 8.14311 31.8777 17.7292
574 2 11.9593 31.7458 17.774
575 2 16.027 31.7812 17.7658
576 2 19.734 31.6736 17.7482
577 2 23.5649 31.8585 17.6445
578 2 27.8446 31.9334 17.7842
579 2 31.7729 31.9291 17.6969
580 2 35.7396 31.7206 17.6806
581 2 39.7731 32.0854 17.611
582 2 43.682 31.8431 17.719
583 2 47.5879 31.887 17.8023
584 2 51.7525 31.7724 17.8267
585 2 55.5577 31.9336 17.8107
586 2 59.5356 35.8197 17.7552
587 2 4.17437 35.6888 17.7508
588 2 7.96264 35.8792 17.7272
589 2 11.8957 35.76 17.8047
590 2 15.7766 35.7712 17.6935
591 2 19.5624 35.7097 17.7406
592 2 23.6739 35.9388 17.768
593 2 27.7633 35.8258 17.6431
594 2 31.7255 35.764 17.847
595 2 35.7775 35.5849 17.5694
596 2 39.7007 35.6755 17.7099
597 2 43.6634 35.743 17.6739
598 2 47.6783 35.6702 17.5847
599 2 51.601 35.7395 17.7548
600 2 55.5664 35.6842 17.7855
601 2 59.4058 39.6776 17.8273
602 2 3.91645 39.6349 17.7906
603 2 8.02206 39.8297 17.7666
604 2 11.9518 39.7117 17.7207
605 2 15.7115 39.8667 17.6251
606 2 19.6277 39.7837 17.4778
607 2 23.7862 39.6262 17.809
608 2 27.66 39.6475 17.8647
609 2 31.8506 39.5872 17.8163
610 2 35.6227 39.5732 17.734
611 2 39.6654 39.6843 17.7503
612 2 43.5723 39.711 17.8333
613 2 47.4058 39.6987 17.8519
614 2 51.3697 39.672 17.7256
615 2 55.4486 39.7723 17.9063
616 2 59.6037 43.7087 17.9065
617 2 3.96224 43.4958 17.9841
618 2 7.86858 43.6788 17.6324
619 2 11.8008 43.5593 17.9247
620 2 15.7865 43.9565 17.6016
621 2 19.8338 43.8179 17.7886
622 2 23.8949 43.596 17.8655
623 2 27.7503 43.6344 17.8328
624 2 31.6495 43.5268 18.0203
625 2 35.5485 43.5461 17.7651
626 2 39.6611 43.7023 17.7337
627 2 43.4892 43.711 17.7522
628 2 47.5811 43.7491 17.838
629 2 51.4983 43.6436 17.7006
630 2 55.6733 43.5411 17.6122
631 2 -0.00335778 47.5497 17.7281
632 2 4.05427 47.6615 17.761
633 2 7.91306 47.4526 17.7592
634 2 11.6246 47.5222 17.6934
635 2 15.739 47.7748 17.4579
636 2 19.8518 47.496 17.9123
637 2 23.7255 47.6416 17.7093
638 2 27.9647 47.5541 17.8339
639 2 31.736 47.4795 17.8915
640 2 35.6924 47.5586 17.8677
641 2 39.675 47.6496 17.7421
642 2 43.525 47.7111 17.8316
643 2 47.4255 47.6582 17.7457
644 2 51.4826 47.511 17.654
645 2 55.3791 47.6687 17.6748
646 2 59.2881 51.5397 17.7875
647 2 4.00452 51.4585 17.9117
648 2 7.88254 51.4981 17.7573
649 2 11.8498 51.654 17.7217
650 2 15.844 51.5157 17.8354
651 2 19.7311 51.6596 17.7848
652 2 23.5236 51.7909 17.7291
653 2 27.5388 51.5731 17.7674
654 2 31.849 51.3956 17.9107
655 2 35.6271 51.4708 17.6114
656 2 39.6656 51.5791 17.7901
657 2 43.6901 51.5801 17.7575
658 2 47.5532 51.6362 17.6804
659 2 51.2503 51.6465 17.7357
660 2 55.284 51.6288 17.8374
661 2 59.5009 55.6433 17.8957
662 2 4.02636 55.3988 17.863
663 2 7.96694 55.502 17.7823
664 2 11.8381 55.5687 17.8699
665 2 15.8231 55.4335 17.88
666 2 19.6745 55.6407 17.8113
667 2 23.6463 55.5131 17.8875
668 2 27.9067 55.5437 17.6753
669 2 31.6314 55.2945 17.8781
670 2 35.7007 55.6436 17.8545
671 2 39.4534 55.5719 17.7069
672 2 43.6996 55.5479 17.8469
673 2 47.738 55.5775 17.5268
674 2 51.4775 55.4602 17.5548
675 2 55.5032 55.5208 17.8694
676 2 -0.00397127 0.14984 21.8405
677 2 4.02911 0.0154399 21.8207
678 2 7.98016 0.039849 21.6473
679 2 11.7541 0.128763 21.6654
680 2 15.7382 0.342268 21.4513
681 2 19.6044 59.508 21.5905
682 2 23.7783 59.4998 21.6638
683 2 27.7217 59.575 21.8564
684 2 31.4613 -0.120506 21.646
685 2 35.6509 59.5758 21.8247
686 2 39.7603 59.2916 21.7268
687 2 43.4603 59.4453 21.8493
688 2 47.4552 59.4404 21.869
689 2 51.6046 0.319696 21.7499
690 2 55.4298 0.221348 21.8201
691 2 59.4505 4.15929 21.8899
692 2 3.91628 4.05468 21.8153
693 2 7.86744 3.9184 21.778
694 2 11.689 4.17265 21.5911
695 2 15.5634 4.18031 21.6714
696 2 19.8647 4.10177 21.7701
697 2 23.6239 4.09384 21.6596
698 2 27.8261 4.19108 21.6372
699 2 31.6698 3.903 21.7509
700 2 35.4292 3.98063 21.6593
701 2 39.6008 3.9936 21.8211
702 2 43.652 3.99665 21.6875
703 2 47.5136 4.10164 21.7999
704 2 51.3039 4.13598 21.7841
705 2 55.3981 4.1821 21.687
706 2 59.56 7.92393 21.9124
707 2 3.96373 8.0932 21.8891
708 2 7.85039 7.89034 21.8303
709 2 11.8149 8.16982 21.7871
710 2 15.9054 7.93084 21.7684
711 2 19.7637 7.9159 21.9192
712 2 23.7465 8.07433 21.8926
713 2 27.6205 8.11376 21.7513
714 2 31.5043 7.9967 21.811
715 2 35.6334 7.9636 21.8463
716 2 39.7546 8.04203 21.8241
717 2 43.4358 8.13952 21.5816
718 2 47.4294 7.96708 21.8995
719 2 51.3384 7.92907 21.739
720 2 55.2336 8.08773 21.9432
721 2 59.3172 12.0507 21.7249
722 2 4.09525 12.0282 21.7521
723 2 7.8489 12.1517 21.7878
724 2 11.7057 11.9799 21.6699
725 2 15.8858 11.9519 21.9138
726 2 19.9262 11.8348 21.7366
727 2 23.7048 11.9162 21.7891
728 2 27.7586 12.0605 21.7594
729 2 31.701 12.0447 21.6596
730 2 35.6042 11.7764 21.9236
731 2 39.4517 12.0044 21.8816
732 2 43.4625 11.8135 21.9612
733 2 47.4662 11.828 21.8618
734 2 51.4565 12.1745 21.907
735 2 55.3784 12.1797 21.6969
736 2 -0.0422729 16.0135 21.7696
737 2 3.78723 15.8675 21.7725
738 2 7.86138 16.0113 21.6568
739 2 11.9116 15.9299 21.6612
740 2 15.9192 15.8949 21.878
741 2 19.9308 15.6596 21.7754
742 2 23.5974 16.2022 21.6911
743 2 27.5772 15.7954 21.6478
744 2 31.9436 15.8746 21.6278
745 2 35.7391 15.9301 21.7425
746 2 39.7842 16.0701 21.6777
747 2 43.4183 15.9245 21.8075
748 2 47.3027 16.0665 21.8617
749 2 51.2098 16.0499 21.644
750 2 55.3452 16.0036 21.7486
751 2 59.282 19.8908 21.7645
752 2 3.84059 19.9814 21.4673
753 2 7.64263 19.9331 21.7489
754 2 11.783 20.1111 21.8984
755 2 15.72 20.0029 21.6284
756 2 19.6507 19.8907 21.7722
757 2 23.6067 19.9651 21.7406
758 2 27.701 19.8276 21.651
759 2 31.7062 19.777 21.6189
760 2 35.5192 20.117 21.7149
761 2 39.6115 19.8494 21.8435
762 2 43.5322 20.0153 21.9139
763 2 47.4348 20.0147 21.7618
764 2 51.4412 19.7705 21.6524
765 2 55.3332 19.6103 21.8688
766 2 59.3007 23.835 21.8088
767 2 3.87494 24.0591 21.8976
768 2 7.92886 23.8753 21.7199
769 2 11.9302 23.9513 21.8212
770 2 15.8161 23.8929 21.7149
771 2 19.8146 24.0319 21.8709
772 2 23.8754 23.7896 21.9224
773 2 27.6597 23.789 21.7519
774 2 31.8543 23.7888 21.7328
775 2 35.6695 24.001 21.7919
776 2 39.5833 23.6898 21.8645
777 2 43.736 23.7181 21.8597
778 2 47.6315 23.8977 21.522
779 2 51.4044 23.7508 21.6788
780 2 55.473 23.9533 21.4531
781 2 59.4522 27.9333 21.6152
782 2 4.10351 28.0415 21.8022
783 2 8.00577 27.7528 21.6367
784 2 11.9389 27.8577 21.8961
785 2 15.9181 27.7903 21.7513
786 2 19.8413 27.856 21.7635
787 2 23.8696 27.7713 21.8064
788 2 27.5684 27.738 21.6988
789 2 31.5786 27.7682 21.7516
790 2 35.4978 27.9353 21.7157
791 2 39.6276 27.9008 21.5785
792 2 43.5153 27.8241 21.6496
793 2 47.439 27.7801 21.7616
794 2 51.4028 27.651 21.6929
795 2 55.3737 27.8818 21.7655
796 2 59.3267 31.721 21.662
797 2 4.08627 31.8411 21.6385
798 2 7.96396 31.7247 21.8826
799 2 11.8163 31.8791 21.8699
800 2 15.7632 31.8829 21.7179
801 2 19.8232 31.7268 21.6869
802 2 23.7452 31.9231 21.6797
803 2 27.7644 31.7202 21.5428
804 2 31.6694 31.6482 21.8037
805 2 35.6244 31.6327 21.7021
806 2 39.5864 31.7668 21.6786
807 2 43.6512 31.7669 21.6982
808 2 47.6149 31.7771 21.5872
809 2 51.3201 31.8384 21.7446
810 2 55.5521 31.8481 21.6777
811 2 0.127462 35.6856 21.6081
812 2 4.0373 35.6567 21.8469
813 2 7.95057 35.666 21.4838
814 2 11.9077 35.8605 21.649
815 2 15.8185 35.6915 21.7582
816 2 19.6508 35.6467 21.8694
817 2 23.5721 35.9286 21.7425
818 2 27.6983 35.6297 21.8476
819 2 31.768 35.6448 21.9231
820 2 35.4306 35.5302 21.779
821 2 39.6581 35.6026 21.8124
822 2 43.4942 35.7058 21.7316
823 2 47.7193 35.6754 21.5963
824 2 51.4446 35.6795 21.8758
825 2 55.4146 35.6547 21.8264
826 2 -0.0571495 39.8241 21.778
827 2 3.82755 39.7149 21.8564
828 2 7.91423 39.6875 21.7395
829 2 11.8835 39.6537 21.7878
830 2 15.8838 39.7599 21.7073
831 2 19.5949 39.8368 21.5017
832 2 23.6039 39.5067 21.6975
833 2 27.6636 39.5507 21.602
834 2 31.7765 39.4951 21.8396
835 2 35.6822 39.7907 21.888
836 2 39.4265 39.6184 21.6939
837 2 43.4748 39.4857 21.8573
838 2 47.397 39.739 21.7481
839 2 51.7288 39.5434 21.8201
840 2 55.4139 39.6959 21.8443
841 2 59.5604 43.7537 21.5501
842 2 3.99258 43.6324 21.7854
843 2 8.01926 43.7422 21.6692
844 2 11.9655 43.6001 21.7602
845 2 15.6889 43.7418 21.6561
846 2 19.8444 43.5204 21.8197
847 2 23.8377 43.573 21.7272
848 2 27.7139 43.3163 21.787
849 2 31.7974 43.6443 21.7723
850 2 35.588 43.759 21.6476
851 2 39.3378 43.4459 21.6232
852 2 43.5706 43.4823 21.7582
853 2 47.4651 43.6248 21.7607
854 2 51.2754 43.3161 21.5353
855 2 55.244 43.5631 21.679
856 2 -0.262597 47.5318 21.8254
857 2 4.02581 47.5553 21.8049
858 2 7.87493 47.6682 21.848
859 2 11.7513 47.3905 21.6791
860 2 15.5114 47.742 21.5164
861 2 19.847 47.595 21.5968
862 2 23.7219 47.6962 21.8712
863 2 27.4915 47.6303 21.7128
864 2 31.5193 47.514 21.7194
865 2 35.6552 47.4755 21.9148
866 2 39.5566 47.4782 21.6906
867 2 43.452 47.4319 21.9238
868 2 47.3316 47.3834 21.7827
869 2 51.3312 47.5607 21.6929
870 2 55.2405 47.3673 21.8097
871 2 59.3268 51.5084 21.7766
872 2 3.93404 51.3833 21.6882
873 2 7.86901 51.557 21.8018
874 2 11.9884 51.594 21.9494
875 2 15.7514 51.6179 21.874
876 2 19.686 51.6105 21.7245
877 2 23.7799 51.5992 21.7214
878 2 27.663 51.6644 21.7345
879 2 31.8109 51.6045 21.7294
880 2 35.5013 51.6438 21.7691
881 2 39.532 51.3941 21.6211
882 2 43.5746 51.5919 21.8671
883 2 47.4533 51.3905 21.519
884 2 51.3677 51.6019 21.8686
885 2 55.2555 51.6941 21.6022
886 2 59.5459 55.5315 21.9548
887 2 3.93046 55.4704 21.7648
888 2 7.94779 55.3696 21.8592
889 2 11.8483 55.5336 21.6277
890 2 15.8794 55.4924 21.8568
891 2 19.6011 55.5262 21.7587
892 2 23.4858 55.593 21.7271
893 2 27.6916 55.5207 21.7488
894 2 31.5436 55.3552 21.7645
895 2 35.5926 55.5292 21.7277
896 2 39.5329 55.3229 21.7358
897 2 43.4749 55.3135 21.6282
898 2 47.4567 55.3428 21.5973
899 2 51.2246 55.4671 21.6686
900 2 55.5361 55.4905 21.8996
901 2 59.5402 0.0894856 25.8005
902 2 4.233 59.4572 25.7385
903 2 7.78534 0.176962 25.6635
904 2 11.5875 0.189997 25.6296
905 2 15.669 59.4625 25.5598
906 2 19.5688 0.203757 25.4138
907 2 23.5669 0.145015 25.6157
908 2 27.4817 0.173001 25.6622
909 2 31.6386 59.3758 25.7581
910 2 35.5742 0.12028 25.7071
911 2 39.5021 0.220378 25.5674
912 2 43.4134 0.0701401 25.5616
913 2 47.4038 0.081312 25.5772
914 2 51.4902 0.251435 25.7096
915 2 55.4493 59.5329 25.7771
916 2 59.4838 4.17138 25.8991
917 2 3.78931 4.07942 25.6764
918 2 7.88063 4.23142 25.8449
919 2 11.6125 3.93986 25.5974
920 2 15.8236 4.15406 25.6724
921 2 19.7822 3.97516 25.9366
922 2 23.7044 4.05194 25.7729
923 2 27.5002 3.82007 25.5652
924 2 31.5038 4.01063 25.7989
925 2 35.4966 3.83275 25.8736
926 2 39.3779 4.05437 25.8012
927 2 43.7198 4.07171 25.7483
928 2 47.5525 4.08546 25.9103
929 2 51.437 4.15672 25.7497
930 2 55.4565 4.03361 25.8771
931 2 59.188 8.00873 25.771
932 2 3.92867 8.40305 25.8053
933 2 7.71818 7.99257 25.7366
934 2 11.7728 7.94243 25.7622
935 2 15.4831 8.00481 25.8414
936 2 19.8095 7.98017 25.9218
937 2 23.6225 8.05904 25.7726
938 2 27.6539 7.92422 25.6888
939 2 31.5352 8.03856 25.8191
940 2 35.5447 7.86511 25.7323
941 2 39.5774 7.96411 25.8257
942 2 43.5284 7.92969 25.8232
943 2 47.571 8.14808 25.8492
944 2 51.5211 8.0509 25.7012
945 2 55.3643 8.15016 25.8148
946 2 59.0936 12.121 25.7908
947 2 3.78944 12.0042 25.8371
948 2 7.86179 11.9717 25.6661
949 2 11.7197 11.9061 25.6633
950 2 15.8192 12.0862 25.5833
951 2 19.6859 12.0405 25.7148
952 2 23.7129 11.9412 25.8587
953 2 27.5816 12.2119 25.7532
954 2 31.6072 11.8862 25.7317
955 2 35.5049 11.8644 25.7396
956 2 39.3957 11.7269 25.9007
957 2 43.5994 11.9356 25.6133
958 2 47.3463 12.1087 25.6098
959 2 51.463 11.8406 25.8283
960 2 55.1982 11.9932 25.6639
961 2 59.2334 15.9251 25.6677
962 2 3.87471 15.9605 25.8117
963 2 7.88428 16.2662 25.79
964 2 11.884 16.0451 25.6279
965 2 15.7108 15.9675 25.616
966 2 19.9073 16.0977 25.5846
967 2 23.6655 16.037 25.7034
968 2 27.5044 15.8181 25.8324
969 2 31.7898 15.7859 25.5663
970 2 35.7067 16.0049 25.5014
971 2 39.5745 15.8268 25.7276
972 2 43.3592 15.7335 25.6876
973 2 47.2401 15.8191 25.7211
974 2 51.1789 16.0009 25.7861
975 2 55.3348 15.8604 25.8217
976 2 59.224 20.1206 25.6592
977 2 3.81364 19.8434 25.6706
978 2 7.64169 19.8334 25.7073
979 2 11.9595 20.0996 25.6906
980 2 15.7639 19.9276 25.8376
981 2 19.7068 20.0116 25.7061
982 2 23.5435 19.8515 25.6519
983 2 27.6431 19.8426 25.5432
984 2 31.5282 19.8027 25.638
985 2 35.5155 19.7533 25.768
986 2 39.4959 19.7517 25.8597
987 2 43.5825 20.0648 25.8917
988 2 47.3992 19.9299 25.8124
989 2 51.4304 19.9144 25.7728
990 2 55.2148 19.7944 25.7258
991 2 59.2721 23.6924 25.6734
992 2 4.07261 23.7077 25.6493
993 2 7.71003 23.8216 25.8131
994 2 11.7104 23.7029 25.631
995 2 15.7424 23.8952 25.7469
996 2 19.5638 23.9006 25.9137
997 2 23.6644 23.9229 25.6775
998 2 27.5384 23.824 25.6527
999 2 31.5923 23.7446 25.6979