ITEM: TIMESTEP
1503800
ITEM: NUMBER OF ATOMS
16875
ITEM: BOX BOUNDS xy xz yz pp pp pp
0.0000000000000000e+00 5.9369999999999997e+01 0.0000000000000000e+00
0.0000000000000000e+00 5.9369999999999997e+01 0.0000000000000000e+00
3.1837545335892870e-01 6.0048043546644152e+01 0.0000000000000000e+00
ITEM: ATOMS id type x y z
1 2 59.5703 0.154306 9.92224
2 2 4.26521 0.027209 9.62764
3 2 8.06485 0.114391 9.72449
4 2 11.9292 59.6904 9.65156
5 2 15.8834 0.0929263 9.75828
6 2 20.0207 -0.11328 9.88934
7 2 24.0239 -0.0166965 9.90795
8 2 27.9137 0.169139 9.86719
9 2 31.8281 -0.0701689 10.0897
10 2 35.8216 -0.00374209 9.75755
11 2 39.5593 -0.00119864 9.79278
12 2 43.7179 0.106865 9.87684
13 2 47.5714 0.162579 9.82198
14 2 51.5828 0.0491844 9.76164
15 2 55.7323 0.0276525 9.88955
16 2 59.3787 4.07101 9.8679
17 2 4.12412 4.23822 9.82324
18 2 8.03232 4.05555 9.81542
19 2 11.7669 3.96527 9.89542
20 2 15.9684 3.90705 9.79483
21 2 19.9367 4.00841 9.80682
22 2 23.8355 4.11617 9.74549
23 2 27.7267 4.08184 9.74831
24 2 31.7408 3.94811 9.77496
25 2 35.9152 3.93665 9.75229
26 2 39.6117 3.96611 9.79841
27 2 43.4804 4.09359 9.8421
28 2 47.4746 4.00597 9.63063
29 2 51.4861 4.06773 9.57548
30 2 55.3323 4.10254 9.77694
31 2 59.514 7.82962 9.99421
32 2 4.16513 8.01457 9.86768
33 2 8.05811 7.97925 10.0081
34 2 12.1262 7.81834 9.91361
35 2 15.8824 7.89775 9.70505
36 2 19.8314 7.96576 9.86045
37 2 23.727 7.94437 9.96124
38 2 27.7658 7.98116 9.91173
39 2 31.7664 8.11979 9.79325
40 2 35.6853 7.75646 9.82908
41 2 39.6032 8.09683 9.77692
42 2 43.5731 8.08521 9.77517
43 2 47.8227 7.97337 9.82732
44 2 51.4394 8.19336 9.84743
45 2 55.3764 7.88527 9.74674
46 2 -0.0368347 11.9015 10.0722
47 2 4.1495 11.9286 9.90086
48 2 8.18004 11.6486 9.82722
49 2 12.0128 11.9884 9.61175
50 2 16.0106 12.0289 9.54816
51 2 19.6965 11.8975 9.68321
52 2 23.8613 11.8795 10.0884
53 2 27.8329 11.7856 9.8076
54 2 31.9194 11.956 9.90891
55 2 35.8044 11.8592 9.75628
56 2 39.7756 12.0154 9.83796
57 2 43.6901 12.0623 9.73496
58 2 47.5879 12.009 9.82213
59 2 51.6562 11.9928 10.0214
60 2 55.5209 11.9019 9.88861
61 2 0.228617 15.8906 9.77873
62 2 4.19976 15.7366 9.93737
63 2 8.17608 16.0269 9.65131
64 2 12.0311 15.9287 9.58107
65 2 15.8484 15.9594 9.72413
66 2 19.9485 15.8609 9.74306
67 2 23.6698 15.8613 9.93541
68 2 27.8397 15.9929 9.70404
69 2 31.7532 15.9598 9.73425
70 2 35.7191 15.8219 9.81967
71 2 39.6177 15.8751 9.82075
72 2 43.5757 15.9928 9.96147
73 2 47.5681 15.7785 9.92627
74 2 51.5567 16.0182 9.83544
75 2 55.6654 15.8398 9.85527
76 2 59.6547 19.7451 9.76478
77 2 4.1846 19.67 9.936
78 2 7.95841 19.8822 9.63907
79 2 11.6892 19.7468 9.83508
80 2 15.8687 19.7464 9.88283
81 2 19.9072 19.8936 9.74474
82 2 23.8164 19.7141 9.75178
83 2 27.889 19.9121 9.90343
84 2 31.6936 19.8793 9.77362
85 2 35.5964 19.9723 9.76576
86 2 39.5921 19.8866 9.84459
87 2 43.5807 19.9713 9.84809
88 2 47.6204 19.8305 9.7244
89 2 51.4195 20.0687 9.67789
90 2 55.5991 19.8159 9.92034
91 2 59.4774 23.7039 9.9047
92 2 4.08753 23.7317 9.70915
93 2 8.10419 23.8445 9.84025
94 2 12.1345 23.9632 9.79174
95 2 16.0508 23.5791 9.75686
96 2 19.9452 23.6693 9.7645
97 2 23.8377 23.8616 9.89283
98 2 27.8107 23.7805 9.72858
99 2 32.0083 23.8395 9.7041
100 2 35.7529 23.8412 9.91561
101 2 39.7965 23.8733 9.56802
102 2 43.7422 23.8201 9.75289
103 2 47.7923 23.7663 9.84512
104 2 51.7772 23.824 9.7743
105 2 55.7221 23.9514 9.68384
106 2 -0.0891099 27.676 9.68062
107 2 3.97047 27.6899 9.66936
108 2 8.20969 27.7128 9.83953
109 2 12.0749 27.7484 9.87229
110 2 16.1802 27.6627 9.82656
111 2 20.0244 27.7738 9.58249
112 2 24.0569 27.6516 9.9175
113 2 27.9947 27.7463 9.78435
114 2 31.7712 27.6743 9.76976
115 2 35.6131 27.7515 9.96185
116 2 39.6518 27.7255 9.73353
117 2 43.7302 27.8047 9.71938
118 2 47.6536 27.8215 9.77859
119 2 51.4198 27.7989 9.72229
120 2 55.5169 27.6891 9.92862
121 2 0.0714021 31.8164 9.94523
122 2 4.10039 31.6548 9.83924
123 2 8.18622 31.6826 9.68063
124 2 12.1103 31.7248 9.65515
125 2 15.9429 31.7016 9.55944
126 2 19.7546 31.5233 9.79014
127 2 23.9526 31.7024 9.83962
128 2 28.0394 31.7119 9.7565
129 2 31.8221 31.834 9.91751
130 2 35.7503 31.6296 9.84107
131 2 39.6626 31.7619 9.70606
132 2 43.7275 31.6836 9.84618
133 2 47.618 31.8641 9.67665
134 2 51.563 31.8044 9.73467
135 2 55.3532 31.8239 9.72772
136 2 59.4755 35.5434 9.68935
137 2 4.20916 35.5986 9.69493
138 2 7.92676 35.6601 9.88405
139 2 12.1008 35.6066 9.86704
140 2 16.0724 35.5342 9.85437
141 2 19.9162 35.4429 9.84293
142 2 24.064 35.5309 9.62918
143 2 28.0981 35.7524 9.56837
144 2 31.8282 35.5657 9.78149
145 2 35.6011 35.6164 10.0091
146 2 39.6195 35.8282 9.79384
147 2 43.3152 35.8752 9.77799
148 2 47.5983 35.7401 10.0063
149 2 51.7092 35.74 9.61947
150 2 55.5916 35.6777 9.68086
151 2 59.4984 39.7881 10.0387
152 2 3.90916 39.6667 9.77767
153 2 8.1211 39.5643 9.77972
154 2 11.8056 39.4952 9.83807
155 2 16.0574 39.4857 9.61237
156 2 20.0124 39.5358 9.79698
157 2 23.9285 39.5856 9.92092
158 2 27.5922 39.5208 9.84434
159 2 31.5275 39.7323 9.76506
160 2 35.8471 39.4605 9.67908
161 2 39.701 39.7459 9.81775
162 2 43.5918 39.6491 10.0613
163 2 47.5556 39.6517 9.80839
164 2 51.4056 39.6671 9.86761
165 2 55.5893 39.705 9.81205
166 2 59.6678 43.5824 9.80583
167 2 4.22679 43.5053 9.78213
168 2 7.88789 43.5998 9.80556
169 2 11.9257 43.6909 9.73852
170 2 15.6957 43.4681 9.92578
171 2 19.6886 43.575 9.70795
172 2 23.7963 43.6544 9.65114
173 2 27.7094 43.6696 9.84526
174 2 31.8734 43.4748 9.93539
175 2 35.7721 43.6317 9.75014
176 2 39.6126 43.659 9.86147
177 2 43.5443 43.5451 9.73669
178 2 47.5611 43.4628 9.69317
179 2 51.5406 43.4042 9.75402
180 2 55.5569 43.6837 9.76214
181 2 59.6159 47.4894 9.79666
182 2 4.22699 47.432 9.78675
183 2 8.06438 47.5805 9.95486
184 2 12.1372 47.675 9.94092
185 2 15.8038 47.3721 10.0667
186 2 19.6282 47.3532 9.78758
187 2 23.6842 47.6431 9.76266
188 2 27.6943 47.3962 9.65496
189 2 31.6284 47.4538 9.93611
190 2 35.6665 47.5489 9.92902
191 2 39.7884 47.4211 9.64287
192 2 43.6553 47.326 9.77272
193 2 47.6324 47.5807 9.83363
194 2 51.639 47.3603 9.95559
195 2 55.7303 47.4768 9.61683
196 2 0.0906065 51.4436 9.74807
197 2 4.1483 51.437 9.80247
198 2 8.20982 51.4318 9.74078
199 2 11.8693 51.6207 9.88882
200 2 16.1745 51.5783 9.81204
201 2 19.9274 51.585 9.72464
202 2 23.9062 51.5178 9.62502
203 2 27.7615 51.4476 9.80862
204 2 31.8514 51.5326 9.7243
205 2 35.7691 51.4411 9.88375
206 2 39.841 51.3102 9.90555
207 2 43.5902 51.68 9.84403
208 2 47.7305 51.4681 9.70204
209 2 51.6678 51.6646 9.77092
210 2 55.5489 51.553 9.60937
211 2 59.3977 55.5315 9.9322
212 2 4.00882 55.3885 9.73539
213 2 7.97168 55.4876 9.79816
214 2 11.869 55.6039 9.76094
215 2 15.898 55.5318 9.73352
216 2 19.9599 55.5954 9.69881
217 2 24.0698 55.2779 9.80289
218 2 27.8519 55.5864 9.85758
219 2 31.8972 55.347 9.75729
220 2 35.7029 55.2719 9.82963
221 2 39.8303 55.5574 9.8056
222 2 43.7163 55.5129 9.88385
223 2 47.7162 55.3676 9.82247
224 2 51.5764 55.1621 9.97348
225 2 55.3035 55.5094 9.78303
226 2 59.4667 0.0744134 13.9586
227 2 4.10507 0.135043 13.6591
228 2 8.01641 -0.0607069 13.9615
229 2 11.9107 59.4942 13.6887
230 2 15.7827 0.135869 13.7677
231 2 19.7938 0.114865 13.8942
232 2 23.8262 0.0719641 13.6842
233 2 27.8484 0.0772328 13.7953
234 2 31.7261 0.146767 13.8725
235 2 35.8381 59.3588 13.8563
236 2 39.6445 0.0796023 13.6081
237 2 43.6261 -0.068413 13.9628
238 2 47.6253 59.3571 13.7217
239 2 51.5726 0.143759 13.6826
240 2 55.5083 0.0442948 13.6907
241 2 59.4466 3.81164 13.8981
242 2 3.96737 3.99209 13.9614
243 2 7.98748 3.85123 13.757
244 2 11.9484 3.88287 13.8151
245 2 15.9062 4.07189 13.7917
246 2 19.7543 4.07705 13.7525
247 2 23.7754 3.87534 13.8067
248 2 27.7685 4.17742 13.7996
249 2 31.7385 4.0595 13.8899
250 2 35.7877 4.00814 13.9121
251 2 39.5582 4.00737 13.8444
252 2 43.7774 3.80029 13.826
253 2 47.6552 4.01707 13.8423
254 2 51.6259 3.86902 13.6015
255 2 55.5291 4.22399 13.8777
256 2 59.3981 8.05625 13.5667
257 2 4.03308 8.02567 13.9404
258 2 7.95171 8.03707 13.9993
259 2 11.912 7.836 13.9367
260 2 15.7616 7.92959 13.7204
261 2 19.7147 8.15787 13.8817
262 2 23.8548 8.05106 13.91
263 2 27.6712 8.05458 13.7247
264 2 31.7557 8.03229 13.5989
265 2 35.5943 8.10812 13.7584
266 2 39.7587 7.94432 13.8425
267 2 43.6195 7.82609 13.735
268 2 47.5383 8.00682 13.8111
269 2 51.2451 7.8924 13.8567
270 2 55.3594 7.98719 13.8572
271 2 0.0846447 11.8837 13.9211
272 2 4.04392 12.2076 13.8567
273 2 8.1511 12.0222 13.6748
274 2 11.9555 11.9659 13.64
275 2 15.8633 12.0868 13.8012
276 2 19.9143 12.0635 13.8284
277 2 23.9223 11.8859 13.7541
278 2 27.892 12.0571 13.599
279 2 31.702 11.9635 13.7109
280 2 35.7365 11.9083 13.8322
281 2 39.7087 12.0706 13.714
282 2 43.6549 12.0496 13.7121
283 2 47.4895 11.9982 14.0368
284 2 51.5342 11.9736 13.6376
285 2 55.4091 11.9537 13.9742
286 2 59.2426 16.0438 13.8491
287 2 3.9811 15.8666 13.9964
288 2 8.13469 15.849 13.7263
289 2 11.9284 15.8796 13.8105
290 2 15.9062 15.947 13.8726
291 2 20.0536 15.8086 13.8802
292 2 24.0485 15.7232 13.8788
293 2 27.8663 16.0487 13.8262
294 2 31.8647 15.932 13.7589
295 2 35.6839 16.1868 13.6497
296 2 39.5296 15.9301 13.7487
297 2 43.6802 15.9805 13.7974
298 2 47.6207 16.1196 13.6177
299 2 51.4365 16.0507 13.6746
300 2 55.3873 15.7866 13.7706
301 2 59.538 20.0135 13.8656
302 2 4.03882 19.811 13.7534
303 2 7.79776 19.7087 13.7812
304 2 12.0125 19.9871 13.7195
305 2 15.9932 19.6799 13.8721
306 2 20.0502 19.7644 13.7606
307 2 23.8323 19.7744 13.7913
308 2 27.6281 20.0443 13.5691
309 2 31.5952 19.9603 13.6567
310 2 35.7169 19.9764 13.636
311 2 39.5374 20.0245 13.912
312 2 43.4532 19.8747 13.8132
313 2 47.3641 19.8917 13.6774
314 2 51.6127 19.9106 13.7346
315 2 55.4285 19.8859 13.853
316 2 59.4542 23.8685 13.9792
317 2 4.14363 23.9024 13.7416
318 2 7.91319 23.7675 13.7351
319 2 12.1091 23.8395 13.5552
320 2 16.0738 23.7451 13.9268
321 2 19.7347 23.7844 13.7821
322 2 23.7972 23.7587 13.7672
323 2 27.7861 23.8 13.8239
324 2 31.8878 23.7053 13.9511
325 2 35.8213 23.7693 13.81
326 2 39.8191 23.9473 13.6491
327 2 43.5939 24.1006 13.5778
328 2 47.774 23.8407 13.9166
329 2 51.6312 23.7981 13.6437
330 2 55.5013 23.7992 13.8734
331 2 0.204406 27.8356 13.6883
332 2 4.22364 27.8551 13.7361
333 2 8.05739 27.7505 13.887
334 2 12.0632 27.7645 13.8138
335 2 15.686 27.7581 13.5476
336 2 19.8115 27.6451 13.7079
337 2 23.7857 27.6099 13.7592
338 2 27.7885 27.7455 13.7973
339 2 31.7941 27.8337 13.8653
340 2 35.881 27.7359 13.8698
341 2 39.7695 27.8351 13.7264
342 2 43.5816 27.9385 13.6824
343 2 47.5321 27.9816 13.6793
344 2 51.6764 27.7913 13.77
345 2 55.5099 27.8265 13.7646
346 2 59.7735 31.8692 13.6682
347 2 4.29045 31.6652 13.7148
348 2 8.02261 31.9071 13.7223
349 2 12.1164 31.7658 13.7307
350 2 15.8888 31.8445 13.7882
351 2 19.8167 31.7922 13.7687
352 2 23.9142 31.6291 13.8872
353 2 27.8061 31.624 14.1243
354 2 31.7154 31.7537 13.9266
355 2 35.8585 31.7767 13.7941
356 2 39.7476 31.7361 13.7214
357 2 43.6618 31.8522 13.8189
358 2 47.5939 31.9024 13.7352
359 2 51.8035 31.8219 13.7496
360 2 55.5831 31.7361 13.7702
361 2 0.273052 35.8359 13.5772
362 2 4.16763 35.7206 13.7831
363 2 8.09043 35.8074 13.955
364 2 11.9733 35.8038 13.7789
365 2 15.8837 35.8216 13.7511
366 2 19.8219 35.683 13.7147
367 2 23.8468 35.4252 13.6901
368 2 27.8126 35.7112 13.7459
369 2 31.8258 35.7615 13.8258
370 2 35.7253 35.7568 14.0029
371 2 39.5272 35.6898 13.787
372 2 43.6263 35.6746 13.7109
373 2 47.7034 35.6157 13.7734
374 2 51.5488 35.8545 13.8926
375 2 55.364 35.6335 13.7129
376 2 59.3636 39.6563 13.8223
377 2 4.19568 39.5585 13.6844
378 2 7.97096 39.8097 13.6184
379 2 12.1324 39.532 13.7833
380 2 16.0066 39.5078 13.6762
381 2 20.1111 39.5382 13.7494
382 2 23.856 39.5774 13.8029
383 2 27.703 39.6187 13.6572
384 2 31.7362 39.5688 13.6002
385 2 35.6362 39.5734 13.8031
386 2 39.6679 39.6845 13.9721
387 2 43.6935 39.5883 13.8948
388 2 47.5609 39.5489 13.9109
389 2 51.6679 39.5782 13.7604
390 2 55.5389 39.6482 13.5677
391 2 0.152502 43.4765 13.9138
392 2 3.96229 43.7386 13.9682
393 2 8.05148 43.5003 13.9145
394 2 11.8587 43.4526 13.8764
395 2 15.7289 43.464 13.9043
396 2 19.6146 43.3569 13.8534
397 2 23.7515 43.7056 13.786
398 2 27.6557 43.9312 13.8635
399 2 31.7379 43.411 13.8843
400 2 35.8433 43.6178 13.7059
401 2 39.729 43.6165 13.8927
402 2 43.717 43.5957 13.6326
403 2 47.7331 43.5407 13.8098
404 2 51.6389 43.5747 13.7244
405 2 55.7197 43.4578 13.7695
406 2 59.3057 47.6675 13.7129
407 2 4.1308 47.677 13.8919
408 2 8.13826 47.6151 13.9211
409 2 12.0761 47.8057 13.7226
410 2 15.9338 47.4676 13.8304
411 2 19.7048 47.352 13.7495
412 2 23.604 47.4877 13.6888
413 2 27.7973 47.7727 13.794
414 2 31.7332 47.5773 13.8467
415 2 35.7068 47.5258 13.8078
416 2 39.7725 47.6661 13.7404
417 2 43.8421 47.5613 14.0135
418 2 47.6814 47.8012 13.644
419 2 51.6667 47.3658 13.728
420 2 55.5099 47.5325 13.5705
421 2 59.4637 51.4821 13.8549
422 2 3.941 51.6198 13.8543
423 2 8.03661 51.5065 13.9984
424 2 12.1267 51.6448 13.7228
425 2 15.997 51.7054 13.9048
426 2 19.8539 51.4685 13.5879
427 2 23.8566 51.5701 13.8804
428 2 27.7277 51.5449 13.9307
429 2 31.7855 51.5473 13.672
430 2 35.567 51.453 13.7431
431 2 39.4802 51.5515 13.704
432 2 43.5353 51.5958 13.9018
433 2 47.604 51.4185 13.8869
434 2 51.5897 51.278 13.8453
435 2 55.4755 51.2782 13.6715
436 2 59.3872 55.3368 13.6416
437 2 4.15857 55.439 13.8031
438 2 8.03643 55.5482 13.814
439 2 12.0093 55.579 13.6716
440 2 15.8218 55.5275 13.891
441 2 19.7798 55.6052 13.7422
442 2 23.8382 55.4602 13.8176
443 2 27.7779 55.5306 13.692
444 2 31.6397 55.409 13.8623
445 2 35.7668 55.267 13.584
446 2 39.7585 55.5186 13.6384
447 2 43.6661 55.4429 13.6383
448 2 47.7894 55.5517 13.9187
449 2 51.6591 55.3366 13.987
450 2 55.5382 55.4357 13.7716
451 2 59.2483 0.174253 17.7912
452 2 3.94572 0.102945 17.9382
453 2 7.93923 59.5005 17.743
454 2 11.8919 0.0247796 17.8196
455 2 15.8545 -0.0588583 17.7018
456 2 19.9798 0.145037 17.8064
457 2 23.9229 0.109107 17.8216
458 2 27.7501 0.183562 17.9109
459 2 31.6858 -0.0400117 17.6659
460 2 35.6584 0.108633 17.7009
461 2 39.5338 0.224868 17.7946
462 2 43.5323 59.3153 17.8816
463 2 47.5947 0.0748976 17.7755
464 2 51.5586 0.159598 17.8884
465 2 55.5633 0.0171292 17.869
466 2 59.4144 4.16841 17.783
467 2 4.10855 4.08666 17.8909
468 2 8.00492 4.05918 17.8224
469 2 11.9303 4.04147 17.8073
470 2 15.8684 4.20806 17.7197
471 2 19.8575 4.07678 17.7616
472 2 23.7931 4.09509 18.0267
473 2 27.7768 4.19374 17.7592
474 2 31.6762 4.04498 17.706
475 2 35.5669 4.09586 17.762
476 2 39.6219 3.96852 17.826
477 2 43.4501 4.13741 17.5912
478 2 47.538 3.97889 17.7985
479 2 51.4762 4.20489 17.8289
480 2 55.3585 3.9711 17.8282
481 2 59.3726 8.10407 17.7395
482 2 3.96617 8.08118 17.6992
483 2 7.71389 7.90988 17.7341
484 2 11.9978 8.00032 17.598
485 2 15.9446 8.12299 17.9193
486 2 19.7017 8.3261 17.701
487 2 23.9415 8.06682 17.7527
488 2 27.7493 8.07648 17.6606
489 2 31.6943 8.13275 17.6705
490 2 35.7828 7.95894 17.7203
491 2 39.4395 7.75534 17.6945
492 2 43.4081 8.08402 17.8663
493 2 47.4962 8.10372 17.6707
494 2 51.3624 8.17073 17.7664
495 2 55.5432 8.07293 17.866
496 2 59.2471 12.0023 17.6074
497 2 3.95955 12.0427 17.6705
498 2 7.94907 11.9785 17.6818
499 2 11.8019 11.8597 17.7721
500 2 15.9686 12.0949 17.624
501 2 19.8807 12.0897 17.6957
502 2 24.0186 11.8817 17.724
503 2 28.0832 11.8456 17.8163
504 2 31.7778 12.0533 17.6606
505 2 35.6524 11.9135 17.7709
506 2 39.5577 11.9553 17.6154
507 2 43.6474 11.8904 17.7498
508 2 47.6118 11.9958 17.7386
509 2 51.509 12.0125 17.8345
510 2 55.2658 11.9994 17.9365
511 2 59.6065 15.9306 17.581
512 2 4.10487 15.8723 17.8601
513 2 8.10598 15.9745 17.8981
514 2 11.7997 16.1005 17.5768
515 2 15.7942 16.0049 17.6588
516 2 19.8989 15.8755 17.8773
517 2 23.8214 15.7144 17.9522
518 2 27.822 15.9316 17.7623
519 2 31.8299 15.9229 17.7559
520 2 35.5602 15.8866 17.6134
521 2 39.5485 15.9609 17.8216
522 2 43.4818 16.0495 17.6757
523 2 47.6286 15.9538 17.8443
524 2 51.285 15.9426 17.7516
525 2 55.2521 15.9707 17.831
526 2 0.0449434 19.6886 17.779
527 2 4.21132 20.0021 17.9394
528 2 7.86061 19.852 17.6169
529 2 11.8648 20.0739 17.7899
530 2 15.8549 19.8649 17.8327
531 2 19.8845 19.8477 17.8998
532 2 23.7616 19.9879 17.8722
533 2 27.8162 19.9177 17.8098
534 2 31.5687 19.7511 17.7141
535 2 35.6248 19.8734 17.5258
536 2 39.6884 19.906 17.8321
537 2 43.5393 19.964 17.5249
538 2 47.5419 19.8969 17.8618
539 2 51.6069 20.0548 17.7524
540 2 55.2109 19.9817 17.7755
541 2 59.2907 23.8149 17.64
542 2 3.95486 23.8561 17.7159
543 2 8.07718 23.8111 17.8247
544 2 11.9647 23.8743 17.7665
545 2 16.0268 23.825 17.8339
546 2 19.9007 23.8009 17.7966
547 2 23.8435 23.8883 17.9458
548 2 27.7784 23.8475 17.6817
549 2 31.7713 23.7474 17.6412
550 2 35.7326 23.8032 17.8489
551 2 39.7127 23.8658 17.7743
552 2 43.7302 23.9418 17.6228
553 2 47.4408 23.932 17.6639
554 2 51.4014 23.8145 17.7422
555 2 55.4558 23.9633 17.7266
556 2 59.5001 27.8671 17.73
557 2 4.25918 27.7306 17.8509
558 2 7.99485 27.7941 17.9678
559 2 11.8213 27.7985 17.7575
560 2 15.9889 27.766 17.6237
561 2 19.9425 27.8411 17.782
562 2 23.7702 27.7736 17.7903
563 2 27.6343 27.5955 17.8903
564 2 31.725 27.7613 17.8537
565 2 35.7822 27.8393 17.7612
566 2 39.6891 27.8707 17.7956
567 2 43.7329 27.8224 17.557
568 2 47.7081 27.8309 17.6885
569 2 51.5848 27.8136 17.888
570 2 55.5008 27.8973 17.7757
571 2 59.711 31.6147 17.6547
572 2 4.30408 31.6099 17.5412
573 2 8.39345 31.6857 17.5118
574 2 12.1112 31.7687 17.7978
575 2 16.0717 31.7454 17.6593
576 2 19.8673 31.6895 17.8219
577 2 23.6818 31.716 17.588
578 2 27.7968 31.7804 17.8118
579 2 31.7358 31.86 17.7532
580 2 35.6039 31.6945 18.0062
581 2 39.762 31.6826 17.9304
582 2 43.705 31.7739 17.7511
583 2 47.6926 31.5863 17.763
584 2 51.6279 31.7701 17.7588
585 2 55.4897 31.7451 17.7766
586 2 59.4722 35.6007 17.5787
587 2 4.18648 35.5311 17.6964
588 2 8.05259 35.7905 17.6963
589 2 12.0291 35.7175 17.8953
590 2 15.8536 35.5583 17.8812
591 2 19.877 35.4925 17.6825
592 2 23.9429 35.7328 17.7864
593 2 27.8844 35.6291 17.9852
594 2 31.5948 35.761 17.8114
595 2 35.6319 35.7198 17.9421
596 2 39.7908 35.8639 17.7492
597 2 43.6547 35.5576 17.9233
598 2 47.6339 35.6237 17.849
599 2 51.6959 35.5841 17.8776
600 2 55.6344 35.5829 17.7071
601 2 59.4122 39.5127 17.7225
602 2 3.96974 39.6923 17.8738
603 2 8.13076 39.7666 17.5373
604 2 12.1649 39.5032 17.9524
605 2 16.0855 39.5823 17.7701
606 2 19.9049 39.7957 17.8332
607 2 23.8332 39.524 17.5987
608 2 27.779 39.7918 17.669
609 2 31.7061 39.7924 17.7209
610 2 35.8252 39.7971 17.7395
611 2 39.784 39.764 17.7165
612 2 43.5921 39.5755 17.7371
613 2 47.2973 39.5438 17.6941
614 2 51.561 39.5083 17.9506
615 2 55.4151 39.5303 17.8379
616 2 59.5939 43.6688 17.7844
617 2 3.94666 43.5312 17.8317
618 2 7.78961 43.8014 17.7624
619 2 11.7172 43.7579 17.6641
620 2 15.7659 43.7621 17.6693
621 2 19.9225 43.5545 17.7297
622 2 23.821 43.6704 17.703
623 2 27.661 43.7113 17.8219
624 2 31.4944 43.5822 17.6608
625 2 35.7207 43.6654 17.8039
626 2 39.7069 43.5184 17.8645
627 2 43.7131 43.7944 17.8095
628 2 47.6233 43.5177 17.6779
629 2 51.6014 43.5635 17.7006
630 2 55.5893 43.7899 17.6734
631 2 -0.0125544 47.6993 17.7369
632 2 4.02857 47.6003 17.8067
633 2 8.03727 47.8075 17.7875
634 2 12.0964 47.6402 17.6576
635 2 15.8948 47.6432 17.8964
636 2 19.8076 47.541 17.7811
637 2 23.7341 47.6183 17.8883
638 2 27.6595 47.6009 17.6886
639 2 31.712 47.5489 17.7163
640 2 35.6733 47.4915 17.8135
641 2 39.5348 47.5388 17.734
642 2 43.5415 47.8537 17.7982
643 2 47.4035 47.3736 17.9117
644 2 51.4387 47.6024 17.8358
645 2 55.5969 47.4756 17.914
646 2 59.3453 51.3977 17.867
647 2 3.88709 51.5518 17.7971
648 2 7.966 51.6978 17.9849
649 2 11.9632 51.5202 17.6649
650 2 16.0685 51.7313 17.7508
651 2 19.8495 51.5675 17.7527
652 2 23.5777 51.631 17.7559
653 2 27.8163 51.6319 17.7775
654 2 31.8471 51.5116 18.0012
655 2 35.7438 51.5071 17.7377
656 2 39.6154 51.4586 17.7928
657 2 43.4956 51.7124 17.7014
658 2 47.4997 51.3533 17.7436
659 2 51.5347 51.3902 17.7928
660 2 55.3455 51.6953 17.8866
661 2 59.4096 55.5028 17.6623
662 2 3.94011 55.3826 17.6524
663 2 7.86603 55.5712 17.7303
664 2 12.0217 55.6797 17.6882
665 2 15.9815 55.3774 18.038
666 2 19.9461 55.6367 17.7187
667 2 24.0361 55.5099 17.7597
668 2 27.8095 55.7286 17.7612
669 2 31.8048 55.3284 17.7468
670 2 35.8335 55.6038 17.5586
671 2 39.5329 55.4205 17.6666
672 2 43.6072 55.6767 17.7737
673 2 47.7499 55.5351 17.7991
674 2 51.4324 55.4315 17.8627
675 2 55.4037 55.4743 17.8185
676 2 -0.121282 0.0702978 21.8179
677 2 4.05198 0.182579 21.8681
678 2 7.84301 0.0133196 21.7134
679 2 11.9533 0.0118325 21.9438
680 2 15.8625 0.0785167 21.9304
681 2 19.7045 59.599 21.7053
682 2 23.801 59.5614 21.7577
683 2 27.915 59.5476 21.6933
684 2 31.8114 0.00222634 21.678
685 2 35.7401 59.4217 21.7662
686 2 39.8288 59.4707 21.7843
687 2 43.517 59.3392 21.7663
688 2 47.5149 59.5337 21.8
689 2 51.4373 0.157466 21.8108
690 2 55.1597 0.0452762 21.8663
691 2 59.4987 3.94488 21.7174
692 2 3.84147 4.09274 21.8955
693 2 8.07565 4.14686 21.7053
694 2 12.0725 3.98309 21.7852
695 2 15.7216 4.14631 21.6932
696 2 19.8226 3.93195 21.6416
697 2 23.7748 4.25015 21.7858
698 2 27.7058 4.09119 21.7746
699 2 31.72 4.11014 21.8191
700 2 35.7098 4.00514 21.9427
701 2 39.8101 4.0437 21.8093
702 2 43.6427 4.11295 21.804
703 2 47.5948 4.10123 21.4842
704 2 51.3989 4.25912 21.6781
705 2 55.5189 3.98169 21.7418
706 2 59.5472 7.92377 21.585
707 2 4.03806 8.26046 21.6319
708 2 7.95121 7.93106 21.9991
709 2 12.0531 7.90951 21.8345
710 2 15.8247 7.91812 21.8058
711 2 19.8423 8.13803 21.804
712 2 23.7576 8.15887 21.6946
713 2 27.682 8.05006 21.9286
714 2 31.5854 7.97893 21.8133
715 2 35.7685 7.98419 21.8155
716 2 39.7022 8.25434 21.5453
717 2 43.4409 8.05459 21.7944
718 2 47.215 8.0266 21.7531
719 2 51.5353 8.07542 21.8037
720 2 55.4227 7.93199 21.7902
721 2 59.2091 12.1396 21.6332
722 2 3.93765 12.1016 21.6778
723 2 7.79646 11.9115 21.4976
724 2 11.7219 11.9537 21.6788
725 2 15.7402 12.1118 21.7089
726 2 19.893 12.093 21.7828
727 2 23.765 12.045 21.6945
728 2 27.8912 11.9023 21.6958
729 2 31.7574 11.9921 21.9079
730 2 35.5017 11.8737 21.7411
731 2 39.7249 12.0977 21.5848
732 2 43.6375 11.9642 21.6574
733 2 47.6316 12.0131 21.7973
734 2 51.5854 11.8996 21.6663
735 2 55.3712 12.1956 21.6979
736 2 0.0898648 15.9444 21.7505
737 2 3.74137 16.1191 21.7542
738 2 7.9167 15.9956 21.8733
739 2 11.8627 15.8888 21.8203
740 2 15.7198 15.6678 21.4698
741 2 19.9178 15.8576 21.7564
742 2 23.7475 15.905 22.0099
743 2 27.689 15.9737 21.8144
744 2 31.7634 16.0997 21.8007
745 2 35.6852 15.9049 21.7142
746 2 39.595 16.1049 21.9117
747 2 43.3433 15.9043 21.6123
748 2 47.4155 16.0564 21.8997
749 2 51.3356 16.0233 21.749
750 2 55.4614 15.9673 21.8425
751 2 59.274 19.9501 21.7649
752 2 3.84493 19.8147 21.7626
753 2 7.78563 19.7568 21.8292
754 2 11.9076 19.8509 21.9765
755 2 15.8435 19.8779 21.9494
756 2 19.8173 19.6743 21.7948
757 2 23.8352 19.9457 21.857
758 2 27.7278 19.961 21.9554
759 2 31.4582 19.9202 21.7071
760 2 35.3022 19.9805 21.7023
761 2 39.4516 19.7646 21.9033
762 2 43.5727 19.8096 21.4963
763 2 47.4351 20.0782 21.6251
764 2 51.3531 20.068 21.6484
765 2 55.2115 19.7973 21.5575
766 2 59.2744 23.7579 21.8889
767 2 3.77657 23.8831 21.6479
768 2 7.84545 23.784 21.7881
769 2 12.1236 23.7762 21.7431
770 2 15.8267 23.785 21.8457
771 2 19.7133 23.6146 21.8312
772 2 23.6379 23.8891 22.0843
773 2 27.7036 23.7605 21.8379
774 2 31.8073 23.7646 21.6999
775 2 35.798 23.8703 21.6766
776 2 39.5945 23.9147 21.8479
777 2 43.3933 23.9391 21.5411
778 2 47.5624 23.9362 21.6148
779 2 51.5257 24.0287 21.7202
780 2 55.4906 23.9082 21.5471
781 2 59.3793 27.7352 21.6882
782 2 3.84328 27.8503 21.7327
783 2 7.84004 27.7775 21.6926
784 2 11.9098 27.878 21.7151
785 2 15.8748 27.7946 21.8301
786 2 19.8348 27.723 21.9177
787 2 23.8642 27.8393 21.7169
788 2 27.5405 27.8073 21.9661
789 2 31.6318 27.6632 21.944
790 2 35.533 27.9501 21.6595
791 2 39.4101 27.9164 21.7073
792 2 43.567 27.7211 21.7885
793 2 47.5173 28.0825 21.6489
794 2 51.4129 27.7507 21.7887
795 2 55.367 28.1854 21.5852
796 2 59.4863 31.9142 21.7567
797 2 4.0219 31.8002 21.8179
798 2 7.9513 31.8129 21.7316
799 2 11.8357 31.7651 21.7435
800 2 15.7434 31.8243 21.7838
801 2 19.7266 31.7452 21.6191
802 2 23.7272 31.7732 21.7354
803 2 27.7793 31.5869 21.7713
804 2 31.5593 31.5916 21.7809
805 2 35.301 31.7645 21.8669
806 2 39.5281 31.9987 21.88
807 2 43.5468 31.8367 21.7332
808 2 47.5641 31.7267 21.8653
809 2 51.6723 31.8438 21.8059
810 2 55.6188 31.7487 21.7736
811 2 -0.0271557 35.7826 21.6179
812 2 4.16167 35.6518 21.473
813 2 7.82231 35.852 21.7228
814 2 11.9361 35.6356 21.8572
815 2 16.0016 35.7476 21.7951
816 2 19.8251 35.6419 21.8611
817 2 23.7629 35.8228 21.7637
818 2 27.4805 35.6771 21.8274
819 2 31.5204 35.8754 21.9104
820 2 35.3646 35.6868 21.8146
821 2 39.4187 35.8355 21.637
822 2 43.5968 35.6337 21.6765
823 2 47.743 35.6331 21.7582
824 2 51.6299 35.705 21.7395
825 2 55.464 35.6233 21.7969
826 2 0.0969238 39.6396 21.5886
827 2 4.05767 39.5436 21.9123
828 2 8.09185 39.8044 21.4989
829 2 12.0343 39.706 21.8503
830 2 15.9329 39.6495 21.7658
831 2 19.8403 39.7353 21.8988
832 2 23.8967 39.5452 21.8204
833 2 27.6108 39.6376 21.7581
834 2 31.7423 39.7876 21.8211
835 2 35.5601 39.9132 21.7057
836 2 39.631 39.5224 21.557
837 2 43.6946 39.6514 21.7498
838 2 47.6964 39.5513 21.6983
839 2 51.4131 39.501 21.8035
840 2 55.5704 39.6497 21.6166
841 2 59.5765 43.502 21.7185
842 2 4.11604 43.6005 21.8057
843 2 8.053 43.8372 21.6011
844 2 12.0044 43.7019 21.7317
845 2 16.0569 43.6227 21.6928
846 2 19.9194 43.6617 21.7758
847 2 23.7568 43.4472 21.8549
848 2 27.7803 43.7887 21.678
849 2 31.5125 43.6672 21.7177
850 2 35.6877 43.6995 21.7605
851 2 39.5058 43.5071 21.8858
852 2 43.4933 43.3632 21.9284
853 2 47.717 43.4796 21.4168
854 2 51.5182 43.6841 21.676
855 2 55.3542 43.4146 21.7044
856 2 -0.0643096 47.5338 21.9382
857 2 3.99223 47.4698 21.7465
858 2 8.0184 47.6488 21.7375
859 2 11.9216 47.5177 21.6208
860 2 15.8914 47.7784 21.6677
861 2 19.881 47.4747 21.8199
862 2 23.7173 47.5956 21.7728
863 2 27.5823 47.7497 21.7479
864 2 31.5718 47.6699 21.6617
865 2 35.4701 47.3978 21.6816
866 2 39.5491 47.3536 21.8655
867 2 43.5394 47.5892 21.7297
868 2 47.6138 47.4063 21.7579
869 2 51.4466 47.5969 21.7331
870 2 55.4686 47.4949 21.7041
871 2 59.5156 51.4161 21.9206
872 2 3.95506 51.4375 21.8158
873 2 8.0771 51.3127 21.6825
874 2 11.9053 51.5132 21.905
875 2 16.0354 51.5533 21.5741
876 2 19.9085 51.6448 21.828
877 2 23.6569 51.7768 21.5337
878 2 27.8196 51.5747 21.7722
879 2 31.7903 51.5474 21.8457
880 2 35.7558 51.5969 21.7794
881 2 39.652 51.6032 21.7606
882 2 43.5955 51.623 21.7198
883 2 47.3017 51.5063 21.8333
884 2 51.5023 51.4789 21.6153
885 2 55.5422 51.5606 21.9964
886 2 59.4928 55.3057 21.7618
887 2 3.90223 55.466 21.585
888 2 7.90025 55.3434 21.8054
889 2 11.8713 55.532 22.0059
890 2 16.0093 55.4965 21.9094
891 2 19.851 55.6555 21.8775
892 2 23.8038 55.5413 21.9225
893 2 27.7853 55.5452 21.7828
894 2 31.5255 55.5996 21.801
895 2 35.672 55.5632 21.8495
896 2 39.5 55.5755 21.7874
897 2 43.6352 55.5905 21.6827
898 2 47.4747 55.3633 21.7813
899 2 51.3693 55.4527 21.7828
900 2 55.2936 55.5332 21.7644
901 2 59.4092 0.0211239 25.7687
902 2 4.04906 59.292 25.7992
903 2 7.83296 0.0952065 25.6868
904 2 11.6884 0.0621187 25.7106
905 2 15.7218 59.5721 25.8553
906 2 19.7482 0.206193 25.828
907 2 24.0452 0.149028 25.6356
908 2 27.8233 0.105 25.7169
909 2 31.7226 59.4835 25.7417
910 2 35.6354 0.115048 25.739
911 2 39.6722 0.300621 25.6306
912 2 43.6378 0.140392 25.5708
913 2 47.3919 0.255953 25.6625
914 2 51.3806 0.247588 25.5915
915 2 55.416 59.5123 25.8168
916 2 59.4675 4.02844 25.6948
917 2 3.96395 4.33836 25.7069
918 2 7.90589 3.96042 25.7268
919 2 11.9545 4.12118 25.8425
920 2 15.8087 3.89201 25.771
921 2 19.7819 4.15673 25.7738
922 2 23.6325 3.87957 25.5112
923 2 27.7575 4.10594 25.7289
924 2 31.7625 3.77886 25.9049
925 2 35.6383 4.12429 25.6778
926 2 39.5038 4.20301 25.6216
927 2 43.4845 4.18218 25.7881
928 2 47.4933 4.23258 25.6359
929 2 51.6102 3.99286 25.8982
930 2 55.5017 4.05493 25.8502
931 2 59.435 8.14695 25.6305
932 2 3.86178 8.05301 25.6014
933 2 7.91757 8.08141 25.8741
934 2 11.9301 8.04197 25.7968
935 2 15.8044 8.0119 25.8131
936 2 19.8309 7.78415 25.7201
937 2 23.6665 8.10741 25.743
938 2 27.5446 8.13281 25.727
939 2 31.6473 7.89998 25.8437
940 2 35.4709 8.0352 25.8065
941 2 39.6392 8.00368 25.851
942 2 43.5751 7.9677 25.8105
943 2 47.4837 7.96191 25.6759
944 2 51.3816 8.02006 25.6917
945 2 55.3476 8.00947 25.516
946 2 59.1002 11.9748 25.7172
947 2 3.95718 11.928 25.697
948 2 7.93019 11.7417 25.476
949 2 11.8227 11.9262 25.7554
950 2 15.9059 12.0827 25.8444
951 2 19.6815 12.0331 25.7175
952 2 23.5821 11.7847 25.6735
953 2 27.7501 12.0969 25.7863
954 2 31.6933 11.7493 25.7994
955 2 35.7703 12.0541 25.5579
956 2 39.685 12.016 25.7171
957 2 43.4341 11.9502 25.6085
958 2 47.3584 12.0621 25.8132
959 2 51.3164 12.0152 25.6992
960 2 55.3426 12.0671 25.8404
961 2 59.305 15.9658 25.7258
962 2 3.85844 15.9095 25.6168
963 2 7.95337 15.9066 25.8023
964 2 11.8627 15.7589 25.8027
965 2 15.96 15.8569 25.7008
966 2 19.7143 15.9602 25.4988
967 2 23.7219 15.9178 25.8994
968 2 27.6964 15.7923 25.948
969 2 31.636 15.8862 25.8143
970 2 35.5192 16.018 25.8905
971 2 39.3267 15.815 25.7268
972 2 43.5058 15.9007 25.53
973 2 47.1963 16.0523 25.4884
974 2 51.2829 15.9635 25.747
975 2 55.2711 15.9501 25.5577
976 2 59.2306 20.0061 25.769
977 2 3.92242 19.8482 25.7741
978 2 7.86168 19.8358 25.6944
979 2 11.9042 19.9291 25.7839
980 2 15.7185 19.8872 25.7775
981 2 19.6382 19.7732 25.8637
982 2 23.6402 19.8442 25.8153
983 2 27.7419 19.8081 25.8095
984 2 31.5765 19.8454 25.5715
985 2 35.5861 20.0847 25.9079
986 2 39.4934 19.8481 25.8243
987 2 43.5154 20.0712 25.7113
988 2 47.4916 19.8287 25.6438
989 2 51.562 20.0768 25.7774
990 2 55.3856 19.8896 25.7068
991 2 59.346 23.7087 25.5319
992 2 3.97661 23.9779 25.7732
993 2 7.66914 23.9841 25.9066
994 2 11.5971 23.8921 25.7434
995 2 15.586 23.8879 25.9006
996 2 19.5699 23.8184 25.8025
997 2 23.5209 23.8784 25.7955
998 2 27.6467 23.9612 25.7183