ITEM: TIMESTEP
1504300
ITEM: NUMBER OF ATOMS
16875
ITEM: BOX BOUNDS xy xz yz pp pp pp
0.0000000000000000e+00 5.9369999999999997e+01 0.0000000000000000e+00
0.0000000000000000e+00 5.9369999999999997e+01 0.0000000000000000e+00
3.2005944294563804e-01 6.0046359557057556e+01 0.0000000000000000e+00
ITEM: ATOMS id type x y z
1 2 59.61 -0.0120502 9.66346
2 2 4.30718 -0.120207 9.76423
3 2 7.98164 0.0400207 9.53699
4 2 11.906 59.3149 9.81948
5 2 15.9124 -0.0187034 9.58191
6 2 19.9194 0.176405 9.8023
7 2 23.9855 0.0279924 9.81577
8 2 27.8686 -0.0541287 9.78669
9 2 31.6238 -0.0367234 9.73962
10 2 35.7041 0.0336636 9.7477
11 2 39.6259 0.059295 9.79872
12 2 43.5874 0.000235736 9.81863
13 2 47.3885 0.115786 9.81501
14 2 51.5779 0.01884 9.77516
15 2 55.5611 -0.116542 9.71242
16 2 59.6083 3.91941 9.74326
17 2 3.9062 4.01328 9.84565
18 2 8.05378 3.90997 9.7491
19 2 12.1711 3.98038 9.65441
20 2 15.911 4.03585 9.79197
21 2 19.9355 3.91544 9.76813
22 2 23.8348 4.02957 9.98917
23 2 27.8127 4.0036 9.94803
24 2 31.7055 3.95582 9.82779
25 2 35.5317 4.00538 9.8544
26 2 39.811 3.99109 9.62685
27 2 43.7345 3.92938 9.82829
28 2 47.7769 3.85432 9.87004
29 2 51.6391 3.87 10.0735
30 2 55.6773 4.12676 9.77639
31 2 59.3847 8.07148 9.86626
32 2 3.92431 7.99734 9.81174
33 2 7.97217 7.92063 9.60024
34 2 11.9734 7.90631 9.67373
35 2 16.0171 7.92116 9.74767
36 2 19.8285 7.91056 9.89682
37 2 23.8309 7.80928 9.84371
38 2 27.9803 8.0283 9.78121
39 2 31.701 7.88884 9.95935
40 2 35.7228 7.97433 9.82147
41 2 39.9213 7.88934 9.85393
42 2 43.7964 7.95152 9.8304
43 2 47.4431 8.00463 9.80218
44 2 51.5093 7.70711 9.72199
45 2 55.4982 8.10905 9.97006
46 2 0.137745 12.1391 9.82611
47 2 4.14457 11.8876 9.7495
48 2 8.10388 12.1348 9.56498
49 2 11.8772 12.1193 9.83555
50 2 15.88 11.9698 9.86179
51 2 19.8792 11.8393 9.75575
52 2 23.8493 11.7333 9.81678
53 2 27.6973 11.8797 9.82485
54 2 31.6916 11.7745 9.88565
55 2 35.5411 12.0147 9.80662
56 2 39.5469 11.7945 9.89863
57 2 43.6428 11.6161 9.89288
58 2 47.5856 11.7743 9.86913
59 2 51.5118 11.9308 9.73039
60 2 55.3001 11.7571 9.88722
61 2 0.00876703 15.9102 9.8797
62 2 4.17376 15.8147 9.85321
63 2 8.16328 15.904 9.77558
64 2 12.0453 16.0356 9.72445
65 2 15.8325 15.8834 9.8379
66 2 20.0836 15.893 9.83528
67 2 23.9139 15.7897 9.83056
68 2 27.8347 15.8781 9.70709
69 2 31.6643 15.8966 9.86779
70 2 35.5874 15.9442 9.87179
71 2 39.4533 15.9768 9.8019
72 2 43.6446 15.6395 9.80455
73 2 47.5177 15.8969 9.69925
74 2 51.5129 16.1076 9.67912
75 2 55.5715 15.8963 9.79851
76 2 59.5922 19.6156 9.88353
77 2 4.09979 19.9437 9.9425
78 2 8.02467 19.7665 9.67678
79 2 12.0603 19.9495 9.6603
80 2 16.0222 20.0289 9.73308
81 2 19.9489 19.7191 9.85455
82 2 23.8624 19.8812 9.70778
83 2 27.7999 19.7449 9.93083
84 2 31.7638 19.8591 9.94977
85 2 35.6739 19.815 9.66226
86 2 39.7035 19.7487 9.90213
87 2 43.5588 19.7504 9.90476
88 2 47.7344 19.7276 9.69227
89 2 51.5627 19.6937 9.91126
90 2 55.5735 19.8119 9.75661
91 2 59.3338 23.7553 9.89911
92 2 3.98579 23.9717 9.68563
93 2 7.97221 23.9045 9.93912
94 2 11.6776 24.0257 9.83589
95 2 15.9581 23.8308 9.66368
96 2 19.8508 23.6334 9.99356
97 2 23.8477 23.7729 9.88587
98 2 27.7052 23.8209 9.76775
99 2 31.6767 23.876 9.80578
100 2 35.6664 23.684 9.79064
101 2 39.6454 23.6932 10.0261
102 2 43.6282 23.7426 9.7971
103 2 47.489 23.9293 9.72431
104 2 51.5718 23.6613 9.77459
105 2 55.3516 23.8061 9.8275
106 2 0.248278 27.7216 9.85287
107 2 4.02546 27.9382 9.79728
108 2 8.20435 27.9725 9.75917
109 2 11.8566 27.7488 9.61072
110 2 15.9286 27.8078 9.96229
111 2 19.8275 27.6189 9.82755
112 2 23.8697 27.6946 9.76897
113 2 27.68 27.8223 9.87278
114 2 31.6427 27.8503 9.83843
115 2 35.8756 27.5067 9.84761
116 2 39.7921 27.8947 9.8607
117 2 43.605 27.7035 9.82771
118 2 47.6302 27.7597 9.87522
119 2 51.5223 27.7517 9.86744
120 2 55.5297 27.7466 9.99534
121 2 0.237763 31.8216 9.74401
122 2 3.91924 31.7759 9.47246
123 2 7.9462 31.9274 9.79619
124 2 11.9633 31.7185 10.0067
125 2 15.6843 31.6616 9.71576
126 2 20.0549 31.549 9.65418
127 2 23.8882 31.5558 9.70431
128 2 27.7932 31.4899 9.99054
129 2 31.8793 31.5458 10.0467
130 2 35.7172 31.8372 9.7973
131 2 39.5836 31.662 9.98795
132 2 43.6626 31.9167 9.8135
133 2 47.432 31.6079 9.57695
134 2 51.5062 31.7452 9.83101
135 2 55.4869 31.5343 9.69276
136 2 59.2658 35.6098 9.79687
137 2 4.02864 35.5142 9.90329
138 2 7.89728 35.7852 9.75868
139 2 11.9494 35.8072 9.7433
140 2 15.9672 35.4898 9.78423
141 2 20.0164 35.537 9.86679
142 2 23.8906 35.6955 9.82563
143 2 27.6307 35.7201 9.94454
144 2 31.8431 35.5736 9.73143
145 2 35.6806 35.7126 9.85602
146 2 39.5934 35.6805 9.67591
147 2 43.7877 35.716 9.67181
148 2 47.723 35.8459 9.72625
149 2 51.3517 35.7683 9.78097
150 2 55.4473 35.7653 9.73088
151 2 59.5601 39.588 9.61098
152 2 3.81739 39.7442 9.6683
153 2 7.96919 39.6581 9.73441
154 2 11.9765 39.6171 9.78809
155 2 15.9066 39.3715 9.69476
156 2 19.7223 39.3421 9.63431
157 2 23.775 39.4971 9.78068
158 2 27.77 39.399 9.69117
159 2 31.9272 39.5134 9.9919
160 2 35.7007 39.7536 9.82437
161 2 39.5655 39.6367 9.77036
162 2 43.5269 39.7273 9.69757
163 2 47.5362 39.4415 9.80338
164 2 51.6457 39.6731 9.79963
165 2 55.6153 39.5462 9.82386
166 2 59.3982 43.5226 9.73039
167 2 4.14118 43.6917 9.85946
168 2 8.02108 43.5346 10.0023
169 2 12.1062 43.3588 9.76164
170 2 16.0421 43.5637 9.76706
171 2 19.9571 43.5287 9.7799
172 2 23.8367 43.2113 9.73413
173 2 27.7082 43.5701 9.88535
174 2 31.723 43.3875 9.73896
175 2 35.5656 43.5231 9.75914
176 2 39.8038 43.6225 9.95393
177 2 43.707 43.6806 9.95188
178 2 47.6024 43.4503 9.85066
179 2 51.5676 43.6388 9.71312
180 2 55.5533 43.5965 9.98422
181 2 59.6898 47.4711 9.81602
182 2 4.16097 47.6117 9.81478
183 2 8.09206 47.575 9.74404
184 2 12.0442 47.2149 9.78721
185 2 15.9265 47.6269 9.72828
186 2 19.9532 47.404 9.77861
187 2 23.8242 47.4831 9.75204
188 2 27.7864 47.4633 9.44952
189 2 31.8068 47.5294 9.70273
190 2 35.7102 47.4964 9.76909
191 2 39.5007 47.5938 9.88217
192 2 43.7797 47.7726 9.74244
193 2 47.7913 47.4579 9.81319
194 2 51.5558 47.663 9.72584
195 2 55.4504 47.429 9.76449
196 2 0.182212 51.422 9.79262
197 2 3.93252 51.3987 9.81994
198 2 8.27369 51.35 9.76415
199 2 12.0048 51.3365 9.60057
200 2 16.0033 51.4118 9.66646
201 2 19.9889 51.3424 9.85534
202 2 23.9215 51.4979 9.9117
203 2 27.8203 51.4202 9.71696
204 2 31.6876 51.3679 9.80705
205 2 35.5821 51.4716 9.98885
206 2 39.6973 51.7379 9.6791
207 2 43.7458 51.5073 9.83671
208 2 47.4518 51.5669 9.8495
209 2 51.535 51.4837 9.84602
210 2 55.5184 51.2893 9.89771
211 2 59.6813 55.4972 9.68351
212 2 4.25575 55.327 9.7191
213 2 8.08891 55.3611 9.74541
214 2 12.063 55.4735 9.69963
215 2 16.0297 55.4977 9.6199
216 2 20.0481 55.2505 9.64467
217 2 23.6425 55.4538 9.79626
218 2 27.9049 55.2706 9.8128
219 2 31.73 55.5296 9.77827
220 2 35.8074 55.3532 9.92099
221 2 39.6211 55.5062 9.88141
222 2 43.4588 55.4573 9.81822
223 2 47.5586 55.5745 9.96831
224 2 51.6762 55.4846 9.70693
225 2 55.7101 55.3501 9.88695
226 2 59.5222 0.0370854 13.7826
227 2 4.05799 0.0166476 13.8145
228 2 8.17709 0.0554794 13.7947
229 2 11.8389 59.4366 13.8657
230 2 15.8901 0.0205778 13.7787
231 2 20.0941 0.143838 13.7553
232 2 23.8087 0.055868 13.836
233 2 27.8948 0.0303063 13.8941
234 2 31.8444 -0.174401 13.5711
235 2 35.6203 59.6694 13.7069
236 2 39.5935 0.0307025 13.7686
237 2 43.6508 0.400509 13.6651
238 2 47.6947 59.3409 13.6887
239 2 51.666 0.213791 13.8351
240 2 55.4205 -0.0267818 13.6147
241 2 59.4654 4.05686 13.7343
242 2 4.22094 3.85066 13.6743
243 2 8.04814 4.17208 13.6601
244 2 11.8453 3.92614 13.6868
245 2 15.7959 4.10537 13.8635
246 2 20.0463 4.02874 13.6979
247 2 23.6942 4.12172 13.8277
248 2 27.7289 4.06764 13.8725
249 2 31.6591 3.97234 13.7456
250 2 35.3687 3.87176 13.752
251 2 39.5078 3.86326 13.6682
252 2 43.5628 4.00188 13.8687
253 2 47.5327 4.08363 13.7978
254 2 51.6685 4.13857 13.7353
255 2 55.3306 4.07155 13.8846
256 2 59.3618 8.18613 13.871
257 2 3.97468 8.03698 13.7166
258 2 8.06889 8.0002 13.6693
259 2 11.7399 7.95756 13.6777
260 2 15.8589 8.04679 13.5754
261 2 19.791 7.86919 13.877
262 2 23.7711 7.98202 13.8342
263 2 27.8931 8.10333 13.7573
264 2 31.6859 7.93335 13.9033
265 2 35.6801 7.89801 13.8235
266 2 39.6837 7.75246 13.9387
267 2 43.4861 7.94048 13.9859
268 2 47.4396 7.86068 13.8148
269 2 51.5712 8.08009 13.7402
270 2 55.6012 8.04861 13.7438
271 2 0.142681 11.8898 13.8766
272 2 4.18584 11.8511 13.9108
273 2 8.08159 11.7862 13.7796
274 2 11.9835 12.0856 13.7339
275 2 15.9293 12.1259 13.7221
276 2 19.7993 12.0515 13.8538
277 2 23.7088 11.9423 13.8219
278 2 27.9621 11.9977 14.0038
279 2 31.8391 11.9624 13.91
280 2 35.7313 11.8319 13.8753
281 2 39.6651 12.1011 13.8545
282 2 43.533 11.9074 13.7979
283 2 47.723 11.9844 13.7074
284 2 51.5273 11.9686 14.0258
285 2 55.3824 11.9758 13.967
286 2 59.4636 15.8559 13.9909
287 2 4.24332 16.0666 13.8298
288 2 8.06401 15.9285 13.7199
289 2 11.8822 16.1054 13.8825
290 2 15.8722 15.9535 13.7846
291 2 19.8471 15.831 13.7197
292 2 23.9244 16.0799 13.8095
293 2 27.7691 15.8164 13.9387
294 2 31.6722 15.8674 13.8255
295 2 35.7149 15.7787 13.8729
296 2 39.5868 15.8816 13.7596
297 2 43.8098 15.7589 13.8648
298 2 47.6295 15.9564 13.8897
299 2 51.657 15.8152 13.8789
300 2 55.5017 15.9138 13.7682
301 2 59.6268 19.7718 13.8716
302 2 4.26975 19.8967 13.6613
303 2 8.12147 20.1455 13.9293
304 2 11.9422 20.0108 13.6855
305 2 15.9483 19.7391 13.6731
306 2 19.9248 19.6833 13.7004
307 2 23.9583 19.8428 13.8743
308 2 27.8252 19.8097 13.6998
309 2 31.8351 19.7207 13.8567
310 2 35.5476 19.8596 13.8699
311 2 39.8472 19.9532 13.7013
312 2 43.8013 20.0476 13.781
313 2 47.8055 19.7964 13.7853
314 2 51.4974 19.8891 13.8071
315 2 55.4108 19.878 13.7739
316 2 59.4735 23.91 13.6873
317 2 4.0489 23.8505 13.8822
318 2 7.96307 24.0331 13.9084
319 2 11.7499 23.7796 13.7613
320 2 15.8787 23.7582 13.889
321 2 19.7023 23.7765 13.886
322 2 23.7752 23.8605 13.7111
323 2 27.8508 23.8889 13.9559
324 2 31.7249 23.8606 13.8815
325 2 35.7388 23.9624 13.5701
326 2 39.7106 23.7003 13.8453
327 2 43.5777 23.8288 13.6751
328 2 47.6253 23.9386 13.7278
329 2 51.5226 23.7871 13.9233
330 2 55.5332 23.8075 13.7788
331 2 0.124642 27.8223 13.8384
332 2 3.82749 27.7576 13.804
333 2 8.05648 27.918 13.7775
334 2 11.8697 27.8512 13.9159
335 2 16.0185 27.8224 13.6878
336 2 19.9712 27.8192 13.9034
337 2 23.7991 27.8839 13.8631
338 2 27.9579 27.7009 13.8811
339 2 31.7139 27.6649 13.948
340 2 35.6578 27.5544 13.8095
341 2 39.904 27.9716 13.8325
342 2 43.8789 27.6763 13.933
343 2 47.7123 27.8059 13.7684
344 2 51.4299 27.9255 13.7802
345 2 55.4961 27.6585 13.685
346 2 59.5398 31.7149 13.6984
347 2 4.1417 31.8605 13.7896
348 2 8.00576 31.7227 13.9095
349 2 12.0447 31.6254 13.7734
350 2 15.8176 31.5502 13.651
351 2 19.8205 31.5861 13.6711
352 2 23.81 31.5884 13.7894
353 2 27.9 31.7319 13.9743
354 2 31.7134 31.6977 13.7186
355 2 35.8387 31.6078 13.7944
356 2 39.6601 31.7185 13.7746
357 2 43.6366 32.0603 13.7956
358 2 47.4631 31.7859 13.6447
359 2 51.4908 31.8208 13.7596
360 2 55.2699 31.6721 13.5387
361 2 0.0513121 35.48 13.8944
362 2 3.99542 35.7291 13.6517
363 2 8.08503 35.7816 13.4727
364 2 11.8694 35.5704 13.5097
365 2 15.9677 35.4934 13.7072
366 2 19.9092 35.311 13.9079
367 2 23.7967 35.5907 13.8342
368 2 27.761 35.5367 13.9294
369 2 31.7678 35.6505 13.9823
370 2 35.8777 35.632 13.9072
371 2 39.665 35.6958 13.775
372 2 43.4673 35.8567 13.7703
373 2 47.4215 35.6647 13.6607
374 2 51.6932 35.609 13.7672
375 2 55.4254 35.8018 13.683
376 2 59.4282 39.4169 13.6424
377 2 4.09968 39.7265 13.755
378 2 7.84417 39.8286 13.9109
379 2 11.8795 39.7703 13.8075
380 2 15.8976 39.3446 13.7729
381 2 19.9621 39.567 13.6825
382 2 23.6673 39.8047 13.7028
383 2 27.6633 39.5528 13.6554
384 2 31.751 39.725 13.8407
385 2 35.5942 39.8063 13.7816
386 2 39.6715 39.7485 13.9356
387 2 43.5371 39.7331 13.8599
388 2 47.5555 39.7489 13.9471
389 2 51.4049 39.5609 13.9111
390 2 55.4312 39.6618 13.8515
391 2 0.00894052 43.8387 13.6602
392 2 3.76323 43.6004 13.6611
393 2 7.92576 43.6322 13.9228
394 2 12.0354 43.6349 13.9463
395 2 16.104 43.4976 13.8434
396 2 19.8374 43.5743 13.786
397 2 23.8486 43.6905 13.7325
398 2 27.7683 43.4868 13.5246
399 2 31.6891 43.6769 13.8349
400 2 35.4443 43.7575 13.7326
401 2 39.713 43.7969 13.6351
402 2 43.744 43.5 13.7586
403 2 47.3896 43.5088 13.7547
404 2 51.3967 43.7381 13.6524
405 2 55.3509 43.7126 13.7362
406 2 59.7019 47.6175 13.8322
407 2 4.00921 47.469 13.9574
408 2 8.1414 47.64 13.7677
409 2 12.0197 47.6201 13.7816
410 2 15.9487 47.28 13.7235
411 2 19.8134 47.8096 13.7793
412 2 23.7597 47.6084 13.7405
413 2 27.8082 47.383 13.5916
414 2 31.5425 47.5842 13.7872
415 2 35.7818 47.5946 13.8453
416 2 39.538 47.4552 13.6278
417 2 43.5588 47.539 13.6921
418 2 47.6868 47.4931 13.8485
419 2 51.7031 47.5257 13.6646
420 2 55.7025 47.6742 13.9356
421 2 59.6889 51.7164 13.5548
422 2 4.10049 51.6745 13.9014
423 2 8.17276 51.6615 13.5301
424 2 12.1503 51.4663 13.661
425 2 15.8517 51.4611 13.764
426 2 19.8138 51.4516 13.7123
427 2 23.8277 51.4947 13.7094
428 2 27.792 51.4039 13.6752
429 2 31.853 51.3033 13.6584
430 2 35.7461 51.5786 14.0276
431 2 39.6822 51.6093 13.8116
432 2 43.6678 51.4786 13.9416
433 2 47.5754 51.5805 13.7446
434 2 51.464 51.7785 13.606
435 2 55.5732 51.497 13.7414
436 2 59.4168 55.6176 13.8194
437 2 4.03843 55.5145 13.7585
438 2 7.97313 55.4432 13.8022
439 2 12.0329 55.4631 13.7538
440 2 16.1267 55.6387 13.5158
441 2 19.9341 55.4205 13.7646
442 2 23.8878 55.6891 13.6944
443 2 27.9351 55.4128 13.8158
444 2 31.7917 55.2408 13.6314
445 2 35.6117 55.5377 13.9377
446 2 39.6753 55.5938 14.14
447 2 43.5527 55.4301 13.832
448 2 47.4354 55.5212 13.828
449 2 51.3032 55.5835 13.769
450 2 55.5279 55.4326 13.8462
451 2 59.3375 -0.191623 17.5464
452 2 3.81183 0.00996888 17.7231
453 2 7.91263 59.2872 17.8561
454 2 12.0224 0.0570919 17.8845
455 2 15.9603 0.0839981 17.7212
456 2 19.699 0.140923 17.7511
457 2 23.7272 0.285237 17.7867
458 2 27.922 0.0795437 17.7941
459 2 31.7708 0.102386 17.8949
460 2 35.566 -0.087141 17.6892
461 2 39.6246 0.027305 17.8132
462 2 43.7146 59.3075 17.7366
463 2 47.5495 0.0233456 17.7533
464 2 51.4819 0.147503 17.8851
465 2 55.416 0.0632311 17.5054
466 2 59.3922 3.99605 17.7698
467 2 3.87518 3.97366 17.6593
468 2 7.73491 3.93229 17.7455
469 2 11.8204 3.89112 17.725
470 2 15.838 3.95607 17.7452
471 2 19.7903 3.86531 17.8555
472 2 23.7906 4.24193 17.6905
473 2 27.6923 4.0622 17.4881
474 2 31.64 3.87892 17.7471
475 2 35.5525 4.01098 17.9278
476 2 39.6561 3.99065 17.9283
477 2 43.3171 3.87446 17.7466
478 2 47.438 3.85413 17.7448
479 2 51.5055 3.96286 17.785
480 2 55.4693 3.9356 17.7407
481 2 59.2642 8.22304 17.9433
482 2 3.95439 8.02282 17.7623
483 2 8.03184 7.96225 17.5738
484 2 11.8632 7.89247 17.6894
485 2 15.6747 7.99893 17.6576
486 2 19.716 7.96465 17.8869
487 2 23.8708 8.17325 17.7769
488 2 27.6854 7.83766 17.8396
489 2 31.555 7.93111 17.9808
490 2 35.7668 8.07105 17.639
491 2 39.6942 8.03779 17.8195
492 2 43.6529 8.08414 17.8107
493 2 47.5046 7.90178 17.8482
494 2 51.4716 7.77636 17.7131
495 2 55.3292 7.97259 17.9162
496 2 59.3703 12.2111 17.6576
497 2 4.01 12.1732 17.8248
498 2 8.02326 12.084 17.7183
499 2 11.8874 11.9499 17.8419
500 2 15.8759 11.9284 17.719
501 2 19.7983 11.8574 17.9075
502 2 23.7718 12.1861 17.7247
503 2 27.6463 12.0893 17.859
504 2 31.7732 12.0286 17.7781
505 2 35.8445 11.877 17.7216
506 2 39.7712 11.996 17.9856
507 2 43.4388 11.8881 17.8924
508 2 47.4465 12.0608 17.6834
509 2 51.4735 11.9313 17.7646
510 2 55.5917 12.1246 17.7964
511 2 59.2752 15.9665 17.774
512 2 3.83677 15.9521 17.7615
513 2 7.91005 16.0108 17.678
514 2 12.0321 15.9001 17.9013
515 2 16.0617 15.9203 17.8506
516 2 20.0491 15.845 17.7311
517 2 24.0715 15.941 17.8063
518 2 27.8518 15.9928 17.8246
519 2 31.8794 15.8232 17.9007
520 2 35.7537 15.9353 17.9217
521 2 39.5602 16.0908 17.6551
522 2 43.4909 15.8505 17.8037
523 2 47.6242 15.7606 17.8582
524 2 51.4875 15.7564 17.9993
525 2 55.429 16.0858 17.773
526 2 0.00777616 20.0514 17.8839
527 2 3.85843 20.0473 17.7843
528 2 7.92986 19.797 17.7808
529 2 12.0562 19.7198 17.7874
530 2 15.9399 19.7135 17.6475
531 2 19.8727 19.9275 17.8741
532 2 23.8701 19.7118 17.812
533 2 27.9079 19.9657 17.7869
534 2 31.826 20.0507 17.8114
535 2 35.728 19.8936 17.9918
536 2 39.6743 19.9987 17.6491
537 2 43.5855 19.8981 17.8979
538 2 47.614 19.8948 17.7839
539 2 51.5764 19.8108 17.7131
540 2 55.2926 19.9467 17.7654
541 2 59.5155 23.9276 17.7362
542 2 3.99863 23.7593 17.9166
543 2 7.82832 23.7467 17.9129
544 2 11.8471 23.8428 17.7808
545 2 15.8316 23.7677 17.7337
546 2 19.7467 23.6264 17.8466
547 2 23.7093 23.7737 17.7633
548 2 27.6479 23.8438 18.0056
549 2 31.547 23.7827 17.8958
550 2 35.6653 23.8703 17.7024
551 2 39.7945 23.7212 17.6602
552 2 43.7879 23.6421 17.7576
553 2 47.5446 24.0179 17.8299
554 2 51.5561 23.9474 17.7641
555 2 55.4784 23.8734 17.8867
556 2 59.4092 27.8309 17.7258
557 2 4.11394 27.8374 17.7668
558 2 8.15442 27.9314 17.7513
559 2 11.914 27.6231 17.8888
560 2 15.7891 27.5945 17.7118
561 2 19.6002 27.7469 17.729
562 2 23.7842 27.7425 17.9147
563 2 27.6138 27.8555 17.7887
564 2 31.6168 27.709 17.9181
565 2 35.5241 27.63 17.9019
566 2 39.742 27.8965 17.8566
567 2 43.666 28.0272 17.788
568 2 47.4596 27.8298 17.7728
569 2 51.5045 28.0015 17.7196
570 2 55.5533 27.8152 17.3745
571 2 59.4642 31.7949 17.6605
572 2 3.94499 32.0262 17.6502
573 2 7.82466 31.8846 17.9344
574 2 11.7769 31.7043 17.8469
575 2 15.6301 31.6992 17.7034
576 2 19.6487 31.9358 17.7321
577 2 23.797 31.5726 17.8439
578 2 27.4964 31.8049 17.745
579 2 31.6712 31.7824 17.9255
580 2 35.5678 31.7178 17.7176
581 2 39.5506 31.7742 17.6229
582 2 43.544 31.7246 17.8535
583 2 47.5912 31.9384 17.7672
584 2 51.4787 31.6919 17.8196
585 2 55.4967 31.8055 17.6773
586 2 59.3985 35.8338 17.5541
587 2 4.19212 35.7894 17.5881
588 2 7.85957 35.6187 17.7202
589 2 11.7753 35.7192 17.5893
590 2 15.8756 35.6999 17.6609
591 2 19.8095 35.7298 17.8068
592 2 23.6108 35.8087 17.791
593 2 27.3971 35.6807 17.7439
594 2 31.5911 35.6434 17.7063
595 2 35.5436 35.8752 17.6836
596 2 39.4522 35.5842 17.8819
597 2 43.4881 35.776 17.9624
598 2 47.4807 35.7864 17.8615
599 2 51.3388 35.6259 17.6292
600 2 55.4102 35.7125 17.7388
601 2 59.3241 39.6669 17.5072
602 2 3.9248 39.7538 17.8152
603 2 7.93337 39.5872 17.8832
604 2 11.7591 39.6437 17.6643
605 2 15.7225 39.5367 17.6563
606 2 19.7068 39.6735 17.813
607 2 23.7221 39.3725 17.7469
608 2 27.8331 39.792 17.7727
609 2 31.6606 39.5919 17.8224
610 2 35.556 39.7527 17.8751
611 2 39.2895 39.5971 17.8309
612 2 43.6114 39.8544 17.88
613 2 47.6694 39.5481 17.7811
614 2 51.3811 39.7385 17.7427
615 2 55.4351 39.6722 17.6478
616 2 59.1416 43.6539 17.6797
617 2 4.05846 43.6722 17.6239
618 2 8.00438 43.6162 17.9041
619 2 12.0377 43.6503 17.9002
620 2 16.0127 43.2563 17.7914
621 2 19.6962 43.4611 17.8125
622 2 23.6955 43.7336 17.7051
623 2 27.6331 43.8636 17.6877
624 2 31.7444 43.7126 17.7288
625 2 35.8177 43.5374 17.944
626 2 39.6579 43.8048 17.6984
627 2 43.5739 43.5749 17.9276
628 2 47.6289 43.8528 17.7754
629 2 51.4367 43.6331 17.561
630 2 55.2444 43.4961 17.5733
631 2 0.154597 47.6614 17.5162
632 2 4.11569 47.7466 17.6389
633 2 7.90663 47.5379 17.7785
634 2 11.7651 48.0398 17.6836
635 2 15.9473 47.5188 17.586
636 2 19.7611 47.5316 17.7709
637 2 23.6668 47.6378 17.7586
638 2 27.6549 47.7269 17.5749
639 2 31.6383 47.6501 17.8328
640 2 35.787 47.5885 17.9352
641 2 39.7248 47.6065 17.6879
642 2 43.7766 47.3315 17.7156
643 2 47.5217 47.761 17.7234
644 2 51.6053 47.4813 17.6752
645 2 55.5961 47.5444 17.6816
646 2 59.4169 51.6359 17.6922
647 2 4.03167 51.503 17.7324
648 2 7.87379 51.564 17.835
649 2 12.1207 51.727 17.7105
650 2 15.8353 51.7254 17.5371
651 2 19.8599 51.54 17.6894
652 2 23.8387 51.5007 17.5916
653 2 27.6165 51.6425 17.6166
654 2 31.673 51.5059 17.6755
655 2 35.4636 51.6417 17.8746
656 2 39.6409 51.609 17.862
657 2 43.6719 51.3919 17.6155
658 2 47.4729 51.5967 17.7769
659 2 51.4243 51.4274 17.6502
660 2 55.436 51.5885 17.6536
661 2 59.2407 55.5221 17.8701
662 2 4.05015 55.4339 17.8429
663 2 7.90054 55.4053 17.9403
664 2 11.9745 55.5461 17.7759
665 2 15.9203 55.7382 17.7155
666 2 19.684 55.4116 17.8102
667 2 23.8153 55.7327 17.672
668 2 27.6888 55.3569 17.8795
669 2 31.7459 55.5119 17.6332
670 2 35.6573 55.458 17.8981
671 2 39.4304 55.5433 17.7731
672 2 43.5227 55.5857 17.8723
673 2 47.3013 55.5527 17.6267
674 2 51.4279 55.5161 17.6947
675 2 55.4918 55.4165 17.8286
676 2 0.13125 0.0820211 21.8616
677 2 3.92778 0.18638 21.7621
678 2 8.07499 -0.0394145 21.686
679 2 11.9644 0.0806383 21.498
680 2 15.7206 0.0595826 21.7816
681 2 19.7975 59.4988 21.8636
682 2 23.8163 59.5312 21.7847
683 2 27.6722 59.2915 21.8799
684 2 31.7714 0.0530768 21.8768
685 2 35.6325 59.5221 21.8923
686 2 39.6394 59.329 21.9146
687 2 43.5758 59.7092 21.7688
688 2 47.5479 59.6107 21.8694
689 2 51.3695 0.147834 21.7568
690 2 55.4639 0.201153 21.722
691 2 59.4413 4.22938 21.7172
692 2 3.92784 4.17323 21.5644
693 2 7.87779 4.05564 21.6167
694 2 11.8295 4.07064 21.7655
695 2 15.8436 4.1937 21.8478
696 2 19.7583 4.07637 21.6622
697 2 23.7677 4.088 21.53
698 2 27.5766 4.12727 21.7507
699 2 31.6403 3.96552 21.7405
700 2 35.6274 4.05006 21.7971
701 2 39.493 4.04793 21.8519
702 2 43.5178 4.02925 21.9007
703 2 47.3414 4.16229 21.7796
704 2 51.3825 4.08336 21.8653
705 2 55.4382 4.01338 21.6774
706 2 59.2025 8.15253 21.7786
707 2 3.75844 8.21173 21.5195
708 2 7.66297 8.13413 21.5341
709 2 11.7431 8.00968 21.5638
710 2 15.6608 8.10382 21.4737
711 2 19.7388 8.02163 21.7514
712 2 23.7599 7.90269 21.8246
713 2 27.6166 8.14053 21.6442
714 2 31.5386 7.91264 21.7285
715 2 35.6798 7.92114 21.7698
716 2 39.6373 7.95025 21.8783
717 2 43.5788 8.09079 21.561
718 2 47.4237 8.18475 21.6418
719 2 51.4219 7.95829 21.8738
720 2 55.3359 8.05564 21.7793
721 2 59.338 12.0364 21.8137
722 2 4.06635 12.0425 21.6467
723 2 7.96568 12.0026 21.7622
724 2 11.8129 11.8809 21.7986
725 2 15.7825 11.9032 21.7193
726 2 19.9053 11.9605 21.6238
727 2 23.8546 11.9734 21.7697
728 2 27.7106 11.8157 21.8757
729 2 31.6734 11.8621 21.8643
730 2 35.5654 11.9815 21.785
731 2 39.5577 11.9134 21.9837
732 2 43.4844 12.1783 21.9104
733 2 47.3527 11.8972 21.7216
734 2 51.3676 11.9787 21.8517
735 2 55.3029 11.8576 21.7107
736 2 -0.0637681 15.8011 21.6879
737 2 3.99513 15.9645 21.695
738 2 7.9737 15.9065 21.7648
739 2 11.8713 16.0593 21.7197
740 2 15.7991 16.0029 21.7398
741 2 19.5917 15.8848 21.7032
742 2 23.9385 15.761 21.769
743 2 27.8652 15.943 21.8127
744 2 31.6966 15.9231 21.6768
745 2 35.6128 15.7709 21.6929
746 2 39.3924 15.8721 21.7384
747 2 43.4862 16.0033 21.8389
748 2 47.4706 15.7911 21.6916
749 2 51.5029 15.8233 21.8314
750 2 55.3943 15.9617 21.8364
751 2 59.3277 19.956 21.778
752 2 3.77118 19.7973 21.8157
753 2 8.03331 20.0176 21.8376
754 2 11.8554 20.0261 21.7469
755 2 16.0704 19.9654 21.7014
756 2 19.7939 19.9226 21.7918
757 2 23.6337 19.8041 21.7838
758 2 27.6221 19.9126 21.8275
759 2 31.7104 19.8597 21.847
760 2 35.6514 19.8575 21.8591
761 2 39.7319 19.9026 21.5783
762 2 43.6084 19.947 21.7567
763 2 47.5518 19.9774 21.8479
764 2 51.5467 19.6182 21.8666
765 2 55.5586 19.8728 21.9067
766 2 59.3391 24.027 21.6686
767 2 4.06334 23.7599 21.7721
768 2 7.82176 23.8151 21.5561
769 2 11.834 23.6841 21.7897
770 2 15.7547 23.9481 21.7528
771 2 20.0435 23.7447 21.6897
772 2 23.8233 23.8281 21.8037
773 2 27.652 23.9428 21.6648
774 2 31.4777 23.9857 21.8952
775 2 35.5126 23.7283 21.8655
776 2 39.5002 23.9781 21.7108
777 2 43.5446 23.8982 21.8286
778 2 47.6727 23.8821 21.8689
779 2 51.492 23.8723 21.5886
780 2 55.3298 23.8411 21.8456
781 2 59.2882 27.9072 21.5439
782 2 3.85953 27.7891 21.8164
783 2 8.03518 27.5115 21.747
784 2 11.7581 27.8512 21.9223
785 2 15.7852 27.8019 21.8365
786 2 19.6799 27.8429 21.6769
787 2 23.6815 27.696 21.8545
788 2 27.6357 27.7709 21.7947
789 2 31.7243 27.9532 21.717
790 2 35.7282 27.7298 21.7682
791 2 39.5909 27.6652 21.8881
792 2 43.5302 27.8518 21.6747
793 2 47.6311 27.7661 21.9263
794 2 51.7245 27.7834 21.7515
795 2 55.5671 27.7638 21.9016
796 2 59.3736 31.8313 21.6949
797 2 3.8852 31.7174 21.6451
798 2 7.70735 31.5741 21.6998
799 2 11.7958 31.8438 21.7437
800 2 15.7862 31.6479 21.8036
801 2 19.8267 31.6959 21.6494
802 2 23.7071 31.7328 21.9614
803 2 27.716 31.8115 21.7842
804 2 31.389 31.8508 21.7851
805 2 35.5714 31.6939 21.73
806 2 39.604 31.639 21.6756
807 2 43.6355 31.8599 21.7951
808 2 47.4032 31.822 21.7301
809 2 51.5648 31.7862 21.7019
810 2 55.4793 31.7718 21.6124
811 2 -0.206196 35.7827 21.6831
812 2 3.91625 35.8296 21.8371
813 2 7.86494 35.7344 21.7358
814 2 11.9755 35.6934 21.7065
815 2 15.7256 35.479 21.708
816 2 19.7561 35.7726 21.6561
817 2 23.71 35.5533 21.9096
818 2 27.7186 35.7994 21.8571
819 2 31.6568 35.6371 21.5652
820 2 35.7735 35.8201 21.6237
821 2 39.616 35.7751 21.7135
822 2 43.4727 35.641 21.7068
823 2 47.5387 35.7134 21.8853
824 2 51.4687 35.6078 21.6512
825 2 55.3804 35.8029 21.383
826 2 -0.1708 39.5928 21.7121
827 2 3.77124 39.8203 21.5726
828 2 7.94042 39.5217 21.6236
829 2 11.9554 39.6918 21.6879
830 2 15.8143 39.73 21.8593
831 2 19.7911 39.6112 21.9307
832 2 23.7935 39.8669 21.696
833 2 27.6254 39.5592 21.7602
834 2 31.55 39.764 21.6894
835 2 35.6128 39.6546 21.8702
836 2 39.7269 39.4551 21.7997
837 2 43.4771 39.6648 21.8319
838 2 47.4673 39.821 21.8172
839 2 51.4451 39.836 21.8216
840 2 55.3278 39.7938 21.6812
841 2 59.3523 43.7045 21.712
842 2 3.78129 43.6356 21.6467
843 2 7.87766 43.5489 21.6815
844 2 11.9045 43.8805 21.6691
845 2 15.7497 43.6983 21.7653
846 2 19.7233 43.4495 21.7815
847 2 23.747 43.7011 21.6424
848 2 27.6318 43.8006 21.6958
849 2 31.6338 43.7946 21.8183
850 2 35.6984 43.4569 21.6376
851 2 39.611 43.736 21.5275
852 2 43.578 43.5409 21.6551
853 2 47.3962 43.626 21.7005
854 2 51.4904 43.6618 21.5841
855 2 55.4779 43.6814 21.5574
856 2 -0.162803 47.7961 21.6952
857 2 4.03738 47.5352 21.6084
858 2 7.72068 47.7354 21.5602
859 2 11.8179 47.9104 21.6619
860 2 15.8533 47.5888 21.8128
861 2 19.625 47.4618 21.6216
862 2 23.7093 47.5306 21.531
863 2 27.5569 47.6756 21.5458
864 2 31.6706 47.5519 21.7729
865 2 35.5892 47.5957 21.6949
866 2 39.7074 47.5049 21.7912
867 2 43.4341 47.6782 21.7472
868 2 47.3246 47.7569 21.7639
869 2 51.3327 47.4677 21.7402
870 2 55.5071 47.8142 21.5215
871 2 59.1499 51.7021 21.489
872 2 3.69548 51.5751 21.6669
873 2 7.79918 51.5978 21.6415
874 2 11.8172 51.6607 21.6989
875 2 15.9144 51.4099 21.8513
876 2 19.7635 51.4823 21.8306
877 2 23.6248 51.3866 21.8077
878 2 27.3749 51.5721 21.6399
879 2 31.4548 51.457 21.7669
880 2 35.4309 51.6096 21.8089
881 2 39.3955 51.5039 21.6726
882 2 43.2834 51.506 21.7146
883 2 47.361 51.7868 21.7053
884 2 51.4364 51.6529 21.6785
885 2 55.2731 51.3579 21.6548
886 2 59.3286 55.6123 21.7273
887 2 3.84599 55.4257 21.8985
888 2 7.92234 55.5823 21.756
889 2 11.9671 55.34 21.7872
890 2 15.9048 55.4441 21.7157
891 2 19.8297 55.3448 21.6499
892 2 23.7644 55.6246 21.6957
893 2 27.7778 55.4883 21.732
894 2 31.6855 55.4923 21.8717
895 2 35.6323 55.4544 21.9523
896 2 39.531 55.4759 21.7067
897 2 43.5119 55.5531 21.6743
898 2 47.4001 55.6212 21.6672
899 2 51.4267 55.484 21.6013
900 2 55.2972 55.6213 21.7681
901 2 59.292 0.225324 25.672
902 2 4.06433 59.5015 25.6234
903 2 7.85149 -0.0309742 25.6477
904 2 11.812 -0.0794827 25.7874
905 2 15.8106 59.4019 25.5741
906 2 19.6162 0.130561 25.6805
907 2 23.6368 0.117398 25.4689
908 2 27.6959 -0.02132 25.9051
909 2 31.667 59.5245 25.7613
910 2 35.7874 -0.0684965 25.9859
911 2 39.6375 0.09455 25.8285
912 2 43.5591 0.00810284 25.8386
913 2 47.5297 -0.0591274 25.9991
914 2 51.3035 0.0328081 25.827
915 2 55.3275 59.5393 25.6742
916 2 59.1077 4.24073 25.5405
917 2 4.05685 4.25954 25.5514
918 2 7.94659 4.02624 25.6536
919 2 11.6879 3.92583 25.6282
920 2 15.7375 3.99232 25.7118
921 2 19.7852 3.85083 25.7615
922 2 23.659 3.95979 25.7427
923 2 27.6614 3.87321 25.8614
924 2 31.4647 4.0472 25.6261
925 2 35.623 3.967 25.8088
926 2 39.5008 4.00825 25.7456
927 2 43.5339 4.06985 25.8778
928 2 47.3091 4.22478 25.8523
929 2 51.3609 3.95006 25.8493
930 2 55.3681 3.92244 25.6173
931 2 59.3471 7.9658 25.7847
932 2 3.72274 8.14161 25.6092
933 2 7.93273 8.15902 25.6898
934 2 11.8773 7.92 25.5816
935 2 15.9236 8.01817 25.8137
936 2 19.7561 8.14434 25.6729
937 2 23.4689 7.99797 25.876
938 2 27.7745 7.62553 25.6035
939 2 31.6277 7.9696 25.6948
940 2 35.5211 7.97775 25.8501
941 2 39.5167 8.00988 25.7428
942 2 43.5268 8.2223 25.6638
943 2 47.2682 8.11135 25.7057
944 2 51.4887 8.02893 25.9212
945 2 55.4741 7.88434 25.7341
946 2 59.2794 12.0699 25.7562
947 2 3.78454 12.1196 25.647
948 2 7.86096 12.0658 25.7198
949 2 11.7349 11.9967 25.608
950 2 15.5492 11.7849 25.7358
951 2 19.8068 11.9718 25.6644
952 2 23.7194 11.9011 25.7565
953 2 27.5002 11.8055 25.8876
954 2 31.5028 12.0586 25.7444
955 2 35.5417 12.1546 25.7479
956 2 39.5493 12.0278 25.9137
957 2 43.3623 12.0876 25.8181
958 2 47.4492 12.0826 25.8101
959 2 51.5012 12.0006 25.8147
960 2 55.2923 11.8 25.6804
961 2 59.4447 16.017 25.7482
962 2 3.90431 15.8286 25.8069
963 2 7.81008 15.9789 25.6651
964 2 11.7195 15.9634 25.6325
965 2 15.5344 15.9865 25.5306
966 2 19.5614 15.7667 25.7464
967 2 23.5311 15.838 25.6134
968 2 27.4979 16.0992 25.7001
969 2 31.605 16.0772 25.5861
970 2 35.5428 16.0755 25.7609
971 2 39.7063 16.1722 25.8345
972 2 43.6587 16.0174 25.8917
973 2 47.4939 16.0305 25.7383
974 2 51.6128 15.7875 25.78
975 2 55.443 15.9877 25.7937
976 2 59.3258 19.862 25.6782
977 2 3.77134 19.754 25.699
978 2 7.72393 20.022 25.7496
979 2 11.8831 19.8161 25.7353
980 2 15.7873 19.6954 25.6325
981 2 19.7965 19.8208 25.7541
982 2 23.7635 19.6648 25.7634
983 2 27.3591 19.8441 25.7158
984 2 31.6339 19.9162 25.7861
985 2 35.4894 19.9862 25.6894
986 2 39.3805 20.049 25.556
987 2 43.3667 20.0486 25.8248
988 2 47.5674 20.0618 25.8057
989 2 51.3442 19.8806 25.7958
990 2 55.2974 20.0644 25.885
991 2 59.3127 23.9034 25.7269
992 2 3.69562 23.9233 25.6063
993 2 7.69686 23.8426 25.7295
994 2 11.9459 23.8757 25.6982
995 2 15.9027 23.8758 25.5506
996 2 19.8178 23.8003 25.8816
997 2 23.7651 23.8481 25.6978
998 2 27.7304 23.8122 25.9027
999 2 31.4315 23.9695 25.9293