ITEM: TIMESTEP
1506500
ITEM: NUMBER OF ATOMS
16875
ITEM: BOX BOUNDS xy xz yz pp pp pp
0.0000000000000000e+00 5.9369999999999997e+01 0.0000000000000000e+00
0.0000000000000000e+00 5.9369999999999997e+01 0.0000000000000000e+00
3.2014230208353922e-01 6.0046276697919552e+01 0.0000000000000000e+00
ITEM: ATOMS id type x y z
1 2 59.4507 0.0420203 9.94587
2 2 4.21747 0.16821 9.82488
3 2 8.10318 0.199058 9.56817
4 2 12.0783 59.5278 9.73889
5 2 15.8821 0.0531316 9.74813
6 2 19.7366 0.0237218 9.75582
7 2 23.7762 0.169379 9.74636
8 2 27.8696 0.0871414 9.91354
9 2 31.8961 0.158794 9.62629
10 2 35.7551 0.244791 9.91462
11 2 39.7658 0.0621107 9.79874
12 2 43.6852 0.00138628 10.0194
13 2 47.7372 0.302251 9.7012
14 2 51.7203 0.0407706 9.50186
15 2 55.4559 -0.0171705 9.96848
16 2 59.4606 3.99351 9.8358
17 2 3.92754 4.07228 9.93217
18 2 7.87987 3.96944 9.8611
19 2 12.0957 4.15148 9.89816
20 2 15.9066 4.14344 9.98945
21 2 19.9102 4.04499 9.76686
22 2 24.0094 4.00905 9.73534
23 2 27.8668 4.00877 9.92353
24 2 31.7104 3.81347 9.64145
25 2 35.7462 4.05551 9.80531
26 2 39.8568 4.01854 9.78182
27 2 43.8665 4.06962 9.74285
28 2 47.758 4.07745 9.8426
29 2 51.9756 4.12366 9.77332
30 2 55.7259 4.12998 9.71499
31 2 59.496 8.14155 9.65936
32 2 4.03088 8.08159 9.71226
33 2 8.03658 8.02557 9.78355
34 2 11.7621 8.18619 9.77502
35 2 15.6673 8.11999 9.81866
36 2 19.9997 7.94901 9.89903
37 2 23.7459 8.0498 9.88074
38 2 27.8273 8.02532 9.95485
39 2 31.6879 7.98039 9.8874
40 2 35.7854 7.97206 9.89245
41 2 39.6253 8.15585 9.69592
42 2 43.6851 7.86884 9.90723
43 2 47.6101 8.08809 9.91954
44 2 51.641 8.03456 9.87925
45 2 55.4649 8.09742 9.67915
46 2 0.0503952 12.0752 9.74998
47 2 3.92689 12.0137 9.92642
48 2 7.87642 11.7911 9.93913
49 2 11.9385 11.9819 9.97567
50 2 15.8606 12.0346 9.83922
51 2 20.0592 12.0205 9.8453
52 2 23.9244 11.9637 9.8985
53 2 27.665 11.9782 9.85839
54 2 31.6935 11.7844 9.76011
55 2 35.4772 11.8326 9.93267
56 2 39.5789 11.8746 9.82221
57 2 43.442 11.9165 9.97468
58 2 47.6959 12.0036 9.87744
59 2 51.6787 11.6499 9.86918
60 2 55.6711 11.8542 9.71543
61 2 -0.0784602 15.8053 9.80257
62 2 4.03654 15.7321 9.87359
63 2 7.80637 15.6446 9.96601
64 2 11.936 15.8533 9.86718
65 2 16.0322 15.8949 9.88627
66 2 19.9622 16.14 9.76409
67 2 23.85 16.0213 9.92458
68 2 27.8422 15.964 9.9248
69 2 31.6233 15.7404 9.73983
70 2 35.7438 15.701 9.95171
71 2 39.6678 15.8563 9.83728
72 2 43.5704 15.8332 10.0354
73 2 47.5618 15.852 9.58818
74 2 51.5434 16.0877 9.66893
75 2 55.524 15.8712 9.88277
76 2 59.2854 19.8455 9.90994
77 2 3.99012 19.6826 9.69286
78 2 7.99408 19.9532 10.0269
79 2 11.6971 19.7464 9.86746
80 2 15.7134 20.0471 9.78364
81 2 20.093 19.9103 9.91402
82 2 23.866 19.8125 10.03
83 2 27.7738 19.8709 9.81521
84 2 31.9361 19.7484 9.81647
85 2 35.7131 19.7802 9.85751
86 2 39.5102 20.0205 9.81892
87 2 43.5277 19.7116 9.85967
88 2 47.6413 19.8824 9.76229
89 2 51.5745 19.8578 9.87925
90 2 55.4375 19.8168 10.0488
91 2 59.3247 23.7895 9.86002
92 2 3.87735 23.8027 9.68185
93 2 7.90401 23.8186 10.1459
94 2 11.7886 23.9639 9.9704
95 2 15.841 23.838 10.0422
96 2 19.915 23.7049 9.86205
97 2 23.909 23.8582 9.951
98 2 27.8849 23.7654 9.87458
99 2 31.8709 23.8597 9.82602
100 2 35.5411 24.0545 9.72438
101 2 39.6495 23.7188 9.97072
102 2 43.5278 23.7844 9.73375
103 2 47.5863 23.7759 9.76622
104 2 51.72 23.9549 9.73842
105 2 55.4827 23.9464 9.79372
106 2 -0.194164 27.6306 9.78414
107 2 3.84112 27.8278 9.69831
108 2 7.82161 27.8157 10.0623
109 2 11.7761 27.8878 9.94482
110 2 15.725 27.8419 9.8941
111 2 19.6592 27.8809 9.98157
112 2 23.6184 27.752 9.89864
113 2 27.7765 27.6535 9.77153
114 2 31.7019 27.9582 9.80974
115 2 35.6848 27.9442 9.6018
116 2 39.5652 27.7037 9.81197
117 2 43.3661 27.6544 9.91136
118 2 47.4552 27.7926 9.78797
119 2 51.378 27.8203 9.89564
120 2 55.2569 27.7491 9.82368
121 2 -0.101583 31.7936 9.85242
122 2 3.91161 31.5707 9.6578
123 2 7.9055 31.9961 9.70342
124 2 11.7682 31.8139 9.84873
125 2 15.7109 31.9361 9.67964
126 2 19.8689 31.9223 9.91749
127 2 23.7146 31.6278 9.88577
128 2 27.6652 31.6418 9.96578
129 2 31.7943 31.756 9.88861
130 2 35.834 31.8736 9.86275
131 2 39.5709 31.8164 9.81307
132 2 43.47 31.7979 9.63908
133 2 47.4089 31.7607 9.74462
134 2 51.209 31.7077 9.86827
135 2 55.2237 31.8386 9.93816
136 2 59.56 35.6258 9.76314
137 2 4.01313 35.8735 9.7033
138 2 7.93376 35.8382 9.8233
139 2 12.0217 35.7682 9.8509
140 2 15.96 35.8025 9.84796
141 2 19.8115 35.8637 10.0106
142 2 23.6745 35.7414 9.85273
143 2 27.7755 35.7591 9.46389
144 2 31.8412 35.8472 9.78041
145 2 35.6293 35.6124 9.92329
146 2 39.7547 35.8513 9.6731
147 2 43.5503 35.9233 9.57458
148 2 47.4001 35.5276 9.69077
149 2 51.4058 35.617 9.79007
150 2 55.4452 35.5548 9.85709
151 2 59.4716 39.6311 9.65167
152 2 4.0125 39.6429 9.76918
153 2 8.11634 39.8537 9.74286
154 2 12.0595 39.7986 9.8492
155 2 15.9664 39.7416 9.75761
156 2 20.0286 39.6716 9.99814
157 2 23.9445 39.7768 9.72528
158 2 27.7566 39.8723 9.70655
159 2 31.7557 39.7477 9.79602
160 2 35.7563 39.8535 9.75721
161 2 39.6683 39.9159 9.71658
162 2 43.7581 39.8177 9.67596
163 2 47.4865 39.3894 9.65336
164 2 51.7202 39.7104 9.8887
165 2 55.603 39.5805 9.64558
166 2 59.3901 43.6939 9.56411
167 2 4.04116 43.3213 9.78672
168 2 8.12569 43.5666 9.79524
169 2 11.9519 43.5448 9.88241
170 2 15.9446 43.75 9.79448
171 2 19.7379 43.4454 9.94404
172 2 23.8476 43.7531 9.93123
173 2 27.8748 43.6625 9.87372
174 2 31.7007 43.6602 9.64166
175 2 35.4366 43.6477 9.86634
176 2 39.6426 43.6118 9.79067
177 2 43.6985 43.5134 9.91976
178 2 47.6075 43.5927 9.35717
179 2 51.5503 43.6935 9.94412
180 2 55.5224 43.5817 9.73815
181 2 59.4937 47.7733 9.74737
182 2 3.81645 47.5538 9.75644
183 2 7.93065 47.7452 9.72605
184 2 11.7635 47.5822 9.64143
185 2 15.7877 47.5369 9.71285
186 2 19.6231 47.639 9.79887
187 2 23.6475 47.6946 9.87405
188 2 27.8219 47.5654 9.88741
189 2 31.7854 47.4834 9.94183
190 2 35.8561 47.5294 9.93796
191 2 39.6645 47.4652 9.72467
192 2 43.4106 47.4518 9.91821
193 2 47.5511 47.5582 9.95664
194 2 51.6802 47.4761 9.78373
195 2 55.5439 47.6136 10.037
196 2 -0.0346285 51.5457 9.99155
197 2 3.92976 51.2534 9.66252
198 2 7.889 51.505 9.88311
199 2 11.8673 51.4778 9.6461
200 2 15.8649 51.4899 9.91772
201 2 19.8493 51.85 9.8969
202 2 23.7936 51.6236 9.99358
203 2 27.6665 51.4824 9.8321
204 2 31.7013 51.6799 9.8163
205 2 35.7191 51.6691 9.94469
206 2 39.5961 51.3646 9.81916
207 2 43.6337 51.6334 9.83513
208 2 47.5305 51.4332 9.84071
209 2 51.4352 51.6487 9.83817
210 2 55.2131 51.5809 9.88443
211 2 59.6299 55.4287 9.91169
212 2 4.17367 55.4894 9.92135
213 2 8.05178 55.4144 9.75927
214 2 11.9762 55.5328 9.72114
215 2 15.9313 55.4055 9.63911
216 2 19.7221 55.5066 9.90588
217 2 23.7159 55.5265 10.0554
218 2 27.9472 55.6417 9.83786
219 2 31.9866 55.368 9.64183
220 2 35.6727 55.4597 9.7655
221 2 39.783 55.5296 9.82634
222 2 43.5393 55.4227 9.9228
223 2 47.6022 55.46 9.87129
224 2 51.6266 55.5163 9.71804
225 2 55.8152 55.7372 9.7825
226 2 59.395 -0.0474009 14.0286
227 2 4.1257 0.146777 13.7888
228 2 8.06558 0.0581579 13.9437
229 2 12.0386 59.749 13.688
230 2 16.0941 0.151984 13.7743
231 2 19.8437 0.230387 13.741
232 2 23.671 0.25531 13.7022
233 2 27.7922 0.296383 13.7384
234 2 31.6896 0.0228048 13.795
235 2 35.9288 59.4651 13.7954
236 2 39.7747 -0.0539619 13.8965
237 2 43.83 0.147713 13.7972
238 2 47.5766 59.5061 13.7276
239 2 51.5478 0.15478 13.8581
240 2 55.5679 0.10948 13.7823
241 2 59.4275 3.97137 13.6083
242 2 3.93728 4.16415 13.7313
243 2 7.91893 4.20207 13.6518
244 2 11.7828 4.28955 13.8091
245 2 16.0475 4.37738 13.7219
246 2 19.9764 4.08036 13.8623
247 2 23.7714 4.13102 13.8434
248 2 27.6661 4.05075 13.8155
249 2 31.8542 4.05303 13.9064
250 2 35.8237 4.25792 13.6613
251 2 39.912 3.97151 13.7024
252 2 43.5652 4.21244 13.8012
253 2 47.6001 4.17142 13.9201
254 2 51.4859 4.18744 13.5649
255 2 55.4648 4.06127 13.9518
256 2 59.4122 8.07058 13.9293
257 2 4.10634 7.88951 13.9564
258 2 7.91985 8.0382 13.8286
259 2 11.9398 8.05632 13.6706
260 2 15.8664 8.29354 13.6623
261 2 19.5409 8.11726 13.8279
262 2 23.6367 7.98698 13.7942
263 2 27.926 8.12573 13.8208
264 2 31.7308 7.80178 13.6485
265 2 35.6153 7.95311 13.894
266 2 39.5971 8.18728 13.7707
267 2 43.7597 8.02892 13.7342
268 2 47.4898 8.24248 13.7375
269 2 51.441 7.86005 13.6884
270 2 55.5 7.8149 13.8453
271 2 -0.122649 11.8626 13.7927
272 2 3.94531 12.2089 13.9089
273 2 8.00975 11.8878 13.7105
274 2 11.8108 11.9711 13.9087
275 2 15.9159 12.2732 13.7972
276 2 19.9219 11.8878 13.7423
277 2 23.6722 12.013 13.7909
278 2 27.6549 11.9843 13.9224
279 2 31.5805 11.9829 13.6244
280 2 35.6975 11.8762 13.8173
281 2 39.5716 12.132 13.9023
282 2 43.5838 11.9537 13.8915
283 2 47.5675 12.1562 13.7573
284 2 51.6613 12.0341 13.8315
285 2 55.2931 12.0326 13.8641
286 2 59.2011 16.1722 13.7495
287 2 3.94854 15.9734 13.892
288 2 7.65831 16.0785 13.8117
289 2 11.9376 16.0363 13.9135
290 2 15.8016 16.0257 13.6744
291 2 19.7654 16.0324 13.919
292 2 23.7395 16 13.9013
293 2 27.8361 15.9334 13.7398
294 2 31.7287 15.9898 13.8268
295 2 35.798 15.8361 13.9736
296 2 39.6602 15.9549 13.8365
297 2 43.5212 16.054 13.868
298 2 47.612 15.9352 13.589
299 2 51.5118 15.9681 13.8279
300 2 55.3354 15.998 13.8427
301 2 59.2726 19.9915 13.861
302 2 4.00983 19.9534 13.7921
303 2 7.76789 19.9484 13.7348
304 2 11.7623 19.9133 13.8598
305 2 15.7806 19.7603 13.7183
306 2 19.8046 19.898 13.8954
307 2 23.7062 19.7863 13.9538
308 2 27.8158 19.9297 13.6775
309 2 31.8873 19.8368 13.6528
310 2 35.7624 19.771 13.7493
311 2 39.367 19.8543 13.9369
312 2 43.578 19.8433 13.6496
313 2 47.6591 19.9135 13.7421
314 2 51.6644 19.8871 13.9139
315 2 55.4391 19.9755 13.8721
316 2 59.4864 23.8492 13.8446
317 2 3.83051 23.8593 13.8229
318 2 7.97884 24.0416 13.9567
319 2 11.7859 24.1434 13.7802
320 2 15.9321 23.7908 13.9902
321 2 19.6092 23.8004 13.9476
322 2 23.7895 23.8773 13.7458
323 2 27.7235 23.9626 13.7864
324 2 31.8642 23.7521 13.8813
325 2 35.5613 23.814 13.7789
326 2 39.6652 23.7988 13.805
327 2 43.56 23.755 13.7918
328 2 47.4113 23.9193 13.918
329 2 51.4599 23.8614 13.8338
330 2 55.2517 23.9126 13.8661
331 2 -0.065231 27.9068 13.7495
332 2 3.65661 27.7026 13.6524
333 2 7.62913 28.0003 13.8529
334 2 12.0089 28.1181 13.7225
335 2 15.9386 27.9056 13.8686
336 2 19.7303 27.9282 13.7214
337 2 23.7846 27.6985 13.9355
338 2 27.8829 27.721 13.6316
339 2 31.6779 27.7889 13.7665
340 2 35.6547 27.84 13.7297
341 2 39.4903 27.7625 13.9001
342 2 43.5299 27.9011 13.8279
343 2 47.4977 27.6938 13.634
344 2 51.4844 27.9184 13.6002
345 2 55.5277 27.9582 13.9346
346 2 59.437 31.6852 13.7922
347 2 3.90961 31.7287 13.7566
348 2 7.67091 31.9153 13.637
349 2 11.6942 32.0494 13.8304
350 2 15.8012 31.8481 13.8136
351 2 19.6652 31.9612 13.9717
352 2 23.9516 31.8889 13.8384
353 2 27.8684 31.7253 13.7505
354 2 31.7602 31.7866 13.9318
355 2 35.8369 31.7383 13.8734
356 2 39.6494 31.5448 14.0413
357 2 43.3324 31.7699 13.6576
358 2 47.2382 31.9736 13.6009
359 2 51.3907 31.717 14.0311
360 2 55.4243 32.0046 13.8719
361 2 0.190859 35.7197 13.8967
362 2 3.85328 35.611 13.6617
363 2 7.71131 35.9832 13.5516
364 2 11.9019 35.7876 13.6282
365 2 15.9467 35.6422 13.8065
366 2 19.8111 35.8615 14.0261
367 2 23.7713 35.8951 13.5964
368 2 27.9093 35.7976 13.5553
369 2 31.7701 35.8085 13.8524
370 2 35.6704 35.8394 13.5801
371 2 39.8711 35.8862 13.6897
372 2 43.4679 35.7244 13.7492
373 2 47.5862 35.7757 13.829
374 2 51.4834 35.7202 13.717
375 2 55.5957 35.7646 13.7809
376 2 59.299 39.528 13.7969
377 2 4.02854 39.9232 13.7377
378 2 7.92861 39.7596 13.739
379 2 11.7237 39.8535 13.7697
380 2 15.6573 39.8404 13.7269
381 2 19.8504 40.0131 13.8161
382 2 23.8734 39.7689 13.7487
383 2 27.6797 39.6732 13.8583
384 2 31.5781 39.6579 14.0858
385 2 35.6443 39.6007 13.7335
386 2 39.7124 39.7558 13.7204
387 2 43.6132 39.6928 13.8113
388 2 47.6069 39.5359 13.7705
389 2 51.4584 39.7905 13.6089
390 2 55.3828 39.5963 13.9534
391 2 -0.098126 43.3598 13.6914
392 2 4.00636 43.5817 13.7654
393 2 7.90127 43.7628 13.7038
394 2 11.8638 43.8183 13.7759
395 2 15.8109 43.8681 13.7118
396 2 19.871 43.6902 13.8029
397 2 23.8544 43.6491 13.9515
398 2 27.6895 43.7944 13.7713
399 2 31.7718 43.5379 13.7314
400 2 35.6383 43.6374 13.8981
401 2 39.6873 43.6898 13.8305
402 2 43.8271 43.6857 13.727
403 2 47.7735 43.4824 13.6301
404 2 51.4321 43.617 13.7103
405 2 55.6606 43.6514 13.7644
406 2 59.4889 47.4712 13.5838
407 2 4.06747 47.2699 13.7768
408 2 7.81813 47.5259 13.6751
409 2 11.7151 47.5066 13.9093
410 2 15.6277 47.6304 13.7608
411 2 19.8103 47.5755 13.8442
412 2 23.812 47.7596 13.9248
413 2 27.9078 47.7225 13.7146
414 2 31.5748 47.6713 13.8316
415 2 35.6802 47.7197 13.7539
416 2 39.7356 47.5995 13.702
417 2 43.7477 47.3252 13.7386
418 2 47.6358 47.4982 13.7407
419 2 51.4503 47.6659 13.6841
420 2 55.5004 47.6375 13.8128
421 2 59.5283 51.6729 13.847
422 2 4.07469 51.4719 13.8373
423 2 7.80075 51.3344 13.976
424 2 11.8969 51.5982 13.8481
425 2 15.6512 51.4797 13.7706
426 2 19.7387 51.4421 13.8453
427 2 23.9307 51.6339 13.9081
428 2 27.6672 51.5448 13.9133
429 2 31.588 51.5641 13.8598
430 2 35.6155 51.5409 13.7241
431 2 39.5476 51.5773 14.0175
432 2 43.6333 51.6089 13.7304
433 2 47.4495 51.4798 13.6658
434 2 51.4802 51.5625 13.8667
435 2 55.4732 51.5681 13.7645
436 2 59.4333 55.5859 13.6395
437 2 4.22312 55.5936 13.7942
438 2 8.25289 55.4626 13.7225
439 2 11.9729 55.8642 13.6372
440 2 15.7472 55.3554 13.6149
441 2 19.6252 55.5098 13.7737
442 2 23.9162 55.6261 13.8289
443 2 27.857 55.5906 13.7352
444 2 31.5179 55.523 13.8269
445 2 35.7341 55.5674 13.7217
446 2 39.5429 55.4487 13.9905
447 2 43.6466 55.57 13.828
448 2 47.3191 55.5025 13.813
449 2 51.3074 55.6094 13.9502
450 2 55.6477 55.4449 13.643
451 2 59.3926 0.184893 17.7964
452 2 3.92664 0.179428 17.8067
453 2 7.82059 59.5184 17.7311
454 2 11.728 0.0846429 17.7275
455 2 15.8572 0.101695 17.6877
456 2 19.8386 0.0990829 17.611
457 2 23.6509 0.0884181 17.9261
458 2 27.7956 0.221137 17.6896
459 2 31.9861 0.262601 17.6417
460 2 35.6603 0.197173 17.7001
461 2 39.4051 0.193368 17.8692
462 2 43.4085 59.447 17.8683
463 2 47.4615 0.127627 17.8503
464 2 51.3669 0.130626 17.8849
465 2 55.5383 -0.00136083 17.8394
466 2 59.4495 4.01384 17.86
467 2 3.88581 4.14084 17.696
468 2 7.88895 4.28218 17.8634
469 2 11.7774 4.14021 17.8472
470 2 15.8177 4.12079 17.8709
471 2 19.7561 4.09153 17.7656
472 2 23.789 4.10778 17.8285
473 2 27.6263 4.27628 17.7154
474 2 31.6213 4.1401 17.7434
475 2 35.7281 4.18035 17.6788
476 2 39.5098 4.08063 18.0071
477 2 43.5054 4.04108 17.8837
478 2 47.4915 4.01398 17.7381
479 2 51.6023 4.12152 17.8491
480 2 55.4699 4.02193 17.6737
481 2 59.4499 8.127 18.0621
482 2 3.8498 8.05267 17.7278
483 2 7.92363 8.27699 17.9063
484 2 11.9959 8.21541 17.8153
485 2 15.6626 8.01368 17.7826
486 2 19.7187 8.17438 17.7361
487 2 23.8553 8.07764 17.7245
488 2 27.8631 8.18481 17.8206
489 2 31.6534 8.08292 17.701
490 2 35.6187 7.97183 17.8325
491 2 39.5854 7.96363 17.8926
492 2 43.4334 7.92094 17.8768
493 2 47.4497 8.04004 17.9087
494 2 51.422 8.09673 17.8673
495 2 55.402 8.04216 17.9193
496 2 59.5097 11.9973 17.7811
497 2 3.90951 12.0804 17.7089
498 2 7.79757 12.2715 17.5372
499 2 11.7523 12.1582 17.7837
500 2 15.6656 12.056 17.7764
501 2 19.7705 11.9128 17.85
502 2 23.734 12.0171 17.5914
503 2 27.6782 11.8804 17.61
504 2 31.5551 11.9369 17.6847
505 2 35.6043 11.86 17.9594
506 2 39.5752 11.9736 17.8013
507 2 43.418 12.0135 17.8278
508 2 47.3647 11.9271 17.5967
509 2 51.4345 11.9192 17.7277
510 2 55.415 12.1713 17.9436
511 2 59.3352 15.8527 17.7975
512 2 3.97112 16.0834 18.0214
513 2 7.9195 16.1083 17.872
514 2 11.8344 16.1466 17.8158
515 2 15.8103 15.9491 17.8495
516 2 19.7514 15.8796 17.7621
517 2 23.7133 15.966 17.6741
518 2 27.8079 16.027 17.861
519 2 31.7173 16.1065 17.8494
520 2 35.7014 15.8444 17.9195
521 2 39.556 15.8375 17.6872
522 2 43.5281 16.0109 17.8098
523 2 47.5015 16.0129 17.7055
524 2 51.392 16.0051 17.7529
525 2 55.4507 16.0635 17.8938
526 2 -0.121026 19.7814 17.83
527 2 3.75701 19.6729 17.8431
528 2 7.88465 19.8831 17.9357
529 2 11.8751 20.0373 17.8337
530 2 15.7328 20.2453 17.7504
531 2 19.5407 19.9907 17.8235
532 2 23.778 19.9956 17.7343
533 2 27.8441 19.9739 17.4953
534 2 31.5324 19.7284 17.8222
535 2 35.5309 19.906 17.7336
536 2 39.4977 19.7622 17.7313
537 2 43.4445 20.008 17.787
538 2 47.5634 19.8316 17.6173
539 2 51.6339 20.2463 17.6847
540 2 55.5228 19.746 17.8413
541 2 59.3681 23.6753 17.8297
542 2 3.82256 23.8458 17.9551
543 2 7.76877 23.8492 17.8799
544 2 11.8929 24.0275 17.9055
545 2 15.7733 23.9959 17.7904
546 2 19.6488 24.0388 17.6823
547 2 23.8153 23.8352 17.7783
548 2 27.8949 23.9617 17.7599
549 2 31.4766 23.5975 17.7055
550 2 35.4572 23.8065 17.5314
551 2 39.7085 23.9492 17.6605
552 2 43.5383 23.8089 17.6432
553 2 47.3983 23.8915 17.9076
554 2 51.3482 24.043 17.7516
555 2 55.372 23.7363 17.8946
556 2 59.2131 27.8339 17.8134
557 2 3.93938 27.798 17.7465
558 2 7.76827 27.7458 17.7434
559 2 11.9998 27.9763 17.6863
560 2 15.751 27.9555 17.7983
561 2 19.726 27.9088 17.8195
562 2 23.7166 27.8941 17.7026
563 2 27.596 27.77 17.5525
564 2 31.7404 27.9138 17.7157
565 2 35.6949 27.5338 17.8905
566 2 39.6738 27.7245 17.7561
567 2 43.571 27.848 17.6956
568 2 47.4199 27.8166 17.7947
569 2 51.3542 27.6863 17.7422
570 2 55.5933 27.5329 17.6824
571 2 59.3632 31.5687 17.8874
572 2 3.82848 31.8486 17.8463
573 2 7.85891 31.6146 17.5746
574 2 11.6194 31.729 17.4562
575 2 15.9814 31.9797 17.6945
576 2 19.7332 31.9124 17.8319
577 2 23.7884 31.9396 17.8319
578 2 27.6187 31.6459 17.735
579 2 31.852 31.7968 17.6516
580 2 35.7507 31.9116 17.8027
581 2 39.6725 31.7802 18.0485
582 2 43.7055 31.8151 17.8637
583 2 47.4257 31.9569 17.7217
584 2 51.556 31.8314 17.9132
585 2 55.3612 31.8303 17.7784
586 2 59.4712 35.7654 17.6913
587 2 3.97531 35.7517 17.6791
588 2 7.73668 35.6159 17.6822
589 2 12.0075 35.8276 17.636
590 2 15.7999 35.862 17.8751
591 2 19.8554 35.8367 17.8399
592 2 23.8438 35.8596 17.5675
593 2 27.7915 35.5416 17.7401
594 2 31.9732 35.6317 17.8783
595 2 35.6772 35.9307 17.8726
596 2 39.7287 35.7657 17.7351
597 2 43.6324 35.8908 17.785
598 2 47.5071 35.7953 17.9376
599 2 51.4387 35.7804 17.8568
600 2 55.3996 35.8779 17.9475
601 2 59.4914 39.6494 17.8816
602 2 3.99701 39.8728 17.8264
603 2 7.96609 39.5623 17.5704
604 2 11.8334 39.6162 17.8528
605 2 15.8663 39.6918 17.8722
606 2 19.7262 39.7043 17.6535
607 2 23.7546 39.8607 17.7656
608 2 27.9583 39.5604 17.7625
609 2 31.8174 39.6621 17.7714
610 2 35.7078 39.7889 17.8899
611 2 39.7163 39.7148 17.829
612 2 43.6299 39.8335 17.8413
613 2 47.6371 39.7648 17.7407
614 2 51.6006 39.8499 17.6547
615 2 55.3868 39.7591 17.7123
616 2 59.2649 43.5706 17.7825
617 2 3.92528 43.5535 17.8123
618 2 7.83041 43.5723 17.7743
619 2 11.8712 43.515 17.9432
620 2 15.7455 43.6128 17.8069
621 2 19.6712 43.6027 17.6475
622 2 23.6774 43.6416 17.9042
623 2 27.6481 43.6313 17.9057
624 2 31.6572 43.7505 17.7664
625 2 35.7013 43.9239 17.7826
626 2 39.4943 43.8904 17.7246
627 2 43.8353 43.6294 17.554
628 2 47.6937 43.6673 17.565
629 2 51.6311 43.8773 17.6896
630 2 55.4503 43.907 17.8345
631 2 0.152695 47.69 17.8232
632 2 3.87106 47.7671 17.8646
633 2 7.80864 47.7278 17.824
634 2 12.0798 47.5298 17.8977
635 2 15.8311 47.6259 17.844
636 2 19.7742 47.6628 17.9015
637 2 23.6619 47.5527 17.6383
638 2 27.6893 47.7182 17.6807
639 2 31.8465 47.5346 17.7782
640 2 35.6509 47.7304 17.9385
641 2 39.4933 47.5394 17.5746
642 2 43.5577 47.5447 17.8241
643 2 47.6533 47.7413 17.4992
644 2 51.6046 47.7011 17.7338
645 2 55.5759 47.7184 17.7359
646 2 59.4836 51.5898 17.8381
647 2 4.12234 51.6227 17.9261
648 2 8.09438 51.6838 17.6722
649 2 12.0354 51.629 17.7994
650 2 15.9142 51.6703 17.6496
651 2 19.8697 51.6968 17.607
652 2 23.6765 51.5169 17.7207
653 2 27.6688 51.6209 17.9178
654 2 31.6839 51.7136 17.9711
655 2 35.6471 51.8577 17.7979
656 2 39.4475 51.5238 17.8798
657 2 43.3921 51.372 17.6565
658 2 47.4542 51.5864 17.6899
659 2 51.7998 51.5446 17.7635
660 2 55.6881 51.7131 17.7369
661 2 59.4981 55.5955 17.7832
662 2 3.93235 55.5372 17.9144
663 2 8.0854 55.5403 17.6044
664 2 11.9692 55.5438 17.7581
665 2 15.9526 55.6606 17.7848
666 2 19.9671 55.4229 17.8248
667 2 23.6282 55.6775 17.5822
668 2 27.5593 55.6452 17.7227
669 2 31.5865 55.6089 17.6851
670 2 35.4267 55.731 17.7462
671 2 39.5238 55.4383 17.8932
672 2 43.5999 55.4622 17.7385
673 2 47.5426 55.5467 17.7782
674 2 51.3768 55.2983 17.7525
675 2 55.2865 55.5396 17.8081
676 2 0.085751 0.296827 21.9384
677 2 4.05698 0.215895 21.8445
678 2 7.93376 0.0472186 21.7654
679 2 11.8747 0.217742 21.8018
680 2 16.0519 0.142216 21.8916
681 2 19.8307 59.6399 21.761
682 2 23.8092 59.2286 21.7611
683 2 27.6855 59.5016 21.7358
684 2 31.414 0.147704 21.5571
685 2 35.4894 59.5383 21.6432
686 2 39.4063 59.362 21.9758
687 2 43.8238 59.3393 21.8446
688 2 47.4311 59.6596 21.8515
689 2 51.3247 0.139946 21.694
690 2 55.3554 0.0972243 21.8237
691 2 59.4254 4.28246 21.6614
692 2 3.85802 4.19237 21.8
693 2 7.80367 4.20598 21.5091
694 2 11.9018 3.99448 21.8799
695 2 15.6489 4.05684 21.7646
696 2 19.6245 4.17635 21.6791
697 2 23.4681 4.02104 21.7928
698 2 27.6724 4.14406 21.7895
699 2 31.6375 4.16066 21.8351
700 2 35.6087 4.26671 21.7813
701 2 39.518 3.9438 21.8583
702 2 43.485 4.05036 21.7973
703 2 47.5441 4.11028 21.8706
704 2 51.4006 4.16201 21.91
705 2 55.5708 4.1377 21.9613
706 2 59.345 8.09879 21.8738
707 2 3.85544 7.87032 21.8251
708 2 7.75102 8.13519 21.5294
709 2 11.8185 8.17676 21.8194
710 2 15.9254 8.1554 21.8829
711 2 19.7673 8.02961 21.9613
712 2 23.6183 7.86321 21.6052
713 2 27.7685 7.98341 21.6252
714 2 31.8157 8.02222 21.7642
715 2 35.5281 8.2256 21.8496
716 2 39.3508 8.16025 21.9477
717 2 43.3728 7.95914 21.7084
718 2 47.3467 7.94947 21.6312
719 2 51.5844 8.07242 21.6363
720 2 55.4022 8.00976 21.7647
721 2 59.4291 12.11 21.8121
722 2 3.96817 11.9093 21.7939
723 2 7.86494 11.9537 21.8212
724 2 11.8327 12.0207 21.8369
725 2 15.7091 12.0521 21.7928
726 2 19.7141 11.8492 21.9088
727 2 23.536 12.0629 21.6462
728 2 27.7029 12.1746 21.607
729 2 31.5898 12.0014 21.7109
730 2 35.5043 11.9975 21.8087
731 2 39.6891 11.9829 21.8261
732 2 43.6598 11.986 21.7541
733 2 47.5553 11.7204 21.823
734 2 51.584 11.9667 21.6631
735 2 55.4287 12.0462 21.7986
736 2 0.107218 15.8375 21.8028
737 2 4.06746 15.94 21.9051
738 2 7.91396 16.0676 21.9676
739 2 11.9342 15.9011 21.7232
740 2 15.9393 16.2283 21.8533
741 2 19.7308 16.0873 21.6856
742 2 23.6473 16.0433 21.6141
743 2 27.6036 16.0494 21.728
744 2 31.6195 15.9526 21.7176
745 2 35.6676 15.7307 21.8522
746 2 39.4773 15.8388 21.8062
747 2 43.5836 16.1061 21.8012
748 2 47.4939 16.027 21.6264
749 2 51.3302 16.0425 21.6597
750 2 55.3619 15.907 21.7528
751 2 59.316 20.025 21.8099
752 2 3.95958 19.7914 21.8425
753 2 7.86648 19.9874 21.7897
754 2 11.9696 19.92 21.8902
755 2 15.6263 19.9717 21.8241
756 2 19.8745 19.9075 21.8026
757 2 23.6779 20.0467 21.6041
758 2 27.6509 20.1217 21.7216
759 2 31.7944 19.8231 21.7853
760 2 35.3614 19.7172 21.7365
761 2 39.4369 19.8708 21.7616
762 2 43.6788 19.7746 21.6279
763 2 47.5448 19.8093 21.5019
764 2 51.3787 19.9548 21.7541
765 2 55.2287 19.7895 21.767
766 2 59.2606 23.7676 21.878
767 2 3.83995 23.9609 21.8869
768 2 7.81466 23.5552 21.9062
769 2 11.7549 23.9198 21.6741
770 2 15.7688 24.0007 21.9046
771 2 19.5564 23.8281 21.7831
772 2 23.8291 23.8828 21.6931
773 2 27.5184 24.0371 21.7419
774 2 31.6194 23.9591 21.5951
775 2 35.6403 23.8663 21.6896
776 2 39.5276 23.7838 21.7011
777 2 43.3942 23.6931 21.8996
778 2 47.3722 23.8619 21.8168
779 2 51.2509 23.856 21.5534
780 2 55.2636 23.9623 21.8044
781 2 59.4477 27.9203 21.7085
782 2 4.18153 27.8378 21.6178
783 2 7.78269 27.8991 21.7566
784 2 11.7375 27.848 21.5745
785 2 15.6404 28.0503 21.574
786 2 19.6443 27.8665 21.7472
787 2 23.6989 27.904 21.7217
788 2 27.6268 27.773 21.7389
789 2 31.4991 28.0839 21.7166
790 2 35.5567 27.8561 21.7143
791 2 39.6542 27.7435 21.676
792 2 43.5618 27.9202 21.6964
793 2 47.3448 28.0019 21.5368
794 2 51.4402 27.9919 21.7636
795 2 55.4241 27.8502 21.6395
796 2 59.2973 31.713 21.7645
797 2 4.00146 31.7677 21.8147
798 2 8.09609 31.833 21.6723
799 2 11.8231 31.898 21.5789
800 2 15.7681 32.041 21.9271
801 2 19.846 31.8348 21.8058
802 2 23.667 31.5854 21.7443
803 2 27.5483 31.6061 21.6196
804 2 31.4833 31.9394 21.8803
805 2 35.5595 31.8519 21.6834
806 2 39.3989 31.6944 21.8618
807 2 43.5227 31.6139 21.911
808 2 47.48 31.8617 21.8216
809 2 51.3712 31.8646 21.8473
810 2 55.1756 31.6742 21.6981
811 2 -0.178717 35.7557 21.6239
812 2 4.0446 35.6077 21.9594
813 2 8.02931 35.5975 21.5706
814 2 12.0078 35.7583 21.8552
815 2 15.6851 35.7783 21.8108
816 2 19.6409 35.7655 21.6448
817 2 23.6846 35.7351 21.8395
818 2 27.6197 35.4898 21.6439
819 2 31.804 35.7437 21.7546
820 2 35.6602 35.7003 22.0017
821 2 39.7731 35.764 21.8411
822 2 43.6491 35.8133 21.7892
823 2 47.6682 35.6958 21.7804
824 2 51.5296 35.7753 21.8604
825 2 55.4317 35.5431 21.7592
826 2 -0.00669886 39.5607 21.7981
827 2 3.9961 39.4884 21.7782
828 2 7.65967 39.5954 21.7172
829 2 11.5731 39.8957 21.7133
830 2 15.727 39.8449 21.8585
831 2 19.6766 39.7169 21.8088
832 2 23.7324 39.5522 21.7682
833 2 27.7467 39.5414 21.6153
834 2 31.5843 39.8193 21.7331
835 2 35.6807 39.829 21.6276
836 2 39.6692 39.7173 21.7292
837 2 43.6778 39.905 21.7731
838 2 47.6192 39.6003 21.5696
839 2 51.5828 39.7847 21.6831
840 2 55.4145 39.6171 21.8539
841 2 59.443 43.4779 21.9113
842 2 3.81648 43.3951 21.7592
843 2 7.81253 43.6797 21.8021
844 2 11.717 43.7037 21.6342
845 2 15.737 43.5926 21.7752
846 2 19.7083 43.5583 21.8577
847 2 23.7056 43.6127 21.8819
848 2 27.5994 43.5327 21.7851
849 2 31.6791 43.6602 21.7926
850 2 35.5293 43.5934 21.7977
851 2 39.6176 43.5325 21.7416
852 2 43.693 43.6166 21.8842
853 2 47.5932 43.6827 21.5926
854 2 51.3987 43.5427 21.6869
855 2 55.6633 43.6407 21.9122
856 2 -0.0838324 47.519 21.7156
857 2 4.05964 47.4802 21.8262
858 2 7.80782 47.4933 21.838
859 2 11.6841 47.6061 21.6858
860 2 15.7647 47.3988 21.8155
861 2 19.7683 47.786 21.6987
862 2 23.6247 47.6249 21.9419
863 2 27.619 47.431 21.8219
864 2 31.4075 47.5906 21.5653
865 2 35.7097 47.3262 21.6789
866 2 39.6478 47.6204 21.6745
867 2 43.3691 47.3873 21.6653
868 2 47.5045 47.6298 21.6759
869 2 51.3982 47.468 21.7858
870 2 55.44 47.5861 21.6018
871 2 59.1125 51.6023 21.8178
872 2 4.02274 51.626 21.8262
873 2 7.99148 51.5878 21.6423
874 2 11.9177 51.5864 21.8564
875 2 15.742 51.3698 21.6294
876 2 19.8861 51.6721 21.8365
877 2 23.7315 51.3459 21.4992
878 2 27.6598 51.578 21.8117
879 2 31.5293 51.5984 21.7917
880 2 35.7154 51.3852 21.7915
881 2 39.5665 51.6988 21.7115
882 2 43.4199 51.4763 21.7508
883 2 47.5128 51.294 21.5635
884 2 51.4551 51.516 21.7999
885 2 55.3081 51.5843 21.6962
886 2 59.4425 55.7035 21.8495
887 2 3.8211 55.5317 21.7535
888 2 8.09887 55.3993 21.7042
889 2 11.8347 55.6597 21.7886
890 2 15.7546 55.5288 21.7566
891 2 19.6893 55.5125 21.7942
892 2 23.7676 55.4758 21.8431
893 2 27.7331 55.4322 21.8138
894 2 31.4295 55.616 21.6842
895 2 35.4729 55.2773 21.7302
896 2 39.3621 55.6995 21.8644
897 2 43.4987 55.4041 21.8106
898 2 47.5614 55.5208 21.7711
899 2 51.3692 55.3376 21.6537
900 2 55.5126 55.5204 21.8918
901 2 59.4575 0.188583 25.7925
902 2 3.94456 59.4928 25.7463
903 2 7.98228 0.206338 25.8839
904 2 11.7521 -0.170359 25.9382
905 2 15.753 59.2449 25.8255
906 2 19.6525 0.0198819 25.6335
907 2 23.5366 0.0844004 25.799
908 2 27.5658 0.0655269 25.8254
909 2 31.6104 59.4453 25.6268
910 2 35.3836 0.243999 25.6099
911 2 39.3869 -0.0200351 25.7461
912 2 43.4442 -0.00822104 25.7292
913 2 47.6478 0.111054 25.8899
914 2 51.5323 0.0610116 25.7892
915 2 55.3192 59.7064 25.7832
916 2 59.2368 4.09113 25.7578
917 2 3.92 4.04771 25.8275
918 2 7.88244 4.16763 25.9011
919 2 11.7535 4.03902 25.7276
920 2 15.8529 3.8507 25.9029
921 2 19.6601 4.01884 25.8347
922 2 23.8397 3.95479 25.941
923 2 27.628 4.08588 25.6429
924 2 31.3672 4.16303 25.6069
925 2 35.6059 3.977 25.8006
926 2 39.5681 3.95512 25.8409
927 2 43.4626 3.95835 25.6262
928 2 47.6788 4.07048 25.7678
929 2 51.6211 4.04492 25.7862
930 2 55.3991 3.93573 25.9048
931 2 59.5366 8.09334 25.8987
932 2 4.16654 8.22146 25.763
933 2 7.86599 7.95763 25.776
934 2 11.8719 7.88175 25.8171
935 2 15.8554 7.99178 25.6985
936 2 19.871 8.16601 25.8171
937 2 23.6982 8.16888 25.6409
938 2 27.6986 8.06494 25.6771
939 2 31.6659 8.1981 25.8529
940 2 35.4896 7.98401 25.76
941 2 39.5127 8.03973 25.8884
942 2 43.3963 7.76889 25.7764
943 2 47.4376 7.84245 25.7968
944 2 51.4986 8.06027 25.7926
945 2 55.5176 8.13014 25.8434
946 2 59.1329 12.2145 25.9014
947 2 3.8747 12.0619 25.7934
948 2 7.95018 11.8017 25.6144
949 2 11.9254 11.792 25.8072
950 2 15.8549 12.046 25.7421
951 2 19.8621 12.2046 25.5234
952 2 23.66 12.1275 25.5566
953 2 27.5497 12.0552 25.3623
954 2 31.4906 11.9345 25.6597
955 2 35.4752 11.8873 25.5715
956 2 39.6025 12.1328 25.7456
957 2 43.5013 11.9386 25.6692
958 2 47.3264 11.8292 25.7793
959 2 51.2197 11.8838 25.7553
960 2 55.404 12.1898 25.7485
961 2 59.4867 16.2196 25.4697
962 2 4.23425 15.981 25.7121
963 2 7.94855 15.8244 25.7234
964 2 11.7481 15.814 25.8516
965 2 15.8769 15.9335 25.8656
966 2 19.8638 15.9138 25.6508
967 2 23.7389 16.112 25.7745
968 2 27.5043 15.8602 25.4774
969 2 31.544 16.0285 25.8907
970 2 35.4312 15.9462 25.7034
971 2 39.5907 15.9336 25.766
972 2 43.4451 15.9847 25.71
973 2 47.273 15.7804 25.4743
974 2 51.2637 15.9109 25.7021
975 2 55.3862 15.8742 25.7331
976 2 59.5051 19.9857 25.7122
977 2 3.94208 19.7032 25.7556
978 2 7.8618 19.8665 25.8227
979 2 11.7884 19.8119 25.6515
980 2 15.629 19.8031 25.7881
981 2 19.5861 20.0351 25.8285
982 2 23.5977 19.9067 25.7989
983 2 27.7932 19.9628 25.7632
984 2 31.5128 19.9632 25.565
985 2 35.4235 19.968 25.7788
986 2 39.4094 19.9278 25.751
987 2 43.6756 19.7598 25.8879
988 2 47.3643 19.9847 25.8015
989 2 51.2306 19.7933 25.8187
990 2 55.1945 19.9603 25.6913
991 2 59.1884 23.724 25.7824
992 2 3.77524 23.8306 25.7467
993 2 7.73983 23.8575 25.6931
994 2 11.7941 23.939 25.5396
995 2 15.6484 23.9085 25.8403
996 2 19.4445 23.7054 25.5588
997 2 23.4808 23.7458 25.543
998 2 27.6938 23.9546 25.6748
999 2 31.6006 23.8525 25.6582
1000 2 35.4384 23.9294 25.8104