ITEM: TIMESTEP
1509400
ITEM: NUMBER OF ATOMS
16875
ITEM: BOX BOUNDS xy xz yz pp pp pp
0.0000000000000000e+00 5.9369999999999997e+01 0.0000000000000000e+00
0.0000000000000000e+00 5.9369999999999997e+01 0.0000000000000000e+00
3.0290569685852731e-01 6.0063513303144319e+01 0.0000000000000000e+00
ITEM: ATOMS id type x y z
1 2 59.4284 -0.0837082 9.92515
2 2 4.12331 0.0418797 9.67003
3 2 8.14381 0.0309488 9.86622
4 2 12.0564 59.3954 9.78971
5 2 15.9184 0.0261182 9.98514
6 2 20.046 -0.00947894 9.7549
7 2 23.8697 -0.0190105 9.84628
8 2 27.799 0.0882549 9.92508
9 2 31.5247 0.00316933 9.87188
10 2 35.6214 -0.10798 9.98977
11 2 39.6847 -0.162012 9.75381
12 2 43.7063 0.0689014 9.86737
13 2 47.6863 0.0385566 9.72111
14 2 51.426 0.102381 9.84757
15 2 55.4941 0.0777439 9.87786
16 2 59.4964 3.82993 10.0163
17 2 4.13716 4.13202 9.76732
18 2 8.05754 4.01298 9.78377
19 2 11.9938 3.7435 9.78931
20 2 15.8633 4.01758 9.58518
21 2 19.9984 3.86793 9.88317
22 2 23.8559 3.9449 9.90937
23 2 27.8828 3.9365 9.9364
24 2 31.7899 4.00658 9.85442
25 2 35.6625 4.11821 9.88225
26 2 39.7198 3.96653 9.74782
27 2 43.5044 4.23906 9.53701
28 2 47.4042 4.10021 9.77127
29 2 51.6225 4.12069 9.90077
30 2 55.4381 3.94474 9.96737
31 2 59.6858 7.78725 9.8901
32 2 4.0077 8.05666 9.87739
33 2 8.12689 7.88038 9.92574
34 2 12.2335 7.96815 9.95015
35 2 15.9978 7.97537 9.83626
36 2 19.8458 7.74186 10.0398
37 2 24.0169 7.87625 9.84744
38 2 27.7818 7.90476 9.923
39 2 31.7433 8.2079 9.97189
40 2 35.8615 8.05464 9.98347
41 2 39.8941 8.01405 9.53188
42 2 43.6648 8.06978 9.77993
43 2 47.7052 8.12251 9.75025
44 2 51.4785 7.82439 9.79162
45 2 55.6006 8.093 9.92772
46 2 0.11446 11.9528 9.76509
47 2 4.136 11.8951 9.69839
48 2 8.2366 11.7217 9.67062
49 2 12.1667 11.8127 9.92049
50 2 15.9226 11.9592 9.79982
51 2 19.9748 11.9758 9.90396
52 2 23.9601 11.9606 9.8084
53 2 27.8873 11.9205 9.82074
54 2 31.6849 11.9809 9.74087
55 2 35.836 11.8655 9.68011
56 2 39.6595 11.957 9.60059
57 2 43.5562 12.0762 9.8397
58 2 47.5673 11.7968 9.76627
59 2 51.6316 11.9963 9.79897
60 2 55.5692 11.9366 9.80009
61 2 0.229297 15.9159 9.83177
62 2 4.03175 15.8613 9.72973
63 2 8.12058 16.0535 9.81556
64 2 12.0396 15.9741 9.6497
65 2 15.9264 15.8144 9.78164
66 2 19.7924 15.8582 9.59899
67 2 23.6692 15.6756 9.82304
68 2 27.7379 15.86 9.89898
69 2 31.6871 15.687 9.79551
70 2 35.7081 15.9085 9.66548
71 2 39.527 15.892 9.71649
72 2 43.66 15.9952 9.74194
73 2 47.4 15.9452 9.64535
74 2 51.6065 15.8569 9.70062
75 2 55.5744 15.843 9.67732
76 2 59.4259 19.719 9.85095
77 2 3.86388 19.5073 9.58662
78 2 8.1309 19.9036 9.74303
79 2 12.0173 19.979 9.7825
80 2 15.9415 19.8273 9.88051
81 2 19.9861 19.7398 9.80994
82 2 23.9636 19.8381 9.85
83 2 27.7532 19.7902 9.97944
84 2 31.7596 20.0333 9.89919
85 2 35.6849 19.77 9.90538
86 2 39.5132 19.8039 9.86926
87 2 43.4763 20.0029 9.83423
88 2 47.5377 19.8869 9.78004
89 2 51.4776 19.9595 9.68945
90 2 55.3266 19.7656 9.93152
91 2 59.4672 23.6491 10.0003
92 2 4.03619 23.7461 9.99042
93 2 8.21775 23.6914 9.88337
94 2 12.0288 23.9559 9.87977
95 2 16.0624 23.7706 9.64569
96 2 20.0816 23.7585 9.80108
97 2 23.7319 23.8316 9.73309
98 2 27.8023 23.8159 9.90502
99 2 31.8396 23.8456 9.8239
100 2 35.6554 23.9307 9.69621
101 2 39.6657 23.6093 9.71929
102 2 43.6681 23.8975 9.73067
103 2 47.826 23.7226 9.62729
104 2 51.5591 23.7868 9.83705
105 2 55.3853 23.739 9.9465
106 2 0.24546 27.7505 9.81764
107 2 4.24908 27.6337 9.72833
108 2 8.03555 27.727 9.83065
109 2 12.0522 27.9035 9.8924
110 2 16.1017 27.736 9.75006
111 2 19.9149 27.7245 9.81563
112 2 23.8579 27.8193 9.92369
113 2 27.6544 27.7978 9.84448
114 2 31.5505 27.8812 9.81785
115 2 35.6705 27.9181 9.84942
116 2 39.6661 27.7333 9.8405
117 2 43.6678 27.8002 9.95278
118 2 47.5847 27.7196 9.62083
119 2 51.6637 27.9046 9.76196
120 2 55.6031 27.8479 9.7688
121 2 0.167236 31.7696 9.83222
122 2 4.17825 31.6606 9.82847
123 2 7.91734 31.8165 9.62013
124 2 11.8893 31.7188 9.80171
125 2 15.8622 31.7225 9.66112
126 2 19.966 31.7376 9.69562
127 2 23.9236 31.7003 9.92939
128 2 27.7287 31.8329 9.82286
129 2 31.808 31.6853 9.62957
130 2 35.6575 31.8122 9.66128
131 2 39.6668 31.6323 9.61008
132 2 43.6452 31.5242 9.82933
133 2 47.49 31.5981 9.68317
134 2 51.5047 31.7436 9.64295
135 2 55.5167 31.5659 9.92932
136 2 59.327 35.7735 9.88495
137 2 4.01766 35.8424 9.66848
138 2 8.12378 35.5953 9.64893
139 2 11.9836 35.5326 9.78606
140 2 15.8566 35.6194 9.77836
141 2 19.9876 35.4736 9.93338
142 2 23.8465 35.5493 9.91086
143 2 27.9713 35.6495 9.86712
144 2 31.7466 35.7816 9.8338
145 2 35.761 35.774 9.84219
146 2 39.5504 35.5919 9.79022
147 2 43.8803 35.6545 9.9232
148 2 47.5595 35.7346 9.87735
149 2 51.7364 35.5778 9.79993
150 2 55.5721 35.5963 9.7666
151 2 59.3879 39.5088 9.86567
152 2 3.86426 39.6722 9.8048
153 2 8.02615 39.3724 9.72381
154 2 11.9531 39.6531 9.84728
155 2 15.8744 39.4291 9.73561
156 2 19.737 39.5984 9.7481
157 2 23.7844 39.6527 9.7175
158 2 27.6899 39.7628 9.8323
159 2 31.848 39.7703 9.68163
160 2 35.6897 39.7212 9.77526
161 2 39.8151 39.5023 9.7809
162 2 43.6021 39.6684 9.5855
163 2 47.5061 39.5759 9.82705
164 2 51.4678 39.5705 9.76706
165 2 55.5051 39.4636 9.78092
166 2 59.5061 43.5572 9.8232
167 2 4.02783 43.6339 9.99078
168 2 8.21206 43.4679 9.66233
169 2 11.9233 43.6243 9.88784
170 2 15.9968 43.4078 9.91058
171 2 19.9499 43.5927 9.7291
172 2 23.6929 43.5977 9.87458
173 2 27.7393 43.5473 9.96964
174 2 31.9133 43.4806 9.95629
175 2 35.6997 43.6502 9.87899
176 2 39.6637 43.4456 9.70949
177 2 43.6095 43.377 9.95061
178 2 47.5324 43.588 9.98081
179 2 51.6638 43.4836 9.59018
180 2 55.4833 43.4773 9.825
181 2 59.5901 47.3026 9.95485
182 2 4.15907 47.6226 9.75259
183 2 7.98394 47.5004 9.93446
184 2 12.1294 47.4675 10.0838
185 2 15.9851 47.3678 9.73157
186 2 19.8215 47.6586 9.69807
187 2 23.6352 47.5121 9.76137
188 2 27.9937 47.6594 9.67711
189 2 31.8419 47.5074 9.85514
190 2 35.7131 47.5898 9.83235
191 2 39.4415 47.6386 9.9814
192 2 43.5376 47.5409 9.84609
193 2 47.4545 47.3341 9.94158
194 2 51.3388 47.3735 9.98297
195 2 55.5471 47.4244 9.84187
196 2 -0.0464308 51.5839 9.79005
197 2 4.18395 51.3482 9.81619
198 2 8.10589 51.5378 9.91893
199 2 11.9951 51.3198 10.0782
200 2 15.7102 51.351 9.94
201 2 19.7331 51.5483 9.75642
202 2 23.8361 51.3263 9.89983
203 2 27.819 51.4642 10.0271
204 2 31.8339 51.5959 9.7622
205 2 35.8276 51.5683 9.74509
206 2 39.654 51.5323 9.92414
207 2 43.6689 51.4565 9.78516
208 2 47.6305 51.2357 9.6482
209 2 51.5827 51.5949 9.86984
210 2 55.3672 51.4127 9.83754
211 2 59.4258 55.3083 9.89201
212 2 4.03004 55.4082 9.94484
213 2 8.07152 55.5078 9.78944
214 2 12.126 55.3957 9.68976
215 2 16.0937 55.1867 9.6891
216 2 20.1184 55.4997 9.81041
217 2 24.0978 55.2757 10.0384
218 2 27.7584 55.6375 9.69114
219 2 32.0734 55.2896 9.74859
220 2 35.8836 55.3763 9.92994
221 2 39.595 55.3189 9.8355
222 2 43.7024 55.3851 9.85263
223 2 47.6107 55.4476 9.87815
224 2 51.4566 55.3588 9.96222
225 2 55.5367 55.3248 9.81458
226 2 59.3564 0.129491 14.0095
227 2 4.17458 0.0189094 13.7708
228 2 7.94759 0.0234955 13.8208
229 2 11.7444 59.4466 13.6918
230 2 15.9597 -0.0460361 13.8637
231 2 20.0455 -0.046759 13.8174
232 2 24.0525 -0.191668 13.8969
233 2 27.8668 0.0257279 13.8347
234 2 31.7223 -0.112099 13.8839
235 2 35.5716 59.504 13.6517
236 2 39.5913 0.0403986 13.8041
237 2 43.5404 0.0799368 13.6321
238 2 47.6768 59.6282 13.6275
239 2 51.6861 0.017329 13.5633
240 2 55.8546 0.0319656 13.7762
241 2 59.3035 3.93936 13.8127
242 2 4.13383 3.85218 13.6526
243 2 8.0752 4.01468 13.7729
244 2 11.9345 4.14037 13.7441
245 2 15.9367 3.72026 13.9332
246 2 19.8821 3.90068 13.8931
247 2 23.8973 3.85529 13.8407
248 2 27.7755 3.95408 13.9142
249 2 31.7101 4.13814 13.8825
250 2 35.6609 4.01878 13.7657
251 2 39.6875 3.96529 13.7547
252 2 43.621 4.16424 13.7546
253 2 47.5952 3.87325 13.7232
254 2 51.7022 3.96003 13.881
255 2 55.5195 4.25281 13.7326
256 2 59.476 8.03539 13.8356
257 2 4.12745 7.91328 13.7244
258 2 8.05595 8.05334 13.7309
259 2 12.1284 7.96701 13.7247
260 2 15.9589 7.89688 13.9202
261 2 20.1222 8.28925 13.9012
262 2 23.9189 8.08585 14.0062
263 2 27.5508 8.08275 13.8775
264 2 31.8068 8.12099 13.6933
265 2 35.714 8.0114 13.6584
266 2 39.9342 7.93285 13.5847
267 2 43.7019 8.00137 13.7201
268 2 47.6811 8.01591 13.8641
269 2 51.4837 8.03399 13.6839
270 2 55.4642 8.08389 13.785
271 2 0.130873 12.1236 13.8256
272 2 3.97277 12.0963 13.8204
273 2 8.07347 11.9869 13.6535
274 2 12.0322 11.989 13.8182
275 2 16.0736 12.0181 13.9138
276 2 19.9687 12.142 13.9344
277 2 23.8115 12.0228 13.7363
278 2 27.7327 11.9014 13.8167
279 2 31.8013 11.9273 13.8754
280 2 35.8501 11.9362 13.9601
281 2 39.6764 12.1392 13.679
282 2 43.4961 11.9767 13.7285
283 2 47.5851 12.0629 13.8677
284 2 51.462 11.9299 13.7407
285 2 55.6402 11.9236 13.9002
286 2 59.3781 15.8974 13.7035
287 2 4.16451 15.9617 13.7141
288 2 8.05796 16.0408 13.7385
289 2 12.0781 15.8707 13.8226
290 2 15.9431 15.8758 13.7449
291 2 19.9317 16.0554 13.5582
292 2 23.8886 15.9947 13.8269
293 2 27.8181 15.9612 13.7966
294 2 31.868 15.9757 13.9206
295 2 35.6518 15.8839 13.8353
296 2 39.791 15.8625 13.8283
297 2 43.6797 15.8933 13.683
298 2 47.628 15.8888 13.7143
299 2 51.4584 15.9153 13.6993
300 2 55.3976 15.9938 13.8488
301 2 59.2481 19.7436 13.8152
302 2 4.25351 19.9262 13.7343
303 2 7.86856 19.7001 13.5771
304 2 11.9239 19.8646 13.8325
305 2 15.8917 19.9362 13.7785
306 2 19.8374 20.0484 13.7031
307 2 23.7662 19.9838 13.9898
308 2 27.9521 19.7246 13.8352
309 2 31.7975 19.8882 13.935
310 2 35.8146 20.0113 13.9919
311 2 39.7309 19.8219 13.8247
312 2 43.5839 20.088 13.7308
313 2 47.5652 19.8762 13.8909
314 2 51.3632 20.0101 13.8796
315 2 55.4007 19.9501 13.8886
316 2 59.6333 23.8211 13.8609
317 2 3.97642 23.7596 13.777
318 2 7.80857 23.9463 13.8182
319 2 11.9014 23.8022 13.7989
320 2 16.1484 23.8456 13.8602
321 2 19.825 23.8373 13.7798
322 2 24.0133 23.7472 13.8707
323 2 27.7361 23.8551 13.8511
324 2 31.7349 23.9648 13.5514
325 2 35.6623 23.9605 13.7487
326 2 39.4689 24.1186 13.716
327 2 43.6622 23.9435 13.8788
328 2 47.5625 23.8549 13.8614
329 2 51.4474 23.8218 13.7796
330 2 55.4036 23.8908 13.764
331 2 0.125334 27.6873 13.7981
332 2 4.11536 27.7533 13.7888
333 2 8.08713 27.6398 13.8377
334 2 12.0599 27.7183 13.8073
335 2 15.8909 27.9273 13.7417
336 2 19.816 27.7622 13.8834
337 2 23.7649 27.8105 13.8314
338 2 28.0313 27.7564 13.7638
339 2 31.8724 27.7702 13.9255
340 2 35.7791 28.0141 13.867
341 2 39.5943 27.9036 13.9092
342 2 43.5975 27.8368 13.7812
343 2 47.3727 27.6967 13.8041
344 2 51.3806 27.8437 13.8123
345 2 55.5074 27.7555 13.7993
346 2 59.4634 31.8377 13.9084
347 2 4.02903 31.692 13.818
348 2 7.86552 31.4624 13.8704
349 2 12.094 31.6474 13.7537
350 2 15.9427 31.8206 13.613
351 2 19.73 31.845 13.635
352 2 23.8275 31.7195 13.8087
353 2 27.947 31.8632 13.7608
354 2 31.7865 31.8911 13.6313
355 2 35.707 31.7597 13.7698
356 2 39.6396 31.8101 13.6994
357 2 43.6655 31.7604 13.7316
358 2 47.6532 31.5869 13.8
359 2 51.4713 31.5692 13.7321
360 2 55.3695 31.7305 13.9414
361 2 0.0356393 35.6088 13.7925
362 2 4.03564 35.6644 13.8434
363 2 8.04673 35.7034 13.6719
364 2 11.9952 35.739 13.9374
365 2 16.0593 35.7736 13.6724
366 2 19.7149 35.5891 14.0052
367 2 23.8093 35.8842 13.7472
368 2 27.5891 35.8516 13.6784
369 2 31.7395 35.8015 13.9235
370 2 35.6474 35.9443 13.8708
371 2 39.7958 35.6105 13.8527
372 2 43.6786 35.4913 13.904
373 2 47.7664 35.7344 13.7548
374 2 51.6394 35.549 13.8015
375 2 55.5453 35.5429 13.6266
376 2 59.4768 39.6054 13.8873
377 2 4.1399 39.7149 13.6734
378 2 8.00051 39.4627 13.8044
379 2 11.8567 39.648 13.904
380 2 15.8594 39.6907 13.7209
381 2 19.8261 39.5939 13.8552
382 2 23.635 39.5477 13.6825
383 2 27.7162 39.8604 13.9291
384 2 31.7467 39.4873 13.8984
385 2 36.0194 39.7087 13.5507
386 2 39.7362 39.7027 13.8171
387 2 43.5397 39.5443 13.7165
388 2 47.6555 39.583 14.0154
389 2 51.629 39.734 13.8421
390 2 55.5754 39.6781 13.8615
391 2 0.0429571 43.6642 13.8349
392 2 4.23729 43.5883 13.718
393 2 7.99261 43.6258 13.803
394 2 11.9944 43.4638 13.7453
395 2 15.9969 43.5201 13.7923
396 2 19.8476 43.4659 13.8785
397 2 23.6444 43.6832 13.737
398 2 27.7774 43.5329 13.8225
399 2 31.7397 43.6513 13.9266
400 2 35.6996 43.5855 13.91
401 2 39.6306 43.7058 14.0358
402 2 43.7675 43.5555 13.7931
403 2 47.6437 43.7442 14.0012
404 2 51.5806 43.5955 13.934
405 2 55.6254 43.5474 13.7063
406 2 59.3656 47.7282 13.7525
407 2 4.25628 47.4103 13.7291
408 2 7.9226 47.6506 13.868
409 2 12.0223 47.6083 13.8911
410 2 15.8224 47.4974 13.9574
411 2 19.9898 47.6134 13.6926
412 2 23.6239 47.4129 13.7182
413 2 27.8508 47.5697 13.8377
414 2 31.5813 47.4458 13.9543
415 2 35.7863 47.659 13.8595
416 2 39.7068 47.6095 13.7549
417 2 43.5358 47.5369 13.8461
418 2 47.5709 47.4455 13.8779
419 2 51.3903 47.4388 14.0168
420 2 55.2765 47.55 13.8962
421 2 59.2165 51.4153 13.8293
422 2 4.01967 51.6033 13.8992
423 2 8.19857 51.6328 13.8441
424 2 11.9509 51.6171 13.9365
425 2 16.0094 51.6372 13.7436
426 2 20.0719 51.5077 13.8736
427 2 23.7796 51.39 13.834
428 2 27.7312 51.5425 13.8302
429 2 31.8054 51.4044 13.7468
430 2 35.4821 51.4524 13.8624
431 2 39.5871 51.5889 13.898
432 2 43.4831 51.5775 13.7806
433 2 47.4888 51.4481 13.805
434 2 51.3203 51.4171 13.7891
435 2 55.3004 51.5343 13.863
436 2 59.5391 55.4864 13.8811
437 2 4.01944 55.5509 13.6959
438 2 8.08955 55.4497 13.9527
439 2 11.8144 55.6839 13.8275
440 2 15.9222 55.4319 13.7856
441 2 20.0382 55.5449 13.7419
442 2 23.8871 55.2496 13.8888
443 2 27.7801 55.5405 13.7204
444 2 31.745 55.3644 13.7198
445 2 35.7708 55.5083 13.9119
446 2 39.5939 55.3978 13.8258
447 2 43.689 55.5395 13.7294
448 2 47.4618 55.5854 13.9561
449 2 51.6762 55.3676 13.7871
450 2 55.441 55.4043 13.8709
451 2 59.4884 -0.0146515 17.9056
452 2 3.99383 0.134422 17.6256
453 2 7.84252 59.6528 17.8031
454 2 11.8616 0.138604 17.8504
455 2 15.8327 0.300107 17.8493
456 2 19.7768 0.173058 17.7759
457 2 23.8199 0.138129 17.9196
458 2 27.6747 0.0677426 17.9079
459 2 31.899 0.220558 17.8537
460 2 35.436 0.216148 17.9362
461 2 39.3723 0.0850526 17.7195
462 2 43.4623 59.5453 17.8789
463 2 47.4578 0.180503 17.6183
464 2 51.7611 0.150659 17.6776
465 2 55.4849 0.274315 17.8267
466 2 59.4829 4.01161 17.8436
467 2 3.86363 4.12925 17.8031
468 2 7.8776 4.05307 17.9255
469 2 11.959 4.07905 17.5613
470 2 15.9302 4.28678 17.7147
471 2 19.9299 4.25471 17.8086
472 2 23.8581 4.02456 17.7315
473 2 27.777 4.29193 17.7477
474 2 31.8862 4.05686 17.6781
475 2 35.8585 4.20349 17.7529
476 2 39.7875 4.05487 17.6219
477 2 43.5613 4.18954 17.8712
478 2 47.6993 4.18555 17.5597
479 2 51.6193 3.94667 17.7244
480 2 55.4928 4.00655 17.8806
481 2 59.6388 7.86772 17.7817
482 2 3.94098 8.13871 17.7296
483 2 7.95483 8.02538 17.6756
484 2 11.9788 8.02073 17.8433
485 2 15.93 7.96039 17.7921
486 2 20.0434 7.90648 17.9389
487 2 23.8576 8.01297 17.9254
488 2 27.8428 8.01432 17.9606
489 2 31.6369 8.08085 17.6997
490 2 35.9238 7.87982 17.818
491 2 39.7832 8.14356 17.7231
492 2 43.7238 8.01961 17.8628
493 2 47.7106 7.86446 17.9464
494 2 51.6212 8.15425 17.7638
495 2 55.5955 7.79651 17.5734
496 2 59.6223 12.0372 17.7541
497 2 4.13405 12.0359 17.7685
498 2 8.22778 12.0051 17.5924
499 2 12.0433 11.8416 17.9484
500 2 16.0559 12.1505 17.8395
501 2 20.0896 11.9743 17.8095
502 2 24.0299 12.2352 17.8389
503 2 27.8146 12.0235 17.9013
504 2 31.7137 12.0925 17.8938
505 2 35.7628 11.7365 17.9656
506 2 39.8063 12.1438 17.7141
507 2 43.5687 11.9136 17.8634
508 2 47.4985 11.8422 17.7294
509 2 51.5243 11.8169 17.905
510 2 55.5153 11.8747 17.992
511 2 59.5849 16.0576 17.6618
512 2 4.16863 15.9879 17.7253
513 2 7.98706 15.9856 17.5749
514 2 11.8679 15.7349 17.8292
515 2 16.0132 16.0864 17.8604
516 2 19.9467 15.9543 17.8542
517 2 23.8807 15.9336 17.9492
518 2 27.9474 15.9555 17.7005
519 2 31.8161 15.8211 17.6574
520 2 35.9367 15.961 17.821
521 2 39.5533 16.0461 17.7218
522 2 43.7492 15.8407 17.758
523 2 47.7149 15.8643 17.8195
524 2 51.6639 15.8821 17.8846
525 2 55.4008 15.8962 17.6225
526 2 -0.01087 19.8753 17.7083
527 2 4.02344 20.0935 17.785
528 2 7.98503 20.0964 17.7041
529 2 12.1001 19.9088 17.7288
530 2 15.8982 19.6968 17.9935
531 2 19.8394 19.9559 17.7931
532 2 23.8055 19.8774 17.8959
533 2 27.8482 19.9429 17.8835
534 2 31.758 19.8867 17.7712
535 2 35.7735 19.8872 17.9172
536 2 39.5195 19.8329 17.9285
537 2 43.495 19.9803 17.7368
538 2 47.5117 19.7264 17.7393
539 2 51.3886 19.8493 17.8256
540 2 55.3538 19.8476 17.6328
541 2 59.5137 23.6913 17.8116
542 2 3.90065 23.9983 17.7747
543 2 8.2296 23.874 17.7682
544 2 12.0323 23.7945 17.7571
545 2 15.8304 23.6867 17.7694
546 2 19.7951 23.9449 17.7555
547 2 23.7608 23.5827 17.5955
548 2 27.7426 23.804 17.7289
549 2 31.7538 23.9368 17.6626
550 2 35.6486 24.0442 17.7883
551 2 39.6834 23.7451 17.8323
552 2 43.4027 23.7779 17.8078
553 2 47.6066 23.8381 17.9669
554 2 51.7524 23.787 17.9273
555 2 55.4527 23.8788 17.8595
556 2 59.4571 28.0026 17.8181
557 2 4.15318 27.7989 17.9404
558 2 8.08508 27.9242 17.6401
559 2 12.0317 27.7734 17.8237
560 2 15.8405 27.7446 17.5917
561 2 20.1069 27.8929 18.0031
562 2 23.7992 27.8523 17.9638
563 2 27.6956 27.8661 17.5882
564 2 31.712 27.8485 17.8065
565 2 35.7228 27.9222 17.7252
566 2 39.729 27.6218 17.6433
567 2 43.5026 27.9935 17.8304
568 2 47.4653 27.73 17.6529
569 2 51.455 27.6481 17.7513
570 2 55.4115 27.8123 17.8143
571 2 59.5915 31.9132 17.9324
572 2 3.88936 31.5817 18.0068
573 2 8.00646 31.8441 17.8319
574 2 12.1036 31.8299 17.7363
575 2 15.8252 31.7992 17.7511
576 2 19.9059 31.3974 17.5976
577 2 23.8176 31.8216 17.8546
578 2 27.7566 31.7705 17.8847
579 2 31.6319 31.9157 17.9414
580 2 35.5598 31.6911 17.7583
581 2 39.5418 31.6988 17.7672
582 2 43.6309 31.8113 17.735
583 2 47.6478 31.652 17.7642
584 2 51.3862 31.8509 17.6087
585 2 55.2418 31.7118 17.784
586 2 59.4071 35.8929 17.7903
587 2 4.00676 35.8764 17.7323
588 2 7.94041 35.7258 17.7303
589 2 11.98 35.4611 17.5409
590 2 15.9952 35.804 17.6326
591 2 19.765 35.7475 17.8003
592 2 23.8652 35.8197 17.8715
593 2 27.8101 35.5957 17.81
594 2 31.7809 35.6568 17.7915
595 2 35.7597 35.6141 17.8381
596 2 39.7149 35.5515 17.8265
597 2 43.5899 35.9175 17.739
598 2 47.58 35.8141 17.6854
599 2 51.6215 35.7714 17.8606
600 2 55.4976 35.8255 17.7788
601 2 59.474 39.6327 17.792
602 2 4.09101 39.6498 17.7967
603 2 7.78784 39.6369 17.7116
604 2 12.0534 39.6126 17.9454
605 2 15.8216 39.4254 17.7738
606 2 20.0127 39.6428 17.9567
607 2 23.8174 39.8049 17.7902
608 2 27.7044 39.6342 17.8896
609 2 31.6235 39.5541 17.7972
610 2 35.5623 39.6934 17.8333
611 2 39.674 39.5255 17.8542
612 2 43.5736 39.6416 17.8207
613 2 47.5868 39.6381 17.8055
614 2 51.5741 39.5526 17.7201
615 2 55.5506 39.7681 17.8285
616 2 59.3871 43.7844 17.8209
617 2 3.98937 43.6545 17.7445
618 2 8.06463 43.7938 17.6346
619 2 11.7098 43.5867 17.723
620 2 15.7978 43.5189 17.8635
621 2 19.7164 43.5029 17.7492
622 2 23.7513 43.7956 17.8042
623 2 27.5791 43.4962 17.7993
624 2 31.6837 43.3063 17.7393
625 2 35.6669 43.6158 17.8055
626 2 39.5973 43.4733 17.8353
627 2 43.5986 43.6133 17.9285
628 2 47.5686 43.6246 17.9335
629 2 51.3755 43.5548 17.9017
630 2 55.3195 43.6178 17.7136
631 2 0.0316054 47.5752 17.6022
632 2 3.91273 47.4453 17.7266
633 2 7.87912 47.6295 17.8083
634 2 12.0931 47.8043 17.7812
635 2 15.7301 47.6235 17.9487
636 2 19.7741 47.7479 17.8575
637 2 23.9129 47.8231 17.7676
638 2 27.5763 47.5896 17.7734
639 2 31.631 47.4211 17.7815
640 2 35.4232 47.565 17.8615
641 2 39.5204 47.5588 17.9489
642 2 43.3446 47.5205 17.8859
643 2 47.4357 47.4993 17.7075
644 2 51.5111 47.3739 18.056
645 2 55.3909 47.7356 17.6709
646 2 59.5006 51.3672 17.8073
647 2 3.80221 51.3602 17.8617
648 2 7.84581 51.4762 17.8898
649 2 11.8888 51.7737 17.9028
650 2 15.8217 51.5957 17.63
651 2 19.8063 51.4213 17.9388
652 2 23.8597 51.7891 17.7201
653 2 27.9585 51.4779 17.8766
654 2 31.6025 51.5197 17.8731
655 2 35.6524 51.5874 18.0699
656 2 39.6959 51.4611 17.9475
657 2 43.3704 51.6055 17.7456
658 2 47.1737 51.5801 17.614
659 2 51.3391 51.5556 17.8168
660 2 55.4465 51.5977 17.8194
661 2 59.3728 55.5116 17.939
662 2 3.94362 55.3312 17.6954
663 2 7.85415 55.5052 17.7504
664 2 11.8681 55.4031 18.0295
665 2 15.7854 55.7213 17.8523
666 2 19.9291 55.5662 17.8059
667 2 23.8101 55.4412 17.8503
668 2 27.7751 55.4937 17.8691
669 2 31.6206 55.4608 17.5443
670 2 35.688 55.5669 17.6891
671 2 39.4783 55.5833 17.7368
672 2 43.5832 55.6037 17.8525
673 2 47.4374 55.3824 17.9042
674 2 51.3941 55.6992 17.853
675 2 55.2594 55.4492 17.8512
676 2 -0.257402 0.0248624 21.7029
677 2 3.99208 -0.115048 21.866
678 2 8.00023 -0.0126075 21.6458
679 2 11.9847 0.114247 21.726
680 2 15.7512 0.147001 21.801
681 2 19.618 59.6679 21.8065
682 2 23.7003 59.3948 21.811
683 2 27.7561 59.504 21.6966
684 2 31.6561 0.293597 21.9471
685 2 35.629 59.5065 21.7789
686 2 39.4025 59.4548 21.7974
687 2 43.5172 59.6593 21.7099
688 2 47.5007 59.5404 21.6725
689 2 51.5108 0.0962745 21.9356
690 2 55.4494 0.0645131 21.7787
691 2 59.496 3.95078 21.7206
692 2 3.91349 4.00583 21.7812
693 2 7.80214 3.9649 21.8369
694 2 11.9594 3.97336 21.7851
695 2 15.823 4.03441 21.9056
696 2 19.7088 4.03886 21.7719
697 2 23.8018 3.93729 21.9204
698 2 27.7446 4.32883 21.8294
699 2 31.7798 4.27423 21.7744
700 2 35.8401 4.08834 21.7112
701 2 39.7118 4.1818 21.8013
702 2 43.7586 4.28572 21.9676
703 2 47.3696 3.91608 21.9073
704 2 51.4025 4.09145 21.8014
705 2 55.5583 4.16491 21.8616
706 2 59.1978 7.93899 21.7643
707 2 4.09489 8.1466 21.7958
708 2 7.96016 8.09328 21.7944
709 2 11.9475 8.06034 21.7318
710 2 15.7072 8.15862 21.735
711 2 19.7836 7.87471 21.8192
712 2 23.7255 8.10391 21.8885
713 2 27.5802 7.91857 21.8754
714 2 31.6119 8.1697 21.8558
715 2 35.4789 8.19136 21.619
716 2 39.6346 8.07515 21.882
717 2 43.661 8.31623 21.7603
718 2 47.6898 7.95726 22.0305
719 2 51.5078 8.02242 21.9845
720 2 55.5072 8.00406 21.6522
721 2 59.5634 12.1475 21.6349
722 2 3.89779 12.0628 21.7144
723 2 8.07058 11.934 21.68
724 2 11.9954 12.0844 21.822
725 2 15.7935 11.9515 21.8821
726 2 19.7908 11.9658 21.7222
727 2 23.5824 11.9486 21.8465
728 2 27.7137 11.9034 21.9252
729 2 31.7025 12.1789 21.9052
730 2 35.6821 11.8341 21.8677
731 2 39.6883 12.0146 21.7948
732 2 43.5908 12.0075 21.9175
733 2 47.5989 12.0516 21.7794
734 2 51.4162 11.9194 21.9202
735 2 55.5918 12.062 21.6914
736 2 0.149027 15.9996 21.7073
737 2 4.31373 15.9539 21.6876
738 2 7.90483 16.0492 21.78
739 2 11.8981 15.7849 21.5817
740 2 15.7785 16.0497 21.687
741 2 19.7401 15.9654 21.8135
742 2 23.5414 16.0458 21.6426
743 2 27.6516 15.8987 21.7154
744 2 31.7441 15.9813 21.7194
745 2 35.5866 15.7693 21.8363
746 2 39.8971 15.8728 21.4812
747 2 43.6467 15.8073 21.7979
748 2 47.4437 16.0223 21.4134
749 2 51.5195 16.064 21.8955
750 2 55.7117 15.8932 21.8416
751 2 59.38 19.8128 21.6864
752 2 4.17673 19.7918 21.8791
753 2 8.05099 19.9877 21.6633
754 2 11.9246 19.675 21.7526
755 2 15.839 19.9339 21.9269
756 2 19.7593 20.0529 21.8411
757 2 23.8087 19.9983 21.8452
758 2 27.7132 19.8076 21.8615
759 2 31.8571 19.7726 21.9513
760 2 35.6173 19.6575 21.8531
761 2 39.5422 19.9177 21.9253
762 2 43.5752 19.9689 21.7708
763 2 47.4897 20.0085 21.7829
764 2 51.4963 19.7542 21.8093
765 2 55.3504 19.9077 21.7657
766 2 59.6179 23.9599 21.8225
767 2 4.23946 23.6871 21.8198
768 2 8.18849 23.9783 21.6777
769 2 12.0941 23.9608 21.6621
770 2 15.8494 24.0506 21.9134
771 2 19.9034 23.9642 21.7843
772 2 23.8019 23.7952 21.6904
773 2 27.7087 23.8712 21.7148
774 2 31.6113 23.7764 21.6487
775 2 35.6951 23.9376 21.7019
776 2 39.6572 23.8115 21.9836
777 2 43.6939 23.8925 21.7856
778 2 47.6504 23.8583 21.636
779 2 51.6229 23.7382 21.6525
780 2 55.6776 23.996 21.703
781 2 59.2601 27.7283 21.9497
782 2 4.07339 27.8299 21.6776
783 2 8.25488 27.7732 21.9568
784 2 12.0192 27.8393 21.8115
785 2 15.8682 28.0179 21.8092
786 2 19.855 27.9322 21.8217
787 2 23.765 27.8083 21.6724
788 2 27.8294 27.7186 21.7631
789 2 31.6684 27.5723 21.8919
790 2 35.6371 27.9386 21.8546
791 2 39.607 27.7163 21.6784
792 2 43.4939 27.9526 21.6465
793 2 47.4916 27.935 21.678
794 2 51.4798 27.876 21.7572
795 2 55.4953 27.8685 21.7822
796 2 59.4505 31.7543 21.9206
797 2 4.19512 31.8326 21.8761
798 2 8.16303 31.6896 21.7141
799 2 11.923 31.8118 21.6257
800 2 15.8678 31.816 21.7663
801 2 19.7503 31.8268 21.7366
802 2 23.7435 31.7825 21.7151
803 2 27.6028 31.5348 21.8891
804 2 31.6631 31.8242 21.6164
805 2 35.4682 31.5226 21.9075
806 2 39.6126 31.7613 21.9424
807 2 43.5356 31.8693 21.8552
808 2 47.464 31.5865 21.8086
809 2 51.5834 32.0534 21.7267
810 2 55.5067 31.8269 21.6455
811 2 -0.174913 35.6234 21.8483
812 2 3.93425 35.7875 21.7462
813 2 7.76866 35.7356 21.7734
814 2 11.8596 35.7487 21.8937
815 2 15.9187 35.9602 21.8464
816 2 19.7596 35.7027 21.8188
817 2 23.7068 35.6465 21.6941
818 2 27.8365 35.6257 21.8166
819 2 31.6032 35.7285 22.0205
820 2 35.7495 35.7691 21.8618
821 2 39.5326 35.6987 21.6846
822 2 43.7414 35.7098 21.6111
823 2 47.5843 35.9399 21.8582
824 2 51.421 35.7735 21.6484
825 2 55.4844 35.8575 21.8273
826 2 0.0166655 39.9259 21.9311
827 2 4.04699 39.7226 21.8639
828 2 7.85209 39.5522 21.7644
829 2 11.9477 39.7986 21.8071
830 2 15.8569 39.7428 22.0538
831 2 19.6405 39.9095 21.8546
832 2 23.6925 39.6542 21.8053
833 2 27.4952 39.7481 21.9188
834 2 31.4427 39.5156 21.6306
835 2 35.4799 39.6388 21.6777
836 2 39.6444 39.6926 21.8381
837 2 43.5215 39.666 21.9017
838 2 47.4649 39.6725 21.7366
839 2 51.4312 39.7815 21.8875
840 2 55.3727 39.5951 22.0072
841 2 59.3069 43.6285 21.6793
842 2 3.92334 43.571 21.6067
843 2 7.86731 43.5786 21.7725
844 2 11.7384 43.5735 21.644
845 2 15.8153 43.6154 21.8246
846 2 19.8484 43.6172 21.7283
847 2 23.6442 43.879 21.6618
848 2 27.7908 43.9649 21.7746
849 2 31.4909 43.4946 21.8909
850 2 35.4936 43.4413 21.8294
851 2 39.4381 43.7125 21.7122
852 2 43.6501 43.6028 21.7271
853 2 47.3727 43.7105 21.8301
854 2 51.4149 43.6577 21.9339
855 2 55.447 43.6712 21.801
856 2 -0.0701858 47.6008 21.8539
857 2 3.92275 47.469 21.9204
858 2 7.83656 47.6928 21.7317
859 2 11.8003 47.7089 21.6759
860 2 15.6833 47.5302 21.6944
861 2 19.9036 47.5749 21.6701
862 2 23.6201 47.6689 21.9328
863 2 27.7568 47.8241 21.8724
864 2 31.5827 47.813 21.8656
865 2 35.533 47.5715 21.6922
866 2 39.6519 47.4345 21.8377
867 2 43.5791 47.4763 21.8508
868 2 47.4497 47.7113 21.6634
869 2 51.4206 47.6313 21.9172
870 2 55.2753 47.6297 21.8239
871 2 59.344 51.6093 21.8479
872 2 3.98938 51.4702 21.9317
873 2 7.85012 51.5097 21.7264
874 2 11.822 51.5128 21.9075
875 2 15.9201 51.5207 21.7202
876 2 19.6007 51.6808 21.6854
877 2 23.7628 51.699 21.7691
878 2 27.7674 51.7902 21.6204
879 2 31.6294 51.7629 21.9992
880 2 35.7245 51.707 21.7529
881 2 39.479 51.7417 21.777
882 2 43.7005 51.8517 21.8676
883 2 47.2918 51.3925 21.6391
884 2 51.4452 51.5344 21.8435
885 2 55.2078 51.5082 21.6477
886 2 59.2938 55.4794 21.7826
887 2 3.98589 55.4431 22.0221
888 2 7.83306 55.5812 21.8711
889 2 11.7787 55.633 21.8883
890 2 15.8491 55.4647 21.8754
891 2 19.7298 55.6447 21.8163
892 2 23.6159 55.671 21.8423
893 2 27.7549 55.6459 21.8419
894 2 31.8811 55.6163 21.875
895 2 35.7974 55.4486 21.8016
896 2 39.6342 55.5603 21.7509
897 2 43.473 55.6627 21.5889
898 2 47.4928 55.5828 21.7657
899 2 51.3785 55.5768 21.758
900 2 55.3909 55.5998 21.5862
901 2 59.2462 0.216297 25.5721
902 2 3.60641 59.5529 25.7985
903 2 7.97843 -0.0454576 25.7902
904 2 11.9765 0.187956 25.7259
905 2 15.8273 59.3868 25.8798
906 2 19.9293 0.16984 25.685
907 2 23.8507 0.252729 25.8215
908 2 27.7907 -0.0146478 25.9679
909 2 31.8237 59.6088 25.9028
910 2 35.5648 0.340451 25.6723
911 2 39.6562 0.114694 25.9751
912 2 43.4318 0.305715 25.6004
913 2 47.4462 0.204071 25.8618
914 2 51.4685 0.224665 25.8536
915 2 55.3304 59.5551 25.7274
916 2 59.3046 4.15783 25.6518
917 2 3.99805 4.14209 25.681
918 2 7.59375 4.05504 25.7017
919 2 11.7271 3.91255 25.6878
920 2 15.7197 4.11855 25.8326
921 2 19.6105 4.22341 25.7666
922 2 24.0004 4.241 25.8816
923 2 27.7099 4.21384 25.7573
924 2 31.6877 4.21636 25.7537
925 2 35.6823 4.08602 25.8378
926 2 39.4604 4.17092 25.7721
927 2 43.5977 4.05451 25.7372
928 2 47.4711 4.23208 25.6922
929 2 51.6212 4.18721 25.7013
930 2 55.3875 4.13008 25.8386
931 2 59.3365 8.05701 25.9313
932 2 3.97201 8.11888 25.5901
933 2 7.81038 8.18821 25.7647
934 2 11.6194 7.7719 25.5148
935 2 15.7052 7.88272 25.742
936 2 19.6363 8.0745 25.7332
937 2 23.5664 8.07254 25.8778
938 2 27.5617 8.02511 25.9673
939 2 31.6946 7.89854 25.7347
940 2 35.7067 8.11744 25.8812
941 2 39.3984 8.08244 25.7632
942 2 43.4835 8.06183 25.9853
943 2 47.4599 8.20493 25.9291
944 2 51.4333 7.95879 25.6576
945 2 55.4467 7.99849 25.7169
946 2 59.4237 12.0007 25.6027
947 2 3.95744 11.9467 25.7389
948 2 7.83508 11.8631 25.7575
949 2 11.7789 11.8454 25.7154
950 2 15.6894 11.8862 25.8278
951 2 19.5898 11.9231 25.767
952 2 23.6242 11.9465 25.8264
953 2 27.5782 11.9776 25.7846
954 2 31.7224 11.9197 25.9311
955 2 35.6512 12.1388 25.7563
956 2 39.5078 11.9576 25.8927
957 2 43.6434 12.0621 25.873
958 2 47.417 12.2454 25.7059
959 2 51.4826 12.0496 25.7882
960 2 55.2846 11.8457 25.6484
961 2 59.434 15.8519 25.781
962 2 4.14374 15.9237 25.8365
963 2 7.84214 15.8953 25.8249
964 2 11.7029 16.0369 25.713
965 2 15.7637 15.9052 25.7821
966 2 19.7222 16.0475 25.782
967 2 23.6315 16.1064 25.8092
968 2 27.594 15.8199 25.7317
969 2 31.7052 15.9079 25.815
970 2 35.581 15.8956 25.6911
971 2 39.6466 15.8351 25.758
972 2 43.6252 16.0256 25.7403
973 2 47.6017 15.9654 25.8318
974 2 51.2005 15.9647 25.6129
975 2 55.4524 15.919 25.7277
976 2 59.3594 19.8983 25.873
977 2 3.93811 19.7942 25.6752
978 2 8.06923 19.717 25.8855
979 2 11.8465 19.9054 25.5605
980 2 15.6712 19.9007 25.6227
981 2 19.6093 20.0182 25.8174
982 2 23.6027 20.0361 25.8871
983 2 27.4477 19.835 25.6568
984 2 31.4583 20.0032 25.8549
985 2 35.7542 20.0373 25.6346
986 2 39.5835 19.7645 25.9375
987 2 43.6415 20.0724 25.7996
988 2 47.4116 20.0607 25.8116
989 2 51.3745 19.8375 25.5814
990 2 55.3312 20.01 25.7316
991 2 59.5656 23.9181 25.8308
992 2 3.7934 23.6418 25.9062
993 2 7.93449 23.916 25.8176
994 2 12.0197 23.8823 25.8224
995 2 15.9923 23.9298 25.8637
996 2 19.7344 23.8643 25.783
997 2 23.8099 23.919 25.8083
998 2 27.6939 23.8066 25.6931