ITEM: TIMESTEP
1511200
ITEM: NUMBER OF ATOMS
16875
ITEM: BOX BOUNDS xy xz yz pp pp pp
0.0000000000000000e+00 5.9369999999999997e+01 0.0000000000000000e+00
0.0000000000000000e+00 5.9369999999999997e+01 0.0000000000000000e+00
3.3336513022868530e-01 6.0033053869774292e+01 0.0000000000000000e+00
ITEM: ATOMS id type x y z
1 2 59.5443 0.0407472 9.82343
2 2 4.17593 -0.125271 9.87117
3 2 7.88626 0.0648894 9.81778
4 2 11.8559 59.516 9.90781
5 2 15.855 -0.189613 10.0091
6 2 19.9516 0.126925 9.78206
7 2 23.8385 0.149794 9.78579
8 2 27.8772 0.145658 9.92598
9 2 31.6968 -0.146356 10.0516
10 2 35.7916 0.163001 9.79649
11 2 39.7539 0.174108 10.0464
12 2 43.7442 -0.0193349 9.89806
13 2 47.5523 0.0599102 9.74821
14 2 51.6482 -0.130152 9.74718
15 2 55.5913 -0.00228542 10.0458
16 2 59.539 3.97365 9.63385
17 2 4.13555 3.95721 9.86206
18 2 7.87568 3.95667 9.80415
19 2 11.8873 4.08438 9.90224
20 2 15.8388 4.04075 9.8563
21 2 19.7313 4.07814 9.84449
22 2 23.9383 4.06704 9.683
23 2 27.9909 3.76013 9.73582
24 2 31.6805 4.00725 9.84664
25 2 35.6232 3.96488 9.86085
26 2 39.8432 3.9833 9.95765
27 2 43.7217 3.98655 9.92638
28 2 47.6366 3.91592 10.0114
29 2 51.5939 4.0295 10.0811
30 2 55.6302 3.91193 10.1524
31 2 59.4874 7.94963 9.64015
32 2 4.10551 8.01358 9.81721
33 2 8.09978 8.11099 9.88511
34 2 12.03 7.90723 9.84203
35 2 15.8324 7.93847 9.95353
36 2 19.8211 7.87482 9.77107
37 2 24.005 8.18345 9.58944
38 2 27.7422 7.71779 9.81294
39 2 31.8279 8.14278 9.91569
40 2 35.6092 8.01826 9.88871
41 2 39.7083 7.94867 10.0564
42 2 43.8 7.92971 9.95543
43 2 47.611 8.00003 9.83097
44 2 51.5861 7.92927 9.8723
45 2 55.5059 7.87438 9.80497
46 2 0.0324493 11.9658 9.76876
47 2 4.17283 11.8657 9.8653
48 2 8.1386 12.0003 9.91703
49 2 11.8706 12.0537 9.95166
50 2 15.9084 11.7944 9.67381
51 2 19.8654 12.0397 9.74675
52 2 23.8076 11.9315 9.74609
53 2 27.6497 11.9037 9.7189
54 2 31.6402 12.1379 9.84573
55 2 35.8824 11.8878 9.771
56 2 39.6416 11.8556 9.84102
57 2 43.5614 11.7922 9.98609
58 2 47.6498 11.8387 9.74093
59 2 51.4719 11.9402 9.76747
60 2 55.3405 11.9508 9.86137
61 2 0.222417 15.9116 9.95718
62 2 4.04477 15.7372 9.94003
63 2 7.96122 15.7588 9.93918
64 2 12.1093 15.6716 9.61137
65 2 16.0073 16.066 9.71973
66 2 19.8399 15.9341 9.91558
67 2 23.7933 15.7954 9.92922
68 2 27.8377 15.8625 9.86996
69 2 31.7661 15.9598 9.92006
70 2 35.8745 15.9027 9.86507
71 2 39.6098 15.9744 9.96831
72 2 43.6793 15.8618 9.96923
73 2 47.5504 15.7379 9.99243
74 2 51.4388 15.8413 10.0866
75 2 55.73 16.108 9.68209
76 2 59.4143 19.8281 9.94903
77 2 4.01195 19.7181 10.0071
78 2 8.12007 19.7205 9.71137
79 2 12.0557 19.9205 9.7215
80 2 15.8097 19.74 9.83131
81 2 19.8741 19.884 9.88594
82 2 24.1077 19.7946 9.78925
83 2 27.9687 20.0396 9.79885
84 2 31.8674 19.776 9.71276
85 2 35.6196 20.0248 9.74339
86 2 39.5768 19.9779 9.83819
87 2 43.6659 19.769 9.91969
88 2 47.5335 19.6498 9.85234
89 2 51.4774 19.9722 9.66689
90 2 55.4899 20.0097 9.75338
91 2 59.5741 23.8106 9.78192
92 2 4.14915 23.6663 9.83163
93 2 8.03387 23.8956 9.59139
94 2 11.9117 23.6669 9.82853
95 2 16.0106 23.7785 9.66409
96 2 19.7723 23.7203 10.0279
97 2 23.9774 23.8879 9.85712
98 2 28.0325 23.8117 9.88864
99 2 31.6309 23.629 9.88251
100 2 35.5879 23.8299 9.7888
101 2 39.6967 23.7513 9.80163
102 2 43.6619 23.7252 9.84621
103 2 47.6487 23.8866 10.0622
104 2 51.572 23.8194 9.93863
105 2 55.5289 23.928 9.90577
106 2 0.215672 27.6454 9.78222
107 2 4.22305 27.6527 9.96334
108 2 8.08223 27.6701 9.87808
109 2 12.0719 27.7992 9.74756
110 2 16.0134 27.6332 9.80949
111 2 20.0704 27.5961 10.075
112 2 23.9366 27.7982 9.90751
113 2 27.9282 27.8209 9.85518
114 2 31.8706 27.9946 9.9172
115 2 35.7184 27.692 9.94704
116 2 39.7261 27.9287 9.78806
117 2 43.6878 27.761 9.90108
118 2 47.6819 27.99 9.69209
119 2 51.7585 27.7764 9.6884
120 2 55.4247 27.8601 9.89896
121 2 -0.13606 31.6272 9.75753
122 2 4.17723 31.8312 9.9401
123 2 8.16368 31.7333 10.0038
124 2 12.0301 31.8185 9.99994
125 2 15.8186 31.6864 9.81651
126 2 19.8949 31.7428 9.87475
127 2 23.7465 31.6507 9.86663
128 2 27.6477 31.7296 9.75036
129 2 31.4902 31.7783 9.74173
130 2 35.8163 31.8229 9.76665
131 2 39.8164 31.8091 9.82829
132 2 43.7562 31.9763 9.91695
133 2 47.7198 31.7515 9.79902
134 2 51.7007 31.7025 9.83661
135 2 55.5422 31.673 9.77303
136 2 59.5139 35.6292 9.95113
137 2 4.27826 35.6517 9.86788
138 2 8.14632 35.7335 9.91918
139 2 12.1735 35.5179 9.82702
140 2 16.0272 35.8342 9.88256
141 2 19.9239 35.4619 9.89837
142 2 23.8131 35.62 9.84206
143 2 27.8497 35.5914 9.78501
144 2 31.7551 35.8618 9.88794
145 2 35.816 35.8629 9.94522
146 2 39.7088 35.7459 9.88185
147 2 43.6349 35.8606 9.82934
148 2 47.8659 35.7144 9.71846
149 2 51.8243 35.5256 9.74864
150 2 55.7002 35.5137 9.82147
151 2 59.5562 39.6892 9.92268
152 2 4.21399 39.7344 9.91438
153 2 8.08392 39.5285 9.96145
154 2 11.8466 39.5116 9.79471
155 2 15.8671 39.6188 9.90996
156 2 19.7106 39.3931 10.0076
157 2 24.0639 39.5886 9.82478
158 2 27.7939 39.4879 9.94111
159 2 31.8403 39.6526 9.9363
160 2 35.668 39.6684 9.85257
161 2 39.655 39.7352 9.83434
162 2 43.8224 39.725 9.92112
163 2 47.5757 39.642 9.86785
164 2 51.548 39.6484 9.8069
165 2 55.6054 39.712 9.93328
166 2 59.7238 43.6288 9.87249
167 2 4.07546 43.7379 9.81766
168 2 7.9546 43.4255 9.82053
169 2 12.1688 43.3814 9.77232
170 2 15.9502 43.4751 9.88589
171 2 19.9042 43.4001 9.90247
172 2 23.908 43.4654 9.77794
173 2 27.6784 43.4962 10.0257
174 2 31.9577 43.5094 10.0314
175 2 35.9833 43.5227 9.80535
176 2 39.8015 43.5685 9.89577
177 2 43.8234 43.5408 9.82983
178 2 47.6964 43.6783 10.0274
179 2 51.731 43.4549 9.5196
180 2 55.5407 43.4916 9.96107
181 2 59.4363 47.6821 9.73829
182 2 4.06476 47.6059 9.82061
183 2 8.01928 47.3853 9.89766
184 2 11.9179 47.4653 9.78471
185 2 16.0859 47.4165 9.71979
186 2 20.0841 47.4653 9.62624
187 2 23.8871 47.5813 9.9366
188 2 27.8752 47.2641 9.90509
189 2 32.0488 47.6025 9.99107
190 2 35.6392 47.4101 9.89591
191 2 39.5882 47.7108 9.88768
192 2 43.5376 47.5027 10.069
193 2 47.6465 47.6724 9.84609
194 2 51.5593 47.5697 9.99227
195 2 55.6342 47.459 9.85287
196 2 0.272659 51.7724 9.78058
197 2 4.03584 51.6196 9.9867
198 2 8.14389 51.467 10.0027
199 2 11.9114 51.5295 9.88554
200 2 16.1001 51.1877 9.77439
201 2 19.8593 51.364 10.0748
202 2 23.8112 51.4882 9.84875
203 2 27.8626 51.4716 9.88507
204 2 31.6245 51.5018 9.93158
205 2 35.7605 51.5339 9.98941
206 2 39.7424 51.452 9.99346
207 2 43.6644 51.5254 9.92154
208 2 47.6974 51.5769 9.66786
209 2 51.6803 51.4647 9.80492
210 2 55.7311 51.4435 9.96786
211 2 59.4569 55.5666 10.008
212 2 4.07491 55.2254 9.9964
213 2 7.96943 55.2467 10.1316
214 2 11.7699 55.5175 10.0896
215 2 16.0091 55.4202 9.82931
216 2 19.8251 55.4864 9.7648
217 2 23.7003 55.6457 9.8024
218 2 27.7365 55.4448 9.80123
219 2 31.9745 55.3365 9.88631
220 2 35.7489 55.5259 9.73387
221 2 39.8279 55.4734 10.0941
222 2 43.7167 55.4139 9.93955
223 2 47.8158 55.2115 9.79671
224 2 51.7704 55.3395 9.8032
225 2 55.5455 55.4334 9.82545
226 2 59.4623 0.00760656 13.8821
227 2 3.95705 0.202405 13.7321
228 2 7.78709 0.0179649 13.8153
229 2 12.0466 59.4607 13.8951
230 2 15.8222 0.0491302 13.9435
231 2 19.7376 0.307882 13.7032
232 2 23.6665 0.129514 13.7795
233 2 27.7382 0.137891 13.9329
234 2 31.6676 -0.108943 13.9423
235 2 35.8117 59.5318 13.9165
236 2 39.7216 0.0835715 14.0273
237 2 43.5847 0.222577 14.1767
238 2 47.4953 59.3634 13.7735
239 2 51.531 -0.0104983 13.8882
240 2 55.6567 0.0151671 14.0286
241 2 59.6394 3.84117 13.8198
242 2 3.96352 3.76878 13.8852
243 2 7.99617 4.15288 13.9718
244 2 11.8199 3.71105 13.6204
245 2 15.959 4.06624 14.0407
246 2 19.9081 4.11813 13.7318
247 2 23.7794 4.26741 13.5556
248 2 27.992 4.04606 13.7931
249 2 31.897 3.95523 13.6436
250 2 35.767 3.96434 13.9209
251 2 39.6589 4.21976 13.857
252 2 43.7169 4.0317 13.9726
253 2 47.7528 3.90515 13.8216
254 2 51.7291 4.10344 13.7869
255 2 55.5327 4.05943 13.718
256 2 59.4732 8.07935 13.5443
257 2 3.90515 7.84567 13.8542
258 2 8.09463 7.94308 13.8061
259 2 12.0655 7.94045 13.8217
260 2 16.1091 7.90865 13.6353
261 2 20.0321 8.13964 13.8463
262 2 23.9882 8.19639 13.7257
263 2 27.9173 7.76855 13.6923
264 2 31.8756 7.8865 13.8207
265 2 35.6979 8.04946 13.8924
266 2 39.76 8.02201 13.8969
267 2 43.7361 7.82036 14.1425
268 2 47.7267 7.95704 13.8971
269 2 51.6043 8.1116 13.7135
270 2 55.6335 7.82657 13.7466
271 2 0.0053694 11.9328 13.6059
272 2 4.28252 11.8721 13.9241
273 2 8.14345 11.9283 13.9146
274 2 12.0128 11.9156 13.9059
275 2 15.9681 11.8765 13.6362
276 2 19.9343 11.977 13.8693
277 2 23.701 12.0573 13.7539
278 2 27.8923 11.8499 13.9323
279 2 31.8553 11.8774 13.659
280 2 35.7736 11.8641 13.9964
281 2 39.7477 12.0757 13.8552
282 2 43.6696 11.9933 13.8405
283 2 47.6354 11.9918 13.9299
284 2 51.727 12.0732 13.8555
285 2 55.5258 12.0932 13.691
286 2 59.4719 15.9419 13.8968
287 2 3.9943 15.7804 13.9161
288 2 8.06046 15.9795 13.82
289 2 12.0425 15.9148 13.7093
290 2 15.8885 15.7855 13.6355
291 2 19.9444 16.0067 13.8476
292 2 23.7181 15.94 13.8561
293 2 27.7975 15.9388 13.7672
294 2 31.7782 15.8205 13.8278
295 2 35.8831 15.9426 13.9334
296 2 39.7095 15.9023 13.8508
297 2 43.7343 15.9699 14.0111
298 2 47.614 15.8422 13.8742
299 2 51.519 15.8141 13.8662
300 2 55.4882 15.979 13.6145
301 2 59.583 19.8741 13.7589
302 2 4.15586 19.9605 13.8446
303 2 8.04456 19.6952 13.7869
304 2 11.8443 19.8068 13.7623
305 2 15.7332 19.7891 13.8957
306 2 19.8289 19.8797 13.8851
307 2 23.6497 19.9521 13.8066
308 2 27.8793 19.9764 13.9319
309 2 31.8222 19.8013 13.8098
310 2 35.7957 20.0922 13.7754
311 2 39.6297 19.6127 13.8
312 2 43.5394 20.0278 13.9309
313 2 47.7168 19.9279 13.7227
314 2 51.5425 19.8597 14.0567
315 2 55.5344 19.8568 13.8366
316 2 59.4393 23.7293 13.7215
317 2 4.18237 23.8589 13.8839
318 2 8.07481 23.7297 13.687
319 2 11.8379 23.8099 13.8088
320 2 15.9464 23.7705 13.9254
321 2 19.9512 23.6335 13.872
322 2 23.8615 23.7416 13.9116
323 2 27.6569 24.037 13.7504
324 2 31.8372 23.7451 13.824
325 2 35.8875 23.8634 13.7228
326 2 39.8491 23.8497 13.7815
327 2 43.5871 24.0353 13.6736
328 2 47.5688 24.0176 13.7534
329 2 51.6692 23.7238 13.7468
330 2 55.5755 23.6289 13.8862
331 2 0.235287 27.9611 13.6464
332 2 3.9702 27.8945 13.8719
333 2 7.82695 27.7393 13.7439
334 2 11.9074 27.678 13.8924
335 2 15.9036 27.8036 13.9291
336 2 19.9596 27.6376 13.8585
337 2 23.8816 27.8361 13.987
338 2 27.9286 27.7864 13.9436
339 2 31.7938 27.7105 14.0471
340 2 35.7911 27.7524 13.8163
341 2 39.7761 27.9423 13.7584
342 2 43.7172 27.767 13.9857
343 2 47.4553 27.7077 13.8147
344 2 51.4978 27.8564 13.7783
345 2 55.4751 27.8018 13.8615
346 2 59.5526 31.9435 13.9757
347 2 4.09149 31.6931 13.8685
348 2 7.99832 31.7843 13.8851
349 2 12.0553 31.5239 13.7449
350 2 15.9709 31.6563 13.8825
351 2 19.869 31.7746 13.7873
352 2 23.8471 31.6166 13.8731
353 2 27.9588 31.7801 13.6448
354 2 31.9468 31.7789 13.6947
355 2 35.5936 31.7156 13.8841
356 2 39.7548 31.7814 13.8891
357 2 43.7537 32.0225 13.7459
358 2 47.4947 31.6949 13.7534
359 2 51.6384 31.7482 13.7426
360 2 55.4614 31.7622 13.6744
361 2 0.11488 35.7373 13.8024
362 2 3.95291 35.7793 13.7018
363 2 8.03423 35.6761 13.9978
364 2 12.2252 35.6318 13.9318
365 2 15.8388 35.5787 13.8097
366 2 19.7917 35.6377 13.948
367 2 23.8675 35.5119 13.806
368 2 27.9448 35.7789 13.8286
369 2 31.933 35.5138 13.7327
370 2 35.6556 35.8809 13.8058
371 2 39.7983 35.7503 13.8203
372 2 43.6846 35.7264 13.8253
373 2 47.6378 35.5164 13.8749
374 2 51.7124 35.7946 13.7758
375 2 55.4697 35.9006 13.8427
376 2 59.5426 39.6208 13.7322
377 2 3.90337 39.6116 13.742
378 2 8.14573 39.5477 13.981
379 2 11.875 39.5693 13.9832
380 2 15.8271 39.4996 13.7515
381 2 19.8805 39.5201 13.9189
382 2 23.7398 39.769 13.9576
383 2 27.8004 39.6798 13.7305
384 2 31.6348 39.491 14.0056
385 2 35.742 39.63 13.8077
386 2 39.6681 39.7257 13.9422
387 2 43.7811 39.5761 13.8995
388 2 47.8753 39.7164 13.9086
389 2 51.644 39.7601 13.951
390 2 55.2911 39.568 13.7787
391 2 0.1885 43.7439 13.9001
392 2 4.25831 43.6104 13.8555
393 2 8.02475 43.5173 13.816
394 2 11.9886 43.557 13.9664
395 2 15.8005 43.3804 13.9234
396 2 19.7685 43.6642 14.0036
397 2 23.7987 43.7285 13.7259
398 2 27.8807 43.6173 13.8511
399 2 31.9028 43.4156 13.9478
400 2 35.5898 43.5029 13.9425
401 2 39.671 43.6226 13.9317
402 2 43.4546 43.6829 13.8381
403 2 47.6724 43.7491 13.8244
404 2 51.4871 43.722 13.585
405 2 55.619 43.5789 13.8054
406 2 59.5506 47.5547 13.7258
407 2 4.24451 47.6133 13.7055
408 2 8.12114 47.5039 13.8221
409 2 12.1355 47.4051 13.8482
410 2 15.8257 47.5165 13.8622
411 2 19.8785 47.5766 13.9354
412 2 23.9352 47.4566 13.725
413 2 27.9211 47.4237 13.8422
414 2 31.7098 47.5415 13.996
415 2 35.7216 47.5304 13.7491
416 2 39.7727 47.5858 13.9414
417 2 43.5359 47.6585 13.9849
418 2 47.5286 47.4192 14.0612
419 2 51.7794 47.5177 13.7156
420 2 55.4519 47.5935 13.7915
421 2 59.576 51.2566 13.7258
422 2 3.97502 51.3319 13.9254
423 2 7.88247 51.4568 13.898
424 2 11.9135 51.5726 13.7628
425 2 15.7245 51.4662 13.7608
426 2 19.6688 51.6047 13.6241
427 2 23.612 51.2834 13.7881
428 2 27.5365 51.4848 13.8318
429 2 31.7098 51.39 14.0126
430 2 35.7359 51.6302 13.9488
431 2 39.645 51.4766 14.0036
432 2 43.7429 51.5888 13.9799
433 2 47.7811 51.2616 13.4784
434 2 51.6614 51.3665 14.0675
435 2 55.461 51.3707 14.128
436 2 59.4238 55.2647 13.8748
437 2 3.95488 55.5255 13.9689
438 2 7.8959 55.4612 13.9754
439 2 11.7758 55.3825 13.9879
440 2 15.9648 55.5251 13.9393
441 2 19.8834 55.3981 13.7204
442 2 23.7192 55.6442 13.8492
443 2 27.5305 55.5874 13.8118
444 2 31.5378 55.4979 13.7321
445 2 35.7852 55.4469 13.8801
446 2 39.7302 55.5456 13.9817
447 2 43.9113 55.4153 13.8719
448 2 47.6999 55.4697 13.8312
449 2 51.511 55.3889 14.0548
450 2 55.4077 55.3216 13.9885
451 2 59.4466 0.108362 17.918
452 2 4.0388 0.196949 17.8262
453 2 8.13885 59.3993 17.9158
454 2 11.9347 0.0150052 17.7905
455 2 15.7766 0.206024 17.7411
456 2 19.7718 0.232978 17.7682
457 2 23.6245 0.0112086 17.576
458 2 27.623 0.23189 17.7739
459 2 31.7394 0.196721 17.8671
460 2 35.5545 0.220648 17.7391
461 2 39.8338 -0.0645772 17.8931
462 2 43.6538 59.4732 17.9077
463 2 47.6229 0.000661069 17.8685
464 2 51.5992 0.0874531 17.9255
465 2 55.5227 0.00978253 17.8398
466 2 59.5144 4.05853 17.872
467 2 4.07366 4.0879 17.4949
468 2 7.95475 4.20041 17.8359
469 2 11.8236 4.07141 17.8946
470 2 15.7325 4.11633 18.0011
471 2 19.7163 4.06366 17.735
472 2 23.7091 4.18569 17.8793
473 2 27.6454 4.1642 17.7949
474 2 31.7077 4.00285 17.772
475 2 35.6568 3.93088 17.799
476 2 39.5201 3.93209 17.9841
477 2 43.622 4.05945 17.8674
478 2 47.6348 3.90205 17.9723
479 2 51.6651 4.01929 17.6949
480 2 55.6419 4.13867 17.7918
481 2 59.482 8.12927 17.7962
482 2 4.01785 8.14959 17.7838
483 2 8.01457 8.08461 17.7323
484 2 11.8371 7.94404 17.8141
485 2 15.9502 8.00302 17.5075
486 2 19.7836 8.22999 17.7992
487 2 23.7876 8.09189 17.8238
488 2 27.6892 7.92244 17.7206
489 2 31.8759 7.92682 17.8032
490 2 35.7365 7.96157 17.7618
491 2 39.6123 7.99419 17.8208
492 2 43.7412 7.94717 18.0078
493 2 47.5411 8.06337 17.6935
494 2 51.796 7.91887 17.783
495 2 55.6112 7.91654 17.7748
496 2 59.3801 11.9675 17.5175
497 2 4.03117 12.1477 17.8353
498 2 7.91712 11.7441 17.9098
499 2 11.9877 11.8735 17.8338
500 2 15.7153 12.0564 17.7908
501 2 19.7387 12.0097 17.7557
502 2 23.8535 12.1168 17.7154
503 2 27.9364 11.8805 17.8513
504 2 31.6785 11.9761 17.8403
505 2 35.7376 11.8371 17.7796
506 2 39.5617 11.859 17.903
507 2 43.7013 11.7268 17.689
508 2 47.657 11.9884 17.9452
509 2 51.5502 11.8197 17.6999
510 2 55.5909 11.913 17.7518
511 2 59.6508 16.0348 17.609
512 2 3.97486 15.8747 17.8433
513 2 7.94153 15.7647 17.8351
514 2 11.7947 15.7994 17.9235
515 2 15.8324 15.9798 17.8382
516 2 19.9059 15.9106 17.8648
517 2 23.9263 16.036 17.7516
518 2 27.9309 15.9275 17.7021
519 2 31.6236 15.8883 17.7877
520 2 35.5795 16.0523 17.7984
521 2 39.7799 15.8146 18.0322
522 2 43.6312 16.0119 17.9835
523 2 47.5931 15.8851 17.8332
524 2 51.4949 15.8955 17.8751
525 2 55.4993 15.8962 17.8712
526 2 0.160749 19.9061 17.831
527 2 4.03627 19.9072 17.5282
528 2 8.08686 19.7726 17.8582
529 2 12.0628 19.8838 17.8643
530 2 15.7968 19.8887 17.938
531 2 19.783 19.7676 17.8904
532 2 23.8948 19.9509 17.849
533 2 27.7909 20.0321 17.7274
534 2 31.9812 19.8613 17.6943
535 2 35.8234 19.977 17.7784
536 2 39.4705 19.8868 17.8595
537 2 43.5576 20.0785 17.7314
538 2 47.574 20.0247 17.7193
539 2 51.5331 19.9148 17.803
540 2 55.5766 19.8237 17.8885
541 2 59.4943 23.9423 17.6551
542 2 3.99427 23.7649 17.7543
543 2 7.94423 23.696 17.8224
544 2 11.8748 24.0952 17.6634
545 2 15.9064 23.8848 17.9591
546 2 19.9193 23.7443 17.8749
547 2 23.8252 23.6767 17.8679
548 2 27.7337 23.7194 17.7629
549 2 31.8148 23.8136 17.7221
550 2 35.7419 23.7007 17.6831
551 2 39.7408 23.7646 17.8383
552 2 43.4318 24.035 17.7394
553 2 47.5884 23.6468 17.6253
554 2 51.5916 23.9825 17.8123
555 2 55.5529 23.9037 17.925
556 2 59.3531 27.9619 17.8251
557 2 4.02862 27.766 17.7614
558 2 8.1172 27.7649 17.8656
559 2 12.0733 27.7644 17.9074
560 2 15.9931 27.7947 17.9269
561 2 20.0497 27.7034 17.9314
562 2 23.818 27.8048 17.8963
563 2 27.7328 27.7233 17.7614
564 2 31.7464 27.7425 17.8679
565 2 35.4757 27.7244 17.7198
566 2 39.5881 27.9343 18.0103
567 2 43.8093 27.8594 17.6311
568 2 47.6221 27.8491 17.7492
569 2 51.5841 27.8409 17.8955
570 2 55.608 27.7106 17.7659
571 2 59.4924 31.7635 17.7891
572 2 4.01518 31.7175 18.0409
573 2 8.18165 31.9056 17.7029
574 2 11.969 31.7907 17.8589
575 2 16.0242 31.7377 17.6577
576 2 19.8277 31.6821 17.713
577 2 23.9126 31.8521 17.7965
578 2 27.7396 31.7208 17.6919
579 2 31.5295 31.5919 17.9481
580 2 35.7497 31.9055 17.8977
581 2 39.5114 31.648 17.7977
582 2 43.5777 31.7593 17.7874
583 2 47.5878 31.7913 17.5719
584 2 51.4766 31.6619 17.6939
585 2 55.37 31.6225 17.8259
586 2 59.3731 36.0269 17.5908
587 2 4.0485 35.5848 17.863
588 2 7.97727 35.5547 17.8694
589 2 11.8331 35.7637 17.8355
590 2 15.9448 35.6433 17.9279
591 2 19.7794 35.7988 17.9681
592 2 23.881 35.6785 17.9519
593 2 27.6081 35.6574 17.8097
594 2 31.8743 35.8508 17.8489
595 2 35.8829 35.5857 17.8773
596 2 39.6927 35.6736 17.9833
597 2 43.7161 36.0229 17.7867
598 2 47.7382 35.7735 17.8892
599 2 51.5826 35.5792 17.8167
600 2 55.6645 35.6191 17.905
601 2 59.4862 39.9066 17.8739
602 2 3.9877 39.6857 17.5713
603 2 8.17829 39.486 18.0193
604 2 12.1514 39.6629 17.9082
605 2 15.9171 39.6108 17.9444
606 2 19.8718 39.7033 17.8529
607 2 23.7575 39.7505 17.6385
608 2 27.8247 39.6397 17.8005
609 2 31.6155 39.7076 17.8671
610 2 35.969 39.4769 17.8745
611 2 39.6576 39.6226 17.8824
612 2 43.6483 39.8402 17.7786
613 2 47.6722 39.7709 17.7846
614 2 51.5959 39.6512 17.9734
615 2 55.5362 39.6766 17.8615
616 2 59.2725 43.7365 17.862
617 2 3.85547 43.7421 17.8401
618 2 8.07729 43.5304 17.9434
619 2 11.8614 43.6277 17.8733
620 2 15.8218 43.5135 18.0419
621 2 19.7481 43.7816 17.7772
622 2 23.895 43.6743 17.8084
623 2 27.8139 43.5286 18.0424
624 2 31.7781 43.5918 17.9798
625 2 35.6147 43.5992 17.9385
626 2 39.6076 43.7459 17.8294
627 2 43.5005 43.8742 17.8984
628 2 47.6748 43.6475 17.7711
629 2 51.6862 43.4782 17.851
630 2 55.4242 43.6734 17.9629
631 2 -0.0258634 47.641 17.8133
632 2 3.98843 47.7026 18.0074
633 2 8.23957 47.7221 17.8084
634 2 11.8973 47.5735 17.9387
635 2 16.0193 47.6174 17.8085
636 2 19.7514 47.4402 17.828
637 2 23.9901 47.6295 17.773
638 2 27.8496 47.3977 17.8783
639 2 31.886 47.6784 17.8715
640 2 35.747 47.6863 17.7336
641 2 39.4967 47.745 17.7467
642 2 43.6559 47.6649 17.9279
643 2 47.5591 47.4985 17.7813
644 2 51.5151 47.4019 18.0024
645 2 55.6058 47.5366 17.8788
646 2 59.5358 51.5456 18.0045
647 2 3.9099 51.5511 17.9321
648 2 7.93154 51.4726 17.9368
649 2 11.8932 51.6742 17.9224
650 2 15.8424 51.5607 17.7441
651 2 19.9923 51.5624 17.7212
652 2 23.7421 51.7464 17.7388
653 2 27.5714 51.544 17.6763
654 2 31.6575 51.5692 17.8776
655 2 35.792 51.6744 17.9445
656 2 39.7118 51.6673 17.893
657 2 43.7686 51.4225 17.9031
658 2 47.7868 51.3578 17.7163
659 2 51.6637 51.3496 18.0009
660 2 55.6928 51.4838 17.9877
661 2 59.5101 55.583 17.8992
662 2 3.99423 55.6802 17.7756
663 2 7.93028 55.7519 17.8219
664 2 11.9944 55.5387 17.8304
665 2 15.9262 55.6558 17.8172
666 2 19.7983 55.3882 17.9427
667 2 23.8095 55.6356 17.8744
668 2 27.5869 55.5484 17.663
669 2 31.4826 55.5357 17.7765
670 2 35.5195 55.6132 17.84
671 2 39.723 55.32 17.8621
672 2 43.9127 55.3991 17.8709
673 2 47.8656 55.44 17.8344
674 2 51.589 55.4922 17.9867
675 2 55.6333 55.4744 18.1034
676 2 -0.0542656 0.22735 21.8738
677 2 3.97822 0.309119 21.7308
678 2 7.90964 0.197995 21.9708
679 2 11.8477 0.165556 22.0024
680 2 15.8857 0.169471 21.8108
681 2 19.8815 59.5449 21.5483
682 2 23.748 59.4694 21.8864
683 2 27.7118 59.5224 21.6633
684 2 31.4953 -0.0618415 21.7737
685 2 35.5937 59.3105 21.8726
686 2 39.6476 59.6347 21.8855
687 2 43.5598 59.4805 21.8278
688 2 47.4917 59.4734 21.8333
689 2 51.6898 0.271023 21.8432
690 2 55.4868 -0.101881 21.9148
691 2 59.322 3.97803 21.6496
692 2 3.87236 4.09076 21.455
693 2 7.77303 4.09554 21.6555
694 2 11.9394 4.24253 21.9806
695 2 15.8527 4.00635 21.9196
696 2 19.7499 3.94242 21.8275
697 2 23.6522 3.99321 21.8795
698 2 27.6723 3.91094 21.7062
699 2 31.7829 4.08932 21.781
700 2 35.6719 3.89005 21.993
701 2 39.5234 4.02968 21.8741
702 2 43.6274 4.12633 22.0337
703 2 47.4716 4.14659 21.9533
704 2 51.4442 3.96932 21.7707
705 2 55.4917 3.9507 21.8535
706 2 59.4383 8.07374 21.767
707 2 3.85592 7.82194 21.7571
708 2 7.97955 7.90041 21.8695
709 2 12.0139 8.13541 21.7245
710 2 16.0224 8.07929 21.7308
711 2 19.9291 8.07653 21.7083
712 2 23.8201 7.96819 21.7618
713 2 27.6741 7.75861 21.803
714 2 31.8633 8.06096 21.678
715 2 35.6452 8.12066 21.8326
716 2 39.5752 7.83103 21.8196
717 2 43.7102 8.05619 21.7797
718 2 47.5271 7.93799 21.789
719 2 51.5545 8.15663 21.6174
720 2 55.4128 8.04625 21.7249
721 2 59.4937 11.9687 21.6113
722 2 4.0714 11.9797 21.8265
723 2 7.94138 11.767 21.8644
724 2 11.8576 12.0593 21.6967
725 2 15.9529 11.9792 21.6746
726 2 19.7799 12.0712 21.5828
727 2 23.9604 12.1748 21.6931
728 2 27.8372 11.8459 21.581
729 2 31.6266 12.0351 21.7558
730 2 35.6456 11.9783 21.7445
731 2 39.6525 11.9894 21.6999
732 2 43.5109 11.9196 21.6355
733 2 47.5328 11.9243 21.8213
734 2 51.4126 11.7299 21.6004
735 2 55.374 12.218 21.6724
736 2 0.0725064 16.0434 21.8733
737 2 4.0277 15.8325 21.9368
738 2 7.69239 15.9442 21.7676
739 2 11.6859 15.9123 21.9259
740 2 15.7337 15.9126 22.0044
741 2 19.8723 15.883 21.8913
742 2 23.803 16.1145 21.6956
743 2 27.7214 16.0371 21.594
744 2 31.4751 15.8803 21.6774
745 2 35.5808 15.8725 21.8805
746 2 39.7742 16.0874 21.7049
747 2 43.5142 15.8935 21.8039
748 2 47.4393 16.0448 21.6926
749 2 51.5478 15.7492 21.791
750 2 55.5569 15.8649 21.778
751 2 59.3025 19.8322 21.8291
752 2 3.93282 19.9147 21.7761
753 2 7.82494 19.9182 21.6007
754 2 11.7068 19.9149 21.8057
755 2 15.5931 19.887 21.7276
756 2 19.6518 19.9212 21.7789
757 2 23.8464 19.8726 21.8474
758 2 27.6905 20.0673 21.7332
759 2 31.4863 19.9311 21.7569
760 2 35.5695 19.8672 21.8224
761 2 39.5889 19.7757 21.8753
762 2 43.5796 20.0257 21.7247
763 2 47.6141 19.882 21.7423
764 2 51.3255 19.8232 21.8097
765 2 55.356 20.0612 21.7845
766 2 59.3471 23.8893 21.8305
767 2 4.0203 23.9343 21.6774
768 2 8.04572 23.7617 21.9691
769 2 11.9396 23.8417 21.8515
770 2 16.0005 23.9099 21.8307
771 2 19.7663 23.7027 21.8977
772 2 23.8778 23.7692 21.8683
773 2 27.7924 23.7458 21.7685
774 2 31.6306 23.8194 21.9357
775 2 35.747 23.8557 21.6894
776 2 39.6092 23.9615 21.7058
777 2 43.6088 24.0713 21.702
778 2 47.2794 23.8091 21.7527
779 2 51.5164 23.8201 21.8469
780 2 55.4848 23.7064 22.018
781 2 59.2894 27.7389 21.6817
782 2 4.0814 27.971 21.7438
783 2 8.03157 27.9349 21.7263
784 2 12.0862 27.6204 21.7248
785 2 16.0422 27.8316 21.8306
786 2 19.8666 27.7143 21.839
787 2 23.7564 27.6719 21.6967
788 2 27.6217 27.5487 21.7787
789 2 31.8519 27.6906 21.7736
790 2 35.4911 27.7965 21.9209
791 2 39.4662 27.8921 21.9051
792 2 43.5926 27.717 21.7554
793 2 47.5876 27.6738 21.6783
794 2 51.4415 27.7103 21.5398
795 2 55.3582 27.7205 21.7633
796 2 59.421 31.7838 21.7122
797 2 4.03641 31.6315 21.8965
798 2 8.13285 31.6265 21.8427
799 2 12.0013 31.5937 21.7553
800 2 15.8877 31.7641 21.8843
801 2 19.722 31.6885 21.8753
802 2 23.7284 31.8071 21.8389
803 2 27.7583 31.4601 21.7171
804 2 31.4022 31.7769 21.5599
805 2 35.4318 31.7056 21.9315
806 2 39.5941 31.7235 21.9024
807 2 43.5443 32.0102 21.8321
808 2 47.584 31.4681 21.8433
809 2 51.4321 31.7212 21.6813
810 2 55.3902 31.941 22.0441
811 2 0.0755224 35.7488 21.8561
812 2 4.10184 35.8535 21.8774
813 2 8.09996 35.6688 21.7607
814 2 11.8964 35.6607 22.0201
815 2 15.9225 35.5157 21.9504
816 2 19.7566 35.7045 21.967
817 2 23.536 35.6148 21.746
818 2 27.6688 35.6357 21.7585
819 2 31.6063 35.8058 21.7199
820 2 35.6987 35.5266 21.896
821 2 39.711 35.5853 21.8555
822 2 43.8497 35.7095 21.4006
823 2 47.4758 35.639 21.8531
824 2 51.5521 35.6243 21.7453
825 2 55.4626 35.8196 21.8092
826 2 0.0144321 39.7276 21.8728
827 2 3.91221 39.5351 21.7495
828 2 7.83403 39.7831 21.825
829 2 11.8127 39.6458 21.9366
830 2 16.024 39.6087 21.9894
831 2 19.8905 39.6282 21.7652
832 2 23.8126 39.655 21.8574
833 2 27.6356 39.6219 21.8708
834 2 31.6172 39.7596 21.7872
835 2 35.47 39.6725 21.8494
836 2 39.6225 39.7552 21.7426
837 2 43.649 39.6487 21.7084
838 2 47.6177 39.8798 21.8875
839 2 51.4642 39.5593 21.9197
840 2 55.4704 39.5947 21.9616
841 2 59.4691 43.6505 21.9656
842 2 4.03055 43.6255 22.0065
843 2 7.92987 43.5586 21.9653
844 2 11.8856 43.4993 21.8166
845 2 16.0495 43.6565 21.8297
846 2 19.8319 43.7893 21.5376
847 2 23.6523 43.6554 21.9366
848 2 27.6602 43.6823 21.7295
849 2 31.653 43.8002 21.7501
850 2 35.5282 43.8232 21.7456
851 2 39.5595 43.5788 21.8908
852 2 43.4625 43.7701 21.8829
853 2 47.424 43.607 21.7824
854 2 51.5831 43.5101 21.9288
855 2 55.4381 43.6127 21.9426
856 2 -0.0184154 47.6066 21.8394
857 2 4.10035 47.6569 21.9279
858 2 7.84622 47.4588 21.9543
859 2 11.7861 47.7288 21.8351
860 2 15.8312 47.6342 21.7058
861 2 19.9118 47.6001 21.8692
862 2 23.6559 47.5733 21.6388
863 2 27.544 47.5036 21.8055
864 2 31.7237 47.6223 21.8433
865 2 35.6512 47.6563 21.8248
866 2 39.4748 47.6982 21.7953
867 2 43.3378 47.6487 21.7464
868 2 47.6375 47.4856 21.9359
869 2 51.4113 47.5208 21.9604
870 2 55.412 47.6401 21.8621
871 2 59.5242 51.5413 21.7526
872 2 4.16061 51.5545 21.8423
873 2 8.13243 51.6757 21.7858
874 2 12.1742 51.5929 21.6811
875 2 16.0054 51.5415 21.6873
876 2 19.7715 51.6762 21.863
877 2 23.5784 51.7575 21.7836
878 2 27.8256 51.5682 21.8354
879 2 31.5586 51.3995 21.8195
880 2 35.5482 51.6313 21.8915
881 2 39.7554 51.8308 21.858
882 2 43.5829 51.6928 21.9192
883 2 47.438 51.5976 21.8454
884 2 51.3118 51.3546 21.7165
885 2 55.2817 51.5787 21.8087
886 2 59.3464 55.5542 21.8734
887 2 3.96738 55.5274 21.7606
888 2 7.833 55.5946 21.6649
889 2 11.8113 55.5869 21.9156
890 2 15.7101 55.6179 21.8102
891 2 19.6523 55.5525 21.7828
892 2 23.6873 55.5082 21.9308
893 2 27.6493 55.3612 21.7783
894 2 31.5176 55.3985 21.5901
895 2 35.5488 55.6014 21.6369
896 2 39.3949 55.684 21.6981
897 2 43.6187 55.5594 21.743
898 2 47.6577 55.3193 21.6961
899 2 51.3734 55.4302 21.8893
900 2 55.4191 55.3274 21.8716
901 2 59.3224 -0.0651259 25.8136
902 2 3.93525 59.5766 25.7316
903 2 7.75616 0.0654877 25.8739
904 2 11.6671 -0.0103341 25.8133
905 2 15.8324 59.5679 25.9154
906 2 19.6959 0.120607 25.8531
907 2 23.5984 -0.179587 25.7825
908 2 27.6534 0.00741809 25.8234
909 2 31.5708 59.4301 25.7063
910 2 35.55 0.207382 25.7613
911 2 39.4177 0.116639 25.9134
912 2 43.5052 0.0752233 25.8216
913 2 47.3022 0.250326 25.6889
914 2 51.2425 0.110926 25.7322
915 2 55.4073 59.4551 25.835
916 2 59.3118 3.98444 25.9042
917 2 3.92025 4.22987 25.7515
918 2 7.74826 4.08656 25.8287
919 2 11.9201 4.00546 25.5542
920 2 15.815 4.09143 25.8084
921 2 19.683 4.22422 25.8599
922 2 23.659 3.97006 25.8445
923 2 27.6071 4.03555 25.9281
924 2 31.7971 4.08987 25.9689
925 2 35.4968 4.1687 25.8302
926 2 39.5146 3.94011 25.7736
927 2 43.3065 3.94848 25.7845
928 2 47.363 4.12927 25.8155
929 2 51.4312 4.21248 25.86
930 2 55.1695 4.01477 25.7275
931 2 59.2157 7.90927 25.6606
932 2 3.72811 7.99105 25.6023
933 2 7.84988 8.03088 25.855
934 2 11.8578 8.06391 25.9188
935 2 16.0653 7.90643 25.8293
936 2 19.878 8.08097 25.5698
937 2 23.7371 8.03731 25.7504
938 2 27.6886 8.01153 25.7838
939 2 31.5458 8.04632 25.7182
940 2 35.8575 8.01925 25.7395
941 2 39.6059 8.09685 25.5932
942 2 43.3816 8.31564 25.5354
943 2 47.3063 7.96602 25.6382
944 2 51.1538 8.07301 25.8853
945 2 55.238 7.98726 25.6577
946 2 59.194 12.007 25.845
947 2 3.78414 11.8724 25.8052
948 2 7.85066 11.8618 25.848
949 2 11.8868 11.9852 25.7381
950 2 15.7746 12.1912 25.7588
951 2 19.7526 11.9999 25.7994
952 2 23.6482 11.9588 25.7234
953 2 27.8058 12.0084 25.8272
954 2 31.5285 12.0387 25.7577
955 2 35.3778 11.99 25.8187
956 2 39.6213 12.0449 25.8216
957 2 43.4825 12.0181 25.8266
958 2 47.2478 12.1399 25.5765
959 2 51.4046 12.0649 25.7836
960 2 55.4064 12.0166 25.7497
961 2 59.1714 15.8993 25.9285
962 2 3.7866 15.9267 25.628
963 2 7.91084 15.8138 25.7026
964 2 11.695 16.0867 25.7829
965 2 15.6377 16.016 25.8126
966 2 19.6465 16.0652 25.9291
967 2 23.493 15.9043 25.5744
968 2 27.3113 15.798 25.5548
969 2 31.5749 15.9668 25.4169
970 2 35.4926 15.8376 25.6522
971 2 39.6649 15.9387 25.7568
972 2 43.3939 15.8731 25.628
973 2 47.3522 15.8517 25.6192
974 2 51.3953 15.9863 25.9394
975 2 55.3724 15.8274 25.5484
976 2 59.4071 19.7274 25.7632
977 2 3.88696 19.7203 25.84
978 2 7.78322 19.9063 25.8961
979 2 11.7934 19.959 25.8757
980 2 15.8591 19.9828 25.7079
981 2 19.7917 19.7853 25.8092
982 2 23.701 19.9362 25.7207
983 2 27.5395 19.8176 25.6383
984 2 31.6247 19.9918 25.9385
985 2 35.4352 19.82 25.7969
986 2 39.4593 20.0248 25.8126
987 2 43.4115 19.9511 25.7408
988 2 47.4196 19.8204 25.6804
989 2 51.3614 19.9137 25.6079
990 2 55.2838 19.8344 25.729
991 2 59.097 23.9425 25.7824
992 2 3.79576 23.8524 25.578
993 2 7.86596 23.7752 25.8292
994 2 11.6299 23.834 25.6054
995 2 15.7205 23.5675 25.8596
996 2 19.7034 23.6359 25.7826
997 2 23.7089 23.9213 25.9194
998 2 27.8043 23.8715 25.7191
999 2 31.631 23.8746 25.5932