ITEM: TIMESTEP
1514300
ITEM: NUMBER OF ATOMS
16875
ITEM: BOX BOUNDS xy xz yz pp pp pp
0.0000000000000000e+00 5.9369999999999997e+01 0.0000000000000000e+00
0.0000000000000000e+00 5.9369999999999997e+01 0.0000000000000000e+00
3.3185095239684159e-01 6.0034568047606051e+01 0.0000000000000000e+00
ITEM: ATOMS id type x y z
1 2 0.20516 0.0515409 9.79377
2 2 4.01122 0.0524608 9.87363
3 2 8.05646 59.3403 9.74193
4 2 12.0026 -0.218403 9.77505
5 2 16.0796 59.4193 9.8656
6 2 19.8739 0.0124123 10.0157
7 2 23.8487 59.4239 9.91004
8 2 27.844 -0.0336267 9.87834
9 2 31.7129 0.0524056 9.8273
10 2 35.6895 59.4269 9.9238
11 2 39.594 59.1861 9.73554
12 2 43.548 59.2305 9.90408
13 2 47.6205 59.4788 9.88443
14 2 51.5894 59.2806 9.80232
15 2 55.5893 59.5118 9.81025
16 2 0.122354 4.06157 9.81516
17 2 4.04863 4.00706 10.0327
18 2 8.07721 3.9187 9.67035
19 2 12.0878 3.80719 9.80601
20 2 16.0511 3.90031 9.88675
21 2 19.8815 4.02329 9.74973
22 2 23.7964 3.99115 9.87109
23 2 27.7153 4.06384 9.76148
24 2 31.7021 3.98564 9.88716
25 2 35.5187 4.09151 9.79079
26 2 39.4932 3.93768 9.85535
27 2 43.5326 3.8857 9.99833
28 2 47.6398 3.95177 9.75194
29 2 51.6047 3.9563 9.70154
30 2 55.4986 3.88224 9.71389
31 2 0.0879323 7.70146 9.84058
32 2 4.02604 8.09946 9.88968
33 2 8.15785 7.92 9.71005
34 2 11.9853 7.8277 9.88034
35 2 15.8623 7.90145 9.96751
36 2 20.0501 7.97009 9.87614
37 2 24.006 8.0744 9.89795
38 2 27.9121 7.91198 9.98049
39 2 31.7718 7.90037 9.90412
40 2 35.507 7.80275 9.9596
41 2 39.5401 7.94617 9.83799
42 2 43.4221 7.77147 9.85794
43 2 47.6854 7.9414 9.69036
44 2 51.6428 7.93899 9.87445
45 2 55.5521 7.79446 9.83898
46 2 0.0302576 11.7888 9.86819
47 2 4.22919 11.8964 9.99839
48 2 8.07015 11.7685 9.9085
49 2 12.0196 11.9132 9.75936
50 2 15.7989 11.86 10.0111
51 2 19.9138 11.905 9.90863
52 2 23.8054 11.9067 9.99548
53 2 27.8808 11.9743 9.9357
54 2 31.6252 11.9531 9.81788
55 2 35.5406 11.7775 10.0142
56 2 39.5806 12.0716 9.89749
57 2 43.6957 11.8709 9.88761
58 2 47.7374 11.974 9.86655
59 2 51.6908 11.8785 9.75658
60 2 55.5835 11.8021 9.87275
61 2 0.0640606 15.7959 9.77298
62 2 3.97217 15.796 9.96771
63 2 7.75075 15.654 9.93741
64 2 11.9408 15.7211 10.0337
65 2 16.0614 15.7784 10.019
66 2 19.8086 15.9879 9.99796
67 2 24.0614 15.7568 9.81359
68 2 27.7226 15.942 10.0056
69 2 31.5831 16.0691 9.76072
70 2 35.7835 15.8629 9.96438
71 2 39.7523 15.7935 9.97465
72 2 43.6481 15.7694 9.89082
73 2 47.6579 15.6929 9.91783
74 2 51.755 15.7595 9.60941
75 2 55.4619 15.8689 9.83594
76 2 0.00726114 19.8644 9.86112
77 2 4.06776 19.9659 10.0529
78 2 7.93682 19.8109 10.0253
79 2 12.0965 19.43 10.0592
80 2 16.0086 19.6477 9.97317
81 2 20.1081 19.6685 9.76132
82 2 23.8369 19.9567 9.67716
83 2 27.7591 19.9034 9.94697
84 2 31.7903 19.95 9.71305
85 2 35.8207 19.8792 9.77972
86 2 39.7142 19.5662 9.92286
87 2 43.8081 19.6068 9.82715
88 2 47.5729 19.5014 9.8919
89 2 51.5547 19.8501 9.64802
90 2 55.4967 19.989 9.85265
91 2 0.0384223 23.5763 9.92766
92 2 3.88021 23.7763 9.92724
93 2 8.03798 23.8758 9.8764
94 2 12.1135 23.8154 9.80357
95 2 15.9563 23.587 9.64641
96 2 19.7883 23.5989 9.81281
97 2 23.7261 23.688 9.86795
98 2 27.5281 23.921 9.9226
99 2 31.7722 23.6808 9.91901
100 2 35.8885 23.6856 9.62579
101 2 39.6996 23.7717 9.78346
102 2 43.5675 23.5401 9.96381
103 2 47.6507 23.7603 9.83804
104 2 51.6462 23.9037 9.83966
105 2 55.5592 23.8209 9.68057
106 2 0.0622349 27.8007 9.85722
107 2 4.07876 27.7765 9.95974
108 2 8.01043 27.8806 9.95596
109 2 12.0938 27.6246 9.80807
110 2 16.0498 27.7487 9.8843
111 2 19.8243 27.6583 9.82921
112 2 23.6078 27.7865 10.016
113 2 27.7815 27.882 9.79729
114 2 31.7276 27.5385 9.93715
115 2 35.7974 27.7525 9.8027
116 2 39.81 27.7144 9.61017
117 2 43.9108 27.6836 9.57476
118 2 47.6559 27.7756 10.0006
119 2 51.622 27.7752 9.86157
120 2 55.3826 27.5492 9.83077
121 2 59.3246 31.5307 9.96729
122 2 4.20249 31.7573 9.85371
123 2 8.0198 31.7066 9.87316
124 2 12.1545 31.6038 9.9327
125 2 16.0751 31.5713 9.80902
126 2 20.0535 31.7928 9.87978
127 2 23.8625 31.7479 10.0226
128 2 27.7639 31.6942 9.85881
129 2 31.6907 31.8464 9.86227
130 2 35.5116 31.5454 9.90408
131 2 39.5124 31.6712 9.8005
132 2 43.5446 31.4257 9.87458
133 2 47.5619 31.6634 10.0575
134 2 51.5891 31.6709 9.96757
135 2 55.4113 31.813 9.96391
136 2 -0.00451498 35.604 9.89969
137 2 4.19049 35.5904 9.8842
138 2 8.05627 35.654 9.89439
139 2 12.0388 35.5011 9.86637
140 2 16.0334 35.8423 9.79059
141 2 19.8392 35.4999 9.88795
142 2 23.9158 35.4709 9.81815
143 2 27.8144 35.5231 9.91206
144 2 31.8151 35.6002 9.8322
145 2 35.7807 35.4705 9.98443
146 2 39.6187 35.5008 9.99322
147 2 43.7026 35.7304 9.88681
148 2 47.6376 35.7907 9.87883
149 2 51.4495 35.7161 9.88087
150 2 55.2547 35.8678 9.79428
151 2 0.211062 39.5951 9.98051
152 2 4.18315 39.4505 9.84783
153 2 8.04288 39.5829 9.93409
154 2 11.9569 39.4758 9.99417
155 2 15.9657 39.616 9.84778
156 2 20.1858 39.4463 9.81073
157 2 24.0656 39.3157 9.82422
158 2 28.0266 39.5887 9.94056
159 2 31.867 39.5586 9.99557
160 2 35.648 39.4709 9.90947
161 2 39.6556 39.5957 9.67533
162 2 43.5916 39.5138 9.88807
163 2 47.56 39.7417 9.87865
164 2 51.6166 39.6627 9.84755
165 2 55.5627 39.7249 9.88537
166 2 0.260235 43.4731 10.0983
167 2 3.95456 43.4237 9.98822
168 2 7.90562 43.5924 9.97131
169 2 11.7525 43.4627 9.82493
170 2 15.8803 43.2747 9.86211
171 2 19.9663 43.7206 9.83296
172 2 23.8016 43.413 9.92082
173 2 27.8216 43.5761 9.83841
174 2 31.7735 43.45 9.85582
175 2 35.6117 43.5244 9.90397
176 2 39.5392 43.6063 9.97895
177 2 43.4207 43.4093 9.804
178 2 47.3465 43.5571 9.74442
179 2 51.544 43.6438 10.0008
180 2 55.364 43.6168 9.97338
181 2 59.2969 47.5159 9.92391
182 2 4.02847 47.6862 9.92133
183 2 8.03736 47.4688 9.95212
184 2 11.9038 47.3617 9.76337
185 2 15.9403 47.2612 9.793
186 2 20.0473 47.6225 9.65787
187 2 23.7797 47.4193 9.79297
188 2 27.7241 47.4708 10.0419
189 2 31.6296 47.4572 9.96816
190 2 35.5511 47.3896 10.0124
191 2 39.5025 47.3998 9.92699
192 2 43.6379 47.4612 9.87357
193 2 47.6582 47.5744 9.8297
194 2 51.7386 47.6049 9.89058
195 2 55.479 47.5972 9.94059
196 2 59.5524 51.4933 10.056
197 2 4.08359 51.2491 9.90713
198 2 8.28633 51.5158 9.8627
199 2 12.2114 51.2663 9.61282
200 2 15.7882 51.4901 9.98628
201 2 19.8005 51.3168 9.87111
202 2 23.6851 51.5382 10.0322
203 2 27.6473 51.3352 9.91888
204 2 31.5687 51.4546 9.97181
205 2 35.5779 51.3488 9.74592
206 2 39.5104 51.3647 9.96502
207 2 43.4501 51.3777 10.0486
208 2 47.4803 51.4627 9.87018
209 2 51.5621 51.3796 9.92569
210 2 55.5712 51.4759 9.88868
211 2 0.297854 55.3137 9.66392
212 2 4.18836 55.4341 9.77775
213 2 8.28193 55.3109 9.77237
214 2 11.9508 55.2875 9.83524
215 2 15.8899 55.3766 10.0296
216 2 19.8304 55.4752 9.94508
217 2 23.6934 55.3875 9.79328
218 2 27.7629 55.2764 10.0478
219 2 31.6101 55.3979 10.0284
220 2 35.6283 55.6042 9.95699
221 2 39.5765 55.2157 9.99537
222 2 43.5183 55.4945 9.96277
223 2 47.3461 55.4728 9.90012
224 2 51.539 55.4582 10.0082
225 2 55.6426 55.3228 9.86928
226 2 59.6457 59.4019 13.8179
227 2 4.20648 0.0166867 13.6569
228 2 8.00023 0.0883409 13.7695
229 2 12.0845 0.137817 13.9563
230 2 15.9214 0.0217417 14.0048
231 2 20.0178 59.4491 13.885
232 2 24.0171 0.304876 13.8068
233 2 27.8187 -0.190342 13.8038
234 2 31.7635 0.0128987 13.8011
235 2 35.6509 0.252452 13.7849
236 2 39.5381 0.214713 13.8052
237 2 43.7249 0.127366 13.8725
238 2 47.6336 59.6147 13.9252
239 2 51.6769 59.5172 13.8561
240 2 55.6143 0.211236 13.8012
241 2 0.0777677 4.07706 13.7745
242 2 4.1911 4.04276 13.7632
243 2 8.04879 4.03475 13.8716
244 2 11.931 3.79477 13.7206
245 2 16.0658 3.96042 13.7857
246 2 19.6897 4.0919 13.8202
247 2 23.8448 4.00861 13.9137
248 2 27.6651 4.00088 14.0491
249 2 31.5003 3.97052 13.945
250 2 35.7409 4.04893 14.0799
251 2 39.7919 4.02062 13.8197
252 2 43.7189 3.88303 13.8466
253 2 47.548 4.09526 13.9159
254 2 51.324 4.01333 13.8224
255 2 55.5293 4.29051 13.8386
256 2 -0.0170132 8.12426 13.8222
257 2 4.06497 7.90246 13.8637
258 2 8.03025 7.86161 13.7852
259 2 12.0314 7.72543 13.7368
260 2 15.8938 7.77056 13.7988
261 2 19.9658 7.83371 13.7282
262 2 23.8577 7.8586 13.6815
263 2 27.601 7.89796 14.0819
264 2 31.6932 7.84197 13.9271
265 2 35.872 7.87954 13.8559
266 2 39.5277 8.12854 13.8907
267 2 43.5201 8.10889 13.6622
268 2 47.6835 8.12139 13.9339
269 2 51.5243 7.92399 13.8786
270 2 55.4222 8.11024 13.7586
271 2 0.119499 11.966 14.0053
272 2 4.0929 11.7816 14.0584
273 2 8.01362 11.758 14.0425
274 2 11.8184 11.7593 13.8697
275 2 15.9217 11.7623 14.0601
276 2 19.9739 11.8979 14.0347
277 2 23.782 12.0341 13.8182
278 2 27.799 11.7909 13.9612
279 2 31.8704 12 13.83
280 2 35.5971 11.9346 13.6636
281 2 39.7192 11.9525 13.7619
282 2 43.6838 12.0602 13.9526
283 2 47.4639 12.0499 13.812
284 2 51.4379 11.857 13.8966
285 2 55.4716 12.0106 13.8667
286 2 -0.0972883 15.8128 13.9405
287 2 3.72933 15.7014 13.9635
288 2 8.03025 15.7916 13.875
289 2 11.9714 15.9201 13.9418
290 2 15.7557 15.6891 13.8166
291 2 19.8504 15.8448 13.8615
292 2 23.9432 15.8106 13.7799
293 2 27.768 15.7288 13.8788
294 2 31.8089 15.9585 13.8536
295 2 35.7383 15.8459 13.6896
296 2 39.7071 15.9138 13.9739
297 2 43.5884 15.8314 13.9917
298 2 47.6185 16.0491 13.8102
299 2 51.6069 16.0812 13.8653
300 2 55.4843 16.0078 13.8282
301 2 0.177384 19.8241 13.9293
302 2 4.338 19.8186 13.789
303 2 8.15875 19.9606 13.7718
304 2 11.9625 19.8723 13.8334
305 2 15.9436 20.0204 13.8826
306 2 19.867 19.5543 14.0546
307 2 23.8087 19.8135 13.7284
308 2 27.6864 19.724 13.7328
309 2 31.9931 19.8627 13.6335
310 2 35.7037 19.986 13.7072
311 2 39.8088 19.9151 13.6648
312 2 43.5322 19.7048 13.9305
313 2 47.555 19.9673 13.8615
314 2 51.438 19.6738 13.8925
315 2 55.5766 19.6907 13.9178
316 2 0.0511315 23.786 14.0066
317 2 4.07899 23.8933 13.763
318 2 8.17903 23.8114 13.9984
319 2 12.0916 24.0453 13.8735
320 2 16.2216 23.8256 13.9616
321 2 19.8065 23.7834 13.8253
322 2 23.7258 23.7636 13.9365
323 2 27.6403 23.7303 13.8327
324 2 31.7398 23.7643 13.9901
325 2 35.8261 23.8601 13.7912
326 2 39.6259 23.8738 13.7266
327 2 43.7028 23.7136 13.8668
328 2 47.6781 23.73 13.8328
329 2 51.4949 23.8792 13.8505
330 2 55.4222 23.7739 13.733
331 2 59.341 27.4751 13.9493
332 2 4.14953 27.7216 13.8401
333 2 7.96464 27.8801 14.0196
334 2 11.8253 27.9846 13.9493
335 2 15.9986 27.7291 13.8163
336 2 19.9751 27.7705 13.8797
337 2 23.7042 27.4639 13.7335
338 2 27.742 27.914 13.7112
339 2 31.9376 27.7786 13.86
340 2 35.7008 27.8942 13.8173
341 2 40.0177 27.6952 13.6325
342 2 43.7423 27.8516 13.8918
343 2 47.7402 28.1111 13.8955
344 2 51.4663 27.7579 14.0928
345 2 55.4485 27.7745 13.931
346 2 0.0420141 31.6628 13.9732
347 2 3.97188 31.7391 13.8802
348 2 8.15682 31.6162 13.8499
349 2 11.9189 31.8146 13.7207
350 2 16.0289 31.5891 13.9442
351 2 19.8901 31.6328 13.9173
352 2 24.0472 31.7492 13.8531
353 2 27.8371 31.7068 13.8569
354 2 31.7842 31.7838 14.0293
355 2 35.8194 31.6668 13.8054
356 2 39.6696 31.5077 13.7854
357 2 43.4421 31.8544 13.9649
358 2 47.6182 31.7773 13.7715
359 2 51.5101 31.7362 13.8533
360 2 55.6176 31.6283 13.9488
361 2 0.380857 35.6678 13.811
362 2 3.96538 35.606 13.7307
363 2 8.07104 35.7049 13.7487
364 2 12.1612 35.6468 13.7468
365 2 16.0012 35.7378 13.7054
366 2 19.7902 35.6408 13.9789
367 2 23.8061 35.807 13.8861
368 2 27.7422 35.6168 14.0784
369 2 31.7442 35.6911 13.8291
370 2 35.9572 35.6021 13.8037
371 2 39.7122 35.6348 13.7677
372 2 43.7457 35.5977 13.6328
373 2 47.4686 35.6725 13.9357
374 2 51.5372 35.7412 13.7707
375 2 55.4093 35.5162 13.8962
376 2 0.178401 39.5769 13.8152
377 2 3.92641 39.7234 13.903
378 2 7.95556 39.4884 13.888
379 2 11.9372 39.6653 13.8977
380 2 15.9533 39.6934 13.8138
381 2 19.9855 39.7649 13.7442
382 2 23.8636 39.4117 13.7535
383 2 27.7561 39.5262 13.8865
384 2 31.7386 39.4405 13.8412
385 2 35.8332 39.6533 13.9597
386 2 39.6197 39.7313 13.8527
387 2 43.5153 39.6852 13.6477
388 2 47.4573 39.8169 13.8081
389 2 51.4663 39.771 13.7776
390 2 55.5663 39.774 13.8726
391 2 0.173958 43.6841 14.0131
392 2 4.18857 43.7878 13.8279
393 2 8.02517 43.637 13.9792
394 2 11.9848 43.5258 13.9269
395 2 15.9576 43.6204 13.8173
396 2 19.8048 43.5522 13.8897
397 2 23.6924 43.6223 14.0803
398 2 27.8234 43.5179 14.0231
399 2 31.8051 43.4604 13.9915
400 2 35.5937 43.471 13.8855
401 2 39.6471 43.6717 13.9175
402 2 43.5397 43.5925 13.9525
403 2 47.2999 43.5911 13.5343
404 2 51.341 43.5707 13.8304
405 2 55.7986 43.6551 13.8046
406 2 59.4365 47.5474 13.9212
407 2 4.01213 47.7001 13.808
408 2 7.7599 47.4387 13.8925
409 2 11.9999 47.6454 13.8804
410 2 15.8607 47.4202 13.8304
411 2 19.8343 47.4732 13.8668
412 2 23.7372 47.6454 13.8597
413 2 27.6394 47.5 13.7514
414 2 31.7554 47.3616 14.0638
415 2 35.7179 47.5846 14.0493
416 2 39.6096 47.6117 13.8289
417 2 43.5995 47.6349 13.7311
418 2 47.4079 47.4335 13.7438
419 2 51.3245 47.4148 14.0018
420 2 55.4435 47.6142 13.9645
421 2 0.13173 51.6645 13.9273
422 2 4.15579 51.5649 13.8305
423 2 8.11676 51.4936 13.9144
424 2 12.0751 51.3956 13.9149
425 2 16.0899 51.4622 13.8006
426 2 19.7675 51.4559 13.7069
427 2 24.0546 51.6211 13.933
428 2 27.5989 51.5341 13.9261
429 2 31.6399 51.6275 13.7517
430 2 35.6714 51.444 13.8536
431 2 39.7213 51.5298 13.9765
432 2 43.7447 51.4137 13.9486
433 2 47.6127 51.5098 13.499
434 2 51.541 51.4864 14.164
435 2 55.6708 51.389 13.8354
436 2 0.188345 55.4884 13.8134
437 2 4.09315 55.5678 13.9953
438 2 8.01666 55.4938 13.8547
439 2 12.2491 55.488 13.8962
440 2 16.0155 55.5821 13.934
441 2 19.9516 55.4412 13.9263
442 2 23.7864 55.5346 13.9198
443 2 27.7997 55.3865 13.9915
444 2 31.7923 55.3389 13.9499
445 2 35.5119 55.5844 13.8207
446 2 39.6536 55.431 13.9695
447 2 43.7776 55.541 13.8948
448 2 47.7002 55.5769 13.9235
449 2 51.769 55.3499 13.8061
450 2 55.754 55.5499 13.6404
451 2 59.5432 0.0642767 17.6691
452 2 4.2923 59.4514 17.6231
453 2 8.09834 0.0184144 17.9925
454 2 11.8826 -0.0369139 17.859
455 2 16.0785 59.3751 18.018
456 2 20.1184 0.116908 17.8006
457 2 24.0056 59.5103 17.7307
458 2 28.0292 -0.0290451 17.8655
459 2 31.8739 0.106825 17.9857
460 2 35.7337 0.122457 17.9934
461 2 39.651 -0.105518 17.692
462 2 43.6308 -0.196018 17.9647
463 2 47.6571 0.227856 17.6804
464 2 51.7445 0.241509 17.6935
465 2 55.6275 0.0862023 17.7131
466 2 0.214195 3.90399 17.6074
467 2 4.09408 4.00718 17.7981
468 2 8.1317 4.01324 17.7643
469 2 11.8656 3.90116 17.8237
470 2 15.971 4.02188 17.8617
471 2 19.9264 3.99475 17.7777
472 2 23.6668 4.19081 17.8099
473 2 27.6429 4.04986 18.0224
474 2 31.7006 4.01697 17.8562
475 2 35.6459 3.92167 18.0812
476 2 39.7715 4.06808 17.8105
477 2 43.776 3.93934 17.9027
478 2 47.6586 4.15522 17.8731
479 2 51.6599 4.08571 17.8743
480 2 55.6531 4.09697 17.8821
481 2 59.4064 8.01136 17.6496
482 2 4.06818 7.81851 17.8083
483 2 8.12814 7.97739 18.0566
484 2 11.8543 7.97125 17.9246
485 2 15.9083 7.92852 17.9081
486 2 19.9275 8.05886 17.8823
487 2 23.6239 8.20943 17.8483
488 2 27.6736 7.95168 17.9602
489 2 31.8618 7.87677 17.7642
490 2 35.641 8.0366 17.6218
491 2 39.4715 8.07005 17.7468
492 2 43.7119 8.06575 17.8215
493 2 47.6638 7.9917 17.7636
494 2 51.5849 8.06531 17.9089
495 2 55.564 8.06279 17.6489
496 2 59.3507 11.9314 17.9812
497 2 4.08868 12.0738 17.6933
498 2 8.00727 12.068 17.7524
499 2 11.8774 11.9427 17.9388
500 2 15.8971 11.9552 17.9692
501 2 19.7508 11.8961 17.9118
502 2 23.7699 11.9061 17.9384
503 2 27.8611 11.8368 18.0546
504 2 31.734 12.0227 17.8168
505 2 35.4588 11.9383 17.8683
506 2 39.6346 11.8647 18.0441
507 2 43.6134 11.8375 17.8289
508 2 47.6734 12.0449 17.7072
509 2 51.7123 11.8485 17.7982
510 2 55.5914 12.1531 17.7992
511 2 59.3073 16.0531 17.9533
512 2 4.03076 16.0197 17.831
513 2 7.92407 15.8038 17.9787
514 2 11.8725 16.0477 17.9013
515 2 15.8052 15.9507 17.743
516 2 19.8826 15.9041 17.6617
517 2 23.9911 15.9218 17.9955
518 2 27.8135 15.7508 17.7841
519 2 31.8207 15.8909 17.8531
520 2 35.647 15.7356 17.7542
521 2 39.6085 15.9603 17.9313
522 2 43.6286 15.9654 17.7059
523 2 47.4504 15.9019 17.8806
524 2 51.6731 15.8851 17.8095
525 2 55.4277 15.7783 17.8239
526 2 59.4445 20.0537 17.8863
527 2 4.04173 19.7418 17.8104
528 2 7.91505 19.8494 17.6915
529 2 11.8109 19.8948 17.8921
530 2 15.9488 19.727 17.8683
531 2 19.8965 19.7608 17.7765
532 2 23.8381 19.6018 17.8757
533 2 27.8301 19.8898 17.6653
534 2 31.7584 19.6781 17.7021
535 2 35.5836 19.8315 17.6751
536 2 39.4213 19.8637 18.0198
537 2 43.5588 19.8998 17.619
538 2 47.7002 19.7987 17.8905
539 2 51.5587 19.8285 17.847
540 2 55.5637 19.8976 17.9219
541 2 0.270898 23.8594 17.7236
542 2 4.28724 23.8274 17.7596
543 2 7.99868 23.7643 17.9107
544 2 11.9512 24.0165 17.7342
545 2 15.8424 23.846 17.927
546 2 19.8947 23.8192 17.803
547 2 23.7507 23.697 17.5931
548 2 27.9446 23.6604 17.7604
549 2 31.8456 23.7881 17.8541
550 2 35.8924 23.804 17.6529
551 2 39.5229 23.9448 17.887
552 2 43.5764 24.0644 17.7926
553 2 47.3635 23.7511 17.8476
554 2 51.566 23.6262 17.8211
555 2 55.45 23.6694 17.9102
556 2 59.4837 27.931 17.7284
557 2 3.94636 27.7833 17.869
558 2 7.79696 27.7958 17.8323
559 2 12.048 28.0151 17.9922
560 2 16.0854 27.7998 17.8319
561 2 19.9517 27.7627 17.9439
562 2 23.9623 27.6896 17.8881
563 2 27.6172 27.6259 17.8588
564 2 31.6222 27.9129 17.8172
565 2 35.8061 27.8107 17.7182
566 2 39.6593 27.7571 17.7878
567 2 43.7358 27.7878 17.794
568 2 47.6191 27.9006 17.8272
569 2 51.5165 27.7188 17.9267
570 2 55.3667 27.6326 17.9589
571 2 0.00730597 31.776 17.873
572 2 3.98449 31.6082 17.8088
573 2 7.80749 31.7961 17.7523
574 2 11.9146 31.7152 17.9475
575 2 15.8681 31.5764 17.7928
576 2 20.0373 31.6754 17.7108
577 2 23.8504 31.7121 17.8252
578 2 27.822 31.6983 17.8201
579 2 31.7974 31.9511 17.7258
580 2 35.6126 32.0404 17.8164
581 2 39.6949 31.8403 17.8703
582 2 43.6242 31.8306 17.8554
583 2 47.4073 31.5715 17.992
584 2 51.5956 31.6974 17.9315
585 2 55.4961 31.626 17.9713
586 2 0.0416373 35.812 17.911
587 2 4.12723 35.747 17.8476
588 2 8.14446 35.7595 17.6952
589 2 12.0966 35.5649 17.8598
590 2 15.8508 35.615 17.88
591 2 19.8464 35.6708 17.8702
592 2 23.902 35.612 17.943
593 2 27.7657 35.6676 17.9308
594 2 31.8408 35.7068 17.7162
595 2 35.7219 35.7643 17.9581
596 2 39.7109 35.802 17.6745
597 2 43.5495 35.6734 17.805
598 2 47.6208 35.5819 17.8264
599 2 51.4332 35.8121 17.7491
600 2 55.3884 35.7526 17.6597
601 2 0.130997 39.5599 17.7367
602 2 4.08717 39.4254 17.8813
603 2 8.10917 39.8488 17.7325
604 2 11.9164 39.6428 17.9042
605 2 16.0457 39.6859 17.923
606 2 19.8542 39.6943 17.8645
607 2 23.8067 39.6748 17.8431
608 2 27.6859 39.5152 18.0258
609 2 31.6372 39.5876 17.9136
610 2 35.6 39.6004 18.0055
611 2 39.6933 39.6029 17.9863
612 2 43.527 39.7237 17.763
613 2 47.5794 39.4663 17.8549
614 2 51.6144 39.4879 17.7349
615 2 55.4954 39.778 17.8119
616 2 -0.0779644 43.5807 17.9351
617 2 3.87279 43.2918 17.7517
618 2 7.96993 43.4169 17.7998
619 2 12.007 43.5678 18.0004
620 2 15.7342 43.6702 17.8512
621 2 19.7758 43.4917 17.9818
622 2 23.6284 43.4952 17.9194
623 2 27.7315 43.6463 17.8537
624 2 31.7824 43.5531 17.7368
625 2 35.619 43.5741 17.9496
626 2 39.5681 43.6916 17.6269
627 2 43.4506 43.675 17.6922
628 2 47.3355 43.5375 17.9417
629 2 51.4569 43.6384 17.8748
630 2 55.4419 43.4542 17.7731
631 2 0.0934752 47.6563 17.7734
632 2 4.00659 47.4711 17.6736
633 2 7.91603 47.6081 17.8335
634 2 12.0269 47.474 17.7612
635 2 15.8525 47.4746 17.9181
636 2 19.8624 47.3745 17.9001
637 2 23.9937 47.5581 17.9793
638 2 27.8293 47.5066 18.0085
639 2 31.6033 47.6389 17.9834
640 2 35.5437 47.5389 17.9939
641 2 39.7407 47.7382 17.8823
642 2 43.776 47.5188 18.0207
643 2 47.6242 47.5785 17.836
644 2 51.5 47.5835 17.8763
645 2 55.2933 47.4977 17.9205
646 2 0.0994237 51.4821 17.746
647 2 3.78177 51.4756 17.6659
648 2 7.94053 51.4595 17.795
649 2 11.9692 51.466 17.8007
650 2 15.8524 51.5182 17.7751
651 2 19.863 51.5908 17.784
652 2 23.6675 51.4982 17.8001
653 2 27.6377 51.4546 17.908
654 2 31.7065 51.5651 17.7474
655 2 35.5497 51.5576 17.5025
656 2 39.326 51.5866 17.8508
657 2 43.5257 51.6373 17.8611
658 2 47.4734 51.3342 17.4864
659 2 51.6839 51.6353 17.8282
660 2 55.4774 51.5516 17.8066
661 2 0.0770821 55.581 17.9349
662 2 4.07652 55.4978 17.9914
663 2 8.09643 55.4278 17.8691
664 2 11.9181 55.45 17.8528
665 2 15.9506 55.6241 17.9411
666 2 20.1645 55.4531 17.8488
667 2 23.8912 55.418 17.8736
668 2 27.6889 55.5257 17.8406
669 2 31.695 55.3787 17.9575
670 2 35.6946 55.6513 17.8288
671 2 39.6051 55.4775 17.8529
672 2 43.6808 55.4964 17.7831
673 2 47.7292 55.3419 17.8526
674 2 51.7335 55.7654 17.7191
675 2 55.747 55.535 17.81
676 2 0.193052 0.244946 21.7008
677 2 3.97647 0.180814 21.7366
678 2 8.02807 0.165722 21.7879
679 2 11.8328 0.0978315 21.6043
680 2 15.8298 0.145831 21.8297
681 2 19.8785 0.0499062 21.829
682 2 23.6807 0.0141386 21.903
683 2 27.8731 0.111137 21.874
684 2 31.7985 0.257478 21.8956
685 2 35.7524 0.177951 21.7933
686 2 39.6483 0.16354 21.7899
687 2 43.5311 -0.0184721 21.9783
688 2 47.761 0.00791638 21.815
689 2 51.6621 59.5172 21.7999
690 2 55.6144 0.214554 21.7847
691 2 -0.0834704 4.22578 21.7958
692 2 4.01128 4.04688 21.8135
693 2 7.98589 4.04115 21.8919
694 2 11.9312 3.90243 21.7698
695 2 15.8349 4.03088 21.7819
696 2 19.7574 4.13242 21.9809
697 2 23.846 4.14123 21.8931
698 2 27.7714 4.08914 21.8714
699 2 31.8375 4.18522 21.7465
700 2 35.6444 4.22757 21.8412
701 2 39.6937 4.14499 21.9131
702 2 43.5515 3.98543 21.9542
703 2 47.555 4.05542 21.6707
704 2 51.8763 3.89096 21.6464
705 2 55.6094 3.97451 21.9311
706 2 59.3879 8.14509 21.7156
707 2 3.92194 8.14264 21.7204
708 2 7.99188 7.99066 21.7307
709 2 11.9502 8.02923 21.967
710 2 16.0288 7.86159 21.6769
711 2 19.8884 7.99134 21.9715
712 2 23.8019 8.02975 21.8008
713 2 27.7865 7.99285 21.9488
714 2 31.8675 7.98911 21.8526
715 2 35.7831 8.00616 21.9263
716 2 39.5607 8.16263 21.7786
717 2 43.704 8.10031 21.5948
718 2 47.6045 7.80268 21.7781
719 2 51.7196 7.88704 21.7893
720 2 55.4585 8.07947 21.7791
721 2 -0.0972671 12.0514 21.7842
722 2 3.92823 11.9532 21.7752
723 2 7.96296 11.9065 21.9042
724 2 11.9794 11.9507 21.9427
725 2 15.8722 12.0529 21.7152
726 2 19.723 12.0348 21.8912
727 2 23.7841 12.0174 21.893
728 2 28.0234 11.9576 21.7332
729 2 31.7837 11.8261 21.9662
730 2 35.6727 11.9887 21.9414
731 2 39.6165 12.1242 22.0285
732 2 43.5918 12.1479 21.9272
733 2 47.4275 11.991 21.8552
734 2 51.3345 11.8539 21.9523
735 2 55.3162 12.0562 21.9082
736 2 -0.0871488 15.925 21.9792
737 2 3.95862 16.0183 21.776
738 2 7.85606 15.7934 21.8649
739 2 11.7868 16.0302 21.7899
740 2 15.8931 15.8834 21.6881
741 2 19.8359 15.906 21.7576
742 2 23.6423 15.7582 21.9903
743 2 27.6518 15.8788 21.8584
744 2 31.7992 15.9717 21.8309
745 2 35.5893 15.9588 21.8773
746 2 39.6466 15.9926 21.7155
747 2 43.7621 16.0534 21.7537
748 2 47.4131 15.8239 21.7051
749 2 51.4876 15.9587 21.8999
750 2 55.3949 16.0748 21.8528
751 2 59.445 20.0302 21.8315
752 2 3.85933 19.8998 21.8341
753 2 8.02644 19.7711 21.8653
754 2 11.903 19.8954 21.501
755 2 16.0453 19.8875 21.6409
756 2 19.9147 19.8996 21.6449
757 2 23.7733 19.7668 21.7002
758 2 27.7749 19.8229 21.6839
759 2 31.7734 19.7619 21.6342
760 2 35.6772 19.8435 21.8944
761 2 39.4256 19.8115 21.7801
762 2 43.3733 19.9165 21.7395
763 2 47.31 19.8037 21.7213
764 2 51.2258 19.997 21.7811
765 2 55.3206 19.9534 21.9493
766 2 59.3877 23.8963 21.808
767 2 3.81777 23.8732 21.8406
768 2 7.85106 23.8041 21.9326
769 2 11.8812 23.89 21.773
770 2 15.9165 23.8221 21.7828
771 2 19.8678 23.9253 21.8695
772 2 23.687 23.5647 21.6555
773 2 27.6469 23.7518 21.8109
774 2 31.9443 23.844 21.8434
775 2 35.6214 23.9379 21.7564
776 2 39.4745 23.6737 21.7955
777 2 43.583 23.9264 21.7999
778 2 47.4622 23.8911 21.633
779 2 51.2814 23.7854 21.8282
780 2 55.5234 23.8772 21.8295
781 2 59.4659 27.6908 21.8349
782 2 4.03661 27.7606 21.9418
783 2 8.06681 27.8291 21.796
784 2 12.0741 27.83 21.7508
785 2 15.9706 27.8105 21.768
786 2 19.8675 27.6518 22.0528
787 2 23.8111 27.6103 21.7946
788 2 27.7631 27.7562 21.8287
789 2 31.7339 27.6185 21.8651
790 2 35.6595 27.825 21.9454
791 2 39.4811 27.7719 21.7213
792 2 43.4501 27.768 21.7881
793 2 47.5646 27.6642 21.8506
794 2 51.6508 27.5362 21.679
795 2 55.6101 27.9959 21.8549
796 2 59.3808 31.8739 21.9045
797 2 3.96246 31.9295 21.8278
798 2 7.98701 31.575 21.5661
799 2 11.8233 31.853 21.8674
800 2 15.97 31.7074 21.914
801 2 20.0087 31.7275 21.9663
802 2 23.9626 31.7266 21.866
803 2 27.5976 31.5242 21.856
804 2 31.6088 31.635 21.9882
805 2 35.8262 31.6678 21.7764
806 2 39.7374 31.6424 22.0033
807 2 43.5451 31.5518 21.9065
808 2 47.4939 31.6106 21.7259
809 2 51.4359 31.5177 21.8602
810 2 55.3434 31.8127 21.7577
811 2 59.2953 35.7608 21.7599
812 2 4.14124 35.7119 21.8266
813 2 7.91905 35.767 21.7786
814 2 11.8505 35.7439 21.6759
815 2 15.7818 35.8988 21.8271
816 2 19.8367 35.7164 21.8388
817 2 23.8768 35.5293 21.7339
818 2 27.6752 35.6543 21.8222
819 2 31.6136 35.7134 21.8023
820 2 35.5554 35.4194 21.7176
821 2 39.7078 35.706 21.8372
822 2 43.717 35.407 21.8896
823 2 47.4751 35.745 21.8554
824 2 51.4255 35.7058 21.8855
825 2 55.4474 35.783 21.9617
826 2 0.179418 39.7992 21.7854
827 2 3.97199 39.7601 21.806
828 2 8.10541 39.6451 21.9434
829 2 11.928 39.7374 21.8012
830 2 15.8997 39.6638 21.8215
831 2 19.841 39.6035 22.0236
832 2 23.8161 39.5939 21.7926
833 2 27.8394 39.6744 21.9645
834 2 31.7716 39.7235 21.8449
835 2 35.7211 39.7088 21.8855
836 2 39.3996 39.7803 21.7583
837 2 43.6448 39.6136 21.6608
838 2 47.3102 39.5853 21.7501
839 2 51.3877 39.6242 21.5831
840 2 55.5806 39.7604 21.821
841 2 -0.123087 43.7799 21.8998
842 2 3.97942 43.7524 21.6119
843 2 7.66191 43.6454 21.733
844 2 11.8401 43.8405 21.7871
845 2 15.6938 43.5194 21.8332
846 2 19.7069 43.6735 21.9485
847 2 23.6059 43.5844 21.9359
848 2 27.6182 43.6073 21.8847
849 2 31.5393 43.4559 21.6996
850 2 35.8149 43.7588 21.4484
851 2 39.7876 43.7126 21.741
852 2 43.6117 43.6307 21.9089
853 2 47.5018 43.5523 21.8036
854 2 51.3199 43.6067 21.7357
855 2 55.3218 43.6377 21.7358
856 2 59.4965 47.6035 21.8812
857 2 3.90891 47.5771 21.6848
858 2 7.8082 47.5712 21.8199
859 2 11.8309 47.4228 21.6435
860 2 15.9463 47.5591 21.834
861 2 19.9474 47.5699 21.8618
862 2 23.7733 47.6285 21.9233
863 2 27.685 47.6022 21.7503
864 2 31.4649 47.5651 21.7245
865 2 35.6329 47.4556 21.7575
866 2 39.6224 47.7621 21.9014
867 2 43.5624 47.8914 21.7107
868 2 47.6126 47.7327 21.7332
869 2 51.449 47.7354 21.759
870 2 55.4711 47.3666 21.6466
871 2 0.0247848 51.4597 21.8769
872 2 4.02998 51.6747 21.7544
873 2 7.93127 51.7339 21.7068
874 2 11.8724 51.4131 21.7939
875 2 15.817 51.4125 21.5962
876 2 19.8509 51.4368 21.7982
877 2 23.8757 51.4878 22.0499
878 2 27.725 51.6435 21.7651
879 2 31.8227 51.6325 21.9781
880 2 35.7041 51.7601 21.7745
881 2 39.3525 51.4424 21.5725
882 2 43.5609 51.6484 21.7447
883 2 47.5083 51.6354 21.8107
884 2 51.2855 51.6576 21.9559
885 2 55.2758 51.5606 21.8459
886 2 0.0564507 55.5587 21.8751
887 2 3.98034 55.4695 21.8306
888 2 7.80385 55.5416 21.8207
889 2 11.8763 55.4323 21.7959
890 2 15.8208 55.4158 21.7093
891 2 19.9261 55.4437 21.8538
892 2 23.8757 55.3692 21.9415
893 2 27.7579 55.6423 21.8576
894 2 31.8849 55.3485 21.8674
895 2 35.9095 55.6724 22.0002
896 2 39.7875 55.4566 21.8681
897 2 43.7346 55.5488 21.8666
898 2 47.6301 55.5349 21.9428
899 2 51.7414 55.5964 21.631
900 2 55.6375 55.5925 21.8547
901 2 59.1904 0.0405138 25.7278
902 2 3.85902 0.104927 25.8477
903 2 7.91246 0.106141 26.0289
904 2 11.7404 0.1499 25.7538
905 2 15.825 0.174408 25.7543
906 2 19.57 0.0199415 25.8255
907 2 23.7522 0.0483504 25.9979
908 2 27.775 0.283422 25.6655
909 2 31.7368 0.111028 26.0152
910 2 35.5937 0.124504 25.8498
911 2 39.4937 0.118617 25.9643
912 2 43.5592 0.265717 25.8165
913 2 47.6341 0.15121 25.7685
914 2 51.4715 0.137314 26.009
915 2 55.448 0.102666 25.937
916 2 -0.0826741 3.92159 25.8045
917 2 3.66767 4.0377 25.7663
918 2 7.80117 4.02428 25.7641
919 2 11.7596 4.10698 25.8507
920 2 15.5664 3.88188 25.4728
921 2 20.0089 4.1973 25.7976
922 2 23.6278 4.091 25.7623
923 2 27.4616 4.13245 25.9259
924 2 31.5462 4.28462 25.7007
925 2 35.5024 4.17319 25.8785
926 2 39.734 3.99938 25.9565
927 2 43.7502 4.31093 25.6504
928 2 47.4188 4.10628 25.8706
929 2 51.4124 4.18969 25.7585
930 2 55.4145 4.07397 25.9624
931 2 -0.0448857 8.14983 25.7716
932 2 3.67111 8.13378 25.7422
933 2 7.67553 7.96532 25.7192
934 2 12.0202 8.09972 25.8147
935 2 15.8316 8.07646 25.7566
936 2 19.6762 7.92565 25.717
937 2 23.5281 8.16585 25.6697
938 2 27.4222 8.12697 25.701
939 2 31.4738 8.14842 25.824
940 2 35.7529 8.12273 25.9723
941 2 39.6682 7.98056 25.9558
942 2 43.5278 8.12337 25.814
943 2 47.4743 7.86711 25.7208
944 2 51.3928 8.16619 25.9166
945 2 55.3672 7.92786 25.9918
946 2 0.0122982 11.8687 25.6756
947 2 3.83753 12.121 25.9362
948 2 7.91955 11.8226 25.6447
949 2 11.865 11.9202 25.815
950 2 15.6071 12.0408 25.5714
951 2 19.8055 12.1147 25.7046
952 2 23.8638 11.9154 25.8695
953 2 27.8577 12.0218 25.8407
954 2 31.6918 11.8714 25.8727
955 2 35.7539 12.0083 25.8698
956 2 39.4807 12.1751 25.7902
957 2 43.6372 12.0117 25.87
958 2 47.7732 12.0051 25.9454
959 2 51.4911 12.0519 25.7922
960 2 55.46 12.0235 25.849
961 2 59.4486 15.9147 25.7209
962 2 4.11903 15.9543 25.8292
963 2 8.10033 15.771 25.7526
964 2 11.7466 15.9894 25.7777
965 2 15.745 15.9834 25.803
966 2 19.6648 16.0214 25.9019
967 2 23.5089 16.106 25.7635
968 2 27.7898 16.005 25.9873
969 2 31.5772 15.9534 25.7018
970 2 35.5742 16.1397 25.9767
971 2 39.6131 15.8051 25.919
972 2 43.5427 16.0251 25.6536
973 2 47.4661 15.9487 25.7923
974 2 51.4573 15.8738 25.7332
975 2 55.3611 16.0973 25.8686
976 2 59.3204 19.7804 25.8823
977 2 3.87855 20.073 25.9183
978 2 8.02326 19.9053 25.8045
979 2 11.9561 19.9919 25.6171
980 2 15.8267 19.8772 25.6489
981 2 19.8192 19.9692 25.7867
982 2 23.7154 19.9941 25.8443
983 2 27.2908 19.8858 25.6774
984 2 31.536 19.9286 25.7592
985 2 35.5906 19.8646 25.933
986 2 39.5167 19.9966 25.8476
987 2 43.5476 19.8139 26.0096
988 2 47.449 19.739 25.7463
989 2 51.4903 20.0705 25.8127
990 2 55.3505 19.9768 25.9581
991 2 59.424 24.0947 25.7132
992 2 3.99377 23.9861 25.7623
993 2 7.91593 24.2029 25.5713
994 2 11.8603 23.8406 25.8847
995 2 15.6844 23.9029 25.8319
996 2 19.8586 23.7633 25.8108
997 2 23.7005 23.7825 25.757
998 2 27.5815 23.8058 25.6756