ITEM: TIMESTEP
1519300
ITEM: NUMBER OF ATOMS
16875
ITEM: BOX BOUNDS xy xz yz pp pp pp
0.0000000000000000e+00 5.9369999999999997e+01 0.0000000000000000e+00
0.0000000000000000e+00 5.9369999999999997e+01 0.0000000000000000e+00
3.1082635763562649e-01 6.0055592642366882e+01 0.0000000000000000e+00
ITEM: ATOMS id type x y z
1 2 0.100596 -0.0756827 9.86
2 2 4.00793 -0.232291 9.85293
3 2 7.88158 59.491 9.99927
4 2 11.788 0.205701 9.70699
5 2 15.9099 59.5518 9.93589
6 2 19.8144 0.0401029 9.8093
7 2 23.8478 59.2332 9.90554
8 2 27.6397 0.0994636 9.59175
9 2 32.0213 0.13395 9.75345
10 2 35.7872 59.4544 9.86439
11 2 39.5771 59.3299 10.0928
12 2 43.5763 59.277 10.012
13 2 47.6868 59.3856 9.80681
14 2 51.5634 59.4902 9.77478
15 2 55.5245 59.2147 9.78677
16 2 0.156728 3.81597 9.86043
17 2 4.06959 3.9855 9.81924
18 2 7.84832 3.90127 10.1233
19 2 11.8614 4.03283 10.0307
20 2 15.9598 4.0352 10.0756
21 2 20.0597 3.80893 9.8974
22 2 23.862 4.15468 9.83577
23 2 27.8098 3.99066 9.9467
24 2 31.7286 3.97064 9.82088
25 2 35.9057 3.85898 9.91102
26 2 39.7043 3.98341 9.98992
27 2 43.4844 4.06213 9.99636
28 2 47.6393 4.09957 9.84388
29 2 51.523 3.9247 9.94044
30 2 55.516 3.89062 9.85302
31 2 0.165483 7.68533 10.0511
32 2 3.85911 7.82097 9.98061
33 2 7.87874 8.0492 9.95275
34 2 12.0136 8.03571 10.0286
35 2 15.8798 7.881 9.8977
36 2 19.6254 7.95926 10.1252
37 2 23.9048 7.92989 9.93914
38 2 27.9356 7.95609 9.68603
39 2 31.8143 7.87694 9.94386
40 2 35.7695 7.79366 9.8605
41 2 39.6163 7.91957 9.94742
42 2 43.6359 7.87298 10.1263
43 2 47.5602 8.30488 9.70411
44 2 51.5945 8.01404 9.67243
45 2 55.6579 7.69829 9.92665
46 2 0.0748317 11.7753 10.0308
47 2 4.03516 11.6838 10.0355
48 2 7.70729 11.9668 9.99863
49 2 11.8964 11.8813 9.99602
50 2 15.9437 11.8058 10.1328
51 2 19.8128 11.9548 9.98153
52 2 23.7088 11.8232 10.0817
53 2 27.909 11.9123 10.0302
54 2 31.6976 11.7703 9.9212
55 2 35.6584 11.969 9.78529
56 2 39.5094 11.6669 9.7834
57 2 43.5906 12.0545 9.77013
58 2 47.5778 12.016 10.0578
59 2 51.5323 11.8606 9.79225
60 2 55.5798 11.79 9.90682
61 2 -0.15193 15.9619 9.78522
62 2 4.03127 15.5928 9.95304
63 2 7.89531 15.8893 10.0532
64 2 11.818 15.8084 9.88833
65 2 15.7604 15.8909 9.89201
66 2 19.7537 15.9677 9.82203
67 2 23.7691 15.8223 9.9856
68 2 27.9235 15.6865 9.69586
69 2 31.8784 15.6685 9.9145
70 2 35.7532 15.8053 9.95005
71 2 39.7349 15.9398 9.95466
72 2 43.5605 15.8371 9.89588
73 2 47.4173 16.0398 9.84199
74 2 51.4742 15.861 10.0809
75 2 55.3288 15.7073 9.8834
76 2 0.188288 19.6753 9.83707
77 2 3.91906 19.83 10.0154
78 2 8.06983 19.675 9.87133
79 2 11.9815 19.5469 9.93068
80 2 15.9557 19.6661 9.87905
81 2 19.7627 19.6647 9.87844
82 2 23.718 19.809 9.89357
83 2 27.9821 19.9229 9.79103
84 2 31.8168 19.9128 9.95084
85 2 35.6445 19.9506 9.80307
86 2 39.5001 19.9156 9.81059
87 2 43.6885 19.8752 9.73506
88 2 47.5428 19.9855 9.87601
89 2 51.8142 19.8063 9.79658
90 2 55.7082 19.8799 9.59477
91 2 -0.0396828 23.625 9.80601
92 2 4.15852 23.7741 9.91989
93 2 7.88646 23.7814 10.0644
94 2 12.09 23.5865 9.77563
95 2 15.9065 23.8082 9.79818
96 2 19.7908 23.8022 9.94102
97 2 23.6248 23.7483 9.95137
98 2 27.7637 23.6886 9.74806
99 2 31.9303 23.7154 9.86033
100 2 35.7556 23.9309 9.8731
101 2 39.7061 23.88 9.91949
102 2 43.8712 23.8346 9.80248
103 2 47.4704 23.9077 9.80809
104 2 51.3113 23.6949 9.93376
105 2 55.6407 23.7777 9.88128
106 2 0.351475 27.7491 9.8075
107 2 4.17219 27.6334 9.97093
108 2 8.1349 27.74 9.92304
109 2 12.1328 27.507 9.77458
110 2 16.0902 27.6716 10.0494
111 2 19.9395 27.5977 9.88567
112 2 23.9062 27.8004 9.81188
113 2 27.8851 27.5193 9.81448
114 2 31.8488 27.5499 9.91997
115 2 35.7362 27.9131 9.77867
116 2 39.627 27.7213 10.0476
117 2 43.4044 27.8532 9.84898
118 2 47.7859 27.7726 9.86672
119 2 51.59 27.8259 9.88219
120 2 55.5293 27.9332 9.86057
121 2 59.4349 31.6333 9.95693
122 2 4.22363 31.5701 9.76946
123 2 8.17347 31.6668 9.65683
124 2 12.1103 31.6248 9.7739
125 2 16.0366 31.6886 10.0574
126 2 20.1061 31.7275 9.78667
127 2 23.9377 31.5342 9.82808
128 2 27.9374 31.6092 9.91415
129 2 31.7189 31.5186 9.99538
130 2 35.746 31.8833 9.86821
131 2 39.7091 31.8186 9.88054
132 2 43.5427 31.802 9.88148
133 2 47.6594 31.8364 9.84362
134 2 51.7012 31.7102 9.68077
135 2 55.6325 31.9164 10.0081
136 2 -0.0159923 35.6178 9.86684
137 2 4.06426 35.5899 9.92021
138 2 7.96603 35.5465 9.98143
139 2 12.0152 35.6306 9.83328
140 2 15.7907 35.468 10.0048
141 2 20.1372 35.5817 9.78475
142 2 23.9179 35.4693 9.92439
143 2 27.831 35.4096 9.9021
144 2 31.7188 35.6314 10.05
145 2 35.5793 35.6898 9.95859
146 2 39.6638 35.7412 9.87452
147 2 43.7669 35.6508 9.74626
148 2 47.7374 35.8031 9.94838
149 2 51.7951 35.7996 9.95503
150 2 55.4232 35.6726 9.99818
151 2 0.234827 39.3799 9.96578
152 2 4.11648 39.5534 9.81839
153 2 8.04115 39.636 9.73556
154 2 11.9585 39.6023 9.6552
155 2 15.9377 39.4791 10.1294
156 2 20.0097 39.494 9.97731
157 2 24.0079 39.5403 9.91018
158 2 27.7012 39.387 9.87756
159 2 31.5123 39.5794 9.99448
160 2 35.4903 39.5708 10.0646
161 2 39.7496 39.4768 9.90965
162 2 43.7429 39.7564 9.8486
163 2 47.7083 39.5632 9.9279
164 2 51.5092 39.5614 9.98526
165 2 55.5278 39.6906 9.97379
166 2 0.129822 43.4331 10.0798
167 2 3.99512 43.4263 10.0225
168 2 8.0108 43.5177 9.89415
169 2 12.1285 43.4244 10.0307
170 2 16.025 43.4534 9.84511
171 2 19.7834 43.5911 9.76941
172 2 23.645 43.4545 10.018
173 2 27.761 43.5627 9.97098
174 2 31.7455 43.5667 10.1315
175 2 35.6883 43.3009 9.99519
176 2 39.4795 43.3696 10.0739
177 2 43.4038 43.4755 10.0048
178 2 47.554 43.5261 10.1005
179 2 51.4735 43.4013 9.85105
180 2 55.7107 43.5305 9.9459
181 2 59.4496 47.3471 9.86844
182 2 3.99788 47.4093 9.87271
183 2 8.208 47.5114 9.85261
184 2 12.2318 47.3931 9.87713
185 2 15.929 47.6094 9.91575
186 2 19.9678 47.6651 10.0735
187 2 23.8536 47.4596 10.1101
188 2 27.6423 47.4976 9.78655
189 2 31.594 47.5587 9.90225
190 2 35.6842 47.5729 9.77593
191 2 39.6237 47.7254 9.9659
192 2 43.5808 47.3699 10.0795
193 2 47.5134 47.6631 9.83682
194 2 51.6035 47.4843 9.91448
195 2 55.5013 47.5856 9.95386
196 2 59.6252 51.2458 9.58552
197 2 4.17615 51.3855 9.8769
198 2 7.84501 51.5911 9.87453
199 2 12.0412 51.4335 9.7728
200 2 15.9681 51.4069 9.98865
201 2 19.8979 51.4408 10.0799
202 2 23.7226 51.2092 9.89221
203 2 27.7838 51.4212 9.98695
204 2 31.6544 51.2277 9.81977
205 2 35.686 51.5203 9.78817
206 2 39.6721 51.4509 10.0423
207 2 43.7461 51.5731 9.77158
208 2 47.7096 51.3803 9.99132
209 2 51.7006 51.563 9.93974
210 2 55.6275 51.5423 9.98299
211 2 -0.00450951 55.1694 9.84307
212 2 3.92334 55.5327 10.0753
213 2 7.79441 55.5428 9.97234
214 2 11.8598 55.4547 9.96192
215 2 15.9329 55.5862 9.99471
216 2 19.843 55.3807 10.0361
217 2 24.002 55.5318 9.68361
218 2 27.9861 55.3443 9.93705
219 2 31.7929 55.4313 9.88418
220 2 35.6268 55.457 10.0361
221 2 39.6148 55.1447 9.94087
222 2 43.5943 55.2619 9.9534
223 2 47.8009 55.3588 9.91854
224 2 51.6509 55.3203 10.1255
225 2 55.5421 55.5068 9.95475
226 2 59.4299 59.3759 14.0019
227 2 4.05768 0.00840739 14.1472
228 2 7.84797 0.0481093 13.9747
229 2 11.9749 0.0653454 13.9093
230 2 15.8603 0.196767 13.8824
231 2 19.857 59.5177 13.7482
232 2 23.9436 -0.0418657 13.6927
233 2 27.7262 0.152903 13.9046
234 2 31.6573 0.227493 13.7982
235 2 35.7215 -0.0746391 13.9389
236 2 39.6498 0.0776956 13.9603
237 2 43.5554 0.0795853 13.9161
238 2 47.5841 59.5472 14.0091
239 2 51.3781 59.3833 13.9336
240 2 55.3447 0.0887854 13.747
241 2 0.0747162 3.911 13.9745
242 2 4.065 4.10798 13.8277
243 2 8.0764 3.92245 13.9925
244 2 12.0609 4.05363 13.9686
245 2 15.8541 3.99187 14.1159
246 2 19.9605 4.01114 14.0105
247 2 23.7757 3.9208 13.9608
248 2 27.7097 3.98247 13.822
249 2 31.5409 3.90557 13.7121
250 2 35.7075 4.0207 13.7457
251 2 39.5694 3.92059 13.7516
252 2 43.5916 3.96844 13.9694
253 2 47.6932 4.0854 13.7393
254 2 51.508 4.03413 13.8267
255 2 55.3704 3.89257 13.9148
256 2 -0.0768372 7.87286 13.9875
257 2 4.24353 7.79515 13.8606
258 2 7.92867 7.78048 14.0007
259 2 11.8239 8.04841 13.9519
260 2 15.9733 7.90575 13.9805
261 2 19.7334 8.13198 14.1168
262 2 23.8512 8.0991 13.9195
263 2 27.7742 7.83871 14.0832
264 2 31.7397 7.84513 13.9546
265 2 35.6217 8.04307 14.0722
266 2 39.6039 7.8867 14.0186
267 2 43.6698 7.98481 13.7363
268 2 47.6893 7.9751 13.9421
269 2 51.5942 7.8013 13.9837
270 2 55.3456 7.85409 14.0345
271 2 -0.109 11.8034 13.8305
272 2 3.76314 11.6917 13.9436
273 2 7.80565 11.823 13.9702
274 2 11.8952 12.0598 14.1158
275 2 16.0013 12.0145 13.8528
276 2 19.8646 12.1357 14.0509
277 2 23.7291 11.898 13.95
278 2 27.7747 11.8319 13.9633
279 2 31.6654 11.8169 13.8347
280 2 35.5806 11.8668 13.853
281 2 39.6055 11.9539 13.8793
282 2 43.7227 11.9864 13.8857
283 2 47.5459 12.0605 13.9201
284 2 51.3848 12.007 13.7431
285 2 55.4829 11.9444 13.8154
286 2 -0.0556436 15.8514 13.6817
287 2 3.8917 16.024 13.9511
288 2 7.97852 15.825 14.0169
289 2 11.7028 15.8414 14.0277
290 2 15.6902 15.8453 13.8679
291 2 19.8514 15.9837 13.9799
292 2 23.703 15.7806 13.8258
293 2 27.7496 16.0086 13.9502
294 2 31.7019 15.9346 13.8594
295 2 35.6484 15.7967 13.8845
296 2 39.639 15.9247 13.6464
297 2 43.2639 15.8625 13.859
298 2 47.4643 16.0075 13.6958
299 2 51.5959 15.8826 14.0078
300 2 55.2795 15.9895 13.8801
301 2 -0.0110028 19.9473 13.8732
302 2 4.00239 19.9204 14.0452
303 2 8.17489 19.9009 13.8594
304 2 12.0095 19.8231 13.9335
305 2 15.9576 20.0226 13.8624
306 2 19.8461 19.7574 13.896
307 2 23.9363 19.8582 13.7465
308 2 27.5878 19.8319 13.9112
309 2 31.8767 19.7887 13.8016
310 2 35.7237 19.8617 13.7972
311 2 39.7381 19.886 13.6281
312 2 43.6441 19.969 13.8315
313 2 47.5141 19.8214 13.8143
314 2 51.5414 19.8336 13.9051
315 2 55.472 19.8815 13.7708
316 2 0.0843697 24.0494 13.8619
317 2 4.0473 23.8007 13.9189
318 2 8.02169 23.6209 14.0074
319 2 11.9017 23.671 13.6414
320 2 15.9169 23.8825 13.8781
321 2 19.8096 23.6373 14.1203
322 2 23.8367 23.8307 13.7718
323 2 27.6745 23.6064 13.9504
324 2 31.7628 23.9092 13.743
325 2 35.878 23.8766 13.9594
326 2 39.7186 23.7148 13.7898
327 2 43.8315 23.8236 13.8218
328 2 47.6212 23.8715 13.6803
329 2 51.6311 23.781 13.8062
330 2 55.6739 23.7888 13.6872
331 2 59.5724 27.8383 13.8536
332 2 4.24611 27.8131 13.935
333 2 8.09796 27.5686 13.9304
334 2 12.0199 27.628 13.9411
335 2 15.8706 27.7335 14.0292
336 2 19.813 27.5099 13.805
337 2 24.0117 27.6474 13.8052
338 2 27.8329 27.9157 13.8592
339 2 31.7469 27.7618 14.0949
340 2 35.7799 27.7666 13.9434
341 2 39.6808 27.7971 13.904
342 2 43.7373 27.8663 13.8732
343 2 47.6204 27.7794 13.9055
344 2 51.4695 27.7223 13.7049
345 2 55.5883 27.8015 13.8565
346 2 0.24301 31.699 13.8784
347 2 4.17223 31.6917 13.9194
348 2 8.02151 31.876 13.9039
349 2 11.9858 31.6396 13.8991
350 2 16.0876 31.6438 13.9193
351 2 19.7572 31.6217 13.9181
352 2 23.7347 31.5995 13.7896
353 2 27.7558 31.6342 13.9014
354 2 31.7764 31.7142 13.8369
355 2 35.7517 31.911 13.9766
356 2 39.8527 31.6788 13.8957
357 2 43.6962 31.7611 13.8869
358 2 47.4648 31.9876 13.7387
359 2 51.4139 31.71 13.9537
360 2 55.6133 31.77 14.1235
361 2 0.341599 35.6122 13.7911
362 2 4.1287 35.5562 13.8818
363 2 8.23846 35.6478 13.7142
364 2 11.9358 35.5656 13.9897
365 2 15.8885 35.5473 13.7014
366 2 19.8805 35.5766 13.8459
367 2 24.0797 35.4934 13.9624
368 2 27.7427 35.5131 13.8755
369 2 31.763 35.585 13.9888
370 2 35.7112 35.8853 13.7719
371 2 39.4882 35.6756 13.7898
372 2 43.4887 35.7917 13.9227
373 2 47.5519 35.7151 13.7766
374 2 51.379 35.6563 13.9485
375 2 55.5045 35.6918 14.1467
376 2 0.109422 39.437 14.1386
377 2 4.13166 39.5516 14.0322
378 2 8.05361 39.5475 14.0558
379 2 11.9038 39.5942 13.8541
380 2 15.8302 39.4531 13.926
381 2 19.8668 39.4222 13.9189
382 2 23.8455 39.597 13.9787
383 2 27.9813 39.5206 13.7569
384 2 31.7056 39.7909 14.0502
385 2 35.6726 39.8215 13.957
386 2 39.6468 39.7018 13.9735
387 2 43.5798 39.622 13.8147
388 2 47.6325 39.6267 13.9179
389 2 51.7013 39.7002 13.7966
390 2 55.6204 39.6056 14.0832
391 2 -0.0418686 43.4333 13.8955
392 2 4.07267 43.6016 13.9389
393 2 7.96738 43.5504 13.8594
394 2 11.9217 43.4383 13.915
395 2 16.1847 43.5623 13.9267
396 2 19.855 43.3743 13.9828
397 2 23.8088 43.5239 13.7849
398 2 27.6485 43.6184 13.8813
399 2 31.8761 43.9031 13.8554
400 2 35.8313 43.7161 14.038
401 2 39.6983 43.7701 13.957
402 2 43.509 43.6919 13.8777
403 2 47.5493 43.75 13.8257
404 2 51.3491 43.6846 13.9293
405 2 55.4967 43.83 13.9446
406 2 59.7517 47.4987 13.9609
407 2 4.14727 47.6393 14.0171
408 2 8.0727 47.6488 13.9926
409 2 11.9925 47.5942 14.0774
410 2 15.9922 47.3957 14.0754
411 2 19.921 47.4912 14.0305
412 2 23.6849 47.6169 14.0661
413 2 27.8571 47.6191 13.9777
414 2 31.6917 47.5771 13.9746
415 2 35.6381 47.5879 13.8986
416 2 39.8033 47.7478 13.8372
417 2 43.605 47.4895 14.0374
418 2 47.4179 47.5238 14.0251
419 2 51.5429 47.6733 14.0865
420 2 55.4784 47.5048 13.862
421 2 0.28576 51.3563 13.8573
422 2 4.08083 51.6208 13.8436
423 2 7.89935 51.7074 13.8666
424 2 12.073 51.5144 13.973
425 2 15.9027 51.4914 13.8529
426 2 19.5844 51.6317 13.8727
427 2 23.6809 51.5856 13.8787
428 2 27.6956 51.7485 13.7154
429 2 31.9747 51.6292 13.6998
430 2 35.6465 51.5738 13.7923
431 2 39.7308 51.3487 13.921
432 2 43.6745 51.5008 13.8653
433 2 47.6057 51.3858 13.7275
434 2 51.5589 51.5158 13.7687
435 2 55.7301 51.3428 13.812
436 2 -0.0651587 55.4121 14.0807
437 2 3.91235 55.4487 13.9164
438 2 8.19531 55.432 13.8722
439 2 12.0716 55.4218 13.9474
440 2 15.7859 55.6427 13.9053
441 2 19.8812 55.6382 13.9259
442 2 23.8312 55.6712 13.7704
443 2 27.7547 55.5559 13.9857
444 2 31.6248 55.6746 13.7968
445 2 35.8977 55.3952 13.9715
446 2 39.583 55.4082 14.0186
447 2 43.7019 55.3778 14.1493
448 2 47.5881 55.6678 13.8622
449 2 51.5579 55.4715 13.9622
450 2 55.476 55.5556 13.7693
451 2 59.3873 0.179495 18.0008
452 2 3.95913 59.3154 18.0665
453 2 7.99684 0.21741 18.148
454 2 12.008 -0.0571438 18.1124
455 2 15.9657 59.5069 18.0115
456 2 19.7443 0.136138 18.0247
457 2 23.8015 59.4047 17.8481
458 2 27.8279 0.138707 17.9345
459 2 31.7473 0.183035 17.9948
460 2 35.744 0.220135 18.0054
461 2 39.6745 0.116314 17.9617
462 2 43.5999 0.0461968 17.8146
463 2 47.3176 0.155729 17.9136
464 2 51.3878 0.0392129 17.9945
465 2 55.4908 -0.0203345 18.0077
466 2 0.101319 3.9439 17.8004
467 2 3.93895 3.90683 17.8693
468 2 7.91145 3.97513 18.0248
469 2 11.8906 4.11847 17.8803
470 2 15.9409 4.19184 17.8772
471 2 20.1069 4.02055 17.757
472 2 23.9389 4.0884 17.7876
473 2 27.6515 4.28632 17.8779
474 2 31.5986 4.11988 17.7604
475 2 35.5136 4.29504 17.8439
476 2 39.493 4.02539 17.7873
477 2 43.5502 4.16145 17.7421
478 2 47.2576 4.18377 17.7858
479 2 51.3248 4.00797 17.9251
480 2 55.5384 4.0226 18.0875
481 2 59.5934 8.03269 17.6836
482 2 3.9497 7.74039 17.9719
483 2 8.10327 8.06483 17.8816
484 2 11.9609 7.94912 17.8147
485 2 15.8263 8.10339 17.8731
486 2 19.9724 8.11341 17.8827
487 2 23.9668 8.00951 17.8826
488 2 27.8722 8.00733 17.965
489 2 31.7636 8.19805 17.7467
490 2 35.657 8.09659 18.0479
491 2 39.7416 8.06148 17.9034
492 2 43.4133 8.26069 17.7332
493 2 47.5598 8.05587 17.728
494 2 51.469 8.08528 17.7532
495 2 55.4591 8.05952 17.8473
496 2 59.3816 11.8061 17.8337
497 2 3.87055 11.9799 17.9333
498 2 7.94806 12.0217 17.9735
499 2 11.9998 11.8853 17.9339
500 2 15.9372 12.0309 17.8869
501 2 19.8606 11.8628 18.0016
502 2 23.9006 11.8904 17.9648
503 2 27.7778 11.874 17.8364
504 2 31.79 12.0607 17.8953
505 2 35.895 11.9739 18.0178
506 2 39.7893 11.9704 17.9065
507 2 43.6499 11.9236 17.6961
508 2 47.5932 11.8795 17.8243
509 2 51.3868 11.9258 17.9417
510 2 55.4125 11.9431 17.9666
511 2 59.4838 15.8813 17.8435
512 2 3.79007 16.0544 17.7876
513 2 7.87125 15.9456 17.8283
514 2 11.9954 15.8746 17.8698
515 2 16.0092 15.9902 17.958
516 2 19.7585 15.9048 18.0144
517 2 23.7386 15.9571 18.001
518 2 27.7182 15.7455 17.8967
519 2 31.605 16.0456 17.7992
520 2 35.7353 15.898 17.8578
521 2 39.6632 15.9179 17.8001
522 2 43.8253 15.8307 17.7991
523 2 47.537 15.7483 17.8221
524 2 51.4375 15.9683 17.9027
525 2 55.4178 16.0773 17.7225
526 2 59.2804 19.7943 17.8035
527 2 3.97893 20.0349 17.7886
528 2 7.82222 19.8621 17.8425
529 2 12.0117 19.7602 17.9209
530 2 15.9759 19.7045 17.9831
531 2 19.8616 19.8934 17.8234
532 2 23.8251 20.0726 17.955
533 2 27.7938 19.8754 17.9643
534 2 31.6513 19.8636 17.8145
535 2 35.6832 19.889 17.9082
536 2 39.7557 19.7544 17.8047
537 2 43.7029 19.6807 17.8635
538 2 47.6936 19.8585 17.9
539 2 51.4167 19.9019 17.7041
540 2 55.3459 19.918 17.832
541 2 0.102698 23.9464 17.8692
542 2 3.97239 23.7618 17.9328
543 2 7.93925 23.8083 17.8512
544 2 11.946 23.8877 17.9678
545 2 15.9055 23.6072 17.83
546 2 19.8783 23.6954 17.9557
547 2 23.8328 23.8885 18.0408
548 2 27.8955 23.7073 17.8517
549 2 31.7033 23.8889 17.6512
550 2 35.8894 23.667 17.7833
551 2 39.7334 23.8201 17.8434
552 2 43.6132 23.8182 17.9153
553 2 47.6926 23.9557 17.6012
554 2 51.4825 23.809 17.8231
555 2 55.3543 23.8492 17.7918
556 2 59.446 27.7167 17.8962
557 2 4.16939 27.7063 17.8571
558 2 8.03742 27.6178 17.839
559 2 11.7797 27.9583 17.8184
560 2 15.9456 27.6889 18.021
561 2 19.7732 27.6179 17.9525
562 2 23.644 27.7174 17.736
563 2 27.864 27.7437 17.9364
564 2 31.6256 27.7666 17.7599
565 2 35.8684 27.7878 17.6979
566 2 39.6987 27.9048 17.6969
567 2 43.6759 27.6458 17.8343
568 2 47.7273 27.9125 17.6803
569 2 51.5388 27.6831 17.8674
570 2 55.3686 27.8183 17.9332
571 2 0.0562686 31.7496 17.9751
572 2 4.06619 31.7035 17.844
573 2 8.0539 31.7406 17.9086
574 2 11.9289 31.8055 17.9543
575 2 16.0603 31.7715 17.7424
576 2 19.8985 31.7269 17.8532
577 2 23.7033 31.6077 17.9391
578 2 27.7518 31.6698 17.9204
579 2 31.8845 31.7528 17.9497
580 2 35.6781 31.9271 18.1262
581 2 39.6609 31.8573 17.8016
582 2 43.4983 31.6609 18.0399
583 2 47.6752 31.605 18.0382
584 2 51.748 31.7553 17.9505
585 2 55.5393 31.7222 17.8182
586 2 0.138962 35.6554 17.6423
587 2 4.20851 35.5873 17.6742
588 2 8.08417 35.7219 17.7888
589 2 11.9803 35.7762 17.8591
590 2 15.7592 35.8002 17.7906
591 2 19.8921 35.7988 17.8651
592 2 23.6815 35.5714 17.857
593 2 27.766 35.4595 17.9536
594 2 31.6909 35.6709 17.8034
595 2 35.7644 35.7852 17.8619
596 2 39.5925 35.7297 17.8864
597 2 43.4082 35.6135 18.0067
598 2 47.5148 35.9289 17.8384
599 2 51.5146 35.8046 17.7309
600 2 55.2842 35.6358 17.8749
601 2 0.369024 39.606 17.9895
602 2 4.24363 39.5806 17.9479
603 2 8.0177 39.6217 17.8981
604 2 12.0116 39.5 17.979
605 2 16.1206 39.3825 17.9257
606 2 20.042 39.5055 17.9107
607 2 23.9156 39.461 18.0162
608 2 27.9317 39.5144 17.9559
609 2 31.68 39.7279 17.9104
610 2 35.6051 39.8097 17.9424
611 2 39.4975 39.8247 17.9327
612 2 43.5066 39.64 17.7785
613 2 47.5454 39.6318 17.9677
614 2 51.4259 39.7557 17.8158
615 2 55.5757 39.5897 17.8633
616 2 0.13688 43.3916 17.9249
617 2 4.17311 43.5305 17.8024
618 2 7.88447 43.6945 17.8607
619 2 11.852 43.6241 17.8102
620 2 16.1177 43.6026 18.0112
621 2 20.0322 43.5608 17.8954
622 2 23.9264 43.5453 17.7522
623 2 27.8231 43.7414 17.6926
624 2 31.7126 43.4057 17.9711
625 2 35.7838 43.7541 17.8803
626 2 39.8204 43.633 17.916
627 2 43.6773 43.5835 17.8996
628 2 47.6439 43.6833 17.8793
629 2 51.5257 43.7244 17.8721
630 2 55.626 43.587 17.8381
631 2 -0.0268411 47.546 17.9294
632 2 3.96063 47.7129 17.9962
633 2 8.00873 47.3846 17.9595
634 2 12.0878 47.5156 17.8868
635 2 15.8517 47.6554 18.0739
636 2 19.8971 47.5221 17.8794
637 2 23.9674 47.639 17.7595
638 2 27.6465 47.6244 18.0201
639 2 31.4299 47.6619 17.7986
640 2 35.5881 47.4077 17.877
641 2 39.645 47.6752 18.187
642 2 43.706 47.5759 18.155
643 2 47.7265 47.791 17.8282
644 2 51.4822 47.6332 17.9098
645 2 55.4848 47.4944 17.7925
646 2 -0.0297587 51.5097 17.9573
647 2 4.09892 51.578 17.9018
648 2 7.86652 51.5209 17.8747
649 2 11.9163 51.5483 18.0798
650 2 15.8685 51.6585 17.9175
651 2 19.7642 51.5127 17.7261
652 2 23.9763 51.4945 17.8214
653 2 27.7526 51.6157 18.0486
654 2 31.5295 51.4654 17.928
655 2 35.5317 51.5356 17.9464
656 2 39.676 51.3311 17.8397
657 2 43.4118 51.617 17.9666
658 2 47.6517 51.6682 17.8339
659 2 51.5965 51.7539 17.739
660 2 55.2678 51.4587 18.0049
661 2 -0.0731375 55.3475 17.9827
662 2 4.09741 55.3953 17.7962
663 2 8.00416 55.7807 17.8284
664 2 11.902 55.5503 17.9323
665 2 15.8106 55.6945 17.9423
666 2 19.9627 55.7199 17.6149
667 2 23.8255 55.648 17.8095
668 2 27.9046 55.4831 17.837
669 2 31.8028 55.5119 17.8682
670 2 35.782 55.5063 17.9636
671 2 39.6022 55.3961 18.0525
672 2 43.4793 55.5787 17.9741
673 2 47.3975 55.5568 17.8707
674 2 51.4295 55.3819 17.8964
675 2 55.3146 55.2411 17.8164
676 2 0.0074765 0.169577 21.8498
677 2 3.89808 -0.0850964 21.9877
678 2 7.86046 0.179701 21.8002
679 2 11.7624 -0.00682151 21.8869
680 2 15.884 0.320806 22.0392
681 2 19.727 0.0938235 21.8392
682 2 23.8115 0.213636 21.8229
683 2 27.8212 0.149117 21.8831
684 2 31.7609 0.205238 21.8022
685 2 35.6934 0.305649 22.0122
686 2 39.7643 0.33653 21.8297
687 2 43.4823 0.223751 21.9005
688 2 47.3537 0.0287716 21.8331
689 2 51.412 59.2765 21.8958
690 2 55.4355 -0.0453961 21.8738
691 2 -0.147869 3.94211 21.8195
692 2 3.78558 3.99668 21.8883
693 2 7.82664 4.08875 21.9185
694 2 11.9162 4.01144 21.6023
695 2 16.1385 4.15268 21.7564
696 2 19.9226 4.17135 21.6534
697 2 23.6564 4.08164 21.953
698 2 27.7473 4.04218 21.8839
699 2 31.5965 4.02733 21.8883
700 2 35.6852 4.22184 22.035
701 2 39.4992 4.26183 21.932
702 2 43.465 4.1535 21.8934
703 2 47.5555 4.09162 21.8931
704 2 51.4398 3.98157 21.7467
705 2 55.4016 4.05076 21.9318
706 2 59.4501 7.97378 21.7305
707 2 3.94374 8.14502 22.1341
708 2 7.92079 7.8727 21.9021
709 2 12.0448 7.87724 21.9734
710 2 15.9869 7.86253 22.003
711 2 19.7831 7.93167 21.8273
712 2 23.8941 8.05407 21.9798
713 2 27.8355 8.17003 21.875
714 2 31.7005 8.00141 21.8487
715 2 35.5991 8.14584 22.0263
716 2 39.6412 8.03445 21.8927
717 2 43.76 8.03374 21.7896
718 2 47.469 8.01751 21.8594
719 2 51.4802 7.91577 21.993
720 2 55.6169 7.9494 21.752
721 2 0.0327505 12.1696 21.5743
722 2 4.1588 11.9767 21.9805
723 2 8.00516 11.9566 21.7388
724 2 11.8386 11.9712 22.0627
725 2 15.998 11.9558 21.973
726 2 19.8714 11.9457 21.854
727 2 24.0517 11.8177 21.9108
728 2 27.7409 12.1527 21.7836
729 2 31.9122 12.0368 21.8273
730 2 35.6079 12.0079 21.8865
731 2 39.5366 11.9571 21.8691
732 2 43.6432 11.9083 21.9501
733 2 47.3454 11.839 21.9264
734 2 51.3493 12.0003 21.7859
735 2 55.3363 12.05 21.7705
736 2 0.252139 15.9203 21.8302
737 2 3.74003 15.9979 21.8937
738 2 7.84701 16.1182 21.9208
739 2 11.6693 15.7937 21.9607
740 2 15.7986 16.0172 22.0596
741 2 20.0254 15.856 21.8853
742 2 23.8058 16.076 21.9691
743 2 27.7696 16.0044 21.8499
744 2 31.6219 16.0148 21.8095
745 2 35.6437 15.9763 21.8233
746 2 39.6189 16.004 21.707
747 2 43.5618 15.8583 21.8068
748 2 47.5939 15.8031 21.9749
749 2 51.4967 15.8539 21.9599
750 2 55.4565 16.0025 21.8141
751 2 59.1854 19.7401 21.9738
752 2 3.90933 19.9545 21.9461
753 2 7.82402 19.859 21.68
754 2 11.8638 20.0202 21.6872
755 2 15.949 19.8608 21.8589
756 2 19.8657 19.7929 21.8887
757 2 23.6803 19.8079 21.9345
758 2 27.7684 19.776 22.0377
759 2 31.5427 19.8903 21.7535
760 2 35.6514 19.9961 21.7341
761 2 39.3961 19.9236 21.8883
762 2 43.4994 19.9159 21.8372
763 2 47.6077 19.8255 21.9371
764 2 51.4822 20.1348 21.834
765 2 55.2928 20.1701 21.7804
766 2 59.5891 23.8742 21.7104
767 2 4.12503 24.014 21.9173
768 2 8.14019 23.7565 21.8775
769 2 11.9486 23.6974 21.9825
770 2 15.7532 23.9274 21.8975
771 2 19.8057 23.7947 21.952
772 2 23.8621 23.6652 21.8044
773 2 27.9163 23.775 21.8079
774 2 31.9398 23.9615 21.7629
775 2 35.6764 23.9766 21.6806
776 2 39.5075 23.8218 21.7397
777 2 43.6701 23.7088 21.7914
778 2 47.4995 23.7927 21.8723
779 2 51.3563 23.692 21.8541
780 2 55.3446 24.0301 21.7595
781 2 59.4126 27.7308 21.6672
782 2 4.15098 27.8122 21.9841
783 2 7.94509 27.8303 21.863
784 2 11.9206 27.9088 21.7017
785 2 15.9855 27.9344 21.9136
786 2 19.679 27.699 22.0262
787 2 23.7944 27.6613 21.7658
788 2 27.8306 27.8549 22.003
789 2 31.8573 27.6061 21.8809
790 2 35.7448 27.9744 21.7029
791 2 39.578 27.7594 21.7878
792 2 43.7619 27.4502 21.8667
793 2 47.4884 27.7907 21.9373
794 2 51.3448 27.91 21.7917
795 2 55.4862 27.8857 22.1079
796 2 59.4996 32.0047 21.7479
797 2 3.87887 31.7833 21.7872
798 2 8.02314 31.8383 21.8253
799 2 11.816 31.917 21.8065
800 2 15.8083 31.7459 21.9029
801 2 20.0767 31.8527 21.7048
802 2 23.8968 31.6559 21.8442
803 2 27.8068 31.492 22.0494
804 2 31.5134 31.7162 21.6756
805 2 35.569 31.5986 22.0155
806 2 39.4487 31.6877 21.767
807 2 43.4286 31.6994 21.8357
808 2 47.4019 31.6475 21.8251
809 2 51.2511 31.8443 21.8901
810 2 55.3514 31.7464 21.6277
811 2 59.2502 35.7261 21.8598
812 2 4.09022 35.794 21.7999
813 2 7.90733 35.6245 22.0271
814 2 11.9416 35.7991 21.8627
815 2 15.884 35.6097 22.0874
816 2 19.8119 35.6948 22.1594
817 2 23.8705 35.7415 21.733
818 2 27.7871 35.6771 21.8557
819 2 31.6112 35.545 21.8634
820 2 35.7218 35.5737 21.9688
821 2 39.8313 35.7422 21.9548
822 2 43.7446 35.4809 21.784
823 2 47.6799 35.7562 21.6038
824 2 51.5213 35.7946 21.9611
825 2 55.5006 35.8631 21.8238
826 2 -0.0404839 39.6932 21.8353
827 2 3.98141 39.5534 21.8664
828 2 7.84927 39.6847 21.8033
829 2 11.7962 39.7253 21.7913
830 2 15.9554 39.771 21.7412
831 2 19.8521 39.6337 21.9424
832 2 23.8712 39.7837 21.8128
833 2 27.6666 39.6411 21.8523
834 2 31.7179 39.5569 21.9466
835 2 35.6388 39.3425 21.7882
836 2 39.5236 39.6168 21.9207
837 2 43.7516 39.5243 21.8861
838 2 47.6384 39.6875 21.7935
839 2 51.5376 39.7159 21.8737
840 2 55.4885 39.6775 21.807
841 2 0.213265 43.5702 21.9274
842 2 4.11617 43.5589 21.702
843 2 8.01153 43.7502 21.8721
844 2 11.843 43.5093 21.949
845 2 15.8476 43.6588 21.9571
846 2 19.9946 43.5841 21.8955
847 2 23.6896 43.6645 21.9098
848 2 27.7066 43.6084 21.8591
849 2 31.6025 43.7407 21.8932
850 2 35.6399 43.5921 21.9146
851 2 39.6359 43.5267 22.1128
852 2 43.465 43.5097 21.846
853 2 47.5568 43.5132 21.6911
854 2 51.6225 43.4431 21.9567
855 2 55.5799 43.7028 21.7819
856 2 59.7159 47.4493 21.9361
857 2 4.06453 47.6115 21.7146
858 2 8.00516 47.6793 21.9345
859 2 11.8797 47.5519 21.8516
860 2 15.9447 47.6145 21.9463
861 2 19.8102 47.665 21.8109
862 2 23.7658 47.7412 21.7341
863 2 27.741 47.4417 22.0819
864 2 31.7629 47.5752 21.8731
865 2 35.5087 47.5784 21.6907
866 2 39.3515 47.4143 22.0081
867 2 43.4015 47.4487 21.9095
868 2 47.3447 47.554 21.8709
869 2 51.2693 47.6242 21.7155
870 2 55.5204 47.6508 21.8686
871 2 0.127081 51.4632 21.8524
872 2 3.94359 51.5309 21.6242
873 2 7.97693 51.4611 21.8794
874 2 12.0642 51.5321 21.9101
875 2 15.8752 51.6809 21.8937
876 2 19.9958 51.6687 21.6508
877 2 23.6577 51.7463 21.5546
878 2 27.7803 51.4323 21.9769
879 2 31.9882 51.5404 21.8667
880 2 35.5855 51.5969 22.0355
881 2 39.7957 51.6171 22.0148
882 2 43.7366 51.5816 21.7436
883 2 47.5409 51.59 21.786
884 2 51.4051 51.4887 21.9243
885 2 55.3821 51.4769 21.8707
886 2 -0.239708 55.4234 21.953
887 2 4.20064 55.5639 21.9523
888 2 7.96031 55.445 21.8493
889 2 11.7052 55.4003 22.1086
890 2 15.8447 55.4818 22.0598
891 2 19.8931 55.4672 21.9881
892 2 23.811 55.4672 21.9
893 2 27.8577 55.5947 21.8595
894 2 31.6978 55.6522 21.868
895 2 35.7159 55.6205 21.9515
896 2 39.768 55.621 21.9034
897 2 43.7018 55.4303 21.8029
898 2 47.4863 55.3661 21.984
899 2 51.4614 55.3123 21.8661
900 2 55.6038 55.4413 21.9186
901 2 59.3218 -0.136889 25.7193
902 2 3.82122 0.0300463 25.8156
903 2 8.08723 0.152907 25.7791
904 2 11.9674 0.163487 25.7998
905 2 15.9147 0.374059 25.7876
906 2 19.8731 -0.0259263 25.6594
907 2 23.7271 0.0884252 25.9709
908 2 27.8503 0.0424705 26.0413
909 2 31.7543 0.0246764 26.0059
910 2 35.5356 0.183376 25.8689
911 2 39.4671 0.14838 25.8591
912 2 43.4552 0.0586537 25.8047
913 2 47.4032 0.0556616 25.8956
914 2 51.5891 0.134339 25.7381
915 2 55.2618 0.127095 25.7971
916 2 0.00370904 4.09578 25.837
917 2 3.8188 4.06113 25.8836
918 2 7.98277 4.24334 25.9561
919 2 11.7283 4.22896 25.8444
920 2 15.7982 3.98202 25.6346
921 2 19.678 4.03327 25.9178
922 2 23.6859 4.02649 25.8528
923 2 27.5622 4.11664 25.9857
924 2 31.5246 4.26555 25.706
925 2 35.5111 4.1466 26.0111
926 2 39.4208 4.13821 26.0269
927 2 43.5551 4.18353 25.9947
928 2 47.4592 4.06277 26.0091
929 2 51.3054 4.04121 25.727
930 2 55.3032 3.87073 25.8885
931 2 -0.00598487 7.95004 25.9512
932 2 3.72299 8.14779 25.6439
933 2 8.05256 8.0381 26.0816
934 2 11.9322 8.27411 25.7026
935 2 15.7667 7.94438 25.8701
936 2 19.5731 8.11983 25.787
937 2 23.8489 7.91991 25.8304
938 2 27.5742 8.1281 25.9028
939 2 31.5086 8.01777 25.7623
940 2 35.4515 8.13071 25.8988
941 2 39.5434 8.13138 25.8945
942 2 43.6371 7.99299 25.7768
943 2 47.618 7.8626 26.0238
944 2 51.63 7.89423 25.8678
945 2 55.6334 7.99234 25.8428
946 2 -0.123493 12.1799 25.6383
947 2 4.20233 12.149 25.814
948 2 7.96568 11.8618 25.8565
949 2 12.0249 12.1014 25.8314
950 2 15.7888 12.0926 25.8251
951 2 19.7773 11.9484 25.8507
952 2 23.4132 11.8563 25.8017
953 2 27.5929 12.0412 25.9258
954 2 31.492 11.9763 25.7983
955 2 35.5736 12.0096 25.8317
956 2 39.5096 12.0386 25.6567
957 2 43.3996 11.8167 25.8217
958 2 47.5579 11.8812 25.8844
959 2 51.4121 12.0064 25.8789
960 2 55.563 11.9007 25.805
961 2 59.2178 15.9085 25.9135
962 2 3.70392 16.0112 25.9398
963 2 7.98437 15.9615 25.6563
964 2 11.8804 15.9367 25.8887
965 2 15.8711 15.7894 25.9419
966 2 19.7751 15.9218 25.9243
967 2 23.7016 15.9497 25.9075
968 2 27.5297 15.9014 25.7665
969 2 31.8346 15.9906 25.8268
970 2 35.5059 15.9826 25.8186
971 2 39.531 15.8118 25.7839
972 2 43.495 15.8242 25.7694
973 2 47.48 15.894 26.0891
974 2 51.6189 15.9522 25.8406
975 2 55.3456 15.8975 25.9114
976 2 59.2344 20.0185 25.7786
977 2 4.07663 19.9991 25.8051
978 2 7.8911 20.0047 25.8435
979 2 11.6907 19.989 25.8386
980 2 15.6767 19.7133 25.768
981 2 19.8595 19.6981 25.8316
982 2 23.7922 19.8465 25.8983
983 2 27.7661 19.9199 25.8194
984 2 31.6149 19.7847 25.7536
985 2 35.5773 19.8196 25.8738
986 2 39.6422 19.7799 25.8381
987 2 43.5227 19.7476 25.742
988 2 47.3399 19.8631 25.7227
989 2 51.2554 19.9643 25.8109
990 2 55.3521 19.9636 25.8026
991 2 59.3738 23.8649 25.9099
992 2 3.90539 23.8127 25.9478
993 2 8.0986 24.0782 25.8355
994 2 11.8507 23.8766 25.6488
995 2 15.743 23.8041 25.8333
996 2 19.7427 23.6952 25.7121
997 2 23.6701 23.642 25.912
998 2 27.6824 23.9389 25.9988
999 2 31.584 23.8255 25.9137