ITEM: TIMESTEP
1520400
ITEM: NUMBER OF ATOMS
16875
ITEM: BOX BOUNDS xy xz yz pp pp pp
0.0000000000000000e+00 5.9369999999999997e+01 0.0000000000000000e+00
0.0000000000000000e+00 5.9369999999999997e+01 0.0000000000000000e+00
3.4353488041628921e-01 6.0022884119586244e+01 0.0000000000000000e+00
ITEM: ATOMS id type x y z
1 2 -0.134189 0.0885339 9.90428
2 2 4.04127 -0.0174217 9.92582
3 2 7.83193 59.154 10.0398
4 2 11.9377 -0.0685157 9.88763
5 2 15.8772 59.2122 9.82008
6 2 19.7989 -0.0982191 9.82557
7 2 23.8094 59.299 9.89529
8 2 27.7274 0.162841 9.94025
9 2 31.7118 0.154395 9.72811
10 2 35.6289 59.4401 9.87591
11 2 39.4451 59.5492 9.79687
12 2 43.7307 59.2521 9.96827
13 2 47.6995 59.3459 10.0241
14 2 51.5811 59.3592 10.1801
15 2 55.5666 59.2746 9.83057
16 2 0.06862 3.96786 9.97856
17 2 3.98292 3.87352 10.0429
18 2 7.9308 3.87402 10.0039
19 2 11.885 4.02396 9.93938
20 2 15.8647 3.84443 9.9665
21 2 19.9585 3.91704 9.89629
22 2 23.8961 3.93381 9.84613
23 2 27.7758 3.97939 9.92945
24 2 31.9508 3.97032 9.72825
25 2 35.7511 3.99719 9.95541
26 2 39.7927 3.90587 10.073
27 2 43.8147 4.05774 9.85598
28 2 47.5732 3.74268 10.0016
29 2 51.5654 4.05577 10.0549
30 2 55.4954 3.94224 9.89971
31 2 0.0515055 7.86512 10.0613
32 2 3.90346 7.89215 9.99501
33 2 7.96294 7.90022 10.1258
34 2 11.861 7.98109 10.0344
35 2 15.8937 7.76218 9.90979
36 2 19.8184 8.009 9.93811
37 2 23.9578 8.08226 10.1236
38 2 27.8127 7.89787 10.0053
39 2 31.7698 7.9316 9.8007
40 2 35.6407 7.85568 9.79669
41 2 39.8192 7.89907 9.94228
42 2 43.7501 7.89683 9.94055
43 2 47.4749 7.84233 9.95173
44 2 51.7155 7.99492 9.87959
45 2 55.6082 7.78613 9.91961
46 2 0.0238022 11.8044 10.0905
47 2 3.85901 11.968 10.1148
48 2 7.95426 11.915 10.0812
49 2 12.0751 11.8332 10.0653
50 2 15.9943 11.8163 9.91935
51 2 19.8773 11.8645 10.0429
52 2 23.8302 12.0366 9.87655
53 2 27.8625 11.7021 9.92999
54 2 31.8958 11.7975 9.76557
55 2 35.7806 12.0912 9.97107
56 2 39.9044 11.9977 9.98225
57 2 43.8538 11.7861 9.79986
58 2 47.7617 11.7476 9.95757
59 2 51.4015 11.8922 9.98249
60 2 55.4525 11.7339 9.92976
61 2 0.117992 15.9996 9.90594
62 2 4.03917 15.9891 9.89926
63 2 8.18554 15.7844 9.93131
64 2 11.9509 15.6779 10.1416
65 2 15.8599 15.7694 9.83731
66 2 19.8167 15.9248 9.92767
67 2 24.0671 16.0386 9.86823
68 2 27.9301 15.8814 9.92786
69 2 31.6927 15.9091 10.0133
70 2 35.7044 15.7544 10.1612
71 2 39.8049 15.6495 10.0776
72 2 43.8413 15.8888 9.98229
73 2 47.6417 15.8349 10.0448
74 2 51.5393 15.9246 9.95515
75 2 55.3494 15.887 10.1662
76 2 -0.0286402 19.89 9.84027
77 2 4.04783 19.9189 9.73526
78 2 8.03516 19.7466 9.80201
79 2 11.9979 19.7215 9.92421
80 2 15.8494 20.0304 9.698
81 2 19.7259 19.8586 9.99588
82 2 23.7525 19.9234 9.94454
83 2 27.8954 19.6229 9.81966
84 2 31.9049 19.8416 9.95179
85 2 35.8752 19.8889 10.0142
86 2 39.8034 19.7973 9.92377
87 2 43.7226 19.9335 9.82998
88 2 47.6951 19.9466 9.98245
89 2 51.556 19.8995 9.83067
90 2 55.4457 19.8722 9.7062
91 2 0.0527618 23.824 10.0091
92 2 4.13658 23.8191 9.95909
93 2 8.12243 23.8324 9.94617
94 2 11.9729 23.7717 9.85801
95 2 15.869 23.582 9.79947
96 2 19.8609 23.8395 10.0065
97 2 23.7619 23.7163 9.91683
98 2 27.7821 23.8583 9.83345
99 2 32.0453 23.8355 9.90125
100 2 35.8321 23.7913 10.035
101 2 39.8586 23.8214 9.68872
102 2 43.6566 23.7543 9.90664
103 2 47.5488 23.8965 10.083
104 2 51.5663 23.6628 9.96905
105 2 55.3655 23.7643 9.86621
106 2 0.148275 27.8824 9.74936
107 2 4.10853 27.8346 9.89828
108 2 8.06142 27.7051 10.0265
109 2 12.0073 27.8425 9.98856
110 2 16.2442 27.6858 9.8688
111 2 20.0611 27.5813 10.0194
112 2 23.8254 27.7625 9.87739
113 2 27.6866 27.6648 9.75852
114 2 31.7983 27.7628 9.72458
115 2 35.6881 27.8311 9.88427
116 2 39.8726 27.6407 9.82962
117 2 43.5603 27.7166 9.88618
118 2 47.5629 27.7363 9.88179
119 2 51.5714 27.8286 9.81198
120 2 55.6167 27.7362 9.72414
121 2 59.4852 31.7783 9.88439
122 2 4.01746 31.7348 9.93627
123 2 8.23543 31.7576 9.82992
124 2 11.8178 31.697 9.74038
125 2 15.8449 31.6593 9.89648
126 2 20.0061 31.6844 9.98583
127 2 23.838 31.7541 9.97913
128 2 27.7891 31.7408 9.91583
129 2 32.0361 31.6171 10.0027
130 2 35.6699 31.6727 10.0853
131 2 39.751 31.6497 10.025
132 2 43.6125 31.7569 9.71227
133 2 47.5257 31.8472 9.83135
134 2 51.5641 31.7705 9.82577
135 2 55.4342 31.8545 9.94854
136 2 0.207963 35.7167 9.96596
137 2 4.3002 35.6796 9.94861
138 2 7.95414 35.4956 9.94647
139 2 11.9947 35.6496 9.97181
140 2 16.107 35.5842 10.0052
141 2 19.8941 35.54 9.96003
142 2 23.9118 35.6361 9.98918
143 2 27.9295 35.4776 9.91356
144 2 31.8429 35.7965 9.8648
145 2 35.8211 35.7165 9.87893
146 2 39.7737 35.6763 9.99058
147 2 43.4227 35.7561 9.90968
148 2 47.4324 35.7293 9.9106
149 2 51.5311 35.8092 10.04
150 2 55.5272 35.8244 9.6318
151 2 0.449953 39.5602 9.70394
152 2 4.0946 39.6196 10.0598
153 2 7.87286 39.5199 9.84171
154 2 12.0823 39.5205 10.1151
155 2 16.1344 39.7493 9.73647
156 2 20.014 39.4873 9.96815
157 2 23.974 39.6745 9.78924
158 2 27.9317 39.5487 9.89095
159 2 31.8847 39.5797 9.85761
160 2 35.8331 39.5456 9.81829
161 2 39.7469 39.4836 9.97083
162 2 43.6955 39.5485 9.95132
163 2 47.672 39.5882 9.76373
164 2 51.5702 39.6789 10.0063
165 2 55.6382 39.6667 9.87396
166 2 -0.00291788 43.5352 9.86304
167 2 4.02763 43.5963 10.1106
168 2 8.19552 43.7294 9.84438
169 2 12.1633 43.661 9.81088
170 2 16.1601 43.4415 9.93116
171 2 19.9243 43.6691 10.0022
172 2 23.7888 43.5756 9.77506
173 2 27.8689 43.4327 9.85357
174 2 31.995 43.6613 9.69277
175 2 35.7563 43.5197 9.87849
176 2 39.8055 43.4917 9.896
177 2 43.5163 43.8187 9.97534
178 2 47.649 43.7767 9.81026
179 2 51.5453 43.839 9.80827
180 2 55.5224 43.5298 9.93217
181 2 59.6291 47.4445 9.94562
182 2 4.23645 47.4699 10.0004
183 2 8.09929 47.6624 9.87702
184 2 11.9678 47.4915 9.99831
185 2 16.0845 47.4565 9.89337
186 2 20.1424 47.5626 9.86163
187 2 24.1512 47.3643 9.7993
188 2 28.0465 47.4704 9.84508
189 2 31.8743 47.43 9.81624
190 2 35.7672 47.4838 10.0302
191 2 39.7175 47.6091 10.0414
192 2 43.7785 47.4291 9.94215
193 2 47.4304 47.5557 9.96213
194 2 51.635 47.609 9.81811
195 2 55.66 47.556 9.83557
196 2 59.4648 51.5029 10.0925
197 2 4.0886 51.549 9.8995
198 2 7.9146 51.404 10.0314
199 2 11.8456 51.4836 10.0124
200 2 15.9939 51.2746 9.65279
201 2 19.9863 51.3036 9.78854
202 2 24.0833 51.3802 9.92076
203 2 27.8815 51.586 9.74177
204 2 32.0109 51.4245 10.0051
205 2 35.814 51.4446 9.79314
206 2 39.6511 51.6439 9.81368
207 2 43.5625 51.2987 10.0006
208 2 47.4656 51.5154 9.9749
209 2 51.6644 51.3508 9.77329
210 2 55.5028 51.4816 9.81854
211 2 -0.0370255 55.5699 10.0171
212 2 3.83586 55.5302 9.9048
213 2 7.92802 55.3813 9.86861
214 2 11.9542 55.4476 10.0277
215 2 16.1249 55.1957 9.95968
216 2 19.8794 55.4842 9.74111
217 2 23.793 55.3103 9.95262
218 2 27.9284 55.5524 9.91023
219 2 31.7653 55.502 9.95477
220 2 35.6872 55.5187 10.0073
221 2 39.5237 55.5565 9.88317
222 2 43.7152 55.6568 9.76283
223 2 47.6828 55.2858 9.8485
224 2 51.5126 55.2673 9.973
225 2 55.5633 55.27 9.89383
226 2 59.4804 59.5217 13.7729
227 2 4.00654 -0.0907904 13.9319
228 2 8.0294 0.116505 14.0945
229 2 11.9665 -0.0934587 13.6001
230 2 15.9146 0.0235911 13.8418
231 2 19.977 59.3727 13.8206
232 2 23.7994 0.0319483 13.8553
233 2 27.7381 0.054914 13.8848
234 2 31.8703 -0.110488 13.6848
235 2 35.7881 0.153634 13.9562
236 2 39.6607 -0.0235369 13.9091
237 2 43.8423 0.0734073 13.8887
238 2 47.7401 59.3366 13.8861
239 2 51.608 59.3894 13.9825
240 2 55.3927 0.09697 13.9651
241 2 0.047138 3.94582 13.9394
242 2 3.99624 4.04201 13.9499
243 2 8.0962 4.02307 13.7894
244 2 12.0161 3.89208 13.8856
245 2 15.8632 3.91626 14.0273
246 2 19.8536 3.9616 13.6379
247 2 23.8209 3.95425 13.8762
248 2 27.4493 3.97422 14.0394
249 2 31.7838 3.75894 13.9676
250 2 35.7425 4.09095 13.9074
251 2 39.8642 4.07059 13.899
252 2 43.6652 3.91469 14.0162
253 2 47.7191 4.0474 13.8099
254 2 51.5224 4.2219 13.9177
255 2 55.5946 4.21446 13.9807
256 2 0.335921 7.73632 14.0274
257 2 4.0336 8.06508 14.112
258 2 8.00473 7.8123 13.7499
259 2 12.2263 7.93711 13.9881
260 2 15.7501 7.89004 13.8505
261 2 20.0008 7.93577 13.9761
262 2 23.8764 7.97499 13.7814
263 2 27.8389 7.75005 13.7794
264 2 31.9078 8.08134 13.8967
265 2 35.8452 7.85082 13.7467
266 2 39.7733 7.98945 13.7107
267 2 43.6802 8.01921 13.9199
268 2 47.6066 7.84609 14.0508
269 2 51.5675 7.91734 14.0231
270 2 55.5503 7.992 13.9801
271 2 0.118377 11.7536 13.8227
272 2 4.08418 11.9995 14.0462
273 2 7.98576 11.929 13.9609
274 2 11.9949 11.7477 13.9548
275 2 16.0444 11.8939 14.0223
276 2 19.9677 11.9695 13.8744
277 2 23.9843 12.0261 13.803
278 2 27.8495 11.8913 13.9651
279 2 31.6293 11.8222 13.9113
280 2 35.6419 11.9536 13.8257
281 2 39.611 11.7355 13.9212
282 2 43.6002 11.958 13.9633
283 2 47.4256 11.7046 13.9619
284 2 51.594 11.7977 13.9856
285 2 55.5232 11.8371 13.889
286 2 0.0399513 16.0219 14.0096
287 2 4.19573 16.0298 13.7734
288 2 8.1689 15.7749 13.9951
289 2 12.1408 16.1207 13.7698
290 2 15.895 15.8746 13.962
291 2 19.9273 15.9851 13.9218
292 2 24.0049 16.0217 13.9344
293 2 27.8552 15.8751 13.984
294 2 31.9462 15.8743 13.882
295 2 35.7661 15.8023 13.9947
296 2 39.7737 15.8455 13.9933
297 2 43.8057 15.9737 14.0094
298 2 47.5439 15.8673 13.9333
299 2 51.4573 15.8499 14.1776
300 2 55.6405 15.7535 13.9131
301 2 0.0375099 20.0161 13.9678
302 2 4.12799 19.7435 13.7974
303 2 8.08909 19.8922 13.9669
304 2 12.0745 19.9353 13.6865
305 2 15.7493 19.8317 14.012
306 2 19.8436 19.7541 13.9611
307 2 24.0029 19.7797 13.7221
308 2 28.0261 19.9634 13.9017
309 2 31.9109 19.9831 13.9076
310 2 35.817 19.7373 13.9199
311 2 39.5676 19.9529 13.8198
312 2 43.606 19.8219 14.0319
313 2 47.6058 19.9754 13.8483
314 2 51.5659 19.8514 13.8519
315 2 55.6196 19.8517 13.902
316 2 0.177093 23.9546 13.8662
317 2 4.01717 23.7713 13.8883
318 2 8.05339 23.73 13.9415
319 2 11.7908 23.829 13.9431
320 2 15.8706 23.7996 13.865
321 2 19.7084 23.8183 14.0248
322 2 23.7023 23.7385 13.9703
323 2 27.707 23.9709 13.732
324 2 31.8226 23.8265 13.8301
325 2 35.7628 23.6622 13.9025
326 2 39.5955 23.8555 14.0388
327 2 43.8083 23.9944 13.8473
328 2 47.5755 23.9755 13.8887
329 2 51.3598 23.9036 13.9167
330 2 55.3136 23.7089 13.8468
331 2 59.3762 27.8646 13.9221
332 2 4.05227 27.7354 13.9302
333 2 8.01866 27.7971 13.8935
334 2 11.8537 27.7753 13.8295
335 2 15.9515 27.8301 13.7593
336 2 20.0657 27.646 13.9485
337 2 23.866 27.8673 13.8025
338 2 28.0324 27.8036 13.7277
339 2 31.7441 27.506 13.7654
340 2 35.7859 27.834 13.9749
341 2 39.76 27.7608 13.8089
342 2 43.6124 27.9545 13.8267
343 2 47.6787 27.8819 13.8756
344 2 51.6483 27.7661 13.8511
345 2 55.6549 27.8642 13.7177
346 2 0.133573 31.8038 13.9014
347 2 4.00861 31.7005 13.8182
348 2 7.97644 31.7055 13.8138
349 2 11.9124 31.889 13.8181
350 2 16.0646 31.8018 13.844
351 2 19.8342 31.6091 14.0495
352 2 23.9974 31.6618 13.9379
353 2 28.1419 31.7754 13.6479
354 2 31.9739 31.7045 13.9819
355 2 35.8768 31.7672 13.8799
356 2 39.8141 31.8066 13.8674
357 2 43.6316 31.7171 13.8155
358 2 47.5559 31.4666 13.8347
359 2 51.6056 31.6822 14.0206
360 2 55.5944 31.7924 13.7539
361 2 0.165338 35.6444 13.8903
362 2 3.9824 35.9302 13.7372
363 2 8.00458 35.7774 13.8963
364 2 11.9569 35.8262 13.8555
365 2 15.8866 35.9601 13.8728
366 2 19.852 35.4772 13.831
367 2 23.9272 35.7162 13.8736
368 2 28.1537 35.5406 13.8162
369 2 31.917 35.7703 13.7625
370 2 35.8672 35.7336 13.8887
371 2 39.8437 35.5317 14.1234
372 2 43.4419 35.684 14.0107
373 2 47.6534 35.6792 14.0234
374 2 51.5629 35.8689 13.8968
375 2 55.3713 35.7335 13.9668
376 2 -0.0299399 39.5106 13.8966
377 2 4.15599 39.8044 13.8776
378 2 8.03019 39.718 13.9183
379 2 12.0966 39.7203 13.8948
380 2 16.0055 39.5996 13.8679
381 2 20.0848 39.8054 13.905
382 2 23.9699 39.5313 13.99
383 2 27.8037 39.6398 13.8187
384 2 31.8908 39.7713 13.6915
385 2 35.5764 39.6725 13.8895
386 2 39.7422 39.6535 13.9685
387 2 43.7009 39.6131 13.7685
388 2 47.4528 39.5233 13.7717
389 2 51.6015 39.8969 13.8142
390 2 55.537 39.6035 13.8095
391 2 -0.038467 43.6958 13.9901
392 2 4.19544 43.5921 13.9199
393 2 8.17891 43.5806 13.9638
394 2 11.9818 43.5719 13.8188
395 2 16.0389 43.6008 13.8598
396 2 20.0553 43.7534 14.0016
397 2 23.7659 43.67 13.99
398 2 27.8966 43.7567 13.8975
399 2 31.8427 43.4796 13.7185
400 2 35.9377 43.4142 13.904
401 2 39.7371 43.6646 14.0011
402 2 43.4934 43.6513 13.751
403 2 47.6476 43.7911 13.8847
404 2 51.725 43.4665 14.0478
405 2 55.6063 43.6252 13.8921
406 2 59.5375 47.6222 13.8438
407 2 4.22157 47.4801 14.0153
408 2 8.25241 47.7046 13.8575
409 2 11.9931 47.7896 13.7754
410 2 15.6671 47.5116 13.8828
411 2 19.9343 47.5771 13.8715
412 2 23.787 47.4782 13.9212
413 2 27.8146 47.664 13.9005
414 2 31.7317 47.7107 13.8468
415 2 35.5636 47.4806 13.8447
416 2 39.4056 47.6542 13.8049
417 2 43.5881 47.4208 14.099
418 2 47.6917 47.6126 13.8769
419 2 51.6354 47.484 13.788
420 2 55.4704 47.6207 13.8758
421 2 0.21142 51.3896 13.8297
422 2 4.22351 51.5292 13.9009
423 2 7.98467 51.732 13.9572
424 2 12.0705 51.6092 14.0537
425 2 15.8275 51.5766 13.6836
426 2 19.8083 51.4136 13.9318
427 2 23.7056 51.5737 13.7913
428 2 27.8678 51.5041 13.827
429 2 31.7211 51.405 13.7309
430 2 35.5826 51.4013 13.9979
431 2 39.6663 51.5629 13.7974
432 2 43.666 51.5234 14.0036
433 2 47.5551 51.2836 14.0148
434 2 51.7492 51.386 13.6577
435 2 55.6952 51.365 13.9831
436 2 -0.243928 55.4978 13.9617
437 2 3.92365 55.5655 13.9624
438 2 8.04258 55.5677 13.9112
439 2 11.9498 55.3816 14.1596
440 2 15.8683 55.3202 13.9022
441 2 19.9373 55.4176 13.786
442 2 23.9199 55.4661 13.9753
443 2 27.795 55.3008 13.972
444 2 31.7891 55.4681 13.8772
445 2 35.7036 55.4839 13.8579
446 2 39.8119 55.5486 13.8265
447 2 43.7562 55.4347 13.9209
448 2 47.4989 55.2191 13.8533
449 2 51.7039 55.423 13.9247
450 2 55.5506 55.456 14.0213
451 2 59.5001 0.19422 18.0181
452 2 4.15515 59.2954 17.8289
453 2 7.86637 0.0478114 17.9524
454 2 11.846 -0.144216 17.8635
455 2 15.6902 59.2837 17.8789
456 2 19.7592 0.147597 17.7098
457 2 23.8739 59.3346 17.9361
458 2 27.9614 0.0662668 17.8224
459 2 31.5978 0.0449377 17.7837
460 2 35.7474 0.120409 18.0758
461 2 39.8424 0.103402 17.9471
462 2 43.6277 0.151986 17.6898
463 2 47.2735 -0.11967 17.8769
464 2 51.6365 0.231515 17.7973
465 2 55.5422 0.083592 18.0925
466 2 0.123362 4.11818 18.1051
467 2 3.90416 3.93052 17.968
468 2 8.01991 4.0798 17.957
469 2 11.8719 4.10009 17.8689
470 2 15.7388 3.88945 18.003
471 2 19.6822 3.92845 17.8639
472 2 23.7354 4.04698 17.9329
473 2 27.8194 3.9654 17.8396
474 2 31.7205 4.02559 17.9191
475 2 35.6743 4.06172 17.8753
476 2 39.5153 4.00473 18.0396
477 2 43.7029 4.10376 17.6604
478 2 47.6457 3.87342 17.944
479 2 51.7028 4.06708 18.0708
480 2 55.4544 4.12222 17.8322
481 2 59.4618 8.10803 18.1305
482 2 4.09287 8.06656 17.9905
483 2 7.90628 7.78423 17.9845
484 2 11.9331 8.03047 17.8406
485 2 16.1315 7.96778 17.8178
486 2 19.9138 8.08923 17.7027
487 2 23.6191 8.14046 17.7435
488 2 27.6596 7.98955 17.7721
489 2 31.5755 8.075 17.6668
490 2 35.5158 7.9113 17.8277
491 2 39.6945 7.84763 17.9207
492 2 43.647 7.82269 17.8503
493 2 47.5619 8.10959 18.0761
494 2 51.3897 8.16161 17.9607
495 2 55.6303 7.99762 17.8234
496 2 59.4198 12.0262 17.7531
497 2 4.09449 12.0691 17.976
498 2 8.24292 11.7652 17.8104
499 2 12.0789 12.0993 18.0428
500 2 15.9304 12.1197 17.7359
501 2 19.9018 12.0658 17.8931
502 2 23.9945 11.8953 17.8385
503 2 27.7903 12.0338 17.8855
504 2 31.6434 11.9392 17.9397
505 2 35.5351 11.8993 17.9199
506 2 39.6408 11.8597 17.7875
507 2 43.5407 12.0142 17.8247
508 2 47.5176 12.1117 18.0266
509 2 51.4041 11.7786 18.0822
510 2 55.3989 11.9185 18.0905
511 2 59.3961 15.8925 17.9071
512 2 4.21558 15.8975 17.7259
513 2 8.0025 15.9131 17.9348
514 2 12.0386 15.9561 17.9234
515 2 16.0087 15.9255 17.8762
516 2 19.7582 15.964 17.9262
517 2 23.9482 16.0745 17.8192
518 2 27.7478 15.977 17.9169
519 2 31.8227 15.9361 17.6128
520 2 35.8618 15.8504 17.7362
521 2 39.6015 15.9353 17.9494
522 2 43.4696 16.0042 17.926
523 2 47.6767 15.9157 17.836
524 2 51.4209 15.9609 17.9426
525 2 55.4258 16.1075 17.8447
526 2 59.4453 19.7676 17.8493
527 2 3.84977 19.9411 17.8129
528 2 7.92943 19.8612 17.9091
529 2 12.0102 19.81 17.8595
530 2 15.9734 19.8722 17.8998
531 2 19.7545 19.7996 17.8008
532 2 23.8204 19.9647 17.8789
533 2 27.8278 19.7942 17.9332
534 2 31.8586 19.8924 17.9958
535 2 35.7279 19.808 17.8114
536 2 39.6909 20.0107 17.8206
537 2 43.6429 19.8261 17.942
538 2 47.7043 19.7821 17.832
539 2 51.7324 19.9115 17.9205
540 2 55.4069 20.0805 17.8989
541 2 0.0743465 23.8215 17.6443
542 2 4.33194 23.821 17.9273
543 2 8.1381 23.6208 18.0256
544 2 11.9172 23.7844 18.0194
545 2 15.7727 23.8138 17.8937
546 2 19.7327 23.901 18.0057
547 2 23.7576 23.7899 17.7452
548 2 27.6869 23.8783 17.7841
549 2 31.7131 23.9509 17.9306
550 2 35.716 23.8406 17.9189
551 2 39.5856 23.7328 17.8907
552 2 43.7279 23.8016 17.7718
553 2 47.5037 23.6882 17.8375
554 2 51.3375 23.9196 17.8677
555 2 55.6185 23.9705 17.9263
556 2 59.7047 27.8553 17.7956
557 2 4.11375 27.7366 17.8437
558 2 7.9816 27.8701 17.7428
559 2 11.9994 27.9677 17.7047
560 2 15.782 27.8088 17.6833
561 2 19.7938 27.9761 17.6787
562 2 23.7959 28.0606 17.7606
563 2 27.668 27.8674 18.0599
564 2 31.7424 27.7316 17.6589
565 2 35.6334 27.9084 17.7602
566 2 39.7013 27.8552 17.7222
567 2 43.6726 27.8404 17.7962
568 2 47.7043 27.875 18.057
569 2 51.6779 27.7398 17.879
570 2 55.5111 27.9655 17.9863
571 2 0.0420887 31.8802 17.7978
572 2 3.8749 31.8625 17.8161
573 2 7.79538 31.8832 17.8842
574 2 11.9918 31.9674 17.8141
575 2 15.8622 31.9423 17.9099
576 2 19.9121 31.9724 17.8257
577 2 23.9527 31.9185 17.7792
578 2 28.0357 31.8851 17.8152
579 2 31.9738 31.8327 17.7718
580 2 35.8137 31.7314 17.9394
581 2 39.8621 31.8771 17.7724
582 2 43.9273 31.6859 17.9276
583 2 47.6697 31.8509 17.8106
584 2 51.6174 31.9352 17.866
585 2 55.5062 31.9546 17.5366
586 2 0.174194 35.8061 17.8977
587 2 4.0907 35.6318 17.7394
588 2 8.06247 35.8428 17.8373
589 2 11.9065 35.6595 17.8179
590 2 15.947 35.7075 18.0023
591 2 19.8656 35.8869 17.8401
592 2 24.0812 35.5385 17.6135
593 2 27.9905 35.7896 17.9296
594 2 31.823 35.8399 17.8165
595 2 35.7507 35.7391 17.9826
596 2 39.7111 35.6598 17.9227
597 2 43.7333 35.832 17.9452
598 2 47.7004 35.9489 17.8874
599 2 51.6437 35.7951 17.9096
600 2 55.6014 35.7013 17.9086
601 2 0.0733111 39.6186 17.87
602 2 4.01433 39.8152 17.8576
603 2 7.85064 39.7417 17.8716
604 2 12.2383 39.8389 17.8435
605 2 16.0049 39.7136 17.7702
606 2 20.0553 39.617 17.7722
607 2 23.9268 39.682 18.0307
608 2 27.7486 39.6167 17.8386
609 2 31.9446 39.6034 18.0007
610 2 35.5868 39.6852 17.9764
611 2 39.4488 39.4357 17.8362
612 2 43.5847 39.8899 17.816
613 2 47.455 39.9032 17.8296
614 2 51.5716 39.6266 17.9402
615 2 55.531 39.6384 17.8385
616 2 0.046957 43.7035 17.9154
617 2 4.14461 43.7048 17.8571
618 2 7.94437 43.6037 17.9059
619 2 12.0084 43.7745 17.7534
620 2 16.0345 43.5508 17.9365
621 2 19.9654 43.6329 17.9002
622 2 24.0795 43.6997 17.9234
623 2 27.8732 43.5636 17.6954
624 2 31.5062 43.4909 17.6955
625 2 35.5828 43.6229 17.8596
626 2 39.6123 43.7022 18.0257
627 2 43.6036 43.6398 17.8166
628 2 47.8426 43.6142 17.8189
629 2 51.5005 43.7202 17.7535
630 2 55.5927 43.56 17.9359
631 2 0.237816 47.6443 17.9486
632 2 3.93917 47.5411 18.0412
633 2 8.02565 47.5535 17.7786
634 2 11.9677 47.5043 17.7619
635 2 15.8094 47.5515 17.9461
636 2 19.8298 47.5381 17.8171
637 2 23.8944 47.6312 17.96
638 2 27.7977 47.585 17.9172
639 2 31.7127 47.66 18.0076
640 2 35.4416 47.6396 17.9322
641 2 39.4581 47.4933 17.9086
642 2 43.4011 47.5197 17.9655
643 2 47.323 47.4202 17.913
644 2 51.7554 47.6073 17.9065
645 2 55.5158 47.4812 17.8504
646 2 -0.00416654 51.4829 17.9565
647 2 4.04988 51.4835 17.8658
648 2 7.88705 51.4995 17.9877
649 2 11.8281 51.5752 17.9828
650 2 15.8553 51.4793 17.8424
651 2 19.956 51.3201 17.8402
652 2 23.6954 51.605 18.0307
653 2 27.6658 51.5323 17.5513
654 2 31.6186 51.678 17.8281
655 2 35.6794 51.5783 17.9207
656 2 39.6063 51.6321 18.0194
657 2 43.3576 51.6065 17.6736
658 2 47.5971 51.4935 18.1012
659 2 51.5098 51.4921 18.0034
660 2 55.287 51.667 17.8705
661 2 -0.0137749 55.5005 17.8572
662 2 3.9737 55.2757 17.8734
663 2 7.98235 55.4259 17.8315
664 2 11.8458 55.3314 18.1449
665 2 15.7649 55.3684 17.9396
666 2 19.8341 55.3375 17.903
667 2 23.7282 55.3624 17.8644
668 2 27.9076 55.3889 17.8756
669 2 31.7503 55.5996 17.7227
670 2 35.8441 55.3979 17.94
671 2 39.656 55.5894 17.739
672 2 43.3732 55.636 18.039
673 2 47.6414 55.4418 17.865
674 2 51.5487 55.4359 18.0319
675 2 55.4137 55.5435 17.8976
676 2 0.0775788 0.132633 21.9193
677 2 3.87517 -0.149707 21.7042
678 2 7.70952 0.245668 21.8504
679 2 11.8647 0.116457 21.8087
680 2 15.8265 0.000419815 21.996
681 2 19.7898 0.0889632 21.7979
682 2 23.8697 0.102678 21.891
683 2 27.8387 0.00824394 21.7329
684 2 31.7102 0.245363 21.916
685 2 35.6645 0.117232 22.0807
686 2 39.5806 -0.0126187 21.7598
687 2 43.434 0.0630594 21.6362
688 2 47.4435 -0.0615159 21.8171
689 2 51.4839 59.585 21.8412
690 2 55.6697 0.130429 22.016
691 2 0.032514 3.94588 22.1634
692 2 3.91514 4.07088 22.0064
693 2 7.91502 4.02168 21.7928
694 2 11.9347 4.23342 21.8222
695 2 16.0549 3.96734 21.7654
696 2 19.9136 4.17907 21.7951
697 2 23.7309 3.98942 21.7743
698 2 27.5819 4.05651 21.6059
699 2 31.6155 3.9657 21.9252
700 2 35.4964 3.85998 21.9219
701 2 39.5105 4.13254 21.9885
702 2 43.563 4.15261 21.8813
703 2 47.7372 4.11754 21.8557
704 2 51.5384 4.05474 21.7905
705 2 55.4374 4.10615 21.8813
706 2 59.441 8.10169 21.7367
707 2 3.96886 8.00303 21.7649
708 2 7.89589 8.02187 21.8906
709 2 12.0891 7.96785 21.7614
710 2 15.771 7.96084 21.8073
711 2 19.7141 7.8697 21.8106
712 2 23.7073 8.01212 21.8569
713 2 27.6631 7.78207 21.8467
714 2 31.6663 7.94706 21.8068
715 2 35.4018 8.09417 21.7398
716 2 39.6284 8.08362 21.5214
717 2 43.7145 8.19259 21.8003
718 2 47.4631 7.91324 21.8994
719 2 51.6773 7.94486 21.9209
720 2 55.3448 7.95811 21.9219
721 2 0.0037114 12.0992 21.8912
722 2 4.06472 11.9491 21.7271
723 2 8.03865 12.1809 21.6934
724 2 11.9083 11.8742 21.9496
725 2 15.9633 12.0621 21.8149
726 2 20.024 12.0375 21.888
727 2 23.7146 11.9195 21.8474
728 2 27.7621 11.9334 21.6125
729 2 31.6705 12.2432 22.0675
730 2 35.6821 11.9736 21.7915
731 2 39.7222 11.9924 21.6289
732 2 43.4905 12.1561 21.8595
733 2 47.259 11.9393 21.8168
734 2 51.437 12.0347 21.8761
735 2 55.262 11.8959 21.7738
736 2 -0.0349076 15.9823 21.8004
737 2 3.98109 15.7647 21.8131
738 2 7.81847 15.9629 21.9073
739 2 11.8485 16.045 21.8594
740 2 15.9159 15.9545 21.9242
741 2 19.8798 15.8826 21.8646
742 2 23.7906 16.1778 22.0013
743 2 27.8708 15.9755 21.9368
744 2 31.9522 15.9404 21.8413
745 2 35.7102 15.966 21.7082
746 2 39.594 15.9682 21.9275
747 2 43.4898 16.1465 21.8275
748 2 47.6276 15.9036 21.9819
749 2 51.6292 15.7949 21.8744
750 2 55.5282 15.8967 21.8245
751 2 59.8512 19.8299 21.7412
752 2 4.11873 19.7474 21.9038
753 2 7.81704 19.9806 21.7374
754 2 11.7131 19.7919 22.0006
755 2 15.7203 20.028 21.8138
756 2 19.8935 20.0777 21.805
757 2 23.7742 20.0351 21.9701
758 2 27.8087 19.956 21.7173
759 2 31.7335 19.7605 21.8752
760 2 35.7195 19.8713 21.6975
761 2 39.7112 19.9714 21.8832
762 2 43.6529 20.0032 21.6731
763 2 47.5874 19.9505 21.9011
764 2 51.4564 19.8153 21.887
765 2 55.453 20.1211 21.6806
766 2 59.4631 24.0237 21.6771
767 2 4.01191 23.9686 21.8392
768 2 8.12078 23.9452 21.893
769 2 11.7917 23.9681 21.9185
770 2 15.8449 23.8606 21.9545
771 2 19.7918 23.9889 21.9257
772 2 23.8296 23.9123 21.7021
773 2 27.533 23.8358 21.8256
774 2 31.6733 23.7315 21.8172
775 2 35.5589 23.896 21.7912
776 2 39.415 23.8529 21.9584
777 2 43.5461 24.0065 21.8544
778 2 47.2898 23.8755 21.7322
779 2 51.4452 23.7401 21.8471
780 2 55.6506 23.862 21.7404
781 2 59.5107 27.9174 21.6862
782 2 4.23357 27.8684 21.8045
783 2 8.03356 27.8065 21.9113
784 2 11.8576 28.1387 21.6111
785 2 15.826 27.7297 21.5762
786 2 19.7359 27.8972 21.5978
787 2 23.495 28.027 21.6415
788 2 27.8415 28.0264 21.7274
789 2 31.5547 27.6542 21.7158
790 2 35.4961 27.862 21.6922
791 2 39.509 27.971 21.8053
792 2 43.5954 27.8954 21.6566
793 2 47.4565 27.9089 21.8776
794 2 51.5427 27.6962 21.8429
795 2 55.4661 27.979 21.7138
796 2 59.2739 31.7377 21.954
797 2 4.05711 31.9544 21.9559
798 2 7.89354 31.8557 21.9395
799 2 11.852 32.0505 21.9511
800 2 15.697 31.9103 21.9656
801 2 19.7769 31.8489 21.6601
802 2 23.7297 31.695 21.8012
803 2 27.7565 31.7357 21.7727
804 2 31.6102 31.8304 21.6072
805 2 35.5515 31.4987 21.8369
806 2 39.5939 31.6801 21.8563
807 2 43.5174 31.9592 21.6186
808 2 47.5665 31.9769 21.945
809 2 51.5665 31.8008 21.9682
810 2 55.5725 31.7158 21.8735
811 2 59.5162 35.7436 21.7965
812 2 3.67387 35.8099 21.6172
813 2 7.87483 35.9836 21.7544
814 2 11.7832 35.8594 21.8059
815 2 15.8282 35.9029 22.012
816 2 19.9159 35.8863 21.9456
817 2 23.7393 35.5732 21.9058
818 2 27.4886 35.5153 21.9763
819 2 31.5839 35.5666 22.0005
820 2 35.4923 35.6051 21.9532
821 2 39.5416 35.6307 21.9679
822 2 43.4259 35.8124 21.8562
823 2 47.5455 35.7631 21.7301
824 2 51.4382 35.8682 21.7129
825 2 55.3594 35.71 21.9965
826 2 -0.0183616 39.774 21.772
827 2 4.23606 39.6503 21.8241
828 2 7.99208 39.8447 21.7631
829 2 12.1052 39.8704 21.8096
830 2 16.0596 39.8901 21.794
831 2 19.9566 39.951 21.8168
832 2 23.8099 39.6309 21.9591
833 2 27.5779 39.4368 21.794
834 2 31.6039 39.5268 22.108
835 2 35.4303 39.598 21.7878
836 2 39.5339 39.6041 21.7462
837 2 43.3375 39.8328 21.7834
838 2 47.5116 39.684 21.798
839 2 51.6561 39.6866 21.824
840 2 55.4607 39.7605 21.8511
841 2 0.132091 43.7636 22.177
842 2 3.82406 43.5068 21.847
843 2 8.12286 43.6859 21.7919
844 2 12.0047 43.6948 21.8065
845 2 15.85 43.6849 21.7917
846 2 19.9844 43.5788 22.0001
847 2 24.0221 43.4105 21.8802
848 2 27.8091 43.5438 22.0332
849 2 31.6409 43.5579 21.9335
850 2 35.72 43.7071 21.8987
851 2 39.564 43.6419 21.799
852 2 43.5924 43.7777 21.7537
853 2 47.6186 43.5775 21.8145
854 2 51.523 43.5589 21.7457
855 2 55.4475 43.822 21.9049
856 2 59.3288 47.6594 21.7523
857 2 4.05856 47.4607 21.8479
858 2 8.05959 47.5463 22.1152
859 2 11.9593 47.7039 21.7784
860 2 15.7841 47.6486 21.9652
861 2 19.8484 47.509 21.9127
862 2 23.7567 47.6342 21.9148
863 2 27.7576 47.5768 21.9177
864 2 31.5882 47.4789 21.8532
865 2 35.6371 47.5484 21.7739
866 2 39.5788 47.514 21.798
867 2 43.5836 47.5639 21.9138
868 2 47.348 47.4713 21.7716
869 2 51.5535 47.664 21.7551
870 2 55.4616 47.5184 21.8746
871 2 -0.00661663 51.5828 21.8591
872 2 4.09633 51.5 22.026
873 2 7.97241 51.5887 21.8948
874 2 11.9932 51.5743 21.7888
875 2 15.8029 51.6376 21.9518
876 2 19.7236 51.5302 21.8765
877 2 23.6523 51.4658 21.871
878 2 27.7192 51.665 21.8782
879 2 31.6687 51.5048 21.9345
880 2 35.5972 51.4282 22.1179
881 2 39.4445 51.4097 21.8438
882 2 43.5201 51.6463 21.6947
883 2 47.4308 51.5894 21.7155
884 2 51.497 51.5051 21.9846
885 2 55.4631 51.474 21.8256
886 2 -0.0691858 55.7115 21.9578
887 2 4.01735 55.3918 21.9586
888 2 8.00411 55.3784 22.0323
889 2 11.876 55.4909 21.8348
890 2 16.0009 55.4878 21.8771
891 2 19.9337 55.7043 21.7416
892 2 23.9021 55.4879 21.8619
893 2 27.6315 55.6061 21.8309
894 2 31.5368 55.6322 21.894
895 2 35.6047 55.2956 21.7986
896 2 39.6719 55.5004 21.8494
897 2 43.6002 55.3923 21.994
898 2 47.3631 55.3123 21.967
899 2 51.3895 55.6028 21.9451
900 2 55.2876 55.386 21.8926
901 2 59.418 0.174562 26.0683
902 2 4.08327 -0.0428878 25.9469
903 2 7.89099 0.0590174 25.9872
904 2 11.9035 0.182563 25.8811
905 2 15.6462 0.150964 25.925
906 2 19.4642 0.149713 25.7918
907 2 23.5886 -0.0344145 25.9199
908 2 27.6782 0.0117897 25.9205
909 2 31.4652 0.149257 25.9492
910 2 35.3109 0.019965 25.949
911 2 39.6398 0.114642 25.73
912 2 43.3875 -0.0689202 25.7792
913 2 47.4503 0.0542789 25.988
914 2 51.2496 0.0133573 25.996
915 2 55.3038 0.151849 25.8537
916 2 0.0371878 4.08422 25.9495
917 2 3.78194 4.13912 25.8738
918 2 7.99153 3.95173 26.069
919 2 11.8864 3.96534 25.6703
920 2 15.9992 3.99896 25.7772
921 2 19.9408 3.9861 25.6789
922 2 23.6765 3.98582 25.9484
923 2 27.7626 4.06261 25.8414
924 2 31.5952 4.1393 25.8646
925 2 35.6677 3.78979 25.7191
926 2 39.7337 3.94619 25.9409
927 2 43.5284 3.9523 25.7061
928 2 47.4769 3.86001 25.562
929 2 51.5023 4.03653 25.7687
930 2 55.3583 3.90294 26.0188
931 2 -0.22747 8.00227 25.7933
932 2 3.8793 8.18038 25.8589
933 2 7.86647 7.97788 25.6057
934 2 11.8291 8.06766 25.8366
935 2 15.823 7.89006 25.7764
936 2 19.6771 8.07047 25.6969
937 2 23.668 7.92474 25.8146
938 2 27.5841 8.03207 25.7514
939 2 31.5051 8.03737 25.5993
940 2 35.515 7.95224 25.8491
941 2 39.5191 7.94376 25.5782
942 2 43.2369 8.06765 25.6712
943 2 47.3651 8.08763 25.888
944 2 51.4256 7.9616 25.8853
945 2 55.3662 7.84768 25.9206
946 2 -0.148614 11.9983 25.9903
947 2 3.97333 11.9236 25.7339
948 2 7.78124 11.8024 25.7462
949 2 11.7193 11.7569 25.7892
950 2 15.911 11.9101 25.7001
951 2 19.893 11.978 25.8856
952 2 23.9904 12.0363 25.5288
953 2 27.6669 11.9834 25.7992
954 2 31.6278 11.8908 25.9462
955 2 35.6571 11.8525 25.7969
956 2 39.487 12.1704 25.7336
957 2 43.3188 11.9024 25.8189
958 2 47.5358 11.952 25.71
959 2 51.7146 12.1053 25.6739
960 2 55.4167 12.1183 25.9085
961 2 59.1846 15.9146 25.6471
962 2 3.85806 15.7936 25.9495
963 2 7.66092 15.8181 25.8478
964 2 11.6287 15.6862 25.8436
965 2 15.8814 16.0045 25.8109
966 2 19.784 15.842 25.7634
967 2 23.6366 16.0164 25.8388
968 2 27.7256 15.8189 25.8982
969 2 31.569 15.8304 25.9424
970 2 35.7755 15.8251 26.118
971 2 39.5584 15.9708 25.8662
972 2 43.6177 15.9272 25.8432
973 2 47.3913 16.0927 25.7795
974 2 51.4884 16.3433 25.7741
975 2 55.4013 16.0959 25.7111
976 2 59.3306 20.1119 25.6921
977 2 3.84076 20.0824 25.8172
978 2 7.8244 19.9008 25.8098
979 2 11.7702 19.5503 25.9295
980 2 15.8564 19.8289 25.6261
981 2 19.8234 19.8971 25.8356
982 2 23.5574 20.0187 25.9694
983 2 27.6456 20.1379 25.707
984 2 31.5254 19.9744 26.021
985 2 35.4621 19.9096 25.7214
986 2 39.6233 19.7946 25.9129
987 2 43.503 19.8901 25.804
988 2 47.264 19.8976 25.8073
989 2 51.5523 20.1072 25.8796
990 2 55.2724 20.0229 25.6967
991 2 59.3711 23.8917 25.6999
992 2 4.03343 24.0034 25.9667
993 2 7.8926 23.8664 25.8249
994 2 12.0027 23.8529 25.8971
995 2 15.7542 23.944 25.6689
996 2 19.7778 23.8145 25.9585
997 2 23.764 24.0343 25.7631
998 2 27.6634 23.994 25.6971