ITEM: TIMESTEP
1530900
ITEM: NUMBER OF ATOMS
16875
ITEM: BOX BOUNDS xy xz yz pp pp pp
0.0000000000000000e+00 5.9369999999999997e+01 0.0000000000000000e+00
0.0000000000000000e+00 5.9369999999999997e+01 0.0000000000000000e+00
3.3895852710657692e-01 6.0027460472895889e+01 0.0000000000000000e+00
ITEM: ATOMS id type x y z
1 2 59.2619 59.3925 10.1151
2 2 4.08204 59.3464 10.1452
3 2 7.8953 59.4335 10.2015
4 2 11.9881 59.3921 9.9774
5 2 15.9929 -0.142318 9.894
6 2 19.7634 59.221 10.0671
7 2 23.7542 59.1733 9.85735
8 2 27.8853 59.2522 10.0852
9 2 31.7994 59.4995 10.0594
10 2 35.7133 59.3702 9.84963
11 2 39.7208 59.2881 10.2054
12 2 43.578 59.4442 9.92633
13 2 47.5436 59.4074 9.87862
14 2 51.4582 59.1472 9.98671
15 2 55.4918 59.4515 10.2309
16 2 0.186171 3.93336 10.0958
17 2 3.81022 4.14972 9.87284
18 2 7.90656 3.99295 10.2241
19 2 11.935 3.92948 10.0699
20 2 16.0641 3.74972 9.82903
21 2 19.9596 3.59193 9.81703
22 2 23.6094 3.84129 9.84018
23 2 27.7262 3.76871 9.8278
24 2 31.788 4.0389 10.1509
25 2 35.6303 3.97884 9.97523
26 2 39.6734 3.84506 10.0894
27 2 43.6544 4.00114 9.76529
28 2 47.5583 3.80709 9.95181
29 2 51.2692 3.81036 10.0634
30 2 55.5828 3.89705 9.95938
31 2 0.0718592 8.05716 10.0351
32 2 4.07184 7.89127 10.1647
33 2 8.1298 7.85035 10.0738
34 2 11.8971 7.94421 9.96089
35 2 15.9695 7.71312 10.1061
36 2 19.9228 7.83454 10.0954
37 2 23.8674 7.90453 10.148
38 2 27.6783 7.65942 10.1103
39 2 31.7064 7.83769 10.0214
40 2 35.8274 7.98474 9.8871
41 2 39.7284 8.02557 10.0931
42 2 43.5078 7.7539 10.0283
43 2 47.537 7.81253 10.0876
44 2 51.3922 7.9329 10.1354
45 2 55.46 7.83896 10.0391
46 2 0.134223 11.7994 9.86329
47 2 3.81051 11.9671 9.94476
48 2 7.77514 11.8191 9.98991
49 2 11.9542 11.9247 9.9753
50 2 15.9098 11.7946 9.90342
51 2 19.8762 12.0092 9.91407
52 2 23.8754 11.8881 9.99947
53 2 27.848 11.8498 10.0529
54 2 31.7102 11.5547 9.96125
55 2 35.5781 11.8596 10.05
56 2 39.7146 11.8566 9.92028
57 2 43.557 12.0523 9.82729
58 2 47.6139 11.6462 10.0234
59 2 51.5606 11.8353 10.1379
60 2 55.5673 11.718 10.1199
61 2 59.3565 15.9084 10.1889
62 2 3.94915 15.9264 10.0168
63 2 7.95178 15.9968 10.1025
64 2 11.886 15.6959 10.0679
65 2 15.971 15.7891 9.97939
66 2 19.914 15.8187 9.99277
67 2 23.7775 15.7977 9.93944
68 2 27.8213 15.8572 10.1237
69 2 31.856 15.5916 9.95997
70 2 35.7619 15.7972 10.0231
71 2 39.7382 15.6764 9.97033
72 2 43.6448 15.785 10.0627
73 2 47.471 15.612 10.0203
74 2 51.3919 15.6431 9.93287
75 2 55.5335 15.6255 9.98248
76 2 0.111793 19.9077 10.0004
77 2 3.9524 19.697 9.95791
78 2 7.9062 19.7652 10.1487
79 2 11.8513 19.9084 10.0037
80 2 15.8132 19.9012 10.1472
81 2 19.8218 19.814 10.0119
82 2 24.0062 19.6628 9.85089
83 2 27.7918 19.4489 9.90368
84 2 31.7693 19.7537 9.91988
85 2 35.7063 19.6795 10.0794
86 2 39.8057 19.7777 9.85191
87 2 43.5314 19.5737 10.0195
88 2 47.7086 19.6065 10.0275
89 2 51.5492 19.6063 9.94856
90 2 55.4304 19.709 10.138
91 2 -0.0508019 23.853 10.1499
92 2 4.03994 23.8191 10.1283
93 2 8.02787 23.846 10.2009
94 2 11.9578 23.5926 10.0902
95 2 15.8624 23.6538 9.98594
96 2 19.7247 23.5495 9.86731
97 2 23.8861 23.7043 10.0185
98 2 27.8122 23.7024 10.0376
99 2 31.725 23.7817 9.88647
100 2 35.8123 23.6003 9.80031
101 2 39.6403 23.8192 9.87245
102 2 43.6862 23.5391 9.73229
103 2 47.5185 23.3459 9.99339
104 2 51.659 23.6156 9.94343
105 2 55.499 23.4141 9.8844
106 2 -0.0769738 27.7865 10.1468
107 2 3.88462 27.8048 10.1057
108 2 8.05376 27.7298 9.93977
109 2 12.0303 27.4358 9.74244
110 2 16.002 27.4932 9.94965
111 2 19.7999 27.8045 10.067
112 2 23.8031 27.6314 10.0146
113 2 27.9197 27.6879 9.93326
114 2 32.0055 27.5902 10.0125
115 2 35.6343 27.6895 9.82335
116 2 39.6601 27.6439 9.89298
117 2 43.7023 27.5817 9.83014
118 2 47.5961 27.3557 9.90703
119 2 51.5767 27.4509 10.0658
120 2 55.3725 27.6374 9.97878
121 2 -0.0568976 31.5883 10.0548
122 2 4.02903 31.6724 9.91633
123 2 7.99992 31.7226 10.0436
124 2 11.8912 31.4145 10.0108
125 2 15.8349 31.5957 10.0797
126 2 19.6785 31.7743 9.95628
127 2 23.6923 31.5351 10.1159
128 2 27.8526 31.5227 10.0887
129 2 31.8338 31.4474 9.97658
130 2 35.8238 31.483 9.78699
131 2 39.7128 31.918 9.91221
132 2 43.8113 31.6255 9.8929
133 2 47.7667 31.462 9.97155
134 2 51.5791 31.6646 10.1286
135 2 55.5235 31.6106 10.1017
136 2 59.4457 35.5556 10.1247
137 2 4.02801 35.64 10.0855
138 2 8.03792 35.5334 9.95114
139 2 11.8482 35.6429 9.98869
140 2 15.7905 35.6765 10.2104
141 2 19.6347 35.3826 10.0977
142 2 23.6657 35.531 9.83191
143 2 27.8799 35.541 9.94114
144 2 31.7017 35.5099 9.80082
145 2 35.9005 35.6955 9.97028
146 2 39.766 35.5223 10.1951
147 2 43.5714 35.5403 9.77932
148 2 47.6516 35.626 10.0452
149 2 51.4744 35.68 9.82204
150 2 55.5394 35.4834 10.1088
151 2 59.4017 39.589 9.99359
152 2 3.97238 39.694 9.83283
153 2 7.77849 39.5213 10.0567
154 2 12.1185 39.5559 9.96063
155 2 15.9703 39.6116 9.94374
156 2 19.8427 39.2973 10.0509
157 2 23.8445 39.3085 10.0215
158 2 27.728 39.5761 9.80608
159 2 31.5995 39.2945 9.92231
160 2 35.7705 39.3812 9.9425
161 2 39.7415 39.7102 9.8965
162 2 43.7361 39.4819 10.0174
163 2 47.4421 39.4183 9.99407
164 2 51.3194 39.5866 10.0556
165 2 55.328 39.2757 10.0985
166 2 59.3445 43.373 9.93394
167 2 4.26515 43.5029 10.0549
168 2 8.03395 43.4947 9.90662
169 2 12.0511 43.4662 9.82657
170 2 15.937 43.6377 10.1479
171 2 19.9591 43.3308 9.97535
172 2 23.9011 43.5698 9.86562
173 2 27.9411 43.5233 10.0141
174 2 31.8041 43.3207 9.75806
175 2 35.8161 43.2495 9.78685
176 2 39.6065 43.4619 10.0235
177 2 43.5316 43.4481 9.95382
178 2 47.5401 43.3804 10.0341
179 2 51.45 43.4654 9.9101
180 2 55.6296 43.2868 9.88287
181 2 59.5163 47.2799 9.87055
182 2 4.05513 47.2673 10.1975
183 2 8.19267 47.3259 9.96137
184 2 12.0596 47.4274 9.98586
185 2 15.961 47.5823 9.9576
186 2 19.9886 47.2512 10.0389
187 2 23.8967 47.4551 10.0872
188 2 27.8092 47.4053 9.91883
189 2 31.841 47.3789 10.1003
190 2 35.8332 47.4364 10.0082
191 2 39.541 47.4989 10.0264
192 2 43.4853 47.2336 9.8934
193 2 47.5477 47.5647 9.89599
194 2 51.6073 47.5277 10.0586
195 2 55.5332 47.4596 10.0383
196 2 0.132956 51.3469 9.87134
197 2 3.89825 51.3018 10.176
198 2 8.11128 51.4212 10.0393
199 2 12.1736 51.4478 9.94713
200 2 15.9636 51.1761 9.95695
201 2 19.9101 51.1975 10.0346
202 2 23.9607 51.4368 10.0754
203 2 27.9448 51.2652 10.1914
204 2 31.7482 51.3473 10.0463
205 2 35.8014 51.5042 9.7859
206 2 39.7422 51.4626 10.0116
207 2 43.5816 51.4187 9.92763
208 2 47.6102 51.4506 9.93097
209 2 51.4066 51.4251 10.0301
210 2 55.5169 51.2865 10.0283
211 2 0.238829 55.1764 9.97664
212 2 3.85456 55.1232 10.0429
213 2 7.873 55.3601 10.1553
214 2 11.8928 55.4669 9.9697
215 2 15.9114 54.9621 9.79936
216 2 19.9792 55.0928 9.72452
217 2 23.7309 55.4425 9.94138
218 2 27.8283 55.3774 9.92418
219 2 31.8362 55.4569 9.99188
220 2 35.8088 55.3861 9.90487
221 2 39.7525 55.4388 9.85915
222 2 43.6785 55.495 9.87616
223 2 47.4916 55.4669 10.111
224 2 51.5414 55.3746 10.1797
225 2 55.2591 55.2128 9.82117
226 2 0.211602 59.2059 13.9731
227 2 4.06262 59.5011 13.9986
228 2 7.99261 59.234 14.1457
229 2 12.0891 59.3482 13.892
230 2 15.9013 -0.146566 14.0151
231 2 20.0498 0.0955456 13.9321
232 2 23.826 -0.193764 14.013
233 2 27.5378 59.3682 14.0013
234 2 31.6837 59.2382 13.8948
235 2 35.868 59.2591 13.8718
236 2 39.5905 0.0674762 14.0792
237 2 43.5597 59.365 13.9174
238 2 47.4598 0.0238234 14.0301
239 2 51.5105 0.0843093 13.9495
240 2 55.7392 59.2755 13.9233
241 2 -0.129221 3.89268 14.1006
242 2 4.03837 3.821 14.0167
243 2 8.23075 3.92331 14.0939
244 2 12.0286 4.06362 14.1491
245 2 16.1247 3.7757 13.9245
246 2 20.0423 3.79427 14.0112
247 2 23.7318 3.92256 14.0539
248 2 27.7248 3.96205 14.0911
249 2 31.6101 3.65312 14.023
250 2 35.8325 3.94201 13.7591
251 2 39.7144 4.17341 14.1351
252 2 43.6121 3.93525 14.1583
253 2 47.5331 3.99649 14.0554
254 2 51.5727 3.86471 14.1101
255 2 55.3172 3.79666 14.0662
256 2 0.103262 7.78569 14.087
257 2 3.91283 7.80133 14.0319
258 2 8.03311 8.01511 14.0315
259 2 11.8942 8.02506 14.1112
260 2 15.9005 7.84291 13.8898
261 2 20.0261 7.83086 13.9252
262 2 23.927 7.88052 14.0086
263 2 27.8397 7.75037 13.9981
264 2 31.7777 7.55233 13.9969
265 2 35.6967 7.76804 14.0532
266 2 39.572 7.98538 13.9456
267 2 43.7497 7.75487 13.924
268 2 47.555 7.77811 14.1006
269 2 51.5979 7.70461 14.0712
270 2 55.3923 7.69579 14.11
271 2 -0.0222046 11.9305 13.9137
272 2 4.04637 11.9114 13.9216
273 2 8.03802 11.8834 13.9031
274 2 11.7952 11.6934 13.92
275 2 16.0287 11.6988 13.6685
276 2 19.9054 11.9463 13.974
277 2 23.7715 11.7444 14.0023
278 2 27.8227 11.6145 13.863
279 2 31.643 11.825 14.0435
280 2 35.7944 11.7942 13.7933
281 2 39.7984 11.8029 14.1204
282 2 43.7532 11.8071 14.0191
283 2 47.6484 11.7368 14.0869
284 2 51.5996 11.6258 14.0772
285 2 55.5392 11.7612 13.9032
286 2 0.119586 15.7139 14.0558
287 2 4.17369 15.6603 13.8873
288 2 7.99208 15.8059 14.1079
289 2 12.039 15.7361 13.7551
290 2 15.895 15.6791 14.0224
291 2 20.0235 15.7683 13.9231
292 2 23.9351 15.7064 14.0226
293 2 27.8586 15.609 14.0961
294 2 31.8149 15.725 14.071
295 2 35.7059 15.8354 13.9576
296 2 39.6913 15.7609 14.0036
297 2 43.6277 15.9255 14.0224
298 2 47.6092 15.6999 14.0065
299 2 51.5462 15.5593 14.0555
300 2 55.6336 15.5824 13.8972
301 2 0.0355644 19.7851 14.0116
302 2 3.93495 19.965 13.8761
303 2 8.08578 19.5173 14.0413
304 2 12.0383 19.6201 14.0997
305 2 15.9124 19.6931 14.1501
306 2 19.8374 19.7991 14.012
307 2 23.8681 19.5063 13.9027
308 2 27.9954 19.7673 14.0312
309 2 32.0071 19.7837 13.864
310 2 35.8173 19.815 14.0904
311 2 39.4816 19.7384 14.0977
312 2 43.4803 19.8105 13.8441
313 2 47.5266 19.7255 14.0629
314 2 51.5108 19.6625 13.8642
315 2 55.253 19.5841 13.9644
316 2 -0.0556909 23.5437 14.0606
317 2 4.13315 23.7357 14.0319
318 2 7.86994 23.6524 14.1487
319 2 11.7472 23.5985 14.1531
320 2 15.7598 23.8081 14.0547
321 2 19.9368 23.6775 13.8609
322 2 23.9392 23.8462 13.6809
323 2 27.8319 23.7631 14.1322
324 2 31.9515 23.7452 13.9856
325 2 35.8509 23.8196 13.8797
326 2 39.7995 23.9295 13.8635
327 2 43.6517 23.7335 13.7708
328 2 47.4804 23.6368 14.065
329 2 51.4071 23.772 14.1007
330 2 55.2046 23.7292 13.9198
331 2 0.111876 27.6948 14.2697
332 2 4.1391 27.6353 14.0953
333 2 8.02557 27.6063 13.7077
334 2 11.8517 27.5415 13.8308
335 2 15.8161 27.5912 13.9016
336 2 19.6695 27.7597 13.785
337 2 23.8007 27.7718 13.9049
338 2 27.8444 27.7415 13.8958
339 2 31.9412 27.7836 13.8987
340 2 35.9217 27.6461 13.7211
341 2 39.9533 27.8854 13.743
342 2 43.743 27.7669 14.0246
343 2 47.6564 27.6244 13.917
344 2 51.4648 27.8037 14.0069
345 2 55.4136 27.5274 14.023
346 2 -0.102591 31.5771 13.8791
347 2 3.88406 31.5303 13.8396
348 2 8.0874 31.5993 13.8734
349 2 11.9922 31.4909 13.8657
350 2 15.8537 31.5439 14.0206
351 2 19.9122 31.6548 14.0061
352 2 24.0121 31.7311 13.7962
353 2 27.8408 31.6683 14.0123
354 2 31.7893 31.7559 13.9999
355 2 35.8818 31.4791 13.6987
356 2 39.747 31.6134 14.0273
357 2 43.831 31.7033 13.9237
358 2 47.603 31.7628 13.9
359 2 51.4392 31.7596 14.0452
360 2 55.3269 31.615 14.0769
361 2 0.218862 35.595 14.0788
362 2 4.06304 35.4997 13.9018
363 2 7.99134 35.7515 14.0648
364 2 12.1009 35.5668 13.7299
365 2 15.8521 35.4907 14.1367
366 2 19.9601 35.563 14.0001
367 2 24.0238 35.5629 13.938
368 2 27.8254 35.5519 13.9791
369 2 31.6755 35.3221 13.8072
370 2 35.6212 35.4533 13.9262
371 2 39.7096 35.6362 13.8652
372 2 43.5326 35.5689 13.9997
373 2 47.5492 35.712 14.1728
374 2 51.4509 35.5627 13.846
375 2 55.5581 35.5521 13.9486
376 2 0.0806933 39.5972 13.9969
377 2 4.03136 39.4698 13.9444
378 2 7.85739 39.6178 14.0651
379 2 11.7751 39.5803 13.9733
380 2 15.8811 39.614 13.8634
381 2 20.0108 39.4375 13.934
382 2 24.1141 39.7448 14.0799
383 2 28.0219 39.6726 14.0019
384 2 31.7757 39.4737 14.0573
385 2 35.6481 39.3994 14.0969
386 2 39.6143 39.6983 13.9236
387 2 43.7712 39.5742 14.0432
388 2 47.509 39.6953 13.9805
389 2 51.6357 39.5319 13.8479
390 2 55.583 39.5246 14.0088
391 2 0.174803 43.4498 13.9465
392 2 3.99642 43.5212 13.9369
393 2 7.96846 43.6179 13.9735
394 2 12.0091 43.5669 14.0445
395 2 15.8957 43.4823 14.0305
396 2 19.9001 43.3779 13.9227
397 2 23.9686 43.5798 14.0267
398 2 27.9928 43.5734 13.9794
399 2 32.107 43.4005 13.791
400 2 35.8754 43.5916 13.9435
401 2 39.7488 43.4345 13.9119
402 2 43.6168 43.6415 14.0351
403 2 47.5311 43.6511 13.87
404 2 51.4886 43.634 13.843
405 2 55.5196 43.429 14.0872
406 2 0.212058 47.492 13.9507
407 2 4.08564 47.3292 14.1256
408 2 8.02797 47.5744 13.9281
409 2 12.0116 47.384 13.8749
410 2 15.9751 47.3819 13.9303
411 2 19.8929 47.5658 14.113
412 2 24.0752 47.4101 13.9868
413 2 27.7576 47.3776 13.9164
414 2 32.0926 47.5409 13.82
415 2 35.821 47.5689 13.9956
416 2 39.5738 47.6429 13.825
417 2 43.6868 47.6306 14.0773
418 2 47.6636 47.4553 13.6497
419 2 51.5608 47.595 13.9971
420 2 55.5253 47.2564 13.7903
421 2 0.0137625 51.2462 13.8591
422 2 4.15393 51.3445 13.9974
423 2 8.05493 51.6026 13.8282
424 2 12.1822 51.4488 14.0341
425 2 15.9399 51.4864 14.2188
426 2 19.8794 51.3884 14.0837
427 2 24.0464 51.3714 13.9451
428 2 27.8858 51.4259 13.9816
429 2 31.8922 51.4453 14.0049
430 2 35.8685 51.5378 13.9682
431 2 39.7384 51.5076 13.9934
432 2 43.7643 51.5267 13.8274
433 2 47.4167 51.4316 14.015
434 2 51.6164 51.4848 13.947
435 2 55.8208 51.4921 14.0205
436 2 0.0882982 55.2885 14.0395
437 2 3.83095 55.3355 14.057
438 2 8.06954 55.486 13.8864
439 2 12.1619 55.5187 14.0351
440 2 15.9881 55.2332 13.9583
441 2 19.8103 55.3051 14.0088
442 2 23.8083 55.5125 13.9155
443 2 27.8612 55.3273 14.0286
444 2 31.8643 55.4268 14.0747
445 2 35.9032 55.4464 13.9807
446 2 39.8471 55.4493 13.8929
447 2 43.5924 55.5724 14.12
448 2 47.6551 55.3401 14.1051
449 2 51.5518 55.3059 14.0107
450 2 55.6689 55.4818 13.8426
451 2 0.092375 0.0617618 18.104
452 2 4.03934 0.0403212 18.1471
453 2 7.96895 59.588 17.9902
454 2 11.8885 59.3486 18.0952
455 2 15.9827 59.3862 17.9788
456 2 19.7485 59.3651 17.939
457 2 23.9312 59.2767 18.2097
458 2 27.5125 0.0727248 18.0272
459 2 31.5467 59.3346 17.9694
460 2 35.9719 59.4584 17.9238
461 2 39.796 0.07192 18.1324
462 2 43.5458 59.2363 18.1138
463 2 47.5689 0.0417928 17.9297
464 2 51.5981 59.2276 18.0096
465 2 55.3814 59.2798 18.0438
466 2 0.122792 3.90053 17.81
467 2 4.15811 3.98198 18.0058
468 2 8.07539 3.91486 18.1077
469 2 12.1292 4.04023 17.8017
470 2 16.0609 3.82638 17.7831
471 2 19.8497 3.91126 18.1105
472 2 23.8679 3.89654 18.177
473 2 27.8355 4.15526 17.9731
474 2 31.7207 3.64982 17.9458
475 2 35.6905 4.00387 17.6924
476 2 39.6775 4.12504 18.0417
477 2 43.6547 3.95299 18.0589
478 2 47.6844 3.93268 17.9547
479 2 51.731 3.85817 18.0782
480 2 55.5547 3.9179 18.0373
481 2 0.169338 7.95297 18.0386
482 2 4.10379 7.84393 17.8602
483 2 8.13838 7.80347 18.0916
484 2 12.1305 7.81368 17.941
485 2 16.1328 7.96987 17.6859
486 2 19.7718 7.77412 18.0408
487 2 23.8003 7.95978 17.904
488 2 27.6399 7.90735 18.0314
489 2 31.8273 7.77342 17.8776
490 2 35.6611 7.74787 18.057
491 2 39.4681 8.02055 17.8597
492 2 43.6966 7.77592 18.1321
493 2 47.5699 8.09409 18.0014
494 2 51.5384 7.99653 18.0458
495 2 55.6802 7.9718 17.9155
496 2 0.172268 11.9603 17.902
497 2 4.23554 11.7212 17.8025
498 2 8.09177 12.1597 17.8537
499 2 12.1546 11.6691 17.9321
500 2 15.8617 11.9737 17.8194
501 2 19.7101 11.9579 17.9753
502 2 24.0569 11.7809 18.0116
503 2 27.6799 11.9758 17.9307
504 2 31.7565 11.6142 18.0489
505 2 35.5603 11.7266 17.7738
506 2 39.8418 11.8861 17.9298
507 2 43.6129 11.7735 17.9876
508 2 47.4841 11.8153 17.8467
509 2 51.6991 11.8099 17.9815
510 2 55.4115 11.9255 17.9584
511 2 59.4079 15.8261 18.0495
512 2 4.10071 15.9586 17.9797
513 2 8.01298 15.7675 18.0414
514 2 11.9243 15.6507 18.0349
515 2 16.1171 15.9609 17.8879
516 2 20.058 15.7139 17.8429
517 2 23.8137 16.0578 17.8827
518 2 27.9291 15.7067 18.0345
519 2 31.8418 15.9003 17.9775
520 2 35.7751 15.7593 17.899
521 2 39.7572 15.8035 18.0252
522 2 43.5345 15.6986 17.9538
523 2 47.6837 15.8376 18.0995
524 2 51.4204 15.9938 17.8956
525 2 55.4401 15.7146 17.9567
526 2 0.161156 19.8293 17.8694
527 2 3.78856 19.6853 17.9326
528 2 8.08543 19.6311 18.038
529 2 11.8378 19.6625 18.0896
530 2 16.031 19.8184 17.7417
531 2 19.9308 19.9679 17.8132
532 2 24.0958 19.7426 17.7965
533 2 27.9865 19.6674 17.9872
534 2 31.7918 19.5625 17.9211
535 2 35.732 19.6826 17.9197
536 2 39.8051 19.7429 17.9242
537 2 43.6618 19.8721 17.8102
538 2 47.7086 19.6461 17.9488
539 2 51.5858 19.9283 17.9173
540 2 55.4951 19.833 17.9916
541 2 -0.0265459 23.7019 18.1327
542 2 4.16545 23.9413 17.9747
543 2 8.03094 23.6418 17.9453
544 2 12.0347 23.7816 17.9054
545 2 16.0469 23.8945 17.7838
546 2 20.2475 23.8584 17.6133
547 2 23.9985 23.8597 18.1119
548 2 27.9271 23.7464 17.7539
549 2 31.8882 23.9258 17.8333
550 2 35.8755 23.7229 17.8852
551 2 39.8772 23.6788 17.9712
552 2 43.4548 23.8225 17.9459
553 2 47.4992 23.7368 18.0253
554 2 51.4217 23.8708 18.1365
555 2 55.2509 23.5588 17.9478
556 2 -0.0241771 27.497 18.069
557 2 4.01607 27.8813 18.0391
558 2 8.17538 27.7678 17.8562
559 2 12.0225 27.7707 17.9408
560 2 16.0883 27.6951 17.9092
561 2 19.9015 27.741 17.8857
562 2 23.7872 27.7776 17.9724
563 2 27.6577 27.787 17.9202
564 2 31.6519 27.6767 17.8569
565 2 35.796 27.7067 17.9348
566 2 39.7137 27.6656 17.8588
567 2 43.6957 27.6356 17.9206
568 2 47.5281 27.7483 17.7577
569 2 51.3917 27.7375 17.9023
570 2 55.1981 27.7457 18.0453
571 2 0.0752677 31.5112 17.9252
572 2 4.15865 31.6576 17.8929
573 2 7.9572 31.9932 17.8218
574 2 12.0388 31.5561 17.8136
575 2 15.7982 31.4871 17.9014
576 2 19.8987 31.6013 17.8806
577 2 23.8598 31.7261 17.905
578 2 27.8128 31.8116 17.8347
579 2 31.8139 31.5235 18.0461
580 2 35.7838 31.7195 18.0053
581 2 39.8431 31.5827 17.8918
582 2 43.6623 31.7178 18.0533
583 2 47.6472 31.6881 18.0481
584 2 51.514 31.8111 17.7665
585 2 55.455 31.5937 17.9952
586 2 0.247924 35.4457 18.0306
587 2 4.00924 35.5308 17.782
588 2 7.92198 35.4912 17.8898
589 2 11.8727 35.7294 17.9269
590 2 15.9116 35.536 17.8742
591 2 20.0875 35.636 17.8897
592 2 23.8859 35.6051 18.0987
593 2 27.9125 35.6223 18.0201
594 2 31.7754 35.4053 17.7911
595 2 35.7399 35.5509 17.9989
596 2 39.6741 35.6327 17.9618
597 2 43.6442 35.691 18.0829
598 2 47.5727 35.6797 18.0466
599 2 51.6641 35.8671 17.8724
600 2 55.5854 35.6091 18.1048
601 2 0.24067 39.6713 18.0934
602 2 4.16075 39.5116 17.9856
603 2 7.9818 39.5273 18.0439
604 2 12.1132 39.4708 17.729
605 2 15.9354 39.5525 17.9834
606 2 19.7516 39.6786 17.8932
607 2 23.7142 39.6103 17.8194
608 2 27.9065 39.8248 18.0243
609 2 31.845 39.5895 17.9605
610 2 35.6775 39.5864 18.0786
611 2 39.5869 39.6128 17.976
612 2 43.4961 39.6548 18.0572
613 2 47.523 39.5117 17.8332
614 2 51.5285 39.7355 17.8641
615 2 55.4019 39.5882 17.9452
616 2 0.087594 43.3521 17.8723
617 2 4.0527 43.567 17.8262
618 2 7.96021 43.4739 17.7644
619 2 12.0095 43.6934 17.8937
620 2 15.9488 43.4376 17.7865
621 2 19.796 43.5952 17.9917
622 2 23.8141 43.6026 17.9605
623 2 27.9263 43.753 17.9975
624 2 31.8594 43.5104 17.9048
625 2 35.9055 43.4517 17.7846
626 2 39.7361 43.5777 18.1982
627 2 43.5157 43.6529 17.9594
628 2 47.5464 43.4501 17.8114
629 2 51.3626 43.4007 17.9014
630 2 55.3672 43.4331 17.9343
631 2 0.0245396 47.5906 17.9169
632 2 4.22265 47.4702 17.9034
633 2 8.03211 47.7063 17.9434
634 2 11.9347 47.3949 17.8405
635 2 15.8858 47.3052 17.9073
636 2 19.816 47.3887 17.9787
637 2 23.7666 47.5092 17.8839
638 2 28.0081 47.516 17.8424
639 2 31.9738 47.4834 17.9841
640 2 35.7985 47.4848 17.9608
641 2 39.6684 47.4081 18.0315
642 2 43.6964 47.4219 17.9669
643 2 47.7499 47.2665 17.9253
644 2 51.5187 47.6204 17.7315
645 2 55.3923 47.4491 17.9224
646 2 0.0329439 51.3404 18.0536
647 2 4.28581 51.5079 17.9097
648 2 8.27483 51.5441 17.8284
649 2 12.1928 51.3833 17.8881
650 2 16.0542 51.3961 18.1664
651 2 19.9653 51.4006 18.0521
652 2 23.9877 51.2956 18.0163
653 2 27.9179 51.4362 17.8867
654 2 31.6609 51.4318 17.9107
655 2 35.7438 51.4047 17.8929
656 2 39.9391 51.5384 17.8202
657 2 43.7733 51.417 17.8089
658 2 47.7733 51.4118 17.9404
659 2 51.6236 51.6051 17.8473
660 2 55.5933 51.4911 18.0364
661 2 0.100012 55.3345 17.9745
662 2 3.93835 55.437 18.0374
663 2 7.94678 55.4108 17.8645
664 2 11.9186 55.4976 18.045
665 2 15.9844 55.3866 17.961
666 2 19.9171 55.4726 17.9926
667 2 23.991 55.4004 17.9901
668 2 27.9564 55.4933 17.8368
669 2 32.1212 55.3062 18.0178
670 2 35.7485 55.3194 18.0663
671 2 39.7072 55.283 18.0677
672 2 43.6955 55.3779 18.077
673 2 47.3526 55.4077 18.1055
674 2 51.4153 55.3902 18.0211
675 2 55.5579 55.3397 17.901
676 2 59.3597 59.2707 22.0626
677 2 4.08189 -0.230272 22.0764
678 2 8.13567 0.12116 21.8613
679 2 12.1443 -0.10565 22.0915
680 2 16.0139 59.3573 21.839
681 2 19.8142 0.0768559 22.1343
682 2 23.668 59.357 22.1471
683 2 27.6424 0.144967 21.844
684 2 31.6767 -0.0119709 21.9061
685 2 35.893 -0.0130446 21.9251
686 2 39.5971 59.3147 21.9998
687 2 43.4326 0.107958 22.0213
688 2 47.5434 0.0984831 21.9957
689 2 51.417 59.5519 22.0744
690 2 55.5248 0.0188474 22.0133
691 2 0.105987 3.88768 22.0421
692 2 4.0372 3.93434 22.0694
693 2 8.15544 4.02521 21.9942
694 2 12.1396 3.85675 21.9526
695 2 15.6249 3.93969 21.8974
696 2 19.7449 4.02886 21.8847
697 2 23.7874 3.971 22.0576
698 2 27.8371 4.1109 22.1425
699 2 31.7785 3.75479 21.8578
700 2 35.6665 4.00221 21.8933
701 2 39.5194 4.08771 21.961
702 2 43.6455 3.90856 22.1777
703 2 47.5699 3.93406 21.9921
704 2 51.4547 4.04485 21.9456
705 2 55.4602 4.00456 21.8967
706 2 0.243572 7.98248 21.7871
707 2 4.04871 7.92811 21.8114
708 2 7.91993 7.95677 21.9017
709 2 12.2446 7.81472 21.7517
710 2 15.8807 7.75629 21.7961
711 2 19.9485 8.02798 21.8891
712 2 23.8798 7.98082 21.9534
713 2 27.8639 8.02891 22.0466
714 2 31.7509 7.73832 21.986
715 2 35.6353 8.07021 21.9886
716 2 39.7414 7.96336 21.8729
717 2 43.6414 7.87451 22.0475
718 2 47.6471 7.98239 21.8407
719 2 51.4345 8.09532 21.9379
720 2 55.4363 7.98577 21.9699
721 2 59.4649 11.9256 21.811
722 2 4.03074 12.0721 21.8909
723 2 8.01121 11.8707 22.0175
724 2 12.1328 11.8811 21.9176
725 2 15.9113 12.0412 21.9506
726 2 19.9617 12.0421 21.8351
727 2 23.8758 11.9542 21.9527
728 2 27.8551 11.9751 21.8861
729 2 31.887 11.9435 22.0286
730 2 35.7161 11.9824 21.8973
731 2 39.7473 11.7456 21.9794
732 2 43.7371 11.7854 21.999
733 2 47.5795 11.9283 21.9773
734 2 51.7324 12.003 21.8248
735 2 55.574 11.9454 22.0235
736 2 0.17852 15.7462 21.962
737 2 3.88928 15.7491 21.8859
738 2 7.96837 15.7523 21.9101
739 2 12.0584 15.8408 21.8498
740 2 16.0446 16.0535 21.665
741 2 20.0147 15.9464 21.9025
742 2 23.9852 15.8639 21.9146
743 2 27.8539 16.0382 21.9044
744 2 31.7847 15.6727 21.8902
745 2 35.5898 15.7359 21.9008
746 2 39.5023 16.0088 21.8887
747 2 43.7041 15.7369 21.7599
748 2 47.7204 15.8244 21.8701
749 2 51.4794 16.0963 21.8551
750 2 55.5765 15.9989 21.7834
751 2 0.221135 19.7468 21.8797
752 2 4.0059 19.8298 22.0829
753 2 8.04679 19.8814 21.7433
754 2 12.0687 19.8274 22.0243
755 2 16.1151 19.8943 21.8724
756 2 19.9067 19.9146 21.9536
757 2 23.8195 19.9861 22.012
758 2 27.893 20.0777 21.8448
759 2 32.0363 19.8677 21.945
760 2 35.8002 19.8543 22.016
761 2 39.5606 19.8174 21.9094
762 2 43.6287 19.8815 21.7844
763 2 47.4764 19.8163 22.021
764 2 51.4998 19.986 21.8507
765 2 55.7115 19.8412 21.8305
766 2 0.10449 23.9794 21.7911
767 2 4.23066 23.8614 21.8931
768 2 8.1699 23.9608 21.8635
769 2 12.099 23.723 21.7208
770 2 16.054 23.9115 21.604
771 2 19.9221 23.8022 21.9049
772 2 23.8269 23.82 21.9742
773 2 27.8138 23.9592 21.8711
774 2 31.7797 23.8129 21.8686
775 2 35.6065 23.9415 21.8647
776 2 39.6635 23.9196 21.8547
777 2 43.6135 23.7447 21.8037
778 2 47.4 23.7844 21.7936
779 2 51.4719 23.7939 22.1039
780 2 55.4178 23.8395 21.8103
781 2 59.4481 27.8128 21.8597
782 2 4.08297 27.7307 22.0007
783 2 8.19589 27.8346 21.9709
784 2 11.9686 27.8643 22.0009
785 2 15.9337 27.9876 21.827
786 2 19.9423 27.729 21.9164
787 2 23.9654 27.8373 21.9058
788 2 27.831 27.8475 21.875
789 2 31.6504 27.8307 21.7622
790 2 35.7425 27.6619 21.8833
791 2 39.7737 27.763 21.8386
792 2 43.7336 27.7385 21.9196
793 2 47.4092 27.8128 21.9161
794 2 51.3239 27.7026 21.9367
795 2 55.337 27.9537 22.088
796 2 59.5 31.7628 21.7739
797 2 3.99888 31.4661 21.9374
798 2 8.03056 31.7239 21.7444
799 2 12.1009 31.7992 21.9159
800 2 15.887 31.8368 21.8456
801 2 19.782 31.6314 21.7823
802 2 23.9749 31.6081 21.994
803 2 27.876 31.7275 21.9442
804 2 32.0922 31.5816 21.8738
805 2 35.8298 31.5048 21.7625
806 2 39.5713 31.5787 22.0751
807 2 43.569 31.7631 21.8718
808 2 47.7995 31.5677 21.9507
809 2 51.4372 31.7345 21.9241
810 2 55.5394 31.7923 21.9387
811 2 0.168474 35.6096 21.7961
812 2 4.11397 35.6956 21.9805
813 2 8.12061 35.6655 22.0363
814 2 11.9032 35.5609 22.0321
815 2 15.9987 35.6142 21.9765
816 2 19.9851 35.6779 21.9337
817 2 23.8437 35.632 21.9645
818 2 27.8776 35.5614 21.8177
819 2 31.8754 35.5615 22.0043
820 2 35.6526 35.6905 22.0744
821 2 39.5815 35.4926 21.7657
822 2 43.6516 35.6298 22.1779
823 2 47.8509 35.4976 21.8398
824 2 51.4521 35.7038 21.977
825 2 55.5374 35.5961 22.1958
826 2 0.0799925 39.5144 21.8713
827 2 3.96085 39.6636 21.9319
828 2 8.15568 39.4943 21.9207
829 2 11.9533 39.7323 21.8071
830 2 15.9813 39.5773 21.6053
831 2 20.0719 39.6448 21.7417
832 2 24.0693 39.6582 21.9591
833 2 27.9128 39.7555 21.8492
834 2 31.7921 39.7518 21.7056
835 2 35.7101 39.5904 21.9679
836 2 39.7046 39.5445 21.9865
837 2 43.6022 39.5473 21.8602
838 2 47.62 39.7727 21.855
839 2 51.5286 39.7165 21.873
840 2 55.6164 39.4136 21.8536
841 2 0.141438 43.5834 22.0466
842 2 4.08797 43.7069 21.7321
843 2 8.07963 43.4225 21.8063
844 2 11.7601 43.7162 22.0192
845 2 15.9064 43.5045 21.922
846 2 19.9391 43.6418 21.9986
847 2 23.9248 43.5996 21.9676
848 2 27.7351 43.6701 21.8922
849 2 31.7238 43.7412 21.7386
850 2 35.5913 43.6115 21.9154
851 2 39.615 43.6893 22.212
852 2 43.739 43.5355 22.0853
853 2 47.6968 43.7474 21.8996
854 2 51.7291 43.7375 21.8009
855 2 55.5669 43.4337 21.9777
856 2 -0.0365573 47.5209 22.0119
857 2 4.07046 47.5068 21.8602
858 2 8.11081 47.6963 21.8976
859 2 11.9367 47.5149 21.9251
860 2 16.0607 47.4567 22.0032
861 2 19.8325 47.5415 21.9589
862 2 23.9799 47.6301 22.001
863 2 27.8368 47.4607 21.9898
864 2 31.9653 47.5249 21.8455
865 2 35.6525 47.7343 21.8659
866 2 39.7327 47.7391 22.0583
867 2 43.6034 47.6663 21.8814
868 2 47.6295 47.5774 21.8441
869 2 51.6123 47.5876 22.0715
870 2 55.4965 47.3652 22.1296
871 2 0.259836 51.4836 21.9319
872 2 4.23451 51.624 21.9225
873 2 8.26443 51.3664 21.8344
874 2 12.0796 51.3561 21.8725
875 2 15.9291 51.4586 21.8628
876 2 20.0398 51.5861 21.8355
877 2 23.9991 51.4921 21.9361
878 2 27.9013 51.5647 22.1311
879 2 31.8333 51.4179 22.1386
880 2 35.8321 51.4462 21.9864
881 2 39.7122 51.3984 22.1185
882 2 43.7125 51.6393 21.8308
883 2 47.6573 51.4078 21.8583
884 2 51.605 51.6675 21.9656
885 2 55.7946 51.3793 21.9043
886 2 -0.0472889 55.3038 21.9922
887 2 4.19999 55.3084 21.9412
888 2 7.96809 55.193 22.0223
889 2 11.8253 55.4167 22.1688
890 2 15.915 55.411 22.0496
891 2 19.9324 55.6021 22.0239
892 2 23.8461 55.3966 21.9455
893 2 27.654 55.3798 22.038
894 2 31.753 55.4202 21.9328
895 2 35.6854 55.2036 21.9688
896 2 39.7161 55.4961 22.0567
897 2 43.6876 55.4199 22.1355
898 2 47.4956 55.6 21.9642
899 2 51.4571 55.5334 21.9404
900 2 55.6373 55.3686 21.7954
901 2 0.241068 -0.0226142 25.9757
902 2 3.96108 -0.121604 25.9466
903 2 7.83605 59.3955 25.934
904 2 12.0065 0.0938351 26.0383
905 2 15.9077 0.11145 25.9757
906 2 19.9506 0.186358 25.9166
907 2 24.0995 0.0549906 26.0091
908 2 27.8853 -0.0839246 26.0433
909 2 31.7396 59.1734 25.9621
910 2 35.7409 0.0918519 26.0045
911 2 39.5479 0.0637686 26.0683
912 2 43.5908 0.0825253 26.064
913 2 47.5885 0.214863 25.9585
914 2 51.7937 59.5438 25.8882
915 2 55.5378 59.4324 25.9625
916 2 0.11755 4.20823 25.9366
917 2 4.03128 3.90623 25.8344
918 2 7.94431 4.03896 25.8851
919 2 11.931 4.14874 25.8722
920 2 16.065 3.91416 26.1448
921 2 19.8385 4.12066 25.9399
922 2 23.8818 4.1974 25.7329
923 2 27.7614 3.9418 25.9557
924 2 31.8719 4.00128 25.9374
925 2 35.6172 4.08402 25.916
926 2 39.6303 4.05641 26.0084
927 2 43.4391 3.82542 26.0475
928 2 47.5621 4.06297 25.8432
929 2 51.5007 4.02111 26.0331
930 2 55.5038 3.99693 26.0267
931 2 59.455 7.97849 25.7372
932 2 4.25077 8.05947 25.7377
933 2 7.9313 7.9748 25.8277
934 2 11.8822 8.11136 25.8283
935 2 15.8775 8.02574 25.8416
936 2 19.8595 7.91648 25.8472
937 2 23.6807 7.97375 25.9183
938 2 27.8101 8.13523 25.8683
939 2 31.8329 8.02667 25.8622
940 2 35.6327 7.94809 26.0847
941 2 39.5478 7.90821 25.8664
942 2 43.6378 7.93408 25.9762
943 2 47.6259 8.00306 25.8834
944 2 51.6889 8.14874 25.7035
945 2 55.3636 7.96627 25.9125
946 2 0.0433081 11.8942 25.8154
947 2 3.87233 11.8965 25.8061
948 2 8.18652 12.0966 25.7386
949 2 11.9475 11.9894 25.8624
950 2 16.044 11.8777 25.8309
951 2 19.8101 11.7862 25.8625
952 2 23.748 11.9723 25.9865
953 2 27.8231 12.0419 25.8514
954 2 31.7917 11.9534 25.976
955 2 35.9516 11.8848 25.8446
956 2 39.8178 11.7115 25.9206
957 2 43.648 11.9614 25.7931
958 2 47.5965 11.9524 25.8111
959 2 51.4925 11.9371 25.9133
960 2 55.4636 12.154 26.0464
961 2 59.4133 16.0186 25.7737
962 2 4.06333 15.8104 25.8493
963 2 7.9175 15.8722 25.7908
964 2 11.9539 16.1145 25.7618
965 2 15.9296 15.8986 25.9311
966 2 19.895 15.9017 25.9243
967 2 23.8432 15.7737 25.8935
968 2 27.8937 16.1008 25.8211
969 2 31.8619 16.05 25.8564
970 2 35.7533 15.7814 26.0119
971 2 39.8669 15.7726 25.9273
972 2 43.5377 15.9079 25.8798
973 2 47.4606 16.0943 25.8792
974 2 51.436 15.8569 25.6499
975 2 55.4762 15.953 25.8407
976 2 59.4988 20.2516 25.7726
977 2 4.06846 19.9816 25.7331
978 2 7.88871 19.9173 25.8079
979 2 11.7219 19.8477 25.7913
980 2 15.9368 19.854 25.8737
981 2 20.0136 19.9001 26.0047
982 2 23.7146 19.8329 26.0787
983 2 27.8626 20.0308 25.9685
984 2 31.7244 19.8568 25.8774
985 2 35.612 19.7958 25.8352
986 2 39.5215 19.893 25.8837
987 2 43.5659 19.6172 25.544
988 2 47.6077 19.7489 25.9798
989 2 51.5525 19.9784 25.9919
990 2 55.6489 19.8958 25.8656
991 2 59.4858 24.0414 25.8393
992 2 3.99789 23.8744 25.8531
993 2 7.95447 23.9988 26.0032
994 2 12.0251 23.9625 25.9255
995 2 16.0088 23.9009 25.7639
996 2 19.8909 23.7342 26.0441
997 2 23.8501 23.7748 25.9729
998 2 27.8862 23.9202 25.8191