ITEM: TIMESTEP
1531900
ITEM: NUMBER OF ATOMS
16875
ITEM: BOX BOUNDS xy xz yz pp pp pp
0.0000000000000000e+00 5.9369999999999997e+01 0.0000000000000000e+00
0.0000000000000000e+00 5.9369999999999997e+01 0.0000000000000000e+00
2.9808939968100034e-01 6.0068329600321590e+01 0.0000000000000000e+00
ITEM: ATOMS id type x y z
1 2 59.5438 59.1944 9.84711
2 2 4.06367 59.342 9.85778
3 2 7.96142 59.3163 10.0832
4 2 12.0032 59.4226 9.9704
5 2 16.0499 -0.269682 9.86153
6 2 19.71 59.5233 9.87027
7 2 23.9685 59.461 9.85811
8 2 27.7582 59.1866 10.055
9 2 31.5972 59.3751 9.81691
10 2 35.8474 59.4294 9.95534
11 2 39.6973 59.1354 9.8396
12 2 43.805 59.1793 9.90419
13 2 47.6239 59.3019 10.0911
14 2 51.4061 59.4348 10.1323
15 2 55.3561 59.3124 9.99297
16 2 0.12181 3.82543 9.95783
17 2 3.8822 3.79939 9.9378
18 2 8.01956 4.06632 9.9402
19 2 11.9545 3.71511 10.0077
20 2 16.0063 3.88861 10.0277
21 2 20.0065 3.89855 9.93622
22 2 23.8203 3.74576 9.72155
23 2 27.9124 3.81547 9.91356
24 2 31.9734 3.97335 9.82465
25 2 35.6916 4.00323 10.1055
26 2 39.6977 3.79404 9.81742
27 2 43.5053 3.8859 9.98952
28 2 47.3979 3.8117 9.77059
29 2 51.6166 3.70603 10.0699
30 2 55.343 4.01817 9.86548
31 2 -0.0108122 8.08617 10.0217
32 2 3.98254 7.70073 9.88056
33 2 7.83118 8.00036 9.88738
34 2 12.015 7.77385 10.0417
35 2 16.0974 7.88732 9.92169
36 2 19.9033 7.77954 10.104
37 2 23.9063 7.86908 9.92522
38 2 27.547 7.80187 9.89855
39 2 31.7149 7.8835 9.97288
40 2 35.7193 7.79806 9.98116
41 2 39.4769 7.85389 10.1268
42 2 43.7647 7.90545 9.83247
43 2 47.643 7.71745 9.94621
44 2 51.4703 7.80613 9.92115
45 2 55.476 7.88651 10.0276
46 2 0.165 11.8371 10.0321
47 2 4.06403 11.925 10.0971
48 2 7.73929 11.8296 9.9042
49 2 11.9333 11.7236 9.90627
50 2 16.0341 11.7932 9.96944
51 2 19.8439 11.7706 10.0971
52 2 23.8515 11.7529 9.84503
53 2 27.6431 11.8875 9.99997
54 2 31.8403 11.6822 9.95924
55 2 35.788 11.8789 10.0791
56 2 39.7366 11.6792 9.93716
57 2 43.4586 11.6909 9.9144
58 2 47.5645 11.4951 9.86478
59 2 51.5001 11.8644 10.1872
60 2 55.5435 11.8118 10.0135
61 2 59.3711 15.5513 9.92017
62 2 4.00538 15.7349 9.84257
63 2 7.80093 15.8222 9.89353
64 2 11.7763 15.4741 9.79071
65 2 15.6828 15.6299 9.80378
66 2 19.5529 15.5568 10.0655
67 2 23.7347 15.7651 10.0713
68 2 27.87 15.6657 9.89557
69 2 31.9631 15.6598 9.94903
70 2 35.7423 15.6049 10.0088
71 2 39.704 15.7533 10.0332
72 2 43.6119 15.7685 10.0338
73 2 47.5281 15.6283 10.0374
74 2 51.3495 15.7763 10.0771
75 2 55.3368 15.7487 9.78401
76 2 -0.0184127 19.8807 10.0401
77 2 3.96375 19.4434 9.94378
78 2 8.26272 19.7067 9.79291
79 2 11.9138 19.4444 9.98322
80 2 15.7629 19.4438 9.77777
81 2 19.7846 19.748 9.94222
82 2 23.7671 19.6537 10.0063
83 2 27.7715 19.5397 9.96206
84 2 31.7415 19.5482 10.0643
85 2 35.648 19.7385 10.019
86 2 39.7005 19.8674 10.0976
87 2 43.4861 19.8407 10.0127
88 2 47.5155 19.8141 9.99975
89 2 51.7039 19.7201 10.1537
90 2 55.4807 19.6682 9.96886
91 2 -0.0140313 23.6946 10.1251
92 2 4.03771 23.6077 9.97314
93 2 8.169 23.528 9.87549
94 2 11.8892 23.3163 9.98053
95 2 15.748 23.7528 9.8262
96 2 19.8828 23.7069 9.94992
97 2 23.7244 23.6751 10.1035
98 2 27.8219 23.6973 9.86771
99 2 31.6455 23.5339 9.89981
100 2 35.7732 23.6206 9.92405
101 2 39.5741 23.7652 10.0296
102 2 43.4728 23.5971 9.93385
103 2 47.4105 23.5941 9.97175
104 2 51.4458 23.6333 10.0228
105 2 55.406 23.6754 10.0028
106 2 0.104934 27.5251 9.79544
107 2 4.01231 27.5986 10.0493
108 2 8.06538 27.6245 9.93389
109 2 12.0371 27.6383 9.96094
110 2 15.9042 27.5946 9.80664
111 2 19.8146 27.4845 9.79267
112 2 23.8011 27.4874 9.91326
113 2 27.6793 27.4609 10.0401
114 2 31.8667 27.7189 10.0246
115 2 35.6311 27.6358 10.1635
116 2 39.6975 27.6772 9.97042
117 2 43.7053 27.6029 9.99127
118 2 47.4158 27.7924 9.95788
119 2 51.2816 27.5708 9.8571
120 2 55.4738 27.6742 9.86639
121 2 0.236067 31.5494 10.0947
122 2 4.15531 31.5721 9.75117
123 2 7.81072 31.6247 9.98657
124 2 11.9063 31.3654 10.19
125 2 16.0246 31.7396 9.90423
126 2 19.8776 31.5855 9.79956
127 2 23.6099 31.4966 9.93326
128 2 27.527 31.5857 9.94634
129 2 31.6689 31.5556 9.80719
130 2 35.6371 31.5979 10.0358
131 2 39.6964 31.5889 9.92894
132 2 43.4347 31.6802 10.065
133 2 47.6052 31.559 10.1113
134 2 51.664 31.5944 10.0495
135 2 55.5118 31.5888 10.0523
136 2 59.4004 35.7219 9.97176
137 2 4.19038 35.5368 9.69176
138 2 7.98423 35.6081 9.98385
139 2 12.0124 35.4813 9.98133
140 2 15.8513 35.4096 10.0077
141 2 19.786 35.7142 9.73413
142 2 23.9038 35.5234 9.80686
143 2 27.6865 35.4519 9.91142
144 2 31.7759 35.5592 9.88976
145 2 35.7627 35.5453 9.96072
146 2 39.9031 35.4934 9.9447
147 2 43.7868 35.5351 9.93442
148 2 47.5028 35.522 9.9984
149 2 51.5018 35.691 10.0067
150 2 55.5641 35.4612 10.1945
151 2 59.3408 39.4378 10.1115
152 2 4.08796 39.4574 9.95428
153 2 7.91471 39.4622 9.9067
154 2 11.9693 39.4304 9.86689
155 2 15.8637 39.5088 10.0776
156 2 19.9445 39.5236 9.9591
157 2 23.7805 39.5233 9.89713
158 2 27.7541 39.4331 10.1393
159 2 31.7358 39.4775 10.0106
160 2 35.6563 39.5026 9.93764
161 2 39.7667 39.4758 9.89696
162 2 43.6569 39.4631 9.93966
163 2 47.6591 39.6453 10.04
164 2 51.6575 39.553 10.045
165 2 55.4624 39.4665 10.0149
166 2 59.5232 43.4417 9.86274
167 2 3.95371 43.6217 10.1158
168 2 7.85304 43.6081 10.2713
169 2 12.028 43.482 9.89926
170 2 15.8912 43.3111 9.83322
171 2 19.7805 43.3887 9.84949
172 2 24.0346 43.557 9.94371
173 2 27.843 43.4342 9.97993
174 2 31.6896 43.4148 9.9311
175 2 35.9643 43.484 9.94157
176 2 39.6706 43.5374 10.0394
177 2 43.5135 43.4193 9.77149
178 2 47.3867 43.2658 9.96019
179 2 51.4316 43.569 9.83513
180 2 55.4791 43.2272 9.86878
181 2 59.4618 47.4542 9.99276
182 2 4.0347 47.4582 9.98254
183 2 7.81511 47.4658 10.0962
184 2 12.3108 47.3314 9.91414
185 2 16.1071 47.3814 9.949
186 2 19.9387 47.2292 9.82464
187 2 24.0607 47.3761 9.98409
188 2 27.9631 47.3474 9.85083
189 2 31.7592 47.1965 10.1253
190 2 35.6502 47.3124 9.92
191 2 39.6649 47.498 9.95647
192 2 43.8064 47.3597 9.84283
193 2 47.429 47.5109 10.0805
194 2 51.6717 47.3256 9.95503
195 2 55.4072 47.1711 9.79223
196 2 -0.0208806 51.4546 10.0753
197 2 4.06493 51.7621 10.2083
198 2 7.9818 51.2661 10.2236
199 2 11.7961 51.3196 9.97387
200 2 16.192 51.2484 9.96093
201 2 20.0706 51.333 10.0031
202 2 23.8735 51.3414 10.0595
203 2 27.9136 51.3707 9.8623
204 2 31.7554 51.4255 10.2211
205 2 35.7702 51.3992 10.061
206 2 39.7227 51.3395 9.96587
207 2 43.6675 51.4661 9.90702
208 2 47.5317 51.2249 10.1248
209 2 51.603 51.2882 10.2335
210 2 55.62 51.4312 10.0443
211 2 0.0621371 55.3336 9.93402
212 2 3.83317 55.3217 10.0729
213 2 8.03648 55.4953 10.0995
214 2 12.059 55.3529 9.97947
215 2 16.0081 55.4314 10.0464
216 2 20.1414 55.3445 9.71666
217 2 23.7211 55.3216 9.91736
218 2 27.7171 55.3123 10.0405
219 2 31.644 55.4847 9.84382
220 2 35.8349 55.3927 9.89382
221 2 39.6673 55.2862 10.0776
222 2 43.4056 55.3344 9.80225
223 2 47.5176 55.2686 9.97861
224 2 51.4592 55.3648 10.0584
225 2 55.4798 55.4249 10.0202
226 2 0.00530184 59.196 13.9825
227 2 3.83511 59.3987 13.9847
228 2 8.13716 59.4239 14.0181
229 2 12.0808 59.2256 13.9066
230 2 16.0752 0.0515805 13.8965
231 2 19.8956 -0.0432675 13.8483
232 2 23.8025 -0.102909 13.9972
233 2 27.6341 59.1105 14.0587
234 2 31.6818 59.2274 14.1606
235 2 35.6657 59.2662 14.0514
236 2 39.5553 0.0862554 13.9224
237 2 43.582 59.4092 13.8952
238 2 47.4201 -0.189575 13.9177
239 2 51.7153 -0.0325614 14.0329
240 2 55.5943 59.442 13.9931
241 2 -0.0962124 3.70849 13.8267
242 2 4.18176 3.9865 13.8129
243 2 8.21479 4.04766 13.8709
244 2 11.9387 3.81735 13.9452
245 2 15.7575 3.71911 13.9889
246 2 19.7922 3.98786 13.9218
247 2 23.8171 3.78518 13.9689
248 2 27.6565 3.84081 13.8029
249 2 31.6937 3.75899 13.8564
250 2 35.5654 3.77703 14.1735
251 2 39.7898 3.83406 13.6925
252 2 43.5553 3.85734 13.8645
253 2 47.5403 3.89614 13.9572
254 2 51.4119 3.77829 14.0148
255 2 55.3987 4.09604 13.9692
256 2 0.120119 7.74964 13.8373
257 2 3.93977 7.73116 13.9306
258 2 8.03141 7.94282 13.9975
259 2 12.0522 7.88444 13.8879
260 2 16.1336 7.76452 13.8959
261 2 19.9823 7.90827 14.0908
262 2 23.8421 7.79786 14.0138
263 2 27.798 7.77645 13.6732
264 2 31.6363 7.80199 13.8258
265 2 35.6203 7.80775 14.0011
266 2 39.6299 7.73941 13.9493
267 2 43.659 7.76775 14.0092
268 2 47.61 7.83031 13.8541
269 2 51.5814 7.59178 13.9534
270 2 55.6446 7.92483 14.078
271 2 0.155084 11.7678 14.0473
272 2 3.92118 11.641 14.0317
273 2 7.87425 11.6806 14.0185
274 2 11.7875 11.8514 13.8984
275 2 15.8095 11.8105 13.9698
276 2 19.972 11.8413 13.9473
277 2 23.7939 11.8065 14.0248
278 2 27.755 11.7922 14.0682
279 2 31.5759 11.6186 13.9161
280 2 35.6217 11.7561 14.0514
281 2 39.7698 11.6258 13.8009
282 2 43.7002 11.9679 13.9445
283 2 47.3257 11.608 14.0334
284 2 51.4272 11.6899 14.1295
285 2 55.2959 11.7838 14.1173
286 2 -0.0298668 15.746 13.9044
287 2 3.97654 15.6367 13.953
288 2 8.10948 15.741 13.9596
289 2 11.8628 15.6958 13.9324
290 2 15.9513 15.9134 13.8614
291 2 20.0078 15.8558 13.8423
292 2 23.8711 15.7323 14.1206
293 2 27.8688 15.7767 13.808
294 2 31.9193 15.7579 13.973
295 2 35.761 15.8256 14.0668
296 2 39.4095 15.7173 14.0173
297 2 43.6256 15.8314 13.9743
298 2 47.4407 15.8627 13.8297
299 2 51.4475 15.5812 14.1265
300 2 55.6374 15.8022 13.942
301 2 0.0574798 19.5591 14.0281
302 2 3.88545 19.5528 13.8855
303 2 7.86288 19.5847 13.9393
304 2 12.0533 19.5675 13.9422
305 2 15.823 19.6352 14.0525
306 2 19.831 19.8315 14.0025
307 2 23.8134 19.6477 14.0676
308 2 27.7905 19.6233 14.0783
309 2 31.6789 19.7839 14.0672
310 2 35.7991 19.6133 13.8194
311 2 39.631 19.7852 14.1191
312 2 43.565 19.6668 14.0379
313 2 47.4112 19.6048 14.0027
314 2 51.5282 19.7334 14.0259
315 2 55.3268 19.7368 13.8652
316 2 0.115904 23.6587 13.8402
317 2 4.24585 23.5995 13.8946
318 2 7.81814 23.378 13.8921
319 2 11.9829 23.7877 13.9316
320 2 16.0701 23.6877 13.7803
321 2 19.7596 23.6256 13.8791
322 2 23.7317 23.8325 14.0375
323 2 27.5099 23.7486 13.9127
324 2 31.9147 23.6718 13.9197
325 2 35.7234 23.5481 14.0339
326 2 39.6746 23.7055 13.9841
327 2 43.5419 23.8279 13.9195
328 2 47.497 23.6758 13.8383
329 2 51.3937 23.5006 14.0743
330 2 55.6229 23.6306 14.1203
331 2 0.155619 27.884 13.7933
332 2 4.1619 27.5446 13.8691
333 2 7.87166 27.3762 14.0407
334 2 11.8618 27.4678 13.9131
335 2 15.9082 27.707 13.9116
336 2 19.6181 27.6028 13.8094
337 2 23.6464 27.7694 14.0078
338 2 28.0219 27.5727 13.8886
339 2 31.6888 27.6821 13.8466
340 2 35.8461 27.7529 14.0559
341 2 39.6692 27.845 14.106
342 2 43.6852 27.6182 13.9319
343 2 47.6696 27.5991 13.8646
344 2 51.658 27.542 13.8936
345 2 55.5663 27.451 13.8128
346 2 0.202032 31.645 14.0009
347 2 4.1737 31.5428 13.8655
348 2 8.13528 31.4094 13.7765
349 2 12.0942 31.4358 13.9884
350 2 16.0225 31.5435 14.0517
351 2 19.9031 31.4441 13.799
352 2 24.0535 31.5647 13.8685
353 2 27.8088 31.4478 13.7689
354 2 31.875 31.615 13.8867
355 2 35.7731 31.6588 14.1389
356 2 39.684 31.6547 13.9064
357 2 43.6984 31.7236 13.9136
358 2 47.4953 31.5272 13.8733
359 2 51.4203 31.5384 14.0536
360 2 55.4819 31.5482 14.1223
361 2 0.197969 35.6371 13.6692
362 2 4.07029 35.4732 13.8358
363 2 8.17536 35.5394 14.1092
364 2 12.091 35.5359 13.9663
365 2 16.0686 35.6578 13.9102
366 2 20.0919 35.4858 13.9876
367 2 23.9557 35.6449 13.9085
368 2 27.8788 35.4123 14.0154
369 2 31.9259 35.3978 13.8703
370 2 35.9048 35.7508 13.7629
371 2 39.6677 35.6821 14.0464
372 2 43.5858 35.6044 14.0157
373 2 47.6324 35.681 13.9225
374 2 51.5354 35.5942 14.1246
375 2 55.5114 35.5625 14.0986
376 2 0.178905 39.4359 14.0559
377 2 4.22418 39.4107 14.1175
378 2 7.99919 39.6542 13.8275
379 2 12.0712 39.4326 14.019
380 2 16.0465 39.4293 13.9434
381 2 20.0032 39.5459 13.8513
382 2 23.9761 39.4979 14.0599
383 2 27.9209 39.3947 13.9635
384 2 31.7836 39.7925 14.0143
385 2 35.6007 39.5797 14.0544
386 2 39.7099 39.4016 14.1036
387 2 43.83 39.6088 14.0114
388 2 47.6427 39.4169 13.9056
389 2 51.4897 39.5567 13.9462
390 2 55.5231 39.5516 13.9861
391 2 0.0399955 43.5059 13.7834
392 2 3.78724 43.528 13.9619
393 2 8.11152 43.3823 14.0247
394 2 12.0234 43.4311 13.9763
395 2 15.9936 43.4184 13.8581
396 2 19.9892 43.4386 13.8047
397 2 23.9158 43.4448 13.9656
398 2 27.9391 43.4882 14.022
399 2 31.875 43.4785 13.9246
400 2 35.9438 43.5896 13.9348
401 2 39.9641 43.4739 13.8975
402 2 43.7032 43.3944 13.9035
403 2 47.6628 43.5296 14.0297
404 2 51.5336 43.2825 14.032
405 2 55.5067 43.2898 13.8391
406 2 -0.0640736 47.6561 13.9844
407 2 3.97434 47.2934 14.0301
408 2 8.16098 47.386 13.8955
409 2 11.9699 47.4257 13.8645
410 2 15.988 47.3717 13.8498
411 2 20.0245 47.4633 14.0258
412 2 23.8061 47.386 13.9402
413 2 27.8552 47.5697 13.9988
414 2 31.7725 47.5059 14.2953
415 2 35.6541 47.4884 13.9165
416 2 39.8093 47.4982 13.9694
417 2 43.6217 47.4028 14.0883
418 2 47.8241 47.4855 13.8149
419 2 51.6334 47.3754 14.0701
420 2 55.5495 47.1972 13.9767
421 2 0.0325906 51.4989 13.9956
422 2 4.19328 51.422 14.0657
423 2 8.14933 51.4418 13.8241
424 2 12.16 51.3651 13.7892
425 2 16.0768 51.3169 13.9776
426 2 19.8624 51.3083 13.8281
427 2 23.8936 51.4151 13.8885
428 2 27.7132 51.4409 13.9027
429 2 31.7333 51.4569 13.9968
430 2 35.7882 51.3673 13.9043
431 2 39.5734 51.4314 13.8353
432 2 43.5829 51.4123 14.0107
433 2 47.5828 51.4774 13.9252
434 2 51.6379 51.4288 14.0877
435 2 55.5787 51.3539 13.9316
436 2 0.00206707 55.4256 13.9447
437 2 4.03626 55.4917 13.9484
438 2 7.98414 55.1312 13.8649
439 2 11.9968 55.1487 13.8023
440 2 16.2186 55.4154 13.9263
441 2 20.1049 55.3451 13.9317
442 2 23.7723 55.3117 13.8595
443 2 27.8418 55.2418 13.9403
444 2 31.7891 55.2458 13.7616
445 2 35.5884 55.2803 14.0382
446 2 39.7572 55.4264 14.0675
447 2 43.5789 55.2444 13.9791
448 2 47.5985 55.3509 14.0402
449 2 51.5644 55.4002 14.183
450 2 55.5379 55.4768 14.0339
451 2 0.121574 -0.0345084 18.0423
452 2 4.08855 -0.265591 17.9021
453 2 7.81216 59.2723 17.8453
454 2 12.0275 59.1017 18.0939
455 2 15.907 59.2894 17.9386
456 2 19.781 59.2922 18.0426
457 2 23.7444 59.3139 18.0048
458 2 27.8217 -0.00893426 17.9556
459 2 31.7891 59.3383 17.8422
460 2 35.7765 59.2918 18.063
461 2 39.747 0.185181 17.905
462 2 43.8054 59.4556 17.9111
463 2 47.6547 -0.159917 17.8787
464 2 51.6354 59.3762 18.0313
465 2 55.5727 59.2593 18.1162
466 2 0.116326 3.8747 18.1286
467 2 4.02111 3.90049 17.9915
468 2 8.01144 3.6916 18.2117
469 2 11.9058 3.8736 17.9504
470 2 16.008 3.82891 17.8516
471 2 19.8472 3.7437 18.0786
472 2 23.793 3.88372 17.8576
473 2 27.9022 4.16466 17.9783
474 2 31.6507 4.02833 17.9062
475 2 35.6612 3.97137 17.8764
476 2 39.8933 3.93838 17.9558
477 2 43.745 3.94807 17.904
478 2 47.6139 3.86322 18.0566
479 2 51.3529 3.91881 17.9043
480 2 55.5765 3.96371 18.1788
481 2 -0.0455189 7.97703 18.0248
482 2 4.05268 7.53552 17.8116
483 2 8.02412 7.80295 18.0426
484 2 11.9791 7.88691 17.9733
485 2 15.9809 7.89956 17.8483
486 2 19.8975 7.65332 17.9175
487 2 23.9422 7.86602 17.9853
488 2 27.8712 7.89283 18.1562
489 2 31.6002 7.97996 18.0189
490 2 35.7235 7.6636 17.9056
491 2 39.73 7.93354 17.8747
492 2 43.4948 7.91125 18.0699
493 2 47.6389 7.97091 17.9174
494 2 51.5629 7.8183 17.9956
495 2 55.4153 7.83964 17.9326
496 2 0.326988 11.8317 17.9604
497 2 4.18882 11.7941 17.9516
498 2 8.10694 11.8062 17.9928
499 2 12.0027 11.635 18.0228
500 2 16.0084 11.7918 17.9647
501 2 19.7998 11.9122 17.9315
502 2 23.7589 11.6625 17.9757
503 2 27.7796 11.665 18.0053
504 2 31.829 11.7315 17.7265
505 2 35.6884 11.6298 17.848
506 2 39.7129 11.8784 18.014
507 2 43.7894 12.0452 17.9361
508 2 47.5968 11.6067 17.8915
509 2 51.6401 11.7828 18.0122
510 2 55.623 11.9018 17.934
511 2 59.3832 15.7966 17.9291
512 2 3.98066 15.8577 17.8143
513 2 8.11335 15.7111 17.8172
514 2 11.8836 15.6571 17.9016
515 2 15.8159 15.7954 18.1189
516 2 19.8066 15.773 17.6949
517 2 23.9063 15.8405 18.1361
518 2 27.8682 15.6207 17.791
519 2 31.6388 15.5618 17.8722
520 2 35.8193 15.6292 17.8908
521 2 39.4809 15.7673 17.8996
522 2 43.434 16.1067 17.7807
523 2 47.5104 15.633 17.932
524 2 51.4333 15.7937 18.0232
525 2 55.4358 15.7874 17.9593
526 2 0.0728408 19.8188 17.8915
527 2 4.116 19.671 17.9281
528 2 7.99049 19.7026 17.8749
529 2 12.0767 19.822 17.8832
530 2 15.7328 19.8227 17.9202
531 2 19.9769 20.0006 17.8765
532 2 23.8525 19.8333 17.9991
533 2 27.6439 19.6839 17.8882
534 2 31.6782 19.4936 18.0447
535 2 35.808 19.8352 18.065
536 2 39.6506 19.7436 18.1088
537 2 43.8292 19.798 17.9666
538 2 47.5379 19.6988 17.7468
539 2 51.4429 19.6208 18.2204
540 2 55.6326 19.8503 17.9189
541 2 0.190807 23.854 18.0127
542 2 4.08235 23.7128 17.9261
543 2 7.9968 23.7303 17.9569
544 2 11.9061 23.7832 17.8072
545 2 16.0066 23.7056 17.9811
546 2 19.8691 23.64 17.9969
547 2 23.9278 23.8239 17.8835
548 2 27.9776 23.6968 17.9781
549 2 31.871 23.569 17.894
550 2 35.6023 23.8604 17.9851
551 2 39.6915 23.7056 17.9384
552 2 43.4245 23.733 17.9884
553 2 47.468 23.7784 17.9058
554 2 51.4119 23.502 17.9349
555 2 55.6377 23.8323 17.8531
556 2 0.180637 27.9591 17.7753
557 2 4.17363 27.7053 17.9337
558 2 8.13158 27.6263 17.875
559 2 12.0745 27.5882 17.92
560 2 15.9856 27.7087 18.0022
561 2 19.9393 27.5094 17.9323
562 2 23.8489 27.6911 17.9837
563 2 27.8554 27.5599 17.7823
564 2 31.7037 27.5886 17.865
565 2 35.6327 27.4724 18.0278
566 2 39.5917 27.7165 17.7612
567 2 43.6451 27.6069 17.9054
568 2 47.7493 27.696 17.9346
569 2 51.6728 27.6523 17.9024
570 2 55.7597 27.7243 17.7693
571 2 0.137908 31.7763 17.9144
572 2 4.15675 31.7173 17.8073
573 2 7.81885 31.6642 17.7704
574 2 11.9263 31.5307 17.7103
575 2 16.2266 31.4843 17.939
576 2 20.0763 31.3407 17.97
577 2 23.935 31.6535 17.998
578 2 27.7491 31.8309 17.9057
579 2 31.7591 31.7484 17.8988
580 2 35.6568 31.8011 17.9405
581 2 39.7742 31.5433 18.0146
582 2 43.7523 31.6129 17.9321
583 2 47.6832 31.6463 17.9177
584 2 51.7551 31.7139 17.76
585 2 55.5101 31.7803 18.0092
586 2 0.259247 35.5562 17.9858
587 2 4.11109 35.5443 18.0199
588 2 7.9925 35.5065 17.9429
589 2 11.9454 35.694 17.9215
590 2 15.9421 35.4708 18.0638
591 2 19.8513 35.5172 17.8339
592 2 23.7945 35.7233 18.0448
593 2 27.8755 35.8193 18.1105
594 2 31.7939 35.749 17.9355
595 2 35.5446 35.8456 18.0908
596 2 39.5049 35.5928 18.1009
597 2 43.6268 35.6821 17.8434
598 2 47.7855 35.5762 17.7991
599 2 51.8705 35.6061 17.9334
600 2 55.634 35.5321 17.9609
601 2 0.237677 39.6098 17.801
602 2 4.17468 39.6276 18.1321
603 2 8.09108 39.5776 18.0311
604 2 11.9155 39.4066 18.0725
605 2 15.8788 39.5188 18.0075
606 2 19.9625 39.5662 17.9508
607 2 23.9663 39.4922 18.0727
608 2 27.879 39.4361 17.8857
609 2 31.644 39.6346 17.9167
610 2 35.6102 39.5255 17.9085
611 2 39.6521 39.407 18.065
612 2 43.4714 39.6159 17.9586
613 2 47.6581 39.3382 17.8503
614 2 51.6389 39.493 17.9177
615 2 55.463 39.4707 17.9655
616 2 0.192393 43.3754 17.8263
617 2 3.78096 43.7536 17.9804
618 2 8.18824 43.5558 17.8583
619 2 12.1515 43.6351 17.7693
620 2 15.8551 43.2868 18.0227
621 2 19.9214 43.4404 17.9319
622 2 23.9068 43.6151 17.9338
623 2 27.8572 43.3486 17.9384
624 2 31.7197 43.5294 18.029
625 2 35.5291 43.631 18.0552
626 2 39.4466 43.5524 17.9336
627 2 43.5411 43.5165 18.1896
628 2 47.5736 43.6031 17.9428
629 2 51.7292 43.6237 17.8646
630 2 55.5818 43.7651 18.0212
631 2 0.268336 47.5902 17.9481
632 2 4.07291 47.4087 18.0974
633 2 7.98634 47.5334 18.0731
634 2 12.2201 47.3826 17.9531
635 2 16.0799 47.5434 18.0253
636 2 19.8441 47.2863 17.9947
637 2 23.859 47.5416 17.8499
638 2 27.8722 47.4027 17.9503
639 2 31.7218 47.4779 18.0955
640 2 35.6064 47.2814 17.9004
641 2 39.7193 47.6532 17.7881
642 2 43.6399 47.4863 17.9147
643 2 47.6213 47.6442 17.9976
644 2 51.6184 47.5944 17.7823
645 2 55.6084 47.4876 17.9421
646 2 0.138741 51.29 18.062
647 2 4.25794 51.3417 17.7016
648 2 8.08623 51.4986 18.0006
649 2 12.037 51.3633 17.8812
650 2 15.8456 51.478 17.8903
651 2 19.9344 51.4754 18.0239
652 2 23.8153 51.3923 17.9824
653 2 27.8093 51.4949 17.7526
654 2 31.638 51.2375 18.0066
655 2 35.8837 51.4607 17.8374
656 2 39.8275 51.4557 18.0109
657 2 43.6731 51.3399 18.0344
658 2 47.4773 51.6074 18.0498
659 2 51.6304 51.4665 17.9709
660 2 55.6492 51.301 17.8875
661 2 0.0162607 55.2163 17.7763
662 2 4.13494 55.3162 18.0326
663 2 8.06809 55.192 17.8442
664 2 11.9362 55.6009 17.9476
665 2 15.8946 55.2213 17.8497
666 2 19.941 55.2525 17.6931
667 2 23.8219 55.3956 17.8937
668 2 27.7778 55.2379 17.9852
669 2 31.9428 55.3036 17.879
670 2 35.7102 55.5543 18.0713
671 2 39.6386 55.47 17.9902
672 2 43.549 55.493 17.9977
673 2 47.5147 55.4859 17.9418
674 2 51.5679 55.3497 17.9905
675 2 55.3675 55.3946 18.054
676 2 59.44 59.3698 21.9804
677 2 4.05312 -0.135111 21.9452
678 2 8.03417 0.0822899 21.8571
679 2 12.0765 -0.0920853 21.9083
680 2 15.8705 59.3928 21.7765
681 2 19.8326 -0.150203 21.8295
682 2 23.8914 59.5105 21.8973
683 2 27.9171 0.0587617 21.7215
684 2 31.8707 -0.0242771 21.9126
685 2 35.8708 0.09971 21.8649
686 2 39.7169 59.3534 21.9387
687 2 43.6804 -0.0196119 21.9912
688 2 47.4487 -0.00898662 21.9714
689 2 51.3754 59.2323 21.9939
690 2 55.4437 -0.112356 22.1418
691 2 -0.0488438 3.78963 21.9375
692 2 3.85396 3.86718 21.7015
693 2 8.00158 4.04313 21.9337
694 2 11.8599 3.94625 21.8925
695 2 16.0062 3.93738 21.8722
696 2 19.8756 3.94399 21.9659
697 2 23.9088 3.90869 22.02
698 2 27.8499 4.07911 21.7842
699 2 31.8177 3.86029 22.0363
700 2 35.8003 3.83046 21.9461
701 2 39.704 4.11028 21.8727
702 2 43.6983 4.15581 21.9031
703 2 47.5862 4.06867 22.0226
704 2 51.6442 3.84927 22.0076
705 2 55.3042 3.84808 22.0267
706 2 0.0748891 7.81031 21.9036
707 2 4.06141 7.793 21.9172
708 2 8.14899 7.96312 22.0111
709 2 12.1438 7.67498 22.0026
710 2 15.8208 7.82221 21.9756
711 2 19.7029 7.93538 21.7016
712 2 23.7851 7.78486 22.0067
713 2 27.6951 8.15039 22.0607
714 2 31.8434 7.8301 21.9258
715 2 35.8161 7.92344 21.6638
716 2 39.6113 7.94909 21.9518
717 2 43.8831 7.92567 21.8157
718 2 47.8102 7.86754 21.7196
719 2 51.5631 7.80314 22.0818
720 2 55.4724 7.90012 21.9162
721 2 59.6154 11.9222 21.9501
722 2 4.01705 11.8573 22.0085
723 2 7.99557 11.7294 21.6475
724 2 12.1015 11.7864 21.8689
725 2 15.9996 11.8264 21.9502
726 2 19.7002 11.8436 21.903
727 2 23.6626 11.8687 22.0223
728 2 27.8461 11.8445 22.1529
729 2 31.9119 11.8443 21.8395
730 2 35.8973 11.9492 21.8059
731 2 39.6544 11.8657 22.0558
732 2 43.7129 11.9775 21.9219
733 2 47.5625 11.7328 22.044
734 2 51.6285 11.8776 22.0454
735 2 55.603 12.0056 21.8036
736 2 0.260995 15.8749 21.7173
737 2 4.10026 15.8736 21.9179
738 2 8.03917 15.6676 21.947
739 2 11.9899 15.9379 21.9816
740 2 15.8068 15.8305 21.9452
741 2 20.1291 16.0444 22.0199
742 2 23.8814 15.6578 22.1028
743 2 27.8339 15.7082 21.8982
744 2 31.9339 15.9082 21.6386
745 2 35.8584 15.7527 22.0076
746 2 39.8384 15.8913 22.098
747 2 43.6158 15.7033 21.9871
748 2 47.6456 15.619 21.8259
749 2 51.7457 15.9917 21.9176
750 2 55.5792 15.9745 21.975
751 2 0.0175838 19.6978 21.977
752 2 4.13905 19.7672 22.0043
753 2 8.16023 19.7501 21.7567
754 2 11.8774 19.8528 21.796
755 2 15.8041 19.7125 21.7849
756 2 19.954 19.7596 21.9013
757 2 23.9845 19.7854 21.9389
758 2 27.7072 19.9087 21.9095
759 2 31.6894 19.9003 21.8619
760 2 35.6303 19.7923 21.7223
761 2 39.7997 19.6159 21.8814
762 2 43.7363 19.8681 21.9254
763 2 47.3994 19.7311 21.9908
764 2 51.5182 20.0152 21.7089
765 2 55.3846 19.8568 21.8602
766 2 0.124907 24.0399 21.9714
767 2 4.27939 23.6463 22.0836
768 2 8.05138 24.0038 21.8179
769 2 11.9131 23.6334 22.0286
770 2 15.7417 23.6761 22.0369
771 2 19.8965 23.659 22.0815
772 2 23.8027 23.719 21.8041
773 2 27.7525 23.7843 21.9893
774 2 31.589 23.7036 22.0173
775 2 35.6664 23.9177 21.8992
776 2 39.574 23.6669 21.8823
777 2 43.5952 23.7758 21.8468
778 2 47.4796 23.8581 21.944
779 2 51.627 23.7488 21.8475
780 2 55.5159 23.9729 21.8879
781 2 59.584 27.6855 22.044
782 2 4.03394 27.6745 21.9282
783 2 8.15827 27.7193 21.8827
784 2 11.894 27.7112 21.922
785 2 15.8739 27.6712 21.9753
786 2 19.6535 27.7267 22.12
787 2 23.7905 27.4952 21.7656
788 2 27.7431 27.7247 22.0264
789 2 31.7289 27.7101 21.7627
790 2 35.7643 27.913 21.8124
791 2 39.6766 27.7621 21.9232
792 2 43.6732 27.7321 21.8424
793 2 47.6163 27.7913 21.9448
794 2 51.4275 27.6934 21.7763
795 2 55.5713 27.8755 21.7719
796 2 59.4477 31.6578 21.9709
797 2 4.07511 31.5919 21.9765
798 2 7.97036 31.6762 21.9765
799 2 12.0547 31.7796 21.7371
800 2 15.8826 31.8137 21.9132
801 2 19.9315 31.8337 22.0001
802 2 23.908 31.6937 21.9336
803 2 27.805 31.7163 21.9808
804 2 31.7355 31.7472 21.9658
805 2 35.648 31.8165 22.1018
806 2 39.8748 31.6987 21.859
807 2 43.6557 31.6131 21.7803
808 2 47.6476 31.8255 21.8645
809 2 51.7177 31.7234 21.8121
810 2 55.2656 31.4672 21.8812
811 2 -0.00453397 35.6428 21.9525
812 2 3.88524 35.7613 21.9327
813 2 7.96709 35.5741 22.0263
814 2 12.0222 35.6893 21.9066
815 2 15.8817 35.5902 21.8164
816 2 19.8641 35.7725 21.8563
817 2 23.6794 35.5114 21.9425
818 2 27.8375 35.7137 21.8686
819 2 31.6306 35.5612 22.0155
820 2 35.7854 35.4528 21.8888
821 2 39.8159 35.571 21.7809
822 2 43.7136 35.8969 21.584
823 2 47.604 35.6185 21.7336
824 2 51.5308 35.6402 21.9717
825 2 55.4772 35.5436 21.99
826 2 0.0213021 39.482 21.7359
827 2 4.00528 39.6485 21.9919
828 2 7.99243 39.6821 21.9333
829 2 11.8975 39.6291 22.0591
830 2 16.037 39.4538 21.9548
831 2 20.1429 39.6374 21.8947
832 2 23.9464 39.6647 22.0096
833 2 27.7308 39.6072 21.8383
834 2 31.9187 39.8614 21.8991
835 2 35.7816 39.7265 21.8397
836 2 39.5957 39.6903 21.8205
837 2 43.7116 39.7546 21.8611
838 2 47.4308 39.5148 22.026
839 2 51.4505 39.7191 21.9781
840 2 55.8298 39.4929 21.942
841 2 0.182177 43.6389 21.9484
842 2 4.04845 43.3947 21.9746
843 2 8.30239 43.7271 21.9505
844 2 12.1067 43.5341 21.8788
845 2 16.0459 43.5523 22.0465
846 2 19.9821 43.5992 21.9929
847 2 23.7835 43.6006 22.0554
848 2 27.7601 43.659 22.2037
849 2 31.7315 43.5861 21.9755
850 2 35.821 43.4797 21.9691
851 2 39.7913 43.5423 21.8434
852 2 43.735 43.8581 21.808
853 2 47.7242 43.5439 21.8272
854 2 51.6897 43.4983 21.9569
855 2 55.6781 43.4619 21.6667
856 2 0.236085 47.5928 22.0068
857 2 4.14301 47.5712 22.0248
858 2 8.05788 47.5156 21.9819
859 2 12.1124 47.5415 21.943
860 2 16.1143 47.4946 21.9642
861 2 19.8292 47.4514 22.0114
862 2 23.9555 47.6064 22.0553
863 2 27.8244 47.5602 21.9113
864 2 31.9124 47.7587 21.9403
865 2 35.6104 47.5185 22.0799
866 2 39.6881 47.6601 21.6882
867 2 43.8159 47.5897 21.7948
868 2 47.5765 47.6438 22.0404
869 2 51.3584 47.4523 22.0673
870 2 55.6302 47.556 21.9857
871 2 0.147057 51.4498 21.8278
872 2 3.78967 51.5197 21.8416
873 2 8.10794 51.4041 21.8542
874 2 11.9736 51.6326 21.8603
875 2 15.9044 51.5269 21.8885
876 2 19.9719 51.4455 21.8853
877 2 23.9897 51.6648 21.9535
878 2 27.762 51.451 21.849
879 2 31.7265 51.4894 21.8666
880 2 35.8273 51.5171 21.8842
881 2 39.6653 51.6648 21.8585
882 2 43.7465 51.5233 21.9628
883 2 47.6701 51.5391 22.0128
884 2 51.5961 51.3696 22.1079
885 2 55.4669 51.4389 21.9914
886 2 -0.0523255 55.0822 21.9355
887 2 3.99914 55.3599 22.0298
888 2 7.93629 55.3376 21.938
889 2 11.989 55.5812 22.0153
890 2 16.1629 55.3896 21.7546
891 2 19.8449 55.4731 21.915
892 2 23.9637 55.3795 21.9638
893 2 27.9099 55.5134 22.0261
894 2 31.9353 55.3092 21.9752
895 2 35.6582 55.3619 21.8819
896 2 39.7793 55.5631 22.064
897 2 43.6579 55.6307 22.0303
898 2 47.6567 55.4392 22.0178
899 2 51.5921 55.2794 21.9553
900 2 55.5726 55.3259 22.1361
901 2 0.203696 0.298894 25.8519
902 2 3.9503 0.0297238 26.0188
903 2 7.98985 59.5085 25.7575
904 2 12.1583 0.0700983 25.8319
905 2 15.9934 0.108394 25.8973
906 2 19.8657 0.0648429 26.0634
907 2 23.8821 0.151396 25.8086
908 2 27.6758 0.243232 25.9648
909 2 31.6463 59.395 25.9646
910 2 35.5085 0.0295341 25.7899
911 2 39.4966 -0.00239451 26.0083
912 2 43.5135 0.16033 25.9677
913 2 47.6577 0.038206 25.9997
914 2 51.7894 59.3167 25.9338
915 2 55.8215 59.3875 25.9383
916 2 0.0992972 3.98357 25.7868
917 2 4.09204 3.98497 25.7146
918 2 8.1387 3.92689 26.1139
919 2 12.1161 4.01563 25.8878
920 2 15.8017 4.19253 26.0181
921 2 19.8571 3.99842 25.9537
922 2 23.6239 4.08263 26.041
923 2 27.746 4.18685 25.8183
924 2 31.5414 4.07916 25.8869
925 2 35.6521 4.01844 25.9012
926 2 39.5357 4.14541 25.8435
927 2 43.685 4.06125 26.0661
928 2 47.5717 3.85463 25.9798
929 2 51.5375 4.12457 25.9992
930 2 55.5984 3.91383 25.9375
931 2 59.4622 8.05154 25.8067
932 2 4.05409 7.78266 25.9519
933 2 8.10065 8.12183 25.7792
934 2 11.9586 8.15666 26.0146
935 2 16.0032 8.0172 25.9985
936 2 19.8433 7.8699 25.7709
937 2 23.7912 7.99991 25.935
938 2 27.6316 7.89431 26.1157
939 2 31.7883 8.03105 25.9104
940 2 35.5241 7.72921 25.9327
941 2 39.4667 7.92284 25.9135
942 2 43.6739 7.70862 25.9325
943 2 47.5488 7.8889 25.9931
944 2 51.6439 7.98449 26.0783
945 2 55.5918 8.00912 25.8434
946 2 0.170753 12.0475 25.7849
947 2 4.14099 11.7006 25.9562
948 2 7.99791 12.0645 25.7009
949 2 11.8925 11.8098 26.0268
950 2 15.8548 11.8118 26.0235
951 2 19.959 11.7787 25.7798
952 2 23.6268 11.7438 25.8568
953 2 27.9222 11.905 25.9008
954 2 31.9908 11.8897 25.8242
955 2 35.7996 12.0316 26.0115
956 2 39.8858 11.8187 25.8657
957 2 43.7658 11.7307 25.942
958 2 47.7784 11.8226 26.1497
959 2 51.8165 12.0245 25.7952
960 2 55.6109 11.986 25.9258
961 2 59.5056 15.9235 25.9926
962 2 4.11422 15.8424 25.8803
963 2 8.24851 15.7756 25.9358
964 2 11.883 15.8936 25.8062
965 2 16.0958 15.5729 26.0648
966 2 19.898 15.9907 25.9521
967 2 23.7858 15.7546 26.0833
968 2 28.0359 15.7625 25.7437
969 2 31.7775 16.0933 25.743
970 2 35.7992 15.8283 25.7987
971 2 39.7602 15.6611 25.8491
972 2 43.5777 15.7395 26.0287
973 2 47.7327 16.0491 25.7527
974 2 51.5093 15.9148 25.8919
975 2 55.5831 15.962 25.8723
976 2 59.3872 20.0491 25.8684
977 2 4.21424 19.8279 25.9345
978 2 8.11521 19.883 25.919
979 2 12.0953 19.852 25.8056
980 2 16.0697 19.7614 25.8617
981 2 19.8929 19.8601 25.9528
982 2 23.9281 19.7331 26.0999
983 2 27.8493 19.8128 25.8657
984 2 31.8194 19.8427 25.8937
985 2 35.9326 19.7641 25.8826
986 2 39.6007 19.6829 26.014
987 2 43.7241 19.618 25.9246
988 2 47.5568 19.8342 25.9366
989 2 51.6589 19.9375 25.8682
990 2 55.547 19.8505 25.796
991 2 59.4522 23.8774 25.9333
992 2 4.14365 23.5867 26.0095
993 2 8.03034 23.8186 25.9122
994 2 11.9446 23.9788 26.0104
995 2 16.0184 23.8673 26.0958
996 2 19.8731 23.9589 25.9545
997 2 23.7185 23.6498 25.8972
998 2 27.7689 23.9344 25.9236