ITEM: TIMESTEP
1532400
ITEM: NUMBER OF ATOMS
16875
ITEM: BOX BOUNDS xy xz yz pp pp pp
0.0000000000000000e+00 5.9369999999999997e+01 0.0000000000000000e+00
0.0000000000000000e+00 5.9369999999999997e+01 0.0000000000000000e+00
3.1601807288600625e-01 6.0050400927116513e+01 0.0000000000000000e+00
ITEM: ATOMS id type x y z
1 2 59.3928 59.4382 10.0318
2 2 4.00135 59.2417 9.94576
3 2 8.08839 59.3449 9.91219
4 2 12.1125 59.5141 10.0068
5 2 16.1007 -0.00401851 10.0631
6 2 19.673 59.2328 10.0594
7 2 23.9881 59.2855 9.91118
8 2 27.8465 59.191 9.85575
9 2 31.5732 59.2325 9.82171
10 2 35.6452 59.3545 9.94965
11 2 39.6581 59.4288 9.99094
12 2 43.3682 59.2188 10.0811
13 2 47.5728 59.2728 9.86659
14 2 51.5464 59.236 9.85485
15 2 55.5831 59.2697 9.91345
16 2 0.200052 3.9603 9.92328
17 2 4.12202 3.85284 9.8806
18 2 8.0293 4.04333 9.96184
19 2 12.0518 4.06666 9.77872
20 2 15.8677 4.11293 9.97757
21 2 19.9488 3.86544 9.91489
22 2 23.8634 3.62814 10.001
23 2 27.6567 3.5904 9.85514
24 2 31.327 3.82745 9.98527
25 2 35.5095 3.87135 9.92919
26 2 39.563 3.84548 10.0712
27 2 43.6665 3.88378 10.0406
28 2 47.3512 3.7822 10.1154
29 2 51.5089 4.00842 10.0968
30 2 55.4441 3.89606 9.84585
31 2 0.127302 7.83208 9.76355
32 2 4.03162 7.84507 10.0848
33 2 7.9548 7.65864 9.91603
34 2 12.0996 7.98835 9.91096
35 2 15.8413 7.98233 9.92688
36 2 19.878 7.86934 9.88358
37 2 23.7699 7.67788 10.0875
38 2 27.7628 7.89577 9.96062
39 2 31.716 7.80344 10.1285
40 2 35.6336 7.91577 9.99363
41 2 39.6035 7.89374 10.0801
42 2 43.375 7.73243 10.1157
43 2 47.3622 7.80668 9.96033
44 2 51.5288 7.79463 9.99767
45 2 55.6503 7.8638 9.91623
46 2 -0.072958 11.7845 10.021
47 2 3.9666 11.8082 9.98567
48 2 7.98175 11.7641 9.90761
49 2 11.8109 11.8156 9.96409
50 2 15.6832 11.9179 10.1021
51 2 19.7608 11.8988 10.1304
52 2 23.6177 11.6874 10.029
53 2 27.781 11.8382 10.0457
54 2 31.6454 11.7315 10.1118
55 2 35.6535 11.635 9.97529
56 2 39.6657 11.8607 9.76484
57 2 43.4803 11.7403 10.0809
58 2 47.3923 11.8596 10.0212
59 2 51.3164 11.5905 9.92058
60 2 55.4981 11.8341 9.94802
61 2 59.4798 15.7777 10.0579
62 2 3.87552 15.6949 10.0127
63 2 7.90257 15.5791 9.91158
64 2 12.0502 15.7314 9.96731
65 2 15.875 16.0774 9.97648
66 2 19.9052 15.9192 9.92855
67 2 23.9645 15.6719 9.91592
68 2 27.648 15.7142 10.1107
69 2 31.5954 15.7068 9.98252
70 2 35.7288 15.8192 9.68996
71 2 39.7348 15.713 9.90888
72 2 43.7338 15.7084 9.94873
73 2 47.5809 15.5119 9.8611
74 2 51.4665 15.6871 10.0201
75 2 55.4039 15.7981 10.1778
76 2 -0.215617 19.6668 9.92887
77 2 3.85304 19.6956 9.91576
78 2 7.9841 19.5207 10.0432
79 2 11.9216 19.7959 10.0785
80 2 15.9814 19.8453 10.0249
81 2 19.8807 19.7711 9.93313
82 2 23.8671 19.6076 9.92484
83 2 27.7734 19.8185 9.96154
84 2 31.7863 19.6147 9.906
85 2 35.632 19.591 10.1681
86 2 39.7692 19.4984 9.89564
87 2 43.6313 19.8838 9.88984
88 2 47.4795 19.8267 10.0095
89 2 51.155 19.5546 9.73486
90 2 55.2918 19.6299 10.0355
91 2 0.133953 23.624 9.91846
92 2 3.92625 23.4949 9.86294
93 2 7.92523 23.6361 9.95837
94 2 11.9188 23.7431 10.0179
95 2 15.7649 23.7151 9.90887
96 2 19.7484 23.7038 9.88835
97 2 23.8075 23.5961 9.93488
98 2 27.831 23.4709 9.90165
99 2 31.5879 23.4817 10.026
100 2 35.7037 23.6132 9.88529
101 2 39.6505 23.5708 9.95368
102 2 43.5562 23.6107 10.0589
103 2 47.7204 23.4441 10.1217
104 2 51.6689 23.4244 9.90269
105 2 55.3584 23.5853 10.0089
106 2 0.0172151 27.6311 10.1849
107 2 3.87175 27.4916 10.0055
108 2 7.77668 27.5614 10.0256
109 2 11.7131 27.8638 9.72739
110 2 15.9395 27.5447 10.1674
111 2 19.7971 27.6945 10.053
112 2 23.854 27.5626 9.96989
113 2 27.7952 27.6089 9.8818
114 2 31.7792 27.4623 9.83204
115 2 35.7192 27.5434 9.80128
116 2 39.5792 27.5704 9.8447
117 2 43.4776 27.7282 10.0827
118 2 47.5406 27.5359 9.997
119 2 51.4905 27.5846 10.1781
120 2 55.4429 27.6258 10.0652
121 2 -0.0553455 31.6467 10.0674
122 2 3.93431 31.698 10.0888
123 2 7.90132 31.5561 9.98008
124 2 11.9063 31.6172 10.009
125 2 16.046 31.611 9.95431
126 2 19.9035 31.6739 9.80801
127 2 23.7591 31.4887 9.93873
128 2 27.9545 31.4902 10.0435
129 2 31.9794 31.5943 9.98416
130 2 35.6179 31.6126 9.87614
131 2 39.5452 31.8079 10.1428
132 2 43.6016 31.5817 10.0592
133 2 47.6075 31.5579 10.0903
134 2 51.428 31.5171 10.0939
135 2 55.5308 31.7977 9.99416
136 2 59.4288 35.4099 10.0708
137 2 4.00517 35.7577 10.2955
138 2 7.87099 35.4211 9.9931
139 2 11.9728 35.7008 9.8958
140 2 15.8877 35.5016 10.0102
141 2 20.0516 35.6325 9.98717
142 2 23.8054 35.4716 10.1553
143 2 27.6038 35.6086 10.0301
144 2 31.6714 35.5534 10.0683
145 2 35.6259 35.7563 10.013
146 2 39.5336 35.5511 9.90993
147 2 43.4529 35.384 9.81081
148 2 47.6008 35.6773 9.89328
149 2 51.475 35.6955 9.91625
150 2 55.3976 35.5025 10.0637
151 2 59.3344 39.361 10.0187
152 2 3.73047 39.4185 10.1675
153 2 8.09997 39.6338 10.1427
154 2 11.9362 39.4442 10.0685
155 2 16.0434 39.5953 10.0006
156 2 19.8193 39.5123 10.0847
157 2 23.7253 39.5508 9.92267
158 2 27.701 39.6079 10.1374
159 2 31.8196 39.5192 9.91126
160 2 35.8674 39.6536 9.93607
161 2 39.7685 39.4931 9.99639
162 2 43.6119 39.3058 9.94028
163 2 47.443 39.2901 10.0021
164 2 51.302 39.4372 10.1266
165 2 55.5066 39.3741 9.88517
166 2 59.205 43.0898 9.92697
167 2 3.91037 43.468 9.90859
168 2 7.97866 43.1083 9.87536
169 2 11.9116 43.47 9.94593
170 2 15.8453 43.4545 9.99467
171 2 19.8355 43.5398 10.0256
172 2 23.7698 43.4759 10.1217
173 2 27.8411 43.5356 10.1628
174 2 31.6009 43.6829 10.1834
175 2 35.6314 43.3469 9.96019
176 2 39.7883 43.2994 9.82829
177 2 43.74 43.5115 10.0341
178 2 47.6769 43.5099 9.964
179 2 51.3798 43.3531 9.95839
180 2 55.3152 43.3607 10.0461
181 2 59.4727 47.238 9.99919
182 2 3.87444 47.4353 10.1562
183 2 7.64208 47.3353 9.98497
184 2 11.6136 47.2375 10.1759
185 2 15.8211 47.4246 10.049
186 2 19.8374 47.4635 9.92479
187 2 23.7284 47.4266 9.96107
188 2 27.6395 47.6061 10.1659
189 2 31.7746 47.6008 9.89846
190 2 35.7584 47.4747 9.90367
191 2 39.5603 47.4112 9.91232
192 2 43.6223 47.3859 10.084
193 2 47.6596 47.5593 9.89158
194 2 51.3298 47.3621 9.88449
195 2 55.4537 47.3479 9.79658
196 2 0.152626 51.3854 10.0093
197 2 3.9178 51.2126 9.8924
198 2 8.2074 51.3805 9.96458
199 2 11.9035 51.3955 9.97865
200 2 15.7385 51.2349 10.0063
201 2 19.9021 51.3703 9.97152
202 2 23.8437 51.5304 9.90133
203 2 27.6853 51.2773 10.1092
204 2 31.8283 51.3549 10.0684
205 2 35.6644 51.3918 9.97009
206 2 39.6507 51.5152 9.88427
207 2 43.5899 51.3877 9.83312
208 2 47.5136 51.3597 9.84646
209 2 51.3052 51.3945 9.96234
210 2 55.3427 51.2997 9.88352
211 2 0.128293 55.3671 10.1307
212 2 4.18757 55.1302 9.96041
213 2 8.04007 55.432 9.86893
214 2 12.0339 55.2797 10.1029
215 2 15.8098 55.2927 10.092
216 2 19.798 55.4097 10.0632
217 2 23.8209 55.1933 9.89576
218 2 27.751 55.1301 9.92735
219 2 31.6858 55.1733 10.0285
220 2 35.6237 55.2643 9.9991
221 2 39.7392 55.3835 9.88365
222 2 43.6941 55.3646 9.90457
223 2 47.4702 55.4445 10.0017
224 2 51.4528 55.2608 9.92446
225 2 55.5367 55.444 10.0011
226 2 0.164591 59.4929 13.8772
227 2 4.02138 59.3048 13.9888
228 2 8.18489 59.3066 14.0096
229 2 11.9683 59.4636 13.9981
230 2 15.7963 -0.0893748 13.9912
231 2 19.9041 -0.0775835 13.9402
232 2 23.9325 -0.0640974 13.8827
233 2 27.8737 59.2821 13.9254
234 2 32.049 59.3738 13.8786
235 2 35.7806 59.2455 13.8082
236 2 39.7176 -0.0300234 13.9395
237 2 43.7127 59.2149 13.9934
238 2 47.5074 -0.142733 14.0813
239 2 51.3335 -0.0134049 13.9714
240 2 55.4551 59.3869 13.8989
241 2 0.0887195 3.99303 13.8553
242 2 4.01213 3.77195 14.0459
243 2 8.0418 3.79194 13.6801
244 2 12.0517 3.84059 13.9867
245 2 16.0371 4.10229 13.9897
246 2 19.9945 3.9484 13.9457
247 2 23.8512 3.8253 13.8434
248 2 27.7831 3.95417 13.9243
249 2 31.7031 3.88231 14.0229
250 2 35.7713 3.80476 13.8925
251 2 39.568 4.09543 13.9857
252 2 43.5794 3.85604 14.0556
253 2 47.5396 3.83517 14.0751
254 2 51.5899 4.02409 13.8907
255 2 55.4839 3.75977 13.9972
256 2 -0.0368336 7.78817 13.749
257 2 4.0395 7.95686 14.0322
258 2 7.94278 7.83385 13.9336
259 2 12.0215 7.74868 14.1329
260 2 15.8335 7.84066 14.0904
261 2 19.9903 7.89414 14.0219
262 2 23.9066 7.5975 13.86
263 2 27.6754 7.87923 14.0748
264 2 31.6536 7.76605 13.9886
265 2 35.6157 7.84388 13.9449
266 2 39.5801 7.80329 13.914
267 2 43.4716 7.88968 13.9604
268 2 47.4065 7.76189 14.1598
269 2 51.5771 8.05245 14.0253
270 2 55.5731 7.78502 13.7563
271 2 0.0875644 11.9104 14.1038
272 2 4.26947 11.7807 13.8486
273 2 8.15801 11.8025 13.9803
274 2 11.8659 11.883 14.0364
275 2 16.0282 11.8568 13.9525
276 2 19.8269 11.7343 14.0618
277 2 23.8745 11.6276 13.7085
278 2 27.7955 11.6556 13.9352
279 2 31.9631 11.9829 13.9899
280 2 35.72 11.8945 13.9635
281 2 39.6205 12.0569 14.027
282 2 43.4374 11.9158 14.09
283 2 47.6979 11.7934 13.7245
284 2 51.7801 11.6655 13.7508
285 2 55.6917 11.7873 13.871
286 2 0.0596912 15.8801 14.0153
287 2 4.08773 15.8687 14.0922
288 2 7.86312 15.7345 14.0207
289 2 11.8781 15.8579 14.1037
290 2 15.9269 15.7105 13.9605
291 2 19.8179 15.9359 14.1184
292 2 23.755 15.7091 13.8797
293 2 27.7438 15.728 14.126
294 2 31.6218 15.6663 14.0254
295 2 35.6768 15.7196 13.735
296 2 39.6863 15.8971 13.9115
297 2 43.7564 15.8662 14.0289
298 2 47.5959 15.865 14.2206
299 2 51.4786 15.6519 14.1094
300 2 55.3818 15.6484 14.0759
301 2 0.10199 19.6693 14.0813
302 2 4.09286 19.8165 13.926
303 2 8.10321 19.7199 13.9253
304 2 11.8675 19.9312 13.9594
305 2 15.9875 19.6634 14.0697
306 2 20.0349 19.772 13.8801
307 2 23.8281 19.8654 13.8931
308 2 27.8769 19.5717 13.9987
309 2 31.7682 19.56 13.9166
310 2 35.6522 19.5845 13.9042
311 2 39.7554 19.7842 14.0558
312 2 43.5833 19.77 14.0861
313 2 47.709 19.5879 14.0071
314 2 51.3716 19.7871 13.886
315 2 55.3074 19.7714 14.0064
316 2 0.151624 23.5694 13.9583
317 2 3.98882 23.6747 14.0247
318 2 7.98561 23.7177 14.0439
319 2 11.9952 23.7265 13.8615
320 2 15.6587 23.6668 14.1474
321 2 19.9005 23.8429 13.784
322 2 23.9864 23.6645 13.9899
323 2 27.8654 23.5898 13.8808
324 2 31.7749 23.5217 14.0298
325 2 35.5856 23.5701 13.8781
326 2 39.6209 23.8709 13.7508
327 2 43.602 23.7449 13.9566
328 2 47.5426 23.7425 14.0026
329 2 51.6135 23.759 14.0114
330 2 55.569 23.6988 13.8366
331 2 0.247274 27.4612 13.9608
332 2 4.07023 27.6655 14.0259
333 2 8.06112 27.8218 14.085
334 2 11.9712 27.6675 13.9296
335 2 16.0389 27.7 13.9077
336 2 20.0659 27.7697 13.9298
337 2 23.8629 27.4898 13.8562
338 2 27.9727 27.6406 13.9371
339 2 31.887 27.4862 13.7771
340 2 35.7617 27.6986 13.864
341 2 39.5571 27.7813 14.2088
342 2 43.6023 27.7514 14.1061
343 2 47.556 27.6235 14.0978
344 2 51.5756 27.7327 13.9495
345 2 55.5368 27.8172 13.9342
346 2 0.19818 31.7231 14.1269
347 2 4.12589 31.5672 14.025
348 2 8.07878 31.5862 14.0216
349 2 12.0116 31.6223 13.9924
350 2 15.8082 31.594 13.7498
351 2 19.9828 31.6998 13.979
352 2 23.8341 31.4545 14.0561
353 2 27.9452 31.5405 13.7968
354 2 31.8016 31.889 13.9109
355 2 35.6845 31.6515 13.9673
356 2 39.5854 31.5775 13.8693
357 2 43.7149 31.6001 13.8387
358 2 47.6505 31.6289 13.9372
359 2 51.6311 31.7637 13.9354
360 2 55.505 31.879 14.0747
361 2 -0.0123462 35.5764 14.1317
362 2 3.85588 35.651 14.0938
363 2 7.94046 35.5155 14.0365
364 2 11.737 35.5028 13.7813
365 2 15.8571 35.4922 13.7459
366 2 19.9372 35.4761 14.1103
367 2 23.8048 35.634 14.1062
368 2 27.689 35.7621 13.9989
369 2 31.7884 35.5186 14.0214
370 2 35.6186 35.6142 13.9403
371 2 39.529 35.7237 13.7947
372 2 43.4747 35.3871 14.1586
373 2 47.5855 35.5565 14.2308
374 2 51.7153 35.7298 14.052
375 2 55.6457 35.628 13.9707
376 2 0.0707786 39.3685 14.1086
377 2 3.94744 39.6673 13.9874
378 2 7.93045 39.4942 14.1437
379 2 11.8133 39.4512 14.0593
380 2 15.8801 39.3946 13.9826
381 2 19.8084 39.6052 14.0541
382 2 23.8726 39.5468 13.9253
383 2 27.7869 39.7219 14.0443
384 2 31.7824 39.6034 13.9533
385 2 35.6607 39.3921 13.919
386 2 39.6171 39.3699 13.9706
387 2 43.5734 39.4484 13.8704
388 2 47.5184 39.5704 13.9994
389 2 51.341 39.7099 13.9851
390 2 55.38 39.5031 13.9287
391 2 0.112985 43.3229 14.14
392 2 3.96609 43.5545 13.9872
393 2 7.9387 43.3482 14.0716
394 2 11.9541 43.4796 14.0298
395 2 16.0524 43.4458 14.0429
396 2 19.7567 43.4689 14.171
397 2 23.776 43.5264 14.1453
398 2 27.7708 43.5931 14.0428
399 2 31.6507 43.3561 14.003
400 2 35.612 43.4999 14.0903
401 2 39.5719 43.5707 14.0037
402 2 43.4931 43.3802 13.6933
403 2 47.4558 43.5061 14.1404
404 2 51.4398 43.6766 13.8271
405 2 55.299 43.5083 13.9023
406 2 0.138402 47.1804 13.991
407 2 4.0005 47.422 14.003
408 2 7.95287 47.4742 14.0462
409 2 12.0164 47.2103 14.0576
410 2 15.9464 47.376 13.9665
411 2 19.997 47.4818 14.0582
412 2 23.8165 47.3174 14.0018
413 2 27.756 47.2995 14.0542
414 2 31.803 47.3755 13.8192
415 2 35.7658 47.4598 13.9441
416 2 39.5766 47.3472 14.0025
417 2 43.5012 47.4726 14.0343
418 2 47.5008 47.4852 13.9086
419 2 51.4549 47.5564 13.9573
420 2 55.5224 47.4759 13.9335
421 2 -0.0390102 51.3257 13.8823
422 2 3.82072 51.4435 13.948
423 2 7.978 51.322 13.8243
424 2 12.0244 51.4745 13.8781
425 2 15.8376 51.3129 13.9845
426 2 19.873 51.4048 13.8438
427 2 23.8989 51.6498 14.0555
428 2 27.8404 51.2117 14.099
429 2 31.8893 51.4626 13.842
430 2 35.7912 51.3162 13.8873
431 2 39.7118 51.4793 14.0351
432 2 43.5353 51.5874 13.7184
433 2 47.4043 51.2734 13.999
434 2 51.6639 51.4179 13.8621
435 2 55.452 51.3743 13.9095
436 2 0.0926535 55.3804 13.9733
437 2 4.2961 55.4522 13.8498
438 2 7.95511 55.1858 13.9274
439 2 11.9909 55.3503 14.0184
440 2 15.8785 55.3204 14.008
441 2 20.014 55.3772 14.1074
442 2 23.8505 55.3925 13.8967
443 2 27.8819 55.4676 13.9708
444 2 31.6463 55.3616 13.9261
445 2 35.856 55.4171 14.0016
446 2 39.5564 55.2396 13.9397
447 2 43.7535 55.3727 13.7042
448 2 47.3545 55.3796 13.8574
449 2 51.5458 55.4545 13.8731
450 2 55.3432 55.2733 13.8664
451 2 0.174222 -0.0356177 17.974
452 2 4.02053 0.0877304 17.9885
453 2 7.83507 59.1709 17.6673
454 2 12.0584 59.4522 17.947
455 2 15.9752 59.4534 17.953
456 2 19.8792 59.3857 18.0582
457 2 23.9764 59.3254 17.8368
458 2 28.0084 -0.0200914 17.8266
459 2 31.7364 59.2237 17.897
460 2 35.6816 59.2941 18.0271
461 2 39.6447 -0.0859457 17.8697
462 2 43.5626 59.4222 18.0522
463 2 47.4936 -0.00720396 17.9847
464 2 51.7106 59.3211 18.0636
465 2 55.6155 59.4284 17.8414
466 2 0.0041914 3.82407 17.794
467 2 4.14296 4.10448 17.704
468 2 8.09857 4.12405 17.9559
469 2 12.0723 3.82021 18.0061
470 2 16.004 3.85375 18.1131
471 2 19.8936 4.01294 18.0279
472 2 23.7148 3.77336 17.9225
473 2 27.8571 3.77839 18.0861
474 2 31.6773 3.79876 18.0879
475 2 35.9243 3.93278 17.8299
476 2 39.7026 3.87155 18.0574
477 2 43.5177 3.80287 17.8876
478 2 47.639 3.9986 17.9862
479 2 51.5857 3.87458 17.8534
480 2 55.5205 3.94983 18.0012
481 2 0.169642 7.88426 17.8175
482 2 4.00078 8.05364 17.7711
483 2 7.86816 7.79634 17.8464
484 2 11.9382 7.93089 17.9573
485 2 15.8192 7.89209 18.1431
486 2 19.931 7.96457 18.0174
487 2 24.0142 7.83129 17.9351
488 2 27.7826 8.01256 17.9623
489 2 31.8057 7.74218 17.9841
490 2 35.7207 7.83227 17.9061
491 2 39.629 7.9722 17.8787
492 2 43.636 7.91156 17.7959
493 2 47.7262 7.97786 18.0326
494 2 51.7001 7.83178 17.9054
495 2 55.5842 7.76896 17.8592
496 2 0.0551017 11.5869 17.8834
497 2 4.11704 11.8446 17.8346
498 2 8.14228 11.6371 17.901
499 2 12.0122 11.8083 18.0501
500 2 15.9924 11.7792 17.9338
501 2 19.8964 11.9568 18.023
502 2 24.037 11.8514 17.9004
503 2 27.7938 11.9934 17.8724
504 2 31.8432 11.8361 18.1068
505 2 35.7056 11.9273 18.1604
506 2 39.6856 11.8944 18.0253
507 2 43.6784 11.733 18.0067
508 2 47.6832 11.987 18.0482
509 2 51.5929 11.6922 17.884
510 2 55.5115 12.021 17.9954
511 2 59.71 15.6262 17.9584
512 2 4.22983 15.8118 18.1031
513 2 7.97068 15.8086 18.0664
514 2 12.076 15.9013 18.0658
515 2 16.228 15.8236 18.0525
516 2 20.0042 15.7276 18.0769
517 2 23.9368 15.7669 17.8366
518 2 27.7241 15.9093 18.0977
519 2 31.7272 15.7404 17.9223
520 2 35.7902 15.8714 18.0184
521 2 39.7828 15.8094 17.8967
522 2 43.751 15.5963 17.9198
523 2 47.6403 15.832 18.2042
524 2 51.6432 15.8904 17.8106
525 2 55.435 15.8557 17.9081
526 2 0.0033708 19.6999 17.995
527 2 3.93652 19.6474 17.9901
528 2 7.85672 19.7658 17.9838
529 2 11.9743 19.6768 17.9069
530 2 16.0725 19.6888 17.8626
531 2 19.8995 19.8374 17.9756
532 2 23.9102 19.804 17.9485
533 2 27.8536 19.817 17.962
534 2 31.8012 19.7469 17.9728
535 2 35.7278 19.7309 18.0466
536 2 39.6512 19.991 17.8387
537 2 43.6417 19.7855 18.042
538 2 47.6162 19.9725 18.064
539 2 51.7154 19.7928 18.0563
540 2 55.4201 19.6612 17.985
541 2 0.154498 23.7718 17.9553
542 2 4.13792 23.767 17.7196
543 2 8.11613 23.6399 18.0936
544 2 11.9656 23.7336 17.9705
545 2 15.9818 23.4791 17.7261
546 2 19.779 23.9837 17.925
547 2 23.7588 23.7702 17.9659
548 2 27.6917 23.8074 18.1147
549 2 31.6503 23.7034 17.9661
550 2 35.7712 23.5704 17.7999
551 2 39.6971 23.8249 18.0649
552 2 43.6082 23.5605 18.1668
553 2 47.6422 23.529 17.8777
554 2 51.7162 24.0042 17.8148
555 2 55.455 23.6507 17.5631
556 2 0.235246 27.669 18.014
557 2 4.07272 27.5844 18.0783
558 2 8.1003 27.6247 17.988
559 2 12.0132 27.5566 18.0033
560 2 15.8679 27.6234 17.778
561 2 19.9451 27.8191 17.7919
562 2 23.9872 27.8021 17.9857
563 2 27.7874 27.8695 17.8423
564 2 31.6895 27.9766 17.9596
565 2 35.6271 27.6318 17.9513
566 2 39.7186 27.7574 18.071
567 2 43.7232 27.6531 17.9917
568 2 47.543 27.5272 17.7839
569 2 51.5962 27.7752 17.9609
570 2 55.7334 27.7055 18.0047
571 2 0.132957 31.5081 17.9184
572 2 4.04215 31.6286 18.0163
573 2 8.03168 31.531 18.0616
574 2 12.2412 31.6816 17.9575
575 2 15.9956 31.5438 17.9177
576 2 19.7653 31.6584 18.0631
577 2 23.902 31.6134 17.9445
578 2 27.7688 31.5334 17.6434
579 2 31.739 31.7086 18.0705
580 2 35.7555 31.4042 17.9222
581 2 39.6136 31.5923 17.983
582 2 43.637 31.748 17.8022
583 2 47.5207 31.4931 17.684
584 2 51.6028 31.5162 17.8812
585 2 55.6859 31.628 18.0143
586 2 0.222142 35.6633 18.0504
587 2 4.13501 35.5582 17.9674
588 2 7.92883 35.731 18.0958
589 2 12.1286 35.4174 17.8625
590 2 16.0006 35.4601 18.0274
591 2 19.9067 35.589 17.9464
592 2 23.9703 35.4509 18.0219
593 2 27.7936 35.701 18.0217
594 2 31.7776 35.5759 18.0298
595 2 35.784 35.5634 18.0775
596 2 39.6747 35.6418 17.7744
597 2 43.6008 35.4693 18.0104
598 2 47.5636 35.7051 18.0387
599 2 51.4179 35.5577 18.0199
600 2 55.4113 35.7103 18.0983
601 2 -0.082441 39.4994 18.084
602 2 4.0765 39.691 18.0178
603 2 8.10636 39.4382 18.077
604 2 12.1791 39.4638 17.8131
605 2 15.8604 39.4166 17.9952
606 2 19.9324 39.634 17.7465
607 2 23.8028 39.455 18.0963
608 2 27.781 39.6873 17.9685
609 2 31.6755 39.5418 18.1148
610 2 35.6609 39.4455 17.9653
611 2 39.5356 39.6008 18.0192
612 2 43.5675 39.4993 17.8732
613 2 47.5912 39.6504 18.0107
614 2 51.592 39.5377 18.0098
615 2 55.4707 39.4695 17.9619
616 2 0.0409889 43.4751 18.0825
617 2 4.24477 43.5102 17.6728
618 2 8.02155 43.5605 18.1116
619 2 11.8512 43.5235 17.929
620 2 15.8779 43.5796 17.9392
621 2 20.0065 43.4935 18.0076
622 2 23.8265 43.6433 18.0589
623 2 27.6352 43.4789 18.0404
624 2 31.9867 43.5013 17.9757
625 2 35.8752 43.4361 17.9927
626 2 39.7727 43.4949 17.7989
627 2 43.6843 43.7037 17.9725
628 2 47.6118 43.409 17.8271
629 2 51.6267 43.621 18.0523
630 2 55.6316 43.3847 17.9733
631 2 -0.0458974 47.5162 17.7569
632 2 4.08523 47.5597 17.9218
633 2 7.99376 47.4112 17.9695
634 2 11.903 47.4645 18.0395
635 2 15.7994 47.7002 17.7552
636 2 19.7629 47.4014 18.0303
637 2 23.8485 47.4848 17.8969
638 2 27.9667 47.5708 18.0706
639 2 31.8127 47.3358 17.8506
640 2 35.741 47.3318 17.8893
641 2 39.8363 47.4441 17.7992
642 2 43.7756 47.4968 17.8115
643 2 47.5165 47.456 18.0853
644 2 51.5694 47.3968 17.8994
645 2 55.619 47.5533 17.9759
646 2 0.0345281 51.3377 18.0568
647 2 4.03133 51.4479 17.7894
648 2 8.01546 51.1883 17.8993
649 2 12.0911 51.2961 17.8749
650 2 16.172 51.3548 17.7592
651 2 19.8047 51.4268 18.2474
652 2 23.8154 51.249 18.0409
653 2 28.0138 51.4766 18.0811
654 2 31.8243 51.2311 17.9309
655 2 35.6776 51.1876 17.9822
656 2 39.8426 51.5262 17.9432
657 2 43.645 51.6314 17.98
658 2 47.8709 51.5753 17.9331
659 2 51.5414 51.7806 17.8759
660 2 55.6294 51.4697 18.0413
661 2 0.230827 55.5444 17.9623
662 2 4.26533 55.3435 17.8995
663 2 8.12011 55.4774 17.8725
664 2 11.8641 55.2016 17.8689
665 2 15.9226 55.4642 17.9043
666 2 20.0025 55.524 17.9864
667 2 23.936 55.5301 17.8366
668 2 27.909 55.2933 18.0519
669 2 31.9231 55.357 17.9675
670 2 35.6403 55.2667 17.9275
671 2 39.4411 55.415 17.7772
672 2 43.7137 55.5744 18.0219
673 2 47.7098 55.3844 18.0056
674 2 51.5119 55.5134 17.8859
675 2 55.5236 55.3264 17.8743
676 2 59.5588 59.4298 22.0153
677 2 4.14677 0.226238 21.8465
678 2 8.00243 -0.17559 21.8919
679 2 11.9488 0.0440851 21.9987
680 2 15.9404 59.3084 21.9391
681 2 20.1035 0.0583986 22.0548
682 2 23.9053 59.3366 21.9703
683 2 27.8993 -0.10705 21.9393
684 2 31.7253 -0.0183009 22.1503
685 2 35.6862 -0.0810644 22.1319
686 2 39.5852 59.3318 21.8689
687 2 43.7398 -0.000210549 21.9412
688 2 47.9279 0.0532937 21.8936
689 2 51.7579 59.4622 22.0403
690 2 55.5594 -0.107391 21.9445
691 2 0.179204 4.07839 22.0428
692 2 4.01041 4.02882 22.0024
693 2 8.21635 4.01675 21.7275
694 2 11.9578 4.05984 21.9567
695 2 15.8801 3.98879 22.0862
696 2 19.9452 3.7987 21.9643
697 2 24.0281 3.96948 21.9053
698 2 27.8118 3.9957 21.901
699 2 31.8242 4.19398 21.9213
700 2 35.6761 3.98767 22.0028
701 2 39.7395 3.94146 21.8842
702 2 43.7035 3.94206 21.8977
703 2 47.4256 3.93811 21.8375
704 2 51.6332 3.88522 22.0379
705 2 55.7009 4.00858 21.7294
706 2 0.078174 8.04339 22.0177
707 2 4.00683 7.98734 21.8967
708 2 7.75609 7.99204 21.9848
709 2 12.0022 7.98782 21.8257
710 2 16.0402 8.01273 22.0591
711 2 19.9666 7.96469 22.0097
712 2 23.894 8.0308 22.0128
713 2 27.7722 7.80882 21.9235
714 2 31.8194 7.91594 21.9209
715 2 35.756 8.00399 22.0035
716 2 39.8834 7.81851 21.8823
717 2 43.6089 7.833 22.0964
718 2 47.5211 8.00915 22.042
719 2 51.5414 8.03199 21.8962
720 2 55.7151 7.96477 21.8849
721 2 59.3963 12.102 21.7891
722 2 4.12353 11.8878 21.9819
723 2 8.07816 11.8565 21.9331
724 2 11.8986 12.0346 21.7796
725 2 15.9314 11.8412 22.0066
726 2 19.8526 11.8455 22.0073
727 2 23.8631 11.8929 22.0413
728 2 27.7701 11.9509 21.9367
729 2 31.6833 11.7512 21.9894
730 2 35.9362 11.6566 21.7879
731 2 39.9059 11.8155 21.7569
732 2 43.9682 11.774 21.9115
733 2 47.9202 11.9029 21.8352
734 2 51.5947 12.017 21.9724
735 2 55.5204 11.7893 21.8088
736 2 0.0109648 15.886 21.9189
737 2 3.89595 15.6575 21.9186
738 2 8.02903 15.8264 22.0848
739 2 12.1431 15.9296 22.0271
740 2 15.9727 15.904 21.8721
741 2 19.8784 15.7546 21.9211
742 2 23.8228 15.9274 21.8439
743 2 27.7049 15.9371 22.0934
744 2 31.7282 15.7945 21.9842
745 2 35.6878 15.8738 21.9355
746 2 39.7658 15.8533 21.9428
747 2 43.5534 15.5986 21.988
748 2 47.6893 16.0557 22.0059
749 2 51.5868 15.9859 21.9971
750 2 55.44 15.8543 21.9948
751 2 0.178376 19.8597 21.9751
752 2 4.0357 19.9084 21.862
753 2 7.94217 19.9036 22.0365
754 2 11.7905 19.7017 21.9824
755 2 16.1053 19.7658 22.0153
756 2 19.8802 19.7912 21.9398
757 2 23.7513 19.9299 22.0594
758 2 27.9364 19.8526 21.8733
759 2 31.9374 19.7988 21.9362
760 2 35.7644 19.8402 22.0053
761 2 39.5954 19.8927 21.9954
762 2 43.4702 19.6982 21.9718
763 2 47.6419 19.703 22.1431
764 2 51.7069 19.7381 21.8323
765 2 55.4327 19.9698 21.9976
766 2 0.0955855 23.6659 21.8689
767 2 3.94175 23.8418 21.9824
768 2 7.96317 23.7772 21.9077
769 2 12.2896 23.8142 21.756
770 2 16.0076 23.8814 21.873
771 2 19.9755 23.8734 22.045
772 2 23.9701 23.8493 22.0684
773 2 27.8096 23.8532 21.816
774 2 31.6178 23.8736 21.7326
775 2 35.6432 23.8303 21.8956
776 2 39.5335 23.9564 21.8314
777 2 43.7645 23.7067 22.0512
778 2 47.6277 23.717 21.9452
779 2 51.5722 23.7756 22.0185
780 2 55.4819 23.8584 22.0393
781 2 59.454 27.7791 21.9511
782 2 4.0571 27.8821 21.8335
783 2 8.11569 27.7111 22.0878
784 2 12.0546 27.8366 21.9125
785 2 16.1496 27.715 21.8577
786 2 19.9965 27.6804 21.6806
787 2 23.8045 27.7674 21.8956
788 2 27.8016 27.7315 21.8862
789 2 31.539 27.693 22.0295
790 2 35.7254 27.6433 21.9556
791 2 39.6728 27.8428 22.0058
792 2 43.6799 27.8381 21.7375
793 2 47.5354 27.6154 21.7022
794 2 51.279 27.776 21.8843
795 2 55.7181 27.8438 22.0611
796 2 59.451 31.714 22.0131
797 2 4.06291 31.6889 22.0319
798 2 8.22661 31.6606 21.9924
799 2 12.0759 31.5725 21.9121
800 2 15.915 31.6016 21.9066
801 2 19.8851 31.5011 21.9734
802 2 23.7658 31.4011 21.8658
803 2 27.8477 31.5515 21.9727
804 2 31.7485 31.7344 22.0451
805 2 35.6489 31.5209 21.9669
806 2 39.6833 31.7175 21.7107
807 2 43.6191 31.7472 21.8981
808 2 47.5426 31.698 21.9632
809 2 51.6813 31.6817 22.11
810 2 55.4705 31.9406 21.8059
811 2 0.17676 35.6064 21.8493
812 2 4.21418 35.3382 22.0251
813 2 8.1006 35.7431 21.8427
814 2 12.1205 35.4729 21.9912
815 2 16.0188 35.8704 21.8948
816 2 19.9214 35.4869 21.9568
817 2 23.905 35.4313 21.96
818 2 27.6402 35.6973 21.866
819 2 31.856 35.7056 22.0033
820 2 35.7477 35.5679 21.9937
821 2 39.5859 35.4728 21.8404
822 2 43.6732 35.5748 21.9829
823 2 47.4808 35.5892 21.9171
824 2 51.3085 35.4756 21.9439
825 2 55.5577 35.805 22.0518
826 2 0.189839 39.5433 22.0289
827 2 3.99787 39.6736 21.9205
828 2 7.90519 39.518 21.9615
829 2 12.2159 39.6707 21.7941
830 2 16.0041 39.5131 21.7879
831 2 19.7676 39.4307 22.186
832 2 23.8513 39.6495 22.0956
833 2 27.7382 39.3728 22.0636
834 2 31.6716 39.6259 22.0862
835 2 35.7255 39.5556 22.0467
836 2 39.4863 39.6094 22.0739
837 2 43.6422 39.5699 22.0788
838 2 47.8161 39.7548 21.679
839 2 51.6845 39.674 21.8526
840 2 55.5603 39.6281 21.9859
841 2 0.19987 43.7246 22.0831
842 2 4.08385 43.7004 21.8258
843 2 7.96027 43.5214 22.1152
844 2 12.0061 43.6675 21.8583
845 2 15.7809 43.7139 21.9553
846 2 19.7517 43.4083 22.0196
847 2 23.8369 43.4947 22.1402
848 2 27.7655 43.4812 21.9974
849 2 31.6844 43.4891 21.7929
850 2 35.53 43.3521 21.997
851 2 39.4979 43.4983 21.8716
852 2 43.6331 43.6666 21.8772
853 2 47.4429 43.6696 21.9569
854 2 51.6343 43.6354 21.9205
855 2 55.4721 43.5548 21.8933
856 2 0.106296 47.566 21.7796
857 2 4.0736 47.5552 21.7879
858 2 7.88303 47.5442 21.7975
859 2 12.069 47.4802 21.9186
860 2 15.9635 47.6347 21.9156
861 2 19.8556 47.3364 22.0365
862 2 23.7324 47.3193 21.9652
863 2 27.6341 47.3631 21.939
864 2 31.7316 47.2702 21.9559
865 2 35.9501 47.3954 21.8034
866 2 39.6696 47.6091 21.9936
867 2 43.5336 47.7254 21.7425
868 2 47.5862 47.7544 21.9056
869 2 51.7019 47.6328 21.7877
870 2 55.5614 47.5863 21.8936
871 2 0.286701 51.5329 21.9366
872 2 4.09598 51.311 22.1038
873 2 7.90011 51.647 21.9937
874 2 12.0505 51.6015 21.709
875 2 16.0049 51.4097 22.0987
876 2 19.8962 51.2756 22.0716
877 2 24.0315 51.275 21.9462
878 2 27.995 51.3261 21.9477
879 2 31.8903 51.3759 21.9863
880 2 35.7985 51.3312 21.9193
881 2 39.5693 51.5341 21.8738
882 2 43.6756 51.5559 21.9761
883 2 47.4835 51.4919 21.9495
884 2 51.7489 51.6008 21.7932
885 2 55.6533 51.6005 22.0003
886 2 0.15688 55.3878 21.9526
887 2 4.1295 55.4366 21.7626
888 2 8.08368 55.2597 21.8723
889 2 11.9713 55.2843 21.8116
890 2 15.8124 55.5593 21.7296
891 2 19.8222 55.2017 21.9387
892 2 24.0168 55.1661 21.743
893 2 27.8583 55.2964 22.0273
894 2 31.8476 55.4474 21.8458
895 2 35.8857 55.3402 21.8848
896 2 39.8017 55.5406 21.8643
897 2 43.4971 55.5603 22.0073
898 2 47.7206 55.3969 21.9813
899 2 51.6421 55.467 21.9445
900 2 55.7773 55.4045 21.6815
901 2 -0.0721145 -0.0575268 25.7932
902 2 4.2132 0.220449 25.8908
903 2 8.14252 59.5336 25.7574
904 2 11.865 0.335792 26.1423
905 2 16.0816 0.165173 25.848
906 2 19.9426 0.1009 25.8799
907 2 23.9997 0.0843381 25.743
908 2 28.0079 -0.0607983 25.862
909 2 31.9687 59.4103 25.8962
910 2 35.6446 -0.0743829 25.944
911 2 39.7814 0.202384 25.9385
912 2 43.836 0.0134308 25.8949
913 2 47.7642 0.0365197 25.8837
914 2 51.6147 59.3179 26.2184
915 2 55.4841 59.3066 25.9645
916 2 0.213041 4.03878 25.9628
917 2 4.2074 4.15236 25.9438
918 2 8.00507 4.1283 25.8801
919 2 12.0531 4.11799 25.8539
920 2 15.9733 3.9849 26.0359
921 2 20.0232 4.12642 25.9219
922 2 23.9817 3.86508 25.8298
923 2 27.9068 3.96027 25.9598
924 2 31.7739 3.91968 26.0267
925 2 35.8091 3.98912 25.8884
926 2 39.5493 4.0144 25.9857
927 2 43.6361 3.92962 25.9283
928 2 47.6827 3.96991 25.9007
929 2 51.6998 3.90194 25.8355
930 2 55.5638 4.18247 25.8814
931 2 59.3968 8.07876 25.9007
932 2 4.05643 8.22538 25.7695
933 2 7.81877 8.03467 25.9052
934 2 11.8489 8.00584 25.8817
935 2 15.9707 8.04263 25.8496
936 2 19.8108 7.91836 25.9538
937 2 23.8149 7.95529 25.8945
938 2 27.943 7.94388 25.9906
939 2 31.8405 7.78797 25.8749
940 2 35.8292 8.21978 25.825
941 2 39.8191 8.07625 25.8091
942 2 43.5453 8.15774 26.0516
943 2 47.539 8.08531 25.9482
944 2 51.6725 7.91558 25.892
945 2 55.4229 8.14674 25.8509
946 2 0.021957 11.993 25.8881
947 2 3.92258 12.1634 25.8718
948 2 7.94779 11.8629 26.1124
949 2 12.1313 11.9919 25.9928
950 2 15.8273 12.0622 25.8849
951 2 19.8928 12.0508 26.1734
952 2 23.8361 11.9541 25.9609
953 2 27.9993 12.0989 25.8654
954 2 31.8333 12.0754 25.8441
955 2 35.7151 11.8905 25.8903
956 2 39.6094 12.0366 25.9544
957 2 43.6265 12.0327 25.9558
958 2 47.5823 11.9914 25.8902
959 2 51.423 11.8397 25.9542
960 2 55.4151 11.9641 25.8717
961 2 59.4436 16.0452 25.9009
962 2 4.00775 16.012 26.0371
963 2 7.84697 15.926 25.9
964 2 11.9933 15.979 25.9511
965 2 16.0431 16.1513 26.0594
966 2 19.8425 15.7663 26.0603
967 2 23.8233 15.9393 25.8284
968 2 28.0085 15.9916 26.0662
969 2 32.0989 15.9729 25.8707
970 2 35.9142 15.8679 25.5972
971 2 39.7679 15.7546 25.8194
972 2 43.6925 16.1345 25.7392
973 2 47.6478 15.7905 25.9568
974 2 51.4955 15.9973 25.9241
975 2 55.56 16.0642 25.9676
976 2 59.6234 19.6978 25.8996
977 2 4.19717 19.8395 25.8043
978 2 7.88631 19.9245 26.0529
979 2 11.78 19.8854 25.9811
980 2 15.9501 19.8172 25.9677
981 2 19.9022 19.7577 25.8942
982 2 23.958 19.8563 25.935
983 2 27.9304 19.9052 25.9221
984 2 31.6996 20.0033 25.8266
985 2 35.5325 20.0445 25.9464
986 2 39.6804 20.0306 26.0441
987 2 43.5022 19.9051 25.853
988 2 47.5809 19.8762 25.9726
989 2 51.7038 20.0851 25.9651
990 2 55.5649 20.0898 25.8684
991 2 59.6003 23.9822 26.0331
992 2 3.89477 24.0531 25.7829
993 2 8.11126 23.9064 25.906
994 2 12.023 23.8107 26.0272
995 2 15.9062 23.7094 26.0313
996 2 19.9552 23.6917 25.9532
997 2 24.001 23.8642 25.9083
998 2 27.6634 23.6601 25.9529
999 2 31.5059 23.7898 25.8861