ITEM: TIMESTEP
1536300
ITEM: NUMBER OF ATOMS
16875
ITEM: BOX BOUNDS xy xz yz pp pp pp
0.0000000000000000e+00 5.9369999999999997e+01 0.0000000000000000e+00
0.0000000000000000e+00 5.9369999999999997e+01 0.0000000000000000e+00
3.2063111526961308e-01 6.0045787884733016e+01 0.0000000000000000e+00
ITEM: ATOMS id type x y z
1 2 59.3765 59.269 10.2083
2 2 4.20357 59.0784 9.86886
3 2 7.95605 59.1573 9.96901
4 2 11.9777 59.1863 10.2159
5 2 15.8257 -0.220093 10.009
6 2 19.7563 59.1758 9.95017
7 2 23.6366 59.2776 10.1016
8 2 27.4145 59.1582 9.72429
9 2 31.5538 59.2061 10.0953
10 2 35.6364 59.0585 10.1532
11 2 39.7198 59.1624 10.0865
12 2 43.6591 59.3308 10.1061
13 2 47.5208 59.2686 9.91187
14 2 51.4544 59.0959 10.1809
15 2 55.4876 59.085 10.1248
16 2 -0.0182725 3.78675 9.89857
17 2 3.91445 3.83976 10.0136
18 2 8.04467 3.94313 9.92484
19 2 11.9991 3.62765 10.1389
20 2 15.7749 3.94417 10.0379
21 2 19.9288 3.64371 9.91463
22 2 23.8003 3.79946 9.9386
23 2 27.6634 3.79363 10.1267
24 2 31.736 3.80802 9.94494
25 2 35.7427 3.86495 9.75024
26 2 39.6619 3.76012 10.1158
27 2 43.6524 3.75015 10.1051
28 2 47.4155 3.79129 9.91215
29 2 51.4379 3.75248 9.91137
30 2 55.3368 3.7518 9.96112
31 2 0.0415871 7.92156 9.99991
32 2 3.96352 7.94557 9.91937
33 2 7.86476 7.6941 9.939
34 2 11.9025 7.69195 9.97077
35 2 15.961 7.71656 10.252
36 2 19.7449 7.95301 9.91514
37 2 23.6808 7.6255 9.97094
38 2 27.4459 7.8767 9.98838
39 2 31.6127 7.75278 10.0716
40 2 35.7153 7.50078 9.89009
41 2 39.6512 7.74301 10.0458
42 2 43.6166 7.81373 9.89901
43 2 47.4801 7.52125 10.1325
44 2 51.6129 7.66968 9.92371
45 2 55.381 7.72181 10.0178
46 2 -0.074457 11.676 9.81893
47 2 3.715 11.6896 10.061
48 2 7.90308 11.7158 9.95876
49 2 12.0216 11.7039 9.99845
50 2 15.7947 11.8659 10.107
51 2 20.0683 11.7533 9.98004
52 2 23.8821 11.8062 10.1575
53 2 27.8239 11.72 10.0181
54 2 31.6401 11.6881 10.0296
55 2 35.5309 11.8952 9.8518
56 2 39.6941 11.8089 9.87515
57 2 43.4565 11.7519 10.0619
58 2 47.7101 11.6043 10.0199
59 2 51.5152 11.679 9.84555
60 2 55.4963 11.7019 10.0388
61 2 59.3029 15.6793 10.1308
62 2 3.83584 15.541 9.96399
63 2 7.87758 15.6027 10.0307
64 2 11.7936 15.7983 9.94011
65 2 15.7129 15.9197 10.1466
66 2 19.7617 15.7391 10.0513
67 2 23.8222 15.7959 9.8682
68 2 27.8605 15.584 9.83531
69 2 31.6175 15.8391 9.89173
70 2 35.7228 15.7824 9.92272
71 2 39.7115 15.829 9.93706
72 2 43.8286 15.6586 9.95247
73 2 47.5276 15.4353 9.96038
74 2 51.5295 15.694 9.9989
75 2 55.449 15.7167 10.0186
76 2 0.0813656 19.7103 9.9272
77 2 3.90355 19.6564 9.96533
78 2 8.11079 19.6665 9.94952
79 2 11.9456 19.6724 9.95459
80 2 15.8721 19.7335 9.99454
81 2 19.5461 19.6229 9.9553
82 2 23.7517 19.6811 9.98092
83 2 27.7275 19.5323 10.022
84 2 31.6343 19.6206 10.0928
85 2 35.7213 19.6227 10.0001
86 2 39.8457 19.8946 10.0016
87 2 43.6207 19.7215 10.0377
88 2 47.6681 19.542 9.92097
89 2 51.5251 19.5572 9.9431
90 2 55.3237 19.7005 10.0251
91 2 0.124842 23.6794 10.024
92 2 4.07243 23.6884 10.1091
93 2 7.98789 23.4595 10.1583
94 2 11.9437 23.6645 9.92902
95 2 15.8659 23.6328 9.96307
96 2 19.8267 23.5777 10.0617
97 2 23.641 23.5584 10.2194
98 2 27.7431 23.4868 9.9862
99 2 31.7042 23.6604 10.2064
100 2 35.7744 23.5 9.87393
101 2 39.6584 23.499 9.79579
102 2 43.6057 23.6446 10.0452
103 2 47.4868 23.543 10.0171
104 2 51.4551 23.6337 10.0596
105 2 55.5655 23.5206 10.0835
106 2 0.0322577 27.625 10.0611
107 2 4.1213 27.5956 10.0216
108 2 7.93057 27.3681 10.008
109 2 11.9067 27.4713 10.0641
110 2 15.8992 27.4978 10.1549
111 2 19.9041 27.5431 10.0095
112 2 23.7107 27.6536 9.93742
113 2 27.7321 27.6058 9.98636
114 2 31.7667 27.5529 10.0126
115 2 35.7742 27.5192 10.0356
116 2 39.5521 27.417 10.008
117 2 43.5342 27.3299 9.99211
118 2 47.337 27.5021 10.0422
119 2 51.442 27.6598 10.2043
120 2 55.4467 27.4683 10.0448
121 2 0.163012 31.5897 10.083
122 2 4.11751 31.3695 9.97027
123 2 8.11995 31.3383 9.99079
124 2 12.0038 31.538 10.0139
125 2 15.8087 31.3329 9.71192
126 2 19.6906 31.4518 9.95076
127 2 23.6969 31.6673 10.1328
128 2 27.5994 31.5621 10.0233
129 2 31.7503 31.4954 9.93495
130 2 35.795 31.4431 9.94507
131 2 39.594 31.4975 10.275
132 2 43.7461 31.6203 10.0847
133 2 47.4514 31.4382 9.9965
134 2 51.4819 31.514 9.97881
135 2 55.5846 31.5307 9.95665
136 2 59.4984 35.6254 10.0716
137 2 4.03154 35.4652 9.96261
138 2 8.10655 35.5784 10.0816
139 2 11.8958 35.7702 10.2203
140 2 16.0133 35.6042 10.18
141 2 19.786 35.6155 10.1554
142 2 23.7895 35.6393 10.1489
143 2 27.8398 35.492 9.95114
144 2 31.8483 35.5732 10.1007
145 2 35.6684 35.2783 9.83616
146 2 39.6962 35.5575 9.96122
147 2 43.6526 35.426 10.0492
148 2 47.4685 35.427 9.92816
149 2 51.4798 35.4155 10.0003
150 2 55.4144 35.5629 10.1366
151 2 59.3748 39.5105 10.0441
152 2 3.7637 39.4383 10.1655
153 2 7.75315 39.6563 10.0719
154 2 11.8247 39.3426 10.0709
155 2 15.904 39.3889 9.88987
156 2 19.702 39.4336 10.0873
157 2 23.7978 39.5051 10.0164
158 2 27.9084 39.4905 9.893
159 2 31.8135 39.4912 10.0574
160 2 35.639 39.3823 9.91223
161 2 39.6565 39.426 9.91467
162 2 43.4166 39.427 10.0603
163 2 47.4539 39.2865 9.89855
164 2 51.3205 39.3706 10.09
165 2 55.3691 39.3757 10.1405
166 2 59.4953 43.3422 10.1477
167 2 3.84667 43.4416 9.90187
168 2 7.77835 43.3292 9.8676
169 2 11.9514 43.1959 9.90807
170 2 15.7473 43.3171 9.93607
171 2 19.8172 43.5394 9.9095
172 2 23.6536 43.4689 9.99553
173 2 27.8375 43.5205 9.91246
174 2 31.7687 43.4142 10.0913
175 2 35.5995 43.4949 10.0881
176 2 39.5342 43.4932 9.8104
177 2 43.6075 43.5066 9.79623
178 2 47.5126 43.327 10.092
179 2 51.2704 43.2741 10.0612
180 2 55.3868 43.2689 10.148
181 2 59.3633 47.5002 9.98899
182 2 4.19838 47.597 9.99603
183 2 8.03373 47.1775 9.93876
184 2 11.9991 47.2455 9.96889
185 2 15.851 47.4465 10.0054
186 2 19.8053 47.494 10.0122
187 2 23.637 47.337 9.91146
188 2 27.6554 47.4402 9.96088
189 2 31.6124 47.5749 10.2103
190 2 35.8067 47.3947 9.92082
191 2 39.6557 47.4267 9.98476
192 2 43.4811 47.3127 9.86325
193 2 47.6596 47.5213 10.0245
194 2 51.5652 47.3652 9.94205
195 2 55.4243 47.2993 10.0351
196 2 -0.197548 51.2753 9.88611
197 2 3.90535 51.3752 10.06
198 2 7.85368 51.2627 9.89325
199 2 11.798 51.2256 10.2127
200 2 15.6357 51.3581 9.88643
201 2 19.8955 51.4538 10.1032
202 2 23.8539 51.3965 10.0317
203 2 27.7865 51.2964 9.96012
204 2 31.7736 51.4598 10.0357
205 2 35.6457 51.4136 9.92453
206 2 39.6799 51.3198 10.0969
207 2 43.5495 51.2761 10.0119
208 2 47.3614 51.4747 10.0974
209 2 51.3474 51.3004 10.2767
210 2 55.3104 51.3116 10.0865
211 2 0.006964 55.188 9.96169
212 2 3.94639 55.1957 9.93102
213 2 7.9435 55.1018 10.1199
214 2 11.8388 55.2205 9.92188
215 2 15.9712 55.1604 10.0196
216 2 19.8555 55.3593 10.0573
217 2 23.5631 55.4392 9.99292
218 2 27.5916 55.2031 9.75809
219 2 31.5027 55.2978 9.96372
220 2 35.6605 55.3646 9.94647
221 2 39.5812 55.2442 9.9787
222 2 43.4193 55.385 10.1176
223 2 47.458 55.2744 9.93598
224 2 51.5797 55.4091 9.94073
225 2 55.5388 55.169 9.9816
226 2 0.202853 59.367 13.9673
227 2 4.06683 59.3574 13.9024
228 2 8.01174 59.1804 13.9936
229 2 12.0161 59.3236 13.9044
230 2 15.8633 -0.0770765 14.0795
231 2 19.785 -0.00241141 14.1211
232 2 23.8646 -0.245681 14.0736
233 2 27.7512 59.3481 14.0346
234 2 31.7076 59.4943 13.778
235 2 35.8386 59.4365 13.9551
236 2 39.7285 0.0455291 13.925
237 2 43.7626 59.2969 14.0512
238 2 47.7166 0.0998051 13.8717
239 2 51.4623 -0.142225 14.105
240 2 55.6066 59.2642 13.9906
241 2 0.0561859 4.05694 13.91
242 2 4.22634 3.93778 13.8513
243 2 8.04769 3.83238 14.0041
244 2 11.7811 3.84867 14.1563
245 2 15.8988 3.82333 14.0188
246 2 19.9293 3.96595 13.9843
247 2 23.7656 3.80267 14.0689
248 2 27.7631 3.86564 13.9471
249 2 31.5427 3.72518 13.9855
250 2 35.569 3.88704 13.9929
251 2 39.6615 3.99534 13.8856
252 2 43.5571 3.83167 14.1708
253 2 47.5988 4.14426 14.015
254 2 51.4715 3.98255 14.1265
255 2 55.5669 3.84479 13.8799
256 2 -0.0334356 7.68224 14.0367
257 2 4.00633 7.84442 14.0395
258 2 7.83908 7.55263 13.9063
259 2 12.0272 7.71951 13.917
260 2 16.1188 7.88397 14.0862
261 2 19.8289 7.98562 14.0085
262 2 23.9772 7.58845 13.9848
263 2 27.7725 7.73103 14.0811
264 2 31.5901 7.86769 13.8018
265 2 35.5197 7.9363 13.8699
266 2 39.5235 7.99665 13.953
267 2 43.387 7.75403 14.0205
268 2 47.3061 7.90754 13.7209
269 2 51.4409 7.80962 13.8402
270 2 55.4425 7.85768 13.9416
271 2 -0.00837002 11.6779 14.0895
272 2 4.22745 11.6558 13.9682
273 2 8.064 11.6167 13.8288
274 2 11.9457 11.8256 13.9418
275 2 15.743 11.8491 14.1435
276 2 19.8178 11.9082 14.0251
277 2 23.9102 11.6853 14.1383
278 2 27.7367 11.6408 14.0165
279 2 31.7641 11.8211 13.8623
280 2 35.7279 11.6741 13.9494
281 2 39.6948 11.7269 13.9546
282 2 43.4466 11.6674 14.0907
283 2 47.4806 11.6575 14.1746
284 2 51.3041 11.8658 13.8679
285 2 55.2871 11.7489 13.7552
286 2 0.274981 15.8813 14.0485
287 2 3.87361 15.6649 14.055
288 2 7.8922 15.6133 13.9922
289 2 11.7757 15.6833 14.0748
290 2 15.8316 15.6811 14.1749
291 2 19.7571 15.6809 14.0894
292 2 23.8728 15.7333 14.0728
293 2 27.7633 15.6863 13.9828
294 2 31.6063 15.894 13.9996
295 2 35.7279 15.8132 13.837
296 2 39.6316 15.6575 14.0335
297 2 43.3689 15.678 13.919
298 2 47.475 15.6505 13.8729
299 2 51.5943 15.7353 14.0735
300 2 55.6134 15.8545 13.9639
301 2 0.143603 19.7776 14.1496
302 2 4.21742 19.4742 13.8356
303 2 8.06427 19.5791 14.0593
304 2 12.0403 19.7423 14.0807
305 2 15.9164 19.7168 13.9397
306 2 19.8851 19.7558 13.9895
307 2 23.6376 19.6113 14.0724
308 2 27.7913 19.4602 14.0634
309 2 31.8366 19.8934 13.9235
310 2 35.7073 19.7876 13.9302
311 2 39.495 19.718 14.2743
312 2 43.5779 19.5779 13.978
313 2 47.6461 19.6003 13.9563
314 2 51.3967 19.7292 14.0063
315 2 55.4198 19.8573 13.8819
316 2 0.109519 23.6707 13.981
317 2 3.90305 23.6361 14.1695
318 2 8.07224 23.5472 13.9979
319 2 12.027 23.8075 13.9847
320 2 15.9861 23.6206 14.0679
321 2 19.7827 23.839 14.0754
322 2 23.907 23.6549 14.0007
323 2 27.8673 23.7355 14.1317
324 2 31.6111 23.7564 14.1401
325 2 35.674 23.5576 14.0629
326 2 39.7224 23.5398 14.0422
327 2 43.6856 23.6311 14.0151
328 2 47.7579 23.5037 14.0608
329 2 51.5775 23.5752 13.9555
330 2 55.4406 23.7727 13.8302
331 2 0.216153 27.6091 14.0859
332 2 4.131 27.6134 14.1255
333 2 7.81121 27.4741 14.0925
334 2 11.8729 27.7226 13.9025
335 2 15.7709 27.4505 14.0588
336 2 19.6327 27.7308 13.9494
337 2 23.6092 27.6183 13.9094
338 2 27.7788 27.531 13.9583
339 2 31.6422 27.5314 13.9418
340 2 35.7422 27.5187 14.1423
341 2 39.8173 27.658 14.0618
342 2 43.5006 27.469 13.9269
343 2 47.4964 27.6279 14.0811
344 2 51.5175 27.6074 14.0995
345 2 55.5107 27.5103 14.1286
346 2 0.0276413 31.6692 14.098
347 2 3.83457 31.476 14.0903
348 2 7.96742 31.5127 13.9429
349 2 12.0101 31.6039 13.8652
350 2 15.8944 31.4921 14.0285
351 2 19.7244 31.6481 13.9849
352 2 23.6548 31.6959 14.1672
353 2 27.8479 31.5897 13.8409
354 2 31.6631 31.3872 14.0319
355 2 35.5653 31.6869 14.0405
356 2 39.6357 31.6628 13.9612
357 2 43.5725 31.4535 14.1516
358 2 47.4438 31.4723 13.9988
359 2 51.6136 31.3848 13.8702
360 2 55.4698 31.6287 13.9631
361 2 -0.144174 35.5931 13.8963
362 2 3.93217 35.0985 13.8567
363 2 8.06564 35.4811 13.9221
364 2 11.8443 35.4626 13.8251
365 2 16.1648 35.384 13.9525
366 2 19.9753 35.5904 14.116
367 2 23.6895 35.5242 14.0705
368 2 27.9455 35.5063 13.7968
369 2 31.7281 35.517 13.9712
370 2 35.8026 35.4106 13.9345
371 2 39.6247 35.534 13.9809
372 2 43.5444 35.5104 14.0479
373 2 47.6909 35.5052 14.0385
374 2 51.2251 35.4234 14.1151
375 2 55.3309 35.5073 13.8836
376 2 0.156784 39.4314 14.0204
377 2 4.17058 39.4438 13.9896
378 2 7.81253 39.5369 14.0435
379 2 11.7231 39.3673 14.3193
380 2 16.132 39.5242 13.9388
381 2 19.987 39.7158 13.981
382 2 24.0212 39.5495 13.9468
383 2 27.7457 39.6963 13.9244
384 2 31.6666 39.3726 13.9825
385 2 35.66 39.4322 14.05
386 2 39.4821 39.3762 13.8416
387 2 43.664 39.5261 13.8786
388 2 47.6477 39.4119 13.9756
389 2 51.3998 39.5235 14.1431
390 2 55.239 39.3174 13.9366
391 2 0.0244919 43.5063 14.2033
392 2 3.97189 43.5354 13.9995
393 2 8.09009 43.5622 14.0593
394 2 12.0174 43.4692 14.1356
395 2 16.0349 43.5297 13.9675
396 2 19.9265 43.515 13.9518
397 2 23.8921 43.5463 14.0473
398 2 27.8435 43.5181 14.0467
399 2 31.7928 43.2987 14.1145
400 2 35.6763 43.2771 13.8599
401 2 39.4179 43.2935 13.9033
402 2 43.5196 43.421 13.9207
403 2 47.6765 43.4169 13.9576
404 2 51.5816 43.4827 14.0058
405 2 55.4343 43.5151 13.8621
406 2 0.127886 47.4693 14.1396
407 2 4.01604 47.3038 14.1156
408 2 7.97042 47.2923 14.0092
409 2 11.9423 47.4954 13.9107
410 2 15.913 47.3478 13.9132
411 2 19.9375 47.3635 14.0739
412 2 23.7789 47.3118 13.9044
413 2 27.7314 47.3281 13.8993
414 2 31.8509 47.3834 13.9592
415 2 35.692 47.3773 14.0912
416 2 39.6033 47.4682 13.7204
417 2 43.5258 47.2589 13.8307
418 2 47.5529 47.4272 14.0799
419 2 51.4789 47.2537 14.0258
420 2 55.3901 47.2528 13.8985
421 2 0.0570164 51.4077 14.0245
422 2 3.94939 51.3067 14.0224
423 2 7.82395 51.4162 14.1249
424 2 12.0122 51.5426 14.0737
425 2 15.6143 51.2981 13.9061
426 2 19.7718 51.4177 14.1313
427 2 23.801 51.3144 14.0163
428 2 27.7722 51.3496 13.8534
429 2 31.6351 51.4394 13.8047
430 2 35.7806 51.4652 13.9516
431 2 39.5929 51.4038 14.0941
432 2 43.5118 51.2619 14.2754
433 2 47.4882 51.354 14.0988
434 2 51.4975 51.2607 13.981
435 2 55.5665 51.2134 13.9935
436 2 0.0825068 55.3107 13.9178
437 2 4.11457 55.0968 13.9771
438 2 7.93916 55.2608 14.085
439 2 11.9911 55.4422 13.9797
440 2 15.9896 55.1199 13.9516
441 2 19.7698 55.519 13.8887
442 2 23.9577 55.22 14.0661
443 2 27.7619 55.2119 13.8374
444 2 31.7124 55.3999 13.9498
445 2 35.6206 55.3448 13.9508
446 2 39.5432 55.2705 14.1025
447 2 43.3425 55.2662 14.0432
448 2 47.5419 54.9455 13.9381
449 2 51.5925 55.3836 14.0709
450 2 55.515 55.2617 14.1247
451 2 0.230965 -0.0774158 17.9174
452 2 3.93846 -0.147149 17.9573
453 2 8.00206 59.2471 17.9458
454 2 12.0079 59.3547 18.0714
455 2 15.9339 59.4324 17.9478
456 2 19.671 59.334 18.1642
457 2 23.7637 59.2408 17.8783
458 2 27.8452 -0.158817 17.9987
459 2 32.0451 59.2842 17.8685
460 2 35.6615 59.2474 17.9009
461 2 39.732 0.0435054 17.6813
462 2 43.8471 59.2297 17.8654
463 2 47.5008 -0.201965 17.863
464 2 51.5507 59.3459 17.9859
465 2 55.5409 59.2904 17.9874
466 2 0.161357 3.73105 17.9461
467 2 3.97655 3.88948 17.9018
468 2 8.05663 3.81669 17.8789
469 2 11.9281 3.79876 18.0823
470 2 15.9485 3.96067 17.8373
471 2 20.0281 3.93016 18.0479
472 2 23.8538 3.88767 18.0276
473 2 27.7469 3.98595 18.0551
474 2 31.7918 3.89598 17.9261
475 2 35.796 3.95274 18.0251
476 2 39.6596 4.08679 18.0665
477 2 43.6569 3.91609 18.016
478 2 47.5606 3.9014 18.0584
479 2 51.6261 3.892 17.8978
480 2 55.4986 3.86431 17.8056
481 2 -0.0349213 7.97171 17.9598
482 2 3.99391 7.8333 18.0575
483 2 8.04684 7.78489 17.9618
484 2 11.9742 7.73396 18.0073
485 2 15.7767 7.94135 17.9939
486 2 19.7521 7.84652 17.8144
487 2 23.8599 7.83386 17.9193
488 2 27.8602 7.79253 17.9963
489 2 31.7839 8.06319 17.9169
490 2 35.8422 7.79401 17.8784
491 2 39.6796 7.88709 17.8833
492 2 43.4654 7.84203 18.1156
493 2 47.5649 7.84277 17.9032
494 2 51.5579 7.81018 18.0311
495 2 55.5862 7.91054 18.0094
496 2 -0.0200374 12.0194 17.7015
497 2 4.15743 11.7043 17.9549
498 2 8.04448 11.761 17.9773
499 2 11.9664 11.7844 18.0493
500 2 15.9568 11.6961 18.1709
501 2 19.9745 11.9096 17.9426
502 2 23.7575 11.7542 18.1325
503 2 27.6178 11.6563 18.0461
504 2 31.8955 11.8424 17.8029
505 2 35.7685 11.934 18.0787
506 2 39.6174 12.0178 18.1769
507 2 43.7571 11.8094 18.1242
508 2 47.6958 11.8403 18.0985
509 2 51.5704 11.9125 17.9846
510 2 55.4453 11.9031 17.9116
511 2 59.4243 15.7015 17.8696
512 2 4.03231 15.8385 18.0204
513 2 7.96473 15.7599 18.0166
514 2 11.9599 15.7604 17.9533
515 2 15.8387 15.9711 17.9572
516 2 19.9181 15.7844 17.9336
517 2 23.8357 15.9347 18.1243
518 2 27.7771 15.7285 17.9755
519 2 31.5709 15.8005 18.0804
520 2 35.3306 15.7681 17.977
521 2 39.6278 16.0524 17.8843
522 2 43.6811 15.5501 18.078
523 2 47.5835 15.7091 17.9245
524 2 51.4862 15.8655 18.0154
525 2 55.4392 15.8127 17.8019
526 2 0.127604 19.5245 18.1865
527 2 4.15044 19.7371 17.9223
528 2 7.78242 19.5701 17.9744
529 2 11.8515 19.6506 17.874
530 2 15.9106 19.6683 18.0785
531 2 19.876 19.9793 17.987
532 2 23.6141 19.9053 17.848
533 2 27.6996 19.6778 18.0839
534 2 31.5217 19.6459 17.7929
535 2 35.4698 19.7629 18.0426
536 2 39.6914 19.7405 18.091
537 2 43.662 19.6723 17.9422
538 2 47.3176 19.4273 17.8908
539 2 51.5691 19.7064 17.8878
540 2 55.5428 19.8295 18.1589
541 2 0.151224 23.5319 17.8696
542 2 4.03898 23.6408 18.0355
543 2 8.02209 23.675 17.8815
544 2 11.9944 23.8279 18.201
545 2 15.8837 23.7516 18.0059
546 2 19.8672 23.7684 18.0451
547 2 23.7595 23.7956 18.0317
548 2 27.5596 23.5399 18.0151
549 2 31.7346 23.7906 18.0628
550 2 35.5694 23.7665 18.062
551 2 39.65 23.4644 17.9363
552 2 43.6044 23.5167 18.095
553 2 47.5714 23.666 18.0028
554 2 51.6451 23.5553 17.7279
555 2 55.5649 23.7683 18.0112
556 2 0.0460097 27.7199 18.1564
557 2 4.19385 27.8189 17.8713
558 2 8.03376 27.6234 17.9594
559 2 12.141 27.7181 18.1145
560 2 15.9946 27.7888 18.0414
561 2 20.0233 27.7854 17.9457
562 2 24.0371 27.824 18.1328
563 2 28.015 27.6768 18.1146
564 2 31.7743 27.7473 18.1354
565 2 35.643 27.7038 17.973
566 2 39.6468 27.7012 18.1036
567 2 43.5937 27.6469 17.9614
568 2 47.5734 27.4556 17.9889
569 2 51.558 27.6943 17.9822
570 2 55.3808 27.6667 18.0805
571 2 -0.0835569 31.5774 18.0199
572 2 3.95314 31.481 18.0049
573 2 8.07889 31.6271 17.9843
574 2 12.0287 31.5742 17.9614
575 2 15.8328 31.8518 18.0254
576 2 19.7795 31.6245 18.013
577 2 23.823 31.7451 17.767
578 2 27.8795 31.622 17.9356
579 2 31.8952 31.4865 17.8676
580 2 35.6591 31.517 18.131
581 2 39.5302 31.5954 17.8582
582 2 43.681 31.7554 17.946
583 2 47.6404 31.387 18.0298
584 2 51.6786 31.4752 18.1383
585 2 55.5601 31.5727 18.0021
586 2 0.0581345 35.6753 17.9418
587 2 4.09428 35.3986 17.9753
588 2 7.91631 35.4432 18.1817
589 2 12.1149 35.7097 17.8016
590 2 16.0196 35.7773 17.9032
591 2 19.7794 35.4722 17.8608
592 2 24.0283 35.6734 18.2218
593 2 27.8141 35.6439 17.8213
594 2 31.8371 35.6592 17.9252
595 2 35.7187 35.3675 17.8308
596 2 39.4231 35.6473 17.9016
597 2 43.2884 35.5909 17.9069
598 2 47.4581 35.5398 17.9422
599 2 51.5086 35.3465 18.0527
600 2 55.3226 35.5057 18.0275
601 2 0.112751 39.2924 17.8474
602 2 3.99296 39.4918 17.7947
603 2 7.92872 39.3277 18.0607
604 2 12.0569 39.4833 17.905
605 2 16.0024 39.4303 18.0725
606 2 19.934 39.5892 18.1011
607 2 23.9777 39.3745 17.9761
608 2 27.7622 39.3423 17.8865
609 2 31.725 39.6653 18.0391
610 2 35.5676 39.6761 17.9709
611 2 39.5745 39.5115 18.1009
612 2 43.5902 39.3875 17.8149
613 2 47.5866 39.5447 18.0468
614 2 51.6703 39.4483 18.0205
615 2 55.6495 39.4194 17.737
616 2 0.0248765 43.3455 18.0136
617 2 4.24795 43.5151 18.0547
618 2 8.12186 43.4834 18.0373
619 2 12.1208 43.1618 18.0243
620 2 16.1489 43.6328 17.9163
621 2 20.0222 43.5319 18.0192
622 2 24.0594 43.5599 17.9488
623 2 27.8484 43.4731 17.9981
624 2 31.8523 43.3418 17.9452
625 2 35.7539 43.6305 17.9557
626 2 39.5912 43.3688 18.0866
627 2 43.5076 43.6221 17.9765
628 2 47.6638 43.3896 17.8905
629 2 51.6078 43.4907 17.9383
630 2 55.4825 43.6167 17.9718
631 2 0.0890234 47.3144 17.9636
632 2 4.04689 47.4647 18.0374
633 2 8.06404 47.5068 17.9147
634 2 11.9641 47.517 17.8501
635 2 15.967 47.4501 17.9788
636 2 19.7947 47.5357 18.0867
637 2 23.7574 47.3916 18.0542
638 2 27.9186 47.6559 17.9775
639 2 31.9179 47.3216 17.9704
640 2 35.7821 47.4977 18.0458
641 2 39.4799 47.3516 17.9014
642 2 43.4211 47.2301 17.9776
643 2 47.4205 47.2363 17.9933
644 2 51.4346 47.5002 18.0985
645 2 55.4777 47.4479 18.0632
646 2 0.147309 51.4761 17.9316
647 2 3.98498 51.332 18.0122
648 2 7.90383 51.3285 17.905
649 2 11.9535 51.4574 18.0484
650 2 15.8046 51.3157 17.8698
651 2 19.7761 51.537 18.0009
652 2 23.7714 51.5229 18.1841
653 2 27.8116 51.3595 17.8887
654 2 31.9 51.3761 17.7462
655 2 35.6983 51.4078 17.9136
656 2 39.6715 51.2879 17.8782
657 2 43.7 51.1447 17.841
658 2 47.5973 51.3766 18.1297
659 2 51.6553 51.3564 17.903
660 2 55.7362 51.3937 17.8552
661 2 0.0358817 55.5837 18.0575
662 2 4.04546 55.2988 18.181
663 2 8.07421 55.3575 17.8844
664 2 12.0135 55.4049 17.9739
665 2 15.8732 55.4644 18.0948
666 2 19.9022 55.3899 17.9467
667 2 23.9765 55.4147 17.9219
668 2 27.7477 55.329 17.9657
669 2 31.6076 55.3223 18.0098
670 2 35.7389 55.4878 18.1102
671 2 39.7945 55.4111 18.1151
672 2 43.7969 55.204 17.9644
673 2 47.571 55.2198 17.8707
674 2 51.553 55.408 17.9208
675 2 55.5041 55.2971 18.1562
676 2 59.4384 59.3301 22.0863
677 2 4.07497 -0.157095 21.8984
678 2 7.99777 -0.039697 21.8785
679 2 11.9816 0.109067 21.8782
680 2 15.9573 59.437 21.9457
681 2 19.9476 0.0409 21.8488
682 2 23.651 59.4252 21.9526
683 2 27.7919 -0.229738 22.0146
684 2 31.7082 0.0294335 22.1093
685 2 35.6515 -0.1007 22.004
686 2 39.8361 59.4351 21.649
687 2 43.4697 0.143249 21.9453
688 2 47.5696 0.00914446 22.0609
689 2 51.5808 59.3789 21.9361
690 2 55.6431 -0.131583 21.8208
691 2 0.14175 3.89385 22.1518
692 2 4.0182 3.82406 21.8902
693 2 8.02407 3.95827 21.9619
694 2 11.8919 3.90001 21.9396
695 2 15.9264 3.99992 22.0296
696 2 19.8211 3.83671 21.8941
697 2 23.7185 3.82387 21.9739
698 2 27.6082 3.95861 21.9072
699 2 31.641 3.9143 21.9544
700 2 35.7756 4.05891 21.9387
701 2 39.542 3.70571 21.8418
702 2 43.56 4.10042 22.0646
703 2 47.7233 3.99068 21.8785
704 2 51.604 3.88026 22.079
705 2 55.4141 3.88749 21.7844
706 2 -0.113399 7.9113 21.8478
707 2 4.02461 7.80055 22.0244
708 2 8.04644 7.9107 21.9076
709 2 11.7725 7.84748 21.8948
710 2 16.035 7.75458 21.9692
711 2 19.8053 7.97989 21.9049
712 2 23.6528 7.98827 22.0442
713 2 27.8038 7.67964 21.9677
714 2 31.9061 7.91748 21.8254
715 2 35.6192 7.98911 22.0561
716 2 39.6332 7.99271 22.0717
717 2 43.4312 8.01228 21.9489
718 2 47.6678 7.91704 21.9849
719 2 51.7142 7.98485 21.8961
720 2 55.6008 7.94503 21.9325
721 2 59.3581 11.7711 21.9198
722 2 4.08136 11.8717 21.8896
723 2 8.18238 11.7836 21.8593
724 2 12.2487 12.0283 21.8816
725 2 16.0876 11.9074 21.9401
726 2 19.8062 11.913 22.0718
727 2 23.7541 11.92 22.0954
728 2 27.6431 11.853 21.7532
729 2 31.7147 11.9049 21.9749
730 2 35.5609 12.0487 21.8977
731 2 39.5695 11.9631 22.0388
732 2 43.5706 11.8711 21.8834
733 2 47.5436 11.9114 22.2132
734 2 51.6149 12.0058 21.9522
735 2 55.4778 12.0186 21.8425
736 2 0.156004 15.6502 21.8896
737 2 3.81208 15.5693 21.9928
738 2 7.924 15.901 22.0442
739 2 12.0008 15.8275 21.926
740 2 15.8271 15.9591 22.062
741 2 19.8393 15.8122 22.0065
742 2 23.8777 15.857 21.8938
743 2 27.8294 15.7634 21.8145
744 2 31.653 15.7297 22.0502
745 2 35.6489 16.0119 21.9295
746 2 39.6678 16.0957 21.8263
747 2 43.3854 15.6468 21.964
748 2 47.5641 16.0143 21.838
749 2 51.569 15.8948 21.9056
750 2 55.4631 15.7641 21.9795
751 2 0.0920973 19.8891 22.1271
752 2 4.1581 19.8656 21.8457
753 2 7.84965 19.8224 21.809
754 2 11.7857 19.8795 21.908
755 2 15.817 19.8933 21.9584
756 2 19.9036 19.819 21.8629
757 2 23.8235 19.751 21.9014
758 2 27.7556 19.7747 22.039
759 2 31.642 19.6873 22.0272
760 2 35.4881 19.8295 22.019
761 2 39.5817 19.7774 22.0487
762 2 43.6401 19.6498 21.9979
763 2 47.5656 19.882 21.982
764 2 51.4771 19.7723 21.8167
765 2 55.7445 19.5598 21.9823
766 2 0.227668 23.7484 22.0041
767 2 4.08421 23.9154 21.9193
768 2 8.23635 23.6616 21.8879
769 2 12.1093 23.8405 22.1306
770 2 15.9705 23.8694 21.9986
771 2 19.989 23.8702 21.9446
772 2 24.0381 23.7481 22.1074
773 2 27.7937 23.5787 22.0526
774 2 31.7237 23.6343 22.1002
775 2 35.7281 23.7656 22.0656
776 2 39.5441 23.6752 22.0296
777 2 43.5496 23.6291 22.0276
778 2 47.5303 23.8681 21.9991
779 2 51.6006 23.6401 21.8327
780 2 55.6161 23.853 22.0731
781 2 59.4659 27.6891 21.9792
782 2 4.05942 27.836 21.957
783 2 7.9668 27.9853 21.929
784 2 12.0814 27.6963 21.991
785 2 15.8876 27.7843 21.933
786 2 19.9632 27.9615 22.0121
787 2 23.8212 27.7449 21.8117
788 2 27.9527 27.7893 22.0406
789 2 31.8257 27.6733 21.9479
790 2 35.7294 27.6885 21.9955
791 2 39.5565 27.612 21.9304
792 2 43.6663 27.5418 21.7904
793 2 47.6879 27.8605 21.9066
794 2 51.6471 27.703 21.7861
795 2 55.6161 27.5832 21.8696
796 2 59.4823 31.737 22.157
797 2 3.97398 31.5793 22.1278
798 2 8.12966 31.7428 21.9552
799 2 12.0894 31.6778 21.9472
800 2 15.7825 32.0099 21.9108
801 2 19.7497 31.9326 21.9628
802 2 23.8543 31.5823 22.059
803 2 27.8808 31.6956 21.8753
804 2 31.6478 31.4514 21.8438
805 2 35.7433 31.7744 22.0081
806 2 39.7407 31.5103 22.0226
807 2 43.7337 31.7513 21.8492
808 2 47.6587 31.6649 22.0535
809 2 51.503 31.8424 21.9792
810 2 55.5278 31.6405 22.0243
811 2 0.203442 35.6485 21.9968
812 2 4.02751 35.6969 21.9454
813 2 8.28449 35.6817 22.091
814 2 11.9988 35.7534 21.7173
815 2 15.9437 35.9136 22.0832
816 2 20.0428 35.6676 22.1145
817 2 23.8403 35.5235 22.2091
818 2 27.946 35.5096 21.7722
819 2 31.5334 35.7092 21.6954
820 2 35.5554 35.7229 21.7101
821 2 39.7731 35.6471 21.9934
822 2 43.5779 35.393 22.0696
823 2 47.6062 35.6872 21.8493
824 2 51.7007 35.6833 22.0716
825 2 55.5128 35.6258 21.9652
826 2 0.309606 39.4787 21.797
827 2 4.07853 39.619 21.9472
828 2 7.98597 39.5792 22.0598
829 2 12.1698 39.586 21.9151
830 2 16.0757 39.7988 21.9778
831 2 19.9107 39.8137 21.9547
832 2 23.8452 39.7944 21.8689
833 2 27.93 39.5044 22.0182
834 2 31.8468 39.7149 21.8708
835 2 35.5631 39.5026 22.0686
836 2 39.5685 39.5214 22.0509
837 2 43.6823 39.2178 21.9238
838 2 47.6292 39.708 21.8279
839 2 51.6116 39.5751 21.8894
840 2 55.5719 39.6242 21.9113
841 2 0.147025 43.4611 21.9296
842 2 4.09171 43.4852 21.8668
843 2 8.25303 43.684 22.0153
844 2 12.0455 43.731 22.0425
845 2 15.9377 43.5929 22.0207
846 2 20.0142 43.6344 21.9549
847 2 24.0877 43.7018 21.8753
848 2 27.9746 43.6314 22.2313
849 2 31.4798 43.5828 21.9518
850 2 35.7857 43.4326 22.1178
851 2 39.6317 43.4465 22.0806
852 2 43.55 43.2704 21.9472
853 2 47.4834 43.418 22.0035
854 2 51.5932 43.7091 21.7973
855 2 55.4824 43.7086 22.0173
856 2 0.062389 47.546 21.9572
857 2 4.11253 47.4648 22.2011
858 2 8.1252 47.4948 21.962
859 2 12.0787 47.5393 21.808
860 2 16.0949 47.4902 21.8148
861 2 19.9283 47.5869 22.1337
862 2 23.9101 47.3158 22.0144
863 2 27.9591 47.6283 21.9365
864 2 31.9274 47.5054 21.9883
865 2 35.8451 47.4683 22.147
866 2 39.7521 47.5692 21.9361
867 2 43.5864 47.3816 21.9649
868 2 47.2959 47.536 21.9865
869 2 51.6249 47.6274 22.0191
870 2 55.454 47.6071 22.0132
871 2 0.244605 51.5124 22.1654
872 2 4.14437 51.5769 22.1103
873 2 8.00649 51.4291 21.9904
874 2 12.0114 51.4069 21.9276
875 2 16.0016 51.5301 21.9418
876 2 20.0943 51.48 21.7639
877 2 23.9671 51.1458 22.0473
878 2 27.8423 51.3997 22.0003
879 2 31.846 51.5166 21.9505
880 2 35.6424 51.6514 21.8818
881 2 39.8896 51.385 21.7777
882 2 43.7567 51.4282 21.9155
883 2 47.7024 51.5168 21.9475
884 2 51.6532 51.4825 21.8254
885 2 55.5202 51.4981 21.9269
886 2 0.0705768 55.2808 22.0437
887 2 4.05842 55.3492 22.052
888 2 8.17173 55.2746 21.838
889 2 11.7663 55.4595 22.0462
890 2 15.9354 55.5778 21.8836
891 2 19.8501 55.4496 22.07
892 2 23.8639 55.3286 21.8793
893 2 27.8687 55.3454 22.0259
894 2 31.7924 55.403 22.1257
895 2 35.6914 55.3567 22.0935
896 2 39.7059 55.3269 21.8195
897 2 43.4787 55.2873 22.0103
898 2 47.4844 55.3168 22.1188
899 2 51.5723 55.4391 21.958
900 2 55.6074 55.2863 21.8309
901 2 -0.0101345 0.138725 26.0125
902 2 4.23572 0.0736454 25.7653
903 2 7.90323 59.2279 26.0395
904 2 12.0299 0.0368917 25.9108
905 2 16.1722 -0.056427 25.8872
906 2 19.9247 0.0285551 26.0445
907 2 24.0393 0.0416716 25.775
908 2 28.0423 0.116117 25.9011
909 2 31.859 59.5343 26.0794
910 2 35.7378 0.16986 25.8664
911 2 39.797 0.0904448 25.9538
912 2 43.7289 -0.0461277 25.7886
913 2 47.5665 0.00417078 25.8479
914 2 51.605 59.2045 25.9471
915 2 55.664 59.5052 25.8215
916 2 0.163657 3.96925 25.8842
917 2 4.04883 3.87048 25.7409
918 2 8.04087 3.89813 26.0171
919 2 12.0894 3.85667 25.8638
920 2 15.9525 3.94283 25.8586
921 2 19.9859 3.97783 25.7625
922 2 23.949 3.95446 25.9461
923 2 27.7642 4.03253 25.9422
924 2 31.8752 4.15131 25.9287
925 2 35.8921 3.95137 25.7569
926 2 39.5083 3.98242 25.8377
927 2 43.6086 4.08369 25.9265
928 2 47.6775 3.93574 25.9526
929 2 51.6418 3.98299 25.8496
930 2 55.4758 3.93136 25.8491
931 2 59.5687 7.97869 26.0078
932 2 4.22802 7.93383 25.9088
933 2 8.26387 7.84293 25.6709
934 2 12.1669 8.01688 25.8491
935 2 16.1361 7.91189 25.7695
936 2 19.9848 7.92335 26.0008
937 2 23.8617 7.98046 26.0481
938 2 27.8875 8.01319 25.9621
939 2 32.0563 7.92382 25.7903
940 2 35.8119 8.0841 25.8682
941 2 39.5235 7.98591 26.0303
942 2 43.6055 7.9537 26.0269
943 2 47.6133 7.93269 25.8874
944 2 51.6764 7.89774 25.99
945 2 55.536 7.77106 26.0311
946 2 -0.0393589 11.7563 25.9161
947 2 4.12854 11.91 26.13
948 2 8.02466 11.9288 25.9115
949 2 12.1604 11.7071 26.0078
950 2 15.9728 11.8029 25.9174
951 2 20.017 11.7977 25.9608
952 2 23.9763 12.0097 25.9386
953 2 27.7721 11.9708 25.9925
954 2 31.7437 11.9007 26.0249
955 2 35.7057 11.9583 25.8784
956 2 39.6511 12.0454 25.819
957 2 43.5472 11.8745 26.0102
958 2 47.6666 11.9793 25.7117
959 2 51.4869 11.782 26.075
960 2 55.6281 11.8624 25.9811
961 2 59.5798 15.8222 26.047
962 2 4.11577 15.6703 25.9629
963 2 8.08773 15.964 25.8763
964 2 11.8388 15.9228 26.0443
965 2 15.8938 15.991 25.9623
966 2 19.8619 15.9515 26.0149
967 2 23.819 15.9296 25.9208
968 2 27.6646 15.8291 25.9942
969 2 31.5924 15.9695 26.0493
970 2 35.6565 15.8101 25.8719
971 2 39.7357 16.0289 25.6833
972 2 43.5671 15.8471 26.0149
973 2 47.5222 15.7317 25.9602
974 2 51.5209 15.9448 25.8492
975 2 55.417 15.8146 26.0416
976 2 59.5905 19.8442 26.0349
977 2 4.04167 19.7323 25.9289
978 2 8.09195 19.843 25.9001
979 2 11.9482 19.8732 25.8845
980 2 15.9842 19.9038 25.9911
981 2 19.9958 19.7307 25.8524
982 2 23.7112 19.8667 26.0952
983 2 27.7897 19.7488 26.0473
984 2 31.7705 19.8359 25.948
985 2 35.723 19.794 26.157
986 2 39.6433 19.8384 25.9565
987 2 43.5134 19.8801 25.8188
988 2 47.7503 19.6352 25.9757
989 2 51.4285 19.8552 25.9713
990 2 55.5245 19.7663 25.9405
991 2 59.4563 23.8557 25.9919
992 2 4.2367 23.82 25.8845
993 2 8.02894 23.8506 25.83
994 2 11.9928 23.9262 25.9882
995 2 16.0334 23.8772 25.928
996 2 19.9137 23.7313 25.92
997 2 23.7323 23.8166 26.0491
998 2 27.6347 23.8078 26.2318
999 2 31.6499 23.803 26.091