ITEM: TIMESTEP
1537100
ITEM: NUMBER OF ATOMS
16875
ITEM: BOX BOUNDS xy xz yz pp pp pp
0.0000000000000000e+00 5.9369999999999997e+01 0.0000000000000000e+00
0.0000000000000000e+00 5.9369999999999997e+01 0.0000000000000000e+00
3.3109056375147716e-01 6.0035328436251277e+01 0.0000000000000000e+00
ITEM: ATOMS id type x y z
1 2 59.3653 59.253 9.95112
2 2 3.92007 59.3225 10.0496
3 2 7.88695 59.4412 10.0009
4 2 11.9018 59.3579 10.1328
5 2 15.7095 -0.17992 10.0175
6 2 19.7988 59.1532 10.0386
7 2 23.6808 59.1182 9.969
8 2 27.6288 59.1242 9.93139
9 2 31.5316 59.219 10.0983
10 2 35.4689 59.2091 9.92624
11 2 39.6494 59.3186 10.1749
12 2 43.5524 59.3239 10.0922
13 2 47.4195 58.9931 10.0158
14 2 51.2802 59.4909 9.97239
15 2 55.3443 59.4332 9.68061
16 2 -0.0273543 3.81636 10.1377
17 2 3.89006 3.93757 10.3195
18 2 7.75014 3.77685 10.1016
19 2 11.8014 3.8962 10.0634
20 2 15.6854 3.97695 10.0451
21 2 19.5207 3.64351 10.1477
22 2 23.6037 3.68835 10.0239
23 2 27.5865 3.82544 10.2434
24 2 31.4264 3.8072 10.2056
25 2 35.4776 3.702 10.2769
26 2 39.534 3.68638 10.0399
27 2 43.5727 3.82848 10.1367
28 2 47.4228 3.94322 10.1461
29 2 51.2911 3.71104 10.0654
30 2 55.4569 4.07512 10.1771
31 2 -0.0939542 7.81333 10.0378
32 2 4.00314 7.72938 10.0769
33 2 7.84247 7.79234 10.04
34 2 11.811 7.89173 10.0211
35 2 15.8194 7.86038 10.086
36 2 19.7334 7.68154 9.95258
37 2 23.755 7.65295 10.0606
38 2 27.8974 7.92575 10.1053
39 2 31.4284 7.64749 10.1685
40 2 35.5137 7.7111 10.2081
41 2 39.4415 7.65226 10.1544
42 2 43.398 7.78499 10.1239
43 2 47.1964 7.98254 10.1612
44 2 51.2312 7.80356 9.94941
45 2 55.4066 7.90706 9.92499
46 2 0.068068 11.7509 9.8706
47 2 4.04776 11.6914 9.96483
48 2 7.98503 11.6621 10.0947
49 2 11.7546 11.8136 10.1331
50 2 15.7625 11.6839 10.0759
51 2 19.6308 11.647 9.98227
52 2 23.693 11.6014 10.1993
53 2 27.5977 11.6785 9.95156
54 2 31.6561 11.4811 9.99786
55 2 35.6712 11.5812 10.0838
56 2 39.5795 11.6059 9.94759
57 2 43.532 11.7046 10.2536
58 2 47.7343 11.8754 9.86513
59 2 51.3162 11.8812 10.0557
60 2 55.207 11.6636 10.1015
61 2 59.3352 15.7815 10.0688
62 2 4.10025 15.7001 9.94806
63 2 7.84402 15.6128 10.1144
64 2 11.9225 15.6 9.94741
65 2 15.8282 15.5585 10.1848
66 2 19.7487 15.6816 9.80754
67 2 23.5276 15.5768 9.82321
68 2 27.6465 15.5243 10.1373
69 2 31.7693 15.7819 9.8619
70 2 35.7804 15.5907 9.80163
71 2 39.5041 15.5437 10.0193
72 2 43.485 15.7738 10.066
73 2 47.3189 15.8474 10.0159
74 2 51.3891 15.7205 9.91569
75 2 55.365 15.7942 9.94616
76 2 0.271151 19.6387 9.92575
77 2 4.1706 19.522 9.95233
78 2 7.8632 19.5268 10.0494
79 2 11.7971 19.6723 10.2135
80 2 16.1261 19.6233 9.97106
81 2 19.7329 19.3946 10.0419
82 2 23.7858 19.598 10.05
83 2 27.6552 19.5414 10.0097
84 2 31.7002 19.4946 9.97975
85 2 35.6318 19.5555 10.0849
86 2 39.6593 19.5185 9.87684
87 2 43.5595 19.8172 9.90619
88 2 47.5467 19.6187 9.92
89 2 51.4521 19.4578 9.99571
90 2 55.5138 19.5599 9.89183
91 2 -0.0941255 23.5959 10.0626
92 2 4.00602 23.6095 10.1475
93 2 7.81118 23.4975 9.8808
94 2 11.9034 23.6763 9.97504
95 2 15.7107 23.7002 9.99261
96 2 19.8793 23.3189 9.96486
97 2 23.7285 23.4321 10.1152
98 2 27.9066 23.6102 10.0575
99 2 31.9095 23.663 9.87678
100 2 35.5326 23.6481 10.2632
101 2 39.6333 23.514 10.0732
102 2 43.607 23.7102 10.1768
103 2 47.6573 23.4547 9.88095
104 2 51.4652 23.416 9.9061
105 2 55.4281 23.6626 10.0667
106 2 0.120639 27.5266 9.9017
107 2 3.94741 27.5648 10.0048
108 2 7.9695 27.5375 9.86679
109 2 11.7186 27.5696 9.94631
110 2 15.5547 27.5324 9.99224
111 2 19.7387 27.7148 10.1582
112 2 23.7366 27.5008 9.98297
113 2 27.774 27.5781 10.0159
114 2 31.6571 27.5906 10.1301
115 2 35.6253 27.6231 10.2322
116 2 39.7152 27.6287 10.058
117 2 43.615 27.6457 10.2948
118 2 47.4955 27.5414 9.97794
119 2 51.4118 27.426 9.87839
120 2 55.4568 27.8549 10.0798
121 2 0.145906 31.3898 9.93192
122 2 4.17028 31.5593 9.78702
123 2 8.05515 31.5234 10.039
124 2 12.0935 31.504 9.91326
125 2 15.8489 31.4271 9.91378
126 2 19.7559 31.5484 10.0445
127 2 23.6769 31.7367 9.89277
128 2 27.6508 31.6319 9.93914
129 2 31.5199 31.6829 10.0385
130 2 35.4855 31.5927 10.0739
131 2 39.5157 31.6333 9.94185
132 2 43.5405 31.9 10.0306
133 2 47.3864 31.7312 9.98683
134 2 51.3946 31.4699 10.1366
135 2 55.547 31.6352 9.97087
136 2 59.2804 35.3627 9.97034
137 2 4.01918 35.5591 9.84553
138 2 8.1278 35.5191 9.86039
139 2 11.8441 35.5058 10.1511
140 2 15.9019 35.4174 10.008
141 2 19.7816 35.4164 10.1429
142 2 23.5166 35.5878 9.99148
143 2 27.7402 35.7502 9.97577
144 2 31.7012 35.6277 10.0004
145 2 35.72 35.4416 10.0348
146 2 39.5722 35.7675 9.92631
147 2 43.471 35.7193 10.157
148 2 47.6316 35.7752 10.1587
149 2 51.4834 35.4269 10.1233
150 2 55.3307 35.4501 10.0928
151 2 59.2482 39.5139 10.0337
152 2 3.90209 39.3626 9.96269
153 2 7.8947 39.4719 10.052
154 2 12.0609 39.5116 9.79842
155 2 15.8275 39.3004 10.0443
156 2 19.8448 39.5333 9.81354
157 2 23.7291 39.6223 10.0332
158 2 27.7641 39.5862 9.99598
159 2 31.7095 39.478 10.1481
160 2 35.554 39.5722 10.2242
161 2 39.4766 39.4925 10.1069
162 2 43.5541 39.6004 9.92363
163 2 47.6271 39.5335 9.98277
164 2 51.5071 39.4824 10.1057
165 2 55.3353 39.4272 10.0497
166 2 59.3086 43.4309 9.88596
167 2 4.00996 43.3335 9.97211
168 2 7.99548 43.5286 10.0689
169 2 11.8395 43.1598 9.8707
170 2 15.9094 43.406 10.1347
171 2 19.8921 43.3932 9.89841
172 2 23.5847 43.4568 10.0762
173 2 27.5594 43.581 10.0476
174 2 31.6665 43.5414 10.0266
175 2 35.7749 43.4649 10.1297
176 2 39.7122 43.3981 10.0925
177 2 43.5026 43.5102 10.0109
178 2 47.6637 43.4055 10.0457
179 2 51.5289 43.6428 10.1117
180 2 55.3168 43.363 10.1607
181 2 59.3571 47.3525 9.93228
182 2 4.10891 47.4382 10.1389
183 2 7.85618 47.3497 9.79617
184 2 11.7749 47.3389 9.87792
185 2 15.6241 47.2998 10.0878
186 2 19.6637 47.4007 10.065
187 2 23.76 47.4016 9.97434
188 2 27.7726 47.4113 10.1549
189 2 31.6898 47.4254 9.88335
190 2 35.6551 47.5014 10.1228
191 2 39.7949 47.5209 10.0799
192 2 43.476 47.2405 10.1708
193 2 47.4455 47.3527 10.0634
194 2 51.2902 47.4413 10.1502
195 2 55.4121 47.5855 10.0191
196 2 0.277558 51.3893 9.90987
197 2 4.03504 51.2701 10.0614
198 2 7.95951 51.6478 9.77009
199 2 11.836 51.2481 9.99792
200 2 15.7912 51.3441 10.1526
201 2 19.5767 51.3231 10.0395
202 2 23.7043 51.2221 9.87317
203 2 27.4318 51.3332 10.0683
204 2 31.6562 51.3127 10.0657
205 2 35.4972 51.3096 9.97905
206 2 39.5267 51.2804 10.0574
207 2 43.4477 51.42 10.0358
208 2 47.2443 51.3965 9.97182
209 2 51.3546 51.2803 10.0064
210 2 55.5461 51.132 10.0542
211 2 0.0104136 55.3193 10.1771
212 2 3.91502 55.3373 10.1762
213 2 7.87138 55.2043 10.0791
214 2 11.8103 55.2956 10.0967
215 2 15.7864 55.2391 10.0976
216 2 19.9931 55.2572 9.88929
217 2 23.745 55.2605 9.77431
218 2 27.5402 55.2807 10.1554
219 2 31.4638 55.2262 10.1022
220 2 35.5574 55.3467 10.1804
221 2 39.5358 55.2252 10.0078
222 2 43.3215 55.3476 9.95851
223 2 47.277 55.1768 10.0267
224 2 51.5145 55.2489 10.0865
225 2 55.3587 55.3256 9.96845
226 2 0.0152056 59.4222 14.0907
227 2 3.94706 59.2518 14.0499
228 2 7.96998 59.2721 14.1152
229 2 11.8691 59.2751 14.0753
230 2 15.8755 -0.0855706 13.9757
231 2 19.6679 -0.20341 14.0008
232 2 23.7851 0.0813335 13.9371
233 2 27.5599 59.1431 14.1524
234 2 31.5127 59.2799 13.9267
235 2 35.4763 59.183 14.1351
236 2 39.4959 -0.137505 14.2385
237 2 43.6324 59.3706 13.9437
238 2 47.6408 -0.242427 13.9566
239 2 51.436 -0.228803 13.854
240 2 55.5329 59.4437 14.0377
241 2 -0.0351512 3.84318 14.1007
242 2 3.97997 3.80806 14.1544
243 2 7.96239 3.84242 14.0019
244 2 12.1137 3.8422 14.0702
245 2 15.9294 3.95357 14.0194
246 2 19.6074 3.72175 13.9979
247 2 23.6405 3.73371 14.0383
248 2 27.6222 3.93422 14.0798
249 2 31.6543 3.92172 14.1278
250 2 35.5725 3.79052 14.0044
251 2 39.4634 3.82926 14.016
252 2 43.5489 3.93561 14.0129
253 2 47.5678 4.00716 14.1679
254 2 51.2364 3.91391 13.8328
255 2 55.2593 3.94014 14.0648
256 2 -0.0412683 7.88399 14.0507
257 2 3.97834 7.86448 13.9701
258 2 8.00773 7.86637 14.2331
259 2 11.8722 7.60077 14.024
260 2 15.9818 7.79428 14.2544
261 2 20.0059 7.79298 14.1151
262 2 23.8456 7.86289 13.9552
263 2 27.5661 7.85347 14.2343
264 2 31.7257 7.88961 14.1548
265 2 35.5661 7.92995 14.1634
266 2 39.5295 7.86701 14.2273
267 2 43.6317 7.95571 14.1162
268 2 47.4278 7.95402 14.1623
269 2 51.4023 7.81047 14.0895
270 2 55.3239 7.77756 14.1092
271 2 -0.0205247 11.7959 14.1071
272 2 3.96086 11.7805 13.904
273 2 8.10076 11.6869 14.074
274 2 11.8034 11.6638 14.049
275 2 15.7855 11.8105 14.0452
276 2 19.7635 11.7131 13.9998
277 2 23.7558 11.8211 14.0409
278 2 27.7944 11.9914 14.0673
279 2 31.7844 12.0643 13.8626
280 2 35.5938 11.8655 14.0141
281 2 39.3566 11.9963 14.1409
282 2 43.4374 11.8187 14.0575
283 2 47.7114 11.7167 14.0328
284 2 51.4884 11.874 14.0282
285 2 55.4965 11.8352 13.9956
286 2 -0.0770217 15.6211 14.1007
287 2 3.90517 15.6859 14.0522
288 2 7.94518 15.7476 14.131
289 2 11.9128 15.7939 14.1423
290 2 15.8719 15.5036 14.1022
291 2 19.7991 15.7001 14.0013
292 2 23.8614 15.7489 14.0497
293 2 27.7741 15.8646 13.994
294 2 31.7619 15.7347 13.9334
295 2 35.765 15.9439 14.023
296 2 39.8102 15.8091 13.999
297 2 43.6996 15.8739 14.1346
298 2 47.3159 15.6435 13.7802
299 2 51.3286 15.8903 13.9837
300 2 55.3142 15.7096 13.9207
301 2 0.0574509 19.6268 14.1215
302 2 3.90514 19.7069 13.9976
303 2 7.85216 19.4724 13.9142
304 2 11.84 19.7413 14.0309
305 2 15.7164 19.7405 14.0418
306 2 19.9002 19.433 13.9405
307 2 23.9178 19.5506 13.9906
308 2 27.9784 19.74 13.8911
309 2 31.7244 19.7606 13.8981
310 2 35.6929 19.7843 13.9764
311 2 39.7608 19.6926 14.1149
312 2 43.4234 19.75 14.0451
313 2 47.6017 19.8857 14.0284
314 2 51.514 19.647 13.9495
315 2 55.5409 19.7154 13.7267
316 2 0.0763152 23.5612 13.9904
317 2 3.96439 23.8571 14.008
318 2 7.77795 23.7271 14.0881
319 2 11.7156 23.5471 13.9342
320 2 15.922 23.6121 13.9085
321 2 20.0022 23.5627 13.9252
322 2 24.0147 23.6879 13.9309
323 2 27.7623 23.5037 13.9328
324 2 31.7126 23.6592 14.0546
325 2 35.7038 23.8523 14.1379
326 2 39.6387 23.7939 13.9861
327 2 43.6064 23.8635 14.0383
328 2 47.7414 23.6777 13.9234
329 2 51.616 23.7582 13.9328
330 2 55.5822 23.7552 14.1017
331 2 0.0312355 27.4542 14.2075
332 2 4.03833 27.5977 13.8496
333 2 7.85645 27.6971 13.8718
334 2 11.8599 27.738 13.9753
335 2 15.9448 27.3593 13.8381
336 2 19.7697 27.3367 13.8369
337 2 23.7598 27.7248 13.9319
338 2 27.8739 27.6176 13.9579
339 2 31.5688 27.6459 13.975
340 2 35.6704 27.8412 13.935
341 2 39.6891 27.5369 13.8609
342 2 43.7277 27.8459 14.0313
343 2 47.5982 27.7273 13.8766
344 2 51.4856 27.435 13.8416
345 2 55.5207 27.658 13.9764
346 2 0.0409451 31.7677 13.9522
347 2 3.9092 31.6366 13.8748
348 2 8.03295 31.4905 13.9488
349 2 12.1096 31.7216 14.0065
350 2 15.9585 31.5532 13.7982
351 2 19.7971 31.266 13.9697
352 2 23.8939 31.4901 13.7856
353 2 27.879 31.8171 13.7025
354 2 31.7828 31.5208 14.1414
355 2 35.7642 31.4577 14.1142
356 2 39.6481 31.5366 14.0992
357 2 43.7234 31.7475 13.866
358 2 47.6066 31.704 14.0082
359 2 51.4615 31.3901 13.9903
360 2 55.3613 31.4226 14.0235
361 2 0.192711 35.3022 14.0126
362 2 3.96024 35.4411 14.029
363 2 8.00516 35.4602 13.9886
364 2 11.8524 35.5905 13.9771
365 2 16.0314 35.4859 13.7969
366 2 19.8652 35.5149 14.1208
367 2 23.9505 35.622 14.1118
368 2 27.6348 35.5161 13.9388
369 2 31.6332 35.5395 14.0553
370 2 35.5878 35.3374 14.0769
371 2 39.6443 35.62 14.0487
372 2 43.5268 35.6141 14.1545
373 2 47.6319 35.3913 13.9233
374 2 51.7736 35.6026 13.9262
375 2 55.5919 35.4329 14.2163
376 2 0.043834 39.4251 13.9047
377 2 3.93615 39.427 14.0028
378 2 7.87319 39.451 13.8709
379 2 11.9002 39.5524 13.9487
380 2 15.7642 39.5607 13.9369
381 2 19.9994 39.3662 14.0688
382 2 23.9097 39.6102 14.0559
383 2 27.8829 39.4168 13.9769
384 2 31.5905 39.4077 13.9602
385 2 35.66 39.3604 14.0501
386 2 39.79 39.5234 14.1715
387 2 43.706 39.4968 14.0866
388 2 47.4363 39.4668 14.055
389 2 51.4616 39.5228 14.2594
390 2 55.3821 39.4966 14.0321
391 2 0.221475 43.2842 13.97
392 2 4.01956 43.4395 14.0733
393 2 7.87007 43.2762 14.145
394 2 11.7735 43.255 13.993
395 2 15.9073 43.5463 14.1335
396 2 19.8763 43.3428 14.0676
397 2 23.822 43.3212 13.9264
398 2 27.6971 43.3644 13.9483
399 2 31.6324 43.393 13.8323
400 2 35.6844 43.5224 13.9049
401 2 39.5457 43.496 14.2715
402 2 43.5745 43.4917 14.1907
403 2 47.534 43.4648 13.9069
404 2 51.4946 43.3356 14.0883
405 2 55.7005 43.3747 14.0731
406 2 0.112797 47.2552 13.949
407 2 4.00182 47.4194 14.0379
408 2 7.99948 47.4179 14.08
409 2 12.0437 47.2119 13.8089
410 2 16.022 47.3374 14.0386
411 2 19.7748 47.2554 14.0378
412 2 23.6492 47.4899 13.9698
413 2 27.5233 47.318 13.9513
414 2 31.5027 47.5273 14.0544
415 2 35.5074 47.6337 14.1783
416 2 39.6554 47.4738 14.192
417 2 43.6068 47.3862 14.1243
418 2 47.5933 47.4395 14.1832
419 2 51.4526 47.2231 14.0385
420 2 55.7142 47.3983 13.991
421 2 0.0554772 51.2204 14.0948
422 2 4.08545 51.2793 13.9274
423 2 8.0089 51.3775 13.9891
424 2 11.8041 51.1737 13.7774
425 2 15.8269 51.3715 14.0347
426 2 19.8459 51.2926 13.9676
427 2 23.6791 51.4015 14.0471
428 2 27.681 51.5456 14.1526
429 2 31.551 51.442 14.0031
430 2 35.5618 51.4561 14.0955
431 2 39.4162 51.3402 13.9419
432 2 43.4593 51.4078 13.8521
433 2 47.6572 51.4444 13.8003
434 2 51.5133 51.4493 13.9714
435 2 55.3455 51.2763 13.9583
436 2 -0.0555391 55.4493 13.9937
437 2 4.02169 55.3464 14.0116
438 2 8.01318 55.2913 14.0901
439 2 11.8231 55.4666 13.9812
440 2 15.9125 55.2732 14.0072
441 2 19.7554 55.4146 14.0616
442 2 23.6988 55.3384 13.9666
443 2 27.4452 55.353 13.9708
444 2 31.4818 55.3461 14.179
445 2 35.4605 55.1936 14.2814
446 2 39.4249 55.2859 13.9185
447 2 43.6553 55.3783 14.0567
448 2 47.6235 55.239 13.9707
449 2 51.5762 55.3261 14.0487
450 2 55.4976 55.4486 13.9027
451 2 0.134311 -0.122081 18.0326
452 2 3.94529 -0.302987 18.0715
453 2 8.03373 59.4279 18.1069
454 2 11.91 59.3539 18.1091
455 2 15.868 59.4801 17.9986
456 2 20.0186 59.2617 17.942
457 2 23.8321 59.5386 18.0459
458 2 27.8124 0.11845 18.1764
459 2 31.5713 59.3924 17.9445
460 2 35.6536 59.3004 18.1224
461 2 39.7063 -0.105794 17.9177
462 2 43.7457 59.2651 17.9952
463 2 47.6541 -0.0947131 17.9334
464 2 51.5099 59.2022 18.1581
465 2 55.6242 59.3549 17.9274
466 2 -0.0390522 3.60327 18.0982
467 2 3.9609 3.91497 18.0666
468 2 7.78335 3.93397 18.252
469 2 11.8984 4.01006 18.1197
470 2 15.8449 3.84702 18.1031
471 2 19.9383 3.97861 17.8654
472 2 23.6803 4.09942 17.9768
473 2 27.8217 3.9165 17.7422
474 2 31.7207 4.09202 17.978
475 2 35.7481 4.01665 17.9563
476 2 39.9514 3.77595 17.7525
477 2 43.7759 3.90306 17.8452
478 2 47.5831 3.9682 18.0053
479 2 51.5524 3.77614 18.0639
480 2 55.454 3.78703 17.9532
481 2 0.19402 7.72123 18.1903
482 2 3.9487 7.98027 18.0791
483 2 7.75112 7.78796 18.1476
484 2 11.853 7.84778 18.0067
485 2 15.9285 7.59292 18.1071
486 2 20.0751 7.92844 18.0444
487 2 23.7898 7.81569 18.0577
488 2 27.7733 7.88046 18.0832
489 2 31.6803 7.93655 17.9931
490 2 35.6141 7.95006 17.9752
491 2 39.6736 8.01077 18.0976
492 2 43.6574 7.76461 18.0859
493 2 47.6486 8.00031 18.127
494 2 51.5662 7.98531 17.8078
495 2 55.4439 7.59558 17.9019
496 2 0.253893 11.7992 17.9645
497 2 4.0619 11.8407 17.9264
498 2 7.74589 11.7932 17.9483
499 2 11.9014 11.725 18.0834
500 2 15.9394 11.7159 17.9184
501 2 19.8546 11.8216 18.1016
502 2 24.0038 11.8192 17.7858
503 2 27.7484 11.9234 17.9173
504 2 31.7124 11.6874 17.9781
505 2 35.7695 11.9002 17.9311
506 2 39.7678 11.7869 18.0273
507 2 43.5859 11.8017 18.0078
508 2 47.6434 12.0518 17.9802
509 2 51.8205 11.9676 17.9621
510 2 55.2861 11.6335 18.2843
511 2 59.3128 15.728 18.133
512 2 4.2381 15.7713 18.0234
513 2 7.9385 15.8793 18.0058
514 2 11.7159 15.7464 18.1658
515 2 15.8901 15.7324 18.0118
516 2 19.8525 15.8731 17.9498
517 2 24.0536 15.7721 17.9797
518 2 28.09 15.9624 17.8916
519 2 31.9586 15.8877 18.049
520 2 35.7497 16.0641 18.1225
521 2 39.6319 15.6192 18.2483
522 2 43.6146 15.7615 18.0194
523 2 47.5769 15.9203 17.8762
524 2 51.6087 15.9194 17.9556
525 2 55.5618 15.7585 17.8299
526 2 0.118291 19.5922 17.8715
527 2 3.91208 19.7734 18.0934
528 2 8.01785 19.6823 18.0676
529 2 12.0185 19.9141 18.0428
530 2 15.9033 19.6237 17.8249
531 2 19.9472 19.858 18.0826
532 2 23.8984 19.6526 17.9882
533 2 27.9758 19.7404 17.9545
534 2 32.0257 19.8047 17.8975
535 2 35.7911 19.8964 17.9319
536 2 39.7865 19.8908 18.0528
537 2 43.6356 19.8812 17.7574
538 2 47.6578 20.0422 17.9285
539 2 51.5445 19.7983 18.0029
540 2 55.3695 19.6638 18.0623
541 2 0.00914594 23.8085 17.8762
542 2 4.12085 23.7152 17.9459
543 2 8.03722 23.7253 17.8692
544 2 12.0555 23.6369 17.7169
545 2 15.8631 23.5239 17.6855
546 2 19.9055 23.7047 17.9002
547 2 23.8207 23.5431 17.7936
548 2 27.778 23.8207 18.0157
549 2 31.7403 23.7987 18.0111
550 2 35.7022 23.9197 17.9127
551 2 39.5137 23.9286 17.798
552 2 43.5054 23.8622 17.9028
553 2 47.4214 24.0284 17.9925
554 2 51.5172 23.8362 18.1042
555 2 55.5011 23.5373 18.0557
556 2 -0.0688669 27.8004 18.1923
557 2 4.14347 27.6265 18.0807
558 2 8.04083 27.9038 17.7379
559 2 11.9341 27.5569 17.9364
560 2 15.8358 27.588 17.9806
561 2 19.7827 27.7521 18.0437
562 2 23.7542 27.8267 17.7426
563 2 27.5776 27.9557 17.8464
564 2 31.5762 27.5998 18.0402
565 2 35.7671 27.7772 17.9955
566 2 39.6691 27.8126 17.9558
567 2 43.7028 27.7652 18.0083
568 2 47.5845 27.7246 18.0607
569 2 51.4813 27.5164 17.9226
570 2 55.3365 27.6206 18.0227
571 2 0.0460717 31.6419 17.9582
572 2 4.00484 31.3217 18.1047
573 2 7.87779 31.7245 17.9714
574 2 11.8585 31.7058 17.9852
575 2 15.7579 31.522 17.8734
576 2 19.8655 31.671 17.7513
577 2 23.7033 31.4842 17.9104
578 2 27.6285 31.8118 18.0054
579 2 31.5677 31.6894 18.0372
580 2 35.5523 31.7378 18.1842
581 2 39.7487 31.5018 17.8625
582 2 43.7323 31.5588 18.0007
583 2 47.6086 31.7049 18.1764
584 2 51.405 31.5461 17.961
585 2 55.4468 31.5987 17.9798
586 2 0.129542 35.5577 18.1039
587 2 4.1103 35.3272 18.0411
588 2 8.12428 35.5741 17.7823
589 2 12.1331 35.4983 18.0383
590 2 16.1914 35.5303 17.941
591 2 19.7419 35.6027 17.9525
592 2 23.6181 35.606 17.9887
593 2 27.5028 35.3805 18.1244
594 2 31.7441 35.5716 18.0262
595 2 35.7794 35.8429 18.1315
596 2 39.6804 35.7465 18.0408
597 2 43.6212 35.5833 18.0983
598 2 47.7254 35.5986 18.1271
599 2 51.602 35.7053 17.9206
600 2 55.3917 35.4558 18.1382
601 2 0.0956971 39.5626 18.0099
602 2 3.9545 39.3601 18.0398
603 2 8.0802 39.3555 17.8686
604 2 11.9064 39.5378 18.0704
605 2 15.8912 39.2492 17.7797
606 2 19.9962 39.3917 17.9179
607 2 23.9688 39.4785 18.0314
608 2 27.9488 39.5469 18.0331
609 2 31.6911 39.5396 18.1831
610 2 35.8046 39.5279 17.9954
611 2 39.6684 39.6123 17.8964
612 2 43.7079 39.4564 17.9117
613 2 47.5466 39.5647 17.8854
614 2 51.3705 39.5456 18.223
615 2 55.629 39.4654 18.0527
616 2 0.24127 43.3384 17.8984
617 2 4.1268 43.691 17.9534
618 2 7.84037 43.1883 17.7558
619 2 11.8956 43.5839 17.8116
620 2 15.9118 43.3938 18.0142
621 2 19.9115 43.2747 18.1205
622 2 23.7103 43.4551 18.0152
623 2 27.5931 43.6113 18.1343
624 2 31.645 43.4702 17.8791
625 2 35.562 43.2772 17.86
626 2 39.5619 43.5135 17.969
627 2 43.409 43.4696 18.0817
628 2 47.4297 43.6119 17.9784
629 2 51.5555 43.4198 18.0702
630 2 55.5481 43.446 17.8692
631 2 -0.00352631 47.2807 18.0499
632 2 4.01087 47.4001 18.0051
633 2 8.18235 47.5658 17.7435
634 2 12.0531 47.3892 17.9599
635 2 16.0145 47.3301 18.0611
636 2 19.8965 47.3648 17.9728
637 2 23.8739 47.3476 18.0701
638 2 27.7271 47.3185 17.9646
639 2 31.7537 47.4306 18.0814
640 2 35.6667 47.5108 18.0397
641 2 39.5703 47.5072 18.1715
642 2 43.7131 47.5175 17.8208
643 2 47.7684 47.4906 17.8246
644 2 51.5561 47.3857 18.0293
645 2 55.4891 47.3286 17.9149
646 2 0.0465642 51.3833 18.0956
647 2 4.08536 51.2733 17.7305
648 2 8.13823 51.4652 18.045
649 2 12.2082 51.4744 17.9864
650 2 15.8511 51.2792 18.0893
651 2 19.9002 51.3828 18.0742
652 2 23.8133 51.1978 18.0487
653 2 27.8121 51.2344 17.873
654 2 31.6661 51.3729 18.0368
655 2 35.5264 51.54 17.955
656 2 39.52 51.6743 17.8723
657 2 43.4434 51.419 17.8768
658 2 47.4089 51.3528 17.9471
659 2 51.6516 51.3972 17.9787
660 2 55.4562 51.3219 17.8614
661 2 0.316031 55.2391 18.0331
662 2 4.09734 55.2564 17.9787
663 2 8.09051 55.3316 17.9738
664 2 12.0998 55.3054 17.8867
665 2 15.7793 55.237 18.0628
666 2 19.8372 55.2823 18.0191
667 2 23.7039 55.3282 18.0295
668 2 27.8842 55.3097 17.9195
669 2 31.633 55.3515 18.1618
670 2 35.5291 55.3074 17.9535
671 2 39.579 55.4057 17.7761
672 2 43.6424 55.318 17.8312
673 2 47.6414 55.4203 17.7847
674 2 51.608 55.3989 17.9086
675 2 55.7664 55.1051 17.7343
676 2 59.5508 59.2848 22.021
677 2 4.12808 -0.136901 21.9806
678 2 7.9772 -0.0671405 21.8814
679 2 11.8119 0.0354127 22.0875
680 2 15.7684 59.3454 21.9549
681 2 20.1277 -0.140016 21.8447
682 2 23.62 59.3611 21.9984
683 2 27.6823 0.0727522 21.9182
684 2 31.8384 -0.221461 21.9728
685 2 35.8133 0.135576 21.6885
686 2 39.6998 59.4162 22.1812
687 2 43.8331 -0.0408687 21.879
688 2 47.5118 -0.129267 21.9584
689 2 51.4386 59.3368 21.8972
690 2 55.5945 -0.221125 21.9722
691 2 0.0543729 3.79799 22.1273
692 2 3.80705 3.85617 21.9766
693 2 7.84688 4.05908 22.1524
694 2 11.7534 3.89344 21.9928
695 2 15.7848 4.08432 22.1361
696 2 19.7743 3.90179 21.9749
697 2 23.7869 4.08895 22.1167
698 2 27.8072 4.1472 21.9706
699 2 31.8558 3.90552 22.1356
700 2 35.8723 3.8942 21.8996
701 2 39.7165 4.10962 21.767
702 2 43.6153 3.84982 21.9694
703 2 47.5419 3.8772 21.8179
704 2 51.5805 3.92273 22.0862
705 2 55.4724 3.85729 21.9091
706 2 -0.049536 7.87986 22.0361
707 2 3.82462 7.97175 22.0275
708 2 7.84342 8.01733 22.2203
709 2 11.9783 7.97312 22.0374
710 2 15.9027 7.84749 22.1203
711 2 19.839 7.97261 21.9293
712 2 23.7686 8.00374 21.9586
713 2 27.7805 7.954 21.9724
714 2 31.799 7.87538 21.9514
715 2 36.0213 7.72495 21.8114
716 2 39.8871 8.02549 21.8846
717 2 43.7652 7.97705 22.0978
718 2 47.7619 7.70789 21.9584
719 2 51.4439 7.90309 21.983
720 2 55.5269 7.83945 21.8018
721 2 59.4848 11.8094 21.9574
722 2 3.91137 11.8717 22.0474
723 2 8.13644 11.9177 22.0768
724 2 12.0943 11.769 21.8603
725 2 15.9971 11.8767 21.9451
726 2 20.0632 11.9888 21.8944
727 2 23.744 11.9769 21.9116
728 2 27.6512 12.007 21.9697
729 2 31.5823 11.8312 22.0377
730 2 35.6039 11.7271 21.8438
731 2 39.6142 11.9106 21.8587
732 2 43.7209 11.823 22.2447
733 2 47.8055 11.93 21.9883
734 2 51.7432 12.0317 21.7454
735 2 55.5451 11.8196 22.1379
736 2 0.173663 15.6395 22.1707
737 2 3.89909 15.7802 21.7585
738 2 7.99397 15.831 21.9308
739 2 12.0135 15.7926 21.8779
740 2 15.9128 15.7929 22.0959
741 2 19.9899 15.987 21.8563
742 2 23.73 15.801 21.8754
743 2 27.6959 15.8964 21.937
744 2 31.8586 15.8557 21.9298
745 2 35.7362 15.8947 22.1063
746 2 39.504 16.0902 21.955
747 2 43.6962 15.8645 21.9659
748 2 47.5177 15.866 21.9622
749 2 51.2738 15.9694 21.9626
750 2 55.5426 15.9243 21.9512
751 2 -0.0276138 19.7099 22.1707
752 2 3.97879 19.7554 22.0918
753 2 8.04451 19.9721 22.0234
754 2 12.0165 19.7843 21.9837
755 2 15.8339 19.7238 21.9614
756 2 19.8962 19.7118 21.9295
757 2 23.7819 20.0611 21.9826
758 2 27.9625 19.8843 21.9366
759 2 31.8992 19.8062 21.8251
760 2 35.7704 19.9469 21.9779
761 2 39.7604 19.9675 21.8593
762 2 43.6374 19.9903 21.9478
763 2 47.578 19.9703 21.9886
764 2 51.4941 19.7082 21.8757
765 2 55.4336 19.6235 21.9982
766 2 0.0704132 23.6659 22.0154
767 2 4.11249 23.7652 21.8097
768 2 8.01648 23.6631 21.9097
769 2 12.1133 23.8376 21.8158
770 2 16.0201 23.6092 21.6744
771 2 19.987 23.8972 22.0471
772 2 23.8442 23.8396 21.9711
773 2 27.7724 23.8445 22.0204
774 2 31.7726 23.7465 21.9628
775 2 35.7131 24.0198 21.8994
776 2 39.6707 23.6781 21.9796
777 2 43.6097 23.9813 22.104
778 2 47.469 23.6891 22.1005
779 2 51.6009 23.8047 21.9468
780 2 55.4804 23.7274 22.0964
781 2 59.4112 27.6249 22.0211
782 2 4.13807 27.725 22.0315
783 2 8.25412 27.5826 21.7814
784 2 11.8886 27.69 21.9805
785 2 15.9521 27.5491 21.89
786 2 19.8912 27.5814 21.7333
787 2 23.9543 27.5355 21.9496
788 2 27.8133 27.4916 22.0489
789 2 31.6926 27.5265 22.1333
790 2 35.7343 27.9012 22.0289
791 2 39.7704 27.7712 21.9675
792 2 43.6959 27.8172 22.1406
793 2 47.6482 27.8029 21.9574
794 2 51.7081 27.7643 21.9702
795 2 55.4507 27.617 21.9711
796 2 59.4564 31.7498 21.8231
797 2 4.14028 31.5921 22.0285
798 2 7.92591 31.6733 21.9319
799 2 11.9824 31.5591 22.0942
800 2 16.0074 31.5525 22.1277
801 2 19.8364 31.5703 21.9069
802 2 23.7182 31.6606 21.9852
803 2 27.8707 31.4093 21.9505
804 2 31.7057 31.7202 22.0197
805 2 35.7401 31.7512 22.0448
806 2 39.6382 31.5908 21.8805
807 2 43.5965 31.5938 22.1429
808 2 47.4553 31.7299 22.0693
809 2 51.5483 31.7779 22.0631
810 2 55.7171 31.7714 21.9978
811 2 0.0554842 35.5998 22.0107
812 2 4.14165 35.6684 21.8955
813 2 7.9407 35.6378 22.0417
814 2 11.9785 35.4379 21.8377
815 2 15.9224 35.4118 21.8006
816 2 19.8499 35.6191 22.0472
817 2 23.6642 35.5756 22.0326
818 2 27.8239 35.4764 22.0603
819 2 31.8252 35.7246 22.0021
820 2 35.6855 35.5417 22.129
821 2 39.7711 35.5112 21.8251
822 2 43.6041 35.8021 22.096
823 2 47.6269 35.6415 22.0526
824 2 51.682 35.6413 21.9597
825 2 55.3867 35.6883 21.8434
826 2 0.181302 39.4838 22.0609
827 2 4.22288 39.5319 21.8517
828 2 8.03797 39.637 21.9043
829 2 11.8729 39.3266 21.9825
830 2 15.7329 39.4469 22.1189
831 2 19.736 39.4433 22.1177
832 2 24.0067 39.4179 22.0198
833 2 27.6086 39.4506 21.9035
834 2 31.6622 39.6518 22.0465
835 2 35.9292 39.6653 22.0499
836 2 39.7622 39.6896 21.8616
837 2 43.7673 39.7331 22.0046
838 2 47.794 39.5553 21.8918
839 2 51.619 39.7327 21.9086
840 2 55.6137 39.6666 22.0494
841 2 -0.065058 43.4751 22.0252
842 2 4.02482 43.7946 22.1897
843 2 8.08655 43.587 21.878
844 2 12.0673 43.402 21.9962
845 2 16.0382 43.3289 21.8468
846 2 19.8887 43.4911 22.0698
847 2 23.8615 43.4448 22.1097
848 2 27.713 43.2831 22.0427
849 2 31.8129 43.6425 22.2029
850 2 35.7419 43.6235 21.843
851 2 39.5372 43.6807 21.81
852 2 43.5942 43.4803 21.9625
853 2 47.6385 43.6736 22.0216
854 2 51.5495 43.5668 21.8985
855 2 55.5594 43.3341 21.8342
856 2 0.160353 47.3617 22.0313
857 2 4.11964 47.5343 21.8424
858 2 8.22145 47.3852 21.7635
859 2 11.9116 47.3547 21.901
860 2 15.8992 47.2789 22.0264
861 2 19.9538 47.557 21.9555
862 2 23.7787 47.544 22.0582
863 2 27.6805 47.5914 21.8141
864 2 31.9153 47.5675 21.9886
865 2 35.6169 47.5984 21.9352
866 2 39.7194 47.6237 21.8905
867 2 43.8619 47.597 21.8245
868 2 47.7087 47.4304 21.8334
869 2 51.6082 47.4992 22.014
870 2 55.5638 47.6595 21.7914
871 2 0.228208 51.4065 21.9773
872 2 4.06426 51.2726 21.7946
873 2 7.95457 51.414 21.8831
874 2 11.9942 51.4441 22.0812
875 2 15.7325 51.3352 22.0237
876 2 19.48 51.4294 21.9898
877 2 23.6254 51.6451 21.8612
878 2 27.7987 51.4184 22.0219
879 2 31.8241 51.2814 22.123
880 2 35.7124 51.5385 22.0651
881 2 39.6889 51.4311 22.0008
882 2 43.5683 51.4777 21.8382
883 2 47.6595 51.5267 22.0022
884 2 51.7035 51.5464 22.1057
885 2 55.6146 51.4761 21.8868
886 2 -0.00492395 55.3728 21.9129
887 2 4.03697 55.4602 21.9093
888 2 8.28124 55.4533 22.0595
889 2 12.0026 55.4357 22.0492
890 2 15.8068 55.4193 21.8919
891 2 19.7155 55.3471 21.8811
892 2 23.9148 55.3421 21.8128
893 2 27.9143 55.4279 21.71
894 2 31.8049 55.4534 21.9325
895 2 35.8254 55.3655 21.7904
896 2 39.8472 55.5549 21.7494
897 2 43.8778 55.4463 21.7529
898 2 47.7685 55.3474 21.8419
899 2 51.867 55.4383 21.8955
900 2 55.5344 55.3431 22.072
901 2 -0.0292463 -0.174888 26.0033
902 2 4.03749 -0.0527963 26.0222
903 2 8.12378 59.359 25.8567
904 2 11.9455 0.18132 26.0111
905 2 16.0019 0.0599776 25.6641
906 2 19.7187 -0.0221655 25.9542
907 2 23.7405 -0.046148 25.8885
908 2 27.5912 0.0796841 25.8735
909 2 31.7159 59.3918 25.9212
910 2 35.8003 -0.0194913 25.8361
911 2 39.6619 0.0620165 25.8475
912 2 43.4286 0.0095526 25.9035
913 2 47.81 -0.18144 25.7652
914 2 51.3869 59.3445 25.8029
915 2 55.4781 59.3629 26.1118
916 2 0.122663 3.98436 26.0328
917 2 3.96493 3.84376 25.979
918 2 7.97473 4.24511 25.8997
919 2 12.0892 3.82064 25.8586
920 2 15.9958 3.80882 25.9968
921 2 20.1362 3.70087 25.9591
922 2 24.1102 3.93404 25.8401
923 2 27.9336 3.928 26.0405
924 2 31.8888 4.00424 25.8196
925 2 35.7988 3.96824 25.9855
926 2 39.7336 4.08272 26.0042
927 2 43.7732 4.07935 25.9335
928 2 47.6496 3.80348 25.9496
929 2 51.618 4.17041 25.9464
930 2 55.4661 4.07413 25.8992
931 2 59.2947 7.99905 25.9067
932 2 3.74902 7.89783 26.0499
933 2 7.93808 8.01109 25.9786
934 2 11.9702 7.97903 26.0678
935 2 15.8747 7.96391 25.8659
936 2 19.7427 7.81016 25.9397
937 2 23.7921 7.89202 25.9537
938 2 27.8766 7.95044 25.8498
939 2 31.6878 7.87757 25.9402
940 2 35.8106 8.0971 25.9865
941 2 39.6032 7.96307 25.9771
942 2 43.6285 7.96134 26.1025
943 2 47.6527 8.04437 25.8763
944 2 51.5767 7.91875 26.1302
945 2 55.3289 8.1502 25.8175
946 2 0.235561 11.9457 25.9775
947 2 4.00888 11.88 25.9397
948 2 8.08848 11.7736 25.9393
949 2 11.9648 11.9067 25.8502
950 2 15.8732 12.0826 25.7969
951 2 19.8979 11.9484 25.9211
952 2 23.915 11.9673 25.8422
953 2 27.8089 11.7656 25.9993
954 2 31.8337 11.8623 25.9635
955 2 35.5389 12.0752 25.7783
956 2 39.4673 12.0142 25.7928
957 2 43.5615 11.9537 26.146
958 2 47.5459 11.7798 25.8607
959 2 51.5172 11.9146 26.0508
960 2 55.4574 12.0369 25.9218
961 2 59.4684 15.7141 26.0855
962 2 3.90236 15.8045 25.8924
963 2 8.0811 15.6754 26.0488
964 2 11.8513 15.9471 25.9934
965 2 15.8577 15.7622 25.8406
966 2 19.9804 15.9703 25.8513
967 2 23.8383 16.0775 25.8378
968 2 27.9238 15.8798 25.7721
969 2 31.9101 15.693 26.0474
970 2 35.8213 15.8586 25.9918
971 2 39.6195 15.9605 25.7715
972 2 43.6862 15.8229 26.1159
973 2 47.4629 16.0217 26.0229
974 2 51.5708 15.8818 25.9495
975 2 55.379 15.9347 25.9371
976 2 59.5904 19.8131 25.852
977 2 4.0299 19.8874 26.1052
978 2 8.06561 19.7872 26.045
979 2 11.9334 19.8447 25.9125
980 2 15.9064 19.9861 25.8647
981 2 20.0619 19.7554 25.7729
982 2 23.9319 19.7419 25.9157
983 2 27.8032 19.9323 25.9354
984 2 31.6733 19.815 25.9247
985 2 35.6329 19.8552 25.9799
986 2 39.7056 19.8284 25.9843
987 2 43.6859 19.8479 26.0903
988 2 47.6749 19.9552 26.022
989 2 51.5504 19.7132 25.933
990 2 55.6652 19.8723 25.871
991 2 59.4285 23.6271 25.9611
992 2 3.83099 23.6753 25.8826
993 2 8.07166 23.8775 26.0487
994 2 11.9811 23.8068 25.8957
995 2 16.1426 23.6263 25.8838
996 2 19.8595 23.8158 25.8482
997 2 23.8783 23.8197 25.9257