ITEM: TIMESTEP
1541300
ITEM: NUMBER OF ATOMS
16875
ITEM: BOX BOUNDS xy xz yz pp pp pp
0.0000000000000000e+00 5.9369999999999997e+01 0.0000000000000000e+00
0.0000000000000000e+00 5.9369999999999997e+01 0.0000000000000000e+00
3.3813949280811784e-01 6.0028279507195052e+01 0.0000000000000000e+00
ITEM: ATOMS id type x y z
1 2 59.3758 59.049 9.98952
2 2 3.78289 59.4315 9.92783
3 2 8.04487 59.3193 10.0387
4 2 11.9871 59.1313 10.0315
5 2 16.0405 -0.168435 10.1396
6 2 19.797 59.1833 10.0079
7 2 23.9051 59.3419 9.99602
8 2 27.9007 59.188 9.88911
9 2 31.8086 59.432 10.0705
10 2 35.8522 59.4358 10.0895
11 2 39.61 58.9909 9.79288
12 2 43.6886 59.0894 10.0438
13 2 47.6463 59.3514 9.967
14 2 51.7225 59.2214 9.98355
15 2 55.6527 59.2146 10.1116
16 2 0.00719021 3.7354 10.0231
17 2 4.09292 3.84983 10.0396
18 2 8.00376 3.9156 10.1295
19 2 11.9955 3.78185 9.84108
20 2 16.0955 3.70626 10.1094
21 2 19.87 3.78731 9.79946
22 2 23.76 3.70696 9.92413
23 2 27.9529 3.69871 10.1609
24 2 31.8583 4.02788 10.02
25 2 35.822 3.98784 10.1946
26 2 39.5841 3.91952 10.0472
27 2 43.6024 3.77058 10.1821
28 2 47.7457 3.83424 10.0112
29 2 51.7153 3.74281 10.0081
30 2 55.4935 3.73175 10.1404
31 2 0.0904206 7.84431 9.9188
32 2 4.07982 7.7435 10.2317
33 2 8.11925 7.73576 10.0133
34 2 11.8435 7.75532 10.0451
35 2 15.9307 7.76353 10.0116
36 2 19.9644 7.85649 10.0515
37 2 23.8956 7.89087 9.92083
38 2 27.6736 7.8997 10.2522
39 2 31.809 7.92041 10.135
40 2 35.7458 7.93924 9.91544
41 2 39.9126 7.81137 9.69267
42 2 43.5378 7.78822 9.87371
43 2 47.3854 7.7806 10.1491
44 2 51.3039 7.76619 10.005
45 2 55.333 7.69854 10.0346
46 2 0.0193997 11.6734 9.85421
47 2 4.07507 11.7122 9.98966
48 2 7.79419 11.6901 10.1163
49 2 11.927 11.7682 10.1313
50 2 15.8497 11.7672 9.84093
51 2 19.7011 11.7803 10.2472
52 2 23.9868 11.8293 10.1288
53 2 27.9271 11.7763 10.1734
54 2 31.749 12.0438 10.1553
55 2 35.6248 11.753 10.1326
56 2 39.7848 11.8811 9.91001
57 2 43.7186 11.9141 9.89693
58 2 47.8247 11.8861 9.8846
59 2 51.5159 11.7471 10.1516
60 2 55.3301 11.7135 10.0293
61 2 59.4895 15.7162 10.1353
62 2 4.08534 15.7228 9.98349
63 2 7.94824 15.5916 10.0305
64 2 11.82 15.6353 10.2649
65 2 15.9482 15.6809 10.0993
66 2 19.9577 15.7334 10.0795
67 2 23.8745 15.6844 10.1516
68 2 27.699 15.7297 10.1217
69 2 31.9039 15.9326 10.1725
70 2 35.7038 15.5642 9.92174
71 2 39.7403 15.8101 9.99441
72 2 43.5629 15.7079 9.86015
73 2 47.6019 15.5566 10.0031
74 2 51.7271 15.7684 9.85859
75 2 55.5818 15.6171 10.156
76 2 -0.0540087 19.6557 10.0412
77 2 4.15485 19.6892 10.1373
78 2 7.97374 19.7702 10.1743
79 2 11.8847 19.5473 9.9914
80 2 16.0326 19.529 10.1373
81 2 19.913 19.8032 10.0774
82 2 23.7852 19.7729 10.1696
83 2 27.8316 19.7076 10.0051
84 2 31.9001 19.7914 9.90493
85 2 35.8112 19.7282 10.0742
86 2 39.4292 19.8011 10.2051
87 2 43.6606 19.608 9.92149
88 2 47.4612 19.5765 10.0407
89 2 51.5569 19.4809 9.93764
90 2 55.4054 19.6129 10.0209
91 2 -0.0390616 23.7967 10.1159
92 2 4.14352 23.6645 9.88559
93 2 8.24031 23.7229 10.0758
94 2 11.9966 23.5858 10.1878
95 2 15.7806 23.6471 9.96909
96 2 19.9587 23.7252 10.1227
97 2 23.9886 23.6257 9.84593
98 2 27.8666 23.6154 9.96544
99 2 31.718 23.8512 9.90957
100 2 35.8134 23.8485 9.92433
101 2 39.7422 23.885 9.92469
102 2 43.6797 23.4316 9.78992
103 2 47.5409 23.5179 10.0833
104 2 51.5118 23.6109 10.1691
105 2 55.4009 23.4053 10.1436
106 2 0.0212 27.5803 10.1406
107 2 4.12441 27.4703 10.182
108 2 8.22046 27.4759 10.097
109 2 12.0102 27.6452 10.0585
110 2 16.0781 27.6836 9.95929
111 2 19.8392 27.5513 10.0858
112 2 23.8716 27.7488 10.1866
113 2 27.7091 27.7309 10.0518
114 2 31.7695 27.6024 10.1334
115 2 35.5692 27.8632 9.95816
116 2 39.726 27.7561 10.1446
117 2 43.4899 27.5722 10.0419
118 2 47.5658 27.5411 10.0959
119 2 51.5726 27.5023 9.9976
120 2 55.6386 27.4405 10.0924
121 2 0.13827 31.5926 10.1992
122 2 4.07607 31.4829 10.116
123 2 8.04381 31.3951 10.0282
124 2 11.8751 31.4834 10.0529
125 2 16.0064 31.6184 10.0608
126 2 19.8178 31.6312 10.183
127 2 23.8626 31.7145 10.0782
128 2 27.8017 31.6896 9.96718
129 2 31.8146 31.6133 10.1597
130 2 35.6464 31.7172 10.0038
131 2 39.7341 31.595 9.95725
132 2 43.5311 31.6083 10.1548
133 2 47.4524 31.43 9.98998
134 2 51.7127 31.3865 10.2085
135 2 55.4972 31.6643 9.91841
136 2 59.5179 35.6198 10.1151
137 2 4.12635 35.5385 10.1883
138 2 7.97439 35.373 10.0982
139 2 11.906 35.7112 10.0673
140 2 15.8087 35.6517 10.1062
141 2 19.9281 35.5157 9.99929
142 2 23.9676 35.6758 9.85965
143 2 27.7807 35.6193 10.0486
144 2 31.6799 35.4523 10.1302
145 2 35.6597 35.7358 10.1049
146 2 39.6507 35.4689 10.1085
147 2 43.6186 35.4566 9.97106
148 2 47.6353 35.5342 10.1155
149 2 51.4226 35.561 10.1696
150 2 55.3523 35.7065 10.0908
151 2 59.3335 39.468 9.9326
152 2 3.83555 39.5517 10.0232
153 2 7.93965 39.4245 10.1754
154 2 12.0546 39.5859 9.95285
155 2 15.9506 39.4443 9.97917
156 2 20.0055 39.5392 10.0472
157 2 23.8191 39.4732 10.164
158 2 27.5362 39.4673 9.91953
159 2 31.6849 39.6132 10.0645
160 2 35.7752 39.3748 10.1315
161 2 39.7589 39.3514 10.0597
162 2 43.447 39.4702 9.98584
163 2 47.3826 39.4245 10.0563
164 2 51.5609 39.5203 9.95489
165 2 55.6054 39.3956 9.99837
166 2 59.4621 43.4251 10.0679
167 2 4.03228 43.5143 9.92293
168 2 7.93672 43.5578 10.2181
169 2 11.801 43.3488 10.215
170 2 15.7531 43.3821 10.2788
171 2 19.774 43.5459 10.1636
172 2 23.7148 43.5889 10.1076
173 2 27.5628 43.6081 10.0539
174 2 31.7169 43.6098 9.98842
175 2 35.5892 43.4228 10.1602
176 2 39.5275 43.4887 10.0057
177 2 43.6936 43.5716 9.84886
178 2 47.4811 43.4021 10.0359
179 2 51.4268 43.4237 9.86921
180 2 55.2894 43.5152 10.024
181 2 59.5848 47.4944 9.98306
182 2 4.05428 47.3916 10.1421
183 2 7.78793 47.3835 10.0407
184 2 11.7179 47.3566 10.1642
185 2 15.8427 47.3505 10.008
186 2 19.7584 47.537 9.9509
187 2 23.7673 47.5218 9.9908
188 2 27.6863 47.3791 9.92436
189 2 31.5605 47.2914 10.2508
190 2 35.807 47.4999 9.96189
191 2 39.6696 47.6181 10.0661
192 2 43.6503 47.5698 10.0822
193 2 47.5627 47.2495 10.0426
194 2 51.6418 47.4898 9.96608
195 2 55.6208 47.2921 9.94504
196 2 0.117196 51.44 10.0891
197 2 3.95137 51.4792 10.1357
198 2 7.85384 51.3183 10.0053
199 2 11.7852 51.2593 10.0733
200 2 15.6716 51.3048 9.99888
201 2 19.7715 51.4782 10.1877
202 2 23.8162 51.4471 10.2129
203 2 27.6828 51.3641 9.95369
204 2 31.7696 51.2956 9.92099
205 2 35.6622 51.3735 10.0785
206 2 39.7069 51.4645 9.99428
207 2 43.6158 51.4128 9.9032
208 2 47.655 51.3745 10.1634
209 2 51.6974 51.2526 9.91713
210 2 55.5673 51.1607 9.96441
211 2 -0.132772 55.3122 9.94738
212 2 4.08413 55.4353 10.2
213 2 8.11947 55.3475 10.0583
214 2 11.8709 55.3263 9.99985
215 2 16.0211 55.2035 9.83659
216 2 19.9392 55.3083 10.0729
217 2 23.7933 55.5505 10.0648
218 2 27.9714 55.3728 10.0589
219 2 31.9043 55.2352 9.97383
220 2 35.7803 55.2172 9.76135
221 2 39.8097 55.2903 10.0512
222 2 43.7247 55.2119 10.1482
223 2 47.6966 55.3321 9.96568
224 2 51.4226 55.4661 10.2303
225 2 55.471 55.1498 10.0452
226 2 0.0781227 59.2927 13.9438
227 2 3.85015 59.4076 13.8892
228 2 8.03545 59.3223 13.9581
229 2 12.0049 59.0905 14.0187
230 2 16.0971 -0.037789 14.0311
231 2 19.9374 -0.156042 14.188
232 2 23.8179 0.205684 13.9373
233 2 27.9464 59.459 13.9752
234 2 31.9439 59.1353 13.9348
235 2 35.5796 59.2565 14.0748
236 2 39.7236 -0.184928 13.9093
237 2 43.4657 59.3453 14.0074
238 2 47.5262 -0.0626765 14.0784
239 2 51.5426 0.0287708 13.8828
240 2 55.6763 59.2643 14.2493
241 2 0.0569621 3.9825 14.1098
242 2 3.89395 4.07156 13.9251
243 2 8.21105 3.89288 13.9608
244 2 12.2787 3.99095 13.8889
245 2 16.134 3.7981 13.9101
246 2 19.8914 4.05832 13.8302
247 2 23.9817 3.84966 13.9333
248 2 27.7351 4.0237 13.9896
249 2 31.9904 4.02644 14.1926
250 2 35.8727 3.9392 13.9804
251 2 39.5999 3.85348 14.0316
252 2 43.462 3.86353 14.0258
253 2 47.3841 4.06561 13.84
254 2 51.3433 3.90609 14.0904
255 2 55.4806 4.04928 13.9861
256 2 0.122239 7.87281 14.0829
257 2 4.1537 7.83503 13.9089
258 2 8.08592 7.70519 14.0209
259 2 11.9678 7.76203 14.0723
260 2 15.9206 7.70687 14.0267
261 2 19.7429 7.98407 14.1345
262 2 23.829 7.8557 14.0244
263 2 27.768 7.93936 14.1521
264 2 31.7923 7.8411 14.1261
265 2 35.7218 7.7761 14.0495
266 2 39.6483 7.98735 13.9988
267 2 43.6286 7.88998 14.1314
268 2 47.5613 7.78847 13.9795
269 2 51.5627 7.65728 14.113
270 2 55.5322 7.91374 14.0459
271 2 0.285078 11.8478 13.9668
272 2 4.03002 11.7979 13.8715
273 2 7.96012 11.7059 14.2633
274 2 12.0802 11.75 13.8759
275 2 15.8694 11.9227 13.9091
276 2 19.8693 11.9861 13.8731
277 2 23.9615 11.857 14.1049
278 2 27.6852 11.7636 14.1936
279 2 31.8551 11.907 14.1777
280 2 35.9627 11.8224 14.0301
281 2 39.7722 11.9262 14.0031
282 2 43.6224 11.842 14.0661
283 2 47.4571 11.8523 13.7262
284 2 51.3915 11.8762 14.1588
285 2 55.3475 11.801 13.9144
286 2 0.150985 15.9171 14.0316
287 2 4.15152 15.8729 14.1363
288 2 8.06476 15.7661 14.0645
289 2 12.025 15.4735 13.9777
290 2 15.7841 15.8667 14.0487
291 2 19.8688 15.7266 14.1053
292 2 23.8845 15.8704 14.1199
293 2 28.055 15.7346 14.1796
294 2 31.9957 15.9584 14.0976
295 2 35.888 15.7012 13.8859
296 2 39.7856 15.9808 14.0014
297 2 43.7681 15.8781 14.0567
298 2 47.6504 15.748 13.9988
299 2 51.4555 15.7326 14.2093
300 2 55.5078 15.7336 13.9775
301 2 0.188827 19.8871 13.8224
302 2 4.10015 19.8498 14.0127
303 2 8.09926 19.8301 13.9766
304 2 11.9398 19.5996 14.1143
305 2 16.0904 19.6885 13.8459
306 2 19.8956 19.7709 14.0168
307 2 23.9538 19.7825 13.9166
308 2 27.8617 19.8154 14.0328
309 2 31.701 20.0138 13.9954
310 2 35.7349 19.8318 13.9101
311 2 39.586 19.8991 14.0528
312 2 43.5163 19.6048 14.0895
313 2 47.5085 19.774 13.8133
314 2 51.4186 19.7036 14.0163
315 2 55.6792 19.7543 14.0881
316 2 0.210357 23.7223 14.0055
317 2 4.23955 23.6946 14.0134
318 2 8.12434 23.7943 14.1572
319 2 12.1799 23.767 13.9119
320 2 15.8536 23.7217 14.0815
321 2 19.9885 23.6174 14.2662
322 2 24.083 23.7141 14.0239
323 2 27.6612 23.6969 13.9162
324 2 31.9453 23.9335 13.9993
325 2 35.8168 23.8618 14.1387
326 2 39.7877 23.8331 13.9907
327 2 43.7368 23.7374 14.0088
328 2 47.7383 23.6995 14.0006
329 2 51.6154 23.7225 14.0495
330 2 55.3276 23.4752 14.1082
331 2 0.108793 27.5766 14.0652
332 2 4.17409 27.6839 14.0189
333 2 7.91673 27.8426 14.1548
334 2 12.0219 27.5631 14.1238
335 2 16.0208 27.7986 13.9969
336 2 19.7612 27.4754 14.0008
337 2 23.7546 27.8354 14.0511
338 2 27.754 27.6257 13.9204
339 2 31.7024 27.5183 14.0373
340 2 35.8673 27.7202 13.8425
341 2 39.8988 27.6814 14.1122
342 2 43.8646 27.6751 14.1398
343 2 47.7755 27.5389 14.0276
344 2 51.6611 27.6247 14.0371
345 2 55.6393 27.5813 14.0364
346 2 0.118689 31.562 14.0452
347 2 4.26032 31.5947 14.1256
348 2 8.14441 31.6565 14.102
349 2 11.9836 31.5871 14.1968
350 2 15.9935 31.8523 13.6579
351 2 19.8119 31.7043 14.1053
352 2 23.7008 31.7173 14.078
353 2 27.8745 31.4892 13.9115
354 2 31.5753 31.7528 14.1388
355 2 35.7291 31.5159 13.9475
356 2 39.5791 31.6992 14.1205
357 2 43.6078 31.6824 14.0009
358 2 47.5222 31.5404 13.9264
359 2 51.6234 31.5547 14.184
360 2 55.4582 31.4872 13.9731
361 2 -0.0232903 35.7211 14.0425
362 2 4.0595 35.4653 14.0222
363 2 8.03735 35.4777 14.0538
364 2 11.9498 35.5751 14.1131
365 2 15.8703 35.79 14.1698
366 2 19.885 35.5604 14.0122
367 2 23.7824 35.543 14.1041
368 2 27.8806 35.621 14.0955
369 2 31.7879 35.619 14.0448
370 2 35.6908 35.6518 14.1078
371 2 39.958 35.6567 14.105
372 2 43.6809 35.7667 14.0002
373 2 47.7151 35.3489 13.8431
374 2 51.4831 35.5575 13.8945
375 2 55.4021 35.6444 13.977
376 2 -0.0342483 39.4401 14.047
377 2 4.17206 39.5679 13.9921
378 2 8.10458 39.6093 13.9042
379 2 11.9252 39.4535 13.9872
380 2 15.9056 39.5808 13.9928
381 2 19.6937 39.3452 13.9021
382 2 23.7098 39.5568 14.2301
383 2 27.7257 39.5655 13.9895
384 2 31.6371 39.7923 13.9879
385 2 35.7432 39.6135 14.3422
386 2 39.6784 39.9067 14.1987
387 2 43.7512 39.6237 13.9336
388 2 47.6798 39.6232 13.9184
389 2 51.6391 39.4633 14.0162
390 2 55.4347 39.8227 13.9713
391 2 0.0368052 43.5767 14.0154
392 2 3.99823 43.4708 13.888
393 2 7.92809 43.5055 14.1669
394 2 11.8413 43.621 14.1912
395 2 15.6782 43.4005 14.0534
396 2 19.8593 43.3675 14.1524
397 2 23.709 43.488 14.0966
398 2 27.7797 43.4893 13.9996
399 2 31.699 43.528 13.9574
400 2 35.5938 43.5011 14.1286
401 2 39.7898 43.6505 13.9064
402 2 43.7006 43.5589 14.0425
403 2 47.4326 43.5498 14.0397
404 2 51.3937 43.6521 14.0325
405 2 55.3525 43.4235 14.1561
406 2 0.00377485 47.5222 14.1172
407 2 3.9404 47.4915 13.8957
408 2 7.87917 47.2991 13.9902
409 2 12.0263 47.4596 14.0497
410 2 15.9603 47.5425 13.9046
411 2 19.7983 47.4627 14.0576
412 2 23.897 47.28 14.0751
413 2 27.8504 47.3855 14.1925
414 2 31.9135 47.5644 14.1171
415 2 35.7774 47.5795 13.9204
416 2 39.7811 47.6044 13.8702
417 2 43.7579 47.308 13.8038
418 2 47.6047 47.4129 14.0825
419 2 51.7596 47.5191 14.0047
420 2 55.496 47.4556 14.0783
421 2 -0.034209 51.4552 14.093
422 2 4.04337 51.512 14.1355
423 2 7.99633 51.4549 14.0157
424 2 11.9315 51.2946 14.0794
425 2 15.982 51.5514 14.0965
426 2 20.0063 51.3344 14.1799
427 2 23.7235 51.455 14.2122
428 2 27.818 51.3979 13.9178
429 2 31.7333 51.3926 13.9216
430 2 35.605 51.3784 13.991
431 2 39.7329 51.4798 14.034
432 2 43.8745 51.5377 13.9069
433 2 47.611 51.4289 14.0996
434 2 51.5105 51.401 14.0338
435 2 55.4697 51.5145 14.0489
436 2 0.0723899 55.4307 14.2809
437 2 4.06891 55.5117 14.0201
438 2 8.03279 55.3342 14.2188
439 2 12.038 55.3971 14.0546
440 2 15.828 55.2232 14.0858
441 2 19.947 55.4644 14.0462
442 2 23.941 55.6139 13.9946
443 2 27.6999 55.4531 13.8172
444 2 31.9195 55.25 13.9415
445 2 35.6454 55.244 13.9494
446 2 39.6643 55.2964 13.9733
447 2 43.6321 55.4801 14.1747
448 2 47.6938 55.2744 14.0203
449 2 51.6588 55.4419 13.9615
450 2 55.3778 55.4448 14.0918
451 2 -0.0298485 -0.0663524 18.0041
452 2 4.00649 0.34075 17.8403
453 2 8.12348 59.5854 17.9808
454 2 12.0514 59.4005 17.7857
455 2 15.9746 59.4679 17.8735
456 2 19.9826 59.5571 18.0001
457 2 23.8774 59.3752 17.9611
458 2 27.9885 0.0954295 17.7439
459 2 31.7318 59.2292 17.993
460 2 35.9064 59.2272 17.9116
461 2 39.6702 0.0207216 18.1783
462 2 43.5282 59.345 18.0618
463 2 47.7546 -0.0573465 17.8739
464 2 51.725 59.4802 17.6606
465 2 55.5504 59.295 18.2165
466 2 -0.0109643 4.06431 18.1459
467 2 4.08196 4.05828 17.9321
468 2 8.07352 4.10052 18.1165
469 2 12.1467 4.03348 17.9628
470 2 16.0347 4.08089 18.0279
471 2 20.1529 3.9815 17.8698
472 2 23.8256 3.97802 17.9578
473 2 27.7918 3.99873 18.1839
474 2 31.9598 3.95121 18.0722
475 2 35.5977 3.80411 17.9857
476 2 39.7305 4.1665 18.1011
477 2 43.4213 3.84318 18.0935
478 2 47.3395 3.88931 18.1585
479 2 51.4159 4.13615 18.0153
480 2 55.3451 3.89258 17.9379
481 2 0.0498132 7.91985 18.1069
482 2 3.96112 8.1943 18.0132
483 2 8.00396 7.91879 17.9477
484 2 11.9002 8.0912 17.9109
485 2 16.099 7.87395 17.8866
486 2 19.9282 7.97929 17.9358
487 2 23.8502 7.98495 18.1622
488 2 27.8337 7.91644 17.7658
489 2 31.8776 7.99207 18.2281
490 2 35.6654 8.16353 18.0963
491 2 39.5595 8.01395 18.0179
492 2 43.6893 8.08332 17.9907
493 2 47.6517 7.79816 18.0914
494 2 51.3507 7.78484 18.0377
495 2 55.4074 8.01248 18.1486
496 2 0.12027 11.9486 18.0256
497 2 4.26839 12.0616 17.8673
498 2 8.17174 11.7213 17.9456
499 2 12.1015 11.9243 17.973
500 2 15.8548 12.1095 17.8956
501 2 20.0879 11.8235 18.0487
502 2 23.9304 11.8797 17.9236
503 2 27.876 12.0287 17.9192
504 2 32.0574 11.8614 17.9543
505 2 35.8985 11.8588 18.1095
506 2 39.7822 11.9478 18.1534
507 2 43.6012 11.9633 18.0994
508 2 47.7326 11.746 17.9363
509 2 51.6349 11.7494 17.9764
510 2 55.651 11.8794 17.8585
511 2 59.3716 15.8758 18.069
512 2 4.27677 15.9699 17.8652
513 2 8.10492 15.837 17.9678
514 2 12.1806 15.6872 18.042
515 2 16.0952 15.8967 18.0086
516 2 19.8631 15.8139 18.0628
517 2 23.767 15.7412 17.879
518 2 27.7891 16.0014 18.086
519 2 31.7108 15.9108 18.194
520 2 35.7589 15.9875 17.8398
521 2 39.7252 15.8243 17.8907
522 2 43.7901 15.9509 18.0395
523 2 47.5699 15.6977 18.2271
524 2 51.726 15.8115 17.8524
525 2 55.5179 15.8166 18.0472
526 2 0.149587 19.9217 17.9456
527 2 4.20018 19.7474 18.1862
528 2 8.14367 19.7035 17.9165
529 2 12.0449 19.6592 18.0692
530 2 16.1 19.6064 17.8069
531 2 19.9558 19.7051 17.8484
532 2 24.0723 19.668 18.0751
533 2 27.6494 19.828 17.922
534 2 31.8553 19.9839 17.912
535 2 35.7325 19.7539 18.0761
536 2 39.5854 19.8414 17.8785
537 2 43.6312 19.8803 18.0569
538 2 47.6332 19.894 17.9644
539 2 51.6547 19.6983 17.9409
540 2 55.4978 19.8654 18.0252
541 2 0.10139 23.7746 18.0865
542 2 4.13128 23.682 18.1145
543 2 8.01051 23.8797 18.102
544 2 11.9262 23.7378 17.8487
545 2 16.123 23.7671 18.1647
546 2 20.0019 23.6281 18.067
547 2 23.9825 23.7348 17.803
548 2 28.0972 23.7798 18.0618
549 2 31.8502 24.043 18.1405
550 2 35.8726 23.7651 17.8765
551 2 39.9501 23.7975 17.9235
552 2 43.7404 23.7947 18.0429
553 2 47.5649 23.9057 18.1251
554 2 51.5158 23.8386 17.9887
555 2 55.7209 23.8102 18.1247
556 2 0.154823 27.7086 17.8191
557 2 3.86023 27.895 18.0469
558 2 8.00983 27.8593 18.0607
559 2 12.0192 27.7686 17.9071
560 2 16.0281 27.7314 17.9769
561 2 19.911 27.6182 18.0525
562 2 23.6547 27.6476 18.0036
563 2 27.5994 27.8185 18.1095
564 2 31.5796 28.0964 17.8847
565 2 35.7369 27.7097 17.8605
566 2 39.7178 27.8031 18.1939
567 2 43.5305 27.8315 18.0981
568 2 47.6773 27.6373 18.1176
569 2 51.694 27.6104 17.9384
570 2 55.6915 27.5383 18.0231
571 2 0.044984 31.7615 17.9152
572 2 3.82957 31.8955 18.0135
573 2 8.11109 31.6458 18.0876
574 2 11.9887 31.7893 17.8321
575 2 16.0363 31.7412 18.0177
576 2 19.9062 31.6509 18.2452
577 2 23.7031 31.6448 18.2647
578 2 27.4614 31.5265 18.072
579 2 31.6334 31.8293 18.1808
580 2 35.6813 31.6149 18.0155
581 2 39.7304 31.6488 17.9422
582 2 43.7969 31.7052 17.7734
583 2 47.4889 31.5516 17.9069
584 2 51.6627 31.5245 17.9444
585 2 55.5891 31.5887 18.0473
586 2 -0.186758 35.9188 17.8627
587 2 3.9017 35.8483 17.8981
588 2 7.86889 35.6356 18.1222
589 2 11.7698 35.6303 18.1068
590 2 15.9003 35.5975 18.1328
591 2 19.712 35.6993 18.1722
592 2 23.835 35.6946 18.0374
593 2 27.7378 35.5898 18.1117
594 2 31.7409 35.7064 17.9936
595 2 35.6398 35.6292 18.0487
596 2 39.8869 35.6235 17.991
597 2 43.6435 35.7241 17.8199
598 2 47.6329 35.5345 17.9252
599 2 51.574 35.7385 17.9024
600 2 55.6161 35.5013 17.846
601 2 0.282775 39.8837 17.9783
602 2 4.12607 39.6737 17.9905
603 2 7.87313 39.6917 17.9189
604 2 11.9137 39.6947 17.8713
605 2 15.8003 39.8103 18.0887
606 2 19.7997 39.5952 17.9926
607 2 23.7799 39.6641 18.0703
608 2 27.6002 39.3558 17.8811
609 2 31.5598 39.5095 18.0557
610 2 35.7905 39.7284 18.1147
611 2 39.5621 39.7584 18.0464
612 2 43.5851 39.6679 17.9872
613 2 47.6987 39.603 18.1222
614 2 51.4369 39.4195 18.0273
615 2 55.3935 39.5321 18.0953
616 2 0.094043 43.5152 17.8441
617 2 4.05997 43.5849 17.895
618 2 8.06202 43.7103 18.0726
619 2 12.0426 43.7836 18.1433
620 2 15.9269 43.6645 18.1847
621 2 19.893 43.2997 18.0057
622 2 23.894 43.402 18.1546
623 2 27.7416 43.5961 18.084
624 2 31.7359 43.4864 18.0431
625 2 35.567 43.5302 18.0232
626 2 39.6808 43.6904 18.0544
627 2 43.5657 43.5485 18.0941
628 2 47.5695 43.5707 18.1014
629 2 51.5378 43.4867 18.2535
630 2 55.5871 43.4533 17.9946
631 2 0.0394284 47.3588 17.9684
632 2 3.88533 47.6607 18.0826
633 2 8.08076 47.5125 17.9776
634 2 12.1824 47.6348 18.127
635 2 16.034 47.3307 18.0256
636 2 19.7254 47.3881 18.1828
637 2 23.6691 47.4824 17.9773
638 2 27.7593 47.5123 17.6893
639 2 31.6782 47.619 17.8522
640 2 35.8351 47.6038 17.8961
641 2 39.7357 47.5676 17.9607
642 2 43.7349 47.5219 18.0869
643 2 47.5876 47.4875 18.0762
644 2 51.5371 47.3641 18.1688
645 2 55.748 47.4385 18.0011
646 2 0.0184408 51.3013 18.01
647 2 4.0181 51.6398 18.0642
648 2 8.03279 51.5168 18.0267
649 2 12.0171 51.3933 17.9642
650 2 15.9564 51.5131 17.9643
651 2 19.8406 51.5424 17.9945
652 2 24.0088 51.3098 18.086
653 2 27.7201 51.48 17.9779
654 2 31.5453 51.5456 17.9312
655 2 35.6771 51.4096 17.9623
656 2 39.8725 51.4643 17.9112
657 2 43.8448 51.2973 17.9771
658 2 47.6177 51.285 18.1489
659 2 51.6973 51.3467 17.9167
660 2 55.5681 51.2384 18.1556
661 2 0.0849132 55.267 18.2552
662 2 4.11497 55.6015 17.8918
663 2 8.01297 55.426 18.0552
664 2 11.9732 55.3262 18.1656
665 2 15.8752 55.3027 17.9944
666 2 20.0693 55.6231 18.0554
667 2 23.9571 55.2212 17.8561
668 2 27.6866 55.4346 18.0158
669 2 31.7177 55.4612 17.9951
670 2 35.8595 55.4354 17.9659
671 2 39.6633 55.3372 18.1088
672 2 43.6354 55.5659 18.0808
673 2 47.551 55.4239 18.1176
674 2 51.4277 55.4779 18.1739
675 2 55.4096 55.3077 18.1004
676 2 59.6123 59.2826 22.0793
677 2 4.16512 0.0683038 21.989
678 2 7.93089 0.283368 21.9859
679 2 11.9987 0.0892763 21.7728
680 2 15.9867 59.562 22.0965
681 2 19.9362 -0.209147 21.9624
682 2 23.9961 59.4056 21.7763
683 2 27.7627 0.130958 22.0146
684 2 31.5666 0.119431 21.9478
685 2 35.5529 -0.0809769 21.83
686 2 39.5976 59.3307 22.0523
687 2 43.6884 0.0627983 22.1366
688 2 47.6435 0.169496 21.9807
689 2 51.4646 59.4376 21.8925
690 2 55.5432 0.139432 22.0044
691 2 -0.009828 3.98137 22.09
692 2 3.87577 4.0522 21.9229
693 2 7.95401 4.18268 21.9615
694 2 11.9341 3.85042 22.0542
695 2 15.9749 3.87501 21.9971
696 2 19.9793 4.00719 21.9863
697 2 23.7371 3.98519 22.0382
698 2 27.6434 3.99751 22.0821
699 2 31.61 4.01616 22.0044
700 2 35.7741 3.81151 21.9636
701 2 39.6377 3.98573 21.9433
702 2 43.7161 3.90986 22.0737
703 2 47.5709 3.95362 21.9669
704 2 51.5928 3.72947 21.9163
705 2 55.5527 3.98113 22.1601
706 2 0.0367096 8.09454 21.9892
707 2 4.05895 8.0813 21.7657
708 2 8.08701 7.8121 22.0617
709 2 12.0004 7.74122 22.1701
710 2 15.9728 7.90575 21.9624
711 2 19.6687 7.89212 21.9634
712 2 23.7935 8.22416 21.866
713 2 27.8418 7.96079 21.7771
714 2 31.8183 7.96911 22.0221
715 2 35.6978 7.94421 21.9121
716 2 39.5772 7.99953 22.0578
717 2 43.8583 8.0437 21.9125
718 2 47.6098 7.87409 22.042
719 2 51.6239 7.89563 21.8565
720 2 55.6019 7.89438 21.9719
721 2 59.586 11.8927 21.7404
722 2 4.12941 12.0781 21.8876
723 2 8.05068 12.0901 21.9377
724 2 12.1736 11.9251 21.8949
725 2 15.9994 11.9775 21.9809
726 2 19.9211 12.0417 22.1503
727 2 23.9041 11.7123 21.9739
728 2 27.9427 12.0561 21.9119
729 2 31.8183 12.0417 22.1493
730 2 35.6904 11.9854 22.1385
731 2 39.693 12.0371 21.9674
732 2 43.7278 12.0217 22.0061
733 2 47.63 11.9474 22.0573
734 2 51.5408 11.9502 21.885
735 2 55.3715 12.007 21.987
736 2 -0.112222 16.0367 21.9705
737 2 4.11035 16.0704 21.7398
738 2 8.16464 15.9483 22.0923
739 2 12.0363 15.8967 21.9936
740 2 15.9643 15.8002 22.1668
741 2 19.9728 15.9072 21.9208
742 2 23.8723 15.9078 22.0391
743 2 27.8571 15.8672 22.0963
744 2 31.5778 16.0729 21.9629
745 2 35.736 15.9768 21.9764
746 2 39.7684 15.875 21.7787
747 2 43.6539 15.8132 22.1223
748 2 47.4512 16.0756 22.0503
749 2 51.6428 15.9513 21.9784
750 2 55.5123 15.9133 22.0751
751 2 0.0888398 19.9504 22.2028
752 2 4.23475 19.7496 21.8401
753 2 8.08511 20.0783 21.8195
754 2 11.8999 19.8309 22.0546
755 2 15.7358 19.7096 22.0679
756 2 20.0102 19.8554 22.0267
757 2 23.8079 19.8184 22.0515
758 2 27.7869 19.7662 21.9853
759 2 31.6686 19.698 21.9925
760 2 35.7564 19.8704 21.958
761 2 39.8187 19.8116 21.8573
762 2 43.4587 20.0513 21.9355
763 2 47.68 19.6588 22.0092
764 2 51.4671 19.95 22.084
765 2 55.4214 19.834 22.0455
766 2 0.251925 23.7313 22.0281
767 2 4.06432 23.8844 21.9211
768 2 8.01919 23.8172 21.9544
769 2 12.0127 23.7884 21.7513
770 2 15.8948 23.843 21.889
771 2 19.677 23.7582 22.1878
772 2 23.65 23.6839 22.0098
773 2 27.9301 23.7208 21.8845
774 2 31.7033 23.5987 22.1968
775 2 35.7751 23.7179 21.9296
776 2 39.4629 24.0769 21.9413
777 2 43.7249 23.8528 22.1229
778 2 47.6132 23.583 22.1105
779 2 51.6315 23.609 22.0831
780 2 55.5845 23.7069 21.989
781 2 59.5077 27.7023 22.0187
782 2 4.1076 27.706 22.0655
783 2 8.14337 27.7124 22.0969
784 2 12.1264 27.9149 21.8087
785 2 15.6886 27.7055 22.1238
786 2 19.6564 27.8167 22.0664
787 2 23.7542 27.5296 22.1613
788 2 27.8626 27.5894 21.9928
789 2 31.8233 27.5708 21.9013
790 2 35.8093 27.7313 21.8244
791 2 39.8516 27.8161 22.0016
792 2 43.5817 27.8043 21.9431
793 2 47.6869 27.788 22.1873
794 2 51.5537 27.6895 22.0961
795 2 55.5149 27.7172 21.9998
796 2 59.3819 31.7842 22.0083
797 2 3.76787 31.7533 21.9806
798 2 7.85564 31.8328 21.9352
799 2 11.9453 31.7522 21.8887
800 2 15.8008 31.7812 21.8637
801 2 19.8699 31.5529 22.1888
802 2 23.8184 31.7645 22.1095
803 2 27.7957 31.4909 22.1056
804 2 31.9071 31.6256 22.138
805 2 35.655 31.6305 21.9987
806 2 39.5384 31.8091 22.1014
807 2 43.5846 31.754 21.9759
808 2 47.8211 31.715 21.9302
809 2 51.488 31.7582 21.922
810 2 55.6808 31.552 22.0014
811 2 0.0552169 35.7816 21.848
812 2 3.93689 35.8926 22.054
813 2 7.80851 35.6734 21.9309
814 2 11.9326 35.7723 22.0047
815 2 15.7677 35.7866 21.9841
816 2 19.6994 35.7036 22.004
817 2 23.7971 35.4783 22.0342
818 2 27.6106 35.6008 22.0658
819 2 31.5461 35.4391 21.9164
820 2 35.8613 35.6917 21.9326
821 2 39.6351 35.7601 21.983
822 2 43.7505 35.5597 21.8001
823 2 47.5683 35.5364 21.8269
824 2 51.5308 35.5571 21.9001
825 2 55.6149 35.7488 21.9885
826 2 0.0680193 39.6698 21.8219
827 2 3.97429 39.7909 22.1128
828 2 7.88914 39.5262 21.8839
829 2 11.8248 39.8859 21.9122
830 2 15.8154 39.527 22.0833
831 2 19.9494 39.4596 22.0395
832 2 23.8205 39.6062 22.1092
833 2 27.6801 39.554 22.0432
834 2 31.6367 39.592 21.9548
835 2 35.5525 39.4091 21.9896
836 2 39.5906 39.5964 21.9275
837 2 43.7102 39.6527 21.8734
838 2 47.5921 39.5408 22.2464
839 2 51.5525 39.4526 22.0769
840 2 55.5458 39.7582 21.8855
841 2 0.0461955 43.5939 22.0527
842 2 4.19529 43.5774 21.9437
843 2 7.99178 43.6214 21.6927
844 2 11.8757 43.692 22.2418
845 2 15.886 43.598 22.1216
846 2 19.9216 43.5697 22.1424
847 2 23.8137 43.4925 22.0629
848 2 27.9438 43.4861 22.0315
849 2 31.8744 43.5073 22.1507
850 2 35.6981 43.438 21.9573
851 2 39.7205 43.589 22.0235
852 2 43.5701 43.7024 21.9278
853 2 47.6878 43.6972 22.1984
854 2 51.5972 43.4438 22.0948
855 2 55.4663 43.5926 22.0375
856 2 0.187529 47.5508 21.7805
857 2 4.11686 47.6144 21.8939
858 2 8.01411 47.6217 21.9993
859 2 11.9079 47.6334 22.0921
860 2 15.8799 47.6362 22.1185
861 2 19.9724 47.6881 21.9091
862 2 23.627 47.3764 22.0715
863 2 27.5823 47.6518 21.9248
864 2 31.8234 47.4324 21.9039
865 2 35.8507 47.4972 21.8566
866 2 39.7551 47.5666 22.1145
867 2 43.6824 47.6574 22.1343
868 2 47.6475 47.4738 22.2028
869 2 51.466 47.4508 21.9233
870 2 55.4298 47.4144 22.1824
871 2 0.23797 51.7503 22.0364
872 2 4.1482 51.5375 22.047
873 2 7.96401 51.6201 21.924
874 2 11.9451 51.4655 22.0201
875 2 15.8559 51.6647 22.0849
876 2 19.7621 51.5948 21.9826
877 2 23.6926 51.4671 21.9936
878 2 27.7503 51.4479 21.9875
879 2 31.8675 51.3695 22.0084
880 2 35.6962 51.6262 21.9509
881 2 39.5811 51.289 21.9629
882 2 43.5539 51.4606 22.1475
883 2 47.5852 51.5274 22.1276
884 2 51.3476 51.4998 22.1978
885 2 55.4237 51.4969 22.1301
886 2 0.0778498 55.5123 22.0639
887 2 3.96134 55.6698 21.8571
888 2 7.90983 55.7267 21.7914
889 2 11.97 55.5346 22.0282
890 2 15.8615 55.6383 21.9083
891 2 20.0231 55.3995 22.0163
892 2 23.8077 55.5881 22.0093
893 2 27.8243 55.6619 21.9216
894 2 31.8422 55.6364 21.9668
895 2 35.6473 55.2375 21.9817
896 2 39.5644 55.2551 21.8485
897 2 43.6771 55.4384 22.1107
898 2 47.7548 55.4035 22.0442
899 2 51.8061 55.4466 22.1214
900 2 55.5591 55.2168 22.1381
901 2 0.116744 0.182141 25.712
902 2 4.02518 0.0991988 26.2357
903 2 8.06073 59.4066 25.9887
904 2 11.8575 0.214939 26.0537
905 2 16.0094 0.250919 25.9283
906 2 19.8777 0.0404356 25.9756
907 2 23.7996 0.147238 26.0022
908 2 28.1283 -0.0942791 25.9321
909 2 31.8312 59.3826 25.801
910 2 35.6483 0.17919 26.0157
911 2 39.2934 -0.0272701 25.7147
912 2 43.6458 0.317589 25.8875
913 2 47.6314 0.231608 25.9299
914 2 51.6095 59.4757 26.0109
915 2 55.5957 59.5362 26.0635
916 2 -0.0677795 4.16704 25.9039
917 2 3.96797 4.17302 25.9817
918 2 8.07666 3.92747 25.8333
919 2 12.0066 3.93731 25.9406
920 2 16.1696 4.11724 25.824
921 2 20.0881 3.96836 26.0983
922 2 23.9397 4.03726 25.93
923 2 27.7543 4.11686 25.9765
924 2 31.7184 4.22392 25.9508
925 2 35.5225 3.91658 25.8518
926 2 39.6609 4.09057 25.6523
927 2 43.5187 4.11237 25.9197
928 2 47.5598 4.18952 25.829
929 2 51.5137 4.09049 26.0897
930 2 55.6072 4.08346 26.0983
931 2 59.4788 8.19757 25.7695
932 2 4.05343 8.12822 25.9662
933 2 8.07707 7.93943 25.872
934 2 12.0613 8.04281 26.0541
935 2 16.1843 7.9653 25.9703
936 2 19.8509 8.03973 25.9066
937 2 23.8598 8.03319 26.146
938 2 27.9503 7.82498 25.9382
939 2 31.7501 8.0357 26.0777
940 2 35.5995 7.98727 26.0172
941 2 39.7083 8.16033 25.6499
942 2 43.553 8.19449 25.9921
943 2 47.6075 7.93401 26.043
944 2 51.5633 8.06479 26.0488
945 2 55.3728 8.01213 25.684
946 2 -0.0565531 11.9048 25.9271
947 2 4.12394 12.1677 25.8549
948 2 8.09428 11.9766 25.8255
949 2 12.1495 11.8613 25.9383
950 2 15.9246 11.9851 26.0718
951 2 20.0367 11.9509 25.8699
952 2 23.9035 11.9498 26.0508
953 2 27.7311 11.8514 25.9408
954 2 31.9061 11.9677 26.0192
955 2 35.6774 12.0052 26.0915
956 2 39.6834 12.0486 25.9633
957 2 43.5257 11.9873 26.1236
958 2 47.5159 11.9031 26.0768
959 2 51.3871 11.8614 25.7293
960 2 55.5588 11.9392 25.7976
961 2 59.5004 15.9434 25.9067
962 2 3.87277 15.8379 25.8766
963 2 7.8044 15.9733 25.9413
964 2 12.1548 15.7961 25.9172
965 2 15.9159 16.1072 25.967
966 2 19.787 16.0874 25.9417
967 2 23.7256 15.8465 26.0675
968 2 27.7822 15.7721 26.0104
969 2 32.0087 15.9682 25.9096
970 2 35.7789 16.1145 26.0196
971 2 39.7643 15.9844 26.0418
972 2 43.711 15.8749 26.0728
973 2 47.5417 16.113 26.0156
974 2 51.459 15.8043 26.0432
975 2 55.5299 15.8061 26.091
976 2 59.4999 19.9258 25.9443
977 2 3.9855 19.8246 25.7292
978 2 7.98044 19.9342 26.0744
979 2 11.7752 19.7722 25.9873
980 2 15.749 19.9579 25.8905
981 2 19.9157 19.8904 26.0992
982 2 23.9149 19.736 25.9147
983 2 27.8283 19.9618 26.0346
984 2 31.9849 19.8967 26.0294
985 2 35.7962 19.861 26.0234
986 2 39.7234 20.0471 25.7911
987 2 43.5723 19.8492 25.9405
988 2 47.4892 19.931 26.0051
989 2 51.6359 19.9522 25.9866
990 2 55.5601 19.8092 25.9406
991 2 59.5321 23.7457 26.1382
992 2 4.10699 23.9674 26.0407
993 2 8.17733 24.1487 25.8885
994 2 11.8391 23.7478 26.0057
995 2 15.6643 23.6482 25.8266
996 2 19.8691 23.7782 25.9838
997 2 23.9063 23.6151 26.0511
998 2 27.8954 23.7886 25.8816