ITEM: TIMESTEP
1542600
ITEM: NUMBER OF ATOMS
16875
ITEM: BOX BOUNDS xy xz yz pp pp pp
0.0000000000000000e+00 5.9369999999999997e+01 0.0000000000000000e+00
0.0000000000000000e+00 5.9369999999999997e+01 0.0000000000000000e+00
3.0345636626494255e-01 6.0062962633738266e+01 0.0000000000000000e+00
ITEM: ATOMS id type x y z
1 2 59.727 59.365 10.0678
2 2 4.17201 59.2474 9.99699
3 2 8.00416 59.2522 9.86213
4 2 12.0462 59.4297 9.91214
5 2 16.1918 -1.15832e-05 9.94651
6 2 19.9732 59.3482 10.0781
7 2 23.89 59.5644 10.0601
8 2 27.931 59.3314 9.91826
9 2 32.0237 59.3122 10.1405
10 2 35.8447 59.372 10.0678
11 2 39.699 59.439 10.135
12 2 43.8341 59.3536 10.0254
13 2 47.7075 59.3826 10.0665
14 2 51.333 59.4454 10.256
15 2 55.4956 59.2919 10.197
16 2 0.269277 3.83722 9.99076
17 2 3.97685 3.823 10.0661
18 2 7.96548 3.69163 9.86415
19 2 11.9036 3.79806 9.92613
20 2 15.9096 3.86758 9.8448
21 2 19.8976 3.84094 10.0617
22 2 23.8151 3.96491 10.0193
23 2 27.7469 4.01214 10.1576
24 2 31.9586 3.85605 10.0599
25 2 35.7471 3.79935 9.9608
26 2 39.581 4.01865 9.83789
27 2 43.8183 4.07825 10.0229
28 2 47.4623 4.12326 10.2041
29 2 51.3061 4.16385 10.0528
30 2 55.4865 3.70995 9.99132
31 2 0.0590338 7.5932 10.0799
32 2 3.96933 7.58625 10.1691
33 2 7.84945 7.66948 10.0935
34 2 11.8849 7.6068 9.85279
35 2 15.9133 7.78916 10.0124
36 2 19.9283 8.0354 10.0245
37 2 23.8743 7.71491 10.0014
38 2 27.8089 7.85731 9.99939
39 2 31.9086 7.95975 10.0713
40 2 35.8197 7.95381 10.0265
41 2 39.8388 8.06134 10.148
42 2 43.6489 8.05369 9.91424
43 2 47.5501 8.01601 10.0875
44 2 51.5122 7.94058 10.0505
45 2 55.5665 7.67238 10.038
46 2 -0.0672739 11.5562 9.94024
47 2 3.99264 11.7294 10.1144
48 2 8.19 11.7528 9.98648
49 2 12.1027 11.5943 9.97961
50 2 15.8344 11.6502 9.8261
51 2 19.9619 11.827 10.2006
52 2 23.8978 11.8027 9.98156
53 2 27.7308 11.8416 10.024
54 2 31.6525 11.7778 10.1785
55 2 35.5575 11.8652 10.1454
56 2 39.5699 11.6894 9.93651
57 2 43.5928 11.8291 10.0936
58 2 47.5896 11.8353 9.92696
59 2 51.4492 11.6127 10.0899
60 2 55.3337 11.7177 10.1734
61 2 59.4053 15.7326 9.82331
62 2 4.04432 15.7063 9.98635
63 2 8.12478 15.5969 9.91008
64 2 11.9303 15.6204 10.0813
65 2 15.8167 15.7479 10.1496
66 2 19.889 15.856 10.1157
67 2 23.8622 15.8625 10.1253
68 2 27.8049 15.68 10.1539
69 2 31.6529 15.7462 9.96803
70 2 35.5145 15.7777 10.0193
71 2 39.4233 15.6578 10.1522
72 2 43.6266 15.816 10.1103
73 2 47.554 15.817 10.1333
74 2 51.4889 15.8586 10.1455
75 2 55.4 15.6869 10.1905
76 2 -0.0455971 19.7873 10.233
77 2 4.03334 19.5985 10.2255
78 2 8.17249 19.5825 9.97284
79 2 12.0505 19.6844 10.282
80 2 15.963 19.6641 10.1315
81 2 19.78 19.7125 10.2757
82 2 23.9482 19.6238 9.99948
83 2 27.9117 19.74 10.1921
84 2 31.9244 19.7411 10.1494
85 2 35.572 19.6326 9.89671
86 2 39.6138 19.6811 10.1003
87 2 43.4674 19.6867 10.2101
88 2 47.6325 19.9218 10.1265
89 2 51.4866 19.6766 10.115
90 2 55.6197 19.695 10.0536
91 2 0.0110194 23.5863 9.9924
92 2 4.03661 23.6148 9.94278
93 2 8.00233 23.7726 10.0484
94 2 12.0014 23.7412 10.0531
95 2 16.1311 23.9389 9.87701
96 2 19.818 23.6877 10.2314
97 2 23.6562 23.5308 10.0428
98 2 27.6991 23.8007 10.0081
99 2 31.9377 23.8121 10.0347
100 2 35.7213 23.8292 10.1482
101 2 39.585 23.6116 10.0183
102 2 43.6074 23.5368 9.83355
103 2 47.5203 23.5857 10.06
104 2 51.4186 23.689 10.0156
105 2 55.3461 23.7268 10.14
106 2 0.356066 27.5908 10.0973
107 2 4.06878 27.6148 10.2236
108 2 8.17437 27.5903 10.1188
109 2 11.9447 27.5553 10.0339
110 2 16.0831 27.5967 10.1056
111 2 19.9209 27.7822 10.2307
112 2 23.7491 27.7532 10.1301
113 2 27.9864 27.659 9.93325
114 2 31.7332 27.8662 10.1083
115 2 35.7428 27.7536 10.1812
116 2 39.4615 27.5359 9.8884
117 2 43.6138 27.601 10.1262
118 2 47.527 27.6766 9.94436
119 2 51.5386 27.8143 10.1205
120 2 55.4775 27.3448 10.0306
121 2 0.130766 31.4246 9.89445
122 2 4.24317 31.5093 10.062
123 2 8.17724 31.4993 10.1187
124 2 12.0101 31.4858 10.16
125 2 16.0801 31.4638 9.92302
126 2 19.9897 31.5554 10.1091
127 2 23.8315 31.7776 10.0064
128 2 27.6698 31.5601 10.2288
129 2 31.8023 31.6158 10.0305
130 2 35.5971 31.7081 10.2234
131 2 39.7616 31.6096 9.91565
132 2 43.5894 31.4421 9.8811
133 2 47.4693 31.6111 10.0789
134 2 51.6039 31.3911 9.93625
135 2 55.6409 31.3654 10.1767
136 2 59.7056 35.5722 9.97628
137 2 4.05148 35.3895 10.1743
138 2 8.17103 35.4844 9.89822
139 2 11.9785 35.4353 9.93575
140 2 15.818 35.5168 9.96863
141 2 19.8435 35.5923 10.1479
142 2 23.9167 35.8098 9.97129
143 2 27.9571 35.527 9.95129
144 2 31.5321 35.4622 10.0064
145 2 35.688 35.6299 10.2456
146 2 39.7257 35.5457 10.255
147 2 43.5505 35.4866 9.91576
148 2 47.5904 35.4705 9.83701
149 2 51.5562 35.4116 10.0859
150 2 55.5338 35.3575 10.0615
151 2 59.5651 39.596 9.92624
152 2 4.06721 39.5796 10.0497
153 2 7.97594 39.4879 10.0162
154 2 11.944 39.4394 10.1043
155 2 15.9045 39.5548 10.2108
156 2 19.9425 39.631 10.0583
157 2 23.7381 39.5579 10.2189
158 2 27.6775 39.6349 10.0396
159 2 31.8066 39.5215 10.1048
160 2 35.7895 39.438 10.0147
161 2 39.4925 39.5196 10.1711
162 2 43.5342 39.4384 10.1016
163 2 47.5396 39.4357 10.0443
164 2 51.5372 39.4611 9.93345
165 2 55.4636 39.572 9.96633
166 2 59.5252 43.4891 10.1252
167 2 4.07578 43.2881 10.1104
168 2 7.99309 43.4048 10.0226
169 2 11.8281 43.3449 10.1317
170 2 15.9197 43.4956 10.102
171 2 19.8626 43.6156 10.2224
172 2 23.9624 43.4888 9.92651
173 2 27.665 43.4361 9.86115
174 2 31.5007 43.3967 10.1297
175 2 35.8563 43.436 10.029
176 2 39.8828 43.3376 10.0192
177 2 43.7695 43.4281 10.0686
178 2 47.5611 43.4446 10.1021
179 2 51.5484 43.2953 9.84309
180 2 55.465 43.381 10.0724
181 2 59.6611 47.3435 10.0123
182 2 4.23971 47.4242 9.95424
183 2 8.05213 47.4869 9.88037
184 2 12.0772 47.413 9.90358
185 2 15.8113 47.4865 9.9732
186 2 20.0585 47.6454 10.0092
187 2 23.7705 47.4058 10.095
188 2 27.7709 47.6876 10.0319
189 2 31.7448 47.5257 9.86391
190 2 35.7276 47.5558 10.0793
191 2 39.7621 47.4984 10.1126
192 2 43.6042 47.2804 9.98472
193 2 47.8211 47.2186 9.98738
194 2 51.5872 47.2539 9.9212
195 2 55.8178 47.5041 10.1002
196 2 0.205939 51.332 10.0659
197 2 4.17722 51.3175 9.92712
198 2 8.05751 51.5383 9.93907
199 2 12.0243 51.2911 9.68223
200 2 16.0023 51.481 9.70133
201 2 19.8882 51.5318 9.988
202 2 23.8859 51.592 9.75909
203 2 27.8802 51.3169 10.1761
204 2 31.8678 51.3926 10.0533
205 2 35.7505 51.4118 10.1186
206 2 39.6748 51.6209 10.0961
207 2 43.5918 51.3754 9.9174
208 2 47.4684 51.3968 10.0343
209 2 51.5242 51.4307 10.0096
210 2 55.7703 51.3192 10.2191
211 2 0.0600887 55.3297 10.1258
212 2 3.97024 55.2151 9.88176
213 2 8.13557 55.232 9.99267
214 2 12.169 55.5613 9.84138
215 2 15.8655 55.4837 10.0475
216 2 19.9298 55.2938 10.1799
217 2 24.0511 55.5969 10.0033
218 2 28.0203 55.3197 10.0367
219 2 31.8131 55.5528 9.86542
220 2 35.8784 55.4541 9.98093
221 2 39.778 55.367 10.0621
222 2 43.5958 55.4461 10.0139
223 2 47.5951 55.3115 10.1619
224 2 51.7069 55.3005 9.92205
225 2 55.5088 55.521 10.0967
226 2 0.0443577 59.3311 14.244
227 2 4.03141 59.2645 14.1349
228 2 8.06081 59.3483 13.9129
229 2 11.9039 59.356 14.1338
230 2 15.8383 0.0410803 13.9968
231 2 19.7939 -0.0868771 14.0779
232 2 23.7558 0.0733284 14.0097
233 2 27.747 59.4766 13.8922
234 2 31.758 59.4338 14.0114
235 2 35.6894 59.4484 14.0965
236 2 39.8509 0.0482648 13.8165
237 2 43.5185 59.3063 14.0885
238 2 47.4196 -0.0245494 13.9448
239 2 51.6235 0.0121147 14.0378
240 2 55.6015 59.2295 14.1427
241 2 0.0275394 3.88574 13.987
242 2 4.0192 3.69973 13.7724
243 2 7.91922 3.99307 14.0117
244 2 11.8375 3.86431 13.8439
245 2 15.9931 4.14559 13.955
246 2 19.7729 3.89443 14.0443
247 2 23.939 3.887 14.098
248 2 27.8577 4.03195 14.157
249 2 31.6986 3.95893 13.9721
250 2 35.7031 4.06153 13.8392
251 2 39.7511 4.08307 14.056
252 2 43.5215 4.06849 13.8982
253 2 47.3418 4.01932 14.1161
254 2 51.7082 3.87347 13.8751
255 2 55.2687 3.94805 14.0835
256 2 0.132365 7.93275 13.9375
257 2 4.00385 7.96476 13.8988
258 2 8.05382 7.84407 14.1416
259 2 11.9341 7.71892 14.0164
260 2 15.8907 7.88547 14.1359
261 2 19.7921 7.89247 14.17
262 2 23.8322 8.00945 13.9968
263 2 27.7924 8.00008 13.9651
264 2 31.7981 8.02515 13.8913
265 2 35.6945 7.73099 13.7947
266 2 39.6183 7.77666 13.9971
267 2 43.6588 7.88938 13.972
268 2 47.6982 8.00032 14.0175
269 2 51.395 7.91302 14.1551
270 2 55.6712 8.02654 14.1173
271 2 0.0495646 12.0207 14.1367
272 2 4.18115 11.7475 13.9925
273 2 8.08708 11.837 14.0428
274 2 12.0005 11.6912 14.0287
275 2 16.0266 11.8504 13.9526
276 2 20.0164 11.7366 14.0745
277 2 23.6701 11.8873 14.0071
278 2 27.7378 11.9584 14.0386
279 2 31.8511 12.2061 13.9828
280 2 35.9232 11.7979 14.0689
281 2 39.7647 11.8056 14.0765
282 2 43.5935 12.1833 14.0975
283 2 47.6568 11.9535 14.0829
284 2 51.5939 11.9295 14.1684
285 2 55.6268 11.8838 14.0564
286 2 0.196978 15.6121 13.8379
287 2 4.17836 15.7807 14.041
288 2 8.10007 15.6961 14.0664
289 2 12.0959 15.6682 14.1833
290 2 15.9348 15.6584 14.0838
291 2 19.8506 15.7371 14.1748
292 2 23.7328 15.8622 14.0747
293 2 27.9953 15.9348 13.9441
294 2 31.9224 15.816 14.1148
295 2 35.7151 15.8791 14.0573
296 2 39.6162 15.7574 14.1329
297 2 43.412 15.7756 14.0747
298 2 47.6453 15.6609 13.9749
299 2 51.7177 15.8087 14.095
300 2 55.5597 15.8219 14.1195
301 2 0.143932 19.7456 14.0708
302 2 4.21059 19.6526 13.9626
303 2 8.17458 19.8154 13.9846
304 2 12.1318 19.6691 14.1378
305 2 15.8703 19.7938 14.117
306 2 19.8458 19.9313 14.1111
307 2 23.8285 19.7702 13.8796
308 2 27.8687 19.7682 13.9705
309 2 31.7889 19.8692 14.1392
310 2 35.8031 19.9341 14.0107
311 2 39.5475 19.9642 14.0675
312 2 43.6471 19.7873 14.1904
313 2 47.6518 19.8046 14.2424
314 2 51.4422 19.7994 14.0738
315 2 55.4106 19.776 14.2429
316 2 -0.0183041 23.8131 14.0943
317 2 4.32718 23.8688 13.8613
318 2 8.16218 23.9488 13.943
319 2 11.8961 23.5848 13.8628
320 2 15.7997 23.7344 13.8802
321 2 19.885 23.7591 14.1769
322 2 23.7509 23.9167 14.0675
323 2 27.8127 23.7036 14.164
324 2 31.7209 23.817 14.0617
325 2 35.6645 23.8832 14.1387
326 2 39.4985 23.7378 14.0076
327 2 43.5101 23.7421 14.168
328 2 47.3995 23.8141 13.9947
329 2 51.5814 23.8103 13.9069
330 2 55.57 23.7941 14.0352
331 2 0.202762 27.5168 14.0348
332 2 4.18218 27.6048 13.9475
333 2 8.12492 27.8271 13.9797
334 2 12.0523 27.5833 14.1418
335 2 15.7569 27.6445 13.988
336 2 19.8246 27.6852 14.2012
337 2 23.8805 27.8237 13.9703
338 2 27.6451 27.6807 14.1152
339 2 31.6961 27.6601 14.1146
340 2 35.7645 27.812 14.1109
341 2 39.7378 27.6417 13.9634
342 2 43.5793 27.7602 14.0737
343 2 47.7187 27.7497 14.0304
344 2 51.7456 27.7878 14.0139
345 2 55.6489 27.612 14.0705
346 2 0.238953 31.754 13.9636
347 2 4.10894 31.5853 14.0431
348 2 8.04776 31.7016 13.9951
349 2 12.18 31.4497 13.9932
350 2 15.9195 31.6251 14.0735
351 2 19.8377 31.7758 14.1325
352 2 23.8347 31.7751 13.9166
353 2 27.9002 31.5785 14.2466
354 2 31.8272 31.8179 14.106
355 2 35.8682 31.7737 14.0507
356 2 39.5115 31.7145 14.0987
357 2 43.5707 31.5378 13.9906
358 2 47.3224 31.7471 14.0693
359 2 51.5117 31.4655 14.1692
360 2 55.5482 31.6414 14.0882
361 2 0.113815 35.6401 13.969
362 2 4.04498 35.4004 14.0297
363 2 7.8966 35.6416 14.0417
364 2 12.0519 35.4993 13.8269
365 2 15.9806 35.6176 13.9616
366 2 19.8497 35.7506 14.0887
367 2 23.5969 35.4644 14.1014
368 2 27.4339 35.5449 13.9854
369 2 31.7678 35.7776 13.9566
370 2 35.695 35.5114 14.0219
371 2 39.7056 35.7079 14.0834
372 2 43.5849 35.6946 14.02
373 2 47.4635 35.5547 14.0535
374 2 51.7044 35.4269 14.079
375 2 55.6702 35.5641 13.9346
376 2 0.220689 39.5493 13.8716
377 2 4.19362 39.3562 14.1103
378 2 7.95062 39.6908 14.1402
379 2 12.0719 39.4105 14.1755
380 2 15.8547 39.595 13.9894
381 2 19.7434 39.7365 14.1291
382 2 23.8352 39.6322 13.9361
383 2 27.721 39.5947 14.0239
384 2 31.5851 39.7016 13.9885
385 2 35.4859 39.2941 14.1482
386 2 39.4584 39.7217 14.0258
387 2 43.8066 39.6617 13.9453
388 2 47.6873 39.4572 13.9844
389 2 51.591 39.2245 13.781
390 2 55.7465 39.5395 13.9148
391 2 0.0916249 43.5798 14.1762
392 2 4.10811 43.3635 13.9735
393 2 8.10101 43.5374 14.2308
394 2 12.0401 43.5909 13.9697
395 2 15.7498 43.5124 14.0125
396 2 19.8708 43.5061 13.9628
397 2 23.9371 43.6182 14.0562
398 2 27.858 43.5862 13.8618
399 2 31.5647 43.7062 14.0311
400 2 35.5474 43.5988 14.0261
401 2 39.8504 43.4149 14.1191
402 2 43.6654 43.6595 13.9831
403 2 47.8166 43.4618 13.9302
404 2 51.5942 43.4197 14.1559
405 2 55.7079 43.4009 13.8371
406 2 0.136456 47.4591 14.1173
407 2 4.29412 47.5033 13.8188
408 2 8.05357 47.4659 13.8705
409 2 12.1823 47.648 14.0013
410 2 15.8964 47.351 14.0374
411 2 20.0268 47.6171 13.9099
412 2 23.8666 47.5207 13.9569
413 2 27.7064 47.4186 13.9643
414 2 31.7059 47.482 13.9543
415 2 35.9015 47.5329 13.9298
416 2 39.7964 47.6574 13.8581
417 2 43.7157 47.6216 13.8113
418 2 47.6799 47.5104 13.8964
419 2 51.5819 47.2318 13.7617
420 2 55.4211 47.4803 14.0716
421 2 0.221051 51.4959 14.034
422 2 4.16255 51.3269 14.2358
423 2 8.0648 51.4798 13.9876
424 2 12.1908 51.3356 13.9666
425 2 15.9791 51.3285 13.9729
426 2 19.9492 51.6929 13.8411
427 2 23.9726 51.541 13.7234
428 2 27.9617 51.5861 14.0729
429 2 31.8064 51.5056 14.0067
430 2 35.675 51.382 14.0496
431 2 39.7641 51.4312 14.1415
432 2 43.7705 51.5638 14.1186
433 2 47.7821 51.3884 14.1141
434 2 51.5591 51.4535 14.1409
435 2 55.4586 51.4092 14.174
436 2 0.298337 55.3609 14.0299
437 2 4.08249 55.4187 14.0401
438 2 8.17692 55.6893 13.9046
439 2 12.1936 55.4716 13.8254
440 2 16.0071 55.3522 14.0692
441 2 19.9966 55.4777 13.9732
442 2 24.0128 55.4304 13.8771
443 2 27.992 55.5201 13.8596
444 2 31.9657 55.2762 14.0986
445 2 35.8391 55.4797 14.1786
446 2 39.9794 55.4504 14.0133
447 2 43.7495 55.5426 14.1392
448 2 47.6539 55.3891 14.0381
449 2 51.6346 55.1335 13.8653
450 2 55.5859 55.3789 13.9841
451 2 -0.146672 -0.00298865 18.0505
452 2 3.9569 0.200877 17.9714
453 2 7.96898 59.4656 17.9548
454 2 11.8324 59.2712 17.9174
455 2 15.6716 59.3877 17.9215
456 2 19.8463 59.4863 17.9337
457 2 23.8933 59.3115 17.8847
458 2 28.0318 0.0712411 18.1186
459 2 31.8398 59.4997 18.0419
460 2 35.8105 59.4625 17.9304
461 2 39.5691 0.138719 18.0761
462 2 43.6894 59.5859 18.2706
463 2 47.749 0.246477 17.9969
464 2 51.4625 59.4578 17.9378
465 2 55.356 59.1803 17.9039
466 2 0.205536 4.12674 18.0209
467 2 3.97491 3.96481 18.0547
468 2 7.8292 3.9585 18.0737
469 2 11.918 4.00026 17.9265
470 2 15.7082 3.85568 17.9311
471 2 19.8392 4.00746 17.9551
472 2 23.6919 4.23278 17.9903
473 2 27.6191 3.93326 18.0339
474 2 31.9688 4.08802 17.9158
475 2 35.6601 3.95872 18.1823
476 2 39.4947 4.15118 18.0948
477 2 43.7414 4.03416 18.1043
478 2 47.4234 4.1005 17.8297
479 2 51.3887 4.0166 17.9393
480 2 55.6093 4.08956 17.9308
481 2 0.171835 8.26837 17.8217
482 2 4.24016 8.00997 17.8843
483 2 7.98364 7.78772 18.0293
484 2 11.8523 7.91294 17.936
485 2 15.8439 7.65842 17.9977
486 2 19.8683 8.07683 18.1014
487 2 23.7705 8.02696 18.0821
488 2 27.722 8.14028 18.0678
489 2 31.6245 7.99343 18.0563
490 2 35.6878 7.98581 17.9612
491 2 39.6965 8.17185 17.8943
492 2 43.7092 8.11962 18.12
493 2 47.616 8.03267 18.0435
494 2 51.5748 8.13746 17.9455
495 2 55.4529 8.10281 18.0899
496 2 0.246892 12.0929 18.0453
497 2 4.13889 11.9313 18.0009
498 2 8.05587 12.042 17.938
499 2 12.0987 11.8337 17.9473
500 2 15.729 11.9375 17.9991
501 2 19.6717 11.9467 18.0822
502 2 23.9286 12.0611 18.0064
503 2 27.5542 11.9267 18.1851
504 2 31.7164 11.8209 18.3102
505 2 35.5441 12.0199 18.0592
506 2 39.4873 11.8509 18.0202
507 2 43.4416 12.0052 18.0321
508 2 47.5255 11.8544 18.0859
509 2 51.6206 11.9901 17.8357
510 2 55.5949 11.9927 18.1714
511 2 59.6541 15.8166 18.1066
512 2 4.01617 15.8082 18.0508
513 2 8.15398 15.7808 17.9367
514 2 11.8603 16.0299 18.077
515 2 16.068 15.8782 17.9901
516 2 19.8302 15.9719 18.0324
517 2 23.8781 15.8198 18.0911
518 2 27.707 15.9658 18.0407
519 2 31.8052 15.6985 18.2551
520 2 35.6202 16.0384 17.984
521 2 39.4521 15.961 18.0068
522 2 43.6189 16.1106 18.0853
523 2 47.5494 15.9124 18.0719
524 2 51.5247 16.0511 18.004
525 2 55.6699 15.979 18.1436
526 2 0.302056 19.699 18.003
527 2 4.33679 19.8475 17.9449
528 2 8.09271 19.713 17.9803
529 2 12.0059 19.8217 18.2223
530 2 15.8583 19.8543 18.1155
531 2 20.011 19.7902 18.1417
532 2 23.9013 19.7135 18.1232
533 2 27.9232 19.9736 18.0276
534 2 31.6799 19.8565 18.1017
535 2 35.8287 19.7775 17.9375
536 2 39.7676 19.9403 17.9727
537 2 43.7658 19.8279 18.1352
538 2 47.5191 20.0382 18
539 2 51.5222 19.9359 18.0826
540 2 55.6107 19.8972 18.1136
541 2 0.243837 23.9502 18.028
542 2 4.16475 23.6501 17.928
543 2 8.09137 23.7412 17.7396
544 2 12.0403 23.6814 18.0388
545 2 16.0879 23.6712 17.8346
546 2 20.0264 23.7877 18.1008
547 2 23.9402 23.799 18.0746
548 2 27.8336 23.7383 17.8417
549 2 31.8034 23.9681 18.1804
550 2 35.8784 23.8662 17.9696
551 2 39.6725 23.8686 18.0224
552 2 43.5365 23.88 18.0745
553 2 47.4723 23.8426 18.0017
554 2 51.6395 23.7567 18.133
555 2 55.4818 23.6488 17.9129
556 2 0.091924 27.6959 17.9108
557 2 4.02543 27.6345 18.1188
558 2 8.0413 27.6107 18.2277
559 2 11.9282 27.5848 18.2307
560 2 15.8036 27.7007 18.0417
561 2 19.9521 27.8254 18.0894
562 2 23.9071 27.7525 18.0358
563 2 27.6909 27.7539 18.1538
564 2 31.785 27.7391 17.9657
565 2 35.6217 27.8869 18.0778
566 2 39.578 27.8006 17.8638
567 2 43.6562 28.0007 18.1783
568 2 47.5097 27.9228 17.9712
569 2 51.7788 27.8731 18.153
570 2 55.5232 27.6491 18.0764
571 2 -0.074251 31.5489 17.8331
572 2 4.05953 31.467 18.1779
573 2 8.08595 31.6411 18.1213
574 2 11.8296 31.8073 18.1232
575 2 15.98 31.7954 18.0452
576 2 19.9861 31.6369 18.0126
577 2 23.726 31.5968 18.0517
578 2 27.8113 31.8623 18.2035
579 2 31.6558 31.8039 17.8731
580 2 35.7331 31.6303 18.0129
581 2 39.6266 31.6559 18.0107
582 2 43.4933 31.7856 18.0353
583 2 47.5719 31.6562 18.003
584 2 51.7545 31.9407 17.9711
585 2 55.5383 31.6431 18.0749
586 2 0.0779324 35.6525 17.9689
587 2 3.90311 35.5427 17.9304
588 2 7.88373 35.7124 18.1227
589 2 11.9019 35.3748 17.9435
590 2 15.8945 35.5169 17.9324
591 2 19.8479 35.654 18.0293
592 2 23.7072 35.7858 18.2445
593 2 27.6056 35.709 18.1093
594 2 31.5974 35.8086 18.0613
595 2 35.5731 35.7124 18.0114
596 2 39.5249 35.6589 18.0349
597 2 43.426 35.6906 17.9368
598 2 47.5302 35.6093 17.8575
599 2 51.3863 35.6414 18.1012
600 2 55.4539 35.6541 17.9625
601 2 0.153882 39.5941 18.1379
602 2 4.19452 39.4576 18.1386
603 2 8.14334 39.6012 18.1244
604 2 12.0467 39.354 18.0477
605 2 15.9121 39.5486 17.9919
606 2 19.9607 39.8291 18.0118
607 2 23.8536 39.7467 17.9149
608 2 27.7 39.4557 18.0554
609 2 31.9192 39.7238 17.8285
610 2 35.5554 39.7836 18.04
611 2 39.588 39.8344 18.0439
612 2 43.5003 39.7816 17.9907
613 2 47.4785 39.6572 17.9231
614 2 51.7325 39.5855 18.0833
615 2 55.7131 39.7485 17.8421
616 2 0.228549 43.6467 17.9847
617 2 3.89186 43.857 17.913
618 2 7.8676 43.5018 18.0974
619 2 11.8849 43.6909 18.067
620 2 15.9327 43.6657 17.9862
621 2 19.711 43.6695 17.9752
622 2 23.7473 43.5818 18.1712
623 2 27.7913 43.6515 18.0597
624 2 31.6716 43.7853 17.8695
625 2 35.7378 43.6932 18.0128
626 2 39.8167 43.7164 17.995
627 2 43.6721 43.6307 17.8863
628 2 47.5763 43.4647 18.0312
629 2 51.5533 43.3883 18.0447
630 2 55.4208 43.3966 18.1144
631 2 -0.0374513 47.5819 18.1241
632 2 4.09192 47.7613 18.0564
633 2 8.03075 47.611 18.0303
634 2 12.0012 47.624 17.8879
635 2 16.0848 47.6872 17.8722
636 2 19.9375 47.8338 17.9104
637 2 23.8439 47.6211 18.0899
638 2 27.8482 47.5219 18.1823
639 2 31.594 47.431 18.1087
640 2 35.6913 47.5332 18.0393
641 2 39.489 47.5854 18.0493
642 2 43.5944 47.4995 18.0335
643 2 47.7367 47.5591 17.693
644 2 51.4268 47.1304 17.9347
645 2 55.4188 47.5676 18.0805
646 2 0.00875616 51.4111 18.061
647 2 4.15969 51.7114 18.1582
648 2 8.19894 51.575 17.827
649 2 11.9616 51.6076 17.7853
650 2 15.8906 51.5166 18.1752
651 2 20.0998 51.6629 17.786
652 2 23.971 51.3791 17.9384
653 2 27.8189 51.6242 17.8088
654 2 31.9307 51.528 17.9371
655 2 35.814 51.6141 17.9503
656 2 39.6253 51.5956 18.0314
657 2 43.6508 51.2335 18.0892
658 2 47.6642 51.4393 17.9711
659 2 51.6422 51.6051 18.2251
660 2 55.5212 51.3795 18.0041
661 2 0.164025 55.4474 17.9889
662 2 4.1113 55.6141 18.1318
663 2 8.03051 55.3949 18.111
664 2 11.9807 55.512 17.642
665 2 15.8758 55.3471 17.9005
666 2 19.8832 55.6179 17.8514
667 2 23.9423 55.3474 18.0092
668 2 27.9615 55.3068 17.8913
669 2 31.9357 55.4771 18.0016
670 2 36.0161 55.6598 17.9583
671 2 39.7081 55.5768 18.0784
672 2 43.7487 55.4619 17.937
673 2 47.7659 55.4631 18.0935
674 2 51.4972 55.4231 18.0429
675 2 55.3347 55.3821 18.0901
676 2 59.1581 59.6716 21.9776
677 2 4.01337 0.0798352 22.0989
678 2 7.98469 -0.035689 22.0218
679 2 11.8115 -0.0344774 22.1172
680 2 15.9412 59.2974 21.9044
681 2 19.6474 0.000868328 21.9436
682 2 23.7705 59.4099 21.85
683 2 27.5533 0.163915 21.8529
684 2 31.7907 0.0848086 21.9974
685 2 35.7514 0.229558 22.0418
686 2 39.7269 59.3006 22.1013
687 2 43.6141 0.0327661 22.0947
688 2 47.7376 0.0309055 21.9816
689 2 51.5444 59.4006 22.1177
690 2 55.1992 0.265803 21.8769
691 2 0.205813 3.96113 22.0823
692 2 3.92866 3.93856 21.85
693 2 7.99323 3.97865 21.9299
694 2 11.8944 4.05413 22.1397
695 2 15.7083 3.8468 22.0272
696 2 19.906 3.97562 22.0878
697 2 23.6669 4.11506 21.9678
698 2 27.6133 4.02193 21.8632
699 2 31.5575 4.03803 21.9301
700 2 35.4728 4.05112 21.9379
701 2 39.4675 4.0941 22.069
702 2 43.5025 3.8682 22.0651
703 2 47.6381 4.01993 21.8546
704 2 51.5317 4.00683 21.9368
705 2 55.4602 4.19601 21.7342
706 2 0.120157 7.95791 21.8792
707 2 3.97832 8.07062 21.8306
708 2 8.05688 8.11755 21.9819
709 2 11.825 7.97517 22.1069
710 2 15.9238 7.94927 22.0916
711 2 19.7384 7.8025 21.9969
712 2 23.8495 7.94498 21.9575
713 2 27.7983 8.05991 22.0444
714 2 31.6987 8.01282 22.0372
715 2 35.8812 8.1242 21.8437
716 2 39.746 7.97636 21.739
717 2 43.5134 8.05456 22.1318
718 2 47.5908 8.19167 21.7132
719 2 51.5337 8.024 22.0108
720 2 55.6502 8.02056 22.0777
721 2 59.4988 11.8977 22.0047
722 2 4.07939 11.8956 22.1091
723 2 8.09268 11.909 21.9469
724 2 11.9733 11.9193 22.0751
725 2 16.1032 11.8451 21.9542
726 2 19.8825 11.9658 21.9989
727 2 23.5888 11.9635 22.0436
728 2 27.6792 11.9453 22.178
729 2 31.5946 11.8545 22.1805
730 2 35.8084 11.8408 21.9704
731 2 39.6151 12.0902 21.9428
732 2 43.4918 12.0324 22.1182
733 2 47.6054 12.3445 21.9277
734 2 51.7023 11.9698 21.9995
735 2 55.4437 12.0204 22.034
736 2 0.171966 16.0822 22.0684
737 2 4.13884 15.9088 22.1329
738 2 8.13725 15.8705 21.9345
739 2 11.9922 15.8999 21.9683
740 2 16.1071 15.8974 22.0007
741 2 19.954 15.9258 21.9661
742 2 23.8224 16.1211 21.8962
743 2 27.8883 15.9924 21.9344
744 2 31.6779 15.9484 22.037
745 2 35.5066 16.0076 21.9457
746 2 39.6357 16.0232 22.0166
747 2 43.6382 15.9933 22.144
748 2 47.7678 16.0766 22.0545
749 2 51.372 16.1924 21.7574
750 2 55.4717 15.897 21.9876
751 2 -0.040177 20.0222 21.9254
752 2 4.29894 19.75 21.9107
753 2 8.10957 19.8424 21.9777
754 2 12.0498 19.8399 21.9753
755 2 15.9548 19.8365 22.0683
756 2 19.7182 20.0297 21.9569
757 2 23.8326 19.9161 22.051
758 2 27.8112 19.7943 22.1792
759 2 31.7909 19.9709 22.0169
760 2 35.7069 20.0517 21.9217
761 2 39.687 19.7375 22.1296
762 2 43.4961 19.7871 22.2304
763 2 47.6327 19.8623 22.0316
764 2 51.5366 20.0268 22.1433
765 2 55.3918 19.9732 22.0175
766 2 0.0890698 23.841 21.8777
767 2 3.93414 23.676 22.0072
768 2 8.13327 23.7362 22.0803
769 2 11.8252 23.7979 21.8934
770 2 15.9469 23.7632 21.9812
771 2 19.7226 23.8948 21.9189
772 2 23.9382 23.8997 21.8751
773 2 27.7626 23.7366 22.0571
774 2 31.8696 23.9814 21.9328
775 2 35.7416 23.8519 21.8888
776 2 39.529 23.8507 22.1839
777 2 43.6997 23.7964 21.9661
778 2 47.5073 23.78 21.9646
779 2 51.4402 23.7343 22.196
780 2 55.5637 23.6979 22.2218
781 2 59.4711 27.7828 21.9384
782 2 4.09976 27.7816 21.9268
783 2 8.01603 27.7836 21.9471
784 2 12.0006 27.7794 21.9059
785 2 15.9244 27.8781 22.068
786 2 19.7195 27.8229 22.1121
787 2 23.9974 27.5872 22.0572
788 2 27.8474 27.7694 21.9021
789 2 31.7712 27.729 22.1093
790 2 35.7289 27.8105 22.0756
791 2 39.7093 27.8843 22.0094
792 2 43.6351 27.617 22.1134
793 2 47.7476 27.7326 21.917
794 2 51.6797 27.7503 21.8752
795 2 55.4887 27.7101 21.9631
796 2 59.4174 31.5821 22.0219
797 2 3.90935 31.8836 22.0216
798 2 7.84456 31.7314 22.0733
799 2 11.8626 31.6874 22.0933
800 2 15.9009 31.8774 22.0898
801 2 19.882 31.7098 22.0547
802 2 23.9732 31.8075 22.3072
803 2 27.7681 31.816 22.0443
804 2 31.6018 31.649 21.9903
805 2 35.7414 31.9197 21.9831
806 2 39.4715 31.8316 21.8541
807 2 43.754 31.7914 22.051
808 2 47.533 31.7011 21.9969
809 2 51.3679 31.7186 22.1054
810 2 55.5478 31.7727 22.0071
811 2 -0.00570589 35.8276 21.9328
812 2 4.07964 35.6746 22.1687
813 2 7.87682 35.6602 22.0382
814 2 12.0046 35.6647 22.0892
815 2 15.8127 35.6741 21.9932
816 2 19.846 35.7207 21.8257
817 2 23.7767 35.5825 22.2537
818 2 27.7755 35.8492 22.0424
819 2 31.7113 35.7932 21.961
820 2 35.5188 35.981 21.9118
821 2 39.5762 35.9066 21.8105
822 2 43.6933 35.6254 22.1015
823 2 47.3344 35.6275 22.0436
824 2 51.4891 35.8848 22.0203
825 2 55.4223 35.651 21.828
826 2 0.294606 39.7299 22.0797
827 2 4.09684 39.5076 22.0434
828 2 7.94719 39.6261 22.1044
829 2 11.8904 39.6787 21.8753
830 2 15.8692 39.8171 21.8206
831 2 19.7309 39.7995 22.0578
832 2 23.7463 39.6906 22.0607
833 2 27.8289 39.8451 21.9878
834 2 31.8839 39.9154 21.8307
835 2 35.5736 39.6127 21.9853
836 2 39.3957 39.7475 21.794
837 2 43.4479 39.7506 21.9398
838 2 47.3995 39.6361 21.9093
839 2 51.5511 39.6291 22.125
840 2 55.5728 39.6593 21.9422
841 2 0.190992 43.7269 21.9007
842 2 4.05338 43.6215 21.9289
843 2 8.10398 43.6437 22.0165
844 2 12.0805 43.7087 22.0407
845 2 15.8784 43.7917 21.8682
846 2 19.799 43.792 21.8071
847 2 23.8826 43.5954 21.8852
848 2 27.8754 43.7352 22.105
849 2 31.7456 43.4633 22.0621
850 2 35.6263 43.5533 22.005
851 2 39.5817 43.6431 22.1306
852 2 43.6957 43.4982 22.127
853 2 47.562 43.6722 22.1993
854 2 51.548 43.5334 22.0369
855 2 55.4146 43.5919 22.0856
856 2 0.276191 47.5928 22.0534
857 2 4.08242 47.5558 22.1167
858 2 8.02911 47.5338 21.9124
859 2 12.0885 47.5179 21.9193
860 2 15.8482 47.5881 21.969
861 2 19.9159 47.7168 21.9733
862 2 23.8229 47.4614 21.9682
863 2 27.7702 47.5475 21.9555
864 2 31.7902 47.5808 21.9755
865 2 35.526 47.6344 22.0495
866 2 39.8434 47.6074 21.8823
867 2 43.6717 47.6137 21.834
868 2 47.5438 47.6011 21.9431
869 2 51.5555 47.5453 22.0407
870 2 55.6952 47.6181 21.9606
871 2 0.00301625 51.7123 22.0505
872 2 4.18355 51.5868 22.0643
873 2 8.15133 51.3124 21.9519
874 2 11.9607 51.5379 22.0524
875 2 15.8367 51.5655 21.924
876 2 19.9068 51.6592 22.0597
877 2 23.8637 51.4088 21.896
878 2 27.8359 51.5969 21.8998
879 2 31.6855 51.594 21.9979
880 2 35.559 51.5787 21.9541
881 2 39.7298 51.4688 21.9802
882 2 43.3817 51.6535 21.9544
883 2 47.2453 51.3998 21.8007
884 2 51.479 51.3282 21.9951
885 2 55.5429 51.5055 22.0573
886 2 0.257866 55.4298 21.9138
887 2 3.98158 55.4064 22.0556
888 2 7.95194 55.5801 21.9046
889 2 11.882 55.5858 21.9284
890 2 16.017 55.4296 21.975
891 2 19.934 55.4639 21.9352
892 2 23.9299 55.4101 21.81
893 2 27.9842 55.3815 22.0566
894 2 31.697 55.4758 21.9883
895 2 35.6802 55.2274 21.9854
896 2 39.6982 55.5762 21.9135
897 2 43.8343 55.5539 22.0514
898 2 47.3308 55.4 21.9692
899 2 51.4462 55.3275 22.0568
900 2 55.4004 55.2917 21.9381
901 2 0.0122291 0.103854 25.9026
902 2 4.02207 0.141745 26.005
903 2 7.84012 59.5159 25.9708
904 2 11.7634 0.180268 26.218
905 2 15.6741 0.100847 26.008
906 2 19.8871 0.225065 25.96
907 2 23.831 0.0470517 26.0187
908 2 27.9485 0.00949162 25.8855
909 2 31.6589 59.5726 26.0725
910 2 35.784 0.0385885 25.9325
911 2 39.8463 0.292861 25.9398
912 2 43.7191 0.334145 25.8206
913 2 47.5473 0.163134 26.0852
914 2 51.6263 59.3817 26.0513
915 2 55.5947 59.5535 26.0624
916 2 -0.0496668 4.098 26.0087
917 2 4.18153 4.12871 25.8675
918 2 8.00104 4.08282 25.9259
919 2 12.09 4.14692 25.9668
920 2 15.9935 4.00959 25.8654
921 2 19.6749 4.0262 26.1066
922 2 23.7426 3.99863 25.922
923 2 27.7977 4.029 25.8857
924 2 31.8347 4.11005 25.9683
925 2 35.6347 4.06435 25.9179
926 2 39.6646 4.18414 25.988
927 2 43.7719 4.07924 25.8642
928 2 47.5118 4.23163 25.9826
929 2 51.6447 4.05592 25.8098
930 2 55.4242 4.19114 25.9182
931 2 59.3398 7.83329 25.8912
932 2 3.8136 8.00857 25.9485
933 2 7.9225 7.8512 26.0826
934 2 11.8524 8.03754 26.054
935 2 15.8357 8.11997 26.1869
936 2 19.8408 8.0268 26.1473
937 2 23.8182 7.93431 26.0422
938 2 27.7788 7.96883 26.0485
939 2 31.5997 7.98297 25.9758
940 2 35.6032 8.14272 25.8314
941 2 39.6994 8.11922 25.955
942 2 43.6795 8.0911 25.7593
943 2 47.6171 7.85381 26.0457
944 2 51.4479 8.22581 25.8977
945 2 55.4749 8.01391 25.9772
946 2 -0.0171377 11.953 26.0722
947 2 4.0032 11.8494 26.1325
948 2 7.83385 11.9652 25.9133
949 2 11.7543 12.0182 25.824
950 2 15.7876 12.1889 25.8428
951 2 19.8879 11.8937 26.1349
952 2 23.6752 12.0697 25.9864
953 2 27.7672 12.0116 25.9756
954 2 31.6278 11.8952 26.1249
955 2 35.4734 12.0201 25.816
956 2 39.3974 11.9863 25.8534
957 2 43.6497 11.9671 25.8529
958 2 47.7707 11.798 25.8465
959 2 51.5005 12.0029 26.1025
960 2 55.4693 12.0376 25.8369
961 2 59.3216 15.9719 26.0952
962 2 4.07348 15.8724 26.0348
963 2 8.00877 16.1174 25.8401
964 2 11.8492 16.1179 26.015
965 2 15.7281 15.9673 26.049
966 2 19.859 15.9754 26.041
967 2 23.6679 16.0033 26.0046
968 2 27.7216 15.9307 26.0326
969 2 31.4725 15.9732 25.9711
970 2 35.5059 15.899 25.9836
971 2 39.5267 15.9009 25.9753
972 2 43.8013 15.8888 26.0001
973 2 47.5951 16.1077 26.0537
974 2 51.5958 16.0516 26.0236
975 2 55.4497 15.6555 25.8642
976 2 59.5488 19.7519 25.9556
977 2 4.02567 19.972 25.9347
978 2 8.05509 20.157 26.0365
979 2 11.9606 19.9023 25.9783
980 2 15.9696 19.9332 25.9748
981 2 19.7667 19.8742 25.8678
982 2 23.7561 19.8516 26.0594
983 2 27.6266 19.7386 26.0475
984 2 31.6905 19.9723 26.0375
985 2 35.6821 20.1671 25.8149
986 2 39.5276 19.9561 26.1372
987 2 43.6089 19.8816 26.1423
988 2 47.5584 19.9384 26.0715
989 2 51.3503 20.0504 26.1075
990 2 55.354 19.7765 26.1097
991 2 59.3898 23.9965 25.88
992 2 3.99511 23.8863 26.0518
993 2 7.96004 24.0214 25.7726
994 2 11.8934 24.0074 25.8337
995 2 15.8442 23.8806 25.9271
996 2 19.9529 23.9623 25.9444
997 2 23.7099 23.7753 26.0577
998 2 27.789 23.87 26.1138
999 2 31.7503 23.9638 26.0034