ITEM: TIMESTEP
1544300
ITEM: NUMBER OF ATOMS
16875
ITEM: BOX BOUNDS xy xz yz pp pp pp
0.0000000000000000e+00 5.9369999999999997e+01 0.0000000000000000e+00
0.0000000000000000e+00 5.9369999999999997e+01 0.0000000000000000e+00
3.0715091038321773e-01 6.0059268089619962e+01 0.0000000000000000e+00
ITEM: ATOMS id type x y z
1 2 59.4536 59.2862 9.95827
2 2 4.13634 59.2371 10.0767
3 2 8.10589 59.1456 10.0336
4 2 11.8832 59.4037 10.2347
5 2 15.8916 -0.0624854 9.99853
6 2 19.7277 59.1796 10.1352
7 2 23.6345 59.3774 10.1672
8 2 27.869 59.1269 9.93111
9 2 31.8938 59.2741 10.1754
10 2 35.74 59.269 10.2236
11 2 39.7876 59.1787 10.055
12 2 43.7314 59.2327 9.96103
13 2 47.4529 59.3225 10.028
14 2 51.5854 59.3628 9.96005
15 2 55.6121 59.3037 9.94157
16 2 -0.157951 3.75474 10.0139
17 2 4.20443 3.8853 9.79549
18 2 7.80874 3.98228 10.0496
19 2 11.9407 3.91336 10.1257
20 2 15.88 3.95392 10.1623
21 2 19.8729 3.76602 10.0792
22 2 23.7411 3.84937 10.0167
23 2 27.8226 3.83819 9.96711
24 2 31.6973 3.78436 10.1312
25 2 35.831 3.88813 9.82014
26 2 39.7506 3.82269 10.0383
27 2 43.8011 3.96689 9.93023
28 2 47.4276 3.85404 10.1727
29 2 51.425 3.74861 9.98625
30 2 55.5376 3.84323 9.9364
31 2 0.0908587 7.77378 10.031
32 2 3.87002 7.85933 10.0333
33 2 7.99186 7.99464 9.91589
34 2 11.779 7.69628 9.91788
35 2 15.8005 7.70326 10.0899
36 2 19.7812 7.61471 10.0531
37 2 23.734 7.81319 10.1972
38 2 27.5916 7.80863 10.0698
39 2 31.7048 7.92516 10.0889
40 2 35.8215 7.79685 9.8067
41 2 39.6965 7.6516 10.0171
42 2 43.6303 7.90699 10.1216
43 2 47.5239 7.83211 10.1941
44 2 51.6631 7.83268 10.1193
45 2 55.4207 7.70853 10.0401
46 2 0.0331996 11.7611 10.0368
47 2 4.0048 11.7613 10.0298
48 2 8.08732 11.811 10.0199
49 2 11.9721 11.6065 10.0226
50 2 15.9226 11.8402 10.0896
51 2 19.8052 11.4635 10.2013
52 2 23.7874 11.7357 10.2619
53 2 27.9013 11.9056 10.0641
54 2 31.7879 11.6724 10.1427
55 2 35.7157 11.7154 10.0959
56 2 39.7128 11.6112 10.0009
57 2 43.6915 11.7825 9.82968
58 2 47.5501 11.753 9.77634
59 2 51.5827 11.8288 10.0377
60 2 55.4126 11.7057 9.9741
61 2 59.4909 15.8502 9.99124
62 2 4.06821 15.6742 10.1332
63 2 8.13664 15.7184 10.2313
64 2 12.0277 15.5862 10.0504
65 2 16.1295 15.8668 10.119
66 2 19.9152 15.4772 10.1962
67 2 23.7361 15.7202 10.2922
68 2 27.7103 15.648 10.0529
69 2 31.6501 15.6425 10.1895
70 2 35.7446 15.6592 10.0162
71 2 39.555 15.5585 9.98225
72 2 43.5989 15.6925 10.1069
73 2 47.8269 15.7159 10.0094
74 2 51.8149 15.9006 9.9809
75 2 55.4953 15.8521 9.99483
76 2 0.0350453 19.6138 9.92599
77 2 4.15806 19.7548 9.98938
78 2 7.98304 19.7857 9.97127
79 2 12.1462 19.5965 9.96916
80 2 16.1781 19.771 10.0432
81 2 20.0078 19.555 9.92255
82 2 23.8317 19.6474 9.98416
83 2 27.7521 19.6302 9.91427
84 2 31.8116 19.7754 9.98314
85 2 35.6491 19.7373 9.94749
86 2 39.7386 19.7095 10.1067
87 2 43.5095 19.8231 10.1214
88 2 47.5906 19.782 10.2117
89 2 51.5696 19.4995 10.0383
90 2 55.6359 19.9055 10.0592
91 2 0.24176 23.6577 9.97501
92 2 4.04909 23.7488 10.0346
93 2 7.96975 23.747 10.1128
94 2 12.0144 23.4275 10.2046
95 2 15.9539 23.6947 9.99031
96 2 19.805 23.5363 10.0824
97 2 24.1042 23.6611 9.97168
98 2 27.9681 23.5738 9.86846
99 2 31.8291 23.6023 9.92995
100 2 35.7247 23.5944 10.0832
101 2 39.771 23.7586 10.1444
102 2 43.634 23.9302 9.98735
103 2 47.8954 23.6607 10.1534
104 2 51.586 23.6092 9.93835
105 2 55.4966 23.756 10.0357
106 2 -0.0592339 27.7239 10.2703
107 2 3.97186 27.7154 10.1239
108 2 8.00217 27.5099 9.95097
109 2 11.8931 27.6724 10.0946
110 2 15.908 27.7434 10.0669
111 2 19.9548 27.554 10.1162
112 2 23.8865 27.5396 9.92163
113 2 27.8581 27.741 10.1149
114 2 31.7001 27.6739 10.0038
115 2 35.6375 27.7291 10.0923
116 2 39.7322 27.6503 9.93123
117 2 43.8618 27.7189 10.0412
118 2 47.5892 27.514 10.0323
119 2 51.5324 27.6897 10.1037
120 2 55.5952 27.7512 10.0889
121 2 0.12115 31.6198 10.0646
122 2 4.02658 31.6061 9.94135
123 2 7.9915 31.6877 10.2357
124 2 11.8825 31.4976 10.207
125 2 15.9644 31.5228 9.83558
126 2 20.034 31.5775 10.1082
127 2 23.8868 31.6828 10.181
128 2 27.9164 31.609 10.1258
129 2 31.8669 31.5961 10.0555
130 2 35.658 31.4074 10.2095
131 2 39.5649 31.4773 10.1093
132 2 43.6542 31.6202 10.1106
133 2 47.4647 31.4865 10.0431
134 2 51.5334 31.5852 10.2212
135 2 55.393 31.7476 10.0793
136 2 59.5076 35.6869 10.1643
137 2 4.16389 35.5132 10.1716
138 2 7.91045 35.5721 10.2483
139 2 12.18 35.4896 10.0018
140 2 16.1165 35.4518 10.0279
141 2 20.0667 35.6026 9.99327
142 2 23.8835 35.6127 10.152
143 2 27.8798 35.434 9.96845
144 2 31.7955 35.4703 10.0343
145 2 35.622 35.5802 10.1052
146 2 39.6084 35.4334 10.1451
147 2 43.5283 35.363 10.0618
148 2 47.6462 35.4621 10.0381
149 2 51.62 35.5519 10.1848
150 2 55.4702 35.6054 10.2109
151 2 59.6424 39.707 9.98004
152 2 4.08379 39.5783 10.1331
153 2 8.10645 39.4652 10.0221
154 2 11.9043 39.4126 10.0202
155 2 16.0557 39.6386 10.1105
156 2 19.9055 39.5758 10.1132
157 2 23.805 39.4372 10.2097
158 2 27.8283 39.3439 9.86063
159 2 31.8241 39.443 10.1482
160 2 35.6499 39.5802 10.0786
161 2 39.5209 39.6028 9.97045
162 2 43.7183 39.3756 9.96064
163 2 47.4332 39.5695 9.85401
164 2 51.5296 39.4068 10.0515
165 2 55.5321 39.4056 10.0894
166 2 59.546 43.5414 10.1342
167 2 3.96218 43.528 10.0492
168 2 8.13033 43.4479 10.0933
169 2 11.9908 43.3608 10.0458
170 2 15.6604 43.4104 10.2359
171 2 20.037 43.4716 9.95446
172 2 23.899 43.5084 10.0228
173 2 27.8147 43.5774 10.121
174 2 31.6219 43.2185 10.2082
175 2 35.8566 43.4807 10.0067
176 2 39.8125 43.5842 10.009
177 2 43.749 43.4676 9.96992
178 2 47.6738 43.2857 10.0715
179 2 51.5084 43.4508 10.2133
180 2 55.5456 43.3364 9.90425
181 2 59.5837 47.61 10.0719
182 2 4.03967 47.5885 10.0245
183 2 7.93949 47.2111 9.83197
184 2 12.0358 47.4791 10.1195
185 2 15.8774 47.3619 10.2171
186 2 19.8525 47.411 10.1165
187 2 23.9279 47.6431 9.91771
188 2 27.8356 47.4032 10.056
189 2 31.7763 47.3599 10.0281
190 2 35.7518 47.5687 10.1253
191 2 39.609 47.3874 10.0268
192 2 43.7161 47.3473 10.0451
193 2 47.7041 47.2244 9.91486
194 2 51.5901 47.2592 9.95781
195 2 55.5406 47.3117 10.0203
196 2 -0.151792 51.5576 10.2176
197 2 4.07871 51.0624 9.9066
198 2 7.8474 51.4254 10.089
199 2 12.2069 51.2992 9.94455
200 2 15.8623 51.381 10.0648
201 2 19.974 51.2026 9.80557
202 2 23.969 51.4002 10.0714
203 2 27.864 51.6049 10.0067
204 2 31.8987 51.2909 9.8434
205 2 35.8154 51.3353 10.0383
206 2 39.7953 51.3567 10.0023
207 2 43.5936 51.2472 10.0678
208 2 47.5585 51.4117 10.1137
209 2 51.6485 51.365 9.99038
210 2 55.58 51.313 9.98612
211 2 0.0599129 55.3819 10.1654
212 2 4.02742 55.2878 10.1097
213 2 8.04571 55.3763 10.151
214 2 12.0551 55.2247 10.1571
215 2 15.8528 55.2575 10.1404
216 2 19.7823 55.1764 9.97524
217 2 23.8093 55.3199 10.2393
218 2 27.798 55.495 9.93763
219 2 31.7934 55.2142 10.0713
220 2 35.8284 55.3514 10.0335
221 2 39.7603 55.1167 9.93754
222 2 43.5414 55.1477 9.86448
223 2 47.6691 55.5029 9.87881
224 2 51.643 55.253 9.95881
225 2 55.5845 55.3923 9.97324
226 2 0.0720001 59.3906 14.0407
227 2 4.22102 59.4085 13.9265
228 2 8.1166 59.3667 14.0873
229 2 12.0007 59.3671 14.2697
230 2 16.0604 -0.0518294 14.0111
231 2 19.8102 0.0273248 14.159
232 2 23.8784 -0.148468 14.0182
233 2 27.6905 59.5457 13.9172
234 2 31.7766 59.47 13.8904
235 2 35.7442 59.4542 13.983
236 2 39.5275 -0.0520865 14.1343
237 2 43.6711 59.2404 13.9086
238 2 47.6512 -0.215336 14.2184
239 2 51.6152 0.0197065 14.0431
240 2 55.4283 59.2653 14.0411
241 2 0.169011 3.94563 13.9831
242 2 4.21094 3.76767 14.0541
243 2 7.98602 3.89052 14.0227
244 2 11.8998 3.94128 14.1157
245 2 15.7489 3.72542 14.1397
246 2 19.7998 3.91773 14.1217
247 2 23.8436 3.9641 13.9504
248 2 27.9905 4.0516 14.1756
249 2 31.7088 3.977 13.8407
250 2 35.6378 4.08252 14.0934
251 2 39.9532 3.90632 14.0307
252 2 43.7536 3.78735 14.0883
253 2 47.5814 3.70915 13.8112
254 2 51.3968 3.81933 13.9386
255 2 55.5308 3.79636 13.9659
256 2 0.0163853 7.74268 14.077
257 2 4.07118 7.60368 13.8895
258 2 8.02945 8.01292 13.9605
259 2 11.8856 8.05481 13.9908
260 2 15.876 7.74878 14.1258
261 2 19.8904 7.84074 13.981
262 2 23.869 7.87434 14.1817
263 2 27.6703 7.60121 14.054
264 2 31.9469 7.83899 14.0459
265 2 35.8357 7.7507 14.0457
266 2 39.6581 7.72658 14.1018
267 2 43.7099 8.02822 14.1708
268 2 48.0052 7.88404 13.9705
269 2 51.7377 7.74694 14.0405
270 2 55.478 7.81623 14.0331
271 2 0.19978 11.7017 14.1861
272 2 4.23365 11.7512 14.0678
273 2 8.00263 11.9864 13.917
274 2 11.9337 11.9962 14.213
275 2 16.0312 11.8975 14.1464
276 2 19.7865 11.6496 14.1844
277 2 23.8695 11.6815 14.0521
278 2 27.9295 11.8223 14.1739
279 2 31.6896 11.6501 14.1507
280 2 35.898 11.7378 14.0277
281 2 39.8557 11.9331 14.0202
282 2 43.6825 11.8946 14.1503
283 2 47.7746 11.7985 14.0183
284 2 51.664 11.8431 14.0227
285 2 55.6487 11.8727 14.0536
286 2 0.0505378 15.7629 13.9677
287 2 3.99871 15.7904 14.1132
288 2 7.93168 15.8905 14.1543
289 2 12.0168 15.6836 13.9341
290 2 15.8609 16.0506 13.9603
291 2 19.9393 15.8351 14.1149
292 2 23.7909 15.624 14.173
293 2 28.0009 15.7266 13.998
294 2 31.9202 15.8141 13.9336
295 2 35.828 15.8749 14.1028
296 2 39.8538 15.7669 13.9571
297 2 43.6199 15.6378 13.9434
298 2 47.5234 15.7925 14.0663
299 2 51.5892 15.6056 13.9289
300 2 55.3585 15.7699 14.1406
301 2 0.0235113 19.526 13.9728
302 2 3.92437 19.6495 14.176
303 2 7.91663 19.6274 14.1016
304 2 11.8843 19.9201 13.9199
305 2 15.8967 19.7891 14.2242
306 2 20.1901 19.9093 14.0399
307 2 24.0406 19.5256 13.9698
308 2 27.9351 19.799 14.1417
309 2 31.8515 19.7188 14.173
310 2 35.751 19.8348 14.2159
311 2 39.5332 19.7132 14.0546
312 2 43.4694 19.7303 14.1397
313 2 47.6824 19.6747 14.0664
314 2 51.478 19.6383 13.9546
315 2 55.513 19.8518 13.8933
316 2 0.227357 23.824 14.0925
317 2 4.07514 23.6437 14.096
318 2 8.05199 23.6902 14.0443
319 2 11.9816 23.6346 14.0365
320 2 15.7881 23.9184 13.9702
321 2 19.9635 23.6897 14.1389
322 2 24.0606 23.5324 13.9886
323 2 27.7937 23.7765 13.7379
324 2 31.7358 23.8556 13.8979
325 2 35.7389 23.7512 14.0544
326 2 39.6177 23.5721 14.0881
327 2 43.6438 23.7871 14.0336
328 2 47.5668 23.6753 13.9752
329 2 51.7329 23.7137 14.125
330 2 55.4973 23.7393 14.1038
331 2 -0.0345899 27.9569 13.9802
332 2 4.19443 27.6223 13.9175
333 2 8.05556 27.6547 14.1369
334 2 12.1078 27.6882 14.0049
335 2 15.9417 27.7098 14.0473
336 2 20.0497 27.5834 13.9846
337 2 23.8804 27.742 13.9011
338 2 27.8233 27.7039 13.8248
339 2 31.6203 27.6048 13.9693
340 2 35.8852 27.5533 14.0164
341 2 39.8297 27.6712 14.08
342 2 43.6484 27.7527 14.0347
343 2 47.85 27.5924 13.9718
344 2 51.5922 27.7981 14.1607
345 2 55.6281 27.6383 13.9816
346 2 0.176063 31.6732 13.9637
347 2 4.12677 31.6367 13.996
348 2 7.96211 31.6297 14.081
349 2 11.9623 31.6247 13.9502
350 2 16.0021 31.6598 13.9987
351 2 19.9646 31.7567 14.0372
352 2 23.9493 31.6288 14.0741
353 2 27.6844 31.6667 14.0663
354 2 31.7514 31.5302 13.8567
355 2 35.6313 31.7794 14.0954
356 2 39.5563 31.7577 13.8741
357 2 43.7788 31.5418 14.1166
358 2 47.7179 31.7532 14.1066
359 2 51.535 31.6983 14.2058
360 2 55.5734 31.7902 14.0472
361 2 0.252602 35.5715 14.1585
362 2 4.1275 35.5597 14.0375
363 2 7.96165 35.4719 14.0123
364 2 12.0232 35.753 13.9657
365 2 15.9727 35.7118 14.0769
366 2 19.7845 35.693 14.2734
367 2 23.7772 35.691 14.1004
368 2 28.1007 35.5694 14.0976
369 2 31.7441 35.514 14.1555
370 2 35.7103 35.4868 14.2089
371 2 39.7146 35.5847 14.0306
372 2 43.7634 35.7059 14.0051
373 2 47.4995 35.6342 14.164
374 2 51.696 35.6653 13.9484
375 2 55.6275 35.7342 14.0465
376 2 0.238228 39.6596 13.8706
377 2 4.25658 39.6028 14.037
378 2 8.13148 39.7083 14.2159
379 2 12.0315 39.4246 14.032
380 2 16.079 39.5383 14.0754
381 2 19.9126 39.5867 14.0568
382 2 23.8344 39.5925 14.1701
383 2 27.6262 39.4053 13.9511
384 2 31.8491 39.5316 13.997
385 2 35.8015 39.6547 14.0476
386 2 39.9455 39.5165 13.9052
387 2 43.5187 39.4186 14.1124
388 2 47.7823 39.6177 13.9738
389 2 51.7118 39.6109 14.1246
390 2 55.7028 39.6363 14.0986
391 2 -0.0206555 43.6554 14.021
392 2 4.10286 43.4806 13.9634
393 2 8.19706 43.5069 13.9482
394 2 11.9799 43.3263 14.1362
395 2 15.928 43.5159 13.9682
396 2 19.8528 43.7595 14.037
397 2 23.7686 43.716 14.0312
398 2 27.7262 43.3868 14.1487
399 2 31.6981 43.322 14.0913
400 2 35.7896 43.4685 14.1301
401 2 39.6328 43.5037 14.0836
402 2 43.4873 43.4137 14.0426
403 2 47.6373 43.4334 14.1122
404 2 51.6209 43.3742 14.1019
405 2 55.5454 43.6993 13.8455
406 2 -0.083571 47.5597 14.0847
407 2 3.98096 47.4367 14.0301
408 2 8.15411 47.4993 13.9873
409 2 12.0349 47.3932 14.1766
410 2 15.9422 47.4317 14.202
411 2 19.8612 47.5834 14.0346
412 2 24.1081 47.4194 13.9079
413 2 27.878 47.5504 14.1502
414 2 31.6607 47.402 14.1818
415 2 35.7027 47.309 13.9553
416 2 39.6177 47.3024 13.9802
417 2 43.7924 47.4339 13.9024
418 2 47.453 47.5331 14.0816
419 2 51.5548 47.404 13.9702
420 2 55.4427 47.495 14.0793
421 2 0.115829 51.5945 14.0574
422 2 4.01262 51.5363 14.1072
423 2 8.09827 51.3804 13.9775
424 2 12.0244 51.4441 14.0007
425 2 15.9138 51.4642 14.2682
426 2 19.9688 51.3593 13.9336
427 2 23.9861 51.5159 13.9929
428 2 27.9571 51.6088 13.9725
429 2 31.7015 51.4173 13.9869
430 2 35.5951 51.383 14.0042
431 2 39.8514 51.3964 13.8757
432 2 43.7941 51.2406 14.066
433 2 47.7174 51.4394 14.0027
434 2 51.5031 51.3521 13.8452
435 2 55.3066 51.5142 14.1038
436 2 0.0804606 55.488 14.1621
437 2 3.83004 55.6038 13.9505
438 2 8.0261 55.4377 14.034
439 2 12.068 55.4337 13.9721
440 2 16.0863 55.2953 14.1237
441 2 19.7358 55.4286 14.1719
442 2 23.8454 55.3117 14.1284
443 2 27.7526 55.4823 14.0534
444 2 31.7811 55.2732 13.9693
445 2 35.7882 55.3108 14.0756
446 2 39.7333 55.2834 13.9642
447 2 43.6193 55.3453 14.0337
448 2 47.6525 55.3893 13.9921
449 2 51.3861 55.4313 14.0132
450 2 55.5764 55.4018 13.9875
451 2 0.182421 0.1204 18.0722
452 2 4.28993 0.0391423 18.0195
453 2 8.13623 59.4001 18.0611
454 2 11.8659 59.4341 18.129
455 2 15.9139 59.3719 18.0733
456 2 19.9077 59.3037 18.0906
457 2 23.9448 59.2466 17.8515
458 2 27.769 0.199453 18.0761
459 2 31.8543 59.2073 18.0505
460 2 35.7414 59.2645 17.8453
461 2 39.6019 -0.0507917 18.1598
462 2 43.7855 59.3852 18.1411
463 2 47.4931 0.0553751 18.1791
464 2 51.7347 59.3117 18.0624
465 2 55.4893 59.3586 18.035
466 2 0.209797 4.06291 17.9503
467 2 4.22038 3.95852 18.038
468 2 7.9949 4.08041 17.9648
469 2 12.035 3.98685 18.1225
470 2 15.8584 4.0476 18.1593
471 2 19.9433 3.71336 18.037
472 2 23.9736 3.79872 18.1799
473 2 27.9193 3.91946 18.1164
474 2 31.8963 3.78495 18.0889
475 2 35.7666 4.07253 17.9796
476 2 39.7615 3.81144 18.0679
477 2 43.6809 3.93598 18.0208
478 2 47.4558 3.82564 18.1025
479 2 51.5823 3.95356 17.9947
480 2 55.587 4.0106 17.9709
481 2 0.118271 7.86909 18.0597
482 2 4.04753 7.85646 17.9638
483 2 8.0177 7.85963 18.0062
484 2 11.777 8.02045 18.1136
485 2 15.833 7.8748 18.1532
486 2 19.9166 7.87136 17.9972
487 2 23.5971 7.75681 18.2817
488 2 27.7643 7.9255 17.9885
489 2 31.8091 7.78845 18.0526
490 2 35.8999 7.89137 17.9397
491 2 39.5901 7.99089 18.2003
492 2 43.4198 7.81351 17.9744
493 2 47.3715 7.86154 18.0158
494 2 51.6197 7.96116 17.9629
495 2 55.5609 8.0203 17.9388
496 2 0.0830986 11.9529 18.0506
497 2 3.98685 11.9316 18.0178
498 2 8.06643 12.0143 18.0861
499 2 12.0129 11.9312 18.0422
500 2 15.8077 11.8556 18.2359
501 2 19.7224 11.9462 18.0635
502 2 23.802 11.8638 18.0781
503 2 27.5716 11.8793 18.022
504 2 31.7358 11.8587 17.9461
505 2 35.8073 11.8913 18.0214
506 2 39.7422 11.8208 17.9042
507 2 43.6243 11.7292 18.1048
508 2 47.3499 11.9206 17.9919
509 2 51.5083 11.8188 18.143
510 2 55.4246 11.851 17.8684
511 2 59.4 15.8979 18.0693
512 2 3.93319 15.648 18.0464
513 2 7.92651 15.7781 18.0735
514 2 12.0968 15.8333 18.117
515 2 15.8432 16.0002 17.848
516 2 19.9717 15.7601 18.0369
517 2 23.9232 15.7751 17.9605
518 2 27.6021 15.7154 18.1317
519 2 31.9978 15.7439 18.1269
520 2 35.5942 15.941 18.0725
521 2 39.4632 15.7528 18.1489
522 2 43.3306 15.8659 17.9847
523 2 47.4399 15.8425 17.8268
524 2 51.7438 15.7603 17.9119
525 2 55.5277 15.7981 18.1361
526 2 0.0588338 19.8686 18.0962
527 2 3.98136 19.7668 18.0178
528 2 8.09576 19.8378 17.9742
529 2 11.9956 19.7554 18.0187
530 2 15.9633 19.7892 18.0276
531 2 20.0703 19.9219 18.0651
532 2 23.9089 19.6418 17.9515
533 2 27.8537 19.8849 18.0119
534 2 31.6025 19.84 17.9699
535 2 35.5924 19.8662 17.8894
536 2 39.5693 19.9259 17.9572
537 2 43.3744 19.5767 17.8809
538 2 47.7384 19.7648 18.0422
539 2 51.6087 19.9263 17.9064
540 2 55.3508 19.9164 17.8426
541 2 0.147893 23.7401 17.8997
542 2 4.03354 23.702 18.1109
543 2 8.12766 23.7064 18.0413
544 2 11.9673 23.7455 17.9279
545 2 16.0312 23.8635 18.12
546 2 19.9796 23.8365 17.9144
547 2 23.8729 23.726 17.9128
548 2 27.7374 23.8679 18.0126
549 2 31.8165 23.805 18.0653
550 2 35.8295 24.0214 18.1321
551 2 39.6002 23.8811 18.0408
552 2 43.6621 23.7602 18.1261
553 2 47.6243 23.8443 18.0602
554 2 51.4351 23.9083 18.0404
555 2 55.6506 23.8201 18.0865
556 2 0.145398 27.7347 17.9707
557 2 3.99931 27.6396 18.1884
558 2 8.10165 27.7095 18.0091
559 2 12.1078 27.7996 18.0073
560 2 16.0009 27.7839 18.0262
561 2 19.8972 27.8583 17.8844
562 2 24.1186 27.694 17.9186
563 2 27.7598 27.7129 17.9148
564 2 31.6514 27.8549 17.8582
565 2 35.6755 27.8838 17.9739
566 2 39.8392 27.8517 17.9045
567 2 43.6472 27.7147 17.9993
568 2 47.6589 27.9289 17.9198
569 2 51.5343 27.8849 18.1219
570 2 55.6145 27.5089 18.001
571 2 -0.0586745 31.5327 17.9032
572 2 3.9899 31.5785 18.0739
573 2 8.21523 31.6902 17.9127
574 2 12.0511 31.6496 18.0563
575 2 16.1402 31.6482 18.0518
576 2 19.9562 31.8035 17.9755
577 2 23.865 31.8466 17.9264
578 2 27.7974 32.0313 17.9821
579 2 31.6673 31.6385 18.2091
580 2 35.7186 31.4992 18.1449
581 2 39.7499 31.7437 18.1889
582 2 43.5821 31.6411 18.1815
583 2 47.6348 31.683 18.0631
584 2 51.5801 31.6451 18.0283
585 2 55.4388 31.7821 18.095
586 2 0.272697 35.5292 17.8743
587 2 4.08036 35.4581 18.1237
588 2 8.06608 35.7233 18.1534
589 2 11.9574 35.6859 17.9976
590 2 15.9434 35.4917 18.1047
591 2 20.0227 35.6828 18.0408
592 2 23.9018 35.6168 18.0564
593 2 27.7038 35.7515 17.9408
594 2 31.8655 35.6075 17.9875
595 2 35.5995 35.5587 18.0961
596 2 39.6762 35.551 18.0132
597 2 43.6625 35.6327 18.1972
598 2 47.6926 35.6853 17.8795
599 2 51.4909 35.7354 18.2178
600 2 55.5616 35.6031 18.1534
601 2 0.168936 39.6499 18.0724
602 2 3.96968 39.6351 18.0224
603 2 7.98951 39.4625 18.0872
604 2 12.0105 39.6321 18.0342
605 2 15.9474 39.5447 18.025
606 2 19.7473 39.7264 18.0179
607 2 23.731 39.648 17.9235
608 2 27.911 39.5204 18.106
609 2 31.8248 39.5632 18.1177
610 2 35.6726 39.6432 18.1224
611 2 39.7381 39.7591 18.0815
612 2 43.7234 39.5946 18.0927
613 2 47.6282 39.6239 18.2317
614 2 51.6634 39.6695 17.9275
615 2 55.7751 39.5718 17.9371
616 2 0.14954 43.4531 17.9976
617 2 4.04035 43.7174 18.0671
618 2 7.93896 43.4645 18.1425
619 2 11.8608 43.5564 18.0338
620 2 15.8532 43.6061 17.8789
621 2 19.9286 43.7056 18.1581
622 2 23.6853 43.555 18.0851
623 2 27.7894 43.5173 18.0763
624 2 31.6469 43.4022 17.9043
625 2 35.8714 43.7341 18.1135
626 2 39.7243 43.6299 17.9849
627 2 43.7562 43.6824 18.0476
628 2 47.7353 43.522 17.9237
629 2 51.7828 43.5922 18.0825
630 2 55.8119 43.3995 17.9919
631 2 0.169316 47.3799 17.8714
632 2 4.16428 47.6536 18.1371
633 2 8.00318 47.4493 17.9997
634 2 11.8027 47.6406 18.0097
635 2 15.8309 47.5441 18.0656
636 2 19.9194 47.6042 18.0908
637 2 23.9888 47.4843 17.9004
638 2 28.0301 47.3767 17.9793
639 2 31.7575 47.5851 18.0353
640 2 35.8117 47.6846 17.8902
641 2 39.8236 47.5669 18.053
642 2 43.7102 47.5683 18.0193
643 2 47.6582 47.505 17.9313
644 2 51.6106 47.5601 17.9424
645 2 55.5411 47.4814 18.0857
646 2 0.0446741 51.5176 18.0325
647 2 4.11488 51.5104 17.8084
648 2 8.07417 51.6194 17.9154
649 2 11.9634 51.4726 18.0591
650 2 15.9797 51.3692 18.2027
651 2 20.1166 51.3699 17.9803
652 2 23.7997 51.5743 18.0114
653 2 27.758 51.5053 17.9971
654 2 31.8722 51.4215 18.2524
655 2 35.8646 51.4988 18.0458
656 2 39.8379 51.5624 17.7969
657 2 43.7047 51.2706 17.8264
658 2 47.8447 51.535 17.7974
659 2 51.606 51.5268 17.9663
660 2 55.3468 51.4403 18.1269
661 2 0.0616838 55.4621 17.9627
662 2 3.8351 55.5978 17.9646
663 2 7.88359 55.3729 18.0244
664 2 11.9866 55.3821 17.9531
665 2 16.09 55.3591 18.0831
666 2 19.9119 55.5457 18.0011
667 2 23.9834 55.4795 17.9873
668 2 27.9814 55.469 17.9319
669 2 31.8035 55.4461 17.9567
670 2 35.6641 55.2323 17.9741
671 2 39.7108 55.532 18.1702
672 2 43.5438 55.138 18.1531
673 2 47.6774 55.6009 17.9774
674 2 51.5207 55.4456 17.9174
675 2 55.547 55.3391 17.9145
676 2 59.4845 59.6728 22.1056
677 2 3.94956 0.0958191 21.9943
678 2 7.95465 -0.0493823 22.0648
679 2 11.7732 0.107381 21.9232
680 2 15.7954 59.3197 22.0811
681 2 19.8699 0.251449 22.106
682 2 23.8621 59.2521 22.1185
683 2 27.6868 -0.056342 21.9795
684 2 31.7709 -0.06053 21.9915
685 2 35.8993 -0.0743065 22.1222
686 2 39.7596 59.3924 22.1702
687 2 43.789 -0.0155102 22.0591
688 2 47.8563 -0.0780616 22.0822
689 2 51.5864 59.4163 22.0417
690 2 55.5025 0.0844615 22.0346
691 2 0.0296206 4.23404 22.0764
692 2 4.18225 4.24243 21.9623
693 2 8.02813 3.97705 22.0295
694 2 11.9681 4.08223 22.1654
695 2 16.0181 4.19182 21.9719
696 2 19.8956 3.80875 21.9793
697 2 23.6995 3.80275 22.0187
698 2 27.6909 3.93815 22.0048
699 2 31.8163 3.95438 22.0367
700 2 35.7097 4.05385 22.0002
701 2 39.7533 3.93796 22.2449
702 2 43.6743 3.93071 22.1337
703 2 47.6077 3.94987 21.9703
704 2 51.6652 3.99765 21.988
705 2 55.3891 4.24374 21.8301
706 2 0.243959 8.051 22.0601
707 2 4.065 8.15237 22.0234
708 2 7.97461 8.11411 22.0029
709 2 11.8834 7.97895 21.9234
710 2 15.7236 7.76045 22.0497
711 2 19.8288 7.78046 22.0381
712 2 23.6939 7.94118 22.1905
713 2 28.0165 8.04509 21.7752
714 2 31.7592 8.21633 21.7903
715 2 35.7799 7.94192 22.1539
716 2 39.5867 7.90028 22.1274
717 2 43.5283 8.05388 22.1362
718 2 47.6231 7.88348 22.1817
719 2 51.4321 8.06236 21.9769
720 2 55.6378 8.12069 21.9342
721 2 59.4264 11.9777 22.067
722 2 4.31956 11.954 21.8596
723 2 8.11352 12.0507 22.0378
724 2 12.008 11.9046 21.9014
725 2 15.9728 11.906 22.1411
726 2 19.8577 12.0191 22.0121
727 2 24.0558 11.9893 21.811
728 2 27.9552 11.8762 21.9476
729 2 31.6676 11.855 21.965
730 2 35.5893 11.8835 21.8669
731 2 39.6569 11.9818 22.1042
732 2 43.599 11.8379 21.9001
733 2 47.6288 12.0415 21.9087
734 2 51.5104 12.0157 21.9159
735 2 55.4336 11.9256 22.184
736 2 -0.0318873 16.1545 22.0892
737 2 3.9269 15.9737 22.093
738 2 7.86158 16.0829 21.9204
739 2 12.0348 15.8334 22.0581
740 2 15.9322 15.923 21.981
741 2 19.7585 16.0185 21.9616
742 2 23.882 16.0515 22.0611
743 2 27.7453 16.054 21.8928
744 2 31.7024 15.8571 22.1166
745 2 35.7314 15.9862 21.9962
746 2 39.6459 15.9498 22.0353
747 2 43.7054 15.9886 22.1404
748 2 47.5698 15.9993 22.051
749 2 51.5189 15.9169 22.0399
750 2 55.5011 15.9348 21.8732
751 2 -0.124321 19.838 22.0518
752 2 3.93597 19.7898 22.0785
753 2 7.9478 19.8713 22.0695
754 2 11.6843 19.8322 21.8497
755 2 16.0846 20.011 22.0594
756 2 19.963 19.8251 21.858
757 2 23.8269 20.0552 22.1284
758 2 28.0124 20.0057 22.0261
759 2 31.8819 19.86 22.1487
760 2 35.6652 19.7867 22.1912
761 2 39.6225 19.8489 21.9622
762 2 43.5749 19.8696 22.0045
763 2 47.6339 19.8456 21.8023
764 2 51.5805 19.8136 21.9157
765 2 55.487 19.9999 21.9806
766 2 0.147655 23.7878 21.9044
767 2 3.90438 23.8433 22.1716
768 2 7.87813 23.9629 22.0124
769 2 11.8296 23.8343 21.8414
770 2 15.9474 24.0288 22.0505
771 2 19.7548 23.9214 22.0225
772 2 23.7805 23.9618 22.1466
773 2 27.7462 23.8979 22.0161
774 2 31.8962 23.7818 21.9537
775 2 35.8474 23.8455 22.0243
776 2 39.5082 23.9182 22.0236
777 2 43.4798 23.7297 21.9688
778 2 47.4724 24.019 21.9498
779 2 51.4698 23.9761 21.9403
780 2 55.51 23.8016 22.0518
781 2 59.5427 27.6998 22.1449
782 2 4.0506 27.7729 22.056
783 2 8.09469 27.7302 22.057
784 2 12.0757 27.8778 21.9257
785 2 15.8544 27.9797 21.9122
786 2 19.8676 27.8175 21.9445
787 2 23.7443 27.7437 22.1891
788 2 27.7975 27.8265 21.9252
789 2 31.8632 27.7955 21.9423
790 2 35.8295 27.7335 21.8992
791 2 39.606 27.8166 22.0184
792 2 43.6035 27.7131 22.0703
793 2 47.6333 27.7292 21.9594
794 2 51.6659 27.8529 22.1788
795 2 55.5415 27.7355 21.9862
796 2 59.6813 31.6231 22.0302
797 2 4.12512 31.4297 22.0107
798 2 8.10602 31.7569 21.9727
799 2 11.9488 31.8033 21.9389
800 2 15.8806 31.9498 21.8601
801 2 19.9441 31.6474 22.097
802 2 23.7082 31.733 21.9887
803 2 27.897 31.6363 21.9994
804 2 31.7194 31.7142 22.0568
805 2 35.7482 31.7962 22.0369
806 2 39.7418 31.7142 22.0348
807 2 43.5962 31.8896 21.9911
808 2 47.6496 31.9046 22.0674
809 2 51.4295 31.67 22.1369
810 2 55.5875 31.4766 22.1084
811 2 -0.00131582 35.7048 22.1471
812 2 4.0581 35.6389 21.972
813 2 8.13874 35.719 22.1453
814 2 11.9061 35.7514 22.1224
815 2 15.9409 35.6631 22.1134
816 2 19.7529 35.7154 21.958
817 2 23.7984 35.838 21.9704
818 2 27.7064 35.5269 21.9009
819 2 31.9078 35.6266 22.1607
820 2 35.7552 35.5885 22.0948
821 2 39.527 35.6902 22.0568
822 2 43.5732 35.8883 22.0375
823 2 47.7184 35.6415 21.8971
824 2 51.6768 35.6298 22.1069
825 2 55.609 35.7745 21.9576
826 2 0.217004 39.511 22.05
827 2 4.10139 39.7565 22.0246
828 2 7.7612 39.7729 21.8499
829 2 12.1688 39.7422 21.9232
830 2 15.8466 39.7146 21.9762
831 2 19.6619 39.5811 21.8219
832 2 23.7798 39.6862 22.0425
833 2 27.7031 39.799 21.9984
834 2 31.8121 39.6258 22.1489
835 2 35.6089 39.4991 21.9442
836 2 39.6176 39.6544 22.0766
837 2 43.7067 39.6886 22.1129
838 2 47.6098 39.8714 22.057
839 2 51.6109 39.5405 22.0355
840 2 55.5503 39.5819 22.0022
841 2 0.163557 43.4998 21.9635
842 2 4.25202 43.7468 22.103
843 2 7.96052 43.594 22.1632
844 2 12.125 43.6339 22.1916
845 2 15.8048 43.5047 22.1039
846 2 19.8823 43.6677 22.1489
847 2 23.8971 43.5894 21.9581
848 2 27.9458 43.4902 21.9947
849 2 31.9025 43.6789 21.9574
850 2 35.7292 43.7478 21.9276
851 2 39.5942 43.6237 22.0633
852 2 43.6145 43.6787 21.8208
853 2 47.7153 43.4871 21.9283
854 2 51.5555 43.4469 22.1462
855 2 55.774 43.6177 21.8561
856 2 0.228172 47.6553 21.7015
857 2 4.0823 47.5566 22.0461
858 2 8.09642 47.2219 21.9239
859 2 11.9544 47.5487 21.9301
860 2 15.9936 47.5671 21.8335
861 2 19.7972 47.5686 22.0763
862 2 23.947 47.4833 22.1769
863 2 27.9929 47.4906 21.9508
864 2 31.7445 47.8178 21.9835
865 2 35.6335 47.6414 21.9079
866 2 39.8702 47.5184 22.0339
867 2 43.7815 47.3083 22.0785
868 2 47.5516 47.555 22.062
869 2 51.4986 47.4532 22.088
870 2 55.4789 47.4543 21.9164
871 2 -0.00507509 51.5596 21.9609
872 2 3.99181 51.2898 21.6759
873 2 8.15028 51.3527 21.9479
874 2 12.0802 51.5161 22.059
875 2 15.9033 51.6163 21.9573
876 2 19.937 51.3818 22.1832
877 2 23.865 51.5542 22.1046
878 2 27.5133 51.4751 21.9705
879 2 31.6096 51.5654 22.0176
880 2 35.8264 51.5932 22.1173
881 2 39.7328 51.4779 22.0605
882 2 43.6707 51.6129 21.9789
883 2 47.3994 51.4343 21.9761
884 2 51.6305 51.4482 21.9079
885 2 55.579 51.3847 21.9929
886 2 0.0104828 55.4361 21.7028
887 2 4.25074 55.2074 22.0112
888 2 8.1093 55.4093 22.0635
889 2 12.1206 55.5167 21.976
890 2 16.0049 55.4 21.9406
891 2 19.7316 55.4377 21.8518
892 2 23.7405 55.5288 22.0811
893 2 27.6198 55.4334 22.1295
894 2 31.5953 55.3637 21.9863
895 2 35.7123 55.3414 22.0406
896 2 39.456 55.2369 22.0665
897 2 43.7271 55.3724 21.9485
898 2 47.6938 55.3125 21.9411
899 2 51.4824 55.4326 21.9645
900 2 55.4308 55.4638 21.946
901 2 -0.0672473 0.0489213 26.0172
902 2 3.92091 0.0859772 25.7435
903 2 7.92677 59.5341 25.8867
904 2 11.9978 0.198646 26.0609
905 2 15.8267 -0.024716 26.1254
906 2 19.711 0.0774584 25.83
907 2 23.6947 0.0600002 25.9286
908 2 27.9174 -0.042624 26.0966
909 2 31.7286 59.465 25.9753
910 2 35.7636 0.195697 25.9078
911 2 39.724 0.002163 26.0174
912 2 43.789 0.1436 25.9065
913 2 47.5909 0.206159 25.9117
914 2 51.5259 59.6266 26.1627
915 2 55.4269 59.377 25.9855
916 2 0.18731 4.00837 26.0227
917 2 4.06775 3.93113 25.919
918 2 8.03322 4.12858 25.9626
919 2 12.1103 3.96413 25.9573
920 2 15.67 4.07216 26.0093
921 2 19.8478 3.84739 26.0465
922 2 23.6505 4.08005 25.986
923 2 27.6576 4.16384 25.8036
924 2 31.4966 4.09736 25.9754
925 2 35.5035 3.91003 26.0183
926 2 39.6137 4.20186 26.1001
927 2 43.6248 4.12484 26.0935
928 2 47.5109 4.0986 26.2086
929 2 51.5988 3.9505 25.8585
930 2 55.4498 4.0792 26.0849
931 2 59.3872 8.08381 25.9146
932 2 4.00538 8.08845 26.1288
933 2 7.84152 8.03473 25.9898
934 2 12.0294 8.22113 25.9081
935 2 15.7707 7.91268 26.1828
936 2 19.9736 7.97717 25.9211
937 2 23.8022 8.03513 26.2445
938 2 27.4863 8.03777 25.8868
939 2 31.5719 8.0091 25.9523
940 2 35.611 8.06311 25.876
941 2 39.4622 7.8997 25.9964
942 2 43.5718 8.19722 26.127
943 2 47.2596 7.84274 25.9253
944 2 51.1691 7.91036 25.8871
945 2 55.4689 7.87435 26.024
946 2 -0.123823 11.9984 25.9765
947 2 3.89884 11.9537 26.0081
948 2 8.01982 12.0577 26.1277
949 2 11.805 12.1406 25.8804
950 2 15.7619 11.824 26.1012
951 2 19.7711 11.9979 25.944
952 2 23.5293 12.0334 25.9779
953 2 27.689 12.0231 26.1298
954 2 31.6486 11.9768 25.9188
955 2 35.6601 11.8101 25.971
956 2 39.5534 11.9286 26.2583
957 2 43.5469 11.9683 26.0042
958 2 47.5223 11.9789 26.1743
959 2 51.2849 11.922 25.7588
960 2 55.2152 11.869 25.912
961 2 59.3451 15.813 25.9913
962 2 4.06431 15.7234 25.9081
963 2 7.93033 15.9147 25.8439
964 2 11.9837 16.0909 25.8636
965 2 15.9254 16.0538 25.794
966 2 19.758 15.8627 26.1765
967 2 23.8727 15.8023 26.131
968 2 27.7083 15.9637 25.905
969 2 31.8053 16.0125 26.1338
970 2 35.6949 15.8745 25.9406
971 2 39.5843 15.7063 26.0795
972 2 43.4374 15.9284 25.9588
973 2 47.4482 15.8625 26.0615
974 2 51.4965 15.8841 26.0195
975 2 55.3183 15.9919 25.9273
976 2 59.2776 19.7046 26.006
977 2 3.86409 19.8181 25.8844
978 2 7.8202 19.8158 25.9233
979 2 11.8544 19.7918 26.0529
980 2 15.8324 20.0659 25.922
981 2 19.8555 19.9687 26.0737
982 2 23.8263 19.8628 26.1567
983 2 27.6287 19.942 26.0103
984 2 31.7781 19.9372 26.1076
985 2 35.7015 19.8149 26.0612
986 2 39.6149 19.9991 26.09
987 2 43.5211 19.7691 25.9719
988 2 47.6222 19.7553 26.0535
989 2 51.3137 19.9784 25.7777
990 2 55.3431 20.0797 25.8425
991 2 59.515 23.8116 26.1486
992 2 4.05464 23.8455 26.0772
993 2 8.12909 23.7984 26.081
994 2 11.8788 23.9108 26.0381
995 2 15.7744 23.8312 25.7927
996 2 19.6959 23.9167 26.0528
997 2 23.7756 24.0035 25.902
998 2 27.6556 23.7312 26.1345
999 2 31.6598 23.8664 26.0488