ITEM: TIMESTEP
1547600
ITEM: NUMBER OF ATOMS
16875
ITEM: BOX BOUNDS xy xz yz pp pp pp
0.0000000000000000e+00 5.9369999999999997e+01 0.0000000000000000e+00
0.0000000000000000e+00 5.9369999999999997e+01 0.0000000000000000e+00
3.1764256553843495e-01 6.0048776434464664e+01 0.0000000000000000e+00
ITEM: ATOMS id type x y z
1 2 59.4221 59.0309 10.1622
2 2 4.00295 59.4215 10.1237
3 2 7.93652 59.4077 10.2694
4 2 11.8434 59.2927 9.95884
5 2 15.6328 -0.170745 10.0835
6 2 19.8917 59.278 10.0292
7 2 23.8154 59.447 9.90718
8 2 27.6303 59.3688 10.0461
9 2 31.7423 59.3995 10.2052
10 2 35.6139 59.2873 9.81085
11 2 39.5794 59.189 9.95084
12 2 43.7221 59.4212 10.1559
13 2 47.6188 59.3078 10.2508
14 2 51.6706 59.1761 10.1786
15 2 55.6033 59.3205 10.2249
16 2 -0.0952196 3.9504 10.119
17 2 3.89567 3.81726 10.1064
18 2 8.00119 3.80528 10.0193
19 2 12.0499 3.84147 10.2009
20 2 15.8009 3.91465 10.1036
21 2 19.9625 3.89189 10.0391
22 2 23.9101 3.87486 10.0475
23 2 27.7146 3.95887 9.99645
24 2 31.7359 3.94221 9.88191
25 2 35.6958 3.89946 10.0679
26 2 39.6362 3.69676 10.0443
27 2 43.494 3.84547 9.94972
28 2 47.6206 3.79984 9.92974
29 2 51.6961 3.873 9.99133
30 2 55.4427 3.94665 9.99319
31 2 0.0289395 8.08363 10.1635
32 2 3.99081 7.87881 9.99518
33 2 7.92101 7.7581 10.1294
34 2 11.8425 7.82137 10.1482
35 2 15.9242 7.79146 10.2172
36 2 19.946 7.86467 10.0936
37 2 23.7673 7.67292 10.0795
38 2 27.799 7.83603 9.94476
39 2 31.6334 7.80715 10.1434
40 2 35.7267 7.89719 10.1358
41 2 39.6077 7.95588 9.92328
42 2 43.7045 7.80406 10.0257
43 2 47.545 7.60689 9.83946
44 2 51.4543 7.70054 10.0155
45 2 55.3329 7.72793 10.0674
46 2 -0.0666494 11.93 10.1876
47 2 3.85655 11.726 10.0399
48 2 7.86437 11.8705 10.0812
49 2 11.6797 11.8287 10.0518
50 2 15.9487 11.7413 10.239
51 2 19.8396 11.8612 10.0338
52 2 23.7872 11.8129 10.1266
53 2 27.6425 11.8238 10.1558
54 2 31.7738 11.7371 10.1651
55 2 35.6567 11.5594 10.0335
56 2 39.6417 11.7543 10.0685
57 2 43.4487 11.6341 10.1797
58 2 47.296 11.5529 10.1056
59 2 51.4468 11.6862 10.1298
60 2 55.6184 11.641 10.1287
61 2 59.1678 15.6182 10.1395
62 2 3.84919 15.7522 10.1836
63 2 7.86178 15.6392 9.9797
64 2 11.9443 15.6863 9.99097
65 2 15.8188 15.7637 10.1967
66 2 19.9777 15.7943 10.1366
67 2 23.8019 15.7984 9.93909
68 2 27.7084 15.6639 10.1375
69 2 31.7877 15.7825 10.0892
70 2 35.7659 15.6248 10.039
71 2 39.6361 15.5751 9.9741
72 2 43.6411 15.5896 10.1876
73 2 47.5125 15.7891 10.2345
74 2 51.452 15.5308 10.1902
75 2 55.4288 15.661 10.2878
76 2 -0.112978 19.7143 10.1912
77 2 4.03647 19.7027 10.1504
78 2 8.07697 19.6057 10.0044
79 2 11.7562 19.5063 10.0437
80 2 15.9551 19.4596 10.0734
81 2 20.0001 19.5883 10.2629
82 2 23.878 19.8182 10.1382
83 2 27.6003 19.6375 10.1835
84 2 31.7207 19.6847 10.2576
85 2 35.9029 19.58 10.1218
86 2 39.7425 19.6337 10.0207
87 2 43.6795 19.6521 9.98138
88 2 47.4892 19.6588 10.0926
89 2 51.4779 19.5154 10.063
90 2 55.3262 19.6962 10.2096
91 2 0.0975109 23.6152 10.0759
92 2 3.94241 23.7992 10.0548
93 2 7.89453 23.5172 10.1704
94 2 12.1286 23.4723 10.0587
95 2 15.8558 23.4672 9.95667
96 2 19.6921 23.7007 10.1972
97 2 23.9021 23.7293 10.2105
98 2 27.8602 23.6387 10.1737
99 2 31.6618 23.5533 10.0821
100 2 35.8561 23.7226 10.1802
101 2 39.6926 23.5321 9.96921
102 2 43.7861 23.5097 10.0741
103 2 47.5905 23.6392 9.87291
104 2 51.4373 23.6895 10.2474
105 2 55.2114 23.5851 10.0115
106 2 -0.0397707 27.7751 10.2418
107 2 3.91844 27.6054 10.0913
108 2 7.89242 27.5414 10.2601
109 2 11.8457 27.5727 10.1004
110 2 16.0066 27.7091 10.0993
111 2 19.7404 27.5816 10.1711
112 2 23.9508 27.6307 10.1059
113 2 27.9694 27.4848 10.1129
114 2 31.8183 27.5512 10.059
115 2 35.8268 27.5582 10.0342
116 2 39.8311 27.4656 10.0956
117 2 43.6869 27.359 10.143
118 2 47.9308 27.4762 9.97482
119 2 51.5775 27.7102 10.128
120 2 55.4306 27.6582 10.1429
121 2 0.120386 31.6961 10.326
122 2 4.10337 31.4746 10.1981
123 2 7.91416 31.7107 10.0732
124 2 11.938 31.5855 10.1165
125 2 15.9488 31.534 10.061
126 2 19.8593 31.5994 10.0805
127 2 23.9691 31.5459 10.0412
128 2 27.7306 31.6478 10.1107
129 2 32.0154 31.6658 10.2092
130 2 35.8862 31.7533 10.1434
131 2 39.7862 31.4206 10.1125
132 2 43.8644 31.4684 10.0508
133 2 47.6434 31.5228 10.0633
134 2 51.6007 31.6252 10.1584
135 2 55.5506 31.4078 10.2614
136 2 59.4189 35.6911 10.0635
137 2 4.03538 35.6652 10.2487
138 2 7.85277 35.591 10.0155
139 2 11.8335 35.4447 10.0697
140 2 16.069 35.5994 10.1649
141 2 19.7531 35.3016 9.96265
142 2 23.7427 35.5063 10.1417
143 2 27.7408 35.7238 10.1703
144 2 31.7377 35.5443 10.0485
145 2 35.74 35.5388 10.1224
146 2 39.7068 35.7235 10.2836
147 2 43.712 35.4333 10.2613
148 2 47.6721 35.6966 10.0747
149 2 51.4711 35.5616 10.1392
150 2 55.4621 35.5887 10.2009
151 2 59.4113 39.4201 10.0589
152 2 4.06652 39.6543 9.99594
153 2 8.08404 39.3269 10.0375
154 2 11.9729 39.4936 10.1237
155 2 15.98 39.4311 10.0612
156 2 19.9535 39.3745 10.0358
157 2 23.8125 39.485 10.0812
158 2 27.8395 39.3919 10.0603
159 2 31.6294 39.3331 10.3243
160 2 35.8049 39.7417 9.97072
161 2 39.7238 39.4526 10.2095
162 2 43.7887 39.5487 10.1361
163 2 47.7026 39.5687 10.1873
164 2 51.5377 39.4273 10.1226
165 2 55.4062 39.6015 10.2963
166 2 59.5188 43.4255 10.135
167 2 4.14586 43.608 10.0364
168 2 7.80429 43.418 10.1413
169 2 11.8723 43.4524 10.0826
170 2 15.9791 43.5028 9.97245
171 2 19.839 43.6179 10.0885
172 2 23.8079 43.4067 10.1868
173 2 27.847 43.4252 10.0862
174 2 31.7111 43.5597 10.152
175 2 35.6249 43.42 9.94378
176 2 39.6873 43.509 9.91475
177 2 43.6677 43.4685 10.1669
178 2 47.5234 43.4341 10.2257
179 2 51.3939 43.4891 10.0247
180 2 55.3587 43.4996 10.0671
181 2 59.4232 47.3033 9.93403
182 2 3.98304 47.4172 10.0835
183 2 8.06176 47.1193 10.03
184 2 11.9551 47.3204 10.009
185 2 15.8426 47.3668 10.2009
186 2 19.879 47.4298 10.1746
187 2 23.6366 47.5155 10.1833
188 2 27.5795 47.5263 9.94573
189 2 31.4456 47.5363 10.1005
190 2 35.5563 47.5795 10.0032
191 2 39.5647 47.4816 10.1109
192 2 43.3447 47.3918 10.1614
193 2 47.7191 47.577 10.107
194 2 51.49 47.2033 9.98941
195 2 55.3509 47.5146 10.1348
196 2 0.11117 51.3742 10.1073
197 2 4.21633 51.385 10.2398
198 2 7.97577 51.2418 10.1865
199 2 11.8177 51.2134 10.0921
200 2 15.7522 51.2856 10.0285
201 2 19.8203 51.4008 10.2367
202 2 23.9911 51.5292 10.0594
203 2 27.8216 51.5564 9.9744
204 2 31.8231 51.3891 9.90341
205 2 35.7162 51.4265 10.1401
206 2 39.5919 51.3027 10.0345
207 2 43.5158 51.3908 10.0987
208 2 47.5453 51.3617 10.0192
209 2 51.6612 51.2196 10.1851
210 2 55.5702 51.484 10.1705
211 2 -0.0450951 55.1184 10.0674
212 2 4.08738 55.3666 10.1417
213 2 7.92317 55.2943 10.1507
214 2 11.9265 55.3982 10.0607
215 2 15.9796 55.2825 10.1956
216 2 20.0004 55.4444 10.1639
217 2 23.9769 55.5616 10.0426
218 2 27.7243 55.3936 9.90578
219 2 31.7868 55.3564 10.0078
220 2 35.5224 55.1091 9.91317
221 2 39.4991 55.4975 10.0353
222 2 43.5782 55.448 10.1229
223 2 47.652 55.3019 9.99596
224 2 51.6827 55.1924 10.137
225 2 55.432 55.3672 10.1207
226 2 -0.09798 59.3772 14.1158
227 2 3.93605 59.1129 14.1201
228 2 8.05956 59.2169 14.1283
229 2 11.8307 59.2761 13.8887
230 2 16.0212 -0.00744293 14.0853
231 2 19.9889 0.0892241 13.9304
232 2 23.6882 -0.103448 13.9504
233 2 27.7551 59.492 13.9531
234 2 31.7515 59.5229 13.9385
235 2 35.6203 59.0978 13.8816
236 2 39.4871 -0.141037 13.9955
237 2 43.7208 59.1843 13.7245
238 2 47.5553 0.0447486 14.0331
239 2 51.6688 -0.167567 14.1047
240 2 55.4809 59.3241 14.286
241 2 0.105232 3.82154 14.1183
242 2 4.04095 3.94889 14.0085
243 2 8.02484 3.84529 13.9887
244 2 11.9832 3.75746 13.9821
245 2 16.0815 3.75639 13.9571
246 2 19.8318 4.04338 14.1883
247 2 23.7683 3.86621 14.0898
248 2 27.588 3.90949 14.0345
249 2 31.6893 4.21974 14.1135
250 2 35.843 3.85212 13.8673
251 2 39.6294 3.74037 14.0546
252 2 43.5441 3.90528 13.9607
253 2 47.6196 3.84035 13.9377
254 2 51.4742 3.91684 14.0297
255 2 55.6241 3.87706 14.0982
256 2 -0.0732813 7.84173 14.2219
257 2 3.8555 7.92721 14.1908
258 2 8.03207 8.16331 14.015
259 2 11.8218 7.99271 13.9408
260 2 15.6516 7.88227 14.0415
261 2 19.8266 8.00398 14.2341
262 2 23.731 7.81927 14.0888
263 2 27.8028 7.88762 14.0876
264 2 31.7436 7.87976 14.1581
265 2 35.6828 7.789 14.1677
266 2 39.6221 7.73086 14.0141
267 2 43.6817 7.78419 14.07
268 2 47.7867 7.88315 14.0594
269 2 51.5004 7.98634 14.1616
270 2 55.5583 7.84326 14.2476
271 2 0.0723122 11.8645 14.3455
272 2 3.87436 11.8942 14.0555
273 2 7.83601 11.9316 14.179
274 2 11.9132 11.877 13.8429
275 2 15.9282 11.8359 14.1172
276 2 19.9375 11.8867 14.066
277 2 23.9121 11.7995 14.0543
278 2 27.9317 11.7711 14.0803
279 2 31.8908 11.748 14.0166
280 2 35.818 11.8008 13.9963
281 2 39.5038 11.6825 14.1492
282 2 43.447 11.7078 14.0654
283 2 47.5604 11.8137 14.0039
284 2 51.3989 11.7142 14.1311
285 2 55.2877 11.8484 14.0599
286 2 0.15455 15.9428 14.1453
287 2 3.83621 15.8446 13.9266
288 2 7.90862 15.7233 14.1479
289 2 11.9539 15.6905 14.1623
290 2 16.0523 15.6541 13.9312
291 2 19.8182 15.8351 14.1652
292 2 23.8252 15.8179 14.0704
293 2 27.7491 15.7169 14.1127
294 2 31.6525 15.9154 14.1015
295 2 35.8018 15.7711 14.0798
296 2 39.859 15.8012 13.9357
297 2 43.6573 15.6312 14.0662
298 2 47.6647 15.8235 14.1222
299 2 51.5074 15.8107 14.1012
300 2 55.5613 15.776 14.1219
301 2 0.058958 19.9517 14.1272
302 2 3.92942 19.7274 14.1518
303 2 7.82321 19.7741 14.1142
304 2 12.1291 19.6989 14.0364
305 2 16.0194 19.8589 13.989
306 2 20.0777 19.9328 13.9899
307 2 23.9001 19.6505 14.2869
308 2 27.7198 19.5735 14.1862
309 2 31.7392 19.9461 13.9053
310 2 35.8334 19.8044 14.0394
311 2 39.7203 19.6836 14.1152
312 2 43.5864 19.8004 13.8826
313 2 47.7143 19.6308 14.1763
314 2 51.5633 19.8466 14.0165
315 2 55.6141 19.8085 14.0464
316 2 0.0102965 23.7454 13.9667
317 2 3.92417 23.6317 14.171
318 2 8.14399 23.6039 14.048
319 2 12.0793 23.6048 14.0331
320 2 15.8621 23.6766 14.0009
321 2 20.0785 23.7599 14.2067
322 2 23.9853 23.7624 14.0257
323 2 27.9876 23.6052 14.0634
324 2 31.6026 23.6461 13.8981
325 2 35.6787 23.7994 14.1482
326 2 39.8608 23.5135 14.0781
327 2 43.8731 23.6703 13.997
328 2 47.5566 23.7147 14.1348
329 2 51.4766 23.6889 14.1532
330 2 55.3596 23.737 14.1905
331 2 -0.00225128 27.7423 14.1345
332 2 4.04306 27.7243 14.1947
333 2 7.86471 27.3901 14.0629
334 2 12.1285 27.6284 14.0628
335 2 15.9914 27.6979 14.2314
336 2 20.0247 27.5349 14.0588
337 2 23.9008 27.6887 14.0923
338 2 27.9253 27.6012 14.0732
339 2 31.7854 27.7477 14.0734
340 2 35.849 27.7965 14.2006
341 2 39.738 27.7089 14.1445
342 2 43.8053 27.6816 14.0249
343 2 47.5675 27.6661 14.0646
344 2 51.6921 27.6502 14.2351
345 2 55.627 27.7194 14.2359
346 2 0.183155 31.6848 14.1263
347 2 4.09463 31.4689 14.2228
348 2 8.05767 31.4739 13.865
349 2 12.0864 31.4692 13.9958
350 2 16.0277 31.5445 14.0263
351 2 19.9921 31.5515 14.009
352 2 23.9379 31.6208 13.8948
353 2 27.8689 31.6738 13.9666
354 2 31.8059 31.5901 14.0267
355 2 35.7761 31.472 14.143
356 2 39.7548 31.6871 14.04
357 2 43.7511 31.5847 13.8199
358 2 47.5918 31.6626 14.2458
359 2 51.6171 31.7368 14.0593
360 2 55.4877 31.6227 14.2476
361 2 0.120032 35.6622 13.8747
362 2 4.1463 35.5183 14.116
363 2 7.77126 35.5467 13.9314
364 2 12.0717 35.4829 14.026
365 2 16.0063 35.4563 14.105
366 2 19.8718 35.6288 14.1936
367 2 23.7419 35.5541 14.0861
368 2 27.8378 35.6108 14.1156
369 2 31.8208 35.6934 14.1685
370 2 35.638 35.6635 14.118
371 2 39.8789 35.5213 13.913
372 2 43.6427 35.4847 13.9817
373 2 47.573 35.4697 13.9557
374 2 51.5059 35.6715 14.2697
375 2 55.5776 35.5745 14.1564
376 2 0.0441499 39.6168 14.0767
377 2 4.10595 39.4923 14.1164
378 2 8.10929 39.3525 14.0934
379 2 12.1398 39.6532 13.8768
380 2 15.9521 39.5117 14.1141
381 2 19.7661 39.6329 13.9306
382 2 23.9573 39.6327 14.0835
383 2 27.7384 39.5218 14.0091
384 2 31.7665 39.7237 14.0863
385 2 35.9555 39.5865 14.0838
386 2 39.5633 39.592 13.8932
387 2 43.345 39.5563 14.1503
388 2 47.5777 39.3407 14.1097
389 2 51.6649 39.6564 14.0633
390 2 55.4534 39.6231 13.9881
391 2 -0.0711332 43.5397 14.1414
392 2 3.9879 43.418 13.9623
393 2 8.18065 43.2719 14.0054
394 2 12.0464 43.3482 14.0743
395 2 15.9113 43.438 14.0084
396 2 19.8293 43.6302 14.0637
397 2 23.8932 43.5404 13.9008
398 2 27.7901 43.7488 14.0088
399 2 31.8424 43.4276 13.9339
400 2 35.5924 43.5221 13.915
401 2 39.6974 43.4429 14.0906
402 2 43.7503 43.5991 13.9091
403 2 47.4815 43.5661 14.1316
404 2 51.6653 43.4688 14.0631
405 2 55.5422 43.4659 13.9645
406 2 0.226874 47.302 13.9676
407 2 4.18298 47.4331 14.0019
408 2 7.99021 47.3118 14.0967
409 2 11.9104 47.4106 14.3083
410 2 16.0137 47.3827 14.0232
411 2 19.7615 47.5076 14.0514
412 2 23.8357 47.5699 14.0716
413 2 27.7407 47.5786 14.0042
414 2 31.7067 47.1135 13.9115
415 2 35.5665 47.2838 13.9232
416 2 39.5921 47.4143 14.0823
417 2 43.4441 47.3228 14.0592
418 2 47.5199 47.4318 14.1135
419 2 51.4726 47.4078 14.2042
420 2 55.3015 47.464 14.0557
421 2 0.0231183 51.209 13.9601
422 2 3.97778 51.2485 14.1803
423 2 8.02523 51.4331 14.159
424 2 11.8535 51.3739 14.2114
425 2 15.8268 51.2744 13.7612
426 2 19.9142 51.3649 14.125
427 2 23.8387 51.5611 14.0978
428 2 27.7453 51.3808 13.9264
429 2 31.6668 51.5786 14.0506
430 2 35.5665 51.3462 14.0329
431 2 39.5478 51.5795 14.0237
432 2 43.6982 51.6214 13.9952
433 2 47.4077 51.2851 14.0563
434 2 51.2567 51.5648 13.9022
435 2 55.4829 51.2349 14.0404
436 2 0.285706 55.3278 14.0818
437 2 4.11893 55.0788 14.0405
438 2 8.26993 55.4269 14.1858
439 2 12.1326 55.4206 14.2532
440 2 15.9155 55.4903 14.1515
441 2 19.753 55.2205 14.1824
442 2 23.8832 55.5173 14.233
443 2 27.895 55.3521 13.8121
444 2 31.7164 55.2856 14.0116
445 2 35.6154 55.3715 14.1201
446 2 39.6267 55.3724 14.1141
447 2 43.5976 55.3881 13.8222
448 2 47.5416 55.1956 14.0012
449 2 51.447 55.2895 13.8976
450 2 55.6396 55.2413 14.0243
451 2 -0.123404 -0.107516 18.0215
452 2 4.20631 0.118288 17.8163
453 2 7.80775 59.537 18.0705
454 2 11.8875 59.286 18.0887
455 2 15.8324 59.4515 18.1023
456 2 19.8981 59.2569 18.0372
457 2 23.8167 59.398 18.1796
458 2 27.7139 -0.217683 18.032
459 2 31.8293 59.2289 18.055
460 2 35.8734 59.343 17.882
461 2 39.9451 -0.0744481 17.9247
462 2 43.6655 59.1675 17.9067
463 2 47.6827 0.0185491 17.9294
464 2 51.4365 59.1431 18.0958
465 2 55.4041 59.4458 18.1459
466 2 0.144052 3.89123 18.1295
467 2 4.12406 3.97573 18.1962
468 2 8.12826 4.01603 18.044
469 2 11.9128 3.97915 17.9746
470 2 15.8286 3.89152 18.0182
471 2 19.5205 3.98396 18.0571
472 2 23.7704 3.87057 18.1207
473 2 27.58 3.94754 17.9223
474 2 31.923 3.98423 18.1106
475 2 35.7374 3.8781 17.9147
476 2 39.7529 3.94288 18.0055
477 2 43.5901 3.94551 17.9426
478 2 47.6454 3.79972 18.1536
479 2 51.4955 3.99118 18.0875
480 2 55.0978 3.87125 18.0126
481 2 0.115524 7.84356 18.1141
482 2 4.1109 7.96238 18.0867
483 2 7.92612 8.0419 17.8893
484 2 11.9792 7.86033 18.0362
485 2 15.6902 8.03244 17.9892
486 2 19.7118 8.00712 18.0211
487 2 23.8824 7.87369 18.2091
488 2 27.8368 7.96822 18.0268
489 2 31.7997 7.74124 18.2118
490 2 35.7222 7.97497 18.1485
491 2 39.7728 7.90263 18.0827
492 2 43.5852 7.90452 18.1748
493 2 47.5429 7.89067 18.2187
494 2 51.4998 7.8406 18.1881
495 2 55.4629 7.69033 18.2493
496 2 -0.0995705 11.8389 17.9648
497 2 4.04376 11.9408 18.0709
498 2 8.01954 11.8992 18.0583
499 2 11.9397 11.8385 18.058
500 2 15.7912 12.081 18.0759
501 2 19.7747 12.0229 18.1308
502 2 23.8714 12.0275 18.0639
503 2 27.9376 11.9495 17.998
504 2 31.9338 11.7785 17.968
505 2 35.7518 11.8068 18.1396
506 2 39.5895 11.6592 18.0218
507 2 43.6586 11.5575 18.2457
508 2 47.6745 11.898 18.087
509 2 51.5504 11.7957 18.0154
510 2 55.526 11.8267 18.0983
511 2 59.4637 15.7994 18.179
512 2 4.00641 15.8127 18.1504
513 2 7.9351 15.8213 17.9955
514 2 11.9042 15.9652 17.8753
515 2 15.894 15.9256 17.9162
516 2 19.7393 15.8199 18.0951
517 2 23.833 15.6338 18.0542
518 2 28.0853 15.8755 18.0739
519 2 31.9602 15.8229 18.0356
520 2 35.7848 15.8714 18.0274
521 2 39.8393 15.7755 18.1917
522 2 43.4982 15.664 18.1669
523 2 47.6253 15.6267 18.1176
524 2 51.6887 15.6703 17.9601
525 2 55.5636 15.8474 18.097
526 2 0.157414 19.8521 18.0096
527 2 4.04614 19.8518 18.1174
528 2 7.78817 19.8279 17.7796
529 2 11.8136 19.8231 18.044
530 2 15.9381 19.976 17.9372
531 2 19.7074 19.7711 18.1397
532 2 23.8864 19.7467 18.1047
533 2 27.9355 19.8421 17.9828
534 2 31.8042 19.7047 17.9896
535 2 35.9547 19.7653 17.9415
536 2 39.8617 19.5539 17.8225
537 2 43.8481 19.766 17.9297
538 2 47.5194 19.5544 18.0396
539 2 51.6361 19.6617 18.3574
540 2 55.4785 19.6448 18.2167
541 2 0.1219 23.6653 17.9086
542 2 3.93294 23.7704 18.2049
543 2 7.94726 23.9552 17.9831
544 2 11.9469 23.7814 17.9404
545 2 15.8613 23.8491 17.8988
546 2 19.9734 23.6781 18.1601
547 2 23.9489 23.6404 18.0466
548 2 27.8247 23.6754 17.9495
549 2 31.6806 23.7884 18.084
550 2 35.8053 23.7619 18.1186
551 2 39.8038 23.8631 17.6576
552 2 43.6828 23.7813 18.0534
553 2 47.6511 23.8177 18.0334
554 2 51.4863 23.637 18.1535
555 2 55.5488 23.6692 18.1934
556 2 0.0353063 27.71 18.0143
557 2 4.02229 27.5538 18.0284
558 2 8.05237 27.6467 18.1605
559 2 12.0052 27.6891 18.0186
560 2 15.9207 27.706 18.2338
561 2 19.7956 27.8338 18.0549
562 2 23.9211 27.6802 18.2464
563 2 27.7889 27.8693 17.828
564 2 31.5945 27.8961 17.9095
565 2 35.5313 27.5997 18.0821
566 2 39.6396 27.7178 18.0257
567 2 43.5608 27.6532 18.1826
568 2 47.5522 27.6646 18.1008
569 2 51.413 27.7251 18.1327
570 2 55.3358 27.7191 18.2252
571 2 -0.0259174 31.6161 18.0777
572 2 3.84782 31.5593 17.9163
573 2 8.15198 31.5795 17.9332
574 2 11.8467 31.6328 17.6598
575 2 16.0725 31.5308 18.1399
576 2 20.0396 31.6293 17.9556
577 2 23.9408 31.6409 18.0486
578 2 27.8987 31.7765 18.0212
579 2 32.0459 31.755 18.0663
580 2 35.8995 31.7279 18.09
581 2 39.7746 31.7077 18.0173
582 2 43.7325 31.6997 18.0471
583 2 47.5346 31.539 18.0305
584 2 51.5152 31.8282 17.8521
585 2 55.4046 31.685 18.2035
586 2 0.0645307 35.7159 18.1396
587 2 3.9286 35.5185 18.1174
588 2 8.13725 35.732 17.978
589 2 12.2044 35.5448 17.7566
590 2 15.769 35.44 18.0503
591 2 20.1036 35.4622 18.0552
592 2 23.8132 35.7495 18.0927
593 2 28.0273 35.5658 17.8881
594 2 31.8643 35.6284 18.0657
595 2 35.7101 35.6312 18.0236
596 2 39.9162 35.8137 17.8251
597 2 43.7073 35.6693 18.0532
598 2 47.6137 35.6377 18.2723
599 2 51.5396 35.7441 18.0493
600 2 55.4882 35.6406 17.958
601 2 0.321624 39.543 17.791
602 2 4.25674 39.7522 18.0867
603 2 8.23706 39.2718 17.9572
604 2 11.9342 39.5561 18.0691
605 2 15.9588 39.4919 18.0643
606 2 19.8498 39.6979 18.0308
607 2 23.8358 39.517 18.0511
608 2 27.852 39.5759 17.9836
609 2 31.8119 39.6482 17.9462
610 2 35.8765 39.7265 18.032
611 2 39.6877 39.5791 18.003
612 2 43.6991 39.5077 18.1005
613 2 47.7002 39.5929 18.0977
614 2 51.573 39.6409 18.0134
615 2 55.6678 39.4549 17.8575
616 2 0.049478 43.5341 18.2446
617 2 3.92048 43.488 18.0162
618 2 7.88811 43.3819 18.0475
619 2 12.1351 43.3912 17.9369
620 2 15.9142 43.6957 18.0718
621 2 19.9911 43.5228 18.0641
622 2 23.9291 43.6907 17.7343
623 2 27.7174 43.604 17.8938
624 2 32.0564 43.6465 18.0934
625 2 35.8909 43.6671 17.9952
626 2 39.7237 43.6392 17.9843
627 2 43.5899 43.2844 18.0606
628 2 47.3581 43.3269 18.1745
629 2 51.5047 43.5421 18.0793
630 2 55.4644 43.4921 18.0397
631 2 -0.115071 47.3419 17.9842
632 2 4.2389 47.225 17.9742
633 2 7.9935 47.3917 18.0914
634 2 11.8626 47.3475 18.1763
635 2 16.0751 47.6584 17.9125
636 2 19.9914 47.4907 17.9725
637 2 23.916 47.5634 18.0789
638 2 27.9955 47.5552 17.9738
639 2 31.7958 47.6737 17.9792
640 2 35.8747 47.4787 18.094
641 2 39.9261 47.4783 17.9399
642 2 43.5402 47.505 18.0575
643 2 47.4785 47.3304 18.0505
644 2 51.4147 47.402 18.0978
645 2 55.4237 47.4984 18.1903
646 2 0.0412843 51.2836 18.164
647 2 4.14842 51.2703 18.0353
648 2 8.28603 51.3495 18.1545
649 2 12.0915 51.4027 18.2078
650 2 16.1743 51.3507 18.1031
651 2 19.9884 51.585 18.1126
652 2 23.8394 51.5366 18.0423
653 2 27.7562 51.2988 18.0864
654 2 31.6542 51.4771 18.0238
655 2 35.657 51.2681 17.8399
656 2 39.8319 51.4181 17.9316
657 2 43.7557 51.3143 18.0832
658 2 47.6224 51.4351 17.9948
659 2 51.5635 51.3306 17.9472
660 2 55.4301 51.4519 18.1367
661 2 0.113735 55.1033 17.9964
662 2 3.945 55.2747 18.056
663 2 7.91893 55.4404 18.1868
664 2 12.1268 55.1252 18.0273
665 2 15.7673 55.3721 18.0536
666 2 19.9074 55.2199 18.1184
667 2 23.8107 55.5916 17.9805
668 2 27.7196 55.3952 18.0172
669 2 31.6912 55.3053 17.901
670 2 35.8747 55.2572 18.0069
671 2 39.6315 55.3356 18.0059
672 2 43.7638 55.4077 17.9313
673 2 47.7698 55.5377 17.8635
674 2 51.583 55.1671 18.1463
675 2 55.3874 55.3373 17.9823
676 2 59.4898 59.1953 22.2935
677 2 3.77596 0.0374071 22.0147
678 2 7.76214 -0.0442323 22.0486
679 2 11.8676 -0.00894872 21.9922
680 2 15.9255 59.3488 22.0699
681 2 19.9159 0.010071 22.1395
682 2 23.9953 59.5102 21.94
683 2 27.9999 0.0225573 22.0663
684 2 31.5952 -0.0182773 22.0213
685 2 35.5779 0.180948 22.0355
686 2 39.666 59.3293 21.8945
687 2 43.6067 -0.259382 22.1476
688 2 47.6511 -0.0872904 22.0173
689 2 51.3889 59.4093 22.1129
690 2 55.4924 0.06369 22.1586
691 2 -0.022269 3.69601 22.0771
692 2 4.06973 4.06875 22.03
693 2 8.0391 3.78325 21.9313
694 2 11.7411 3.83423 21.8995
695 2 15.9939 4.12356 22.1172
696 2 19.8043 4.04751 21.893
697 2 23.8699 4.03855 22.051
698 2 27.8074 4.11552 21.9029
699 2 31.8847 3.75524 21.8448
700 2 35.6111 3.82918 21.8949
701 2 39.6219 4.02934 22.0981
702 2 43.5752 3.98176 22.099
703 2 47.5248 4.09314 22.1432
704 2 51.6013 4.15924 22.0775
705 2 55.5611 3.83161 22.0568
706 2 0.0347592 7.65919 22.2491
707 2 4.08928 7.90999 22.1071
708 2 8.07594 7.8531 22.2126
709 2 12.0253 8.04728 22.0758
710 2 15.8318 7.79563 21.9792
711 2 19.8018 7.97585 21.7887
712 2 23.7757 8.07281 22.066
713 2 27.993 7.94842 22.0426
714 2 31.7702 7.80178 22.1334
715 2 35.6543 7.83562 22.1414
716 2 39.5876 7.77417 22.0596
717 2 43.5052 8.04959 22.0595
718 2 47.5646 7.83648 22.2256
719 2 51.4143 8.0246 22.2244
720 2 55.5321 7.96485 22.0921
721 2 59.5037 11.6747 22.0802
722 2 4.15857 11.719 22.1163
723 2 7.85565 11.8039 21.8228
724 2 11.8894 12.0827 22.1106
725 2 15.9685 11.8019 22.1667
726 2 19.8478 11.9 21.9799
727 2 23.8831 11.9494 22.0805
728 2 27.8942 11.9069 21.9879
729 2 31.7055 11.9322 22.0225
730 2 35.765 11.9822 21.9604
731 2 39.7499 11.7164 22.1961
732 2 43.5531 11.9901 22.2531
733 2 47.5559 11.8015 21.9732
734 2 51.6723 11.8195 21.9442
735 2 55.5952 11.857 22.2191
736 2 0.200593 15.8695 22.0371
737 2 3.94203 15.5741 22.0608
738 2 8.01844 15.8871 22.1047
739 2 11.9219 15.9695 22.0185
740 2 15.8085 16.0989 21.9825
741 2 19.8122 15.8818 22.0737
742 2 23.5916 15.7816 21.958
743 2 27.7306 15.837 22.0816
744 2 31.7996 15.8567 22.0078
745 2 35.7186 15.8978 22.0436
746 2 39.7926 15.7549 22.083
747 2 43.641 15.8851 22.0975
748 2 47.4309 15.8381 21.9739
749 2 51.3174 15.7082 21.9505
750 2 55.5233 15.8993 22.2275
751 2 0.048167 19.7223 22.1238
752 2 4.12818 19.8436 22.085
753 2 7.89891 19.9491 22.0279
754 2 11.7261 19.908 21.973
755 2 15.8377 19.9925 21.9737
756 2 19.9021 19.9122 22.0014
757 2 23.8973 19.7855 22.1182
758 2 27.5533 19.6494 22.0056
759 2 31.6089 20.1023 21.9493
760 2 35.679 19.9276 21.7232
761 2 39.5278 19.881 22.1844
762 2 43.6658 19.7906 22.1181
763 2 47.6666 19.5782 22.0588
764 2 51.5609 19.7855 22.0862
765 2 55.4679 19.7648 22.1151
766 2 0.0193157 23.7514 22.0476
767 2 4.02033 23.8152 22.0327
768 2 8.03574 23.7498 21.9038
769 2 11.9928 23.7799 22.0336
770 2 15.9394 23.766 22.0718
771 2 19.8973 23.7975 22.1631
772 2 23.8205 23.8895 21.9107
773 2 27.9019 23.7559 21.9945
774 2 31.6759 23.7565 22.156
775 2 35.5005 24.0187 21.8072
776 2 39.7533 23.5809 21.923
777 2 43.6875 23.6031 22.1445
778 2 47.404 23.8125 22.1789
779 2 51.3541 23.6399 22.1952
780 2 55.4533 23.8454 22.06
781 2 59.4842 27.6073 21.935
782 2 4.04563 27.932 21.8683
783 2 8.16875 27.5621 22.0477
784 2 11.9571 27.806 22.031
785 2 15.9714 27.7353 22.2264
786 2 19.8242 27.5997 21.9285
787 2 23.9218 27.7864 22.0034
788 2 27.8457 27.6178 21.9397
789 2 31.7013 27.6482 22.0719
790 2 35.609 27.835 22.1002
791 2 39.7798 27.7247 22.0605
792 2 43.5907 27.7458 22.1224
793 2 47.5607 27.7015 22.0648
794 2 51.6674 27.7094 22.1585
795 2 55.3628 27.5858 22.137
796 2 59.4185 31.733 22.0858
797 2 4.11046 31.9582 22.0248
798 2 7.99794 31.6564 22.0123
799 2 11.9444 31.6963 22.1356
800 2 15.8469 31.7208 21.7253
801 2 20.006 31.8967 22.2222
802 2 23.9314 31.7946 22.1287
803 2 27.887 31.7473 22.1404
804 2 31.892 31.8593 22.0223
805 2 35.8435 31.4327 21.9783
806 2 39.6955 31.8 21.962
807 2 43.6853 31.6709 22.1374
808 2 47.6756 31.7322 22.0144
809 2 51.4142 31.8437 22.0788
810 2 55.3745 31.5799 21.9315
811 2 0.138768 35.5526 21.8239
812 2 4.25952 35.5904 22.0747
813 2 8.02492 35.5845 22.0533
814 2 11.9465 35.5463 22.0355
815 2 15.7623 35.6647 22.0213
816 2 19.9359 35.7319 21.9319
817 2 23.8357 35.7866 22.0189
818 2 27.8925 35.6805 21.7929
819 2 31.8709 35.7439 21.9751
820 2 35.6951 35.6773 22.0586
821 2 39.6 35.6633 22.0625
822 2 43.6193 35.7793 22.1752
823 2 47.7582 35.612 22.0359
824 2 51.5 35.8094 21.8891
825 2 55.5353 35.6361 22.0392
826 2 0.236077 39.6633 21.9302
827 2 4.23247 39.5172 22.0618
828 2 8.24449 39.5718 21.9586
829 2 11.9528 39.4772 22.0359
830 2 15.8617 39.5789 21.8521
831 2 20.0104 39.6693 21.8706
832 2 23.8953 39.7492 21.9344
833 2 27.8312 39.6219 21.9849
834 2 31.5657 39.7919 21.7675
835 2 35.6288 39.3156 21.9853
836 2 39.5468 39.6612 22.1094
837 2 43.5708 39.6321 22.114
838 2 47.5553 39.796 22.0369
839 2 51.6176 39.6191 22.154
840 2 55.4578 39.5647 21.9741
841 2 0.0450704 43.6621 22.1383
842 2 4.18373 43.5737 21.9523
843 2 8.20221 43.3322 22.0067
844 2 11.9878 43.5957 21.8705
845 2 16.0398 43.508 22.1103
846 2 19.8059 43.6475 22.0169
847 2 23.8671 43.6919 21.926
848 2 27.8358 43.6688 21.9387
849 2 31.9157 43.6527 21.9331
850 2 35.6696 43.6245 22.0663
851 2 39.6661 43.5611 22.0857
852 2 43.559 43.498 22.0923
853 2 47.5043 43.5178 22.0151
854 2 51.754 43.4277 22.0007
855 2 55.4913 43.5681 22.0235
856 2 0.219021 47.4761 22.0619
857 2 3.97502 47.3808 22.106
858 2 8.12806 47.3213 22.0297
859 2 12.0275 47.4322 22.0393
860 2 15.9557 47.5753 22.0358
861 2 20.126 47.4592 21.9526
862 2 23.8087 47.4583 22.0842
863 2 28.0282 47.5103 22.1864
864 2 31.7903 47.5801 21.9086
865 2 35.7884 47.7737 22.1121
866 2 39.6973 47.4374 22.1651
867 2 43.5715 47.4632 22.0649
868 2 47.5677 47.5208 22.0768
869 2 51.5825 47.3412 22.0159
870 2 55.4951 47.6182 22.0271
871 2 0.326975 51.3856 22.059
872 2 4.13419 51.4942 22.0258
873 2 8.03837 51.323 22.0564
874 2 12.1009 51.5746 21.9837
875 2 16.0686 51.5183 22.1716
876 2 20.0568 51.5535 21.9972
877 2 23.9103 51.5367 21.7605
878 2 27.8199 51.4092 22.0456
879 2 31.7352 51.6524 21.8567
880 2 35.7909 51.5378 22.0146
881 2 39.773 51.4997 22.0189
882 2 43.6982 51.2857 22.0801
883 2 47.7596 51.5783 21.9771
884 2 51.5226 51.4557 21.9681
885 2 55.6001 51.3759 22.1467
886 2 0.17483 55.3577 21.8241
887 2 4.10132 55.3568 21.9992
888 2 7.90782 55.4908 21.944
889 2 12.0449 55.5652 22.0736
890 2 15.8614 55.5108 21.9873
891 2 19.8862 55.2827 21.9375
892 2 23.9044 55.4077 22.2116
893 2 27.8093 55.4664 22.1489
894 2 31.975 55.2801 21.9711
895 2 35.8329 55.5903 21.8818
896 2 39.6696 55.2983 22.0841
897 2 43.6411 55.3608 22.0133
898 2 47.5947 55.4963 22.0835
899 2 51.5864 55.509 22.1377
900 2 55.6008 55.3418 22.0203
901 2 0.0474101 0.0176722 26.1567
902 2 4.0744 -0.137625 26.1414
903 2 8.02141 59.4392 26.0715
904 2 11.936 0.142737 26.1423
905 2 15.8056 0.109152 25.9451
906 2 20.1549 0.115128 25.9018
907 2 23.86 0.195061 25.7853
908 2 27.8813 -0.0123318 25.9793
909 2 32.0125 59.3938 25.9511
910 2 35.7549 0.102041 25.9933
911 2 39.7036 0.154989 25.975
912 2 43.7142 -0.0284173 26.0488
913 2 47.5687 -0.0145523 26.092
914 2 51.502 59.4101 26.0098
915 2 55.5794 59.0835 26.1376
916 2 0.0353243 3.75487 26.0727
917 2 4.28019 3.96057 26.0979
918 2 8.02608 3.85368 26.2126
919 2 12.0463 4.04835 26.1066
920 2 15.8333 3.95882 25.9012
921 2 19.8094 4.14844 25.8484
922 2 23.8333 4.04473 25.9091
923 2 27.9469 4.01798 26.0272
924 2 31.7884 4.08443 25.9691
925 2 35.5209 4.13101 26.0954
926 2 39.6322 4.04836 26.1948
927 2 43.5623 3.9487 26.1988
928 2 47.5531 3.92162 26.0043
929 2 51.4678 3.88514 26.0474
930 2 55.4422 4.0354 26.3439
931 2 59.388 7.91466 26.123
932 2 4.08177 7.87496 26.0405
933 2 7.92787 7.95527 26.1235
934 2 12.0332 8.19808 25.9264
935 2 15.7895 7.82292 25.7613
936 2 20.0657 8.05253 25.9923
937 2 23.8117 8.04892 25.8825
938 2 28.0586 8.18698 26.0524
939 2 31.8385 7.99381 26.1004
940 2 35.7397 8.11371 26.1802
941 2 39.828 7.94284 26.1093
942 2 43.5859 7.75003 26.0082
943 2 47.4726 7.84284 26.167
944 2 51.4776 7.94193 25.9876
945 2 55.4487 7.77361 26.1517
946 2 0.2188 11.8089 25.9229
947 2 4.09813 12.069 25.9685
948 2 8.16878 11.7906 25.8616
949 2 12.0519 11.9704 26.0715
950 2 16.1991 12.0114 26.0543
951 2 19.8744 12.0286 25.9767
952 2 23.9344 12.0148 26.0169
953 2 27.8274 11.9827 25.9864
954 2 31.7427 12.0491 25.8745
955 2 35.6534 11.9249 26.2045
956 2 39.5755 11.8998 26.2134
957 2 43.5383 12.0585 26.0334
958 2 47.6895 11.7414 26.118
959 2 51.4683 12.0513 26.055
960 2 55.4102 11.9708 26.069
961 2 59.5603 15.9153 25.9552
962 2 4.24247 15.8378 25.9801
963 2 8.13262 16.0615 25.9254
964 2 12.2381 15.8084 25.8241
965 2 15.9645 15.8607 25.9433
966 2 19.7881 16.1102 26.0758
967 2 23.711 16.026 25.9218
968 2 27.9746 15.8688 25.9919
969 2 31.7769 15.9973 25.9423
970 2 35.6364 15.8481 26.0082
971 2 39.5432 15.8053 26.025
972 2 43.6162 15.8443 26.1297
973 2 47.4052 15.9483 25.8426
974 2 51.4672 16.0786 26.1048
975 2 55.2293 15.8624 26.1176
976 2 59.4606 19.7902 25.9781
977 2 3.88994 20.1029 26.1355
978 2 7.98439 19.9603 25.9067
979 2 12.0353 20.0439 26.0396
980 2 15.7904 19.7705 26.008
981 2 19.8096 20.0402 25.8772
982 2 23.9811 19.9257 26.0603
983 2 27.637 19.7243 26.0436
984 2 31.7158 20.0354 25.974
985 2 35.5205 19.8785 26.0458
986 2 39.5125 19.9731 25.9749
987 2 43.4445 19.8659 26.0682
988 2 47.5464 19.8668 26.1612
989 2 51.5673 19.8403 26.0775
990 2 55.483 19.991 26.1755
991 2 59.3194 23.7781 26.004
992 2 3.93733 23.8672 25.9929
993 2 7.9233 23.893 26.0914
994 2 11.822 23.8601 26.0458
995 2 16.0338 23.7041 26.2638
996 2 19.867 23.8093 25.9922
997 2 23.9149 23.7549 26.1664
998 2 27.8899 23.9471 26.0826