ITEM: TIMESTEP
1549500
ITEM: NUMBER OF ATOMS
16875
ITEM: BOX BOUNDS xy xz yz pp pp pp
0.0000000000000000e+00 5.9369999999999997e+01 0.0000000000000000e+00
0.0000000000000000e+00 5.9369999999999997e+01 0.0000000000000000e+00
3.1894775667848663e-01 6.0047471243324523e+01 0.0000000000000000e+00
ITEM: ATOMS id type x y z
1 2 0.166874 59.3211 10.116
2 2 4.0922 59.2743 10.1514
3 2 7.92138 59.2233 9.86137
4 2 11.9705 59.2586 10.2137
5 2 15.9602 59.0592 9.94101
6 2 19.9742 59.3457 10.0952
7 2 23.8116 59.1905 9.99198
8 2 27.8413 59.3709 10.0551
9 2 31.7803 59.2942 9.97051
10 2 35.7148 59.2691 10.0949
11 2 39.7197 59.5187 10.0786
12 2 43.6332 -0.143985 9.95395
13 2 47.6512 59.2515 10.0979
14 2 51.4711 59.4083 9.9853
15 2 55.6066 -0.176709 9.93149
16 2 0.114284 3.74538 10.1634
17 2 3.98432 3.9806 10.1326
18 2 8.03514 3.97455 9.90673
19 2 11.98 3.70554 10.0472
20 2 15.9917 3.67717 10.0014
21 2 19.9665 3.84358 10.2084
22 2 23.7597 3.82122 10.1017
23 2 27.6943 3.93393 10.1144
24 2 31.6046 3.98623 10.1041
25 2 35.5074 3.86685 10.0698
26 2 39.4171 3.9113 10.1077
27 2 43.4618 4.0962 10.0009
28 2 47.7242 3.929 9.9656
29 2 51.5647 3.9323 9.94794
30 2 55.4686 3.9236 10.2484
31 2 0.116597 7.67269 9.97166
32 2 4.06158 7.90093 10.0801
33 2 8.04751 7.80419 10.0681
34 2 12.2062 7.75479 10.0321
35 2 16.0141 7.68658 10.0298
36 2 19.8579 7.98329 10.102
37 2 23.8245 7.80555 9.93651
38 2 27.8025 7.92654 10.0503
39 2 31.6299 7.96298 10.0177
40 2 35.6005 7.7676 9.92739
41 2 39.5136 7.91776 10.1137
42 2 43.6717 7.9548 9.94218
43 2 47.5511 7.91021 9.88991
44 2 51.4706 7.97676 10.0769
45 2 55.2424 7.94136 10.2719
46 2 0.0483983 11.7523 9.90626
47 2 4.00643 11.7884 10.1477
48 2 7.90381 11.8719 10.1128
49 2 11.8886 11.6787 10.0541
50 2 15.6801 11.6343 10.1883
51 2 19.811 11.6766 10.0787
52 2 23.5609 11.9492 10.0808
53 2 27.6127 11.6983 10.1224
54 2 31.8385 11.9567 10.1356
55 2 35.6374 11.6885 10.2749
56 2 39.6407 11.7584 10.0693
57 2 43.5327 11.7989 10.1371
58 2 47.5264 11.7424 10.0151
59 2 51.5807 11.9072 10.2272
60 2 55.3057 11.8132 10.2163
61 2 0.280508 15.6346 10.0181
62 2 3.96431 15.6987 10.1062
63 2 7.89675 15.7612 9.86345
64 2 12.0732 15.6207 10.1261
65 2 15.8658 15.807 10.283
66 2 19.6704 15.7835 10.1009
67 2 23.7768 15.6392 10.1081
68 2 27.5361 15.6272 10.1812
69 2 31.5734 15.8808 10.248
70 2 35.6195 16.0304 10.1655
71 2 39.4751 15.7593 9.9214
72 2 43.8163 15.7076 10.2075
73 2 47.7241 15.7508 9.96553
74 2 51.5717 15.6071 10.0516
75 2 55.6203 15.8368 10.1168
76 2 0.0682663 19.7536 10.0645
77 2 4.02315 19.7358 10.1245
78 2 8.07572 19.5324 9.98928
79 2 12.0224 19.6884 10.0324
80 2 16.0229 19.764 10.0188
81 2 19.9416 19.7173 9.98461
82 2 23.8063 19.6861 10.1979
83 2 27.659 19.703 10.0195
84 2 31.7283 19.6289 10.0504
85 2 35.9537 19.7775 10.0337
86 2 39.7736 19.7565 10.1309
87 2 43.7296 19.7435 10.0539
88 2 47.6392 19.7884 10.0321
89 2 51.5268 19.748 10.0017
90 2 55.4861 19.7797 10.1835
91 2 0.271963 23.7293 9.93563
92 2 4.10475 23.6254 10.2888
93 2 7.80541 23.6307 9.95796
94 2 11.9239 23.764 10.2026
95 2 15.9057 23.5674 10.0899
96 2 19.977 23.7892 9.95509
97 2 23.6182 23.8832 10.2353
98 2 27.7655 23.5029 10.1527
99 2 31.7019 23.547 10.1516
100 2 35.7147 23.6883 10.1505
101 2 39.688 23.7424 10.2519
102 2 43.8171 23.706 9.98644
103 2 47.6717 23.5392 10.0816
104 2 51.689 23.8909 10.0808
105 2 55.4835 23.4991 10.2011
106 2 0.117274 27.4802 10.1358
107 2 4.14332 27.4998 10.1531
108 2 8.12861 27.7798 10.1036
109 2 11.9438 27.7048 10.1029
110 2 15.8893 27.7906 10.1968
111 2 19.736 27.5757 10.2069
112 2 23.6827 27.5359 10.07
113 2 27.8086 27.7417 10.158
114 2 31.7069 27.5823 10.2437
115 2 35.5167 27.6933 10.2397
116 2 39.7632 27.4968 10.2232
117 2 43.8577 27.5207 10.0999
118 2 47.5667 27.5539 10.1935
119 2 51.5864 27.6021 10.2257
120 2 55.4799 27.4422 10.0196
121 2 59.3591 31.5178 10.0352
122 2 4.00319 31.4191 10.1969
123 2 8.05374 31.4386 10.1093
124 2 11.9471 31.5033 10.2822
125 2 15.7299 31.726 10.1415
126 2 19.8578 31.6851 10.3152
127 2 23.843 31.5064 10.1449
128 2 27.9315 31.5669 10.2023
129 2 31.7923 31.5921 9.97238
130 2 35.8179 31.5641 10.2013
131 2 39.6799 31.514 9.9586
132 2 43.5512 31.3824 10.237
133 2 47.3916 31.7049 10.2137
134 2 51.5175 31.7812 10.2311
135 2 55.5245 31.4328 10.2278
136 2 59.5754 35.5094 9.96705
137 2 4.07802 35.5055 10.2235
138 2 7.93326 35.4634 10.268
139 2 11.8104 35.4891 10.046
140 2 15.9637 35.4766 10.1139
141 2 19.9351 35.5344 10.1123
142 2 23.989 35.5339 10.0045
143 2 27.8499 35.6628 10.109
144 2 31.7756 35.7802 10.1563
145 2 35.7783 35.4231 10.1739
146 2 39.8077 35.797 10.1359
147 2 43.641 35.4555 10.1554
148 2 47.6377 35.7534 10.0824
149 2 51.6209 35.6587 10.0663
150 2 55.6829 35.3547 10.116
151 2 0.0613926 39.4822 10.2274
152 2 3.95294 39.413 10.0228
153 2 7.94469 39.4177 10.1285
154 2 11.8459 39.2998 10.3864
155 2 15.81 39.5133 9.96287
156 2 19.8554 39.5083 10.0673
157 2 23.6445 39.4755 9.92021
158 2 27.8672 39.5312 10.2074
159 2 31.8668 39.4234 10.1181
160 2 35.8695 39.7257 10.1405
161 2 39.6526 39.8254 10.0332
162 2 43.7106 39.4568 10.0966
163 2 47.6533 39.6294 10.1248
164 2 51.6535 39.5913 10.265
165 2 55.5651 39.4189 10.0622
166 2 0.228356 43.5443 10.206
167 2 3.85919 43.4771 10.0723
168 2 8.15947 43.3397 10.1105
169 2 11.9298 43.3856 9.90817
170 2 15.5947 43.5456 10.1176
171 2 19.7389 43.3674 10.0045
172 2 23.7892 43.2586 10.3432
173 2 27.9884 43.533 9.99461
174 2 31.7627 43.2885 10.018
175 2 35.8339 43.5374 10.192
176 2 39.7842 43.611 10.0764
177 2 43.7493 43.4483 10.0539
178 2 47.7699 43.5494 10.0745
179 2 51.6168 43.6019 10.0915
180 2 55.6063 43.5456 10.1602
181 2 0.121568 47.4382 10.248
182 2 4.15303 47.134 9.99002
183 2 7.87467 47.4194 10.0624
184 2 11.8441 47.3976 10.0235
185 2 16.0399 47.344 10.1394
186 2 19.9101 47.3713 10.2421
187 2 23.6994 47.4407 10.1216
188 2 27.6782 47.1927 10.173
189 2 31.5841 47.3499 10.1662
190 2 35.7899 47.3261 10.0935
191 2 39.8758 47.4493 10.0877
192 2 43.8137 47.6322 10.0717
193 2 47.6912 47.5638 10.1906
194 2 51.4931 47.4732 10.1843
195 2 55.6281 47.5254 10.0507
196 2 59.4943 51.3403 10.205
197 2 4.00122 51.4521 10.1076
198 2 8.045 51.3593 10.0994
199 2 11.9878 51.4851 10.2217
200 2 15.7386 51.3362 9.96435
201 2 19.9052 51.4433 9.90254
202 2 24.0057 51.3348 9.9113
203 2 27.9272 51.4165 10.0579
204 2 31.8047 51.3979 10.2091
205 2 35.6639 51.4725 10.1141
206 2 39.6103 51.3494 10.1811
207 2 43.6471 51.4127 10.1718
208 2 47.2855 51.4682 9.98197
209 2 51.4712 51.4231 9.91683
210 2 55.6874 51.526 10.188
211 2 59.3654 55.3787 10.1166
212 2 4.25284 55.2543 9.92731
213 2 8.07876 55.434 9.89301
214 2 12.0404 55.2548 10.1298
215 2 15.8982 55.2876 10.1241
216 2 20.0076 55.2916 10.0274
217 2 23.9565 55.2885 10.3785
218 2 27.7715 55.2448 10.2304
219 2 31.672 55.3379 10.1911
220 2 35.7334 55.3119 10.1194
221 2 39.7902 55.3129 9.98715
222 2 43.6238 55.525 9.98114
223 2 47.5985 55.2111 10.0544
224 2 51.5988 55.3444 10.1258
225 2 55.4162 55.382 10.2238
226 2 0.0540981 0.0504156 14.0002
227 2 4.04066 0.0500501 14.1576
228 2 8.0173 59.2621 14.0243
229 2 12.0788 -0.0256106 14.1707
230 2 15.7734 -0.0172079 14.1053
231 2 19.828 0.180631 14.1249
232 2 23.6663 -0.12937 14.1781
233 2 27.7753 -0.0351169 14.0645
234 2 31.6629 59.434 13.8377
235 2 35.5262 59.4731 13.896
236 2 39.6344 59.371 14.1483
237 2 43.7569 59.4954 14.103
238 2 47.5373 59.2051 14.0166
239 2 51.3283 59.2492 14.1624
240 2 55.5156 59.5377 13.9349
241 2 0.0130184 3.96792 13.8803
242 2 4.19909 4.10098 13.9283
243 2 8.17007 3.85837 13.954
244 2 11.9814 4.0768 14.1077
245 2 15.9903 3.76735 14.0411
246 2 19.7501 4.04119 14.1314
247 2 23.7252 3.92549 14.142
248 2 27.6421 3.82067 14.0454
249 2 31.726 4.13701 13.955
250 2 35.7252 4.09275 13.9839
251 2 39.6548 4.20088 14.1027
252 2 43.6426 4.05853 13.9922
253 2 47.5564 3.89389 14.0954
254 2 51.5048 3.59778 14.087
255 2 55.2887 4.02483 13.9841
256 2 0.139689 8.03578 14.1604
257 2 3.99739 7.85493 13.9207
258 2 7.98192 7.6925 13.9865
259 2 11.9838 7.85191 13.9992
260 2 15.9514 7.91305 14.0689
261 2 19.9085 7.7713 14.0166
262 2 23.8021 7.84228 14.185
263 2 27.6857 8.03854 14.0254
264 2 31.8281 7.8611 14.0939
265 2 35.7457 7.96383 14.0358
266 2 39.6823 8.0353 13.9695
267 2 43.5227 7.9276 13.8512
268 2 47.6587 8.12353 14.0764
269 2 51.5663 7.97333 14.0024
270 2 55.4687 8.03745 13.8792
271 2 0.173135 11.9038 14.0725
272 2 4.0385 11.9783 14.0475
273 2 8.12923 11.9322 14.0069
274 2 11.815 11.7445 14.0668
275 2 15.9179 11.9516 14.1343
276 2 19.9278 11.6857 14.1476
277 2 23.7857 11.8329 14.2538
278 2 27.7436 11.9828 14.1386
279 2 31.6768 12.2098 14.068
280 2 35.8069 11.8628 13.9911
281 2 39.7791 11.9127 14.0706
282 2 43.4159 12.0657 14.0412
283 2 47.4856 12.0272 14.1942
284 2 51.5187 11.9445 14.0097
285 2 55.4669 11.8449 14.1146
286 2 0.0841384 15.718 14.196
287 2 4.00638 15.6998 14.0639
288 2 7.86124 15.8292 14.2251
289 2 11.9765 15.7239 14.0612
290 2 16.1606 15.7452 13.9987
291 2 19.9066 15.9572 14.0058
292 2 23.7053 15.7844 14.2749
293 2 27.6378 15.8882 13.9751
294 2 31.5191 16.0217 14.3248
295 2 35.6536 15.836 13.8408
296 2 39.6288 15.8445 14.2039
297 2 43.4767 15.9832 13.9961
298 2 47.6681 15.9301 14.1203
299 2 51.5838 15.9158 13.9661
300 2 55.6764 15.7471 14.1173
301 2 0.0569847 19.7499 14.2297
302 2 4.03368 19.7053 13.9724
303 2 7.97531 19.5367 14.2681
304 2 11.9884 19.8716 14.0161
305 2 16.0503 19.818 14.0807
306 2 19.9483 19.7144 14.0409
307 2 23.6484 19.6862 14.2608
308 2 27.6537 19.9763 14.1904
309 2 31.6592 19.8965 14.2845
310 2 35.618 19.9251 13.8801
311 2 39.6917 19.8779 14.0213
312 2 43.5915 19.9786 14.1108
313 2 47.8743 19.8195 13.9015
314 2 51.7902 19.9014 14.1152
315 2 55.5976 19.7882 14.1252
316 2 -0.0180155 23.6974 14.2769
317 2 4.00496 23.7284 14.0383
318 2 7.95804 23.7563 13.9896
319 2 11.9884 23.6828 14.1758
320 2 15.8192 23.538 14.2357
321 2 19.7625 23.7304 14.1563
322 2 23.8044 23.7762 14.1552
323 2 27.6164 23.6123 14.1847
324 2 31.8555 23.8044 14.1118
325 2 35.5648 23.8027 14.1574
326 2 39.5729 23.7267 14.3792
327 2 43.4976 23.7491 14.0944
328 2 47.5833 23.718 13.9214
329 2 51.5498 23.7084 14.2015
330 2 55.4644 23.8145 14.1987
331 2 0.0817174 27.6925 14.1809
332 2 4.08179 27.7262 14.0494
333 2 7.99938 27.8674 14.0638
334 2 12.0546 27.5703 14.1165
335 2 16.0241 27.8197 14.0989
336 2 19.9879 27.7207 14.2117
337 2 23.852 27.8819 14.2656
338 2 27.8235 27.6486 14.148
339 2 31.6343 27.79 14.0918
340 2 35.7469 27.8081 14.1287
341 2 39.6959 27.6616 13.9301
342 2 43.7025 27.7225 14.1335
343 2 47.7421 27.5506 14.1902
344 2 51.4644 27.8016 14.1018
345 2 55.5555 27.8031 14.1002
346 2 59.4914 31.5698 14.0278
347 2 3.88941 31.4958 14.1609
348 2 7.93917 31.8766 14.3248
349 2 12.019 31.6791 14.3534
350 2 15.9383 31.7254 13.9839
351 2 19.8547 31.8829 14.1373
352 2 23.7213 31.7193 14.0697
353 2 27.9127 31.815 14.1259
354 2 31.6978 31.7885 14.1779
355 2 35.7061 31.5418 14.2527
356 2 39.933 31.601 14.1193
357 2 43.7362 31.9673 14.0927
358 2 47.9158 31.6246 14.0409
359 2 51.5741 31.5813 14.1433
360 2 55.4426 31.7154 14.0692
361 2 -0.0337765 35.3789 14.0597
362 2 4.03887 35.5684 14.1748
363 2 8.015 35.5605 14.2316
364 2 12.0683 35.5853 14.1852
365 2 15.8979 35.8326 14.0083
366 2 19.8842 35.883 14.1553
367 2 23.8876 35.6783 14.0602
368 2 27.7737 35.6852 14.3025
369 2 31.8386 35.6435 14.1607
370 2 35.7643 35.7357 14.1562
371 2 39.701 35.7576 14.0321
372 2 43.5669 35.6862 13.9849
373 2 47.685 35.6715 14.1025
374 2 51.7041 35.6767 14.1021
375 2 55.6045 35.4786 14.1335
376 2 0.201926 39.573 14.1269
377 2 3.88079 39.5084 14.216
378 2 7.86696 39.776 14.0005
379 2 12.0411 39.6793 14.0171
380 2 15.9239 39.5964 14.0963
381 2 19.7045 39.4618 14.1194
382 2 23.8695 39.5467 14.0375
383 2 27.8144 39.667 13.992
384 2 31.5711 39.5366 14.0076
385 2 35.723 39.7762 14.0138
386 2 39.7152 39.7441 14.0603
387 2 43.6911 39.5497 13.9907
388 2 47.5346 39.6621 14.0501
389 2 51.5642 39.5874 14.1107
390 2 55.5144 39.3366 14.0657
391 2 0.152359 43.5103 14.1091
392 2 4.0517 43.4613 14.1221
393 2 7.88714 43.4893 14.09
394 2 11.8049 43.6519 14.1176
395 2 15.9351 43.7587 14.0197
396 2 19.8895 43.4612 14.0457
397 2 23.7597 43.6471 14.0566
398 2 27.8377 43.3871 14.1136
399 2 31.7065 43.5955 14.2111
400 2 35.7004 43.6026 14.2434
401 2 39.9192 43.6962 14.0098
402 2 43.8377 43.5854 14.0147
403 2 47.7017 43.4933 14.2368
404 2 51.7895 43.5266 13.934
405 2 55.5767 43.5218 14.1097
406 2 0.1295 47.4387 14.0998
407 2 4.21169 47.3811 13.8677
408 2 8.01815 47.4224 13.9718
409 2 11.8917 47.5679 14.077
410 2 15.9192 47.5921 13.9365
411 2 19.7215 47.4626 14.032
412 2 24.0301 47.4164 13.9179
413 2 27.7823 47.4149 14.0487
414 2 31.8881 47.5135 14.158
415 2 35.8721 47.5302 14.0768
416 2 39.6488 47.5845 14.1335
417 2 43.6973 47.5548 14.0701
418 2 47.5833 47.3574 14.2243
419 2 51.6 47.7624 14.1717
420 2 55.4709 47.5629 14.2159
421 2 0.246133 51.3415 14.0253
422 2 4.30388 51.3092 14.0145
423 2 7.90574 51.4963 14.0607
424 2 12.0693 51.3745 14.3074
425 2 16.0183 51.4737 14.0698
426 2 20.0051 51.3453 13.8931
427 2 24.0198 51.5717 14.1161
428 2 27.6985 51.5563 14.0333
429 2 31.7351 51.2739 14.0125
430 2 35.9292 51.5423 14.0352
431 2 39.79 51.4271 13.9954
432 2 43.5857 51.4893 14.2326
433 2 47.6775 51.4497 14.1315
434 2 51.5528 51.5792 14.0273
435 2 55.2447 51.465 13.9766
436 2 59.6174 55.3493 14.1066
437 2 4.28946 55.4265 14.0966
438 2 7.83262 55.5116 14.0861
439 2 11.8664 55.3674 13.9377
440 2 15.9405 55.2175 14.1557
441 2 19.8356 55.3423 14.098
442 2 23.7147 55.4173 14.0698
443 2 27.5897 55.5021 14.0751
444 2 32.0526 55.3979 14.0354
445 2 35.9941 55.5109 13.8076
446 2 39.8094 55.3271 14.037
447 2 43.6514 55.6277 13.9385
448 2 47.6702 55.4442 14.1358
449 2 51.4326 55.5681 13.8836
450 2 55.3934 55.1424 14.1585
451 2 0.0421 0.135639 17.9822
452 2 4.00697 0.256812 17.9984
453 2 8.12367 59.3329 18.0687
454 2 11.8852 -0.00604798 18.007
455 2 15.8156 -0.148725 18.0102
456 2 19.9946 0.07858 18.0758
457 2 23.6377 0.0577017 18.051
458 2 27.5865 0.0610474 18.2286
459 2 31.7319 -0.115419 18.0485
460 2 35.5864 59.3212 17.9548
461 2 39.6181 -0.110515 18.1775
462 2 43.4995 0.259997 17.9882
463 2 47.4633 59.3687 18.3031
464 2 51.5869 59.2591 17.9408
465 2 55.544 59.3849 17.9586
466 2 0.0372637 4.31485 18.0104
467 2 3.90165 4.15046 18.1189
468 2 7.82111 3.98726 18.2063
469 2 11.8749 3.92138 18.0784
470 2 15.9272 4.15535 18.1008
471 2 19.8452 3.90683 18.113
472 2 23.8991 3.87895 18.104
473 2 27.7885 3.9503 17.9872
474 2 31.6611 3.95188 18.1471
475 2 35.5195 4.00803 18.0534
476 2 39.3969 4.32385 18.0533
477 2 43.3324 4.30134 18.0091
478 2 47.5053 4.09688 18.0025
479 2 51.3057 4.03564 17.9099
480 2 55.7273 4.0472 18.1066
481 2 -0.20609 8.0928 17.9849
482 2 4.20523 8.04497 17.9788
483 2 8.00718 8.05282 18.0906
484 2 11.9225 7.98811 17.8838
485 2 15.9705 7.89761 18.1069
486 2 19.8603 7.86728 17.979
487 2 23.9408 8.0251 18.1206
488 2 28.0535 8.1409 17.9987
489 2 31.8599 8.06103 17.8589
490 2 35.5137 8.08751 17.9151
491 2 39.6479 8.27187 17.8617
492 2 43.6544 8.04333 17.8953
493 2 47.6024 7.863 17.8564
494 2 51.7736 7.96023 18.0669
495 2 55.4335 8.01468 17.9976
496 2 0.0663376 11.7967 18.04
497 2 4.03492 11.7646 17.9536
498 2 8.00119 12.0474 18.017
499 2 12.1309 11.8352 18.1543
500 2 15.9617 11.759 17.9237
501 2 19.8849 11.9575 18.0118
502 2 23.6198 11.7969 18.0034
503 2 27.7558 11.9756 18.1253
504 2 31.7375 12.1762 18.2072
505 2 35.5208 12.0347 18.0518
506 2 39.664 11.8223 18.0456
507 2 43.5926 11.9167 18.111
508 2 47.4849 11.8621 18.1217
509 2 51.369 11.8692 18.1907
510 2 55.5844 12.0263 18.1025
511 2 -0.0541394 15.7835 18.2784
512 2 3.97733 15.8364 18.0789
513 2 7.97107 15.8267 18.1395
514 2 12.1338 15.8674 18.0228
515 2 15.8317 15.7476 18.2605
516 2 19.8907 15.734 18.2606
517 2 23.8501 15.8807 18.145
518 2 27.7922 16.0497 18.0848
519 2 31.8387 15.7537 17.9916
520 2 35.8998 15.9891 17.8886
521 2 39.6689 15.9287 18.128
522 2 43.6963 15.7979 17.9852
523 2 47.4537 15.9295 18.0234
524 2 51.4688 15.8261 18.1768
525 2 55.4796 15.8092 18.2275
526 2 0.0582436 20.0632 18.2082
527 2 4.05443 20.0068 18.0035
528 2 8.06703 19.7122 18.136
529 2 11.8659 19.8644 18.0794
530 2 15.9543 19.8899 18.0658
531 2 19.9221 19.8007 18.0821
532 2 23.685 19.6562 18.252
533 2 27.7846 19.9502 18.0533
534 2 31.8137 19.6984 18.0005
535 2 35.6461 20.0332 17.9913
536 2 39.7351 19.7742 18.0503
537 2 43.6148 19.8083 18.0501
538 2 47.607 19.7804 17.9391
539 2 51.7185 19.7077 18.1452
540 2 55.6115 19.9447 17.989
541 2 0.13333 23.8668 18.1825
542 2 4.20665 23.5689 17.9601
543 2 7.98562 23.8885 18.08
544 2 11.91 23.7747 17.893
545 2 15.9457 23.7016 18.1635
546 2 19.7721 23.6224 18.0794
547 2 23.7805 23.858 18.1122
548 2 27.7322 23.672 18.046
549 2 31.8168 23.8372 18.1291
550 2 35.8164 23.8892 18.1975
551 2 39.6981 23.8767 18.161
552 2 43.6551 23.7336 18.2124
553 2 47.5487 23.6866 18.0839
554 2 51.5059 23.843 18.2223
555 2 55.5609 23.8472 17.9545
556 2 0.209793 27.6838 17.9722
557 2 4.044 27.7255 18.0358
558 2 7.9989 27.7541 17.856
559 2 12.0643 27.6336 18.1162
560 2 15.7157 27.8287 18.1713
561 2 19.9638 27.8462 18.1499
562 2 23.9018 27.8835 18.0912
563 2 27.7983 27.8433 17.9666
564 2 31.6959 27.8692 18.0199
565 2 35.8621 27.8817 18.006
566 2 39.6565 27.5084 17.9376
567 2 43.7819 27.7135 17.8941
568 2 47.5079 27.6079 18.0172
569 2 51.544 27.7315 17.989
570 2 55.5651 27.6137 18.0622
571 2 0.187794 31.6836 18.2629
572 2 4.11655 31.7167 18.136
573 2 7.84564 31.97 18.1066
574 2 11.8745 31.7506 18.0116
575 2 15.8107 31.6872 18.0636
576 2 19.667 31.6395 18.0219
577 2 23.6969 31.9029 17.9943
578 2 27.9056 31.7917 18.2216
579 2 31.8611 31.918 18.1627
580 2 35.8695 31.7322 17.9061
581 2 39.8299 31.6824 18.0775
582 2 43.889 31.6589 18.1307
583 2 47.6348 31.5692 18.1802
584 2 51.6952 31.762 18.1742
585 2 55.8053 31.6225 18.1386
586 2 0.142447 35.481 18.0172
587 2 4.13446 35.7313 17.9568
588 2 8.09261 35.633 18.1778
589 2 11.8899 35.7295 18.1808
590 2 15.9437 35.7574 18.0263
591 2 19.8132 35.6454 18.2097
592 2 23.9705 35.7988 18.0965
593 2 27.7059 35.8348 18.2189
594 2 31.7249 35.8406 18.0542
595 2 35.9731 35.7228 18.0721
596 2 39.8623 35.6715 17.9919
597 2 43.6934 35.7908 17.9428
598 2 47.7381 35.6097 18.0545
599 2 51.5579 35.5958 17.9314
600 2 55.6106 35.5383 17.8855
601 2 0.05061 39.5433 18.062
602 2 4.07011 39.661 18.0735
603 2 8.20682 39.6271 18.0573
604 2 12.0846 39.6922 17.9968
605 2 16.0077 39.7329 18.1243
606 2 19.8288 39.5928 18.1412
607 2 23.7158 39.6987 17.9393
608 2 27.7569 39.7651 18.0928
609 2 31.8875 39.523 17.9781
610 2 35.8361 39.709 18.0001
611 2 39.7247 39.7414 18.2214
612 2 43.6316 39.7877 18.1001
613 2 47.5548 39.6207 18.1901
614 2 51.7206 39.4852 17.99
615 2 55.4677 39.5456 18.2798
616 2 -0.0965122 43.6504 18.0854
617 2 4.07092 43.7111 18.11
618 2 8.14355 43.6998 18.102
619 2 12.0012 43.7122 18.093
620 2 16.1437 43.6926 17.8327
621 2 19.8905 43.5015 17.9976
622 2 23.8658 43.5342 18.122
623 2 27.928 43.5735 18.1157
624 2 31.9303 43.4446 18.0586
625 2 35.7293 43.5091 18.1629
626 2 39.7281 43.6584 18.1784
627 2 43.7079 43.4884 18.0377
628 2 47.7051 43.4381 18.1389
629 2 51.7709 43.5014 17.7495
630 2 55.2844 43.6851 18.12
631 2 59.4504 47.6778 18.1215
632 2 4.2801 47.442 18.0547
633 2 8.00153 47.4659 18.0394
634 2 11.9034 47.6021 18.0122
635 2 16.1026 47.5174 18.0834
636 2 20.0346 47.574 18.1007
637 2 23.7914 47.4633 18.175
638 2 27.652 47.5523 18.1624
639 2 31.7793 47.541 17.9978
640 2 35.7713 47.5132 18.0863
641 2 39.7524 47.4746 18.1097
642 2 43.7716 47.5774 18.0095
643 2 47.5885 47.5102 18.0554
644 2 51.4903 47.4993 18.1095
645 2 55.5757 47.5995 18.0222
646 2 0.166435 51.5129 17.9343
647 2 4.19796 51.4087 18.0968
648 2 8.19064 51.5894 18.0792
649 2 11.9282 51.2714 18.1524
650 2 15.885 51.3605 17.9817
651 2 20.0593 51.2719 17.7745
652 2 23.7201 51.5615 18.1138
653 2 27.8923 51.4496 18.1702
654 2 31.8663 51.5627 17.9292
655 2 35.6412 51.5593 18.014
656 2 39.5707 51.5083 18.1255
657 2 43.5114 51.6284 18.0352
658 2 47.5505 51.6975 18.0872
659 2 51.553 51.5911 18.2443
660 2 55.5465 51.5567 17.7429
661 2 0.18692 55.4792 18.1747
662 2 4.01357 55.5268 18.1388
663 2 7.98585 55.3679 18.2577
664 2 11.971 55.3919 18.1093
665 2 15.9575 55.5994 17.9268
666 2 19.694 55.4566 18.0423
667 2 23.8374 55.5863 17.9725
668 2 27.9382 55.3102 17.7979
669 2 31.8007 55.5257 17.9387
670 2 35.7899 55.464 18.0655
671 2 39.5975 55.4632 18.0935
672 2 43.5704 55.6437 18.0407
673 2 47.589 55.538 18.2175
674 2 51.715 55.3127 18.1222
675 2 55.6022 55.4754 18.1035
676 2 59.4267 59.434 22.0534
677 2 3.88109 0.198966 21.9296
678 2 7.87961 0.041894 22.2512
679 2 11.9344 59.3711 22.0331
680 2 16.0136 -0.0155488 22.2074
681 2 19.8808 0.141429 21.9705
682 2 23.659 -0.186005 22.0602
683 2 27.7532 59.3071 22.0511
684 2 31.6618 -0.0419936 22.05
685 2 35.7967 59.6022 22.023
686 2 39.5585 0.025606 21.9831
687 2 43.5597 0.280508 21.9322
688 2 47.842 0.21584 22.0601
689 2 51.6721 0.0356491 22.0482
690 2 55.3552 -0.019943 21.8489
691 2 0.0421984 3.92597 22.1374
692 2 3.91238 4.13625 21.9732
693 2 8.1992 4.00668 22.1979
694 2 11.9301 4.06914 21.9336
695 2 15.7668 4.05535 21.9294
696 2 19.8542 4.0296 21.9802
697 2 23.9248 4.22993 21.9944
698 2 27.7746 4.14555 22.0584
699 2 31.8396 3.95163 21.9619
700 2 35.6747 4.18506 22.0889
701 2 39.7727 4.16489 21.9955
702 2 43.7928 4.0616 21.9997
703 2 47.6895 3.86478 21.8739
704 2 51.4977 4.29264 21.9667
705 2 55.4572 3.86451 21.8813
706 2 59.5535 7.98595 22.0627
707 2 4.07093 7.7889 22.0679
708 2 8.0554 7.91964 21.9699
709 2 11.8268 7.98949 22.1975
710 2 15.9268 7.96417 21.9387
711 2 19.8219 8.07997 22.0811
712 2 24.0516 8.10158 21.8907
713 2 27.8603 8.01069 21.9757
714 2 31.7803 8.09989 21.9179
715 2 35.7944 8.0868 21.9328
716 2 39.612 7.99049 21.9888
717 2 43.5534 7.89836 22.1033
718 2 47.614 8.04462 22.0724
719 2 51.6736 7.83592 21.998
720 2 55.4765 8.08612 22.1657
721 2 0.215847 11.9784 22.0705
722 2 3.98444 11.8147 21.9849
723 2 8.10632 12.0631 22.0553
724 2 11.9535 11.9386 22.0599
725 2 15.8892 11.8946 21.9738
726 2 19.8716 11.7701 22.0416
727 2 24.1601 11.9212 21.773
728 2 27.9145 11.9197 22.0681
729 2 31.7763 12.1419 22.113
730 2 35.5354 12.1511 21.8909
731 2 39.5105 11.8678 21.9599
732 2 43.5905 12.0291 22.1396
733 2 47.411 11.7473 21.9342
734 2 51.2656 11.9506 22.1064
735 2 55.5879 11.8784 22.1046
736 2 0.0963596 15.7529 22.0304
737 2 4.11015 15.8523 22.055
738 2 8.02526 15.8639 22.0514
739 2 12.0618 15.8733 21.9104
740 2 15.8546 15.867 22.1572
741 2 19.7522 15.786 22.165
742 2 23.8326 15.8421 22.1023
743 2 27.7984 16.0661 22.0577
744 2 31.6982 15.9687 22.1598
745 2 35.6746 15.991 22.0733
746 2 39.5392 15.7074 22.1529
747 2 43.6803 15.9299 22.1082
748 2 47.5169 15.9786 22.1453
749 2 51.6128 15.8995 22.0023
750 2 55.5731 15.9841 22.2669
751 2 0.277516 19.9164 21.9926
752 2 4.11977 19.8213 22.0875
753 2 8.05267 19.7752 22.1974
754 2 12.0739 20.0183 22.0606
755 2 15.7907 19.7895 22.1026
756 2 20.0049 19.9101 22.0483
757 2 23.7414 19.9928 22.2511
758 2 27.8467 19.6923 21.9421
759 2 31.8495 19.7493 21.7709
760 2 35.5633 19.9701 22.0836
761 2 39.5398 19.8799 22.0706
762 2 43.488 19.7957 22.2518
763 2 47.7038 19.8948 22.038
764 2 51.5092 19.823 22.1833
765 2 55.589 19.7945 21.9863
766 2 0.202056 23.9391 22.0437
767 2 3.95977 23.8136 21.9885
768 2 7.89589 23.9917 22.0039
769 2 11.7796 23.8038 22.1747
770 2 15.9388 24.032 22.1417
771 2 20.0006 23.8516 21.9712
772 2 23.9172 23.6247 21.8778
773 2 27.8926 23.8214 21.8904
774 2 31.7356 23.6974 21.8771
775 2 35.6349 23.6536 22.2126
776 2 39.942 23.807 22.0254
777 2 43.7626 23.7863 22.0844
778 2 47.4476 23.8185 22.0718
779 2 51.7711 23.7142 22.0994
780 2 55.4552 23.7893 22.1413
781 2 0.0814794 27.6948 21.9881
782 2 4.00059 27.7742 22.1523
783 2 8.11017 27.9078 21.9128
784 2 11.786 27.7098 21.9948
785 2 15.974 27.9613 22.0327
786 2 19.8682 27.8622 22.1065
787 2 24.0485 27.8327 22.0085
788 2 27.9249 27.759 22.1501
789 2 31.7129 27.792 21.9396
790 2 35.7924 27.5374 21.9391
791 2 39.7879 27.9491 22.1201
792 2 43.6507 27.8187 22.0882
793 2 47.7165 27.7239 22.1286
794 2 51.601 27.762 22.0348
795 2 55.5226 27.7401 22.2876
796 2 59.4896 31.7659 22.1177
797 2 4.15516 31.6691 22.1197
798 2 8.06723 31.6733 22.1262
799 2 12.0889 31.6492 21.9605
800 2 15.8905 31.9467 22.1058
801 2 19.9055 31.7489 22.1001
802 2 23.9746 31.8901 21.873
803 2 27.9097 31.9879 22.1001
804 2 32.0386 31.7378 21.9713
805 2 35.73 31.6216 21.9395
806 2 40.02 31.6389 21.931
807 2 43.6991 31.6739 21.9606
808 2 47.634 31.7697 22.1224
809 2 51.6258 31.6515 22.0151
810 2 55.5409 31.9045 22.0658
811 2 0.0815839 35.6663 22.0735
812 2 4.1804 35.9549 22.0784
813 2 8.12407 35.8645 21.9356
814 2 12.0614 35.6258 22.1388
815 2 15.9244 35.676 21.9544
816 2 19.9109 35.7134 22.0398
817 2 23.7268 35.781 22.1919
818 2 27.965 35.6681 21.9829
819 2 31.9993 35.7232 21.978
820 2 35.7752 35.5358 22.0727
821 2 39.8028 35.6188 22.0913
822 2 43.7367 35.6177 22.1252
823 2 47.57 35.6533 22.0505
824 2 51.5335 35.6533 21.878
825 2 55.6648 35.7902 22.0673
826 2 0.161041 39.7734 22.0329
827 2 3.83789 39.8303 21.8906
828 2 7.90523 39.9011 21.8765
829 2 11.9327 39.8301 22.1611
830 2 15.9583 39.4674 22.0087
831 2 19.5628 39.7006 22.0627
832 2 23.9055 39.8258 22.0073
833 2 27.7928 39.6157 22.1741
834 2 32.0267 39.5846 22.035
835 2 35.7425 39.64 22.0538
836 2 39.6685 39.5708 22.1781
837 2 43.6304 39.7134 21.9602
838 2 47.8721 39.4953 21.8157
839 2 51.7407 39.5465 22.0029
840 2 55.6385 39.5566 22.0917
841 2 59.4263 43.7366 21.8593
842 2 4.07595 43.7058 22.0566
843 2 8.07072 43.6223 22.0698
844 2 12.1024 43.5419 22.0978
845 2 16.0804 43.5596 21.9745
846 2 19.8474 43.6792 22.0513
847 2 23.7973 43.7014 22.142
848 2 27.8089 43.5489 21.9995
849 2 31.6368 43.4892 22.2159
850 2 35.7833 43.3645 22.1715
851 2 39.7281 43.7134 22.1538
852 2 43.707 43.4575 22.1522
853 2 47.6277 43.7319 21.8325
854 2 51.4096 43.6082 22.1799
855 2 55.5116 43.61 22.0582
856 2 59.3955 47.5927 22.1193
857 2 3.95634 47.6499 22.1295
858 2 8.09881 47.5375 22.0847
859 2 12.0338 47.4387 22.1788
860 2 15.9534 47.5059 22.1974
861 2 19.7791 47.6739 22.1204
862 2 23.9715 47.4015 22.0428
863 2 27.7897 47.6944 21.9217
864 2 31.964 47.6465 21.8266
865 2 35.8229 47.6485 21.9802
866 2 39.7358 47.4894 22.0006
867 2 43.4346 47.5675 22.2087
868 2 47.5211 47.639 22.0793
869 2 51.5137 47.5701 22.1586
870 2 55.4578 47.557 21.9083
871 2 0.180225 51.4487 21.7863
872 2 4.2199 51.3968 21.9704
873 2 8.14616 51.7025 21.9607
874 2 12.0566 51.5589 21.8456
875 2 15.7343 51.6131 22.085
876 2 19.6817 51.6501 21.7844
877 2 23.7768 51.7834 21.9246
878 2 27.7407 51.5834 21.9009
879 2 31.7065 51.3564 22.0844
880 2 35.7738 51.517 21.8651
881 2 39.5158 51.5525 22.0394
882 2 43.5909 51.488 22.1621
883 2 47.4785 51.6412 22.0188
884 2 51.5274 51.5536 22.0474
885 2 55.6093 51.3701 21.8471
886 2 0.0243776 55.3037 22.0134
887 2 3.91083 55.4383 22.0384
888 2 8.06245 55.5356 22.0549
889 2 11.9452 55.6912 22.1235
890 2 16.1079 55.5529 21.9461
891 2 19.7865 55.3443 22.04
892 2 23.8488 55.5594 21.9958
893 2 27.7132 55.4413 22.0843
894 2 31.5691 55.4199 22.0039
895 2 35.3219 55.4796 22.0095
896 2 39.4996 55.495 21.912
897 2 43.6128 55.4733 22.0966
898 2 47.408 55.4575 21.9642
899 2 51.6035 55.3517 22.1091
900 2 55.535 55.3738 22.1522
901 2 -0.208388 59.5319 26.0538
902 2 4.02951 0.237648 26.066
903 2 7.81599 0.0999313 26.1463
904 2 11.9926 59.3625 26.0213
905 2 15.8929 59.3685 26.1328
906 2 19.796 0.209138 25.8907
907 2 23.9666 0.141189 26.0881
908 2 27.8898 0.0522443 25.8928
909 2 31.813 0.046145 26.007
910 2 35.7201 0.0397894 26.1883
911 2 39.6186 0.109621 25.9969
912 2 43.6158 0.265571 25.7884
913 2 47.5883 59.4056 26.0595
914 2 51.6853 0.125846 25.9176
915 2 55.4573 0.242686 25.9404
916 2 0.0719438 4.04584 25.9613
917 2 3.98737 4.05426 26.0479
918 2 7.99384 4.0282 26.0487
919 2 11.8805 4.08867 25.8722
920 2 16.1107 3.9731 26.0682
921 2 19.7357 4.14268 26.0756
922 2 23.8388 4.12999 25.8157
923 2 27.7511 4.05452 25.7438
924 2 31.7785 4.01698 25.7352
925 2 35.6401 4.06097 26.0757
926 2 39.4552 3.97846 25.9635
927 2 43.6286 4.08476 25.5502
928 2 47.4708 3.98285 25.9958
929 2 51.4346 4.12857 26.1361
930 2 55.541 4.06652 26.074
931 2 0.146537 7.91278 26.1376
932 2 4.08503 7.97604 25.9068
933 2 7.95658 8.17993 25.9247
934 2 11.914 8.00825 26.1667
935 2 15.9274 7.96897 25.8439
936 2 19.9543 8.23784 26.0389
937 2 23.8136 8.13991 25.9016
938 2 27.8153 8.09944 26.1171
939 2 31.7621 8.00793 26.0834
940 2 35.8498 8.05552 25.8642
941 2 39.7908 8.10075 26.0223
942 2 43.5586 7.9176 26.1755
943 2 47.6762 7.98556 26.0916
944 2 51.499 7.93902 26.0083
945 2 55.4664 7.86478 25.972
946 2 59.4829 12.0204 26.1106
947 2 4.12483 11.869 25.9578
948 2 7.8219 11.9395 25.9932
949 2 12.01 11.588 25.9159
950 2 16.049 11.9789 26.0464
951 2 19.9187 11.8853 26.1609
952 2 23.842 11.9651 26.0028
953 2 27.9506 12.0368 26.056
954 2 31.7633 12.0721 26.0449
955 2 35.647 11.9445 25.9853
956 2 39.5678 11.9175 25.952
957 2 43.6164 11.9494 26.1557
958 2 47.7766 12.1284 26.0292
959 2 51.4616 12.0011 25.9566
960 2 55.5034 12.0438 26.18
961 2 59.543 15.8439 26.1004
962 2 4.00586 15.9522 26.2018
963 2 7.89444 15.7575 26.1097
964 2 11.7129 15.6632 26.0179
965 2 15.7879 15.9041 25.9672
966 2 19.9194 15.8778 25.7447
967 2 23.8547 15.6706 26.0636
968 2 27.6224 15.8887 26.0847
969 2 31.5899 16.1074 26.0779
970 2 35.6275 16.0325 25.8149
971 2 39.5383 15.894 26.1742
972 2 43.5182 16.0121 26.0729
973 2 47.4859 15.8342 25.9728
974 2 51.5205 16.0947 26.0128
975 2 55.5906 15.6936 25.9083
976 2 0.218102 19.8927 26.0408
977 2 4.00298 19.7923 26.1116
978 2 8.10193 19.9133 26.1355
979 2 11.8659 19.7871 25.8918
980 2 15.6788 20.2234 25.9525
981 2 19.7489 19.9342 25.9918
982 2 23.7219 19.933 26.0782
983 2 27.6084 19.9003 26.0996
984 2 31.5899 19.9804 25.7549
985 2 35.7537 19.9494 25.9806
986 2 39.667 19.8591 26.0662
987 2 43.6558 19.9359 26.2275
988 2 47.5096 20.0028 26.1351
989 2 51.6158 19.935 26.2002
990 2 55.5981 19.7143 26.1776
991 2 0.255413 23.8729 26.1327
992 2 3.85907 23.9317 26.0157
993 2 7.82828 23.7378 25.891
994 2 12.1259 23.8223 26.0488
995 2 15.8999 23.9582 26.0161
996 2 19.6606 23.9363 25.9134
997 2 23.7594 23.8841 26.0412
998 2 27.7846 23.8061 26.1012