ITEM: TIMESTEP
1550000
ITEM: NUMBER OF ATOMS
16875
ITEM: BOX BOUNDS xy xz yz pp pp pp
0.0000000000000000e+00 5.9369999999999997e+01 0.0000000000000000e+00
0.0000000000000000e+00 5.9369999999999997e+01 0.0000000000000000e+00
3.2004825343584642e-01 6.0046370746567149e+01 0.0000000000000000e+00
ITEM: ATOMS id type x y z
1 2 0.142557 59.4701 10.0955
2 2 4.18027 59.2512 9.8677
3 2 8.13359 59.3185 10.1135
4 2 12.0118 59.3868 10.136
5 2 16.046 59.3335 10.2102
6 2 19.852 59.3163 10.1278
7 2 23.6972 59.4135 10.1246
8 2 27.6651 59.4169 10.0918
9 2 31.5667 59.3625 10.1895
10 2 35.6955 59.2688 10.1739
11 2 39.6906 59.3537 10.1147
12 2 43.7505 -0.126061 9.98697
13 2 47.7676 59.3042 10.1827
14 2 51.6304 59.4337 10.0434
15 2 55.5644 0.027722 10.1578
16 2 0.33092 4.14025 10.0077
17 2 4.19124 3.82295 10.0959
18 2 8.12262 4.03078 10.2169
19 2 12.0335 3.88329 10.1458
20 2 15.9891 4.02736 10.3305
21 2 19.792 3.795 10.1298
22 2 23.6126 4.03195 10.2441
23 2 27.7314 3.88311 10.3464
24 2 31.8806 3.8414 10.1461
25 2 35.8955 3.93673 10.0087
26 2 39.9029 3.84875 10.0535
27 2 43.7374 3.84798 10.1206
28 2 47.5285 3.8724 10.1557
29 2 51.5561 3.96894 10.2247
30 2 55.7744 3.83164 10.1359
31 2 0.112324 7.86948 10.1321
32 2 4.128 7.81093 10.1596
33 2 8.02697 7.76081 10.1098
34 2 11.8413 7.9225 10.1941
35 2 15.8132 7.82806 10.0823
36 2 19.8133 7.73705 10.1765
37 2 23.7188 7.85296 10.435
38 2 27.9267 7.83055 10.1236
39 2 31.9414 7.95554 10.1872
40 2 35.7914 7.7138 10.1001
41 2 39.5754 7.89324 10.2689
42 2 43.5728 7.80907 10.2921
43 2 47.6984 7.84843 10.1917
44 2 51.7059 7.83049 10.0951
45 2 55.7356 7.87317 9.96072
46 2 0.203059 11.8855 10.0268
47 2 4.26836 11.7125 10.0111
48 2 8.16794 11.6535 10.0793
49 2 12.0891 11.9052 9.9718
50 2 16.0297 11.7688 10.0482
51 2 19.9342 11.7854 10.0643
52 2 23.8709 11.8314 10.2004
53 2 27.6011 11.8118 10.1985
54 2 31.809 11.7757 10.1519
55 2 35.8704 11.8712 10.0908
56 2 39.8637 11.7958 10.079
57 2 43.642 11.7997 10.2562
58 2 47.5044 11.982 10.011
59 2 51.66 11.8035 10.0313
60 2 55.6734 11.8309 10.0747
61 2 0.284139 15.8461 10.2028
62 2 4.21165 15.6358 10.2013
63 2 7.92806 15.6522 10.1091
64 2 11.9199 15.7462 10.2827
65 2 16.0195 15.8399 10.1296
66 2 19.8751 15.7488 10.1313
67 2 23.8378 15.9398 10.078
68 2 27.7429 15.7106 10.1592
69 2 31.6656 15.5592 10.0048
70 2 35.8259 15.7452 10.1249
71 2 39.754 15.7626 10.1262
72 2 43.5231 15.8653 9.9013
73 2 47.5387 16.0405 10.0583
74 2 51.7153 15.8362 10.1378
75 2 55.6074 15.8211 10.0566
76 2 0.195607 19.602 10.0754
77 2 3.94966 19.7957 10.0076
78 2 7.85703 19.753 9.91951
79 2 11.7778 19.6781 10.0524
80 2 15.6091 19.6686 9.97089
81 2 19.6989 19.641 10.1264
82 2 23.8698 19.6914 9.96528
83 2 27.8877 19.8815 10.0398
84 2 31.612 19.6963 10.1578
85 2 35.6796 19.7483 10.0682
86 2 39.6778 19.7313 9.96573
87 2 43.7762 19.7364 9.96296
88 2 47.5481 19.7884 10.0696
89 2 51.7952 19.7264 10.1451
90 2 55.6857 19.885 9.90302
91 2 0.229836 23.7091 10.2536
92 2 4.11188 23.6226 9.8457
93 2 8.10221 23.652 9.97713
94 2 12.0576 23.7795 10.1357
95 2 15.9912 23.8807 9.91612
96 2 20.1897 23.6996 9.94618
97 2 23.8248 23.5018 10.0954
98 2 27.7911 23.7468 10.1214
99 2 31.7733 23.8299 9.93753
100 2 35.5776 23.7539 10.1653
101 2 39.537 23.6671 9.90574
102 2 43.6481 23.6262 10.0784
103 2 47.6749 23.525 10.0003
104 2 51.6815 23.5998 10.2095
105 2 55.5281 23.8656 9.87035
106 2 0.062088 27.762 10.0612
107 2 4.02048 27.7255 9.76666
108 2 7.84392 27.6356 10.3017
109 2 11.9876 27.8636 9.93506
110 2 15.9912 27.7476 10.0565
111 2 20.006 27.686 10.0306
112 2 23.78 27.5156 10.0176
113 2 27.9033 27.6115 10.0917
114 2 31.9733 27.6149 10.1106
115 2 35.8548 27.5832 9.98072
116 2 39.6723 27.5769 10.1988
117 2 43.6378 27.705 9.90425
118 2 47.5073 27.6735 9.91795
119 2 51.5002 27.5916 10.1594
120 2 55.5835 28.0072 9.9012
121 2 59.6372 31.7017 10.0139
122 2 4.18842 31.6 10.041
123 2 7.86925 31.7097 10.0895
124 2 11.8205 31.6627 9.95259
125 2 15.9348 31.6807 9.86645
126 2 19.8114 31.6368 10.1251
127 2 23.8411 31.6226 9.96047
128 2 28.0054 31.5512 10.0305
129 2 31.9005 31.5381 10.0548
130 2 35.8105 31.6547 10.0714
131 2 39.8329 31.444 10.0805
132 2 43.5621 31.7841 10.0294
133 2 47.6923 31.6124 10.0346
134 2 51.5173 31.5121 10.0457
135 2 55.6167 31.6316 10.0965
136 2 59.4853 35.5773 10.0986
137 2 4.04289 35.6801 9.9109
138 2 7.99693 35.7057 9.97579
139 2 11.9032 35.6836 9.96661
140 2 15.9389 35.5745 10.1721
141 2 19.7947 35.5095 10.0956
142 2 23.963 35.546 10.0277
143 2 27.8578 35.3634 9.94041
144 2 31.7292 35.4946 10.0507
145 2 35.5395 35.6446 10.1336
146 2 39.366 35.7379 10.0904
147 2 43.236 35.6313 10.1397
148 2 47.4225 35.6223 10.2433
149 2 51.4253 35.5569 9.77638
150 2 55.5955 35.6344 10.1255
151 2 0.0690979 39.4899 10.0838
152 2 4.29911 39.7675 10.029
153 2 8.00408 39.5496 9.98965
154 2 11.9002 39.5025 10.2538
155 2 15.8926 39.4068 10.2124
156 2 19.6445 39.4215 10.0538
157 2 23.8424 39.512 10.228
158 2 27.8867 39.2652 10.1477
159 2 31.6461 39.5418 10.22
160 2 35.5213 39.5154 10.2818
161 2 39.6471 39.6618 10.017
162 2 43.5495 39.7027 10.0647
163 2 47.5575 39.6605 10.3435
164 2 51.6072 39.4757 10.0872
165 2 55.4003 39.5645 10.1249
166 2 -0.0699678 43.5227 10.142
167 2 3.90505 43.5973 10.1141
168 2 7.9062 43.5201 10.0375
169 2 11.7931 43.5931 10.2758
170 2 15.7813 43.532 10.1023
171 2 19.8861 43.4042 10.1097
172 2 23.7019 43.4017 10.1329
173 2 27.678 43.3508 10.1417
174 2 31.7054 43.5234 10.1922
175 2 35.5937 43.6455 10.1237
176 2 39.5593 43.5182 9.96634
177 2 43.6388 43.6433 10.1391
178 2 47.583 43.4331 10.1772
179 2 51.5674 43.5267 10.1336
180 2 55.4315 43.5366 10.084
181 2 0.127714 47.5153 10.0397
182 2 4.0225 47.5639 10.0596
183 2 7.99977 47.6708 10.0591
184 2 11.877 47.5613 9.98538
185 2 15.881 47.531 10.1762
186 2 19.9281 47.4475 10.1374
187 2 23.8221 47.4557 10.0642
188 2 27.859 47.2571 10.1829
189 2 31.7549 47.5073 10.1145
190 2 35.5816 47.6621 10.2774
191 2 39.6608 47.362 10.1285
192 2 43.674 47.5186 10.0866
193 2 47.5593 47.4984 10.1723
194 2 51.5588 47.6706 10.118
195 2 55.5092 47.5023 9.93611
196 2 59.6311 51.3193 9.89066
197 2 4.13962 51.4408 9.83343
198 2 8.08149 51.4154 10.162
199 2 12.1433 51.5348 10.0016
200 2 16.1577 51.3452 10.1129
201 2 19.8728 51.4269 10.3518
202 2 23.7347 51.355 10.1688
203 2 27.5207 51.36 10.2945
204 2 31.634 51.42 10.2316
205 2 35.7503 51.3085 10.2791
206 2 39.8951 51.3839 10.284
207 2 43.7632 51.2253 10.1152
208 2 47.6645 51.5128 10.1063
209 2 51.6811 51.6636 10.0547
210 2 55.6012 51.3992 10.0112
211 2 59.57 55.23 10.0567
212 2 3.94989 55.4321 10.2929
213 2 7.93243 55.3705 10.2626
214 2 12.1352 55.2855 10.1045
215 2 15.9211 55.4224 10.1556
216 2 19.671 55.3617 10.1116
217 2 23.8115 55.4609 10.2775
218 2 27.872 55.2683 10.1894
219 2 31.7114 55.3259 10.1348
220 2 35.8949 55.2227 10.1077
221 2 39.855 55.3169 9.9634
222 2 43.6252 55.3965 10.0774
223 2 47.9 55.3564 10.1485
224 2 51.8013 55.2275 10.1371
225 2 55.5733 55.3376 9.87937
226 2 0.146729 0.0255233 14.0725
227 2 4.00052 -0.0865968 14.0294
228 2 7.9921 59.3634 14.2622
229 2 12.0173 -0.254647 14.209
230 2 16.0581 0.112369 14.3045
231 2 19.9604 -0.212808 14.0106
232 2 23.9201 0.1212 14.2563
233 2 27.8043 0.125069 14.0534
234 2 31.6981 59.3777 14.0952
235 2 35.8692 59.2286 14.073
236 2 39.7061 59.4485 13.9979
237 2 43.6689 59.3739 14.2185
238 2 47.5948 59.3767 13.9099
239 2 51.6254 59.3713 14.1164
240 2 55.5794 59.3786 14.3069
241 2 0.149788 3.88657 14.2036
242 2 3.96471 4.0487 14.0872
243 2 7.97713 3.97247 14.2247
244 2 11.966 3.74091 14.2274
245 2 15.8904 3.98601 14.0421
246 2 19.7917 4.02739 14.0981
247 2 23.7933 4.01895 14.0707
248 2 27.8329 4.02457 14.0336
249 2 31.8654 3.94048 14.0402
250 2 35.752 3.84716 14.1959
251 2 39.7298 4.0103 14.1174
252 2 43.7138 4.03789 14.0539
253 2 47.432 3.86925 14.0211
254 2 51.8058 4.13492 14.082
255 2 55.7341 3.95335 14.1735
256 2 0.197915 7.96951 14.253
257 2 4.0263 7.9368 14.1779
258 2 8.01299 7.99194 14.1195
259 2 11.8679 7.94827 14.2683
260 2 15.9 7.80436 14.2164
261 2 19.7699 8.10041 14.1327
262 2 23.9132 7.86924 14.1409
263 2 27.7389 7.76263 14.0541
264 2 31.8465 7.98777 14.0128
265 2 35.873 8.09102 14.1825
266 2 39.487 7.9681 14.1282
267 2 43.8015 7.9862 13.977
268 2 47.6964 7.86647 14.0858
269 2 51.4637 8.03286 14.1293
270 2 55.4887 7.9644 14.0174
271 2 0.0098926 11.7984 14.0938
272 2 3.8154 11.72 14.1308
273 2 7.85345 11.7416 14.3769
274 2 12.0272 11.8095 13.9934
275 2 15.8401 11.7811 14.0605
276 2 19.8066 12.045 14.2201
277 2 23.8419 11.8792 14.2068
278 2 27.8592 11.9001 14.112
279 2 31.811 11.9684 13.86
280 2 35.677 12.038 14.0947
281 2 39.5825 11.9072 14.1102
282 2 43.7535 11.8821 14.064
283 2 47.5903 11.9233 13.8261
284 2 51.6197 11.9844 14.0714
285 2 55.5687 11.966 14.1829
286 2 -0.104151 15.6762 14.0706
287 2 3.95094 15.6615 14.0888
288 2 7.893 15.9253 13.9979
289 2 11.9768 15.9047 13.8813
290 2 15.8523 15.7411 13.9934
291 2 19.918 15.8383 14.0901
292 2 23.4368 16.0708 14.048
293 2 27.6566 15.9368 14.019
294 2 31.9307 15.8249 13.9365
295 2 35.8826 15.9874 13.9997
296 2 39.9323 15.9314 14.1404
297 2 43.6466 15.913 13.9903
298 2 47.6097 15.7985 14.1248
299 2 51.5785 15.7922 14.1614
300 2 55.6103 15.8897 14.2308
301 2 -0.0429275 19.6406 13.9841
302 2 3.99367 19.793 14.0944
303 2 7.92246 20.0002 14.0379
304 2 12.1187 19.8905 13.8517
305 2 15.9432 20.0853 14.0264
306 2 19.6827 19.8371 14.0693
307 2 23.9305 19.8703 13.8567
308 2 27.7795 19.8164 14.0523
309 2 31.8881 19.7377 14.0298
310 2 35.9334 19.7318 14.0541
311 2 39.6665 19.9369 14.1523
312 2 43.6632 19.7944 14.1217
313 2 47.3634 19.655 14.1664
314 2 51.5002 19.8555 14.0969
315 2 55.5994 19.7655 14.094
316 2 0.223478 23.7277 13.898
317 2 4.22689 23.794 13.9213
318 2 8.12548 23.6868 13.9609
319 2 12.0665 23.8472 14.1485
320 2 16.1536 23.941 13.9061
321 2 19.984 23.7843 14.1018
322 2 24.0236 23.6888 14.1097
323 2 27.724 23.7163 14.0924
324 2 31.829 23.6739 14.2113
325 2 35.8089 23.7632 13.9176
326 2 40.0148 23.859 13.8945
327 2 43.7162 23.7217 13.9049
328 2 47.6279 23.7886 14.0062
329 2 51.4955 23.5274 13.9116
330 2 55.5904 23.7859 13.9705
331 2 0.147846 27.7373 13.9755
332 2 4.10177 27.6325 14.1209
333 2 8.15527 27.6295 13.9882
334 2 12.0586 27.6933 13.9413
335 2 15.7575 27.7126 14.0435
336 2 19.9917 27.6246 14.1599
337 2 23.8539 27.7289 13.9435
338 2 27.7933 27.6096 13.9015
339 2 31.7452 27.8194 14.1247
340 2 35.6723 27.5875 14.0535
341 2 39.5786 27.8542 14.0793
342 2 43.7811 27.4614 14.1746
343 2 47.699 27.7803 13.7434
344 2 51.533 27.6933 14.0782
345 2 55.4788 27.7694 14.1137
346 2 59.6227 31.708 13.7956
347 2 4.02294 31.4506 14.1085
348 2 8.03567 31.559 14.0457
349 2 12.047 31.6535 14.0023
350 2 15.8467 31.3888 14.0046
351 2 20.0019 31.5897 13.9323
352 2 23.8607 31.592 14.0478
353 2 27.6937 31.5703 14.0894
354 2 31.6066 31.7051 14.1258
355 2 35.5664 31.6856 14.083
356 2 39.6437 31.4925 14.1088
357 2 43.5756 31.5029 14.1408
358 2 47.6012 31.8148 13.9123
359 2 51.5051 31.8658 13.8499
360 2 55.5181 31.6289 13.9779
361 2 0.194096 35.6374 13.9269
362 2 4.191 35.6741 14.1815
363 2 7.88178 35.5915 14.1771
364 2 11.916 35.7639 14.1353
365 2 15.9563 35.4792 14.0751
366 2 20.0544 35.4348 14.0748
367 2 23.8654 35.5846 13.8997
368 2 27.7187 35.6375 13.9131
369 2 31.7705 35.4437 14.0842
370 2 35.6904 35.7517 14.0732
371 2 39.5884 35.5511 14.0676
372 2 43.4625 35.6457 14.191
373 2 47.4407 35.846 14.0218
374 2 51.4982 35.6098 13.9591
375 2 55.6232 35.595 13.9808
376 2 -0.0361003 39.4507 14.0406
377 2 4.03893 39.5712 14.147
378 2 7.96524 39.7584 13.9562
379 2 12.0311 39.6983 14.0561
380 2 15.8892 39.4735 14.0044
381 2 19.7782 39.597 14.0102
382 2 23.9387 39.3728 14.1401
383 2 27.7153 39.5567 14.1747
384 2 31.5637 39.4233 14.219
385 2 35.6644 39.7115 13.8578
386 2 39.7029 39.8509 13.9874
387 2 43.4833 39.8134 14.1398
388 2 47.6362 39.5382 14.0031
389 2 51.72 39.4799 14.1327
390 2 55.5651 39.4612 14.0303
391 2 -0.121607 43.7015 13.9749
392 2 4.00973 43.7135 14.1199
393 2 8.05624 43.5389 14.1178
394 2 12.1335 43.4832 14.0788
395 2 16.0176 43.4459 14.052
396 2 19.8356 43.5341 14.0296
397 2 23.7276 43.3811 13.9749
398 2 27.7654 43.3902 14.242
399 2 31.7251 43.4087 14.2715
400 2 35.6688 43.6647 14.1451
401 2 39.5184 43.667 14.0291
402 2 43.6937 43.568 14.1799
403 2 47.8455 43.6127 13.8225
404 2 51.6207 43.6886 14.0244
405 2 55.3476 43.585 14.0832
406 2 0.0268639 47.6428 14.0348
407 2 4.02539 47.5516 13.8794
408 2 8.02771 47.4707 14.1388
409 2 11.9493 47.6585 14.0017
410 2 15.8645 47.4648 14.1103
411 2 19.9025 47.4378 14.052
412 2 23.7055 47.279 14.1854
413 2 27.7493 47.5058 14.1608
414 2 31.8259 47.4186 14.2029
415 2 35.6958 47.5035 14.1624
416 2 39.8305 47.4864 13.9952
417 2 43.7788 47.4555 14.2137
418 2 47.6347 47.5704 14.0593
419 2 51.6346 47.6242 14.1684
420 2 55.5305 47.5955 13.9703
421 2 0.291927 51.5417 14.1466
422 2 4.16891 51.5237 14.0582
423 2 8.19956 51.3301 14.1854
424 2 11.9809 51.5801 14.0502
425 2 15.9949 51.4499 14.2569
426 2 19.7506 51.3355 14.1385
427 2 23.7642 51.3878 14.0264
428 2 28.0017 51.3971 14.0267
429 2 31.7843 51.3939 14.0998
430 2 35.8417 51.4606 14.2673
431 2 39.9033 51.5 13.9946
432 2 43.6885 51.5019 14.0589
433 2 47.4758 51.3396 14.1467
434 2 51.5829 51.4674 14.1654
435 2 55.6629 51.6863 14.0254
436 2 59.5661 55.3893 14.0069
437 2 4.08526 55.278 14.1337
438 2 8.25611 55.2352 14.0964
439 2 12.0406 55.3292 14.1164
440 2 15.9663 55.3088 14.3518
441 2 19.9697 55.4643 14.134
442 2 23.7877 55.3146 14.1384
443 2 27.8619 55.5174 14.2245
444 2 31.8916 55.5483 14.3005
445 2 35.6705 55.3734 14.1071
446 2 39.7105 55.5097 14.1593
447 2 43.7591 55.4072 14.0516
448 2 47.597 55.5611 14.0586
449 2 51.7643 55.3392 14.1562
450 2 55.3646 55.5466 13.915
451 2 0.0411691 -0.125174 18.1984
452 2 3.996 -0.204088 18.2023
453 2 7.85585 59.3844 18.1707
454 2 11.9647 0.128252 18.1272
455 2 16.0335 -0.0346175 17.9786
456 2 19.693 0.00386336 18.1512
457 2 23.7199 0.151689 18.0363
458 2 27.8254 0.0471454 18.2919
459 2 31.8799 0.0879299 18.1098
460 2 35.6766 59.6027 18.0775
461 2 39.6979 0.330547 17.9838
462 2 43.5743 0.0603186 18.2508
463 2 47.5037 59.4703 18.0588
464 2 51.6514 59.442 18.1589
465 2 55.5153 59.2923 18.01
466 2 0.104319 3.93472 18.1616
467 2 4.14224 3.9278 18.1209
468 2 7.87163 4.09602 18.0593
469 2 12.1825 3.90363 18.0667
470 2 16.0106 4.04674 18.1186
471 2 19.8057 4.24841 17.9958
472 2 23.6238 3.96544 18.1802
473 2 27.8119 3.90751 18.1748
474 2 31.6575 4.08477 18.0279
475 2 35.7739 4.05182 18.1869
476 2 39.8928 3.94077 18.1012
477 2 43.6976 3.94987 18.1144
478 2 47.7927 4.0856 18.1963
479 2 51.6023 3.91496 18.1555
480 2 55.6966 4.05503 18.1508
481 2 0.080372 7.88404 18.0331
482 2 4.13944 7.96699 18.2551
483 2 8.05649 7.87805 18.1939
484 2 12.047 7.80763 18.2103
485 2 15.7914 7.95923 18.0788
486 2 19.9544 7.90369 18.296
487 2 23.8445 7.90515 18.1626
488 2 27.8758 7.83592 18.1307
489 2 31.6696 7.93961 18.0692
490 2 35.6279 7.92086 18.1978
491 2 39.815 8.03761 18.2073
492 2 43.6397 7.87213 18.0752
493 2 47.4224 7.8716 18.224
494 2 51.5252 7.82736 18.0599
495 2 55.417 7.85988 18.0635
496 2 0.0116413 11.8967 18.0642
497 2 4.05534 11.9598 18.1412
498 2 8.01844 11.7757 18.0331
499 2 11.9607 12.1975 17.9274
500 2 15.8531 12.2264 17.9812
501 2 19.9879 12.0834 17.986
502 2 23.9413 11.9771 18.1418
503 2 27.7824 12.0585 17.8743
504 2 31.8421 12.0213 17.7715
505 2 35.7917 11.9402 18.2064
506 2 39.7893 11.9347 17.9977
507 2 43.8505 11.8947 18.0868
508 2 47.5577 12.1195 18.1843
509 2 51.4979 11.9094 18.1103
510 2 55.482 11.8521 18.165
511 2 0.0978888 15.822 18.2353
512 2 4.04309 15.8962 18.0464
513 2 8.0329 15.8309 17.9097
514 2 12.1306 15.9179 17.8894
515 2 16.017 15.8979 18.1944
516 2 19.8598 15.8945 17.9237
517 2 23.6459 16.029 18.0519
518 2 27.7013 15.8663 18.1329
519 2 31.647 16.094 17.9442
520 2 35.7265 15.8359 18.1766
521 2 39.6697 15.8773 18.0523
522 2 43.5401 15.9283 17.9407
523 2 47.6877 15.8691 18.0962
524 2 51.5033 15.9525 17.9524
525 2 55.4476 15.7284 18.1081
526 2 0.0313597 19.9714 17.9943
527 2 4.02933 19.7017 17.9742
528 2 8.0774 19.9445 17.9301
529 2 12.0375 19.7456 18.1236
530 2 15.9732 19.7601 18.0033
531 2 19.7627 19.7732 18.1024
532 2 23.7356 19.8697 17.9747
533 2 27.7675 19.8646 18.1121
534 2 31.6191 20.0453 18.0103
535 2 35.737 19.7053 18.1265
536 2 39.5803 19.9488 18.048
537 2 43.4605 19.9802 18.1057
538 2 47.5579 20.0257 18.2107
539 2 51.5571 20.0245 17.9606
540 2 55.3598 19.9161 17.988
541 2 -0.121932 23.8818 17.7822
542 2 4.02841 23.73 18.0727
543 2 7.98079 23.9711 18.1069
544 2 11.9673 23.8459 17.8704
545 2 16.0566 23.7128 17.9517
546 2 19.8935 23.6927 18.2056
547 2 24.0112 23.9059 18.2091
548 2 27.8857 23.7917 17.985
549 2 31.7526 23.7069 17.9716
550 2 35.5968 23.7535 18.0054
551 2 39.6955 23.882 17.8746
552 2 43.5404 23.907 17.9457
553 2 47.6389 23.8771 18.0691
554 2 51.6365 23.8635 18.0917
555 2 55.4847 23.9535 17.8402
556 2 0.0908575 27.8272 18.0232
557 2 3.96657 27.9129 18.1796
558 2 7.95723 27.6913 17.9443
559 2 12.2409 27.7779 18.0588
560 2 16.0276 27.6328 18.1171
561 2 19.8212 27.8253 18.1031
562 2 23.8518 27.6104 18.1259
563 2 27.8384 27.6154 18.1054
564 2 31.8444 27.682 18.0483
565 2 35.6411 27.8748 18.149
566 2 39.64 27.7395 17.9464
567 2 43.7512 27.8042 18.0942
568 2 47.5437 27.9382 17.8303
569 2 51.6533 27.8857 18.0383
570 2 55.336 27.7166 18.0099
571 2 -0.0357651 31.6223 17.9214
572 2 4.1512 31.4691 17.8574
573 2 8.29187 31.6023 17.9487
574 2 12.0699 31.8491 18.0526
575 2 16.0094 31.7093 18.1
576 2 19.9673 31.554 17.9932
577 2 23.8433 31.8795 18.0006
578 2 27.8155 31.5137 18.063
579 2 31.7986 31.8699 18.0471
580 2 35.7012 31.6594 18.0963
581 2 39.5779 31.8352 18.0088
582 2 43.8161 31.7928 18.0644
583 2 47.6663 31.7321 17.8563
584 2 51.4439 31.7999 17.9218
585 2 55.2873 31.8164 17.8652
586 2 0.199867 35.6102 18.1047
587 2 4.01108 35.7147 18.1506
588 2 8.00002 35.5272 18.0575
589 2 12.2415 35.6069 17.9536
590 2 16.0991 35.5504 17.9722
591 2 19.7856 35.5405 18.1008
592 2 23.7796 35.5606 18.03
593 2 27.6336 35.7437 18.01
594 2 31.6712 35.5998 18.1339
595 2 35.7794 35.7063 18.1548
596 2 39.6093 35.6361 17.9832
597 2 43.5077 35.5558 18.1735
598 2 47.5788 35.6079 17.9389
599 2 51.4828 35.6501 18.1506
600 2 55.4347 35.4998 18.1276
601 2 0.078375 39.6925 18.1821
602 2 3.95745 39.6401 18.0578
603 2 8.0891 39.663 18.0176
604 2 12.0893 39.5033 17.9454
605 2 15.9663 39.4533 17.954
606 2 19.9303 39.6843 18.0841
607 2 23.7753 39.4741 18.0587
608 2 27.874 39.6608 18.0724
609 2 31.7609 39.5374 18.3598
610 2 35.6606 39.428 17.8921
611 2 39.6663 39.6895 17.9693
612 2 43.881 39.5964 18.0333
613 2 47.5399 39.7434 17.8771
614 2 51.4255 39.5514 18.0716
615 2 55.5859 39.5778 18.0026
616 2 0.0542474 43.5056 18.0852
617 2 4.18612 43.3922 17.9826
618 2 8.13323 43.5921 18.1541
619 2 12.003 43.4941 18.095
620 2 15.9577 43.5301 18.2562
621 2 19.9252 43.5531 18.0692
622 2 23.7306 43.5285 17.9088
623 2 27.5564 43.6713 18.153
624 2 31.7211 43.7825 18.0767
625 2 35.8722 43.656 17.9952
626 2 39.8014 43.4555 18.185
627 2 43.7374 43.5741 18.1609
628 2 47.7394 43.5602 18.0873
629 2 51.5171 43.4756 18.2479
630 2 55.7272 43.4012 17.9066
631 2 59.4795 47.5136 18.0516
632 2 4.11082 47.3763 18.151
633 2 8.12411 47.3409 18.0351
634 2 12.0852 47.48 18.1042
635 2 15.752 47.541 18.3252
636 2 19.93 47.6276 17.8494
637 2 23.9752 47.5836 17.9798
638 2 27.9983 47.7374 17.9674
639 2 31.812 47.6857 18.1325
640 2 35.905 47.5617 18.0871
641 2 39.6807 47.5143 18.2151
642 2 43.7493 47.5795 18.351
643 2 47.6777 47.5903 18.042
644 2 51.7116 47.5616 18.0648
645 2 55.547 47.6322 18.0686
646 2 0.404285 51.2987 18.2263
647 2 4.17389 51.4818 17.9941
648 2 8.07214 51.3178 18.1683
649 2 11.8972 51.4743 18.219
650 2 16.2182 51.3208 18.1234
651 2 19.7346 51.59 18.1326
652 2 23.8559 51.7188 18.0292
653 2 27.8443 51.8163 18.1618
654 2 32.0964 51.4909 18.034
655 2 35.9166 51.5126 18.1102
656 2 39.8801 51.6162 17.8641
657 2 43.6043 51.6067 18.253
658 2 47.6451 51.4058 18.2159
659 2 51.5322 51.6299 18.0147
660 2 55.6272 51.3368 18.2645
661 2 0.253525 55.2791 17.9037
662 2 4.01843 55.3799 18.0274
663 2 8.10296 55.3662 18.0581
664 2 11.9901 55.4631 18.289
665 2 15.937 55.3169 18.2555
666 2 19.978 55.3669 18.2157
667 2 23.9333 55.5963 18.0754
668 2 27.6603 55.5446 17.8328
669 2 31.5494 55.4216 18.0505
670 2 35.7954 55.5648 18.2429
671 2 39.6362 55.6203 18.2463
672 2 43.534 55.5478 18.2205
673 2 47.5382 55.3776 18.063
674 2 51.4732 55.4861 18.1399
675 2 55.4393 55.384 17.9535
676 2 59.345 59.5696 22.0563
677 2 3.99072 0.11649 22.16
678 2 8.06112 0.231167 22.0506
679 2 11.8882 59.4196 21.8965
680 2 15.6924 0.104665 21.9345
681 2 19.8924 0.0795819 21.9548
682 2 23.7392 0.222644 21.9895
683 2 27.8036 59.3846 22.1855
684 2 31.6502 -0.0424198 22.2452
685 2 35.5908 59.391 22.0894
686 2 39.5512 0.144369 21.9652
687 2 43.5368 -0.0348954 22.0637
688 2 47.4408 0.237928 22.2833
689 2 51.6707 -0.158287 22.0554
690 2 55.5373 -0.145718 22.1646
691 2 -0.0520041 4.12584 22.1253
692 2 3.94149 4.23373 22.0802
693 2 7.8772 4.23506 22.108
694 2 12.0001 3.91782 22.1169
695 2 15.8744 3.99241 22.2686
696 2 19.8034 3.98432 21.8448
697 2 23.6071 3.9105 22.1183
698 2 27.544 4.02779 22.1849
699 2 31.3904 3.94688 22.2023
700 2 35.4773 3.96024 22.1469
701 2 39.5462 4.09463 22.0657
702 2 43.4976 4.02925 22.1185
703 2 47.7508 3.98501 22.0405
704 2 51.8584 3.96241 22.1051
705 2 55.4771 3.92391 21.9943
706 2 59.497 8.05277 22.0568
707 2 3.90201 8.21833 21.9985
708 2 7.97238 8.04223 22.0475
709 2 12.0594 8.00725 21.9399
710 2 15.925 8.17717 21.976
711 2 19.727 8.07623 22.0065
712 2 23.8603 7.9239 22.1315
713 2 27.7664 8.0126 21.9205
714 2 31.6042 8.14896 22.0129
715 2 35.5826 8.02695 22.035
716 2 39.5831 7.97922 22.2233
717 2 43.6105 7.85803 22.0091
718 2 47.6683 8.08445 22.0604
719 2 51.5797 7.75221 22.0548
720 2 55.4285 8.01354 21.9807
721 2 -0.132569 11.8633 22.2311
722 2 4.16812 12.0376 22.033
723 2 8.06464 11.9759 22.0908
724 2 11.8471 12.0102 21.8715
725 2 16.0868 11.9912 21.9127
726 2 19.8233 12.0573 21.9314
727 2 23.7647 11.9769 22.1169
728 2 27.7297 12.0625 21.9069
729 2 31.717 11.9845 21.9112
730 2 35.7248 12.0814 21.9854
731 2 39.552 11.952 22.0646
732 2 43.8034 11.8415 22.0609
733 2 47.5306 11.9612 22.0177
734 2 51.6687 12.1823 22.0366
735 2 55.3804 11.9185 22.0773
736 2 0.115855 15.8517 21.9918
737 2 3.90975 16.0219 21.9969
738 2 7.94277 15.8943 21.9374
739 2 11.8382 15.8838 22.0541
740 2 15.9618 15.8958 22.1339
741 2 19.9015 15.9315 22.124
742 2 23.7654 15.762 22.1204
743 2 27.7512 15.761 22.1301
744 2 31.7635 15.9891 21.9506
745 2 35.7431 15.7045 22.0363
746 2 39.6502 15.9948 22.1473
747 2 43.6243 15.8837 21.9119
748 2 47.5733 15.9 22.2257
749 2 51.6413 16.0277 21.9985
750 2 55.5066 15.9896 22.1445
751 2 0.189582 20.0941 21.9715
752 2 3.78772 20.062 21.8983
753 2 7.7674 19.9519 21.9039
754 2 11.9437 19.8251 22.0681
755 2 15.6792 19.6448 21.9423
756 2 19.7639 19.8444 22.0268
757 2 23.7094 19.9314 22.1398
758 2 27.7708 19.7726 22.1167
759 2 31.6019 19.9698 22.0191
760 2 35.6963 19.7775 21.9268
761 2 39.6139 19.902 22.066
762 2 43.7511 19.9107 21.8837
763 2 47.5876 19.9678 21.999
764 2 51.5415 19.9566 21.8699
765 2 55.5319 19.8549 21.8511
766 2 -0.0704889 23.9032 22.1404
767 2 3.95667 23.8351 21.9712
768 2 8.00535 23.8297 22.0689
769 2 11.8675 23.6641 21.8752
770 2 15.8832 23.9163 21.9473
771 2 19.8545 23.778 22.035
772 2 23.645 23.6881 22.1085
773 2 27.6815 23.972 22.0023
774 2 31.691 23.632 22.196
775 2 35.7045 23.9695 21.9734
776 2 39.5244 23.768 21.9143
777 2 43.3962 23.9689 21.9941
778 2 47.4114 23.9061 22.0915
779 2 51.4293 23.9209 22.1159
780 2 55.6144 23.8786 22.0691
781 2 0.119227 27.6065 22.0719
782 2 4.16895 27.8421 21.8612
783 2 8.13488 27.616 22.1622
784 2 11.9006 27.9983 21.9805
785 2 16.0237 27.5605 21.9711
786 2 19.7701 27.7498 22.0701
787 2 23.6505 27.8592 22.0988
788 2 27.8403 27.8192 22.1143
789 2 31.7429 27.8986 22.0397
790 2 35.8067 27.9773 22.1195
791 2 39.7138 27.7042 22.1132
792 2 43.6847 27.8001 21.9406
793 2 47.4428 27.841 21.9031
794 2 51.505 27.9375 22.0883
795 2 55.5095 27.9149 21.9834
796 2 59.499 31.6035 21.9142
797 2 4.23458 31.7706 21.7711
798 2 8.10415 31.8405 22.1196
799 2 11.9088 31.7893 22.028
800 2 15.8527 31.5674 22.1546
801 2 19.7927 31.7174 22.0375
802 2 23.7996 31.5759 22.2063
803 2 27.5812 31.6123 22.0486
804 2 31.7166 31.766 22.0773
805 2 35.6396 31.6498 22.1314
806 2 39.4286 31.7343 22.0246
807 2 43.8113 31.6032 21.8305
808 2 47.6953 31.7819 22.2116
809 2 51.3929 31.6577 22.0146
810 2 55.5664 31.7054 21.9868
811 2 0.19682 35.6886 21.9921
812 2 4.14219 35.8049 21.9244
813 2 7.90277 35.8083 21.8815
814 2 12.0883 35.7524 22.1168
815 2 15.9451 35.4998 22.1843
816 2 19.8001 35.4791 22.0048
817 2 23.8068 35.7654 21.9898
818 2 27.6947 35.7906 21.9475
819 2 31.76 35.6832 22.0916
820 2 35.8581 35.8502 22.0152
821 2 39.4722 35.6666 22.1703
822 2 43.5989 35.7143 22.0791
823 2 47.6866 35.6192 22.1389
824 2 51.4797 35.5639 22.0602
825 2 55.5385 35.3503 22.0175
826 2 0.0231856 39.6533 22.1973
827 2 4.20027 39.4788 21.9951
828 2 8.25099 39.5551 22.0598
829 2 12.1084 39.6116 22.2064
830 2 16.0035 39.6659 22.1095
831 2 19.7843 39.5102 22.1481
832 2 23.8802 39.726 22.1116
833 2 27.8605 39.5943 22.0716
834 2 31.6344 39.67 22.0949
835 2 35.674 39.6351 21.9629
836 2 39.55 39.6359 21.9589
837 2 43.7745 39.7071 21.9949
838 2 47.6238 39.7213 22.0167
839 2 51.5646 39.6491 22.105
840 2 55.1914 39.5005 21.7861
841 2 59.2872 43.5219 22.0231
842 2 3.9498 43.5654 22.1806
843 2 8.04097 43.6416 22.1982
844 2 11.9518 43.5737 21.9846
845 2 16.0181 43.5135 22.1827
846 2 19.9139 43.3796 22.1615
847 2 23.9362 43.7313 21.8677
848 2 27.7998 43.7083 21.9828
849 2 31.9048 43.6626 22.0751
850 2 35.8607 43.5938 22.1481
851 2 39.7378 43.6192 22.1063
852 2 43.6013 43.6522 22.0122
853 2 47.657 43.6345 21.9191
854 2 51.7293 43.5236 21.9761
855 2 55.6774 43.6501 22.1478
856 2 59.5196 47.4332 21.9893
857 2 4.20865 47.4765 22.2059
858 2 8.04769 47.4602 22.2554
859 2 12.0105 47.6354 22.0743
860 2 15.9853 47.5412 22.1726
861 2 20.0788 47.4919 21.9461
862 2 23.7582 47.6669 21.8879
863 2 27.8204 47.6777 21.9541
864 2 31.6624 47.7024 21.9667
865 2 35.4737 47.5092 22.1813
866 2 39.6628 47.5111 22.05
867 2 43.7118 47.6735 22.0296
868 2 47.7074 47.5811 22.004
869 2 51.7609 47.5281 21.9036
870 2 55.5127 47.5228 22.2127
871 2 0.0651341 51.561 22.2054
872 2 4.03998 51.4564 22.0095
873 2 7.8104 51.2231 22.1863
874 2 11.9765 51.4284 22.2774
875 2 16.0665 51.4209 22.1792
876 2 19.966 51.5225 21.9737
877 2 23.7566 51.4804 22.202
878 2 27.5292 51.5645 21.9243
879 2 31.7959 51.6649 21.9818
880 2 35.5813 51.5245 22.0159
881 2 39.5483 51.5661 22.0715
882 2 43.5034 51.7031 22.0608
883 2 47.6505 51.6409 21.9879
884 2 51.6353 51.5007 21.8456
885 2 55.5721 51.4268 22.1527
886 2 0.131788 55.3557 21.9504
887 2 4.01114 55.6012 21.9987
888 2 8.0436 55.5267 21.989
889 2 12.0566 55.2996 22.0519
890 2 15.8388 55.3544 22.1918
891 2 19.7567 55.4787 22.0661
892 2 23.7277 55.6813 22.0807
893 2 27.6909 55.5482 21.9074
894 2 31.7869 55.3893 22.21
895 2 35.7297 55.5913 22.0864
896 2 39.5493 55.5939 22.2187
897 2 43.564 55.7716 22.141
898 2 47.6773 55.5334 21.9306
899 2 51.6803 55.5885 22.04
900 2 55.6552 55.5391 22.0551
901 2 -0.0211175 59.279 26.1533
902 2 4.01693 0.0183402 26.1875
903 2 8.07375 0.173397 25.9957
904 2 11.9519 59.6303 25.9607
905 2 15.6948 59.4716 25.9112
906 2 19.6598 -0.0346655 26.0964
907 2 23.6441 0.19104 26.0865
908 2 27.6502 0.0854304 26.1493
909 2 31.7313 -0.0951799 26.026
910 2 35.4996 0.231516 25.9875
911 2 39.6768 0.292792 26.0833
912 2 43.5095 -0.0222929 26.1507
913 2 47.5444 59.5943 25.9807
914 2 51.6352 -0.0877076 25.9455
915 2 55.5183 0.00589204 26.1344
916 2 0.018535 4.11247 26.063
917 2 3.89772 4.1103 25.989
918 2 7.85064 4.00443 26.0352
919 2 11.8329 4.19214 26.1062
920 2 15.6652 4.17422 26.0572
921 2 19.7247 4.08497 25.7735
922 2 23.5136 4.01013 25.9301
923 2 27.6355 4.19323 26.0481
924 2 31.4609 4.05002 26.1937
925 2 35.7532 4.19083 26.0532
926 2 39.6706 4.14626 26.101
927 2 43.7356 4.06451 26.1407
928 2 47.5557 4.16096 25.9439
929 2 51.5853 4.01186 26.2519
930 2 55.3998 4.02247 26.1059
931 2 0.137492 8.11818 26.1433
932 2 3.90575 7.82331 25.9965
933 2 8.06356 8.06743 25.9843
934 2 11.832 7.99802 25.7465
935 2 15.6475 8.05414 25.887
936 2 19.7332 8.01143 26.001
937 2 23.7366 8.04098 26.0696
938 2 27.6774 8.08265 26.0895
939 2 31.643 8.0575 26.1485
940 2 35.5157 8.02796 25.9849
941 2 39.5414 8.11561 26.1394
942 2 43.5245 8.06037 26.039
943 2 47.5861 7.89557 25.9698
944 2 51.4039 8.13488 25.9023
945 2 55.4509 7.99691 25.932
946 2 59.4169 11.8616 26.1052
947 2 4.05063 12.1175 26.052
948 2 7.9861 12.1244 26.12
949 2 11.8901 12.2346 25.9589
950 2 15.6238 11.9268 25.9962
951 2 19.7681 11.9858 25.9874
952 2 23.6978 11.8855 26.0887
953 2 27.8699 12.0441 26.1963
954 2 31.6177 12.025 26.0731
955 2 35.7194 12.08 26.1058
956 2 39.7227 11.9687 26.0931
957 2 43.5448 12.114 25.8378
958 2 47.4871 11.8743 25.9174
959 2 51.5392 11.9474 26.0512
960 2 55.3538 11.9696 26.0843
961 2 59.4603 15.7517 25.7908
962 2 4.07336 15.9932 25.9265
963 2 8.11199 16.0698 25.8134
964 2 11.9609 16.0288 25.9012
965 2 15.932 15.8672 26.0659
966 2 19.5272 15.8347 26.1614
967 2 23.8528 15.8643 25.8968
968 2 27.626 15.765 26.0255
969 2 31.7178 15.9922 26.0101
970 2 35.6744 15.9281 26.029
971 2 39.7524 16.1206 26.1365
972 2 43.6611 15.8205 26.0832
973 2 47.6254 16.0299 25.9642
974 2 51.4126 16.0123 26.0334
975 2 55.5518 16.0245 26.0148
976 2 0.121064 19.7741 26.1829
977 2 3.98341 19.7003 25.8584
978 2 7.91778 19.8392 25.9583
979 2 11.7523 20.0347 26.0189
980 2 15.951 19.9172 26.0286
981 2 19.8286 19.7701 25.947
982 2 23.6696 19.8502 25.9358
983 2 27.6455 19.6714 25.9948
984 2 31.7629 19.7887 25.9196
985 2 35.6658 20.0162 26.0451
986 2 39.6008 19.9583 25.9223
987 2 43.7752 19.8256 25.8584
988 2 47.5902 19.8275 26.1009
989 2 51.6644 19.9061 25.9847
990 2 55.3398 20.1072 26.1707
991 2 -0.171683 23.8999 26.0021
992 2 4.15467 23.7803 26.2106
993 2 8.03341 23.8424 25.9219
994 2 11.8415 23.9738 26
995 2 15.7808 23.6851 25.8732
996 2 19.9068 23.7828 26.0668
997 2 23.9221 23.6226 26.0745
998 2 27.6949 23.8961 25.8957
999 2 31.6649 23.7511 26.1775