ITEM: TIMESTEP
25800
ITEM: NUMBER OF ATOMS
14625
ITEM: BOX BOUNDS xy xz yz pp pp pp
0.0000000000000000e+00 5.9369999999999997e+01 0.0000000000000000e+00
0.0000000000000000e+00 5.9369999999999997e+01 0.0000000000000000e+00
-6.6903648016722883e-02 5.1806903648017169e+01 0.0000000000000000e+00
ITEM: ATOMS id type x y z
1 2 -0.049305 0.0541123 0.185303
2 2 3.99146 0.185244 0.254332
3 2 7.78938 0.0647254 0.171096
4 2 11.8294 0.221717 0.20022
5 2 15.7908 0.091196 0.290638
6 2 19.9182 0.0945787 0.315658
7 2 23.7546 0.0254333 0.142827
8 2 27.6988 0.104332 0.109978
9 2 31.6992 0.0824672 0.00550476
10 2 35.5543 -0.119408 0.223943
11 2 39.6441 -0.0366653 0.423097
12 2 43.5231 -0.197554 0.23863
13 2 47.4464 0.345736 0.150297
14 2 51.5461 0.09763 0.281548
15 2 55.2896 0.0223304 0.0709969
16 2 0.0634781 3.99161 0.150241
17 2 3.80063 4.20911 0.266011
18 2 7.99991 4.01925 0.31453
19 2 11.6862 4.145 0.210317
20 2 15.8477 3.99466 0.369455
21 2 19.6739 3.89171 0.301985
22 2 23.6978 4.21141 0.216481
23 2 27.6147 3.85446 0.110511
24 2 31.6593 4.10636 0.237905
25 2 35.5113 3.93873 0.0394466
26 2 39.6185 3.95407 0.160058
27 2 43.4762 3.80894 0.302745
28 2 47.5472 4.16366 0.173319
29 2 51.3832 4.25818 -0.0255767
30 2 55.3615 4.21788 -0.0557379
31 2 0.0436525 7.98217 0.170733
32 2 3.87072 7.81164 0.281622
33 2 7.90211 8.09937 -0.0351372
34 2 11.8568 8.08146 0.353235
35 2 15.9462 8.14327 0.503306
36 2 19.8664 7.87111 0.41088
37 2 23.8443 7.93908 0.0674522
38 2 27.7508 7.96192 -0.0448582
39 2 31.6473 7.88491 0.181139
40 2 35.6921 8.0303 0.0465916
41 2 39.5848 7.85388 0.240538
42 2 43.559 7.83596 0.11554
43 2 47.5787 8.09834 0.0161069
44 2 51.3705 8.19532 0.126397
45 2 55.347 8.2189 0.0651202
46 2 -0.18633 11.9618 0.23555
47 2 3.97098 11.9117 0.273759
48 2 7.80345 11.6845 0.287302
49 2 11.9067 11.9704 0.216745
50 2 15.8224 11.807 0.169622
51 2 19.989 11.884 0.278943
52 2 23.8004 11.8669 -0.0287589
53 2 27.5545 12.03 -0.101006
54 2 31.6685 11.9281 0.235146
55 2 35.7564 11.8271 0.154568
56 2 39.5397 12.0669 0.188375
57 2 43.4977 11.8673 0.399768
58 2 47.4216 11.7772 0.211462
59 2 51.3549 11.9748 0.384004
60 2 55.4924 12.1942 0.119702
61 2 0.142959 15.9501 0.321782
62 2 4.07224 15.991 0.268191
63 2 8.02267 15.889 0.335555
64 2 12.025 15.8148 0.154733
65 2 15.8363 15.95 0.380368
66 2 19.7916 15.7657 0.244924
67 2 23.8536 16.0509 0.258542
68 2 27.6852 15.877 0.233138
69 2 31.5233 15.891 0.192389
70 2 35.5578 15.9848 0.239842
71 2 39.5541 15.8725 0.0426818
72 2 43.5292 15.7165 0.158348
73 2 47.5215 15.806 -0.0125354
74 2 51.3144 15.9935 0.204023
75 2 55.5218 16.0558 0.218749
76 2 -0.0443241 19.7619 0.230041
77 2 4.08124 19.9408 0.343094
78 2 7.8241 19.9383 0.364082
79 2 11.8591 19.8358 0.278609
80 2 15.7666 19.9207 0.307053
81 2 19.7394 19.773 0.321024
82 2 23.5512 20.0154 0.270933
83 2 27.7219 19.8196 0.0743721
84 2 31.3869 20.0494 0.246574
85 2 35.3963 19.8424 0.0757325
86 2 39.6389 19.6689 0.230517
87 2 43.5142 19.77 0.0312105
88 2 47.2579 19.9328 -0.0463062
89 2 51.148 19.9018 0.0752356
90 2 55.1264 19.8983 0.111416
91 2 -0.0923342 23.9139 0.256684
92 2 3.90279 23.9775 0.0399995
93 2 7.98938 23.836 0.366576
94 2 11.9961 23.7894 0.269896
95 2 15.9441 23.8423 0.253403
96 2 19.853 23.7582 0.257919
97 2 23.8074 23.8532 0.271878
98 2 27.6399 24.0192 0.171814
99 2 31.6841 23.9828 0.191981
100 2 35.492 23.9772 0.122298
101 2 39.4197 23.6249 -0.0262008
102 2 43.439 23.7863 0.147142
103 2 47.3112 23.7938 0.172332
104 2 51.3399 23.7926 0.258874
105 2 55.2458 23.832 0.335677
106 2 0.0415251 27.9187 0.137077
107 2 3.83202 27.888 0.111596
108 2 7.88152 27.6512 0.226836
109 2 11.9567 27.7985 0.275857
110 2 15.9091 27.7306 0.0947424
111 2 19.8121 28.1353 0.0366618
112 2 23.8381 27.8657 0.188023
113 2 27.7663 27.8811 0.119689
114 2 31.5267 27.9845 0.131956
115 2 35.4777 27.8012 0.171021
116 2 39.3822 27.7831 0.37236
117 2 43.3729 27.933 -0.0176369
118 2 47.422 27.8211 0.022419
119 2 51.3342 27.8096 0.39262
120 2 55.2746 27.8701 0.0856207
121 2 0.109223 31.6638 0.148658
122 2 3.82035 31.8542 0.259389
123 2 7.76174 31.6854 0.34261
124 2 11.939 31.6556 0.197847
125 2 15.8726 31.7901 0.40372
126 2 19.8203 31.8707 0.2677
127 2 23.9138 31.8184 0.0836477
128 2 27.6953 31.8371 0.196156
129 2 31.6632 31.8129 0.297625
130 2 35.6216 31.8795 0.194776
131 2 39.5287 31.5987 0.12251
132 2 43.3686 31.6552 0.294056
133 2 47.4492 31.7547 0.316547
134 2 51.6059 31.6264 0.232715
135 2 55.6842 31.718 0.14465
136 2 0.103439 35.7244 0.299824
137 2 4.0039 35.6369 0.265987
138 2 7.80721 35.8108 0.200123
139 2 11.7117 35.7634 0.281642
140 2 15.8784 35.7769 0.277952
141 2 19.7891 35.7439 0.235415
142 2 23.6689 35.6827 0.278961
143 2 27.6402 35.7145 0.312575
144 2 31.6535 35.6358 0.29838
145 2 35.6602 35.7517 0.0783666
146 2 39.5637 35.5326 0.193252
147 2 43.5058 35.779 0.312372
148 2 47.4733 35.6515 0.344838
149 2 51.5127 35.7208 0.180809
150 2 55.8275 35.7061 0.237151
151 2 -0.0918896 39.646 0.122726
152 2 3.95505 39.6161 0.287202
153 2 7.92873 39.5734 0.0899222
154 2 11.9346 39.4743 0.237041
155 2 15.8083 39.6377 0.270481
156 2 19.9727 39.6004 0.226175
157 2 23.5615 39.7568 0.0440182
158 2 27.7282 39.6835 0.37544
159 2 31.4737 39.7761 0.227989
160 2 35.69 39.6668 0.232809
161 2 39.7755 39.7298 0.214271
162 2 43.5505 39.3829 0.369899
163 2 47.7109 39.6459 0.120441
164 2 51.4011 39.8354 0.122864
165 2 55.2979 39.8278 0.0899494
166 2 0.0707417 43.6295 0.137706
167 2 4.002 43.6495 0.250609
168 2 8.01428 43.5983 0.228255
169 2 11.9109 43.4534 0.455611
170 2 15.7383 43.4518 0.424796
171 2 19.7463 43.7446 0.270029
172 2 23.6751 43.6577 0.258137
173 2 27.5931 43.6696 0.2685
174 2 31.7409 43.6739 0.300027
175 2 35.6425 43.5046 0.202013
176 2 39.7088 43.6671 0.26736
177 2 43.6835 43.6769 0.376743
178 2 47.3869 43.6874 0.145826
179 2 51.6467 43.688 0.0345297
180 2 55.2711 43.7135 0.227743
181 2 0.194971 47.5736 0.327798
182 2 4.01051 47.5565 0.0222897
183 2 8.03206 47.4871 0.116282
184 2 12.0374 47.4444 0.282645
185 2 16.0146 47.5354 0.345775
186 2 19.9986 47.6305 0.159514
187 2 23.9426 47.5525 0.333137
188 2 27.8151 47.5255 0.156234
189 2 31.9186 47.737 0.191471
190 2 35.692 47.6301 0.135779
191 2 39.8517 47.7123 0.0664689
192 2 43.6872 47.6974 0.136937
193 2 47.6739 47.7742 0.306384
194 2 51.5636 47.8287 0.0722306
195 2 55.4109 47.6997 0.261514
196 2 -0.0946016 51.5337 0.350108
197 2 4.04125 51.298 0.193297
198 2 8.03716 51.5285 0.0774283
199 2 12.0094 51.4075 0.163063
200 2 16.0537 51.4488 0.217425
201 2 19.9278 51.2699 0.338514
202 2 23.9471 51.5202 0.32254
203 2 27.7918 51.6686 0.138598
204 2 31.5878 51.4617 0.259988
205 2 35.6167 51.5082 0.224692
206 2 39.3796 51.5029 0.240028
207 2 43.533 51.4369 0.265201
208 2 47.7077 51.4763 0.272722
209 2 51.544 51.5585 0.283682
210 2 55.407 51.4329 0.258125
211 2 0.147037 55.5468 0.274807
212 2 3.94532 55.4213 0.302745
213 2 7.90786 55.6498 0.00664811
214 2 11.9871 55.5294 0.372962
215 2 15.9745 55.5348 0.294282
216 2 19.8166 55.6094 0.302114
217 2 23.8558 55.4089 0.318469
218 2 27.825 55.5477 0.218846
219 2 31.8781 55.3637 0.0834342
220 2 35.6924 55.452 0.279525
221 2 39.7545 55.286 0.189663
222 2 43.6406 55.4245 0.181858
223 2 47.5264 55.5327 0.277933
224 2 51.3986 55.5999 0.330448
225 2 55.3778 55.3929 0.191618
226 2 -0.157148 0.249295 4.21095
227 2 3.97549 -0.106038 4.34041
228 2 7.8969 0.115303 4.36478
229 2 11.8308 -0.11266 4.17858
230 2 15.7196 0.104937 4.3535
231 2 19.651 0.0651086 4.18256
232 2 23.6957 -0.177286 4.33379
233 2 27.6292 -0.087764 4.01969
234 2 31.5638 0.0791642 4.24287
235 2 35.421 0.0123406 4.14777
236 2 39.4818 0.143818 4.35426
237 2 43.6899 0.0469582 4.3706
238 2 47.3801 0.00408389 4.16189
239 2 51.2674 0.289165 4.12654
240 2 55.1616 0.253615 4.24176
241 2 -0.169575 4.07971 4.00031
242 2 3.67234 4.09994 4.08132
243 2 7.99235 3.91871 4.11692
244 2 11.7568 3.96425 4.02981
245 2 15.7269 4.04917 4.22518
246 2 19.7851 4.05001 4.21646
247 2 23.6519 4.15305 4.31104
248 2 27.8021 4.18785 4.05161
249 2 31.6759 4.20936 4.13767
250 2 35.5945 3.99409 4.14927
251 2 39.3016 3.85181 4.29423
252 2 43.4696 4.10461 4.26
253 2 47.5478 4.23946 4.19607
254 2 51.4925 4.25574 4.19462
255 2 55.2539 4.22286 4.16003
256 2 -0.0788933 7.9529 4.1887
257 2 3.92496 8.23711 4.18801
258 2 7.83194 7.89336 4.31988
259 2 11.8041 7.89915 4.17054
260 2 15.9042 8.23251 4.14805
261 2 19.9902 8.18908 4.14386
262 2 23.6882 8.09868 4.0946
263 2 27.4788 7.87855 4.13543
264 2 31.6258 8.10881 4.06957
265 2 35.7342 7.84831 4.2209
266 2 39.5504 8.09295 4.15164
267 2 43.4704 8.02106 4.33126
268 2 47.4909 8.21398 4.19655
269 2 51.6044 8.2326 4.11697
270 2 55.4496 8.06374 4.26405
271 2 0.00131096 11.9362 4.2238
272 2 3.98543 11.9372 4.0252
273 2 7.88175 11.8454 4.26227
274 2 12.0056 11.7697 4.33473
275 2 15.9373 12.0349 4.34455
276 2 19.8845 12.0542 4.09102
277 2 23.6654 12.0706 4.25393
278 2 27.7725 11.8965 4.18037
279 2 31.6236 11.9246 4.13077
280 2 35.6263 11.7241 3.93741
281 2 39.3873 11.7868 4.10561
282 2 43.5493 11.8219 4.12042
283 2 47.5236 12.1748 4.22283
284 2 51.5243 12.1393 4.23698
285 2 55.3521 11.9708 4.31507
286 2 -0.0141366 16.043 4.15159
287 2 4.04609 15.9443 4.28943
288 2 7.97554 15.847 4.18845
289 2 11.813 15.8231 4.2411
290 2 15.7597 15.7283 4.35765
291 2 19.803 15.9607 4.18306
292 2 23.7807 15.8596 4.19112
293 2 27.6995 15.7997 4.10037
294 2 31.5988 15.9241 4.27802
295 2 35.4411 15.8334 4.08065
296 2 39.4207 15.9874 4.24041
297 2 43.5038 15.8031 4.29554
298 2 47.4922 15.9937 3.98077
299 2 51.2006 15.8776 4.05252
300 2 55.4441 16.0038 4.0267
301 2 -0.0602046 20.0301 4.07962
302 2 3.93033 19.6962 4.31198
303 2 7.90581 19.9353 4.15823
304 2 11.756 19.9802 4.36168
305 2 15.7928 19.8502 4.22797
306 2 19.8034 19.7459 4.23466
307 2 23.7756 19.951 4.11983
308 2 27.6027 19.8074 4.28466
309 2 31.4101 19.9038 4.10091
310 2 35.5209 19.8251 4.2514
311 2 39.3534 19.7638 4.14942
312 2 43.331 19.7945 4.19733
313 2 47.3764 19.7214 4.11398
314 2 51.3814 19.9177 4.27719
315 2 55.2942 19.9998 4.05689
316 2 -0.119073 23.7647 4.34751
317 2 3.71183 23.8874 4.23268
318 2 7.74287 23.8035 4.21247
319 2 11.8472 23.7338 4.41254
320 2 15.5857 23.8305 4.06761
321 2 19.75 23.8024 4.25821
322 2 23.6377 23.5921 4.16577
323 2 27.5365 24.0737 3.97304
324 2 31.7148 23.7587 4.32728
325 2 35.5634 23.7922 4.24805
326 2 39.5608 23.7321 4.11486
327 2 43.5205 23.6663 4.07315
328 2 47.4373 23.6417 4.22918
329 2 51.1838 23.9071 4.30649
330 2 55.3219 24.1202 4.0019
331 2 0.0639419 27.5657 4.25692
332 2 3.89808 27.7983 4.19344
333 2 7.85191 27.8111 3.92446
334 2 12.0783 27.786 4.1464
335 2 16.0022 27.6954 4.22477
336 2 19.8359 27.7121 4.24448
337 2 23.7633 27.6905 4.20143
338 2 27.6095 27.8636 4.22819
339 2 31.6164 27.7459 4.2244
340 2 35.4758 27.8099 4.24562
341 2 39.6242 27.5333 4.28671
342 2 43.6339 27.7884 4.12976
343 2 47.5095 27.6389 4.13294
344 2 51.3506 27.7436 4.24433
345 2 55.3872 27.8815 4.16146
346 2 0.0331275 31.6387 4.20489
347 2 3.85121 31.7809 4.13328
348 2 7.96393 31.655 4.14843
349 2 11.7924 31.8439 4.23992
350 2 15.6437 31.8624 4.16551
351 2 19.6934 31.6937 4.18884
352 2 23.8147 31.9789 4.33695
353 2 27.7876 31.5357 4.23208
354 2 31.7732 31.657 4.2858
355 2 35.6063 31.8429 4.09653
356 2 39.6527 31.6108 4.11421
357 2 43.6632 31.5587 4.12898
358 2 47.6268 31.9097 4.17965
359 2 51.4656 31.4658 4.12485
360 2 55.2853 31.9011 4.20089
361 2 -0.217198 35.7011 4.26192
362 2 4.04037 35.6878 4.28718
363 2 7.92745 35.7103 4.1633
364 2 11.8541 35.4954 3.99917
365 2 15.9078 35.6059 4.24296
366 2 19.6472 35.8702 4.2578
367 2 23.66 35.7259 4.23013
368 2 27.7235 35.8322 4.3283
369 2 31.5044 35.6581 4.24669
370 2 35.6732 35.7419 4.05256
371 2 39.6763 35.5177 4.26006
372 2 43.6364 35.6736 4.17906
373 2 47.6402 35.6662 4.25062
374 2 51.5205 35.7622 3.98261
375 2 55.3926 35.6485 4.11253
376 2 -0.0645259 39.6081 4.27834
377 2 3.94651 39.6969 4.27662
378 2 7.94056 39.5844 4.27228
379 2 11.8308 39.7906 4.09215
380 2 15.796 39.7791 4.18791
381 2 19.8888 39.6704 4.25542
382 2 23.7579 39.8369 4.25771
383 2 27.808 39.5903 4.18062
384 2 31.8773 39.6308 4.26502
385 2 35.662 39.5759 4.24101
386 2 39.7116 39.7055 4.27039
387 2 43.4063 39.5155 4.204
388 2 47.6335 39.5526 4.32027
389 2 51.3853 39.7482 4.33544
390 2 55.3492 39.8914 4.16492
391 2 -0.0179175 43.6132 4.22262
392 2 3.70809 43.5671 4.17072
393 2 7.75639 43.6399 4.24106
394 2 11.8591 43.4882 4.35875
395 2 15.8833 43.5242 4.32644
396 2 19.9861 43.7032 4.08531
397 2 23.8766 43.679 4.16504
398 2 27.6805 43.662 4.24705
399 2 31.4433 43.4985 4.16853
400 2 35.7042 43.6606 4.08902
401 2 39.6974 43.5675 4.15363
402 2 43.5575 43.6867 4.18375
403 2 47.2731 43.5396 4.29461
404 2 51.2647 43.5298 4.18956
405 2 55.5249 43.7103 4.22202
406 2 0.157946 47.7285 4.17739
407 2 4.06957 47.5733 4.33255
408 2 8.00911 47.5376 4.05077
409 2 11.907 47.4679 4.04425
410 2 15.7735 47.3671 4.31958
411 2 19.7846 47.4965 4.22023
412 2 23.7042 47.6927 4.34428
413 2 27.7836 47.5095 4.21986
414 2 31.7288 47.4769 4.10093
415 2 35.7232 47.3743 4.16686
416 2 39.5059 47.4016 4.03149
417 2 43.4657 47.5413 4.31691
418 2 47.5069 47.2971 4.18301
419 2 51.3404 47.5271 4.17943
420 2 55.5767 47.6169 4.08263
421 2 0.0074614 51.4686 4.03772
422 2 4.16207 51.5628 3.94203
423 2 7.88111 51.525 4.21693
424 2 11.7388 51.5364 4.30511
425 2 15.5935 51.6354 4.03808
426 2 19.5345 51.5243 4.27389
427 2 23.8751 51.6716 4.17102
428 2 27.8536 51.4599 4.07092
429 2 31.5159 51.6278 4.01776
430 2 35.5572 51.5212 3.97447
431 2 39.689 51.4896 4.25479
432 2 43.6019 51.3549 4.12707
433 2 47.479 51.4333 4.25055
434 2 51.4655 51.5838 4.19259
435 2 55.3381 51.4689 4.12681
436 2 -0.0210234 55.4791 4.19435
437 2 3.76683 55.277 4.09632
438 2 7.85577 55.5194 4.26896
439 2 11.9351 55.4176 4.33228
440 2 15.7471 55.6579 4.18331
441 2 19.8852 55.3041 4.21384
442 2 23.6961 55.5721 4.21686
443 2 27.7132 55.4558 4.31566
444 2 31.5214 55.5188 4.08362
445 2 35.4747 55.4572 4.21598
446 2 39.4655 55.5141 4.29982
447 2 43.5564 55.3511 4.22022
448 2 47.3585 55.2706 4.20973
449 2 51.444 55.5954 4.22257
450 2 55.3652 55.6188 4.26085
451 2 -0.249621 0.127892 8.0444
452 2 3.77616 -0.0391736 8.10331
453 2 7.88844 -0.0133292 8.2652
454 2 11.7451 -0.0224991 8.24931
455 2 15.6491 0.085948 8.3145
456 2 19.4864 0.174212 8.33982
457 2 23.6502 0.221143 8.29151
458 2 27.6978 0.208648 8.35398
459 2 31.589 -0.0053494 8.17311
460 2 35.4495 0.103684 8.23718
461 2 39.4806 0.02741 8.36225
462 2 43.4084 0.152372 8.08721
463 2 47.5102 0.00766763 8.1198
464 2 51.3883 0.142027 8.21194
465 2 55.3384 0.0422825 8.21384
466 2 -0.0753404 3.97298 8.07039
467 2 3.72601 3.86865 8.08372
468 2 7.72578 4.02272 8.06556
469 2 12.021 3.91864 8.14058
470 2 15.7691 4.12366 8.27796
471 2 19.9012 4.16479 8.00324
472 2 23.6272 4.20615 8.38873
473 2 27.6849 4.09924 8.07359
474 2 31.564 4.09477 8.07577
475 2 35.429 3.94041 8.01898
476 2 39.2631 3.92771 8.2313
477 2 43.3052 3.96942 8.32519
478 2 47.422 4.08763 8.15181
479 2 51.3634 3.99336 8.11106
480 2 55.4667 3.93075 8.08786
481 2 -0.204655 7.98102 8.23259
482 2 4.03635 7.93655 8.2287
483 2 7.86401 7.81803 8.08295
484 2 11.6288 7.86639 8.1353
485 2 15.7748 7.872 8.07709
486 2 19.6557 7.96739 8.17365
487 2 23.7332 8.03874 8.31381
488 2 27.6071 8.19566 8.23348
489 2 31.3843 8.00572 8.1572
490 2 35.3105 8.07115 8.05045
491 2 39.5726 7.78333 8.26973
492 2 43.4027 7.8995 8.33893
493 2 47.4068 7.92483 8.09272
494 2 51.1586 8.13962 8.33746
495 2 55.3655 7.92916 8.23765
496 2 -0.104734 11.8638 8.16162
497 2 3.73638 11.9868 8.20331
498 2 7.77609 12.0997 8.30613
499 2 11.824 11.8952 8.37743
500 2 15.7141 11.8927 8.19696
501 2 19.8008 11.8174 8.22632
502 2 23.7874 11.8813 8.287
503 2 27.6991 11.9046 8.22601
504 2 31.8077 12.1103 8.06089
505 2 35.5957 12.1747 8.03989
506 2 39.5718 11.9036 8.00373
507 2 43.3949 11.6953 8.14198
508 2 47.3135 12.0733 8.10507
509 2 51.3655 11.9829 8.28562
510 2 55.2152 11.9497 8.36276
511 2 -0.167839 15.9804 7.90963
512 2 3.75371 15.9542 8.11329
513 2 7.65202 15.7472 8.2082
514 2 11.7373 15.95 8.27668
515 2 15.7491 15.8901 8.33682
516 2 19.831 15.8548 8.38178
517 2 23.7227 15.9019 8.35592
518 2 27.7319 15.7588 8.19416
519 2 31.6762 15.955 8.02697
520 2 35.5018 15.9037 8.21611
521 2 39.4099 15.9972 8.01392
522 2 43.4154 15.7897 8.16158
523 2 47.2995 15.9179 7.9688
524 2 51.3278 16.0386 8.10228
525 2 55.3913 15.8559 8.21975
526 2 -0.13178 19.8401 7.91307
527 2 3.86303 19.8441 8.31348
528 2 7.7567 19.6955 8.16792
529 2 11.7609 19.761 8.08157
530 2 15.8916 19.7529 8.3165
531 2 19.6745 19.8017 8.42734
532 2 23.7577 19.7678 8.31043
533 2 27.745 19.9054 8.14516
534 2 31.6827 19.6463 8.22619
535 2 35.6097 19.7708 8.0866
536 2 39.4844 20.0863 8.14914
537 2 43.4412 19.7491 8.09914
538 2 47.2971 19.8488 8.14363
539 2 51.6476 19.9995 8.13019
540 2 55.3503 19.807 8.21318
541 2 -0.101001 23.8511 8.32738
542 2 3.73082 23.8662 8.29796
543 2 7.81204 23.6006 8.15651
544 2 11.9268 23.8372 8.21506
545 2 15.8459 23.7341 8.28214
546 2 19.6806 23.6541 8.20973
547 2 23.7057 23.7538 8.07689
548 2 27.6882 23.856 8.34667
549 2 31.744 23.6025 7.97956
550 2 35.5442 23.6097 8.03583
551 2 39.4592 23.8651 8.22055
552 2 43.4345 23.7923 8.36546
553 2 47.5569 23.6974 8.15517
554 2 51.3656 23.7576 8.06737
555 2 55.3677 23.992 8.20979
556 2 -0.186787 27.7825 8.30672
557 2 3.98948 27.7059 8.31039
558 2 7.94614 27.6113 8.2378
559 2 11.8129 27.7423 8.23638
560 2 16.0003 27.835 8.09637
561 2 19.8554 27.6594 8.28861
562 2 23.711 27.7366 8.12624
563 2 27.5569 27.6172 8.06204
564 2 31.6009 27.4701 8.16178
565 2 35.7276 27.8639 8.14136
566 2 39.4952 27.6856 8.24975
567 2 43.3519 27.7479 8.24237
568 2 47.3208 27.7545 8.18142
569 2 51.5527 27.8192 8.25711
570 2 55.4317 27.8998 8.0362
571 2 -0.102928 31.6061 8.22338
572 2 4.01234 31.6131 8.25569
573 2 7.95365 31.6704 8.06733
574 2 11.8527 31.6652 8.03224
575 2 15.7601 31.8463 8.25473
576 2 19.8726 31.66 8.39869
577 2 23.7218 31.6145 8.22713
578 2 27.5835 31.6966 8.32067
579 2 31.6233 31.7827 8.18205
580 2 35.5998 31.7221 8.15738
581 2 39.4452 31.6624 8.22176
582 2 43.3917 31.7311 8.28695
583 2 47.5522 31.7218 8.05659
584 2 51.5036 31.7127 8.2274
585 2 55.3512 31.581 8.16267
586 2 -0.131048 35.7601 8.25801
587 2 3.91816 35.4026 8.22071
588 2 7.67523 35.6089 8.13916
589 2 11.8597 35.7591 8.41848
590 2 15.8911 35.531 8.13979
591 2 19.7791 35.6738 8.2187
592 2 23.6694 35.6889 8.0533
593 2 27.4473 35.8189 8.23329
594 2 31.5868 35.6419 8.04845
595 2 35.5229 35.7948 7.97805
596 2 39.7077 35.5561 8.0852
597 2 43.4606 35.5294 8.12018
598 2 47.4688 35.8044 8.29528
599 2 51.5816 35.7189 8.16807
600 2 55.1889 35.6563 8.09079
601 2 -0.140609 39.4461 8.22348
602 2 3.94648 39.6275 8.21643
603 2 7.89923 39.5572 8.4369
604 2 12.0124 39.4453 8.03946
605 2 15.6791 39.6425 8.26778
606 2 19.7978 39.5264 8.07748
607 2 23.6299 39.7561 8.11141
608 2 27.6599 39.5388 8.23804
609 2 31.5404 39.7629 8.26998
610 2 35.5169 39.7294 8.22529
611 2 39.6368 39.5895 8.26364
612 2 43.4529 39.6704 8.3127
613 2 47.4313 39.5451 8.14503
614 2 51.3904 39.5586 8.25481
615 2 55.1128 39.7076 8.14247
616 2 0.0504292 43.6368 8.30231
617 2 3.80014 43.456 8.16482
618 2 7.73257 43.4781 8.0398
619 2 11.8688 43.5194 8.14185
620 2 15.6465 43.5427 8.24629
621 2 19.6428 43.5197 8.09291
622 2 23.7159 43.6196 8.2274
623 2 27.64 43.5622 8.22469
624 2 31.6807 43.5025 8.30113
625 2 35.8331 43.677 8.13877
626 2 39.5781 43.6373 8.44518
627 2 43.6043 43.7972 8.21228
628 2 47.4646 43.5918 8.2644
629 2 51.3004 43.6225 8.20364
630 2 55.267 43.6425 8.11093
631 2 0.0226803 47.6904 8.01502
632 2 4.19434 47.4755 8.07536
633 2 7.86246 47.3867 8.19098
634 2 11.6537 47.5474 8.13614
635 2 15.7562 47.5653 8.18142
636 2 19.7577 47.7412 8.27209
637 2 23.6982 47.8303 8.10125
638 2 27.7178 47.5348 8.3456
639 2 31.8225 47.5604 8.25909
640 2 35.5922 47.4804 7.98204
641 2 39.5141 47.5482 8.11022
642 2 43.4824 47.4823 8.33034
643 2 47.7081 47.3786 8.15309
644 2 51.4878 47.5637 8.32058
645 2 55.4098 47.6634 8.06908
646 2 -0.140781 51.5652 8.1183
647 2 3.91842 51.3158 8.25301
648 2 7.8652 51.4797 8.35554
649 2 11.7467 51.4907 8.13987
650 2 15.789 51.2335 8.08461
651 2 19.7763 51.3885 8.29588
652 2 23.8022 51.4923 8.04304
653 2 27.8692 51.5596 8.30249
654 2 31.7537 51.4457 8.07978
655 2 35.5833 51.415 8.1545
656 2 39.533 51.4149 8.07491
657 2 43.5187 51.4887 8.26413
658 2 47.5302 51.5761 8.25543
659 2 51.3016 51.4763 8.01677
660 2 55.3212 51.5357 8.16152
661 2 -0.0826848 55.4445 8.17042
662 2 3.93204 55.172 8.24532
663 2 7.93809 55.1993 8.31729
664 2 11.9342 55.4302 8.35717
665 2 15.8115 55.4183 8.25247
666 2 19.8818 55.3609 8.19989
667 2 23.8191 55.3877 8.30028
668 2 27.6496 55.5852 8.2397
669 2 31.6886 55.454 8.16386
670 2 35.5737 55.2403 8.22571
671 2 39.4617 55.5718 8.23504
672 2 43.346 55.5998 8.12239
673 2 47.5312 55.3737 8.22183
674 2 51.3836 55.5432 8.19037
675 2 55.3807 55.4999 8.25017
676 2 -0.17146 0.00340603 12.2194
677 2 3.79968 0.186623 12.0549
678 2 7.65594 0.0585698 12.2016
679 2 11.5995 0.0567209 12.227
680 2 15.7577 0.0616804 12.0873
681 2 19.6567 0.0798723 12.1143
682 2 23.5317 -0.171548 12.207
683 2 27.619 -0.00410136 12.2124
684 2 31.8487 -0.0735641 12.179
685 2 35.5919 -0.0275413 12.2385
686 2 39.5838 0.0444671 12.3398
687 2 43.5049 -0.036723 12.1397
688 2 47.3975 0.137693 12.2834
689 2 51.2586 0.0264362 12.0929
690 2 55.3801 0.0568581 12.3188
691 2 -0.208848 4.04894 11.9686
692 2 3.79618 4.0652 12.046
693 2 7.73521 3.84641 12.185
694 2 11.837 4.178 12.1321
695 2 15.8975 3.86608 12.2055
696 2 19.5465 3.98554 12.3245
697 2 23.5774 3.95473 12.2808
698 2 27.6113 4.05815 11.9804
699 2 31.6592 4.05033 12.2483
700 2 35.56 3.9894 12.0165
701 2 39.4296 4.15851 12.0493
702 2 43.6373 3.92391 12.2627
703 2 47.6443 3.94582 12.0871
704 2 51.2975 3.98149 12.1625
705 2 55.1571 4.06105 12.1646
706 2 -0.138154 7.95761 12.3966
707 2 3.82612 7.92248 12.2352
708 2 7.79266 7.99992 12.1812
709 2 11.9201 7.85991 12.3197
710 2 15.6622 7.88687 12.0578
711 2 19.6621 8.13959 12.3229
712 2 23.68 7.86368 12.3801
713 2 27.5667 7.91972 12.2136
714 2 31.6446 7.97913 12.0608
715 2 35.3604 7.75065 11.9767
716 2 39.7116 7.88824 12.1353
717 2 43.4243 8.12436 12.2815
718 2 47.3055 7.75398 12.1151
719 2 51.3538 7.81495 12.0162
720 2 55.2285 7.91871 12.1191
721 2 -0.211494 12.0159 12.0298
722 2 3.89628 11.8527 12.1881
723 2 8.03719 11.8127 12.2194
724 2 11.8726 11.8203 12.2169
725 2 15.7421 11.9145 12.1881
726 2 19.8683 11.8983 12.1731
727 2 23.8179 12.1599 12.2342
728 2 27.7331 11.7952 12.17
729 2 31.6219 11.9553 12.2799
730 2 35.6625 11.7914 12.0627
731 2 39.2915 12.0565 11.8913
732 2 43.4498 11.8463 12.1852
733 2 47.4613 12.1984 12.0021
734 2 51.3388 11.8855 12.1505
735 2 55.1617 12.0357 12.323
736 2 -0.159977 16.0572 12.1855
737 2 3.79324 15.708 12.2946
738 2 7.97749 15.8284 12.3945
739 2 11.7504 15.9154 12.2821
740 2 15.5262 15.9477 12.0824
741 2 19.8968 15.5822 12.3659
742 2 23.7189 15.8837 12.3551
743 2 27.7518 15.9035 12.069
744 2 31.5403 15.925 12.1431
745 2 35.6271 15.9589 12.2981
746 2 39.5501 15.7961 12.0189
747 2 43.4081 15.8821 12.1886
748 2 47.5134 16.0031 12.1414
749 2 51.4351 15.897 12.1603
750 2 55.2562 15.9308 12.2057
751 2 -0.288531 19.8245 12.3384
752 2 3.67907 19.636 12.1886
753 2 7.90941 19.7099 12.1534
754 2 11.7703 19.8358 12.3919
755 2 15.8033 19.7191 12.3261
756 2 19.88 19.8641 12.4486
757 2 23.8646 19.8157 12.2613
758 2 27.641 19.7611 12.0965
759 2 31.6285 19.7988 12.2991
760 2 35.4773 19.9065 12.1044
761 2 39.3834 19.7756 12.1763
762 2 43.4518 19.7745 12.3817
763 2 47.378 19.8971 12.2264
764 2 51.4289 19.8833 12.1159
765 2 55.2872 19.9048 12.3262
766 2 -0.0591943 23.8154 12.2817
767 2 3.92475 23.7085 12.2626
768 2 7.84525 23.7101 12.1741
769 2 12.0344 23.6839 12.1555
770 2 15.7733 23.8986 12.2232
771 2 19.9064 23.9026 12.1393
772 2 23.7007 23.726 12.3432
773 2 27.5082 23.7771 12.2133
774 2 31.56 23.8365 11.9612
775 2 35.4164 23.8839 12.2026
776 2 39.4322 23.8865 12.0859
777 2 43.4423 23.5337 12.1429
778 2 47.6316 23.7452 11.9872
779 2 51.5098 23.9401 11.9791
780 2 55.3767 23.5931 12.1107
781 2 -0.0230358 27.7094 12.2559
782 2 3.9661 27.8023 12.3381
783 2 7.69291 27.6319 12.133
784 2 11.8481 27.6913 12.2504
785 2 15.8281 27.7535 12.2859
786 2 19.797 27.6282 11.9531
787 2 23.714 27.6546 12.1343
788 2 27.799 27.6021 12.3519
789 2 31.6262 27.7035 12.099
790 2 35.4373 27.802 12.1504
791 2 39.3506 27.7622 12.265
792 2 43.5268 27.5356 12.1783
793 2 47.3189 27.6905 12.118
794 2 51.3602 27.7711 12.1391
795 2 55.3235 27.8893 11.9186
796 2 -0.319632 31.7043 12.2748
797 2 3.88061 31.7287 12.2131
798 2 7.90247 31.7755 12.1296
799 2 11.9223 31.5356 12.2498
800 2 15.6384 31.6415 12.0022
801 2 19.789 31.6832 12.1395
802 2 23.6629 31.7934 12.2593
803 2 27.6854 31.5549 12.12
804 2 31.5046 31.5841 11.9205
805 2 35.4776 31.8957 12.1628
806 2 39.4964 31.7214 12.3246
807 2 43.362 31.6071 12.2559
808 2 47.448 31.7321 12.1881
809 2 51.2344 31.5847 12.0792
810 2 55.1733 31.6386 12.2683
811 2 -0.338762 35.7054 12.1647
812 2 3.79832 35.4638 12.0019
813 2 7.82614 35.529 12.1379
814 2 11.7307 35.7836 12.1888
815 2 15.8531 35.5524 12.0612
816 2 19.7857 35.5145 12.0036
817 2 23.6233 35.5658 12.1407
818 2 27.5368 35.6258 12.1935
819 2 31.5866 35.6776 12.2702
820 2 35.6007 35.6248 12.1733
821 2 39.3887 35.714 12.2228
822 2 43.527 35.7275 12.2169
823 2 47.4904 35.4275 12.2301
824 2 51.2932 35.4877 12.3379
825 2 55.1456 35.5718 12.1623
826 2 0.0377609 39.4658 12.1574
827 2 3.82739 39.4886 12.2286
828 2 7.79769 39.4838 12.2079
829 2 11.6699 39.5929 12.2169
830 2 15.961 39.3501 12.163
831 2 19.9408 39.5806 12.1393
832 2 23.69 39.5401 12.2121
833 2 27.5852 39.7522 12.2272
834 2 31.648 39.5532 12.3144
835 2 35.5286 39.5522 12.2221
836 2 39.4896 39.5557 12.1775
837 2 43.3766 39.428 11.9874
838 2 47.388 39.2655 12.0557
839 2 51.3125 39.7472 12.1205
840 2 55.3794 39.5351 12.154
841 2 -0.218518 43.4599 12.0261
842 2 3.78082 43.5794 12.0216
843 2 7.87152 43.4956 11.9944
844 2 11.6619 43.4118 12.028
845 2 15.6666 43.4227 12.1907
846 2 19.608 43.6385 12.1105
847 2 23.7898 43.6117 12.0641
848 2 27.5145 43.5897 12.0766
849 2 31.5329 43.5409 12.1436
850 2 35.4846 43.2405 12.1339
851 2 39.6787 43.405 12.3029
852 2 43.6995 43.44 12.2847
853 2 47.4323 43.3606 12.119
854 2 51.4566 43.5701 12.3239
855 2 55.3868 43.6962 12.2313
856 2 -0.222611 47.58 11.9415
857 2 3.90087 47.617 12.1913
858 2 7.90486 47.259 12.1396
859 2 11.7023 47.4073 12.2091
860 2 15.566 47.3205 12.2945
861 2 19.7877 47.5458 12.2671
862 2 23.532 47.5207 11.9148
863 2 27.5972 47.6964 11.9755
864 2 31.6655 47.5974 12.0687
865 2 35.7211 47.3789 12.0853
866 2 39.6456 47.4408 12.276
867 2 43.5384 47.4544 12.2641
868 2 47.532 47.6659 12.3434
869 2 51.3884 47.6392 12.0646
870 2 55.1651 47.651 12.0009
871 2 -0.0932296 51.4231 12.1419
872 2 3.8624 51.4983 12.2942
873 2 7.7859 51.4303 12.2058
874 2 11.7564 51.3387 11.9812
875 2 15.7537 51.3922 12.1954
876 2 19.7347 51.4883 12.2624
877 2 23.5535 51.6979 12.0981
878 2 27.6863 51.6107 12.1956
879 2 31.7103 51.5186 12.2632
880 2 35.5696 51.4432 12.1905
881 2 39.7311 51.4283 12.0033
882 2 43.6537 51.5484 12.235
883 2 47.4492 51.5419 12.0179
884 2 51.5206 51.6836 12.2314
885 2 55.1385 51.6066 12.3455
886 2 -0.0749882 55.3979 12.4196
887 2 4.08069 55.4143 12.1502
888 2 7.81999 55.548 12.1894
889 2 11.6841 55.4159 12.2458
890 2 15.5593 55.3276 12.2875
891 2 19.5208 55.1883 12.1179
892 2 23.6193 55.4689 12.1652
893 2 27.4896 55.4826 12.0926
894 2 31.5481 55.4246 12.0002
895 2 35.6546 55.5148 12.2719
896 2 39.4094 55.543 12.1867
897 2 43.6539 55.5159 12.1709
898 2 47.441 55.5381 12.1917
899 2 51.3853 55.5475 12.1764
900 2 55.3592 55.2375 12.0813
901 2 59.2593 -0.0474928 16.0974
902 2 3.90221 -0.100866 16.1671
903 2 7.91623 -0.107909 16.2018
904 2 11.7146 0.178176 16.1515
905 2 15.7253 -0.215443 16.0657
906 2 19.6361 -0.231106 16.0465
907 2 23.5905 0.0362047 16.2047
908 2 27.6426 0.0477557 16.2052
909 2 31.5848 0.0972037 16.1349
910 2 35.7375 0.0259437 16.2071
911 2 39.4951 0.0380837 16.3191
912 2 43.4858 0.0475986 16.0851
913 2 47.3471 0.0295224 16.2317
914 2 51.5749 -0.040552 16.2561
915 2 55.3326 -0.134944 16.1321
916 2 59.1381 3.92326 16.1355
917 2 3.8521 3.9968 16.2878
918 2 7.65267 3.79093 16.0753
919 2 11.8797 3.83991 16.2105
920 2 15.9226 3.9601 16.2649
921 2 19.6774 4.00293 16.2238
922 2 23.7182 3.86375 16.1902
923 2 27.7752 3.92062 16.0242
924 2 31.5964 3.87971 16.1656
925 2 35.6073 3.90143 16.2132
926 2 39.6399 3.86739 16.0293
927 2 43.3841 4.10075 16.1658
928 2 47.6062 3.97296 16.2631
929 2 51.4216 3.89521 16.3673
930 2 55.0771 3.8549 16.2955
931 2 59.2773 7.95457 16.3138
932 2 3.78517 7.90268 16.1413
933 2 7.86578 7.89708 16.0541
934 2 11.9146 7.79019 16.0279
935 2 15.7936 7.88971 16.2099
936 2 19.925 7.85756 16.06
937 2 23.692 7.83411 16.2794
938 2 27.6354 7.7927 16.0708
939 2 31.6882 7.95511 16.176
940 2 35.7159 7.91421 16.136
941 2 39.5546 7.90609 16.2189
942 2 43.4496 8.11198 16.0203
943 2 47.5226 8.05692 16.1896
944 2 51.2071 7.98143 16.0629
945 2 55.3994 7.74571 16.1041
946 2 59.048 11.8051 15.9538
947 2 3.68809 11.8431 16.2587
948 2 7.69703 11.7028 16.2813
949 2 11.7894 11.7422 16.2756
950 2 15.7214 11.868 16.328
951 2 19.6317 11.6831 16.084
952 2 23.9172 11.691 16.0566
953 2 27.8138 11.9817 16.1436
954 2 31.6039 11.9071 16.0958
955 2 35.8074 11.757 15.9702
956 2 39.6917 11.9135 16.2204
957 2 43.3882 11.8872 16.1269
958 2 47.3928 11.8679 16.3
959 2 51.3464 11.6357 15.9408
960 2 55.2442 11.819 16.3928
961 2 59.186 15.812 16.1696
962 2 3.77021 15.6718 16.0802
963 2 7.87628 15.6461 16.3545
964 2 11.6754 15.704 16.1198
965 2 15.7203 15.7546 16.0823
966 2 19.6337 15.7539 16.2672
967 2 23.8113 15.9114 16.2687
968 2 27.6902 15.8795 16.2532
969 2 31.6362 15.7411 15.9521
970 2 35.66 15.8464 16.3198
971 2 39.4842 15.8649 16.1454
972 2 43.2727 15.8634 16.2763
973 2 47.359 15.5425 16.0898
974 2 51.3125 15.8354 16.3618
975 2 55.1439 15.7084 16.3501
976 2 59.113 19.7193 16.3349
977 2 3.79546 19.6964 15.9874
978 2 7.85683 19.583 16.2015
979 2 11.7272 19.7343 16.3128
980 2 15.606 19.7383 16.4035
981 2 19.5959 19.9199 16.2546
982 2 23.6329 20.0832 16.1049
983 2 27.6233 19.7407 16.1818
984 2 31.5044 19.6931 16.1374
985 2 35.5884 19.908 16.355