ITEM: TIMESTEP
34600
ITEM: NUMBER OF ATOMS
14625
ITEM: BOX BOUNDS xy xz yz pp pp pp
0.0000000000000000e+00 5.9369999999999997e+01 0.0000000000000000e+00
0.0000000000000000e+00 5.9369999999999997e+01 0.0000000000000000e+00
-5.5848698722030576e-02 5.1795848698721841e+01 0.0000000000000000e+00
ITEM: ATOMS id type x y z
1 2 0.118996 -0.0439319 0.209284
2 2 4.11289 0.142127 0.338935
3 2 8.05199 -0.207974 0.221359
4 2 11.9488 -0.00176466 0.192888
5 2 15.9828 0.17 0.189094
6 2 19.8731 0.114551 0.20923
7 2 23.7954 0.0171409 0.126833
8 2 27.7921 -0.0158956 0.370297
9 2 31.9163 -0.0413138 0.271741
10 2 35.6466 -0.0205476 0.291555
11 2 39.553 -0.0335869 0.216613
12 2 43.6693 -0.0876247 0.244167
13 2 47.4725 -0.0765924 0.054689
14 2 51.3233 0.0547893 0.359347
15 2 55.5078 -0.0566521 0.205474
16 2 0.153255 3.94499 0.110208
17 2 4.28025 3.84251 0.140949
18 2 7.88256 3.82786 0.187645
19 2 11.9407 3.79749 0.204303
20 2 15.8594 4.09397 0.263018
21 2 19.8598 4.05305 0.258589
22 2 23.7695 3.71387 0.10235
23 2 27.9469 3.94651 0.0935913
24 2 31.9423 4.10564 0.231734
25 2 35.7996 3.84192 0.0805839
26 2 39.5576 3.89852 0.160266
27 2 43.682 3.98046 0.22112
28 2 47.614 3.9139 0.320141
29 2 51.6926 4.18967 0.0445665
30 2 55.5353 3.75756 0.33899
31 2 -0.0360993 7.92301 0.284327
32 2 4.01692 7.82855 0.238213
33 2 7.96306 7.66158 0.251043
34 2 11.9213 7.85621 0.157936
35 2 15.8978 7.95885 0.227917
36 2 19.8098 7.93663 0.192828
37 2 23.7327 7.97519 0.273308
38 2 27.9883 8.01269 0.378213
39 2 31.9635 7.92754 0.0976796
40 2 35.6005 7.83863 0.240612
41 2 39.4621 7.95007 0.296371
42 2 43.4625 8.03524 0.191512
43 2 47.6661 7.81082 0.323037
44 2 51.4754 7.99874 0.101028
45 2 55.4872 7.61092 0.135456
46 2 -0.0653645 11.6494 0.165332
47 2 3.98962 11.8729 0.175278
48 2 8.05512 11.9366 0.157672
49 2 12.0593 11.8215 0.0956413
50 2 15.9219 11.7739 0.264495
51 2 19.801 11.9046 0.0816034
52 2 23.7343 11.7641 0.131884
53 2 27.871 11.9655 0.20829
54 2 31.8263 11.8471 0.247419
55 2 35.591 11.8367 0.288421
56 2 39.7975 11.8301 0.368824
57 2 43.7301 11.86 0.128623
58 2 47.6444 11.9931 0.0769019
59 2 51.6177 11.7102 0.208191
60 2 55.4605 11.7868 0.374524
61 2 0.129385 15.7434 0.138604
62 2 4.07808 15.7517 0.329022
63 2 7.76425 15.801 0.134379
64 2 11.9836 15.8043 0.280357
65 2 16.0715 15.8022 0.255788
66 2 20.017 15.9855 0.28243
67 2 24.0352 15.8111 0.295687
68 2 28.0986 15.8452 0.25093
69 2 31.8457 15.8677 0.117224
70 2 35.6942 15.6845 0.110317
71 2 39.7271 15.731 0.188663
72 2 43.6723 15.7011 0.0759396
73 2 47.5935 15.7038 0.155355
74 2 51.7692 15.8526 0.084879
75 2 55.7276 15.6665 0.101047
76 2 0.0305898 19.6983 0.253979
77 2 4.2442 19.6861 0.19648
78 2 8.13867 19.9377 -0.00120375
79 2 11.9812 19.6908 0.28776
80 2 16.1411 19.8941 0.256379
81 2 20.0622 19.7938 0.267064
82 2 24.005 19.854 0.268938
83 2 27.8449 19.7401 0.146963
84 2 31.7383 19.7826 0.307545
85 2 35.8693 19.8355 0.0561592
86 2 39.7794 19.587 0.0879968
87 2 43.751 19.7597 0.391143
88 2 47.603 19.7209 0.257616
89 2 51.4848 19.7496 0.214281
90 2 55.5382 19.5432 0.162907
91 2 -0.0391605 23.568 0.10506
92 2 4.09496 23.6422 0.214789
93 2 8.17312 23.7856 0.385204
94 2 11.8791 23.6892 0.122131
95 2 15.9188 23.9237 0.139714
96 2 19.9343 23.6809 0.271101
97 2 24.0051 23.7548 0.139943
98 2 27.8554 23.7773 0.252457
99 2 31.6347 23.7542 0.273596
100 2 35.7146 23.8051 0.247891
101 2 39.6804 23.627 0.173975
102 2 43.7092 23.5598 0.250495
103 2 47.7315 23.7372 0.0969873
104 2 51.4459 23.6814 0.0890521
105 2 55.6379 23.6819 0.044841
106 2 0.335394 27.6439 0.0976422
107 2 4.06762 27.6607 0.280585
108 2 8.01779 27.7881 0.0837777
109 2 12.0045 27.6921 0.320019
110 2 15.8874 27.8519 0.144209
111 2 19.8265 27.6637 0.227333
112 2 23.849 27.7481 0.252917
113 2 27.7098 27.8158 0.225053
114 2 31.8736 27.6823 0.363448
115 2 35.6962 27.6052 0.234687
116 2 39.5393 27.4547 0.328971
117 2 43.6724 27.5251 0.0532551
118 2 47.4631 27.8062 0.233888
119 2 51.5705 27.6524 0.267376
120 2 55.6207 27.5548 0.115884
121 2 0.00904095 31.5762 0.263706
122 2 4.11836 31.6542 0.317435
123 2 8.11027 31.8319 0.151977
124 2 11.9354 31.6398 0.297741
125 2 15.9914 31.7425 0.148983
126 2 20.013 31.8859 0.213232
127 2 23.9474 31.7614 -0.163331
128 2 27.8931 31.5596 0.178091
129 2 31.8272 31.5338 0.382762
130 2 35.7148 31.6779 0.426956
131 2 39.7133 31.8576 0.337068
132 2 43.525 31.6063 0.428912
133 2 47.4544 31.6307 0.212269
134 2 51.5899 31.6491 0.194571
135 2 55.5063 31.3693 0.209185
136 2 0.163898 35.8315 0.205769
137 2 3.89965 35.5427 0.0785082
138 2 7.94623 35.6247 0.227959
139 2 11.9931 35.7497 0.0479284
140 2 16.0333 35.4893 0.322682
141 2 19.8356 35.8035 0.244805
142 2 23.9476 35.5946 0.162306
143 2 28.0417 35.4516 0.226497
144 2 31.8778 35.3892 0.241238
145 2 35.6916 35.6737 0.304215
146 2 39.6727 35.7606 0.0403172
147 2 43.5703 35.6356 0.0956598
148 2 47.4944 35.5391 0.331708
149 2 51.4634 35.2997 0.126275
150 2 55.5241 35.4259 0.172328
151 2 0.0293515 39.5801 0.364403
152 2 4.26884 39.6302 0.158322
153 2 8.11514 39.5183 0.133683
154 2 11.9817 39.6427 0.180545
155 2 16.175 39.4859 0.166568
156 2 20.0554 39.4412 0.24878
157 2 23.8782 39.5919 0.188007
158 2 27.8271 39.5192 0.384651
159 2 31.7833 39.4619 0.358925
160 2 35.644 39.4692 0.308728
161 2 39.8309 39.6442 0.11055
162 2 43.6146 39.5164 0.115744
163 2 47.6456 39.5523 0.256062
164 2 51.5897 39.3022 0.186542
165 2 55.3429 39.4838 0.341773
166 2 0.0481913 43.2987 0.189051
167 2 4.09209 43.5706 0.375567
168 2 8.23735 43.6117 0.199462
169 2 11.9985 43.6355 0.217726
170 2 15.9399 43.7641 0.187677
171 2 19.7835 43.4059 0.261549
172 2 23.9052 43.5211 0.300923
173 2 27.8494 43.772 0.1939
174 2 31.9772 43.4512 0.242778
175 2 35.7744 43.4574 0.0349032
176 2 39.7953 43.6352 0.337357
177 2 43.5915 43.604 0.0172272
178 2 47.7018 43.4429 0.164582
179 2 51.6525 43.5028 0.285441
180 2 55.3888 43.444 0.325806
181 2 0.272485 47.4162 0.108709
182 2 4.02097 47.5453 0.462065
183 2 8.13828 47.4772 0.0361014
184 2 12.1117 47.5692 0.218763
185 2 16.0938 47.4341 0.0785656
186 2 20.0063 47.6505 0.358057
187 2 23.8908 47.5086 0.126261
188 2 27.7481 47.5864 0.221145
189 2 31.7914 47.4379 0.0464577
190 2 35.6351 47.4886 0.115868
191 2 39.6026 47.5664 0.414858
192 2 43.5985 47.4578 0.203051
193 2 47.5647 47.5318 0.16446
194 2 51.6276 47.2705 0.273392
195 2 55.6751 47.5511 0.244342
196 2 -0.129593 51.499 0.119643
197 2 4.13759 51.5519 0.246822
198 2 7.97554 51.3429 0.24084
199 2 12.0126 51.4218 -0.0039969
200 2 15.9592 51.6237 0.0320453
201 2 19.9241 51.3923 0.215639
202 2 24.0023 51.6131 0.291442
203 2 28.0339 51.4632 0.130734
204 2 31.7086 51.3331 0.225913
205 2 35.6859 51.5494 0.19073
206 2 39.5302 51.2847 0.242712
207 2 43.6874 51.4294 0.113214
208 2 47.6629 51.4013 0.199364
209 2 51.3994 51.2326 0.304951
210 2 55.2677 51.3249 0.13111
211 2 0.156687 55.377 0.342934
212 2 3.87176 55.2191 0.248203
213 2 8.26494 55.3079 0.253126
214 2 12.1186 55.237 0.282271
215 2 16.0561 55.5166 0.219689
216 2 20.0527 55.6311 0.267575
217 2 23.867 55.3808 0.280208
218 2 27.7579 55.4516 0.0861864
219 2 31.7967 55.519 0.313402
220 2 35.7328 55.3808 0.365885
221 2 39.6608 55.4085 0.253835
222 2 43.7247 55.3107 0.333872
223 2 47.5824 55.3769 0.171486
224 2 51.4342 55.3934 0.205542
225 2 55.7266 55.3396 0.259936
226 2 -0.0563556 -0.0360023 4.05547
227 2 4.01341 -0.111065 4.2765
228 2 8.08848 -0.000844278 4.17865
229 2 11.9855 -0.0166121 4.32609
230 2 15.8163 -0.00394728 4.23325
231 2 20.0279 0.140898 4.13565
232 2 23.8106 0.131694 4.22728
233 2 27.9443 0.0589442 4.19276
234 2 31.6917 0.0329988 4.18162
235 2 35.6992 0.0804676 4.12106
236 2 39.6687 0.0476203 4.38639
237 2 43.5748 0.118595 4.24167
238 2 47.4551 0.169756 4.10434
239 2 51.3646 -0.135854 4.32116
240 2 55.2361 0.0162794 4.20943
241 2 -0.333163 3.99586 4.03127
242 2 3.97546 3.91178 4.29188
243 2 8.0532 3.99284 4.37048
244 2 11.8618 3.84579 4.24935
245 2 15.7431 3.79932 4.25769
246 2 19.6154 3.99685 4.28477
247 2 23.7871 4.05568 4.24517
248 2 27.7929 4.07429 4.00949
249 2 31.7438 3.90916 4.38216
250 2 35.7186 3.93636 4.36507
251 2 39.7059 3.94084 4.31824
252 2 43.5473 3.99239 4.09502
253 2 47.6878 3.93105 4.08753
254 2 51.4408 3.99925 4.41134
255 2 55.3874 3.87206 4.23976
256 2 0.274745 7.8697 4.07271
257 2 4.05788 7.96844 4.21059
258 2 7.91374 8.02505 4.12514
259 2 11.9037 7.90019 4.17025
260 2 15.8378 7.79977 4.12448
261 2 19.9158 8.02348 4.25639
262 2 23.9412 8.03711 4.24063
263 2 27.7267 7.90262 4.27741
264 2 31.7037 7.82778 4.23959
265 2 35.7447 7.89472 4.28953
266 2 39.7151 7.80314 4.3553
267 2 43.5421 7.93868 4.19943
268 2 47.626 7.89814 4.21284
269 2 51.4822 7.91534 4.22798
270 2 55.4109 7.83685 4.28265
271 2 0.0562594 11.8382 4.24147
272 2 4.17975 11.8814 4.06691
273 2 8.13861 11.7494 4.18179
274 2 11.9173 11.8731 3.93198
275 2 15.8258 11.9737 4.2215
276 2 19.7063 11.9361 4.34913
277 2 23.9434 12.0509 4.17189
278 2 27.8385 11.812 4.17232
279 2 31.7798 11.8454 4.33179
280 2 35.5825 11.8827 4.10653
281 2 39.4961 11.9039 4.21282
282 2 43.5164 11.9142 4.20691
283 2 47.5728 11.9675 4.09765
284 2 51.5374 11.8347 4.19281
285 2 55.5735 11.944 4.28568
286 2 0.130421 15.9152 4.16452
287 2 4.10128 15.8936 3.99751
288 2 8.01078 15.6742 4.2873
289 2 11.9134 15.9673 4.13257
290 2 15.9672 15.9294 4.15137
291 2 20.0789 15.7482 4.00266
292 2 23.9183 15.8757 4.31108
293 2 27.8228 15.9291 4.21682
294 2 32.044 15.8975 4.17853
295 2 35.7924 16.0181 4.02085
296 2 39.566 15.778 3.99184
297 2 43.7768 15.9128 4.24229
298 2 47.4826 16.0935 4.20705
299 2 51.2529 15.8578 4.24268
300 2 55.5918 15.823 4.26858
301 2 0.107188 19.6776 4.16564
302 2 4.03517 19.9184 4.14176
303 2 8.0169 19.7794 4.25962
304 2 11.9688 19.7776 4.0206
305 2 15.9693 19.9063 4.09649
306 2 19.887 19.7581 4.28369
307 2 23.8729 19.9332 4.27419
308 2 27.8371 19.7728 4.26326
309 2 31.7388 19.7982 4.27441
310 2 35.6251 19.8759 4.09516
311 2 39.5816 19.7132 4.25748
312 2 43.6261 19.8125 4.1136
313 2 47.7826 19.6637 4.25052
314 2 51.4856 19.761 4.29754
315 2 55.2948 19.7505 4.2065
316 2 0.132877 23.8293 4.4132
317 2 3.99447 23.7129 4.23035
318 2 7.89879 23.7448 4.19411
319 2 11.8933 23.8016 4.13131
320 2 15.7385 23.7341 4.14744
321 2 19.7851 23.7799 4.37917
322 2 23.8613 23.6662 4.22604
323 2 27.8553 23.8002 4.09478
324 2 31.9199 23.7422 4.39109
325 2 35.7567 23.9108 4.19058
326 2 39.6484 23.5636 4.14873
327 2 43.4044 23.7314 4.41627
328 2 47.303 23.7066 4.20511
329 2 51.5506 23.643 4.06121
330 2 55.6458 23.8235 4.24808
331 2 0.140222 27.7651 4.05792
332 2 4.03548 27.6862 4.19587
333 2 7.91491 27.6421 4.23929
334 2 11.9206 27.77 4.05759
335 2 16.0994 27.9176 4.10992
336 2 19.9697 27.6845 4.18978
337 2 23.6999 27.8981 4.18029
338 2 27.7447 27.8097 4.15832
339 2 31.8084 27.7346 4.41781
340 2 35.781 27.5825 4.1532
341 2 39.5256 27.7643 4.15025
342 2 43.5855 27.6877 4.21329
343 2 47.5152 27.5395 4.15768
344 2 51.3566 27.5629 4.20828
345 2 55.2723 27.5482 4.19046
346 2 -0.215596 31.5836 4.17331
347 2 4.00067 31.6214 4.20789
348 2 7.73916 31.5501 4.19511
349 2 11.8904 31.9157 4.0197
350 2 15.7573 31.7048 4.31355
351 2 19.8806 31.7506 4.18946
352 2 23.7971 31.7282 4.16741
353 2 27.8101 31.7657 4.20994
354 2 31.8534 31.6138 4.32462
355 2 35.9436 31.7214 4.1036
356 2 39.6783 31.6123 4.15825
357 2 43.6071 31.5733 4.08506
358 2 47.6716 31.4539 4.12238
359 2 51.5109 31.7466 4.20931
360 2 55.4326 31.6825 4.16098
361 2 0.0732354 35.6266 4.1773
362 2 3.89996 35.6354 4.05011
363 2 7.91165 35.4676 4.26401
364 2 11.7843 35.8528 4.08185
365 2 15.7607 35.7358 4.18418
366 2 19.7808 35.6962 4.18798
367 2 23.7193 35.6042 4.20217
368 2 27.7531 35.6704 4.06464
369 2 31.6468 35.6511 4.24841
370 2 35.7874 35.7767 4.23372
371 2 39.7004 35.5571 4.2955
372 2 43.6861 35.7814 4.02759
373 2 47.4834 35.803 4.00274
374 2 51.4525 35.3805 4.04979
375 2 55.6238 35.6802 4.44797
376 2 0.0320434 39.3219 4.30233
377 2 4.03975 39.6508 4.18827
378 2 7.83315 39.5832 4.2149
379 2 12.0471 39.7018 4.21589
380 2 15.8427 39.6541 4.17373
381 2 19.7173 39.4814 4.2553
382 2 23.759 39.5462 4.26503
383 2 27.8105 39.5999 4.15112
384 2 31.8523 39.467 4.35296
385 2 35.4514 39.6828 4.3361
386 2 39.7104 39.54 4.21255
387 2 43.5108 39.4874 4.21073
388 2 47.3145 39.6749 4.15951
389 2 51.5346 39.2548 4.14539
390 2 55.5041 39.5779 4.27166
391 2 0.0885964 43.5073 4.18412
392 2 4.1095 43.6583 4.23029
393 2 8.0749 43.5536 4.14903
394 2 12.0159 43.4752 4.37882
395 2 15.9746 43.7208 4.19185
396 2 19.9024 43.615 4.27137
397 2 23.8002 43.5994 4.24246
398 2 27.761 43.6191 4.18508
399 2 31.6662 43.7116 4.3027
400 2 35.4938 43.5325 4.20635
401 2 39.4159 43.5584 4.14316
402 2 43.5346 43.3482 4.1807
403 2 47.7458 43.506 4.21705
404 2 51.4765 43.4936 4.20597
405 2 55.2741 43.4318 4.03524
406 2 0.209178 47.5931 4.28352
407 2 3.89858 47.3966 4.18851
408 2 7.91416 47.6059 4.1627
409 2 12.0483 47.4585 4.2232
410 2 16.0101 47.5597 4.36715
411 2 19.883 47.5683 4.17471
412 2 23.6524 47.6083 4.18799
413 2 27.6805 47.4749 4.26941
414 2 31.8433 47.5757 4.34386
415 2 35.7983 47.5686 4.21859
416 2 39.6679 47.2509 4.11097
417 2 43.5935 47.505 4.1094
418 2 47.3508 47.353 4.3386
419 2 51.703 47.399 4.12327
420 2 55.6003 47.3391 4.25879
421 2 0.131864 51.3854 4.29424
422 2 3.93568 51.3901 4.24877
423 2 7.98712 51.3716 4.13388
424 2 11.818 51.4061 4.3305
425 2 15.9594 51.595 4.02477
426 2 19.8296 51.5405 4.18865
427 2 23.7599 51.7238 4.28709
428 2 27.8387 51.407 4.367
429 2 31.6126 51.6835 4.23062
430 2 35.7853 51.5332 4.20573
431 2 39.6638 51.6177 4.29703
432 2 43.6272 51.4965 4.31341
433 2 47.5896 51.4132 4.07671
434 2 51.4218 51.6302 3.9062
435 2 55.5875 51.1326 4.19613
436 2 0.0552011 55.3007 4.14015
437 2 4.17967 55.4263 4.2824
438 2 7.79049 55.3437 4.33632
439 2 11.8568 55.3101 4.28747
440 2 15.8214 55.5853 4.25411
441 2 19.7657 55.4478 4.25541
442 2 24.0416 55.3256 4.11062
443 2 27.8158 55.4756 3.94759
444 2 31.7236 55.4421 4.34513
445 2 35.8219 55.3459 4.16501
446 2 39.6733 55.4211 4.26579
447 2 43.5838 55.3531 4.18904
448 2 47.3128 55.4502 4.12966
449 2 51.2671 55.3581 4.15356
450 2 55.3534 55.3937 4.10433
451 2 -0.16931 -0.114121 7.99208
452 2 3.84557 0.0610325 8.10299
453 2 7.60369 -0.121424 8.09346
454 2 12.0089 0.0161508 8.26483
455 2 15.8419 -0.0883178 8.17785
456 2 19.8203 0.252008 7.91042
457 2 23.8111 0.219535 8.1606
458 2 27.8034 -0.0519232 8.12571
459 2 31.8557 0.0948054 8.27957
460 2 35.6069 0.124138 8.33167
461 2 39.6568 0.146712 8.24967
462 2 43.4563 -0.103186 8.43931
463 2 47.5051 0.0675501 8.22995
464 2 51.4464 0.0185832 8.1855
465 2 55.2231 -0.100769 8.34053
466 2 -0.0767077 3.858 8.09166
467 2 3.99654 4.03208 8.28698
468 2 7.85754 3.93871 8.25939
469 2 11.6853 4.05175 8.19149
470 2 15.8719 4.02963 8.1559
471 2 19.842 3.91773 8.24284
472 2 23.7692 4.04126 8.24552
473 2 27.7624 3.9421 8.28548
474 2 31.5634 3.99134 8.35502
475 2 35.5943 4.09232 8.1396
476 2 39.6893 3.94343 8.12536
477 2 43.5818 4.17084 8.12874
478 2 47.5424 4.08468 8.17429
479 2 51.5003 4.12941 8.12809
480 2 55.2309 3.99303 8.32412
481 2 0.0469161 7.82832 8.25064
482 2 3.85244 7.79957 8.17541
483 2 7.97713 8.03526 8.24821
484 2 11.8423 7.94517 8.26187
485 2 15.8076 7.88101 8.25787
486 2 19.7389 7.95066 8.24723
487 2 23.6679 8.11174 8.14974
488 2 27.7617 7.99282 8.24511
489 2 31.3873 8.18098 8.2176
490 2 35.6816 7.83914 8.31795
491 2 39.6331 7.95694 8.28188
492 2 43.7113 7.91387 8.22796
493 2 47.5084 7.97071 8.1668
494 2 51.5932 7.94107 8.07351
495 2 55.4731 7.93138 8.26859
496 2 0.203839 11.9699 8.27262
497 2 4.13818 11.9411 8.17272
498 2 8.07376 11.9065 8.17562
499 2 12.0742 11.9064 7.87114
500 2 15.9118 12.0404 8.10743
501 2 19.6137 11.8557 8.29686
502 2 23.7924 11.9606 8.11444
503 2 27.7788 12.1114 8.14673
504 2 31.6472 11.8913 8.14331
505 2 35.5528 11.9769 8.21754
506 2 39.4879 11.7095 8.1052
507 2 43.6117 12.2035 8.11975
508 2 47.5404 11.945 7.9882
509 2 51.2223 11.8666 8.19988
510 2 55.6929 11.6863 8.24314
511 2 0.291269 15.8242 8.22886
512 2 4.12268 15.9305 8.00453
513 2 8.15121 15.8783 8.155
514 2 11.8759 15.7847 8.10842
515 2 15.8818 15.908 8.02111
516 2 20.0892 15.9625 8.25552
517 2 23.8634 15.856 8.08772
518 2 27.7559 15.7752 8.30673
519 2 31.6852 16.0108 8.34928
520 2 35.6246 15.7821 8.26236
521 2 39.788 15.8796 8.04135
522 2 43.7261 15.9168 8.27132
523 2 47.5251 15.9116 8.21192
524 2 51.7073 15.6253 8.34262
525 2 55.7022 15.7442 8.25342
526 2 0.20357 19.5439 8.02727
527 2 4.10825 19.7138 8.32695
528 2 8.02926 19.7341 8.23
529 2 12.0353 19.7525 8.25227
530 2 15.9174 19.8895 8.05824
531 2 19.9096 19.9832 8.15724
532 2 23.8179 19.7377 8.22908
533 2 27.7291 19.7081 8.35889
534 2 31.6333 19.825 8.30093
535 2 35.6003 19.6354 8.32719
536 2 39.5953 19.6883 8.17496
537 2 43.7631 19.8356 8.26443
538 2 47.5565 19.8994 8.38437
539 2 51.5647 19.6364 8.3326
540 2 55.479 20.0209 8.22107
541 2 -0.0170108 23.923 8.12955
542 2 3.86877 23.8501 8.23313
543 2 7.89073 23.7683 8.29532
544 2 11.8229 23.7938 8.27664
545 2 15.8958 23.9386 8.06919
546 2 19.7251 23.7716 8.25671
547 2 23.7875 23.8512 8.0908
548 2 27.6093 23.8968 8.15083
549 2 31.8163 23.8526 8.15055
550 2 35.7285 23.7592 8.26061
551 2 39.6915 23.7746 8.28335
552 2 43.6217 23.5876 8.14721
553 2 47.4581 23.8659 8.3312
554 2 51.4504 23.6689 8.32868
555 2 55.5115 23.7232 8.27472
556 2 0.0718922 27.8467 8.0732
557 2 4.27761 27.7202 8.29271
558 2 7.97555 27.9007 8.27938
559 2 11.88 27.8002 8.02063
560 2 15.8652 27.8709 8.13014
561 2 19.8197 27.8 8.10749
562 2 23.8792 27.7698 8.2362
563 2 27.8665 27.7637 8.35865
564 2 31.9071 27.8303 8.2046
565 2 35.6314 27.6017 8.32875
566 2 39.6996 27.585 8.13314
567 2 43.4322 27.7105 8.08309
568 2 47.4584 27.7806 8.26177
569 2 51.5677 27.5933 8.27694
570 2 55.3728 27.8108 8.01034
571 2 0.0209282 31.637 8.13642
572 2 3.9081 31.826 8.18557
573 2 8.01133 31.737 8.16505
574 2 11.9926 31.8999 8.10652
575 2 15.8001 31.8635 8.2276
576 2 19.7768 31.6516 8.27986
577 2 23.862 31.7145 8.14561
578 2 27.9127 31.7799 8.05008
579 2 31.8954 31.6073 8.20545
580 2 35.6961 31.728 8.25233
581 2 39.7197 31.6035 8.30097
582 2 43.3889 31.6195 8.34241
583 2 47.5345 31.708 8.24985
584 2 51.3181 31.5716 8.14244
585 2 55.2631 31.5882 8.09155
586 2 0.103871 35.6255 8.25303
587 2 3.90506 35.6497 8.17692
588 2 7.96808 35.7815 8.26725
589 2 11.86 35.7008 8.14576
590 2 15.7529 35.8018 8.29638
591 2 19.8792 35.4885 8.31877
592 2 23.7294 35.8552 8.00939
593 2 27.7369 35.6964 8.10915
594 2 31.9037 35.4535 7.97975
595 2 35.6816 35.553 8.23883
596 2 39.5557 35.6458 8.18358
597 2 43.6539 35.4159 8.17555
598 2 47.4578 35.5938 8.24724
599 2 51.1749 35.6202 7.96425
600 2 55.3065 35.5823 8.23341
601 2 -0.0357628 39.8228 8.23256
602 2 4.19507 39.5191 8.25699
603 2 7.94681 39.6613 8.25168
604 2 11.9238 39.6577 8.24029
605 2 15.7799 39.8298 8.15265
606 2 19.8548 39.7827 8.07192
607 2 23.9447 39.7141 8.04516
608 2 27.6644 39.6932 8.21479
609 2 31.5684 39.6449 8.31929
610 2 35.665 39.7104 8.10658
611 2 39.5694 39.6548 8.25492
612 2 43.5354 39.6277 8.21886
613 2 47.5466 39.5917 8.21059
614 2 51.4058 39.452 8.06105
615 2 55.358 39.7212 8.15417
616 2 0.0744003 43.5204 8.36574
617 2 4.13623 43.6204 8.22818
618 2 7.95784 43.5875 8.02909
619 2 11.9609 43.6896 8.02598
620 2 16.034 43.7022 8.08182
621 2 19.9415 43.4795 8.12872
622 2 23.6463 43.7576 8.13543
623 2 27.6825 43.6099 8.07658
624 2 31.5683 43.5234 8.22924
625 2 35.6107 43.7899 8.06752
626 2 39.6175 43.4027 8.18078
627 2 43.5664 43.6706 8.16688
628 2 47.5886 43.5587 8.14665
629 2 51.2302 43.6386 8.05839
630 2 55.3905 43.6297 8.1398
631 2 -0.0201978 47.2765 8.29222
632 2 3.99784 47.598 8.36203
633 2 7.898 47.7084 8.3244
634 2 11.8919 47.6644 8.26485
635 2 15.7935 47.654 8.2687
636 2 19.6585 47.5999 8.21018
637 2 23.774 47.684 8.23241
638 2 27.7417 47.6176 8.20238
639 2 31.7984 47.5657 8.17103
640 2 35.7523 47.6409 8.20854
641 2 39.611 47.4476 8.12679
642 2 43.5141 47.5492 8.08802
643 2 47.3202 47.533 8.2618
644 2 51.4108 47.6351 8.15998
645 2 55.2338 47.4462 7.99266
646 2 -0.0351115 51.537 8.22661
647 2 3.85682 51.4477 8.31486
648 2 7.93624 51.5339 8.26279
649 2 11.8688 51.6567 8.22155
650 2 15.9923 51.5817 8.25851
651 2 19.8666 51.5809 8.20553
652 2 23.8353 51.6411 8.15835
653 2 27.6834 51.4264 8.10934
654 2 31.8522 51.4856 8.31244
655 2 35.7408 51.5227 8.26101
656 2 39.7791 51.4133 8.11171
657 2 43.6797 51.4236 8.31538
658 2 47.578 51.6057 8.14372
659 2 51.5409 51.474 8.08202
660 2 55.3908 51.5339 8.06306
661 2 0.0269054 55.3623 8.19758
662 2 3.88316 55.3266 8.17333
663 2 7.87322 55.3412 8.23697
664 2 11.7724 55.4318 8.09897
665 2 15.815 55.4183 8.20953
666 2 19.8278 55.5321 8.23255
667 2 23.6785 55.631 8.21453
668 2 27.5681 55.4262 8.17534
669 2 32.0085 55.5422 8.09372
670 2 35.7961 55.4621 8.09659
671 2 39.6616 55.682 8.18011
672 2 43.6274 55.5982 8.15316
673 2 47.4023 55.2981 8.23272
674 2 51.3401 55.4002 8.11357
675 2 55.59 55.1766 8.06147
676 2 -0.248846 0.00471456 11.994
677 2 3.84958 -0.0119787 12.2411
678 2 7.8339 0.215175 12.0587
679 2 11.784 0.164279 12.206
680 2 15.8053 0.121721 11.8433
681 2 19.7644 0.27191 12.1826
682 2 23.7838 0.0537937 12.2292
683 2 27.8274 0.123875 12.278
684 2 31.7174 -0.00799263 12.2674
685 2 35.6037 0.00545675 12.1546
686 2 39.6555 0.0222989 12.209
687 2 43.7216 0.266493 12.3237
688 2 47.4323 0.181213 12.3829
689 2 51.3064 0.130624 12.2187
690 2 55.2187 0.0938608 12.1345
691 2 -0.198094 4.03413 12.3715
692 2 3.98735 4.07937 12.1786
693 2 7.95494 3.95059 12.0921
694 2 11.8482 4.12453 12.2064
695 2 15.6264 3.99523 12.2023
696 2 19.5659 4.17091 12.1472
697 2 23.8557 3.9648 11.9859
698 2 27.6278 3.8149 12.2993
699 2 31.4257 3.93026 12.1616
700 2 35.5932 4.13506 12.346
701 2 39.4674 3.95307 12.1542
702 2 43.5162 4.19079 12.3492
703 2 47.5799 4.04562 12.2056
704 2 51.4286 4.2655 12.194
705 2 55.4036 4.01314 12.2649
706 2 0.158443 8.09116 12.2666
707 2 3.97962 7.87813 12.0953
708 2 7.90879 7.94695 12.1366
709 2 12.0155 8.08757 12.0798
710 2 15.7552 8.16134 12.081
711 2 19.9172 7.90764 12.1406
712 2 23.9312 8.1204 12.21
713 2 27.7947 7.90062 12.0434
714 2 31.617 8.0765 12.3603
715 2 35.8364 7.9212 12.219
716 2 39.7179 8.07843 12.2718
717 2 43.6187 8.092 12.2651
718 2 47.6437 8.15576 12.2441
719 2 51.5491 8.13281 12.1405
720 2 55.2814 7.80842 12.1001
721 2 -0.0968799 11.9763 12.3492
722 2 4.05382 11.9332 12.2471
723 2 7.98202 11.9945 12.1367
724 2 11.8709 12.0472 12.2579
725 2 15.893 12.0343 12.2685
726 2 19.7609 11.9301 12.1735
727 2 23.8667 12.1187 12.0325
728 2 27.7205 11.9963 12.0965
729 2 31.6348 11.7742 12.355
730 2 35.6014 11.9117 12.3198
731 2 39.5771 12.022 12.2296
732 2 43.5872 12.0634 12.1257
733 2 47.6265 12.0373 12.3052
734 2 51.3629 12.0338 12.2212
735 2 55.4953 12.0629 12.231
736 2 0.0411149 16.0738 12.1351
737 2 4.007 15.9127 12.3144
738 2 7.93989 15.8916 12.3049
739 2 11.8071 15.8752 12.2756
740 2 15.8121 15.9779 12.0116
741 2 19.8609 15.7849 12.2751
742 2 23.7106 15.9553 12.3016
743 2 27.8202 15.8604 12.2443
744 2 31.6414 15.8291 12.3671
745 2 35.7258 15.9867 12.1358
746 2 39.6257 15.9342 12.1797
747 2 43.467 16.0642 12.1852
748 2 47.4502 16.1246 12.3054
749 2 51.3473 15.9626 12.2189
750 2 55.4769 15.9714 12.2403
751 2 -0.040653 19.8086 12.0681
752 2 4.01603 20.0449 12.047
753 2 7.87479 19.9181 12.3321
754 2 11.9104 19.9688 12.1882
755 2 15.8895 19.855 12.0525
756 2 19.6367 19.9066 12.1907
757 2 23.6176 19.7457 12.2855
758 2 27.6834 19.7961 12.1392
759 2 31.7221 19.9458 12.2422
760 2 35.7255 19.8424 12.3572
761 2 39.5012 19.971 12.1541
762 2 43.4956 19.7887 12.1818
763 2 47.6493 19.8328 12.2583
764 2 51.5523 19.7157 12.3649
765 2 55.4988 19.9327 12.2936
766 2 -0.0574187 23.8171 12.1615
767 2 3.91323 24.0145 12.2234
768 2 7.84046 23.9328 12.201
769 2 11.8446 23.8667 12.3751
770 2 15.844 23.9469 12.1311
771 2 19.962 23.83 12.1659
772 2 23.7021 23.7746 12.3777
773 2 27.707 23.6095 11.9549
774 2 31.5801 23.7232 12.1931
775 2 35.4605 23.768 12.2595
776 2 39.6263 23.686 12.2429
777 2 43.3907 23.7701 12.2965
778 2 47.5433 23.8626 12.366
779 2 51.4229 23.7175 12.2093
780 2 55.3825 23.7863 12.1032
781 2 0.059351 27.6226 12.0692
782 2 4.0235 27.6745 12.1904
783 2 7.98936 27.7788 12.1863
784 2 11.9508 27.8704 12.1373
785 2 15.6213 28.0721 12.1662
786 2 19.958 27.8724 12.0345
787 2 23.7974 27.7284 12.0324
788 2 27.7818 27.8444 12.3428
789 2 31.7562 27.6928 12.3961
790 2 35.599 27.5928 12.1903
791 2 39.5178 27.7009 12.1949
792 2 43.5733 27.6529 12.2646
793 2 47.3895 27.7507 12.3363
794 2 51.3018 27.6955 12.0758
795 2 55.4161 27.8228 12.0984
796 2 -0.0755185 31.7817 11.8585
797 2 3.99268 31.6359 12.1678
798 2 8.09432 31.6708 12.2818
799 2 11.871 31.5838 12.2406
800 2 15.9295 31.9424 12.301
801 2 19.8243 31.8981 12.2179
802 2 23.9267 31.6889 12.1394
803 2 27.7476 31.873 11.9545
804 2 31.6649 31.6677 11.8953
805 2 35.6814 31.74 12.2491
806 2 39.6674 31.7328 12.2077
807 2 43.5777 31.6552 12.1434
808 2 47.5442 31.7675 12.3489
809 2 51.5929 31.8588 12.2865
810 2 55.4816 31.5738 12.199
811 2 -0.178694 35.6845 11.9109
812 2 3.81365 35.7479 12.0663
813 2 7.8139 35.7042 12.1063
814 2 11.7468 35.7275 12.1702
815 2 15.77 35.8058 12.1728
816 2 19.8712 35.8076 12.2099
817 2 23.7999 35.8504 12.1283
818 2 27.8912 35.7225 12.0656
819 2 31.7789 35.7753 12.0888
820 2 35.5031 35.8119 12.1556
821 2 39.5208 35.5037 12.1698
822 2 43.5596 35.599 12.216
823 2 47.5961 35.598 12.2268
824 2 51.5454 35.5968 12.312
825 2 55.3341 35.6347 12.1053
826 2 -0.0341357 39.5469 12.2643
827 2 3.86086 39.6858 12.1528
828 2 8.01641 39.7737 12.3932
829 2 11.8982 39.8379 11.9354
830 2 15.886 39.6615 12.3541
831 2 19.7476 39.6468 12.2342
832 2 23.6013 39.7577 11.976
833 2 27.6162 39.7153 11.9084
834 2 31.6078 39.705 12.0544
835 2 35.576 39.6096 12.0725
836 2 39.5553 39.6121 12.0779
837 2 43.5214 39.4423 12.3516
838 2 47.4656 39.6188 12.1054
839 2 51.5111 39.7498 12.2075
840 2 55.1892 39.6686 12.0417
841 2 0.0405237 43.6291 12.4019
842 2 3.98138 43.6519 12.0911
843 2 7.71757 43.5394 12.2031
844 2 11.8598 43.6706 12.3449
845 2 15.712 43.7272 12.0555
846 2 19.6901 43.5312 12.2311
847 2 23.5941 43.7096 12.0758
848 2 27.7026 43.5711 12.1302
849 2 31.4774 43.6286 12.1958
850 2 35.423 43.6167 12.1242
851 2 39.532 43.5078 12.3752
852 2 43.5846 43.4922 12.1237
853 2 47.4023 43.6524 12.0771
854 2 51.27 43.705 12.1407
855 2 55.3001 43.6046 12.2232
856 2 -0.310314 47.6166 12.0827
857 2 3.85711 47.5755 12.2798
858 2 8.08325 47.6187 12.3188
859 2 11.9356 47.535 12.2248
860 2 15.9006 47.5427 12.2201
861 2 19.6966 47.6753 12.1806
862 2 23.7703 47.4871 12.2391
863 2 27.8006 47.7281 12.0345
864 2 31.6927 47.3937 11.9909
865 2 35.7585 47.4095 12.2207
866 2 39.6258 47.4502 12.153
867 2 43.4594 47.5534 12.274
868 2 47.3624 47.6576 12.176
869 2 51.2663 47.5753 12.1023
870 2 55.2122 47.5481 12.0543
871 2 0.00904657 51.4395 12.276
872 2 3.86699 51.4561 12.3184
873 2 7.93131 51.4083 12.3023
874 2 11.9223 51.454 12.3091
875 2 15.8198 51.4734 12.2621
876 2 19.915 51.5427 12.4185
877 2 23.6906 51.4555 12.3092
878 2 27.7693 51.6196 12.1994
879 2 31.6832 51.5314 12.091
880 2 35.6847 51.4729 12.1387
881 2 39.5976 51.5936 12.2277
882 2 43.2926 51.5504 12.1262
883 2 47.3707 51.6144 12.1638
884 2 51.4877 51.6115 11.8445
885 2 55.3088 51.4438 12.3217
886 2 0.0806919 55.3842 12.1103
887 2 4.00293 55.5145 12.1737
888 2 7.85939 55.383 12.2238
889 2 11.8887 55.4617 12.1879
890 2 15.9228 55.5886 12.2646
891 2 19.8306 55.4733 12.0642
892 2 23.6705 55.6311 12.04
893 2 27.849 55.5625 11.9657
894 2 31.6751 55.455 12.0344
895 2 35.7054 55.2219 12.2882
896 2 39.5879 55.5938 12.2379
897 2 43.4802 55.5224 12.0286
898 2 47.409 55.4666 12.3286
899 2 51.2332 55.4341 12.1939
900 2 55.2936 55.4769 12.1068
901 2 59.2383 0.0690858 16.1589
902 2 3.86507 0.0846692 15.9519
903 2 8.06587 0.105631 16.2756
904 2 11.7888 0.109299 16.1114
905 2 15.8623 0.117155 16.1408
906 2 19.8991 0.27773 16.1537
907 2 23.7493 -0.0529747 16.1864
908 2 27.6416 -0.12296 16.1402
909 2 31.7505 -0.0674366 16.2454
910 2 35.5032 0.0416142 16.2586
911 2 39.6179 0.160175 16.2309
912 2 43.4526 -0.0407924 16.0871
913 2 47.5261 0.177383 16.159
914 2 51.421 0.162466 16.0469
915 2 55.4438 -0.00684191 16.1296
916 2 59.2387 4.03162 16.0009
917 2 4.07802 3.99015 16.157
918 2 7.90512 4.01253 16.1746
919 2 11.7398 4.22143 16.1779
920 2 15.8186 3.9538 16.1853
921 2 19.6817 4.04691 16.0752
922 2 23.5292 3.92443 16.2494
923 2 27.6089 4.114 16.0448
924 2 31.5072 4.03057 16.2504
925 2 35.5652 4.16242 16.1471
926 2 39.4335 3.91922 16.1798
927 2 43.5307 3.95813 16.2401
928 2 47.613 4.08967 16.2531
929 2 51.5118 4.00561 16.2486
930 2 55.1174 3.97703 16.1099
931 2 59.5121 8.12141 16.0394
932 2 4.04704 7.87941 16.1869
933 2 7.76566 7.97788 16.2667
934 2 11.7742 8.02198 16.093
935 2 15.5786 7.93112 16.1692
936 2 19.7101 7.89713 16.09
937 2 23.7509 7.8783 16.2532
938 2 27.3874 8.01781 16.1519
939 2 31.4222 7.96775 16.1412
940 2 35.6653 7.87762 16.3591
941 2 39.6219 7.84325 16.089
942 2 43.9709 8.02378 16.029
943 2 47.6861 8.07236 16.3486
944 2 51.5188 8.1951 16.224
945 2 55.4701 8.2819 16.1882
946 2 59.2722 11.8124 16.1734
947 2 4.08467 11.9677 16.1097
948 2 7.99193 11.913 16.2703
949 2 11.9627 12.033 16.2118
950 2 15.9201 11.8942 16.0869
951 2 19.764 11.8863 16.2915
952 2 23.657 11.8855 16.2977
953 2 27.5649 11.9139 16.4707
954 2 31.6746 11.8579 16.0625
955 2 35.5592 11.8831 16.2857
956 2 39.5353 11.8592 16.2429
957 2 43.4125 12.1122 16.194
958 2 47.4299 12.102 16.1422
959 2 51.3502 12.0292 16.2183
960 2 55.4172 12.1379 16.2553
961 2 59.4637 15.8853 16.1909
962 2 3.77938 15.9588 16.1367
963 2 7.89943 15.8318 16.2125
964 2 11.9005 16.0111 16.2113
965 2 15.802 15.8028 16.2065
966 2 19.8039 15.9801 16.1683
967 2 23.6097 15.9328 16.1188
968 2 27.6767 15.6623 16.1523
969 2 31.5916 15.9242 16.284
970 2 35.5307 15.7199 16.1582
971 2 39.4485 15.8001 16.2105
972 2 43.4207 16.0274 16.3665
973 2 47.4452 16.0594 16.2743
974 2 51.4326 15.8429 16.2325
975 2 55.3792 15.6766 16.2551
976 2 59.4172 19.9103 16.177
977 2 4.03175 19.8992 16.2712
978 2 7.78969 19.881 16.2649
979 2 11.9321 20.0901 16.153
980 2 15.9313 19.9048 16.1127
981 2 19.7567 19.8041 16.1576
982 2 23.6849 19.7946 16.2967
983 2 27.6703 19.874 16.1047
984 2 31.415 19.7563 16.1932
985 2 35.6579 19.8377 16.11