ITEM: TIMESTEP
34900
ITEM: NUMBER OF ATOMS
14625
ITEM: BOX BOUNDS xy xz yz pp pp pp
0.0000000000000000e+00 5.9369999999999997e+01 0.0000000000000000e+00
0.0000000000000000e+00 5.9369999999999997e+01 0.0000000000000000e+00
-2.5990597788982939e-02 5.1765990597788772e+01 0.0000000000000000e+00
ITEM: ATOMS id type x y z
1 2 0.100518 0.123859 0.131192
2 2 4.08598 0.225397 0.471067
3 2 7.86789 -0.0282114 0.394259
4 2 11.8235 0.0722111 0.272107
5 2 15.9759 0.0766761 0.312108
6 2 19.8247 -0.135191 0.180962
7 2 23.6606 0.0456574 0.180423
8 2 27.7715 -0.0762065 0.25882
9 2 31.8122 -0.0594968 0.0915592
10 2 35.77 0.093664 0.0953557
11 2 39.712 0.165051 0.0921732
12 2 43.5648 -0.019654 0.239732
13 2 47.4883 -0.0820841 0.185427
14 2 51.4547 0.044923 0.377454
15 2 55.4202 -0.0521869 0.258127
16 2 0.115662 4.17328 0.14343
17 2 4.10391 4.00643 0.27134
18 2 8.00285 4.00532 0.37477
19 2 12.027 4.15164 0.237107
20 2 15.8414 4.08305 0.376219
21 2 19.8366 4.09652 0.407367
22 2 23.7999 3.69627 0.179825
23 2 27.9284 3.73372 0.26524
24 2 31.5586 4.01431 0.0687137
25 2 35.6233 4.00326 0.166807
26 2 39.5449 4.13093 0.0738503
27 2 43.6336 3.94756 0.329562
28 2 47.5505 3.86149 0.172409
29 2 51.6489 3.99139 0.274244
30 2 55.3208 3.89626 0.394613
31 2 0.0922242 8.08797 0.283244
32 2 3.93888 7.9815 0.26264
33 2 7.83135 7.82044 0.297632
34 2 11.7192 7.90874 0.349692
35 2 15.8887 7.93997 0.343852
36 2 19.97 7.94951 0.242842
37 2 23.8498 7.66171 0.182608
38 2 27.8918 8.03054 0.249421
39 2 31.7553 7.85542 0.158837
40 2 35.5608 8.00025 0.235098
41 2 39.4786 7.90566 0.352323
42 2 43.5526 7.91103 0.295842
43 2 47.4998 7.9256 0.26874
44 2 51.4702 7.93725 0.376487
45 2 55.33 7.83905 0.203335
46 2 -0.0315575 11.823 0.0535508
47 2 3.94938 11.9099 0.224343
48 2 8.00626 11.9547 0.295098
49 2 11.8336 11.8992 0.188248
50 2 15.9003 11.873 0.381297
51 2 19.7785 11.8639 0.0945983
52 2 23.8535 11.6165 0.154456
53 2 27.706 11.8239 0.259792
54 2 31.6583 11.9459 0.263232
55 2 35.6366 11.9766 0.102787
56 2 39.7482 12.0156 0.322505
57 2 43.6365 11.9135 0.201587
58 2 47.388 12.0003 0.309371
59 2 51.4988 11.9052 0.456928
60 2 55.4666 11.8681 0.464956
61 2 0.138468 15.8797 0.126342
62 2 4.01367 15.7781 0.273519
63 2 7.97543 15.9002 0.247248
64 2 11.9347 15.685 0.374406
65 2 16.003 15.7904 0.185794
66 2 19.9511 15.9758 0.226734
67 2 24.0317 15.8139 0.322007
68 2 28.0278 15.7336 0.287227
69 2 31.6868 16.0456 0.0723263
70 2 35.4849 15.8381 0.0704266
71 2 39.6155 16.0084 0.0434398
72 2 43.5421 16.1603 0.180991
73 2 47.4218 15.7295 0.280077
74 2 51.5368 15.88 0.383035
75 2 55.4988 15.5904 0.406715
76 2 0.198267 19.8879 0.360062
77 2 4.05015 19.8474 0.269918
78 2 7.95125 19.9121 0.209237
79 2 11.8954 19.5278 0.247213
80 2 16.0442 19.7152 0.137114
81 2 20.0481 19.758 0.147075
82 2 23.7357 19.7877 0.256237
83 2 27.6428 19.768 0.195164
84 2 31.7481 19.8658 0.340712
85 2 35.7089 19.8365 0.226715
86 2 39.6917 19.8451 0.254184
87 2 43.5242 20.0435 0.340779
88 2 47.3544 19.8525 0.331765
89 2 51.3547 19.7086 0.295023
90 2 55.5134 19.8982 0.284193
91 2 -0.100441 23.732 0.271699
92 2 4.11132 23.782 0.1856
93 2 8.14424 23.7514 0.237071
94 2 12.0928 23.5614 0.0760259
95 2 15.9895 23.807 0.175587
96 2 19.9816 23.7187 0.355811
97 2 23.9536 23.7611 0.130746
98 2 27.8024 23.8106 0.288427
99 2 31.7189 23.789 0.304686
100 2 35.5976 23.5533 0.223073
101 2 39.7029 23.6514 0.197371
102 2 43.805 23.8079 0.345423
103 2 47.7444 23.8036 0.183694
104 2 51.4309 23.6809 0.231982
105 2 55.3621 23.8431 0.231935
106 2 0.355684 27.7162 0.243697
107 2 4.16154 27.6635 0.172758
108 2 8.045 27.7504 0.00776004
109 2 11.9742 27.4902 0.249591
110 2 16.0452 27.6922 0.181452
111 2 19.839 27.5571 0.391477
112 2 24.1131 27.6557 0.242135
113 2 28.0414 27.7792 0.355955
114 2 31.7148 27.6504 0.27985
115 2 35.6826 27.4291 0.280505
116 2 39.7518 27.5875 0.348328
117 2 43.6034 27.4741 0.143192
118 2 47.6156 27.7904 0.19871
119 2 51.5762 27.7772 0.246586
120 2 55.5506 27.7308 0.330731
121 2 0.151008 31.7119 0.199637
122 2 4.17632 31.7134 0.173066
123 2 8.01843 31.6463 0.11664
124 2 12.0314 31.48 0.328124
125 2 16.089 31.6364 0.178857
126 2 20.1493 31.606 0.328991
127 2 24.0386 31.5485 0.111778
128 2 27.8882 31.6415 0.0298263
129 2 31.9344 31.7153 0.231867
130 2 35.7946 31.7303 0.249879
131 2 39.8874 31.6288 0.360854
132 2 43.5966 31.6625 0.244946
133 2 47.5441 31.6038 0.160688
134 2 51.6841 31.7873 0.136444
135 2 55.4696 31.6115 0.262663
136 2 0.186378 35.6425 0.193402
137 2 3.92599 35.6746 0.225686
138 2 8.06695 35.6011 0.227802
139 2 12.0723 35.6728 0.085218
140 2 16.0511 35.3951 0.185463
141 2 19.7854 35.6046 0.190372
142 2 24.0566 35.4514 0.251005
143 2 27.8009 35.6018 0.348767
144 2 31.8287 35.5819 0.191648
145 2 35.7696 35.6647 0.209653
146 2 39.6093 35.6031 0.0499368
147 2 43.7141 35.3962 0.0351719
148 2 47.5294 35.5307 0.196063
149 2 51.6115 35.5334 0.095163
150 2 55.5427 35.6253 0.349759
151 2 0.00353047 39.6564 0.257843
152 2 4.14917 39.5296 0.221848
153 2 8.01634 39.4658 0.238061
154 2 12.0765 39.6583 0.171136
155 2 16.0301 39.6874 0.151237
156 2 19.9911 39.81 0.15682
157 2 23.8597 39.6112 0.287053
158 2 27.7989 39.651 0.309731
159 2 31.8212 39.7474 0.224343
160 2 35.8839 39.5656 0.360164
161 2 39.8491 39.6392 0.186041
162 2 43.664 39.6007 0.287033
163 2 47.7674 39.5651 0.410586
164 2 51.5414 39.4542 0.198373
165 2 55.4062 39.3887 0.235471
166 2 -0.016575 43.5614 0.0808789
167 2 3.90525 43.596 0.289189
168 2 8.17855 43.5056 0.246932
169 2 11.985 43.5742 0.346226
170 2 15.8859 43.6607 0.240716
171 2 19.6731 43.5086 0.275498
172 2 23.7398 43.4901 0.175553
173 2 27.9751 43.7822 0.193591
174 2 31.9041 43.6767 0.181634
175 2 35.8966 43.5167 0.10484
176 2 39.634 43.5835 0.492046
177 2 43.8315 43.5328 0.256466
178 2 47.6661 43.4521 0.251642
179 2 51.7434 43.6194 0.0768229
180 2 55.4774 43.5437 0.121933
181 2 0.171454 47.5171 0.147777
182 2 4.01277 47.4326 0.403147
183 2 8.05659 47.4911 0.255512
184 2 11.8553 47.5955 0.410671
185 2 15.8807 47.5553 0.347944
186 2 19.9531 47.469 0.31919
187 2 23.9776 47.6059 0.13457
188 2 27.7995 47.732 0.260635
189 2 31.8039 47.5397 0.0869346
190 2 35.7524 47.427 0.228113
191 2 39.7797 47.5778 0.331285
192 2 43.8077 47.4508 0.224632
193 2 47.6547 47.4664 0.401092
194 2 51.4668 47.4795 0.255287
195 2 55.5929 47.6621 0.284929
196 2 -0.177397 51.5306 0.213027
197 2 3.8137 51.5901 0.176031
198 2 7.74049 51.5259 0.163708
199 2 11.97 51.5283 0.187576
200 2 15.7413 51.593 0.236477
201 2 19.8648 51.2598 0.237906
202 2 23.9462 51.4824 0.198266
203 2 27.9133 51.581 0.231369
204 2 31.661 51.503 0.236353
205 2 35.7921 51.4933 0.111082
206 2 39.8092 51.3752 0.204253
207 2 43.7996 51.5028 0.199811
208 2 47.6928 51.358 0.155949
209 2 51.5549 51.2524 0.316896
210 2 55.3412 51.3706 0.0460967
211 2 -0.0126378 55.2822 0.451488
212 2 3.66797 55.2716 0.286373
213 2 7.99424 55.4415 0.390981
214 2 11.9218 55.5629 0.376881
215 2 15.941 55.4352 0.352046
216 2 19.6335 55.4255 0.0685298
217 2 23.6296 55.3826 0.247998
218 2 27.6853 55.521 0.122119
219 2 31.857 55.2453 0.136628
220 2 35.8269 55.4569 0.0920705
221 2 39.6896 55.3849 0.172326
222 2 43.7253 55.3705 0.407365
223 2 47.7351 55.427 0.144841
224 2 51.7389 55.3369 0.24534
225 2 55.6622 55.3243 0.267007
226 2 0.0970927 0.0687195 4.27468
227 2 4.01318 0.0376298 4.2639
228 2 8.09681 0.182989 4.18265
229 2 11.9022 0.27466 4.19921
230 2 15.7754 -0.0555116 4.2038
231 2 19.8205 -0.146275 4.05957
232 2 23.8101 0.0639825 4.28061
233 2 27.8175 -0.0826476 4.26532
234 2 31.6869 0.0303114 4.25405
235 2 35.7581 0.0587249 4.05651
236 2 39.6896 0.0204483 4.1819
237 2 43.6375 -0.0252101 4.28756
238 2 47.5909 0.0584218 4.17246
239 2 51.6401 -0.0544593 4.29594
240 2 55.4901 0.144735 4.26779
241 2 -0.207729 4.01091 4.15516
242 2 3.82005 3.99182 4.29528
243 2 8.21913 4.00902 4.33375
244 2 11.9752 4.15126 4.30704
245 2 15.9358 3.88118 4.36521
246 2 19.7841 4.24284 4.28052
247 2 23.936 4.03634 4.31209
248 2 27.8584 4.0636 4.02917
249 2 31.8927 3.94705 4.35185
250 2 35.8061 4.1072 4.17585
251 2 39.7122 4.02389 4.11072
252 2 43.5625 3.81907 4.02524
253 2 47.5984 3.95564 4.39995
254 2 51.5966 3.93285 4.31138
255 2 55.498 4.0124 4.28602
256 2 0.116535 7.95186 4.2612
257 2 4.01706 8.01297 4.32997
258 2 7.88916 7.95334 4.32072
259 2 11.9019 7.91057 4.31783
260 2 16.0734 7.81155 4.45137
261 2 20.1669 8.1335 4.30414
262 2 23.9781 7.77414 4.22521
263 2 27.8055 7.89528 4.21946
264 2 31.898 7.89127 4.16129
265 2 35.8397 8.04406 4.26115
266 2 39.7288 7.87209 4.33
267 2 43.7085 7.82752 4.18824
268 2 47.5382 7.96788 4.17939
269 2 51.3824 8.02014 4.16571
270 2 55.5608 8.06767 4.30836
271 2 0.0507126 11.9471 4.11986
272 2 4.11724 11.9193 4.19288
273 2 8.10089 11.888 4.29966
274 2 11.9209 11.8478 4.17104
275 2 15.8836 11.8544 4.22337
276 2 19.8959 11.8444 4.33098
277 2 23.9428 11.8107 4.1743
278 2 28.0312 11.9187 3.98878
279 2 31.7514 11.9849 4.31465
280 2 35.8721 12.0237 4.14621
281 2 39.7351 11.8169 4.2908
282 2 43.5657 11.6939 4.29746
283 2 47.4583 11.8886 4.25568
284 2 51.6438 11.9537 4.29198
285 2 55.5454 11.8949 4.4089
286 2 0.00910401 15.9174 4.24187
287 2 3.94533 15.7544 4.14498
288 2 8.01825 15.9066 4.25801
289 2 11.8936 16.1264 4.07642
290 2 15.9644 15.7484 4.23808
291 2 20.1391 15.4747 4.04068
292 2 23.7608 15.8035 4.1885
293 2 27.9429 15.7414 4.22876
294 2 31.9292 15.9595 4.24092
295 2 35.8551 16.0432 4.09758
296 2 39.5652 15.8946 4.14963
297 2 43.6681 15.954 4.23623
298 2 47.4513 15.8972 4.43914
299 2 51.4991 15.8606 4.27524
300 2 55.5092 15.7241 4.35249
301 2 0.15943 19.6919 4.0412
302 2 4.20318 19.8671 4.252
303 2 7.8758 19.8185 4.38315
304 2 12.0276 19.8694 4.26208
305 2 15.9716 19.7132 4.2744
306 2 19.7386 19.5923 4.20915
307 2 23.849 19.8996 4.27538
308 2 27.8556 19.7011 4.25378
309 2 31.7975 20.0144 4.32941
310 2 35.7588 19.905 4.11259
311 2 39.5473 19.7385 4.23283
312 2 43.4091 19.9933 4.29631
313 2 47.8259 19.6828 4.26627
314 2 51.6432 19.9157 4.19125
315 2 55.4082 19.8172 4.01245
316 2 0.0975566 23.7748 4.35066
317 2 4.05438 23.7191 4.21689
318 2 8.05806 23.9561 4.22435
319 2 11.9017 23.7565 4.26161
320 2 15.825 23.5993 4.06065
321 2 19.9295 23.7834 4.25171
322 2 24.0001 23.7612 4.33475
323 2 27.8938 23.7311 4.32024
324 2 31.8188 23.688 4.2678
325 2 35.8344 23.7094 4.35311
326 2 39.7751 23.6785 4.17822
327 2 43.6333 23.8955 4.39021
328 2 47.6638 23.8177 4.23566
329 2 51.6073 23.7752 4.19894
330 2 55.7186 23.6872 4.26774
331 2 0.247354 27.7321 4.20165
332 2 4.04694 27.6955 4.33943
333 2 8.02651 27.7473 4.35265
334 2 12.0861 27.815 4.21195
335 2 16.0202 27.6855 4.07656
336 2 20.1116 27.6029 4.21363
337 2 23.8154 27.8267 4.25272
338 2 27.8835 27.896 4.10533
339 2 31.6252 27.9019 4.3083
340 2 35.8253 27.7104 4.28622
341 2 39.5947 27.9479 4.22765
342 2 43.5889 27.7833 4.11624
343 2 47.7787 27.6346 4.32373
344 2 51.5032 27.7804 4.2841
345 2 55.4676 27.6472 4.16538
346 2 0.145793 31.4301 4.12938
347 2 4.0529 31.7634 4.28176
348 2 8.03965 31.638 4.29633
349 2 12.0604 31.7915 4.11007
350 2 15.9495 31.6847 4.36151
351 2 20.0609 31.7642 4.18062
352 2 23.8794 31.6575 4.14907
353 2 27.6721 31.9 4.25373
354 2 31.7873 31.8086 4.41061
355 2 35.7097 31.7878 4.09577
356 2 39.6805 31.689 4.26453
357 2 43.7145 31.7251 4.19756
358 2 47.7353 31.5128 4.29296
359 2 51.5345 31.8099 4.35853
360 2 55.5999 31.756 4.24641
361 2 0.29303 35.4741 4.242
362 2 4.27658 35.7404 4.13064
363 2 8.16415 35.5349 4.25245
364 2 11.9739 35.9232 3.99771
365 2 15.94 35.8301 4.24789
366 2 19.9815 35.7584 4.13094
367 2 23.8764 35.7753 4.18163
368 2 27.7197 35.8326 4.17647
369 2 31.5914 35.8443 4.26691
370 2 35.801 35.7429 4.30103
371 2 39.73 35.5073 4.29771
372 2 43.7581 35.7406 4.14112
373 2 47.7088 35.7751 4.17825
374 2 51.5904 35.7469 4.19604
375 2 55.7885 35.5805 4.38863
376 2 0.03067 39.4704 4.32675
377 2 4.0309 39.6803 4.18112
378 2 7.93296 39.6474 4.20672
379 2 11.9624 39.5977 4.06244
380 2 15.9153 39.6936 4.25296
381 2 19.8096 39.7707 4.01521
382 2 23.7485 39.6039 4.20057
383 2 27.9218 39.8271 4.23349
384 2 31.8761 39.5766 4.34475
385 2 35.8423 39.5484 4.18795
386 2 39.8396 39.4616 3.99244
387 2 43.5705 39.643 4.32085
388 2 47.3516 39.8234 4.1956
389 2 51.6475 39.5558 4.33213
390 2 55.681 39.6051 4.26365
391 2 0.16064 43.6114 4.39879
392 2 3.91204 43.6474 4.33805
393 2 7.96324 43.5699 4.07812
394 2 12.0364 43.437 4.31786
395 2 15.9457 43.7199 4.24672
396 2 19.9304 43.7779 4.09967
397 2 23.9455 43.5917 4.29118
398 2 27.8749 43.5719 3.90499
399 2 31.7173 43.775 4.07096
400 2 35.7629 43.4264 4.04643
401 2 39.5779 43.4956 4.30023
402 2 43.6526 43.45 4.28102
403 2 47.833 43.4665 4.11669
404 2 51.6241 43.5507 4.3309
405 2 55.7001 43.6666 3.9941
406 2 0.113895 47.7703 4.30924
407 2 4.1471 47.5546 4.26377
408 2 7.93864 47.673 4.20001
409 2 11.9028 47.6114 4.28917
410 2 15.8003 47.6595 4.30019
411 2 20.0892 47.7135 4.24339
412 2 24.0303 47.6221 4.22228
413 2 27.8206 47.4906 4.09238
414 2 31.7275 47.6142 4.24604
415 2 35.6062 47.6252 4.24145
416 2 39.849 47.5774 4.29294
417 2 43.8568 47.4159 4.22575
418 2 47.5694 47.3153 4.29079
419 2 51.6481 47.5578 4.29543
420 2 55.4821 47.4447 4.17492
421 2 -0.031879 51.4814 4.44242
422 2 3.92189 51.5048 4.37396
423 2 7.99263 51.6055 4.16956
424 2 11.9047 51.5322 4.13786
425 2 15.8673 51.5618 4.28202
426 2 19.9534 51.5201 4.13195
427 2 23.8731 51.4926 4.28944
428 2 27.9156 51.3769 4.21815
429 2 31.7968 51.571 4.2528
430 2 35.6574 51.3328 4.24431
431 2 39.7004 51.5831 4.39534
432 2 43.7391 51.5195 4.37179
433 2 47.5972 51.2774 4.37318
434 2 51.4132 51.5501 4.09367
435 2 55.5514 51.3253 4.31913
436 2 -0.134775 55.5119 4.21264
437 2 3.93122 55.5414 4.21429
438 2 7.75602 55.5706 4.27354
439 2 11.901 55.5171 4.14766
440 2 15.7245 55.5563 4.18194
441 2 19.5619 55.3351 4.38235
442 2 23.7484 55.1899 4.21968
443 2 27.9759 55.435 4.13199
444 2 31.7716 55.3183 4.32183
445 2 35.8818 55.4282 4.08055
446 2 39.7106 55.4184 4.27395
447 2 43.5595 55.5284 4.10634
448 2 47.5065 55.6461 4.3704
449 2 51.6195 55.3901 4.14538
450 2 55.3629 55.6004 4.30513
451 2 0.131103 0.133445 8.06083
452 2 3.98034 0.173346 8.2159
453 2 7.87804 -0.120381 8.15059
454 2 11.9887 0.244195 8.28806
455 2 15.7621 0.00361506 8.24638
456 2 19.8723 -0.0828489 8.22914
457 2 23.7473 0.065017 8.08795
458 2 27.7812 -0.169256 8.02133
459 2 31.7144 -0.150882 8.18644
460 2 35.4005 -0.0188449 8.24589
461 2 39.3944 0.134236 8.19702
462 2 43.4518 -0.136124 8.15991
463 2 47.5612 -0.0582056 8.32867
464 2 51.5526 0.130945 8.28326
465 2 55.3862 0.104098 8.44009
466 2 0.0810044 3.9539 8.1847
467 2 4.03092 4.03872 8.30537
468 2 8.00908 3.91702 8.25228
469 2 11.8595 4.07847 8.20001
470 2 15.9449 3.94567 8.32139
471 2 19.8962 3.79271 8.3482
472 2 23.8698 4.02095 8.1556
473 2 27.7341 3.88012 8.14549
474 2 31.7954 4.01479 8.25008
475 2 35.6299 4.09454 8.20609
476 2 39.6811 3.88541 8.10897
477 2 43.6315 3.98696 8.24642
478 2 47.5 3.78155 8.15113
479 2 51.2712 3.97524 8.22208
480 2 55.5392 4.0951 8.27071
481 2 -0.0144916 8.04908 8.19141
482 2 4.00858 8.02798 8.2128
483 2 7.92458 8.00106 8.22543
484 2 12.0668 7.93903 8.30518
485 2 15.7691 7.77129 8.18867
486 2 19.7906 7.96589 8.19999
487 2 23.6582 7.92489 8.3078
488 2 27.8727 7.90067 8.3161
489 2 31.777 8.13061 8.31406
490 2 35.6701 7.94289 8.29076
491 2 39.5457 7.95802 8.34877
492 2 43.7926 7.73113 8.40163
493 2 47.406 7.76736 8.29538
494 2 51.4246 7.99583 8.22065
495 2 55.4971 8.13057 8.26245
496 2 0.139793 12.0609 8.47455
497 2 4.15713 12.0246 8.1222
498 2 8.06373 11.9086 8.35742
499 2 12.1125 11.8686 8.12903
500 2 15.8875 11.7575 8.28093
501 2 19.7248 11.757 8.2966
502 2 23.7181 11.8301 8.07486
503 2 27.7235 11.9393 8.17384
504 2 31.696 12.0299 8.01556
505 2 35.5848 12.1643 8.15315
506 2 39.6369 11.7744 8.14214
507 2 43.5452 11.8791 8.25312
508 2 47.6099 11.79 8.13292
509 2 51.2049 11.8113 8.26757
510 2 55.3626 11.8376 8.32559
511 2 -0.0643161 15.9159 8.1757
512 2 3.99573 15.7745 8.1516
513 2 7.88908 16.0207 8.33741
514 2 11.8804 16.06 8.14266
515 2 15.7536 15.7757 8.14581
516 2 19.9025 15.8399 8.34514
517 2 23.8926 15.9473 7.99368
518 2 27.8815 15.8446 8.18862
519 2 31.7413 15.9993 8.14841
520 2 35.6713 15.7403 8.12513
521 2 39.7396 15.919 8.0444
522 2 43.6617 15.8441 8.29059
523 2 47.7163 15.8157 8.30614
524 2 51.7615 15.7411 8.20592
525 2 55.3708 15.7614 8.28377
526 2 0.178364 19.8032 8.05088
527 2 4.1489 19.9233 8.38135
528 2 7.95434 20.0825 8.09664
529 2 11.9964 19.8828 8.21014
530 2 15.8016 19.688 8.13204
531 2 19.7438 19.8192 8.2158
532 2 23.7939 19.7151 8.1686
533 2 27.9218 19.789 8.32407
534 2 31.7821 19.8515 8.32772
535 2 35.7592 19.791 8.35079
536 2 39.5594 19.8226 8.2534
537 2 43.6851 19.9795 8.28988
538 2 47.5095 19.9935 8.30232
539 2 51.5074 19.7241 8.22091
540 2 55.4254 20.067 8.13592
541 2 -0.0346413 23.8151 8.24995
542 2 3.82947 23.8612 8.26096
543 2 7.86943 23.9821 8.0604
544 2 11.9311 23.8541 8.19681
545 2 15.7669 23.767 8.28588
546 2 19.7649 23.8147 8.11093
547 2 24.0255 23.8518 8.05464
548 2 27.7821 23.9018 8.04814
549 2 31.733 23.8398 8.24024
550 2 35.7056 23.8631 8.19761
551 2 39.751 23.8172 8.34354
552 2 43.8075 23.6908 8.18276
553 2 47.6596 23.8455 8.22868
554 2 51.4326 23.7018 8.44928
555 2 55.5891 23.7859 8.28206
556 2 0.171168 27.8527 8.20071
557 2 4.02822 27.7832 8.21305
558 2 8.02844 27.904 8.14521
559 2 11.9945 27.6202 8.12925
560 2 15.8635 27.8193 8.27097
561 2 19.6609 27.8144 8.18691
562 2 23.7487 27.7717 8.30791
563 2 27.7236 27.7121 8.41531
564 2 31.5055 27.9555 8.07135
565 2 35.6169 27.8544 8.31691
566 2 39.5534 27.7466 8.22394
567 2 43.6024 27.694 8.26761
568 2 47.4144 27.827 8.25549
569 2 51.8075 27.7226 8.24294
570 2 55.5315 27.8478 8.22466
571 2 0.0884892 31.6875 8.28171
572 2 4.12781 31.7218 8.23578
573 2 8.14082 31.7098 8.35006
574 2 12.067 31.7968 7.90028
575 2 15.7939 31.8992 8.24222
576 2 19.6408 31.9039 8.21315
577 2 23.6151 31.8648 8.27372
578 2 27.4803 31.9598 8.29812
579 2 31.6024 31.6423 8.07229
580 2 35.5943 31.7849 8.35796
581 2 39.569 31.7213 8.18449
582 2 43.5326 31.7406 8.05193
583 2 47.492 31.7634 8.22159
584 2 51.5135 31.4907 8.14696
585 2 55.4318 31.6392 8.32547
586 2 0.163298 35.7161 8.2515
587 2 4.04203 35.7559 8.25149
588 2 8.1231 35.7022 8.19421
589 2 11.9609 35.6704 8.24561
590 2 15.901 35.8962 8.19077
591 2 19.9022 35.7601 8.28003
592 2 23.7007 35.886 8.1348
593 2 27.7905 35.7416 8.20387
594 2 31.6991 35.6179 8.18246
595 2 35.5787 35.6052 8.23717
596 2 39.6772 35.5525 8.13901
597 2 43.7737 35.4632 8.16073
598 2 47.6499 35.5783 8.26571
599 2 51.6187 35.9238 8.12037
600 2 55.5827 35.4595 8.41436
601 2 -0.0351857 39.7741 8.21349
602 2 4.2353 39.5695 8.18444
603 2 8.13256 39.5875 8.03712
604 2 11.9051 39.6256 8.30184
605 2 15.891 39.8272 8.25288
606 2 19.93 39.8217 8.05536
607 2 24.0033 39.7391 8.20179
608 2 27.9104 39.518 8.1634
609 2 31.7657 39.6112 8.38583
610 2 35.7694 39.5217 8.2518
611 2 39.635 39.4895 8.31987
612 2 43.4651 39.8248 8.29619
613 2 47.6359 39.6893 8.28917
614 2 51.8267 39.5088 8.22612
615 2 55.5426 39.6321 8.23389
616 2 -0.0286993 43.4114 8.20747
617 2 3.95918 43.6331 8.035
618 2 8.01083 43.5747 8.08263
619 2 11.9496 43.8653 8.27889
620 2 16.0702 43.7504 8.12589
621 2 19.8376 43.7156 8.1735
622 2 23.8185 43.6405 8.27921
623 2 27.8086 43.486 8.11782
624 2 31.8353 43.3588 8.23125
625 2 35.7156 43.6635 8.13211
626 2 39.576 43.5543 8.15699
627 2 43.376 43.6919 8.22905
628 2 47.8031 43.5194 8.31671
629 2 51.5744 43.3908 8.26257
630 2 55.6207 43.4789 8.32513
631 2 -0.0804865 47.3576 8.31364
632 2 4.08858 47.6037 8.31641
633 2 7.95381 47.623 8.19905
634 2 11.6972 47.4711 8.22342
635 2 15.6377 47.7325 8.22662
636 2 19.7797 47.5957 8.31961
637 2 23.9858 47.6794 8.36694
638 2 27.6954 47.5738 8.22269
639 2 31.6862 47.5254 8.22621
640 2 35.6084 47.6254 8.29419
641 2 39.6802 47.4939 7.9947
642 2 43.5213 47.5461 8.19008
643 2 47.4118 47.5215 8.318
644 2 51.5521 47.5268 8.1977
645 2 55.5046 47.433 8.14383
646 2 -0.118653 51.4859 8.15345
647 2 3.92706 51.3847 8.28066
648 2 7.8298 51.5597 8.34145
649 2 11.821 51.5626 8.13551
650 2 15.8101 51.4492 8.20435
651 2 19.7475 51.6107 8.20723
652 2 23.8498 51.5928 8.28566
653 2 27.7196 51.6699 8.21789
654 2 31.435 51.4746 8.28117
655 2 35.5785 51.5509 8.3169
656 2 39.5432 51.4914 8.25371
657 2 43.5935 51.4044 8.23601
658 2 47.7964 51.5624 8.18962
659 2 51.5596 51.309 8.12472
660 2 55.3876 51.4574 8.31218
661 2 -0.197286 55.4342 8.17859
662 2 3.98143 55.5284 8.04359
663 2 7.87286 55.4659 8.23952
664 2 11.6921 55.7246 8.10468
665 2 15.7111 55.4387 8.13681
666 2 19.8024 55.4298 8.23749
667 2 23.7449 55.4031 8.18876
668 2 27.5637 55.3931 8.22961
669 2 31.6794 55.5113 8.22851
670 2 35.6233 55.381 8.21167
671 2 39.4258 55.3934 8.14306
672 2 43.5303 55.4209 8.10355
673 2 47.5022 55.4348 8.14011
674 2 51.4618 55.4351 8.27879
675 2 55.5774 55.4731 8.13213
676 2 -0.0493998 0.253769 12.1118
677 2 3.92745 0.0384535 12.3748
678 2 7.91601 0.0993553 12.0866
679 2 11.7387 0.161845 12.188
680 2 15.6512 -0.121996 12.0649
681 2 19.6794 -0.133815 12.3343
682 2 23.6825 -0.0244348 12.3443
683 2 27.7175 0.192985 12.2819
684 2 31.7083 -0.0613179 12.1833
685 2 35.6884 0.100413 12.1582
686 2 39.4443 0.0992738 12.2346
687 2 43.5202 0.0889221 12.1456
688 2 47.4127 0.0424101 12.0303
689 2 51.3614 -0.0675511 12.0755
690 2 55.3324 0.131458 12.1077
691 2 -0.0493475 4.03217 12.2439
692 2 3.86266 4.10203 12.1248
693 2 8.02554 4.02506 12.325
694 2 11.8886 3.96108 12.2843
695 2 15.6919 3.98719 12.3378
696 2 19.7523 4.11222 12.2067
697 2 23.7028 4.10792 12.0235
698 2 27.6649 3.92561 12.258
699 2 31.6711 4.07607 12.2918
700 2 35.6769 4.02188 12.1785
701 2 39.4136 3.78985 12.0975
702 2 43.6308 3.98022 12.2722
703 2 47.4767 3.6786 12.0529
704 2 51.4258 4.1311 12.1619
705 2 55.6073 3.9749 12.3357
706 2 0.0625704 8.1058 12.1798
707 2 4.11143 7.9733 12.0868
708 2 7.8847 8.05711 12.257
709 2 11.8945 7.9805 12.2584
710 2 15.7912 8.00162 12.3137
711 2 19.8176 7.90789 12.2778
712 2 23.9658 8.10998 12.2993
713 2 27.6683 7.77919 12.1619
714 2 31.8824 8.15307 12.2408
715 2 35.6408 8.11415 12.198
716 2 39.8842 8.01495 12.3312
717 2 43.4686 7.93702 12.1775
718 2 47.6375 7.78995 12.1766
719 2 51.6069 7.84278 12.1812
720 2 55.3509 7.77742 12.1921
721 2 -0.0924049 11.8824 12.3657
722 2 3.88777 12.0515 12.1975
723 2 7.94986 11.976 12.0907
724 2 11.8537 12.0897 12.2239
725 2 15.7781 11.8299 12.2634
726 2 19.7858 11.8733 12.1964
727 2 23.7549 12.0169 12.07
728 2 27.4115 11.9859 12.1171
729 2 31.6922 11.925 12.2504
730 2 35.5929 12.1425 12.1022
731 2 39.5643 12.1355 12.0011
732 2 43.5349 11.9434 12.1386
733 2 47.5978 11.947 12.1748
734 2 51.4474 11.8054 12.2372
735 2 55.3285 11.8599 12.3377
736 2 -0.00420378 15.9644 12.1803
737 2 4.06156 15.8887 12.3793
738 2 7.99619 16.0443 12.0728
739 2 11.8116 15.9835 12.2541
740 2 15.781 15.9407 12.0966
741 2 19.6419 15.5625 12.1778
742 2 23.719 16.0115 12.1231
743 2 27.6605 15.9366 12.1522
744 2 31.5736 15.8261 12.2378
745 2 35.6501 15.9773 12.1035
746 2 39.7777 15.9154 12.1568
747 2 43.6327 15.8574 12.3003
748 2 47.3468 15.8654 12.2474
749 2 51.5786 15.9138 12.0834
750 2 55.3418 15.9826 12.0999
751 2 0.0775822 19.7676 12.1248
752 2 4.15137 20.1288 11.8925
753 2 7.85179 19.9774 12.144
754 2 11.8314 20.0011 12.1015
755 2 15.9531 19.6513 12.1688
756 2 19.6497 19.8544 12.0762
757 2 23.7267 19.859 12.1298
758 2 27.6772 19.942 12.0741
759 2 31.8758 19.9595 12.2353
760 2 35.7999 19.8662 12.2594
761 2 39.6717 19.9501 12.2244
762 2 43.5024 19.8086 12.2969
763 2 47.7426 19.9113 12.2168
764 2 51.5857 19.7971 12.2778
765 2 55.6413 19.8235 12.2088
766 2 0.179936 23.7313 12.2151
767 2 3.96809 23.8382 12.396
768 2 8.03928 23.8658 12.2918
769 2 11.7674 23.6425 12.1471
770 2 15.8547 23.8469 12.2612
771 2 19.9217 23.9033 12.197
772 2 23.8082 23.6959 12.0967
773 2 27.7363 23.789 11.9925
774 2 31.678 23.7919 12.167
775 2 35.4449 23.8963 12.1357
776 2 39.7067 23.8372 12.2228
777 2 43.577 23.7348 12.2142
778 2 47.5702 23.8798 12.2385
779 2 51.3893 23.8992 12.2649
780 2 55.4443 23.7823 12.1693
781 2 0.0686237 27.7247 12.1562
782 2 3.98852 27.8232 12.3576
783 2 8.11921 27.7916 12.0032
784 2 12.0153 27.631 12.1768
785 2 15.7738 27.8077 12.1744
786 2 19.7734 27.6811 12.0792
787 2 23.6562 27.8924 12.1116
788 2 27.5553 27.7623 12.3391
789 2 31.6725 27.5594 12.3991
790 2 35.6812 27.8262 12.2223
791 2 39.5494 27.8551 12.1778
792 2 43.5893 27.6887 12.0654
793 2 47.6217 27.847 12.3319
794 2 51.2629 27.6348 12.1583
795 2 55.4968 27.7713 12.2313
796 2 -0.069815 31.8223 12.2284
797 2 4.15147 31.576 12.2794
798 2 7.84583 31.756 12.2481
799 2 11.9538 31.7331 12.1715
800 2 15.8714 31.8398 12.2341
801 2 19.8068 31.7932 12.3315
802 2 23.715 31.7236 12.227
803 2 27.5022 31.913 12.124
804 2 31.4638 31.7544 12.1549
805 2 35.6595 31.6721 12.2024
806 2 39.605 31.717 12.2405
807 2 43.5261 31.8549 12.1149
808 2 47.6743 31.7074 12.2537
809 2 51.6821 31.811 12.3821
810 2 55.5447 31.4784 12.2891
811 2 -0.0899418 35.7883 12.0766
812 2 4.03536 35.6793 12.2152
813 2 7.75879 35.7328 12.3252
814 2 11.7327 35.5751 12.2543
815 2 15.8462 35.9553 12.2129
816 2 19.7855 35.6951 12.085
817 2 23.9406 35.6695 12.0495
818 2 27.9911 35.6791 12.3537
819 2 31.669 35.7058 12.2675
820 2 35.4559 35.7242 12.2688
821 2 39.529 35.5537 12.1914
822 2 43.6434 35.8639 12.2324
823 2 47.4784 35.8677 12.2135
824 2 51.4983 35.5356 12.3697
825 2 55.3828 35.3899 12.1255
826 2 0.167164 39.516 12.3211
827 2 3.83154 39.5617 12.0764
828 2 7.85457 39.7795 12.3661
829 2 11.8039 39.8109 12.089
830 2 15.8893 39.7438 12.3085
831 2 19.8699 39.5965 11.9822
832 2 23.6885 39.5141 12.1884
833 2 27.8206 39.6732 12.2294
834 2 31.7843 39.6803 12.1952
835 2 35.65 39.5584 12.0609
836 2 39.6143 39.4981 12.159
837 2 43.4908 39.514 12.2467
838 2 47.342 39.619 11.9726
839 2 51.6028 39.4751 12.2513
840 2 55.3609 39.474 12.1821
841 2 0.0736759 43.4463 12.3005
842 2 3.75685 43.6339 11.8729
843 2 7.70591 43.4747 12.0935
844 2 11.8316 43.5 12.1686
845 2 15.6493 43.6079 12.1039
846 2 19.6093 43.7356 12.1292
847 2 23.6081 43.7044 12.1306
848 2 27.5302 43.7088 12.1762
849 2 31.6908 43.4773 12.167
850 2 35.5953 43.6147 12.1282
851 2 39.5583 43.4201 12.4081
852 2 43.4418 43.7866 12.0698
853 2 47.6323 43.6092 12.1203
854 2 51.5823 43.5166 12.3274
855 2 55.4665 43.519 12.3333
856 2 -0.150344 47.8029 12.1196
857 2 3.69562 47.4389 12.2274
858 2 7.85954 47.3684 12.2146
859 2 11.7081 47.4284 12.2008
860 2 15.9423 47.5058 12.1048
861 2 19.816 47.5991 12.0361
862 2 23.716 47.4242 12.2435
863 2 27.7018 47.6715 12.2257
864 2 31.5637 47.5044 12.1008
865 2 35.9156 47.6404 12.1478
866 2 39.4921 47.6427 12.0555
867 2 43.4359 47.5231 12.0873
868 2 47.4311 47.6299 12.2846
869 2 51.4349 47.3372 12.2261
870 2 55.4991 47.5559 12.0942
871 2 -0.0712182 51.5317 12.3288
872 2 3.81834 51.5218 12.2214
873 2 7.64054 51.4709 12.2438
874 2 11.7222 51.5519 12.1227
875 2 15.5311 51.5983 12.0281
876 2 19.7699 51.5655 12.3192
877 2 23.7447 51.4869 12.3465
878 2 27.7926 51.653 12.3692
879 2 31.6247 51.6325 12.2359
880 2 35.6839 51.518 12.199
881 2 39.648 51.6719 12.1668
882 2 43.4021 51.545 12.2269
883 2 47.5577 51.5567 12.3779
884 2 51.4389 51.3734 12.0801
885 2 55.396 51.5551 12.2466
886 2 0.0191408 55.6367 12.2682
887 2 3.89524 55.5889 12.1772
888 2 7.83576 55.4321 12.1723
889 2 11.7529 55.5873 12.1937
890 2 15.5662 55.3743 12.1744
891 2 19.6858 55.4792 11.9511
892 2 23.6971 55.3509 12.3022
893 2 27.7282 55.5013 12.1585
894 2 31.5764 55.4557 12.0833
895 2 35.7039 55.3104 12.2024
896 2 39.3968 55.5003 12.1326
897 2 43.4663 55.4503 12.0496
898 2 47.4824 55.3971 12.3008
899 2 51.4156 55.3336 12.248
900 2 55.5233 55.5098 12.2642
901 2 59.5743 0.026964 16.3204
902 2 3.89651 0.174511 16.2655
903 2 7.76574 0.0237834 16.301
904 2 11.8782 0.0974775 16.3106
905 2 15.8905 0.0139635 16.3024
906 2 19.6864 0.266235 16.082
907 2 23.5428 0.0398181 16.1671
908 2 27.6642 0.087422 16.139
909 2 31.5115 0.0525943 16.2207
910 2 35.6537 0.0920598 16.3103
911 2 39.6155 0.127067 16.2745
912 2 43.3654 -0.188122 15.9468
913 2 47.562 -0.0668523 16.1556
914 2 51.4742 -0.13402 16.1653
915 2 55.4991 -0.112291 16.2782
916 2 59.2483 3.98703 16.2759
917 2 3.97738 3.99585 16.2579
918 2 7.88596 4.09092 16.2027
919 2 11.7696 3.9854 16.2096
920 2 15.8633 3.95984 16.2387
921 2 19.7746 4.14015 16.2192
922 2 23.7211 4.0151 16.2328
923 2 27.7282 3.9383 16.2977
924 2 31.6141 4.18658 16.1806
925 2 35.3252 4.15098 15.9719
926 2 39.4124 4.19336 16.0939
927 2 43.5238 4.15244 16.0911
928 2 47.3884 4.03466 16.1848
929 2 51.3317 3.89764 16.1336
930 2 55.058 3.92858 16.1744
931 2 59.4716 7.72608 16.1647
932 2 3.99448 7.98304 16.1923
933 2 7.69061 8.09977 15.9851
934 2 11.5877 8.02668 16.0325
935 2 15.5754 7.83579 16.1649
936 2 19.7889 7.96069 15.8701
937 2 23.7124 7.98715 16.2419
938 2 27.6475 8.06961 16.0242
939 2 31.4851 8.07713 16.2764
940 2 35.569 8.23322 16.2555
941 2 39.7081 8.16034 16.0917
942 2 43.8614 8.01139 16.0248
943 2 47.5572 7.90124 16.3313
944 2 51.4747 7.96039 16.2348
945 2 55.5365 8.09343 16.2612
946 2 59.2595 11.8257 16.3575
947 2 4.02732 11.9857 16.1774
948 2 7.85616 11.9246 16.0646
949 2 11.6522 12.1824 16.1182
950 2 15.5339 11.8174 16.1212
951 2 19.6618 11.8711 16.3253
952 2 23.5898 11.8365 16.1575
953 2 27.5107 11.9215 16.1842
954 2 31.5713 12.0085 15.9076
955 2 35.6319 12.0347 16.2745
956 2 39.6337 11.8667 16.2298
957 2 43.5448 11.9692 16.186
958 2 47.3503 11.9737 16.0549
959 2 51.2691 11.7143 16.1595
960 2 55.4963 11.9734 16.3365
961 2 59.5525 15.8424 16.1226
962 2 3.73968 15.9663 16.0905
963 2 7.84898 15.7311 16.1947
964 2 11.803 16.0497 16.0991
965 2 15.6139 15.7976 16.1939
966 2 19.6951 15.8781 16.1195
967 2 23.5797 15.92 15.9741
968 2 27.546 15.8524 15.9484
969 2 31.5011 16.0669 16.1893
970 2 35.6229 15.8789 16.1534
971 2 39.4621 15.9231 16.2131
972 2 43.545 15.8479 16.2012
973 2 47.5008 15.7012 16.2401
974 2 51.3662 15.878 16.0533
975 2 55.3091 15.7254 16.2188
976 2 59.4019 19.7967 16.1947
977 2 4.1297 19.7833 16.2344
978 2 7.88588 19.9049 16.27
979 2 11.8916 19.7794 16.2049
980 2 15.8352 19.7831 16.093
981 2 19.7937 19.8335 16.2974
982 2 23.7111 19.7612 16.1523
983 2 27.6313 19.908 16.2313
984 2 31.5731 19.786 16.274
985 2 35.5758 19.7929 16.3658
986 2 39.4068 19.8306 16.075