ITEM: TIMESTEP
37700
ITEM: NUMBER OF ATOMS
14625
ITEM: BOX BOUNDS xy xz yz pp pp pp
0.0000000000000000e+00 5.9369999999999997e+01 0.0000000000000000e+00
0.0000000000000000e+00 5.9369999999999997e+01 0.0000000000000000e+00
-4.4217432030428938e-03 5.1744421743202729e+01 0.0000000000000000e+00
ITEM: ATOMS id type x y z
1 2 -0.0666467 -0.0142877 0.263612
2 2 3.89945 -0.348338 0.295186
3 2 8.14301 0.0916643 0.256224
4 2 12.0147 -0.0297255 0.207987
5 2 15.7753 0.0628495 0.405093
6 2 19.8524 -0.0914149 0.399623
7 2 23.825 0.0395868 0.25211
8 2 27.7269 0.090473 0.229889
9 2 31.5639 -0.0394693 0.32318
10 2 35.5672 -0.00420852 0.279587
11 2 39.7694 -0.160428 0.298194
12 2 43.6137 0.0438886 0.245255
13 2 47.6096 0.026792 0.337239
14 2 51.5479 -0.0349934 0.292236
15 2 55.5106 0.0682718 0.366936
16 2 0.167048 3.91577 0.368877
17 2 3.89799 3.99509 0.264458
18 2 7.82196 3.93339 0.337813
19 2 12.0011 3.9524 0.319458
20 2 15.7179 4.04162 0.00280982
21 2 19.7807 4.15504 0.109246
22 2 23.7904 3.9114 0.162921
23 2 27.7268 4.00367 0.277024
24 2 31.6963 4.0823 0.385531
25 2 35.751 3.97562 -0.229053
26 2 39.6686 4.04673 0.155211
27 2 43.6563 4.03865 0.340081
28 2 47.4472 4.03715 0.171488
29 2 51.6086 3.85662 0.0581196
30 2 55.4517 3.98774 0.180848
31 2 0.101172 8.14096 0.0387558
32 2 4.17246 8.05935 0.132313
33 2 8.06534 8.02872 0.271378
34 2 12.0134 7.81903 0.273446
35 2 16.0297 8.05241 0.254764
36 2 19.9737 7.86254 0.295057
37 2 23.9766 7.80419 0.302882
38 2 27.8845 7.83852 0.198615
39 2 31.622 8.00254 0.429508
40 2 35.5302 7.73528 0.467649
41 2 39.7035 8.03239 0.343391
42 2 43.6346 8.08223 0.221679
43 2 47.7341 8.03463 0.272595
44 2 51.5162 8.04777 0.215908
45 2 55.5057 7.93968 0.0735672
46 2 0.0797203 11.9126 0.172851
47 2 4.00181 11.9582 0.200791
48 2 7.97501 12.0478 0.370318
49 2 11.7518 11.917 0.188923
50 2 15.7708 12.013 0.127879
51 2 19.9735 11.8372 0.344405
52 2 23.6639 11.7587 0.317141
53 2 27.6708 11.9916 0.277388
54 2 31.5879 11.9589 0.272419
55 2 35.7184 11.9255 0.452529
56 2 39.5738 11.8287 0.30075
57 2 43.5808 11.961 0.320835
58 2 47.4693 11.8538 0.232412
59 2 51.4914 12.0872 0.276261
60 2 55.4164 11.7597 0.200699
61 2 0.0889275 15.9413 0.347099
62 2 4.0729 15.844 0.285263
63 2 7.97297 15.9762 0.0899842
64 2 11.8144 15.8377 0.249005
65 2 16.0678 15.7646 0.349992
66 2 20.112 15.6857 0.0618609
67 2 23.836 15.9811 0.276215
68 2 27.6842 15.8967 0.220166
69 2 31.6637 15.9643 0.376851
70 2 35.9177 15.9601 0.366957
71 2 39.7515 15.9613 0.214824
72 2 43.574 15.8555 0.273476
73 2 47.6194 15.9493 0.412141
74 2 51.5178 15.9145 0.259705
75 2 55.6257 15.6759 0.12519
76 2 0.150032 19.9493 0.34778
77 2 4.11018 19.9915 0.135873
78 2 8.14234 19.833 0.220259
79 2 12.011 19.8552 0.262938
80 2 15.9309 19.7321 0.223012
81 2 19.7787 19.923 0.0667608
82 2 23.991 19.9042 0.285736
83 2 27.8567 20.1039 0.184114
84 2 31.7205 20.032 0.227574
85 2 36.0411 19.8935 -0.109369
86 2 39.8428 19.8847 0.134091
87 2 43.8109 19.9391 0.154098
88 2 47.6172 19.7866 0.283606
89 2 51.6525 19.8773 0.306472
90 2 55.5707 19.8429 0.35665
91 2 0.291058 23.8448 0.222201
92 2 4.10298 23.9373 0.298294
93 2 8.22368 23.8086 0.270967
94 2 11.9342 23.853 0.306845
95 2 15.9558 23.956 0.28759
96 2 20.1006 23.7413 0.132809
97 2 23.992 23.938 0.212921
98 2 27.9041 23.8526 0.144465
99 2 31.844 23.8058 0.44395
100 2 35.6874 23.7444 0.239264
101 2 39.8068 23.8855 0.14819
102 2 43.6412 23.8207 0.0277896
103 2 47.6563 24.0275 0.243279
104 2 51.4399 23.8738 0.276313
105 2 55.5856 23.644 0.170356
106 2 0.055935 27.855 0.247591
107 2 3.89597 27.9612 0.343139
108 2 7.89773 27.5742 0.311425
109 2 12.1108 27.846 0.221751
110 2 15.8403 27.8803 0.294999
111 2 19.7135 27.7531 0.113429
112 2 23.8461 27.649 0.0723288
113 2 27.7557 27.6835 0.250134
114 2 31.861 27.7766 0.281125
115 2 35.8133 27.8809 0.153676
116 2 39.7559 27.7907 0.231899
117 2 43.5014 27.8715 0.197464
118 2 47.6237 27.8171 0.147164
119 2 51.6875 27.7255 0.231183
120 2 55.6294 27.7191 0.363569
121 2 0.226237 31.7899 -0.015173
122 2 4.20943 31.7255 0.229632
123 2 7.84789 31.8593 0.286892
124 2 11.7996 31.7616 0.222494
125 2 15.9904 31.7209 0.164973
126 2 19.7927 31.8201 0.205186
127 2 23.6631 31.6299 0.2701
128 2 27.791 31.7922 0.286115
129 2 31.7362 31.7064 0.392591
130 2 35.7873 31.5574 0.154616
131 2 39.7458 31.67 0.310179
132 2 43.6674 31.9133 0.219638
133 2 47.3965 31.7931 0.303555
134 2 51.7461 31.8103 0.233614
135 2 55.5461 31.899 0.0682721
136 2 0.183428 35.7317 0.240296
137 2 4.01484 35.6075 0.144819
138 2 8.11186 35.6578 0.287425
139 2 12.0718 35.7405 0.318734
140 2 15.9205 35.5449 0.263916
141 2 19.8613 35.7652 0.235083
142 2 23.886 35.774 0.350399
143 2 27.8357 35.3771 0.290555
144 2 31.7813 35.7046 0.0892608
145 2 35.4615 35.7094 -0.00540019
146 2 39.4407 35.7863 -0.0332894
147 2 43.5442 35.7539 0.278349
148 2 47.7342 35.6696 0.271559
149 2 51.7193 35.6654 0.252954
150 2 55.5504 35.7704 0.264761
151 2 0.113579 39.5953 0.255837
152 2 4.0903 39.6084 0.485964
153 2 8.06212 39.6179 0.337982
154 2 11.8879 39.7434 0.298287
155 2 15.984 39.6575 0.322179
156 2 19.8375 39.6663 0.199573
157 2 23.8318 39.6896 0.325972
158 2 27.7766 39.604 0.260091
159 2 31.7648 39.6875 -0.013825
160 2 35.5817 39.7666 0.314943
161 2 39.6166 39.7781 0.0700661
162 2 43.6342 39.5246 0.24538
163 2 47.5697 39.5537 0.330254
164 2 51.5251 39.7377 0.37721
165 2 55.3984 39.6409 0.0721286
166 2 -0.0339195 43.6461 0.35834
167 2 3.93705 43.5342 0.432278
168 2 7.96965 43.4392 0.191005
169 2 12.0835 43.6564 0.0756341
170 2 16.0243 43.9139 0.191298
171 2 19.8064 43.5046 0.344829
172 2 23.7422 43.5917 0.284696
173 2 27.6097 43.6861 0.258708
174 2 31.7213 43.3833 0.166421
175 2 35.6245 43.771 0.273501
176 2 39.7276 43.6827 0.197835
177 2 43.6589 43.5501 0.245456
178 2 47.4856 43.6536 0.499125
179 2 51.5253 43.533 0.302921
180 2 55.3959 43.4919 0.344589
181 2 -0.0989646 47.4439 0.280733
182 2 4.02541 47.5359 0.386821
183 2 8.1277 47.4886 0.389044
184 2 11.8486 47.5534 0.181911
185 2 15.961 47.5874 0.222607
186 2 19.9732 47.5436 0.143611
187 2 23.7355 47.5639 0.0681293
188 2 27.7687 47.608 0.278268
189 2 31.7805 47.4855 0.238692
190 2 35.6796 47.4951 0.199337
191 2 39.8185 47.5862 0.294155
192 2 43.8491 47.4767 0.153078
193 2 47.5438 47.4356 0.502498
194 2 51.5485 47.4451 0.206203
195 2 55.6701 47.768 0.135189
196 2 0.118973 51.5501 0.214723
197 2 4.01613 51.587 0.448101
198 2 8.06843 51.5256 0.245989
199 2 12.0388 51.3426 0.221237
200 2 15.7302 51.58 0.28885
201 2 19.9274 51.6263 0.250145
202 2 23.9407 51.5698 0.00518727
203 2 27.8893 51.4632 0.211937
204 2 31.4096 51.4805 0.208654
205 2 35.6774 51.4445 0.406617
206 2 39.8043 51.5005 0.399059
207 2 43.5894 51.5298 0.285819
208 2 47.6873 51.5248 0.275044
209 2 51.7707 51.6641 0.174829
210 2 55.5797 51.6906 0.284909
211 2 0.0266174 55.3283 0.23572
212 2 3.92254 55.3242 0.413248
213 2 7.94662 55.3782 0.116602
214 2 11.7831 55.3707 0.217093
215 2 15.8436 55.431 0.34715
216 2 20.0048 55.5028 0.276092
217 2 23.7784 55.4721 0.296421
218 2 27.8112 55.4247 0.446824
219 2 31.7098 55.5011 0.12796
220 2 35.5841 55.37 0.398415
221 2 39.5392 55.532 0.331264
222 2 43.7719 55.4803 0.498839
223 2 47.623 55.4059 0.356957
224 2 51.5751 55.4037 0.31736
225 2 55.7041 55.4308 0.295009
226 2 0.0014246 0.095739 4.40503
227 2 3.84561 -0.0857685 4.00922
228 2 7.82552 0.0236586 4.14521
229 2 11.8258 -0.0831742 4.2029
230 2 15.7585 0.161061 4.29512
231 2 19.7588 0.260344 4.20343
232 2 23.5731 0.256261 4.07605
233 2 27.7171 0.0175472 4.16691
234 2 31.7332 0.0350514 4.2169
235 2 35.4226 0.0201039 4.08388
236 2 39.5336 0.0868731 4.17887
237 2 43.6113 0.151776 4.25613
238 2 47.5876 0.274475 4.10861
239 2 51.5789 0.132641 4.24311
240 2 55.4398 0.213803 4.36283
241 2 0.115448 4.03162 4.25147
242 2 3.90374 4.23511 4.10104
243 2 8.05072 3.95998 4.23674
244 2 11.89 3.91457 4.18957
245 2 15.7271 4.02576 4.1222
246 2 19.9336 3.99336 4.05408
247 2 23.6533 4.05553 4.28176
248 2 27.6908 4.00992 4.38966
249 2 31.6066 4.18638 4.15401
250 2 35.4551 3.96161 4.18352
251 2 39.4796 3.98491 4.04456
252 2 43.5327 4.12272 4.22214
253 2 47.466 4.20281 4.20146
254 2 51.582 4.15843 4.21231
255 2 55.4101 4.22179 4.20159
256 2 0.106354 8.16332 4.15545
257 2 4.22619 8.09295 4.21132
258 2 8.06819 7.80971 4.18136
259 2 12.1034 8.09313 4.08967
260 2 15.7935 8.09859 4.05455
261 2 19.6647 8.0691 4.176
262 2 23.7627 7.91893 4.27339
263 2 27.7084 8.03816 4.16145
264 2 31.6307 8.19122 4.28339
265 2 35.6353 8.01264 4.29928
266 2 39.6634 8.1433 4.3716
267 2 43.5431 8.26338 4.12046
268 2 47.541 8.05269 4.03874
269 2 51.4365 8.13438 4.1901
270 2 55.4457 7.988 4.37072
271 2 -0.109206 12.0079 4.28916
272 2 4.20863 12.0115 4.05774
273 2 8.11233 11.7905 4.13484
274 2 11.9396 11.9459 4.18731
275 2 15.8977 12.0096 4.08467
276 2 19.9534 11.9772 4.25156
277 2 23.856 11.8684 4.23454
278 2 27.6456 12.0211 4.34429
279 2 31.6173 11.9493 4.14644
280 2 35.6341 12.0512 4.19824
281 2 39.5491 12.0011 4.27992
282 2 43.5082 11.9664 4.40965
283 2 47.4628 12.047 4.18123
284 2 51.5635 12.1018 4.35864
285 2 55.3447 11.9265 4.23736
286 2 0.138242 15.9665 4.40843
287 2 3.89123 15.9378 4.43352
288 2 7.98574 15.7681 4.2703
289 2 12.0341 15.8387 4.14884
290 2 15.7918 15.8751 4.15752
291 2 19.697 15.9713 4.33251
292 2 23.7271 15.8798 4.05734
293 2 27.7589 16.0032 4.18476
294 2 31.805 15.9402 4.1689
295 2 35.6582 15.8832 4.35861
296 2 39.7993 16.0371 4.27199
297 2 43.6149 16.1479 4.24298
298 2 47.435 15.9482 4.19414
299 2 51.4091 15.9315 4.37059
300 2 55.4923 16.0443 4.35382
301 2 -0.117181 19.9956 4.1738
302 2 4.09537 19.9955 4.02991
303 2 8.0202 19.7428 4.06633
304 2 11.884 19.6921 4.19935
305 2 15.7346 19.8601 4.19369
306 2 19.6481 19.913 4.2476
307 2 23.5948 19.8825 4.12283
308 2 27.8308 19.9918 4.31235
309 2 31.8996 19.9999 4.20422
310 2 35.7734 20.0069 3.98609
311 2 39.65 20.0034 4.29974
312 2 43.562 20.0538 4.16894
313 2 47.569 19.8479 4.33385
314 2 51.5604 19.814 4.04536
315 2 55.3334 19.8751 4.19585
316 2 -0.0703448 23.7871 4.39294
317 2 3.97094 23.8358 4.42014
318 2 7.97975 23.7903 4.00945
319 2 11.9188 23.8502 4.26681
320 2 15.8228 23.9324 4.12633
321 2 19.8969 23.9522 4.20738
322 2 23.921 23.8952 4.38258
323 2 27.6538 23.7919 4.31322
324 2 31.8466 23.8209 4.14902
325 2 35.7036 23.81 4.36576
326 2 39.5514 23.8115 4.12722
327 2 43.5655 23.8844 4.2149
328 2 47.5045 23.9376 4.16157
329 2 51.5578 23.9945 4.05408
330 2 55.4556 23.9763 4.25304
331 2 0.140125 27.8398 4.38078
332 2 3.99588 27.8781 4.24714
333 2 7.93856 27.7428 4.38341
334 2 11.8631 27.9473 4.20304
335 2 15.978 27.8534 4.1611
336 2 19.7182 27.9952 4.50175
337 2 23.7679 27.9226 4.18837
338 2 27.7465 27.8102 4.33451
339 2 31.6533 27.8057 4.16291
340 2 35.4775 27.7914 4.21744
341 2 39.5373 27.7605 4.22642
342 2 43.3869 27.7528 4.32016
343 2 47.3861 27.7572 4.15794
344 2 51.5073 27.7226 4.16467
345 2 55.3908 27.7773 4.33542
346 2 0.248208 31.5992 4.122
347 2 3.98408 31.715 4.24452
348 2 8.02997 31.8387 4.39027
349 2 11.9321 31.7239 4.0751
350 2 15.7229 31.6073 4.36901
351 2 19.8192 31.7905 4.03867
352 2 23.8447 31.5921 4.26174
353 2 27.5624 31.7029 4.10408
354 2 31.4858 31.86 4.14322
355 2 35.6346 31.7926 4.22428
356 2 39.3825 31.8561 4.21661
357 2 43.393 31.874 4.16219
358 2 47.4604 31.5102 4.2976
359 2 51.218 31.648 4.34652
360 2 55.5118 31.7925 4.18665
361 2 0.00665899 35.5345 4.32268
362 2 3.91194 35.6694 4.27305
363 2 7.97108 35.8189 4.17696
364 2 11.9563 35.6844 4.39041
365 2 15.8206 35.6863 4.36689
366 2 19.8047 35.5622 4.35675
367 2 23.8114 35.7136 4.33783
368 2 27.6591 35.755 4.27148
369 2 31.621 35.7746 4.24254
370 2 35.463 35.7042 3.98542
371 2 39.5147 35.7517 4.01896
372 2 43.4338 35.8433 4.3358
373 2 47.6895 35.6948 4.12774
374 2 51.5461 35.6854 4.32274
375 2 55.2908 35.5865 4.29785
376 2 0.0239757 39.6129 4.32961
377 2 4.2243 39.6746 4.36148
378 2 7.89807 39.6724 4.41811
379 2 11.7866 39.9067 4.20776
380 2 15.7886 39.7059 4.0888
381 2 19.8909 39.7701 4.24666
382 2 23.8397 39.7167 4.35709
383 2 27.8489 39.8862 4.33703
384 2 31.5932 39.6668 4.32888
385 2 35.7457 39.4361 4.07154
386 2 39.5677 39.52 4.06924
387 2 43.3309 39.7158 4.29037
388 2 47.5877 39.5185 4.19674
389 2 51.4164 39.6191 4.38841
390 2 55.3517 39.3672 4.19704
391 2 0.119064 43.4494 4.36276
392 2 3.79429 43.7191 4.52156
393 2 7.88119 43.5586 4.26363
394 2 11.883 43.5427 4.30655
395 2 15.8508 43.6985 4.22694
396 2 19.7476 43.8289 4.26234
397 2 23.7478 43.5543 4.22262
398 2 27.8485 43.8145 4.12774
399 2 31.679 43.7336 4.27127
400 2 35.5738 43.5743 4.06606
401 2 39.5307 43.6809 4.36382
402 2 43.714 43.2677 4.42505
403 2 47.4327 43.3874 4.25552
404 2 51.529 43.4797 4.13634
405 2 55.3523 43.4587 4.43541
406 2 -0.0293802 47.4828 4.23304
407 2 3.98462 47.6752 4.42206
408 2 7.9291 47.4931 4.26375
409 2 11.8469 47.6092 4.22094
410 2 15.8509 47.7422 4.33784
411 2 19.7458 47.7609 4.25447
412 2 23.7288 47.5457 4.07252
413 2 27.6321 47.6565 4.09645
414 2 31.7565 47.6325 4.18493
415 2 35.6348 47.7088 4.14675
416 2 39.6012 47.6023 4.28663
417 2 43.5429 47.5503 4.17512
418 2 47.4487 47.6498 4.2118
419 2 51.52 47.4536 4.17061
420 2 55.4548 47.3619 4.14036
421 2 -0.0254371 51.4054 4.32968
422 2 4.03003 51.5899 4.27208
423 2 7.77627 51.5541 4.19034
424 2 11.8385 51.4198 4.27465
425 2 16.0415 51.4463 4.2274
426 2 19.9789 51.4705 4.20347
427 2 23.892 51.6117 4.18275
428 2 27.5365 51.3035 4.24952
429 2 31.513 51.4906 4.13585
430 2 35.7047 51.543 4.49079
431 2 39.8635 51.5142 4.2082
432 2 43.3193 51.664 4.22857
433 2 47.5608 51.5086 4.33645
434 2 51.4105 51.4788 4.09997
435 2 55.4306 51.5444 4.21333
436 2 -0.0995967 55.4927 4.29927
437 2 3.93889 55.4292 4.26997
438 2 8.22642 55.5499 4.03949
439 2 11.9146 55.3769 4.24235
440 2 15.8014 55.3699 4.21674
441 2 19.8062 55.5067 4.19608
442 2 23.8551 55.4942 4.159
443 2 27.6277 55.552 4.27861
444 2 31.5962 55.4201 4.25443
445 2 35.6813 55.4009 4.32533
446 2 39.4937 55.6464 4.206
447 2 43.556 55.6382 4.22745
448 2 47.4551 55.6043 4.31537
449 2 51.6719 55.5484 4.26443
450 2 55.443 55.4741 4.28949
451 2 0.0712083 -0.00598474 8.44506
452 2 3.9639 0.084147 8.22364
453 2 7.66111 0.0500419 7.91728
454 2 11.6741 0.193294 8.13521
455 2 15.9175 0.0274181 8.33996
456 2 19.5822 -0.139934 8.30311
457 2 23.771 0.00581435 8.29822
458 2 27.4597 0.100816 8.14446
459 2 31.5211 -0.00519175 8.28311
460 2 35.48 0.348346 7.9734
461 2 39.3443 0.285261 8.28272
462 2 43.3357 0.148816 8.31491
463 2 47.3296 0.258124 8.14775
464 2 51.4323 0.195768 8.11188
465 2 55.3958 0.169167 8.20531
466 2 0.0320272 3.99334 8.31484
467 2 3.8997 3.91852 8.21948
468 2 7.83869 3.94908 8.36731
469 2 11.8141 4.00339 8.24441
470 2 15.846 4.18074 8.12506
471 2 19.69 4.11065 8.02151
472 2 23.6033 4.03968 8.24691
473 2 27.5336 4.00201 8.30053
474 2 31.4866 4.15018 8.2045
475 2 35.4147 4.0969 7.97117
476 2 39.4527 4.21244 8.18257
477 2 43.5164 4.06606 8.16433
478 2 47.5514 4.17539 8.27485
479 2 51.4338 3.92683 8.37564
480 2 55.3922 3.91976 8.27989
481 2 0.0716288 7.91502 7.96701
482 2 3.86617 8.13634 7.95795
483 2 7.92982 7.76692 8.26004
484 2 11.787 8.02316 8.19155
485 2 15.7514 7.86883 8.23787
486 2 19.6291 8.11711 7.99804
487 2 23.79 8.07344 8.32892
488 2 27.7544 8.04517 8.20963
489 2 31.5233 8.16188 8.13771
490 2 35.6256 8.07367 8.10446
491 2 39.7133 8.14776 8.19925
492 2 43.5851 7.89977 8.28417
493 2 47.7005 8.02559 8.26007
494 2 51.3756 8.01828 8.20392
495 2 55.277 8.20929 8.34317
496 2 0.0532797 12.003 8.28655
497 2 3.74838 12.0731 8.22974
498 2 7.87824 11.9612 8.07936
499 2 11.9056 11.798 8.31619
500 2 15.8594 12.0992 8.1786
501 2 19.6649 12.0256 8.2288
502 2 23.7677 12.0514 8.26799
503 2 27.4908 12.1129 8.08744
504 2 31.6845 12.0176 8.28121
505 2 35.643 12.0887 7.9987
506 2 39.5283 12.0656 8.19572
507 2 43.4514 11.9447 8.55729
508 2 47.532 12.1043 8.34042
509 2 51.3748 11.9002 8.09654
510 2 55.4284 12.2137 8.21424
511 2 -0.00727308 16.0289 8.22775
512 2 4.23012 15.9548 8.32213
513 2 7.72085 15.9276 8.26627
514 2 11.6913 15.8761 8.09158
515 2 16.0108 15.9862 8.25184
516 2 19.8099 16.0012 8.12423
517 2 23.518 16.0038 8.24974
518 2 27.696 16.1187 8.17268
519 2 31.5667 15.9372 8.21642
520 2 35.6864 15.7725 8.21105
521 2 39.5315 15.9248 8.14692
522 2 43.6139 16.0557 8.12983
523 2 47.3642 16.0638 8.17812
524 2 51.37 16.0093 8.32956
525 2 55.4232 16.044 8.22083
526 2 -0.0554296 19.7004 8.33878
527 2 3.96087 19.8754 8.36031
528 2 7.83892 19.9625 8.2277
529 2 11.6397 19.9 8.18941
530 2 15.7677 20.0572 8.19014
531 2 19.6549 20.0262 8.32198
532 2 23.5591 19.8877 8.15534
533 2 27.8403 20.0263 8.11293
534 2 31.6809 20.0216 8.28867
535 2 35.6826 19.9766 8.12589
536 2 39.5956 19.7601 8.34335
537 2 43.4612 19.9554 8.18238
538 2 47.5208 20.0991 8.1805
539 2 51.5485 20.0093 8.00987
540 2 55.3667 19.8875 8.09336
541 2 0.104179 23.6377 8.38987
542 2 3.97797 23.8881 8.25141
543 2 7.79888 23.974 8.1657
544 2 11.729 23.842 8.16439
545 2 15.7365 23.7154 8.36401
546 2 19.6557 23.8884 8.30635
547 2 23.6798 23.959 8.12354
548 2 27.5425 23.8483 8.41447
549 2 31.6342 23.7969 8.27994
550 2 35.6259 23.8427 8.26864
551 2 39.457 24.0666 8.23662
552 2 43.6577 23.8403 8.29398
553 2 47.3029 23.9126 8.20668
554 2 51.3372 23.893 8.25439
555 2 55.3145 23.9794 8.22153
556 2 -0.1795 27.8181 8.18671
557 2 3.9074 27.8917 8.28718
558 2 7.81808 27.9586 8.26949
559 2 11.7902 27.6113 8.22888
560 2 15.8819 27.656 8.19531
561 2 19.7469 28.0368 8.16764
562 2 23.7541 27.7302 8.45252
563 2 27.6714 27.758 8.25438
564 2 31.6445 27.935 8.31482
565 2 35.5376 27.7799 8.08588
566 2 39.461 27.8078 8.26383
567 2 43.3391 27.7602 8.19048
568 2 47.3471 27.7039 8.06688
569 2 51.4112 27.8138 8.25919
570 2 55.3633 27.8744 8.24027
571 2 0.0043511 31.7542 8.18754
572 2 3.94826 31.7817 8.4466
573 2 7.77555 31.8862 8.32606
574 2 11.8293 31.6607 8.27035
575 2 15.8292 31.7667 8.21482
576 2 19.7931 31.8574 8.17041
577 2 23.7027 31.7977 8.31858
578 2 27.7538 31.8641 8.27407
579 2 31.3758 31.8152 8.18019
580 2 35.4514 31.742 8.01627
581 2 39.5394 31.8451 8.24978
582 2 43.4874 31.6256 8.26065
583 2 47.5302 31.5894 8.24548
584 2 51.2914 31.7501 8.24995
585 2 55.3511 31.643 8.22886
586 2 0.0341338 35.7451 8.30288
587 2 4.08822 35.6472 8.13346
588 2 8.14491 35.6378 7.97261
589 2 11.9864 35.8649 8.26916
590 2 15.8493 35.4932 8.04197
591 2 19.8544 35.6358 8.24723
592 2 23.6273 35.877 8.22632
593 2 27.6021 35.8105 8.33685
594 2 31.6382 35.6792 8.36541
595 2 35.4561 35.7972 8.17014
596 2 39.6364 35.5546 8.12038
597 2 43.5236 35.5996 8.17744
598 2 47.427 35.5566 8.10164
599 2 51.2776 35.6498 8.35439
600 2 55.4753 35.5346 8.26497
601 2 -0.0296709 39.6678 8.31803
602 2 3.94486 39.4439 8.17484
603 2 7.82106 39.7426 8.37659
604 2 11.6718 39.8154 8.12773
605 2 15.7504 39.5741 8.34955
606 2 19.5064 39.7287 8.12233
607 2 23.4999 39.6833 8.39375
608 2 27.6105 39.5848 8.15753
609 2 31.6317 39.7897 8.22322
610 2 35.7315 39.7628 8.0943
611 2 39.5225 39.7521 8.21281
612 2 43.4222 39.7331 8.25124
613 2 47.5296 39.4406 8.26176
614 2 51.4761 39.5876 8.37802
615 2 55.4124 39.6176 8.35192
616 2 -0.153986 43.2841 8.3439
617 2 4.0731 43.5152 8.34739
618 2 7.95767 43.5381 8.3591
619 2 11.9609 43.6934 8.40842
620 2 15.7301 43.3508 8.24857
621 2 19.6495 43.5307 8.23255
622 2 23.6285 43.6261 8.2992
623 2 27.9173 43.5083 7.92367
624 2 31.7033 43.5551 8.22426
625 2 35.5606 43.5636 8.04891
626 2 39.5337 43.7165 8.17286
627 2 43.4261 43.7065 8.08676
628 2 47.3272 43.5821 8.04589
629 2 51.4486 43.4788 8.25132
630 2 55.3821 43.683 8.32273
631 2 -0.211976 47.5248 8.27218
632 2 3.88093 47.5129 8.32097
633 2 7.96904 47.5758 8.24785
634 2 11.9492 47.6232 8.31169
635 2 15.7871 47.5567 8.18948
636 2 19.8231 47.4562 8.34626
637 2 23.6477 47.5301 8.08875
638 2 27.7446 47.5368 8.39953
639 2 31.6962 47.6647 8.43983
640 2 35.6923 47.637 8.15929
641 2 39.5323 47.6296 8.25884
642 2 43.5078 47.4997 8.03593
643 2 47.5769 47.8682 8.17062
644 2 51.4474 47.6445 8.24081
645 2 55.4642 47.5871 8.16323
646 2 -0.233321 51.4866 8.24196
647 2 3.87099 51.4536 8.38052
648 2 7.96605 51.7848 8.17212
649 2 11.6504 51.5164 8.04938
650 2 15.894 51.6379 8.14197
651 2 19.7405 51.513 8.33575
652 2 23.7396 51.3895 8.29252
653 2 27.7442 51.5834 8.17347
654 2 31.5619 51.5351 8.17101
655 2 35.6564 51.5617 8.13641
656 2 39.5035 51.5269 8.24825
657 2 43.5187 51.6204 8.1692
658 2 47.5005 51.6228 8.30861
659 2 51.4154 51.5871 8.19504
660 2 55.3186 51.5466 8.25836
661 2 -0.0217123 55.5249 8.33241
662 2 3.86469 55.427 8.12738
663 2 7.81549 55.5525 8.3574
664 2 11.9238 55.5615 8.10307
665 2 15.7671 55.4883 8.07931
666 2 19.6859 55.3816 8.42763
667 2 23.5165 55.3876 8.30182
668 2 27.7335 55.4048 8.21204
669 2 31.5349 55.4547 8.11429
670 2 35.4149 55.3678 8.14865
671 2 39.6628 55.6967 8.20984
672 2 43.4219 55.5069 8.10541
673 2 47.3694 55.7279 8.16479
674 2 51.2937 55.5974 8.30824
675 2 55.3243 55.4439 8.1327
676 2 0.0155778 0.219079 12.0386
677 2 3.8725 -0.0465961 12.3348
678 2 8.00761 0.0536265 12.2202
679 2 11.8373 0.147969 12.245
680 2 15.8368 0.0786016 12.3468
681 2 19.6448 0.131623 12.2481
682 2 23.7336 0.314085 12.2527
683 2 27.7562 0.0963311 12.2659
684 2 31.5444 0.0122234 11.9149
685 2 35.4738 0.139713 11.8754
686 2 39.3801 0.0585777 12.1545
687 2 43.3061 -0.0407543 12.0868
688 2 47.3252 0.349217 12.2136
689 2 51.4093 -0.229821 12.1926
690 2 55.2115 0.0460618 12.2083
691 2 0.0155484 4.20351 12.1961
692 2 3.72697 4.08616 12.2519
693 2 7.76692 3.94185 12.3742
694 2 11.8818 3.89191 12.1465
695 2 15.8658 4.04464 12.0397
696 2 19.8181 4.12902 12.2024
697 2 23.7889 4.1135 12.1047
698 2 27.6094 4.00756 12.2026
699 2 31.6322 4.04159 12.282
700 2 35.5668 3.93149 12.0803
701 2 39.4444 4.14977 12.1325
702 2 43.5053 4.02235 12.2698
703 2 47.5198 4.09034 12.0523
704 2 51.2983 4.04882 12.2244
705 2 55.3841 3.97804 12.4836
706 2 -0.00388868 8.0919 12.2037
707 2 3.90822 8.29311 12.0626
708 2 7.66785 8.02559 12.3062
709 2 11.6878 7.96446 12.1777
710 2 15.5799 7.7886 12.2096
711 2 19.6607 8.03582 12.2009
712 2 23.5589 7.87503 12.115
713 2 27.6477 7.92679 12.2058
714 2 31.4917 8.05338 11.9601
715 2 35.524 8.04306 12.1544
716 2 39.4517 7.89576 12.204
717 2 43.4073 8.19797 12.1892
718 2 47.3733 8.1287 12.209
719 2 51.3939 7.97078 12.072
720 2 55.2405 8.09145 11.9361
721 2 0.00334085 12.2617 12.2038
722 2 3.89108 12.0909 12.1094
723 2 8.03073 11.9697 12.1492
724 2 11.8285 11.9867 12.2251
725 2 15.8984 11.76 12.2572
726 2 19.9412 11.9609 12.2173
727 2 23.9408 11.917 12.2241
728 2 27.5421 12.0434 12.1772
729 2 31.5078 12.0524 12.0844
730 2 35.6644 11.7464 12.1417
731 2 39.6101 11.8486 12.195
732 2 43.4352 12.0356 12.3546
733 2 47.3584 12.1169 12.1947
734 2 51.4479 12.1248 12.3632
735 2 55.3638 12.0419 12.1303
736 2 -0.0877716 16.0938 12.3747
737 2 3.91312 15.8504 12.2513
738 2 7.88523 15.9578 12.2957
739 2 11.7302 15.5631 11.9592
740 2 15.7734 15.7444 12.3229
741 2 19.8333 15.6986 12.2656
742 2 23.8724 16.1094 12.1914
743 2 27.7352 15.9812 12.0825
744 2 31.539 15.8874 12.1979
745 2 35.6954 15.7703 12.2874
746 2 39.4288 16.0537 12.2042
747 2 43.2862 16.1236 12.1988
748 2 47.4427 16.0789 12.079
749 2 51.2555 16.0343 12.1296
750 2 55.2203 15.8835 12.3217
751 2 0.115652 20.1746 12.3236
752 2 3.78093 19.9109 12.2584
753 2 7.66196 19.9515 12.2747
754 2 11.7078 19.7868 12.2662
755 2 15.6029 19.8107 12.4138
756 2 19.4685 19.9851 12.3244
757 2 23.661 20.0362 12.216
758 2 27.5655 20.167 12.2138
759 2 31.7077 19.7932 12.1768
760 2 35.7292 19.9881 12.1107
761 2 39.4675 19.7867 12.1807
762 2 43.4146 20.0121 12.1171
763 2 47.5439 19.8117 12.3524
764 2 51.3152 19.9468 12.1402
765 2 55.3303 19.8341 12.1368
766 2 -0.0495131 24 12.1594
767 2 4.04606 23.9603 12.1747
768 2 7.78959 23.7775 12.2187
769 2 11.8286 23.7863 12.1516
770 2 15.6664 23.7084 12.3195
771 2 19.671 23.7484 12.2194
772 2 23.5932 23.9473 12.3925
773 2 27.7099 24.1083 12.2371
774 2 31.8652 23.8304 12.1642
775 2 35.778 23.8692 12.244
776 2 39.4719 23.7541 12.2273
777 2 43.5024 23.8308 12.3247
778 2 47.6228 23.8136 12.1258
779 2 51.3573 23.9055 12.1792
780 2 55.2473 23.8539 12.4457
781 2 -0.0603331 27.9474 12.2958
782 2 3.79269 27.8215 12.4658
783 2 7.83648 27.6168 12.2581
784 2 11.8453 27.7476 12.259
785 2 15.6247 27.8175 12.126
786 2 19.8277 27.8077 12.2137
787 2 23.6355 27.7224 12.221
788 2 27.7463 27.7979 12.2938
789 2 31.8563 27.8999 12.4273
790 2 35.5442 27.768 12.3161
791 2 39.44 27.8007 12.2256
792 2 43.5585 27.745 12.3184
793 2 47.4464 27.7932 12.4671
794 2 51.2444 27.9376 12.1091
795 2 55.1063 27.8013 12.0639
796 2 -0.163602 31.9123 12.2669
797 2 3.8027 31.9678 12.2125
798 2 7.91813 31.5189 12.1455
799 2 11.7105 31.6975 12.378
800 2 15.6114 31.6014 12.0901
801 2 19.6057 31.8167 12.2038
802 2 23.6294 31.8775 12.0961
803 2 27.6379 31.6732 12.234
804 2 31.6495 31.6629 12.1779
805 2 35.5538 31.8563 12.1912
806 2 39.4469 31.7888 12.1614
807 2 43.3833 31.6582 12.3048
808 2 47.2845 31.5115 12.3128
809 2 51.38 31.9049 12.1674
810 2 55.2073 31.806 12.1685
811 2 -0.240066 35.6213 12.2836
812 2 3.94966 35.7741 12.353
813 2 7.78711 35.5006 12.3628
814 2 11.7309 35.7094 12.0835
815 2 15.753 35.729 12.2463
816 2 19.8617 35.662 12.273
817 2 23.6417 35.6977 12.3076
818 2 27.7476 35.7482 12.2345
819 2 31.6585 35.6848 12.1809
820 2 35.4696 35.9173 11.9636
821 2 39.3513 35.8105 12.0453
822 2 43.4476 35.6821 12.049
823 2 47.3229 35.5311 12.2189
824 2 51.3732 35.769 12.2247
825 2 55.2092 35.8582 12.0923
826 2 0.220571 39.4749 12.3241
827 2 3.98753 39.7038 12.1738
828 2 7.77437 39.4909 12.3545
829 2 11.7981 39.4526 12.2629
830 2 15.8207 39.733 12.3416
831 2 19.5984 39.7211 12.2384
832 2 23.8025 39.7368 12.2701
833 2 27.6967 39.6074 12.2094
834 2 31.7858 39.6983 12.2375
835 2 35.6062 39.7754 12.2327
836 2 39.5956 39.6472 12.1108
837 2 43.4147 39.7041 12.1736
838 2 47.3256 39.5459 12.3063
839 2 51.2444 39.5817 12.1544
840 2 55.1711 39.6179 12.3889
841 2 -0.247286 43.4092 12.208
842 2 3.68451 43.677 12.3526
843 2 7.90639 43.8574 12.2407
844 2 11.7629 43.8656 12.0904
845 2 15.7808 43.6209 12.3062
846 2 19.8471 43.591 12.4645
847 2 24.0007 43.6391 12.2865
848 2 27.5734 43.6427 12.0668
849 2 31.5661 43.6309 12.1332
850 2 35.5862 43.4414 12.1089
851 2 39.5972 43.766 12.0049
852 2 43.5483 43.683 12.0951
853 2 47.2596 43.6749 12
854 2 51.1856 43.6477 12.2322
855 2 55.3067 43.4863 12.3541
856 2 -0.193526 47.5246 12.1153
857 2 3.84388 47.6222 12.1626
858 2 7.78553 47.6475 12.2586
859 2 11.9938 47.6622 12.2395
860 2 15.6961 47.7371 12.3339
861 2 19.7331 47.5771 12.2475
862 2 23.6017 47.4625 12.1433
863 2 27.6214 47.5516 12.2865
864 2 31.6949 47.5079 12.1561
865 2 35.582 47.6496 12.1644
866 2 39.4591 47.6419 12.3248
867 2 43.4926 47.6705 12.2177
868 2 47.4285 47.4103 12.1738
869 2 51.3049 47.6046 12.208
870 2 55.2152 47.582 12.3121
871 2 -0.117588 51.5794 12.2502
872 2 3.8772 51.2914 12.3751
873 2 7.9639 51.5896 12.2113
874 2 11.674 51.6268 12.2932
875 2 15.7866 51.4377 11.9943
876 2 19.6316 51.4137 12.4718
877 2 23.6058 51.4591 12.3254
878 2 27.549 51.4668 12.2353
879 2 31.6149 51.4183 12.1432
880 2 35.5487 51.509 12.1848
881 2 39.5904 51.5743 12.2177
882 2 43.5826 51.4604 12.228
883 2 47.318 51.5077 12.0116
884 2 51.3926 51.6053 12.187
885 2 55.323 51.5492 12.2118
886 2 -0.0693805 55.4829 12.2486
887 2 4.04164 55.3094 12.2876
888 2 7.85202 55.6398 12.2701
889 2 11.8408 55.5591 12.1323
890 2 15.6622 55.3998 12.2221
891 2 19.7417 55.5789 12.2528
892 2 23.5009 55.582 12.4296
893 2 27.6549 55.5871 12.2632
894 2 31.654 55.5864 12.3628
895 2 35.4015 55.5181 12.1499
896 2 39.4185 55.4131 12.107
897 2 43.4729 55.4633 12.3675
898 2 47.5676 55.6709 11.9601
899 2 51.3664 55.4448 12.0849
900 2 55.3876 55.5951 12.3285
901 2 59.2811 0.0240087 16.1953
902 2 3.85534 0.0899676 16.0384
903 2 7.90551 0.26322 16.2602
904 2 11.756 0.011063 16.3433
905 2 15.7661 0.108976 16.2518
906 2 19.5176 0.0265882 16.2281
907 2 23.7178 -0.0360014 16.2902
908 2 27.7095 -0.0437966 16.2169
909 2 31.7537 0.0154848 16.2085
910 2 35.7385 0.000167578 16.0875
911 2 39.4905 0.0528986 16.1439
912 2 43.3314 0.141995 16.0821
913 2 47.3154 0.0325976 16.1949
914 2 51.1387 -0.161218 16.1031
915 2 55.3711 0.140326 16.1737
916 2 59.0718 3.91356 16.0008
917 2 3.79239 3.98317 16.3546
918 2 7.82586 4.04884 16.2291
919 2 11.9817 3.93293 16.1736
920 2 15.8397 4.14931 16.0431
921 2 19.6577 3.92618 16.2417
922 2 23.6081 4.06863 16.1272
923 2 27.5251 3.99741 16.1883
924 2 31.5654 4.24157 15.9253
925 2 35.3233 4.11687 15.9934
926 2 39.2843 4.09089 15.9546
927 2 43.3854 4.02166 16.0022
928 2 47.4912 3.82679 16.192
929 2 51.3208 4.25115 16.1907
930 2 55.3005 3.97162 16.1914
931 2 59.1493 7.91967 16.2299
932 2 3.98054 7.88546 16.1303
933 2 8.10777 7.88423 16.1927
934 2 11.6555 7.81792 16.2394
935 2 15.7151 8.08507 16.1094
936 2 19.69 8.02688 16.2775
937 2 23.6093 8.0305 15.9496
938 2 27.6547 8.09675 16.2176
939 2 31.2523 8.23535 16.1318
940 2 35.3124 7.94638 15.915
941 2 39.4175 7.94235 16.1709
942 2 43.5141 7.99068 16.2715
943 2 47.4468 7.91736 15.9883
944 2 51.2709 8.01872 16.2246
945 2 55.3418 8.09082 16.0468
946 2 59.3038 11.8886 16.0679
947 2 3.81016 11.9121 16.1072
948 2 7.70605 11.8065 16.1672
949 2 11.8034 12.0372 16.2191
950 2 15.7304 11.9897 16.33
951 2 19.7711 12.1374 16.2998
952 2 23.6042 11.8819 15.9544
953 2 27.5747 12.0655 16.0409
954 2 31.5277 11.9775 16.0895
955 2 35.6454 11.705 16.0457
956 2 39.651 11.8679 16.2245
957 2 43.4613 12.1696 16.0689
958 2 47.5103 12.1395 16.1356
959 2 51.4295 11.8686 16.198
960 2 55.3338 12.0151 16.2731
961 2 59.2533 15.9362 16.1603
962 2 3.90907 15.9916 16.3297
963 2 7.83373 16.0078 16.2369
964 2 11.7833 15.7899 16.2192
965 2 15.8123 16.0285 16.1401
966 2 19.7607 15.9472 16.202
967 2 23.7095 15.6793 16.2178
968 2 27.6307 16.004 16.2748
969 2 31.6006 16.1223 16.0585
970 2 35.4062 15.7225 16.105
971 2 39.35 16.0239 16.2462
972 2 43.4484 16.0565 16.2079
973 2 47.2511 16.0048 16.1691
974 2 51.3493 15.8282 16.0877
975 2 55.2367 15.9778 16.2994
976 2 59.2715 19.9485 16.1884
977 2 3.96488 19.7264 16.3872
978 2 7.78593 19.891 16.1764
979 2 11.8234 19.6989 16.2405
980 2 15.5605 19.7205 16.0599
981 2 19.5856 19.8663 16.1708
982 2 23.6449 19.6684 16.1715
983 2 27.4741 19.826 16.1401
984 2 31.4728 19.8769 16.1314
985 2 35.5373 19.7971 16.1817
986 2 39.5579 19.8721 16.2897