ITEM: TIMESTEP
45400
ITEM: NUMBER OF ATOMS
14625
ITEM: BOX BOUNDS xy xz yz pp pp pp
0.0000000000000000e+00 5.9369999999999997e+01 0.0000000000000000e+00
0.0000000000000000e+00 5.9369999999999997e+01 0.0000000000000000e+00
-2.3814084102113497e-02 5.1763814084101497e+01 0.0000000000000000e+00
ITEM: ATOMS id type x y z
1 2 0.122439 0.152219 0.13111
2 2 4.12635 0.194394 0.402247
3 2 7.90476 0.241799 0.334119
4 2 12.0382 0.107637 0.537617
5 2 15.8148 0.28892 0.279496
6 2 19.6885 0.00602046 0.325448
7 2 23.6953 0.179594 0.338696
8 2 27.4865 0.17613 0.224695
9 2 31.7082 0.066909 0.397157
10 2 35.6156 -0.00861943 0.264337
11 2 39.5688 0.00163279 0.419153
12 2 43.483 0.202491 0.501931
13 2 47.4626 0.0796264 0.276713
14 2 51.3551 0.0585166 0.24365
15 2 55.6442 0.164077 0.236024
16 2 0.203405 4.00359 0.16761
17 2 4.01344 4.13129 0.339418
18 2 7.92132 4.09335 0.245059
19 2 11.8107 4.12286 0.284863
20 2 15.7822 4.2096 0.260625
21 2 19.6342 4.15844 0.164862
22 2 23.7756 4.13857 -0.143745
23 2 27.7046 3.96621 0.20523
24 2 31.5934 4.13797 0.43791
25 2 35.5311 3.96112 0.338685
26 2 39.4693 3.93769 0.20315
27 2 43.4959 4.29727 0.0497756
28 2 47.5406 3.998 0.169715
29 2 51.4422 4.03195 0.169778
30 2 55.3576 3.9535 0.413676
31 2 -0.25332 8.26301 0.341169
32 2 3.87925 8.08716 0.13738
33 2 7.89128 8.08684 0.292067
34 2 11.8341 7.99853 0.250094
35 2 15.8242 8.14857 0.295964
36 2 19.6508 8.04399 0.205791
37 2 23.6556 8.0127 0.198158
38 2 27.528 7.88087 0.183832
39 2 31.6731 7.95913 0.238336
40 2 35.5545 7.97188 0.0427509
41 2 39.5839 8.03059 0.288378
42 2 43.3703 8.06242 0.251457
43 2 47.4698 8.19555 0.221936
44 2 51.4144 7.75485 0.296421
45 2 55.3036 8.05069 0.40812
46 2 0.061856 12.0356 0.33374
47 2 3.99352 11.9076 0.43489
48 2 7.9694 12.0203 0.229471
49 2 11.8554 11.893 0.39419
50 2 15.7505 11.9046 0.419076
51 2 19.6642 12.0205 0.208235
52 2 23.6263 12.0499 0.233326
53 2 27.6868 12.039 0.200315
54 2 31.7177 11.9457 0.393239
55 2 35.5771 11.9221 0.336972
56 2 39.5975 12.0039 0.26623
57 2 43.5145 12.1163 0.312944
58 2 47.4503 12.1032 0.338967
59 2 51.2694 11.698 0.161589
60 2 55.4666 11.9994 0.431814
61 2 -0.0268911 15.9087 0.227729
62 2 3.95782 15.9119 0.349035
63 2 7.97983 15.6337 0.278662
64 2 11.9627 15.884 0.295392
65 2 15.8153 16.1042 0.194993
66 2 19.883 16.1978 0.18607
67 2 23.7511 15.9964 0.317212
68 2 27.7446 16.0239 0.190017
69 2 31.8236 15.8802 0.249255
70 2 35.6882 15.9414 0.37532
71 2 39.6286 15.9013 0.311991
72 2 43.5519 16.0227 0.292144
73 2 47.4253 15.9351 0.362426
74 2 51.4039 16.0248 0.267806
75 2 55.3119 15.9309 0.339401
76 2 -0.0144128 19.9827 0.273018
77 2 4.25143 19.8756 0.288158
78 2 7.82485 19.8257 0.373299
79 2 11.7872 19.9631 0.157924
80 2 16.0092 19.8101 0.255863
81 2 19.8694 20.0023 0.205966
82 2 23.6653 19.8722 0.323171
83 2 27.5888 19.7967 0.260868
84 2 31.5014 19.768 0.134692
85 2 35.4557 20.0415 0.33394
86 2 39.4671 19.7253 0.165663
87 2 43.4894 19.7548 0.271964
88 2 47.5741 19.9709 0.247714
89 2 51.4807 19.7912 0.391043
90 2 55.4875 19.7896 0.246362
91 2 0.105225 23.8644 0.164485
92 2 4.00049 23.75 0.34636
93 2 7.97358 23.9591 0.0952371
94 2 11.7945 24.0389 0.17477
95 2 15.9205 23.7963 0.0902031
96 2 19.8408 24.0068 0.298871
97 2 23.6617 23.9481 0.26202
98 2 27.7413 23.7827 0.0839821
99 2 31.6305 23.9684 0.172813
100 2 35.6599 23.7985 0.288352
101 2 39.5129 23.8924 0.20935
102 2 43.503 23.8503 0.105238
103 2 47.4725 23.751 0.363363
104 2 51.371 23.871 0.160422
105 2 55.2832 23.6338 0.293083
106 2 -0.197946 27.6839 0.381459
107 2 3.84224 27.6955 0.216403
108 2 7.75308 27.7338 0.241907
109 2 11.8961 28.0014 0.207143
110 2 15.7406 28.0286 0.147335
111 2 19.8798 27.8832 0.237702
112 2 23.6781 27.8074 0.177964
113 2 27.8311 27.819 0.270948
114 2 31.696 27.8608 0.528596
115 2 35.6904 27.6321 0.0613724
116 2 39.451 28.0747 0.362506
117 2 43.6148 27.8879 0.380135
118 2 47.6223 27.719 0.268668
119 2 51.4966 27.8717 0.297283
120 2 55.3313 27.601 0.260733
121 2 -0.240534 31.5457 0.18491
122 2 3.8981 31.8365 0.315099
123 2 7.78758 31.8992 0.146525
124 2 11.9127 31.717 0.305451
125 2 15.8385 31.8374 0.173442
126 2 19.8226 31.9196 0.370147
127 2 23.7704 31.7954 0.0698828
128 2 27.6477 31.8343 0.30959
129 2 31.7105 31.7692 0.434221
130 2 35.6653 31.9142 0.205249
131 2 39.4492 31.796 0.373764
132 2 43.501 31.7765 0.29164
133 2 47.5176 31.6888 0.249237
134 2 51.413 31.7028 0.0941116
135 2 55.3601 31.7035 0.308906
136 2 -0.0754088 35.6907 0.0617678
137 2 3.84235 35.5323 0.161133
138 2 7.86276 35.7394 0.253715
139 2 11.774 35.5853 0.217281
140 2 15.828 35.7865 0.0451958
141 2 19.7293 35.7108 0.257031
142 2 23.6418 36.0014 0.0131682
143 2 27.5702 35.4882 0.244489
144 2 31.6634 35.7993 0.286078
145 2 35.6875 35.7419 0.281551
146 2 39.6166 35.6779 0.243867
147 2 43.5354 35.6949 0.290388
148 2 47.487 35.6079 0.469085
149 2 51.4415 35.7079 0.178595
150 2 55.2095 35.67 0.124962
151 2 -0.0709734 39.4821 0.279799
152 2 3.8714 39.6846 0.0739778
153 2 7.79644 39.7833 0.315326
154 2 11.8453 39.6505 0.306222
155 2 15.697 39.8116 0.327729
156 2 19.4974 39.6667 0.262284
157 2 23.6889 39.789 0.351668
158 2 27.7284 39.9096 0.280576
159 2 31.6384 39.7137 0.201901
160 2 35.47 39.6912 0.281251
161 2 39.4714 39.7572 0.299537
162 2 43.4768 39.7646 0.22996
163 2 47.3085 39.6532 0.0081953
164 2 51.398 39.8225 0.120579
165 2 55.3622 39.6166 0.284179
166 2 -0.000246496 43.6034 0.181658
167 2 3.94623 43.5848 0.390206
168 2 7.8037 43.7879 0.258344
169 2 11.8833 43.7941 0.102375
170 2 15.8708 43.6691 0.215125
171 2 19.7814 43.7708 0.16365
172 2 23.6647 43.4798 0.286898
173 2 27.7264 43.5331 0.154425
174 2 31.549 43.6842 0.115271
175 2 35.5508 43.7524 0.233219
176 2 39.7439 43.6928 0.380036
177 2 43.5623 43.4418 0.378642
178 2 47.5287 43.6374 0.302859
179 2 51.4114 43.5102 0.231815
180 2 55.5772 43.5988 0.355453
181 2 -0.165363 47.7122 0.219358
182 2 3.91442 47.79 0.194875
183 2 8.02366 47.7753 0.172654
184 2 12.0186 47.5731 0.228341
185 2 15.7419 47.3526 0.182857
186 2 19.8631 47.4901 0.383026
187 2 23.8284 47.5682 0.245737
188 2 27.5876 47.5586 0.156945
189 2 31.7313 47.5773 0.335591
190 2 35.6388 47.6396 0.303545
191 2 39.6948 47.4999 0.388904
192 2 43.7483 47.434 0.177889
193 2 47.4462 47.6623 0.18673
194 2 51.3612 47.5674 0.249981
195 2 55.3084 47.6998 0.264882
196 2 0.0866747 51.6255 0.0735911
197 2 4.00102 51.6576 0.256964
198 2 8.04166 51.6723 0.276488
199 2 11.7814 51.7152 0.343634
200 2 15.9741 51.4757 0.306195
201 2 19.8097 51.486 0.409183
202 2 23.7935 51.4152 0.352886
203 2 27.7947 51.3961 0.150494
204 2 31.5568 51.4832 0.255573
205 2 35.4681 51.5221 0.16979
206 2 39.5131 51.3692 0.306915
207 2 43.4714 51.5954 0.22856
208 2 47.5704 51.7162 0.425968
209 2 51.2848 51.6715 0.320905
210 2 55.4241 51.7581 0.161238
211 2 0.0831676 55.5011 0.334146
212 2 3.87309 55.6144 0.402474
213 2 7.67487 55.5352 0.311747
214 2 11.9763 55.7708 0.21897
215 2 15.8124 55.2859 0.392062
216 2 19.8633 55.4519 0.152029
217 2 23.8231 55.4497 0.438536
218 2 27.5983 55.6857 0.0116003
219 2 31.5765 55.5932 0.207662
220 2 35.6411 55.5012 0.130896
221 2 39.4733 55.4513 0.207801
222 2 43.4175 55.7078 -0.243728
223 2 47.5214 55.6016 0.172376
224 2 51.4994 55.8423 0.124247
225 2 55.3785 55.5896 0.281102
226 2 -0.00066592 0.35808 4.14405
227 2 3.90337 0.0872645 4.39931
228 2 7.94005 -0.0122995 4.28305
229 2 11.786 0.11799 4.2245
230 2 16.0031 0.231296 4.16501
231 2 19.8217 0.0994195 4.25516
232 2 23.5894 0.0665749 4.36747
233 2 27.5989 0.0696685 4.36482
234 2 31.7393 0.0750016 4.22942
235 2 35.658 -0.0226433 4.01845
236 2 39.5784 0.012345 4.24259
237 2 43.4005 -0.167251 4.20462
238 2 47.5059 0.0521878 4.28321
239 2 51.3516 0.0500396 4.32357
240 2 55.5343 0.114086 4.42187
241 2 0.150691 4.05046 4.2828
242 2 3.69266 4.15983 4.21027
243 2 7.82467 3.90329 4.34938
244 2 11.8315 4.16675 4.2105
245 2 15.8209 4.22627 4.35876
246 2 19.9945 4.26692 4.06225
247 2 23.7404 3.9067 4.21771
248 2 27.6861 3.81833 4.10991
249 2 31.5411 4.08849 4.24094
250 2 35.4824 4.04623 4.13161
251 2 39.5666 4.30437 4.22822
252 2 43.467 3.88805 4.24197
253 2 47.3923 3.93602 4.10956
254 2 51.3228 3.89253 4.24712
255 2 55.382 4.05313 4.27321
256 2 -0.174195 8.0057 4.28002
257 2 3.89903 7.95888 4.29747
258 2 7.82696 8.10121 4.36316
259 2 11.6892 8.1006 4.343
260 2 15.829 8.10723 4.25217
261 2 19.8546 8.14456 4.15718
262 2 23.6286 8.18696 4.13532
263 2 27.6752 7.75283 4.23991
264 2 31.7371 8.01953 4.27258
265 2 35.5806 8.0904 4.23117
266 2 39.5353 7.86551 4.26239
267 2 43.599 7.93953 4.07252
268 2 47.1793 7.91895 4.26229
269 2 51.3336 7.72188 4.28468
270 2 55.3774 7.82774 4.2807
271 2 -0.220885 12.0329 4.37221
272 2 3.80616 11.9455 4.40643
273 2 7.68973 11.9404 4.08147
274 2 11.8196 12.0299 4.27274
275 2 15.695 12.0622 4.26425
276 2 19.7552 12.0168 4.27322
277 2 23.6338 12.1076 4.10971
278 2 27.5976 11.9298 4.22005
279 2 31.4219 11.8034 4.00601
280 2 35.4869 11.879 4.17007
281 2 39.5133 11.9928 4.53657
282 2 43.5867 11.9203 4.30527
283 2 47.4442 11.8196 4.12397
284 2 51.6051 11.8634 4.22745
285 2 55.2615 12.0045 4.33379
286 2 0.000504018 15.8369 4.43557
287 2 3.86676 16.1063 4.22729
288 2 7.90298 15.9817 4.23325
289 2 11.8031 15.9984 4.18895
290 2 15.7617 16.0219 4.16199
291 2 19.6809 16.0504 4.15067
292 2 23.6911 16.1377 4.29597
293 2 27.725 15.6587 4.23014
294 2 31.5697 16.0546 4.16241
295 2 35.509 15.8782 4.43124
296 2 39.4244 15.8983 4.41551
297 2 43.4843 15.9528 4.44224
298 2 47.3268 15.7154 4.30225
299 2 51.2244 15.838 4.25945
300 2 55.3081 15.7765 4.26134
301 2 -0.0361552 19.6151 4.19627
302 2 4.03062 19.9344 4.20805
303 2 7.88126 20.0893 4.22349
304 2 11.5797 19.9372 4.06416
305 2 15.6819 20.0117 4.27296
306 2 19.5153 20.0651 4.17541
307 2 23.7279 19.827 4.22021
308 2 27.6026 19.9955 4.1828
309 2 31.3988 19.8965 4.10652
310 2 35.454 19.8922 4.36966
311 2 39.4396 19.7704 4.30299
312 2 43.243 19.8448 4.25056
313 2 47.2338 19.9698 4.0966
314 2 51.4216 19.8787 4.34661
315 2 55.3741 19.8758 4.13465
316 2 0.0368155 23.6224 4.26888
317 2 3.75399 23.7176 4.23296
318 2 7.81183 23.8086 4.27704
319 2 11.7542 23.9588 4.3205
320 2 15.5616 23.9804 3.94226
321 2 19.7443 23.7351 4.09108
322 2 23.8613 23.8928 4.32317
323 2 27.5418 24.0326 4.1639
324 2 31.5339 23.8582 4.30686
325 2 35.6465 23.8256 4.31602
326 2 39.5591 23.6889 4.27945
327 2 43.429 23.5742 4.31966
328 2 47.2771 23.8074 4.27623
329 2 51.4846 23.8598 4.17498
330 2 55.2589 23.6778 4.20062
331 2 -0.280703 27.7441 4.22863
332 2 3.94461 27.8538 4.16488
333 2 7.95964 28.0453 4.40119
334 2 11.8563 27.7508 4.17878
335 2 15.8158 27.7329 4.29885
336 2 19.7398 27.8095 4.14042
337 2 23.5345 27.7859 4.14621
338 2 27.6183 27.8834 4.15336
339 2 31.4484 27.9046 4.15379
340 2 35.5563 27.8264 4.30769
341 2 39.4989 27.8346 4.30493
342 2 43.4417 27.9599 4.2963
343 2 47.4614 27.6868 4.24409
344 2 51.3214 27.7751 4.29487
345 2 55.2526 27.8173 4.0636
346 2 -0.152371 31.6673 4.18404
347 2 3.83878 31.8911 4.16394
348 2 7.81911 31.7443 4.40787
349 2 11.6375 31.6724 4.03701
350 2 15.7694 31.8533 4.21444
351 2 19.8056 31.5488 4.25838
352 2 23.6668 31.8936 4.25028
353 2 27.5162 31.8496 4.24612
354 2 31.5981 31.8143 4.25514
355 2 35.5815 31.647 4.25275
356 2 39.5383 31.6995 4.28705
357 2 43.5872 31.8075 4.1541
358 2 47.3665 31.6307 4.41897
359 2 51.2811 31.7939 4.17213
360 2 55.2334 31.9398 4.22924
361 2 0.0432571 35.68 4.18431
362 2 3.97476 35.7073 4.26092
363 2 7.87106 35.8543 4.06487
364 2 11.7809 35.6362 4.0401
365 2 15.7906 35.7322 4.33795
366 2 19.826 35.6389 4.27777
367 2 23.6613 35.7647 4.10014
368 2 27.6237 35.8837 4.03995
369 2 31.7202 35.529 4.20814
370 2 35.6511 35.5724 4.2813
371 2 39.5325 35.8131 4.31055
372 2 43.4635 35.7996 4.2677
373 2 47.544 35.7815 4.34988
374 2 51.4012 35.8389 4.38052
375 2 55.2083 35.6976 4.28003
376 2 -0.157628 39.8049 4.10047
377 2 3.83843 39.5635 4.12809
378 2 7.66107 39.7522 4.02747
379 2 11.8032 39.7153 4.3022
380 2 15.7591 39.5377 4.08087
381 2 19.6899 39.6132 4.33755
382 2 23.7413 39.6386 4.39655
383 2 27.6424 39.5021 4.53793
384 2 31.6657 39.5992 4.37978
385 2 35.3034 39.5497 3.99029
386 2 39.4583 39.6706 4.27881
387 2 43.5711 39.6927 4.27519
388 2 47.5242 39.727 4.16032
389 2 51.3807 39.501 4.14367
390 2 55.1097 39.6381 4.20028
391 2 -0.304919 43.6758 4.19929
392 2 3.88804 43.7994 4.13395
393 2 7.91816 43.6154 4.22112
394 2 11.8106 43.7939 4.21255
395 2 15.7791 43.5849 4.30892
396 2 19.9005 43.6472 4.38483
397 2 23.9201 43.5967 4.30317
398 2 27.8482 43.6027 4.11001
399 2 31.6537 43.536 4.2308
400 2 35.6137 43.5876 4.15015
401 2 39.5184 43.6076 4.36229
402 2 43.4872 43.6741 4.22072
403 2 47.5295 43.4415 4.29685
404 2 51.3004 43.651 4.39643
405 2 55.4399 43.7941 4.10406
406 2 -0.0439212 47.6146 4.21884
407 2 3.91435 47.3958 4.09473
408 2 7.85734 47.75 4.12559
409 2 11.8013 47.6094 4.07743
410 2 15.7552 47.6865 4.29023
411 2 19.6511 47.5112 4.34606
412 2 23.8291 47.6493 4.13405
413 2 27.8225 47.6416 4.42846
414 2 31.5942 47.5646 4.26002
415 2 35.6531 47.6779 4.07715
416 2 39.5538 47.5339 4.37781
417 2 43.4901 47.5431 4.21781
418 2 47.3878 47.7656 4.29886
419 2 51.1939 47.5806 4.34812
420 2 55.4414 47.8989 4.15786
421 2 -0.0535482 51.4536 4.31005
422 2 3.90206 51.4639 4.31092
423 2 7.88878 51.5736 4.32549
424 2 11.7977 51.6554 4.26026
425 2 15.6383 51.6278 4.27855
426 2 19.8063 51.3357 4.32577
427 2 23.5596 51.5242 4.26509
428 2 27.9722 51.5938 4.213
429 2 31.7958 51.9287 4.40567
430 2 35.6646 51.573 4.32049
431 2 39.5741 51.5226 4.22792
432 2 43.4877 51.5217 4.01115
433 2 47.3148 51.4987 4.16223
434 2 51.5856 51.6586 4.33269
435 2 55.1876 51.6725 4.28439
436 2 -0.0871572 55.3525 4.24707
437 2 4.14046 55.6332 4.37574
438 2 7.88752 55.4238 4.09791
439 2 11.8198 55.5541 4.22438
440 2 15.6671 55.7393 4.3423
441 2 19.6409 55.4605 4.23079
442 2 23.667 55.4317 4.26322
443 2 27.5754 55.5492 4.16055
444 2 31.5789 55.6508 4.2045
445 2 35.3545 55.5852 4.04881
446 2 39.5235 55.4804 4.18957
447 2 43.3903 55.5183 4.20556
448 2 47.2262 55.3383 4.1812
449 2 51.6036 55.5499 4.20424
450 2 55.3633 55.4449 4.06791
451 2 0.137077 -0.013705 8.17859
452 2 3.89726 0.0772457 8.30603
453 2 7.81965 0.173423 8.13122
454 2 12.1089 -0.0555507 8.08361
455 2 15.8496 0.234651 8.22002
456 2 19.6949 0.212287 8.09385
457 2 23.9511 0.106949 8.33185
458 2 27.6475 -0.051052 8.13835
459 2 31.7781 0.0528415 8.25111
460 2 35.6451 0.0930322 8.20516
461 2 39.4713 0.378974 8.09729
462 2 43.5057 0.206172 8.19404
463 2 47.4205 -0.0478477 8.1172
464 2 51.2497 -0.0582697 8.08673
465 2 55.3508 0.125058 8.28616
466 2 -0.0732065 4.22352 8.19052
467 2 3.85397 4.15042 8.23709
468 2 7.67046 3.94734 8.36814
469 2 11.7001 3.94909 8.0319
470 2 15.8051 4.17463 8.36234
471 2 19.6568 4.15741 8.03496
472 2 23.724 3.88138 8.08442
473 2 27.8119 3.94871 8.13064
474 2 31.6865 3.81248 8.22146
475 2 35.6655 3.9611 8.28703
476 2 39.4733 4.11401 8.0635
477 2 43.5372 3.98512 8.15453
478 2 47.4165 3.98424 8.28489
479 2 51.3136 3.96976 8.12291
480 2 55.2576 4.02419 8.14301
481 2 -0.132319 8.00237 8.3263
482 2 3.91483 8.05073 8.34155
483 2 7.86924 7.71619 8.29922
484 2 11.5919 7.97967 8.11257
485 2 15.8455 8.00036 8.06429
486 2 19.678 7.96517 8.21005
487 2 23.7985 8.03292 8.19933
488 2 27.6184 7.80799 8.11701
489 2 31.4964 7.8925 8.10777
490 2 35.5963 7.89495 8.36269
491 2 39.5333 7.91758 8.23223
492 2 43.2933 7.9151 8.07978
493 2 47.4219 7.75173 8.23518
494 2 51.3311 7.95882 8.27731
495 2 55.2865 7.81506 8.06867
496 2 -0.0721688 11.9446 8.26503
497 2 3.83596 11.8985 8.39109
498 2 7.7006 11.8427 8.18258
499 2 11.7139 11.8415 8.13807
500 2 15.8954 11.9425 8.18601
501 2 19.6328 12.0072 8.0967
502 2 23.4453 11.814 8.064
503 2 27.5213 11.8758 8.24842
504 2 31.5917 12.0138 8.23048
505 2 35.5233 11.7762 8.18039
506 2 39.517 11.9707 8.25546
507 2 43.5163 11.7096 8.13683
508 2 47.5866 11.7565 8.27319
509 2 51.348 11.7846 8.37085
510 2 55.322 11.637 8.18524
511 2 0.00706972 16.0244 8.31326
512 2 3.88624 15.9844 8.43297
513 2 7.82985 15.7555 8.17454
514 2 11.7489 15.6886 8.21646
515 2 15.621 15.9173 8.10692
516 2 19.7482 16.0406 8.27001
517 2 23.8485 15.8331 8.10231
518 2 27.6776 16.0003 8.24723
519 2 31.7424 16.0282 8.15888
520 2 35.5954 16.0443 8.37185
521 2 39.5257 15.7752 8.32869
522 2 43.3589 15.7274 8.24066
523 2 47.4195 15.798 8.36422
524 2 51.2586 15.727 8.31315
525 2 55.3023 15.9942 8.37407
526 2 -0.0856962 19.8931 8.35649
527 2 3.80535 19.9342 8.1617
528 2 7.71392 19.8301 8.10422
529 2 11.8158 19.9225 8.23578
530 2 15.6811 19.7586 8.27959
531 2 19.6312 19.9109 8.29606
532 2 23.7515 19.6664 8.36089
533 2 27.5445 20.1242 8.20046
534 2 31.4103 19.8306 8.12326
535 2 35.4534 19.8582 8.20408
536 2 39.3672 19.5497 8.22822
537 2 43.3956 19.7608 8.22221
538 2 47.4021 19.9213 8.29267
539 2 51.3057 19.5529 8.00906
540 2 55.2954 19.8123 8.07539
541 2 -0.0857883 23.8766 8.05392
542 2 3.73568 23.8494 8.11024
543 2 7.7205 23.918 8.22086
544 2 11.5969 23.7667 8.15629
545 2 15.7142 23.7348 8.25629
546 2 19.9134 23.8103 8.30829
547 2 23.6901 23.9087 8.13831
548 2 27.5863 24.0325 8.07077
549 2 31.6666 23.6742 8.31543
550 2 35.4416 23.7443 8.1794
551 2 39.4131 23.7215 8.38391
552 2 43.4044 23.985 8.16718
553 2 47.575 23.8111 8.52873
554 2 51.5446 23.7641 8.18745
555 2 55.432 23.6377 8.48552
556 2 -0.0171156 27.8258 8.15777
557 2 3.69397 27.78 8.17505
558 2 7.65545 27.6727 8.2716
559 2 11.826 27.8535 8.33075
560 2 15.816 27.8171 8.15567
561 2 19.8945 27.5872 7.88835
562 2 23.602 27.7924 8.18717
563 2 27.5013 27.7582 8.17827
564 2 31.6369 27.7793 8.40924
565 2 35.5237 27.6822 8.18339
566 2 39.3512 27.7194 8.30957
567 2 43.4259 27.8445 8.33866
568 2 47.4331 27.4857 8.32843
569 2 51.3433 27.6642 8.11447
570 2 55.3835 27.851 8.30302
571 2 -0.212751 31.8482 8.34138
572 2 3.83119 31.7277 8.06402
573 2 7.89331 31.7897 8.29399
574 2 11.7525 31.7266 8.19278
575 2 15.6655 31.6364 8.17834
576 2 19.7595 31.6142 8.21059
577 2 23.6011 31.741 8.23797
578 2 27.6085 31.7554 8.10546
579 2 31.6795 31.7067 8.21296
580 2 35.6386 31.6803 8.2603
581 2 39.7477 31.634 8.26946
582 2 43.6178 31.8232 8.12751
583 2 47.3999 31.611 8.32344
584 2 51.2826 31.6815 8.21932
585 2 55.4396 31.8855 8.34266
586 2 -0.146474 36.0595 8.04189
587 2 3.68388 35.7456 8.13742
588 2 7.78728 35.5259 8.08433
589 2 11.851 35.6926 8.15727
590 2 15.6036 35.5669 8.14791
591 2 19.5412 35.625 8.20895
592 2 23.7007 35.6343 8.22794
593 2 27.7154 35.8537 8.32793
594 2 31.5155 35.5965 8.31725
595 2 35.4799 35.5927 8.22274
596 2 39.5849 35.7271 8.27413
597 2 43.5052 35.6417 8.12217
598 2 47.4351 35.7779 8.04136
599 2 51.4793 35.6521 8.28595
600 2 55.151 35.6945 8.16821
601 2 -0.122925 39.7953 8.28657
602 2 3.76763 39.7933 8.09873
603 2 7.61383 39.5629 7.97598
604 2 11.5499 39.6201 8.22689
605 2 15.6979 39.737 8.10476
606 2 19.745 39.7003 8.14349
607 2 23.7585 39.4231 8.12098
608 2 27.5469 39.6588 8.41343
609 2 31.4783 39.6729 8.4178
610 2 35.3584 39.5115 8.19221
611 2 39.5657 39.7036 8.23616
612 2 43.5894 39.5155 8.31137
613 2 47.258 39.5406 8.27464
614 2 51.2311 39.6047 8.4497
615 2 55.1431 39.6266 8.24689
616 2 -0.0855393 43.483 8.08537
617 2 3.83591 43.3867 8.23363
618 2 7.96872 43.8839 8.16449
619 2 11.7129 43.736 8.27556
620 2 15.7098 43.4375 7.79842
621 2 19.6187 43.652 8.0964
622 2 23.5732 43.5913 8.26235
623 2 27.6976 43.5958 8.11709
624 2 31.6824 43.4995 8.27614
625 2 35.7221 43.4036 8.05374
626 2 39.527 43.4992 8.29678
627 2 43.3448 43.4448 8.37216
628 2 47.6881 43.6234 8.25283
629 2 51.3836 43.4726 8.2715
630 2 55.2046 43.5772 8.16276
631 2 0.097884 47.4381 8.19623
632 2 3.78417 47.6467 7.96888
633 2 7.67968 47.7004 8.26356
634 2 11.7871 47.5467 8.21544
635 2 15.8982 47.46 8.2394
636 2 19.63 47.4899 8.36737
637 2 23.6146 47.4811 8.16662
638 2 27.8908 47.4735 8.09152
639 2 31.7635 47.4442 8.13285
640 2 35.7129 47.4625 8.06666
641 2 39.5542 47.2912 8.16287
642 2 43.5897 47.4044 8.23668
643 2 47.3575 47.7656 8.36095
644 2 51.4171 47.4293 8.26208
645 2 55.4218 47.6148 8.30835
646 2 -0.0610629 51.557 8.23085
647 2 3.8329 51.6155 8.2522
648 2 7.85776 51.581 8.28797
649 2 11.6102 51.5571 8.2618
650 2 15.8046 51.5765 8.41063
651 2 19.591 51.4495 8.18501
652 2 23.7777 51.2997 8.32657
653 2 27.6494 51.3407 8.25323
654 2 31.7512 51.6622 8.23417
655 2 35.6223 51.5831 8.25541
656 2 39.5951 51.4385 8.40489
657 2 43.4823 51.4567 8.2548
658 2 47.2822 51.4959 8.35675
659 2 51.2879 51.4694 8.328
660 2 55.2104 51.5182 8.26779
661 2 -0.0703369 55.3961 8.18992
662 2 3.72159 55.507 8.10113
663 2 7.78598 55.4282 8.1061
664 2 11.7806 55.6098 8.24582
665 2 15.8242 55.3704 8.42756
666 2 19.6745 55.5154 8.12477
667 2 23.5704 55.631 8.16405
668 2 27.7748 55.2069 8.01384
669 2 31.5904 55.5178 8.17744
670 2 35.7733 55.4279 8.30649
671 2 39.5951 55.2934 8.32763
672 2 43.4862 55.5459 8.27953
673 2 47.3135 55.377 8.21304
674 2 51.3183 55.4526 8.21183
675 2 55.5302 55.5035 8.09676
676 2 -0.169796 -0.0887569 12.0777
677 2 3.80376 -0.161892 12.108
678 2 7.75855 -0.139964 12.1645
679 2 11.712 -0.133124 12.2388
680 2 15.6037 0.0276984 12.05
681 2 19.6005 0.163796 12.247
682 2 23.7291 -0.105061 12.1062
683 2 27.8485 0.0688563 12.1692
684 2 31.7842 -0.138058 12.202
685 2 35.5632 -0.0544973 12.2479
686 2 39.5155 -0.237707 12.1746
687 2 43.1788 -0.0704494 12.2762
688 2 47.3649 0.0303611 12.1885
689 2 51.2351 -0.10963 12.2278
690 2 55.2082 0.00388868 12.222
691 2 -0.168635 3.7336 12.0859
692 2 3.94882 3.8166 12.2568
693 2 7.89355 3.84347 12.2673
694 2 11.7131 3.85342 12.0957
695 2 15.8991 3.91007 12.3053
696 2 19.8841 4.14276 12.2759
697 2 24.0065 4.13956 12.1578
698 2 27.5658 3.97254 12.1382
699 2 31.6556 3.93252 12.1189
700 2 35.5679 3.99027 12.1691
701 2 39.3253 3.75723 12.144
702 2 43.4865 3.98953 12.2957
703 2 47.2984 4.01901 12.1973
704 2 51.1777 3.96855 12.2055
705 2 55.2375 3.95933 12.2044
706 2 -0.123637 7.88297 12.3314
707 2 4.05494 7.91853 12.3715
708 2 7.78328 7.74696 12.1349
709 2 11.8387 7.71565 12.1217
710 2 15.7568 7.71701 12.2528
711 2 19.7577 7.7114 11.9075
712 2 23.8326 7.79474 12.0517
713 2 27.6435 7.9621 12.2298
714 2 31.5695 7.77613 12.1594
715 2 35.4466 7.79382 12.1691
716 2 39.4734 7.81168 12.2419
717 2 43.2959 7.89659 12.2104
718 2 47.4655 7.79777 12.111
719 2 51.3178 7.86795 12.3955
720 2 55.3519 7.77785 12.07
721 2 -0.0227036 11.8272 12.1665
722 2 3.87189 12.0548 12.2506
723 2 7.67752 11.8484 12.1759
724 2 11.7145 11.7317 12.0448
725 2 15.6519 11.7977 12.0676
726 2 19.6788 11.9434 12.3147
727 2 23.603 11.8051 12.0658
728 2 27.674 11.9168 12.2706
729 2 31.4245 11.8376 12.0922
730 2 35.4614 11.8887 12.2805
731 2 39.4734 11.7542 11.9894
732 2 43.5426 11.9194 12.3424
733 2 47.3833 11.8389 12.1786
734 2 51.6044 11.9378 12.4612
735 2 55.3728 11.9626 12.2635
736 2 -0.193095 15.9042 12.3391
737 2 4.02227 15.7564 12.1073
738 2 7.85454 15.7935 12.0179
739 2 11.5771 15.8551 12.1671
740 2 15.8459 15.7989 12.2913
741 2 19.823 15.7616 12.2124
742 2 23.5587 15.9285 12.2216
743 2 27.471 15.7178 12.2364
744 2 31.6621 15.9711 12.3105
745 2 35.3037 15.7198 12.1187
746 2 39.5285 15.8639 12.1544
747 2 43.5847 15.779 12.3087
748 2 47.4094 15.772 12.3676
749 2 51.336 15.9691 12.336
750 2 55.2535 15.9623 12.1707
751 2 0.116287 19.7764 12.328
752 2 3.99787 19.6553 12.3503
753 2 7.70474 20.0373 12.3362
754 2 12.0273 19.7729 12.2102
755 2 15.8403 19.8631 12.1285
756 2 19.7102 19.7112 12.2155
757 2 23.7579 19.7529 12.3444
758 2 27.4282 19.8315 12.3237
759 2 31.5711 19.7865 12.1552
760 2 35.6418 19.6894 12.2833
761 2 39.4327 19.7464 12.0599
762 2 43.4308 19.8405 12.1924
763 2 47.2772 19.804 12.1751
764 2 51.3616 19.8533 12.2054
765 2 55.3019 20.0637 12.1404
766 2 -0.0588253 23.7087 12.3407
767 2 3.83194 23.602 12.1983
768 2 7.80131 23.7223 12.2196
769 2 11.767 23.654 12.1738
770 2 15.8263 23.8706 12.2789
771 2 19.8619 23.753 12.119
772 2 23.6703 23.6701 11.9394
773 2 27.6366 23.735 12.1532
774 2 31.5991 23.5771 12.3269
775 2 35.4042 23.8538 12.3283
776 2 39.5425 23.7866 12.2652
777 2 43.403 23.795 12.1085
778 2 47.504 23.7036 12.2574
779 2 51.4021 23.8268 12.0732
780 2 55.267 23.873 12.3034
781 2 -0.0450824 27.8661 12.2985
782 2 3.84554 27.6708 12.1646
783 2 7.95063 27.4372 12.0647
784 2 11.7608 27.8148 12.1116
785 2 15.6891 27.5663 12.2455
786 2 19.686 27.6248 12.191
787 2 23.7605 27.7219 12.2537
788 2 27.5981 27.7475 12.3098
789 2 31.4784 27.5571 12.2183
790 2 35.3457 27.5819 12.1152
791 2 39.4763 27.5953 12.1314
792 2 43.6398 27.8819 12.2739
793 2 47.3502 27.567 12.255
794 2 51.2889 27.7301 12.2731
795 2 55.3877 27.7126 12.3238
796 2 -0.256201 31.7948 12.1027
797 2 3.84753 31.6449 12.2032
798 2 7.76212 31.566 12.1576
799 2 11.6276 31.7736 12.0799
800 2 15.7737 31.5882 12.1698
801 2 19.574 31.5485 12.129
802 2 23.4866 31.5682 12.1361
803 2 27.4592 31.7855 12.0879
804 2 31.5194 31.459 12.172
805 2 35.5492 31.5733 12.1907
806 2 39.4925 31.6441 12.1623
807 2 43.4477 31.5675 12.0948
808 2 47.2875 31.6628 12.1101
809 2 51.348 31.631 12.1934
810 2 55.2269 31.6066 12.3471
811 2 0.0764972 35.736 12.2075
812 2 3.67894 35.6142 12.1146
813 2 7.84999 35.6153 12.1421
814 2 11.7438 35.5573 12.1616
815 2 15.6291 35.5925 12.0434
816 2 19.5431 35.5419 12.3334
817 2 23.6106 35.5865 12.2542
818 2 27.8188 35.6407 12.2745
819 2 31.4932 35.5077 12.1931
820 2 35.4813 35.5718 12.3018
821 2 39.3617 35.8159 12.0668
822 2 43.4418 35.7375 12.3861
823 2 47.4028 35.5938 12.2384
824 2 51.3255 35.6915 12.2518
825 2 55.5288 35.6024 12.1569
826 2 -0.0504826 39.8082 12.2515
827 2 4.1002 39.4524 12.0295
828 2 8.04646 39.5929 12.0244
829 2 11.8184 39.6041 12.062
830 2 15.7625 39.4734 11.9539
831 2 19.6139 39.4805 12.0271
832 2 23.5736 39.4836 12.2728
833 2 27.3897 39.7518 12.2862
834 2 31.4014 39.8079 12.1776
835 2 35.3649 39.731 12.1743
836 2 39.4644 39.4849 12.2226
837 2 43.3775 39.5415 12.2469
838 2 47.3981 39.6261 12.3111
839 2 51.3051 39.5017 12.3485
840 2 55.3802 39.7309 12.1707
841 2 -0.0809179 43.6863 12.3869
842 2 4.00915 43.6864 12.2736
843 2 7.78157 43.4521 12.2261
844 2 11.7763 43.7704 12.1633
845 2 15.8166 43.3622 12.0965
846 2 19.856 43.4006 12.1244
847 2 23.6143 43.5919 12.0564
848 2 27.6733 43.5563 12.2526
849 2 31.7561 43.6023 12.2798
850 2 35.7202 43.4412 12.2452
851 2 39.5112 43.4797 12.3126
852 2 43.5118 43.342 12.335
853 2 47.585 43.6857 12.2321
854 2 51.363 43.4919 12.3865
855 2 55.4515 43.5819 12.1707
856 2 -0.0302219 47.6071 12.1457
857 2 3.74047 47.4725 12.1965
858 2 7.70524 47.3705 12.1709
859 2 11.6881 47.5641 12.1578
860 2 15.5771 47.4627 12.0583
861 2 19.4897 47.4488 12.2654
862 2 23.5809 47.5376 12.0673
863 2 27.5356 47.4103 12.1674
864 2 31.5433 47.443 12.1852
865 2 35.5862 47.545 12.0951
866 2 39.3282 47.4576 12.1885
867 2 43.4783 47.3267 12.0885
868 2 47.2337 47.5479 12.1775
869 2 51.453 47.5949 12.2529
870 2 55.3874 47.4258 12.3303
871 2 -0.293676 51.4298 12.2526
872 2 3.80575 51.3076 12.2996
873 2 7.66782 51.6178 12.3104
874 2 11.6315 51.2589 12.1197
875 2 15.7225 51.301 12.206
876 2 19.6951 51.456 12.2405
877 2 23.6709 51.3017 12.2613
878 2 27.5803 51.4316 12.1256
879 2 31.6783 51.4021 12.1543
880 2 35.4918 51.3629 12.1457
881 2 39.5583 51.3307 12.2063
882 2 43.2982 51.4478 12.1324
883 2 47.2862 51.6566 12.2766
884 2 51.3722 51.5002 12.2414
885 2 55.0163 51.4867 11.9032
886 2 -0.157694 55.4334 12.441
887 2 3.91972 55.3928 12.1542
888 2 8.00967 55.3561 12.116
889 2 11.7273 55.7136 12.1481
890 2 15.5715 55.3578 12.1266
891 2 19.7373 55.2792 12.0548
892 2 23.7476 55.4918 12.0621
893 2 27.7355 55.3927 11.8745
894 2 31.4225 55.2633 12.1148
895 2 35.5476 55.4328 12.3001
896 2 39.2819 55.2935 12.1378
897 2 43.3118 55.4081 12.2672
898 2 47.2843 55.525 12.3051
899 2 51.4287 55.3167 12.3633
900 2 55.1592 55.3784 12.2109
901 2 59.4799 0.116936 16.2935
902 2 4.00865 -0.0670873 16.1577
903 2 7.77027 0.0557055 16.2921
904 2 11.6331 -0.044843 16.1364
905 2 15.8903 -0.1477 16.0952
906 2 19.7418 0.0172364 16.1046
907 2 23.5198 -0.105723 15.9707
908 2 27.6942 -0.256074 16.1922
909 2 31.6533 -0.179094 16.2499
910 2 35.4992 -0.0579243 16.0643
911 2 39.3945 -0.0388514 16.1403
912 2 43.4072 -0.21166 16.2227
913 2 47.3252 -0.0925761 16.2085
914 2 51.354 -0.0742209 16.1665
915 2 55.3274 -0.00228047 16.2582
916 2 59.1363 3.8117 16.0491
917 2 3.85902 3.78221 15.9754
918 2 7.91173 3.82956 16.3883
919 2 11.7617 3.90015 16.181
920 2 15.6799 4.0108 15.9325
921 2 19.7716 4.09297 16.1905
922 2 23.6359 3.82328 16.1377
923 2 27.66 3.74543 16.0259
924 2 31.527 3.85451 16.2568
925 2 35.4562 3.81016 16.1928
926 2 39.3475 3.86277 16.2264
927 2 43.2663 3.77153 16.1676
928 2 47.3962 3.8455 16.1838
929 2 51.2334 3.93929 16.3028
930 2 55.3138 3.70412 16.1553
931 2 59.3383 7.80119 16.1106
932 2 3.79398 7.88604 16.0299
933 2 7.93816 7.9343 16.2956
934 2 11.5802 7.73197 16.0028
935 2 15.6794 7.87116 16.054
936 2 19.6316 7.93971 16.2406
937 2 23.6687 8.04697 16.0583
938 2 27.6088 7.94184 16.3233
939 2 31.5995 7.91198 16.1443
940 2 35.6301 7.90765 16.201
941 2 39.5397 7.9294 16.0319
942 2 43.2802 8.00798 16.1052
943 2 47.2677 7.63473 16.1917
944 2 51.3126 7.743 16.255
945 2 55.3387 7.87786 16.2386
946 2 59.313 11.8615 16.3828
947 2 3.84128 11.6627 16.0802
948 2 7.90344 11.9125 16.2527
949 2 11.976 11.6825 16.1297
950 2 15.6557 11.8391 15.9897
951 2 19.6098 11.8284 16.2788
952 2 23.4852 11.9018 16.2637
953 2 27.8031 11.8317 16.1878
954 2 31.6223 11.8755 16.2716
955 2 35.2877 11.8236 16.2854
956 2 39.3551 11.9936 16.1159
957 2 43.3203 11.8832 16.3449
958 2 47.4934 11.5262 16.2002
959 2 51.5257 11.8121 16.2094
960 2 55.4977 11.762 16.2392
961 2 59.1982 15.7601 16.1983
962 2 3.8864 15.6147 15.8836
963 2 8.00205 15.7584 16.0596
964 2 11.8051 15.6857 15.9416
965 2 15.5907 15.622 16.1235
966 2 19.7286 15.7737 16.3755
967 2 23.71 15.6882 16.2175
968 2 27.6681 15.5668 16.153
969 2 31.4502 15.921 16.0953
970 2 35.6039 15.6907 16.0742
971 2 39.6145 15.6223 16.2029
972 2 43.4235 15.6775 16.2315
973 2 47.4747 15.5825 16.0713
974 2 51.4131 15.7852 16.35
975 2 55.2491 15.9176 16.0569
976 2 59.2965 19.7777 16.2942
977 2 4.12015 19.6248 16.2077
978 2 7.94802 19.8283 16.2901
979 2 11.8141 19.74 16.0883
980 2 15.8498 19.5585 16.1102
981 2 19.9149 19.7169 16.1788
982 2 23.6893 19.6894 16.1795
983 2 27.6096 19.7489 16.2394
984 2 31.5983 19.7828 16.1851
985 2 35.6184 19.5917 16.2099