ITEM: TIMESTEP
46700
ITEM: NUMBER OF ATOMS
14625
ITEM: BOX BOUNDS xy xz yz pp pp pp
0.0000000000000000e+00 5.9369999999999997e+01 0.0000000000000000e+00
0.0000000000000000e+00 5.9369999999999997e+01 0.0000000000000000e+00
-5.2762211956668637e-02 5.1792762211956052e+01 0.0000000000000000e+00
ITEM: ATOMS id type x y z
1 2 -0.0745428 -0.150345 0.155879
2 2 3.64799 0.115987 0.110474
3 2 7.7785 0.036113 0.109121
4 2 12.0401 0.224129 -0.0582867
5 2 15.6842 0.0191448 0.308355
6 2 19.6353 -0.0493313 0.317164
7 2 23.7888 -0.0131985 0.334038
8 2 27.7072 0.0697219 0.235382
9 2 31.7522 0.213738 0.200057
10 2 35.6997 0.188628 0.219402
11 2 39.3634 0.00359611 0.0911288
12 2 43.3866 0.171085 0.258078
13 2 47.4411 0.230399 0.0191587
14 2 51.4114 0.0646404 0.0741309
15 2 55.3506 -0.129971 0.328727
16 2 0.0919485 4.03504 0.280798
17 2 3.87259 4.09521 0.285486
18 2 7.82559 3.95804 0.157489
19 2 11.9136 4.05125 0.269529
20 2 15.7012 4.07594 0.0446979
21 2 19.9019 4.10082 0.125578
22 2 24.0307 3.83299 0.230654
23 2 27.8356 4.17105 0.294077
24 2 31.5142 4.17564 0.0706897
25 2 35.7536 4.07764 0.110481
26 2 39.5507 4.01871 0.278929
27 2 43.4964 4.10439 0.241824
28 2 47.5517 4.17929 0.108529
29 2 51.5577 4.06415 0.149187
30 2 55.4611 3.91538 0.330166
31 2 0.00147784 7.82815 0.0717296
32 2 4.09444 8.02347 0.172122
33 2 7.80542 8.21879 0.21177
34 2 11.9032 7.9556 0.404797
35 2 15.8162 8.06172 0.105771
36 2 19.9546 8.25634 0.0994615
37 2 23.7499 8.13449 0.315716
38 2 27.6299 8.12919 0.0647962
39 2 31.7694 7.82466 0.113004
40 2 35.5313 7.94839 0.389573
41 2 39.6218 7.92835 0.274435
42 2 43.7495 7.82992 -0.129566
43 2 47.6858 8.11314 0.0764182
44 2 51.7002 7.86311 0.151186
45 2 55.5736 7.75601 0.18787
46 2 0.0339596 11.9454 0.272558
47 2 3.82059 11.9244 0.0474953
48 2 8.09051 11.9306 0.28347
49 2 11.8816 12.0119 0.3126
50 2 15.6999 11.9375 0.201696
51 2 19.7364 12.1489 0.175182
52 2 23.7999 12.0637 0.291008
53 2 27.5121 11.8947 0.368833
54 2 31.7876 11.9547 0.059503
55 2 35.5558 11.9953 0.126977
56 2 39.5614 11.7754 0.0632744
57 2 43.3556 11.9574 0.218492
58 2 47.5313 12.2782 0.0588348
59 2 51.4425 11.9019 0.0855434
60 2 55.7009 11.8371 0.177671
61 2 0.195168 15.8124 0.186215
62 2 3.93114 15.7849 0.243363
63 2 7.82961 16.0633 0.241021
64 2 11.8205 15.8078 0.286911
65 2 15.9014 15.9222 0.138763
66 2 19.6745 15.9191 0.0546792
67 2 23.8774 15.8214 0.417059
68 2 27.8414 15.914 0.243935
69 2 31.8429 15.9866 0.0811694
70 2 35.677 15.8675 0.117928
71 2 39.5761 15.7233 0.19526
72 2 43.666 15.8082 0.391189
73 2 47.4921 15.9167 0.340638
74 2 51.6049 15.983 0.121059
75 2 55.3963 15.8058 0.0669071
76 2 0.0189812 19.7874 0.0137365
77 2 3.9819 19.8693 0.421882
78 2 7.95483 19.7536 0.172681
79 2 11.9241 19.8092 0.152429
80 2 15.8098 19.8191 0.299368
81 2 19.7559 19.8434 0.171854
82 2 23.7629 19.6622 0.314951
83 2 27.7418 19.9654 0.125218
84 2 31.8453 20.0293 0.180489
85 2 35.6398 19.7023 0.113056
86 2 39.4551 19.9741 0.253131
87 2 43.5659 20.0049 0.178391
88 2 47.4315 19.8874 0.297309
89 2 51.3207 19.8724 0.151989
90 2 55.5329 19.9467 0.112099
91 2 -0.0399188 23.881 0.0965106
92 2 4.1818 23.9024 0.126954
93 2 7.98725 23.9511 0.310324
94 2 11.9457 23.9043 0.254834
95 2 15.8178 23.6627 0.190696
96 2 19.8419 23.8393 0.210014
97 2 23.9913 23.5988 0.156202
98 2 27.6884 23.8063 0.461428
99 2 31.7924 23.8646 0.150986
100 2 35.918 23.9073 0.0881941
101 2 39.6441 23.7403 0.254518
102 2 43.3712 23.8775 0.213147
103 2 47.3475 23.9268 0.0329931
104 2 51.1742 23.8535 0.181091
105 2 55.2803 23.9034 0.0494932
106 2 0.0777556 27.9298 0.390182
107 2 4.10359 27.8196 0.229932
108 2 7.97551 27.8042 0.342477
109 2 12.1248 27.7874 0.267675
110 2 15.7897 27.8709 0.359793
111 2 19.8367 27.7312 0.393695
112 2 23.9554 27.8592 0.137851
113 2 27.93 27.774 0.331016
114 2 31.7705 27.7324 0.315137
115 2 35.6779 27.7547 0.294398
116 2 39.4965 27.8154 0.226845
117 2 43.7059 27.8114 0.36789
118 2 47.6023 28.0028 0.232002
119 2 51.6648 27.8101 0.147165
120 2 55.5519 27.917 0.27684
121 2 -0.0442618 31.8424 0.200846
122 2 3.93681 31.6203 0.357626
123 2 7.89253 31.846 0.282579
124 2 11.8371 31.8464 0.297604
125 2 15.9445 31.8529 0.180327
126 2 19.9233 31.6994 0.293161
127 2 23.6616 31.8639 0.245783
128 2 27.5847 31.7715 0.101925
129 2 31.7676 31.8347 0.33098
130 2 35.7615 31.778 0.55363
131 2 39.7541 31.7863 0.275571
132 2 43.5641 31.6891 0.30941
133 2 47.5837 31.7551 0.34195
134 2 51.5626 31.9753 0.261445
135 2 55.3886 31.6581 0.212174
136 2 -0.168391 35.7387 0.208999
137 2 3.91004 35.6639 0.11606
138 2 7.88115 35.5175 0.23175
139 2 11.7518 35.8779 0.238306
140 2 15.7391 35.7879 0.133163
141 2 19.8114 35.7047 0.218713
142 2 23.7291 35.526 0.163153
143 2 27.6319 35.6267 0.307689
144 2 31.6848 35.8135 0.343886
145 2 35.7637 35.6455 0.465596
146 2 39.7102 35.472 0.234183
147 2 43.4447 35.7551 0.184869
148 2 47.6537 35.5373 0.273123
149 2 51.4818 35.7998 0.224258
150 2 55.3528 35.7951 0.167605
151 2 -0.136601 39.6332 0.291061
152 2 3.70994 39.5492 0.478578
153 2 7.76945 39.6455 0.266706
154 2 11.6808 39.6996 0.33923
155 2 15.6503 39.7407 0.299212
156 2 19.6297 39.7086 0.0837501
157 2 23.901 39.5536 0.0623671
158 2 27.7228 39.5978 0.165413
159 2 31.4418 39.5655 -0.0407521
160 2 35.6468 39.6227 0.173777
161 2 39.4607 39.6028 0.284036
162 2 43.7514 39.5395 0.196927
163 2 47.5294 39.279 0.263562
164 2 51.4281 39.7466 0.12925
165 2 55.5587 39.6268 0.219508
166 2 0.152077 43.8274 0.242448
167 2 4.08439 43.2391 0.175931
168 2 8.04046 43.7544 0.250784
169 2 11.9214 43.7027 0.122325
170 2 15.8084 43.6616 0.208066
171 2 19.8231 43.5091 0.377949
172 2 23.5924 43.5507 0.290762
173 2 27.609 43.7242 0.287882
174 2 31.8042 43.6711 0.391298
175 2 35.7403 43.5288 0.367989
176 2 39.7187 43.5181 0.383924
177 2 43.7705 43.6457 0.428521
178 2 47.6324 43.3683 0.174417
179 2 51.5251 43.4914 0.456348
180 2 55.5352 43.5942 0.0710609
181 2 0.182759 47.3995 0.140171
182 2 3.883 47.7345 0.124282
183 2 7.96119 47.581 0.252525
184 2 11.7323 47.7064 0.105718
185 2 15.6999 47.5526 0.303462
186 2 19.6986 47.7913 0.332147
187 2 23.8136 47.5164 0.375272
188 2 27.7792 47.7003 0.236591
189 2 31.6375 47.4212 0.102758
190 2 35.6307 47.5888 0.320231
191 2 39.6549 47.5521 0.489831
192 2 43.5448 47.5403 0.28826
193 2 47.5747 47.3821 0.216789
194 2 51.5722 47.6626 0.205825
195 2 55.3284 47.5191 0.210705
196 2 -0.0291709 51.4901 0.241519
197 2 3.9409 51.6254 0.290648
198 2 7.91759 51.5409 0.272675
199 2 12.0398 51.6625 0.0496735
200 2 16.0411 51.5133 0.388353
201 2 19.8667 51.4143 0.0908109
202 2 23.7678 51.4205 0.216009
203 2 27.8845 51.5798 0.302809
204 2 31.6725 51.445 0.146558
205 2 35.5704 51.6 0.115019
206 2 39.5021 51.5899 0.100777
207 2 43.6408 51.4774 0.217369
208 2 47.4642 51.6821 0.247762
209 2 51.3747 51.2231 0.0746417
210 2 55.7307 51.5215 0.246754
211 2 -0.1694 55.4137 0.15272
212 2 3.87493 55.3587 0.166008
213 2 7.81193 55.3264 0.265909
214 2 11.7017 55.6768 0.204842
215 2 15.6599 55.463 0.0395311
216 2 19.6592 55.3067 0.165375
217 2 23.7795 55.3905 0.128036
218 2 27.9597 55.4403 0.232599
219 2 31.7283 55.3441 -0.0349951
220 2 35.6556 55.4924 0.279551
221 2 39.7276 55.3481 0.162993
222 2 43.4385 55.7978 0.20586
223 2 47.4527 55.6523 0.12714
224 2 51.5209 55.4344 0.294305
225 2 55.2431 55.3734 0.191962
226 2 -0.158541 0.0527373 4.26638
227 2 3.78221 -0.198817 3.97708
228 2 7.81764 0.189728 4.07895
229 2 11.7087 0.0998585 4.11033
230 2 15.6927 0.0327138 4.11478
231 2 19.9146 0.147151 4.13241
232 2 23.8294 -0.00818391 4.35483
233 2 27.7364 -0.0335261 4.33889
234 2 31.7571 0.0257525 4.26104
235 2 35.5685 0.00299058 4.17459
236 2 39.7114 0.123565 4.24069
237 2 43.4732 0.0711829 4.30348
238 2 47.3006 0.204263 4.14183
239 2 51.3511 0.149393 4.09881
240 2 55.1909 0.128542 4.19529
241 2 0.0410937 3.85696 4.12266
242 2 3.8531 3.9165 4.27121
243 2 7.63045 3.9509 4.15419
244 2 11.608 4.13534 4.10396
245 2 15.7884 4.02411 4.20487
246 2 19.7535 3.84952 4.0905
247 2 23.7415 3.99054 4.09216
248 2 27.5413 4.06804 4.34625
249 2 31.5759 4.07615 4.25233
250 2 35.6397 3.83008 4.24637
251 2 39.5204 4.06342 4.27832
252 2 43.4206 4.00871 4.13107
253 2 47.3589 4.21405 4.13298
254 2 51.2584 3.97031 4.15003
255 2 55.387 4.20376 4.16724
256 2 0.00451306 8.04084 3.99728
257 2 3.83008 7.75391 4.0649
258 2 7.80259 7.79107 4.06493
259 2 11.7411 7.88116 4.12062
260 2 15.5631 7.81677 4.28017
261 2 19.6102 7.90316 4.13283
262 2 23.7898 7.83116 4.41194
263 2 27.6443 7.88396 4.15698
264 2 31.5249 8.10626 4.2396
265 2 35.5248 7.95707 4.15023
266 2 39.5867 7.9326 4.35488
267 2 43.5363 8.11255 4.17248
268 2 47.4386 8.12147 3.94572
269 2 51.4238 8.14989 4.13705
270 2 55.4401 7.82075 4.15967
271 2 -0.160609 11.8851 4.24939
272 2 3.9991 11.7996 4.26138
273 2 8.01612 11.7787 4.15036
274 2 11.9443 11.9235 4.28733
275 2 15.7471 12.0436 4.23851
276 2 19.7617 11.698 4.22922
277 2 23.562 12.0251 4.39011
278 2 27.5932 11.9811 4.23327
279 2 31.4229 11.9831 4.10145
280 2 35.5835 11.9224 4.05195
281 2 39.7247 11.849 4.01711
282 2 43.5479 11.8433 4.16965
283 2 47.3294 11.9523 3.96425
284 2 51.3468 11.9123 4.2511
285 2 55.3138 11.86 4.306
286 2 -0.25045 16.0029 4.02287
287 2 3.80079 15.6649 4.2349
288 2 7.85112 15.8945 4.29934
289 2 11.8734 16.0388 4.15323
290 2 15.9092 15.9638 4.22801
291 2 19.8166 15.8933 4.37307
292 2 23.7269 15.8585 4.4333
293 2 27.6345 16.0254 3.98923
294 2 31.5979 16.0877 4.07027
295 2 35.7455 15.8728 4.11452
296 2 39.7452 15.8015 4.29188
297 2 43.6667 15.762 4.14417
298 2 47.5156 15.9613 4.16522
299 2 51.5041 16.1455 4.26337
300 2 55.1259 15.8497 4.08799
301 2 -0.289053 19.8268 4.15638
302 2 3.79371 19.8048 4.23099
303 2 7.78834 19.8302 4.39293
304 2 11.8145 20.1187 4.12789
305 2 15.6464 19.8112 4.24949
306 2 19.816 19.8826 4.02629
307 2 23.8134 19.8811 4.19378
308 2 27.6901 19.7496 4.24912
309 2 31.6643 19.845 4.19871
310 2 35.5759 19.7313 4.05325
311 2 39.352 19.7176 4.04262
312 2 43.3783 19.7381 4.17293
313 2 47.1966 19.9412 4.11206
314 2 51.3835 20.1033 4.13165
315 2 55.4167 19.6829 4.2606
316 2 0.0606857 23.6878 3.98975
317 2 3.96558 23.8626 4.03446
318 2 7.99461 23.7599 4.32517
319 2 11.7985 23.8522 4.26646
320 2 15.9659 23.7125 4.11205
321 2 19.9887 23.8527 4.19507
322 2 23.7984 23.7814 4.32769
323 2 27.6564 23.8356 4.33918
324 2 31.8201 23.875 4.19548
325 2 35.4539 23.8155 4.30795
326 2 39.5622 23.7736 4.17045
327 2 43.6698 23.6981 4.43953
328 2 47.4279 23.9418 4.16065
329 2 51.4701 23.8364 4.17384
330 2 55.5749 23.9945 4.18354
331 2 0.209661 27.8046 4.23782
332 2 4.08024 27.8076 4.24766
333 2 7.88291 27.976 4.48121
334 2 11.6886 27.6672 4.17282
335 2 15.6583 27.8331 4.34148
336 2 19.7179 27.7083 4.32718
337 2 23.695 27.6335 4.2016
338 2 27.4278 27.6887 4.13999
339 2 31.3934 27.681 4.31384
340 2 35.5526 27.8899 4.29495
341 2 39.6902 27.7519 4.09498
342 2 43.4451 27.6829 4.31042
343 2 47.5923 27.9418 4.22725
344 2 51.5916 27.8135 4.19332
345 2 55.3074 27.8241 4.22997
346 2 0.0257395 31.7097 4.05835
347 2 3.79292 31.8339 4.25197
348 2 7.99804 31.7575 4.39132
349 2 11.8683 31.7752 4.39301
350 2 15.8434 31.8184 4.14112
351 2 19.6629 31.5534 4.37456
352 2 23.6264 31.7945 4.2593
353 2 27.7131 31.8232 4.2075
354 2 31.5603 31.7477 4.13741
355 2 35.5801 31.5872 4.37943
356 2 39.4338 31.8044 4.26646
357 2 43.3584 31.6278 4.46064
358 2 47.3852 31.7764 4.21185
359 2 51.4401 31.6619 4.22959
360 2 55.3397 31.859 4.24402
361 2 -0.172869 35.6909 4.13733
362 2 3.82658 35.81 4.26381
363 2 7.82946 35.6174 4.18709
364 2 11.7226 35.8813 4.28989
365 2 15.826 35.9041 4.11076
366 2 19.7889 35.7001 4.31687
367 2 23.5878 35.8062 4.30921
368 2 27.7666 35.8563 4.10814
369 2 31.6064 35.7241 4.25307
370 2 35.4911 35.6354 4.36876
371 2 39.9 35.5934 4.39342
372 2 43.4785 35.791 4.22548
373 2 47.5287 35.3692 4.17495
374 2 51.4981 35.6837 4.1261
375 2 55.3709 35.8089 4.3203
376 2 -0.102346 39.6693 4.2521
377 2 3.81393 39.716 4.27219
378 2 7.71407 39.6585 4.31937
379 2 11.9344 40.0217 4.03324
380 2 15.782 39.7538 4.09269
381 2 19.6297 39.6538 4.11268
382 2 23.6933 39.7164 4.33887
383 2 27.5147 39.7042 4.06163
384 2 31.5753 39.6147 4.21303
385 2 35.4151 39.5711 3.99966
386 2 39.3279 39.7054 4.24578
387 2 43.4925 39.4556 4.32333
388 2 47.4593 39.6447 4.22809
389 2 51.3792 39.7068 4.21522
390 2 55.4291 39.6169 4.23491
391 2 -0.227293 43.6538 4.15569
392 2 3.6781 43.6294 4.36346
393 2 7.9501 43.6303 4.24868
394 2 11.9016 43.6782 4.26557
395 2 15.6615 43.8137 4.18709
396 2 19.7521 43.4321 4.16913
397 2 23.5883 43.5117 4.10318
398 2 27.8575 43.7014 4.32265
399 2 31.4661 43.5256 4.12204
400 2 35.7108 43.696 4.14041
401 2 39.6664 43.7186 4.27578
402 2 43.59 43.5056 4.25478
403 2 47.4255 43.3619 4.16449
404 2 51.3613 43.6445 4.21413
405 2 55.2825 43.6954 4.31429
406 2 -0.219844 47.6467 4.04628
407 2 4.01052 47.4919 4.27741
408 2 7.80959 47.8043 4.22075
409 2 11.6973 47.5837 4.3368
410 2 15.7129 47.5238 4.13956
411 2 19.9839 47.455 4.19414
412 2 23.7598 47.6111 4.22339
413 2 27.5921 47.5908 4.21583
414 2 31.6393 47.6224 4.19261
415 2 35.5734 47.6927 4.23861
416 2 39.5577 47.4893 4.29677
417 2 43.5295 47.6097 4.26892
418 2 47.4251 47.4061 4.18591
419 2 51.5204 47.6597 4.12009
420 2 55.2401 47.6497 4.28486
421 2 -0.0449114 51.4489 4.13777
422 2 3.92792 51.6434 4.25701
423 2 7.86623 51.4467 4.23059
424 2 11.9059 51.602 4.247
425 2 15.853 51.5315 4.19915
426 2 19.5499 51.6629 4.0948
427 2 23.4471 51.4425 4.05901
428 2 27.7754 51.4584 4.13556
429 2 31.6641 51.4572 4.12101
430 2 35.476 51.5242 4.22458
431 2 39.5638 51.6642 3.9807
432 2 43.505 51.5987 4.29745
433 2 47.468 51.405 4.07029
434 2 51.3432 51.5969 4.33342
435 2 55.2806 51.6024 4.09492
436 2 -0.23225 55.4443 4.1685
437 2 3.93133 55.5937 4.23608
438 2 7.80009 55.4042 4.32969
439 2 11.7684 55.6279 4.12702
440 2 15.5563 55.6378 4.05978
441 2 19.8161 55.5862 3.99985
442 2 23.7401 55.6011 4.06834
443 2 27.6635 55.4171 4.11639
444 2 31.4518 55.5058 3.87463
445 2 35.5213 55.508 4.10953
446 2 39.5157 55.6133 4.08874
447 2 43.8064 55.5303 4.22388
448 2 47.4937 55.7453 3.89537
449 2 51.3262 55.5291 4.18033
450 2 55.2155 55.3793 4.29893
451 2 -0.269121 0.145534 8.32007
452 2 3.68573 0.0925762 8.11332
453 2 7.81877 -0.00849728 8.32717
454 2 11.8157 0.0659687 8.15836
455 2 15.8162 0.0547751 8.28458
456 2 19.5405 0.0670619 8.18726
457 2 23.6961 -0.0947314 8.30013
458 2 27.7228 -0.0540435 8.15824
459 2 31.5009 -0.124087 8.1101
460 2 35.6806 -0.0551684 8.15849
461 2 39.5023 0.104564 8.24921
462 2 43.4081 0.163444 8.31751
463 2 47.4795 -0.160157 8.23537
464 2 51.3808 -0.0147048 8.26639
465 2 55.2511 -0.15233 8.23091
466 2 -0.24376 4.08545 8.26792
467 2 3.77654 3.97543 8.2185
468 2 7.68174 3.95102 8.0062
469 2 11.6243 3.91115 8.24841
470 2 15.6096 3.87343 8.06397
471 2 19.6754 3.86736 8.18684
472 2 23.6732 3.88544 8.10509
473 2 27.5752 3.82621 8.30435
474 2 31.5589 4.15808 8.14537
475 2 35.4691 3.8997 8.09333
476 2 39.6362 4.09359 8.31271
477 2 43.3849 3.99409 8.26257
478 2 47.2503 4.07377 8.081
479 2 51.2704 4.20088 8.118
480 2 55.4488 3.88817 8.10678
481 2 -0.0545467 7.90902 8.25509
482 2 3.84863 8.18208 8.16423
483 2 7.68195 7.93575 8.23818
484 2 11.6846 7.875 8.21853
485 2 15.6921 7.82813 8.1526
486 2 19.5328 7.89419 8.29599
487 2 23.5423 7.72712 8.28594
488 2 27.6977 7.99399 8.10095
489 2 31.6643 7.83181 8.25542
490 2 35.3579 7.852 8.20784
491 2 39.4422 7.8045 8.02116
492 2 43.5213 7.90424 8.29425
493 2 47.3736 7.89519 8.1094
494 2 51.2985 7.90604 8.08192
495 2 55.1881 7.98892 8.06502
496 2 -0.0682816 11.8515 8.06614
497 2 3.93658 11.7731 8.27768
498 2 7.98652 12.0149 8.06044
499 2 11.7433 12.0246 8.1882
500 2 15.7095 12.0698 8.11064
501 2 19.7764 11.7312 8.1623
502 2 23.6848 11.7114 8.1109
503 2 27.5523 12.0357 8.14341
504 2 31.4624 11.8419 8.30696
505 2 35.3241 11.9537 8.16984
506 2 39.4605 11.7901 8.21516
507 2 43.4389 11.7849 8.22758
508 2 47.3985 11.8528 8.38849
509 2 51.295 11.8996 8.16599
510 2 55.1963 11.8867 8.11834
511 2 -0.173307 15.9385 8.21098
512 2 3.89888 15.8171 8.19286
513 2 8.07611 15.8046 8.37366
514 2 11.7623 15.8936 8.1082
515 2 15.7587 15.7347 8.22819
516 2 19.6946 15.7666 8.2635
517 2 23.518 15.847 8.29556
518 2 27.6452 15.7995 8.00131
519 2 31.8623 15.6703 8.08829
520 2 35.6484 15.7575 8.14969
521 2 39.4828 15.8911 8.19499
522 2 43.6593 15.8568 8.27678
523 2 47.4777 15.9128 8.21119
524 2 51.323 16.0518 8.0655
525 2 55.1702 15.8685 8.06737
526 2 0.0936224 19.7905 7.88387
527 2 3.90047 19.8471 8.14111
528 2 7.68939 19.632 8.08236
529 2 11.7138 19.8766 8.18375
530 2 15.6944 19.8226 8.14671
531 2 19.6191 19.7995 8.11148
532 2 23.5674 19.7496 8.16003
533 2 27.6802 19.9261 8.29153
534 2 31.6851 19.8631 8.26858
535 2 35.4328 19.8259 8.16936
536 2 39.4394 19.8225 8.06509
537 2 43.2562 19.8337 7.9829
538 2 47.4149 19.9766 8.09437
539 2 51.3416 19.8329 8.13246
540 2 55.4724 19.7473 8.1118
541 2 -0.160735 23.8522 8.00429
542 2 4.0372 23.6202 8.11489
543 2 8.02449 23.7768 7.9182
544 2 11.8271 23.9593 8.25316
545 2 15.8266 23.8237 8.34965
546 2 19.7884 23.8106 8.40937
547 2 23.5941 23.7928 8.27368
548 2 27.6951 23.6168 8.1327
549 2 31.4469 23.8219 8.1939
550 2 35.5379 23.7161 8.21079
551 2 39.4703 23.6526 8.37108
552 2 43.2537 23.6755 8.23626
553 2 47.4735 23.7444 8.31384
554 2 51.3089 23.6713 8.05088
555 2 55.308 23.7483 8.13069
556 2 -0.15329 27.8543 8.12703
557 2 3.96956 27.717 8.14983
558 2 7.85721 27.7792 8.21546
559 2 12.0089 27.7826 8.33116
560 2 15.7758 27.7156 8.22347
561 2 19.7507 27.6157 8.44026
562 2 23.6831 27.7872 8.19528
563 2 27.4711 27.9371 8.17779
564 2 31.3628 27.7942 8.20417
565 2 35.2435 27.7502 8.03433
566 2 39.3438 27.5976 8.15357
567 2 43.3311 27.759 8.2739
568 2 47.4341 27.7442 8.44453
569 2 51.6365 27.6677 8.253
570 2 55.3386 27.8864 8.25256
571 2 -0.0753774 31.7791 8.18691
572 2 4.11488 31.7856 8.32337
573 2 7.89899 31.5971 8.16771
574 2 11.6435 31.9176 8.34293
575 2 15.595 31.8795 8.29303
576 2 19.7593 31.8663 8.27151
577 2 23.6299 31.6966 8.2078
578 2 27.4353 31.8792 8.16666
579 2 31.5539 31.6774 8.28362
580 2 35.6616 31.6478 8.33963
581 2 39.4858 31.7364 8.34144
582 2 43.5418 31.6246 8.3016
583 2 47.4919 31.5848 8.26601
584 2 51.3259 31.5656 8.31609
585 2 55.3957 31.6264 8.15698
586 2 -0.133528 35.5595 8.34311
587 2 3.838 35.5466 8.1896
588 2 7.6228 35.9165 8.17802
589 2 11.9485 35.5723 8.33904
590 2 15.8535 35.8515 8.11628
591 2 19.7278 35.7231 8.24272
592 2 23.6222 35.6641 8.26481
593 2 27.6439 35.8049 8.24968
594 2 31.7802 35.6775 8.28898
595 2 35.5956 35.6266 8.09249
596 2 39.614 35.7128 8.12553
597 2 43.626 35.7482 8.23581
598 2 47.5886 35.6591 8.19261
599 2 51.3576 35.4137 8.26215
600 2 55.0088 35.5945 8.29908
601 2 -0.151585 39.5674 8.36894
602 2 3.89336 39.7447 8.08181
603 2 7.80426 39.7292 8.22013
604 2 11.9481 39.4043 8.17935
605 2 15.8127 39.726 8.17131
606 2 19.8127 39.5418 8.42333
607 2 23.6015 39.4558 8.10063
608 2 27.7808 39.5477 8.16836
609 2 31.7826 39.7483 8.20743
610 2 35.5986 39.665 8.25869
611 2 39.5832 39.8461 8.26373
612 2 43.6021 39.5973 8.44485
613 2 47.4885 39.4495 8.28866
614 2 51.3913 39.4828 8.1788
615 2 55.1046 39.7588 8.17621
616 2 0.0775811 43.8076 8.29518
617 2 3.81485 43.541 8.15138
618 2 8.02333 43.5914 8.10494
619 2 11.8296 43.5373 8.06048
620 2 16.0535 43.6074 8.15131
621 2 19.8202 43.6901 8.2105
622 2 23.7041 43.2117 8.32915
623 2 27.5075 43.5758 8.39222
624 2 31.544 43.4364 8.18635
625 2 35.6234 43.4652 8.04051
626 2 39.5453 43.7581 8.24121
627 2 43.513 43.5357 8.18443
628 2 47.439 43.6706 8.15388
629 2 51.2906 43.7066 8.22848
630 2 55.2671 43.7126 8.37997
631 2 -0.184349 47.7107 8.22462
632 2 3.84612 47.707 8.388
633 2 7.93412 47.4903 8.06239
634 2 11.8189 47.3727 8.21784
635 2 15.6899 47.5666 8.08026
636 2 19.7875 47.6037 8.13915
637 2 23.8859 47.5642 8.37645
638 2 27.6839 47.53 8.34301
639 2 31.6055 47.4731 8.28673
640 2 35.5649 47.4308 8.11477
641 2 39.625 47.7065 8.26173
642 2 43.4334 47.7384 8.21459
643 2 47.4892 47.4953 8.29526
644 2 51.3577 47.4457 8.18037
645 2 55.2518 47.7697 8.21383
646 2 -0.248765 51.544 8.16997
647 2 3.65364 51.6763 8.13733
648 2 7.94553 51.4576 8.30436
649 2 11.7164 51.5757 8.25881
650 2 15.8931 51.5721 8.26855
651 2 19.8409 51.4997 8.1656
652 2 23.6999 51.3915 8.26401
653 2 27.622 51.4832 8.06106
654 2 31.5056 51.5263 8.28537
655 2 35.4375 51.5402 8.23523
656 2 39.2679 51.5528 8.1024
657 2 43.4404 51.4906 8.18796
658 2 47.3969 51.5494 8.14705
659 2 51.3953 51.3857 8.05935
660 2 55.3962 51.686 8.13954
661 2 -0.117473 55.5067 8.32527
662 2 3.87999 55.5301 8.34999
663 2 7.80936 55.4253 8.22038
664 2 11.8952 55.3792 8.13307
665 2 15.6397 55.4961 7.98543
666 2 19.5193 55.5451 8.03949
667 2 23.7091 55.32 7.98124
668 2 27.6325 55.3767 8.30302
669 2 31.561 55.262 8.10617
670 2 35.6788 55.4092 8.17927
671 2 39.5631 55.7184 8.12062
672 2 43.442 55.5926 8.1642
673 2 47.4486 55.3722 8.17894
674 2 51.3321 55.4711 8.04054
675 2 55.1596 55.3682 8.1683
676 2 -0.117558 0.114959 12.2899
677 2 3.87789 0.153742 12.2292
678 2 7.78851 -0.0966341 12.1258
679 2 11.8559 0.114271 12.092
680 2 15.8514 0.150133 12.1265
681 2 19.724 -0.0765085 12.1813
682 2 23.665 -0.134032 12.0186
683 2 27.6855 0.0977816 12.1727
684 2 31.5145 -0.10921 12.0817
685 2 35.3767 0.199747 11.7516
686 2 39.496 0.000487074 12.2818
687 2 43.4217 0.166621 12.3245
688 2 47.3288 0.0460581 12.0893
689 2 51.3008 0.237937 12.1484
690 2 55.2002 0.191914 12.215
691 2 -0.287713 4.08804 12.1742
692 2 3.81274 3.93803 12.2548
693 2 7.74621 3.9897 12.1078
694 2 11.6562 4.09498 12.1713
695 2 15.5678 4.05043 12.1647
696 2 19.7143 4.04086 12.2147
697 2 23.6252 3.85533 12.2036
698 2 27.5459 3.97381 12.115
699 2 31.5886 3.93008 12.3152
700 2 35.4948 3.93051 12.1933
701 2 39.2471 3.96668 12.1306
702 2 43.4168 4.11401 12.1541
703 2 47.4234 3.91196 12.2042
704 2 51.281 4.05737 12.1409
705 2 55.1407 4.16782 12.0879
706 2 -0.201946 7.99593 12.1452
707 2 4.02454 7.76254 12.092
708 2 7.70099 7.78901 12.1927
709 2 11.5406 7.90944 11.9845
710 2 15.7656 7.89596 12.0055
711 2 19.6781 7.97263 12.2695
712 2 23.6066 7.76079 11.9307
713 2 27.6278 7.92326 12.122
714 2 31.6304 7.83012 12.2412
715 2 35.4974 8.06703 12.2298
716 2 39.3442 8.04902 11.9141
717 2 43.4807 7.98965 12.3008
718 2 47.5301 7.90833 12.1199
719 2 51.4744 8.17443 12.1302
720 2 55.3246 8.12437 12.1082
721 2 0.0841887 11.9718 12.0833
722 2 4.10409 11.8568 12.0183
723 2 7.82037 12.0053 12.1822
724 2 11.703 11.9252 12.2009
725 2 15.7694 12.0233 12.1146
726 2 19.8211 11.7901 12.0465
727 2 23.6632 11.9501 12.1222
728 2 27.5859 11.9846 12.0737
729 2 31.5002 11.8512 12.2779
730 2 35.5457 11.8277 12.161
731 2 39.3694 11.7118 12.0531
732 2 43.4029 11.841 12.252
733 2 47.4572 11.9722 12.3156
734 2 51.4023 11.9393 12.1491
735 2 55.5316 11.9772 12.0825
736 2 -0.0505886 15.858 12.2007
737 2 3.91006 15.7526 12.1496
738 2 7.71925 15.7599 12.1607
739 2 11.8804 15.948 12.282
740 2 15.8448 16.0649 12.2859
741 2 19.8199 15.8147 12.0824
742 2 23.5883 16.0356 12.3101
743 2 27.5684 15.8295 12.1611
744 2 31.5885 15.8103 12.3084
745 2 35.5028 15.8244 12.3241
746 2 39.4565 15.8802 12.1736
747 2 43.2727 15.8716 12.127
748 2 47.3735 15.8473 12.3055
749 2 51.2811 15.9782 12.282
750 2 55.4233 15.669 12.1477
751 2 0.142908 19.7028 12.0618
752 2 3.74978 19.9386 12.0234
753 2 7.56054 19.8077 12.0649
754 2 11.8771 19.8049 11.9881
755 2 15.796 19.9013 12.3781
756 2 19.8298 19.8149 12.1847
757 2 23.5902 19.8135 12.287
758 2 27.8534 19.8126 12.1326
759 2 31.6853 19.7306 12.197
760 2 35.7095 19.7249 12.3156
761 2 39.4159 19.787 12.1027
762 2 43.4367 19.6786 12.0292
763 2 47.5041 19.8327 12.1919
764 2 51.321 19.9443 12.2296
765 2 55.366 19.8473 12.004
766 2 -0.285874 23.6428 12.1788
767 2 3.80448 23.663 11.9953
768 2 7.8555 23.6552 11.9582
769 2 11.9028 23.816 12.1939
770 2 15.793 23.8306 12.3817
771 2 19.7757 23.6667 12.2752
772 2 23.6606 23.8758 12.223
773 2 27.5223 23.6998 12.2532
774 2 31.5706 23.7231 12.2334
775 2 35.5066 23.5964 12.2487
776 2 39.4462 23.6207 12.1486
777 2 43.3595 23.7208 12.2653
778 2 47.2104 23.8072 12.1092
779 2 51.4383 23.6455 12.0584
780 2 55.3113 23.4772 12.1629
781 2 -0.213804 27.8037 12.0344
782 2 3.89409 27.5691 12.0744
783 2 7.71946 27.6079 12.2152
784 2 11.6368 27.6696 12.4164
785 2 15.8713 27.7496 12.1396
786 2 19.6796 27.7464 12.0799
787 2 23.5432 27.7259 12.2919
788 2 27.5473 27.726 12.0964
789 2 31.6452 27.8742 12.2055
790 2 35.3264 27.7263 11.9551
791 2 39.1908 27.625 12.1698
792 2 43.4137 27.7773 12.2773
793 2 47.2498 27.4786 12.172
794 2 51.3607 27.7142 12.2637
795 2 55.3084 27.691 12.1897
796 2 -0.255754 31.7746 12.3479
797 2 3.74887 31.8525 12.1938
798 2 7.94775 31.818 12.2696
799 2 11.6697 31.7258 12.3373
800 2 15.6009 31.5065 12.1446
801 2 19.3266 31.7538 12.0541
802 2 23.3231 31.6311 12.3338
803 2 27.6406 31.705 12.1401
804 2 31.4799 31.7148 12.2678
805 2 35.4326 31.531 12.1996
806 2 39.3531 31.6534 12.2035
807 2 43.301 31.8167 12.05
808 2 47.365 31.6535 12.0902
809 2 51.3566 31.5873 12.2666
810 2 55.4562 31.6893 12.0724
811 2 -0.271737 35.7276 12.3538
812 2 3.89354 35.746 12.1239
813 2 7.68651 35.6449 12.2025
814 2 11.7221 35.9467 12.0752
815 2 15.7422 35.5827 12.3109
816 2 19.6824 35.7857 12.292
817 2 23.5502 35.3761 12.3097
818 2 27.5913 35.6926 12.109
819 2 31.6205 35.5085 12.2577
820 2 35.6618 35.6012 12.2187
821 2 39.6152 35.5508 12.198
822 2 43.5534 35.8056 12.1133
823 2 47.545 35.6121 12.1593
824 2 51.4079 35.7427 12.2851
825 2 55.435 35.5194 12.2842
826 2 -0.214415 39.3642 12.2683
827 2 3.82189 39.6256 12.156
828 2 7.77653 39.8069 12.2378
829 2 11.7366 39.5845 12.1028
830 2 15.6592 39.5333 12.2938
831 2 19.5554 39.5513 12.4474
832 2 23.9143 39.6711 12.0504
833 2 27.7221 39.5153 12.164
834 2 31.7581 39.4293 12.1352
835 2 35.4638 39.5596 12.3011
836 2 39.3392 39.6142 12.1801
837 2 43.4846 39.5128 12.256
838 2 47.6224 39.738 12.4862
839 2 51.3595 39.7016 12.185
840 2 55.3599 39.5923 12.0982
841 2 -0.0586073 43.5398 12.1427
842 2 3.87319 43.7068 12.0938
843 2 7.94634 43.5891 12.133
844 2 12.0572 43.4227 12.1557
845 2 15.8631 43.4196 12.1047
846 2 19.6236 43.535 12.3183
847 2 23.7499 43.4581 12.2502
848 2 27.7073 43.3994 12.2783
849 2 31.4806 43.6212 12.224
850 2 35.5908 43.8475 12.0212
851 2 39.5272 43.6337 12.2104
852 2 43.4017 43.5752 12.2287
853 2 47.3897 43.3709 12.2404
854 2 51.4685 43.5058 12.2543
855 2 55.3548 43.7228 12.1133
856 2 -0.0734591 47.5922 12.2729
857 2 4.00801 47.5494 12.2975
858 2 7.74755 47.4002 12.2709
859 2 11.7682 47.4346 12.2173
860 2 15.6431 47.4602 11.9842
861 2 19.5772 47.5624 12.1989
862 2 23.5031 47.5825 12.249
863 2 27.7264 47.671 12.3297
864 2 31.4883 47.5528 12.1909
865 2 35.6802 47.5775 12.143
866 2 39.5652 47.3306 12.081
867 2 43.4381 47.4449 12.1493
868 2 47.2419 47.5028 12.1796
869 2 51.2361 47.5714 12.2775
870 2 55.3645 47.5577 12.1372
871 2 -0.109856 51.6851 12.1645
872 2 3.85644 51.4544 12.0861
873 2 8.04112 51.2894 12.1856
874 2 11.764 51.3295 12.1718
875 2 15.7018 51.5521 12.1263
876 2 19.8332 51.5116 12.3483
877 2 23.5812 51.5273 11.9691
878 2 27.7247 51.4935 12.2662
879 2 31.7301 51.5878 12.3811
880 2 35.6196 51.4 12.3201
881 2 39.5773 51.5548 12.209
882 2 43.5202 51.4236 12.0822
883 2 47.3502 51.517 12.088
884 2 51.3758 51.7534 11.9759
885 2 55.1537 51.4336 12.3299
886 2 -0.0722923 55.5661 12.2067
887 2 3.77898 55.4512 12.1704
888 2 7.77781 55.3276 12.0885
889 2 11.8514 55.4844 12.0239
890 2 15.6587 55.3595 12.0321
891 2 19.588 55.4923 12.3008
892 2 23.6997 55.4991 11.9708
893 2 27.6222 55.2985 12.2347
894 2 31.5586 55.381 12.1448
895 2 35.4825 55.5949 12.1864
896 2 39.4065 55.5045 12.3269
897 2 43.5118 55.473 12.2554
898 2 47.512 55.2483 12.1109
899 2 51.444 55.5878 12.2171
900 2 55.252 55.4228 12.3858
901 2 59.3376 0.0987158 16.3052
902 2 4.01065 0.0960379 16.2101
903 2 8.07045 -0.00949621 16.016
904 2 11.88 -0.169249 15.9777
905 2 15.7229 0.0176177 15.9266
906 2 19.6103 0.0962889 16.1998
907 2 23.7895 -0.0988988 16.2332
908 2 27.6207 -0.120796 16.1656
909 2 31.4714 -0.012866 16.0244
910 2 35.5832 -0.0252204 16.1676
911 2 39.6518 0.100475 16.0735
912 2 43.4627 0.0534869 16.256
913 2 47.3049 0.0786231 16.0149
914 2 51.1726 0.213874 16.2409
915 2 55.2079 -0.00733617 16.1525
916 2 59.1979 4.19028 16.0394
917 2 3.91509 3.89157 16.1506
918 2 7.90533 4.04224 16.1783
919 2 11.789 4.09355 16.2481
920 2 15.7071 3.92119 16.2104
921 2 19.6366 3.74099 16.3463
922 2 23.5345 3.79135 16.2365
923 2 27.4384 3.86007 16.1619
924 2 31.5709 3.84544 16.1296
925 2 35.7051 3.79972 16.2014
926 2 39.4315 3.82506 16.1813
927 2 43.4951 4.03814 16.2171
928 2 47.2701 4.01327 16.2643
929 2 51.409 4.13794 16.2614
930 2 55.3306 3.92134 16.1353
931 2 59.194 8.06289 16.3011
932 2 3.82558 7.9685 15.981
933 2 7.81481 7.77633 16.0851
934 2 11.9721 7.81744 16.1677
935 2 15.8961 7.78851 16.0514
936 2 19.6672 7.84789 15.9045
937 2 23.4398 7.7973 15.9725
938 2 27.6286 7.87361 16.0998
939 2 31.6099 7.83815 16.1325
940 2 35.4602 7.9955 16.3051
941 2 39.5616 7.93553 16.2104
942 2 43.443 7.78147 16.0358
943 2 47.3111 7.76832 16.1846
944 2 51.4834 7.95612 16.1521
945 2 55.3404 7.7892 16.0677
946 2 59.3012 11.9116 16.2429
947 2 3.94405 11.8571 16.1913
948 2 7.85552 11.8655 16.2002
949 2 11.7635 12.0579 16.1809
950 2 15.7325 11.975 16.2252
951 2 19.7227 11.851 16.1461
952 2 23.8455 11.7297 16.0947
953 2 27.5459 11.7705 16.1818
954 2 31.5427 11.6201 16.0965
955 2 35.3357 11.8756 16.0406
956 2 39.503 11.7898 16.0939
957 2 43.4226 11.8684 15.9676
958 2 47.5026 12.0133 16.2873
959 2 51.4393 11.8414 16.173
960 2 55.3082 11.9588 16.2075
961 2 59.2851 15.7728 16.3199
962 2 3.98577 15.7499 16.1512
963 2 7.98733 15.8947 16.2187
964 2 11.6975 15.8742 16.2975
965 2 15.7179 15.7969 16.2789
966 2 19.6924 15.6823 16.1209
967 2 23.6415 15.825 16.232
968 2 27.7203 15.7528 16.1344
969 2 31.6179 15.6496 16.2904
970 2 35.6855 15.8867 16.3058
971 2 39.3842 15.7991 16.2847
972 2 43.2683 15.8695 16.1058
973 2 47.4508 15.9465 16.1798
974 2 51.3669 15.9679 16.1534
975 2 55.3605 16.0205 16.028
976 2 59.2445 19.5849 16.0485
977 2 3.88303 19.8141 16.1941
978 2 7.90033 19.612 16.0338
979 2 11.8076 19.8961 16.1159
980 2 15.7516 19.7963 16.1371
981 2 19.8569 19.6874 16.1725
982 2 23.8223 19.5763 16.2145
983 2 27.8738 19.7026 16.124
984 2 31.5728 19.6855 16.2146