ITEM: TIMESTEP
49900
ITEM: NUMBER OF ATOMS
14625
ITEM: BOX BOUNDS xy xz yz pp pp pp
0.0000000000000000e+00 5.9369999999999997e+01 0.0000000000000000e+00
0.0000000000000000e+00 5.9369999999999997e+01 0.0000000000000000e+00
-5.7705125017317727e-02 5.1797705125016790e+01 0.0000000000000000e+00
ITEM: ATOMS id type x y z
1 2 0.104239 -0.114075 0.309512
2 2 4.03904 0.0764719 0.156023
3 2 8.18226 -0.162256 0.268415
4 2 12.0099 0.175226 0.233445
5 2 16.0487 0.145777 0.159104
6 2 19.9455 -0.0435681 0.207004
7 2 23.835 -0.0245501 0.118689
8 2 27.7854 -0.077259 0.314928
9 2 31.6134 -0.00642905 0.134751
10 2 35.4992 0.269086 0.0502534
11 2 39.5577 0.0456412 0.273099
12 2 43.5333 -0.0716709 0.155067
13 2 47.4146 0.190876 0.297946
14 2 51.6352 0.169444 0.186707
15 2 55.4588 0.0347097 0.285143
16 2 0.123913 4.00235 0.187177
17 2 4.00394 3.959 0.267087
18 2 7.91152 4.05576 0.218985
19 2 11.9725 4.05064 0.213425
20 2 15.8358 3.86722 0.304483
21 2 19.7707 3.93422 0.165521
22 2 23.7998 4.0447 0.22867
23 2 27.7113 3.89603 0.203302
24 2 31.8422 3.9144 0.259458
25 2 35.7552 4.19936 0.170498
26 2 39.5969 4.16426 0.285069
27 2 43.5875 4.05199 0.0411996
28 2 47.4897 4.21595 0.152395
29 2 51.5634 4.13361 0.172359
30 2 55.5166 4.27051 0.200275
31 2 0.18928 7.9734 0.304648
32 2 4.13721 7.80008 0.238554
33 2 7.96568 8.12415 0.433523
34 2 11.852 7.92346 0.221597
35 2 15.8624 7.98509 0.0248775
36 2 19.7343 8.03307 0.123064
37 2 23.7129 7.76546 0.184468
38 2 27.7004 7.83682 0.0363744
39 2 31.6329 8.10177 0.104153
40 2 35.6447 8.10507 0.193981
41 2 39.6899 8.07182 0.196794
42 2 43.8907 8.01104 0.205646
43 2 47.5883 8.2466 0.146747
44 2 51.4915 7.86835 0.323465
45 2 55.5327 7.99468 0.458531
46 2 0.0852473 11.8599 0.320104
47 2 4.05434 12.005 0.241655
48 2 7.94616 11.9594 0.194842
49 2 11.9263 11.7565 0.288052
50 2 15.9637 11.8565 0.281848
51 2 19.8493 11.9985 0.214133
52 2 23.7995 11.8076 0.342182
53 2 27.7793 11.8088 0.292436
54 2 31.7998 11.855 0.0418722
55 2 35.7627 11.8814 0.147626
56 2 39.5571 11.88 0.0520537
57 2 43.6974 11.9701 0.199017
58 2 47.6339 12.1652 0.148608
59 2 51.5648 12.0923 0.150666
60 2 55.7366 12.0607 0.0554588
61 2 0.275902 16.0802 0.200392
62 2 4.22175 16.0238 0.273627
63 2 8.0252 15.6438 0.214332
64 2 11.8001 15.8538 0.198185
65 2 15.9818 15.8181 0.0399084
66 2 19.9128 15.8345 0.278587
67 2 23.794 15.8296 0.189635
68 2 27.6085 15.7713 0.331007
69 2 31.6258 15.8658 0.258473
70 2 35.5601 15.69 0.294726
71 2 39.4999 15.9173 0.278594
72 2 43.5069 15.7298 0.28349
73 2 47.6017 16.087 0.0254219
74 2 51.6777 15.8466 0.177913
75 2 55.3989 16.072 0.150818
76 2 -0.0448634 19.8982 0.267496
77 2 3.97408 19.9146 0.271939
78 2 8.26856 19.7645 0.178273
79 2 11.9885 19.7956 0.337628
80 2 15.8558 19.9966 0.209301
81 2 19.795 19.7453 0.149641
82 2 23.7771 20.0399 0.325616
83 2 27.6129 19.7954 0.115561
84 2 31.6431 19.9587 0.306135
85 2 35.5813 19.6529 0.19364
86 2 39.8123 19.8443 0.221877
87 2 43.777 19.9616 0.204165
88 2 47.7258 19.9834 0.220276
89 2 51.67 19.7447 0.11068
90 2 55.5341 20.0492 0.0969165
91 2 0.0945714 23.7839 0.113624
92 2 3.93516 23.7852 0.351537
93 2 7.74692 23.74 0.142859
94 2 11.8168 24.0277 0.319451
95 2 15.714 23.9337 0.202103
96 2 19.592 23.7238 0.226653
97 2 23.7689 23.9504 0.4047
98 2 27.5826 23.8151 0.0793912
99 2 31.6628 23.6947 0.0966894
100 2 35.7545 23.8438 -0.0525504
101 2 39.5878 24.0103 0.0695797
102 2 43.5673 24.043 0.366857
103 2 47.5927 23.8374 0.230799
104 2 51.3511 23.9716 0.12079
105 2 55.3197 23.7796 0.146953
106 2 0.06111 27.6636 0.281196
107 2 3.96888 27.7283 0.0522657
108 2 7.92263 27.9011 0.194895
109 2 11.8531 27.6662 0.141703
110 2 15.9318 27.9299 0.30971
111 2 19.7715 27.6667 0.343295
112 2 23.6951 27.9727 0.0805215
113 2 27.6743 27.6476 0.205614
114 2 31.5815 27.8747 0.264932
115 2 35.5436 27.7759 0.390518
116 2 39.5069 27.7807 0.157776
117 2 43.2993 27.8563 0.18665
118 2 47.3497 27.8284 0.223482
119 2 51.5037 27.8787 0.210958
120 2 55.4628 27.7857 0.0941042
121 2 0.172091 31.5851 0.174866
122 2 3.95536 31.7849 0.271211
123 2 8.11271 31.7908 0.16391
124 2 11.8409 31.6685 0.271798
125 2 15.9113 31.7014 0.0810423
126 2 19.9235 31.7064 0.231047
127 2 23.8138 31.7151 0.227152
128 2 27.7287 31.8602 0.199299
129 2 31.8329 31.6298 0.24539
130 2 35.6538 31.7743 0.0445831
131 2 39.5493 31.5655 0.242782
132 2 43.5539 31.9203 0.238965
133 2 47.3636 31.8358 0.39763
134 2 51.5077 31.7621 0.200382
135 2 55.6451 31.8994 0.354009
136 2 0.048016 35.7639 0.213766
137 2 4.15323 35.7075 0.0499944
138 2 8.20041 35.5693 0.24702
139 2 12.2 35.4783 0.133246
140 2 15.8536 35.5256 0.125225
141 2 19.9073 35.6718 0.130988
142 2 23.956 35.6882 -0.0431974
143 2 27.575 35.6533 0.159427
144 2 31.9483 35.6132 -0.0187498
145 2 35.7241 35.5124 0.18508
146 2 39.5522 35.6659 0.113967
147 2 43.4575 35.7135 0.20202
148 2 47.6908 35.661 0.0830518
149 2 51.7444 35.6936 0.244146
150 2 55.6481 35.6452 0.256279
151 2 0.172113 39.67 0.241492
152 2 4.00648 39.5158 0.296896
153 2 7.98294 39.5934 0.200789
154 2 12.103 39.5903 0.274583
155 2 15.7632 39.6948 0.359633
156 2 19.9439 39.6627 0.354754
157 2 23.8781 39.5766 0.278112
158 2 27.9136 39.4801 0.351551
159 2 31.8403 39.5982 0.259474
160 2 35.793 39.5957 0.301371
161 2 39.6144 39.7443 0.108415
162 2 43.6344 39.689 0.140889
163 2 47.7633 39.7009 0.142489
164 2 51.5288 39.6213 0.115447
165 2 55.601 39.5793 0.157354
166 2 0.0289447 43.7284 0.183361
167 2 4.20518 43.6405 0.319804
168 2 8.13488 43.6559 0.0957773
169 2 12.0119 43.5116 0.140432
170 2 16.0818 43.6735 0.218075
171 2 19.6947 43.4901 0.227985
172 2 23.7798 43.4254 0.106755
173 2 27.8137 43.2124 0.369805
174 2 31.7145 43.7885 0.128884
175 2 35.7942 43.5972 0.252883
176 2 39.8502 43.604 0.23428
177 2 43.5015 43.5744 0.159218
178 2 47.577 43.6537 0.148316
179 2 51.5177 43.4619 0.194556
180 2 55.3836 43.7382 0.227631
181 2 0.0390431 47.6467 0.125041
182 2 4.0894 47.4555 0.204673
183 2 8.14479 47.4053 0.081132
184 2 12.0045 47.5217 0.238253
185 2 16.001 47.5734 0.194125
186 2 20.0131 47.418 0.167769
187 2 23.7253 47.6204 0.25723
188 2 27.5518 47.365 0.238222
189 2 31.7105 47.6348 0.185217
190 2 35.723 47.4665 0.0873153
191 2 39.5243 47.6089 0.139508
192 2 43.5383 47.6427 0.362771
193 2 47.7791 47.5763 0.297871
194 2 51.6935 47.534 0.0917495
195 2 55.6272 47.607 0.428763
196 2 0.162573 51.7839 0.0775263
197 2 3.92055 51.54 0.210583
198 2 7.96507 51.1899 0.1546
199 2 12.0759 51.4929 0.0668581
200 2 15.806 51.2634 0.186338
201 2 19.7481 51.5153 0.190694
202 2 23.7874 51.6102 0.290096
203 2 27.7636 51.4543 -0.0883417
204 2 31.7113 51.55 0.326962
205 2 35.6363 51.586 0.053937
206 2 39.6192 51.6442 0.111246
207 2 43.7801 51.7433 0.103676
208 2 47.6116 51.4677 0.185632
209 2 51.6513 51.4663 0.155714
210 2 55.4097 51.7819 0.185987
211 2 -0.137662 55.4913 0.224557
212 2 4.16759 55.5095 0.0761171
213 2 7.99784 55.4506 0.169206
214 2 12.1782 55.3091 0.18394
215 2 15.8553 55.26 0.322571
216 2 19.8232 55.4799 0.269352
217 2 23.9676 55.3125 0.205116
218 2 27.8128 55.4613 0.299852
219 2 31.6976 55.5427 0.0935219
220 2 35.7578 55.4557 0.242918
221 2 39.6942 55.3599 0.16302
222 2 43.5677 55.5335 0.17797
223 2 47.587 55.5654 0.263567
224 2 51.4594 55.3784 0.23382
225 2 55.2717 55.5092 0.1667
226 2 0.151335 0.0706968 4.20969
227 2 3.90254 0.0728945 4.21625
228 2 7.95845 0.0111247 4.36605
229 2 11.7284 -0.00719371 4.35777
230 2 15.9245 -0.100421 4.18957
231 2 19.9198 -0.207941 4.2284
232 2 23.8256 -0.167441 4.27082
233 2 27.7923 0.137604 4.21359
234 2 31.7396 0.259597 4.1546
235 2 35.4313 -0.0270381 4.20543
236 2 39.5143 0.197738 4.16321
237 2 43.5504 -0.0792523 4.21154
238 2 47.3974 0.13243 4.14436
239 2 51.3849 0.117748 4.20763
240 2 55.4431 -0.0179405 4.18311
241 2 0.0125003 4.06801 4.1473
242 2 3.96489 4.05221 4.19125
243 2 8.10258 4.11734 4.19023
244 2 11.9852 3.90695 4.218
245 2 15.9997 3.98717 4.27993
246 2 19.7398 4.02135 4.36468
247 2 23.6667 3.80367 4.30332
248 2 27.6811 3.93268 4.18586
249 2 31.5685 4.02718 4.08415
250 2 35.5226 4.11009 4.08731
251 2 39.7007 4.10366 4.10429
252 2 43.5176 4.07346 4.2264
253 2 47.4037 4.19542 4.1264
254 2 51.324 3.96158 4.09482
255 2 55.4564 3.92318 4.19549
256 2 0.0950353 8.03566 4.18996
257 2 3.98439 7.92378 4.35524
258 2 7.9359 7.98758 4.23604
259 2 12.0982 7.77312 4.01132
260 2 15.8828 8.0034 4.15197
261 2 19.7723 8.05947 3.98307
262 2 24.0447 7.7822 4.0823
263 2 27.7563 7.88722 4.20726
264 2 31.8083 8.00469 4.03626
265 2 35.458 7.85692 4.10728
266 2 39.4651 8.11208 4.14383
267 2 43.503 8.06665 4.09042
268 2 47.6669 8.10082 4.15912
269 2 51.4055 8.18007 4.17649
270 2 55.3779 8.13027 4.30729
271 2 0.229562 12.0396 4.13288
272 2 4.12613 11.7288 4.3202
273 2 8.10416 11.8684 4.2459
274 2 12.1561 11.9994 4.19712
275 2 16.0525 11.9159 4.40373
276 2 19.9035 11.9115 4.05134
277 2 23.6182 11.7021 4.30373
278 2 27.7562 11.9059 4.20089
279 2 31.6776 11.8899 4.28889
280 2 35.7472 11.7821 4.11984
281 2 39.7017 12.1057 4.17705
282 2 43.4515 12.0399 4.17749
283 2 47.6602 11.9564 4.28007
284 2 51.4105 11.9503 4.23975
285 2 55.4064 11.881 3.95051
286 2 -0.0982014 15.7938 4.14207
287 2 3.91457 15.9609 4.30764
288 2 8.00919 15.9201 4.21715
289 2 11.9962 15.8916 4.31184
290 2 15.8496 16.0333 4.19333
291 2 19.9697 15.9528 4.22536
292 2 23.7133 15.8142 4.26939
293 2 27.611 15.8111 4.06926
294 2 31.7478 15.9834 4.18845
295 2 35.5188 15.8038 4.22766
296 2 39.373 16.0251 4.13699
297 2 43.5702 15.9655 4.12788
298 2 47.4206 15.9269 4.26144
299 2 51.4545 15.8887 4.17895
300 2 55.4275 16.0014 4.20451
301 2 0.0661218 19.9965 4.34061
302 2 4.00451 19.8089 4.12098
303 2 7.95544 19.7668 4.21621
304 2 11.8543 19.686 4.27748
305 2 15.96 19.9914 4.13577
306 2 19.9725 19.755 4.18294
307 2 23.81 19.999 4.2167
308 2 27.6962 19.6839 4.13502
309 2 31.4596 19.8588 4.15825
310 2 35.5649 19.8533 4.13087
311 2 39.5205 20.0742 4.04361
312 2 43.194 19.8564 4.34671
313 2 47.5267 19.851 4.14417
314 2 51.4266 19.9961 4.08955
315 2 55.4215 19.8051 4.40089
316 2 -0.0391589 23.8859 4.28598
317 2 3.91544 23.9367 4.17327
318 2 7.80749 23.7016 4.08334
319 2 11.7591 23.8593 4.20055
320 2 15.7394 23.9042 4.28091
321 2 19.8774 23.7881 4.4098
322 2 23.883 23.8362 4.26422
323 2 27.766 23.6122 4.21922
324 2 31.5264 23.6914 4.12762
325 2 35.7722 23.7421 4.14746
326 2 39.6394 23.9505 4.15877
327 2 43.6767 23.9186 4.09147
328 2 47.435 23.7437 4.4142
329 2 51.5819 23.8533 4.20874
330 2 55.5232 23.74 4.31307
331 2 -0.139687 27.6081 4.4052
332 2 3.94395 27.7971 4.09375
333 2 7.96844 27.9331 4.27655
334 2 11.8292 27.6016 4.35362
335 2 15.8148 27.949 4.30633
336 2 19.7562 27.7658 4.25612
337 2 23.8098 27.9329 4.22004
338 2 27.5785 27.7982 4.28619
339 2 31.5374 27.8051 4.32771
340 2 35.5966 27.6275 4.20884
341 2 39.4067 27.816 4.08389
342 2 43.6986 27.7493 4.22864
343 2 47.5096 27.9198 4.24197
344 2 51.5759 27.6429 4.19132
345 2 55.2366 27.5221 4.07892
346 2 0.213847 31.7243 4.25596
347 2 4.00266 31.7559 4.1693
348 2 8.09479 31.8321 4.11206
349 2 11.8968 31.7453 4.14871
350 2 15.6484 31.5963 4.35697
351 2 19.8974 31.9045 4.20094
352 2 23.7801 31.8438 4.17215
353 2 27.7935 31.7459 4.30868
354 2 31.6284 31.7117 4.24773
355 2 35.665 31.7906 4.14089
356 2 39.5524 31.5341 4.47626
357 2 43.5918 31.8684 4.37265
358 2 47.5716 31.5888 4.01436
359 2 51.4379 31.8096 4.20834
360 2 55.3526 31.7669 4.31003
361 2 -0.016593 35.5808 4.14257
362 2 3.98062 35.6686 4.14723
363 2 7.85979 35.7848 4.23691
364 2 11.8244 35.8348 4.07687
365 2 15.8373 35.7278 4.34329
366 2 19.9472 35.8622 4.14724
367 2 23.9044 35.6399 4.26862
368 2 27.8511 35.6627 4.20889
369 2 31.912 35.4527 4.16037
370 2 35.7192 35.723 4.12175
371 2 39.8913 35.7093 4.24097
372 2 43.6312 35.6415 4.17951
373 2 47.6841 35.9021 3.94065
374 2 51.5485 35.8977 4.1773
375 2 55.5273 35.8076 4.34557
376 2 -0.0020523 39.7758 4.2004
377 2 3.83026 39.6338 4.29592
378 2 7.83186 39.6055 4.36052
379 2 11.8857 39.8852 4.16322
380 2 16.0024 39.7051 4.28252
381 2 19.8529 39.712 4.25089
382 2 23.8682 39.6269 4.29425
383 2 27.8431 39.7035 4.21435
384 2 31.7643 39.6256 4.22566
385 2 35.7431 39.7918 4.23187
386 2 39.7138 39.6482 4.24288
387 2 43.5381 39.6657 3.8942
388 2 47.4895 39.7962 4.05423
389 2 51.4649 39.7724 4.21197
390 2 55.5278 39.7267 4.15537
391 2 0.0795195 43.7115 4.25551
392 2 4.12009 43.5815 4.24176
393 2 8.08267 43.689 4.17733
394 2 11.9083 43.5953 4.30242
395 2 15.7497 43.7645 4.21556
396 2 19.784 43.6452 4.1677
397 2 23.7267 43.5982 4.32429
398 2 27.6685 43.4023 4.25706
399 2 31.7405 43.4778 4.23379
400 2 35.5043 43.5384 4.0874
401 2 39.7168 43.6481 4.16369
402 2 43.6809 43.7156 4.18547
403 2 47.696 43.6278 4.10811
404 2 51.6377 43.7251 4.28088
405 2 55.6398 43.6373 4.30903
406 2 0.106457 47.3886 4.2951
407 2 4.03987 47.5472 4.25788
408 2 8.04545 47.6066 4.01915
409 2 12.0302 47.5717 4.41423
410 2 15.8134 47.5248 4.2228
411 2 19.8261 47.5888 4.2716
412 2 24.0359 47.4212 4.08983
413 2 27.9947 47.5239 4.20031
414 2 31.9064 47.2761 4.09776
415 2 35.7712 47.4238 4.34141
416 2 39.6794 47.7391 4.25914
417 2 43.5571 47.6687 4.22157
418 2 47.6531 47.7063 4.23541
419 2 51.6323 47.6497 4.39906
420 2 55.5483 47.7017 4.22064
421 2 -0.045754 51.7462 4.29577
422 2 4.1841 51.5112 4.09428
423 2 8.12961 51.6026 3.94475
424 2 11.8513 51.2913 4.31857
425 2 15.9145 51.5976 4.20144
426 2 19.8334 51.4797 4.1881
427 2 23.742 51.4798 4.26699
428 2 27.801 51.6718 4.08578
429 2 31.5584 51.5186 4.32808
430 2 35.3411 51.6056 4.15701
431 2 39.3652 51.6099 4.13848
432 2 43.412 51.3672 4.23232
433 2 47.5431 51.6637 4.03294
434 2 51.3668 51.5651 4.13263
435 2 55.4589 51.5964 4.19859
436 2 0.0748828 55.5494 4.19276
437 2 4.16078 55.4442 4.16517
438 2 8.02953 55.3404 4.03095
439 2 11.9841 55.662 4.16883
440 2 15.8767 55.4614 4.32259
441 2 19.9957 55.2857 4.22907
442 2 23.8568 55.3236 4.28182
443 2 27.8188 55.6317 4.44069
444 2 31.7424 55.7865 4.0961
445 2 35.7583 55.668 4.02604
446 2 39.598 55.5486 4.08533
447 2 43.5839 55.4244 4.18037
448 2 47.5074 55.5722 4.29008
449 2 51.3865 55.5353 4.14646
450 2 55.5279 55.5456 4.24241
451 2 0.0393446 0.0835684 8.13871
452 2 3.86486 0.085263 8.26553
453 2 8.01064 0.206955 8.15148
454 2 11.8839 0.276744 8.10829
455 2 15.8478 0.324728 8.09479
456 2 19.5996 0.0532271 8.17518
457 2 23.7134 -0.123658 8.52192
458 2 27.6393 0.109145 8.28746
459 2 31.6067 0.188279 8.07881
460 2 35.5143 -0.0688635 8.22613
461 2 39.7602 0.0156695 8.22761
462 2 43.5767 -0.0325168 8.23588
463 2 47.5427 0.0778406 8.22757
464 2 51.3202 0.110555 8.17256
465 2 55.4025 -0.239509 8.05033
466 2 -0.0423656 4.03089 8.15985
467 2 3.8718 3.84487 8.16388
468 2 7.9472 4.00127 8.23672
469 2 12.0963 4.08493 8.334
470 2 15.9113 4.16508 8.25504
471 2 19.9434 3.86576 8.2958
472 2 23.7854 4.0469 8.27333
473 2 27.7253 3.93609 8.23901
474 2 31.715 4.05946 8.07282
475 2 35.7074 3.94492 8.2349
476 2 39.5406 4.17275 8.21349
477 2 43.3822 3.92685 8.03736
478 2 47.4223 4.2129 7.99372
479 2 51.3465 4.20925 7.89733
480 2 55.274 3.86503 8.26692
481 2 -0.121198 7.96056 8.17873
482 2 3.85903 7.8009 8.26865
483 2 7.8537 7.9911 8.15116
484 2 11.7933 7.98073 8.20466
485 2 15.7626 8.02406 8.41023
486 2 19.9726 8.11276 8.28413
487 2 23.7426 7.78066 8.257
488 2 27.6229 8.02846 8.02074
489 2 31.4889 7.93382 8.0639
490 2 35.74 7.99441 8.13773
491 2 39.7782 7.88732 8.25651
492 2 43.5444 8.20983 8.11535
493 2 47.4523 8.17285 8.07942
494 2 51.4674 7.83036 8.08805
495 2 55.3597 7.95398 8.18591
496 2 0.00758123 11.9385 8.13898
497 2 4.00232 12.2037 8.10186
498 2 7.89864 11.7958 8.11484
499 2 11.7981 12.09 8.22914
500 2 15.8909 11.9402 8.30606
501 2 19.8731 11.9985 8.10416
502 2 23.8439 11.9626 8.22776
503 2 27.6921 11.8207 8.32975
504 2 31.6826 11.9555 8.10579
505 2 35.4602 11.9606 8.27945
506 2 39.406 11.9621 8.16663
507 2 43.4645 12.149 8.04173
508 2 47.4091 12.0233 8.14746
509 2 51.4227 11.8527 8.19033
510 2 55.312 11.9812 8.03709
511 2 0.00796924 15.9885 8.22912
512 2 3.82149 15.8165 8.12937
513 2 7.86585 15.9473 8.29295
514 2 11.8895 15.8164 8.07072
515 2 15.8831 15.8358 8.21072
516 2 19.621 16.0222 7.94073
517 2 23.5586 16.052 8.35634
518 2 27.7586 15.9474 8.24594
519 2 31.6904 15.9334 8.04423
520 2 35.6176 15.761 8.23865
521 2 39.4756 16.0343 8.19703
522 2 43.3559 16.0502 8.22324
523 2 47.3232 15.8759 8.17342
524 2 51.3896 15.8526 8.21241
525 2 55.4336 15.8449 8.08927
526 2 0.0261471 19.892 8.19051
527 2 3.77885 19.8503 8.08832
528 2 8.02042 19.9319 8.31502
529 2 11.9039 19.909 8.28339
530 2 15.9288 19.8924 8.14862
531 2 19.6371 20.0172 8.20909
532 2 23.6474 19.7859 8.17637
533 2 27.6105 19.8245 8.19801
534 2 31.6252 19.8673 8.20645
535 2 35.5571 19.9534 8.09949
536 2 39.4298 19.999 8.04142
537 2 43.549 19.9395 8.17081
538 2 47.4192 19.8338 7.82938
539 2 51.2163 19.7708 7.8746
540 2 55.3587 19.8513 8.1891
541 2 -0.0449785 23.6981 8.30917
542 2 3.78298 23.9086 8.11698
543 2 7.59953 23.8063 8.03067
544 2 11.8302 23.8766 8.27371
545 2 15.7655 23.8361 8.43805
546 2 19.9242 23.958 8.22162
547 2 23.7438 23.8595 8.07228
548 2 27.8362 24.0665 8.01804
549 2 31.623 23.8343 8.10612
550 2 35.5307 23.7252 8.18561
551 2 39.4237 23.7863 7.93487
552 2 43.5466 24.0449 8.21132
553 2 47.4004 24.0894 8.19546
554 2 51.3594 23.9125 8.16868
555 2 55.1824 23.6849 8.24453
556 2 0.0475872 27.8249 8.28664
557 2 3.88341 27.7193 8.29875
558 2 8.00708 27.5868 8.28093
559 2 11.7805 27.7561 8.43397
560 2 15.8077 27.84 8.408
561 2 19.7478 27.7282 8.23757
562 2 23.633 27.9533 8.2396
563 2 27.8402 27.8292 8.21593
564 2 31.6999 28.0083 8.24724
565 2 35.6341 27.8208 8.18942
566 2 39.5476 27.6176 8.35707
567 2 43.3839 27.8561 8.2115
568 2 47.4182 27.9873 8.13079
569 2 51.7774 27.7757 8.04202
570 2 55.5319 27.7275 8.23674
571 2 0.109104 31.7632 8.07203
572 2 3.99156 31.7198 8.21156
573 2 8.0169 31.7855 8.1651
574 2 11.9643 31.8332 8.0205
575 2 15.7206 31.7472 8.28735
576 2 19.9193 31.9107 8.25278
577 2 23.7042 31.6868 8.09378
578 2 27.7375 31.8331 8.32139
579 2 31.7421 31.8878 8.21915
580 2 35.6966 31.864 8.23613
581 2 39.7571 31.7337 8.30991
582 2 43.6024 31.695 8.23659
583 2 47.5607 31.7523 8.16333
584 2 51.3462 31.9314 7.96797
585 2 55.4925 31.5344 8.16945
586 2 0.0496045 35.7031 8.30766
587 2 3.84973 35.5844 8.17052
588 2 7.72836 35.7652 8.22596
589 2 11.8401 35.6696 8.06456
590 2 15.6621 35.5661 8.14514
591 2 19.8267 35.7292 8.25094
592 2 23.8316 35.6156 8.30367
593 2 27.817 35.9131 8.09306
594 2 31.7529 35.7021 8.16084
595 2 35.7209 35.6417 8.12815
596 2 39.6198 35.7524 8.15672
597 2 43.5188 35.8171 8.25913
598 2 47.1733 35.7236 8.04242
599 2 51.3642 35.7567 8.24329
600 2 55.3589 35.6284 8.32454
601 2 0.094261 39.6341 8.36917
602 2 3.86374 39.714 8.13157
603 2 7.91922 39.5768 8.42824
604 2 11.8175 39.6964 8.0206
605 2 15.9062 39.5879 8.27447
606 2 19.8819 39.4959 8.09151
607 2 23.7108 39.5589 8.26365
608 2 27.6408 39.704 8.39304
609 2 31.6534 39.6404 8.11313
610 2 35.6705 39.6873 7.98309
611 2 39.6971 39.7943 8.04954
612 2 43.5675 40.0299 7.88239
613 2 47.6017 39.6769 8.14605
614 2 51.356 39.8601 8.25696
615 2 55.224 39.7001 8.18684
616 2 0.0927535 43.6307 8.31928
617 2 3.91874 43.7273 8.24336
618 2 7.90994 43.7051 8.20905
619 2 11.9939 43.5996 8.0485
620 2 15.836 43.4556 8.22696
621 2 19.7613 43.5714 8.25948
622 2 23.8074 43.74 8.31064
623 2 27.6391 43.3765 8.25519
624 2 31.6994 43.5979 8.28381
625 2 35.571 43.5001 8.07441
626 2 39.4252 43.7832 8.27906
627 2 43.4938 43.6657 8.26979
628 2 47.4463 43.729 8.07056
629 2 51.4266 43.7178 8.12971
630 2 55.4988 43.647 8.19581
631 2 0.0523719 47.6701 8.10501
632 2 3.76488 47.8506 8.05324
633 2 7.93352 47.8445 8.22556
634 2 11.7567 47.6258 8.22859
635 2 15.8728 47.4159 8.15709
636 2 19.8736 47.5883 8.23533
637 2 23.8338 47.4854 8.28244
638 2 27.8804 47.5789 8.32634
639 2 31.5725 47.5185 8.27569
640 2 35.6496 47.5543 8.04664
641 2 39.4325 47.6606 8.27252
642 2 43.5628 47.4491 8.05944
643 2 47.3337 47.6059 8.20845
644 2 51.3419 47.632 8.11103
645 2 55.4093 47.7867 8.09631
646 2 0.0479307 51.7512 8.04947
647 2 3.91553 51.7676 7.97487
648 2 7.75965 51.6475 8.24111
649 2 11.8717 51.6953 8.04108
650 2 15.6009 51.3911 8.18377
651 2 19.764 51.5245 8.16688
652 2 23.8396 51.3674 8.22147
653 2 27.6969 51.4358 8.36456
654 2 31.5966 51.5974 8.13728
655 2 35.3917 51.5555 8.14486
656 2 39.4936 51.5386 8.04742
657 2 43.4608 51.5323 8.08045
658 2 47.43 51.6242 8.15913
659 2 51.327 51.4647 8.28905
660 2 55.5599 51.6203 8.04675
661 2 -0.00339323 55.4749 8.05646
662 2 4.10227 55.5912 8.26462
663 2 7.86006 55.5637 8.22841
664 2 11.8532 55.628 8.37907
665 2 15.7392 55.5552 8.04957
666 2 19.6924 55.3748 8.34801
667 2 23.8697 55.5683 8.18788
668 2 27.5793 55.4344 8.46088
669 2 31.4912 55.5754 8.29255
670 2 35.5156 55.3397 8.23073
671 2 39.5262 55.515 8.20745
672 2 43.538 55.4877 8.17088
673 2 47.5472 55.3362 8.14038
674 2 51.491 55.4264 8.03535
675 2 55.2154 55.3433 8.18893
676 2 -0.0599432 0.250898 12.1305
677 2 3.86352 0.0948126 12.2538
678 2 7.93177 -0.0842666 12.2725
679 2 12.0114 0.0958364 12.3252
680 2 15.8214 -0.0189307 12.1651
681 2 19.6942 0.034978 12.1578
682 2 23.8096 0.0278961 12.4
683 2 27.7184 0.162507 12.2915
684 2 31.8866 0.329579 12.1033
685 2 35.8185 0.0231665 12.0757
686 2 39.4709 0.0555592 11.9627
687 2 43.5595 0.21649 12.2474
688 2 47.4048 0.0376627 12.2007
689 2 51.2251 0.138094 12.0509
690 2 55.1628 0.0421528 12.2465
691 2 0.0974204 4.18169 12.163
692 2 4.03526 3.99687 12.3229
693 2 7.97261 4.00384 12.2786
694 2 11.9267 4.02526 12.1497
695 2 15.9971 4.08599 12.1268
696 2 19.7989 4.22322 12.1195
697 2 23.6255 3.89986 12.307
698 2 27.5965 3.99873 12.1428
699 2 31.6148 4.19463 12.1073
700 2 35.4785 4.05293 12.2558
701 2 39.31 4.13182 12.1104
702 2 43.5697 3.99804 12.2528
703 2 47.2357 3.95392 11.9631
704 2 51.3524 4.10469 11.8956
705 2 55.3392 3.91892 12.2669
706 2 -0.0872797 8.03777 12.0569
707 2 3.87489 7.97784 12.0067
708 2 7.80667 8.24258 12.1369
709 2 11.7117 8.07874 12.1827
710 2 15.7216 7.92225 12.3356
711 2 19.7716 8.23446 12.1647
712 2 23.7262 7.96049 12.264
713 2 27.5001 8.15455 12.0832
714 2 31.6488 7.96002 12.1978
715 2 35.6085 7.89946 12.2537
716 2 39.4268 8.01733 12.1152
717 2 43.3975 7.93211 12.2157
718 2 47.4412 7.88272 11.9796
719 2 51.2671 7.82425 12.2926
720 2 55.4302 7.93867 12.1632
721 2 0.032437 11.8622 12.124
722 2 4.04083 11.938 12.1872
723 2 7.83593 11.7725 11.9236
724 2 11.7152 11.8894 12.3729
725 2 15.8132 11.9296 12.3025
726 2 19.8715 11.958 12.0667
727 2 23.7088 12.134 12.0934
728 2 27.6492 12.1809 12.3288
729 2 31.7323 11.9667 12.1284
730 2 35.7254 12.0143 12.3089
731 2 39.4434 12.0342 12.1614
732 2 43.4736 11.7923 12.1451
733 2 47.534 12.0769 12.0972
734 2 51.3967 11.9018 11.9898
735 2 55.3746 11.6772 12.1513
736 2 -0.182298 15.7649 12.0527
737 2 3.91126 15.8735 12.0644
738 2 7.881 15.8963 12.2891
739 2 11.8071 15.6634 12.2183
740 2 15.7171 15.9708 12.2128
741 2 19.6752 15.7434 12.3127
742 2 23.741 16.1427 12.0701
743 2 27.6853 15.9256 12.2095
744 2 31.7764 16.0533 12.0956
745 2 35.5805 15.9943 12.2261
746 2 39.4552 15.8106 12.1626
747 2 43.379 15.9401 12.1059
748 2 47.5098 15.9595 12.0652
749 2 51.3912 16.0788 12.0726
750 2 55.1851 15.8309 12.1703
751 2 -0.0513167 19.8954 12.1283
752 2 3.84311 19.8251 12.1201
753 2 7.65814 19.801 12.0615
754 2 11.7724 19.8809 12.2737
755 2 15.7362 19.9227 12.2256
756 2 19.6644 20.0316 12.2775
757 2 23.763 19.9434 12.1212
758 2 27.5632 20.0127 12.1877
759 2 31.5582 20.0834 12.1704
760 2 35.5317 20.0066 12.3062
761 2 39.3779 19.7759 11.799
762 2 43.3872 20.1102 12.1681
763 2 47.4177 19.8501 11.9657
764 2 51.3265 19.6882 12.0179
765 2 55.1924 19.7392 12.0543
766 2 0.0165497 23.7124 12.3139
767 2 3.80872 23.659 12.2347
768 2 7.661 23.7066 12.1986
769 2 11.8179 23.9661 12.2926
770 2 15.705 23.9688 12.2917
771 2 19.9075 23.9895 12.1262
772 2 23.7191 23.7291 12.3067
773 2 27.6622 23.8962 11.9951
774 2 31.6059 23.9735 12.2052
775 2 35.3772 23.8147 12.1756
776 2 39.5995 23.8731 12.1609
777 2 43.462 23.8906 12.3063
778 2 47.4114 23.8278 12.0928
779 2 51.4964 23.8435 12.0127
780 2 55.4128 23.6532 12.0713
781 2 -0.184578 27.7324 12.2101
782 2 3.86465 27.6969 11.9957
783 2 7.99582 27.9493 12.2043
784 2 11.7 27.8147 12.3041
785 2 15.8067 27.7577 12.3276
786 2 19.7468 27.9619 12.1887
787 2 23.897 27.8707 12.3434
788 2 27.6104 27.9951 12.1574
789 2 31.4472 27.7483 12.105
790 2 35.5456 27.5796 12.1791
791 2 39.3371 27.8287 12.094
792 2 43.512 27.7736 12.3759
793 2 47.5067 27.9802 12.2276
794 2 51.4066 27.548 12.0251
795 2 55.3942 27.7291 12.1942
796 2 0.0975637 31.5977 12.0293
797 2 4.05358 31.6014 12.2269
798 2 8.03303 31.8288 12.2107
799 2 11.9503 31.9485 12.2629
800 2 15.792 31.7874 12.35
801 2 19.9494 31.7575 12.2965
802 2 23.799 31.8788 12.3048
803 2 27.6488 31.9274 12.0583
804 2 31.4975 31.6178 12.2918
805 2 35.5053 31.7806 12.2257
806 2 39.4075 31.7829 12.1587
807 2 43.4924 31.8645 12.3673
808 2 47.3638 31.8442 12.2565
809 2 51.3607 31.6817 11.9065
810 2 55.4444 31.7114 12.2278
811 2 -0.140353 35.7393 12.1002
812 2 3.9557 35.4098 12.25
813 2 7.92617 35.7291 12.0202
814 2 12.0246 35.8245 12.1497
815 2 15.9226 35.5738 12.3002
816 2 19.7606 35.6014 12.0741
817 2 23.8306 35.6879 12.111
818 2 27.7394 35.9254 12.1821
819 2 31.7689 35.6546 12.2206
820 2 35.6637 35.5705 12.0333
821 2 39.6111 35.9491 12.1308
822 2 43.4235 36.0135 12.02
823 2 47.4262 35.6367 12.1214
824 2 51.4744 35.5775 12.2741
825 2 55.4655 35.8741 12.284
826 2 0.0440396 39.5808 12.2018
827 2 4.06946 39.7858 12.221
828 2 7.75751 39.4892 12.1941
829 2 11.8805 39.5913 12.1979
830 2 15.6448 39.5112 12.1486
831 2 19.71 39.5354 12.1875
832 2 23.6482 39.6317 12.377
833 2 27.7985 39.6206 12.2317
834 2 31.752 39.6827 12.2545
835 2 35.5351 39.8614 12.1829
836 2 39.4686 39.6513 12.2628
837 2 43.5935 39.8804 12.2517
838 2 47.6167 39.5644 12.2807
839 2 51.4036 39.6836 12.0522
840 2 55.4111 39.6256 12.2832
841 2 -0.0312308 43.7063 12.2698
842 2 3.99413 43.67 12.1384
843 2 7.97148 43.5421 12.263
844 2 11.911 43.4809 12.0947
845 2 15.6534 43.4998 12.133
846 2 19.7443 43.6167 12.11
847 2 23.5679 43.4758 12.238
848 2 27.7055 43.5216 12.203
849 2 31.6825 43.6965 12.1511
850 2 35.75 43.6249 12.0536
851 2 39.6038 43.8794 12.0861
852 2 43.52 43.6911 12.2091
853 2 47.5047 43.6071 12.1887
854 2 51.5075 43.6727 12.1542
855 2 55.4809 43.5287 12.1106
856 2 -0.0324972 47.791 12.0299
857 2 3.94574 47.5804 12.2763
858 2 7.75131 47.7005 12.0678
859 2 11.6555 47.5524 12.0522
860 2 15.5796 47.6804 12.0875
861 2 19.68 47.4359 12.2212
862 2 23.6323 47.4694 12.2894
863 2 27.8189 47.6298 12.2442
864 2 31.8123 47.5106 12.3504
865 2 35.5929 47.6857 12.4366
866 2 39.3289 47.6896 12.3069
867 2 43.3559 47.7302 12.1351
868 2 47.3394 47.4701 12.0997
869 2 51.3208 47.4389 12.057
870 2 55.4291 47.4854 12.0712
871 2 -0.0869571 51.673 11.9412
872 2 3.90503 51.599 12.3477
873 2 7.845 51.5436 12.1287
874 2 11.9695 51.4144 12.1635
875 2 15.776 51.5959 12.2708
876 2 19.7175 51.3287 12.1664
877 2 23.6515 51.5643 12.1972
878 2 27.6881 51.7576 12.2963
879 2 31.6856 51.4269 12.2568
880 2 35.4147 51.493 12.0015
881 2 39.4837 51.5946 12.0572
882 2 43.4279 51.4949 12.0076
883 2 47.3862 51.4744 12.1635
884 2 51.3316 51.5168 12.1225
885 2 55.2057 51.4501 12.106
886 2 -0.136274 55.4607 12.2014
887 2 3.80515 55.6918 12.1675
888 2 7.98742 55.4573 12.0716
889 2 11.8285 55.4832 12.2259
890 2 15.6043 55.6281 12.2194
891 2 19.7424 55.3739 12.2924
892 2 23.7113 55.4327 12.265
893 2 27.7513 55.4231 12.3014
894 2 31.6499 55.5942 12.3093
895 2 35.5952 55.3632 12.2632
896 2 39.5301 55.3138 12.3954
897 2 43.4448 55.5376 12.2715
898 2 47.4397 55.2705 12.0424
899 2 51.4249 55.443 12.2109
900 2 55.2874 55.451 12.1425
901 2 59.0897 0.158058 16.0386
902 2 3.93487 -0.0270081 16.0725
903 2 7.84989 -0.133285 16.2508
904 2 11.7837 0.0779677 16.1669
905 2 15.904 0.0492962 16.1981
906 2 19.6774 0.145059 16.1804
907 2 23.6157 0.143659 16.3267
908 2 27.7064 0.144619 16.3409
909 2 31.5154 0.0187895 16.2027
910 2 35.6034 0.229833 16.167
911 2 39.5591 0.124435 16.2809
912 2 43.3912 0.011717 16.0813
913 2 47.5171 -0.081526 15.9329
914 2 51.4322 0.0506569 16.1078
915 2 55.4197 -0.0735124 16.0019
916 2 59.1729 3.97935 16.2178
917 2 3.97487 4.13065 16.3137
918 2 7.60467 4.14802 16.154
919 2 11.5779 3.98065 16.1205
920 2 15.7825 3.8724 16.1813
921 2 19.626 4.0599 16.2126
922 2 23.524 4.06137 16.2282
923 2 27.6748 4.14712 16.1184
924 2 31.3431 3.86377 16.2004
925 2 35.5801 3.91932 16.3173
926 2 39.4516 3.99419 16.0986
927 2 43.3776 3.96978 16.2086
928 2 47.3927 3.96838 16.3873
929 2 51.4106 3.81532 16.057
930 2 55.352 4.02505 16.0127
931 2 59.3696 7.68679 16.1479
932 2 3.8773 7.94956 16.1618
933 2 7.77455 7.94591 16.0363
934 2 11.5997 7.90635 16.0989
935 2 15.6556 7.83844 16.0756
936 2 19.5232 7.87312 16.1718
937 2 23.5209 8.00778 16.0184
938 2 27.7109 8.22828 15.9944
939 2 31.5916 7.92963 16.1125
940 2 35.6208 7.82845 16.2723
941 2 39.5503 7.90251 16.0814
942 2 43.351 7.98629 16.1343
943 2 47.2373 8.15732 15.977
944 2 51.1381 7.67808 16.0272
945 2 55.2064 7.85976 16.0212
946 2 59.2688 11.7127 16.135
947 2 3.84687 11.8238 16.0342
948 2 7.83608 11.9441 16.13
949 2 11.699 12.0136 16.1367
950 2 15.7914 11.6922 16.3169
951 2 19.5784 12.0454 16.1352
952 2 23.5716 12.0049 16.2222
953 2 27.6927 12.0747 16.1675
954 2 31.8551 11.9716 16.0349
955 2 35.5104 11.8471 16.1005
956 2 39.3368 11.9826 16.242
957 2 43.4252 11.8384 16.0211
958 2 47.3891 12.1455 16.2026
959 2 51.1621 11.7283 16.1432
960 2 55.1151 11.8106 16.1603
961 2 59.0223 15.5655 15.9709
962 2 3.68802 15.7175 16.1191
963 2 7.67208 15.9687 16.1874
964 2 11.7668 15.7714 16.0051
965 2 15.5748 15.8363 16.0055
966 2 19.6927 16.0598 16.235
967 2 23.5129 15.923 16.1996
968 2 27.6409 15.8147 16.2498
969 2 31.5119 15.8944 16.1409
970 2 35.6316 15.9772 16.3118
971 2 39.4501 15.7943 16.2223
972 2 43.4407 15.8577 16.2046
973 2 47.2755 15.9333 16.0178
974 2 51.3172 15.8024 16.1299
975 2 55.2032 15.8875 16.1791
976 2 59.1361 19.7713 16.2898
977 2 3.67235 19.4896 16.1833
978 2 8.05673 19.7557 16.1245
979 2 11.572 19.7402 16.0908
980 2 15.7018 20.0106 16.1381
981 2 19.5946 19.7658 16.2083
982 2 23.6128 19.7244 16.2637
983 2 27.5226 19.7496 15.9386
984 2 31.6108 19.8497 16.244
985 2 35.5453 19.8165 16.0749
986 2 39.5413 19.7572 16.0286