LAMMPS (29 Oct 2020)
OMP_NUM_THREADS environment is not set. Defaulting to 1 thread. (src/comm.cpp:94)
  using 1 OpenMP thread(s) per MPI task
variable        NSTEPS          equal 25000
variable        THERMO_FREQ     equal 10
variable        DUMP_FREQ       equal 10
variable        TEMP            equal 300
variable        PRES            equal 1.0
variable        TAU_T           equal 1.0
variable        TAU_P           equal 5.0

units           metal
boundary        p p p
atom_style      atomic

neighbor	2.0 bin
neigh_modify	every 1

read_restart       PTO_C.restart
Reading restart file ...
  restart file = 29 Oct 2020, LAMMPS = 29 Oct 2020
  restoring atom style atomic from restart
  triclinic box = (0.0000000 0.0000000 -0.0092215547) to (39.580000 39.580000 59.709222) with tilt (0.0000000 0.0000000 0.0000000)
  1 by 1 by 1 MPI processor grid
  restoring pair style deepmd from restart
  7500 atoms
  read_restart CPU = 0.012 seconds

mass            1 87.620000
mass            2 207.200000
mass            3 47.867000
mass            4 15.999000
pair_style      deepmd /storage/liushiLab/huyihao/DPMD/L25/new-field-model/phase-diagram/15-15-15/300K_3.956_3.956_D/Sr-dope/PSTO_SS_example/1_DP_potential/compress01.pb

pair_coeff

thermo_style    custom step temp pe ke etotal press vol lx ly lz
thermo          ${THERMO_FREQ}
thermo          10

#min_style cg
#minimize 1.0e-4 1.0e-6 1000 10000

dump            1 all custom ${DUMP_FREQ} traj/*.lammpstrj id type x y z
dump            1 all custom 10 traj/*.lammpstrj id type x y z
dump_modify  1 sort id

#velocity        all create ${TEMP} 539619
fix             1 all npt temp ${TEMP} ${TEMP} ${TAU_T} z ${PRES} ${PRES} ${TAU_P}
fix             1 all npt temp 300 ${TEMP} ${TAU_T} z ${PRES} ${PRES} ${TAU_P}
fix             1 all npt temp 300 300 ${TAU_T} z ${PRES} ${PRES} ${TAU_P}
fix             1 all npt temp 300 300 1 z ${PRES} ${PRES} ${TAU_P}
fix             1 all npt temp 300 300 1 z 1 ${PRES} ${TAU_P}
fix             1 all npt temp 300 300 1 z 1 1 ${TAU_P}
fix             1 all npt temp 300 300 1 z 1 1 5
Resetting global fix info from restart file:
  fix style: npt, fix ID: 1

timestep        0.002000
run             ${NSTEPS}
run             25000
All restart file global fix info was re-assigned
Neighbor list info ...
  update every 1 steps, delay 10 steps, check yes
  max neighbors/atom: 2000, page size: 100000
  master list distance cutoff = 8
  ghost atom cutoff = 8
  binsize = 4, bins = 10 10 15
  1 neighbor lists, perpetual/occasional/extra = 1 0 0
  (1) pair deepmd, perpetual
      attributes: , newton on
      pair build: full/bin/atomonly
      stencil: full/bin/3d
      bin: standard
Per MPI rank memory allocation (min/avg/max) = 12.48 | 12.48 | 12.48 Mbytes
Step Temp PotEng KinEng TotEng Press Volume Lx Ly Lz 
   25000    297.25889    -59420.51    288.13953   -59132.371    -6821.788    93553.504        39.58        39.58    59.718443 
   25010    300.13054   -59423.401    290.92308   -59132.478   -7369.6516    93549.504        39.58        39.58     59.71589 
   25020    300.67142   -59424.021    291.44737   -59132.574   -7453.9829     93546.85        39.58        39.58    59.714196 
   25030    301.60309   -59425.028    292.35046   -59132.677   -8339.7388    93545.386        39.58        39.58    59.713261 
   25040    298.06231   -59421.659     288.9183   -59132.741   -8729.2139    93544.632        39.58        39.58     59.71278 
   25050    296.74006   -59420.462    287.63662   -59132.826   -7963.9201     93544.27        39.58        39.58    59.712549 
   25060    299.05112   -59422.808    289.87678   -59132.932   -7747.7997    93544.442        39.58        39.58    59.712659 
   25070    297.39068   -59421.291    288.26728   -59133.024   -8122.7174    93545.396        39.58        39.58    59.713268 
   25080    299.41231   -59423.368    290.22689   -59133.141   -8567.1981    93546.832        39.58        39.58    59.714184 
   25090    300.61643   -59424.642    291.39406   -59133.248   -8560.5406    93548.541        39.58        39.58    59.715275 
   25100    297.85605   -59422.039    288.71837   -59133.321   -8625.2608    93550.168        39.58        39.58    59.716314 
   25110    298.50787   -59422.751    289.35019   -59133.401   -8857.3178    93551.269        39.58        39.58    59.717017 
   25120    296.49593   -59420.889    287.39998   -59133.489    -8356.918    93552.048        39.58        39.58    59.717514 
   25130    299.13443   -59423.544    289.95754   -59133.586   -8256.1194    93552.786        39.58        39.58    59.717985 
   25140     296.9405   -59421.485    287.83091   -59133.654   -7780.0791    93553.478        39.58        39.58    59.718427 
   25150    299.45213   -59424.033    290.26548   -59133.767   -8300.7725    93554.129        39.58        39.58    59.718842 
   25160    297.77888   -59422.491    288.64357   -59133.848   -7957.9765    93554.464        39.58        39.58    59.719056 
   25170    297.45283   -59422.271    288.32752   -59133.943   -7741.5236    93554.614        39.58        39.58    59.719152 
   25180    298.35678   -59423.248    289.20374   -59134.044   -8135.9353    93554.774        39.58        39.58    59.719254 
   25190    298.23903   -59423.197     289.0896   -59134.107   -8059.3034    93554.876        39.58        39.58    59.719319 
   25200    296.24796   -59421.317    287.15962   -59134.158   -8567.9089    93555.026        39.58        39.58    59.719415 
   25210    297.79268   -59422.894    288.65694   -59134.237   -8602.7991    93554.791        39.58        39.58    59.719265 
   25220    295.15465   -59420.383    286.09985   -59134.283   -8339.1307    93554.002        39.58        39.58    59.718761 
   25230     298.9217   -59424.133    289.75133   -59134.382    -8762.033    93552.887        39.58        39.58     59.71805 
   25240    299.42512   -59424.699    290.23931    -59134.46   -8866.1472      93551.3        39.58        39.58    59.717037 
   25250    299.49002   -59424.849    290.30221   -59134.546   -9205.6213    93549.148        39.58        39.58    59.715663 
   25260     296.1829   -59421.683    287.09655   -59134.586   -8356.8773    93546.662        39.58        39.58    59.714076 
   25270    299.36587   -59424.846    290.18187   -59134.664   -8341.7092    93544.402        39.58        39.58    59.712634 
   25280    295.41256   -59421.082    286.34984   -59134.732    -8180.554    93542.376        39.58        39.58     59.71134 
   25290    295.92239   -59421.647    286.84403   -59134.803   -7020.1558    93540.839        39.58        39.58    59.710359 
   25300    299.37519   -59425.069     290.1909   -59134.878   -7604.0985    93540.258        39.58        39.58    59.709988 
   25310    297.07668   -59422.879    287.96291   -59134.916    -7109.398    93539.993        39.58        39.58    59.709819 
   25320    298.42056   -59424.244    289.26556   -59134.979    -7213.161    93540.181        39.58        39.58    59.709939 
   25330    296.65086   -59422.568    287.55015   -59135.018    -8001.356    93541.108        39.58        39.58     59.71053 
   25340    301.07035   -59426.919    291.83406   -59135.085   -8307.5762    93542.507        39.58        39.58    59.711424 
   25350     300.4125   -59426.329    291.19639   -59135.133   -8647.6566    93544.109        39.58        39.58    59.712446 
   25360    298.52459   -59424.556     289.3664    -59135.19   -8770.3028    93545.624        39.58        39.58    59.713413 
   25370    297.06936   -59423.199    287.95581   -59135.243   -8769.9806    93546.743        39.58        39.58    59.714127 
   25380    298.73309   -59424.858     289.5685    -59135.29   -9315.6546    93547.379        39.58        39.58    59.714533 
   25390    297.64029   -59423.836    288.50923   -59135.327   -9552.4679     93547.33        39.58        39.58    59.714503 
   25400    298.18474   -59424.416    289.03698   -59135.379   -9087.4051    93546.591        39.58        39.58     59.71403 
   25410    294.87595   -59421.238    285.82969   -59135.409   -8810.2913    93545.256        39.58        39.58    59.713178 
   25420    293.76453   -59420.185    284.75237   -59135.433   -8929.0398    93543.246        39.58        39.58    59.711896 
   25430    295.34574   -59421.773    286.28507   -59135.488   -8175.0185    93540.423        39.58        39.58    59.710094 
   25440    295.63164   -59422.097    286.56221   -59135.535   -8294.7784    93537.091        39.58        39.58    59.707966 
   25450    296.05402   -59422.522    286.97162   -59135.551   -8066.9933    93533.176        39.58        39.58    59.705468 
   25460    302.32503   -59428.682    293.05025   -59135.632   -8676.8739    93528.625        39.58        39.58    59.702562 
   25470    292.53132   -59419.181    283.55699   -59135.624   -7141.8483    93523.478        39.58        39.58    59.699277 
   25480    295.21985   -59421.813    286.16305    -59135.65   -7959.2059    93518.331        39.58        39.58    59.695991 
   25490    298.57006   -59425.096    289.41047   -59135.685   -8291.4721    93512.797        39.58        39.58    59.692458 
   25500    294.32593   -59420.972    285.29655   -59135.676   -8473.3639    93506.767        39.58        39.58     59.68861 
   25510    300.93436   -59427.428    291.70224   -59135.726   -8535.6172    93500.583        39.58        39.58    59.684662 
   25520    297.28102   -59423.901    288.16098    -59135.74   -8548.1855    93494.068        39.58        39.58    59.680503 
   25530    295.81995   -59422.479    286.74473   -59135.735   -7047.4684    93487.422        39.58        39.58    59.676261 
   25540    299.17089   -59425.726    289.99287   -59135.733   -8008.3613    93481.706        39.58        39.58    59.672612 
   25550    297.15168   -59423.777    288.03561   -59135.741   -9046.2684     93476.25        39.58        39.58     59.66913 
   25560    297.07041   -59423.707    287.95683    -59135.75   -8069.4496    93470.451        39.58        39.58    59.665427 
   25570    301.72459   -59428.251    292.46823   -59135.783   -8382.6725    93464.734        39.58        39.58    59.661778 
   25580    296.02668   -59422.695    286.94512    -59135.75   -8385.6461    93459.406        39.58        39.58    59.658377 
   25590    293.54245   -59420.272    284.53711   -59135.735   -6404.2215    93454.739        39.58        39.58    59.655398 
   25600    295.89395   -59422.573    286.81647   -59135.757   -6815.9276    93451.939        39.58        39.58    59.653611 
   25610    295.26397   -59421.933    286.20581   -59135.727   -8102.9615    93450.887        39.58        39.58    59.652939 
   25620    297.89942    -59424.49    288.76041    -59135.73   -7623.7584     93450.42        39.58        39.58    59.652641 
   25630    295.49856   -59422.155     286.4332   -59135.721   -7245.3329    93450.463        39.58        39.58    59.652669 
   25640    296.02554   -59422.636    286.94402   -59135.692   -7777.9272    93451.292        39.58        39.58    59.653198 
   25650     299.3607   -59425.857    290.17686    -59135.68   -6620.2289     93452.79        39.58        39.58    59.654154 
   25660    299.73329    -59426.21    290.53802   -59135.672   -7298.1812    93455.777        39.58        39.58    59.656061 
   25670     295.7019    -59422.26     286.6303   -59135.629   -8643.4374    93459.694        39.58        39.58    59.658561 
   25680    296.58168   -59423.114     287.4831    -59135.63    -8751.306    93463.585        39.58        39.58    59.661045 
   25690    296.44788    -59422.97     287.3534   -59135.617   -8151.1526    93467.228        39.58        39.58    59.663371 
   25700    297.24529   -59423.707    288.12635   -59135.581   -7859.2775    93470.454        39.58        39.58     59.66543 
   25710    295.63478   -59422.122    286.56524   -59135.556   -7603.0282    93473.442        39.58        39.58    59.667337 
   25720    296.86024   -59423.288    287.75311   -59135.535   -7291.5248    93476.901        39.58        39.58    59.669545 
   25730    298.50029   -59424.821    289.34285   -59135.478    -8495.061    93480.701        39.58        39.58     59.67197 
   25740    292.61694   -59419.048    283.63999   -59135.408   -8604.9493    93483.793        39.58        39.58    59.673944 
   25750    296.61483   -59422.911    287.51522   -59135.396   -7423.0226    93486.323        39.58        39.58     59.67556 
   25760     293.9398   -59420.238    284.92226   -59135.315   -8114.7556    93488.719        39.58        39.58    59.677089 
   25770    296.51295   -59422.691    287.41647   -59135.275   -7441.3836    93490.698        39.58        39.58    59.678352 
   25780    295.57406   -59421.734    286.50639   -59135.228   -7140.1326    93493.011        39.58        39.58    59.679829 
   25790    299.89726   -59425.879    290.69696   -59135.182   -8253.4689    93495.899        39.58        39.58    59.681672 
   25800    295.29985   -59421.333    286.24059   -59135.093   -8249.3412     93498.49        39.58        39.58    59.683326 
   25810    300.35929   -59426.203    291.14481   -59135.058   -8357.7475    93500.732        39.58        39.58    59.684757 
   25820    296.94144   -59422.809    287.83182   -59134.977   -8637.7451    93502.818        39.58        39.58    59.686088 
   25830    298.76954   -59424.542    289.60383   -59134.938   -8468.6641    93504.462        39.58        39.58    59.687138 
   25840    301.59518   -59427.235    292.34279   -59134.893   -7418.3348     93506.09        39.58        39.58    59.688177 
   25850    300.54307   -59426.143    291.32296    -59134.82    -7477.396    93508.621        39.58        39.58    59.689793 
   25860    299.47428   -59425.019    290.28696   -59134.732   -8122.4139    93511.577        39.58        39.58     59.69168 
   25870    297.95628   -59423.476    288.81553   -59134.661   -8395.0576    93514.187        39.58        39.58    59.693346 
   25880    296.62877   -59422.106    287.52874   -59134.577   -8230.2704    93516.486        39.58        39.58    59.694814 
   25890    299.30436   -59424.645    290.12225   -59134.522   -8165.1025    93518.514        39.58        39.58    59.696108 
   25900    295.56962   -59420.964    286.50208   -59134.462   -6949.3673    93520.624        39.58        39.58    59.697455 
   25910    295.77691   -59421.102    286.70302   -59134.399    -6977.306    93523.835        39.58        39.58    59.699505 
   25920    298.57805   -59423.736    289.41822   -59134.318   -8998.0895     93528.05        39.58        39.58    59.702195 
   25930    292.82018   -59418.058    283.83699   -59134.221   -8773.7454    93531.745        39.58        39.58    59.704554 
   25940    295.59451   -59420.677    286.52621   -59134.151   -9014.9121    93534.517        39.58        39.58    59.706324 
   25950    296.62939   -59421.596    287.52935   -59134.066    -8804.871    93536.506        39.58        39.58    59.707593 
   25960    301.82639   -59426.578    292.56691   -59134.011   -8518.6655    93538.181        39.58        39.58    59.708662 
   25970    297.49215    -59422.26    288.36564   -59133.895    -8366.346    93539.941        39.58        39.58    59.709786 
   25980    298.12527   -59422.795    288.97934   -59133.816   -8780.3744     93541.79        39.58        39.58    59.710966 
   25990    298.18539   -59422.775    289.03761   -59133.737   -8763.0856    93543.093        39.58        39.58    59.711797 
   26000    296.87595   -59421.419    287.76834    -59133.65   -8492.4668    93543.358        39.58        39.58    59.711967 
   26010    298.67227   -59423.052    289.50955   -59133.543   -7490.3208    93542.924        39.58        39.58     59.71169 
   26020    299.88331   -59424.132    290.68344   -59133.449   -7252.0317    93542.683        39.58        39.58    59.711536 
   26030    295.53712   -59419.801    286.47059    -59133.33   -7314.8634    93543.013        39.58        39.58    59.711747 
   26040    298.68543    -59422.77    289.52231   -59133.248   -7476.8454    93543.901        39.58        39.58    59.712313 
   26050    300.00281   -59423.959    290.79927    -59133.16   -7677.7931    93545.234        39.58        39.58    59.713165 
   26060    301.73384   -59425.547     292.4772   -59133.069   -8234.0905    93546.516        39.58        39.58    59.713983 
   26070    303.73704   -59427.383    294.41895   -59132.964   -8375.3254    93547.154        39.58        39.58     59.71439 
   26080     300.8577   -59424.492    291.62793   -59132.864   -7590.0148    93547.407        39.58        39.58    59.714551 
   26090    296.35902   -59420.023    287.26727   -59132.756   -8303.3272     93548.03        39.58        39.58    59.714949 
   26100    300.54459   -59423.996    291.32443   -59132.671   -8301.7675    93548.704        39.58        39.58    59.715379 
   26110    299.11818   -59422.502    289.94178   -59132.561   -8785.4844    93549.235        39.58        39.58    59.715718 
   26120    298.80792   -59422.109    289.64104   -59132.468   -9516.6893     93549.32        39.58        39.58    59.715772 
   26130    298.45555   -59421.675    289.29948   -59132.376   -8919.8887    93548.731        39.58        39.58    59.715396 
   26140    293.20039   -59416.456    284.20553   -59132.251   -8020.1027    93547.873        39.58        39.58    59.714849 
   26150    297.67374   -59420.718    288.54165   -59132.176   -7229.7982    93547.684        39.58        39.58    59.714728 
   26160    301.74491   -59424.557    292.48792   -59132.069   -8186.6898    93548.375        39.58        39.58    59.715169 
   26170    298.83205   -59421.618    289.66443   -59131.953   -7883.7226    93549.231        39.58        39.58    59.715716 
   26180    299.29739   -59421.982    290.11549   -59131.867   -8487.1723    93550.036        39.58        39.58    59.716229 
   26190    298.31918   -59420.907    289.16729    -59131.74   -8074.1912    93550.668        39.58        39.58    59.716633 
   26200    299.58194   -59422.038    290.39131   -59131.647   -7913.5975    93551.557        39.58        39.58    59.717201 
   26210    298.42498     -59420.8    289.26985    -59131.53   -7528.2289    93553.221        39.58        39.58    59.718262 
   26220    301.95277   -59424.131    292.68941   -59131.442   -8192.8558     93555.97        39.58        39.58    59.720017 
   26230    298.85424   -59421.001    289.68594   -59131.315    -8284.802    93559.294        39.58        39.58     59.72214 
   26240     299.3237   -59421.345      290.141   -59131.204   -8337.6459    93562.663        39.58        39.58     59.72429 
   26250    301.28169   -59423.156    292.03892   -59131.117   -8635.4378    93565.817        39.58        39.58    59.726303 
   26260    297.35473   -59419.232    288.23243       -59131   -8159.2811    93568.825        39.58        39.58    59.728223 
   26270    298.75702   -59420.483     289.5917   -59130.891   -8384.1679    93571.796        39.58        39.58     59.73012 
   26280    301.85698   -59423.378    292.59656   -59130.782   -8233.2484    93574.675        39.58        39.58    59.731958 
   26290     299.3927   -59420.866    290.20788   -59130.658   -9132.5064    93577.397        39.58        39.58    59.733695 
   26300     301.3881    -59422.71    292.14206   -59130.568   -9399.4579    93579.498        39.58        39.58    59.735036 
   26310    297.13112   -59418.444    288.01568   -59130.429   -8340.6833    93580.875        39.58        39.58    59.735915 
   26320     299.7789    -59420.92    290.58223   -59130.338   -8536.0114    93581.908        39.58        39.58    59.736575 
   26330    301.82078   -59422.814    292.56147   -59130.253   -8877.1871     93582.36        39.58        39.58    59.736863 
   26340    299.62237   -59420.561     290.4305   -59130.131   -8753.2185    93582.373        39.58        39.58    59.736871 
   26350    302.67015   -59423.425    293.38479    -59130.04   -8772.8347    93581.915        39.58        39.58    59.736579 
   26360    296.40663   -59417.212    287.31341   -59129.899   -9216.9266    93580.571        39.58        39.58    59.735721 
   26370    298.46848   -59419.102    289.31201    -59129.79   -8647.0925    93578.385        39.58        39.58    59.734326 
   26380    300.28937    -59420.78    291.07704   -59129.703   -8882.7975    93575.847        39.58        39.58    59.732706 
   26390    298.52688   -59418.931    289.36862   -59129.562    -9270.538    93573.046        39.58        39.58    59.730918 
   26400    304.11663    -59424.25    294.78689   -59129.464   -8292.7467    93570.233        39.58        39.58    59.729122 
   26410    299.05338   -59419.224    289.87896   -59129.345   -8704.6262     93567.86        39.58        39.58    59.727607 
   26420     299.7785   -59419.829    290.58185   -59129.248   -8797.5312    93565.535        39.58        39.58    59.726123 
   26430    301.87156   -59421.762    292.61069   -59129.151   -8537.9054    93562.985        39.58        39.58    59.724495 
   26440    300.77134   -59420.584    291.54422    -59129.04   -8646.6959     93560.58        39.58        39.58     59.72296 
   26450    297.81814   -59417.603    288.68162   -59128.921   -8203.0312    93558.524        39.58        39.58    59.721648 
   26460    296.99783   -59416.699    287.88648   -59128.813   -7785.7947    93556.814        39.58        39.58    59.720556 
   26470      302.523   -59421.952    293.24215    -59128.71   -8096.5534    93555.732        39.58        39.58    59.719865 
   26480    299.76839   -59419.154    290.57204   -59128.582   -8695.0962    93555.164        39.58        39.58    59.719503 
   26490    301.76325   -59421.014    292.50571   -59128.508   -9157.9987    93554.625        39.58        39.58    59.719159 
   26500     298.5966    -59417.81     289.4362   -59128.374   -8613.2164    93553.802        39.58        39.58    59.718633 
   26510    301.00216   -59420.049    291.76796   -59128.281   -9283.8363    93553.142        39.58        39.58    59.718213 
   26520    300.83299   -59419.777    291.60398   -59128.173   -9253.9598    93552.611        39.58        39.58    59.717873 
   26530    303.70009   -59422.462    294.38313   -59128.079   -9068.2612    93552.117        39.58        39.58    59.717558 
   26540    300.16262   -59418.911    290.95418   -59127.957   -9110.6204    93551.803        39.58        39.58    59.717357 
   26550    301.87889   -59420.467    292.61779    -59127.85   -9194.2527    93551.338        39.58        39.58    59.717061 
   26560    304.75252   -59423.155    295.40327   -59127.752   -9072.6481    93550.671        39.58        39.58    59.716635 
   26570    299.12897    -59417.57    289.95224   -59127.618   -7608.0514    93550.205        39.58        39.58    59.716337 
   26580    299.93406   -59418.263    290.73263    -59127.53   -8239.6794    93550.433        39.58        39.58    59.716483 
   26590    301.16766   -59419.357    291.92839   -59127.428   -8274.5729    93551.144        39.58        39.58    59.716937 
   26600    301.75924   -59419.835    292.50182   -59127.333    -7468.818    93552.055        39.58        39.58    59.717518 
   26610    298.28615   -59416.369    289.13528   -59127.233   -8910.1442    93553.344        39.58        39.58    59.718341 
   26620     300.9572   -59418.876    291.72438   -59127.152   -9325.5877     93554.43        39.58        39.58    59.719034 
   26630    299.84118   -59417.679     290.6426   -59127.037   -8161.0162    93555.237        39.58        39.58     59.71955 
   26640    298.97801   -59416.729    289.80591   -59126.923   -8924.2865    93556.355        39.58        39.58    59.720263 
   26650    306.53032   -59423.983    297.12653   -59126.857   -9662.2972    93557.465        39.58        39.58    59.720972 
   26660    300.29314   -59417.822    291.08069   -59126.741   -7807.5421    93558.246        39.58        39.58     59.72147 
   26670     300.7521   -59418.175    291.52558   -59126.649   -8841.1049    93559.308        39.58        39.58    59.722148 
   26680    303.28563   -59420.537    293.98138   -59126.556   -9279.7091    93560.226        39.58        39.58    59.722734 
   26690    301.85586    -59419.06    292.59547   -59126.464   -8398.0492    93560.991        39.58        39.58    59.723223 
   26700    301.11521   -59418.237    291.87755    -59126.36   -8543.0023    93562.239        39.58        39.58    59.724019 
   26710     300.0899   -59417.137    290.88369   -59126.254    -9151.037    93563.546        39.58        39.58    59.724853 
   26720    298.52251   -59415.542    289.36439   -59126.178   -7671.8639    93564.671        39.58        39.58    59.725572 
   26730    301.94133   -59418.804    292.67832   -59126.125   -8265.6558    93566.601        39.58        39.58    59.726804 
   26740    303.01704   -59419.747    293.72103   -59126.026   -9336.3871    93568.923        39.58        39.58    59.728286 
   26750    303.19564   -59419.831    293.89415   -59125.937   -8480.1469    93571.117        39.58        39.58    59.729687 
   26760     300.8679   -59417.495    291.63782   -59125.857   -8458.0005    93573.901        39.58        39.58    59.731463 
   26770    300.54101   -59417.081    291.32096    -59125.76   -9337.8146     93577.08        39.58        39.58    59.733493 
   26780    299.88791   -59416.359    290.68789   -59125.671    -9048.145    93579.943        39.58        39.58     59.73532 
   26790    303.33608   -59419.648    294.03029   -59125.618    -8153.685    93583.192        39.58        39.58    59.737394 
   26800    297.04278   -59413.442    287.93005   -59125.512   -9533.6643    93587.201        39.58        39.58    59.739953 
   26810    300.96678   -59417.176    291.73367   -59125.443   -9476.1653    93590.797        39.58        39.58    59.742249 
   26820    305.60157   -59421.612    296.22627   -59125.385   -8778.3582    93594.514        39.58        39.58    59.744622 
   26830    302.22438    -59418.24    292.95269   -59125.287   -9602.1385     93598.84        39.58        39.58    59.747383 
   26840    302.27941   -59418.208    293.00603   -59125.202   -9463.2712    93602.846        39.58        39.58     59.74994 
   26850    302.77595   -59418.626    293.48734   -59125.138   -8949.8708    93606.845        39.58        39.58    59.752493 
   26860    301.35692    -59417.17    292.11184   -59125.058   -9232.0931    93611.356        39.58        39.58    59.755372 
   26870    302.11927   -59417.836     292.8508   -59124.985   -9262.1966    93615.848        39.58        39.58     59.75824 
   26880    305.89435   -59421.456    296.51007   -59124.946   -8129.2224    93620.376        39.58        39.58     59.76113 
   26890    301.40135    -59417.01    292.15491   -59124.855   -9084.9314    93625.613        39.58        39.58    59.764473 
   26900     300.1839   -59415.763    290.97481   -59124.788   -8966.4998    93630.938        39.58        39.58    59.767872 
   26910     303.9166   -59419.342    294.59299   -59124.749    -8826.141    93636.539        39.58        39.58    59.771448 
   26920    301.45802   -59416.899    292.20984   -59124.689   -8995.7844    93642.999        39.58        39.58    59.775571 
   26930    302.25819   -59417.628    292.98546   -59124.642   -9103.6315    93649.953        39.58        39.58     59.78001 
   26940    301.14233   -59416.493    291.90383   -59124.589   -9173.1567    93657.277        39.58        39.58    59.784686 
   26950    305.91738   -59421.096     296.5324   -59124.563   -9785.7713    93664.777        39.58        39.58    59.789473 
   26960    302.52311   -59417.726    293.24225   -59124.484   -10352.814    93671.924        39.58        39.58    59.794035 
   26970    301.37034   -59416.558    292.12485   -59124.433   -9346.7358    93678.478        39.58        39.58    59.798219 
   26980    299.79641   -59414.973     290.5992   -59124.374    -10068.71    93685.055        39.58        39.58    59.802417 
   26990     301.2742   -59416.365    292.03166   -59124.333   -11206.638    93691.534        39.58        39.58    59.806553 
   27000    300.15154   -59415.202    290.94344   -59124.258   -11224.433    93697.136        39.58        39.58    59.810129 
   27010    303.35164   -59418.261    294.04537   -59124.216   -11872.276    93701.646        39.58        39.58    59.813007 
   27020    300.50947   -59415.454    291.29039   -59124.163   -11348.329    93704.919        39.58        39.58    59.815097 
   27030    303.36661   -59418.199    294.05988   -59124.139   -10461.499     93707.18        39.58        39.58     59.81654 
   27040    302.81928   -59417.627    293.52933   -59124.098   -9576.3699    93708.953        39.58        39.58    59.817672 
   27050    304.23504   -59418.958    294.90167   -59124.056   -9055.5755    93710.769        39.58        39.58    59.818831 
   27060    304.71113   -59419.384    295.36314   -59124.021   -9357.6078    93712.849        39.58        39.58    59.820158 
   27070    305.07206   -59419.716    295.71301   -59124.003   -9095.3068    93714.614        39.58        39.58    59.821286 
   27080     302.1449   -59416.832    292.87564   -59123.957   -9884.8937    93716.073        39.58        39.58    59.822217 
   27090     301.4507    -59416.13    292.20275   -59123.928   -10042.656    93717.376        39.58        39.58    59.823049 
   27100    302.46623   -59417.095    293.18712   -59123.907   -10276.952    93718.627        39.58        39.58    59.823847 
   27110    302.04994   -59416.647     292.7836   -59123.864   -9936.9741    93719.908        39.58        39.58    59.824665 
   27120    303.75484   -59418.278     294.4362   -59123.842   -10499.565    93721.393        39.58        39.58    59.825613 
   27130    304.26892    -59418.77    294.93451   -59123.835   -10208.528    93722.717        39.58        39.58    59.826458 
   27140    304.85848    -59419.33    295.50598   -59123.824   -10355.174    93723.632        39.58        39.58    59.827042 
   27150    304.47422   -59418.958     295.1335   -59123.824    -10631.25    93724.032        39.58        39.58    59.827297 
   27160    300.08128   -59414.673    290.87533   -59123.797   -10489.316    93724.157        39.58        39.58    59.827377 
   27170     302.5494   -59417.055    293.26773   -59123.787   -10228.478    93724.087        39.58        39.58    59.827332 
   27180    304.33951     -59418.8    295.00293   -59123.797   -10694.787    93723.651        39.58        39.58    59.827054 
   27190    297.44738   -59412.065    288.32224   -59123.743   -10680.544    93722.649        39.58        39.58    59.826415 
   27200    306.05515   -59420.454    296.66593   -59123.788   -10580.741    93721.233        39.58        39.58     59.82551 
   27210    299.00273   -59413.585    289.82987   -59123.755   -10208.968    93719.698        39.58        39.58    59.824531 
   27220    300.59755   -59415.142    291.37576   -59123.766    -9989.595    93718.188        39.58        39.58    59.823567 
   27230    302.84441   -59417.322     293.5537   -59123.768   -10323.387    93716.886        39.58        39.58    59.822736 
   27240    300.15428   -59414.692     290.9461   -59123.746    -9859.569    93715.605        39.58        39.58    59.821918 
   27250    301.01264   -59415.531    291.77812   -59123.753   -10092.466     93714.07        39.58        39.58    59.820938 
   27260    303.11674   -59417.593    293.81767   -59123.775   -9851.3178     93712.18        39.58        39.58    59.819732 
   27270    304.48103   -59418.939    295.14011   -59123.799   -10412.755        93710        39.58        39.58     59.81834 
   27280    305.05958   -59419.501    295.70091     -59123.8   -9963.0977    93707.402        39.58        39.58    59.816682 
   27290    307.08823   -59421.497    297.66732    -59123.83   -10462.303    93704.383        39.58        39.58    59.814754 
   27300    302.58753   -59417.135     293.3047   -59123.831   -10491.182    93700.849        39.58        39.58    59.812499 
   27310    304.39659   -59418.914    295.05826   -59123.855   -9832.7443    93696.837        39.58        39.58    59.809938 
   27320    303.32914   -59417.894    294.02356    -59123.87   -9755.2145    93692.463        39.58        39.58    59.807146 
   27330    303.82311   -59418.398    294.50237   -59123.895   -9589.9705    93687.481        39.58        39.58    59.803966 
   27340    305.80004   -59420.351    296.41865   -59123.932   -8786.7584    93682.194        39.58        39.58    59.800591 
   27350    303.05939   -59417.726    293.76208   -59123.964   -8706.0415    93676.962        39.58        39.58    59.797251 
   27360    301.09354   -59415.861    291.85654   -59124.004   -9451.5907    93671.374        39.58        39.58    59.793684 
   27370    303.32092   -59418.071    294.01559   -59124.055   -9821.0797     93665.14        39.58        39.58    59.789704 
   27380    301.06284    -59415.91    291.82679   -59124.083   -9753.2593    93658.359        39.58        39.58    59.785376 
   27390    301.68361   -59416.539    292.42851    -59124.11   -9794.8521    93651.131        39.58        39.58    59.780762 
   27400    303.68402   -59418.537    294.36755    -59124.17   -9696.8903    93643.499        39.58        39.58     59.77589 
   27410    302.17639   -59417.127    292.90617   -59124.221   -9626.8948    93635.698        39.58        39.58    59.770911 
   27420    299.50409   -59414.583    290.31585   -59124.267   -10166.141    93627.585        39.58        39.58    59.765732 
   27430    299.55166   -59414.686    290.36196   -59124.324   -9832.8168    93618.246        39.58        39.58     59.75977 
   27440    303.90474   -59418.993     294.5815   -59124.411   -9581.8494    93607.737        39.58        39.58    59.753062 
   27450    299.97031   -59415.192    290.76777   -59124.424   -9231.4554    93597.102        39.58        39.58    59.746273 
   27460    304.66558    -59419.81      295.319   -59124.491   -9171.6524    93586.502        39.58        39.58    59.739507 
   27470     302.5117   -59417.764    293.23119   -59124.533   -8746.0514    93575.818        39.58        39.58    59.732687 
   27480    306.25398   -59421.456    296.85866   -59124.597   -8557.0127    93565.591        39.58        39.58    59.726159 
   27490    301.16536   -59416.556    291.92616   -59124.629   -8717.0891    93555.765        39.58        39.58    59.719887 
   27500    306.40349   -59421.735    297.00359   -59124.732   -7851.4224    93545.635        39.58        39.58     59.71342 
   27510    303.63024   -59419.068    294.31542   -59124.753   -7871.8918    93535.878        39.58        39.58    59.707192 
   27520    302.39416   -59417.922    293.11726   -59124.805   -7973.4186    93527.181        39.58        39.58     59.70164 
   27530    302.87178   -59418.454    293.58023   -59124.874   -6733.7078    93519.575        39.58        39.58    59.696786 
   27540    303.01775   -59418.634    293.72172   -59124.913   -8015.9529    93513.415        39.58        39.58    59.692853 
   27550    303.54794   -59419.218    294.23564   -59124.983   -8346.4591    93508.157        39.58        39.58    59.689497 
   27560    303.70246   -59419.445    294.38543    -59125.06   -7398.9461    93503.279        39.58        39.58    59.686383 
   27570    301.62437   -59417.488    292.37109   -59125.117   -7542.3176    93499.046        39.58        39.58    59.683681 
   27580    301.82194   -59417.778    292.56259   -59125.215   -7961.4893    93495.359        39.58        39.58    59.681327 
   27590    299.57083   -59415.669    290.38055   -59125.288   -7868.7295    93492.375        39.58        39.58    59.679423 
   27600    304.05861   -59420.118    294.73065   -59125.387   -8030.5515    93489.999        39.58        39.58    59.677906 
   27610    298.69954   -59414.976    289.53598    -59125.44   -8740.8841    93487.723        39.58        39.58    59.676453 
   27620    300.02307   -59416.356    290.81891   -59125.537   -8436.5528    93485.233        39.58        39.58    59.674864 
   27630    298.60394   -59415.058    289.44332   -59125.615   -7414.3165    93482.846        39.58        39.58     59.67334 
   27640     301.2496   -59417.719    292.00781   -59125.712   -7596.6162    93480.781        39.58        39.58    59.672022 
   27650    302.00298   -59418.528    292.73808    -59125.79   -7655.8237    93478.689        39.58        39.58    59.670686 
   27660    305.43395   -59421.943    296.06379   -59125.879   -6785.5175    93476.669        39.58        39.58    59.669397 
   27670    304.73155   -59421.345    295.38294   -59125.962   -7517.2845    93474.865        39.58        39.58    59.668245 
   27680     297.7543   -59414.632    288.61974   -59126.012   -7036.7302     93472.95        39.58        39.58    59.667023 
   27690    305.42952   -59422.203     296.0595   -59126.144   -6763.6467    93471.319        39.58        39.58    59.665982 
   27700     302.7497   -59419.682    293.46189    -59126.22   -6966.9654    93470.363        39.58        39.58    59.665371 
   27710    302.10055   -59419.137    292.83266   -59126.305   -6705.2351    93469.773        39.58        39.58    59.664995 
   27720     305.6316    -59422.69    296.25538   -59126.435   -6206.3524    93469.411        39.58        39.58    59.664764 
   27730    300.52482   -59417.835    291.30527    -59126.53   -7580.2137    93469.619        39.58        39.58    59.664897 
   27740    303.94831   -59421.274    294.62373    -59126.65   -7326.2945    93469.736        39.58        39.58    59.664972 
   27750     303.1744   -59420.638    293.87356   -59126.764   -6640.4869    93469.687        39.58        39.58     59.66494 
   27760    299.90839   -59417.572    290.70775   -59126.865   -8042.5663     93470.15        39.58        39.58    59.665236 
   27770    297.25427   -59415.079    288.13505   -59126.944    -8188.355    93470.781        39.58        39.58    59.665638 
   27780    302.68299   -59420.476    293.39723   -59127.079   -7674.9266    93471.415        39.58        39.58    59.666043 
   27790    297.46153   -59415.481    288.33596   -59127.145   -7714.1601    93472.407        39.58        39.58    59.666677 
   27800    301.93885   -59419.965    292.67591    -59127.29    -7755.189     93473.51        39.58        39.58     59.66738 
   27810    299.98197   -59418.161    290.77907   -59127.382   -6929.3268    93474.638        39.58        39.58    59.668101 
   27820    298.99636   -59417.294     289.8237   -59127.471    -7562.436    93476.155        39.58        39.58    59.669069 
   27830    300.72969    -59419.09    291.50385   -59127.587    -8134.972    93477.832        39.58        39.58    59.670139 
   27840    304.44489   -59422.837    295.10507   -59127.732   -6809.8123    93479.589        39.58        39.58    59.671261 
   27850    300.87983   -59419.469    291.64938    -59127.82   -7373.6052    93481.879        39.58        39.58    59.672723 
   27860     302.4665    -59421.13    293.18738   -59127.942   -7766.2671    93484.623        39.58        39.58    59.674474 
   27870    302.25565   -59421.052      292.983   -59128.069   -6726.2328     93487.79        39.58        39.58    59.676496 
   27880    301.34202   -59420.267     292.0974   -59128.169   -7096.6106     93491.63        39.58        39.58    59.678947 
   27890    300.18189    -59419.26    290.97286   -59128.287   -7836.1796    93495.733        39.58        39.58    59.681566 
   27900    302.26825   -59421.418    292.99521   -59128.423   -7109.1665    93499.681        39.58        39.58    59.684086 
   27910      298.278   -59417.625    289.12738   -59128.497   -7278.5519    93503.736        39.58        39.58    59.686674 
   27920    300.64469    -59420.04    291.42146   -59128.619   -7934.7171    93507.741        39.58        39.58    59.689232 
   27930    303.41293   -59422.874    294.10478    -59128.77   -7670.9706    93511.504        39.58        39.58    59.691633 
   27940    301.14168   -59420.783     291.9032    -59128.88   -7688.0891    93515.369        39.58        39.58    59.694101 
   27950    302.79005   -59422.499      293.501   -59128.998   -8655.0945    93519.103        39.58        39.58    59.696484 
   27960    302.99588   -59422.829    293.70052   -59129.129   -7402.7019      93522.3        39.58        39.58    59.698525 
   27970    300.86023   -59420.879    291.63039   -59129.249   -7699.0883    93525.538        39.58        39.58    59.700592 
   27980    299.30185   -59419.488    290.11982   -59129.368   -8038.4362    93528.636        39.58        39.58    59.702569 
   27990    299.30013   -59419.611    290.11815   -59129.493   -7104.1849    93531.338        39.58        39.58    59.704294 
   28000    296.90638   -59417.391    287.79784   -59129.593   -7182.9362    93534.174        39.58        39.58    59.706104 
   28010    301.13387   -59421.642    291.89563   -59129.746   -8281.2541    93537.037        39.58        39.58    59.707932 
   28020    300.17086   -59420.834    290.96217   -59129.871   -7875.0409     93539.13        39.58        39.58    59.709268 
   28030    298.00699    -59418.84    288.86468   -59129.975   -7486.6711    93540.733        39.58        39.58    59.710291 
   28040    299.77982   -59420.693    290.58313    -59130.11   -8706.1419    93542.253        39.58        39.58    59.711262 
   28050    300.60173   -59421.605    291.37982   -59130.225   -8115.2484    93543.443        39.58        39.58    59.712021 
   28060    301.35206   -59422.446    292.10713   -59130.339    -7851.538     93544.56        39.58        39.58    59.712734 
   28070    300.76458   -59421.981    291.53767   -59130.443    -8350.009    93545.954        39.58        39.58    59.713624 
   28080    299.97058    -59421.33    290.76803   -59130.562   -8916.0007     93547.49        39.58        39.58    59.714604 
   28090    302.07203   -59423.512    292.80501   -59130.707   -8599.6225    93549.018        39.58        39.58     59.71558 
   28100     297.0671   -59418.757    287.95363   -59130.804   -8391.4946    93550.593        39.58        39.58    59.716585 
   28110    301.25482   -59422.959    292.01287   -59130.946   -8326.8546    93552.064        39.58        39.58    59.717524 
   28120    299.09319   -59420.974    289.91756   -59131.056    -7387.027    93553.803        39.58        39.58    59.718634 
   28130    299.53748   -59421.526    290.34821   -59131.178   -7776.6078    93556.367        39.58        39.58    59.720271 
   28140    297.71248   -59419.881    288.57921   -59131.302   -8018.1753    93559.573        39.58        39.58    59.722318 
   28150    297.44639   -59419.737    288.32128   -59131.416   -8252.2519     93563.38        39.58        39.58    59.724747 
   28160     303.5835   -59425.833    294.27011   -59131.563   -8545.2457    93567.571        39.58        39.58    59.727423 
   28170      299.094   -59421.602    289.91834   -59131.684   -8825.1958    93571.722        39.58        39.58    59.730073 
   28180     299.2068   -59421.823    290.02769   -59131.795   -8502.3247    93575.741        39.58        39.58    59.732638 
   28190    302.26345   -59424.927    292.99056   -59131.936   -8406.8621    93579.871        39.58        39.58    59.735275 
   28200    298.36303   -59421.256     289.2098   -59132.046   -8376.0957    93584.431        39.58        39.58    59.738185 
   28210    297.57237    -59420.59    288.44339   -59132.147   -8529.3313    93589.306        39.58        39.58    59.741297 
   28220    299.95833   -59423.024    290.75616   -59132.268   -9182.3592    93594.056        39.58        39.58    59.744329 
   28230    297.09532   -59420.338    287.98098   -59132.357   -8277.4809    93598.114        39.58        39.58    59.746919 
   28240    294.41653   -59417.834    285.38437   -59132.449   -8854.4048    93601.832        39.58        39.58    59.749293 
   28250    299.72409   -59423.102     290.5291   -59132.572   -8815.8381    93605.192        39.58        39.58    59.751438 
   28260    301.21278   -59424.668    291.97212   -59132.696   -9053.1264    93608.309        39.58        39.58    59.753427 
   28270    295.06033   -59418.792    286.00842   -59132.784   -9162.7184    93611.388        39.58        39.58    59.755393 
   28280    300.12223    -59423.83    290.91503   -59132.915   -9583.9477    93614.281        39.58        39.58    59.757239 
   28290    296.85043   -59420.754     287.7436    -59133.01   -9632.5994     93616.52        39.58        39.58    59.758669 
   28300    296.62576   -59420.642    287.52582   -59133.117   -8789.3495     93617.99        39.58        39.58    59.759607 
   28310    299.77458   -59423.806    290.57804   -59133.228   -9436.1339     93618.87        39.58        39.58    59.760169 
   28320    296.86142   -59421.072    287.75425   -59133.318   -8732.7024    93619.142        39.58        39.58    59.760343 
   28330     296.4748   -59420.794     287.3795   -59133.415   -8945.1927    93619.101        39.58        39.58    59.760316 
   28340    300.66914   -59424.971    291.44516   -59133.526   -9883.0272    93618.725        39.58        39.58    59.760076 
   28350     298.9429   -59423.385    289.77188   -59133.614   -9985.6091    93617.877        39.58        39.58    59.759535 
   28360    297.33673   -59421.921    288.21499   -59133.706   -9219.5456    93616.612        39.58        39.58    59.758727 
   28370    298.29284   -59422.946    289.14176   -59133.804   -9317.7183    93615.319        39.58        39.58    59.757902 
   28380    298.25784   -59423.009    289.10784   -59133.901   -9511.2758    93613.904        39.58        39.58    59.756999 
   28390    294.62997    -59419.57    285.59126   -59133.979    -8526.448    93612.267        39.58        39.58    59.755954 
   28400    297.12267   -59422.094    288.00749   -59134.087   -9114.4347    93610.676        39.58        39.58    59.754938 
   28410    297.37935   -59422.415     288.2563   -59134.159   -9623.5224    93609.273        39.58        39.58    59.754042 
   28420     298.0305   -59423.125    288.88747   -59134.237    -8736.742    93608.127        39.58        39.58    59.753311 
   28430    296.29465   -59421.527    287.20487   -59134.323   -8878.7284    93607.615        39.58        39.58    59.752984 
   28440    294.05958   -59419.412    285.03837   -59134.374   -9163.3446     93607.62        39.58        39.58    59.752987 
   28450    300.07599   -59425.342     290.8702   -59134.472   -8633.6358    93607.919        39.58        39.58    59.753178 
   28460    299.72855   -59425.093    290.53343    -59134.56   -8946.2676    93608.694        39.58        39.58    59.753673 
   28470    295.74697   -59421.299    286.67399   -59134.625   -9582.4154    93609.906        39.58        39.58    59.754447 
   28480    298.71714   -59424.237    289.55304   -59134.684   -9598.7119    93611.494        39.58        39.58     59.75546 
   28490    297.06682   -59422.696    287.95335   -59134.743   -9370.9693    93613.482        39.58        39.58    59.756729 
   28500    297.00814   -59422.723    287.89647   -59134.826    -10359.13    93615.494        39.58        39.58    59.758014 
   28510    297.43436   -59423.209    288.30961     -59134.9   -9980.7395    93617.069        39.58        39.58    59.759019 
   28520    298.73568   -59424.538    289.57102   -59134.967   -9463.1721    93618.479        39.58        39.58    59.759919 
   28530     298.1164   -59423.987    288.97074   -59135.017   -10202.924    93619.821        39.58        39.58    59.760776 
   28540    294.31714    -59420.35    285.28803   -59135.062   -9929.9297    93620.813        39.58        39.58    59.761409 
   28550    298.03304   -59424.016    288.88993   -59135.126    -9948.718    93621.865        39.58        39.58    59.762081 
   28560    295.29741   -59421.404    286.23822   -59135.166   -10033.772    93622.969        39.58        39.58    59.762785 
   28570    291.79134   -59418.045    282.83971   -59135.205    -9276.639    93623.634        39.58        39.58     59.76321 
   28580    293.62363   -59419.875    284.61579   -59135.259   -9115.2976    93624.148        39.58        39.58    59.763538 
   28590    297.41894   -59423.632    288.29467   -59135.338   -9864.9655    93624.638        39.58        39.58    59.763851 
   28600    298.34076    -59424.56    289.18821   -59135.372   -9969.2796    93624.747        39.58        39.58     59.76392 
   28610    298.32008   -59424.555    289.16817   -59135.387   -9542.2395    93624.677        39.58        39.58    59.763876 
   28620    298.85332   -59425.095    289.68505    -59135.41   -9793.4685    93624.925        39.58        39.58    59.764034 
   28630    294.64667   -59421.028    285.60744   -59135.421   -9389.6141    93625.243        39.58        39.58    59.764237 
   28640     295.3224   -59421.717    286.26245   -59135.455   -9175.0129    93625.509        39.58        39.58    59.764407 
   28650    298.18795   -59424.536    289.04009   -59135.495   -9632.3491    93625.814        39.58        39.58    59.764601 
   28660    297.07858   -59423.481    287.96475   -59135.516   -9808.1315    93625.849        39.58        39.58    59.764624 
   28670    299.54117   -59425.904     290.3518   -59135.552   -9588.8641     93625.37        39.58        39.58    59.764318 
   28680    296.15091   -59422.619    287.06554   -59135.553   -9880.4503    93624.676        39.58        39.58    59.763875 
   28690    295.33657   -59421.846    286.27618    -59135.57    -10231.98     93623.97        39.58        39.58    59.763424 
   28700    297.29537   -59423.768    288.17489   -59135.594   -10203.194    93623.142        39.58        39.58    59.762895 
   28710    298.00781   -59424.488    288.86547   -59135.623   -9308.7028    93622.461        39.58        39.58    59.762461 
   28720    297.66795   -59424.182    288.53604   -59135.646   -9969.3573    93622.191        39.58        39.58    59.762288 
   28730    298.01795    -59424.52     288.8753   -59135.644   -9667.8667     93621.74        39.58        39.58    59.762001 
   28740     296.6788   -59423.213    287.57724   -59135.635   -9068.9423      93621.2        39.58        39.58    59.761656 
   28750    295.69608   -59422.272    286.62467   -59135.648   -9206.8915    93620.785        39.58        39.58    59.761391 
   28760    294.54527   -59421.155    285.50916   -59135.646   -9095.4418    93620.509        39.58        39.58    59.761215 
   28770    294.64167   -59421.237     285.6026   -59135.635   -8593.6371    93620.535        39.58        39.58    59.761232 
   28780    298.12559    -59424.63    288.97964    -59135.65   -9589.7244    93621.151        39.58        39.58    59.761625 
   28790    296.79033   -59423.324    287.68534   -59135.639   -9925.2459    93621.953        39.58        39.58    59.762136 
   28800    293.35946   -59419.983    284.35973   -59135.624   -8947.5119    93622.645        39.58        39.58    59.762579 
   28810    296.34132   -59422.879    287.25011   -59135.629   -9051.3873    93623.462        39.58        39.58      59.7631 
   28820    295.98857   -59422.498    286.90818    -59135.59   -9832.4109    93624.194        39.58        39.58    59.763567 
   28830    299.27978   -59425.686    290.09843   -59135.587   -9708.6501    93624.301        39.58        39.58    59.763636 
   28840    296.57516   -59423.023    287.47677   -59135.546   -9415.7786    93623.823        39.58        39.58    59.763331 
   28850    300.09264   -59426.428    290.88635   -59135.542   -9426.2318    93623.028        39.58        39.58    59.762823 
   28860    295.73117   -59422.166    286.65868   -59135.507   -9142.1294    93621.815        39.58        39.58    59.762049 
   28870    295.24501    -59421.66    286.18743   -59135.473    -8536.336    93620.274        39.58        39.58    59.761065 
   28880    299.20232   -59425.482    290.02334   -59135.459   -9515.1937    93618.833        39.58        39.58    59.760145 
   28890    298.77354   -59425.044    289.60771   -59135.436   -9759.2948    93616.974        39.58        39.58    59.758959 
   28900    297.45618   -59423.745    288.33077   -59135.414   -8814.8304     93614.45        39.58        39.58    59.757347 
   28910    297.47626   -59423.738    288.35023   -59135.388   -8249.8893    93612.204        39.58        39.58    59.755914 
   28920    297.70632   -59423.908    288.57323   -59135.335   -8637.0853    93610.694        39.58        39.58     59.75495 
   28930    297.50688   -59423.669    288.37991   -59135.289    -7819.874    93609.427        39.58        39.58    59.754141 
   28940    295.81692   -59421.973     286.7418   -59135.231   -8429.0901    93608.552        39.58        39.58    59.753582 
   28950    297.50451    -59423.58    288.37762   -59135.202   -9492.7496    93607.492        39.58        39.58    59.752906 
   28960    299.00179   -59425.005    289.82896   -59135.176   -9023.2071     93605.64        39.58        39.58    59.751723 
   28970    297.70593   -59423.697    288.57286   -59135.124   -8508.4667    93603.682        39.58        39.58    59.750474 
   28980     296.8581   -59422.823    287.75103   -59135.072   -9874.1407    93602.178        39.58        39.58    59.749513 
   28990    298.26954   -59424.152    289.11918   -59135.032   -9882.6377    93600.415        39.58        39.58    59.748388 
   29000     295.9955   -59421.887     286.9149   -59134.972   -9778.5558     93598.08        39.58        39.58    59.746898 
   29010     296.8279   -59422.644    287.72176   -59134.923   -9868.2494    93595.125        39.58        39.58    59.745011 
   29020    296.16733   -59421.955    287.08146   -59134.874   -8939.8486    93591.484        39.58        39.58    59.742687 
   29030    297.24482    -59422.95    288.12589   -59134.824   -7674.8485    93587.618        39.58        39.58    59.740219 
   29040    300.43419   -59425.992    291.21742   -59134.774   -7953.1751    93584.252        39.58        39.58    59.738071 
   29050    295.60489   -59421.213    286.53627   -59134.677   -8217.3492     93581.23        39.58        39.58    59.736142 
   29060    299.91034   -59425.349    290.70964   -59134.639   -8294.8908    93578.158        39.58        39.58    59.734181 
   29070    293.63543   -59419.172    284.62723   -59134.545    -8282.036    93575.055        39.58        39.58      59.7322 
   29080    298.80265    -59424.14    289.63594   -59134.504   -8033.2709     93571.69        39.58        39.58    59.730052 
   29090    297.37748   -59422.682    288.25448   -59134.428   -7406.1588    93568.602        39.58        39.58    59.728081 
   29100     300.7856   -59425.933    291.55805   -59134.375   -8457.5177    93566.305        39.58        39.58    59.726615 
   29110    298.38445    -59423.52    289.23056   -59134.289   -8877.5778    93564.017        39.58        39.58    59.725154 
   29120    296.83442   -59421.948    287.72808    -59134.22   -8436.2776    93561.321        39.58        39.58    59.723433 
   29130    295.42459    -59420.49    286.36151   -59134.129   -8959.9809    93558.179        39.58        39.58    59.721428 
   29140    297.48199   -59422.426    288.35579    -59134.07   -8739.8499    93554.227        39.58        39.58    59.718905 
   29150    297.30627   -59422.177    288.18545   -59133.992   -7814.2835    93549.874        39.58        39.58    59.716126 
   29160    298.52739    -59423.27    289.36911   -59133.901   -8782.6049    93545.682        39.58        39.58     59.71345 
   29170    298.32814   -59422.996    289.17598    -59133.82    -9024.746    93541.327        39.58        39.58     59.71067 
   29180    294.75878   -59419.445    285.71612   -59133.728   -8696.9861    93536.771        39.58        39.58    59.707762 
   29190    296.15092     -59420.7    287.06555   -59133.634   -8666.5843    93532.334        39.58        39.58     59.70493 
   29200    304.17565   -59428.427     294.8441   -59133.583   -8071.4032    93527.968        39.58        39.58    59.702143 
   29210    296.52061   -59420.874     287.4239   -59133.451   -7272.5887    93523.892        39.58        39.58    59.699541 
   29220     301.1878   -59425.337    291.94791   -59133.389   -7655.1813    93520.477        39.58        39.58    59.697361 
   29230    296.97737   -59421.146    287.86664    -59133.28   -8089.1053    93517.669        39.58        39.58    59.695568 
   29240    299.89464   -59423.886    290.69442   -59133.192   -8211.4014    93515.193        39.58        39.58    59.693988 
   29250    299.99042   -59423.882    290.78726   -59133.095   -8257.6262    93513.068        39.58        39.58    59.692632 
   29260    300.12713   -59423.924    290.91978   -59133.004   -8351.3453    93511.344        39.58        39.58    59.691531 
   29270    294.29552   -59418.146    285.26707   -59132.879   -7580.0195    93510.324        39.58        39.58     59.69088 
   29280    298.29985   -59421.948    289.14856   -59132.799   -7752.5848    93510.429        39.58        39.58    59.690947 
   29290    296.98876   -59420.563    287.87769   -59132.686   -7996.1445    93511.437        39.58        39.58     59.69159 
   29300    297.83591   -59421.291    288.69885   -59132.592   -7898.2606    93513.181        39.58        39.58    59.692704 
   29310    299.09486   -59422.399    289.91918    -59132.48   -7876.9344      93515.6        39.58        39.58    59.694248 
   29320    298.84996   -59422.057    289.68179   -59132.376   -7974.7878    93518.374        39.58        39.58    59.696019 
   29330    296.93961   -59420.109    287.83004   -59132.279   -8428.4592    93521.666        39.58        39.58     59.69812 
   29340     297.1754    -59420.24     288.0586   -59132.181   -8523.9192    93525.819        39.58        39.58    59.700771 
   29350    299.55625   -59422.448    290.36641   -59132.081   -9454.4787    93530.496        39.58        39.58    59.703756 
   29360    301.24369   -59423.987    292.00208   -59131.985   -8854.3621    93535.444        39.58        39.58    59.706915 
   29370    298.28163   -59420.998     289.1309   -59131.867   -8657.9255    93541.018        39.58        39.58    59.710473 
   29380    298.78867    -59421.38    289.62238   -59131.757   -8156.0099    93546.971        39.58        39.58    59.714273 
   29390    299.49244   -59421.936    290.30456   -59131.631   -7956.7484    93553.211        39.58        39.58    59.718256 
   29400     298.5278   -59420.895    289.36951   -59131.526   -8582.3327    93559.842        39.58        39.58    59.722489 
   29410    296.87546   -59419.168    287.76786     -59131.4   -9135.6499    93566.668        39.58        39.58    59.726846 
   29420    299.35402   -59421.466    290.17039   -59131.296   -8864.3253    93573.594        39.58        39.58    59.731267 
   29430     299.3279   -59421.324    290.14507   -59131.179   -8962.1601    93580.834        39.58        39.58    59.735889 
   29440    298.47919   -59420.376     289.3224   -59131.054   -8827.1606    93588.309        39.58        39.58    59.740661 
   29450    301.30858   -59423.036    292.06499   -59130.971   -8694.0093    93596.201        39.58        39.58    59.745698 
   29460    298.28276   -59419.971    289.13199   -59130.839   -9700.1273    93604.479        39.58        39.58    59.750983 
   29470    301.06308   -59422.558    291.82702   -59130.731   -9064.7672    93612.416        39.58        39.58    59.756049 
   29480    296.72841   -59418.229    287.62532   -59130.603   -8978.6837    93620.394        39.58        39.58    59.761141 
   29490    301.41027   -59422.663    292.16355   -59130.499   -9398.1246    93628.494        39.58        39.58    59.766312 
   29500    299.48748    -59420.67    290.29975   -59130.371    -8729.893    93636.442        39.58        39.58    59.771386 
   29510    297.32233   -59418.475    288.20103   -59130.274   -8940.8812    93644.851        39.58        39.58    59.776754 
   29520    299.53492   -59420.502    290.34573   -59130.156   -10315.392    93653.837        39.58        39.58    59.782489 
   29530    301.05361   -59421.866    291.81784   -59130.049   -10252.956    93662.543        39.58        39.58    59.788046 
   29540    297.43343   -59418.224    288.30872   -59129.916   -10055.898    93670.895        39.58        39.58    59.793378 
   29550     300.7454   -59421.321    291.51908   -59129.802   -10357.722     93679.27        39.58        39.58    59.798724 
   29560    302.85302   -59423.249    293.56205   -59129.687   -10235.224    93687.452        39.58        39.58    59.803947 
   29570    299.58433   -59419.952    290.39363   -59129.559   -9699.3533    93695.674        39.58        39.58    59.809196 
   29580    294.71809   -59415.094    285.67668   -59129.417   -10567.888    93704.094        39.58        39.58     59.81457 
   29590    299.45768   -59419.571    290.27087     -59129.3   -10932.845    93712.151        39.58        39.58    59.819714 
   29600    299.77853   -59419.746    290.58187   -59129.164   -10896.695    93719.524        39.58        39.58     59.82442 
   29610     300.6345   -59420.447    291.41158   -59129.036     -10287.3    93726.164        39.58        39.58    59.828658 
   29620    301.79928   -59421.455    292.54063   -59128.914   -10602.285     93732.49        39.58        39.58    59.832696 
   29630    299.58873   -59419.179    290.39789   -59128.781   -9660.9249     93738.74        39.58        39.58    59.836686 
   29640     303.4431   -59422.833    294.13402   -59128.699   -10856.452    93745.127        39.58        39.58    59.840763 
   29650      301.007   -59420.346    291.77266   -59128.573   -10623.049    93750.987        39.58        39.58    59.844504 
   29660    297.84173   -59417.141    288.70449   -59128.436   -10546.471    93756.109        39.58        39.58    59.847773 
   29670    301.56329   -59420.642    292.31188    -59128.33    -11634.64    93760.371        39.58        39.58    59.850494 
   29680    297.90773   -59416.952    288.76847   -59128.184    -10619.04     93763.58        39.58        39.58    59.852542 
   29690    297.95962   -59416.884    288.81877   -59128.065   -10762.472    93766.291        39.58        39.58    59.854272 
   29700     298.0304   -59416.835    288.88737   -59127.947   -10911.422    93768.644        39.58        39.58    59.855775 
   29710    299.02981   -59417.684    289.85612   -59127.828   -11148.812    93770.391        39.58        39.58     59.85689 
   29720     302.9299   -59421.354    293.63656   -59127.717    -11370.02    93771.392        39.58        39.58    59.857529 
   29730    297.60354   -59416.044    288.47361   -59127.571    -11105.49    93771.333        39.58        39.58    59.857491 
   29740    302.59818   -59420.791    293.31502   -59127.476   -10661.795    93770.421        39.58        39.58    59.856909 
   29750    303.37538   -59421.418    294.06838    -59127.35   -10673.402     93769.05        39.58        39.58    59.856034 
   29760    301.16231   -59419.158     291.9232   -59127.235   -10735.358    93767.195        39.58        39.58     59.85485 
   29770    300.11196   -59418.024    290.90507   -59127.118   -10439.907    93764.933        39.58        39.58    59.853406 
   29780    302.26634   -59420.005    292.99336   -59127.012   -11074.796    93762.279        39.58        39.58    59.851712 
   29790    302.87007     -59420.5    293.57857   -59126.922   -11214.809    93758.826        39.58        39.58    59.849508 
   29800     302.4496   -59419.996      293.171   -59126.825   -10330.617    93754.476        39.58        39.58    59.846731 
   29810    299.82422   -59417.322    290.62616   -59126.696   -9894.5068    93750.017        39.58        39.58    59.843885 
   29820    301.76287   -59419.089    292.50534   -59126.583   -10197.295    93745.481        39.58        39.58    59.840989 
   29830    300.11253   -59417.364    290.90562   -59126.459   -9815.7704     93740.55        39.58        39.58    59.837841 
   29840    297.95395   -59415.154    288.81327   -59126.341   -11334.997    93735.536        39.58        39.58    59.834641 
   29850    300.51626   -59417.563    291.29697   -59126.266   -11435.756    93729.903        39.58        39.58    59.831045 
   29860    299.95504   -59416.921    290.75296   -59126.168   -9841.4229    93723.541        39.58        39.58    59.826984 
   29870    301.46797   -59418.288    292.21948   -59126.069   -10702.416    93717.281        39.58        39.58    59.822988 
   29880    299.66311   -59416.433    290.46999   -59125.963   -10954.072    93710.979        39.58        39.58    59.818965 
   29890    304.95188   -59421.474    295.59651   -59125.878   -10263.533     93704.36        39.58        39.58     59.81474 
   29900      302.727   -59419.204    293.43989   -59125.764   -11250.832    93697.408        39.58        39.58    59.810302 
   29910     301.8302   -59418.245     292.5706   -59125.674   -10885.419    93689.741        39.58        39.58    59.805408 
   29920    302.54733   -59418.831    293.26573   -59125.565   -9687.8552    93681.856        39.58        39.58    59.800375 
   29930    298.43173   -59414.726    289.27639    -59125.45   -9813.9625    93674.436        39.58        39.58    59.795639 
   29940    302.15978   -59418.273    292.89007   -59125.383    -9382.174    93667.306        39.58        39.58    59.791087 
   29950    301.42151   -59417.443    292.17445   -59125.268   -8869.9393    93660.612        39.58        39.58    59.786814 
   29960    301.14118   -59417.086    291.90272   -59125.183   -9407.9982    93654.227        39.58        39.58    59.782738 
   29970    300.25315   -59416.126    291.04193   -59125.084   -8652.2413    93647.839        39.58        39.58    59.778661 
   29980    300.95025   -59416.706    291.71764   -59124.988     -8912.94    93641.846        39.58        39.58    59.774835 
   29990    304.70113   -59420.273    295.35346    -59124.92   -9062.1809    93636.193        39.58        39.58    59.771227 
   30000    307.72903   -59423.139    298.28846    -59124.85   -9290.7662    93630.595        39.58        39.58    59.767653 
   30010     302.9278   -59418.384    293.63453    -59124.75   -9396.3954    93624.871        39.58        39.58       59.764 
   30020    306.21304   -59421.501    296.81898   -59124.682   -9769.8159    93618.958        39.58        39.58    59.760225 
   30030    303.27963   -59418.553    293.97557   -59124.577   -8551.2329    93612.768        39.58        39.58    59.756273 
   30040    299.23354   -59414.535     290.0536   -59124.482   -8925.7329    93606.609        39.58        39.58    59.752342 
   30050    302.76776   -59417.914     293.4794   -59124.435   -9353.7278    93600.031        39.58        39.58    59.748143 
   30060    299.91624   -59415.062    290.71535   -59124.346   -9090.8088    93592.785        39.58        39.58    59.743518 
   30070    300.91184   -59415.985    291.68042   -59124.305   -9062.3888        93585        39.58        39.58    59.738549 
   30080    302.27161   -59417.252    292.99847   -59124.254   -9009.6412    93576.503        39.58        39.58    59.733124 
   30090    303.41614   -59418.289    294.10789   -59124.181   -8599.1739    93567.523        39.58        39.58    59.727392 
   30100    301.56373   -59416.403    292.31231   -59124.091   -8148.5427    93558.595        39.58        39.58    59.721693 
   30110    304.34841   -59419.047    295.01156   -59124.035   -8572.9099    93549.642        39.58        39.58    59.715978 
   30120    302.16862   -59416.862    292.89864   -59123.963   -7954.5927    93540.501        39.58        39.58    59.710143 
   30130    301.65383   -59416.296    292.39964   -59123.896   -7229.5511    93531.772        39.58        39.58    59.704571 
   30140    307.98215   -59422.399    298.53382   -59123.865   -8007.2443    93523.746        39.58        39.58    59.699448 
   30150    302.13993   -59416.657    292.87083   -59123.786    -7548.618    93516.033        39.58        39.58    59.694524 
   30160    299.43803   -59413.979    290.25182   -59123.727   -7009.4334    93508.852        39.58        39.58     59.68994 
   30170    306.22471   -59420.538    296.83029   -59123.707   -7820.4117    93502.393        39.58        39.58    59.685817 
   30180    302.78153   -59417.131    293.49275   -59123.638   -8137.8146    93496.041        39.58        39.58    59.681763 
   30190    301.03536   -59415.385    291.80014   -59123.585   -6537.2057    93489.959        39.58        39.58     59.67788 
   30200    303.10852   -59417.336     293.8097   -59123.526   -7449.4823    93485.138        39.58        39.58    59.674803 
   30210    301.81467   -59416.033    292.55555   -59123.477   -8363.6937    93480.999        39.58        39.58    59.672161 
   30220    307.17763   -59421.223    297.75398   -59123.469   -7999.7791    93477.024        39.58        39.58    59.669623 
   30230    303.74624   -59417.833    294.42786   -59123.405   -8400.5189    93473.576        39.58        39.58    59.667422 
   30240    302.52468   -59416.625    293.24378   -59123.381   -8123.9799    93470.401        39.58        39.58    59.665396 
   30250    302.12288   -59416.178     292.8543   -59123.324   -7355.8653    93467.444        39.58        39.58    59.663508 
   30260    304.43495   -59418.388    295.09544   -59123.292   -7231.2316    93464.995        39.58        39.58    59.661945 
   30270    300.69499   -59414.727    291.47022   -59123.257   -7617.2867    93462.973        39.58        39.58    59.660654 
   30280    305.45568   -59419.342    296.08485   -59123.257   -7634.7355    93460.957        39.58        39.58    59.659367 
   30290    301.54149   -59415.509    292.29075   -59123.218   -6750.3791    93458.987        39.58        39.58     59.65811 
   30300    305.41652   -59419.275     296.0469   -59123.228   -7356.7599    93457.656        39.58        39.58     59.65726 
   30310    301.80975   -59415.752    292.55078   -59123.201   -7234.2659    93456.821        39.58        39.58    59.656727 
   30320    304.83728   -59418.697    295.48543   -59123.212   -6648.9004    93456.526        39.58        39.58    59.656539 
   30330    304.47126    -59418.32    295.13064   -59123.189   -7652.3183    93457.243        39.58        39.58    59.656997 
   30340    301.13641   -59415.053     291.8981   -59123.155   -6845.1715    93458.309        39.58        39.58    59.657677 
   30350    303.74245   -59417.586    294.42419   -59123.162   -6809.4208    93459.355        39.58        39.58    59.658345 
   30360    305.36449   -59419.168    295.99647   -59123.171   -6684.7451    93460.611        39.58        39.58    59.659147 
   30370    304.06268   -59417.903    294.73459   -59123.169   -6156.9478    93462.164        39.58        39.58    59.660138 
   30380    305.80407   -59419.605    296.42256   -59123.182   -6698.1057     93464.02        39.58        39.58    59.661322 
   30390    306.49157   -59420.271    297.08897   -59123.182   -6977.4922    93466.239        39.58        39.58    59.662739 
   30400    303.58883   -59417.454    294.27528   -59123.178   -7808.5717    93468.676        39.58        39.58    59.664294 
   30410    302.89184   -59416.803    293.59967   -59123.203   -8144.5927    93470.874        39.58        39.58    59.665698 
   30420    301.36741   -59415.335    292.12201   -59123.213   -7101.6028    93472.723        39.58        39.58    59.666878 
   30430    304.50892   -59418.423    295.16715   -59123.256   -6378.4665    93474.627        39.58        39.58    59.668094 
   30440    303.00995   -59416.985    293.71416   -59123.271   -6883.1057    93476.963        39.58        39.58    59.669585 
   30450     304.2482     -59418.2    294.91442   -59123.285    -7485.076    93479.307        39.58        39.58    59.671081 
   30460    305.61885   -59419.554    296.24302   -59123.311   -7037.5357    93481.316        39.58        39.58    59.672363 
   30470    300.00782   -59414.134    290.80413    -59123.33   -7869.3724    93483.272        39.58        39.58    59.673612 
   30480    303.90719   -59417.976    294.58387   -59123.392   -8077.4595    93485.068        39.58        39.58    59.674758 
   30490    302.32608   -59416.455    293.05127   -59123.404   -7681.9864    93487.053        39.58        39.58    59.676025 
   30500    302.18011   -59416.363    292.90977   -59123.453   -7675.8955    93489.321        39.58        39.58    59.677473 
   30510    305.71402   -59419.855    296.33527    -59123.52   -7973.8167    93491.555        39.58        39.58    59.678899 
   30520      301.728   -59415.994    292.47154   -59123.523   -7341.9386    93493.728        39.58        39.58    59.680286 
   30530    304.03015   -59418.284    294.70306   -59123.581   -8255.0707    93495.992        39.58        39.58    59.681732 
   30540     301.8654   -59416.217    292.60472   -59123.613   -8086.6806    93497.916        39.58        39.58     59.68296 
   30550      301.208   -59415.633    291.96749   -59123.666   -7294.0026    93499.756        39.58        39.58    59.684134 
   30560    299.79714   -59414.315    290.59992   -59123.715   -7409.2174    93502.135        39.58        39.58    59.685653 
   30570    305.55069   -59419.972    296.17695   -59123.795   -7636.8371    93504.943        39.58        39.58    59.687445 
   30580    305.25031   -59419.729    295.88579   -59123.843   -7514.9355    93508.062        39.58        39.58    59.689436 
   30590    301.36741   -59416.013    292.12201   -59123.891   -7041.2111    93511.641        39.58        39.58    59.691721 
   30600    302.78565   -59417.454    293.49674   -59123.957   -7328.7066    93515.539        39.58        39.58    59.694209 
   30610    304.63895   -59419.292    295.29319   -59123.999   -7651.6471    93519.517        39.58        39.58    59.696748 
   30620    306.04543   -59420.738    296.65651   -59124.081    -7975.352    93523.865        39.58        39.58    59.699524 
   30630    298.96578   -59413.924    289.79405    -59124.13   -8111.0499    93528.635        39.58        39.58    59.702568 
   30640    302.24489   -59417.203    292.97256    -59124.23   -7821.4904    93533.464        39.58        39.58    59.705651 
   30650    301.53741   -59416.604    292.28679   -59124.317   -7882.4998    93538.413        39.58        39.58     59.70881 
   30660    302.91549    -59418.01    293.62259   -59124.388   -7815.3145    93543.389        39.58        39.58    59.711986 
   30670    304.47048   -59419.596    295.12988   -59124.467    -8074.421    93548.008        39.58        39.58    59.714935 
   30680    303.75091   -59418.987    294.43239   -59124.555   -8325.6708    93551.807        39.58        39.58     59.71736 
   30690    301.71398   -59417.071    292.45794   -59124.613   -8537.1462    93554.972        39.58        39.58     59.71938 
   30700    307.01896   -59422.313    297.60018   -59124.713   -8431.3966    93557.694        39.58        39.58    59.721118 
   30710    301.15629    -59416.67    291.91736   -59124.752     -8745.06    93559.883        39.58        39.58    59.722515 
   30720    303.21298   -59418.771    293.91096    -59124.86   -8308.3986    93561.323        39.58        39.58    59.723434 
   30730    304.23971    -59419.88    294.90619   -59124.973   -8319.3069      93562.4        39.58        39.58    59.724122 
   30740    302.90001   -59418.686    293.60759   -59125.079   -8663.3099    93562.984        39.58        39.58    59.724495 
   30750    304.06724    -59419.91    294.73901   -59125.171   -8201.3976     93562.84        39.58        39.58    59.724403 
   30760    301.07282     -59417.1    291.83646   -59125.264   -7762.5785    93562.343        39.58        39.58    59.724085 
   30770    300.87762   -59417.017    291.64724    -59125.37   -8138.7824    93561.867        39.58        39.58    59.723782 
   30780    301.65718   -59417.868    292.40289   -59125.465   -8018.0905    93561.217        39.58        39.58    59.723367 
   30790    300.82357   -59417.164    291.59486   -59125.569   -7679.4988     93560.52        39.58        39.58    59.722922 
   30800    302.81919   -59419.222    293.52925   -59125.693   -8493.7268    93560.199        39.58        39.58    59.722717 
   30810    301.75543   -59418.286    292.49812   -59125.788    -8220.255    93559.847        39.58        39.58    59.722492 
   30820    303.21067   -59419.806    293.90872   -59125.897   -7995.2293    93559.428        39.58        39.58    59.722225 
   30830    305.37117   -59422.015    296.00294   -59126.012   -9126.8217    93559.206        39.58        39.58    59.722083 
   30840     300.3833   -59417.268    291.16809     -59126.1   -8055.9612    93559.012        39.58        39.58    59.721959 
   30850    301.80388   -59418.781    292.54509   -59126.236   -8295.8413    93558.971        39.58        39.58    59.721933 
   30860    304.48892   -59421.514    295.14776   -59126.366   -8508.1822    93559.002        39.58        39.58    59.721953 
   30870    300.14765   -59417.391    290.93967   -59126.451   -8466.5991    93559.178        39.58        39.58    59.722065 
   30880    303.14784    -59420.44    293.84782   -59126.592   -8129.0964    93559.765        39.58        39.58     59.72244 
   30890    298.32243   -59415.862    289.17044   -59126.691   -7718.4141    93561.033        39.58        39.58    59.723249 
   30900    302.41665   -59419.972    293.13906   -59126.833   -8464.7373    93563.084        39.58        39.58    59.724559 
   30910     304.4899   -59422.101    295.14871   -59126.953   -8176.6362    93565.809        39.58        39.58    59.726298 
   30920    302.28907   -59420.095     293.0154    -59127.08   -8318.6586    93568.967        39.58        39.58    59.728314 
   30930    299.38759   -59417.414    290.20293   -59127.211   -8328.2013    93572.101        39.58        39.58    59.730314 
   30940       300.63   -59418.759    291.40722   -59127.352   -7930.4947    93575.518        39.58        39.58    59.732496 
   30950    308.48077   -59426.532    299.01715   -59127.515   -8651.3414    93579.759        39.58        39.58    59.735203 
   30960     298.0549   -59416.511    288.91112     -59127.6   -8819.5889    93584.325        39.58        39.58    59.738118 
   30970    297.19997   -59415.822    288.08242    -59127.74   -8450.5337    93588.975        39.58        39.58    59.741086 
   30980     299.7148   -59418.398     290.5201   -59127.878   -9200.5822    93593.845        39.58        39.58    59.744195 
   30990    297.47631   -59416.347    288.35028   -59127.997   -9328.9569    93598.422        39.58        39.58    59.747116 
   31000    298.37009    -59417.34    289.21665   -59128.123   -9410.0816    93602.211        39.58        39.58    59.749535 
   31010    304.36956   -59423.299    295.03206   -59128.267   -9472.1973    93605.353        39.58        39.58     59.75154 
   31020    299.27043   -59418.437    290.08936   -59128.348   -9553.3309    93607.907        39.58        39.58    59.753171 
   31030    300.99985   -59420.257    291.76572   -59128.491   -9119.3954    93609.783        39.58        39.58    59.754368 
   31040    297.34558   -59416.818    288.22356   -59128.594   -8727.9395    93611.401        39.58        39.58    59.755401 
   31050    301.84912   -59421.326    292.58894   -59128.737   -9007.6614    93613.034        39.58        39.58    59.756443 
   31060    301.47192   -59421.086    292.22331   -59128.863   -8909.5094    93614.384        39.58        39.58    59.757305 
[...]
   48540    299.32385   -59419.437    290.14114   -59129.296   -9450.2196    93621.822        39.58        39.58    59.762053 
   48550    298.39052   -59418.469    289.23644   -59129.232   -9703.2092    93615.841        39.58        39.58    59.758235 
   48560    298.16537   -59418.186     289.0182   -59129.168   -9724.1016      93609.6        39.58        39.58    59.754252 
   48570    300.16124   -59420.047    290.95284   -59129.094   -8968.8699    93603.098        39.58        39.58    59.750101 
   48580    302.52975   -59422.249    293.24869   -59129.001   -8834.1435    93596.896        39.58        39.58    59.746142 
   48590    297.55822   -59417.311    288.42968   -59128.881   -8978.2904    93591.376        39.58        39.58    59.742618 
   48600    296.71109   -59416.403    287.60854   -59128.795   -9105.8114    93586.214        39.58        39.58    59.739323 
   48610    303.09141   -59422.509    293.79312   -59128.716   -9578.3054    93580.898        39.58        39.58     59.73593 
   48620    299.52883   -59418.923    290.33983   -59128.583   -8901.1039    93575.365        39.58        39.58    59.732398 
   48630    299.83047   -59419.128    290.63222   -59128.495   -8644.0807    93570.112        39.58        39.58    59.729045 
   48640    302.82829   -59421.937    293.53807   -59128.399   -8049.9523    93565.422        39.58        39.58    59.726051 
   48650    301.41206   -59420.444    292.16529   -59128.279   -8240.3982    93561.825        39.58        39.58    59.723755 
   48660    303.26643   -59422.147    293.96277   -59128.184   -8653.2342    93559.154        39.58        39.58     59.72205 
   48670    304.17787   -59422.927    294.84625    -59128.08   -8604.9014    93557.029        39.58        39.58    59.720694 
   48680    300.73844   -59419.474    291.51234   -59127.962   -8620.4117    93555.433        39.58        39.58    59.719675 
   48690    299.03945   -59417.692    289.86546   -59127.827   -7825.4936    93554.106        39.58        39.58    59.718828 
   48700    301.70857   -59420.163    292.45271    -59127.71   -7560.4593    93553.182        39.58        39.58    59.718238 
   48710    297.96786   -59416.397    288.82675    -59127.57   -8149.4617    93552.724        39.58        39.58    59.717945 
   48720    298.92931   -59417.191     289.7587   -59127.432   -8830.2232    93552.506        39.58        39.58    59.717806 
   48730    299.80004   -59417.876    290.60272   -59127.273   -9658.8668    93552.144        39.58        39.58    59.717575 
   48740    301.27299   -59419.156    292.03048   -59127.125    -9430.948    93551.208        39.58        39.58    59.716978 
   48750     304.4119   -59422.041     295.0731   -59126.968   -8752.5953    93549.647        39.58        39.58    59.715981 
   48760    300.98026   -59418.535    291.74674   -59126.788   -8772.5476     93547.76        39.58        39.58    59.714777 
   48770    300.67679   -59418.085    291.45258   -59126.632   -8241.3812    93545.478        39.58        39.58     59.71332 
   48780    301.30261   -59418.498    292.05919   -59126.438   -7734.3527    93542.936        39.58        39.58    59.711697 
   48790    302.07648   -59419.034    292.80932   -59126.224   -8406.0485    93540.241        39.58        39.58    59.709977 
   48800    305.25462   -59421.929    295.88997   -59126.039   -8010.7938    93536.949        39.58        39.58    59.707876 
   48810    300.53346   -59417.118    291.31364   -59125.804   -7229.3729     93533.22        39.58        39.58    59.705495 
   48820    301.47397   -59417.815     292.2253    -59125.59   -7509.2471      93529.6        39.58        39.58    59.703185 
   48830    303.53462   -59419.605    294.22273   -59125.382   -7528.5362    93526.099        39.58        39.58     59.70095 
   48840     300.9722   -59416.864    291.73892   -59125.125   -7701.1887    93522.743        39.58        39.58    59.698807 
   48850    302.39252   -59418.001    293.11567   -59124.885   -7185.9471    93519.646        39.58        39.58    59.696831 
   48860    303.42392   -59418.739    294.11543   -59124.624   -8552.6964    93516.993        39.58        39.58    59.695137 
   48870    306.23517   -59421.216    296.84043   -59124.375    -8214.444    93514.132        39.58        39.58    59.693311 
   48880    300.78631   -59415.637    291.55874   -59124.079   -8755.8201    93511.001        39.58        39.58    59.691312 
   48890    301.90873   -59416.458    292.64673   -59123.812   -8604.5711    93507.419        39.58        39.58    59.689026 
   48900    298.85207   -59413.212    289.68384   -59123.529   -8751.9652    93503.499        39.58        39.58    59.686524 
   48910    299.74619   -59413.794    290.55052   -59123.244   -9484.6555    93499.321        39.58        39.58    59.683856 
   48920    302.21224   -59415.888    292.94092   -59122.947   -8398.2896    93494.939        39.58        39.58    59.681059 
   48930     304.6417   -59417.976    295.29585   -59122.681   -8138.8609    93490.732        39.58        39.58    59.678374 
   48940    304.54755    -59417.59    295.20459   -59122.386   -7619.7197    93486.892        39.58        39.58    59.675923 
   48950    303.54562   -59416.323     294.2334    -59122.09   -7136.5971    93483.755        39.58        39.58     59.67392 
   48960    303.37272   -59415.884     294.0658   -59121.818   -6953.1602    93481.318        39.58        39.58    59.672364 
   48970    303.80892   -59416.016    294.48862   -59121.527   -7121.6195    93479.808        39.58        39.58    59.671401 
   48980    306.10701   -59417.985    296.71621   -59121.268    -7190.535    93479.397        39.58        39.58    59.671138 
   48990    304.92401   -59416.581     295.5695   -59121.012   -5765.9288    93480.186        39.58        39.58    59.671642 
   49000     307.8188   -59419.168    298.37548   -59120.793   -6331.1328    93482.509        39.58        39.58    59.673125 
   49010    306.97776   -59418.124    297.56024   -59120.564    -7096.449    93486.005        39.58        39.58    59.675357 
   49020    305.87736   -59416.812     296.4936   -59120.318   -7145.7935    93490.311        39.58        39.58    59.678105 
   49030    308.33358   -59419.004    298.87447    -59120.13   -7345.6674    93495.045        39.58        39.58    59.681127 
   49040      298.979   -59409.699    289.80687   -59119.892    -7909.384    93499.771        39.58        39.58    59.684144 
   49050    308.74767   -59419.022    299.27585   -59119.746   -7326.0148     93504.29        39.58        39.58    59.687028 
   49060    307.26296   -59417.395     297.8367   -59119.559   -7354.3744    93508.739        39.58        39.58    59.689869 
   49070    306.30326   -59416.305    296.90644   -59119.399   -8022.2257    93512.851        39.58        39.58    59.692493 
   49080    304.36547   -59414.256    295.02809   -59119.228   -8027.9596    93516.144        39.58        39.58    59.694595 
   49090    305.70477   -59415.415    296.32631   -59119.088   -8490.9191     93518.67        39.58        39.58    59.696208 
   49100    304.20985   -59413.832    294.87725   -59118.954   -8801.6824    93519.984        39.58        39.58    59.697046 
   49110    301.79132   -59411.358    292.53292   -59118.825   -8072.4824    93519.763        39.58        39.58    59.696905 
   49120    306.31315   -59415.655    296.91603   -59118.739   -7664.1976    93518.685        39.58        39.58    59.696217 
   49130    304.01601   -59413.315    294.68936   -59118.626   -8394.5263    93516.908        39.58        39.58    59.695083 
   49140    301.85074   -59411.117    292.59051   -59118.526   -7621.8219    93513.975        39.58        39.58    59.693211 
   49150    307.44598   -59416.486     298.0141   -59118.472    -7643.136    93510.203        39.58        39.58    59.690803 
   49160    307.29016   -59416.258    297.86306   -59118.395   -7712.6823    93506.153        39.58        39.58    59.688218 
   49170    308.23068   -59417.085    298.77473   -59118.311   -6666.5321    93501.838        39.58        39.58    59.685463 
   49180    307.91178   -59416.707    298.46561   -59118.242   -6869.6062    93497.537        39.58        39.58    59.682718 
   49190    303.12757    -59411.99    293.82817   -59118.162   -6582.6125    93493.443        39.58        39.58    59.680104 
   49200    308.02263   -59416.714    298.57306    -59118.14   -7331.5523    93489.624        39.58        39.58    59.677666 
   49210    304.32525   -59413.062    294.98911   -59118.073   -7063.2184    93486.147        39.58        39.58    59.675447 
   49220    308.52454   -59417.108    299.05957   -59118.049   -7294.7269    93483.153        39.58        39.58    59.673536 
   49230     308.0258   -59416.599    298.57613   -59118.023    -7424.964    93480.632        39.58        39.58    59.671927 
   49240    306.35614   -59414.967     296.9577   -59118.009   -6647.7263    93478.568        39.58        39.58    59.670609 
   49250     306.4489   -59415.041    297.04761   -59117.993   -7252.3031    93477.039        39.58        39.58    59.669633 
   49260     307.6924   -59416.254    298.25296   -59118.001   -7585.4863    93475.627        39.58        39.58    59.668732 
   49270    304.66003     -59413.3    295.31362   -59117.987   -7854.4856    93474.441        39.58        39.58    59.667975 
   49280    306.65278    -59415.25    297.24523   -59118.004   -8089.1001     93473.28        39.58        39.58    59.667233 
   49290    304.87272    -59413.52    295.51978       -59118   -8352.4041    93471.933        39.58        39.58    59.666374 
   49300    307.90097   -59416.462    298.45513   -59118.007   -8055.8476    93470.371        39.58        39.58    59.665376 
   49310    307.94419   -59416.536    298.49702   -59118.039   -6861.7427    93468.825        39.58        39.58     59.66439 
   49320    301.06801   -59409.859    291.83179   -59118.027   -6982.6444    93467.584        39.58        39.58    59.663597 
   49330    307.80922   -59416.442    298.36619   -59118.076   -6988.2538    93466.575        39.58        39.58    59.662953 
   49340     306.4529    -59415.14    297.05148   -59118.088   -7063.0679    93465.735        39.58        39.58    59.662417 
   49350    305.56174   -59414.306    296.18766   -59118.118   -7610.6029    93464.692        39.58        39.58    59.661751 
   49360    305.72898   -59414.505    296.34977   -59118.155   -6486.4086    93463.601        39.58        39.58    59.661055 
   49370    306.40793   -59415.211     297.0079   -59118.203   -6369.5297    93463.248        39.58        39.58     59.66083 
   49380    305.01766   -59413.897    295.66027   -59118.237   -6009.9467    93463.782        39.58        39.58    59.661171 
   49390    307.37871    -59416.25    297.94889   -59118.301   -6703.5247    93464.918        39.58        39.58    59.661896 
   49400    306.01157   -59414.958    296.62369   -59118.334   -7608.7262    93466.173        39.58        39.58    59.662697 
   49410    307.71219   -59416.659    298.27214   -59118.387   -7217.7999    93467.009        39.58        39.58     59.66323 
   49420    306.27596   -59415.328    296.87998   -59118.448   -6907.0805    93467.543        39.58        39.58    59.663571 
   49430    305.72534   -59414.879    296.34625   -59118.533   -6653.7971    93468.535        39.58        39.58    59.664205 
   49440    306.28536   -59415.506    296.88908   -59118.617    -7561.754    93470.305        39.58        39.58    59.665334 
   49450    307.86555   -59417.115    298.42079   -59118.695   -8075.1267    93472.429        39.58        39.58     59.66669 
   49460    303.02661   -59412.483    293.73031   -59118.753   -8038.7314     93474.29        39.58        39.58    59.667879 
   49470    305.64297   -59415.114     296.2664   -59118.848   -7880.6036     93475.64        39.58        39.58     59.66874 
   49480    307.01359    -59416.53    297.59497   -59118.935   -7404.8996    93476.508        39.58        39.58    59.669294 
   49490    304.04062   -59413.721    294.71321   -59119.008   -7134.0615    93476.979        39.58        39.58    59.669595 
   49500    303.82658   -59413.584    294.50573   -59119.078   -7425.7484    93477.214        39.58        39.58    59.669745 
   49510    306.36565   -59416.146    296.96691   -59119.179     -7839.73    93477.424        39.58        39.58    59.669879 
   49520      301.211   -59411.229     291.9704   -59119.259   -7948.8632     93477.36        39.58        39.58    59.669838 
   49530    304.03697   -59414.098    294.70967   -59119.389   -7620.6708    93476.852        39.58        39.58    59.669514 
   49540    306.38313   -59416.488    296.98385   -59119.504   -7315.3053     93476.47        39.58        39.58     59.66927 
   49550    304.08487   -59414.343     294.7561   -59119.587   -7380.3738    93476.531        39.58        39.58    59.669309 
   49560    309.42735   -59419.641    299.93469   -59119.707    -6558.034    93476.906        39.58        39.58    59.669548 
   49570    309.97545   -59420.272    300.46597   -59119.806   -7300.9138    93477.627        39.58        39.58    59.670008 
   49580    302.88283    -59413.48    293.59093   -59119.889   -7475.0697    93478.406        39.58        39.58    59.670506 
   49590    304.81568   -59415.486    295.46449   -59120.022   -7867.5033      93479.1        39.58        39.58    59.670949 
   49600    305.45581   -59416.232    296.08498   -59120.147   -7346.3028    93479.895        39.58        39.58    59.671456 
   49610    304.74854   -59415.661    295.39941   -59120.262   -7406.4018    93481.492        39.58        39.58    59.672475 
   49620    307.66289   -59418.624    298.22435     -59120.4   -7131.7152    93484.431        39.58        39.58    59.674351 
   49630    302.20406   -59413.456    292.93299   -59120.523   -7704.4453     93488.69        39.58        39.58     59.67707 
   49640    303.35831   -59414.708    294.05183   -59120.656   -7926.9234    93493.213        39.58        39.58    59.679958 
   49650    304.12825   -59415.578    294.79815    -59120.78   -7528.1615    93497.544        39.58        39.58    59.682722 
   49660    302.70063   -59414.325    293.41433   -59120.911   -7800.3049    93501.797        39.58        39.58    59.685437 
   49670    307.15875   -59418.782    297.73568   -59121.047   -6846.9432    93505.983        39.58        39.58    59.688109 
   49680    304.02704   -59415.874    294.70004   -59121.174   -7053.6335    93510.922        39.58        39.58    59.691262 
   49690    303.82407   -59415.819     294.5033   -59121.316   -8648.2545     93516.97        39.58        39.58    59.695122 
   49700    306.51815   -59418.568    297.11474   -59121.454   -8631.9667    93523.408        39.58        39.58    59.699232 
   49710    302.04887   -59414.358    292.78256   -59121.575   -8400.0052    93529.476        39.58        39.58    59.703106 
   49720     304.7716   -59417.143    295.42176   -59121.721   -7976.6639    93535.059        39.58        39.58    59.706669 
   49730    303.19946   -59415.742    293.89785   -59121.845     -7966.59     93540.48        39.58        39.58     59.71013 
   49740    306.10764   -59418.718    296.71681   -59122.001   -7122.5539    93545.697        39.58        39.58     59.71346 
   49750    305.72939    -59418.49    296.35017   -59122.139   -8535.5475    93551.158        39.58        39.58    59.716946 
   49760    304.02289   -59416.977    294.69603    -59122.28   -8920.2073    93556.457        39.58        39.58    59.720329 
   49770    300.91836   -59414.097    291.68674    -59122.41   -8430.3652    93561.313        39.58        39.58    59.723428 
   49780    302.61638    -59415.88    293.33266   -59122.547    -8551.408    93565.695        39.58        39.58    59.726225 
   49790    301.55229   -59414.978    292.30122   -59122.677   -8204.8197    93569.758        39.58        39.58    59.728819 
   49800    305.27967   -59418.747    295.91424   -59122.833   -8583.1296    93573.806        39.58        39.58    59.731403 
   49810    305.95856   -59419.542    296.57231    -59122.97   -8774.4096    93577.424        39.58        39.58    59.733712 
   49820    299.67622   -59413.565     290.4827   -59123.083   -9053.3295    93580.306        39.58        39.58    59.735552 
   49830    306.16219   -59420.031    296.76969   -59123.261   -9061.7751    93582.458        39.58        39.58    59.736926 
   49840    302.55599   -59416.653    293.27412   -59123.379   -8813.6864    93584.287        39.58        39.58    59.738093 
   49850    304.16258   -59418.362    294.83143   -59123.531   -8520.4949    93585.693        39.58        39.58    59.738991 
   49860    305.35358   -59419.667    295.98589   -59123.682   -9515.0379    93586.817        39.58        39.58    59.739708 
   49870    301.55522   -59416.109    292.30406   -59123.805    -9212.638    93587.671        39.58        39.58    59.740253 
   49880    301.50623   -59416.199    292.25657   -59123.942   -8802.7255    93588.205        39.58        39.58    59.740594 
   49890    301.99978   -59416.816    292.73498   -59124.081   -8776.3784      93588.6        39.58        39.58    59.740846 
   49900    300.93132    -59415.92     291.6993   -59124.221   -8094.4365    93589.278        39.58        39.58    59.741279 
   49910    305.94723   -59420.944    296.56133   -59124.382   -8378.9711    93590.695        39.58        39.58    59.742184 
   49920    302.19869   -59417.401    292.92779   -59124.474   -8696.8023    93592.555        39.58        39.58    59.743371 
   49930    305.27546   -59420.517    295.91017   -59124.607   -8537.3555    93594.444        39.58        39.58    59.744576 
   49940    299.02421   -59414.556    289.85069   -59124.705    -8768.491    93596.756        39.58        39.58    59.746052 
   49950    299.34421   -59415.004    290.16087   -59124.843   -8591.4979    93599.272        39.58        39.58    59.747659 
   49960    300.47142   -59416.239    291.25351   -59124.986   -8512.6121    93601.809        39.58        39.58    59.749278 
   49970    300.83821   -59416.721    291.60904   -59125.112   -9141.0873    93604.975        39.58        39.58    59.751299 
   49980    304.29497   -59420.218    294.95975   -59125.258   -9716.6895    93608.465        39.58        39.58    59.753527 
   49990    303.42729   -59419.504    294.11869   -59125.386   -9344.9033    93611.767        39.58        39.58    59.755635 
   50000    302.53018   -59418.747    293.24911   -59125.498   -8990.8471    93615.229        39.58        39.58    59.757845 
Loop time of 1139.57 on 1 procs for 25000 steps with 7500 atoms

Performance: 3.791 ns/day, 6.331 hours/ns, 21.938 timesteps/s
72.0% CPU use with 1 MPI tasks x 1 OpenMP threads

MPI task timing breakdown:
Section |  min time  |  avg time  |  max time  |%varavg| %total
---------------------------------------------------------------
Pair    | 1061.2     | 1061.2     | 1061.2     |   0.0 | 93.12
Neigh   | 0          | 0          | 0          |   0.0 |  0.00
Comm    | 2.1409     | 2.1409     | 2.1409     |   0.0 |  0.19
Output  | 66.201     | 66.201     | 66.201     |   0.0 |  5.81
Modify  | 8.1603     | 8.1603     | 8.1603     |   0.0 |  0.72
Other   |            | 1.859      |            |       |  0.16

Nlocal:        7500.00 ave        7500 max        7500 min
Histogram: 1 0 0 0 0 0 0 0 0 0
Nghost:        11862.0 ave       11862 max       11862 min
Histogram: 1 0 0 0 0 0 0 0 0 0
Neighs:        0.00000 ave           0 max           0 min
Histogram: 1 0 0 0 0 0 0 0 0 0

Total # of neighbors = 0
Ave neighs/atom = 0.0000000
Neighbor list builds = 0
Dangerous builds = 0
write_restart    PTO_C.restart.continue
System init for write_restart ...


Please see the log.cite file for references relevant to this simulation

Total wall time: 0:19:11
