LAMMPS (29 Oct 2020)
OMP_NUM_THREADS environment is not set. Defaulting to 1 thread. (src/comm.cpp:94)
  using 1 OpenMP thread(s) per MPI task
variable        NSTEPS          equal 25000
variable        THERMO_FREQ     equal 10
variable        DUMP_FREQ       equal 10
variable        TEMP            equal 300
variable        PRES            equal 1.0
variable        TAU_T           equal 1.0
variable        TAU_P           equal 5.0

units           metal
boundary        p p p
atom_style      atomic

neighbor	2.0 bin
neigh_modify	every 1

read_data       PTO_C.data
Reading data file ...
  triclinic box = (0.0000000 0.0000000 0.0000000) to (158.32000 158.32000 16.097712) with tilt (0.0000000 0.0000000 0.0000000)
  1 by 1 by 1 MPI processor grid
  reading atoms ...
  32000 atoms
  read_data CPU = 0.055 seconds

mass            1 87.620000
mass            2 207.200000
mass            3 47.867000
mass            4 15.999000
pair_style      deepmd /storage/liushiLab/huyihao/DPMD/L25/new-field-model/phase-diagram/15-15-15/300K_3.956_3.956_D/Sr-dope/PSTO_SS_example/1_DP_potential/compress01.pb

pair_coeff

thermo_style    custom step temp pe ke etotal press vol lx ly lz
thermo          ${THERMO_FREQ}
thermo          10

#min_style cg
#minimize 1.0e-4 1.0e-6 1000 10000

dump            1 all custom ${DUMP_FREQ} traj/*.lammpstrj id type x y z
dump            1 all custom 10 traj/*.lammpstrj id type x y z
dump_modify  1 sort id

velocity        all create ${TEMP} 539619
velocity        all create 300 539619
fix             1 all npt temp ${TEMP} ${TEMP} ${TAU_T} z ${PRES} ${PRES} ${TAU_P}
fix             1 all npt temp 300 ${TEMP} ${TAU_T} z ${PRES} ${PRES} ${TAU_P}
fix             1 all npt temp 300 300 ${TAU_T} z ${PRES} ${PRES} ${TAU_P}
fix             1 all npt temp 300 300 1 z ${PRES} ${PRES} ${TAU_P}
fix             1 all npt temp 300 300 1 z 1 ${PRES} ${TAU_P}
fix             1 all npt temp 300 300 1 z 1 1 ${TAU_P}
fix             1 all npt temp 300 300 1 z 1 1 5

timestep        0.002000
run             ${NSTEPS}
run             25000
Neighbor list info ...
  update every 1 steps, delay 10 steps, check yes
  max neighbors/atom: 2000, page size: 100000
  master list distance cutoff = 8
  ghost atom cutoff = 8
  binsize = 4, bins = 40 40 5
  1 neighbor lists, perpetual/occasional/extra = 1 0 0
  (1) pair deepmd, perpetual
      attributes: , newton on
      pair build: full/bin/atomonly
      stencil: full/bin/3d
      bin: standard
Per MPI rank memory allocation (min/avg/max) = 41.21 | 41.21 | 41.21 Mbytes
Step Temp PotEng KinEng TotEng Press Volume Lx Ly Lz 
       0          300    -254139.6    1240.8586   -252898.74   -22468.888    403492.73       158.32       158.32    16.097712 
      10    192.23301   -253695.38    795.11329   -252900.27   -49960.008    403420.73       158.32       158.32    16.094839 
      20    218.76876   -253815.57    904.87035    -252910.7   -43477.475    403208.29       158.32       158.32    16.086364 
      30    166.81981   -253608.77    689.99934   -252918.77   -23769.729    402880.29       158.32       158.32    16.073278 
      40    209.46077   -253796.97    866.37067    -252930.6   -27775.985    402474.54       158.32       158.32     16.05709 
      50    197.43836   -253757.52    816.64365   -252940.88   -16711.688    402016.05       158.32       158.32    16.038798 
      60    184.59615   -253711.92    763.52575    -252948.4    4089.0236    401539.97       158.32       158.32    16.019805 
      70    190.48712   -253745.14    787.89196   -252957.25   -23193.732    401072.51       158.32       158.32    16.001155 
      80     181.8899   -253719.11    752.33218   -252966.77   -24193.093    400619.59       158.32       158.32    15.983085 
      90    177.43262   -253707.05      733.896   -252973.15   -18035.167    400195.41       158.32       158.32    15.966162 
     100    221.62771   -253896.38    916.69553   -252979.69   -19325.778    399805.01       158.32       158.32    15.950587 
     110    205.13985   -253833.69    848.49852   -252985.19   -12138.875    399437.92       158.32       158.32    15.935942 
     120    216.59846   -253885.67    895.89354   -252989.77   -10658.402    399089.33       158.32       158.32    15.922034 
     130    230.43408   -253947.47     953.1204   -252994.35   -24114.148    398753.11       158.32       158.32     15.90862 
     140    207.01784    -253854.9    856.26621   -252998.63   -25601.768    398419.71       158.32       158.32    15.895319 
     150    197.27383   -253817.67    815.96311   -253001.71   -22190.325    398093.19       158.32       158.32    15.882292 
     160    202.13599   -253839.37    836.07396   -253003.29   -17482.612    397783.02       158.32       158.32    15.869918 
     170    211.84772   -253879.97    876.24354   -253003.73   -11431.995    397495.33       158.32       158.32     15.85844 
     180    212.80664   -253883.15    880.20983   -253002.94   -6253.0293    397235.63       158.32       158.32    15.848079 
     190    213.10571   -253883.49    881.44684   -253002.05   -6387.0485    397005.01       158.32       158.32    15.838878 
     200    206.38766   -253854.73     853.6597   -253001.07   -4343.7249    396797.66       158.32       158.32    15.830606 
     210    207.70933   -253858.72    859.12638   -252999.59   -1190.1613    396614.12       158.32       158.32    15.823284 
     220    210.73663   -253869.39    871.64788   -252997.74   -2902.5513    396458.35       158.32       158.32    15.817069 
     230    211.85558    -253872.1    876.27607   -252995.83   -2386.9775    396329.47       158.32       158.32    15.811927 
     240    214.98975   -253883.19     889.2396   -252993.95   -1784.6853    396226.96       158.32       158.32    15.807837 
     250    210.94243   -253864.74     872.4991   -252992.24   -4154.9323    396145.33       158.32       158.32    15.804581 
     260    212.01145    -253867.8    876.92079   -252990.88   -5189.0185    396073.27       158.32       158.32    15.801706 
     270    211.66907   -253864.98    875.50461   -252989.48   -5465.1504       396004       158.32       158.32    15.798942 
     280    212.24334   -253866.02    877.87993   -252988.14   -5754.7531    395934.25       158.32       158.32    15.796159 
     290    212.01943   -253863.79    876.95378   -252986.83   -4681.8199    395862.09       158.32       158.32     15.79328 
     300    212.33047   -253863.73    878.24029   -252985.49   -3339.9664    395788.41       158.32       158.32    15.790341 
     310    215.74918   -253876.49    892.38078   -252984.11   -2661.1497    395714.58       158.32       158.32    15.787396 
     320    217.04713   -253880.38    897.74933   -252982.64   -1769.1732    395640.91       158.32       158.32    15.784456 
     330    219.04197   -253887.12     906.0004   -252981.12   -346.92536     395568.4       158.32       158.32    15.781563 
     340    220.86165   -253893.06    913.52695   -252979.53    767.50729    395499.46       158.32       158.32    15.778813 
     350    219.19456   -253884.55    906.63154   -252977.92    1996.5504    395435.59       158.32       158.32    15.776265 
     360    218.17434   -253878.68    902.41168   -252976.27    3153.5718    395377.41       158.32       158.32    15.773944 
     370    218.49348   -253878.34    903.73173   -252974.61    2714.9008    395325.43       158.32       158.32     15.77187 
     380    219.14715   -253879.36    906.43545   -252972.92    1970.2815       395279       158.32       158.32    15.770018 
     390    220.97683   -253885.28    914.00333   -252971.28    1832.2003    395236.98       158.32       158.32    15.768341 
     400    219.94578   -253879.33    909.73873   -252969.59    861.95547    395197.98       158.32       158.32    15.766785 
     410    219.23538    -253874.7    906.80035    -252967.9    218.19777    395160.18       158.32       158.32    15.765277 
     420    220.52468   -253878.38    912.13317   -252966.25    413.57582    395122.76       158.32       158.32    15.763784 
     430    221.22988   -253879.59    915.04999   -252964.54   -293.33796    395085.81       158.32       158.32     15.76231 
     440    222.04944   -253881.28    918.43985   -252962.84   -383.12738    395048.99       158.32       158.32    15.760841 
     450    221.15088   -253875.83    914.72325   -252961.11     1235.836    395013.33       158.32       158.32    15.759418 
     460    220.92251   -253873.16    913.77868   -252959.38    2027.8264    394981.15       158.32       158.32    15.758135 
     470    220.89382   -253871.31       913.66   -252957.65     2568.998     394953.2       158.32       158.32     15.75702 
     480    221.69998   -253872.89    916.99442    -252955.9    4266.4295     394930.3       158.32       158.32    15.756106 
     490    220.79252   -253867.32      913.241   -252954.08    4158.7879    394914.24       158.32       158.32    15.755465 
     500    221.36212    -253867.9    915.59696    -252952.3    4208.7021     394904.7       158.32       158.32    15.755085 
     510    222.88015    -253872.4    921.87584   -252950.52     4929.923    394901.51       158.32       158.32    15.754957 
     520    224.33217   -253876.58     927.8817    -252948.7    4322.7438    394904.93       158.32       158.32    15.755094 
     530    226.78005   -253884.91    938.00661   -252946.91    3658.7913    394913.46       158.32       158.32    15.755434 
     540    226.49503   -253881.91    936.82771   -252945.08    3866.4082    394925.32       158.32       158.32    15.755907 
     550    224.54722   -253872.02    928.77116   -252943.25    3035.8367    394939.74       158.32       158.32    15.756483 
     560    224.38783   -253869.56    928.11191   -252941.44    1888.9912    394955.37       158.32       158.32    15.757106 
     570    223.43997   -253863.82    924.19137   -252939.63    2177.0713    394970.41       158.32       158.32    15.757706 
     580    222.62174   -253858.62    920.80703   -252937.81    1979.6208    394984.33       158.32       158.32    15.758261 
     590    222.24518   -253855.26    919.24947   -252936.01    1816.4898    394996.94       158.32       158.32    15.758765 
     600    221.69581   -253851.16     916.9772   -252934.19    2475.6191    395007.92       158.32       158.32    15.759203 
     610     223.5925    -253857.2    924.82228   -252932.38    2759.2241    395017.89       158.32       158.32      15.7596 
     620    223.76751   -253856.05    925.54614   -252930.51    2520.5171    395027.97       158.32       158.32    15.760003 
     630    225.02566   -253859.34    930.75009   -252928.59    3113.7697    395038.27       158.32       158.32    15.760414 
     640    227.54974   -253867.92    941.19018   -252926.73    3460.2967    395048.63       158.32       158.32    15.760827 
     650    227.74063   -253866.82    941.97974   -252924.84    3031.9901    395059.16       158.32       158.32    15.761247 
     660    228.64398   -253868.66    945.71619   -252922.94    3548.5385    395069.49       158.32       158.32    15.761659 
     670    229.07973   -253868.56    947.51853   -252921.04    3255.0033    395079.16       158.32       158.32    15.762045 
     680    227.36717   -253859.56    940.43504   -252919.12    2728.6162    395087.99       158.32       158.32    15.762397 
     690    227.72858   -253859.17    941.92989   -252917.24    2864.8559    395096.25       158.32       158.32    15.762727 
     700    228.09798   -253858.79    943.45781   -252915.33    3036.1708    395103.76       158.32       158.32    15.763026 
     710    227.80068   -253855.65    942.22811   -252913.43    2505.0824    395109.97       158.32       158.32    15.763274 
     720    228.28616   -253855.74    944.23618   -252911.51    2754.0345    395114.25       158.32       158.32    15.763445 
     730    229.24035   -253857.78    948.18286    -252909.6    2818.5847    395116.89       158.32       158.32     15.76355 
     740    228.47836   -253852.69    945.03112   -252907.66    2146.0717    395118.23       158.32       158.32    15.763604 
     750     229.9315   -253856.81    951.04162   -252905.77    2323.4921    395118.09       158.32       158.32    15.763598 
     760    230.23704   -253856.12    952.30538   -252903.81     3029.561    395116.63       158.32       158.32     15.76354 
     770    229.42664    -253850.8    948.95342   -252901.84    2812.2154     395114.3       158.32       158.32    15.763447 
     780    230.73433    -253854.3    954.36228   -252899.94    2989.1392    395110.85       158.32       158.32    15.763309 
     790    229.87917   -253848.81    950.82518   -252897.99    3399.9493    395106.64       158.32       158.32    15.763141 
     800    229.55653   -253845.52    949.49067   -252896.03    3017.7564    395101.92       158.32       158.32    15.762953 
     810    229.74622   -253844.35    950.27524   -252894.07    3415.0232     395096.7       158.32       158.32    15.762745 
     820    230.71345   -253846.42    954.27591   -252892.14    3601.2846    395092.15       158.32       158.32    15.762563 
     830    230.95998   -253845.44    955.29559   -252890.15    3280.4479    395088.55       158.32       158.32     15.76242 
     840    232.30341   -253849.04    960.85228   -252888.19    3140.0606    395085.24       158.32       158.32    15.762288 
     850    232.25169   -253846.83    960.63839   -252886.19    3067.2042    395081.29       158.32       158.32     15.76213 
     860    233.33865   -253849.36    965.13423   -252884.23    2866.3808    395076.25       158.32       158.32    15.761929 
     870    232.97928   -253845.87    963.64782   -252882.22    2776.3287    395069.82       158.32       158.32    15.761672 
     880    233.46821   -253845.91    965.67014   -252880.24    3290.1121    395061.62       158.32       158.32    15.761345 
     890    231.81404   -253837.07    958.82816   -252878.24    3311.2631    395052.89       158.32       158.32    15.760997 
     900    233.60254   -253842.53    966.22574   -252876.31    3479.7122    395044.41       158.32       158.32    15.760658 
     910    231.99235   -253833.86    959.56568   -252874.29    3663.7804    395036.27       158.32       158.32    15.760334 
     920    232.10643   -253832.34    960.03756    -252872.3    3500.5744    395028.27       158.32       158.32    15.760015 
     930    232.63533   -253832.52    962.22518   -252870.29    3723.8468     395020.4       158.32       158.32      15.7597 
     940    232.95205   -253831.83    963.53519   -252868.29     3745.048     395012.6       158.32       158.32    15.759389 
     950    233.67591    -253832.8     966.5292   -252866.27    3550.7951     395004.8       158.32       158.32    15.759078 
     960    234.22724   -253833.08    968.80964   -252864.27    3832.0255    394997.13       158.32       158.32    15.758772 
     970     235.1039   -253834.69    972.43568   -252862.25    3589.3483    394990.08       158.32       158.32    15.758491 
     980    235.40664   -253833.86    973.68784   -252860.18    3480.1938    394983.24       158.32       158.32    15.758218 
     990    235.36991   -253831.69    973.53595   -252858.16    3651.0646    394976.22       158.32       158.32    15.757938 
    1000    234.69292   -253826.85    970.73576   -252856.12    3528.6764    394968.94       158.32       158.32    15.757648 
    1010     235.0117   -253826.16    972.05433   -252854.11    3728.3493    394961.29       158.32       158.32    15.757342 
    1020     235.1054   -253824.54    972.44188    -252852.1    4063.4176    394953.69       158.32       158.32    15.757039 
    1030    235.51797   -253824.21    974.14834   -252850.06    3907.4107    394946.54       158.32       158.32    15.756754 
    1040     236.1865   -253824.92     976.9135      -252848    4064.5022    394940.16       158.32       158.32    15.756499 
    1050    236.27197   -253823.22    977.26702   -252845.96    4367.6748    394935.02       158.32       158.32    15.756294 
    1060    236.57522   -253822.45    978.52133   -252843.92     4254.089    394931.26       158.32       158.32    15.756144 
    1070    237.77814   -253825.36    983.49685   -252841.86     3806.576    394928.62       158.32       158.32    15.756039 
    1080    238.70728   -253827.15    987.33996   -252839.81    4297.0899    394926.58       158.32       158.32    15.755958 
    1090    238.76395    -253825.3    987.57433   -252837.73    4107.2405    394925.34       158.32       158.32    15.755908 
    1100    238.65963   -253822.79    987.14288   -252835.65    4020.6514     394924.8       158.32       158.32    15.755886 
    1110    238.75461   -253821.09    987.53573   -252833.55    4609.4705     394925.1       158.32       158.32    15.755898 
    1120     239.2045   -253820.91    989.39655   -252831.52    4328.9369    394926.79       158.32       158.32    15.755966 
    1130    237.64762   -253812.38    982.95698   -252829.43    4117.0149    394929.81       158.32       158.32    15.756086 
    1140    239.73236   -253818.98     991.5799    -252827.4    4343.8677    394934.03       158.32       158.32    15.756255 
    1150    239.44434   -253815.69    990.38857    -252825.3    4150.2312    394939.21       158.32       158.32    15.756462 
    1160    240.32614   -253817.29    994.03585   -252823.25    4120.4403    394944.71       158.32       158.32    15.756681 
    1170    240.09496   -253814.28    993.07965    -252821.2    4652.1617    394950.58       158.32       158.32    15.756915 
    1180     240.0508   -253812.01    992.89702   -252819.11    4465.8566    394956.98       158.32       158.32     15.75717 
    1190    240.42101   -253811.44    994.42828   -252817.01    4122.9796     394963.6       158.32       158.32    15.757435 
    1200    240.21855   -253808.53    993.59084   -252814.94    4502.0302    394970.39       158.32       158.32    15.757705 
    1210    241.05979   -253809.93    997.07038   -252812.86    4477.8046    394978.17       158.32       158.32    15.758016 
    1220    241.52034   -253809.74    998.97533   -252810.76    3945.2458       394987       158.32       158.32    15.758368 
    1230     241.5105   -253807.62    998.93462   -252808.69    4166.5808    394996.25       158.32       158.32    15.758737 
    1240    242.10524   -253808.01    1001.3946   -252806.62    4423.5269    395005.94       158.32       158.32    15.759124 
    1250    241.77543   -253804.54    1000.0304   -252804.51    3702.7537    395015.55       158.32       158.32    15.759507 
    1260    241.67443   -253802.03    999.61265   -252802.41    4036.5528    395023.67       158.32       158.32    15.759831 
    1270    243.14317   -253806.01    1005.6877   -252800.33    4314.0272    395030.91       158.32       158.32     15.76012 
    1280     242.2073   -253799.99    1001.8167   -252798.18    3831.8716    395037.91       158.32       158.32    15.760399 
    1290    243.25645   -253802.25    1006.1562    -252796.1     4151.843    395044.12       158.32       158.32    15.760647 
    1300    243.54288   -253801.33    1007.3409   -252793.99    4502.8096    395049.87       158.32       158.32    15.760876 
    1310    243.10812   -253797.43    1005.5427   -252791.89    4027.7756    395055.67       158.32       158.32    15.761108 
    1320    243.69042   -253797.77    1007.9512   -252789.82    4284.9927    395061.19       158.32       158.32    15.761328 
    1330     244.1374   -253797.51       1009.8   -252787.71    4397.6611    395066.37       158.32       158.32    15.761534 
    1340    245.35297   -253800.42    1014.8278   -252785.59    4161.2522    395071.18       158.32       158.32    15.761727 
    1350    244.31566   -253794.02    1010.5373   -252783.48     4317.984    395074.77       158.32       158.32     15.76187 
    1360    243.95754   -253790.46     1009.056    -252781.4    4476.2205    395077.07       158.32       158.32    15.761962 
    1370    246.19744   -253797.62    1018.3207    -252779.3    4074.2879    395078.51       158.32       158.32    15.762019 
    1380    244.97647   -253790.38    1013.2705   -252777.11    4017.3224    395078.55       158.32       158.32     15.76202 
    1390    246.28121   -253793.69    1018.6672   -252775.03    3929.4564    395077.08       158.32       158.32    15.761962 
    1400    245.89153   -253789.93    1017.0554   -252772.87    3939.3772    395074.11       158.32       158.32    15.761843 
    1410    245.91687   -253787.94    1017.1602   -252770.78    4257.3757    395069.34       158.32       158.32    15.761653 
    1420    245.99685   -253786.18     1017.491   -252768.69    4346.8803    395063.14       158.32       158.32    15.761406 
    1430    247.99187   -253792.31    1025.7428   -252766.56    4271.5153    395055.91       158.32       158.32    15.761117 
    1440    247.26497   -253787.15    1022.7362   -252764.41     4210.523    395047.81       158.32       158.32    15.760794 
    1450    247.66744   -253786.72    1024.4009   -252762.32    4037.0797     395038.9       158.32       158.32    15.760439 
    1460     247.4891   -253783.84    1023.6633   -252760.18    4408.8776    395029.09       158.32       158.32    15.760047 
    1470    246.54741   -253777.81    1019.7683   -252758.04    4965.1919    395018.75       158.32       158.32    15.759635 
    1480    249.40439   -253787.54    1031.5853   -252755.95    4908.8755    395008.66       158.32       158.32    15.759232 
    1490    248.94738    -253783.5     1029.695    -252753.8    4946.7111    394999.14       158.32       158.32    15.758853 
    1500    248.55222   -253779.73    1028.0605   -252751.67    5136.2059    394990.63       158.32       158.32    15.758513 
    1510    250.03596   -253783.74    1034.1976   -252749.54    4724.0424    394983.16       158.32       158.32    15.758215 
    1520    249.31435   -253778.63    1031.2129   -252747.41    4548.7698     394976.3       158.32       158.32    15.757941 
    1530    249.97192   -253779.22    1033.9327   -252745.29    4781.4497    394969.98       158.32       158.32    15.757689 
    1540     250.7014    -253780.1      1036.95   -252743.15    4617.3009     394964.2       158.32       158.32    15.757458 
    1550    251.33428   -253780.61    1039.5677   -252741.04    4591.4745    394958.61       158.32       158.32    15.757235 
    1560    251.44985   -253778.96    1040.0457   -252738.92    5112.2052    394953.27       158.32       158.32    15.757022 
    1570    251.48436   -253776.99    1040.1884   -252736.81    4745.0694    394948.66       158.32       158.32    15.756838 
    1580    251.94788   -253776.76    1042.1057   -252734.65    4756.1038    394944.89       158.32       158.32    15.756688 
    1590    251.28474   -253771.84    1039.3628   -252732.48    5026.2128    394942.13       158.32       158.32    15.756578 
    1600    253.21873   -253777.75    1047.3621   -252730.39    5243.7065    394940.43       158.32       158.32     15.75651 
    1610    251.76376   -253769.54    1041.3441    -252728.2    5268.7858    394939.84       158.32       158.32    15.756487 
    1620    252.72436    -253771.4    1045.3173   -252726.08    5510.9539    394940.62       158.32       158.32    15.756518 
    1630    252.47557   -253768.23    1044.2883   -252723.94    5416.0339    394942.87       158.32       158.32    15.756607 
    1640    252.59015   -253766.61    1044.7622   -252721.85    5104.3626    394946.63       158.32       158.32    15.756758 
    1650    252.67315   -253764.85    1045.1055   -252719.75    5105.7444    394951.73       158.32       158.32    15.756961 
    1660     254.5354   -253770.43    1052.8081   -252717.62    5246.9818    394957.93       158.32       158.32    15.757208 
    1670     253.6902   -253764.78    1049.3122   -252715.47    5177.8055    394964.96       158.32       158.32    15.757489 
    1680    254.30047   -253765.17    1051.8364   -252713.33    5178.4038    394972.31       158.32       158.32    15.757782 
    1690    255.56993    -253768.3    1057.0872   -252711.21    4961.7228    394979.74       158.32       158.32    15.758078 
    1700    254.54153   -253761.91    1052.8335   -252709.08    4741.3253    394987.09       158.32       158.32    15.758372 
    1710    254.57193    -253759.9    1052.9592   -252706.94    4940.0184    394994.48       158.32       158.32    15.758666 
    1720     256.1877   -253764.46    1059.6424   -252704.82    4818.5716    395002.47       158.32       158.32    15.758985 
    1730    256.02906   -253761.66    1058.9862   -252702.67    5138.9324    395010.56       158.32       158.32    15.759308 
    1740    256.17983   -253760.14    1059.6098   -252700.53    5236.9817     395018.6       158.32       158.32    15.759629 
    1750    255.77609   -253756.35    1057.9399   -252698.41     5242.613    395026.51       158.32       158.32    15.759944 
    1760    256.28612   -253756.38    1060.0495   -252696.33    5203.2323    395034.18       158.32       158.32    15.760251 
    1770    256.26691   -253754.19      1059.97   -252694.22    5121.0057    395041.67       158.32       158.32    15.760549 
    1780    255.84663   -253750.31    1058.2316   -252692.08    5427.0911    395048.96       158.32       158.32     15.76084 
    1790    259.92202    -253765.1    1075.0883   -252690.01    5146.2075    395056.37       158.32       158.32    15.761136 
    1800    256.15695    -253747.3    1059.5152   -252687.78    5045.7223    395063.15       158.32       158.32    15.761406 
    1810    258.11319   -253753.34    1067.6066   -252685.73    5363.9794     395068.9       158.32       158.32    15.761636 
    1820    257.68726   -253749.43    1065.8449   -252683.59    4831.0383    395073.84       158.32       158.32    15.761833 
    1830     259.7364   -253755.81    1074.3205   -252681.49     4686.116    395077.36       158.32       158.32    15.761973 
    1840    259.74125   -253753.68    1074.3406   -252679.34    5331.6882    395079.15       158.32       158.32    15.762044 
    1850    258.42124   -253746.06    1068.8807   -252677.18    4916.5559    395079.89       158.32       158.32    15.762074 
    1860    258.91344   -253745.99    1070.9166   -252675.07    4877.1098    395079.31       158.32       158.32    15.762051 
    1870     258.7706   -253743.28    1070.3258   -252672.96    5518.9464    395077.19       158.32       158.32    15.761966 
    1880    258.48354   -253739.98    1069.1384   -252670.85    4983.5054    395074.31       158.32       158.32    15.761851 
    1890    260.40593   -253745.89    1077.0898    -252668.8    5250.8782    395070.73       158.32       158.32    15.761709 
    1900    259.81422   -253741.31    1074.6424   -252666.66     5599.656    395066.68       158.32       158.32    15.761547 
    1910    260.35537   -253741.42    1076.8807   -252664.54    5561.8999    395062.16       158.32       158.32    15.761367 
    1920    260.87027   -253741.43    1079.0104   -252662.42    5615.7146    395057.35       158.32       158.32    15.761175 
    1930    259.94775   -253735.48    1075.1947   -252660.29    6039.1623    395052.42       158.32       158.32    15.760978 
    1940    260.32351   -253734.96    1076.7489   -252658.21    5702.8564    395047.55       158.32       158.32    15.760784 
    1950    262.23277   -253740.77     1084.646   -252656.12    5529.2258    395042.56       158.32       158.32    15.760585 
    1960    262.65202   -253740.37    1086.3801   -252653.99    5854.5783    395037.27       158.32       158.32    15.760374 
    1970    260.65299   -253729.94    1078.1117   -252651.82    5835.7686    395031.98       158.32       158.32    15.760163 
    1980    262.70067   -253736.32    1086.5813   -252649.74     5850.321    395027.03       158.32       158.32    15.759965 
    1990      262.899   -253735.03    1087.4016   -252647.63    5900.5764    395022.68       158.32       158.32    15.759791 
    2000    262.97889   -253733.26    1087.7321   -252645.53    6133.1261    395019.06       158.32       158.32    15.759647 
    2010    264.40818   -253737.06    1093.6439   -252643.42    5892.6789    395016.59       158.32       158.32    15.759549 
    2020     264.9191    -253737.1    1095.7572   -252641.34    6121.6813    395015.34       158.32       158.32    15.759499 
    2030     263.2825   -253728.18    1088.9879   -252639.19    6138.7123    395014.99       158.32       158.32    15.759485 
    2040      264.422   -253730.84    1093.7011   -252637.14    5883.7248     395015.7       158.32       158.32    15.759513 
    2050    263.34661   -253724.27     1089.253   -252635.01    5882.9201    395017.92       158.32       158.32    15.759602 
    2060    264.25745   -253725.96    1093.0204   -252632.94    6234.2946    395021.71       158.32       158.32    15.759753 
    2070    264.22491   -253723.74    1092.8859   -252630.86    6170.1248    395026.93       158.32       158.32    15.759961 
    2080    264.65047   -253723.44    1094.6461   -252628.79    6339.1448    395033.79       158.32       158.32    15.760235 
    2090    263.99531   -253718.65    1091.9362   -252626.71    6603.1604    395042.18       158.32       158.32     15.76057 
    2100    265.46795   -253722.65    1098.0273   -252624.62    5918.8603    395052.12       158.32       158.32    15.760966 
    2110    265.99139   -253722.73    1100.1924   -252622.53    5841.4072    395062.69       158.32       158.32    15.761388 
    2120    265.09832   -253716.91    1096.4984   -252620.41    5923.6956    395073.76       158.32       158.32    15.761829 
    2130    267.10064   -253723.15    1104.7804   -252618.37    6052.7697    395085.33       158.32       158.32    15.762291 
    2140    266.42203   -253718.28    1101.9736    -252616.3     6023.783    395097.32       158.32       158.32    15.762769 
    2150     265.9774   -253714.37    1100.1345   -252614.23    6151.6768    395109.53       158.32       158.32    15.763257 
    2160    266.40897   -253714.05    1101.9196   -252612.13    6050.0689    395121.91       158.32       158.32     15.76375 
    2170    268.72173   -253721.58    1111.4856    -252610.1    5875.7044    395133.91       158.32       158.32    15.764229 
    2180     267.1433   -253712.94    1104.9569   -252607.98    6103.6253    395145.32       158.32       158.32    15.764684 
    2190    267.75501   -253713.41     1107.487   -252605.92    6297.5611     395156.2       158.32       158.32    15.765119 
    2200    268.38219   -253713.95    1110.0812   -252603.87    5866.3967    395166.41       158.32       158.32    15.765526 
    2210    268.53595   -253712.49    1110.7172   -252601.78    6010.6495    395175.33       158.32       158.32    15.765882 
    2220    267.19276   -253704.85    1105.1615   -252599.69    5746.7322    395183.04       158.32       158.32    15.766189 
    2230     268.9143   -253709.97    1112.2821   -252597.68    5615.3492    395189.57       158.32       158.32     15.76645 
    2240     267.3846   -253701.56     1105.955   -252595.61      5897.49    395194.78       158.32       158.32    15.766658 
    2250    268.59785   -253704.56    1110.9732   -252593.59    5743.2646    395198.69       158.32       158.32    15.766814 
    2260     267.3119   -253697.13    1105.6542   -252591.48     5720.429    395201.18       158.32       158.32    15.766913 
    2270    269.70079   -253704.99    1115.5352   -252589.46    5508.6734    395202.33       158.32       158.32    15.766959 
    2280    268.99259   -253699.98    1112.6059   -252587.37    5712.1262    395201.86       158.32       158.32     15.76694 
    2290    270.23238    -253703.1    1117.7339   -252585.37     5669.282     395199.8       158.32       158.32    15.766858 
    2300    271.44809    -253706.1    1122.7623   -252583.34    5786.8967    395196.06       158.32       158.32    15.766709 
    2310    270.52181   -253700.15    1118.9311   -252581.22    6308.8491    395191.08       158.32       158.32     15.76651 
    2320    272.75092   -253707.37    1128.1511   -252579.22    6034.8564    395185.67       158.32       158.32    15.766294 
    2330    272.62348   -253704.79     1127.624   -252577.16    6121.6956    395179.94       158.32       158.32    15.766066 
    2340    270.35102   -253693.31    1118.2246   -252575.09    6387.4198     395174.2       158.32       158.32    15.765837 
    2350    271.99501   -253698.15    1125.0245   -252573.12    6252.6777    395168.54       158.32       158.32    15.765611 
    2360    271.43362   -253693.79    1122.7025   -252571.09    5884.1993     395162.8       158.32       158.32    15.765382 
    2370      272.578   -253696.52    1127.4359   -252569.08    6208.5751    395156.47       158.32       158.32    15.765129 
    2380    271.16425   -253688.63    1121.5883   -252567.04    6221.8535    395149.82       158.32       158.32    15.764864 
    2390    272.05634   -253690.33    1125.2782   -252565.05    6125.0235    395143.49       158.32       158.32    15.764611 
    2400    272.24613   -253689.12    1126.0632   -252563.06    5957.2471     395137.6       158.32       158.32    15.764376 
    2410    273.65924   -253692.97    1131.9081   -252561.06    6015.7844     395131.8       158.32       158.32    15.764145 
    2420    272.87085   -253687.66    1128.6472   -252559.01    6067.4477    395125.81       158.32       158.32    15.763906 
    2430    273.33338   -253687.58    1130.5603   -252557.02    6291.3066    395119.95       158.32       158.32    15.763672 
    2440    273.50333   -253686.28    1131.2632   -252555.02    6354.3694     395114.6       158.32       158.32    15.763459 
    2450    275.25997   -253691.55     1138.529   -252553.02    6090.2863    395109.98       158.32       158.32    15.763274 
    2460    273.77714   -253683.41    1132.3957   -252551.01    6562.2516    395106.34       158.32       158.32    15.763129 
    2470    274.34224   -253683.74    1134.7331      -252549    6805.0403    395104.09       158.32       158.32    15.763039 
    2480    274.86468   -253683.87     1136.894   -252546.98    6407.3554    395103.19       158.32       158.32    15.763003 
    2490    274.56913   -253680.66    1135.6716   -252544.99    6654.6157    395103.23       158.32       158.32    15.763005 
    2500    276.17925    -253685.4    1142.3314   -252543.07    6713.7789    395104.13       158.32       158.32    15.763041 
    2510    275.27072   -253679.61    1138.5735   -252541.04    6241.7916    395106.12       158.32       158.32    15.763121 
    2520    277.20909   -253685.68    1146.5909   -252539.09    6481.5242    395109.19       158.32       158.32    15.763243 
    2530    275.73896   -253677.63    1140.5102   -252537.12    6497.6258    395113.23       158.32       158.32    15.763404 
    2540    275.64296   -253675.28    1140.1132   -252535.16    6178.3224    395118.14       158.32       158.32      15.7636 
    2550    277.59979   -253681.43     1148.207   -252533.22    6468.1073    395123.85       158.32       158.32    15.763828 
    2560    277.03575   -253677.14     1145.874   -252531.27    6552.5806    395129.97       158.32       158.32    15.764072 
    2570    275.83826   -253670.21    1140.9209   -252529.29    6005.6641    395136.31       158.32       158.32    15.764325 
    2580    275.42547   -253666.54    1139.2136   -252527.33    6611.5637    395142.45       158.32       158.32     15.76457 
    2590    276.74532   -253670.08    1144.6727   -252525.41    6625.0943    395148.47       158.32       158.32     15.76481 
    2600    277.10211   -253669.59    1146.1485   -252523.44    6357.6093    395154.61       158.32       158.32    15.765055 
    2610    276.94975   -253667.02    1145.5183    -252521.5    6560.7336    395161.26       158.32       158.32     15.76532 
    2620    276.99812   -253665.28    1145.7184   -252519.56    6996.2781    395168.38       158.32       158.32    15.765604 
    2630    277.09053    -253663.7    1146.1006    -252517.6    6421.9024    395176.08       158.32       158.32    15.765912 
    2640    280.07055   -253674.13    1158.4265   -252515.71    6595.6472    395183.92       158.32       158.32    15.766225 
    2650    278.91265    -253667.4    1153.6372   -252513.77    6608.3652    395192.09       158.32       158.32     15.76655 
    2660    278.71186   -253664.66    1152.8067   -252511.85    5909.1837    395200.62       158.32       158.32    15.766891 
    2670    279.24392   -253664.95    1155.0074   -252509.94    6167.0067    395209.26       158.32       158.32    15.767235 
    2680    278.93701   -253661.76     1153.738   -252508.02    6113.8325    395218.11       158.32       158.32    15.767588 
    2690    280.09441   -253664.66    1158.5252   -252506.14    5587.7092    395226.79       158.32       158.32    15.767935 
    2700    277.90996   -253653.66    1149.4899   -252504.17    5924.8537    395234.54       158.32       158.32    15.768244 
    2710     279.6639   -253659.04    1156.7445    -252502.3    5970.9465    395241.18       158.32       158.32    15.768509 
    2720    279.99888   -253658.53    1158.1301    -252500.4    5799.8628    395246.68       158.32       158.32    15.768728 
    2730    278.27773   -253649.46    1151.0111   -252498.45    6124.0665    395251.33       158.32       158.32    15.768914 
    2740     280.3736    -253656.3      1159.68   -252496.62    6150.5105    395255.32       158.32       158.32    15.769073 
    2750    279.52214   -253650.86    1156.1582    -252494.7    5920.1638    395258.55       158.32       158.32    15.769202 
    2760    280.34012   -253652.36    1159.5415   -252492.82    6111.7418    395261.12       158.32       158.32    15.769304 
    2770    281.32266   -253654.56    1163.6055   -252490.95    6260.1993    395263.06       158.32       158.32    15.769382 
    2780    281.53525   -253653.55    1164.4848   -252489.06    6100.8851    395264.46       158.32       158.32    15.769438 
    2790    282.15494   -253654.24     1167.048   -252487.19    6233.8151    395265.22       158.32       158.32    15.769468 
    2800    282.87128   -253655.32    1170.0109    -252485.3    5994.9883    395265.46       158.32       158.32    15.769477 
    2810    280.29916   -253642.76    1159.3721   -252483.39    5803.2776    395264.76       158.32       158.32     15.76945 
    2820    282.11976   -253648.46    1166.9024   -252481.56    5738.9215    395262.88       158.32       158.32    15.769374 
    2830    284.38865   -253656.01     1176.287   -252479.72    5473.5746    395259.61       158.32       158.32    15.769244 
    2840    282.61096   -253646.81    1168.9342   -252477.88     5844.689    395254.89       158.32       158.32    15.769056 
    2850    282.15751   -253643.12    1167.0586   -252476.06    5886.1386    395249.39       158.32       158.32    15.768836 
    2860    283.25568   -253645.84    1171.6008   -252474.24    5435.4333    395243.45       158.32       158.32    15.768599 
    2870    282.72837   -253641.79    1169.4198   -252472.37    5629.4673    395236.49       158.32       158.32    15.768322 
    2880    284.22833    -253646.2    1175.6239   -252470.57    5543.5457    395228.51       158.32       158.32    15.768003 
    2890    282.65517   -253637.84     1169.117   -252468.72    5672.4432    395219.64       158.32       158.32    15.767649 
    2900    282.99145   -253637.43    1170.5079   -252466.92    5992.0884    395210.17       158.32       158.32    15.767272 
    2910    283.26823   -253636.74    1171.6528   -252465.09    5795.9603    395200.52       158.32       158.32    15.766887 
    2920    285.22608   -253643.08    1179.7508   -252463.33    5662.4275    395191.03       158.32       158.32    15.766508 
    2930    283.91945   -253635.83    1174.3463   -252461.49    5887.4527    395181.96       158.32       158.32    15.766146 
    2940    284.85922   -253637.95    1178.2334   -252459.72     5976.866    395173.51       158.32       158.32    15.765809 
    2950    285.32199   -253638.07    1180.1475   -252457.92    5731.7498    395165.86       158.32       158.32    15.765504 
    2960    284.73506   -253633.83    1177.7198   -252456.11    5863.2002    395158.71       158.32       158.32    15.765219 
    2970    286.59971   -253639.81    1185.4324   -252454.38    5641.6141    395151.72       158.32       158.32     15.76494 
    2980    284.60477   -253629.74    1177.1809   -252452.56    5403.6271    395144.82       158.32       158.32    15.764664 
    2990    284.66479   -253628.21    1177.4292   -252450.78    5548.2426    395138.36       158.32       158.32    15.764407 
    3000    286.32712   -253633.34    1184.3049   -252449.03    5541.9948    395132.17       158.32       158.32     15.76416 
    3010    284.91524   -253625.72    1178.4651   -252447.26    5607.0288    395126.52       158.32       158.32    15.763934 
    3020    285.77733   -253627.57    1182.0309   -252445.54    5448.8552    395122.01       158.32       158.32    15.763754 
    3030    286.53261   -253628.92    1185.1549   -252443.77    5488.4925    395118.39       158.32       158.32     15.76361 
    3040    286.84743   -253628.47     1186.457   -252442.01     5026.115    395115.29       158.32       158.32    15.763486 
    3050    286.12209    -253623.7    1183.4569   -252440.24    5216.7212     395112.5       158.32       158.32    15.763375 
    3060    287.12983   -253626.15    1187.6251   -252438.53    5326.7221    395110.26       158.32       158.32    15.763286 
    3070    286.39969   -253621.35    1184.6051   -252436.74    5345.6362    395108.46       158.32       158.32    15.763214 
    3080    287.55046    -253624.4    1189.3649   -252435.03     5419.814    395107.36       158.32       158.32     15.76317 
    3090    286.43172   -253618.02    1184.7376   -252433.28    5450.5214    395107.66       158.32       158.32    15.763182 
    3100     288.1952   -253623.61    1192.0317   -252431.58    5433.7367    395109.25       158.32       158.32    15.763245 
    3110    288.38832   -253622.73    1192.8304    -252429.9    5247.7987    395111.89       158.32       158.32    15.763351 
    3120    288.42589    -253621.2    1192.9858   -252428.22    5604.5231    395115.82       158.32       158.32    15.763508 
    3130    289.00349   -253621.87    1195.3749   -252426.49    5718.5497    395121.16       158.32       158.32    15.763721 
    3140    288.84055   -253619.52     1194.701   -252424.82    5249.2623    395127.48       158.32       158.32    15.763973 
    3150    290.08022   -253623.02    1199.8285    -252423.2    5277.4544    395133.86       158.32       158.32    15.764227 
    3160    288.90561   -253616.47    1194.9701    -252421.5    5422.7833    395140.35       158.32       158.32    15.764486 
    3170    289.45685   -253617.11    1197.2501   -252419.86    4921.6613    395147.61       158.32       158.32    15.764776 
    3180    288.96915   -253613.42    1195.2329   -252418.18    5270.2092    395155.74       158.32       158.32      15.7651 
    3190    289.25009   -253612.93    1196.3949   -252416.53    5177.2193     395164.6       158.32       158.32    15.765454 
    3200    289.27122   -253611.35    1196.4823   -252414.87    4848.1404    395173.38       158.32       158.32    15.765804 
    3210    289.64825   -253611.29    1198.0417   -252413.25    4826.3997    395181.38       158.32       158.32    15.766123 
    3220    288.22641   -253603.75    1192.1608   -252411.59    5151.5387    395188.86       158.32       158.32    15.766421 
    3230    289.88677   -253609.05    1199.0283   -252410.02    4545.9755    395195.91       158.32       158.32    15.766703 
    3240      288.572   -253601.95    1193.5902   -252408.36     4469.881    395201.97       158.32       158.32    15.766945 
    3250    290.48578   -253608.27    1201.5059   -252406.77     4573.489    395207.02       158.32       158.32    15.767146 
    3260     291.1647   -253609.47    1204.3141   -252405.16    4495.8907    395210.82       158.32       158.32    15.767297 
    3270    291.14546   -253607.81    1204.2345   -252403.57    4752.4969    395213.42       158.32       158.32    15.767401 
    3280    289.73666   -253600.32    1198.4074   -252401.91    4758.3242    395215.32       158.32       158.32    15.767477 
    3290    292.14614   -253608.72    1208.3735   -252400.35    4804.8168    395217.02       158.32       158.32    15.767545 
    3300    290.63682   -253600.84    1202.1307   -252398.71    5141.3971    395218.69       158.32       158.32    15.767611 
    3310    292.48415   -253606.93    1209.7716   -252397.16    4918.9269     395220.7       158.32       158.32    15.767692 
    3320    292.02069   -253603.45    1207.8546    -252395.6    4679.5104    395222.69       158.32       158.32    15.767771 
    3330    292.33509    -253603.2     1209.155   -252394.05     5097.381     395224.4       158.32       158.32    15.767839 
    3340    290.83704   -253595.42    1202.9588   -252392.46    4694.1497    395226.02       158.32       158.32    15.767904 
    3350    292.45914   -253600.61    1209.6681   -252390.94    4648.9384    395227.87       158.32       158.32    15.767978 
    3360    291.74195   -253596.06    1206.7017   -252389.36    4987.8232    395230.04       158.32       158.32    15.768064 
    3370    291.80164   -253594.77    1206.9486   -252387.82    4637.6134    395232.65       158.32       158.32    15.768169 
    3380    291.72915   -253592.92    1206.6487   -252386.27    4489.7382    395235.28       158.32       158.32    15.768274 
    3390    292.74254    -253595.6    1210.8403   -252384.76    4729.5898    395237.82       158.32       158.32    15.768375 
    3400    293.48995   -253597.19    1213.9318   -252383.26    3986.6354    395240.67       158.32       158.32    15.768489 
    3410    291.79745   -253588.68    1206.9313   -252381.75    3987.8352    395243.05       158.32       158.32    15.768583 
    3420      292.888    -253591.7     1211.442   -252380.26     4351.074    395245.04       158.32       158.32    15.768663 
    3430    294.88641   -253598.49    1219.7078   -252378.78    4308.8474    395247.14       158.32       158.32    15.768747 
    3440    293.08605   -253589.51    1212.2611   -252377.25    4145.9682    395248.78       158.32       158.32    15.768812 
    3450    294.39576   -253593.44    1217.6784   -252375.77    4735.6771    395249.39       158.32       158.32    15.768836 
    3460    294.43426    -253592.1    1217.8376   -252374.27    4519.2972     395249.4       158.32       158.32    15.768837 
    3470    293.81372   -253588.06     1215.271   -252372.78    4358.0717    395249.04       158.32       158.32    15.768822 
    3480    293.78923   -253586.49    1215.1696   -252371.32    4870.7155     395249.1       158.32       158.32    15.768825 
    3490    294.68035   -253588.74    1218.8555   -252369.88    4752.9449    395249.64       158.32       158.32    15.768846 
    3500    295.19347   -253589.44    1220.9779   -252368.46     4762.087    395250.05       158.32       158.32    15.768863 
    3510    294.39268   -253584.68    1217.6657   -252367.02    4986.4184    395250.03       158.32       158.32    15.768862 
    3520    295.13542   -253586.34    1220.7377    -252365.6    4688.8643     395249.3       158.32       158.32    15.768833 
    3530    295.90796    -253588.1    1223.9332   -252364.17    4539.1605     395247.5       158.32       158.32    15.768761 
    3540    295.14682   -253583.54    1220.7849   -252362.75    4671.4014    395244.71       158.32       158.32     15.76865 
    3550    295.91929   -253585.32      1223.98   -252361.34    4581.4555    395241.37       158.32       158.32    15.768516 
    3560    296.08655   -253584.62    1224.6718   -252359.94    4635.5954    395237.09       158.32       158.32    15.768345 
    3570    294.84516    -253578.1    1219.5372   -252358.56    4470.9986    395231.38       158.32       158.32    15.768118 
    3580    296.01764    -253581.6    1224.3868   -252357.21    4684.8353     395224.3       158.32       158.32    15.767835 
    3590    298.03772   -253588.62    1232.7422   -252355.88    4537.1964    395216.36       158.32       158.32    15.767519 
    3600    296.70825   -253581.73    1227.2433   -252354.49    4478.6389    395207.85       158.32       158.32    15.767179 
    3610    296.38453   -253579.02    1225.9043   -252353.12    4827.8702    395199.13       158.32       158.32    15.766831 
    3620    296.65579   -253578.84    1227.0263   -252351.82    5152.8129    395190.84       158.32       158.32      15.7665 
    3630    296.62591   -253577.39    1226.9027   -252350.49    4797.9595    395182.82       158.32       158.32     15.76618 
    3640    297.99116   -253581.72    1232.5497   -252349.18    5293.0309    395174.82       158.32       158.32    15.765861 
    3650    296.76287   -253575.29    1227.4692   -252347.82    5185.6387    395167.47       158.32       158.32    15.765568 
    3660    297.24403   -253576.01    1229.4594   -252346.55    5171.3082    395161.02       158.32       158.32    15.765311 
    3670    295.68549   -253568.24     1223.013   -252345.23    5609.3051     395155.8       158.32       158.32    15.765103 
    3680    298.28533   -253577.76    1233.7664   -252343.99    5342.3357    395152.42       158.32       158.32    15.764967 
    3690    298.61252   -253577.79    1235.1197   -252342.67    5131.8905    395150.75       158.32       158.32    15.764901 
    3700    297.89093   -253573.51    1232.1351   -252341.37    5271.7478    395150.65       158.32       158.32    15.764897 
    3710    298.57853   -253575.12    1234.9791   -252340.14    5064.6662    395151.82       158.32       158.32    15.764944 
    3720    300.16554   -253580.46    1241.5433   -252338.92    5157.5421    395154.16       158.32       158.32    15.765037 
    3730    299.12849   -253574.93    1237.2539   -252337.67    5508.4046    395157.61       158.32       158.32    15.765175 
    3740    298.44401   -253570.89    1234.4227   -252336.46    5218.2343    395162.07       158.32       158.32    15.765353 
    3750    299.04112   -253572.18    1236.8925   -252335.29    5156.2829    395167.56       158.32       158.32    15.765572 
    3760    298.40786   -253568.33    1234.2732   -252334.06    5256.3901    395174.12       158.32       158.32    15.765833 
    3770     299.0545   -253569.85    1236.9478    -252332.9    5158.4186    395181.35       158.32       158.32    15.766122 
    3780    299.17068   -253569.13    1237.4284    -252331.7    5012.2341    395189.34       158.32       158.32     15.76644 
    3790    299.16041   -253567.93    1237.3859   -252330.54    5603.4458    395197.83       158.32       158.32    15.766779 
    3800    300.18951   -253571.06    1241.6425   -252329.42    5243.2816    395206.67       158.32       158.32    15.767132 
    3810    299.21007   -253565.83    1237.5913   -252328.24    5107.9596    395215.65       158.32       158.32     15.76749 
    3820    299.56584    -253566.2    1239.0629   -252327.13    5156.2388    395224.82       158.32       158.32    15.767856 
    3830    300.97046   -253570.91    1244.8726   -252326.03    5073.2033    395233.93       158.32       158.32    15.768219 
    3840     298.8154   -253560.84    1235.9589   -252324.89    4852.2118    395242.83       158.32       158.32    15.768574 
    3850     302.8843   -253576.65    1252.7887   -252323.87    5292.9285    395251.23       158.32       158.32     15.76891 
    3860    298.66651   -253557.99     1235.343   -252322.65    5621.3755       395259       158.32       158.32     15.76922 
    3870    301.23538   -253567.64    1245.9684   -252321.67     5354.835     395266.3       158.32       158.32    15.769511 
    3880    300.75959   -253564.55    1244.0004   -252320.55    5890.1478    395273.26       158.32       158.32    15.769789 
    3890    301.22527   -253565.42    1245.9266   -252319.49     5865.831    395280.29       158.32       158.32    15.770069 
    3900    301.95744   -253567.44     1248.955   -252318.49    5360.5404    395287.55       158.32       158.32    15.770359 
    3910    303.42172   -253572.51    1255.0115    -252317.5    6196.5589     395294.9       158.32       158.32    15.770652 
    3920    300.89076      -253561     1244.543   -252316.45    5957.4678    395302.83       158.32       158.32    15.770968 
    3930     301.9486   -253564.39    1248.9184   -252315.47    5628.4774    395310.81       158.32       158.32    15.771287 
    3940    302.50827   -253565.68    1251.2333   -252314.45    5544.2577    395318.72       158.32       158.32    15.771603 
    3950    300.95073   -253558.28     1244.791   -252313.49    5351.4176    395326.63       158.32       158.32    15.771918 
    3960     303.3453    -253567.3    1254.6954    -252312.6    4958.5282    395334.32       158.32       158.32    15.772225 
    3970    301.85606   -253560.15    1248.5356   -252311.62    4988.3472     395341.2       158.32       158.32    15.772499 
    3980     303.1452   -253564.58    1253.8678   -252310.72    5309.4441    395347.11       158.32       158.32    15.772735 
    3990     301.4822   -253556.75    1246.9893   -252309.76    5285.5528    395352.25       158.32       158.32     15.77294 
    4000    302.08593   -253558.41    1249.4864   -252308.93    5197.6013    395356.68       158.32       158.32    15.773117 
    4010    302.29297   -253558.38    1250.3428   -252308.04    5133.2944    395360.72       158.32       158.32    15.773278 
    4020    302.81369   -253559.65    1252.4966   -252307.15     5324.712    395364.61       158.32       158.32    15.773433 
    4030    303.26384   -253560.67    1254.3585   -252306.31    5583.3325    395368.37       158.32       158.32    15.773583 
    4040    301.95581    -253554.4    1248.9482   -252305.45    5881.9156    395371.81       158.32       158.32     15.77372 
    4050    303.53119   -253560.09    1255.4643   -252304.62    6155.4648    395375.31       158.32       158.32     15.77386 
    4060    303.82658   -253560.47    1256.6861   -252303.78    6071.3239    395379.11       158.32       158.32    15.774012 
    4070    301.94216   -253551.83    1248.8918   -252302.94    5851.8177    395382.93       158.32       158.32    15.774164 
    4080    303.59647   -253557.92    1255.7343   -252302.18    6058.3531    395386.77       158.32       158.32    15.774317 
    4090    304.05768   -253559.06     1257.642   -252301.42    6062.7261    395390.78       158.32       158.32    15.774477 
    4100    303.88272   -253557.59    1256.9183   -252300.67    5956.2089    395394.47       158.32       158.32    15.774624 
    4110    305.19469   -253562.31    1262.3449   -252299.96    5967.4554    395398.14       158.32       158.32    15.774771 
    4120    303.50589   -253554.54    1255.3597   -252299.18    5579.8563     395401.3       158.32       158.32    15.774897 
    4130    304.82393   -253559.32    1260.8113    -252298.5    5499.2238    395402.95       158.32       158.32    15.774963 
    4140     303.0823   -253551.39    1253.6076   -252297.78    5658.2067    395403.42       158.32       158.32    15.774981 
    4150    304.46556    -253556.5    1259.3291   -252297.17    5792.9813    395403.17       158.32       158.32    15.774972 
    4160    304.61095   -253556.44    1259.9304   -252296.51    5731.5578    395401.73       158.32       158.32    15.774914 
    4170    303.77429   -253552.31    1256.4698   -252295.84    5737.7775    395398.81       158.32       158.32    15.774798 
    4180    302.96774   -253548.34    1253.1337   -252295.21    5677.6245    395394.69       158.32       158.32    15.774633 
    4190    303.00092   -253547.88     1253.271   -252294.61    5672.2753    395389.39       158.32       158.32    15.774422 
    4200    304.96741   -253555.43    1261.4048   -252294.03    5749.9091     395382.9       158.32       158.32    15.774163 
    4210    304.43396   -253552.65    1259.1983   -252293.45    6230.3577     395375.5       158.32       158.32    15.773867 
    4220    305.33856   -253555.86      1262.94   -252292.92    6535.3371    395367.71       158.32       158.32    15.773557 
    4230    305.02909      -253554    1261.6599   -252292.34    6311.5951    395360.02       158.32       158.32     15.77325 
    4240     304.8009   -253552.49    1260.7161   -252291.77    6201.3002    395352.31       158.32       158.32    15.772942 
    4250    306.02218   -253557.05    1265.7675   -252291.28    6305.6288    395344.76       158.32       158.32    15.772641 
    4260    305.63457   -253554.99    1264.1643   -252290.82    6012.0643    395337.98       158.32       158.32    15.772371 
    4270    305.36538   -253553.39    1263.0509   -252290.34    6695.2729    395331.52       158.32       158.32    15.772113 
    4280    304.49428    -253549.3    1259.4479   -252289.85    7014.2771    395325.51       158.32       158.32    15.771873 
    4290    308.01543   -253563.49     1274.012   -252289.48     6631.543    395320.44       158.32       158.32    15.771671 
    4300    305.39886   -253552.15    1263.1893   -252288.96    6758.0303    395316.29       158.32       158.32    15.771505 
    4310    305.03846   -253550.27    1261.6987   -252288.57    6501.4581    395313.27       158.32       158.32    15.771385 
    4320    306.40027   -253555.59    1267.3314   -252288.26    6469.6921    395311.76       158.32       158.32    15.771325 
    4330    305.01831   -253549.48    1261.6153   -252287.86     6904.415     395312.1       158.32       158.32    15.771338 
    4340    307.35262   -253558.82    1271.2705   -252287.55    6477.1271    395313.87       158.32       158.32    15.771409 
    4350     305.2042   -253549.56    1262.3842   -252287.18    6579.2112    395315.93       158.32       158.32    15.771491 
    4360    305.17658   -253549.15    1262.2699   -252286.88     6385.618    395318.42       158.32       158.32     15.77159 
    4370    306.16388      -253553    1266.3536   -252286.65    6384.4625    395321.19       158.32       158.32    15.771701 
    4380     305.4531   -253549.79    1263.4137   -252286.38    6299.4808    395324.12       158.32       158.32    15.771818 
    4390    307.62256   -253558.55     1272.387   -252286.16     6694.624    395326.93       158.32       158.32     15.77193 
    4400    306.15994   -253552.28    1266.3373   -252285.94    6823.0964    395329.59       158.32       158.32    15.772036 
    4410     305.5795   -253549.71    1263.9365   -252285.77    6790.8873    395332.16       158.32       158.32    15.772138 
    4420    306.38787   -253552.91    1267.2801   -252285.63    6787.0852    395334.62       158.32       158.32    15.772237 
    4430    305.16739   -253547.66     1262.232   -252285.43    6652.3628    395337.52       158.32       158.32    15.772352 
    4440    306.38365   -253552.58    1267.2626   -252285.32    6819.3909    395341.29       158.32       158.32    15.772503 
    4450    305.23476    -253547.7    1262.5106   -252285.19    6815.1237    395345.51       158.32       158.32    15.772671 
    4460    308.27698   -253560.25    1275.0938   -252285.15    6903.9223    395350.02       158.32       158.32    15.772851 
    4470    305.61981   -253549.09    1264.1032   -252284.99    6721.1666    395354.71       158.32       158.32    15.773038 
    4480    307.20023   -253555.63    1270.6402   -252284.99    6091.7054    395359.06       158.32       158.32    15.773212 
    4490    305.82619   -253549.89    1264.9569   -252284.93    6308.1955     395362.5       158.32       158.32    15.773349 
    4500    306.25215   -253551.65    1266.7187   -252284.93    6449.8383    395365.58       158.32       158.32    15.773472 
    4510    306.81626      -253554     1269.052   -252284.95    6365.8508    395367.89       158.32       158.32    15.773564 
    4520    307.31769   -253556.15     1271.126   -252285.03    6700.8136     395368.8       158.32       158.32      15.7736 
    4530    305.10712   -253547.05    1261.9827   -252285.07    6890.9733     395368.7       158.32       158.32    15.773597 
    4540    307.93273   -253558.87    1273.6699    -252285.2    6475.3251    395368.21       158.32       158.32    15.773577 
    4550     306.9737   -253554.99    1269.7032   -252285.28    6489.2108    395367.37       158.32       158.32    15.773543 
    4560    304.90249   -253546.52    1261.1363   -252285.38    7051.5807    395366.83       158.32       158.32    15.773522 
    4570     305.8172   -253550.48    1264.9197   -252285.56    7106.5997     395366.7       158.32       158.32    15.773517 
    4580    307.62157   -253558.16    1272.3829   -252285.78    7250.1125    395366.57       158.32       158.32    15.773511 
    4590     305.2734   -253548.62    1262.6704   -252285.95    7066.7571    395366.67       158.32       158.32    15.773515 
    4600    307.93248   -253559.89    1273.6689   -252286.23    6681.2784    395367.02       158.32       158.32    15.773529 
    4610    308.15034   -253561.01      1274.57   -252286.44    6290.8842    395367.28       158.32       158.32     15.77354 
    4620    304.59703   -253546.51    1259.8728   -252286.64    6598.3426    395366.99       158.32       158.32    15.773528 
    4630    307.37879   -253558.39    1271.3787   -252287.01    6766.8058    395365.81       158.32       158.32    15.773481 
    4640    306.71957   -253555.95    1268.6521    -252287.3    6608.6934    395364.05       158.32       158.32    15.773411 
    4650    306.22942   -253554.26    1266.6247   -252287.64    6636.2938    395361.76       158.32       158.32     15.77332 
    4660    306.17962   -253554.44    1266.4187   -252288.02     6452.081     395359.1       158.32       158.32    15.773213 
    4670    306.04065   -253554.29    1265.8439   -252288.44    6475.4284     395356.1       158.32       158.32    15.773094 
    4680    306.83003   -253557.98    1269.1089   -252288.88    7100.9873    395352.77       158.32       158.32    15.772961 
    4690    305.58537   -253553.24    1263.9608   -252289.28     7168.498    395349.63       158.32       158.32    15.772836 
    4700    306.45677   -253557.25    1267.5651   -252289.69    7143.9355     395347.1       158.32       158.32    15.772735 
    4710    307.71468   -253562.94     1272.768   -252290.17    6865.3459    395345.03       158.32       158.32    15.772652 
    4720    306.02907   -253556.42     1265.796   -252290.63    6633.2576    395342.87       158.32       158.32    15.772566 
    4730    305.71657    -253555.6    1264.5035   -252291.09    6884.7241    395340.74       158.32       158.32    15.772481 
    4740    306.31986   -253558.65    1266.9988   -252291.65    7217.9219    395339.14       158.32       158.32    15.772417 
    4750    307.42424   -253563.82    1271.5667   -252292.26     7422.094    395338.17       158.32       158.32    15.772378 
    4760    305.47203   -253556.27     1263.492   -252292.77    7388.1438    395337.82       158.32       158.32    15.772364 
    4770    306.78026   -253562.32    1268.9031   -252293.41    7202.7169    395337.88       158.32       158.32    15.772367 
    4780    307.89052   -253567.54    1273.4954   -252294.04    7145.5923    395338.12       158.32       158.32    15.772376 
    4790    307.41824    -253566.2    1271.5419   -252294.65    7307.8581     395338.7       158.32       158.32      15.7724 
    4800    307.38574   -253566.75    1271.4075   -252295.34    7368.1346    395340.54       158.32       158.32    15.772473 
    4810    307.72916   -253568.87    1272.8279   -252296.04     7560.102    395343.63       158.32       158.32    15.772596 
    4820    305.81167   -253561.59    1264.8968   -252296.69    7254.4272    395347.79       158.32       158.32    15.772762 
    4830    306.28937   -253564.27    1266.8727    -252297.4    7019.8461    395352.83       158.32       158.32    15.772963 
    4840    307.40431   -253569.65    1271.4843   -252298.16    6967.3353    395358.04       158.32       158.32    15.773171 
    4850    304.13559   -253556.82    1257.9642   -252298.85    6773.5351    395362.94       158.32       158.32    15.773367 
    4860    305.69926   -253564.08    1264.4319   -252299.65    6848.9787    395367.42       158.32       158.32    15.773545 
    4870    305.65037   -253564.69    1264.2296   -252300.46    6772.6773    395371.16       158.32       158.32    15.773695 
    4880    303.52589   -253556.67    1255.4424   -252301.23    6840.8335    395374.15       158.32       158.32    15.773814 
    4890    306.14498   -253568.36    1266.2754   -252302.09    6968.6699    395376.87       158.32       158.32    15.773922 
    4900    305.96403   -253568.43     1265.527    -252302.9    6968.5579    395379.41       158.32       158.32    15.774023 
    4910    305.82578   -253568.71    1264.9552   -252303.75    7006.4865    395381.85       158.32       158.32    15.774121 
    4920    305.74105   -253569.22    1264.6047   -252304.62    7002.9605    395384.35       158.32       158.32    15.774221 
    4930    305.34863   -253568.46    1262.9816   -252305.48    7195.0435    395386.71       158.32       158.32    15.774315 
    4940    304.06716   -253564.03    1257.6812   -252306.35    6907.1727    395388.93       158.32       158.32    15.774403 
    4950    305.61326   -253571.34    1264.0761   -252307.27    7183.6058    395390.66       158.32       158.32    15.774472 
    4960    305.09399   -253570.05    1261.9283   -252308.12    6927.3877    395391.65       158.32       158.32    15.774512 
    4970     302.6289   -253560.74    1251.7323   -252309.01    7000.8596     395391.8       158.32       158.32    15.774518 
    4980    304.82542   -253570.82    1260.8175      -252310    6975.1007    395391.43       158.32       158.32    15.774503 
    4990     302.8372   -253563.49    1252.5938    -252310.9    6936.4615    395390.72       158.32       158.32    15.774475 
    5000    304.26977   -253570.35    1258.5192   -252311.83    6734.2996    395389.86       158.32       158.32     15.77444 
    5010    306.18183   -253579.23    1266.4279    -252312.8    6864.1764    395388.53       158.32       158.32    15.774388 
    5020    304.63083   -253573.78    1260.0126   -252313.77    6723.9972     395386.6       158.32       158.32     15.77431 
    5030    304.45282   -253574.02    1259.2764   -252314.74    6699.4778    395383.93       158.32       158.32    15.774204 
    5040    304.04122   -253573.29    1257.5739   -252315.72    6674.0365    395380.09       158.32       158.32    15.774051 
    5050    305.47385   -253580.24    1263.4995   -252316.74     6739.529    395375.36       158.32       158.32    15.773862 
    5060    303.73871   -253573.98    1256.3226   -252317.66    6855.4156    395370.59       158.32       158.32    15.773672 
    5070    304.19094   -253576.84    1258.1931   -252318.65    6841.3655     395365.8       158.32       158.32    15.773481 
    5080    303.17774   -253573.62    1254.0024   -252319.62    6801.5284    395360.53       158.32       158.32     15.77327 
    5090     303.4943   -253575.93    1255.3117   -252320.62     6796.798    395354.84       158.32       158.32    15.773043 
    5100    303.56156   -253577.21    1255.5899   -252321.62    6643.4694    395349.01       158.32       158.32    15.772811 
    5110    302.35954   -253573.22    1250.6181   -252322.61    6859.4193     395343.2       158.32       158.32    15.772579 
    5120    304.16075   -253581.71    1258.0683   -252323.64    6866.6746    395337.34       158.32       158.32    15.772345 
    5130    303.04661    -253578.1      1253.46   -252324.64    6777.5462    395331.39       158.32       158.32    15.772108 
    5140    302.59268   -253577.24    1251.5825   -252325.65    6906.8031     395324.8       158.32       158.32    15.771845 
    5150    303.07854   -253580.23    1253.5921   -252326.63    6897.5852    395317.55       158.32       158.32    15.771556 
    5160    301.69095   -253575.48    1247.8527   -252327.63    6731.4104    395310.23       158.32       158.32    15.771263 
    5170    301.75174   -253576.76    1248.1041   -252328.66    7084.4995    395303.09       158.32       158.32    15.770979 
    5180    301.19445   -253575.43    1245.7991   -252329.63    6899.1564    395296.38       158.32       158.32    15.770711 
    5190    301.33613   -253577.02    1246.3851   -252330.64    6806.4193    395289.82       158.32       158.32     15.77045 
    5200    303.86845   -253588.53    1256.8593   -252331.67     6829.572    395283.38       158.32       158.32    15.770192 
    5210    301.09204   -253577.96    1245.3755   -252332.59    6817.4925    395277.01       158.32       158.32    15.769938 
    5220    301.59905   -253581.07    1247.4726    -252333.6     6729.964     395270.7       158.32       158.32    15.769687 
    5230    301.49633   -253581.66    1247.0477   -252334.61    7109.6379     395264.6       158.32       158.32    15.769443 
    5240     302.0019   -253584.76    1249.1389   -252335.62    6824.8988       395259       158.32       158.32     15.76922 
    5250    302.70033   -253588.66    1252.0277   -252336.63    6785.9553    395253.79       158.32       158.32    15.769012 
    5260    300.59276    -253580.9    1243.3104   -252337.59    6810.6609    395249.25       158.32       158.32    15.768831 
    5270    300.69214   -253582.29    1243.7214   -252338.57    6966.1909     395245.8       158.32       158.32    15.768693 
    5280      298.051   -253572.28    1232.7972   -252339.48    6655.4273    395243.28       158.32       158.32    15.768593 
    5290    301.45642    -253587.4    1246.8826   -252340.52    7193.5444    395240.85       158.32       158.32    15.768496 
    5300    300.89815   -253586.01    1244.5736   -252341.44    7136.1271    395239.15       158.32       158.32    15.768428 
    5310    300.00723   -253583.25    1240.8885   -252342.36     6542.596    395238.21       158.32       158.32     15.76839 
    5320    300.98515   -253588.25    1244.9334   -252343.31      6891.27     395237.3       158.32       158.32    15.768354 
    5330    299.78146    -253584.2    1239.9547   -252344.24    6944.3097     395236.6       158.32       158.32    15.768326 
    5340    298.78581   -253580.99    1235.8365   -252345.16      6848.25    395236.69       158.32       158.32     15.76833 
    5350    300.43667   -253588.77    1242.6648    -252346.1    7025.8603    395237.77       158.32       158.32    15.768373 
    5360    299.12486   -253584.22    1237.2389   -252346.98    7046.9942    395239.78       158.32       158.32    15.768453 
    5370    300.13795   -253589.33    1241.4292    -252347.9    7001.6449    395242.63       158.32       158.32    15.768567 
    5380    298.86052   -253584.89    1236.1455   -252348.74    7009.3571    395246.41       158.32       158.32    15.768718 
    5390    298.57602    -253584.6    1234.9687   -252349.63    7129.5607    395250.59       158.32       158.32    15.768884 
    5400    299.47674   -253589.24    1238.6943   -252350.54    6844.7892    395255.32       158.32       158.32    15.769073 
    5410     298.4662   -253585.92    1234.5145   -252351.41    6611.5133    395260.59       158.32       158.32    15.769283 
    5420    299.82409   -253592.44     1240.131   -252352.31    6663.8387    395265.94       158.32       158.32    15.769497 
    5430    299.09893   -253590.27    1237.1316   -252353.14    6296.8973    395271.01       158.32       158.32    15.769699 
    5440    298.04032   -253586.73     1232.753   -252353.98     6140.969    395275.46       158.32       158.32    15.769876 
    5450    298.84277   -253590.89    1236.0721   -252354.82    6582.4167    395279.14       158.32       158.32    15.770023 
    5460    296.61368   -253582.44    1226.8521   -252355.59    6453.4281    395282.33       158.32       158.32    15.770151 
    5470     298.4561   -253590.89    1234.4727   -252356.42    6259.2823    395285.08       158.32       158.32     15.77026 
    5480    298.67345    -253592.6    1235.3717   -252357.22    6443.3049    395287.12       158.32       158.32    15.770342 
    5490    298.18379   -253591.37    1233.3464   -252358.03    6133.0309    395288.56       158.32       158.32    15.770399 
    5500    297.75572   -253590.41    1231.5759   -252358.83    6234.8818    395288.93       158.32       158.32    15.770414 
    5510    297.14749   -253588.66    1229.0601    -252359.6    6525.2125    395288.05       158.32       158.32    15.770379 
    5520    297.24264   -253589.82    1229.4536   -252360.37    6632.9583    395286.04       158.32       158.32    15.770298 
    5530    297.29672   -253590.77    1229.6773    -252361.1    6725.0539    395283.02       158.32       158.32    15.770178 
    5540    298.74151   -253597.46    1235.6532   -252361.81    6601.4037    395279.14       158.32       158.32    15.770023 
    5550    297.86253    -253594.5    1232.0176   -252362.48    6559.2106    395274.25       158.32       158.32    15.769828 
    5560    297.44502   -253593.48    1230.2907   -252363.19    6606.4151     395268.9       158.32       158.32    15.769615 
    5570    298.04561    -253596.7    1232.7749   -252363.93    6780.5339    395262.94       158.32       158.32    15.769377 
    5580    296.38755    -253590.5    1225.9168   -252364.59    6683.1699    395256.58       158.32       158.32    15.769123 
    5590    298.45153   -253599.77    1234.4538   -252365.31    6522.4693    395250.46       158.32       158.32    15.768879 
    5600    299.17182   -253603.42    1237.4331   -252365.99    6522.8751    395244.62       158.32       158.32    15.768646 
    5610    297.52236   -253597.24    1230.6106   -252366.63    6504.7093    395238.86       158.32       158.32    15.768416 
    5620    297.41032   -253597.45    1230.1472    -252367.3    6370.9808    395233.53       158.32       158.32    15.768204 
    5630    298.03732   -253600.73    1232.7406   -252367.99     6276.376    395228.11       158.32       158.32    15.767988 
    5640     295.7188   -253591.72    1223.1508   -252368.57    6003.3959    395221.79       158.32       158.32    15.767735 
    5650    297.64306   -253600.34    1231.1098   -252369.23    6258.4281     395214.6       158.32       158.32    15.767448 
    5660    294.76323   -253588.96    1219.1983   -252369.76    6426.7717    395206.67       158.32       158.32    15.767132 
    5670    298.30015   -253604.25    1233.8277   -252370.42    6181.8006    395198.41       158.32       158.32    15.766802 
    5680    296.22145   -253596.18    1225.2298   -252370.95    6616.6959     395189.9       158.32       158.32    15.766463 
    5690    296.87231   -253599.45    1227.9219   -252371.53    6895.1104     395181.8       158.32       158.32     15.76614 
    5700    296.51786   -253598.52    1226.4558   -252372.07     6740.549    395174.62       158.32       158.32    15.765853 
    5710    295.58199   -253595.17    1222.5849   -252372.59    7239.0001    395168.16       158.32       158.32    15.765596 
    5720      296.937   -253601.31    1228.1895   -252373.12    7255.0507    395162.88       158.32       158.32    15.765385 
    5730    295.92991   -253597.61    1224.0239   -252373.59    6962.9602    395158.75       158.32       158.32     15.76522 
    5740    296.82381   -253601.83    1227.7213   -252374.11    7166.5776    395155.56       158.32       158.32    15.765093 
    5750    296.57952   -253601.28    1226.7109   -252374.57     7090.071    395153.36       158.32       158.32    15.765005 
    5760    297.77497   -253606.73    1231.6555   -252375.08    6826.0673     395152.2       158.32       158.32    15.764959 
    5770    295.12638    -253596.2    1220.7004    -252375.5     6961.069    395152.07       158.32       158.32    15.764954 
    5780    296.53151   -253602.48    1226.5123   -252375.96    6606.2498    395153.06       158.32       158.32    15.764993 
    5790    297.81443   -253608.26    1231.8187   -252376.44     6129.773    395154.91       158.32       158.32    15.765067 
    5800    294.74126   -253595.93    1219.1074   -252376.82    6482.7296    395157.01       158.32       158.32    15.765151 
    5810    296.61108   -253604.14    1226.8414   -252377.29    6530.1806    395159.07       158.32       158.32    15.765233 
    5820    293.72281   -253592.55    1214.8949   -252377.66    6513.7022    395160.88       158.32       158.32    15.765305 
    5830    294.45172   -253595.99    1217.9098   -252378.08    6686.6903    395162.53       158.32       158.32    15.765371 
    5840    294.42935   -253596.24    1217.8173   -252378.43    6657.3787    395164.39       158.32       158.32    15.765445 
    5850    294.91078   -253598.58    1219.8086   -252378.77    6531.6571    395166.85       158.32       158.32    15.765544 
    5860    296.61671   -253605.99    1226.8647   -252379.12    6646.1107    395170.06       158.32       158.32    15.765672 
    5870    294.43886   -253597.22    1217.8567   -252379.37    7076.2161    395173.93       158.32       158.32    15.765826 
    5880    296.35022   -253605.45    1225.7624   -252379.69    6887.5251     395178.6       158.32       158.32    15.766012 
    5890    297.35579   -253609.91    1229.9217   -252379.99    6859.5813    395183.86       158.32       158.32    15.766222 
    5900    295.60387   -253602.87    1222.6754    -252380.2    6855.7699    395189.74       158.32       158.32    15.766457 
    5910    296.22668    -253605.7    1225.2514   -252380.45     6836.387    395196.03       158.32       158.32    15.766708 
    5920    295.17182   -253601.58    1220.8883   -252380.69    6712.1314    395202.67       158.32       158.32    15.766972 
    5930    296.31088   -253606.53    1225.5997   -252380.93     6943.897    395209.58       158.32       158.32    15.767248 
    5940    296.61581      -253608    1226.8609   -252381.14    6727.2328    395216.68       158.32       158.32    15.767531 
    5950    297.12143   -253610.33    1228.9523   -252381.38    6473.8085    395223.87       158.32       158.32    15.767818 
    5960    294.86345   -253601.14    1219.6129   -252381.53    6391.5146    395230.89       158.32       158.32    15.768098 
    5970    294.42918   -253599.54    1217.8166   -252381.73    6267.0879    395237.45       158.32       158.32     15.76836 
    5980    295.32479   -253603.43     1221.521    -252381.9    6244.7702    395243.71       158.32       158.32     15.76861 
    5990    295.33048   -253603.58    1221.5446   -252382.03    6687.2871    395249.63       158.32       158.32    15.768846 
    6000    295.05382   -253602.56    1220.4003   -252382.16    6413.7552    395255.31       158.32       158.32    15.769072 
    6010    294.83863    -253601.8    1219.5102   -252382.29    6135.8645    395260.24       158.32       158.32    15.769269 
    6020     294.3927   -253600.04    1217.6657   -252382.38    6184.7471     395264.1       158.32       158.32    15.769423 
    6030     295.7382    -253605.7     1223.231   -252382.46    5944.6117    395266.92       158.32       158.32    15.769536 
    6040    293.17955   -253595.15    1212.6479    -252382.5    6387.1498    395268.49       158.32       158.32    15.769598 
    6050    295.26763   -253603.84    1221.2846   -252382.55    6422.1723    395269.09       158.32       158.32    15.769622 
    6060    296.82435   -253610.31    1227.7235   -252382.59    6063.0516    395269.03       158.32       158.32     15.76962 
    6070    295.54059   -253605.02    1222.4136   -252382.61    6088.6095    395267.68       158.32       158.32    15.769566 
    6080    295.21966   -253603.69    1221.0862    -252382.6    6304.8684    395264.44       158.32       158.32    15.769437 
[...]
   23540    301.75173   -253581.57    1248.1041   -252333.47    6473.2516    395265.38       158.32       158.32    15.769474 
   23550     302.6266   -253585.13    1251.7227   -252333.41    6810.4258    395273.89       158.32       158.32    15.769814 
   23560    300.55627   -253576.45    1243.1594   -252333.29    7037.4835    395282.63       158.32       158.32    15.770163 
   23570    300.61613   -253576.63     1243.407   -252333.23    6836.4319    395291.81       158.32       158.32    15.770529 
   23580    301.63033   -253580.81     1247.602   -252333.21    6869.6913    395301.18       158.32       158.32    15.770903 
   23590    301.08222   -253578.52    1245.3349   -252333.19    6949.9814     395310.7       158.32       158.32    15.771282 
   23600    301.23096    -253579.1    1245.9501   -252333.15    6764.0241    395320.57       158.32       158.32    15.771676 
   23610     303.3386   -253587.84    1254.6677   -252333.17    6512.4968     395330.5       158.32       158.32    15.772072 
   23620    302.10173   -253582.64    1249.5518   -252333.09    6251.1995    395339.71       158.32       158.32     15.77244 
   23630    302.54367   -253584.45    1251.3798   -252333.07     5922.224    395347.63       158.32       158.32    15.772756 
   23640    300.34732   -253575.32    1242.2952   -252333.03    6135.4448    395353.97       158.32       158.32    15.773009 
   23650    300.31445   -253575.16    1242.1592      -252333    6060.3002    395358.62       158.32       158.32    15.773194 
   23660    300.89491   -253577.57    1244.5601   -252333.01    5814.0895    395361.45       158.32       158.32    15.773307 
   23670    301.29631   -253579.25    1246.2204   -252333.03    6067.4643    395362.19       158.32       158.32    15.773337 
   23680    300.75709   -253577.01    1243.9901   -252333.02    6070.7789    395360.71       158.32       158.32    15.773278 
   23690    299.79241   -253573.05         1240   -252333.05    6166.3163    395357.65       158.32       158.32    15.773156 
   23700    300.09828   -253574.28    1241.2651   -252333.01    6377.1856    395353.65       158.32       158.32    15.772996 
   23710    301.48156   -253580.02    1246.9866   -252333.03    6125.9002    395348.78       158.32       158.32    15.772802 
   23720    300.24195   -253574.91    1241.8594   -252333.05    6149.1436       395343       158.32       158.32    15.772571 
   23730    302.00332   -253582.24    1249.1447    -252333.1    6451.1678     395336.2       158.32       158.32      15.7723 
   23740    300.91252   -253577.71     1244.633   -252333.07    6442.1763    395328.32       158.32       158.32    15.771985 
   23750    301.88818   -253581.78    1248.6685   -252333.11    6229.3575    395318.85       158.32       158.32    15.771608 
   23760    301.18637   -253578.88    1245.7657   -252333.11    6358.1563    395307.86       158.32       158.32    15.771169 
   23770    300.40609    -253575.7    1242.5383   -252333.17    6450.8121    395295.82       158.32       158.32    15.770689 
   23780    302.84361   -253585.89    1252.6203   -252333.27    6300.7254    395282.95       158.32       158.32    15.770175 
   23790    302.47351   -253584.38    1251.0895   -252333.29     6384.998    395269.44       158.32       158.32    15.769636 
   23800    301.00241   -253578.31    1245.0048    -252333.3    6653.5931    395255.39       158.32       158.32    15.769076 
   23810    301.99222   -253582.49    1249.0988   -252333.39    6782.1981    395241.19       158.32       158.32    15.768509 
   23820    301.45926   -253580.36    1246.8944   -252333.46    6720.9625     395227.5       158.32       158.32    15.767963 
   23830    299.54821   -253572.46    1238.9899   -252333.47    6929.0821    395214.58       158.32       158.32    15.767448 
   23840    300.84872   -253577.92    1244.3691   -252333.55    6913.1536     395202.2       158.32       158.32    15.766954 
   23850    301.84274   -253582.12    1248.4805   -252333.63    6562.8916     395190.6       158.32       158.32    15.766491 
   23860    300.58575   -253576.99    1243.2814   -252333.71    7020.0086    395179.76       158.32       158.32    15.766058 
   23870    299.93782    -253574.4    1240.6014   -252333.79    6865.0341    395170.14       158.32       158.32    15.765674 
   23880    300.98778   -253578.82    1244.9443   -252333.88    6870.5667    395161.91       158.32       158.32    15.765346 
   23890    301.33016   -253580.33    1246.3604   -252333.97    6738.8085     395154.8       158.32       158.32    15.765063 
   23900    301.36218   -253580.52    1246.4929   -252334.03    6611.4876    395148.49       158.32       158.32    15.764811 
   23910    301.24106   -253580.08    1245.9919   -252334.08    6629.0124    395142.63       158.32       158.32    15.764577 
   23920    303.05284    -253587.7    1253.4857   -252334.22    6630.1446    395137.57       158.32       158.32    15.764375 
   23930    302.03359   -253583.56    1249.2699   -252334.29    6950.6212    395133.38       158.32       158.32    15.764208 
   23940    300.44111   -253577.05    1242.6831   -252334.37    6909.3226    395130.08       158.32       158.32    15.764076 
   23950    300.27848   -253576.45    1242.0105   -252334.43    7194.2791    395127.79       158.32       158.32    15.763985 
   23960    302.54245   -253585.97    1251.3747   -252334.59     7402.983    395126.99       158.32       158.32    15.763953 
   23970    300.10292   -253575.97    1241.2843   -252334.68    7079.7029    395128.08       158.32       158.32    15.763997 
   23980    302.26468   -253585.08    1250.2258   -252334.86    7159.3345    395130.42       158.32       158.32     15.76409 
   23990    302.53224   -253586.34    1251.3324      -252335    6957.1557    395133.83       158.32       158.32    15.764226 
   24000    300.30983   -253577.23    1242.1401   -252335.09    6934.0631     395138.5       158.32       158.32    15.764412 
   24010    300.32405   -253577.42     1242.199   -252335.22    6687.3117    395144.03       158.32       158.32    15.764633 
   24020    301.74841   -253583.46    1248.0904   -252335.37    6508.6643     395149.9       158.32       158.32    15.764867 
   24030    299.74724   -253575.28    1239.8132   -252335.47    6560.4539    395155.79       158.32       158.32    15.765102 
   24040    301.32352   -253582.01    1246.3329   -252335.68    6448.8365    395161.46       158.32       158.32    15.765328 
   24050    299.41181   -253574.21    1238.4257   -252335.79    6491.8104    395167.35       158.32       158.32    15.765563 
   24060    300.37796   -253578.38    1242.4219   -252335.96    6340.0069    395173.36       158.32       158.32    15.765803 
   24070    300.00251   -253576.96     1240.869   -252336.09    6749.9588    395179.43       158.32       158.32    15.766045 
   24080    301.94438   -253585.15    1248.9009   -252336.25    6479.5575    395186.11       158.32       158.32    15.766312 
   24090    301.81602   -253584.72      1248.37   -252336.35    6338.7315     395192.9       158.32       158.32    15.766583 
   24100    301.66764   -253584.24    1247.7563   -252336.48    6470.2404    395199.45       158.32       158.32    15.766844 
   24110    300.57708   -253579.88    1243.2455   -252336.63    6410.5688    395205.84       158.32       158.32    15.767099 
   24120    300.31185   -253578.96    1242.1485   -252336.81    6320.3792    395211.92       158.32       158.32    15.767342 
   24130    301.00211      -253582    1245.0035   -252336.99    6750.9227    395217.42       158.32       158.32    15.767561 
   24140    301.33161   -253583.53    1246.3664   -252337.16    6544.6495    395222.49       158.32       158.32    15.767763 
   24150    301.07806   -253582.64    1245.3177   -252337.33    6383.7678    395227.12       158.32       158.32    15.767948 
   24160    301.48472   -253584.51    1246.9997   -252337.51    6773.1286    395231.26       158.32       158.32    15.768113 
   24170    299.16562   -253575.08    1237.4075   -252337.68    6391.1729    395235.08       158.32       158.32    15.768265 
   24180    298.68607   -253573.26    1235.4239   -252337.84    6173.2683    395238.26       158.32       158.32    15.768392 
   24190    300.78536   -253582.18     1244.107   -252338.08     6406.499    395240.75       158.32       158.32    15.768492 
   24200    298.38537   -253572.37    1234.1802   -252338.19    6348.5994    395242.75       158.32       158.32    15.768571 
   24210    301.25226   -253584.46    1246.0382   -252338.42    6380.8754    395244.32       158.32       158.32    15.768634 
   24220    300.60096   -253581.91    1243.3443   -252338.57    6396.5457    395245.47       158.32       158.32     15.76868 
   24230    301.46988    -253585.7    1246.9383   -252338.76    5962.9363    395245.91       158.32       158.32    15.768697 
   24240    300.93732   -253583.68    1244.7355   -252338.94    5888.8733    395245.26       158.32       158.32    15.768671 
   24250    300.80454   -253583.32    1244.1863   -252339.13    6217.6293    395243.52       158.32       158.32    15.768602 
   24260    301.20678   -253585.14    1245.8501   -252339.29    6150.4864    395240.62       158.32       158.32    15.768486 
   24270    301.07181   -253584.78    1245.2918   -252339.49    6444.8814    395236.73       158.32       158.32    15.768331 
   24280    299.73454   -253579.43    1239.7606   -252339.67     6476.524    395232.37       158.32       158.32    15.768157 
   24290    299.12527    -253577.1    1237.2406   -252339.86    6722.3082    395227.97       158.32       158.32    15.767982 
   24300    298.97277   -253576.62    1236.6098   -252340.01     6499.206    395224.31       158.32       158.32    15.767836 
   24310    300.19155   -253581.82    1241.6509   -252340.17    6552.2557    395221.07       158.32       158.32    15.767706 
   24320    299.54292   -253579.32     1238.968   -252340.36    6774.9254    395217.55       158.32       158.32    15.767566 
   24330    300.45416   -253583.34    1242.7371    -252340.6    6808.7695    395213.86       158.32       158.32    15.767419 
   24340    300.08169   -253581.97    1241.1965   -252340.77    6735.3664    395210.27       158.32       158.32    15.767276 
   24350    300.82793   -253585.26    1244.2831   -252340.98    6533.3929    395206.72       158.32       158.32    15.767134 
   24360    301.66714   -253588.96    1247.7542   -252341.21    6316.4794    395203.34       158.32       158.32    15.766999 
   24370    301.57786   -253588.78     1247.385   -252341.39    6447.4502    395199.96       158.32       158.32    15.766864 
   24380    299.03641   -253578.41     1236.873   -252341.53    6733.2373     395196.1       158.32       158.32     15.76671 
   24390    299.71416   -253581.42    1239.6763   -252341.74     6449.251     395191.9       158.32       158.32    15.766543 
   24400    300.49205   -253584.79    1242.8938   -252341.89    6223.2808    395187.47       158.32       158.32    15.766366 
   24410    301.02434    -253587.2    1245.0955   -252342.11    6308.1736    395182.42       158.32       158.32    15.766164 
   24420     297.2535   -253571.76    1229.4985   -252342.26    6459.4932    395177.18       158.32       158.32    15.765955 
   24430    298.90445   -253578.76    1236.3272   -252342.44    6728.0932    395172.01       158.32       158.32    15.765749 
   24440    302.06566   -253592.09    1249.4026   -252342.69     6812.552    395167.03       158.32       158.32     15.76555 
   24450    299.65691   -253582.29    1239.4395   -252342.85    6782.5917    395162.73       158.32       158.32    15.765379 
   24460    300.90419   -253587.65    1244.5985   -252343.05    6921.7018    395159.12       158.32       158.32    15.765235 
   24470    300.64873   -253586.79    1243.5419   -252343.25    6844.3829    395156.54       158.32       158.32    15.765132 
   24480    299.67626   -253582.97    1239.5195   -252343.45    7139.1267    395155.45       158.32       158.32    15.765088 
   24490    300.00807   -253584.55     1240.892   -252343.66    7389.9603    395156.06       158.32       158.32    15.765113 
   24500    301.11101   -253589.35     1245.454   -252343.89    6932.3724    395158.46       158.32       158.32    15.765209 
   24510    299.42273   -253582.55    1238.4709   -252344.08    6784.0947    395161.86       158.32       158.32    15.765344 
   24520    300.10466    -253585.6    1241.2915   -252344.31    6892.6853    395166.06       158.32       158.32    15.765512 
   24530    298.30012    -253578.3    1233.8276   -252344.47    6439.6587    395171.23       158.32       158.32    15.765718 
   24540    300.35358   -253587.03    1242.3211   -252344.71    6692.5675    395176.78       158.32       158.32    15.765939 
   24550    300.40258    -253587.4    1242.5238   -252344.87    6573.9791    395182.29       158.32       158.32    15.766159 
   24560    300.40654   -253587.61    1242.5401   -252345.07    6511.4138     395187.2       158.32       158.32    15.766355 
   24570    298.28012   -253578.98    1233.7449   -252345.23    6681.5899    395191.83       158.32       158.32     15.76654 
   24580    301.12213   -253590.96       1245.5   -252345.46    6904.7247    395196.73       158.32       158.32    15.766736 
   24590    299.33696   -253583.74    1238.1161   -252345.62    6507.8571    395202.34       158.32       158.32    15.766959 
   24600    298.33211   -253579.75    1233.9599   -252345.79      6745.14    395208.44       158.32       158.32    15.767203 
   24610    300.97442   -253590.93     1244.889   -252346.04    6925.6796    395214.86       158.32       158.32    15.767459 
   24620    299.24679   -253583.91    1237.7432   -252346.17    6614.8754    395221.43       158.32       158.32    15.767721 
   24630    300.34081   -253588.69    1242.2683   -252346.43    6757.5359    395227.72       158.32       158.32    15.767972 
   24640    300.33495   -253588.87     1242.244   -252346.63    6887.4849    395233.83       158.32       158.32    15.768216 
   24650    299.60229   -253585.98    1239.2136   -252346.77    6775.2171    395239.96       158.32       158.32     15.76846 
   24660    300.95407   -253591.77    1244.8049   -252346.97    6838.9225    395246.62       158.32       158.32    15.768726 
   24670    299.75734   -253586.96    1239.8549    -252347.1    7139.2036    395253.97       158.32       158.32    15.769019 
   24680    299.98677   -253588.12    1240.8039   -252347.32    6957.7519    395261.87       158.32       158.32    15.769334 
   24690    298.45719   -253581.97    1234.4772   -252347.49    6816.8509    395270.05       158.32       158.32    15.769661 
   24700     299.2334   -253585.39    1237.6878    -252347.7    6266.7552    395278.31       158.32       158.32     15.76999 
   24710     300.0266   -253588.91    1240.9686   -252347.94    6268.4958    395285.63       158.32       158.32    15.770282 
   24720    296.70065   -253575.25    1227.2119   -252348.04    6523.4664     395291.9       158.32       158.32    15.770532 
   24730    299.92975   -253588.84    1240.5681   -252348.28    6517.2406    395297.15       158.32       158.32    15.770742 
   24740    299.00631   -253585.16    1236.7485   -252348.42    6390.3476    395301.35       158.32       158.32    15.770909 
   24750    298.33992   -253582.57    1233.9922   -252348.57    5753.1578    395303.97       158.32       158.32    15.771014 
   24760     298.9287   -253585.22    1236.4275   -252348.79    6331.0929    395304.14       158.32       158.32    15.771021 
   24770    299.75399   -253588.82    1239.8411   -252348.98    6342.3593     395302.7       158.32       158.32    15.770963 
   24780    298.61025   -253584.17    1235.1103   -252349.06    6561.1983    395300.35       158.32       158.32     15.77087 
   24790    300.30131   -253591.35    1242.1049   -252349.25    6762.6048    395297.48       158.32       158.32    15.770755 
   24800    298.94207    -253585.9    1236.4828   -252349.42    6761.0371    395293.79       158.32       158.32    15.770608 
   24810    298.40636    -253583.8     1234.267   -252349.53    6440.3921    395288.87       158.32       158.32    15.770412 
   24820    299.99761   -253590.54    1240.8487   -252349.69    7101.8924    395282.65       158.32       158.32    15.770163 
   24830    298.40905   -253584.08    1234.2781   -252349.81    7018.3486    395275.35       158.32       158.32    15.769872 
   24840    300.22214   -253591.79    1241.7774   -252350.01    6771.5397     395267.3       158.32       158.32    15.769551 
   24850    300.48206   -253593.03    1242.8525   -252350.18    6783.1832    395258.84       158.32       158.32    15.769214 
   24860    299.58957   -253589.51     1239.161   -252350.35    7113.1936    395249.67       158.32       158.32    15.768848 
   24870    299.55913   -253589.53    1239.0351    -252350.5    6962.5056    395240.16       158.32       158.32    15.768468 
   24880    300.63007   -253594.13    1243.4647   -252350.67    6990.2012     395230.6       158.32       158.32    15.768087 
   24890    298.60896   -253585.88     1235.105   -252350.78    6873.0011    395220.55       158.32       158.32    15.767686 
   24900    300.95538   -253595.81    1244.8102      -252351    6738.9774    395210.02       158.32       158.32    15.767266 
   24910    299.80813    -253591.2     1240.065   -252351.14    7298.9211    395199.26       158.32       158.32    15.766836 
   24920    299.27163   -253589.13    1237.8459   -252351.28    7233.3475    395188.96       158.32       158.32    15.766425 
   24930    299.36074   -253589.61    1238.2145   -252351.39    7193.3592    395178.86       158.32       158.32    15.766023 
   24940    300.01918   -253592.47     1240.938   -252351.53    7041.0327    395169.16       158.32       158.32    15.765636 
   24950    298.68078   -253587.03    1235.4021   -252351.63    7151.0972    395160.11       158.32       158.32    15.765275 
   24960    299.07568    -253588.8    1237.0354   -252351.77    7216.0405    395151.83       158.32       158.32    15.764944 
   24970    300.61908   -253595.35    1243.4193   -252351.93    7167.0189    395144.62       158.32       158.32    15.764656 
   24980    298.14279   -253585.21    1233.1768   -252352.03    7523.0093    395138.35       158.32       158.32    15.764406 
   24990    298.52851   -253586.93    1234.7722   -252352.15    7392.4804    395133.05       158.32       158.32    15.764195 
   25000    299.64696   -253591.67    1239.3984   -252352.27    7523.1895    395128.86       158.32       158.32    15.764028 
Loop time of 2970.94 on 1 procs for 25000 steps with 32000 atoms

Performance: 1.454 ns/day, 16.505 hours/ns, 8.415 timesteps/s
80.1% CPU use with 1 MPI tasks x 1 OpenMP threads

MPI task timing breakdown:
Section |  min time  |  avg time  |  max time  |%varavg| %total
---------------------------------------------------------------
Pair    | 2786.7     | 2786.7     | 2786.7     |   0.0 | 93.80
Neigh   | 2.9426     | 2.9426     | 2.9426     |   0.0 |  0.10
Comm    | 9.1344     | 9.1344     | 9.1344     |   0.0 |  0.31
Output  | 131.33     | 131.33     | 131.33     |   0.0 |  4.42
Modify  | 34.713     | 34.713     | 34.713     |   0.0 |  1.17
Other   |            | 6.089      |            |       |  0.20

Nlocal:        32000.0 ave       32000 max       32000 min
Histogram: 1 0 0 0 0 0 0 0 0 0
Nghost:        48811.0 ave       48811 max       48811 min
Histogram: 1 0 0 0 0 0 0 0 0 0
Neighs:        0.00000 ave           0 max           0 min
Histogram: 1 0 0 0 0 0 0 0 0 0

Total # of neighbors = 0
Ave neighs/atom = 0.0000000
Neighbor list builds = 17
Dangerous builds = 0
write_restart    PTO_C.restart
System init for write_restart ...


Please see the log.cite file for references relevant to this simulation

Total wall time: 0:49:59
